977 TIP4P/2005f water molecules t=   1.86000 step= 1860
 3908
    1SOL     OW    1   0.409   0.767   0.124  0.8549  0.1369  0.9831
    1SOL    HW1    2   0.374   0.771   0.036  3.5547 -0.0130 -1.4160
    1SOL    HW2    3   0.410   0.675   0.157 -0.3259  0.1960 -1.6607
    1SOL     MW    4   0.404   0.755   0.117  1.0553  0.1249  0.3177
    2SOL     OW    5   0.272   2.990   1.103 -0.2785  0.2498  0.2017
    2SOL    HW1    6   0.334   3.065   1.088  0.4834  0.4568 -1.5177
    2SOL    HW2    7   0.183   3.020   1.114  1.5977  0.1816  1.5181
    2SOL     MW    8   0.268   3.004   1.103  0.0696  0.2681  0.1485
    3SOL     OW    9   2.709   0.326   0.936  0.0436  0.1285 -0.7084
    3SOL    HW1   10   2.744   0.392   0.879 -0.1556 -2.6784  0.9132
    3SOL    HW2   11   2.713   0.364   1.029  1.2817  3.6397  4.3160
    3SOL     MW   12   2.715   0.340   0.941  0.1807  0.2214  0.1685
    4SOL     OW   13   2.949   1.719   0.540  0.1915  0.2969 -0.2127
    4SOL    HW1   14   2.904   1.793   0.493 -0.9304  1.2027  0.2547
    4SOL    HW2   15   3.006   1.686   0.467 -0.2743  2.1195 -2.7141
    4SOL     MW   16   2.950   1.724   0.525 -0.0180  0.6569 -0.4810
    5SOL     OW   17   1.619   1.457   0.615  0.4156  0.1690  0.3006
    5SOL    HW1   18   1.643   1.452   0.708 -0.9173  2.0234  1.2558
    5SOL    HW2   19   1.529   1.481   0.627 -2.1017  3.1556 -0.6626
    5SOL     MW   20   1.611   1.460   0.629 -0.0924  0.8077  0.2996
    6SOL     OW   21   0.775   1.418   0.604 -0.1228 -0.1111 -0.1074
    6SOL    HW1   22   0.685   1.452   0.597 -2.1089  2.1898  2.7312
    6SOL    HW2   23   0.779   1.345   0.667  0.0913  0.3846 -0.0440
    6SOL     MW   24   0.763   1.413   0.612 -0.3566  0.2579  0.2755
    7SOL     OW   25   1.980   1.029   0.031  0.6769 -0.3453 -0.3048
    7SOL    HW1   26   2.059   1.077   0.035  2.5574 -0.4804 -0.8064
    7SOL    HW2   27   1.945   1.035   0.126 -0.8073 -0.2141  1.7336
    7SOL     MW   28   1.986   1.036   0.044  0.7292 -0.3458 -0.1021
    8SOL     OW   29   0.836   1.388   0.990  0.5851 -0.2401 -0.3170
    8SOL    HW1   30   0.910   1.443   1.005 -1.9095 -1.2250 -1.1648
    8SOL    HW2   31   0.792   1.359   1.073 -1.4659 -2.1819 -0.1804
    8SOL     MW   32   0.840   1.391   1.003 -0.0146 -0.6262 -0.4108
    9SOL     OW   33   0.882   0.542   1.293 -0.2225 -0.0445 -0.4970
    9SOL    HW1   34   0.848   0.455   1.269 -1.1289  1.1686  0.3568
    9SOL    HW2   35   0.960   0.536   1.347  0.4852 -2.0196 -0.8513
    9SOL     MW   36   0.888   0.530   1.297 -0.2487 -0.1450 -0.4311
   10SOL     OW   37   0.315   0.807   0.511 -0.1173 -0.0846  0.3187
   10SOL    HW1   38   0.398   0.855   0.489  0.4003  1.3882 -1.0479
   10SOL    HW2   39   0.259   0.857   0.571  3.1544 -0.3672 -0.7982
   10SOL     MW   40   0.319   0.820   0.516  0.3827  0.0724 -0.0090
   11SOL     OW   41   0.745   1.119   1.497 -0.2508 -0.2872 -0.1977
   11SOL    HW1   42   0.794   1.100   1.580  1.7401 -1.7382  0.2743
   11SOL    HW2   43   0.777   1.038   1.452  0.2960  1.0427 -2.4721
   11SOL     MW   44   0.756   1.106   1.502  0.0841 -0.3032 -0.4355
   12SOL     OW   45   0.022   1.088   0.911 -0.9006 -0.2341 -0.2719
   12SOL    HW1   46   0.059   1.173   0.937 -0.0822  1.2362  1.2110
   12SOL    HW2   47  -0.026   1.109   0.824  0.2335  1.9244  0.1047
   12SOL     MW   48   0.021   1.102   0.903 -0.6429  0.2447 -0.0265
   13SOL     OW   49   1.842   1.417   1.311 -0.1566  0.2530 -0.5733
   13SOL    HW1   50   1.870   1.332   1.268  1.9512  1.5239 -2.5700
   13SOL    HW2   51   1.906   1.482   1.277 -0.5267  0.8243  1.2942
   13SOL     MW   52   1.854   1.414   1.301  0.0726  0.4961 -0.5904
   14SOL     OW   53   0.588   0.265   1.834  0.1855 -0.2448  0.2834
   14SOL    HW1   54   0.629   0.191   1.793  0.6511  0.8417  2.0487
   14SOL    HW2   55   0.615   0.337   1.784 -2.8290 -0.6574 -0.0324
   14SOL     MW   56   0.597   0.265   1.822 -0.1508 -0.1559  0.4746
   15SOL     OW   57   2.050   0.417   0.946 -0.1483 -0.5507  0.0909
   15SOL    HW1   58   2.081   0.486   1.008 -2.5080 -2.3937  2.7724
   15SOL    HW2   59   2.075   0.450   0.854  0.4803 -0.9405 -2.1266
   15SOL     MW   60   2.057   0.431   0.942 -0.3767 -0.8453  0.1521
   16SOL     OW   61   0.206   1.838   0.261  0.2033  0.3070  0.1047
   16SOL    HW1   62   0.286   1.800   0.219  3.8711 -0.4141 -0.5297
   16SOL    HW2   63   0.240   1.900   0.326 -1.0840 -1.2017  1.6363
   16SOL     MW   64   0.221   1.841   0.264  0.5174  0.0128  0.2230
   17SOL     OW   65   1.123   0.889   1.403  0.2082 -0.5492 -0.1271
   17SOL    HW1   66   1.139   0.868   1.497  1.1247 -0.7326  0.7306
   17SOL    HW2   67   1.021   0.883   1.397 -0.2217 -0.0816 -2.3349
   17SOL     MW   68   1.112   0.885   1.415  0.2724 -0.5117 -0.3052
   18SOL     OW   69   0.036   1.637   0.363 -0.9173 -0.6473 -0.0115
   18SOL    HW1   70   0.092   1.716   0.338 -1.9619  0.1305 -0.2694
   18SOL    HW2   71   0.024   1.605   0.274 -1.2271  0.7829  0.6568
   18SOL     MW   72   0.042   1.643   0.348 -1.0960 -0.3560  0.0427
   19SOL     OW   73   0.072   1.378   0.962 -0.2547  0.5149  0.0689
   19SOL    HW1   74   0.093   1.389   0.868  0.7317 -0.1297 -1.1426
   19SOL    HW2   75  -0.022   1.370   0.971 -0.7580 -0.3890  0.1852
   19SOL     MW   76   0.062   1.378   0.951 -0.1910  0.3106 -0.0756
   20SOL     OW   77   0.446   2.118   1.273 -0.4214 -0.1583  0.1794
   20SOL    HW1   78   0.408   2.047   1.220  2.3556 -2.3492 -2.7383
   20SOL    HW2   79   0.386   2.124   1.345  0.7356  0.3736 -0.8297
   20SOL     MW   80   0.433   2.109   1.276  0.0977 -0.3772 -0.3387
   21SOL     OW   81   0.566   0.924   0.445  0.4008 -0.2002  0.2875
   21SOL    HW1   82   0.636   0.902   0.504 -1.7335  4.1309 -2.5030
   21SOL    HW2   83   0.604   0.908   0.356 -1.4703  0.2991 -0.2117
   21SOL     MW   84   0.580   0.919   0.441 -0.1277  0.4371 -0.1466
   22SOL     OW   85   1.543   0.732   0.973 -0.0206  0.4757 -0.5656
   22SOL    HW1   86   1.548   0.692   0.885 -1.6711 -0.2363 -0.8217
   22SOL    HW2   87   1.462   0.785   0.973  1.6043  0.8618 -1.5966
   22SOL     MW   88   1.533   0.734   0.961 -0.0240  0.4327 -0.7354
   23SOL     OW   89   3.090   0.807   0.690  0.2180 -0.2621 -0.1363
   23SOL    HW1   90   3.138   0.744   0.752  0.0512  0.9163  2.7189
   23SOL    HW2   91   3.145   0.887   0.693  2.3590  0.7479  1.6574
   23SOL     MW   92   3.103   0.809   0.698  0.4785  0.0266  0.4771
   24SOL     OW   93   2.047   2.150   0.076 -0.7123  0.6047  0.3097
   24SOL    HW1   94   2.013   2.137   0.169  0.7412  1.4011 -1.5816
   24SOL    HW2   95   2.086   2.075   0.038 -3.4884 -0.0019 -0.8121
   24SOL     MW   96   2.048   2.139   0.083 -0.8868  0.6297 -0.0878
   25SOL     OW   97   0.225   1.452   0.384  0.1486 -0.4559 -0.0269
   25SOL    HW1   98   0.170   1.539   0.391 -2.8938  5.5525 -2.0234
   25SOL    HW2   99   0.270   1.458   0.306 -1.6928 -1.7483  0.1434
   25SOL     MW  100   0.224   1.464   0.375 -0.4958  0.1663 -0.2679
   26SOL     OW  101   1.961   1.030   0.310 -0.7045 -0.0563  0.3838
   26SOL    HW1  102   1.945   1.070   0.399 -0.6488  1.1982  0.0941
   26SOL    HW2  103   2.039   1.078   0.282  1.6119 -0.8201  2.3165
   26SOL     MW  104   1.969   1.041   0.318 -0.3915  0.0084  0.6006
   27SOL     OW  105   1.857   1.376   0.130 -0.1643  0.2789  0.8833
   27SOL    HW1  106   1.797   1.448   0.157 -1.2077  0.5251  0.8234
   27SOL    HW2  107   1.930   1.379   0.190  0.2471 -0.0004  0.0433
   27SOL     MW  108   1.859   1.386   0.141 -0.2477  0.2745  0.7646
   28SOL     OW  109   0.440   0.932   2.071 -0.2743 -0.3673  0.4250
   28SOL    HW1  110   0.470   0.908   2.160  0.9353 -0.3658  0.8181
   28SOL    HW2  111   0.344   0.928   2.067  2.2157  3.0583  4.8349
   28SOL     MW  112   0.431   0.928   2.082  0.2138  0.0849  1.0587
   29SOL     OW  113   0.173   1.424   0.694  0.0451  0.0233 -0.3676
   29SOL    HW1  114   0.203   1.515   0.693 -0.5260 -1.3866 -1.1766
   29SOL    HW2  115   0.138   1.414   0.605 -1.5803 -0.7672 -0.3219
   29SOL     MW  116   0.173   1.435   0.682 -0.2447 -0.2670 -0.4683
   30SOL     OW  117   0.702   1.268   1.226 -0.6039  0.3285  0.0304
   30SOL    HW1  118   0.606   1.268   1.231  0.0544 -3.0827  2.4350
   30SOL    HW2  119   0.725   1.229   1.308 -0.3915 -1.5065 -2.1386
   30SOL     MW  120   0.693   1.263   1.238 -0.4890 -0.3637  0.0615
   31SOL     OW  121   0.495   0.259   0.189 -0.2016  0.0113 -0.3127
   31SOL    HW1  122   0.512   0.199   0.255  1.4622  0.6516 -1.2972
   31SOL    HW2  123   0.485   0.203   0.108  2.5860  0.4428  0.7207
   31SOL     MW  124   0.496   0.244   0.187  0.3858  0.1527 -0.3063
   32SOL     OW  125   2.753   1.000   1.091 -0.2314  0.4901  0.0996
   32SOL    HW1  126   2.702   0.916   1.074 -1.6269 -3.2855 -0.4282
   32SOL    HW2  127   2.846   0.961   1.088  2.3476 -2.0799  3.4878
   32SOL     MW  128   2.759   0.984   1.088 -0.0752 -0.3472  0.4770
   33SOL     OW  129   1.625   1.229   0.414  0.0522  0.5911 -0.3063
   33SOL    HW1  130   1.717   1.227   0.395  0.6147 -0.6623 -0.7564
   33SOL    HW2  131   1.625   1.277   0.499  1.1407  0.6922  0.7949
   33SOL     MW  132   1.637   1.235   0.423  0.2701  0.4391 -0.2204
   34SOL     OW  133   1.146   1.994   1.188 -0.4739  0.1688 -0.4375
   34SOL    HW1  134   1.060   1.998   1.234 -0.4280 -0.5250  1.4177
   34SOL    HW2  135   1.212   1.998   1.256  5.1977 -1.9482  0.4276
   34SOL     MW  136   1.143   1.995   1.203  0.2805 -0.2021 -0.0786
   35SOL     OW  137   0.319   0.151   1.669  0.3096  0.2136 -0.0278
   35SOL    HW1  138   0.387   0.143   1.736  1.1321 -3.9665 -0.5796
   35SOL    HW2  139   0.268   0.072   1.676  0.1140  2.1341 -1.1069
   35SOL     MW  140   0.322   0.139   1.679  0.3923 -0.0845 -0.2430
   36SOL     OW  141   1.953   1.999   0.573  0.0455  0.0541 -0.2485
   36SOL    HW1  142   1.966   2.027   0.479  2.0520  2.9681 -3.4135
   36SOL    HW2  143   1.983   1.906   0.569 -1.1847  1.4462 -2.3986
   36SOL     MW  144   1.959   1.991   0.560  0.1479  0.6223 -0.9498
   37SOL     OW  145   1.729   2.077   0.958 -0.2998 -0.6271  0.8300
   37SOL    HW1  146   1.672   2.019   0.900  0.8794  1.8726 -0.7852
   37SOL    HW2  147   1.671   2.097   1.029 -0.0089  0.6736 -4.0587
   37SOL     MW  148   1.714   2.072   0.960 -0.1058 -0.1257 -0.0282
   38SOL     OW  149   2.822   0.981   0.040  0.5488 -0.6144  0.3901
   38SOL    HW1  150   2.856   0.992   0.130 -0.6082  0.4196 -0.6179
   38SOL    HW2  151   2.898   0.969  -0.028  3.3981 -2.0975  2.0043
   38SOL     MW  152   2.836   0.981   0.043  0.7721 -0.6737  0.4701
   39SOL     OW  153   1.548   0.645   0.724 -0.6951 -0.5439 -0.5337
   39SOL    HW1  154   1.518   0.566   0.767  1.6684  2.9141  2.1782
   39SOL    HW2  155   1.471   0.686   0.691  0.1988 -3.0900  0.3759
   39SOL     MW  156   1.534   0.640   0.726 -0.2653 -0.4236 -0.0559
   40SOL     OW  157   1.276   1.876   0.242 -0.0400  0.2832  0.0929
   40SOL    HW1  158   1.350   1.820   0.259 -1.2497 -2.1585 -1.3974
   40SOL    HW2  159   1.244   1.908   0.324  1.8196 -0.6204 -0.2940
   40SOL     MW  160   1.282   1.873   0.255  0.0457 -0.1582 -0.1548
   41SOL     OW  161   0.511   0.502   1.591 -0.2368 -0.0109 -0.1078
   41SOL    HW1  162   0.566   0.574   1.548  0.6965  1.8296  1.6908
   41SOL    HW2  163   0.428   0.529   1.546 -0.2197 -0.5908 -4.7865
   41SOL     MW  164   0.507   0.515   1.579 -0.1114  0.1554 -0.4878
   42SOL     OW  165   1.242   2.909   1.992 -0.0596  0.0445 -0.1873
   42SOL    HW1  166   1.160   2.907   2.037  2.7494 -0.4438 -2.7956
   42SOL    HW2  167   1.297   2.853   2.057 -1.1599  0.3386  1.2563
   42SOL     MW  168   1.238   2.902   2.006  0.1658  0.0189 -0.3409
   43SOL     OW  169   1.382   0.129   1.698  0.0210 -0.2281 -0.2322
   43SOL    HW1  170   1.447   0.120   1.628  1.2688  1.5564  1.0826
   43SOL    HW2  171   1.333   0.052   1.671 -2.7120  0.9582 -1.5586
   43SOL     MW  172   1.384   0.118   1.685 -0.1750  0.1639 -0.2337
   44SOL     OW  173   1.203   0.840   0.950 -0.1847  0.0403 -0.2883
   44SOL    HW1  174   1.163   0.918   0.984 -0.0400  0.0482 -0.1631
   44SOL    HW2  175   1.163   0.764   0.991  0.0896 -1.1117 -2.2903
   44SOL     MW  176   1.193   0.840   0.960 -0.1294 -0.1107 -0.5359
   45SOL     OW  177   1.308   0.789   0.693  0.4085 -0.6256  0.1776
   45SOL    HW1  178   1.253   0.783   0.772 -2.1883  1.4930  0.2861
   45SOL    HW2  179   1.244   0.737   0.630 -1.2327 -2.5455 -0.0999
   45SOL     MW  180   1.292   0.781   0.695 -0.1506 -0.5994  0.1553
   46SOL     OW  181   0.422   1.129   0.673  0.3190 -0.3827  0.0306
   46SOL    HW1  182   0.446   1.164   0.588 -1.9177  1.2444 -0.5126
   46SOL    HW2  183   0.412   1.207   0.735 -1.8831 -0.5000 -0.1781
   46SOL     MW  184   0.424   1.144   0.670 -0.2666 -0.1835 -0.0686
   47SOL     OW  185   0.123   1.982   1.951  0.9570  0.6494 -0.5033
   47SOL    HW1  186   0.094   1.918   1.888 -0.1136  0.1748 -1.7550
   47SOL    HW2  187   0.135   1.934   2.039 -0.6852  1.1409  1.5557
   47SOL     MW  188   0.121   1.967   1.955  0.5991  0.6517 -0.3968
   48SOL     OW  189   1.279   0.491   1.054  0.4438  0.0493  0.4982
   48SOL    HW1  190   1.213   0.439   1.010  1.1259 -0.6470  0.0104
   48SOL    HW2  191   1.219   0.546   1.102  0.0520 -1.4420  0.5896
   48SOL     MW  192   1.263   0.492   1.055  0.4821 -0.2393  0.4459
   49SOL     OW  193   1.701   0.718   1.543  0.0758 -0.6008 -0.3385
   49SOL    HW1  194   1.748   0.655   1.607 -1.7134 -0.8564  1.0717
   49SOL    HW2  195   1.728   0.691   1.456 -1.5913  1.5251 -2.2210
   49SOL     MW  196   1.711   0.706   1.540 -0.3802 -0.3540 -0.4008
   50SOL     OW  197   1.313   1.206   0.625 -0.3491  0.7516 -0.4196
   50SOL    HW1  198   1.243   1.213   0.696 -0.5210  0.8358 -5.6136
   50SOL    HW2  199   1.374   1.139   0.657 -0.3920 -1.7729 -1.2373
   50SOL     MW  200   1.311   1.198   0.638 -0.3775  0.4296 -1.2128
   51SOL     OW  201   0.352   2.911   0.847 -0.2401  0.2851  0.1598
   51SOL    HW1  202   0.429   2.863   0.882  2.2320  0.6194  0.6434
   51SOL    HW2  203   0.314   2.953   0.925 -0.1624  1.0835  0.0804
   51SOL     MW  204   0.357   2.911   0.862  0.0963  0.4345  0.2131
   52SOL     OW  205   0.812   1.845   0.474  0.3026  0.3353 -0.1451
   52SOL    HW1  206   0.782   1.933   0.499  1.2976  0.8320 -2.5767
   52SOL    HW2  207   0.812   1.844   0.377 -2.5471 -0.7136 -0.9685
   52SOL     MW  208   0.808   1.856   0.464  0.0579  0.2624 -0.5746
   53SOL     OW  209   0.478   2.152   0.582 -0.2518 -0.1519  0.3700
   53SOL    HW1  210   0.417   2.103   0.521 -0.3063  0.0860  0.4277
   53SOL    HW2  211   0.448   2.246   0.570  0.6134  0.5133 -1.8254
   53SOL     MW  212   0.466   2.158   0.572 -0.1448 -0.0328  0.0880
   54SOL     OW  213   2.045   0.992   0.706 -0.2007 -0.0614 -0.5285
   54SOL    HW1  214   2.109   0.992   0.635  1.4021 -1.6767  1.5220
   54SOL    HW2  215   2.016   0.901   0.712  0.9967 -1.4057 -0.2502
   54SOL     MW  216   2.050   0.980   0.697  0.1687 -0.4519 -0.2213
   55SOL     OW  217   0.431   1.527   1.730  0.0275  0.3261 -0.0528
   55SOL    HW1  218   0.374   1.565   1.656  0.1096  1.2801 -2.3489
   55SOL    HW2  219   0.520   1.537   1.704  1.2156 -2.0254 -0.6976
   55SOL     MW  220   0.435   1.533   1.717  0.1951  0.1417 -0.4408
   56SOL     OW  221   0.660   0.910   0.184 -0.1050 -0.3587  0.4543
   56SOL    HW1  222   0.669   0.995   0.136 -0.6526  0.1082 -1.1328
   56SOL    HW2  223   0.575   0.888   0.152 -0.1529 -1.0709  0.9096
   56SOL     MW  224   0.650   0.918   0.174 -0.1836 -0.3911  0.3050
   57SOL     OW  225   1.101   1.325   1.183  0.1141  0.3422  0.1524
   57SOL    HW1  226   1.192   1.352   1.198 -2.4121  3.0572  1.1038
   57SOL    HW2  227   1.081   1.286   1.272 -0.8671 -0.7069  0.5312
   57SOL     MW  228   1.110   1.323   1.197 -0.3487  0.5620  0.3279
   58SOL     OW  229   0.446   1.242   1.296  0.5314 -0.0183  0.2368
   58SOL    HW1  230   0.429   1.337   1.300  1.4024 -1.6072 -1.2415
   58SOL    HW2  231   0.444   1.214   1.386 -0.8544  5.9239 -0.5788
   58SOL     MW  232   0.443   1.251   1.308  0.4635  0.5561 -0.0659
   59SOL     OW  233   1.486   1.671   0.383  0.4922 -0.1365  0.0317
   59SOL    HW1  234   1.525   1.727   0.441 -0.0856 -1.6774 -0.4345
   59SOL    HW2  235   1.393   1.673   0.416  0.1424  0.9939 -1.6469
   59SOL     MW  236   1.479   1.678   0.395  0.3698 -0.1907 -0.2513
   60SOL     OW  237   3.072   0.166   1.627 -0.3314 -0.0779 -0.1333
   60SOL    HW1  238   2.991   0.204   1.666  0.4981  1.0348  0.8439
   60SOL    HW2  239   3.110   0.098   1.688 -2.9940  0.2693 -4.1799
   60SOL     MW  240   3.066   0.162   1.640 -0.5733  0.1147 -0.5382
   61SOL     OW  241   1.990   1.349   2.995  0.3289  0.1916 -0.0183
   61SOL    HW1  242   1.925   1.352   3.074 -0.2431 -0.5320 -0.0412
   61SOL    HW2  243   2.050   1.282   3.012 -1.6059  0.9168 -2.4730
   61SOL     MW  244   1.990   1.341   3.008 -0.0019  0.1918 -0.3452
   62SOL     OW  245   0.558   1.763   0.587 -0.4223  0.7057 -0.8757
   62SOL    HW1  246   0.646   1.773   0.556  1.9661 -0.5187  1.2681
   62SOL    HW2  247   0.531   1.670   0.579  0.1073  0.2290  0.6677
   62SOL     MW  248   0.566   1.752   0.582 -0.0373  0.4812 -0.3892
   63SOL     OW  249   1.718   0.664   0.520 -0.0586 -0.2746 -0.5740
   63SOL    HW1  250   1.687   0.750   0.495 -0.3493 -0.5031 -0.2163
   63SOL    HW2  251   1.655   0.646   0.592 -1.7672  0.5328  1.2453
   63SOL     MW  252   1.706   0.673   0.526 -0.3224 -0.1982 -0.2868
   64SOL     OW  253   0.210   1.708   0.642 -0.5485  0.0664 -0.2041
   64SOL    HW1  254   0.268   1.777   0.678  0.5887  1.3221 -2.3935
   64SOL    HW2  255   0.122   1.729   0.681 -2.3832  2.4907  2.1396
   64SOL     MW  256   0.206   1.720   0.652 -0.6405  0.5519 -0.1837
   65SOL     OW  257   1.509   2.318   0.392  0.7030  0.2306 -0.3698
   65SOL    HW1  258   1.596   2.360   0.407  1.7271 -1.0717  0.9425
   65SOL    HW2  259   1.456   2.351   0.470  0.7438  1.7493  1.2134
   65SOL     MW  260   1.514   2.328   0.404  0.8435  0.2591  0.0122
   66SOL     OW  261   0.381   0.549   0.536  0.1344  0.6271 -0.1802
   66SOL    HW1  262   0.438   0.528   0.458 -0.5362  2.6918  0.7165
   66SOL    HW2  263   0.384   0.645   0.540  1.4291  0.2201 -0.3006
   66SOL     MW  264   0.389   0.559   0.526  0.2167  0.8458 -0.0778
   67SOL     OW  265   1.334   0.054   1.998  0.0112  0.3700  0.1903
   67SOL    HW1  266   1.342   0.060   1.903 -0.7123  2.7796  2.5075
   67SOL    HW2  267   1.297  -0.034   2.009  1.5183  0.8270 -1.5383
   67SOL     MW  268   1.330   0.043   1.987  0.1146  0.7482  0.2680
   68SOL     OW  269   0.790   0.102   2.868  0.4278  0.1180 -0.7478
   68SOL    HW1  270   0.758   0.186   2.829  1.1717  2.3023  1.2821
   68SOL    HW2  271   0.851   0.122   2.940 -1.3498 -0.9889 -2.5809
   68SOL     MW  272   0.794   0.116   2.873  0.2914  0.2601 -0.7218
   69SOL     OW  273   1.098   0.272   1.965 -0.4987  0.2529 -0.4823
   69SOL    HW1  274   1.190   0.275   1.998 -1.8466  2.9451 -2.4343
   69SOL    HW2  275   1.043   0.195   2.000  0.3228 -1.3691  2.4747
   69SOL     MW  276   1.103   0.262   1.974 -0.5682  0.3941 -0.3497
   70SOL     OW  277   0.536   1.704   1.137 -0.5819 -0.0388 -0.0400
   70SOL    HW1  278   0.619   1.752   1.131  1.2772 -3.1086 -3.3428
   70SOL    HW2  279   0.557   1.628   1.084  4.3790 -1.4520  2.7361
   70SOL     MW  280   0.550   1.701   1.130  0.3179 -0.6303 -0.1095
   71SOL     OW  281   1.573   0.598   1.210  0.3026  0.7884 -0.3490
   71SOL    HW1  282   1.526   0.677   1.240  2.0619 -3.6286  0.1124
   71SOL    HW2  283   1.586   0.629   1.116 -2.0621  1.6862  0.1827
   71SOL     MW  284   1.568   0.613   1.202  0.2228  0.3241 -0.2179
   72SOL     OW  285   0.791   1.845   1.053  0.2463  0.3898  0.6691
   72SOL    HW1  286   0.803   1.917   0.991 -1.4788 -1.5431  1.8375
   72SOL    HW2  287   0.869   1.791   1.042  0.2620  0.6600  2.6471
   72SOL     MW  288   0.803   1.847   1.043  0.0207  0.1704  1.0842
   73SOL     OW  289   1.072   0.670   1.136 -0.1004 -0.3696  0.0362
   73SOL    HW1  290   0.984   0.637   1.166 -3.2261 -0.7849 -1.0905
   73SOL    HW2  291   1.073   0.746   1.181  1.8576 -1.5031 -3.1421
   73SOL     MW  292   1.060   0.675   1.146 -0.2545 -0.5739 -0.5318
   74SOL     OW  293   2.828   0.094   0.976  0.3450  0.1983  0.1830
   74SOL    HW1  294   2.923   0.112   0.966  0.7006 -1.0732  2.3142
   74SOL    HW2  295   2.782   0.176   0.949 -0.6598  1.3649 -0.0814
   74SOL     MW  296   2.834   0.108   0.971  0.2594  0.1845  0.4293
   75SOL     OW  297   1.476   1.316   0.168 -0.4423 -0.2842 -0.0433
   75SOL    HW1  298   1.530   1.278   0.097  0.6481  0.1098 -1.3504
   75SOL    HW2  299   1.523   1.284   0.242  1.1418  2.4019 -1.2446
   75SOL     MW  300   1.489   1.307   0.168 -0.0894  0.1222 -0.3742
   76SOL     OW  301   3.054   0.690   0.409 -0.8139 -0.2833 -0.6191
   76SOL    HW1  302   3.034   0.743   0.490  1.8212  0.2168  0.1547
   76SOL    HW2  303   3.129   0.635   0.426  0.4504  0.0275 -0.2538
   76SOL     MW  304   3.061   0.690   0.422 -0.2994 -0.1763 -0.4688
   77SOL     OW  305   0.864   0.598   0.439 -0.6621 -0.3004 -0.4206
   77SOL    HW1  306   0.850   0.618   0.343 -1.0792 -2.3531  0.2672
   77SOL    HW2  307   0.848   0.501   0.437 -2.5480  0.9244 -2.7478
   77SOL     MW  308   0.860   0.588   0.426 -0.9660 -0.4097 -0.6369
   78SOL     OW  309   0.810   0.879   1.086 -0.5219 -0.1293  0.2148
   78SOL    HW1  310   0.806   0.964   1.047  0.1128 -1.2969  1.4527
   78SOL    HW2  311   0.722   0.872   1.130 -1.1027  2.0511 -1.9077
   78SOL     MW  312   0.798   0.889   1.086 -0.5148  0.0043  0.0981
   79SOL     OW  313   1.869   1.509   0.545 -0.0215 -0.0535  0.6111
   79SOL    HW1  314   1.775   1.498   0.559  0.9575  2.3774 -2.0621
   79SOL    HW2  315   1.909   1.475   0.625 -0.4925 -1.5273  2.5044
   79SOL     MW  316   1.862   1.503   0.557  0.0455  0.0728  0.5082
   80SOL     OW  317   0.225   0.987   0.290 -0.0911 -0.4065  0.0472
   80SOL    HW1  318   0.186   0.939   0.216  1.1560  0.2203  0.9311
   80SOL    HW2  319   0.256   0.917   0.350  1.4378 -0.6165  0.7514
   80SOL     MW  320   0.224   0.972   0.288  0.2752 -0.3515  0.2567
   81SOL     OW  321   1.814   1.819   0.331  0.0034 -0.0855 -1.0547
   81SOL    HW1  322   1.777   1.742   0.289 -3.5207 -1.1798 -1.3990
   81SOL    HW2  323   1.774   1.894   0.289 -2.1292  1.3019 -1.3178
   81SOL     MW  324   1.804   1.819   0.320 -0.7429 -0.0468 -1.1348
   82SOL     OW  325   0.974   1.024   0.563 -0.2703  0.3397 -0.2386
   82SOL    HW1  326   0.919   1.096   0.522 -1.5837  1.4101 -0.5152
   82SOL    HW2  327   0.911   0.955   0.552  1.7156 -0.5915  0.3006
   82SOL     MW  328   0.958   1.025   0.556 -0.1815  0.3580 -0.2039
   83SOL     OW  329   3.091   0.734   1.536  0.2074 -0.0642 -0.6299
   83SOL    HW1  330   3.099   0.796   1.460  1.1407 -0.6283 -0.3257
   83SOL    HW2  331   3.165   0.673   1.508  1.2687 -4.1011  0.6111
   83SOL     MW  332   3.102   0.734   1.522  0.4706 -0.6712 -0.4260
   84SOL     OW  333   3.071   0.174   0.909 -0.2688  0.0709  0.2390
   84SOL    HW1  334   3.058   0.260   0.961  1.2858 -0.2386  0.8671
   84SOL    HW2  335   3.089   0.106   0.973  0.0759  2.4581  0.2506
   84SOL     MW  336   3.071   0.176   0.924 -0.0182  0.3450  0.3234
   85SOL     OW  337   0.361   0.480   0.793  0.2128 -0.2565 -0.1906
   85SOL    HW1  338   0.365   0.494   0.695  0.2470  1.9022 -0.4683
   85SOL    HW2  339   0.303   0.402   0.806 -2.3857  1.2272 -0.7182
   85SOL     MW  340   0.354   0.471   0.782 -0.1256  0.2241 -0.2969
   86SOL     OW  341   1.281   0.270   1.212 -0.2333 -0.0371 -0.2117
   86SOL    HW1  342   1.275   0.354   1.169  2.2134  0.8649 -1.8462
   86SOL    HW2  343   1.372   0.268   1.241  0.7003  1.6815 -0.5445
   86SOL     MW  344   1.292   0.281   1.210  0.2127  0.3086 -0.4713
   87SOL     OW  345   1.009   1.576   1.185 -0.5192 -0.0406  0.2040
   87SOL    HW1  346   1.082   1.621   1.139 -0.1582  1.5677  0.7365
   87SOL    HW2  347   1.033   1.482   1.198 -0.8220 -3.1113  3.5130
   87SOL     MW  348   1.022   1.570   1.181 -0.5115 -0.2336  0.7109
   88SOL     OW  349   1.155   1.128   1.011  0.1295  0.0910  0.5049
   88SOL    HW1  350   1.250   1.115   1.006 -1.3414  2.6072  0.2748
   88SOL    HW2  351   1.136   1.189   1.083  1.0348  1.2735  1.1029
   88SOL     MW  352   1.165   1.134   1.020  0.0549  0.5790  0.5534
   89SOL     OW  353   1.792   0.728   0.220 -0.1633  0.3663 -0.2840
   89SOL    HW1  354   1.737   0.657   0.264 -0.3755 -0.8367  0.0075
   89SOL    HW2  355   1.872   0.731   0.274  1.5035  1.2625 -0.2676
   89SOL     MW  356   1.795   0.719   0.233  0.0286  0.3258 -0.2434
   90SOL     OW  357   0.775   1.184   2.778  0.8454 -0.2267 -0.7417
   90SOL    HW1  358   0.797   1.094   2.756 -1.5235  0.6596  1.8609
   90SOL    HW2  359   0.805   1.207   2.864  1.4553 -1.4293 -2.9547
   90SOL     MW  360   0.782   1.175   2.786  0.6133 -0.2684 -0.6903
   91SOL     OW  361   2.262   0.601   0.541  0.3156  0.5260  0.2123
   91SOL    HW1  362   2.298   0.669   0.482  1.1203  0.6967  2.8476
   91SOL    HW2  363   2.268   0.521   0.480  0.4252 -0.7126 -0.8612
   91SOL     MW  364   2.268   0.599   0.525  0.4362  0.3851  0.4184
   92SOL     OW  365   1.650   0.956   0.476 -0.3201 -0.0442 -0.0566
   92SOL    HW1  366   1.593   0.974   0.554 -0.2940  0.2868  1.7095
   92SOL    HW2  367   1.631   1.028   0.414  3.7402 -2.0029  0.4365
   92SOL     MW  368   1.640   0.968   0.478  0.2191 -0.2590  0.2415
   93SOL     OW  369   1.109   0.237   0.404  0.5661 -0.4703  0.0485
   93SOL    HW1  370   1.021   0.271   0.409  0.3407 -1.3005 -1.5436
   93SOL    HW2  371   1.120   0.252   0.308  1.2287 -1.3294 -0.2796
   93SOL     MW  372   1.099   0.244   0.392  0.6238 -0.6932 -0.2049
   94SOL     OW  373   1.918   1.386   1.582 -0.0816 -0.2769  0.4538
   94SOL    HW1  374   1.890   1.385   1.491 -0.4886 -2.6395  0.4622
   94SOL    HW2  375   1.863   1.321   1.616 -0.2424  2.4090 -1.4587
   94SOL     MW  376   1.907   1.377   1.575 -0.1565 -0.2343  0.2026
   95SOL     OW  377   0.597   1.524   0.932  0.3344 -0.2163  0.0967
   95SOL    HW1  378   0.679   1.475   0.929 -1.7445  0.1031  0.8405
   95SOL    HW2  379   0.525   1.463   0.903 -1.8901 -1.0250 -1.5561
   95SOL     MW  380   0.598   1.510   0.928 -0.2334 -0.2809 -0.0232
   96SOL     OW  381   1.340   1.832   1.707 -0.5060 -0.5817 -0.0468
   96SOL    HW1  382   1.247   1.850   1.728  0.5681  1.9030 -1.7696
   96SOL    HW2  383   1.347   1.746   1.666  0.1933 -0.7014 -2.6670
   96SOL     MW  384   1.329   1.823   1.705 -0.2720 -0.2696 -0.6198
   97SOL     OW  385   1.087   1.562   0.832 -0.1444 -0.1211  0.0455
   97SOL    HW1  386   1.144   1.619   0.888 -0.8593  0.3495  1.6945
   97SOL    HW2  387   1.011   1.621   0.813  1.9646  1.0371  0.1500
   97SOL     MW  388   1.084   1.577   0.837  0.0395  0.0938  0.2768
   98SOL     OW  389   1.362   1.393   1.215 -0.3974 -0.0707 -0.7617
   98SOL    HW1  390   1.437   1.410   1.276  2.9674 -1.4531 -0.2154
   98SOL    HW2  391   1.389   1.414   1.126 -0.0396 -2.1332  0.5286
   98SOL     MW  392   1.375   1.398   1.212  0.0937 -0.5252 -0.5194
   99SOL     OW  393   1.551   0.332   1.311 -0.3261 -0.0062  0.5209
   99SOL    HW1  394   1.553   0.415   1.261 -0.7965  0.8117 -1.3368
   99SOL    HW2  395   1.501   0.360   1.392 -0.5717  0.1902 -0.5375
   99SOL     MW  396   1.545   0.347   1.315 -0.4206  0.1276  0.1362
  100SOL     OW  397   1.089   1.161   1.389  0.1489  0.3096  0.1393
  100SOL    HW1  398   1.057   1.187   1.476 -2.2534 -1.5372  0.6700
  100SOL    HW2  399   1.108   1.071   1.393 -0.0469  1.6760 -0.7436
  100SOL     MW  400   1.087   1.153   1.401 -0.1939  0.2462  0.0928
  101SOL     OW  401   0.534   1.244   0.464 -0.4260  0.9544  0.3584
  101SOL    HW1  402   0.490   1.247   0.373 -0.3104  3.0269  0.8805
  101SOL    HW2  403   0.604   1.186   0.438 -0.6007 -1.7744  1.0549
  101SOL     MW  404   0.538   1.236   0.448 -0.4338  0.8678  0.5192
  102SOL     OW  405   2.883   0.599   1.073 -0.1632 -0.1209 -0.2516
  102SOL    HW1  406   2.908   0.691   1.082 -1.1336 -2.8335  0.5061
  102SOL    HW2  407   2.855   0.590   1.160 -0.7724  0.0755  2.1557
  102SOL     MW  408   2.883   0.610   1.085 -0.3716 -0.4529  0.1660
  103SOL     OW  409   1.876   0.278   1.760  0.8990 -0.3351  0.0262
  103SOL    HW1  410   1.863   0.183   1.735 -1.6985  0.0180  2.0949
  103SOL    HW2  411   1.873   0.280   1.858  0.9035  2.1741 -1.8760
  103SOL     MW  412   1.874   0.266   1.770  0.5568  0.0425  0.0482
  104SOL     OW  413   0.050   1.525   1.677 -0.2457 -0.0127  0.0972
  104SOL    HW1  414   0.107   1.452   1.709 -0.2674  3.0088  0.1639
  104SOL    HW2  415  -0.041   1.481   1.676 -0.5356 -0.3306 -1.7132
  104SOL     MW  416   0.045   1.509   1.681 -0.2868  0.3440 -0.1329
  105SOL     OW  417   0.093   1.200   0.440  0.2642  0.1803 -0.0036
  105SOL    HW1  418   0.131   1.118   0.407 -0.9691 -1.1971  1.8095
  105SOL    HW2  419   0.139   1.273   0.402 -1.0762  1.2041 -1.9086
  105SOL     MW  420   0.104   1.199   0.430 -0.0754  0.1336 -0.0157
  106SOL     OW  421   0.821   0.246   0.855  0.5994 -0.3616  0.4465
  106SOL    HW1  422   0.757   0.321   0.867  1.1682  2.8004 -1.6203
  106SOL    HW2  423   0.891   0.278   0.797  2.8287 -1.4065 -0.4117
  106SOL     MW  424   0.822   0.260   0.849  0.9686 -0.0823  0.0606
  107SOL     OW  425   0.803   2.197   2.874  0.1624 -0.0864 -0.0814
  107SOL    HW1  426   0.710   2.176   2.888 -2.2291 -1.1051 -1.1140
  107SOL    HW2  427   0.844   2.150   2.944 -0.8586 -0.2561 -1.0511
  107SOL     MW  428   0.796   2.188   2.885 -0.2878 -0.2432 -0.3456
  108SOL     OW  429   1.308   1.546   1.630  0.1460  0.2113 -0.2839
  108SOL    HW1  430   1.236   1.552   1.560 -2.2996 -1.8748 -0.0532
  108SOL    HW2  431   1.393   1.499   1.601  1.6423 -0.8520  2.1569
  108SOL     MW  432   1.310   1.541   1.617  0.0207 -0.2043  0.0685
  109SOL     OW  433   2.040   0.763   0.360  0.1232 -0.3108  0.6699
  109SOL    HW1  434   2.031   0.854   0.383 -0.3566 -2.7702 -1.8954
  109SOL    HW2  435   2.080   0.719   0.435 -0.5661 -1.8420  1.6022
  109SOL     MW  436   2.044   0.769   0.373 -0.0311 -0.8373  0.4544
  110SOL     OW  437   0.400   1.895   0.794 -0.2841 -0.3957  0.2728
  110SOL    HW1  438   0.465   1.826   0.769  0.7250  0.9821 -2.8040
  110SOL    HW2  439   0.429   1.975   0.744 -0.3092  1.4170 -0.9668
  110SOL     MW  440   0.413   1.896   0.784 -0.1543  0.0253 -0.2967
  111SOL     OW  441   0.856   0.881   1.365  0.3366 -0.1238  0.2176
  111SOL    HW1  442   0.858   0.881   1.265  0.6382  1.0861 -1.1606
  111SOL    HW2  443   0.799   0.815   1.401  1.6520  2.8535  0.8384
  111SOL     MW  444   0.849   0.872   1.356  0.5499  0.4287  0.1177
  112SOL     OW  445   1.341   1.159   1.674 -0.1344  0.3612  0.7224
  112SOL    HW1  446   1.258   1.202   1.654  1.1013  0.1683 -0.5441
  112SOL    HW2  447   1.337   1.064   1.674  1.5277 -0.0697  1.4769
  112SOL     MW  448   1.330   1.152   1.671  0.2480  0.2789  0.6549
  113SOL     OW  449   1.223   2.975   1.732  0.1599  0.2761  0.1646
  113SOL    HW1  450   1.219   2.937   1.820 -0.2671 -0.7400 -0.3048
  113SOL    HW2  451   1.192   2.912   1.669 -2.1850 -0.4307  1.6069
  113SOL     MW  452   1.218   2.962   1.735 -0.2058  0.0488  0.2929
  114SOL     OW  453   0.346   2.896   1.797 -0.4960 -0.1592  0.5811
  114SOL    HW1  454   0.436   2.924   1.803 -3.1335 -0.5273 -3.1731
  114SOL    HW2  455   0.296   2.914   1.879 -1.6729 -1.5692  0.6722
  114SOL     MW  456   0.352   2.902   1.808 -0.9993 -0.3938  0.0978
  115SOL     OW  457   0.559   0.884   1.173 -0.3857 -0.2413 -0.1899
  115SOL    HW1  458   0.522   0.805   1.139  0.7795  1.7377 -0.2948
  115SOL    HW2  459   0.502   0.919   1.242 -0.8621 -0.0531  2.9229
  115SOL     MW  460   0.547   0.878   1.177 -0.2948  0.0447  0.2070
  116SOL     OW  461   0.692   1.115   1.004  0.5760  0.0336 -0.3230
  116SOL    HW1  462   0.724   1.179   0.938 -0.9744  1.9566  2.6635
  116SOL    HW2  463   0.709   1.153   1.092 -1.5201  1.7947 -2.3231
  116SOL     MW  464   0.698   1.128   1.007  0.0949  0.5197 -0.1928
  117SOL     OW  465   1.091   1.296   0.774 -0.3693 -0.6190 -0.1730
  117SOL    HW1  466   1.105   1.270   0.862 -2.6832  0.5809  0.9442
  117SOL    HW2  467   1.097   1.395   0.785 -0.4360 -0.5064 -0.8122
  117SOL     MW  468   1.094   1.306   0.787 -0.6834 -0.4458 -0.1100
  118SOL     OW  469   3.093   2.969   1.819  0.4386  0.3825  0.4455
  118SOL    HW1  470   3.123   3.043   1.871 -0.0936 -1.9759 -0.1099
  118SOL    HW2  471   3.004   2.984   1.786  2.9737 -1.0763 -0.7106
  118SOL     MW  472   3.085   2.981   1.822  0.7028 -0.1211  0.2197
  119SOL     OW  473   0.386   1.514   1.290  0.3605 -0.6452  0.5733
  119SOL    HW1  474   0.444   1.584   1.259  1.1243 -0.7411 -1.9930
  119SOL    HW2  475   0.307   1.523   1.235 -0.4861 -0.5948  1.4668
  119SOL     MW  476   0.383   1.525   1.279  0.3496 -0.6512  0.3526
  120SOL     OW  477   0.295   0.880   0.965  0.1603 -0.0861 -0.0790
  120SOL    HW1  478   0.272   0.943   1.033 -1.2719 -2.1043  0.3395
  120SOL    HW2  479   0.386   0.906   0.949  0.4559 -0.5553  0.3971
  120SOL     MW  480   0.304   0.891   0.972  0.0103 -0.4143  0.0391
  121SOL     OW  481   1.756   1.108   1.604  0.1850  0.0823  0.2934
  121SOL    HW1  482   1.713   1.144   1.526  0.3353  0.4120 -0.2634
  121SOL    HW2  483   1.830   1.051   1.571  2.1690 -0.7373 -2.3586
  121SOL     MW  484   1.760   1.105   1.589  0.4666  0.0177 -0.1300
  122SOL     OW  485   0.157   0.676   0.871 -0.3671 -0.3297 -0.2669
  122SOL    HW1  486   0.238   0.629   0.835  0.0834 -0.0749 -2.2113
  122SOL    HW2  487   0.201   0.736   0.935 -1.8786  0.7437 -3.7723
  122SOL     MW  488   0.174   0.678   0.875 -0.5071 -0.1545 -0.9859
  123SOL     OW  489   1.848   1.120   0.545 -0.2293  0.2673  0.2861
  123SOL    HW1  490   1.765   1.068   0.537 -0.0989  1.9049  0.9949
  123SOL    HW2  491   1.888   1.094   0.628  1.0536 -0.8039  0.0112
  123SOL     MW  492   1.842   1.110   0.555 -0.0428  0.3420  0.3433
  124SOL     OW  493   0.657   0.453   0.833  0.7172  0.3292 -0.6307
  124SOL    HW1  494   0.560   0.446   0.810 -0.5151 -0.2099  0.7536
  124SOL    HW2  495   0.683   0.544   0.841 -1.2496 -0.7027 -0.6240
  124SOL     MW  496   0.647   0.464   0.831  0.2951  0.1219 -0.4472
  125SOL     OW  497   0.670   1.730   1.717 -0.6771  0.7750 -0.2137
  125SOL    HW1  498   0.685   1.724   1.620  0.7348  0.7772 -3.0642
  125SOL    HW2  499   0.602   1.802   1.722 -0.1202  0.8732 -0.1001
  125SOL     MW  500   0.663   1.739   1.705 -0.4173  0.7882 -0.5748
  126SOL     OW  501   2.123   1.553   1.871  0.0651 -0.1037 -0.7877
  126SOL    HW1  502   2.164   1.637   1.884 -0.3968  0.3643  3.0892
  126SOL    HW2  503   2.186   1.489   1.904  1.5008  0.8537 -0.8633
  126SOL     MW  504   2.136   1.555   1.877  0.1936  0.0844 -0.2861
  127SOL     OW  505   0.510   0.771   1.840  0.5780 -0.2749 -0.2673
  127SOL    HW1  506   0.594   0.799   1.796  0.1069 -0.3417 -0.6755
  127SOL    HW2  507   0.499   0.828   1.914  0.1333  0.7795  1.0794
  127SOL     MW  508   0.520   0.782   1.844  0.4571 -0.1446 -0.1435
  128SOL     OW  509   1.747   0.763   2.863 -0.4588  0.5778 -0.2968
  128SOL    HW1  510   1.790   0.743   2.777  0.8283 -0.2167  1.8074
  128SOL    HW2  511   1.732   0.861   2.869  0.1010  1.6732  0.8967
  128SOL     MW  512   1.751   0.773   2.852 -0.2151  0.6175  0.1383
  129SOL     OW  513   1.601   0.941   0.157  0.4438  0.6118  0.0462
  129SOL    HW1  514   1.570   0.872   0.102  0.5468  1.8099 -0.7017
  129SOL    HW2  515   1.665   0.896   0.213  1.4090 -0.1575 -3.4116
  129SOL     MW  516   1.605   0.926   0.157  0.5847  0.6684 -0.5087
  130SOL     OW  517   0.873   1.452   0.326 -0.3132  0.3467 -0.1063
  130SOL    HW1  518   0.890   1.443   0.417  1.5235  1.6399  0.7168
  130SOL    HW2  519   0.956   1.482   0.293 -1.6448 -1.7117  1.9810
  130SOL     MW  520   0.886   1.454   0.334 -0.2465  0.2457  0.2777
  131SOL     OW  521   0.064   0.816   0.071 -0.0679  0.3471 -0.4709
  131SOL    HW1  522   0.061   0.849  -0.016  1.5710  1.5281 -1.5730
  131SOL    HW2  523   0.105   0.723   0.065 -0.2136  0.2788 -1.0830
  131SOL     MW  524   0.069   0.808   0.059  0.1291  0.4939 -0.6971
  132SOL     OW  525   2.734   0.075   1.228 -0.0702 -0.2274 -0.4230
  132SOL    HW1  526   2.772   0.073   1.139  2.3092  1.2348 -1.0150
  132SOL    HW2  527   2.642   0.079   1.212  1.1971 -2.2776  1.3772
  132SOL     MW  528   2.727   0.076   1.214  0.4109 -0.3050 -0.2636
  133SOL     OW  529   1.071   0.117   1.742  0.4478  0.2140 -0.0052
  133SOL    HW1  530   1.110   0.029   1.743 -0.9103 -0.4978 -0.6184
  133SOL    HW2  531   1.097   0.160   1.826  1.1079 -0.3064 -1.3019
  133SOL     MW  532   1.079   0.111   1.753  0.3557  0.0514 -0.2572
  134SOL     OW  533   1.411   2.493   1.458  0.1235 -0.7779  0.0038
  134SOL    HW1  534   1.383   2.560   1.401 -1.6377 -1.3395  1.9451
  134SOL    HW2  535   1.459   2.543   1.533  2.2611  1.3710  0.3603
  134SOL     MW  536   1.413   2.509   1.461  0.1732 -0.5685  0.3070
  135SOL     OW  537   3.008   1.009   2.926 -0.4607 -0.4327 -0.2716
  135SOL    HW1  538   3.079   1.054   2.965 -1.5501  0.4572 -3.2415
  135SOL    HW2  539   2.946   1.074   2.883 -1.4290  1.0220 -1.4994
  135SOL     MW  540   3.009   1.023   2.925 -0.7322 -0.1234 -0.8255
  136SOL     OW  541   0.149   2.002   0.859 -0.2297  0.2456  0.0362
  136SOL    HW1  542   0.075   1.935   0.846  1.8993 -0.5875 -1.4266
  136SOL    HW2  543   0.228   1.956   0.828 -1.6871 -2.1460 -0.8182
  136SOL     MW  544   0.149   1.987   0.854 -0.1411 -0.1799 -0.2696
  137SOL     OW  545   0.746   2.074   0.606  0.2460 -0.1465  0.5006
  137SOL    HW1  546   0.775   2.065   0.698 -1.9487 -1.9292 -0.8302
  137SOL    HW2  547   0.651   2.098   0.608  0.3878 -0.9059 -0.2710
  137SOL     MW  548   0.737   2.076   0.619 -0.0249 -0.4819  0.2232
  138SOL     OW  549   0.518   0.609   1.068  0.4113  0.4184 -0.1550
  138SOL    HW1  550   0.424   0.593   1.073 -1.7757  0.5553 -0.8218
  138SOL    HW2  551   0.543   0.555   0.997  1.6235  0.2159 -1.9726
  138SOL     MW  552   0.509   0.600   1.059  0.2827  0.4097 -0.4828
  139SOL     OW  553   2.860   0.486   1.332 -0.0553 -0.1585 -0.4191
  139SOL    HW1  554   2.955   0.465   1.332  0.9588 -0.0717 -1.6155
  139SOL    HW2  555   2.845   0.546   1.406  0.8604 -1.1078 -0.5499
  139SOL     MW  556   2.871   0.491   1.341  0.1993 -0.2723 -0.5942
  140SOL     OW  557   0.906   0.479   1.952  0.2934 -0.5539 -0.4093
  140SOL    HW1  558   0.971   0.413   1.935 -1.8869 -2.4595 -1.1059
  140SOL    HW2  559   0.873   0.446   2.038  0.3882 -1.2045  2.7894
  140SOL     MW  560   0.910   0.466   1.961  0.0183 -0.8912 -0.0792
  141SOL     OW  561   1.114   0.666   1.722  0.1775  0.6272  0.1598
  141SOL    HW1  562   1.107   0.595   1.655 -0.3485  1.0387  1.4324
  141SOL    HW2  563   1.171   0.636   1.795  2.3664 -0.3641  1.4651
  141SOL     MW  564   1.121   0.653   1.723  0.3969  0.5507  0.4999
  142SOL     OW  565   0.838   1.169   0.768 -0.3307 -0.3654  0.2835
  142SOL    HW1  566   0.880   1.105   0.710 -1.9913  1.5102  0.4289
  142SOL    HW2  567   0.914   1.229   0.798  1.3020  1.9515 -0.2455
  142SOL     MW  568   0.853   1.168   0.765 -0.3344  0.1878  0.2329
  143SOL     OW  569   1.833   0.727   1.050 -0.1868  0.1116 -0.3649
  143SOL    HW1  570   1.897   0.719   0.984 -1.3430  3.8423  1.1174
  143SOL    HW2  571   1.751   0.747   1.000 -0.7859  1.5562 -1.8578
  143SOL     MW  572   1.830   0.729   1.035 -0.4184  0.7944 -0.3663
  144SOL     OW  573   0.237   1.329   1.756  0.1011  0.2128 -0.0022
  144SOL    HW1  574   0.314   1.388   1.760 -1.9631 -0.3465 -2.8394
  144SOL    HW2  575   0.264   1.266   1.820 -2.7313 -0.6442  2.9507
  144SOL     MW  576   0.251   1.328   1.765 -0.5450  0.0259  0.0131
  145SOL     OW  577   0.226   0.490   1.177  0.2095 -0.0802  0.2333
  145SOL    HW1  578   0.251   0.412   1.228 -2.3633  1.3111 -2.3016
  145SOL    HW2  579   0.181   0.467   1.092 -0.4609 -1.1560 -1.3258
  145SOL     MW  580   0.223   0.477   1.173 -0.2184 -0.0386 -0.3069
  146SOL     OW  581   0.794   1.980   1.550  0.2915  0.9938  0.2543
  146SOL    HW1  582   0.830   2.005   1.468 -2.7482 -0.5412 -3.3536
  146SOL    HW2  583   0.738   1.905   1.524  0.2048 -0.4751  3.6387
  146SOL     MW  584   0.791   1.974   1.536 -0.1210  0.5975  0.2248
  147SOL     OW  585   0.437   0.526   3.004  0.2803 -0.3808 -0.2960
  147SOL    HW1  586   0.367   0.532   3.070  0.6804 -0.6348  1.5432
  147SOL    HW2  587   0.404   0.584   2.930 -2.9296  1.9671  2.5007
  147SOL     MW  588   0.423   0.534   3.003 -0.0904 -0.1046  0.3157
  148SOL     OW  589   0.013   0.881   1.315  0.2529 -0.2062  0.1158
  148SOL    HW1  590   0.107   0.873   1.299  0.1574  1.8053 -1.4412
  148SOL    HW2  591   0.000   0.976   1.331 -1.5807  2.2314 -1.0438
  148SOL     MW  592   0.024   0.892   1.315 -0.0016  0.3808 -0.2427
  149SOL     OW  593   1.523   1.217   1.443 -0.4503  0.1476  0.2111
  149SOL    HW1  594   1.458   1.209   1.520 -3.7469  1.3393  2.9136
  149SOL    HW2  595   1.522   1.311   1.420  1.4412  0.8772 -0.9228
  149SOL     MW  596   1.514   1.229   1.450 -0.6357  0.4011  0.4181
  150SOL     OW  597   1.706   1.455   0.882  0.0411  0.0303  0.1522
  150SOL    HW1  598   1.773   1.392   0.901 -1.8661 -2.5384  0.7581
  150SOL    HW2  599   1.741   1.541   0.856 -1.5815  1.0944 -2.4014
  150SOL     MW  600   1.719   1.458   0.881 -0.4246 -0.1682 -0.1047
  151SOL     OW  601   1.589   1.850   0.814  0.0465 -0.5082 -0.5644
  151SOL    HW1  602   1.567   1.845   0.718 -0.5159  1.3049 -0.4514
  151SOL    HW2  603   1.525   1.804   0.875 -0.0889  0.6466  1.7066
  151SOL     MW  604   1.577   1.843   0.810 -0.0456 -0.1166 -0.2498
  152SOL     OW  605   0.655   1.424   1.593 -0.0029  0.0064 -0.4626
  152SOL    HW1  606   0.692   1.453   1.512  2.0009  2.4387  3.3309
  152SOL    HW2  607   0.596   1.351   1.566 -1.0867  1.2431  2.0753
  152SOL     MW  608   0.652   1.418   1.579  0.1185  0.4905  0.3728
  153SOL     OW  609   2.614   1.211   0.735  0.2597  0.0448  0.3064
  153SOL    HW1  610   2.688   1.172   0.695  1.2658  1.0270  2.3639
  153SOL    HW2  611   2.558   1.137   0.728 -1.7538  0.7655 -2.3537
  153SOL     MW  612   2.616   1.196   0.728  0.1268  0.2695  0.2269
  154SOL     OW  613   0.119   1.784   1.762 -0.4338  0.1697 -0.0073
  154SOL    HW1  614   0.083   1.685   1.748 -2.1339 -1.6807  2.0797
  154SOL    HW2  615   0.217   1.766   1.783  0.3270 -1.8481  2.6493
  154SOL     MW  616   0.127   1.768   1.763 -0.5577 -0.3406  0.6186
  155SOL     OW  617   1.160   0.696   0.292 -0.1685  0.1717  0.2287
  155SOL    HW1  618   1.148   0.674   0.384  2.0162 -1.0090 -4.1447
  155SOL    HW2  619   1.157   0.795   0.301  0.2593  3.1847  0.9138
  155SOL     MW  620   1.158   0.706   0.305  0.1762  0.4135 -0.2579
  156SOL     OW  621   1.572   0.006   1.098  0.0282 -0.5341 -0.2355
  156SOL    HW1  622   1.632   0.035   1.171  3.1115  1.3842  2.3841
  156SOL    HW2  623   1.599  -0.086   1.079 -1.8287  0.4764  0.9209
  156SOL     MW  624   1.583  -0.002   1.105  0.1901 -0.1477  0.2627
  157SOL     OW  625   1.259   1.145   0.158  0.0651 -0.4456  0.1592
  157SOL    HW1  626   1.242   1.080   0.232 -1.5751 -1.2380 -2.1939
  157SOL    HW2  627   1.348   1.179   0.156  1.6477  3.8174 -0.0558
  157SOL     MW  628   1.268   1.141   0.168  0.0575  0.0123 -0.1797
  158SOL     OW  629   0.348   1.647   2.322 -0.7877 -0.3463  0.7326
  158SOL    HW1  630   0.311   1.681   2.240 -2.8988  0.5291  0.5697
  158SOL    HW2  631   0.336   1.705   2.398  3.1398  1.3770  0.7167
  158SOL     MW  632   0.342   1.659   2.321 -0.5480 -0.0035  0.7090
  159SOL     OW  633   1.211   1.721   0.491  0.1539 -0.1391 -0.4944
  159SOL    HW1  634   1.169   1.658   0.431 -1.2962 -0.4338  0.4731
  159SOL    HW2  635   1.145   1.756   0.545  1.0519 -0.5854  0.7451
  159SOL     MW  636   1.197   1.718   0.490  0.0811 -0.2369 -0.2032
  160SOL     OW  637   0.477   1.155   1.536 -0.4223  0.0821  0.5583
  160SOL    HW1  638   0.451   1.088   1.605 -1.6748 -1.3817 -1.3640
  160SOL    HW2  639   0.566   1.130   1.520  1.6748  2.0160 -1.4961
  160SOL     MW  640   0.485   1.143   1.543 -0.3109  0.1441  0.0336
  161SOL     OW  641   0.487   2.306   2.657 -0.1369 -0.2183 -0.4993
  161SOL    HW1  642   0.396   2.349   2.655 -3.6666  0.3130  0.4761
  161SOL    HW2  643   0.488   2.228   2.604  3.5854 -0.0524 -0.2468
  161SOL     MW  644   0.475   2.301   2.650 -0.1114 -0.1263 -0.3373
  162SOL     OW  645   1.099   1.808   1.834  0.2653  0.4786  0.4696
  162SOL    HW1  646   1.137   1.891   1.874  0.6311  1.0063  1.1934
  162SOL    HW2  647   1.011   1.789   1.882 -1.8510 -2.0642  1.5946
  162SOL     MW  648   1.092   1.816   1.846  0.0343  0.2127  0.7135
  163SOL     OW  649   2.128   3.034   0.802 -0.3822  0.0295 -0.2652
  163SOL    HW1  650   2.079   3.112   0.775 -0.6807  0.2524  0.2617
  163SOL    HW2  651   2.061   2.962   0.787 -1.8157 -2.1179  0.9274
  163SOL     MW  652   2.113   3.035   0.796 -0.6107 -0.2244 -0.0384
  164SOL     OW  653   0.217   0.224   0.792 -0.2373 -0.7670 -0.5761
  164SOL    HW1  654   0.120   0.196   0.809 -0.0026 -0.6887  0.2029
  164SOL    HW2  655   0.248   0.147   0.743  0.0903 -2.5485 -0.2468
  164SOL     MW  656   0.208   0.210   0.788 -0.1631 -0.9917 -0.4298
  165SOL     OW  657   1.151   1.292   0.379 -0.2419  0.1304  0.3464
  165SOL    HW1  658   1.169   1.257   0.461  1.9639  0.0572  1.6874
  165SOL    HW2  659   1.193   1.234   0.310 -0.3256 -1.3800  0.0713
  165SOL     MW  660   1.159   1.280   0.381  0.0381 -0.0785  0.4871
  166SOL     OW  661   0.340   1.175   1.054 -0.5080  0.6706 -0.2659
  166SOL    HW1  662   0.366   1.203   1.142 -0.8815  3.9303 -0.4238
  166SOL    HW2  663   0.421   1.140   1.020  1.0365 -1.2684 -1.4726
  166SOL     MW  664   0.354   1.174   1.061 -0.3535  0.8449 -0.4459
  167SOL     OW  665   0.800   1.160   0.396  0.1883 -0.4535  0.1062
  167SOL    HW1  666   0.809   1.258   0.384 -1.3670 -1.3835 -0.3891
  167SOL    HW2  667   0.815   1.114   0.314 -1.6526 -2.4593  2.2125
  167SOL     MW  668   0.803   1.167   0.383 -0.2598 -0.8409  0.3188
  168SOL     OW  669   1.683   1.642   3.050 -0.1362  0.2914  0.3225
  168SOL    HW1  670   1.595   1.683   3.034 -0.6994  1.6679  0.9971
  168SOL    HW2  671   1.678   1.556   3.006  0.6123 -0.1217  1.3248
  168SOL     MW  672   1.670   1.636   3.042 -0.1117  0.4185  0.5437
  169SOL     OW  673   0.301   0.920   1.347 -0.1231 -0.6396 -0.1617
  169SOL    HW1  674   0.350   0.862   1.401  1.2311 -1.2102  1.4277
  169SOL    HW2  675   0.303   0.991   1.412  0.9806  0.3668  3.0391
  169SOL     MW  676   0.308   0.922   1.363  0.2012 -0.5821  0.4703
  170SOL     OW  677   1.098   1.564   1.457 -0.1525 -0.1527 -0.2184
  170SOL    HW1  678   1.051   1.637   1.496  2.0280  0.5756 -0.9205
  170SOL    HW2  679   1.104   1.606   1.372  0.2508  2.9639 -0.2358
  170SOL     MW  680   1.093   1.579   1.451  0.1884  0.3546 -0.3133
  171SOL     OW  681   0.492   1.511   0.509  0.3400 -0.3499 -0.4270
  171SOL    HW1  682   0.405   1.523   0.482 -0.7019 -1.2364 -1.8841
  171SOL    HW2  683   0.476   1.421   0.530 -1.9996  3.0456 -1.4662
  171SOL     MW  684   0.478   1.501   0.508 -0.1061 -0.0189 -0.7564
  172SOL     OW  685   0.769   0.292   1.281  0.3967 -0.0494  0.8337
  172SOL    HW1  686   0.772   0.232   1.205  1.9192 -1.0369 -1.3681
  172SOL    HW2  687   0.817   0.266   1.358 -0.5914  2.1872 -1.4980
  172SOL     MW  688   0.776   0.280   1.281  0.4672  0.1154  0.2356
  173SOL     OW  689   0.501   1.759   0.299 -0.0087 -0.6407 -0.5208
  173SOL    HW1  690   0.555   1.675   0.306  1.9000  2.0015  0.6474
  173SOL    HW2  691   0.480   1.777   0.391 -2.4856 -2.4518  0.4249
  173SOL     MW  692   0.505   1.750   0.312 -0.0837 -0.5310 -0.2419
  174SOL     OW  693   1.923   0.897   1.507  0.3032  0.5504 -0.1800
  174SOL    HW1  694   1.857   0.832   1.525  1.5366 -0.5791 -1.3642
  174SOL    HW2  695   1.903   0.928   1.415 -0.9720  3.8781 -2.1870
  174SOL     MW  696   1.912   0.892   1.497  0.2977  0.8404 -0.6010
  175SOL     OW  697   0.596   1.486   0.230  0.0515  0.2654  0.5792
  175SOL    HW1  698   0.555   1.433   0.296  1.2880  0.2148  1.7889
  175SOL    HW2  699   0.686   1.478   0.267  0.0094  0.1939  0.8090
  175SOL     MW  700   0.603   1.478   0.244  0.2091  0.2493  0.7691
  176SOL     OW  701   0.091   1.504   1.219  0.0530  0.0446 -0.6854
  176SOL    HW1  702   0.064   1.443   1.148 -1.1640 -0.6699  1.1695
  176SOL    HW2  703   0.018   1.511   1.277 -0.4267  1.6100  0.7809
  176SOL     MW  704   0.078   1.497   1.217 -0.1709  0.1569 -0.2472
  177SOL     OW  705   0.524   0.273   1.430  0.6897  0.5553  0.2333
  177SOL    HW1  706   0.600   0.283   1.370  2.9576 -0.5617  2.1252
  177SOL    HW2  707   0.528   0.341   1.495  0.9671 -0.1323  0.6883
  177SOL     MW  708   0.535   0.283   1.431  1.0255  0.3172  0.5430
  178SOL     OW  709   0.005   0.625   2.941 -0.2007  0.9330 -0.7252
  178SOL    HW1  710  -0.079   0.603   2.972 -2.6285 -0.7254 -2.3401
  178SOL    HW2  711   0.011   0.611   2.852  4.2751 -1.8085 -0.3322
  178SOL     MW  712  -0.005   0.620   2.933  0.0695  0.3525 -0.8864
  179SOL     OW  713   1.569   1.479   1.370  0.4702 -0.1646  0.3246
  179SOL    HW1  714   1.569   1.504   1.465  2.2712  0.6954 -0.7101
  179SOL    HW2  715   1.659   1.463   1.336  0.2860  1.2717  1.3990
  179SOL     MW  716   1.581   1.480   1.378  0.6835  0.1384  0.3298
  180SOL     OW  717   0.048   0.236   0.432 -0.0321 -0.1884  0.0860
  180SOL    HW1  718  -0.038   0.271   0.405  0.1165 -0.7823  1.3532
  180SOL    HW2  719   0.106   0.310   0.457  0.6854  0.4320  1.6003
  180SOL     MW  720   0.045   0.250   0.432  0.0822 -0.1849  0.4530
  181SOL     OW  721   1.084   1.326   0.041 -0.5738 -0.4625 -0.1327
  181SOL    HW1  722   1.123   1.330   0.125  1.6754  0.2733  0.5029
  181SOL    HW2  723   1.152   1.289  -0.015  3.9130  0.7728  0.7074
  181SOL     MW  724   1.098   1.322   0.044  0.3150 -0.2024  0.0620
  182SOL     OW  725   0.355   0.897   1.619 -0.2325  0.8434  0.7001
  182SOL    HW1  726   0.270   0.919   1.658  0.7665  1.0761 -0.6941
  182SOL    HW2  727   0.408   0.847   1.682  2.3732 -1.0402 -0.5966
  182SOL     MW  728   0.351   0.894   1.633  0.2431  0.6256  0.3451
  183SOL     OW  729   1.546   1.737   1.275 -0.0515 -0.0013 -0.2370
  183SOL    HW1  730   1.633   1.769   1.288 -0.7512  0.7078 -0.4376
  183SOL    HW2  731   1.545   1.650   1.327  1.7209 -0.7456 -3.9433
  183SOL     MW  732   1.557   1.730   1.283  0.0901 -0.0059 -0.7525
  184SOL     OW  733   0.845   0.632   1.706  0.3402  0.2848 -0.7265
  184SOL    HW1  734   0.936   0.664   1.697 -1.2642 -1.9516  0.5351
  184SOL    HW2  735   0.849   0.581   1.787 -1.9835 -0.1620 -1.6571
  184SOL     MW  736   0.857   0.630   1.715 -0.1781 -0.0692 -0.6829
  185SOL     OW  737   1.074   0.962   1.869 -0.6249 -0.3412 -0.3844
  185SOL    HW1  738   1.046   0.876   1.910 -0.2374  1.5477 -0.0838
  185SOL    HW2  739   1.108   1.009   1.945  1.6388 -1.4707  2.2336
  185SOL     MW  740   1.075   0.957   1.884 -0.2751 -0.2410  0.0007
  186SOL     OW  741   0.272   1.633   1.525  0.7535  0.4490 -0.1535
  186SOL    HW1  742   0.310   1.579   1.457 -0.1227  0.1598  0.7390
  186SOL    HW2  743   0.186   1.594   1.552  1.1426 -0.1141 -2.8640
  186SOL     MW  744   0.266   1.621   1.520  0.6892  0.3366 -0.3934
  187SOL     OW  745   1.407   0.834   1.362 -0.1129  0.4994  0.2443
  187SOL    HW1  746   1.424   0.851   1.453 -2.1154  1.5481 -1.1322
  187SOL    HW2  747   1.315   0.845   1.340  0.6914  1.6652 -1.3028
  187SOL     MW  748   1.397   0.838   1.371 -0.2710  0.7916 -0.1414
  188SOL     OW  749   1.860   1.217   0.926  0.5380 -0.2485 -0.2040
  188SOL    HW1  750   1.901   1.231   1.013  0.3412  0.2913 -0.5914
  188SOL    HW2  751   1.829   1.126   0.922 -0.1454  0.0467 -0.0786
  188SOL     MW  752   1.861   1.207   0.937  0.4219 -0.1383 -0.2386
  189SOL     OW  753   0.728   0.717   0.854  0.0810  0.3930 -0.0503
  189SOL    HW1  754   0.654   0.771   0.867  0.6480 -0.8705  2.0702
  189SOL    HW2  755   0.790   0.743   0.926 -0.1286  0.2235  0.4097
  189SOL     MW  756   0.726   0.728   0.865  0.1282  0.2039  0.2902
  190SOL     OW  757   1.885   0.283   2.035  0.0010  0.4774 -0.3878
  190SOL    HW1  758   1.861   0.245   2.124  2.0605  1.3566  1.4204
  190SOL    HW2  759   1.957   0.345   2.058  0.9989 -1.1149  0.3529
  190SOL     MW  760   1.891   0.286   2.050  0.4044  0.3833 -0.0515
  191SOL     OW  761   1.513   1.051   1.227 -0.7526  0.3344 -0.4167
  191SOL    HW1  762   1.516   1.118   1.299  1.1377  0.8275  2.5960
  191SOL    HW2  763   1.483   0.973   1.274  1.9243 -1.7689  0.4016
  191SOL     MW  764   1.509   1.049   1.242 -0.1500  0.1220  0.0888
  192SOL     OW  765   0.508   2.199   2.952  0.5236 -0.0884 -0.1640
  192SOL    HW1  766   0.507   2.251   2.869 -0.5151 -0.5002 -0.9879
  192SOL    HW2  767   0.509   2.105   2.931  1.8284  1.4093  1.6929
  192SOL     MW  768   0.508   2.194   2.938  0.5587  0.0549 -0.0277
  193SOL     OW  769   0.830   1.670   0.789 -0.2034  0.3159 -0.2668
  193SOL    HW1  770   0.739   1.692   0.829  1.3164  0.4720  1.0832
  193SOL    HW2  771   0.827   1.619   0.715 -2.7500  0.1936  0.2945
  193SOL     MW  772   0.817   1.666   0.785 -0.3389  0.3204 -0.0146
  194SOL     OW  773   0.386   1.333   0.840  0.2855 -0.0906  0.1726
  194SOL    HW1  774   0.342   1.306   0.914  0.2361  2.0238  0.3326
  194SOL    HW2  775   0.320   1.354   0.775  0.9354 -1.0540  1.8682
  194SOL     MW  776   0.372   1.332   0.841  0.3647  0.0613  0.4175
  195SOL     OW  777   1.229   1.118   2.978  0.3119  0.2262 -0.9886
  195SOL    HW1  778   1.241   1.119   3.072 -2.1589 -0.6919  0.7175
  195SOL    HW2  779   1.163   1.044   2.959 -0.8099 -3.1265  0.5153
  195SOL     MW  780   1.222   1.108   2.988 -0.1621 -0.3373 -0.5651
  196SOL     OW  781   2.248   0.979   0.522 -0.1001 -0.2081 -0.1687
  196SOL    HW1  782   2.286   0.958   0.434  0.0937 -2.7645 -1.9557
  196SOL    HW2  783   2.239   1.073   0.521  1.0985  0.6102  4.2971
  196SOL     MW  784   2.252   0.989   0.510  0.0836 -0.4374  0.1847
  197SOL     OW  785   0.610   1.313   2.178 -0.1229 -0.5515  0.1070
  197SOL    HW1  786   0.645   1.241   2.123  0.0744 -2.5626  0.5426
  197SOL    HW2  787   0.680   1.385   2.178  1.7961  0.6479  0.9162
  197SOL     MW  788   0.624   1.313   2.171  0.1563 -0.6586  0.2712
  198SOL     OW  789   2.918   1.383   1.026 -0.0086 -0.9673  0.4952
  198SOL    HW1  790   2.909   1.473   0.989  1.0454 -0.3613  1.0393
  198SOL    HW2  791   2.835   1.330   0.993 -0.7986 -3.3859  0.8251
  198SOL     MW  792   2.906   1.388   1.017  0.0262 -1.2064  0.6105
  199SOL     OW  793   0.652   1.230   1.822 -0.1197 -0.9116  0.4707
  199SOL    HW1  794   0.563   1.219   1.852  2.5777  0.5759  1.5652
  199SOL    HW2  795   0.653   1.307   1.756 -0.0013 -0.4506  0.8829
  199SOL     MW  796   0.640   1.238   1.817  0.2518 -0.6545  0.6695
  200SOL     OW  797   1.855   2.963   1.296  0.3912 -0.0569  0.2559
  200SOL    HW1  798   1.922   2.952   1.221  1.2122  0.6676 -0.9626
  200SOL    HW2  799   1.817   3.051   1.298  0.2892 -1.6499  2.9810
  200SOL     MW  800   1.859   2.973   1.287  0.4861 -0.1715  0.4547
  201SOL     OW  801   1.187   0.296   0.854  0.0926 -0.1123  0.1124
  201SOL    HW1  802   1.144   0.223   0.817 -0.4416  2.8566  0.3965
  201SOL    HW2  803   1.276   0.269   0.881  1.5032  1.0394 -0.8580
  201SOL     MW  804   1.193   0.283   0.853  0.2083  0.4314  0.0219
  202SOL     OW  805   1.452   1.699   1.011 -0.6777 -1.0984 -0.2388
  202SOL    HW1  806   1.458   1.608   0.975 -2.4669  0.0170  1.6068
  202SOL    HW2  807   1.482   1.699   1.105  0.5285  0.6461  2.1735
  202SOL     MW  808   1.456   1.687   1.018 -0.7546 -0.7211  0.3230
  203SOL     OW  809   0.015   0.413   1.348 -0.1691  0.0450  0.2352
  203SOL    HW1  810   0.023   0.323   1.327  0.4492  1.0217  0.2421
  203SOL    HW2  811   0.071   0.461   1.285 -0.9500 -1.3414 -0.8175
  203SOL     MW  812   0.024   0.407   1.337 -0.1905 -0.0091  0.0972
  204SOL     OW  813   1.004   1.840   0.657  0.2480 -0.3179 -0.0370
  204SOL    HW1  814   0.935   1.804   0.712 -2.1169  1.6126 -1.8636
  204SOL    HW2  815   0.951   1.843   0.574  0.3266  2.0220 -0.9335
  204SOL     MW  816   0.988   1.836   0.653 -0.0536  0.2455 -0.3963
  205SOL     OW  817   1.387   3.005   1.330 -0.4025 -0.5013  1.2055
  205SOL    HW1  818   1.428   3.040   1.251  0.4981  2.4370  1.0791
  205SOL    HW2  819   1.304   3.053   1.344  0.4285 -1.2649  0.6370
  205SOL     MW  820   1.381   3.016   1.322 -0.1741 -0.2144  1.1138
  206SOL     OW  821   0.358   2.876   1.374 -0.2665 -0.3409  0.3319
  206SOL    HW1  822   0.353   2.915   1.288 -1.5388 -0.8125 -0.0795
  206SOL    HW2  823   0.447   2.884   1.408  1.4166 -2.2566 -0.1853
  206SOL     MW  824   0.369   2.882   1.367 -0.2123 -0.6559  0.2094
  207SOL     OW  825   0.864   1.730   0.219 -0.1901 -0.0860 -0.2522
  207SOL    HW1  826   0.958   1.743   0.198 -0.0106 -2.5153  1.3063
  207SOL    HW2  827   0.862   1.641   0.254  0.2738 -1.0333  1.6046
  207SOL     MW  828   0.876   1.720   0.221 -0.1052 -0.5315  0.1984
  208SOL     OW  829   0.787   1.505   1.366 -0.1165 -0.4600  0.3077
  208SOL    HW1  830   0.859   1.557   1.343 -3.8310 -1.7283  1.6866
  208SOL    HW2  831   0.776   1.434   1.296 -0.1962 -0.3337  1.8657
  208SOL     MW  832   0.795   1.503   1.354 -0.6172 -0.6107  0.6952
  209SOL     OW  833   1.614   0.483   2.825  0.1282  0.4856 -0.3283
  209SOL    HW1  834   1.672   0.558   2.847  1.3011  2.2361  1.6821
  209SOL    HW2  835   1.655   0.438   2.753  0.3412 -0.2356  0.9958
  209SOL     MW  836   1.627   0.487   2.819  0.3111  0.6214  0.1117
  210SOL     OW  837   1.447   1.412   0.957 -0.4835  0.0218 -0.4578
  210SOL    HW1  838   1.540   1.425   0.950 -2.6800 -1.1978 -1.6555
  210SOL    HW2  839   1.407   1.428   0.867 -0.6371 -1.1156 -0.2067
  210SOL     MW  840   1.454   1.416   0.944 -0.7936 -0.2892 -0.5827
  211SOL     OW  841   1.747   0.461   0.885  0.2468 -0.8371 -0.2664
  211SOL    HW1  842   1.766   0.484   0.797 -1.1325 -0.0425 -1.3627
  211SOL    HW2  843   1.829   0.439   0.912 -2.0251 -0.0737 -1.7417
  211SOL     MW  844   1.760   0.461   0.877 -0.2349 -0.6315 -0.6057
  212SOL     OW  845   0.401   1.216   0.221  0.4698  0.1781  0.4890
  212SOL    HW1  846   0.356   1.133   0.244 -1.8500  4.0533  2.7416
  212SOL    HW2  847   0.481   1.201   0.154  1.6769  1.0836 -1.0762
  212SOL     MW  848   0.406   1.203   0.215  0.3230  0.8089  0.5797
  213SOL     OW  849   0.425   1.792   3.053 -0.0290  0.4875  0.6473
  213SOL    HW1  850   0.471   1.826   3.128  0.3250 -0.5446  1.0149
  213SOL    HW2  851   0.442   1.844   2.970  0.1222  0.1464 -0.1233
  213SOL     MW  852   0.434   1.803   3.052  0.0376  0.3063  0.5941
  214SOL     OW  853   0.566   0.364   2.122 -0.0293  0.0268  0.1162
  214SOL    HW1  854   0.497   0.433   2.130  0.9789 -1.3292 -0.9673
  214SOL    HW2  855   0.585   0.343   2.024 -1.4326  1.9286 -0.2387
  214SOL     MW  856   0.559   0.370   2.110 -0.0814  0.0988 -0.0736
  215SOL     OW  857   0.523   0.528   2.487  0.8379  1.4799  0.1736
  215SOL    HW1  858   0.471   0.581   2.429 -0.3738 -1.4001  1.4087
  215SOL    HW2  859   0.482   0.445   2.501  0.7077 -0.6878 -2.0003
  215SOL     MW  860   0.511   0.524   2.481  0.6609  0.8139  0.0497
  216SOL     OW  861   2.917   3.091   2.856  0.0364 -0.1533  0.3420
  216SOL    HW1  862   2.827   3.072   2.825 -0.7951  3.4626 -0.2446
  216SOL    HW2  863   2.952   3.142   2.789  1.0321 -1.9363  0.4595
  216SOL     MW  864   2.910   3.095   2.843  0.0580  0.0886  0.2801
  217SOL     OW  865   0.948   1.093   0.148 -0.1405 -0.0592 -0.2722
  217SOL    HW1  866   0.973   1.041   0.072  0.0408 -0.6218  2.5549
  217SOL    HW2  867   0.977   1.183   0.136 -0.0528  2.7540  0.0010
  217SOL     MW  868   0.955   1.098   0.137 -0.1050  0.2378  0.1369
  218SOL     OW  869   0.821   1.394   2.604 -0.7572  0.7296 -0.0575
  218SOL    HW1  870   0.782   1.320   2.651 -1.0643  1.0548 -2.9717
  218SOL    HW2  871   0.903   1.414   2.652 -0.0236  1.8730  1.2208
  218SOL     MW  872   0.827   1.387   2.616 -0.7009  0.9234 -0.2734
  219SOL     OW  873   1.055   0.465   2.555  0.8224 -0.3845 -0.1740
  219SOL    HW1  874   1.109   0.534   2.587 -2.5069 -2.7141 -3.7713
  219SOL    HW2  875   0.974   0.512   2.534  1.3884  0.5940  0.8147
  219SOL     MW  876   1.051   0.480   2.556  0.4578 -0.5628 -0.5181
  220SOL     OW  877   1.675   0.495   2.221 -0.2091  0.1655  0.0869
  220SOL    HW1  878   1.589   0.529   2.189 -1.2479 -1.6900  0.1569
  220SOL    HW2  879   1.699   0.427   2.156  0.0356 -1.2460 -0.5853
  220SOL     MW  880   1.667   0.491   2.208 -0.3138 -0.2655  0.0075
  221SOL     OW  881   0.364   1.374   2.944 -0.7001 -0.2789 -0.3734
  221SOL    HW1  882   0.417   1.296   2.912  1.4878 -0.2749 -0.6181
  221SOL    HW2  883   0.419   1.454   2.920 -0.7782 -0.9844  0.0585
  221SOL     MW  884   0.378   1.374   2.937 -0.4218 -0.3714 -0.3487
  222SOL     OW  885   0.519   0.909   2.735  0.0177 -0.0792 -0.0431
  222SOL    HW1  886   0.430   0.897   2.702  1.2702  0.1538 -2.2871
  222SOL    HW2  887   0.560   0.820   2.748 -1.4907 -0.0219  0.6493
  222SOL     MW  888   0.513   0.895   2.732 -0.0160 -0.0409 -0.2478
  223SOL     OW  889   3.040   2.034   2.518  0.3272  0.3346  0.5380
  223SOL    HW1  890   3.056   2.081   2.597  2.6191  1.3835 -2.0489
  223SOL    HW2  891   3.068   2.092   2.449  1.5556 -1.9813  0.7070
  223SOL     MW  892   3.046   2.048   2.520  0.7917  0.1674  0.2190
  224SOL     OW  893   1.463   0.636   2.417 -0.3308 -0.5547 -0.1414
  224SOL    HW1  894   1.547   0.603   2.459  0.3819  0.0257 -1.4421
  224SOL    HW2  895   1.448   0.727   2.437 -0.6381 -0.6914 -0.4928
  224SOL     MW  896   1.472   0.644   2.425 -0.2773 -0.4962 -0.3594
  225SOL     OW  897   2.935   1.504   2.180 -0.4615  0.3812  0.0662
  225SOL    HW1  898   2.973   1.593   2.171  0.2575 -1.2219 -0.7311
  225SOL    HW2  899   2.870   1.524   2.246 -1.6962 -0.5885  0.1301
  225SOL     MW  900   2.931   1.518   2.188 -0.5296  0.0417 -0.0306
  226SOL     OW  901   0.457   1.566   2.694 -0.2242 -0.1582  0.1517
  226SOL    HW1  902   0.537   1.594   2.646 -0.5454  0.9641 -0.7665
  226SOL    HW2  903   0.393   1.635   2.675  3.3302  1.2263 -0.4250
  226SOL     MW  904   0.459   1.579   2.685  0.2024  0.1726 -0.0455
  227SOL     OW  905   0.522   1.149   2.888 -0.4095  0.1737  0.4995
  227SOL    HW1  906   0.600   1.188   2.846 -0.9307 -2.5754  0.8210
  227SOL    HW2  907   0.513   1.070   2.833 -1.0941 -2.5972 -0.5653
  227SOL     MW  908   0.531   1.143   2.875 -0.5686 -0.5546  0.4014
  228SOL     OW  909   0.788   1.100   2.019  0.1010 -0.0780 -0.1465
  228SOL    HW1  910   0.733   1.131   1.952 -0.4936  1.8253 -0.9774
  228SOL    HW2  911   0.875   1.135   2.001 -0.7657  2.4393 -1.8647
  228SOL     MW  912   0.792   1.109   2.008 -0.0918  0.5053 -0.4828
  229SOL     OW  913   0.186   0.561   0.028 -0.3454  0.6859 -0.0456
  229SOL    HW1  914   0.114   0.559  -0.044 -0.9894 -0.8862  1.3582
  229SOL    HW2  915   0.156   0.499   0.100 -1.5324 -0.2038 -1.6625
  229SOL     MW  916   0.172   0.552   0.028 -0.5870  0.3611 -0.0737
  230SOL     OW  917   1.766   1.346   2.146  0.2280 -0.1201  0.8115
  230SOL    HW1  918   1.682   1.301   2.124 -0.3638  0.0149 -1.2839
  230SOL    HW2  919   1.828   1.267   2.135  0.2797  0.1805 -2.2900
  230SOL     MW  920   1.763   1.329   2.141  0.1567 -0.0626  0.1258
  231SOL     OW  921   2.717   1.275   2.223 -0.1648 -0.3741  0.0719
  231SOL    HW1  922   2.796   1.323   2.200  0.1444 -0.2561  0.6388
  231SOL    HW2  923   2.647   1.280   2.153 -4.5018 -3.3309  0.1810
  231SOL     MW  924   2.718   1.282   2.211 -0.6962 -0.7487  0.1611
  232SOL     OW  925   2.272   0.887   1.977 -0.7225 -0.0040  0.3891
  232SOL    HW1  926   2.181   0.887   1.942 -1.0417  2.4029  2.9756
  232SOL    HW2  927   2.277   0.826   2.056  2.3960 -0.0024 -1.0802
  232SOL     MW  928   2.261   0.879   1.983 -0.3532  0.3138  0.5365
  233SOL     OW  929   2.098   0.443   2.064  0.0799 -0.0463  0.2330
  233SOL    HW1  930   2.151   0.374   2.032 -3.8494  2.9833  0.1705
  233SOL    HW2  931   2.137   0.481   2.137 -0.7032 -1.5763 -2.5826
  233SOL     MW  932   2.110   0.439   2.069 -0.5419  0.1516 -0.1468
  234SOL     OW  933   0.260   1.057   2.633  0.1264  0.3066 -0.5458
  234SOL    HW1  934   0.202   1.081   2.561 -1.4124 -0.9105 -2.2825
  234SOL    HW2  935   0.304   1.135   2.650 -0.0243 -1.3865  2.3325
  234SOL     MW  936   0.258   1.070   2.626 -0.0965 -0.0774 -0.3951
  235SOL     OW  937   1.135   0.029   2.823 -0.6396  0.2743 -0.1137
  235SOL    HW1  938   1.149   0.012   2.917 -1.8115 -0.1718 -1.5479
  235SOL    HW2  939   1.125   0.124   2.805 -1.8244  2.0799  0.1622
  235SOL     MW  940   1.136   0.039   2.833 -0.9506  0.4537 -0.2665
  236SOL     OW  941   2.962   0.606   0.182  0.0368  0.6772  0.2150
  236SOL    HW1  942   2.988   0.629   0.272  1.8740 -0.6917 -1.2197
  236SOL    HW2  943   2.987   0.685   0.144 -0.8036  0.1824  2.3192
  236SOL     MW  944   2.968   0.619   0.189  0.1683  0.4313  0.3033
  237SOL     OW  945   1.898   1.121   2.114 -0.0527  0.8065  0.2393
  237SOL    HW1  946   1.831   1.075   2.181 -0.0645 -1.9107  2.5933
  237SOL    HW2  947   1.857   1.106   2.030  1.1288  0.2368 -0.0650
  237SOL     MW  948   1.884   1.113   2.112  0.1017  0.3728  0.5097
  238SOL     OW  949   1.094   1.718   2.898  0.1912 -0.1212  0.0269
  238SOL    HW1  950   1.033   1.649   2.904  0.4665  2.0155 -1.7599
  238SOL    HW2  951   1.179   1.680   2.930  1.1489 -0.4104  0.0986
  238SOL     MW  952   1.097   1.704   2.903  0.3539  0.1226 -0.1994
  239SOL     OW  953   1.170   1.287   2.359 -0.0485 -0.4362  0.3767
  239SOL    HW1  954   1.088   1.328   2.375 -0.1336  1.0012 -0.4637
  239SOL    HW2  955   1.196   1.257   2.447  1.0439 -1.8723  0.2548
  239SOL     MW  956   1.162   1.288   2.373  0.0844 -0.4361  0.2497
  240SOL     OW  957   0.572   0.842   2.314  0.0129 -0.2828 -0.1164
  240SOL    HW1  958   0.628   0.888   2.377 -0.8540  0.4231 -1.1571
  240SOL    HW2  959   0.621   0.802   2.250 -0.0305  0.1629 -1.7752
  240SOL     MW  960   0.586   0.843   2.314 -0.1072 -0.1309 -0.4726
  241SOL     OW  961   0.684   0.454   3.097 -0.9605  0.2985 -0.3837
  241SOL    HW1  962   0.719   0.514   3.164  2.0135 -0.1597  0.4509
  241SOL    HW2  963   0.596   0.487   3.076  0.5254 -4.5480 -0.7678
  241SOL     MW  964   0.677   0.466   3.103 -0.3720 -0.4014 -0.3243
  242SOL     OW  965   1.503   1.616   2.296  0.3820  0.0221 -0.1133
  242SOL    HW1  966   1.441   1.690   2.293 -0.7252 -0.4444 -1.4510
  242SOL    HW2  967   1.467   1.548   2.243  2.1697  1.2818  0.5167
  242SOL     MW  968   1.490   1.617   2.288  0.4718  0.1267 -0.2067
  243SOL     OW  969   0.965   0.240   2.406 -0.2762 -0.7472  0.6939
  243SOL    HW1  970   1.038   0.182   2.387 -0.2586  1.6382  0.9652
  243SOL    HW2  971   1.005   0.321   2.446 -1.1182 -1.1831 -1.9312
  243SOL     MW  972   0.980   0.243   2.409 -0.3850 -0.4900  0.3833
  244SOL     OW  973   0.117   0.788   2.389  0.4823  0.1398 -0.0995
  244SOL    HW1  974   0.111   0.875   2.425 -1.3349  2.4679  0.2380
  244SOL    HW2  975   0.213   0.769   2.377  2.7446 -1.5198 -0.2437
  244SOL     MW  976   0.129   0.797   2.392  0.5411  0.2280 -0.0740
  245SOL     OW  977   1.275   0.106   2.398  0.2266 -0.6626 -0.3114
  245SOL    HW1  978   1.330   0.082   2.327  1.1226  1.1449  1.2980
  245SOL    HW2  979   1.282   0.040   2.465 -1.7955  1.0099 -3.1582
  245SOL     MW  980   1.283   0.094   2.397  0.0780 -0.2035 -0.4747
  246SOL     OW  981   1.184   1.092   2.085 -0.0333 -0.7067 -0.0015
  246SOL    HW1  982   1.113   1.079   2.150 -0.4463 -0.8959  1.4474
  246SOL    HW2  983   1.265   1.047   2.123  1.6982 -1.5722 -0.7624
  246SOL     MW  984   1.185   1.085   2.099  0.1406 -0.8459  0.0893
  247SOL     OW  985   0.780   0.642   0.186  0.1053  0.1095  0.0767
  247SOL    HW1  986   0.758   0.738   0.177 -0.9891  1.8001  0.5456
  247SOL    HW2  987   0.871   0.636   0.150  3.7768 -0.3244  1.6344
  247SOL     MW  988   0.789   0.654   0.180  0.4454  0.2753  0.3441
  248SOL     OW  989   0.340   1.334   2.624  0.5078  0.1055  0.2941
  248SOL    HW1  990   0.359   1.338   2.531  0.8614  0.6646  0.2715
  248SOL    HW2  991   0.377   1.417   2.656  1.2253 -1.6993  2.4644
  248SOL     MW  992   0.348   1.346   2.616  0.6491 -0.0589  0.5774
  249SOL     OW  993   3.029   1.918   2.797 -0.2180 -0.3923  0.1939
  249SOL    HW1  994   2.972   1.840   2.794 -0.8066 -1.6457 -1.1597
  249SOL    HW2  995   3.091   1.898   2.867  2.3588  0.0224 -1.7775
  249SOL     MW  996   3.029   1.905   2.806  0.0443 -0.5029 -0.2448
  250SOL     OW  997   2.271   0.712   2.190 -0.3444 -0.4258  0.2562
  250SOL    HW1  998   2.214   0.651   2.227  3.7124  1.5679  0.0422
  250SOL    HW2  999   2.347   0.703   2.259  0.3746 -2.3273 -1.0459
  250SOL     MW 1000   2.274   0.703   2.204  0.2857 -0.4137  0.0562
  251SOL     OW 1001   0.173   0.873   2.020 -0.1374  0.1672 -0.4779
  251SOL    HW1 1002   0.138   0.791   2.028 -0.3397  1.0137 -1.8525
  251SOL    HW2 1003   0.159   0.890   1.927  2.7904 -2.9734 -2.4278
  251SOL     MW 1004   0.167   0.864   2.009  0.2222 -0.1355 -0.9166
  252SOL     OW 1005   1.701   1.032   2.883 -0.0590 -0.4136  0.4274
  252SOL    HW1 1006   1.718   1.043   2.975  0.7648  0.7199 -0.8094
  252SOL    HW2 1007   1.776   1.033   2.828 -0.9671 -0.4395 -3.9067
  252SOL     MW 1008   1.713   1.033   2.888 -0.0701 -0.2675 -0.3076
  253SOL     OW 1009   1.139   1.672   2.541  0.0214 -0.0339  0.0272
  253SOL    HW1 1010   1.107   1.620   2.459 -5.0256 -1.9288 -0.9422
  253SOL    HW2 1011   1.072   1.738   2.563  0.8996 -1.2220  0.4485
  253SOL     MW 1012   1.126   1.674   2.533 -0.5286 -0.4407 -0.0451
  254SOL     OW 1013   0.984   1.048   2.265  0.0322  0.1708  0.6264
  254SOL    HW1 1014   0.925   0.975   2.242  0.1453 -2.7498 -0.4097
  254SOL    HW2 1015   0.925   1.122   2.287  0.4540 -0.7543 -0.7249
  254SOL     MW 1016   0.968   1.048   2.265  0.1027 -0.3366  0.3114
  255SOL     OW 1017   0.858   2.486   2.137  0.3265 -0.1494 -0.0706
  255SOL    HW1 1018   0.791   2.425   2.121  0.5567 -0.3449  2.9393
  255SOL    HW2 1019   0.920   2.434   2.196 -1.1002 -1.6373  0.6357
  255SOL     MW 1020   0.857   2.472   2.143  0.1686 -0.3715  0.4197
  256SOL     OW 1021   1.350   2.799   3.064  0.0795  0.2898 -0.3365
  256SOL    HW1 1022   1.327   2.708   3.078 -1.3603  1.2590 -0.3360
  256SOL    HW2 1023   1.389   2.803   2.977  0.4792  2.2147  1.2320
  256SOL     MW 1024   1.352   2.787   3.055 -0.0577  0.6716 -0.1295
  257SOL     OW 1025   0.055   1.971   0.049 -0.2443  0.5238 -0.6437
  257SOL    HW1 1026   0.114   1.941   0.117  2.0625  1.3049  0.0309
  257SOL    HW2 1027   0.091   1.922  -0.025 -0.0865 -0.2325  0.9008
  257SOL     MW 1028   0.068   1.961   0.048  0.0809  0.5271 -0.3509
  258SOL     OW 1029   0.696   0.988   2.524  0.2907 -0.3280  0.5102
  258SOL    HW1 1030   0.692   1.083   2.509  1.5607  2.5956  1.9076
  258SOL    HW2 1031   0.614   0.984   2.581 -1.0787 -0.3018  0.0273
  258SOL     MW 1032   0.685   1.000   2.530  0.2776  0.0612  0.6308
  259SOL     OW 1033   0.810   0.411   2.255 -0.1960 -0.0302  0.3768
  259SOL    HW1 1034   0.725   0.395   2.214  2.5524 -0.5733  0.1295
  259SOL    HW2 1035   0.841   0.335   2.310  1.0266  0.5074 -1.0905
  259SOL     MW 1036   0.803   0.399   2.257  0.3279 -0.0309  0.1506
  260SOL     OW 1037   0.647   0.073   1.610  0.7954  0.0748 -0.0882
  260SOL    HW1 1038   0.613   0.147   1.564 -1.8880 -0.9575  2.4297
  260SOL    HW2 1039   0.744   0.085   1.605 -1.8378 -2.2530  1.6273
  260SOL     MW 1040   0.655   0.084   1.603  0.0939 -0.3685  0.4704
  261SOL     OW 1041   1.020   0.742   2.018  0.2409  0.7281  0.2767
  261SOL    HW1 1042   1.099   0.714   2.068 -1.3872  0.9426  0.9617
  261SOL    HW2 1043   0.994   0.656   1.981 -0.0108 -1.8999 -1.1455
  261SOL     MW 1044   1.027   0.727   2.020 -0.0072  0.4097  0.1795
  262SOL     OW 1045   1.116   0.311   0.144 -0.5499  0.5727  0.2005
  262SOL    HW1 1046   1.208   0.286   0.125 -0.5547 -0.2780 -0.7545
  262SOL    HW2 1047   1.072   0.275   0.067 -0.8306 -0.9125  0.2664
  262SOL     MW 1048   1.123   0.303   0.132 -0.5875  0.2645  0.0832
  263SOL     OW 1049   0.405  -0.001   2.476 -0.4977  0.1471  0.5306
  263SOL    HW1 1050   0.351   0.073   2.490 -3.2814 -1.1708 -1.3140
  263SOL    HW2 1051   0.439   0.025   2.395 -2.0596  0.2388  0.2284
  263SOL     MW 1052   0.402   0.012   2.467 -1.0711 -0.0147  0.2473
  264SOL     OW 1053   1.546   1.472   1.912 -0.2910 -0.5329  0.8147
  264SOL    HW1 1054   1.497   1.389   1.938  1.6695 -1.9326 -0.2363
  264SOL    HW2 1055   1.636   1.458   1.927 -2.8532 -0.3069 -4.1348
  264SOL     MW 1056   1.552   1.459   1.918 -0.3704 -0.6878  0.0230
  265SOL     OW 1057   0.708   2.776   2.329 -0.2977 -0.3047  0.5426
  265SOL    HW1 1058   0.785   2.717   2.340  1.4275  1.9793  1.5560
  265SOL    HW2 1059   0.699   2.815   2.418  0.1698 -0.4348  1.7847
  265SOL     MW 1060   0.717   2.774   2.342 -0.0084 -0.0205  0.8402
  266SOL     OW 1061   0.816   0.858   2.154 -0.2278 -0.3811 -0.5220
  266SOL    HW1 1062   0.791   0.928   2.097 -0.2030 -0.6674  0.1835
  266SOL    HW2 1063   0.893   0.804   2.117 -1.6254 -1.8107 -1.3556
  266SOL     MW 1064   0.823   0.860   2.142 -0.4089 -0.6075 -0.5389
  267SOL     OW 1065   1.383   1.748   2.679  0.2640 -0.0848  0.7483
  267SOL    HW1 1066   1.447   1.706   2.627 -1.1814 -0.4410  0.3476
  267SOL    HW2 1067   1.298   1.714   2.640 -2.9125 -0.2630 -0.9486
  267SOL     MW 1068   1.380   1.738   2.667 -0.3458 -0.1553  0.4716
  268SOL     OW 1069   0.094   0.918   1.732 -0.5583  0.0285 -0.2759
  268SOL    HW1 1070   0.001   0.924   1.755 -0.6885 -3.6304 -0.8118
  268SOL    HW2 1071   0.088   0.847   1.663  0.7749 -2.2435 -2.6205
  268SOL     MW 1072   0.081   0.909   1.726 -0.3996 -0.7540 -0.6559
  269SOL     OW 1073   1.372   1.836   2.400 -0.4324 -0.2145  0.6070
  269SOL    HW1 1074   1.418   1.908   2.448  3.2429 -0.9263 -0.9877
  269SOL    HW2 1075   1.293   1.809   2.448 -1.6001 -4.2844  0.5088
  269SOL     MW 1076   1.368   1.842   2.413 -0.1015 -0.8454  0.3836
  270SOL     OW 1077   1.094   0.455   1.522  0.0448  0.1927  0.1591
  270SOL    HW1 1078   1.052   0.384   1.569  1.4940  0.0170  1.8074
  270SOL    HW2 1079   1.179   0.420   1.505 -2.4753  4.5777  0.5662
  270SOL     MW 1080   1.100   0.441   1.526 -0.0965  0.7481  0.4303
  271SOL     OW 1081   0.772   0.077   2.545 -0.6623  0.3397  0.6578
  271SOL    HW1 1082   0.803   0.057   2.633 -4.7434 -0.6038  1.1698
  271SOL    HW2 1083   0.835   0.142   2.524 -3.1071 -0.0858  2.7048
  271SOL     MW 1084   0.784   0.083   2.554 -1.5234  0.1591  0.9955
  272SOL     OW 1085   1.453   2.775   2.815 -0.0491  0.3781  0.2104
  272SOL    HW1 1086   1.409   2.777   2.735  0.3462 -0.3763  0.4476
  272SOL    HW2 1087   1.516   2.854   2.819 -1.7342  1.7729  1.3220
  272SOL     MW 1088   1.456   2.785   2.805 -0.2193  0.4626  0.3883
  273SOL     OW 1089   1.460   0.810   2.809 -0.2013 -0.4883 -0.1346
  273SOL    HW1 1090   1.554   0.809   2.798  1.0051 -1.1715 -0.7738
  273SOL    HW2 1091   1.433   0.904   2.797 -1.6599 -0.3539  0.2199
  273SOL     MW 1092   1.469   0.822   2.806 -0.2346 -0.5607 -0.1722
  274SOL     OW 1093   1.401   0.632   0.118 -0.1023  0.4439  0.1894
  274SOL    HW1 1094   1.490   0.611   0.153  1.0450  1.1432  0.5048
  274SOL    HW2 1095   1.342   0.654   0.195 -0.3090  1.4157 -1.1764
  274SOL     MW 1096   1.405   0.632   0.133  0.0218  0.6644  0.0508
  275SOL     OW 1097   1.852   0.555   1.698  0.5945  0.0121  0.4037
  275SOL    HW1 1098   1.868   0.596   1.779  1.4142 -2.1893 -0.9249
  275SOL    HW2 1099   1.859   0.460   1.709 -1.7727  1.2107 -1.2553
  275SOL     MW 1100   1.855   0.548   1.710  0.3903 -0.1202  0.0095
  276SOL     OW 1101   0.387   1.163   1.938  0.8794 -0.1328  0.0464
  276SOL    HW1 1102   0.414   1.078   1.977  1.2151  0.8654 -0.3106
  276SOL    HW2 1103   0.355   1.218   2.011  1.0063  1.0282  1.6213
  276SOL     MW 1104   0.386   1.159   1.953  0.9404  0.1521  0.2071
  277SOL     OW 1105   1.953   1.138   2.460  0.0158  0.1736 -0.3458
  277SOL    HW1 1106   1.974   1.218   2.505  0.8392 -0.8065  1.0477
  277SOL    HW2 1107   2.027   1.122   2.409 -1.3502  0.3500 -0.0483
  277SOL     MW 1108   1.965   1.146   2.459 -0.0558  0.0676 -0.1227
  278SOL     OW 1109   1.472   0.621   1.597 -0.1771  0.3453 -0.2229
  278SOL    HW1 1110   1.475   0.591   1.685 -2.0438 -0.4212  0.8966
  278SOL    HW2 1111   1.565   0.649   1.578  1.3211  0.2156 -0.6053
  278SOL     MW 1112   1.485   0.620   1.607 -0.2257  0.2270 -0.1257
  279SOL     OW 1113   0.504   0.100   2.221  0.0829 -0.3969 -0.7571
  279SOL    HW1 1114   0.586   0.052   2.252  2.3168 -1.1585 -0.0542
  279SOL    HW2 1115   0.522   0.188   2.179 -3.3141  2.0987  0.7388
  279SOL     MW 1116   0.517   0.105   2.220 -0.0705 -0.1681 -0.4670
  280SOL     OW 1117   1.389   0.991   2.242 -0.5655  0.2478 -0.4081
  280SOL    HW1 1118   1.479   0.980   2.215 -2.0022 -2.1774 -1.6881
  280SOL    HW2 1119   1.402   0.954   2.328 -1.7979 -0.6745 -0.2630
  280SOL     MW 1120   1.403   0.985   2.250 -0.9176 -0.1939 -0.5578
  281SOL     OW 1121   1.392   1.073   2.767  0.1902  0.1125  0.2405
  281SOL    HW1 1122   1.463   1.133   2.740 -0.3228  0.6179  0.5124
  281SOL    HW2 1123   1.354   1.102   2.853  1.5925  1.2825  0.8950
  281SOL     MW 1124   1.396   1.085   2.775  0.3075  0.3336  0.3627
  282SOL     OW 1125   1.103   1.317   1.636 -1.0558  0.4354 -0.2599
  282SOL    HW1 1126   1.061   1.386   1.587  2.7725 -2.8637 -1.2530
  282SOL    HW2 1127   1.038   1.266   1.682  0.1546  2.2273 -0.2628
  282SOL     MW 1128   1.089   1.319   1.636 -0.3910  0.2366 -0.3913
  283SOL     OW 1129   0.817   1.348   3.019 -0.1500 -0.2643 -0.3640
  283SOL    HW1 1130   0.906   1.335   3.061  2.7082  1.5968 -1.0527
  283SOL    HW2 1131   0.809   1.440   3.008  0.1422 -1.1973  0.0882
  283SOL     MW 1132   0.827   1.358   3.023  0.2657 -0.1418 -0.3952
  284SOL     OW 1133   0.356   0.682   2.331 -0.4455 -0.0491  0.2927
  284SOL    HW1 1134   0.446   0.726   2.325 -0.4877 -0.5847  0.9398
  284SOL    HW2 1135   0.344   0.620   2.257 -2.1823 -1.2955  2.9067
  284SOL     MW 1136   0.366   0.680   2.320 -0.6802 -0.2842  0.7230
  285SOL     OW 1137   0.856   0.902   2.806  0.1981  0.8984 -0.3998
  285SOL    HW1 1138   0.902   0.918   2.727 -0.3653  0.2013 -0.3001
  285SOL    HW2 1139   0.800   0.834   2.777  2.5254  3.2386  0.2981
  285SOL     MW 1140   0.854   0.895   2.792  0.4309  1.1152 -0.2946
  286SOL     OW 1141   1.069   1.452   2.729 -0.0551 -0.5590  0.4166
  286SOL    HW1 1142   1.106   1.376   2.688 -0.1765 -0.6988 -0.2014
  286SOL    HW2 1143   1.106   1.536   2.689  1.2561 -1.6604 -1.2522
  286SOL     MW 1144   1.079   1.453   2.718  0.1019 -0.7228  0.1149
  287SOL     OW 1145   1.092   0.951   0.327 -0.2311  0.2957  0.0470
  287SOL    HW1 1146   1.063   0.988   0.412 -0.4846 -1.3487 -1.7922
  287SOL    HW2 1147   1.027   0.981   0.264  0.1803 -0.1892 -1.9773
  287SOL     MW 1148   1.079   0.960   0.330 -0.2103  0.0148 -0.4628
  288SOL     OW 1149   1.494   0.703   2.095 -0.0423  0.3577 -0.1520
  288SOL    HW1 1150   1.418   0.736   2.145  1.9691  0.0585 -4.3875
  288SOL    HW2 1151   1.558   0.775   2.111 -1.3815 -1.5226 -0.5483
  288SOL     MW 1152   1.492   0.717   2.104  0.0464  0.0701 -0.7631
  289SOL     OW 1153   0.993   0.983   2.580  0.4560  0.9492  0.1471
  289SOL    HW1 1154   1.036   0.921   2.527  1.2571  2.1449 -0.1460
  289SOL    HW2 1155   0.920   1.012   2.517 -0.2136  2.0976  0.2473
  289SOL     MW 1156   0.989   0.978   2.565  0.4734  1.2585  0.1216
  290SOL     OW 1157   0.697   0.648   1.472 -0.4859 -0.5292  0.4647
  290SOL    HW1 1158   0.759   0.613   1.408 -2.0494  1.2357 -0.2402
  290SOL    HW2 1159   0.751   0.645   1.548 -1.2709  0.8248 -0.9844
  290SOL     MW 1160   0.712   0.643   1.474 -0.7958 -0.1177  0.1805
  291SOL     OW 1161   0.233   0.346   0.209 -0.7683  0.1623  0.4538
  291SOL    HW1 1162   0.327   0.334   0.202 -3.2751 -0.9549 -1.8608
  291SOL    HW2 1163   0.197   0.259   0.207  0.7459  0.9102  1.2288
  291SOL     MW 1164   0.241   0.333   0.207 -0.8993  0.1135  0.2506
  292SOL     OW 1165   1.026   0.577   0.086  0.0566 -0.3980 -0.4588
  292SOL    HW1 1166   1.071   0.638   0.145 -0.0488 -0.1270 -2.3689
  292SOL    HW2 1167   1.050   0.485   0.116 -3.0051 -2.9467  0.1718
  292SOL     MW 1168   1.035   0.573   0.097 -0.3613 -0.6985 -0.6276
  293SOL     OW 1169   0.154   0.141   2.524 -0.8432  0.0019  0.0361
  293SOL    HW1 1170   0.139   0.067   2.469  1.0101 -1.0211  0.6171
  293SOL    HW2 1171   0.068   0.153   2.565  1.0275 -2.5151 -1.7838
  293SOL     MW 1172   0.141   0.132   2.522 -0.3518 -0.4652 -0.1274
  294SOL     OW 1173   1.279   0.436   2.305 -0.9823 -0.2653 -0.6107
  294SOL    HW1 1174   1.352   0.486   2.347  0.4929  1.7908  1.2447
  294SOL    HW2 1175   1.232   0.384   2.370  0.0968 -0.4209 -1.3956
  294SOL     MW 1176   1.282   0.435   2.319 -0.6453 -0.0146 -0.4694
  295SOL     OW 1177   0.853   0.651   2.485  0.1662  0.5250 -0.2512
  295SOL    HW1 1178   0.808   0.614   2.412 -0.2623  0.0302  1.3694
  295SOL    HW2 1179   0.785   0.659   2.553 -0.0118  1.3918 -0.1836
  295SOL     MW 1180   0.838   0.647   2.484  0.0862  0.5740 -0.0284
  296SOL     OW 1181   1.365   0.343   2.068  0.2992  0.1086  0.1352
  296SOL    HW1 1182   1.369   0.245   2.066  1.0449 -0.0282 -0.6102
  296SOL    HW2 1183   1.339   0.369   2.155 -0.0988  1.5549 -1.2815
  296SOL     MW 1184   1.362   0.334   2.079  0.3451  0.2814 -0.1501
  297SOL     OW 1185   1.357   0.373   1.522  0.3230 -0.0001 -0.5189
  297SOL    HW1 1186   1.404   0.449   1.551  2.7211 -0.0112  0.4434
  297SOL    HW2 1187   1.381   0.301   1.585 -0.6507  0.1081  1.4934
  297SOL     MW 1188   1.367   0.374   1.534  0.5109  0.0127 -0.1264
  298SOL     OW 1189   1.695   0.927   2.141  0.4920  0.1540  0.2569
  298SOL    HW1 1190   1.714   0.965   2.050 -0.7861 -1.4261  0.2666
  298SOL    HW2 1191   1.754   0.847   2.144  1.0209 -0.6305 -0.1087
  298SOL     MW 1192   1.705   0.921   2.129  0.3932 -0.1580  0.2099
  299SOL     OW 1193   0.604   1.174   0.046 -0.3577 -0.1706 -0.7174
  299SOL    HW1 1194   0.580   1.142  -0.050 -0.0707 -1.1955 -1.2719
  299SOL    HW2 1195   0.673   1.243   0.022  2.2734 -1.8712  0.5735
  299SOL     MW 1196   0.610   1.179   0.030  0.0273 -0.5302 -0.6202
  300SOL     OW 1197   1.165   1.196   2.655 -0.1059  0.6371  0.6528
  300SOL    HW1 1198   1.105   1.139   2.613  2.0790 -1.5189  1.3454
  300SOL    HW2 1199   1.246   1.148   2.670 -1.3322  1.0373  0.8657
  300SOL     MW 1200   1.167   1.182   2.651  0.0206  0.4054  0.7723
  301SOL     OW 1201   1.475   1.003   0.693  0.0627  0.5865 -0.4408
  301SOL    HW1 1202   1.493   1.023   0.783 -1.0874  2.1961 -1.9085
  301SOL    HW2 1203   1.406   0.936   0.697 -0.8597  0.0511 -0.2963
  301SOL     MW 1204   1.468   0.997   0.706 -0.2107  0.7282 -0.6154
  302SOL     OW 1205   0.220   1.610   2.028  1.0251 -0.2544 -0.2588
  302SOL    HW1 1206   0.236   1.517   2.044 -0.5708 -2.7126 -0.7408
  302SOL    HW2 1207   0.127   1.625   2.034  2.0470  1.6699 -0.8402
  302SOL     MW 1208   0.210   1.600   2.031  0.9494 -0.3249 -0.3991
  303SOL     OW 1209   0.281   1.789   2.677  0.1026  0.1414 -0.0663
  303SOL    HW1 1210   0.226   1.802   2.599  2.0490 -3.1085 -0.3529
  303SOL    HW2 1211   0.225   1.819   2.746  0.4236 -1.7280  2.4672
  303SOL     MW 1212   0.267   1.795   2.676  0.4017 -0.5341  0.2302
  304SOL     OW 1213   0.527   2.093   2.475  0.0570  0.2121 -0.0603
  304SOL    HW1 1214   0.576   2.152   2.420 -1.0928  2.0322 -0.7137
  304SOL    HW2 1215   0.579   2.012   2.459 -0.3129 -1.6728 -1.2466
  304SOL     MW 1216   0.541   2.090   2.466 -0.1435  0.2036 -0.3031
  305SOL     OW 1217   1.129   0.639   0.563  0.4555 -0.2752  0.3142
  305SOL    HW1 1218   1.041   0.605   0.541 -0.3844 -1.6468 -1.2505
  305SOL    HW2 1219   1.187   0.551   0.581  0.4253 -0.5420 -0.1339
  305SOL     MW 1220   1.125   0.623   0.563  0.3407 -0.4914  0.0486
  306SOL     OW 1221   1.124   1.539   0.294  0.8468 -0.1976  0.0754
  306SOL    HW1 1222   1.127   1.450   0.329  0.6556  1.5050 -1.2657
  306SOL    HW2 1223   1.172   1.544   0.208  0.0508  0.6409  0.4888
  306SOL     MW 1224   1.131   1.528   0.287  0.7165  0.1376 -0.0470
  307SOL     OW 1225   1.465   0.548   1.875 -0.0200  0.3921  0.0500
  307SOL    HW1 1226   1.430   0.480   1.933 -1.2201  1.0750 -0.2106
  307SOL    HW2 1227   1.449   0.629   1.929 -1.0532  0.7847 -0.8851
  307SOL     MW 1228   1.458   0.550   1.889 -0.3147  0.5340 -0.1077
  308SOL     OW 1229   2.286   0.579   2.749 -0.3696 -0.2395 -0.5639
  308SOL    HW1 1230   2.382   0.588   2.771 -0.9306  2.8651 -0.6420
  308SOL    HW2 1231   2.268   0.665   2.709  0.1434 -0.8464 -0.9046
  308SOL     MW 1232   2.296   0.591   2.747 -0.3759  0.0900 -0.6192
  309SOL     OW 1233   0.531   0.515   0.286  0.4090  0.0455  0.0670
  309SOL    HW1 1234   0.621   0.550   0.281  1.7119 -4.2696  0.0269
  309SOL    HW2 1235   0.543   0.420   0.262  2.9222  1.3109  2.1678
  309SOL     MW 1236   0.544   0.507   0.283  0.9125 -0.3569  0.3389
  310SOL     OW 1237   0.384   0.532   1.851  0.0123 -0.3141  0.5740
  310SOL    HW1 1238   0.402   0.479   1.773 -2.1665  2.0336 -1.1229
  310SOL    HW2 1239   0.430   0.620   1.847  2.8117  0.5855  2.6536
  310SOL     MW 1240   0.392   0.537   1.840  0.0942  0.1143  0.6245
  311SOL     OW 1241   2.003   0.705   1.917  0.1209  0.4277 -0.2933
  311SOL    HW1 1242   1.957   0.714   2.009 -4.0212 -3.3603  0.1166
  311SOL    HW2 1243   2.036   0.617   1.918 -0.5105  4.1681 -1.7402
  311SOL     MW 1244   2.001   0.694   1.930 -0.5089  0.4214 -0.4301
  312SOL     OW 1245   1.730   2.472   0.156  0.4809 -0.6088 -0.2073
  312SOL    HW1 1246   1.758   2.458   0.248  1.4342  2.4657 -0.7176
  312SOL    HW2 1247   1.664   2.545   0.158 -2.3151  0.7610  0.9323
  312SOL     MW 1248   1.725   2.480   0.168  0.2378 -0.0224 -0.1243
  313SOL     OW 1249   0.110   1.144   3.062 -0.6237  0.0849  0.6162
  313SOL    HW1 1250   0.077   1.184   3.144 -1.0459  0.5963  1.2467
  313SOL    HW2 1251   0.138   1.209   3.000 -2.2803 -1.3455  2.0411
  313SOL     MW 1252   0.109   1.158   3.064 -0.8980 -0.0363  0.8874
  314SOL     OW 1253   2.218   2.881   3.082  0.0727 -0.6214 -0.3363
  314SOL    HW1 1254   2.135   2.901   3.030 -0.1407 -1.0033  0.5005
  314SOL    HW2 1255   2.263   2.957   3.082 -1.6551 -0.5258  0.3952
  314SOL     MW 1256   2.213   2.894   3.075 -0.1834 -0.6591 -0.1294
  315SOL     OW 1257   1.511   1.849   3.026  0.0431  0.4541  0.3017
  315SOL    HW1 1258   1.445   1.908   3.068 -2.3274  2.9315  0.8287
  315SOL    HW2 1259   1.560   1.909   2.970  0.9573 -0.2116 -2.7930
  315SOL     MW 1260   1.509   1.865   3.024 -0.1491  0.6931 -0.0371
  316SOL     OW 1261   1.223   0.714   2.712 -0.0238  0.0047  0.1678
  316SOL    HW1 1262   1.311   0.725   2.735  0.6039 -2.7967  0.1974
  316SOL    HW2 1263   1.173   0.669   2.783  1.3798 -3.0084  1.5729
  316SOL     MW 1264   1.228   0.709   2.725  0.2442 -0.7624  0.3571
  317SOL     OW 1265   0.687   1.629   2.572 -0.3052 -0.3244 -0.0107
  317SOL    HW1 1266   0.728   1.538   2.590  0.3486 -1.0149 -1.0218
  317SOL    HW2 1267   0.684   1.628   2.482 -0.6735 -2.8323  1.5029
  317SOL     MW 1268   0.692   1.617   2.563 -0.2675 -0.7464  0.0556
  318SOL     OW 1269   1.360   0.411   2.862 -0.2711 -0.3329 -0.2819
  318SOL    HW1 1270   1.290   0.479   2.858  1.7506  0.1169  0.5601
  318SOL    HW2 1271   1.445   0.448   2.862 -0.3870 -1.6460  2.9547
  318SOL     MW 1272   1.362   0.425   2.862 -0.0197 -0.4468  0.2563
  319SOL     OW 1273   0.829   0.512   2.858 -0.2167 -0.2059  0.1006
  319SOL    HW1 1274   0.805   0.431   2.806  3.1912 -0.3800 -0.9686
  319SOL    HW2 1275   0.798   0.490   2.944 -1.2819 -0.1356  0.5417
  319SOL     MW 1276   0.822   0.499   2.863  0.0924 -0.2196  0.0177
  320SOL     OW 1277   1.003   1.319   1.996  0.2701 -0.3985  0.0971
  320SOL    HW1 1278   1.063   1.249   2.012  0.8472  1.0114  3.6433
  320SOL    HW2 1279   1.057   1.386   1.952  0.2461 -0.2155 -0.2656
  320SOL     MW 1280   1.018   1.319   1.993  0.3431 -0.1883  0.5171
  321SOL     OW 1281   1.025   0.922   3.046 -0.5552  0.6225 -0.1267
  321SOL    HW1 1282   0.972   0.918   2.964  2.6602  1.5206 -1.7762
  321SOL    HW2 1283   1.091   0.851   3.037 -1.8027  1.4948  1.8352
  321SOL     MW 1284   1.027   0.912   3.034 -0.2956  0.8561 -0.0855
  322SOL     OW 1285   1.347   0.867   1.647  0.0301 -0.3799  0.0775
  322SOL    HW1 1286   1.406   0.793   1.629 -0.0762 -0.1668  1.6527
  322SOL    HW2 1287   1.265   0.827   1.680 -0.6666  0.3745 -0.7510
  322SOL     MW 1288   1.344   0.852   1.649 -0.0759 -0.2522  0.1760
  323SOL     OW 1289   1.162   1.535   1.894 -0.7139 -0.1424  0.4175
  323SOL    HW1 1290   1.227   1.481   1.848  1.2252  0.8253  0.3276
  323SOL    HW2 1291   1.148   1.611   1.841 -1.1756 -1.1648  0.6938
  323SOL     MW 1292   1.169   1.538   1.881 -0.5190 -0.1496  0.4421
  324SOL     OW 1293   1.443   0.905   2.504 -0.0028 -0.4398  0.3463
  324SOL    HW1 1294   1.380   0.899   2.574  3.8958  0.5536 -2.3459
  324SOL    HW2 1295   1.515   0.960   2.542 -2.2007 -2.3485  0.2211
  324SOL     MW 1296   1.444   0.911   2.518  0.2216 -0.5606 -0.0255
  325SOL     OW 1297   1.097   0.531   2.914  0.0251  0.7257  0.2509
  325SOL    HW1 1298   1.107   0.590   2.988  3.9507 -1.6197  0.3846
  325SOL    HW2 1299   1.002   0.534   2.895 -0.7751 -1.0779  0.2731
  325SOL     MW 1300   1.086   0.539   2.921  0.4375  0.1783  0.2715
  326SOL     OW 1301   0.387   1.359   2.360 -0.4470 -0.0942 -0.3410
  326SOL    HW1 1302   0.465   1.335   2.309  1.3093  0.6241  0.0553
  326SOL    HW2 1303   0.390   1.459   2.350 -0.2406  1.8124 -1.8063
  326SOL     MW 1304   0.398   1.369   2.352 -0.1881  0.2522 -0.4820
  327SOL     OW 1305   1.956   0.749   2.411  0.1794 -0.0905 -0.1775
  327SOL    HW1 1306   1.915   0.697   2.483 -1.0540  0.1701  0.0550
  327SOL    HW2 1307   1.991   0.820   2.459  0.4269 -0.0539  0.6332
  327SOL     MW 1308   1.955   0.751   2.427  0.0493 -0.0513 -0.0398
  328SOL     OW 1309   0.263   1.341   2.112 -0.2293 -0.1721 -0.3872
  328SOL    HW1 1310   0.188   1.282   2.121  1.5902  2.6486  3.5013
  328SOL    HW2 1311   0.289   1.346   2.209  0.4537 -1.0832  2.4620
  328SOL     MW 1312   0.256   1.334   2.126  0.1009  0.0799  0.5018
  329SOL     OW 1313   0.042   0.128   1.367 -0.7204  0.8174  0.3314
  329SOL    HW1 1314  -0.002   0.151   1.447  1.7139 -2.5358 -1.7282
  329SOL    HW2 1315   0.132   0.167   1.366  0.6648 -1.2543 -0.2597
  329SOL     MW 1316   0.048   0.136   1.377 -0.2165  0.1016 -0.0184
  330SOL     OW 1317   0.330   0.065   1.965  0.2017 -0.1839 -0.2932
  330SOL    HW1 1318   0.420   0.090   1.957 -0.4378  0.5865  0.8767
  330SOL    HW2 1319   0.328  -0.009   2.025 -1.8648  0.0403  0.3973
  330SOL     MW 1320   0.341   0.059   1.972 -0.1554 -0.0527 -0.0477
  331SOL     OW 1321   0.785   1.239   2.388  0.5995 -0.0805  0.8058
  331SOL    HW1 1322   0.721   1.283   2.328 -0.0777 -0.9736  0.6120
  331SOL    HW2 1323   0.790   1.310   2.451  0.9811 -3.4122 -4.3254
  331SOL     MW 1324   0.777   1.254   2.388  0.5605 -0.6379  0.1032
  332SOL     OW 1325   1.358   1.648   2.945  0.0383 -0.3883 -0.1154
  332SOL    HW1 1326   1.396   1.647   2.858  2.3891 -0.0074  2.1858
  332SOL    HW2 1327   1.374   1.738   2.975 -4.9139  1.5062 -1.0347
  332SOL     MW 1328   1.365   1.660   2.938 -0.3049 -0.0881  0.0669
  333SOL     OW 1329   1.700   1.353   2.924  0.3161 -0.3551 -0.0439
  333SOL    HW1 1330   1.786   1.349   2.882 -0.4879 -1.3974  1.4590
  333SOL    HW2 1331   1.703   1.289   2.998 -0.8769 -0.1387  3.7663
  333SOL     MW 1332   1.712   1.344   2.929  0.0526 -0.4641  0.6571
  334SOL     OW 1333   1.322   3.057   2.642  0.0048 -0.2819 -0.7224
  334SOL    HW1 1334   1.249   3.074   2.703  3.4711 -0.9619 -1.2752
  334SOL    HW2 1335   1.386   3.123   2.674 -1.4314 -0.6130  2.1928
  334SOL     MW 1336   1.321   3.068   2.654  0.2726 -0.4153 -0.4107
  335SOL     OW 1337   1.263   0.775   3.021  0.1714 -0.0601  0.6415
  335SOL    HW1 1338   1.312   0.734   3.093 -2.3787  0.1240 -4.7489
  335SOL    HW2 1339   1.326   0.768   2.950 -0.9429  0.4941  3.1362
  335SOL     MW 1340   1.278   0.769   3.021 -0.3121  0.0373  0.2595
  336SOL     OW 1341   0.927   1.113   1.706 -0.5263 -0.4975  0.0963
  336SOL    HW1 1342   0.869   1.143   1.775  3.5936 -0.9255  2.3718
  336SOL    HW2 1343   0.988   1.043   1.755  2.7884  0.2570  1.5950
  336SOL     MW 1344   0.927   1.108   1.722  0.4547 -0.4544  0.5942
  337SOL     OW 1345   0.503   1.953   2.838  0.6311 -0.2269  0.6340
  337SOL    HW1 1346   0.463   1.950   2.751 -0.0788  2.9020  0.4669
  337SOL    HW2 1347   0.585   1.906   2.835  2.2838 -0.7502 -0.5522
  337SOL     MW 1348   0.508   1.946   2.826  0.7555  0.1169  0.4555
  338SOL     OW 1349   1.109   0.778   2.466  0.3280 -0.0007  0.0908
  338SOL    HW1 1350   1.020   0.734   2.467  1.7138 -0.4547 -0.3943
  338SOL    HW2 1351   1.156   0.762   2.547  0.5337  0.8338 -0.6714
  338SOL     MW 1352   1.104   0.770   2.477  0.5380  0.0495 -0.0738
  339SOL     OW 1353   1.350   1.275   1.906 -0.1547 -0.0553 -0.5210
  339SOL    HW1 1354   1.344   1.221   1.825 -0.6719 -1.1774 -0.5566
  339SOL    HW2 1355   1.310   1.216   1.972  1.4277 -0.0437  2.8585
  339SOL     MW 1356   1.344   1.260   1.904 -0.0142 -0.2018 -0.0798
  340SOL     OW 1357   1.310   1.543   0.095 -0.1272  0.0518  0.4766
  340SOL    HW1 1358   1.341   1.564   0.002  2.6531  1.3706 -2.6745
  340SOL    HW2 1359   1.370   1.471   0.126 -0.1304  1.7548  2.2411
  340SOL     MW 1360   1.322   1.536   0.087  0.2392  0.4505  0.2936
  341SOL     OW 1361   0.108   1.377   2.823 -0.3153  0.4401  0.1737
  341SOL    HW1 1362   0.192   1.378   2.878  0.6673 -1.1588  2.1844
  341SOL    HW2 1363   0.137   1.399   2.734 -1.9310 -0.5961 -2.0460
  341SOL     MW 1364   0.123   1.380   2.818 -0.3988  0.0924  0.1461
  342SOL     OW 1365   1.386   0.327   0.029  0.3599 -0.1859 -0.1485
  342SOL    HW1 1366   1.436   0.396   0.071 -2.6354 -1.2036 -1.6055
  342SOL    HW2 1367   1.377   0.354  -0.063 -0.0349  1.2230 -1.8407
  342SOL     MW 1368   1.391   0.340   0.023 -0.0874 -0.1343 -0.5640
  343SOL     OW 1369   0.255   0.267   2.157  0.3031  0.4240 -0.6629
  343SOL    HW1 1370   0.292   0.200   2.099 -0.9068 -0.3142  0.2379
  343SOL    HW2 1371   0.157   0.257   2.154 -1.4228 -1.6040 -0.9157
  343SOL     MW 1372   0.247   0.257   2.149 -0.0842  0.0590 -0.5774
  344SOL     OW 1373   1.684   2.036   0.189 -0.1792 -0.0863  0.2217
  344SOL    HW1 1374   1.723   2.093   0.130  1.2446  1.5163  0.5754
  344SOL    HW2 1375   1.587   2.027   0.158 -2.2089  1.1277 -0.3529
  344SOL     MW 1376   1.677   2.042   0.177 -0.2591  0.2853  0.1926
  345SOL     OW 1377   0.643   1.593   2.308 -0.0698 -0.9182 -0.7939
  345SOL    HW1 1378   0.562   1.629   2.275 -1.1950 -1.5537  1.6425
  345SOL    HW2 1379   0.700   1.576   2.229 -0.2457 -0.3786 -2.9331
  345SOL     MW 1380   0.640   1.595   2.293 -0.2415 -0.9308 -0.7547
  346SOL     OW 1381   1.672   1.168   0.042 -0.3169  0.6069 -0.5410
  346SOL    HW1 1382   1.722   1.209   0.112 -2.2749 -2.6924  0.7716
  346SOL    HW2 1383   1.641   1.080   0.076  0.0630 -1.3987  3.3376
  346SOL     MW 1384   1.674   1.162   0.055 -0.5251 -0.0930  0.1440
  347SOL     OW 1385   1.198   0.677   2.200  0.6208  0.7335 -0.3799
  347SOL    HW1 1386   1.223   0.586   2.220 -0.0900  2.5335 -0.4316
  347SOL    HW2 1387   1.178   0.702   2.291  0.1618  0.4545 -1.2994
  347SOL     MW 1388   1.198   0.668   2.215  0.4665  0.9342 -0.5080
  348SOL     OW 1389   1.292   2.558   1.947 -0.2964 -0.9283 -0.3866
  348SOL    HW1 1390   1.314   2.507   2.031  0.0609 -0.9295  0.0477
  348SOL    HW2 1391   1.339   2.645   1.967  1.3715  1.6216 -2.4714
  348SOL     MW 1392   1.301   2.563   1.961 -0.0292 -0.5920 -0.6043
  349SOL     OW 1393   1.461   0.160   2.776 -0.1713 -0.3642  0.3167
  349SOL    HW1 1394   1.413   0.245   2.790  0.9410  0.1646  0.3223
  349SOL    HW2 1395   1.497   0.143   2.868 -3.2943  0.3467  2.7189
  349SOL     MW 1396   1.459   0.169   2.790 -0.4366 -0.2006  0.6344
  350SOL     OW 1397   1.872   0.627   2.647  0.0208 -0.6109  0.0302
  350SOL    HW1 1398   1.807   0.561   2.619  0.4449 -1.3385  0.7821
  350SOL    HW2 1399   1.933   0.581   2.718  2.0922  1.5494 -0.3918
  350SOL     MW 1400   1.871   0.612   2.653  0.3501 -0.4218  0.0737
  351SOL     OW 1401   0.110   1.187   1.564  0.4614 -0.5850 -0.1295
  351SOL    HW1 1402   0.078   1.111   1.611 -0.1635 -0.4569  0.1833
  351SOL    HW2 1403   0.168   1.234   1.630 -0.0431  3.7351 -1.8603
  351SOL     MW 1404   0.113   1.183   1.579  0.3124  0.0019 -0.3166
  352SOL     OW 1405   0.744   1.801   2.809 -0.0243 -0.3896  0.5891
  352SOL    HW1 1406   0.771   1.755   2.889 -0.8447  2.2739  1.7188
  352SOL    HW2 1407   0.736   1.740   2.736  0.7863 -1.4187  0.2714
  352SOL     MW 1408   0.746   1.787   2.810 -0.0256 -0.1739  0.6962
  353SOL     OW 1409   3.087   2.569   2.650 -0.0261  0.0410  0.5073
  353SOL    HW1 1410   3.174   2.530   2.663  2.5504  0.5188 -0.7794
  353SOL    HW2 1411   3.107   2.622   2.574 -3.3670  2.2717  0.6447
  353SOL     MW 1412   3.101   2.571   2.642 -0.1269  0.3983  0.3557
  354SOL     OW 1413   0.356   2.416   0.803 -0.5495 -0.1228 -0.5640
  354SOL    HW1 1414   0.431   2.367   0.840 -0.6596  2.0336 -1.1899
  354SOL    HW2 1415   0.275   2.362   0.829  0.5456  1.3886 -0.6087
  354SOL     MW 1416   0.355   2.402   0.811 -0.4196  0.3611 -0.6525
  355SOL     OW 1417   0.112   2.260   0.408 -0.1429  0.9411  0.2137
  355SOL    HW1 1418   0.042   2.186   0.390 -2.4290  1.3339  0.4881
  355SOL    HW2 1419   0.086   2.306   0.487 -0.5112 -1.8428 -0.6820
  355SOL     MW 1420   0.099   2.256   0.416 -0.4931  0.6256  0.1317
  356SOL     OW 1421   0.742   2.967   1.013 -0.0327 -0.3656 -0.6588
  356SOL    HW1 1422   0.802   2.960   0.939  1.4979 -2.2082  0.3862
  356SOL    HW2 1423   0.666   2.906   0.989 -2.8086  2.4185 -2.6829
  356SOL     MW 1424   0.740   2.958   1.000 -0.1970 -0.2414 -0.7880
  357SOL     OW 1425   1.854   2.798   0.469  0.6137  0.2576 -0.3556
  357SOL    HW1 1426   1.834   2.774   0.560  0.1209  1.5924  0.6009
  357SOL    HW2 1427   1.935   2.752   0.453 -0.3587 -0.8805 -1.5277
  357SOL     MW 1428   1.862   2.789   0.479  0.4204  0.2836 -0.3840
  358SOL     OW 1429   0.414   0.134   1.061 -0.2679 -0.2922 -0.1234
  358SOL    HW1 1430   0.514   0.126   1.071  0.0356 -0.7757  1.0608
  358SOL    HW2 1431   0.401   0.166   0.970 -0.1797 -2.7726 -1.4142
  358SOL     MW 1432   0.426   0.137   1.051 -0.2162 -0.6832 -0.1375
  359SOL     OW 1433   0.908   2.943   1.890  0.4190 -0.1446  0.9386
  359SOL    HW1 1434   0.909   2.848   1.925  0.9363 -1.8198 -2.9058
  359SOL    HW2 1435   0.912   2.922   1.797  0.7641  0.5159 -2.5936
  359SOL     MW 1436   0.909   2.927   1.883  0.5328 -0.2785 -0.0346
  360SOL     OW 1437   0.573   2.761   0.908 -0.1213 -0.2503 -0.4784
  360SOL    HW1 1438   0.597   2.747   0.818 -0.0786 -0.6487 -1.3486
  360SOL    HW2 1439   0.570   2.675   0.946  1.4828  2.1659  1.1867
  360SOL     MW 1440   0.576   2.748   0.901  0.0960  0.0159 -0.3735
  361SOL     OW 1441   0.144   2.711   1.359 -0.7032  0.2561 -0.9217
  361SOL    HW1 1442   0.090   2.769   1.411  1.1799 -1.6098 -2.3692
  361SOL    HW2 1443   0.227   2.754   1.357  1.0329 -1.6044 -2.0545
  361SOL     MW 1444   0.148   2.724   1.366 -0.2257 -0.2356 -1.2622
  362SOL     OW 1445   1.390   2.426   0.600  0.5239 -0.2226 -0.3623
  362SOL    HW1 1446   1.418   2.371   0.676 -1.0004 -0.6513  1.0132
  362SOL    HW2 1447   1.452   2.500   0.575  0.9793  1.7581 -1.8233
  362SOL     MW 1448   1.401   2.428   0.607  0.3829 -0.0178 -0.3736
  363SOL     OW 1449   0.308   3.097   0.654 -0.0050  0.3257 -0.6073
  363SOL    HW1 1450   0.299   3.035   0.724 -2.8297  1.2675 -0.4832
  363SOL    HW2 1451   0.229   3.081   0.601 -0.1666 -1.0073 -1.6298
  363SOL     MW 1452   0.297   3.087   0.656 -0.3990  0.2741 -0.7259
  364SOL     OW 1453   0.761   0.222   0.148  0.0810  0.6920 -0.2639
  364SOL    HW1 1454   0.704   0.154   0.190  0.6461 -4.4150 -1.5016
  364SOL    HW2 1455   0.704   0.279   0.083 -1.8105  1.6414  1.3456
  364SOL     MW 1456   0.746   0.220   0.145 -0.0940  0.1435 -0.2148
  365SOL     OW 1457   0.877   2.013   1.279  0.0245 -0.5420  0.0281
  365SOL    HW1 1458   0.862   2.095   1.229 -3.0747 -1.1541 -0.3262
  365SOL    HW2 1459   0.816   1.945   1.238  1.2760 -2.2254  0.9601
  365SOL     MW 1460   0.867   2.015   1.267 -0.2193 -0.8448  0.1043
  366SOL     OW 1461   2.885   2.658   0.942 -0.4890  0.0094 -0.4479
  366SOL    HW1 1462   2.967   2.618   0.989  4.0080 -0.3137 -0.6453
  366SOL    HW2 1463   2.912   2.686   0.854 -0.8292 -0.9120  0.7761
  366SOL     MW 1464   2.900   2.656   0.936  0.0595 -0.1548 -0.3125
  367SOL     OW 1465   1.297   3.045   1.007  0.6625  0.5611 -0.4292
  367SOL    HW1 1466   1.371   3.091   1.024 -0.7315 -0.0956 -0.1502
  367SOL    HW2 1467   1.312   3.026   0.917  0.6726  0.0112 -0.4063
  367SOL     MW 1468   1.309   3.048   0.998  0.4799  0.4019 -0.3894
  368SOL     OW 1469   1.706   0.404   0.599  0.0055 -0.7323 -0.0846
  368SOL    HW1 1470   1.773   0.343   0.562  3.6146  0.1088 -0.0798
  368SOL    HW2 1471   1.719   0.484   0.547 -0.5519 -3.1095  1.1594
  368SOL     MW 1472   1.717   0.406   0.588  0.4082 -0.9350  0.0801
  369SOL     OW 1473   0.158   2.409   1.751 -0.1107  0.2728 -0.2231
  369SOL    HW1 1474   0.253   2.407   1.780  1.1224  0.7551  0.2949
  369SOL    HW2 1475   0.138   2.501   1.751  0.2392  0.1563 -0.9938
  369SOL     MW 1476   0.168   2.421   1.755  0.0981  0.3210 -0.2564
  370SOL     OW 1477   0.693   0.136   1.069 -0.8772  0.1518 -0.0776
  370SOL    HW1 1478   0.752   0.156   0.996 -0.9955  2.4511 -1.9533
  370SOL    HW2 1479   0.711   0.039   1.075  0.2760  0.6174 -0.4048
  370SOL     MW 1480   0.703   0.125   1.060 -0.7407  0.5166 -0.3683
  371SOL     OW 1481   1.123   2.902   1.475  0.0769  0.3749  0.3186
  371SOL    HW1 1482   1.141   2.811   1.445 -1.6581 -0.0444  3.9717
  371SOL    HW2 1483   1.088   2.954   1.400 -3.0571 -1.3134  0.8015
  371SOL     MW 1484   1.121   2.897   1.461 -0.5655  0.0968  0.8643
  372SOL     OW 1485   0.817   2.311   0.467 -0.1236 -0.0403 -0.4424
  372SOL    HW1 1486   0.777   2.240   0.520  0.8209  0.5462  0.2800
  372SOL    HW2 1487   0.832   2.283   0.376  2.2400 -0.5402  0.0885
  372SOL     MW 1488   0.814   2.298   0.462  0.3129 -0.0289 -0.2770
  373SOL     OW 1489   2.801   2.975   1.415 -0.0851  0.1055  0.1188
  373SOL    HW1 1490   2.888   2.968   1.390 -1.7446  0.4374  1.0162
  373SOL    HW2 1491   2.771   3.051   1.374  0.3995  0.2104 -0.4047
  373SOL     MW 1492   2.808   2.984   1.407 -0.2401  0.1631  0.1681
  374SOL     OW 1493   1.594   0.465   0.245 -0.2294 -0.3175 -0.3600
  374SOL    HW1 1494   1.685   0.430   0.237  1.1041 -1.1983 -0.0565
  374SOL    HW2 1495   1.553   0.408   0.305 -0.2444 -0.7824  0.3400
  374SOL     MW 1496   1.601   0.453   0.252 -0.0555 -0.4951 -0.2276
  375SOL     OW 1497   1.109   2.036   2.208 -0.2667 -0.5633 -0.3723
  375SOL    HW1 1498   1.121   2.011   2.303  1.5432 -1.2376 -2.1160
  375SOL    HW2 1499   1.030   1.990   2.171  1.0848 -2.3670 -1.1211
  375SOL     MW 1500   1.100   2.026   2.215  0.1504 -0.8903 -0.7012
  376SOL     OW 1501   0.850   2.522   0.145  0.5127  0.3576 -0.2378
  376SOL    HW1 1502   0.783   2.461   0.190 -2.0326 -2.3982  1.1715
  376SOL    HW2 1503   0.851   2.505   0.046  1.1157  2.8855 -1.6349
  376SOL     MW 1504   0.842   2.512   0.138  0.2565  0.3276 -0.2362
  377SOL     OW 1505   1.351   2.086   0.945 -0.0379 -0.4328  0.7033
  377SOL    HW1 1506   1.277   2.051   0.896  0.8193  0.7686  0.4831
  377SOL    HW2 1507   1.330   2.084   1.034  0.2481  2.7584 -0.5427
  377SOL     MW 1508   1.338   2.081   0.951  0.1129  0.1468  0.5099
  378SOL     OW 1509   0.880   2.866   1.633 -0.1705 -0.4467 -0.4622
  378SOL    HW1 1510   0.879   2.770   1.650 -1.5293 -2.6989  0.0056
  378SOL    HW2 1511   0.951   2.884   1.568  5.0660  1.0947  0.0451
  378SOL     MW 1512   0.889   2.856   1.627  0.3412 -0.5405 -0.3335
  379SOL     OW 1513   1.065   1.557   2.304  0.2828  0.0294  0.1057
  379SOL    HW1 1514   1.013   1.552   2.224  1.3856  0.9357 -0.1982
  379SOL    HW2 1515   1.142   1.507   2.270 -0.2211 -2.0171  1.8290
  379SOL     MW 1516   1.068   1.549   2.289  0.3618 -0.1211  0.2930
  380SOL     OW 1517   0.920   0.138   1.531  0.1223  0.1747  0.4119
  380SOL    HW1 1518   0.933   0.068   1.463  0.9800  2.0821 -0.8050
  380SOL    HW2 1519   0.988   0.134   1.605 -1.6440 -1.1592  1.1251
  380SOL     MW 1520   0.931   0.128   1.532  0.0024  0.2504  0.3454
  381SOL     OW 1521   0.843   2.067   0.901  0.3440  0.2349 -0.1879
  381SOL    HW1 1522   0.936   2.035   0.892 -1.0220  1.0296 -2.2892
  381SOL    HW2 1523   0.838   2.124   0.979  2.2637 -2.1648 -0.4247
  381SOL     MW 1524   0.854   2.070   0.910  0.4171  0.0231 -0.4964
  382SOL     OW 1525   0.868   0.129   0.588 -0.2913  0.3841 -0.5377
  382SOL    HW1 1526   0.810   0.146   0.667  0.7846 -0.9680  2.0932
  382SOL    HW2 1527   0.845   0.042   0.563 -0.0843  0.6101 -2.1904
  382SOL     MW 1528   0.858   0.120   0.595 -0.1221  0.2355 -0.4086
  383SOL     OW 1529   0.653   3.105   0.298  0.0720 -0.0643 -0.2208
  383SOL    HW1 1530   0.714   3.039   0.275 -0.4381  1.7583 -1.6669
  383SOL    HW2 1531   0.600   3.062   0.362  1.1796  0.6146 -2.7083
  383SOL     MW 1532   0.654   3.091   0.303  0.1508  0.2657 -0.7398
  384SOL     OW 1533   0.781   2.961   0.611  0.5901 -0.1791  0.0539
  384SOL    HW1 1534   0.866   2.960   0.663 -2.0405  0.0752  0.3860
  384SOL    HW2 1535   0.739   2.877   0.633  3.1471  0.0497 -0.9932
  384SOL     MW 1536   0.787   2.950   0.621  0.5804 -0.1154 -0.0405
  385SOL     OW 1537   1.384   2.054   1.543  0.3949 -0.1462  0.3457
  385SOL    HW1 1538   1.477   2.082   1.572  2.7934  0.6163 -0.7857
  385SOL    HW2 1539   1.368   1.975   1.600 -1.2896 -1.9409 -0.1654
  385SOL     MW 1540   1.394   2.047   1.554  0.4891 -0.2824  0.1290
  386SOL     OW 1541   1.458   0.380   0.846  0.0978  0.0002  0.4041
  386SOL    HW1 1542   1.424   0.438   0.915 -0.8043  0.5192 -1.8621
  386SOL    HW2 1543   1.550   0.360   0.857 -0.9363 -0.7439 -2.1001
  386SOL     MW 1544   1.466   0.385   0.857 -0.1577 -0.0295 -0.2253
  387SOL     OW 1545   0.818   2.268   1.573  0.6824 -0.3064  0.0563
  387SOL    HW1 1546   0.889   2.294   1.506  1.3376  0.0912 -0.3153
  387SOL    HW2 1547   0.821   2.177   1.575 -0.0905  2.4143  0.0640
  387SOL     MW 1548   0.828   2.259   1.565  0.6668  0.1050  0.0083
  388SOL     OW 1549   1.469   2.802   1.495  0.4824 -0.0498 -0.0370
  388SOL    HW1 1550   1.418   2.830   1.422  2.2012  0.5395  1.5718
  388SOL    HW2 1551   1.536   2.741   1.459  1.1401 -1.5372  0.9769
  388SOL     MW 1552   1.471   2.798   1.481  0.7960 -0.1683  0.3091
  389SOL     OW 1553   0.449   0.099   3.051 -0.5210 -0.4055 -0.2901
  389SOL    HW1 1554   0.502   0.021   3.017  2.2756 -0.4536 -0.7160
  389SOL    HW2 1555   0.423   0.154   2.974 -2.2728 -1.1269  2.0626
  389SOL     MW 1556   0.453   0.096   3.036 -0.3832 -0.5070 -0.0359
  390SOL     OW 1557   1.375   3.094   0.711  0.1645 -0.2255  0.2270
  390SOL    HW1 1558   1.397   3.093   0.617 -1.1709 -3.5596 -0.9962
  390SOL    HW2 1559   1.443   3.154   0.754 -0.3981 -2.6449 -1.4435
  390SOL     MW 1560   1.387   3.102   0.704 -0.0859 -0.9846 -0.1548
  391SOL     OW 1561   0.307   2.149   1.505  0.2117 -0.0436 -0.0724
  391SOL    HW1 1562   0.299   2.146   1.603 -2.2965 -1.8811 -2.6647
  391SOL    HW2 1563   0.258   2.232   1.483 -2.7093 -0.4041  2.2157
  391SOL     MW 1564   0.300   2.160   1.515 -0.5046 -0.3336 -0.1125
  392SOL     OW 1565   1.956   2.121   0.322  0.1666 -1.0287 -0.0938
  392SOL    HW1 1566   2.007   2.201   0.342  0.2860 -1.5775  3.2159
  392SOL    HW2 1567   1.864   2.148   0.314 -1.7547 -0.7791  1.6772
  392SOL     MW 1568   1.950   2.135   0.324 -0.0712 -1.0682  0.5765
  393SOL     OW 1569   0.237   2.953   2.796  0.6565  0.2062 -0.3898
  393SOL    HW1 1570   0.322   2.953   2.752  0.0626 -1.4308  0.3049
  393SOL    HW2 1571   0.219   3.045   2.812 -0.2176  1.0839 -0.5915
  393SOL     MW 1572   0.246   2.965   2.792  0.4628  0.1060 -0.3248
  394SOL     OW 1573   0.973   1.765   1.575 -0.6516  0.0116  0.7484
  394SOL    HW1 1574   1.018   1.781   1.656 -1.6092 -0.5748 -0.5295
  394SOL    HW2 1575   0.918   1.841   1.566  0.9316  0.5022  2.6875
  394SOL     MW 1576   0.972   1.777   1.585 -0.5690 -0.0011  0.8356
  395SOL     OW 1577   0.956   2.942   2.720 -0.0511 -0.1400 -0.2557
  395SOL    HW1 1578   1.004   3.023   2.748 -2.1603 -3.3290  1.8414
  395SOL    HW2 1579   1.022   2.873   2.693  2.8344 -1.1165  0.3636
  395SOL     MW 1580   0.971   2.944   2.720  0.0513 -0.6896  0.1027
  396SOL     OW 1581   0.711   1.889   2.362 -0.1510  1.1025  0.1769
  396SOL    HW1 1582   0.748   1.839   2.435 -1.4244  0.7965  1.4345
  396SOL    HW2 1583   0.640   1.835   2.324  0.6706 -1.6408  1.1508
  396SOL     MW 1584   0.707   1.876   2.367 -0.2106  0.7002  0.4713
  397SOL     OW 1585   1.030   2.289   1.399  0.4082  0.1818  0.5457
  397SOL    HW1 1586   1.069   2.319   1.321  1.1640 -1.9799  1.5295
  397SOL    HW2 1587   1.115   2.289   1.453  0.0454  2.6874  0.5363
  397SOL     MW 1588   1.046   2.293   1.396  0.4600  0.2272  0.6742
  398SOL     OW 1589   0.662   2.712   0.662  0.0509 -0.4071  0.1588
  398SOL    HW1 1590   0.615   2.690   0.579  2.4452  1.1297 -1.8956
  398SOL    HW2 1591   0.735   2.653   0.687 -1.7654 -0.2034  0.6306
  398SOL     MW 1592   0.665   2.702   0.654  0.1272 -0.1775 -0.0500
  399SOL     OW 1593   0.330   2.048   0.397  0.0142 -0.3227  0.1594
  399SOL    HW1 1594   0.256   2.100   0.418 -0.7215 -0.8305 -1.4191
  399SOL    HW2 1595   0.378   2.100   0.326  3.5156  2.0886  1.1195
  399SOL     MW 1596   0.327   2.062   0.390  0.3791 -0.0716  0.0778
  400SOL     OW 1597   0.601   1.937   0.128  0.1747  0.3242  0.2606
  400SOL    HW1 1598   0.559   2.029   0.153 -0.3300  1.8249  0.3771
  400SOL    HW2 1599   0.574   1.889   0.207 -0.1941  0.2821  2.2743
  400SOL     MW 1600   0.592   1.943   0.142  0.0595  0.5167  0.5417
  401SOL     OW 1601   0.841   2.017   3.084 -0.3986 -0.1936  0.5278
  401SOL    HW1 1602   0.917   1.959   3.105 -1.7869 -1.4397 -2.3406
  401SOL    HW2 1603   0.764   1.965   3.109  1.2332 -3.5379 -0.9161
  401SOL     MW 1604   0.841   2.002   3.090 -0.3665 -0.7992 -0.0412
  402SOL     OW 1605   0.598   3.018   1.841 -0.4314  0.5013  0.4508
  402SOL    HW1 1606   0.677   2.972   1.873  1.4196  1.4090  1.8446
  402SOL    HW2 1607   0.622   3.042   1.754  1.3733 -4.3181 -0.9587
  402SOL     MW 1608   0.612   3.015   1.834  0.0509 -0.0148  0.4487
  403SOL     OW 1609   0.148   0.494   0.428 -0.0239 -0.0878  0.1742
  403SOL    HW1 1610   0.229   0.514   0.482 -2.1626 -1.4530  1.1044
  403SOL    HW2 1611   0.183   0.459   0.351 -0.0377 -0.2252  0.1073
  403SOL     MW 1612   0.163   0.492   0.425 -0.3079 -0.2860  0.2881
  404SOL     OW 1613   0.950   2.974   0.829  0.3335  0.2622 -0.0933
  404SOL    HW1 1614   1.026   2.917   0.800 -0.6500  0.9646  1.5316
  404SOL    HW2 1615   0.987   3.064   0.821  1.8082  0.9507  0.4117
  404SOL     MW 1616   0.965   2.978   0.824  0.3983  0.4457  0.1877
  405SOL     OW 1617   0.527   2.480   1.514 -0.2440  0.7645 -0.5843
  405SOL    HW1 1618   0.532   2.561   1.473  2.2541 -1.9718  3.4192
  405SOL    HW2 1619   0.558   2.409   1.457 -1.3620  1.9085  1.2851
  405SOL     MW 1620   0.532   2.481   1.501 -0.0619  0.5544  0.1906
  406SOL     OW 1621   0.461   2.344   1.086 -0.3527 -0.3946 -0.1921
  406SOL    HW1 1622   0.371   2.383   1.095 -2.4859 -1.8187  1.8784
  406SOL    HW2 1623   0.451   2.272   1.155 -1.6102 -1.3067  0.3768
  406SOL     MW 1624   0.448   2.340   1.097 -0.8001 -0.7028  0.1562
  407SOL     OW 1625   0.056   2.632   1.099 -0.1648 -0.1981  0.3989
  407SOL    HW1 1626   0.105   2.669   1.177  0.6212  1.2393  2.1663
  407SOL    HW2 1627   0.109   2.643   1.018  0.5869 -0.0733  0.9843
  407SOL     MW 1628   0.069   2.638   1.099  0.0381  0.0080  0.7093
  408SOL     OW 1629   2.127   2.177   0.698 -0.2553  0.6971 -0.0233
  408SOL    HW1 1630   2.076   2.197   0.784 -0.6329 -1.6665  1.1903
  408SOL    HW2 1631   2.079   2.109   0.639 -0.8053 -1.1688  1.7857
  408SOL     MW 1632   2.114   2.171   0.701 -0.3777  0.1391  0.3755
  409SOL     OW 1633   1.599   0.087   0.847  0.3183 -0.1421  0.0976
  409SOL    HW1 1634   1.666   0.153   0.841 -0.8523 -0.2343 -0.1997
  409SOL    HW2 1635   1.590   0.069   0.942 -1.8185 -2.2929  1.5191
  409SOL     MW 1636   1.607   0.093   0.859 -0.1181 -0.4380  0.2459
  410SOL     OW 1637   1.079   2.444   1.170 -0.3524  0.1579  0.4324
  410SOL    HW1 1638   1.016   2.447   1.097  0.9317  0.6957  0.0379
  410SOL    HW2 1639   1.163   2.426   1.134 -0.5908  2.4243  0.6508
  410SOL     MW 1640   1.082   2.442   1.156 -0.2144  0.5279  0.4092
  411SOL     OW 1641   1.996   2.925   2.930  0.1446 -0.3115  0.6825
  411SOL    HW1 1642   1.997   2.913   2.831 -0.2475  1.5430 -1.6446
  411SOL    HW2 1643   1.960   3.013   2.947 -1.3204 -3.0837  0.9827
  411SOL     MW 1644   1.992   2.935   2.919 -0.1004 -0.4326  0.4151
  412SOL     OW 1645   1.018   2.239   0.608  0.4334  0.1007 -0.1905
  412SOL    HW1 1646   1.034   2.333   0.627  0.1461 -0.3999  1.5396
  412SOL    HW2 1647   0.949   2.253   0.544 -2.8434  0.4245  1.3710
  412SOL     MW 1648   1.011   2.253   0.602 -0.0369  0.0773  0.2438
  413SOL     OW 1649   0.621   2.687   0.024 -0.3648 -0.4622 -0.2457
  413SOL    HW1 1650   0.678   2.621   0.071  0.5220 -0.8099  0.4861
  413SOL    HW2 1651   0.604   2.664  -0.067  1.7308  0.7824  0.5058
  413SOL     MW 1652   0.626   2.675   0.018  0.0287 -0.3439 -0.0500
  414SOL     OW 1653   2.041   2.986   1.102  0.0477  0.1659  0.0500
  414SOL    HW1 1654   2.098   3.061   1.104  2.9564 -1.6501 -1.7480
  414SOL    HW2 1655   2.030   2.985   1.005  0.7417  0.7435 -2.0965
  414SOL     MW 1656   2.047   2.996   1.089  0.5230  0.0025 -0.4704
  415SOL     OW 1657   1.645   2.847   1.155  0.1557  0.2180  0.3985
  415SOL    HW1 1658   1.717   2.888   1.206 -1.2721  0.3803  0.8420
  415SOL    HW2 1659   1.680   2.773   1.101 -2.9534  0.9638 -0.6108
  415SOL     MW 1660   1.659   2.842   1.154 -0.4429  0.3378  0.3238
  416SOL     OW 1661   0.638   1.792   1.428  0.3944 -0.0691 -0.4512
  416SOL    HW1 1662   0.550   1.822   1.443 -1.5418 -2.3325  4.3551
  416SOL    HW2 1663   0.636   1.708   1.388  3.3492  0.6694  1.1383
  416SOL     MW 1664   0.626   1.785   1.425  0.5288 -0.2703  0.3926
  417SOL     OW 1665   0.922   0.051   2.075 -0.2757 -0.0959  0.5172
  417SOL    HW1 1666   0.862   0.020   2.139  1.0031 -0.6666  2.0132
  417SOL    HW2 1667   0.900   0.002   2.000 -2.0887  0.8988  2.2859
  417SOL     MW 1668   0.911   0.041   2.074 -0.3462 -0.0400  0.9480
  418SOL     OW 1669   0.778   2.874   0.196 -0.4648 -0.4405  0.3561
  418SOL    HW1 1670   0.854   2.856   0.141  0.4533 -2.0548  0.2257
  418SOL    HW2 1671   0.710   2.827   0.145 -0.6513  3.4371  1.3015
  418SOL     MW 1672   0.779   2.865   0.182 -0.3683 -0.1419  0.4637
  419SOL     OW 1673   0.638   2.692   1.325  0.0868 -0.1522  0.3070
  419SOL    HW1 1674   0.653   2.767   1.380 -2.6089  4.2688 -0.4885
  419SOL    HW2 1675   0.706   2.632   1.353  0.4259  1.8013  2.0121
  419SOL     MW 1676   0.649   2.694   1.336 -0.2241  0.6889  0.4270
  420SOL     OW 1677   0.832   2.225   1.121  0.0593  0.1649  0.2369
  420SOL    HW1 1678   0.748   2.243   1.164  3.3233 -1.5760  1.6052
  420SOL    HW2 1679   0.846   2.299   1.064 -1.5023  0.8768  3.0154
  420SOL     MW 1680   0.823   2.237   1.119  0.2839  0.0292  0.7840
  421SOL     OW 1681   2.928   0.128   0.079  0.2456 -0.4853 -0.5739
  421SOL    HW1 1682   2.846   0.099   0.045  2.1076 -0.1033  0.3048
  421SOL    HW2 1683   3.005   0.075   0.049 -1.2636  0.1333  3.4670
  421SOL     MW 1684   2.927   0.117   0.071  0.2921 -0.3533  0.0752
  422SOL     OW 1685   0.901   2.447   0.973  0.2225 -0.2179  0.0482
  422SOL    HW1 1686   0.835   2.503   1.009  1.9353 -1.6336 -3.2550
  422SOL    HW2 1687   0.893   2.465   0.880  3.7419  1.8075 -0.6545
  422SOL     MW 1688   0.891   2.456   0.966  0.9129 -0.1374 -0.4803
  423SOL     OW 1689   1.533   0.040   0.492  0.2897  0.0998 -0.0245
  423SOL    HW1 1690   1.555   0.021   0.402  4.8951  1.8568  0.0847
  423SOL    HW2 1691   1.513   0.131   0.484 -0.4149 -0.7032 -0.1798
  423SOL     MW 1692   1.533   0.050   0.479  0.8044  0.2257 -0.0306
  424SOL     OW 1693   0.636   2.300   1.339  0.0482  0.4013 -0.1466
  424SOL    HW1 1694   0.581   2.221   1.342 -2.9417  1.6601  0.1272
  424SOL    HW2 1695   0.706   2.298   1.404  0.4086 -1.5114 -0.3416
  424SOL     MW 1696   0.638   2.289   1.348 -0.2987  0.3150 -0.1362
  425SOL     OW 1697   1.726   2.796   2.053  0.1309  0.4714 -0.1151
  425SOL    HW1 1698   1.757   2.817   1.960  2.3780 -1.0293 -1.8099
  425SOL    HW2 1699   1.764   2.711   2.077  2.4716  2.0970  2.4454
  425SOL     MW 1700   1.735   2.788   2.044  0.7362  0.4879 -0.0009
  426SOL     OW 1701   0.844   1.700   1.937 -0.1377  1.0959  0.2156
  426SOL    HW1 1702   0.793   1.702   1.853 -1.4989  1.0223  1.1220
  426SOL    HW2 1703   0.806   1.775   1.971 -3.9051 -2.2040  0.2761
  426SOL     MW 1704   0.833   1.710   1.931 -0.8143  0.6508  0.3431
  427SOL     OW 1705   0.370   1.750   1.875  0.3013 -0.4846  0.3948
  427SOL    HW1 1706   0.408   1.673   1.832 -0.2448  4.2832 -0.0045
  427SOL    HW2 1707   0.319   1.704   1.949 -0.8794 -0.3795  1.6815
  427SOL     MW 1708   0.368   1.734   1.879  0.0735  0.1583  0.5119
  428SOL     OW 1709   0.639   2.540   1.098 -0.1737 -0.0098 -0.3071
  428SOL    HW1 1710   0.583   2.461   1.116 -0.4494 -1.0384  0.3552
  428SOL    HW2 1711   0.618   2.599   1.164 -0.2820 -0.8677 -1.7166
  428SOL     MW 1712   0.629   2.537   1.109 -0.2243 -0.2587 -0.4057
  429SOL     OW 1713   1.201   2.792   1.077  0.6854  0.6939 -0.3888
  429SOL    HW1 1714   1.113   2.789   1.121  1.5927 -0.0714 -0.6419
  429SOL    HW2 1715   1.221   2.884   1.074 -0.8236  0.7197 -3.2058
  429SOL     MW 1716   1.192   2.804   1.083  0.6060  0.5963 -0.7939
  430SOL     OW 1717   1.186   2.820   0.797  0.4204 -0.3015 -0.2252
  430SOL    HW1 1718   1.188   2.785   0.886  1.1742  2.4803  0.2726
  430SOL    HW2 1719   1.157   2.753   0.737 -2.2530  0.1477 -0.7732
  430SOL     MW 1720   1.182   2.807   0.801  0.1671  0.1248 -0.2318
  431SOL     OW 1721   0.333   1.907   1.123  0.3084 -0.0024  0.5495
  431SOL    HW1 1722   0.382   1.823   1.114 -0.3057 -2.2596 -1.8195
  431SOL    HW2 1723   0.339   1.940   1.033  3.2821  0.8812 -1.7826
  431SOL     MW 1724   0.340   1.900   1.109  0.6197 -0.1837 -0.0707
  432SOL     OW 1725   0.014   0.003   1.122 -0.2858 -0.2528 -0.2422
  432SOL    HW1 1726   0.053   0.037   1.203  0.2810  1.4184  0.2903
  432SOL    HW2 1727  -0.047  -0.065   1.146  4.1992  3.7426  3.3406
  432SOL     MW 1728   0.011  -0.002   1.136  0.3808  0.4949  0.3008
  433SOL     OW 1729   0.640   2.927   1.495 -0.0825 -0.1469 -0.0304
  433SOL    HW1 1730   0.616   3.013   1.535  1.3990 -0.0842  1.1085
  433SOL    HW2 1731   0.724   2.888   1.527  1.9028 -2.9505 -1.8294
  433SOL     MW 1732   0.648   2.933   1.505  0.3749 -0.5086 -0.1175
  434SOL     OW 1733   1.478   2.812   1.781 -0.2272 -0.5071  0.9268
  434SOL    HW1 1734   1.398   2.846   1.817 -0.3814 -3.6674  0.9176
  434SOL    HW2 1735   1.463   2.816   1.684  2.4400 -0.4874  0.0785
  434SOL     MW 1736   1.465   2.817   1.773  0.1044 -0.9214  0.8136
  435SOL     OW 1737   2.695   1.791   0.285 -0.2442 -0.1680 -0.1901
  435SOL    HW1 1738   2.749   1.818   0.207 -2.3729 -4.1137  0.4185
  435SOL    HW2 1739   2.607   1.807   0.257 -1.9722  2.1779 -0.2243
  435SOL     MW 1740   2.690   1.797   0.271 -0.7531 -0.3791 -0.1143
  436SOL     OW 1741   1.364   2.754   0.351  0.4477 -0.1604  0.3103
  436SOL    HW1 1742   1.432   2.729   0.407 -1.7173 -0.6025 -2.0223
  436SOL    HW2 1743   1.333   2.843   0.365  3.6988 -0.0522 -3.0431
  436SOL     MW 1744   1.369   2.762   0.360  0.5910 -0.2045 -0.4399
  437SOL     OW 1745   0.911   3.071   1.302 -0.3446  0.8033  0.0398
  437SOL    HW1 1746   0.968   3.092   1.224 -0.4622  2.3530 -0.7698
  437SOL    HW2 1747   0.862   2.998   1.280 -0.3170  1.1034  2.0321
  437SOL     MW 1748   0.912   3.064   1.289 -0.3564  1.0474  0.1958
  438SOL     OW 1749   0.861   2.695   1.983 -0.3236 -0.4947  0.4091
  438SOL    HW1 1750   0.874   2.611   2.036  0.0393 -3.6591  1.3317
  438SOL    HW2 1751   0.824   2.650   1.909 -0.4918  1.2583  2.6590
  438SOL     MW 1752   0.858   2.678   1.980 -0.2979 -0.6809  0.8277
  439SOL     OW 1753   1.162   2.063   0.448 -0.3414  0.1275 -0.2386
  439SOL    HW1 1754   1.103   2.098   0.516 -1.6343  0.1668  0.5681
  439SOL    HW2 1755   1.168   2.132   0.380  0.2951 -1.2834  0.0636
  439SOL     MW 1756   1.155   2.076   0.448 -0.4280 -0.0535 -0.0923
  440SOL     OW 1757   1.791   2.747   3.016  0.7120 -0.7288  0.0700
  440SOL    HW1 1758   1.742   2.787   3.092  1.9951  0.9853  1.8475
  440SOL    HW2 1759   1.855   2.809   2.984  2.0062 -0.1202  0.7789
  440SOL     MW 1760   1.793   2.761   3.022  1.0521 -0.4223  0.3980
  441SOL     OW 1761   0.497   2.731   0.418  0.0713 -0.3006  0.7010
  441SOL    HW1 1762   0.425   2.706   0.356  0.0780 -0.5587  0.9169
  441SOL    HW2 1763   0.482   2.820   0.444  0.6523 -1.8751 -5.1463
  441SOL     MW 1764   0.486   2.739   0.413  0.1489 -0.5424 -0.0420
  442SOL     OW 1765   0.029   2.375   0.625  0.4529  0.6344 -0.1675
  442SOL    HW1 1766   0.048   2.457   0.582  0.0253 -3.2044  0.5699
  442SOL    HW2 1767  -0.065   2.366   0.639  1.0071 -0.1959 -0.2482
  442SOL     MW 1768   0.019   2.385   0.621  0.4696  0.0183 -0.0808
  443SOL     OW 1769   1.473   1.795   1.948 -0.1560  0.3031  0.4120
  443SOL    HW1 1770   1.430   1.825   1.870  0.4390  0.8612  1.4633
  443SOL    HW2 1771   1.446   1.708   1.959  2.6172 -0.2631 -1.5565
  443SOL     MW 1772   1.464   1.788   1.939  0.2884  0.3020  0.2910
  444SOL     OW 1773   0.925   2.589   1.595 -0.2934 -0.0831 -0.3714
  444SOL    HW1 1774   0.999   2.553   1.641  0.5934  1.1152  1.5820
  444SOL    HW2 1775   0.861   2.562   1.658  1.5904  1.3595 -0.2226
  444SOL     MW 1776   0.926   2.581   1.610  0.0721  0.2654 -0.0940
  445SOL     OW 1777   1.200   0.082   1.376 -0.5982 -0.0745 -0.2809
  445SOL    HW1 1778   1.139   0.121   1.436 -0.2452 -0.5290 -0.9647
  445SOL    HW2 1779   1.212   0.153   1.312  0.8606  2.6085  3.2749
  445SOL     MW 1780   1.193   0.097   1.376 -0.3591  0.2196  0.0980
  446SOL     OW 1781   2.692   2.846   1.066 -0.4156 -0.4096 -0.0367
  446SOL    HW1 1782   2.667   2.901   0.989  1.2267 -0.1261 -2.2850
  446SOL    HW2 1783   2.752   2.785   1.024  0.1264  1.2512 -1.3499
  446SOL     MW 1784   2.696   2.845   1.050 -0.1274 -0.1531 -0.5066
  447SOL     OW 1785   0.056   1.960   1.559  0.4671  0.2280 -0.3892
  447SOL    HW1 1786   0.086   1.901   1.634  2.6154  1.7182  2.5012
  447SOL    HW2 1787   0.003   1.904   1.504  0.0102  1.2397  2.8317
  447SOL     MW 1788   0.053   1.945   1.562  0.6903  0.5581  0.4171
  448SOL     OW 1789   1.690   2.331   1.668 -0.2826 -0.4489 -0.0827
  448SOL    HW1 1790   1.637   2.258   1.695 -1.6148  1.4342 -1.3652
  448SOL    HW2 1791   1.638   2.409   1.681  0.4740  0.2720  1.0188
  448SOL     MW 1792   1.676   2.332   1.673 -0.3585 -0.1053 -0.1066
  449SOL     OW 1793   0.956   2.896   0.404 -0.1886  0.3268 -0.1839
  449SOL    HW1 1794   0.902   2.850   0.340 -0.0265 -2.1822  0.3213
  449SOL    HW2 1795   0.898   2.900   0.483 -0.8659 -1.0950  0.1635
  449SOL     MW 1796   0.941   2.890   0.406 -0.2566 -0.1918 -0.0714
  450SOL     OW 1797   1.171   2.516   0.755  0.5453 -0.7701  1.1781
  450SOL    HW1 1798   1.187   2.467   0.831  0.0957 -0.4418 -3.1926
  450SOL    HW2 1799   1.254   2.504   0.702  2.6121 -0.9446  1.7232
  450SOL     MW 1800   1.184   2.508   0.758  0.7587 -0.7498  0.6733
  451SOL     OW 1801   0.543   2.004   1.692 -0.4405  0.0072 -0.1719
  451SOL    HW1 1802   0.636   2.027   1.673  1.4699  1.3514 -2.9250
  451SOL    HW2 1803   0.499   1.967   1.617 -0.0085 -1.4543  2.6917
  451SOL     MW 1804   0.550   2.002   1.680 -0.1315 -0.0083 -0.1573
  452SOL     OW 1805   0.300   2.624   3.097 -0.8448  0.2912  0.7136
  452SOL    HW1 1806   0.386   2.670   3.115  0.5723  0.4832 -2.1067
  452SOL    HW2 1807   0.231   2.684   3.075  0.9633  0.3791 -1.1765
  452SOL     MW 1808   0.302   2.638   3.096 -0.4192  0.3281  0.0921
  453SOL     OW 1809   0.203   2.988   1.577 -0.1161 -0.4880  0.2046
  453SOL    HW1 1810   0.253   2.951   1.649 -1.3239  0.0011  1.6283
  453SOL    HW2 1811   0.250   2.977   1.498 -0.2789 -0.5133  1.1006
  453SOL     MW 1812   0.216   2.982   1.576 -0.2969 -0.4268  0.5106
  454SOL     OW 1813   0.961   2.780   1.181  0.1911  0.2987 -0.1058
  454SOL    HW1 1814   0.940   2.706   1.235 -0.8757 -1.4536  0.2006
  454SOL    HW2 1815   0.892   2.787   1.118 -0.3125  0.3634  0.2818
  454SOL     MW 1816   0.949   2.771   1.180 -0.0161  0.0761 -0.0142
  455SOL     OW 1817   1.753   2.833   0.183  0.0167 -0.7540  0.3337
  455SOL    HW1 1818   1.811   2.807   0.260  1.8570 -0.9896 -0.9057
  455SOL    HW2 1819   1.675   2.781   0.189 -0.4272 -0.7160 -0.2127
  455SOL     MW 1820   1.751   2.823   0.194  0.2009 -0.7801  0.0981
  456SOL     OW 1821   2.758   0.253   1.467  0.1585 -0.2247  0.2432
  456SOL    HW1 1822   2.753   0.193   1.390 -1.0839 -0.1260 -1.0569
  456SOL    HW2 1823   2.804   0.329   1.434  1.6112 -1.9251  0.9880
  456SOL     MW 1824   2.764   0.255   1.453  0.1862 -0.4360  0.1699
  457SOL     OW 1825   0.821   1.664   3.057  0.0993 -0.0393 -0.2252
  457SOL    HW1 1826   0.728   1.635   3.044  0.9031 -1.5186  0.5100
  457SOL    HW2 1827   0.824   1.706   3.144  1.0660 -0.7256  1.4319
  457SOL     MW 1828   0.809   1.666   3.067  0.3329 -0.3250  0.0904
  458SOL     OW 1829   1.364   1.466   0.727  0.1491 -0.1258 -0.0018
  458SOL    HW1 1830   1.286   1.522   0.695 -2.2426 -0.6415  0.3717
  458SOL    HW2 1831   1.341   1.381   0.687 -1.5565  0.1156 -0.5115
  458SOL     MW 1832   1.351   1.462   0.718 -0.3915 -0.1620 -0.0198
  459SOL     OW 1833   1.595   3.046   0.243 -0.9083  0.2894 -0.3697
  459SOL    HW1 1834   1.638   2.960   0.222 -1.9478 -0.8233  0.3292
  459SOL    HW2 1835   1.540   3.076   0.166  0.3979 -1.4562 -0.0623
  459SOL     MW 1836   1.593   3.039   0.230 -0.8731 -0.0877 -0.2370
  460SOL     OW 1837   1.775   2.239   0.636  0.0065 -0.1807 -0.0906
  460SOL    HW1 1838   1.690   2.237   0.686  1.3850  0.8808 -1.0591
  460SOL    HW2 1839   1.796   2.147   0.626  1.0073  3.0587  1.2068
  460SOL     MW 1840   1.766   2.226   0.641  0.3204  0.3868 -0.0472
  461SOL     OW 1841   0.409   2.450   0.529  0.3890  0.0873  0.5045
  461SOL    HW1 1842   0.404   2.538   0.491 -0.4737  2.5267  0.6362
  461SOL    HW2 1843   0.375   2.456   0.615 -0.7217  0.6453  0.7905
  461SOL     MW 1844   0.404   2.462   0.536  0.1286  0.4828  0.5596
  462SOL     OW 1845   0.286   0.242   1.280  0.2730  0.0944 -0.3409
  462SOL    HW1 1846   0.326   0.204   1.199 -0.0267 -2.4013  0.9432
  462SOL    HW2 1847   0.356   0.239   1.348 -1.6046 -0.7801 -1.7853
  462SOL     MW 1848   0.301   0.237   1.278 -0.0143 -0.3503 -0.3621
  463SOL     OW 1849   1.099   0.077   0.720 -0.2015  0.4457  0.0041
  463SOL    HW1 1850   1.181   0.049   0.682 -0.6749  3.1257  0.2280
  463SOL    HW2 1851   1.030   0.093   0.651  2.5764  0.7779 -0.6016
  463SOL     MW 1852   1.101   0.075   0.706  0.1025  0.8432 -0.0463
  464SOL     OW 1853   0.746   3.076   2.272  0.1564 -0.3407  0.0044
  464SOL    HW1 1854   0.742   2.978   2.288  0.6822  0.4464 -2.0064
  464SOL    HW2 1855   0.757   3.128   2.359  1.6866 -0.0290 -1.7128
  464SOL     MW 1856   0.747   3.070   2.286  0.4276 -0.1957 -0.4874
  465SOL     OW 1857   0.836   0.350   0.399 -0.0233 -0.4157  0.7483
  465SOL    HW1 1858   0.803   0.291   0.469  1.1393 -0.7098  2.9043
  465SOL    HW2 1859   0.814   0.310   0.314  1.2209  0.7464  2.3626
  465SOL     MW 1860   0.829   0.337   0.397  0.2943 -0.3012  1.2457
  466SOL     OW 1861   1.110   2.045   0.792 -0.1829 -0.1102  0.5954
  466SOL    HW1 1862   1.085   1.979   0.730 -2.0623  0.0468 -0.9869
  466SOL    HW2 1863   1.077   2.125   0.741 -0.4852 -2.5204 -3.4420
  466SOL     MW 1864   1.102   2.047   0.777 -0.4708 -0.4075 -0.1460
  467SOL     OW 1865   1.264   2.356   0.979 -0.4918  0.3844 -0.0523
  467SOL    HW1 1866   1.351   2.394   0.990 -0.5079 -0.1848  1.6434
  467SOL    HW2 1867   1.272   2.259   0.972 -0.9125 -0.4562 -2.5093
  467SOL     MW 1868   1.276   2.348   0.979 -0.5495  0.1984 -0.1527
  468SOL     OW 1869   0.481   2.666   1.920 -0.5721  0.2708  0.2491
  468SOL    HW1 1870   0.451   2.573   1.912 -5.1908 -1.8636 -0.4695
  468SOL    HW2 1871   0.434   2.719   1.864 -0.6610 -1.0186  1.1297
  468SOL     MW 1872   0.471   2.661   1.912 -1.1932 -0.1809  0.2705
  469SOL     OW 1873   0.323   2.152   1.794  0.1511 -0.1265 -0.1115
  469SOL    HW1 1874   0.253   2.107   1.838 -1.5167 -2.2478 -3.6217
  469SOL    HW2 1875   0.404   2.103   1.802 -1.0380 -1.8213  0.7075
  469SOL     MW 1876   0.324   2.140   1.801 -0.2258 -0.6300 -0.4666
  470SOL     OW 1877   3.037   2.586   0.100  0.0566  0.2799  0.0234
  470SOL    HW1 1878   2.960   2.599   0.163 -1.0634 -0.2751  1.8960
  470SOL    HW2 1879   3.014   2.625   0.013  1.0686  0.1683  0.5537
  470SOL     MW 1880   3.024   2.593   0.097  0.0424  0.1920  0.3405
  471SOL     OW 1881   1.142   2.640   1.376  0.0235 -0.1453  0.2233
  471SOL    HW1 1882   1.083   2.577   1.336  1.5437  0.2939 -3.4031
  471SOL    HW2 1883   1.180   2.681   1.297 -1.4586  1.1279 -0.7632
  471SOL     MW 1884   1.139   2.637   1.360  0.0285  0.0806 -0.3853
  472SOL     OW 1885   2.961   2.137   0.364 -0.2508  0.0350  0.0787
  472SOL    HW1 1886   2.963   2.095   0.277 -0.1922  2.6765 -2.8331
  472SOL    HW2 1887   2.889   2.088   0.422 -1.2710 -1.7358  2.6608
  472SOL     MW 1888   2.952   2.125   0.360 -0.3777  0.1499  0.0352
  473SOL     OW 1889   0.879   2.551   1.340  0.5344  0.1813  0.8062
  473SOL    HW1 1890   0.909   2.468   1.306 -0.5489 -0.5556 -0.2446
  473SOL    HW2 1891   0.889   2.548   1.437 -0.3786  1.5701 -1.5903
  473SOL     MW 1892   0.884   2.540   1.348  0.2710  0.2673  0.3514
  474SOL     OW 1893   0.733   2.279   1.837  1.2060 -0.2113  0.0698
  474SOL    HW1 1894   0.814   2.263   1.887  2.4090  1.4405 -1.4862
  474SOL    HW2 1895   0.772   2.272   1.753  2.6563 -2.8038 -0.5471
  474SOL     MW 1896   0.749   2.276   1.832  1.5561 -0.3354 -0.2169
  475SOL     OW 1897   1.596   3.082   1.524 -0.4837 -0.2181  0.5957
  475SOL    HW1 1898   1.528   3.027   1.477 -3.0288  1.6789 -1.4387
  475SOL    HW2 1899   1.664   3.025   1.559  1.6577  1.6484 -1.6713
  475SOL     MW 1900   1.596   3.068   1.522 -0.5369  0.2784  0.0282
  476SOL     OW 1901   1.434   2.681   1.192  0.4276  0.2161  0.3511
  476SOL    HW1 1902   1.360   2.705   1.147  2.7834 -1.4910  0.9704
  476SOL    HW2 1903   1.499   2.753   1.187 -2.4917  0.3972  0.6698
  476SOL     MW 1904   1.433   2.693   1.185  0.3533  0.0147  0.4749
  477SOL     OW 1905   0.866   2.531   0.701  0.4673 -0.6201 -0.3124
  477SOL    HW1 1906   0.948   2.584   0.688 -0.5222  3.0554 -0.1957
  477SOL    HW2 1907   0.848   2.467   0.632  0.8100  1.8127  0.7210
  477SOL     MW 1908   0.874   2.530   0.690  0.3820  0.1858 -0.1606
  478SOL     OW 1909   0.217   2.646   0.870 -0.0801  0.0709 -0.7640
  478SOL    HW1 1910   0.265   2.726   0.846 -1.0170 -1.7246 -2.3795
  478SOL    HW2 1911   0.277   2.569   0.857 -2.4028 -1.7207  0.8958
  478SOL     MW 1912   0.231   2.647   0.865 -0.5101 -0.4024 -0.7582
  479SOL     OW 1913   1.395   1.984   1.277  0.3940  0.5450  0.7155
  479SOL    HW1 1914   1.403   2.016   1.369 -0.2935  0.1084 -1.0220
  479SOL    HW2 1915   1.444   1.901   1.268  0.0649  0.2048  0.8625
  479SOL     MW 1916   1.403   1.977   1.288  0.2599  0.4425  0.5056
  480SOL     OW 1917   1.967   2.451   1.354 -0.8260 -0.2992 -0.7002
  480SOL    HW1 1918   2.005   2.369   1.399 -0.9311  0.0786  0.0816
  480SOL    HW2 1919   1.962   2.431   1.263 -1.6692  0.2325  0.9660
  480SOL     MW 1920   1.971   2.437   1.348 -0.9511 -0.1792 -0.3772
  481SOL     OW 1921   1.084   0.082   1.084  0.2267 -0.6021  0.6129
  481SOL    HW1 1922   1.158   0.032   1.045 -0.6071  0.2600  0.8372
  481SOL    HW2 1923   1.107   0.173   1.089 -1.4357  0.1652  0.5990
  481SOL     MW 1924   1.097   0.087   1.079 -0.1026 -0.3871  0.6406
  482SOL     OW 1925   1.042   3.098   0.259  0.1242 -0.3418 -0.1196
  482SOL    HW1 1926   1.028   3.023   0.313  0.8962 -1.3671 -1.0628
  482SOL    HW2 1927   1.055   3.164   0.328 -1.6428  2.1810  0.3136
  482SOL     MW 1928   1.041   3.097   0.275 -0.0071 -0.1443 -0.1869
  483SOL     OW 1929   0.476   2.984   0.459  0.6137  0.1220  0.1071
  483SOL    HW1 1930   0.397   2.973   0.403 -1.4899  1.1790  1.2529
  483SOL    HW2 1931   0.452   3.039   0.538 -0.4143  3.9416  0.6899
  483SOL     MW 1932   0.462   2.990   0.462  0.2005  0.7654  0.3352
  484SOL     OW 1933   1.830   2.037   1.431  0.1696  0.1623  0.2454
  484SOL    HW1 1934   1.918   2.086   1.418  2.0796  0.8567  2.0062
  484SOL    HW2 1935   1.822   2.016   1.528  0.4009  3.1885  1.1310
  484SOL     MW 1936   1.841   2.041   1.442  0.4521  0.6532  0.5946
  485SOL     OW 1937   0.630   2.417   0.297  0.3864 -0.0049 -0.0347
  485SOL    HW1 1938   0.655   2.384   0.390 -0.5289 -0.4274  2.0647
  485SOL    HW2 1939   0.586   2.501   0.314 -1.3479  1.0742  0.2519
  485SOL     MW 1940   0.627   2.424   0.312  0.0368  0.0817  0.2801
  486SOL     OW 1941   0.172   2.380   1.471 -0.1827 -0.4938  1.0702
  486SOL    HW1 1942   0.199   2.434   1.395 -2.0128  0.9268  0.2770
  486SOL    HW2 1943   0.175   2.432   1.549  0.3195 -0.5186  0.2424
  486SOL     MW 1944   0.176   2.394   1.471 -0.3579 -0.3096  0.8563
  487SOL     OW 1945   1.176   1.766   1.044 -0.2759  0.2659  0.2795
  487SOL    HW1 1946   1.155   1.836   1.098 -0.6418 -2.5048  1.3100
  487SOL    HW2 1947   1.273   1.771   1.033  2.0481  0.3133  1.7055
  487SOL     MW 1948   1.186   1.776   1.050 -0.0175 -0.0934  0.6036
  488SOL     OW 1949   1.600   1.854   0.541  0.6258 -0.0589 -0.0489
  488SOL    HW1 1950   1.684   1.859   0.495  0.7341  2.7355 -3.6983
  488SOL    HW2 1951   1.546   1.925   0.504 -0.1534  0.0933  0.6871
  488SOL     MW 1952   1.604   1.864   0.530  0.5373  0.3299 -0.4333
  489SOL     OW 1953   0.780   0.821   0.586 -0.0826 -0.1540 -0.2602
  489SOL    HW1 1954   0.822   0.734   0.574 -4.3955 -1.0260 -0.4072
  489SOL    HW2 1955   0.774   0.825   0.681  0.7903 -2.0897 -1.9091
  489SOL     MW 1956   0.785   0.810   0.597 -0.5365 -0.5244 -0.4971
  490SOL     OW 1957   1.437   2.063   0.491 -0.1370  0.6010 -1.1306
  490SOL    HW1 1958   1.464   2.152   0.456  0.5315  1.0662 -0.5314
  490SOL    HW2 1959   1.344   2.060   0.490 -0.2747  0.9545  0.6523
  490SOL     MW 1960   1.428   2.074   0.486 -0.0670  0.7090 -0.8163
  491SOL     OW 1961   1.297   3.011   0.413  0.5245  0.4228  0.3070
  491SOL    HW1 1962   1.383   3.062   0.425  3.1366  4.5441 -0.2889
  491SOL    HW2 1963   1.249   3.057   0.344  1.1725  0.7700  0.1212
  491SOL     MW 1964   1.302   3.024   0.405  0.9546  1.0124  0.2038
  492SOL     OW 1965   1.510   2.199   0.751 -0.7100 -0.1098 -0.0458
  492SOL    HW1 1966   1.480   2.145   0.683  1.3041 -0.0102  1.4839
  492SOL    HW2 1967   1.459   2.182   0.835 -1.9644  1.8566  0.8964
  492SOL     MW 1968   1.499   2.190   0.753 -0.6098  0.1628  0.2803
  493SOL     OW 1969   0.275   2.966   0.283  0.5217  0.3942  0.0554
  493SOL    HW1 1970   0.201   2.991   0.340 -0.0890 -1.3779 -2.8274
  493SOL    HW2 1971   0.268   3.026   0.204 -3.1453  1.0476  0.6983
  493SOL     MW 1972   0.265   2.977   0.280 -0.0427  0.2466 -0.2401
  494SOL     OW 1973   0.446   2.436   1.767  0.2346 -0.2182 -0.5556
  494SOL    HW1 1974   0.521   2.381   1.791  1.1431  0.4069  1.4476
  494SOL    HW2 1975   0.456   2.446   1.674  1.9341 -0.7784  3.3190
  494SOL     MW 1976   0.458   2.430   1.758  0.5787 -0.2097  0.2199
  495SOL     OW 1977   2.826   1.745   2.557 -0.1609  0.5070  0.2455
  495SOL    HW1 1978   2.784   1.830   2.544  4.5771 -0.4415  0.5533
  495SOL    HW2 1979   2.813   1.704   2.642 -0.1016  2.9493 -0.5280
  495SOL     MW 1980   2.819   1.751   2.567  0.4720  0.7041  0.1841
  496SOL     OW 1981   2.917   2.334   2.646 -0.2259 -0.4502 -0.0137
  496SOL    HW1 1982   2.955   2.289   2.720 -3.4457  0.5827  0.4417
  496SOL    HW2 1983   2.951   2.423   2.646 -0.3625  0.4464  0.1851
  496SOL     MW 1984   2.926   2.340   2.656 -0.6687 -0.1956  0.0726
  497SOL     OW 1985   1.537   2.220   2.672  0.1790 -0.4453  0.1901
  497SOL    HW1 1986   1.480   2.156   2.632 -0.0268 -1.2035 -0.5771
  497SOL    HW2 1987   1.567   2.168   2.749 -1.5068  1.3694  0.8106
  497SOL     MW 1988   1.534   2.204   2.677 -0.0706 -0.3059  0.1708
  498SOL     OW 1989   1.493   2.695   2.356  0.0504  0.2276  0.0639
  498SOL    HW1 1990   1.493   2.601   2.365  1.6801  0.6466  0.1301
  498SOL    HW2 1991   1.585   2.717   2.356 -0.5865 -0.4054 -1.7415
  498SOL     MW 1992   1.505   2.685   2.357  0.1814  0.1994 -0.1656
  499SOL     OW 1993   0.959   0.149   3.065  0.3293  0.3747  0.2918
  499SOL    HW1 1994   0.888   0.161   3.134 -3.6956  0.3665 -0.7130
  499SOL    HW2 1995   1.015   0.066   3.072 -0.1185 -1.7313  0.6425
  499SOL     MW 1996   0.957   0.139   3.075 -0.2608  0.0958  0.2055
  500SOL     OW 1997   1.034   2.483   2.762 -0.5420  0.0658 -0.2279
  500SOL    HW1 1998   1.107   2.470   2.828 -0.8370  0.8364  1.1001
  500SOL    HW2 1999   0.960   2.477   2.827 -1.0176  0.6853  1.6219
  500SOL     MW 2000   1.034   2.481   2.780 -0.6437  0.2492  0.1914
  501SOL     OW 2001   1.760   2.211   3.059 -0.0903 -0.2583 -0.0947
  501SOL    HW1 2002   1.726   2.291   3.100  1.5362  1.7773 -3.3496
  501SOL    HW2 2003   1.849   2.229   3.040 -1.8488 -1.5622 -0.8755
  501SOL     MW 2004   1.767   2.224   3.062 -0.1078 -0.1618 -0.6272
  502SOL     OW 2005   0.114   2.832   3.006 -0.5936  0.0282 -0.7211
  502SOL    HW1 2006   0.043   2.776   2.973 -3.4798 -0.5324  0.4540
  502SOL    HW2 2007   0.160   2.869   2.935  1.0542  0.5277  0.6887
  502SOL     MW 2008   0.110   2.829   2.992 -0.7570  0.0201 -0.3800
  503SOL     OW 2009   1.037   2.913   2.156  0.6083  0.2233  0.1546
  503SOL    HW1 2010   0.962   2.886   2.105  0.7887  2.9848 -0.6443
  503SOL    HW2 2011   1.030   3.009   2.141 -1.1796  1.8181 -1.5143
  503SOL     MW 2012   1.026   2.922   2.147  0.3962  0.7980 -0.1710
  504SOL     OW 2013   0.106   2.714   2.122  0.8860 -0.4472 -0.5256
  504SOL    HW1 2014   0.130   2.624   2.094  0.3229  2.3874  0.8493
  504SOL    HW2 2015   0.108   2.696   2.215  0.4094 -3.0976  1.1033
  504SOL     MW 2016   0.109   2.700   2.131  0.7488 -0.4229 -0.1293
  505SOL     OW 2017   1.717   2.722   2.686 -0.0369 -0.3942  0.0379
  505SOL    HW1 2018   1.717   2.666   2.613 -1.6017  0.0538  0.9560
  505SOL    HW2 2019   1.646   2.698   2.740  1.8914 -1.2088  2.2275
  505SOL     MW 2020   1.707   2.712   2.683  0.0111 -0.4426  0.4480
  506SOL     OW 2021   1.642   3.003   2.854  0.0896  0.0499  0.6059
  506SOL    HW1 2022   1.679   2.942   2.917  2.0636  1.0180  0.8553
  506SOL    HW2 2023   1.710   3.007   2.787 -0.7077 -0.2382  0.7857
  506SOL     MW 2024   1.656   2.995   2.853  0.2448  0.1396  0.6625
  507SOL     OW 2025   0.806   2.817   2.896 -0.5287  1.0896  0.1650
  507SOL    HW1 2026   0.858   2.865   2.835 -0.0052  0.9120  0.4179
  507SOL    HW2 2027   0.727   2.867   2.924  2.6467  0.3130 -0.1265
  507SOL     MW 2028   0.802   2.830   2.892 -0.0407  0.9637  0.1599
  508SOL     OW 2029   1.127   2.061   2.475 -0.5514  0.7247 -0.3352
  508SOL    HW1 2030   1.193   2.071   2.543 -0.7333 -0.0689 -2.9141
  508SOL    HW2 2031   1.080   2.145   2.492  1.0779  1.9033  1.7080
  508SOL     MW 2032   1.130   2.074   2.486 -0.3604  0.7755 -0.4059
  509SOL     OW 2033   0.555   2.531   2.897  0.4921  0.5576  0.8226
  509SOL    HW1 2034   0.560   2.514   2.795 -1.0933  0.0862 -2.1493
  509SOL    HW2 2035   0.481   2.475   2.928 -0.6120 -2.6033 -2.3248
  509SOL     MW 2036   0.546   2.522   2.888  0.1372  0.0784  0.0152
  510SOL     OW 2037   1.489   2.531   1.721 -0.5274  0.5487  0.6110
  510SOL    HW1 2038   1.488   2.623   1.750 -0.0788  0.4620  1.0446
  510SOL    HW2 2039   1.427   2.486   1.786 -2.3383 -0.3552 -0.1729
  510SOL     MW 2040   1.481   2.537   1.734 -0.7071  0.4180  0.5648
  511SOL     OW 2041   0.427   2.590   2.478 -0.2149  0.0125  0.3091
  511SOL    HW1 2042   0.511   2.575   2.524  0.4278 -0.9751 -2.6077
  511SOL    HW2 2043   0.459   2.595   2.389  0.2067 -0.6280  4.0375
  511SOL     MW 2044   0.442   2.589   2.472 -0.0744 -0.2023  0.4162
  512SOL     OW 2045   1.007   1.972   2.846  0.3017 -0.2171 -0.2814
  512SOL    HW1 2046   0.913   1.978   2.860  0.0589  0.2479 -0.6267
  512SOL    HW2 2047   1.028   1.879   2.834 -0.7113 -1.0728  0.3496
  512SOL     MW 2048   0.997   1.960   2.846  0.1360 -0.2686 -0.2437
  513SOL     OW 2049   1.465   2.388   2.391  0.0890 -0.2085 -0.5132
  513SOL    HW1 2050   1.515   2.409   2.473 -0.2188 -2.3855  1.4573
  513SOL    HW2 2051   1.482   2.294   2.372  1.3396  0.5943  0.6846
  513SOL     MW 2052   1.474   2.378   2.399  0.2134 -0.3898 -0.0952
  514SOL     OW 2053   0.231   2.432   2.613  0.5798 -0.1526 -0.7017
  514SOL    HW1 2054   0.280   2.499   2.560  1.3341  1.5271  1.4312
  514SOL    HW2 2055   0.244   2.446   2.708  2.1388 -1.4885  1.6510
  514SOL     MW 2056   0.239   2.443   2.619  0.8850 -0.1073 -0.1099
  515SOL     OW 2057   1.167   2.065   1.919  0.3250  0.1572 -0.4618
  515SOL    HW1 2058   1.119   2.144   1.930  1.2998 -0.1449  0.1251
  515SOL    HW2 2059   1.218   2.058   1.994 -0.5161 -1.6549 -0.1484
  515SOL     MW 2060   1.167   2.075   1.930  0.3426 -0.1217 -0.3430
  516SOL     OW 2061   1.441   2.514   3.061 -0.2555 -0.3473  0.3733
  516SOL    HW1 2062   1.503   2.501   2.988  0.9276 -1.1509  5.2056
  516SOL    HW2 2063   1.360   2.477   3.026  3.1417 -1.2258  1.6063
  516SOL     MW 2064   1.439   2.507   3.046  0.3488 -0.5692  1.1736
  517SOL     OW 2065   0.576   2.429   2.109 -0.2054 -0.4011 -0.7255
  517SOL    HW1 2066   0.542   2.523   2.141 -0.6610  1.3331 -2.0055
  517SOL    HW2 2067   0.488   2.396   2.073 -2.3719  2.9083 -3.6063
  517SOL     MW 2068   0.560   2.437   2.108 -0.5513  0.2644 -1.2745
  518SOL     OW 2069   1.889   0.076   2.989 -0.2329  0.0400  0.7266
  518SOL    HW1 2070   1.866   0.138   2.915  0.9950  0.5820 -1.6362
  518SOL    HW2 2071   1.829   0.092   3.064  0.5605  0.7660  0.8781
  518SOL     MW 2072   1.878   0.086   2.989  0.0338  0.2073  0.4348
  519SOL     OW 2073   0.741   2.542   1.792  0.1833 -0.3104  0.7837
  519SOL    HW1 2074   0.731   2.446   1.827 -1.0485  0.9122 -1.7410
  519SOL    HW2 2075   0.664   2.593   1.808 -3.1901  1.1646 -1.9645
  519SOL     MW 2076   0.729   2.536   1.799 -0.4243  0.0455  0.0880
  520SOL     OW 2077   1.200   2.146   2.916 -0.6324  0.2175 -0.4224
  520SOL    HW1 2078   1.135   2.078   2.902 -0.1757  1.3040 -2.3044
  520SOL    HW2 2079   1.267   2.094   2.964 -1.0105 -3.7485 -1.2150
  520SOL     MW 2080   1.200   2.130   2.921 -0.6221 -0.1624 -0.7753
  521SOL     OW 2081   1.758   2.006   2.234 -0.6689 -0.3301 -0.3755
  521SOL    HW1 2082   1.781   2.037   2.147 -0.9248 -0.4943  0.8675
  521SOL    HW2 2083   1.757   1.908   2.225 -0.7456 -0.2214 -1.6122
  521SOL     MW 2084   1.761   1.997   2.221 -0.7128 -0.3374 -0.3747
  522SOL     OW 2085   2.862   2.606   2.225  0.5870  0.7269  0.5067
  522SOL    HW1 2086   2.902   2.526   2.260  1.5329 -1.9347  2.0206
  522SOL    HW2 2087   2.795   2.613   2.293 -2.0202 -0.7262 -2.3245
  522SOL     MW 2088   2.859   2.597   2.238  0.3678  0.1840  0.3329
  523SOL     OW 2089   0.848   1.499   2.125 -0.2590  0.2873  0.0168
  523SOL    HW1 2090   0.848   1.558   2.047  0.3433  0.2143  0.4257
  523SOL    HW2 2091   0.903   1.424   2.093 -1.4667 -1.4456 -0.9758
  523SOL     MW 2092   0.855   1.497   2.111 -0.3389  0.0490 -0.0602
  524SOL     OW 2093   0.821   2.460   2.954 -0.2799 -0.1306 -0.1894
  524SOL    HW1 2094   0.744   2.506   2.928 -2.2625 -1.3124  1.5692
  524SOL    HW2 2095   0.794   2.372   2.934 -2.4507  1.8244 -1.9276
  524SOL     MW 2096   0.807   2.455   2.948 -0.8279 -0.0286 -0.1867
  525SOL     OW 2097   0.343   2.309   2.031  0.0887 -0.3336  0.1263
  525SOL    HW1 2098   0.361   2.234   2.096  1.5834 -0.3160  1.1430
  525SOL    HW2 2099   0.327   2.257   1.951  0.0421  1.9153 -1.2830
  525SOL     MW 2100   0.343   2.292   2.029  0.2797 -0.0346  0.0745
  526SOL     OW 2101   0.631   2.123   2.094 -0.0304  0.0912  0.2894
  526SOL    HW1 2102   0.635   2.161   2.007 -1.2838 -0.9237 -0.3227
  526SOL    HW2 2103   0.632   2.194   2.155 -1.7071  0.8867  0.8458
  526SOL     MW 2104   0.632   2.137   2.090 -0.4170  0.0622  0.2821
  527SOL     OW 2105   1.408   1.958   2.140  0.4534  0.4042  0.5822
  527SOL    HW1 2106   1.386   1.920   2.231  0.3393 -0.2490 -0.5519
  527SOL    HW2 2107   1.440   1.881   2.088 -0.2903  0.2468  0.2493
  527SOL     MW 2108   1.409   1.943   2.145  0.3403  0.2973  0.3887
  528SOL     OW 2109   0.600   3.018   2.933 -0.7306  0.6186 -0.0443
  528SOL    HW1 2110   0.673   3.080   2.925 -0.4192 -0.8428 -0.7680
  528SOL    HW2 2111   0.573   3.004   2.840 -2.2536  2.6292  0.8905
  528SOL     MW 2112   0.606   3.024   2.920 -0.8905  0.6911 -0.0164
  529SOL     OW 2113   0.980   2.286   1.947  0.1854  0.0868 -0.1519
  529SOL    HW1 2114   0.992   2.318   2.033  1.5441  0.0728 -2.5906
  529SOL    HW2 2115   1.014   2.353   1.890 -0.2924 -0.7368  1.2417
  529SOL     MW 2116   0.986   2.299   1.951  0.3016 -0.0237 -0.2898
  530SOL     OW 2117   1.206   2.438   2.976 -0.5248  0.1305  0.3977
  530SOL    HW1 2118   1.175   2.461   3.063 -0.0923  0.0413  0.9174
  530SOL    HW2 2119   1.205   2.340   2.970 -3.5471  0.6581  2.4080
  530SOL     MW 2120   1.201   2.428   2.987 -0.8665  0.1883  0.7315
  531SOL     OW 2121   0.939   1.862   2.563  0.2350 -0.0362 -0.5692
  531SOL    HW1 2122   1.003   1.934   2.558  0.6964  2.0008  0.9679
  531SOL    HW2 2123   0.902   1.861   2.649  0.4343  3.3520  4.3696
  531SOL     MW 2124   0.942   1.871   2.573  0.3222  0.6796  0.2852
  532SOL     OW 2125   1.754   0.200   2.763 -0.2160  0.2411  0.1582
  532SOL    HW1 2126   1.669   0.169   2.737  3.6377 -2.2862 -1.2445
  532SOL    HW2 2127   1.821   0.161   2.707  3.4522 -0.9622  2.3964
  532SOL     MW 2128   1.751   0.190   2.753  0.7764 -0.2511  0.2684
  533SOL     OW 2129   1.962   2.563   3.094  0.2560 -0.2671 -0.2500
  533SOL    HW1 2130   1.908   2.515   3.160 -0.4820 -0.4578  0.8309
  533SOL    HW2 2131   1.900   2.641   3.065  0.4670 -0.2627  0.3913
  533SOL     MW 2132   1.947   2.567   3.099  0.1865 -0.2917 -0.0228
  534SOL     OW 2133   1.711   2.369   2.507 -0.5055  0.2379 -0.1695
  534SOL    HW1 2134   1.657   2.305   2.555 -1.1444 -0.2350  1.2801
  534SOL    HW2 2135   1.796   2.374   2.559  0.5129 -0.6776  2.1811
  534SOL     MW 2136   1.715   2.361   2.520 -0.4555  0.0547  0.3319
  535SOL     OW 2137   1.889   2.378   1.865  0.2272 -0.2583 -0.1653
  535SOL    HW1 2138   1.839   2.364   1.780  0.4371  1.1666  1.8964
  535SOL    HW2 2139   1.984   2.366   1.857  0.1608 -0.7003  0.9506
  535SOL     MW 2140   1.895   2.375   1.853  0.2461 -0.1286  0.2539
  536SOL     OW 2141   0.489   1.875   2.130  0.3308  0.4514 -0.2677
  536SOL    HW1 2142   0.443   1.839   2.058 -0.6001 -1.2359 -1.9462
  536SOL    HW2 2143   0.546   1.945   2.091  0.5086 -0.2263 -1.9505
  536SOL     MW 2144   0.490   1.880   2.115  0.2314  0.1393 -0.7112
  537SOL     OW 2145   1.065   0.287   2.769 -0.2213  0.1352 -0.2799
  537SOL    HW1 2146   1.078   0.355   2.841 -0.7969  0.6796 -0.7842
  537SOL    HW2 2147   1.060   0.340   2.691  1.1601 -1.1861  1.0069
  537SOL     MW 2148   1.066   0.303   2.768 -0.1150  0.0327 -0.1766
  538SOL     OW 2149   1.427   0.063   0.059  0.3051  0.2754  0.0093
  538SOL    HW1 2150   1.428   0.158   0.050  1.3011  0.7423  0.3280
  538SOL    HW2 2151   1.340   0.022   0.031  0.6999 -0.1804 -0.7602
  538SOL     MW 2152   1.416   0.070   0.054  0.4886  0.2769 -0.0502
  539SOL     OW 2153   0.713   2.828   2.591  0.3606  0.7011 -0.1634
  539SOL    HW1 2154   0.800   2.862   2.614  0.8835 -1.0783  0.2228
  539SOL    HW2 2155   0.701   2.739   2.630  1.0581  3.8718  0.8246
  539SOL     MW 2156   0.723   2.821   2.599  0.5216  0.8847  0.0179
  540SOL     OW 2157   0.306   2.450   2.882  0.1366 -0.3551 -0.0529
  540SOL    HW1 2158   0.312   2.520   2.951  2.2576 -1.3705 -1.3355
  540SOL    HW2 2159   0.267   2.375   2.932  1.8032  0.0916  0.6688
  540SOL     MW 2160   0.302   2.449   2.898  0.6363 -0.4301 -0.1269
  541SOL     OW 2161   0.257   2.942   2.122  0.1989 -0.3672 -0.5403
  541SOL    HW1 2162   0.179   2.885   2.115 -0.2601 -0.7693 -1.5057
  541SOL    HW2 2163   0.281   2.920   2.213 -0.2288  0.7106 -0.1356
  541SOL     MW 2164   0.250   2.931   2.133  0.0819 -0.2781 -0.6143
  542SOL     OW 2165   0.973   2.289   2.604 -0.0425 -0.4687  0.2942
  542SOL    HW1 2166   0.922   2.234   2.662  0.1726  1.2798  0.1248
  542SOL    HW2 2167   1.011   2.361   2.666 -0.8930 -0.7231  1.4068
  542SOL     MW 2168   0.971   2.291   2.620 -0.1263 -0.2716  0.4186
  543SOL     OW 2169   1.592   2.444   2.825  0.4583  0.4015 -0.1188
  543SOL    HW1 2170   1.554   2.377   2.769 -1.0061  2.3523  4.3894
  543SOL    HW2 2171   1.650   2.498   2.776  0.7507 -0.2250 -0.3247
  543SOL     MW 2172   1.595   2.442   2.811  0.3037  0.5762  0.4488
  544SOL     OW 2173   0.688   0.313   2.716 -0.2004  0.2204  0.0148
  544SOL    HW1 2174   0.607   0.301   2.763 -1.1181 -2.0604  0.1962
  544SOL    HW2 2175   0.689   0.250   2.641 -2.1238 -0.6953  0.4866
  544SOL     MW 2176   0.678   0.303   2.713 -0.5752 -0.2013  0.1010
  545SOL     OW 2177   1.516   2.125   2.340  0.6959 -0.3621 -0.0654
  545SOL    HW1 2178   1.464   2.090   2.268  0.0253 -0.2416  0.3295
  545SOL    HW2 2179   1.594   2.087   2.316 -2.5146 -2.2846  1.8312
  545SOL     MW 2180   1.519   2.116   2.328  0.1838 -0.5999  0.2369
  546SOL     OW 2181   2.898   1.967   0.139  0.7044  0.2893  0.4279
  546SOL    HW1 2182   2.855   2.036   0.084 -0.1535 -0.0068 -1.3511
  546SOL    HW2 2183   2.987   1.959   0.103 -0.6442  0.3611 -1.2298
  546SOL     MW 2184   2.904   1.975   0.127  0.4133  0.2597 -0.0255
  547SOL     OW 2185   0.201   0.072   0.101 -0.4235 -0.4019 -0.3646
  547SOL    HW1 2186   0.281   0.059   0.043  0.4390  1.1664 -2.2550
  547SOL    HW2 2187   0.136   0.026   0.053 -0.3679 -3.3848  0.6118
  547SOL     MW 2188   0.203   0.064   0.087 -0.3023 -0.5885 -0.4852
  548SOL     OW 2189   0.369   2.564   0.259  0.4241  0.5623 -0.0079
  548SOL    HW1 2190   0.347   2.580   0.168 -2.4958  0.1722 -0.8575
  548SOL    HW2 2191   0.345   2.474   0.275  1.3131  3.1997 -0.0922
  548SOL     MW 2192   0.363   2.554   0.249  0.1561  0.8588 -0.1311
  549SOL     OW 2193   0.840   1.932   2.124  0.1390 -0.2991  0.0581
  549SOL    HW1 2194   0.774   1.995   2.111  0.5731  0.4210  4.8102
  549SOL    HW2 2195   0.813   1.909   2.214  0.5747 -0.4670  0.9056
  549SOL     MW 2196   0.828   1.937   2.134  0.2538 -0.2262  0.7969
  550SOL     OW 2197   1.823   1.633   2.519 -1.3207 -0.7894  0.6008
  550SOL    HW1 2198   1.805   1.644   2.425 -1.0399 -0.5344  3.5646
  550SOL    HW2 2199   1.802   1.723   2.548  0.8922 -0.9757 -4.9587
  550SOL     MW 2200   1.818   1.647   2.511 -0.9917 -0.7803  0.2583
  551SOL     OW 2201   0.922   2.226   0.192 -0.2057 -0.0923 -0.1443
  551SOL    HW1 2202   1.017   2.238   0.207  1.8673  3.6116  1.8207
  551SOL    HW2 2203   0.906   2.152   0.129 -0.8946  1.5085  1.8944
  551SOL     MW 2204   0.933   2.218   0.186 -0.0231  0.6076  0.3839
  552SOL     OW 2205   1.763   1.736   2.252 -0.0776 -0.4546 -0.6770
  552SOL    HW1 2206   1.676   1.699   2.267 -2.1670  0.1924  3.8524
  552SOL    HW2 2207   1.807   1.683   2.184  2.2858  2.8154  2.1402
  552SOL     MW 2208   1.757   1.724   2.245 -0.0414  0.0622  0.2923
  553SOL     OW 2209   1.239   2.300   1.576  0.3509 -0.0708 -0.0418
  553SOL    HW1 2210   1.290   2.220   1.594  0.8538  3.2114  1.1709
  553SOL    HW2 2211   1.302   2.359   1.541 -3.5269 -1.7518  0.6855
  553SOL     MW 2212   1.254   2.297   1.574 -0.0944  0.1405  0.2142
  554SOL     OW 2213   0.511   2.973   2.689  0.1135  0.0021 -0.2079
  554SOL    HW1 2214   0.478   3.026   2.617 -2.0048  0.9013 -0.6400
  554SOL    HW2 2215   0.585   2.927   2.645  1.3734  2.2126 -1.1757
  554SOL     MW 2216   0.516   2.974   2.673  0.0002  0.4124 -0.3926
  555SOL     OW 2217   0.631   2.524   2.621  0.3200  0.0442  0.1467
  555SOL    HW1 2218   0.594   2.434   2.606 -1.3787 -1.6654 -1.6873
  555SOL    HW2 2219   0.712   2.525   2.562  0.3290  0.4965 -2.1709
  555SOL     MW 2220   0.637   2.513   2.611  0.0971 -0.1217 -0.4010
  556SOL     OW 2221   1.067   1.849   0.042 -0.5753 -0.3577  0.0963
  556SOL    HW1 2222   1.095   1.805  -0.036 -1.3389 -1.1525  0.0282
  556SOL    HW2 2223   1.144   1.835   0.099  1.3740 -2.1989 -0.0353
  556SOL     MW 2224   1.081   1.841   0.039 -0.4188 -0.7055  0.0700
  557SOL     OW 2225   1.045   2.723   0.578 -0.4505  0.3321  0.1245
  557SOL    HW1 2226   1.072   2.652   0.523  2.0103 -1.2768  0.5218
  557SOL    HW2 2227   1.007   2.778   0.513 -0.2379 -1.6385  3.0411
  557SOL     MW 2228   1.044   2.721   0.562 -0.0977 -0.1401  0.5617
  558SOL     OW 2229   0.226   2.229   3.026 -0.3913 -0.1472 -0.4292
  558SOL    HW1 2230   0.298   2.164   3.034  2.5916  1.4571 -0.0305
  558SOL    HW2 2231   0.192   2.246   3.117 -1.3049  0.1388  4.1223
  558SOL     MW 2232   0.231   2.222   3.039 -0.1183  0.1022  0.2239
  559SOL     OW 2233   1.059   2.307   2.250  0.0021 -0.5132  0.1404
  559SOL    HW1 2234   1.155   2.318   2.265 -1.0028 -0.7844  1.5593
  559SOL    HW2 2235   1.055   2.213   2.250 -1.3969  1.2012  0.0210
  559SOL     MW 2236   1.071   2.296   2.252 -0.3151 -0.3228  0.3118
  560SOL     OW 2237   2.170   2.669   0.151  0.1407  0.0542 -0.3489
  560SOL    HW1 2238   2.194   2.746   0.104  1.2692 -0.4642  0.0735
  560SOL    HW2 2239   2.103   2.629   0.091 -0.9659  2.9093 -1.0488
  560SOL     MW 2240   2.164   2.674   0.137  0.1436  0.3625 -0.3855
  561SOL     OW 2241   0.486   2.202   0.182  0.0878  0.1483 -0.4191
  561SOL    HW1 2242   0.469   2.235   0.093 -2.0814 -0.5572 -0.0506
  561SOL    HW2 2243   0.535   2.271   0.229 -0.5065  1.2902 -1.4690
  561SOL     MW 2244   0.490   2.216   0.176 -0.2769  0.2059 -0.5090
  562SOL     OW 2245   0.654   2.308   2.362  0.0833  0.2868  0.1377
  562SOL    HW1 2246   0.640   2.362   2.284  0.7307  1.3672  4.5034
  562SOL    HW2 2247   0.736   2.348   2.381 -0.1170  2.5147 -1.2437
  562SOL     MW 2248   0.663   2.320   2.354  0.1423  0.7233  0.5315
  563SOL     OW 2249   1.265   0.406   0.578  0.1403  0.0454 -0.2677
  563SOL    HW1 2250   1.205   0.344   0.526 -0.3241 -0.2833  1.9112
  563SOL    HW2 2251   1.270   0.377   0.668  0.7282 -3.4890  1.4004
  563SOL     MW 2252   1.257   0.394   0.583  0.1566 -0.4643  0.2398
  564SOL     OW 2253   0.997   2.699   2.330  0.3060  1.0637 -0.0563
  564SOL    HW1 2254   1.038   2.756   2.271 -0.0426 -1.1643  3.0549
  564SOL    HW2 2255   1.043   2.725   2.413 -2.0128  0.2659 -2.9056
  564SOL     MW 2256   1.009   2.710   2.333 -0.0459  0.6645 -0.0218
  565SOL     OW 2257   2.750   2.803   2.626 -0.2232  0.0542 -0.4300
  565SOL    HW1 2258   2.731   2.886   2.582  2.4197  2.0656  0.9250
  565SOL    HW2 2259   2.726   2.747   2.558  2.6094  0.7600  2.8627
  565SOL     MW 2260   2.744   2.807   2.612  0.4993  0.4127  0.1832
  566SOL     OW 2261   2.180   1.939   2.380  0.2937 -0.5416  0.3801
  566SOL    HW1 2262   2.162   1.910   2.290 -0.2958 -0.7080 -2.7421
  566SOL    HW2 2263   2.255   1.995   2.373 -3.7425  0.4950 -0.3006
  566SOL     MW 2264   2.188   1.943   2.367 -0.3166 -0.4268 -0.1216
  567SOL     OW 2265   1.171   3.059   0.005 -0.4587 -0.3665  0.0487
  567SOL    HW1 2266   1.152   3.059   0.098  0.8143  0.4428 -1.2757
  567SOL    HW2 2267   1.191   2.965  -0.020  5.8394  0.6065  0.5325
  567SOL     MW 2268   1.171   3.047   0.014  0.5402 -0.1314 -0.0622
  568SOL     OW 2269   1.658   2.032   2.855 -0.1088  0.1420  0.1504
  568SOL    HW1 2270   1.708   2.086   2.911 -0.1266 -0.4706  2.2335
  568SOL    HW2 2271   1.704   1.998   2.776 -0.3572  1.1961 -1.6908
  568SOL     MW 2272   1.670   2.034   2.852 -0.1439  0.2002  0.1823
  569SOL     OW 2273   0.129   2.243   2.433 -0.3357  0.0491 -0.3425
  569SOL    HW1 2274   0.071   2.308   2.398  3.2205 -1.4600 -2.9167
  569SOL    HW2 2275   0.165   2.290   2.510  2.6459  1.1995 -0.3554
  569SOL     MW 2276   0.126   2.257   2.439  0.5269  0.0018 -0.6838
  570SOL     OW 2277   1.490   0.300   0.455  0.4196  0.0241  0.2439
  570SOL    HW1 2278   1.408   0.353   0.476  0.4108  1.1713  0.2767
  570SOL    HW2 2279   1.560   0.335   0.515 -2.3926 -0.4791 -1.2730
  570SOL     MW 2280   1.488   0.312   0.465  0.0474  0.1091  0.0481
  571SOL     OW 2281   1.354   2.371   2.136 -0.2055 -0.2219 -0.1367
  571SOL    HW1 2282   1.406   2.391   2.215 -1.6634 -1.0578  1.7860
  571SOL    HW2 2283   1.389   2.291   2.088  2.4035  0.9774 -0.7368
  571SOL     MW 2284   1.365   2.363   2.140 -0.0536 -0.1740  0.0378
  572SOL     OW 2285   1.111   2.597   0.099 -0.0593  0.1162  0.1164
  572SOL    HW1 2286   1.105   2.679   0.065 -2.0033 -2.7415  3.5998
  572SOL    HW2 2287   1.018   2.572   0.134  0.6990 -0.5269 -0.7989
  572SOL     MW 2288   1.098   2.604   0.099 -0.2157 -0.3457  0.4552
  573SOL     OW 2289   1.203   2.299   0.282  0.2263 -0.0231  0.3842
  573SOL    HW1 2290   1.283   2.307   0.228  0.9265  3.0147 -0.6255
  573SOL    HW2 2291   1.196   2.376   0.341  0.2001  2.1035  0.1793
  573SOL     MW 2292   1.213   2.310   0.283  0.3153  0.6583  0.2239
  574SOL     OW 2293   1.150   2.567   0.378  0.2842  0.4325 -0.1358
  574SOL    HW1 2294   1.220   2.632   0.388  1.7195  0.0738 -0.8686
  574SOL    HW2 2295   1.127   2.574   0.290 -0.9403  0.7585  1.7399
  574SOL     MW 2296   1.156   2.576   0.368  0.3120  0.4282  0.0150
  575SOL     OW 2297   3.076   2.214   1.628  0.0837  0.4005  0.9047
  575SOL    HW1 2298   3.110   2.126   1.603  1.6477  1.0175 -0.7243
  575SOL    HW2 2299   3.156   2.254   1.669  0.0906  0.9290  1.6230
  575SOL     MW 2300   3.091   2.208   1.630  0.2910  0.5517  0.7845
  576SOL     OW 2301   2.925   1.873   1.924  0.2984 -0.4060 -0.3989
  576SOL    HW1 2302   2.927   1.965   1.898 -1.1238  0.1120  0.4160
  576SOL    HW2 2303   2.853   1.816   1.886 -1.1940 -1.5788 -0.7281
  576SOL     MW 2304   2.916   1.878   1.916 -0.0862 -0.4924 -0.3348
  577SOL     OW 2305   2.140   0.153   0.022  0.4515  0.3857  0.4239
  577SOL    HW1 2306   2.089   0.159  -0.062  0.8633  0.0482  0.6996
  577SOL    HW2 2307   2.082   0.098   0.074 -1.0717 -1.5035  0.6953
  577SOL     MW 2308   2.125   0.146   0.018  0.3049  0.0919  0.4961
  578SOL     OW 2309   1.982   2.123   2.338  0.4155  0.0976  0.4166
  578SOL    HW1 2310   1.899   2.076   2.308 -1.5949  0.1540  1.7420
  578SOL    HW2 2311   2.047   2.044   2.350  0.5880 -2.0447  0.8926
  578SOL     MW 2312   1.979   2.107   2.336  0.1730 -0.1776  0.6543
  579SOL     OW 2313   0.856   2.507   2.483  0.3345 -0.3233 -0.3318
  579SOL    HW1 2314   0.906   2.445   2.528 -2.1966 -3.0038  0.3061
  579SOL    HW2 2315   0.918   2.557   2.429 -0.0834 -0.1431  0.9101
  579SOL     MW 2316   0.871   2.505   2.482 -0.0546 -0.6532 -0.0838
  580SOL     OW 2317   0.997   2.837   3.095  0.3716 -0.4423 -0.3777
  580SOL    HW1 2318   0.986   2.931   3.110  2.1024  0.3619  1.2766
  580SOL    HW2 2319   0.908   2.817   3.043 -0.6602  1.2667  0.4054
  580SOL     MW 2320   0.984   2.847   3.090  0.4638 -0.1107 -0.0561
  581SOL     OW 2321   1.099   2.465   1.782 -0.1625  0.3893 -0.2675
  581SOL    HW1 2322   1.154   2.519   1.844  0.8163 -0.0133  0.7742
  581SOL    HW2 2323   1.157   2.409   1.732 -1.4080 -1.0659 -0.7502
  581SOL     MW 2324   1.114   2.465   1.783 -0.1977  0.1442 -0.1938
  582SOL     OW 2325   0.011   2.965   2.662  0.0905  0.0389  0.2601
  582SOL    HW1 2326  -0.068   2.970   2.711 -2.6644 -1.1792 -1.0759
  582SOL    HW2 2327   0.079   2.923   2.717 -0.4200 -0.2201 -2.1177
  582SOL     MW 2328   0.009   2.960   2.676 -0.3403 -0.1560 -0.2299
  583SOL     OW 2329   1.921   2.396   2.662  0.3481  0.2239  0.4899
  583SOL    HW1 2330   2.001   2.420   2.614  0.7210  0.4846 -0.0932
  583SOL    HW2 2331   1.905   2.297   2.655  0.3140 -1.7343 -0.2311
  583SOL     MW 2332   1.930   2.386   2.655  0.3928 -0.0001  0.3178
  584SOL     OW 2333   0.189   1.890   2.198  0.1615  0.0941 -0.4019
  584SOL    HW1 2334   0.168   1.868   2.291 -3.3733 -3.2578 -0.4842
  584SOL    HW2 2335   0.259   1.956   2.191 -0.1131 -3.3501 -1.4648
  584SOL     MW 2336   0.196   1.896   2.209 -0.3411 -0.8026 -0.5530
  585SOL     OW 2337   1.532   2.679   0.163 -0.4749 -0.6069 -0.1265
  585SOL    HW1 2338   1.484   2.666   0.079 -1.1415 -1.8497  0.5596
  585SOL    HW2 2339   1.462   2.716   0.219  1.9718 -1.5333 -0.7936
  585SOL     MW 2340   1.517   2.682   0.159 -0.2401 -0.8931 -0.1240
  586SOL     OW 2341   1.348   2.779   2.577  0.3398 -0.5083  0.3861
  586SOL    HW1 2342   1.402   2.738   2.509 -2.4061  1.9872  0.7999
  586SOL    HW2 2343   1.353   2.877   2.574 -0.8302  0.4828  2.3364
  586SOL     MW 2344   1.356   2.787   2.568 -0.1769 -0.0482  0.6980
  587SOL     OW 2345   1.292   1.465   2.150 -1.0018  0.8912  0.0415
  587SOL    HW1 2346   1.266   1.378   2.177  0.8332  0.8219 -1.8024
  587SOL    HW2 2347   1.254   1.483   2.067  0.3363 -1.7009  1.7367
  587SOL     MW 2348   1.284   1.456   2.143 -0.5831  0.5401  0.0218
  588SOL     OW 2349   1.320   2.030   2.686 -0.2083  0.4128 -0.4282
  588SOL    HW1 2350   1.351   1.942   2.704 -2.6144 -1.4482 -0.0886
  588SOL    HW2 2351   1.296   2.067   2.774 -2.0655 -0.3919 -0.6917
  588SOL     MW 2352   1.321   2.023   2.700 -0.7708  0.0611 -0.4181
  589SOL     OW 2353   1.353   2.041   0.023  0.6870  0.6089  0.1493
  589SOL    HW1 2354   1.396   2.117   0.063 -1.3997  0.0875 -0.8313
  589SOL    HW2 2355   1.305   1.998   0.095  0.6771  1.0130  3.5078
  589SOL     MW 2356   1.352   2.045   0.038  0.4104  0.5934  0.4630
  590SOL     OW 2357   0.485   2.648   2.224 -0.4283  0.2536  0.9417
  590SOL    HW1 2358   0.447   2.703   2.147 -1.2752  2.0206 -2.1645
  590SOL    HW2 2359   0.570   2.700   2.236  0.0855  0.1657 -1.2772
  590SOL     MW 2360   0.491   2.662   2.215 -0.4722  0.4751  0.2391
  591SOL     OW 2361   2.198   0.679   0.155 -0.1116  0.7001  0.3838
  591SOL    HW1 2362   2.150   0.711   0.233  0.4954  0.1027 -1.4603
  591SOL    HW2 2363   2.165   0.708   0.070 -1.2877 -0.4910  1.8926
  591SOL     MW 2364   2.187   0.687   0.154 -0.1867  0.4641  0.3395
  592SOL     OW 2365   1.641   2.897   0.749 -0.3332 -0.0497 -0.9004
  592SOL    HW1 2366   1.615   2.991   0.767 -2.6373  0.2515  0.5483
  592SOL    HW2 2367   1.732   2.898   0.775 -0.7966  0.9190  2.7036
  592SOL     MW 2368   1.650   2.910   0.755 -0.6983  0.1179 -0.2337
  593SOL     OW 2369   1.937   0.724   0.728 -0.1161  0.4883 -0.4268
  593SOL    HW1 2370   1.861   0.739   0.665  0.5040  0.9572 -2.1516
  593SOL    HW2 2371   1.968   0.635   0.715  2.7348  1.8241 -0.5130
  593SOL     MW 2372   1.931   0.714   0.718  0.3419  0.7264 -0.6657
  594SOL     OW 2373   2.821   1.037   1.353  0.0677  0.4944 -0.2168
  594SOL    HW1 2374   2.902   1.087   1.320  2.6705  2.5616  1.0238
  594SOL    HW2 2375   2.777   1.015   1.268 -3.6986  0.8998 -1.7245
  594SOL     MW 2376   2.826   1.041   1.337 -0.0858  0.8206 -0.2521
  595SOL     OW 2377   0.544   0.948   0.853  0.2628  0.1348 -0.2394
  595SOL    HW1 2378   0.513   0.996   0.773  0.0099  1.0113  0.4972
  595SOL    HW2 2379   0.604   1.013   0.901 -0.5310 -1.6941 -0.1731
  595SOL     MW 2380   0.548   0.963   0.849  0.1247  0.0091 -0.1335
  596SOL     OW 2381   2.450   1.359   0.488  0.1273  0.0407  0.1705
  596SOL    HW1 2382   2.423   1.424   0.423  1.3788 -0.9613  1.3110
  596SOL    HW2 2383   2.509   1.384   0.559 -0.2217 -2.2816  1.8862
  596SOL     MW 2384   2.455   1.371   0.488  0.2464 -0.3979  0.5473
  597SOL     OW 2385   2.227   0.649   1.587 -0.1072  0.8838  1.2146
  597SOL    HW1 2386   2.249   0.598   1.667 -0.6618 -2.0328  1.1847
  597SOL    HW2 2387   2.153   0.594   1.544  3.1459  2.0508  1.5241
  597SOL     MW 2388   2.220   0.635   1.592  0.2488  0.6530  1.2515
  598SOL     OW 2389   2.583   1.021   2.883  0.0725 -0.2288 -0.6002
  598SOL    HW1 2390   2.589   0.929   2.908 -2.1864  0.6135  1.5732
  598SOL    HW2 2391   2.665   1.055   2.908 -0.1680 -0.6924 -1.1765
  598SOL     MW 2392   2.594   1.014   2.890 -0.2573 -0.1788 -0.3895
  599SOL     OW 2393   3.033   0.496   2.250 -0.9798  0.5686 -0.5667
  599SOL    HW1 2394   3.094   0.559   2.281  2.4570  0.5072 -0.2628
  599SOL    HW2 2395   3.031   0.520   2.149 -0.9165 -0.5816 -1.4384
  599SOL     MW 2396   3.040   0.508   2.241 -0.5180  0.4087 -0.6417
  600SOL     OW 2397   1.831   1.702   0.834  0.2088 -0.2622 -0.5036
  600SOL    HW1 2398   1.852   1.744   0.920 -0.1901 -0.9559 -0.1075
  600SOL    HW2 2399   1.754   1.754   0.814  0.6898 -1.2050  1.4005
  600SOL     MW 2400   1.824   1.714   0.842  0.2196 -0.4781 -0.2001
  601SOL     OW 2401   2.538   0.766   0.867  0.0870  0.0161 -0.3401
  601SOL    HW1 2402   2.546   0.734   0.959 -1.5981 -0.1085 -2.9128
  601SOL    HW2 2403   2.498   0.685   0.830 -1.2223 -1.3849  1.6017
  601SOL     MW 2404   2.534   0.751   0.874 -0.3081 -0.1852 -0.4234
  602SOL     OW 2405   2.255   1.930   0.766 -0.4417  0.6193  0.2077
  602SOL    HW1 2406   2.200   1.854   0.733 -1.0284 -1.1334 -1.3686
  602SOL    HW2 2407   2.193   2.010   0.758  1.8513 -1.6269 -2.1208
  602SOL     MW 2408   2.239   1.931   0.761 -0.2166  0.0917 -0.3075
  603SOL     OW 2409   3.001   1.364   1.964  0.5145 -0.2880  0.4233
  603SOL    HW1 2410   2.977   1.406   2.044 -0.0859 -1.3834  2.1986
  603SOL    HW2 2411   3.055   1.286   1.983  3.1206 -3.0387  0.9563
  603SOL     MW 2412   3.005   1.359   1.977  0.7791 -0.7954  0.7278
  604SOL     OW 2413   2.026   1.388   0.351 -0.2627 -0.3969 -0.4105
  604SOL    HW1 2414   2.086   1.325   0.393 -0.6891 -1.7788 -3.1149
  604SOL    HW2 2415   1.965   1.410   0.421 -0.4004  2.0101 -0.8684
  604SOL     MW 2416   2.026   1.383   0.366 -0.3372 -0.2616 -0.8278
  605SOL     OW 2417   2.435   1.453   0.794 -0.0825 -0.1352 -0.6262
  605SOL    HW1 2418   2.442   1.513   0.719  1.3004  0.3944  0.2212
  605SOL    HW2 2419   2.493   1.378   0.787  0.0216 -1.2423  1.4876
  605SOL     MW 2420   2.443   1.451   0.783  0.1137 -0.2114 -0.2355
  606SOL     OW 2421   2.687   1.765   1.782 -0.0197  0.3187 -0.1010
  606SOL    HW1 2422   2.643   1.817   1.846 -2.5754 -1.5421 -1.5547
  606SOL    HW2 2423   2.662   1.677   1.791  1.1031  2.7795 -3.1066
  606SOL     MW 2424   2.678   1.760   1.792 -0.2088  0.3979 -0.6894
  607SOL     OW 2425   2.395   0.996   3.079  0.0504  0.0612  0.0981
  607SOL    HW1 2426   2.480   1.012   3.028  2.2161  1.2691  2.3478
  607SOL    HW2 2427   2.423   0.965   3.165  0.5221  1.9014 -2.8046
  607SOL     MW 2428   2.410   0.994   3.084  0.3984  0.4634  0.0119
  608SOL     OW 2429   1.910   0.259   0.473  0.3684 -0.0172 -0.6335
  608SOL    HW1 2430   1.900   0.287   0.376  2.5150  0.9269 -0.7339
  608SOL    HW2 2431   1.877   0.167   0.468  2.1830 -0.8373 -0.6328
  608SOL     MW 2432   1.904   0.250   0.459  0.8910 -0.0009 -0.6466
  609SOL     OW 2433   2.111   1.887   3.086 -0.4626  0.0012  0.0093
  609SOL    HW1 2434   2.047   1.832   3.035 -1.3304 -1.5097  3.1104
  609SOL    HW2 2435   2.102   1.864   3.178  0.9063 -0.3639 -0.6609
  609SOL     MW 2436   2.102   1.877   3.091 -0.3965 -0.2463  0.3300
  610SOL     OW 2437   1.805   0.971   1.219 -0.2312  0.5472  0.6336
  610SOL    HW1 2438   1.821   0.887   1.176  1.9065 -1.3918 -1.3059
  610SOL    HW2 2439   1.707   0.989   1.193 -2.7053 -0.1325 -1.0811
  610SOL     MW 2440   1.794   0.963   1.210 -0.2756  0.2017  0.1515
  611SOL     OW 2441   2.478   1.640   0.593  0.2369  0.1800 -0.3173
  611SOL    HW1 2442   2.460   1.610   0.501 -0.5236  2.0593 -1.8506
  611SOL    HW2 2443   2.461   1.734   0.584  0.9782  3.2210  1.7272
  611SOL     MW 2444   2.473   1.649   0.579  0.2343  0.8292 -0.2499
  612SOL     OW 2445   2.885   2.871   0.396  0.3900 -0.6992  0.5085
  612SOL    HW1 2446   2.900   2.902   0.486  0.9131  0.8661 -3.0738
  612SOL    HW2 2447   2.971   2.849   0.353  0.3350  0.4582  0.8571
  612SOL     MW 2448   2.899   2.872   0.402  0.4518 -0.3400  0.0819
  613SOL     OW 2449   1.424   1.123   0.966  0.4812  0.6569 -0.5629
  613SOL    HW1 2450   1.452   1.212   0.957 -1.0661  0.4035 -1.8912
  613SOL    HW2 2451   1.455   1.090   1.056  0.3112 -1.2601 -0.9192
  613SOL     MW 2452   1.432   1.130   0.977  0.2546  0.3705 -0.7852
  614SOL     OW 2453   2.067   0.481   1.446  0.0775 -0.0661  0.0193
  614SOL    HW1 2454   2.047   0.432   1.524 -1.3482  1.6358 -1.6207
  614SOL    HW2 2455   1.982   0.531   1.426 -0.8708  1.1078  0.6227
  614SOL     MW 2456   2.053   0.481   1.453 -0.2358  0.3134 -0.1174
  615SOL     OW 2457   2.397   0.730   0.325 -0.0393 -0.2329  0.2105
  615SOL    HW1 2458   2.474   0.673   0.328 -2.3122  0.8766 -0.9595
  615SOL    HW2 2459   2.347   0.684   0.260  3.1204 -1.7000 -0.0443
  615SOL     MW 2460   2.401   0.716   0.317  0.0777 -0.2801  0.0225
  616SOL     OW 2461   2.582   0.391   1.647 -0.0668 -0.4744 -0.1423
  616SOL    HW1 2462   2.578   0.303   1.606 -0.1438  0.6264  0.9221
  616SOL    HW2 2463   2.556   0.461   1.585  1.2132  1.1164  0.7210
  616SOL     MW 2464   2.578   0.388   1.634  0.0919 -0.1193  0.1121
  617SOL     OW 2465   2.808   0.568   1.842 -0.3011  0.1612 -0.2493
  617SOL    HW1 2466   2.720   0.536   1.873  0.2750 -0.4823 -0.7617
  617SOL    HW2 2467   2.840   0.481   1.798 -1.0373  1.1052  0.4857
  617SOL     MW 2468   2.800   0.552   1.840 -0.3222  0.2008 -0.2199
  618SOL     OW 2469   2.812   0.229   2.000 -0.1542 -0.8570 -0.0662
  618SOL    HW1 2470   2.752   0.272   2.067 -2.3756  1.2657 -4.0236
  618SOL    HW2 2471   2.896   0.232   2.051  1.0644  0.2719 -1.0504
  618SOL     MW 2472   2.815   0.235   2.016 -0.2865 -0.4280 -0.7182
  619SOL     OW 2473   2.728   0.735   0.064 -0.0177  0.0486 -0.2352
  619SOL    HW1 2474   2.754   0.826   0.059  1.1873  0.5108 -3.7000
  619SOL    HW2 2475   2.789   0.687   0.123 -0.6255 -0.7616 -1.6060
  619SOL     MW 2476   2.739   0.741   0.071  0.0611  0.0027 -0.8732
  620SOL     OW 2477   2.226   1.013   0.913  0.1289  0.1248 -0.2295
  620SOL    HW1 2478   2.315   1.004   0.874  0.8269 -1.2918  2.3884
  620SOL    HW2 2479   2.165   1.012   0.839  1.7771 -3.3407 -0.9836
  620SOL     MW 2480   2.230   1.012   0.898  0.4384 -0.5193  0.0164
  621SOL     OW 2481   1.517   2.201   1.968  0.1974 -0.6802 -0.1815
  621SOL    HW1 2482   1.486   2.118   2.003 -0.9179  2.8928 -0.2611
  621SOL    HW2 2483   1.613   2.196   1.971 -1.4055 -0.4030  0.4479
  621SOL     MW 2484   1.526   2.190   1.973 -0.1612 -0.1722 -0.1090
  622SOL     OW 2485   2.649   0.273   0.202  0.3736  0.0906 -0.0501
  622SOL    HW1 2486   2.736   0.309   0.229 -1.1713 -1.4019 -2.9902
  622SOL    HW2 2487   2.667   0.178   0.188 -0.7420 -1.2255 -0.7976
  622SOL     MW 2488   2.663   0.265   0.204  0.0226 -0.2800 -0.5366
  623SOL     OW 2489   2.336   2.774   0.805 -0.0029  0.6290 -0.4273
  623SOL    HW1 2490   2.394   2.844   0.788  0.6558 -2.0737 -1.5933
  623SOL    HW2 2491   2.309   2.806   0.897  0.2640 -1.3799 -0.2431
  623SOL     MW 2492   2.340   2.787   0.815  0.1193  0.0073 -0.5568
  624SOL     OW 2493   2.135   1.585   3.024  0.4668 -0.2603 -0.5472
  624SOL    HW1 2494   2.087   1.500   3.015  0.1781 -1.9351 -0.5144
  624SOL    HW2 2495   2.078   1.637   3.087  0.6289 -0.6006  2.3065
  624SOL     MW 2496   2.121   1.580   3.031  0.4501 -0.5262 -0.1664
  625SOL     OW 2497   2.149   1.936   1.032 -0.5351  0.8636  0.3161
  625SOL    HW1 2498   2.189   1.854   1.069  0.9958  1.6799  0.6755
  625SOL    HW2 2499   2.183   1.940   0.943  3.1061  0.2525  1.6513
  625SOL     MW 2500   2.159   1.925   1.025  0.1473  0.8907  0.5397
  626SOL     OW 2501   0.132   1.851   2.463 -0.2599 -0.1093  0.1327
  626SOL    HW1 2502   0.079   1.763   2.487 -1.8923  1.2471  2.1618
  626SOL    HW2 2503   0.074   1.926   2.495 -2.7143  0.0402  2.4765
  626SOL     MW 2504   0.117   1.850   2.471 -0.7991  0.0894  0.7097
  627SOL     OW 2505   2.595   0.785   2.614  0.1116 -0.1926  0.1824
  627SOL    HW1 2506   2.522   0.852   2.626 -0.7558  0.3610  0.7233
  627SOL    HW2 2507   2.626   0.793   2.525  0.0710  0.1951  1.0393
  627SOL     MW 2508   2.590   0.795   2.604 -0.0082 -0.0684  0.3668
  628SOL     OW 2509   2.340   1.387   1.285 -0.3086 -0.7939 -0.4956
  628SOL    HW1 2510   2.319   1.302   1.248 -4.4135  1.1136  0.1789
  628SOL    HW2 2511   2.423   1.414   1.247  0.2836 -2.6992  0.1096
  628SOL     MW 2512   2.348   1.380   1.275 -0.7721 -0.7936 -0.3268
  629SOL     OW 2513   1.848   0.617   1.320  0.1997 -0.3525  0.2083
  629SOL    HW1 2514   1.888   0.636   1.234  1.0582 -0.7034  0.3096
  629SOL    HW2 2515   1.758   0.596   1.299 -0.0306 -0.1354  0.6399
  629SOL     MW 2516   1.842   0.617   1.306  0.2826 -0.3702  0.2786
  630SOL     OW 2517   2.403   1.932   3.072 -0.1716  0.4261  0.0042
  630SOL    HW1 2518   2.418   1.992   2.997 -2.2209 -0.0515 -3.7834
  630SOL    HW2 2519   2.308   1.917   3.055  0.2321  0.7958  1.9172
  630SOL     MW 2520   2.393   1.938   3.060 -0.3887  0.4119 -0.2431
  631SOL     OW 2521   2.097   1.860   1.480 -0.1658  0.4055 -0.2088
  631SOL    HW1 2522   2.088   1.772   1.525 -1.1847  0.8959  0.2975
  631SOL    HW2 2523   2.015   1.905   1.484  1.1551  0.8857 -0.8374
  631SOL     MW 2524   2.085   1.854   1.487 -0.1260  0.5336 -0.2250
  632SOL     OW 2525   0.389   1.883   1.475 -0.0690  0.7227  0.1034
  632SOL    HW1 2526   0.319   1.949   1.464  1.7773 -0.6232 -0.4688
  632SOL    HW2 2527   0.340   1.797   1.501 -0.0992 -2.7416  1.2806
  632SOL     MW 2528   0.373   1.881   1.477  0.1706  0.0881  0.1832
  633SOL     OW 2529   2.619   0.555   0.365  0.0278  0.8814  0.0399
  633SOL    HW1 2530   2.680   0.547   0.435  0.2656  0.0042 -2.1010
  633SOL    HW2 2531   2.617   0.464   0.331 -2.1918  0.0462  1.0724
  633SOL     MW 2532   2.627   0.542   0.370 -0.2337  0.6555 -0.1064
  634SOL     OW 2533   2.704   3.079   0.605 -0.0813  0.5979  0.5972
  634SOL    HW1 2534   2.706   3.171   0.584 -0.5592 -1.6192  0.2164
  634SOL    HW2 2535   2.694   3.035   0.522  1.0125 -0.4361  1.3748
  634SOL     MW 2536   2.703   3.085   0.591 -0.0001  0.1689  0.6495
  635SOL     OW 2537   2.663   0.050   1.849  0.2796  0.9096 -0.4208
  635SOL    HW1 2538   2.707  -0.022   1.796 -0.4571  2.0420  3.4078
  635SOL    HW2 2539   2.732   0.094   1.896 -1.6326 -2.2015 -0.7540
  635SOL     MW 2540   2.678   0.046   1.848 -0.0699  0.6485  0.0404
  636SOL     OW 2541   2.692   1.645   0.756 -0.1844 -0.3082 -0.3422
  636SOL    HW1 2542   2.618   1.646   0.696 -1.8822 -2.0314  3.2856
  636SOL    HW2 2543   2.715   1.736   0.782 -0.5817 -0.7688 -0.3734
  636SOL     MW 2544   2.685   1.657   0.751 -0.4608 -0.5963  0.1324
  637SOL     OW 2545   2.925   1.439   0.718  0.4995 -0.1130 -0.2492
  637SOL    HW1 2546   2.994   1.498   0.744  1.3338  0.7600  2.1919
  637SOL    HW2 2547   2.847   1.496   0.722 -1.7827 -1.1876  1.6753
  637SOL     MW 2548   2.924   1.454   0.722  0.3085 -0.1396  0.3268
  638SOL     OW 2549   2.821   0.538   0.549  0.2071  0.0426  0.4283
  638SOL    HW1 2550   2.889   0.585   0.499 -1.0737 -1.8324 -0.8826
  638SOL    HW2 2551   2.819   0.564   0.641 -0.3576 -1.4592  0.9897
  638SOL     MW 2552   2.830   0.548   0.555 -0.0364 -0.4029  0.3294
  639SOL     OW 2553   1.828   3.083   0.536 -0.2231 -0.1212 -0.2796
  639SOL    HW1 2554   1.735   3.046   0.543 -0.7211 -1.0796 -0.0881
  639SOL    HW2 2555   1.874   3.001   0.539  0.1502  1.0272  0.3204
  639SOL     MW 2556   1.822   3.067   0.537 -0.2396 -0.0961 -0.1752
  640SOL     OW 2557   0.286   1.448   0.112 -0.0412 -0.0148  0.5979
  640SOL    HW1 2558   0.339   1.458   0.034  3.2537 -1.1802  0.8396
  640SOL    HW2 2559   0.294   1.353   0.132 -1.8595  1.9481  2.8741
  640SOL     MW 2560   0.294   1.437   0.105  0.1536  0.0904  0.9301
  641SOL     OW 2561   2.307   0.366   0.394  0.3757 -0.0852 -0.3872
  641SOL    HW1 2562   2.305   0.292   0.330  1.7408  0.3463 -3.6471
  641SOL    HW2 2563   2.353   0.323   0.463  0.3565 -3.1638 -1.6897
  641SOL     MW 2564   2.313   0.351   0.394  0.5532 -0.4345 -0.9891
  642SOL     OW 2565   0.112   3.079   0.476  0.2072 -0.6857  0.2838
  642SOL    HW1 2566   0.096   3.176   0.464  3.0748 -0.0664 -0.3941
  642SOL    HW2 2567   0.024   3.055   0.506  0.8993  3.2465 -2.0516
  642SOL     MW 2568   0.098   3.088   0.479  0.6768 -0.0852 -0.1138
  643SOL     OW 2569   2.137   0.357   1.675 -0.3728  0.0076 -0.1825
  643SOL    HW1 2570   2.051   0.328   1.712 -0.3841 -0.6966  0.6373
  643SOL    HW2 2571   2.154   0.297   1.597 -0.8406 -0.7285 -0.0490
  643SOL     MW 2572   2.128   0.345   1.670 -0.4360 -0.1824 -0.0567
  644SOL     OW 2573   2.698   1.914   0.950  0.2112 -0.2823 -0.2391
  644SOL    HW1 2574   2.700   1.870   1.032 -0.4475  2.8268 -0.9429
  644SOL    HW2 2575   2.607   1.957   0.942  0.0661 -0.1412  1.7313
  644SOL     MW 2576   2.686   1.914   0.960  0.1051  0.1466 -0.0720
  645SOL     OW 2577   2.817   0.994   0.773  0.4605  0.0054 -0.2965
  645SOL    HW1 2578   2.903   0.956   0.767  1.0765  1.0860  3.1533
  645SOL    HW2 2579   2.796   0.981   0.865 -0.3915  1.3582  1.9899
  645SOL     MW 2580   2.826   0.987   0.784  0.4294  0.3264  0.4603
  646SOL     OW 2581   0.123   2.275   0.869 -0.1017  0.1779 -0.9076
  646SOL    HW1 2582   0.139   2.172   0.854  1.6613 -2.7919 -2.6267
  646SOL    HW2 2583   0.069   2.309   0.793 -1.4672  0.2689 -1.3782
  646SOL     MW 2584   0.118   2.266   0.857 -0.0493 -0.2019 -1.1965
  647SOL     OW 2585   2.799   0.500   3.021  0.2242 -0.3958  0.2667
  647SOL    HW1 2586   2.715   0.454   3.017 -0.9318 -1.9567  3.3472
  647SOL    HW2 2587   2.764   0.573   3.071  0.5764  1.6630 -0.9547
  647SOL     MW 2588   2.783   0.504   3.027  0.1181 -0.3301  0.5120
  648SOL     OW 2589   2.122   0.634   1.117 -0.1461 -0.0198 -0.2537
  648SOL    HW1 2590   2.172   0.579   1.181 -0.0409 -0.0459  1.4155
  648SOL    HW2 2591   2.134   0.723   1.153 -0.3221  0.3372  3.1312
  648SOL     MW 2592   2.130   0.639   1.130 -0.1554  0.0239  0.4131
  649SOL     OW 2593   2.417   2.687   1.311  0.1064  0.1973 -0.0333
  649SOL    HW1 2594   2.510   2.707   1.329  1.9714 -2.8483 -0.6958
  649SOL    HW2 2595   2.434   2.592   1.290 -1.2805  0.5552  2.8852
  649SOL     MW 2596   2.431   2.677   1.310  0.1695 -0.1573  0.2644
  650SOL     OW 2597   2.716   0.242   0.506 -0.2669  0.4097  0.6386
  650SOL    HW1 2598   2.787   0.308   0.500  1.5816  0.0301 -0.8546
  650SOL    HW2 2599   2.724   0.190   0.424  2.1084 -1.4359  2.1987
  650SOL     MW 2600   2.726   0.244   0.494  0.2904  0.1161  0.6474
  651SOL     OW 2601   0.005   0.457   1.005 -0.2665  0.3247 -0.1043
  651SOL    HW1 2602   0.035   0.504   0.926 -0.7568  0.8116  0.4853
  651SOL    HW2 2603  -0.076   0.507   1.038 -0.6933  1.3910 -0.7115
  651SOL     MW 2604  -0.002   0.470   0.999 -0.3875  0.5296 -0.1066
  652SOL     OW 2605   2.321   1.435   2.916 -0.7761 -0.0489 -0.6900
  652SOL    HW1 2606   2.387   1.459   2.849  1.6761  1.0036  1.9926
  652SOL    HW2 2607   2.254   1.502   2.929  0.0902 -1.0179 -1.3382
  652SOL     MW 2608   2.321   1.447   2.909 -0.3383 -0.0379 -0.4216
  653SOL     OW 2609   1.850   0.375   0.222 -0.1077 -0.2459 -0.1524
  653SOL    HW1 2610   1.840   0.290   0.178 -0.8780  1.6409 -0.1325
  653SOL    HW2 2611   1.888   0.429   0.150 -1.8696  0.7931 -0.0760
  653SOL     MW 2612   1.854   0.371   0.206 -0.4418  0.1402 -0.1397
  654SOL     OW 2613   2.442   1.011   0.724  0.0600 -0.2215  0.2469
  654SOL    HW1 2614   2.381   0.972   0.666  4.5894  0.5000 -1.0892
  654SOL    HW2 2615   2.479   0.936   0.780 -1.7222  1.2933  1.1584
  654SOL     MW 2616   2.439   0.996   0.724  0.4225  0.0736  0.1909
  655SOL     OW 2617   2.899   0.956   0.303  0.7042  0.2613  0.4477
  655SOL    HW1 2618   2.890   1.013   0.377 -0.2758 -0.5019 -0.3870
  655SOL    HW2 2619   2.957   0.885   0.325  0.0349  0.6159  0.1353
  655SOL     MW 2620   2.905   0.954   0.315  0.4866  0.2074  0.2964
  656SOL     OW 2621   1.758   2.660   1.433 -0.7053  0.2297  0.3016
  656SOL    HW1 2622   1.830   2.722   1.442 -1.3074  0.4954 -0.2821
  656SOL    HW2 2623   1.800   2.581   1.400 -0.3247  1.6454 -0.2755
  656SOL     MW 2624   1.773   2.658   1.430 -0.7345  0.4515  0.1485
  657SOL     OW 2625   0.089   1.779   1.111 -0.1948  0.0549  0.3132
  657SOL    HW1 2626   0.172   1.819   1.115 -0.2583 -2.6657  0.8610
  657SOL    HW2 2627   0.105   1.694   1.148  0.2422  0.1379 -2.2240
  657SOL     MW 2628   0.102   1.773   1.116 -0.1455 -0.2931  0.0507
  658SOL     OW 2629   2.662   1.349   0.214 -0.1816  0.1941 -0.0491
  658SOL    HW1 2630   2.618   1.284   0.265  2.9632 -0.0317  1.2636
  658SOL    HW2 2631   2.681   1.418   0.279 -1.4386 -3.0041 -0.5414
  658SOL     MW 2632   2.659   1.350   0.229  0.0675 -0.2577  0.0591
  659SOL     OW 2633   2.097   1.391   1.041  0.2919 -0.1844  0.2819
  659SOL    HW1 2634   2.159   1.333   1.089 -1.4787  0.8563 -1.5543
  659SOL    HW2 2635   2.083   1.465   1.103  0.5216  0.8579 -0.1815
  659SOL     MW 2636   2.103   1.393   1.056  0.0886  0.0905 -0.0215
  660SOL     OW 2637   2.081   1.612   1.605  0.2844  0.3503  0.2192
  660SOL    HW1 2638   2.105   1.606   1.699 -0.9621  1.3113  0.0615
  660SOL    HW2 2639   2.014   1.539   1.616 -1.0096 -1.3107  1.4420
  660SOL     MW 2640   2.075   1.602   1.619 -0.0508  0.2579  0.3597
  661SOL     OW 2641   2.398   1.000   0.263 -0.7792  0.0214  0.3579
  661SOL    HW1 2642   2.470   1.047   0.315 -0.2102 -1.1998 -1.0746
  661SOL    HW2 2643   2.408   0.905   0.278 -1.0501  2.9648 -0.6702
  661SOL     MW 2644   2.409   0.994   0.272 -0.7399  0.2487  0.0332
  662SOL     OW 2645   2.515   2.999   0.793 -0.3339  0.0804 -0.2336
  662SOL    HW1 2646   2.482   3.082   0.815 -3.1000 -1.3300 -0.1192
  662SOL    HW2 2647   2.595   3.011   0.747  0.0496 -0.2590 -0.9427
  662SOL     MW 2648   2.521   3.011   0.790 -0.6483 -0.1505 -0.3121
  663SOL     OW 2649   2.718   1.539   0.392  0.2964 -0.0006  0.1314
  663SOL    HW1 2650   2.717   1.623   0.348  1.3026 -1.5584  0.4354
  663SOL    HW2 2651   2.741   1.557   0.477 -1.1403 -0.7884 -3.2511
  663SOL     MW 2652   2.721   1.553   0.398  0.2396 -0.3101 -0.2748
  664SOL     OW 2653   2.532   1.477   1.546 -0.2186  0.8395  0.2457
  664SOL    HW1 2654   2.491   1.560   1.520 -1.3191 -0.1525 -2.6247
  664SOL    HW2 2655   2.466   1.407   1.549  1.2103 -0.1210  1.7098
  664SOL     MW 2656   2.518   1.479   1.543 -0.1753  0.5819  0.0602
  665SOL     OW 2657   2.873   0.763   2.139  0.2701 -0.4034  0.7050
  665SOL    HW1 2658   2.840   0.802   2.057  2.1427 -0.7122 -0.2663
  665SOL    HW2 2659   2.956   0.727   2.112  0.5310 -1.4117  2.5489
  665SOL     MW 2660   2.879   0.763   2.125  0.5516 -0.5772  0.8202
  666SOL     OW 2661   2.805   2.972   1.695 -0.1761 -0.3501 -0.6020
  666SOL    HW1 2662   2.771   2.997   1.609 -1.3724  0.3322  0.8397
  666SOL    HW2 2663   2.752   2.892   1.723 -1.3733 -0.9972  1.1403
  666SOL     MW 2664   2.793   2.965   1.688 -0.4919 -0.3454 -0.1819
  667SOL     OW 2665   2.012   2.705   1.736 -0.2962 -0.1359 -0.0703
  667SOL    HW1 2666   2.047   2.673   1.818 -0.1100 -1.0389  1.1423
  667SOL    HW2 2667   2.073   2.770   1.698 -2.8968 -0.4851  1.5533
  667SOL     MW 2668   2.025   2.709   1.741 -0.6147 -0.3011  0.3039
  668SOL     OW 2669   2.789   0.605   0.820 -0.5915  0.6596 -0.1401
  668SOL    HW1 2670   2.817   0.606   0.912  2.3333 -1.6665 -0.7691
  668SOL    HW2 2671   2.708   0.651   0.814 -0.2060 -0.5268  1.4528
  668SOL     MW 2672   2.782   0.612   0.832 -0.1547  0.1962 -0.0129
  669SOL     OW 2673   0.186   1.008   0.673  0.4577  0.3788 -0.1036
  669SOL    HW1 2674   0.156   1.034   0.762 -0.3012 -2.1914  3.0006
  669SOL    HW2 2675   0.270   1.061   0.664 -0.4693 -2.2448  0.4260
  669SOL     MW 2676   0.193   1.018   0.684  0.2353 -0.3064  0.3758
  670SOL     OW 2677   2.907   0.339   0.258 -0.1050 -0.3801 -0.4313
  670SOL    HW1 2678   2.932   0.270   0.198 -0.0073  2.1022  1.2913
  670SOL    HW2 2679   2.938   0.424   0.223 -0.9031  2.4166 -0.8555
  670SOL     MW 2680   2.914   0.341   0.246 -0.1974  0.3164 -0.2600
  671SOL     OW 2681   2.053   3.027   1.460  0.0617 -0.4845  0.3609
  671SOL    HW1 2682   1.979   3.001   1.401  1.4327 -0.3699  0.4739
  671SOL    HW2 2683   2.012   3.051   1.541 -0.9034  1.0908  0.1271
  671SOL     MW 2684   2.038   3.027   1.463  0.1152 -0.2615  0.3450
  672SOL     OW 2685   1.806   1.781   1.303 -0.6679  0.2962  0.0033
  672SOL    HW1 2686   1.825   1.875   1.344 -0.5006  0.7499  0.2650
  672SOL    HW2 2687   1.828   1.791   1.211 -3.6876  0.0101  0.0518
  672SOL     MW 2688   1.811   1.794   1.296 -1.0443  0.3183  0.0442
  673SOL     OW 2689   2.824   1.086   0.527  0.0378 -0.0119 -0.4270
  673SOL    HW1 2690   2.816   1.031   0.603 -2.5396  0.1831  1.6096
  673SOL    HW2 2691   2.906   1.133   0.550  1.7530  0.3927 -1.1987
  673SOL     MW 2692   2.834   1.085   0.540 -0.0760  0.0672 -0.2601
  674SOL     OW 2693   2.458   3.052   1.204  0.2244 -0.2816 -0.1595
  674SOL    HW1 2694   2.414   3.078   1.125  1.3136 -1.5299 -0.3949
  674SOL    HW2 2695   2.502   2.972   1.173 -2.0121 -0.3703  0.5924
  674SOL     MW 2696   2.458   3.045   1.189  0.0730 -0.4580 -0.0913
  675SOL     OW 2697   2.982   0.848   1.072  0.4694 -0.4766 -0.9765
  675SOL    HW1 2698   3.025   0.868   1.156 -1.6086 -1.1239  0.6811
  675SOL    HW2 2699   3.040   0.880   1.001  0.4151  0.1423 -4.0255
  675SOL     MW 2700   2.995   0.855   1.073  0.1881 -0.4804 -1.1601
  676SOL     OW 2701   2.891   1.436   1.736 -0.0810  0.1774 -0.0932
  676SOL    HW1 2702   2.871   1.348   1.705  2.0154 -2.3108  0.9452
  676SOL    HW2 2703   2.935   1.427   1.823 -0.8901 -3.5339 -1.1474
  676SOL     MW 2704   2.894   1.423   1.743  0.0889 -0.6405 -0.0953
  677SOL     OW 2705   2.473   0.717   1.879  0.0954 -0.0963 -0.4589
  677SOL    HW1 2706   2.442   0.629   1.862  1.9710  0.6839 -1.2883
  677SOL    HW2 2707   2.399   0.770   1.906  2.2299  3.5047  3.2736
  677SOL     MW 2708   2.459   0.712   1.880  0.6245  0.4818 -0.0759
  678SOL     OW 2709   2.369   1.572   0.326  0.1684 -0.4442 -0.0036
  678SOL    HW1 2710   2.287   1.573   0.376  0.2504  1.5659 -0.4647
  678SOL    HW2 2711   2.355   1.517   0.244 -0.1613 -0.9551 -1.1742
  678SOL     MW 2712   2.356   1.565   0.321  0.1357 -0.2464 -0.2189
  679SOL     OW 2713   2.278   0.439   1.276 -0.2928  0.5515 -0.5251
  679SOL    HW1 2714   2.274   0.358   1.230  0.7161  0.5028 -1.6461
  679SOL    HW2 2715   2.198   0.438   1.327  0.2748  2.6214 -0.2092
  679SOL     MW 2716   2.267   0.428   1.277 -0.0848  0.8181 -0.6313
  680SOL     OW 2717   2.458   0.160   1.479 -0.5769  0.4917  0.1435
  680SOL    HW1 2718   2.370   0.177   1.453  2.2952  0.7027  2.7948
  680SOL    HW2 2719   2.468   0.062   1.456  0.4412 -1.4492 -1.5477
  680SOL     MW 2720   2.448   0.149   1.472 -0.0636  0.2634  0.2702
  681SOL     OW 2721   0.226   0.576   1.452  0.0879  0.2146  0.2999
  681SOL    HW1 2722   0.201   0.488   1.471  0.2156 -1.4592 -0.9198
  681SOL    HW2 2723   0.243   0.582   1.357  0.1558 -1.3237 -2.4585
  681SOL     MW 2724   0.225   0.565   1.442  0.1137 -0.2092 -0.2249
  682SOL     OW 2725   3.055   2.859   1.528 -0.5752 -0.2066  0.3623
  682SOL    HW1 2726   3.105   2.933   1.550 -2.2597 -2.2701 -1.1748
  682SOL    HW2 2727   2.995   2.873   1.602  0.5371  2.9270 -2.7279
  682SOL     MW 2728   3.053   2.871   1.540 -0.6507 -0.0654 -0.2482
  683SOL     OW 2729   2.116   0.774   3.024  0.5238  0.3386  0.0027
  683SOL    HW1 2730   2.032   0.730   3.045  0.9422  1.9643  1.1369
  683SOL    HW2 2731   2.077   0.862   3.033 -0.5577  0.9943 -1.2871
  683SOL     MW 2732   2.100   0.780   3.028  0.4363  0.6396 -0.0178
  684SOL     OW 2733   2.060   1.756   0.673 -0.1669  0.1237  0.6343
  684SOL    HW1 2734   2.081   1.689   0.602  2.4369  1.5847 -0.3090
  684SOL    HW2 2735   1.984   1.726   0.723  0.7106  0.6638  2.3433
  684SOL     MW 2736   2.053   1.743   0.670  0.2924  0.3877  0.7353
  685SOL     OW 2737   2.633   1.750   1.162 -0.5157  0.1831  0.3545
  685SOL    HW1 2738   2.697   1.715   1.227  0.6633  0.6293  0.0753
  685SOL    HW2 2739   2.586   1.673   1.129  2.5178 -4.5561 -2.6077
  685SOL     MW 2740   2.635   1.735   1.166  0.0401 -0.3833 -0.0732
  686SOL     OW 2741   2.814   0.640   1.553  0.0216  0.3136 -0.7530
  686SOL    HW1 2742   2.808   0.600   1.636 -0.2394 -0.7167 -1.8313
  686SOL    HW2 2743   2.909   0.668   1.548  1.1306 -0.9448 -0.8266
  686SOL     MW 2744   2.826   0.638   1.563  0.1335  0.0116 -0.9050
  687SOL     OW 2745   2.146   0.193   1.090  0.6846  0.3825 -0.3443
  687SOL    HW1 2746   2.223   0.177   1.045  0.9386  3.5443  1.2827
  687SOL    HW2 2747   2.108   0.257   1.028 -2.0301 -0.5997 -1.1165
  687SOL     MW 2748   2.151   0.200   1.076  0.3599  0.6701 -0.2315
  688SOL     OW 2749   2.470   0.597   1.475  0.4184  0.1197  0.7696
  688SOL    HW1 2750   2.431   0.533   1.411  0.7465  0.6666 -1.0059
  688SOL    HW2 2751   2.395   0.635   1.521 -0.2699 -0.4520  0.3748
  688SOL     MW 2752   2.455   0.594   1.472  0.3708  0.1164  0.4832
  689SOL     OW 2753   2.498   0.741   3.005 -0.1296  0.0295  0.2235
  689SOL    HW1 2754   2.423   0.795   3.039  1.4124  1.3554  1.7896
  689SOL    HW2 2755   2.569   0.726   3.070  1.0404  1.4964  1.9877
  689SOL     MW 2756   2.498   0.746   3.018  0.2282  0.3980  0.6629
  690SOL     OW 2757   2.015   0.972   1.837 -0.1329  0.3003 -0.2134
  690SOL    HW1 2758   1.988   0.880   1.853 -2.5825  2.2200  0.5626
  690SOL    HW2 2759   2.060   0.971   1.753  2.6326 -0.1968 -1.6300
  690SOL     MW 2760   2.017   0.959   1.828 -0.0912  0.4880 -0.2979
  691SOL     OW 2761   2.425   0.312   0.875 -0.1136 -0.0078  0.0495
  691SOL    HW1 2762   2.517   0.329   0.894  0.3056  1.9247 -0.5010
  691SOL    HW2 2763   2.411   0.392   0.826  0.1014 -2.3133  0.5278
  691SOL     MW 2764   2.435   0.325   0.871 -0.0299 -0.0570  0.0400
  692SOL     OW 2765   2.759   1.633   1.393 -0.1895  0.3989 -0.1096
  692SOL    HW1 2766   2.721   1.596   1.470  0.6901 -3.8945 -2.3714
  692SOL    HW2 2767   2.804   1.709   1.427 -2.3904  1.4915 -1.2702
  692SOL     MW 2768   2.760   1.638   1.408 -0.3638 -0.0234 -0.5611
  693SOL     OW 2769   2.245   0.455  -0.004 -0.7560 -0.5984 -0.5122
  693SOL    HW1 2770   2.201   0.388   0.035 -0.4467  1.1458 -1.6200
  693SOL    HW2 2771   2.234   0.534   0.048  1.4719 -2.1937  2.0159
  693SOL     MW 2772   2.238   0.457   0.008 -0.4212 -0.5788 -0.3248
  694SOL     OW 2773   1.952   1.194   1.191  0.5418 -0.0444 -0.0733
  694SOL    HW1 2774   2.037   1.177   1.147  1.5472 -0.7402 -2.7061
  694SOL    HW2 2775   1.902   1.108   1.202  1.7397 -2.1603  1.7898
  694SOL     MW 2776   1.956   1.180   1.186  0.8325 -0.4153 -0.1749
  695SOL     OW 2777   2.936   1.431   1.287 -0.0712  0.4404  0.4455
  695SOL    HW1 2778   2.939   1.422   1.188 -2.4204 -0.0541 -0.2671
  695SOL    HW2 2779   2.874   1.503   1.310 -0.0359 -2.9795  0.7265
  695SOL     MW 2780   2.928   1.439   1.277 -0.3765 -0.0761  0.3886
  696SOL     OW 2781   2.045   1.372   0.747  0.1092 -0.7070  0.0687
  696SOL    HW1 2782   2.106   1.408   0.808 -1.4209 -1.4180  2.0371
  696SOL    HW2 2783   1.998   1.305   0.798 -2.0754  1.0441  0.8035
  696SOL     MW 2784   2.047   1.368   0.762 -0.3809 -0.5698  0.4254
  697SOL     OW 2785   2.916   1.047   2.231  0.4386  0.2545  0.0957
  697SOL    HW1 2786   2.829   1.078   2.224  0.7236  0.0923  1.6590
  697SOL    HW2 2787   2.922   0.953   2.197  0.9970 -1.8402 -0.6307
  697SOL     MW 2788   2.905   1.039   2.226  0.5499 -0.0433  0.2061
  698SOL     OW 2789   2.516   0.392   3.069 -0.4710 -0.3660 -0.0926
  698SOL    HW1 2790   2.426   0.432   3.090 -0.2285 -3.6109 -0.3761
  698SOL    HW2 2791   2.548   0.352   3.147 -0.6407  3.1809 -1.7285
  698SOL     MW 2792   2.508   0.392   3.082 -0.4614 -0.3261 -0.3458
  699SOL     OW 2793   1.868   1.570   1.999 -0.3549 -0.0109 -0.2301
  699SOL    HW1 2794   1.846   1.479   2.030  1.4476 -1.8159 -0.6922
  699SOL    HW2 2795   1.954   1.562   1.959 -1.0999  0.4335 -1.5699
  699SOL     MW 2796   1.877   1.557   1.998 -0.2154 -0.1904 -0.4679
  700SOL     OW 2797   2.704   0.894   1.598  0.2314  0.3237 -0.7062
  700SOL    HW1 2798   2.765   0.948   1.555  2.2456 -1.2961  1.5069
  700SOL    HW2 2799   2.738   0.803   1.589  1.8077 -0.6143 -0.3410
  700SOL     MW 2800   2.716   0.889   1.591  0.7051 -0.0138 -0.3660
  701SOL     OW 2801   1.641   1.071   2.583 -0.7927  0.1320  0.4212
  701SOL    HW1 2802   1.725   1.045   2.615 -1.3757 -1.5745  1.2132
  701SOL    HW2 2803   1.616   1.164   2.611 -0.0268 -1.8412 -0.6967
  701SOL     MW 2804   1.649   1.080   2.591 -0.7686 -0.3535  0.3782
  702SOL     OW 2805   2.069   0.484   0.685  0.3291  0.0540  0.2794
  702SOL    HW1 2806   2.079   0.383   0.670 -0.9362  3.1129 -0.7816
  702SOL    HW2 2807   2.140   0.532   0.632 -1.1787  0.2094 -1.5489
  702SOL     MW 2808   2.080   0.477   0.676 -0.0368  0.4781 -0.1018
  703SOL     OW 2809   2.699   1.254   0.996 -0.3503  0.5181 -0.0319
  703SOL    HW1 2810   2.672   1.226   0.907  1.7734 -0.1327 -1.8247
  703SOL    HW2 2811   2.708   1.163   1.038 -1.5464 -0.9426 -0.8997
  703SOL     MW 2812   2.697   1.239   0.990 -0.2279  0.2395 -0.3829
  704SOL     OW 2813   3.055   1.289   0.163 -0.0262 -0.1043  0.2320
  704SOL    HW1 2814   2.967   1.270   0.121  0.6916  0.7295 -0.6872
  704SOL    HW2 2815   3.035   1.293   0.257 -0.8860 -0.3778  0.1853
  704SOL     MW 2816   3.041   1.287   0.170 -0.0450 -0.0304  0.1045
  705SOL     OW 2817   2.046   1.612   1.299  0.3572 -0.2668 -0.2620
  705SOL    HW1 2818   1.980   1.678   1.311  1.7157  1.3265  1.9988
  705SOL    HW2 2819   2.071   1.599   1.392 -0.7849  3.1093  0.6531
  705SOL     MW 2820   2.040   1.619   1.313  0.3858  0.3889  0.1570
  706SOL     OW 2821   3.041   1.181   0.678  1.1270 -0.3812 -0.6255
  706SOL    HW1 2822   3.115   1.170   0.613  4.2142 -0.5699 -1.0852
  706SOL    HW2 2823   3.022   1.276   0.686 -2.1031  0.0671 -2.2412
  706SOL     MW 2824   3.048   1.192   0.671  1.1081 -0.3469 -0.8993
  707SOL     OW 2825   2.329   0.051   0.945 -0.3083 -0.2780 -0.0679
  707SOL    HW1 2826   2.365   0.133   0.904  0.2557  1.5359 -2.3280
  707SOL    HW2 2827   2.254   0.020   0.897  1.1984 -0.0005  2.5867
  707SOL     MW 2828   2.323   0.058   0.933 -0.0351 -0.0020 -0.0159
  708SOL     OW 2829   2.392   1.422   0.099 -0.0691  0.0667 -0.7227
  708SOL    HW1 2830   2.486   1.408   0.118 -0.6030  0.4593  0.4354
  708SOL    HW2 2831   2.391   1.440   0.005 -1.6140  0.2378  1.1939
  708SOL     MW 2832   2.404   1.423   0.089 -0.3434  0.1411 -0.3170
  709SOL     OW 2833   1.691   1.601   0.223  0.2263 -0.6474  0.1104
  709SOL    HW1 2834   1.666   1.630   0.133 -2.6137  0.9063  0.5034
  709SOL    HW2 2835   1.612   1.620   0.281 -0.2822 -2.4823  1.8651
  709SOL     MW 2836   1.677   1.607   0.219 -0.2155 -0.6845  0.3938
  710SOL     OW 2837   2.252   1.169   1.149  0.3185  0.2187 -0.8190
  710SOL    HW1 2838   2.250   1.109   1.072 -3.8412 -0.0922 -1.4282
  710SOL    HW2 2839   2.294   1.108   1.211  2.2362 -0.1019 -0.3237
  710SOL     MW 2840   2.257   1.153   1.147  0.0227  0.1354 -0.8340
  711SOL     OW 2841   2.382   0.084   1.782  0.4764 -0.2152 -0.3869
  711SOL    HW1 2842   2.471   0.079   1.822 -0.3867  1.5140  2.4099
  711SOL    HW2 2843   2.408   0.131   1.701 -1.0895  0.0011 -2.7068
  711SOL     MW 2844   2.397   0.089   1.777  0.1559  0.0415 -0.3240
  712SOL     OW 2845   1.891   0.618   3.085 -0.1559  0.0680 -0.0053
  712SOL    HW1 2846   1.836   0.652   3.013  1.7451 -0.5310  2.2581
  712SOL    HW2 2847   1.845   0.661   3.165 -1.9279 -1.4899 -0.3986
  712SOL     MW 2848   1.878   0.628   3.086 -0.1389 -0.2165  0.2414
  713SOL     OW 2849   2.583   0.682   1.121  0.5239  0.0722 -0.1199
  713SOL    HW1 2850   2.601   0.587   1.138  0.1129 -1.0075 -1.9396
  713SOL    HW2 2851   2.566   0.729   1.204 -2.2394 -1.8941  0.2462
  713SOL     MW 2852   2.583   0.676   1.134  0.1051 -0.3297 -0.3117
  714SOL     OW 2853   2.229   0.206   1.995 -0.2955 -0.0671 -0.2976
  714SOL    HW1 2854   2.276   0.145   2.048 -0.9109 -0.3378 -1.5980
  714SOL    HW2 2855   2.264   0.180   1.912 -0.9081  0.9363 -0.1284
  714SOL     MW 2856   2.240   0.195   1.991 -0.4576  0.0296 -0.4469
  715SOL     OW 2857   1.834   1.987   1.693  0.3582 -0.2281  0.0927
  715SOL    HW1 2858   1.927   2.014   1.717 -1.0442 -0.7082 -0.7443
  715SOL    HW2 2859   1.806   1.902   1.735  0.6622 -2.4222 -0.2590
  715SOL     MW 2860   1.843   1.979   1.702  0.2133 -0.5810 -0.0641
  716SOL     OW 2861   2.448   0.530   0.736 -0.0243  0.0029  0.2194
  716SOL    HW1 2862   2.521   0.504   0.690 -1.2487  1.1429  0.5789
  716SOL    HW2 2863   2.376   0.541   0.675 -0.8600  2.5568 -1.6809
  716SOL     MW 2864   2.448   0.528   0.722 -0.2961  0.4903  0.0161
  717SOL     OW 2865   2.785   1.675   2.841 -0.2520  0.7154  0.3084
  717SOL    HW1 2866   2.858   1.629   2.887  2.4158 -0.5311  2.5967
  717SOL    HW2 2867   2.741   1.720   2.910  2.4349 -1.2046 -1.1543
  717SOL     MW 2868   2.789   1.674   2.856  0.4545  0.2976  0.4173
  718SOL     OW 2869   2.638   1.313   1.305  0.0185 -0.2727  0.2711
  718SOL    HW1 2870   2.614   1.354   1.393  2.5859 -1.6271  1.0318
  718SOL    HW2 2871   2.724   1.338   1.282 -1.1069 -0.4075 -0.7504
  718SOL     MW 2872   2.646   1.321   1.314  0.2088 -0.4692  0.2367
  719SOL     OW 2873   2.190   1.255   0.524 -0.1213 -0.7079 -0.3139
  719SOL    HW1 2874   2.282   1.290   0.519 -1.5526  0.6681 -0.7533
  719SOL    HW2 2875   2.139   1.291   0.605 -2.1892 -2.4641  0.0504
  719SOL     MW 2876   2.195   1.264   0.534 -0.5830 -0.7581 -0.3238
  720SOL     OW 2877   2.835   1.246   0.034  0.6919  0.5688  0.4740
  720SOL    HW1 2878   2.803   1.156   0.027 -2.5500 -0.0158  0.6929
  720SOL    HW2 2879   2.780   1.287   0.099  2.0547  1.2672  1.2324
  720SOL     MW 2880   2.823   1.240   0.041  0.4439  0.5839  0.6029
  721SOL     OW 2881   2.576   0.816   1.355  0.0822 -0.3670  0.1416
  721SOL    HW1 2882   2.556   0.731   1.403 -1.1013 -2.5914 -0.2085
  721SOL    HW2 2883   2.632   0.863   1.417 -0.4594  1.9724  4.7055
  721SOL     MW 2884   2.580   0.811   1.370 -0.1454 -0.3518  0.6976
  722SOL     OW 2885   2.576   1.138   0.405  0.2448 -0.0599  0.0329
  722SOL    HW1 2886   2.540   1.213   0.454  0.9513 -2.0566 -0.4795
  722SOL    HW2 2887   2.661   1.120   0.449  0.0060 -0.7571  0.7252
  722SOL     MW 2888   2.582   1.146   0.417  0.3065 -0.4153  0.0566
  723SOL     OW 2889   2.286   1.337   1.543 -0.2828  0.2496 -0.2000
  723SOL    HW1 2890   2.313   1.352   1.453  3.9928  0.9769  1.0040
  723SOL    HW2 2891   2.226   1.401   1.570 -1.8620 -0.9065 -0.7129
  723SOL     MW 2892   2.282   1.348   1.535  0.0730  0.1930 -0.1088
  724SOL     OW 2893   2.481   0.257   0.617  0.3084 -0.4617  0.1737
  724SOL    HW1 2894   2.475   0.269   0.711  2.1150  1.0159 -0.6766
  724SOL    HW2 2895   2.573   0.269   0.587  1.1765 -0.3896 -1.7037
  724SOL     MW 2896   2.492   0.260   0.625  0.6613 -0.2573 -0.1862
  725SOL     OW 2897   2.647   0.420   1.191  0.4314 -0.3879 -0.8333
  725SOL    HW1 2898   2.719   0.432   1.248 -1.1635  0.6141 -0.6354
  725SOL    HW2 2899   2.582   0.370   1.237 -1.1917 -1.2182  0.8619
  725SOL     MW 2900   2.648   0.415   1.205  0.0068 -0.3652 -0.5835
  726SOL     OW 2901   2.494   2.476   0.438 -0.6218  0.3124  0.1394
  726SOL    HW1 2902   2.514   2.518   0.354  2.5467 -0.6543  0.0721
  726SOL    HW2 2903   2.484   2.546   0.495 -1.7014  1.8527  1.4085
  726SOL     MW 2904   2.496   2.491   0.434 -0.3462  0.3881  0.2979
  727SOL     OW 2905   2.868   0.312   1.728  0.2451 -0.1267 -0.2903
  727SOL    HW1 2906   2.802   0.294   1.661 -0.2577  0.2215  0.2711
  727SOL    HW2 2907   2.843   0.262   1.800 -0.2120  2.3671 -0.3850
  727SOL     MW 2908   2.856   0.303   1.729  0.1185  0.2483 -0.2287
  728SOL     OW 2909   2.804   1.182   2.861 -0.4884  0.1872 -0.2186
  728SOL    HW1 2910   2.808   1.236   2.785  0.1305  0.9042  2.0378
  728SOL    HW2 2911   2.802   1.242   2.938 -0.0856 -1.6067 -0.4172
  728SOL     MW 2912   2.804   1.197   2.862 -0.3536  0.0451  0.0529
  729SOL     OW 2913   2.551   1.513   1.062  0.3927 -0.3167  0.3626
  729SOL    HW1 2914   2.575   1.425   1.087 -2.4458 -1.1543 -0.3962
  729SOL    HW2 2915   2.533   1.506   0.970 -1.3770 -0.2184  0.2142
  729SOL     MW 2916   2.552   1.501   1.054 -0.2153 -0.4143  0.2429
  730SOL     OW 2917   2.173   1.148   0.199 -0.0033 -0.3467  0.0289
  730SOL    HW1 2918   2.262   1.103   0.218  1.1423 -1.2377  0.5666
  730SOL    HW2 2919   2.192   1.239   0.177  1.7995  1.0127  1.8107
  730SOL     MW 2920   2.187   1.154   0.198  0.3857 -0.2849  0.3349
  731SOL     OW 2921   2.779   1.984   2.918  0.2830 -0.4105  0.2170
  731SOL    HW1 2922   2.724   1.991   2.847  0.9299 -0.8996  0.2508
  731SOL    HW2 2923   2.861   1.971   2.873  1.1563  2.1532  1.4917
  731SOL     MW 2924   2.782   1.984   2.903  0.4835 -0.1368  0.3896
  732SOL     OW 2925   2.321   0.982   1.342  0.1216 -0.0813  0.0143
  732SOL    HW1 2926   2.308   0.995   1.436  0.6341  0.4249  2.7678
  732SOL    HW2 2927   2.400   0.925   1.342  1.4417 -0.0771  1.4248
  732SOL     MW 2928   2.329   0.976   1.354  0.3634 -0.0139  0.5637
  733SOL     OW 2929   2.398   2.694   2.993 -0.3762 -0.5680  0.0737
  733SOL    HW1 2930   2.315   2.740   2.999 -1.6461  3.5951 -3.6658
  733SOL    HW2 2931   2.372   2.603   2.991  1.7512  0.3672 -0.3278
  733SOL     MW 2932   2.383   2.688   2.994 -0.2631  0.1047 -0.4727
  734SOL     OW 2933   1.511   0.277   2.505  0.4767  0.5615 -0.1520
  734SOL    HW1 2934   1.499   0.239   2.593 -0.3554  1.2195  0.5795
  734SOL    HW2 2935   1.448   0.233   2.449  3.0896 -3.3470  1.9167
  734SOL     MW 2936   1.501   0.266   2.509  0.7117  0.1326  0.2175
  735SOL     OW 2937   3.015   0.869   2.689  0.3566 -0.1287  0.5017
  735SOL    HW1 2938   3.008   0.772   2.697 -2.1642 -0.2211 -0.2056
  735SOL    HW2 2939   3.003   0.903   2.780 -0.8077  0.6014 -0.0260
  735SOL     MW 2940   3.012   0.861   2.702 -0.1296 -0.0445  0.3388
  736SOL     OW 2941   0.132   0.561   2.525  0.3393 -0.5039 -0.2111
  736SOL    HW1 2942   0.114   0.648   2.471  0.7377  1.4666 -0.6072
  736SOL    HW2 2943   0.180   0.498   2.463  0.9010 -0.0397 -0.0728
  736SOL     MW 2944   0.136   0.564   2.509  0.4659 -0.1827 -0.2451
  737SOL     OW 2945   2.994   0.575   2.650  0.5082 -0.5834  0.2601
  737SOL    HW1 2946   2.936   0.587   2.571  0.5710  1.9303 -0.1174
  737SOL    HW2 2947   3.076   0.564   2.604 -1.8899 -2.0744  1.9596
  737SOL     MW 2948   2.997   0.575   2.634  0.2001 -0.4485  0.4345
  738SOL     OW 2949   0.105   0.412   1.850 -0.2243 -0.0538  0.2699
  738SOL    HW1 2950   0.179   0.472   1.842  0.3850  1.5020  0.7552
  738SOL    HW2 2951   0.097   0.392   1.755  0.3026  0.2677 -0.9017
  738SOL     MW 2952   0.114   0.417   1.837 -0.0744  0.1939  0.1794
  739SOL     OW 2953   2.527   0.986   2.106  0.3559 -0.1521 -0.0107
  739SOL    HW1 2954   2.465   1.000   2.043 -2.1731  2.0650  2.6022
  739SOL    HW2 2955   2.536   0.893   2.103  0.6213 -0.4476  1.5852
  739SOL     MW 2956   2.520   0.975   2.097  0.0572  0.1014  0.5446
  740SOL     OW 2957   0.139   1.773   2.950  0.5752  0.5685 -0.5325
  740SOL    HW1 2958   0.076   1.703   2.961 -1.3192 -1.4849  1.6827
  740SOL    HW2 2959   0.216   1.743   3.003  2.2144  0.2808  0.7102
  740SOL     MW 2960   0.141   1.760   2.959  0.5415  0.2596 -0.0762
  741SOL     OW 2961   2.244   1.160   2.716  0.0388  0.3281 -0.0230
  741SOL    HW1 2962   2.186   1.228   2.685  0.1428 -1.0800 -0.6881
  741SOL    HW2 2963   2.223   1.153   2.817  0.5594 -0.1605  0.6638
  741SOL     MW 2964   2.233   1.168   2.725  0.1212  0.0778 -0.0202
  742SOL     OW 2965   1.541   1.223   2.316 -0.3358  0.1115  0.9663
  742SOL    HW1 2966   1.466   1.160   2.328 -0.1804 -0.5054  2.2077
  742SOL    HW2 2967   1.588   1.222   2.398 -0.1281  1.3681 -0.2253
  742SOL     MW 2968   1.537   1.214   2.328 -0.2879  0.1959  0.9728
  743SOL     OW 2969   2.531   1.234   2.697  1.3029  0.0047 -0.6961
  743SOL    HW1 2970   2.429   1.225   2.703 -2.9387  1.1988 -1.2597
  743SOL    HW2 2971   2.566   1.192   2.774  1.1039  2.4879  0.6976
  743SOL     MW 2972   2.522   1.227   2.708  0.7170  0.4899 -0.5865
  744SOL     OW 2973   2.722   0.858   1.929  0.4228  0.5240 -0.2957
  744SOL    HW1 2974   2.692   0.948   1.946  0.5631  2.1075 -1.3547
  744SOL    HW2 2975   2.666   0.823   1.856  1.3612  0.6710 -0.5374
  744SOL     MW 2976   2.711   0.865   1.922  0.5651  0.7524 -0.4673
  745SOL     OW 2977   1.694   0.473   2.484  0.4183 -0.5009 -0.3256
  745SOL    HW1 2978   1.705   0.498   2.392  0.3206 -0.0866  1.5205
  745SOL    HW2 2979   1.619   0.410   2.484 -1.7424 -0.2465  2.7596
  745SOL     MW 2980   1.686   0.468   2.472  0.1203 -0.4127  0.3250
  746SOL     OW 2981   1.584   1.492   1.650  0.1042  0.4397  0.4940
  746SOL    HW1 2982   1.663   1.502   1.693 -1.2060  1.2113  0.0584
  746SOL    HW2 2983   1.528   1.502   1.726  0.9492  0.2989 -0.0293
  746SOL     MW 2984   1.587   1.495   1.666  0.0428  0.5229  0.3675
  747SOL     OW 2985   2.616   1.135   1.813 -0.3383  0.3329  0.1302
  747SOL    HW1 2986   2.523   1.119   1.787  1.2589 -1.4544  0.9768
  747SOL    HW2 2987   2.601   1.199   1.885 -1.0064 -3.4344  1.2391
  747SOL     MW 2988   2.602   1.141   1.819 -0.2157 -0.4000  0.3882
  748SOL     OW 2989   0.083   0.117   1.882  0.0333  0.0501 -0.6464
  748SOL    HW1 2990   0.172   0.087   1.900 -3.8851  0.1539  1.8195
  748SOL    HW2 2991   0.088   0.210   1.895  0.3245 -1.3157 -3.4086
  748SOL     MW 2992   0.096   0.125   1.886 -0.4453 -0.1164 -0.6855
  749SOL     OW 2993   2.568   0.596   2.784  0.5435  0.1243  0.0329
  749SOL    HW1 2994   2.593   0.666   2.719  0.9637  1.3314  1.0447
  749SOL    HW2 2995   2.547   0.642   2.871  0.6287  0.7465  0.4593
  749SOL     MW 2996   2.569   0.612   2.787  0.6102  0.3656  0.2227
  750SOL     OW 2997   2.047   3.087   1.967  0.7312  0.3283 -0.3736
  750SOL    HW1 2998   2.083   3.174   1.991  0.0536  0.8185  0.7676
  750SOL    HW2 2999   2.125   3.020   1.964  1.5238  0.8413 -0.7678
  750SOL     MW 3000   2.062   3.089   1.970  0.7464  0.4607 -0.2751
  751SOL     OW 3001   0.281   0.339   2.411 -0.5371  0.4407 -0.1532
  751SOL    HW1 3002   0.248   0.265   2.456  3.3426  0.9537  1.2780
  751SOL    HW2 3003   0.301   0.308   2.324 -0.6341  3.3602 -0.3085
  751SOL     MW 3004   0.279   0.325   2.406 -0.0380  0.8936  0.0151
  752SOL     OW 3005   2.144   0.835   2.748  0.1264  0.1272  0.5951
  752SOL    HW1 3006   2.220   0.885   2.725 -0.4999 -2.3055  0.5081
  752SOL    HW2 3007   2.152   0.813   2.843 -3.2340  0.3422  0.9353
  752SOL     MW 3008   2.155   0.839   2.758 -0.3996 -0.1654  0.6285
  753SOL     OW 3009   2.790   0.145   2.403  0.2123 -0.3180  0.0368
  753SOL    HW1 3010   2.773   0.051   2.384  0.2929 -0.8815  0.0189
  753SOL    HW2 3011   2.738   0.192   2.341 -0.4403  0.4422  0.8403
  753SOL     MW 3012   2.781   0.139   2.392  0.1368 -0.2921  0.1405
  754SOL     OW 3013   2.271   2.957   2.638  0.0271  0.1769  0.5445
  754SOL    HW1 3014   2.292   2.986   2.549  2.0184  1.5608  1.0297
  754SOL    HW2 3015   2.347   2.905   2.663  1.5641  1.1508 -0.6886
  754SOL     MW 3016   2.284   2.954   2.629  0.4927  0.4880  0.4458
  755SOL     OW 3017   2.748   1.532   2.398  0.1033 -0.3073 -0.3604
  755SOL    HW1 3018   2.752   1.462   2.462  0.2997 -0.3540 -0.3876
  755SOL    HW2 3019   2.797   1.610   2.436 -0.6258 -0.6129  4.4942
  755SOL     MW 3020   2.755   1.533   2.412  0.0330 -0.3538  0.2765
  756SOL     OW 3021   2.217   1.200   2.980 -0.4653  0.2558  0.0270
  756SOL    HW1 3022   2.262   1.282   2.952 -1.1105  2.0268  1.1763
  756SOL    HW2 3023   2.287   1.152   3.031  0.2224  1.6080  1.2104
  756SOL     MW 3024   2.232   1.204   2.983 -0.4597  0.6679  0.3348
  757SOL     OW 3025   2.192   0.931   1.610  0.5331 -0.0587 -0.0443
  757SOL    HW1 3026   2.224   0.841   1.606  0.4649  3.2141 -1.6971
  757SOL    HW2 3027   2.104   0.912   1.566 -0.6758 -1.6111  0.5349
  757SOL     MW 3028   2.184   0.917   1.604  0.3646  0.1683 -0.1860
  758SOL     OW 3029   2.222   1.816   2.624 -0.1913  0.0954  0.2859
  758SOL    HW1 3030   2.227   1.850   2.533  4.3475  3.5829 -1.4547
  758SOL    HW2 3031   2.301   1.763   2.632  1.1757  0.1145 -1.4329
  758SOL     MW 3032   2.233   1.814   2.613  0.5879  0.5580 -0.1706
  759SOL     OW 3033   1.547   1.282   2.713  0.2033  0.2472 -0.2395
  759SOL    HW1 3034   1.530   1.358   2.660 -1.9647 -1.2361  1.4835
  759SOL    HW2 3035   1.593   1.315   2.795  0.8880  1.2328 -2.7831
  759SOL     MW 3036   1.551   1.297   2.717  0.0076  0.1815 -0.3478
  760SOL     OW 3037   2.572   1.988   2.706  0.4298 -0.1965 -0.5771
  760SOL    HW1 3038   2.549   1.897   2.672  0.6358  0.5308  1.9219
  760SOL    HW2 3039   2.580   2.050   2.633 -0.1334 -1.6822  1.3034
  760SOL     MW 3040   2.570   1.984   2.692  0.3826 -0.2966  0.0008
  761SOL     OW 3041   2.205   0.415   2.544  0.7473  0.0449 -0.1643
  761SOL    HW1 3042   2.138   0.359   2.592 -1.7267 -2.2498 -1.3517
  761SOL    HW2 3043   2.222   0.474   2.618  0.7136  0.1045 -1.2257
  761SOL     MW 3044   2.198   0.415   2.560  0.4165 -0.2500 -0.4610
  762SOL     OW 3045   3.060   0.238   2.158  0.2792  0.5731  0.3806
  762SOL    HW1 3046   3.102   0.170   2.209 -0.1718 -2.9129 -1.9705
  762SOL    HW2 3047   3.067   0.323   2.209  2.3999 -0.7107  0.7058
  762SOL     MW 3048   3.066   0.240   2.171  0.4995 -0.0562  0.1133
  763SOL     OW 3049   2.341   1.035   2.336  0.4719 -0.0371 -0.3591
  763SOL    HW1 3050   2.385   0.995   2.260  0.4281 -0.0839 -1.3450
  763SOL    HW2 3051   2.397   1.115   2.355 -0.1572  0.1028  2.6737
  763SOL     MW 3052   2.354   1.040   2.329  0.3831 -0.0248 -0.0890
  764SOL     OW 3053   0.404   0.285   2.840  0.0286  0.1774  0.6187
  764SOL    HW1 3054   0.315   0.247   2.827 -0.3948 -0.4050  0.3108
  764SOL    HW2 3055   0.392   0.374   2.881 -0.6047  1.6324 -1.8168
  764SOL     MW 3056   0.391   0.292   2.843 -0.1108  0.2925  0.2567
  765SOL     OW 3057   2.725   2.975   2.396 -0.2130 -0.8561  0.2504
  765SOL    HW1 3058   2.669   2.962   2.321 -0.6864  0.5056 -0.4947
  765SOL    HW2 3059   2.807   2.932   2.364  0.1217 -0.3639 -1.2221
  765SOL     MW 3060   2.728   2.968   2.382 -0.2313 -0.6115 -0.0422
  766SOL     OW 3061   1.910   2.963   2.175  0.4857  0.0646 -0.2693
  766SOL    HW1 3062   1.946   3.025   2.105 -1.8598  0.7291 -2.1906
  766SOL    HW2 3063   1.832   2.915   2.133 -0.6437  0.9840 -0.4934
  766SOL     MW 3064   1.904   2.965   2.160  0.0272  0.2736 -0.5523
  767SOL     OW 3065   2.635   0.596   2.124  0.1340  0.1096 -0.7094
  767SOL    HW1 3066   2.720   0.637   2.153  1.1208 -2.9983 -0.7863
  767SOL    HW2 3067   2.598   0.646   2.049 -0.4715 -1.2896 -1.7344
  767SOL     MW 3068   2.642   0.608   2.118  0.1843 -0.4851 -0.8547
  768SOL     OW 3069   3.017   1.549   2.940 -0.8502 -0.0167 -0.0411
  768SOL    HW1 3070   3.028   1.534   3.031  0.1803 -0.5996  1.0280
  768SOL    HW2 3071   3.070   1.489   2.887 -1.8635 -0.6753  1.8928
  768SOL     MW 3072   3.025   1.539   2.945 -0.8480 -0.1805  0.3551
  769SOL     OW 3073   2.489   0.654   2.343  0.3389 -0.1767  1.3878
  769SOL    HW1 3074   2.543   0.630   2.414 -2.2819  0.1701  0.9528
  769SOL    HW2 3075   2.541   0.637   2.265 -0.1504 -0.4234 -0.6180
  769SOL     MW 3076   2.503   0.649   2.342 -0.0714 -0.1635  1.0657
  770SOL     OW 3077   3.093   1.621   2.523 -0.4255  0.1153 -0.1186
  770SOL    HW1 3078   3.016   1.661   2.554 -1.3084 -2.1273 -2.2632
  770SOL    HW2 3079   3.074   1.531   2.472  3.0753 -2.3795  3.0658
  770SOL     MW 3080   3.080   1.614   2.520 -0.0801 -0.5098  0.0186
  771SOL     OW 3081   3.068   0.615   1.984  0.4687 -0.2595  0.0243
  771SOL    HW1 3082   2.977   0.612   1.950 -0.5577  1.7262 -2.2294
  771SOL    HW2 3083   3.092   0.532   1.938 -0.2337 -0.5834  1.9051
  771SOL     MW 3084   3.059   0.604   1.974  0.2406 -0.0402 -0.0249
  772SOL     OW 3085   0.065   3.099   2.289 -0.2601  0.4671 -0.0232
  772SOL    HW1 3086  -0.017   3.061   2.263  0.7144  2.0774 -0.9303
  772SOL    HW2 3087   0.130   3.065   2.229 -1.5254  2.3859  1.7824
  772SOL     MW 3088   0.063   3.090   2.278 -0.2985  0.9327  0.0953
  773SOL     OW 3089   2.476   2.817   2.761  0.3538 -0.1785  0.5001
  773SOL    HW1 3090   2.481   2.751   2.696  1.2984  1.0114 -0.3869
  773SOL    HW2 3091   2.458   2.774   2.848 -0.4564 -1.5019 -0.0182
  773SOL     MW 3092   2.474   2.802   2.764  0.3715 -0.1961  0.3147
  774SOL     OW 3093   2.299   1.133   1.746 -0.6427 -0.0491  0.2503
  774SOL    HW1 3094   2.285   1.194   1.671 -0.0426 -0.0282  0.5507
  774SOL    HW2 3095   2.258   1.056   1.708 -1.1297  1.3593 -1.7808
  774SOL     MW 3096   2.291   1.131   1.731 -0.6278  0.1395  0.0219
  775SOL     OW 3097   2.308   2.916   2.346 -0.0160 -0.2792  0.1202
  775SOL    HW1 3098   2.317   2.979   2.275  0.2179 -0.8723  0.5201
  775SOL    HW2 3099   2.355   2.844   2.312  0.0953  0.3547  1.6122
  775SOL     MW 3100   2.315   2.915   2.332  0.0295 -0.2738  0.3698
  776SOL     OW 3101   0.021   1.531   0.091 -0.1234 -0.2692  0.7294
  776SOL    HW1 3102   0.112   1.517   0.099 -1.0961  1.4929 -1.5323
  776SOL    HW2 3103  -0.016   1.445   0.111  0.3091  3.3127 -1.1453
  776SOL     MW 3104   0.028   1.517   0.095 -0.1947  0.4359  0.1837
  777SOL     OW 3105   2.934   0.965   1.768 -0.4988 -0.2343  0.6228
  777SOL    HW1 3106   2.901   1.048   1.729  1.1391 -1.8104  4.3385
  777SOL    HW2 3107   2.857   0.932   1.817 -1.7240 -0.6011 -0.4935
  777SOL     MW 3108   2.919   0.971   1.769 -0.4444 -0.4906  0.9658
  778SOL     OW 3109   2.893   0.350   2.785  0.6224  0.0271 -0.0030
  778SOL    HW1 3110   2.852   0.387   2.862 -2.2089 -0.7588 -2.9878
  778SOL    HW2 3111   2.929   0.434   2.741  0.1036  1.1194  2.3747
  778SOL     MW 3112   2.893   0.366   2.789  0.1804  0.0675 -0.0831
  779SOL     OW 3113   2.102   0.532   2.324 -0.4055 -0.0238  0.4142
  779SOL    HW1 3114   2.060   0.609   2.350  2.1049 -0.2271  0.4508
  779SOL    HW2 3115   2.136   0.485   2.400  1.6468 -2.8561 -3.8815
  779SOL     MW 3116   2.101   0.536   2.337  0.1965 -0.4243 -0.1477
  780SOL     OW 3117   0.189   0.125   2.815  0.2642  0.0702 -0.2075
  780SOL    HW1 3118   0.123   0.181   2.859  1.6209  2.3741 -4.4662
  780SOL    HW2 3119   0.161   0.126   2.724 -0.2407 -1.3512 -1.0916
  780SOL     MW 3120   0.177   0.132   2.808  0.3766  0.1867 -0.8860
  781SOL     OW 3121   3.025   1.380   2.421 -0.3051 -0.2880 -0.5861
  781SOL    HW1 3122   3.015   1.382   2.324  0.4661  0.2849 -2.3669
  781SOL    HW2 3123   3.094   1.319   2.426 -2.1315 -0.5814 -0.5290
  781SOL     MW 3124   3.032   1.372   2.409 -0.4443 -0.2511 -0.8136
  782SOL     OW 3125   0.548   1.551   3.080  0.8627 -0.7909  0.0950
  782SOL    HW1 3126   0.496   1.630   3.085  0.0544 -0.8227 -1.8560
  782SOL    HW2 3127   0.563   1.503   3.165 -1.1857  1.2603 -2.3642
  782SOL     MW 3128   0.543   1.555   3.092  0.4858 -0.5244 -0.4869
  783SOL     OW 3129   2.820   0.565   2.425  0.0588 -0.2511 -0.2345
  783SOL    HW1 3130   2.870   0.511   2.360  0.6391  1.1692 -0.6109
  783SOL    HW2 3131   2.773   0.498   2.477 -1.0374 -1.8322  1.3802
  783SOL     MW 3132   2.821   0.549   2.423 -0.0093 -0.2723 -0.0711
  784SOL     OW 3133   0.202   0.909   2.891 -0.1806  0.2346 -0.2526
  784SOL    HW1 3134   0.210   0.989   2.933 -1.5747 -3.4162 -0.5947
  784SOL    HW2 3135   0.210   0.927   2.797  0.1093  0.2904  3.3765
  784SOL     MW 3136   0.204   0.922   2.884 -0.3263 -0.2397  0.1811
  785SOL     OW 3137   0.357   0.541   2.110 -0.2256  0.7111 -0.7507
  785SOL    HW1 3138   0.374   0.536   2.014  5.0198  2.1712 -1.2279
  785SOL    HW2 3139   0.317   0.455   2.121  1.8211 -1.5582  1.7145
  785SOL     MW 3140   0.354   0.529   2.099  0.7365  0.6043 -0.4884
  786SOL     OW 3141   2.029   0.472   2.844 -0.2373 -0.3115 -0.0545
  786SOL    HW1 3142   2.027   0.484   2.938  0.9212 -2.1695  2.3169
  786SOL    HW2 3143   2.116   0.508   2.829  2.1895  1.0133 -0.3247
  786SOL     MW 3144   2.040   0.478   2.854  0.2358 -0.3818  0.2227
  787SOL     OW 3145   2.425   0.148   2.926 -0.0222 -0.3700 -0.4103
  787SOL    HW1 3146   2.487   0.126   2.855 -0.8038  1.8545 -0.8442
  787SOL    HW2 3147   2.444   0.237   2.956 -2.9940  0.0576  0.2579
  787SOL     MW 3148   2.436   0.157   2.921 -0.5174 -0.0200 -0.3794
  788SOL     OW 3149   2.944   2.880   2.282 -0.2481 -0.5335  0.3302
  788SOL    HW1 3150   2.916   2.787   2.255  3.9083 -2.7344 -2.3738
  788SOL    HW2 3151   3.019   2.859   2.337 -0.2194 -1.9823 -0.4053
  788SOL     MW 3152   2.950   2.865   2.285  0.3041 -1.0150 -0.1236
  789SOL     OW 3153   0.041   0.282   3.023  0.0412  0.1117  0.1731
  789SOL    HW1 3154  -0.047   0.260   3.061 -0.1756  1.6951  0.3128
  789SOL    HW2 3155   0.112   0.275   3.091  0.5376  0.6211  1.8614
  789SOL     MW 3156   0.039   0.278   3.037  0.0781  0.3878  0.4143
  790SOL     OW 3157   0.020   1.055   2.481 -0.1263 -0.5334 -0.4891
  790SOL    HW1 3158  -0.014   1.018   2.558 -1.0867  1.9196 -0.6630
  790SOL    HW2 3159  -0.049   1.041   2.414  2.3766  0.1687 -1.1851
  790SOL     MW 3160   0.007   1.049   2.482  0.0772 -0.1171 -0.6039
  791SOL     OW 3161   2.675   0.414   2.617  0.4152  0.4069 -0.3395
  791SOL    HW1 3162   2.631   0.477   2.681  1.9131 -0.9247 -1.4353
  791SOL    HW2 3163   2.752   0.386   2.673 -0.9548 -1.7426 -1.4488
  791SOL     MW 3164   2.679   0.419   2.633  0.4321 -0.0524 -0.6305
  792SOL     OW 3165   2.430   0.269   2.380 -0.7113  0.6269  0.6304
  792SOL    HW1 3166   2.372   0.340   2.411  0.2571 -1.8742 -0.7957
  792SOL    HW2 3167   2.465   0.222   2.458  0.4309 -0.2113 -3.4669
  792SOL     MW 3168   2.427   0.272   2.394 -0.4328  0.1863 -0.0983
  793SOL     OW 3169   1.760   1.019   1.869 -0.1594 -0.4129  0.0211
  793SOL    HW1 3170   1.720   1.028   1.784  3.0575  0.7843  0.5799
  793SOL    HW2 3171   1.861   0.998   1.850  1.4029 -1.5818  1.7120
  793SOL     MW 3172   1.768   1.018   1.855  0.4712 -0.4091  0.3179
  794SOL     OW 3173   1.438   2.288   0.113 -0.3338 -0.4024 -0.0895
  794SOL    HW1 3174   1.443   2.372   0.062  1.5584 -0.7247  2.5098
  794SOL    HW2 3175   1.484   2.309   0.199  0.6515 -2.8057  1.1589
  794SOL     MW 3176   1.445   2.302   0.118  0.0458 -0.7620  0.4181
  795SOL     OW 3177   2.369   0.933   2.597  0.0377  0.3041 -0.3653
  795SOL    HW1 3178   2.348   1.017   2.637 -0.5945 -0.6782  1.4533
  795SOL    HW2 3179   2.331   0.943   2.509 -2.5258  0.1771 -1.2545
  795SOL     MW 3180   2.361   0.945   2.591 -0.3840  0.1577 -0.2427
  796SOL     OW 3181   0.321   0.671   2.801  0.2448 -0.8226  0.0629
  796SOL    HW1 3182   0.275   0.752   2.829  1.5965 -0.2808  1.0000
  796SOL    HW2 3183   0.283   0.631   2.724 -0.6389  1.1980 -0.6274
  796SOL     MW 3184   0.310   0.677   2.795  0.3065 -0.4845  0.0955
  797SOL     OW 3185   2.565   0.161   2.586 -0.4846  0.0748  0.3057
  797SOL    HW1 3186   2.590   0.255   2.596  0.9963  2.7703 -0.4119
  797SOL    HW2 3187   2.633   0.132   2.524  1.4736  1.3434 -0.1471
  797SOL     MW 3188   2.577   0.169   2.579 -0.0308  0.5978  0.1512
  798SOL     OW 3189   2.384   0.044   2.187  0.2752 -0.3031  0.3262
  798SOL    HW1 3190   2.385   0.131   2.226  0.4430  0.3132 -0.9817
  798SOL    HW2 3191   2.475   0.019   2.165 -0.2199  1.8085 -1.5167
  798SOL     MW 3192   2.396   0.052   2.189  0.2320  0.0568 -0.0895
  799SOL     OW 3193   2.533   2.925   0.196  0.4831 -0.2632  0.1709
  799SOL    HW1 3194   2.562   2.895   0.109 -2.5792  2.0613 -1.2904
  799SOL    HW2 3195   2.459   2.986   0.181  0.8704 -1.4419  0.7911
  799SOL     MW 3196   2.527   2.929   0.183  0.1302 -0.1120  0.0599
  800SOL     OW 3197   1.912   3.091   1.717 -0.0056  0.1144  0.4031
  800SOL    HW1 3198   1.845   3.021   1.739 -0.8758 -0.8672 -3.8409
  800SOL    HW2 3199   1.978   3.073   1.785  1.3997  2.5839 -0.7283
  800SOL     MW 3200   1.912   3.079   1.729  0.0650  0.3107 -0.3061
  801SOL     OW 3201   2.833   1.318   2.607  0.2181  0.5360 -0.6064
  801SOL    HW1 3202   2.831   1.223   2.575 -1.5950 -0.1577  0.0494
  801SOL    HW2 3203   2.910   1.355   2.557  1.6589  0.0687 -0.7682
  801SOL     MW 3204   2.843   1.311   2.596  0.1690  0.3828 -0.5412
  802SOL     OW 3205   2.550   1.507   2.747 -0.5690 -0.5525 -0.2397
  802SOL    HW1 3206   2.561   1.436   2.681  1.7550  1.1449 -1.7055
  802SOL    HW2 3207   2.638   1.525   2.767  0.4728  0.7849 -1.3179
  802SOL     MW 3208   2.563   1.500   2.741 -0.1249 -0.1521 -0.5754
  803SOL     OW 3209   2.264   1.305   1.956 -0.8831 -0.9299 -0.0530
  803SOL    HW1 3210   2.244   1.271   2.045  1.0725  0.6886  2.1619
  803SOL    HW2 3211   2.261   1.239   1.889 -2.0847  2.9835 -0.3742
  803SOL     MW 3212   2.261   1.292   1.959 -0.7836 -0.2000  0.1969
  804SOL     OW 3213   2.360   0.002   0.056  0.1487  0.0702  0.3384
  804SOL    HW1 3214   2.271   0.048   0.047 -0.0776  0.0982  0.7358
  804SOL    HW2 3215   2.412   0.026  -0.023  1.0802 -0.6579  2.2255
  804SOL     MW 3216   2.355   0.012   0.045  0.2417 -0.0222  0.6398
  805SOL     OW 3217   2.834   1.044   2.566  0.1137  0.1453  0.7485
  805SOL    HW1 3218   2.747   1.009   2.569  0.5112  1.5010 -0.4330
  805SOL    HW2 3219   2.885   0.976   2.610  3.1503  0.5447  0.7408
  805SOL     MW 3220   2.829   1.030   2.572  0.5668  0.3769  0.5916
  806SOL     OW 3221   2.649   0.338   2.187  0.2158 -0.1733 -0.4603
  806SOL    HW1 3222   2.583   0.316   2.248  2.4612  2.4115 -1.3790
  806SOL    HW2 3223   2.639   0.429   2.166  0.2024  0.0565  0.5806
  806SOL     MW 3224   2.639   0.347   2.193  0.5103  0.1980 -0.4442
  807SOL     OW 3225   0.037   1.151   2.113  0.1609 -0.1610  0.5265
  807SOL    HW1 3226   0.061   1.064   2.078 -0.8332 -0.3834  0.6986
  807SOL    HW2 3227  -0.044   1.140   2.161  0.2354  1.0071  0.4009
  807SOL     MW 3228   0.030   1.138   2.115  0.0395 -0.0362  0.5326
  808SOL     OW 3229   2.636   3.063   2.806  0.5379 -0.3152  0.4312
  808SOL    HW1 3230   2.600   2.976   2.792  1.4615  0.5663 -1.0112
  808SOL    HW2 3231   2.610   3.111   2.724  2.6119 -0.6540  1.2813
  808SOL     MW 3232   2.628   3.058   2.793  0.9334 -0.2436  0.3530
  809SOL     OW 3233   2.520   1.237   2.414  0.3392 -0.2476  0.2233
  809SOL    HW1 3234   2.550   1.236   2.508  3.6321  0.3509  3.7850
  809SOL    HW2 3235   2.599   1.262   2.366  2.3397 -1.7933 -1.6930
  809SOL     MW 3236   2.534   1.240   2.420  1.0376 -0.3726  0.4404
  810SOL     OW 3237   2.170   1.193   2.185  0.7345  0.6656  0.3880
  810SOL    HW1 3238   2.218   1.114   2.224  3.7730  2.2911  0.3995
  810SOL    HW2 3239   2.088   1.160   2.141  0.9488  0.1537 -1.9804
  810SOL     MW 3240   2.165   1.178   2.184  1.1636  0.8125  0.0770
  811SOL     OW 3241   1.479   0.079   2.237 -0.6436 -0.2087 -0.2131
  811SOL    HW1 3242   1.568   0.050   2.261 -1.9807  0.5976  0.6496
  811SOL    HW2 3243   1.481   0.057   2.139 -1.5098 -0.7864 -1.1622
  811SOL     MW 3244   1.491   0.072   2.227 -0.9343 -0.1785 -0.2245
  812SOL     OW 3245   1.448   2.761   2.086  0.3679  0.2919 -0.3373
  812SOL    HW1 3246   1.543   2.773   2.069 -1.0881  0.0058  0.5134
  812SOL    HW2 3247   1.450   2.718   2.171  0.2683 -1.4137 -2.1661
  812SOL     MW 3248   1.461   2.756   2.095  0.1626  0.0291 -0.4664
  813SOL     OW 3249   1.859   0.724   2.161 -0.1687 -0.2573 -0.6283
  813SOL    HW1 3250   1.797   0.650   2.176 -1.8958 -1.0500  1.8209
  813SOL    HW2 3251   1.891   0.738   2.251 -2.1235 -1.2493 -0.0736
  813SOL     MW 3252   1.855   0.716   2.175 -0.6545 -0.4928 -0.2320
  814SOL     OW 3253   2.825   1.179   1.650  0.0078 -0.2864 -0.6552
  814SOL    HW1 3254   2.754   1.158   1.709 -0.9138  0.3358  2.3522
  814SOL    HW2 3255   2.788   1.161   1.566  0.2309 -1.8021  0.0643
  814SOL     MW 3256   2.811   1.174   1.647 -0.0843 -0.4043 -0.1635
  815SOL     OW 3257   2.500   1.636   2.362 -0.0116  0.4390  0.4166
  815SOL    HW1 3258   2.439   1.562   2.352  3.4910  1.3831  0.3952
  815SOL    HW2 3259   2.583   1.595   2.366  0.3543 -1.9596 -1.6939
  815SOL     MW 3260   2.503   1.621   2.361  0.4988  0.2471  0.1353
  816SOL     OW 3261   0.677   0.664   2.704 -0.1858 -0.3360  0.5819
  816SOL    HW1 3262   0.730   0.613   2.763  1.1023  1.2277 -0.5010
  816SOL    HW2 3263   0.612   0.598   2.666  0.4912 -0.5658  0.7483
  816SOL     MW 3264   0.675   0.648   2.707  0.0735 -0.1600  0.4610
  817SOL     OW 3265   3.055   1.174   1.301  0.4472  0.2476  0.0435
  817SOL    HW1 3266   3.120   1.186   1.367 -0.8804 -0.2532  2.3260
  817SOL    HW2 3267   2.998   1.254   1.315  2.1545 -0.6534  0.9242
  817SOL     MW 3268   3.056   1.186   1.312  0.4973  0.0626  0.4609
  818SOL     OW 3269   1.903   0.980   2.691  0.2534  0.7311 -0.3251
  818SOL    HW1 3270   1.921   1.023   2.605  0.6894  0.6947 -2.2290
  818SOL    HW2 3271   1.986   0.937   2.713 -0.6215 -2.3135  1.6697
  818SOL     MW 3272   1.916   0.980   2.682  0.1955  0.3246 -0.3131
  819SOL     OW 3273   1.936   0.234   2.320 -0.0545 -0.4158 -0.0568
  819SOL    HW1 3274   2.025   0.266   2.289  3.4994 -1.8792 -0.3367
  819SOL    HW2 3275   1.951   0.216   2.411  1.0431  0.5033  0.7402
  819SOL     MW 3276   1.950   0.236   2.328  0.5593 -0.4877  0.0114
  820SOL     OW 3277   2.476   1.727   2.618  0.2640  0.4527  0.1189
  820SOL    HW1 3278   2.477   1.644   2.675 -0.3172  1.1228  2.2026
  820SOL    HW2 3279   2.489   1.697   2.530 -1.0865 -3.9826  1.6755
  820SOL     MW 3280   2.478   1.712   2.614  0.0091 -0.0441  0.5992
  821SOL     OW 3281   2.539   1.324   1.994  0.2041  0.4703 -0.4002
  821SOL    HW1 3282   2.564   1.383   1.921  0.4450  0.6815  0.6974
  821SOL    HW2 3283   2.449   1.304   1.978 -1.0396  1.8003 -1.0567
  821SOL     MW 3284   2.530   1.329   1.982  0.0718  0.6736 -0.3420
  822SOL     OW 3285   2.883   2.623   1.440 -0.2785 -0.0362 -0.1912
  822SOL    HW1 3286   2.805   2.659   1.387  0.1470  0.4643 -1.8454
  822SOL    HW2 3287   2.951   2.685   1.424  0.8461 -1.0714 -1.7720
  822SOL     MW 3288   2.882   2.636   1.431 -0.0740 -0.1068 -0.6180
  823SOL     OW 3289   2.363   0.473   1.790 -0.0277  0.4482  0.2869
  823SOL    HW1 3290   2.441   0.419   1.760  1.0564  0.6170 -1.6274
  823SOL    HW2 3291   2.295   0.431   1.742 -1.7759  3.2721  0.6362
  823SOL     MW 3292   2.364   0.460   1.780 -0.1153  0.8430  0.0804
  824SOL     OW 3293   2.136   1.351   2.565 -0.0512  0.1418  0.1573
  824SOL    HW1 3294   2.206   1.380   2.498  0.0635 -0.4058  1.2373
  824SOL    HW2 3295   2.109   1.431   2.610 -1.1984 -2.3986 -2.0458
  824SOL     MW 3296   2.142   1.366   2.562 -0.1874 -0.2656  0.0091
  825SOL     OW 3297   2.122   2.325   0.361 -0.0291 -0.3077 -0.1722
  825SOL    HW1 3298   2.187   2.338   0.297 -3.4434  0.0048  0.4590
  825SOL    HW2 3299   2.173   2.340   0.444  0.2008 -0.5605  1.7767
  825SOL     MW 3300   2.137   2.329   0.363 -0.4493 -0.2998  0.1682
  826SOL     OW 3301   1.773   2.430   0.439  0.2656  0.1686  0.4194
  826SOL    HW1 3302   1.778   2.359   0.499 -0.8805  0.0888  1.5675
  826SOL    HW2 3303   1.827   2.492   0.486  2.0861  1.5970 -0.2472
  826SOL     MW 3304   1.781   2.429   0.453  0.3546  0.3465  0.4829
  827SOL     OW 3305   1.923   2.253   0.870  0.0162  0.0756  0.2070
  827SOL    HW1 3306   1.878   2.265   0.786  3.1435 -0.8278  0.3730
  827SOL    HW2 3307   1.877   2.187   0.920 -0.1884  1.6144  1.5947
  827SOL     MW 3308   1.911   2.246   0.865  0.4018  0.1594  0.4120
  828SOL     OW 3309   0.095   2.649   0.529 -0.1373  0.3760 -0.5747
  828SOL    HW1 3310   0.161   2.705   0.572 -0.1769  0.3941 -1.2202
  828SOL    HW2 3311   0.075   2.688   0.447 -0.8041  1.6117  1.3499
  828SOL     MW 3312   0.101   2.661   0.523 -0.2305  0.5414 -0.4059
  829SOL     OW 3313   2.984   2.871   1.184 -0.4304  0.3111 -0.5766
  829SOL    HW1 3314   2.926   2.864   1.115  0.3802 -0.6928 -0.8339
  829SOL    HW2 3315   3.050   2.805   1.168  0.3423  2.5203  1.2876
  829SOL     MW 3316   2.985   2.861   1.172 -0.2215  0.4702 -0.3646
  830SOL     OW 3317   2.494   2.824   1.993  0.5874  0.2994  0.1314
  830SOL    HW1 3318   2.425   2.889   1.958 -1.1563  1.9109 -2.7373
  830SOL    HW2 3319   2.545   2.801   1.918  1.5194 -0.5966  0.8237
  830SOL     MW 3320   2.492   2.830   1.979  0.4803  0.3938 -0.1557
  831SOL     OW 3321   2.457   2.432   1.230 -0.0313 -0.0608 -0.4777
  831SOL    HW1 3322   2.462   2.344   1.273 -2.6530 -3.0507 -0.0522
  831SOL    HW2 3323   2.541   2.427   1.176  1.8144  1.2079  0.5685
  831SOL     MW 3324   2.469   2.419   1.228 -0.1337 -0.2879 -0.2836
  832SOL     OW 3325   2.417   2.104   1.928 -0.1777  0.3616  0.0026
  832SOL    HW1 3326   2.387   2.189   1.913 -1.2744 -1.5287  0.2929
  832SOL    HW2 3327   2.471   2.091   1.846 -0.2671 -0.9346 -0.1173
  832SOL     MW 3328   2.420   2.114   1.915 -0.3342 -0.0588  0.0251
  833SOL     OW 3329   1.612   2.496   0.793  0.2012  0.5641 -0.0192
  833SOL    HW1 3330   1.577   2.423   0.846 -2.9372 -1.4876 -0.9051
  833SOL    HW2 3331   1.538   2.556   0.788  1.2589 -1.8383  3.0795
  833SOL     MW 3332   1.597   2.494   0.800 -0.0733 -0.0236  0.2728
  834SOL     OW 3333   2.210   2.409   0.599  0.6903  0.0653 -0.0527
  834SOL    HW1 3334   2.185   2.322   0.635 -0.3451 -0.3727  2.4143
  834SOL    HW2 3335   2.301   2.438   0.611 -1.5307 -0.4700 -0.2554
  834SOL     MW 3336   2.219   2.401   0.605  0.2607 -0.0631  0.2461
  835SOL     OW 3337   1.839   2.619   0.681 -0.7973 -0.0087  0.4525
  835SOL    HW1 3338   1.780   2.557   0.736 -3.0184 -0.9943  0.9788
  835SOL    HW2 3339   1.930   2.593   0.714  3.7690 -1.2940 -0.1267
  835SOL     MW 3340   1.843   2.607   0.693 -0.4879 -0.3083  0.4455
  836SOL     OW 3341   2.078   2.052   1.770 -0.1240 -0.1143  0.2401
  836SOL    HW1 3342   2.134   1.977   1.769 -3.7536 -2.6615  0.5145
  836SOL    HW2 3343   2.110   2.116   1.835 -0.4055  0.5201 -0.9504
  836SOL     MW 3344   2.090   2.050   1.779 -0.6400 -0.3666  0.1192
  837SOL     OW 3345   2.084   0.218   0.664 -0.8057 -0.0707 -0.1730
  837SOL    HW1 3346   2.019   0.228   0.595  0.8453 -0.3814  2.8273
  837SOL    HW2 3347   2.154   0.162   0.630  1.7421  1.2795  0.0572
  837SOL     MW 3348   2.084   0.212   0.651 -0.2517  0.0664  0.2533
  838SOL     OW 3349   2.936   2.045   0.907  0.3673  0.6995 -0.2408
  838SOL    HW1 3350   2.857   1.998   0.926  2.2032 -1.8755 -0.2910
  838SOL    HW2 3351   2.986   2.032   0.988 -1.7444 -0.6085  1.9307
  838SOL     MW 3352   2.932   2.037   0.920  0.3309  0.1872  0.0391
  839SOL     OW 3353   1.524   2.426   1.042  0.3423  0.6073  0.0151
  839SOL    HW1 3354   1.518   2.492   1.112  1.7967 -0.0459  0.0829
  839SOL    HW2 3355   1.575   2.352   1.075 -2.1915  4.7992 -1.2674
  839SOL     MW 3356   1.530   2.425   1.056  0.1999  1.0742 -0.1451
  840SOL     OW 3357   2.389   2.115   2.314 -0.4495 -0.2906  0.2126
  840SOL    HW1 3358   2.334   2.191   2.295  3.1130 -0.3486 -2.3903
  840SOL    HW2 3359   2.434   2.145   2.396 -0.1801 -2.4499  1.8988
  840SOL     MW 3360   2.387   2.129   2.322  0.0561 -0.5832  0.0917
  841SOL     OW 3361   2.281   2.289   0.145 -0.3329  0.3695 -0.2349
  841SOL    HW1 3362   2.302   2.361   0.083 -1.4256  2.6211  3.3943
  841SOL    HW2 3363   2.199   2.246   0.113 -2.0145  0.5221 -0.8242
  841SOL     MW 3364   2.273   2.293   0.133 -0.6989  0.6867  0.1662
  842SOL     OW 3365   2.655   1.968   1.468  0.1298  0.2345 -0.4235
  842SOL    HW1 3366   2.638   1.875   1.460 -1.9343 -0.6796 -1.0159
  842SOL    HW2 3367   2.653   2.002   1.379  0.5084  1.1645 -0.8425
  842SOL     MW 3368   2.653   1.960   1.456 -0.0926  0.2366 -0.5569
  843SOL     OW 3369   2.686   2.740   1.773  0.2197 -0.3342  0.3736
  843SOL    HW1 3370   2.769   2.707   1.808 -2.9108 -1.3439  0.1205
  843SOL    HW2 3371   2.642   2.675   1.710 -0.3216  2.3779  1.4294
  843SOL     MW 3372   2.691   2.727   1.769 -0.2648 -0.1096  0.4795
  844SOL     OW 3373   2.688   2.333   1.104  0.2431  0.0739  0.4123
  844SOL    HW1 3374   2.718   2.349   1.011  0.8572  1.9523 -0.3054
  844SOL    HW2 3375   2.759   2.366   1.155  0.4908 -0.9352  1.2457
  844SOL     MW 3376   2.701   2.340   1.098  0.3568  0.1886  0.4275
  845SOL     OW 3377   2.823   2.616   0.273 -0.4046 -0.1510 -0.3015
  845SOL    HW1 3378   2.829   2.532   0.332 -1.2249  1.9301  2.8183
  845SOL    HW2 3379   2.831   2.690   0.333 -1.1786 -1.2166 -0.9565
  845SOL     MW 3380   2.825   2.615   0.289 -0.6150 -0.0170  0.0237
  846SOL     OW 3381   1.436   2.715   0.783  0.5040 -0.3072 -0.1845
  846SOL    HW1 3382   1.490   2.792   0.797 -0.1983  0.4570  0.5897
  846SOL    HW2 3383   1.343   2.747   0.798  0.1635  0.3592 -1.1101
  846SOL     MW 3384   1.431   2.729   0.787  0.3664 -0.1185 -0.2044
  847SOL     OW 3385   2.419   1.821   0.217  0.3582  0.5471  0.0792
  847SOL    HW1 3386   2.398   1.735   0.243  1.2004 -0.1919 -0.3243
  847SOL    HW2 3387   2.408   1.827   0.120 -0.6989 -2.7404  3.1497
  847SOL     MW 3388   2.415   1.811   0.208  0.3299  0.0159  0.4311
  848SOL     OW 3389   2.710   2.096   1.214  0.1267  0.4488  0.7395
  848SOL    HW1 3390   2.702   2.164   1.147  1.8184  0.4177 -2.0095
  848SOL    HW2 3391   2.803   2.087   1.229  1.6000  0.9246 -2.4089
  848SOL     MW 3392   2.721   2.104   1.207  0.5443  0.5075 -0.0386
  849SOL     OW 3393   1.916   2.845   0.837 -0.5696  0.0585  0.5711
  849SOL    HW1 3394   1.875   2.802   0.912  1.5123  0.1991 -0.1425
  849SOL    HW2 3395   1.929   2.763   0.787 -0.3110 -2.2916 -2.1316
  849SOL     MW 3396   1.913   2.828   0.840 -0.2608 -0.2330  0.1204
  850SOL     OW 3397   2.322   1.943   1.619  0.0342 -0.2942  0.1597
  850SOL    HW1 3398   2.234   1.932   1.576  1.3828 -1.0124 -0.5408
  850SOL    HW2 3399   2.365   2.021   1.578  2.2594  2.3925 -1.2474
  850SOL     MW 3400   2.316   1.952   1.608  0.5057 -0.0345 -0.1184
  851SOL     OW 3401   2.582   2.221   0.397  0.3017 -0.2874 -0.3945
  851SOL    HW1 3402   2.565   2.196   0.304  0.1788  1.3136 -0.6737
  851SOL    HW2 3403   2.554   2.310   0.400  0.8930  0.3393 -4.1969
  851SOL     MW 3404   2.576   2.229   0.385  0.3635  0.0065 -0.9330
  852SOL     OW 3405   2.332   2.035   0.356  0.2302  0.4522 -0.0339
  852SOL    HW1 3406   2.383   2.115   0.349 -0.7588  2.7562 -1.4227
  852SOL    HW2 3407   2.362   1.966   0.289 -0.9357 -1.6604 -0.3896
  852SOL     MW 3408   2.343   2.036   0.347 -0.0541  0.4774 -0.2641
  853SOL     OW 3409   2.512   2.404   1.902  0.1447 -0.1540 -0.2226
  853SOL    HW1 3410   2.527   2.457   1.820  0.8943  0.8238 -1.3725
  853SOL    HW2 3411   2.599   2.383   1.937  2.0593 -0.6784  0.3140
  853SOL     MW 3412   2.526   2.409   1.896  0.4962 -0.0942 -0.3035
  854SOL     OW 3413   2.903   2.267   0.747 -0.0306 -0.3222  0.4868
  854SOL    HW1 3414   2.810   2.248   0.724 -0.6670  0.1095  0.0867
  854SOL    HW2 3415   2.925   2.185   0.801 -0.9599  0.6857  0.1716
  854SOL     MW 3416   2.893   2.254   0.751 -0.2372 -0.1323  0.3924
  855SOL     OW 3417   2.830   2.372   0.417  0.4005 -0.1202 -0.1906
  855SOL    HW1 3418   2.749   2.320   0.408  0.2396 -1.2050 -1.9422
  855SOL    HW2 3419   2.897   2.302   0.393  2.0006 -0.4732  0.0214
  855SOL     MW 3420   2.828   2.356   0.412  0.5904 -0.3099 -0.3937
  856SOL     OW 3421   2.095   1.819   0.247 -0.7194  0.2404  0.0910
  856SOL    HW1 3422   2.005   1.822   0.280 -1.5753  1.2675  0.1743
  856SOL    HW2 3423   2.144   1.880   0.306 -0.3035 -0.2895  1.1656
  856SOL     MW 3424   2.089   1.828   0.259 -0.7775  0.3060  0.2438
  857SOL     OW 3425   2.477   1.933   0.577  0.2170 -0.1895  0.2788
  857SOL    HW1 3426   2.433   1.968   0.500  2.7688 -0.7688  0.4194
  857SOL    HW2 3427   2.411   1.940   0.651  1.9859  1.2839  1.2769
  857SOL     MW 3428   2.463   1.939   0.576  0.7871 -0.0715  0.4291
  858SOL     OW 3429   2.928   2.685   1.855  0.4674  0.2628  0.6753
  858SOL    HW1 3430   2.998   2.731   1.899  0.0528 -0.8318  0.1378
  858SOL    HW2 3431   2.972   2.616   1.813  1.2163  1.2323  3.2591
  858SOL     MW 3432   2.943   2.682   1.855  0.5115  0.2463  0.9453
  859SOL     OW 3433   1.746   2.652   0.983  0.2431  0.1181  0.1705
  859SOL    HW1 3434   1.682   2.615   0.919  2.7046  0.7006 -0.7169
  859SOL    HW2 3435   1.781   2.574   1.016 -3.6178 -1.4507 -0.4474
  859SOL     MW 3436   1.742   2.637   0.979  0.0585 -0.0121 -0.0281
  860SOL     OW 3437   2.646   2.573   0.063  0.4468 -0.3662 -0.3960
  860SOL    HW1 3438   2.700   2.595   0.144 -1.4510 -0.4960  0.5588
  860SOL    HW2 3439   2.629   2.649   0.013  0.2753 -1.5140  2.7993
  860SOL     MW 3440   2.651   2.586   0.067  0.1738 -0.5348  0.1515
  861SOL     OW 3441   1.605   2.147   1.182 -0.4489 -0.3266 -0.6780
  861SOL    HW1 3442   1.608   2.189   1.272  2.4152  0.0338  2.5318
  861SOL    HW2 3443   1.524   2.093   1.190  0.2989  1.2989  0.6545
  861SOL     MW 3444   1.595   2.145   1.195  0.0276 -0.0646 -0.0787
  862SOL     OW 3445   2.440   1.714   1.456  0.8372  0.4335  0.5070
  862SOL    HW1 3446   2.392   1.789   1.499  1.5158 -0.9665 -0.6333
  862SOL    HW2 3447   2.453   1.731   1.362 -3.3429 -1.8827  0.0113
  862SOL     MW 3448   2.436   1.726   1.449  0.3752 -0.0568  0.2911
  863SOL     OW 3449   2.880   1.651   0.943 -0.4237  0.2064 -0.2945
  863SOL    HW1 3450   2.834   1.694   1.013 -1.1083 -0.0283 -0.4256
  863SOL    HW2 3451   2.813   1.633   0.874  0.6820 -0.1727 -0.9617
  863SOL     MW 3452   2.865   1.654   0.943 -0.3681  0.1255 -0.3998
  864SOL     OW 3453   3.073   1.762   0.772 -0.2153  0.0222 -0.0858
  864SOL    HW1 3454   3.020   1.737   0.852  0.6867  3.7485  2.4945
  864SOL    HW2 3455   3.012   1.770   0.696  1.4825  0.8903 -0.5742
  864SOL     MW 3456   3.058   1.760   0.773  0.1277  0.6284  0.1902
  865SOL     OW 3457   2.510   2.156   0.137  0.2192 -0.2190 -0.0460
  865SOL    HW1 3458   2.477   2.073   0.115  0.3565  1.1189  1.4244
  865SOL    HW2 3459   2.428   2.217   0.146 -1.8478  4.2444  0.4054
  865SOL     MW 3460   2.495   2.153   0.136 -0.0354  0.5464  0.2075
  866SOL     OW 3461   2.729   2.368   1.529 -0.2402 -0.2205  0.2910
  866SOL    HW1 3462   2.714   2.275   1.534  0.6991 -3.2703 -1.5675
  866SOL    HW2 3463   2.774   2.384   1.451  0.3399 -0.8945  1.2398
  866SOL     MW 3464   2.733   2.358   1.519 -0.0398 -0.7118  0.1710
  867SOL     OW 3465   0.167   2.703   1.726  0.6512  0.9269  0.0677
  867SOL    HW1 3466   0.240   2.757   1.750 -0.2756  1.2916  0.3700
  867SOL    HW2 3467   0.109   2.769   1.679 -1.0575  0.9611 -2.1598
  867SOL     MW 3468   0.169   2.719   1.723  0.3035  0.9795 -0.1863
  868SOL     OW 3469   2.735   2.652   0.583 -0.1821 -0.4777 -0.6081
  868SOL    HW1 3470   2.711   2.556   0.561  0.0173 -0.2097 -1.5116
  868SOL    HW2 3471   2.684   2.708   0.527 -0.2996 -0.4921  1.4298
  868SOL     MW 3472   2.725   2.646   0.573 -0.1713 -0.4443 -0.4584
  869SOL     OW 3473   1.934   2.454   1.084  0.4147 -0.2706 -0.4935
  869SOL    HW1 3474   2.008   2.494   1.036  1.3560  0.9142  1.2282
  869SOL    HW2 3475   1.910   2.368   1.042 -2.0942  0.7629  2.3763
  869SOL     MW 3476   1.941   2.448   1.072  0.2079  0.0221  0.1123
  870SOL     OW 3477   2.165   0.010   0.461 -0.0462  0.5126  0.2117
  870SOL    HW1 3478   2.232   0.060   0.410  0.6386  3.6462 -3.0435
  870SOL    HW2 3479   2.207  -0.075   0.493  0.1408 -1.9996 -0.0770
  870SOL     MW 3480   2.179   0.006   0.458  0.0688  0.5946 -0.2558
  871SOL     OW 3481   2.468   2.048   0.904 -1.0789 -0.1386 -0.1650
  871SOL    HW1 3482   2.400   1.996   0.860  0.8404 -1.4953 -1.6008
  871SOL    HW2 3483   2.440   2.143   0.923  0.1806  0.6650  1.5766
  871SOL     MW 3484   2.455   2.054   0.900 -0.6595 -0.2116 -0.1247
  872SOL     OW 3485   2.106   2.473   1.611  0.2557 -0.3613  0.3600
  872SOL    HW1 3486   2.066   2.532   1.673 -1.5028  0.9561 -2.0128
  872SOL    HW2 3487   2.061   2.488   1.528  1.0292 -0.1098  1.5781
  872SOL     MW 3488   2.095   2.483   1.608  0.1257 -0.1543  0.2077
  873SOL     OW 3489   2.878   2.131   1.840  0.6575  0.0766 -0.4188
  873SOL    HW1 3490   2.855   2.215   1.883 -0.0890  0.2243  1.2491
  873SOL    HW2 3491   2.939   2.156   1.773  1.9194  1.5729  0.0017
  873SOL     MW 3492   2.883   2.145   1.837  0.7255  0.2935 -0.1433
  874SOL     OW 3493   2.314   1.420   2.384  0.4735  0.0714  0.1128
  874SOL    HW1 3494   2.268   1.376   2.309  1.0009  0.0002 -0.3585
  874SOL    HW2 3495   2.384   1.361   2.391 -3.9196  0.5830  0.1968
  874SOL     MW 3496   2.317   1.406   2.375 -0.0366  0.1295  0.0617
  875SOL     OW 3497   2.350   2.305   0.999 -0.7610 -0.8491  0.0954
  875SOL    HW1 3498   2.351   2.368   0.926  0.8230  0.6209  1.9197
  875SOL    HW2 3499   2.373   2.355   1.076  1.8034 -1.8623 -1.3032
  875SOL     MW 3500   2.354   2.320   0.999 -0.2137 -0.7889  0.1515
  876SOL     OW 3501   3.084   2.208   1.308  0.0727  0.2877 -0.4177
  876SOL    HW1 3502   3.114   2.249   1.226  1.2188  1.1767  0.0369
  876SOL    HW2 3503   3.139   2.248   1.370 -1.0840  0.1828 -1.4336
  876SOL     MW 3504   3.095   2.219   1.305  0.0713  0.3911 -0.4918
  877SOL     OW 3505   0.017   2.789   0.274 -0.0481 -0.2237 -0.2156
  877SOL    HW1 3506   0.096   2.846   0.259  1.7725  1.6183 -0.9041
  877SOL    HW2 3507   0.015   2.735   0.198 -0.3306  2.0714  1.9312
  877SOL     MW 3508   0.027   2.790   0.262  0.1548  0.3222 -0.0232
  878SOL     OW 3509   2.261   1.689   1.149  0.0281  0.7026 -0.4570
  878SOL    HW1 3510   2.190   1.653   1.219 -1.9655  0.1220  2.4781
  878SOL    HW2 3511   2.298   1.607   1.131  0.8592  0.0358  0.5088
  878SOL     MW 3512   2.257   1.674   1.156 -0.1253  0.5380  0.0577
  879SOL     OW 3513   2.706   2.450   0.850  0.2127 -0.1449 -0.0249
  879SOL    HW1 3514   2.736   2.528   0.896 -0.7884  0.3760  0.8126
  879SOL    HW2 3515   2.781   2.419   0.797 -1.6208  0.7068  1.8512
  879SOL     MW 3516   2.720   2.456   0.849 -0.1613  0.0362  0.3331
  880SOL     OW 3517   2.591   2.196   0.710  0.3718  0.2555 -0.0399
  880SOL    HW1 3518   2.551   2.108   0.744  0.8368 -0.1992  1.4895
  880SOL    HW2 3519   2.571   2.193   0.621  0.2579 -3.0773  2.4227
  880SOL     MW 3520   2.583   2.184   0.703  0.4181 -0.2442  0.4868
  881SOL     OW 3521   2.982   2.723   0.700 -0.2865 -0.5758  0.7764
  881SOL    HW1 3522   2.899   2.695   0.649 -3.1900 -1.4182  0.8092
  881SOL    HW2 3523   3.054   2.694   0.650 -1.8983 -0.4280  0.2458
  881SOL     MW 3524   2.981   2.715   0.687 -0.8823 -0.6674  0.7108
  882SOL     OW 3525   2.251   2.920   1.930 -0.3584  0.0233 -0.3889
  882SOL    HW1 3526   2.238   2.932   1.834  1.7021  0.1710 -0.5908
  882SOL    HW2 3527   2.212   2.838   1.949 -1.8557 -0.1338 -0.0033
  882SOL     MW 3528   2.244   2.911   1.920 -0.2841  0.0220 -0.3647
  883SOL     OW 3529   2.460   2.157   1.306 -0.4453  0.3535  0.5277
  883SOL    HW1 3530   2.525   2.109   1.250  1.6702 -0.7420  0.8708
  883SOL    HW2 3531   2.377   2.118   1.283 -0.0968 -0.1655 -1.5397
  883SOL     MW 3532   2.458   2.146   1.295 -0.1202  0.1405  0.3002
  884SOL     OW 3533   1.881   1.862   1.042 -0.0852  0.5765 -0.3598
  884SOL    HW1 3534   1.822   1.936   1.012 -0.5542 -1.0690  2.9685
  884SOL    HW2 3535   1.973   1.898   1.035 -0.8029  1.1608 -0.3394
  884SOL     MW 3536   1.886   1.876   1.037 -0.2418  0.4365  0.0820
  885SOL     OW 3537   2.935   2.436   1.706 -0.2192 -0.3075  0.1264
  885SOL    HW1 3538   2.991   2.364   1.669  1.1631  0.2608  0.0517
  885SOL    HW2 3539   2.870   2.450   1.633  0.2697  0.7611 -0.2381
  885SOL     MW 3540   2.934   2.428   1.691  0.0277 -0.0916  0.0685
  886SOL     OW 3541   2.890   2.387   1.288  0.7601 -0.2760 -0.0708
  886SOL    HW1 3542   2.964   2.332   1.322  1.7490 -2.0474  3.8561
  886SOL    HW2 3543   2.891   2.468   1.341 -0.5257 -0.5271 -1.4768
  886SOL     MW 3544   2.900   2.390   1.299  0.7209 -0.5428  0.2618
  887SOL     OW 3545   2.316   2.638   1.572  0.4126 -0.5208 -0.5514
  887SOL    HW1 3546   2.341   2.662   1.481  1.6092  0.5390 -0.8378
  887SOL    HW2 3547   2.250   2.570   1.576 -0.5318 -1.5448 -0.3750
  887SOL     MW 3548   2.310   2.632   1.560  0.4458 -0.5161 -0.5659
  888SOL     OW 3549   2.074   2.180   1.431  0.1481  0.3674 -0.4593
  888SOL    HW1 3550   2.117   2.159   1.348  2.2460  2.1621 -1.7995
  888SOL    HW2 3551   2.148   2.212   1.487  0.4154  1.6670  2.1467
  888SOL     MW 3552   2.090   2.181   1.427  0.4602  0.7757 -0.2923
  889SOL     OW 3553   2.267   1.934   2.070  0.2875 -0.0487 -0.1016
  889SOL    HW1 3554   2.339   1.892   2.114  0.9481  2.2720 -2.6372
  889SOL    HW2 3555   2.318   2.007   2.027  0.3367  0.3475 -2.8293
  889SOL     MW 3556   2.283   1.938   2.070  0.3812  0.3098 -0.7960
  890SOL     OW 3557   0.072   2.351   0.126 -0.3928  0.2687 -0.2118
  890SOL    HW1 3558   0.034   2.440   0.110  1.3803  0.0277 -0.7264
  890SOL    HW2 3559   0.065   2.339   0.220 -1.2699 -0.9624 -2.2228
  890SOL     MW 3560   0.066   2.361   0.136 -0.2746  0.0744 -0.5450
  891SOL     OW 3561   3.008   1.969   1.195  0.5448 -0.6625  0.4531
  891SOL    HW1 3562   3.065   1.898   1.172  0.6775  1.1142 -2.1412
  891SOL    HW2 3563   3.058   2.038   1.247 -3.4596  1.7218 -0.9377
  891SOL     MW 3564   3.022   1.969   1.199  0.0340 -0.1135 -0.0727
  892SOL     OW 3565   2.440   2.348   2.738 -0.5551  0.0426 -0.3225
  892SOL    HW1 3566   2.420   2.256   2.773  0.3691  2.2579  1.0659
  892SOL    HW2 3567   2.525   2.373   2.785  0.2112  4.1262  2.3009
  892SOL     MW 3568   2.448   2.339   2.749 -0.3320  0.8736  0.2068
  893SOL     OW 3569   1.631   2.328   1.392 -0.2267  0.2675  0.2157
  893SOL    HW1 3570   1.550   2.372   1.402  0.0670 -1.0117 -2.3169
  893SOL    HW2 3571   1.667   2.317   1.481  2.7335  2.9293 -1.1275
  893SOL     MW 3572   1.625   2.332   1.405  0.2026  0.4499 -0.2957
  894SOL     OW 3573   2.774   1.976   0.463  0.3037  0.6673  1.0646
  894SOL    HW1 3574   2.689   1.991   0.509  2.6203 -0.0377  0.0114
  894SOL    HW2 3575   2.750   1.923   0.386  2.3361 -1.6604  1.6516
  894SOL     MW 3576   2.760   1.971   0.459  0.8775  0.2672  1.0031
  895SOL     OW 3577   2.187   2.148   1.182 -0.4408  0.2485  0.5711
  895SOL    HW1 3578   2.225   2.199   1.103  1.2164  0.8052  0.3129
  895SOL    HW2 3579   2.179   2.054   1.147 -2.4366 -0.8454 -0.6793
  895SOL     MW 3580   2.191   2.143   1.167 -0.4855  0.1776  0.3720
  896SOL     OW 3581   2.293   2.811   1.079  1.1199 -0.5465  0.5763
  896SOL    HW1 3582   2.317   2.784   1.170  1.4407  0.1738  0.4411
  896SOL    HW2 3583   2.221   2.869   1.088  2.1795  0.2800 -0.5973
  896SOL     MW 3584   2.287   2.815   1.092  1.3020 -0.3424  0.4036
  897SOL     OW 3585   3.088   3.074   3.053  0.8080 -0.0959 -0.6874
  897SOL    HW1 3586   3.125   2.986   3.047  0.4932 -1.2953 -0.6743
  897SOL    HW2 3587   3.029   3.083   2.980 -2.1085 -3.5113  0.9468
  897SOL     MW 3588   3.085   3.064   3.042  0.3816 -0.7048 -0.4701
  898SOL     OW 3589   2.179   0.188   1.428 -0.6601  0.2804 -0.1600
  898SOL    HW1 3590   2.153   0.097   1.443 -3.3922  0.6306 -0.9747
  898SOL    HW2 3591   2.133   0.199   1.348  1.2989 -0.5305  1.8092
  898SOL     MW 3592   2.169   0.178   1.419 -0.7621  0.2196 -0.0077
  899SOL     OW 3593   3.002   2.986   0.616  0.9719 -0.5516 -0.4961
  899SOL    HW1 3594   3.020   2.906   0.660  0.4389 -0.3355 -0.2305
  899SOL    HW2 3595   2.928   3.034   0.661 -1.3932 -0.6133 -0.1427
  899SOL     MW 3596   2.994   2.982   0.628  0.5895 -0.5312 -0.4144
  900SOL     OW 3597   0.179   2.366   1.134  0.3038  0.2499  0.4197
  900SOL    HW1 3598   0.115   2.430   1.162 -0.5564  1.1575 -1.5164
  900SOL    HW2 3599   0.154   2.345   1.042 -0.5790 -2.3250 -0.5339
  900SOL     MW 3600   0.168   2.371   1.126  0.0738  0.0299  0.0384
  901SOL     OW 3601   1.753   2.871   1.779  0.1856 -0.0219 -0.1777
  901SOL    HW1 3602   1.801   2.795   1.752 -3.9761  0.8427  2.3032
  901SOL    HW2 3603   1.656   2.863   1.750 -2.8141  0.2545 -2.3704
  901SOL     MW 3604   1.747   2.860   1.772 -0.7592  0.1286 -0.1396
  902SOL     OW 3605   2.617   2.084   1.720 -0.2370 -0.0102  0.2184
  902SOL    HW1 3606   2.642   2.036   1.644 -1.2065  0.8479 -0.9023
  902SOL    HW2 3607   2.695   2.104   1.768 -0.0749 -1.1484  0.5789
  902SOL     MW 3608   2.630   2.081   1.717 -0.3435 -0.0472  0.1181
  903SOL     OW 3609   1.550   2.637   0.543 -0.4013  0.3704  0.0481
  903SOL    HW1 3610   1.644   2.634   0.534  0.1354  0.9816  1.2718
  903SOL    HW2 3611   1.536   2.698   0.614  4.1779 -0.8576  0.6571
  903SOL     MW 3612   1.560   2.645   0.551  0.2737  0.2890  0.2899
  904SOL     OW 3613   2.563   2.531   1.654 -0.0825  0.1467  0.4355
  904SOL    HW1 3614   2.477   2.543   1.606 -1.5715  1.3219 -0.0748
  904SOL    HW2 3615   2.617   2.463   1.603 -0.0039  0.6537  1.1398
  904SOL     MW 3616   2.559   2.523   1.641 -0.2686  0.3686  0.4611
  905SOL     OW 3617   2.336   2.508   2.081 -0.1768  0.0859  0.2025
  905SOL    HW1 3618   2.394   2.484   2.005  2.1030 -1.1519  0.1014
  905SOL    HW2 3619   2.301   2.432   2.137  0.0919 -0.7687 -0.0019
  905SOL     MW 3620   2.339   2.495   2.079  0.1594 -0.1902  0.1622
  906SOL     OW 3621   2.435   2.488   0.773 -0.8372 -0.6382  0.4163
  906SOL    HW1 3622   2.522   2.455   0.787 -1.7707  0.2117 -1.0118
  906SOL    HW2 3623   2.452   2.578   0.790 -1.0428  0.5187  1.2069
  906SOL     MW 3624   2.449   2.496   0.777 -0.9875 -0.3734  0.3322
  907SOL     OW 3625   2.680   2.742   1.326 -0.4520 -0.2743  0.5116
  907SOL    HW1 3626   2.708   2.826   1.365 -1.5017 -4.6781  2.2382
  907SOL    HW2 3627   2.676   2.758   1.232 -2.7431 -2.0074 -3.2072
  907SOL     MW 3628   2.683   2.755   1.319 -0.8928 -1.0840  0.2488
  908SOL     OW 3629   2.681   2.320   3.068 -0.0363 -0.2414 -0.0923
  908SOL    HW1 3630   2.621   2.263   3.104 -1.5884 -0.1063  0.3452
  908SOL    HW2 3631   2.675   2.410   3.106  0.7587 -0.1597  1.8850
  908SOL     MW 3632   2.672   2.324   3.078 -0.1362 -0.2128  0.2263
  909SOL     OW 3633   1.710   0.101   1.313 -0.0034 -0.0552 -0.5063
  909SOL    HW1 3634   1.663   0.189   1.315  1.5001 -0.0954  0.5658
  909SOL    HW2 3635   1.660   0.052   1.390  3.4837 -1.1585 -0.8747
  909SOL     MW 3636   1.697   0.106   1.323  0.6551 -0.2061 -0.4134
  910SOL     OW 3637   2.134   1.635   0.425 -0.2226  0.4641  0.5576
  910SOL    HW1 3638   2.078   1.557   0.410  4.8347 -0.3974  0.9428
  910SOL    HW2 3639   2.110   1.705   0.357 -0.6031 -0.0592 -0.0305
  910SOL     MW 3640   2.123   1.634   0.414  0.3945  0.2814  0.5308
  911SOL     OW 3641   2.399   2.213   1.569 -0.3363 -0.3034  0.1892
  911SOL    HW1 3642   2.466   2.216   1.640  0.8329  1.3338 -1.0417
  911SOL    HW2 3643   2.441   2.206   1.490 -1.7337  0.8448  0.9344
  911SOL     MW 3644   2.414   2.212   1.568 -0.3664  0.0641  0.1251
  912SOL     OW 3645   2.936   1.855   1.433  0.0261 -0.2511  0.2106
  912SOL    HW1 3646   2.961   1.898   1.344 -1.2811 -0.9000 -1.4523
  912SOL    HW2 3647   2.873   1.905   1.480  1.2236  0.7641  0.8859
  912SOL     MW 3648   2.931   1.867   1.428  0.0116 -0.2028  0.0803
  913SOL     OW 3649   2.689   0.022   0.316 -0.4549 -0.7155 -0.3504
  913SOL    HW1 3650   2.780  -0.016   0.312  0.1996  0.2966  1.0129
  913SOL    HW2 3651   2.639  -0.041   0.267  0.2029  0.4022  0.1409
  913SOL     MW 3652   2.694   0.009   0.309 -0.2818 -0.4345 -0.1057
  914SOL     OW 3653   2.635   1.781   3.035  0.2479 -0.6572  0.2408
  914SOL    HW1 3654   2.693   1.856   3.012 -0.2760 -0.6329  1.2665
  914SOL    HW2 3655   2.553   1.829   3.065  0.5192  1.0854  2.0582
  914SOL     MW 3656   2.632   1.798   3.036  0.2146 -0.4241  0.6159
  915SOL     OW 3657   1.789   0.106   0.167 -0.1970  0.4937  0.2400
  915SOL    HW1 3658   1.867   0.044   0.189  0.9926 -0.7997  0.4819
  915SOL    HW2 3659   1.710   0.051   0.184  2.7266  1.4008  0.3909
  915SOL     MW 3660   1.789   0.090   0.172  0.3457  0.4428  0.2918
  916SOL     OW 3661   1.791   2.155   1.978 -0.3241 -0.7686  0.2307
  916SOL    HW1 3662   1.829   2.238   1.950 -2.4815 -1.3642 -0.3116
  916SOL    HW2 3663   1.838   2.085   1.934  2.1000 -1.2938 -0.6504
  916SOL     MW 3664   1.802   2.156   1.969 -0.2889 -0.9165  0.0429
  917SOL     OW 3665   2.520   2.194   2.531 -0.1723 -0.3217 -0.2059
  917SOL    HW1 3666   2.497   2.240   2.611 -1.3561  1.1743  2.1215
  917SOL    HW2 3667   2.592   2.245   2.495 -1.2225  3.2093 -2.0774
  917SOL     MW 3668   2.527   2.207   2.537 -0.4671  0.3416 -0.1457
  918SOL     OW 3669   2.041   1.616   2.684 -0.2443 -0.1691 -0.4170
  918SOL    HW1 3670   1.968   1.638   2.626 -1.8170 -2.1980  0.8696
  918SOL    HW2 3671   2.109   1.689   2.680 -0.9243  0.6099  0.9406
  918SOL     MW 3672   2.041   1.629   2.676 -0.5415 -0.3340 -0.0681
  919SOL     OW 3673   3.038   2.398   2.293  0.2790 -0.1178  0.1365
  919SOL    HW1 3674   2.971   2.349   2.241  1.3030  1.5583  2.2426
  919SOL    HW2 3675   3.102   2.417   2.226  1.7567 -1.0552 -0.8104
  919SOL     MW 3676   3.038   2.394   2.277  0.6091 -0.0204  0.2894
  920SOL     OW 3677   2.601   2.856   3.048 -0.4363  0.4788 -0.7241
  920SOL    HW1 3678   2.511   2.818   3.038  0.1408 -2.0840  0.1514
  920SOL    HW2 3679   2.653   2.796   2.995 -1.6385  2.6559 -0.6904
  920SOL     MW 3680   2.596   2.843   3.040 -0.5188  0.4279 -0.6041
  921SOL     OW 3681   2.424   2.587   2.600 -0.5343 -0.4644 -0.1590
  921SOL    HW1 3682   2.498   2.582   2.538 -0.3645 -1.8731  1.5521
  921SOL    HW2 3683   2.428   2.505   2.651 -0.0891  2.7480  2.5042
  921SOL     MW 3684   2.434   2.576   2.598 -0.4531 -0.2264  0.4182
  922SOL     OW 3685   2.089   2.633   0.410 -0.1589  0.3487 -0.3223
  922SOL    HW1 3686   2.119   2.631   0.317  2.9050  0.8965 -1.9699
  922SOL    HW2 3687   2.100   2.538   0.447 -0.2396 -0.9856  2.3654
  922SOL     MW 3688   2.095   2.620   0.403  0.2347  0.2450 -0.1851
  923SOL     OW 3689   2.222   2.884   1.657  0.0704 -0.5960 -0.1276
  923SOL    HW1 3690   2.270   2.809   1.621  1.5125 -0.1166  1.9242
  923SOL    HW2 3691   2.170   2.912   1.581  0.6761 -1.6895 -0.9516
  923SOL     MW 3692   2.222   2.878   1.642  0.3406 -0.6771  0.0344
  924SOL     OW 3693   1.083   2.708   2.621 -0.5507  0.6171 -0.2211
  924SOL    HW1 3694   1.179   2.722   2.613 -1.9814 -2.0376  0.9225
  924SOL    HW2 3695   1.067   2.633   2.678  0.4701 -0.2883  0.7702
  924SOL     MW 3696   1.094   2.700   2.627 -0.6048  0.1474  0.0606
  925SOL     OW 3697   3.003   0.143   2.619  0.0105 -0.0574  0.2825
  925SOL    HW1 3698   2.938   0.113   2.561 -1.3577  0.3520 -1.3406
  925SOL    HW2 3699   2.976   0.225   2.667 -0.8186 -0.5953 -0.7931
  925SOL     MW 3700   2.991   0.150   2.618 -0.2794 -0.0744 -0.0735
  926SOL     OW 3701   2.810   2.415   1.950 -0.2957  0.0553  0.2386
  926SOL    HW1 3702   2.817   2.499   1.984 -1.3603 -3.1068 -0.4806
  926SOL    HW2 3703   2.847   2.428   1.862 -0.1453 -0.5843 -0.1813
  926SOL     MW 3704   2.816   2.428   1.943 -0.4163 -0.4463  0.0883
  927SOL     OW 3705   2.371   0.116   0.300 -0.5473  0.1988 -0.3233
  927SOL    HW1 3706   2.458   0.127   0.338 -2.1397  0.9777 -1.0809
  927SOL    HW2 3707   2.389   0.103   0.205  0.8472  0.9199  3.5347
  927SOL     MW 3708   2.385   0.116   0.292 -0.5734  0.3967  0.0858
  928SOL     OW 3709   2.163   2.318   1.859  0.0629  0.6519 -0.0035
  928SOL    HW1 3710   2.155   2.336   1.764  1.4314 -0.1102  0.8544
  928SOL    HW2 3711   2.214   2.386   1.903 -0.5710 -2.6081  2.1862
  928SOL     MW 3712   2.168   2.329   1.853  0.1599  0.1212  0.3986
  929SOL     OW 3713   2.726   2.349   2.451 -0.2244 -0.0214 -0.6196
  929SOL    HW1 3714   2.760   2.303   2.373  0.8190  0.6745 -1.2573
  929SOL    HW2 3715   2.795   2.335   2.521  0.4296 -0.2578  3.6937
  929SOL     MW 3716   2.740   2.341   2.450 -0.0005  0.0392 -0.1347
  930SOL     OW 3717   2.025   2.846   2.666  0.5311 -0.0995  0.0558
  930SOL    HW1 3718   2.044   2.767   2.713  2.2277  2.5122  0.7735
  930SOL    HW2 3719   2.116   2.888   2.652  2.2892 -1.1556  2.8656
  930SOL     MW 3720   2.039   2.841   2.671  0.9869  0.1057  0.5212
  931SOL     OW 3721   0.041   2.769   2.449  0.0453 -0.2326 -0.1406
  931SOL    HW1 3722  -0.007   2.833   2.513  0.0351 -0.7218  0.3408
  931SOL    HW2 3723   0.133   2.804   2.453 -0.4629 -4.1049 -1.2867
  931SOL     MW 3724   0.047   2.782   2.458 -0.0231 -0.8080 -0.2283
  932SOL     OW 3725   2.780   2.043   2.441 -0.9751  0.0893  0.0782
  932SOL    HW1 3726   2.864   2.042   2.489  0.0755 -0.9375  0.2895
  932SOL    HW2 3727   2.811   2.023   2.351 -0.8785  1.1407 -0.6044
  932SOL     MW 3728   2.795   2.040   2.435 -0.8237  0.0926  0.0160
  933SOL     OW 3729   2.097   2.773   2.223 -0.2799  0.0838 -0.2575
  933SOL    HW1 3730   2.154   2.807   2.286 -0.5115 -3.3043 -1.7348
  933SOL    HW2 3731   2.032   2.843   2.202  2.1682 -3.6882  0.3875
  933SOL     MW 3732   2.096   2.787   2.228  0.0125 -0.8609 -0.3673
  934SOL     OW 3733   2.013   2.674   2.458 -0.0359 -0.4271  0.0499
  934SOL    HW1 3734   2.011   2.741   2.522 -2.2704 -0.1034  0.8737
  934SOL    HW2 3735   2.035   2.708   2.366  0.3741  1.1527 -2.3518
  934SOL     MW 3736   2.016   2.687   2.455 -0.2767 -0.1760 -0.1583
  935SOL     OW 3737   2.637   1.493   1.796 -0.1458  0.2996  0.8890
  935SOL    HW1 3738   2.736   1.481   1.782  2.7491  0.5456  2.2137
  935SOL    HW2 3739   2.602   1.503   1.707  1.9299 -0.2414  0.8833
  935SOL     MW 3740   2.645   1.492   1.782  0.5101  0.2607  1.0631
  936SOL     OW 3741   2.924   2.209   0.019  0.3824 -0.1767 -0.0472
  936SOL    HW1 3742   2.989   2.275   0.058 -0.3549  2.0077  0.3810
  936SOL    HW2 3743   2.839   2.249   0.015 -1.9244  2.2309 -2.3589
  936SOL     MW 3744   2.922   2.223   0.024 -0.0193  0.4292 -0.2957
  937SOL     OW 3745   1.902   2.135   2.613  0.3525 -0.5864 -0.1437
  937SOL    HW1 3746   1.991   2.123   2.649 -0.0457 -0.1652  0.9116
  937SOL    HW2 3747   1.920   2.152   2.519  0.3799  2.3435  0.0771
  937SOL     MW 3748   1.916   2.135   2.605  0.3036 -0.1442  0.0247
  938SOL     OW 3749   2.227   1.798   1.835 -0.0451  0.3963  0.1141
  938SOL    HW1 3750   2.285   1.838   1.772  1.5329  1.2688 -4.1068
  938SOL    HW2 3751   2.239   1.851   1.913 -3.7853  0.2055  1.5727
  938SOL     MW 3752   2.236   1.810   1.837 -0.3304  0.4862 -0.2504
  939SOL     OW 3753   2.791   1.978   2.182 -0.1693  0.0679 -0.8205
  939SOL    HW1 3754   2.833   1.923   2.117 -0.1933  0.5093 -1.6208
  939SOL    HW2 3755   2.712   1.929   2.201 -0.5002  1.3804  0.2580
  939SOL     MW 3756   2.786   1.964   2.176 -0.2161  0.2993 -0.7838
  940SOL     OW 3757   2.205   0.083   2.768  0.6976 -0.0239 -0.0680
  940SOL    HW1 3758   2.244  -0.004   2.747 -0.3339 -2.1562  1.8838
  940SOL    HW2 3759   2.271   0.114   2.828  1.2683 -3.7718 -0.9494
  940SOL     MW 3760   2.219   0.075   2.773  0.6368 -0.7997  0.0732
  941SOL     OW 3761   0.125   2.449   2.072 -0.3400  0.3557 -0.5371
  941SOL    HW1 3762   0.208   2.388   2.071  0.1257 -0.7148 -0.4689
  941SOL    HW2 3763   0.103   2.439   1.981  3.7951  0.0323  1.3606
  941SOL     MW 3764   0.133   2.440   2.060  0.2670  0.1718 -0.2777
  942SOL     OW 3765   2.803   2.257   2.173 -0.4942 -0.0634 -0.0791
  942SOL    HW1 3766   2.812   2.299   2.085 -1.3804 -1.0907  2.5395
  942SOL    HW2 3767   2.795   2.167   2.137 -2.6381  2.6186 -1.0626
  942SOL     MW 3768   2.803   2.251   2.156 -0.8940  0.1549  0.1366
  943SOL     OW 3769   0.345   2.166   2.253  0.2922  0.6823  0.2360
  943SOL    HW1 3770   0.268   2.200   2.292 -2.2324 -0.8237 -0.3796
  943SOL    HW2 3771   0.390   2.132   2.331  1.2525  1.6268  1.0117
  943SOL     MW 3772   0.341   2.166   2.268  0.0858  0.6082  0.2571
  944SOL     OW 3773   2.133   2.650   1.981 -0.3211  0.5231  0.4156
  944SOL    HW1 3774   2.214   2.617   2.017 -1.0918  0.3057 -0.7254
  944SOL    HW2 3775   2.085   2.663   2.068  0.6794  0.5283 -0.2345
  944SOL     MW 3776   2.137   2.648   1.997 -0.2908  0.4951  0.1793
  945SOL     OW 3777   2.746   2.687   2.878 -0.1331 -0.7273  0.3700
  945SOL    HW1 3778   2.746   2.586   2.858 -0.3352 -0.1509  1.3842
  945SOL    HW2 3779   2.725   2.732   2.791  0.7850 -0.6462  0.7963
  945SOL     MW 3780   2.743   2.680   2.864 -0.0387 -0.6406  0.5600
  946SOL     OW 3781   2.442   2.716   2.240 -0.0622  0.6122 -0.0911
  946SOL    HW1 3782   2.462   2.767   2.171  2.4301 -1.8853  1.4441
  946SOL    HW2 3783   2.390   2.644   2.196 -0.5368 -0.1910 -0.4949
  946SOL     MW 3784   2.438   2.713   2.225  0.2040  0.1767  0.0582
  947SOL     OW 3785   2.038   3.041   0.211 -0.1013 -0.6389 -0.5096
  947SOL    HW1 3786   2.074   2.954   0.196 -1.2613  1.9356  0.9898
  947SOL    HW2 3787   2.069   3.066   0.305  0.7482 -3.9174  1.8239
  947SOL     MW 3788   2.047   3.033   0.221 -0.1423 -0.7318 -0.0039
  948SOL     OW 3789   1.819   3.038   2.637  0.0495  0.1350 -0.1632
  948SOL    HW1 3790   1.840   2.944   2.630  1.6358 -0.7839 -0.0852
  948SOL    HW2 3791   1.780   3.062   2.551 -0.6122 -1.1622 -0.8976
  948SOL     MW 3792   1.817   3.029   2.625  0.1715 -0.1574 -0.2498
  949SOL     OW 3793   2.514   1.881   2.227  0.0137  0.3884 -0.2523
  949SOL    HW1 3794   2.505   1.801   2.280  0.9603 -1.1470 -0.1753
  949SOL    HW2 3795   2.488   1.961   2.275 -1.4878  1.6524 -0.2926
  949SOL     MW 3796   2.509   1.881   2.240 -0.0595  0.3526 -0.2475
  950SOL     OW 3797   2.297   2.445   2.954 -0.0825  0.2324 -0.5711
  950SOL    HW1 3798   2.352   2.426   2.878  0.1221 -2.0983  1.6653
  950SOL    HW2 3799   2.212   2.475   2.911 -3.3455  0.5139 -0.2911
  950SOL     MW 3800   2.293   2.447   2.939 -0.4861 -0.0379 -0.2391
  951SOL     OW 3801   3.015   2.225   2.871  0.0285 -0.0671 -0.1601
  951SOL    HW1 3802   2.983   2.197   2.956  0.2928 -0.8949 -2.5284
  951SOL    HW2 3803   3.098   2.259   2.890 -2.5084  1.7380  2.8532
  951SOL     MW 3804   3.022   2.225   2.885 -0.2714  0.0619 -0.0750
  952SOL     OW 3805   3.060   1.732   2.115 -0.0761  0.0310  0.3222
  952SOL    HW1 3806   3.018   1.790   2.047 -1.7754 -1.0920 -1.2107
  952SOL    HW2 3807   3.126   1.787   2.163  1.7465  1.2268 -1.2431
  952SOL     MW 3808   3.063   1.747   2.113 -0.0599  0.0406 -0.0866
  953SOL     OW 3809   1.915   1.772   2.890 -0.1277 -0.0549 -0.6542
  953SOL    HW1 3810   1.839   1.731   2.933 -3.2328 -1.4346 -1.7861
  953SOL    HW2 3811   1.962   1.705   2.838 -1.4931  0.6664 -1.1656
  953SOL     MW 3812   1.911   1.758   2.889 -0.7175 -0.1417 -0.8710
  954SOL     OW 3813   2.404   2.126   2.860  0.4907 -0.5385 -1.0952
  954SOL    HW1 3814   2.315   2.100   2.835  1.4283 -1.6544 -0.5267
  954SOL    HW2 3815   2.464   2.062   2.816 -0.5854  0.9234 -0.4579
  954SOL     MW 3816   2.400   2.114   2.851  0.4725 -0.4929 -0.9361
  955SOL     OW 3817   1.572   1.540   2.566 -0.0808  0.5968 -0.0199
  955SOL    HW1 3818   1.531   1.525   2.477  1.5411 -0.7799  4.0660
  955SOL    HW2 3819   1.664   1.563   2.549  0.7161 -0.1271 -1.4465
  955SOL     MW 3820   1.579   1.541   2.552  0.2383  0.3196  0.3310
  956SOL     OW 3821   2.688   2.426   2.818 -0.2754 -0.5090  0.0974
  956SOL    HW1 3822   2.684   2.387   2.903  4.1578 -0.4372 -0.7429
  956SOL    HW2 3823   2.757   2.373   2.772 -3.0628 -0.8455  1.0464
  956SOL     MW 3824   2.697   2.413   2.823 -0.0583 -0.5439  0.1118
  957SOL     OW 3825   2.272   2.842   0.538  0.2383  0.0058  0.3294
  957SOL    HW1 3826   2.208   2.788   0.499  2.0181 -2.0819  1.5457
  957SOL    HW2 3827   2.279   2.812   0.627 -2.1715  0.3322 -3.6865
  957SOL     MW 3828   2.265   2.831   0.545  0.1552 -0.2266 -0.0400
  958SOL     OW 3829   2.073   2.547   2.850 -0.3831  0.3692  0.0845
  958SOL    HW1 3830   2.017   2.488   2.799  3.1245 -0.1377  1.2816
  958SOL    HW2 3831   2.028   2.561   2.940  0.1905 -2.1212  1.1735
  958SOL     MW 3832   2.059   2.541   2.855  0.1554 -0.0262  0.3861
  959SOL     OW 3833   2.538   2.761   0.425  0.3843 -0.3391  0.0182
  959SOL    HW1 3834   2.538   2.808   0.336 -1.5869 -1.5038 -0.7787
  959SOL    HW2 3835   2.452   2.784   0.459  1.9105 -0.9814 -0.1411
  959SOL     MW 3836   2.526   2.770   0.417  0.3256 -0.5775 -0.1080
  960SOL     OW 3837   1.914   2.383   2.310 -0.1371  0.1534  0.0532
  960SOL    HW1 3838   1.926   2.288   2.301 -2.5214 -0.0339  0.7147
  960SOL    HW2 3839   1.830   2.392   2.350 -0.2238 -2.4142  0.3287
  960SOL     MW 3840   1.905   2.372   2.314 -0.4632 -0.2101  0.1768
  961SOL     OW 3841   2.222   2.336   2.267 -0.3307  0.1705 -0.6242
  961SOL    HW1 3842   2.142   2.290   2.240  0.0266 -1.1730 -2.5349
  961SOL    HW2 3843   2.208   2.392   2.350 -0.4633  0.8444  1.3015
  961SOL     MW 3844   2.210   2.337   2.274 -0.3011  0.0822 -0.6222
  962SOL     OW 3845   2.147   2.033   2.795  0.3727  0.1019 -0.4849
  962SOL    HW1 3846   2.096   2.015   2.877 -0.8341  0.2043  0.1149
  962SOL    HW2 3847   2.152   1.936   2.772  2.5043 -1.8362 -2.4051
  962SOL     MW 3848   2.141   2.018   2.803  0.4947 -0.1403 -0.6591
  963SOL     OW 3849   1.840   2.552   2.083  0.0649 -0.6409  0.0125
  963SOL    HW1 3850   1.884   2.491   2.143 -1.6702 -1.1356  3.0882
  963SOL    HW2 3851   1.843   2.511   1.993  1.9031 -0.1853  1.1244
  963SOL     MW 3852   1.846   2.538   2.079  0.0785 -0.6460  0.5650
  964SOL     OW 3853   1.800   1.882   2.661 -0.3929  0.4332 -0.9503
  964SOL    HW1 3854   1.850   1.960   2.645 -3.4522 -0.8224  1.2549
  964SOL    HW2 3855   1.848   1.848   2.735 -0.5971  2.4960  0.2694
  964SOL     MW 3856   1.813   1.888   2.669 -0.8235  0.5397 -0.4984
  965SOL     OW 3857   2.141   2.589   0.855  0.1023 -0.1508  0.4868
  965SOL    HW1 3858   2.181   2.517   0.805 -0.2880 -0.5226  0.9942
  965SOL    HW2 3859   2.214   2.657   0.856  1.5393 -0.8345  2.2085
  965SOL     MW 3860   2.156   2.589   0.848  0.2404 -0.2901  0.7809
  966SOL     OW 3861   2.661   2.617   2.425 -0.0052  0.0048 -0.4274
  966SOL    HW1 3862   2.607   2.650   2.354  2.0970 -0.8314  0.9938
  966SOL    HW2 3863   2.673   2.523   2.412 -2.6526 -0.3877 -3.1543
  966SOL     MW 3864   2.656   2.609   2.414 -0.0772 -0.1573 -0.5996
  967SOL     OW 3865   2.657   0.049   3.083 -0.2531  0.0368  0.6034
  967SOL    HW1 3866   2.632  -0.050   3.090 -0.4514 -0.6579 -2.0469
  967SOL    HW2 3867   2.669   0.070   2.994  0.5066 -0.3542  0.3740
  967SOL     MW 3868   2.655   0.039   3.072 -0.1790 -0.1065  0.2235
  968SOL     OW 3869   3.015   2.663   2.919  0.3109 -0.4390  0.8993
  968SOL    HW1 3870   2.923   2.673   2.893  2.4507  1.5992 -0.4495
  968SOL    HW2 3871   3.057   2.633   2.839 -2.7926 -0.3539 -2.0354
  968SOL     MW 3872   3.008   2.660   2.905  0.1837 -0.1588  0.3341
  969SOL     OW 3873   1.579   2.102   1.732  0.2495 -0.0073  0.2220
  969SOL    HW1 3874   1.673   2.084   1.737 -1.3163  2.8473  0.5570
  969SOL    HW2 3875   1.548   2.116   1.819 -0.2829  1.8073 -1.8819
  969SOL     MW 3876   1.587   2.102   1.744 -0.0273  0.6087 -0.0113
  970SOL     OW 3877   1.728   1.805   1.864 -0.0235 -0.1746 -0.3697
  970SOL    HW1 3878   1.757   1.730   1.912  1.1087 -0.0763  0.5489
  970SOL    HW2 3879   1.634   1.803   1.890  1.0844  0.0219  1.6108
  970SOL     MW 3880   1.719   1.795   1.874  0.2721 -0.1357  0.0128
  971SOL     OW 3881   1.756   0.000   2.362  0.4096  0.2599  0.0692
  971SOL    HW1 3882   1.809  -0.056   2.299  0.4676 -0.0388 -2.6221
  971SOL    HW2 3883   1.803   0.087   2.353 -2.4811  0.1502  1.6540
  971SOL     MW 3884   1.769   0.004   2.352  0.0358  0.2060 -0.0767
  972SOL     OW 3885   0.304   2.832   2.406 -0.2629 -0.4790  0.4255
  972SOL    HW1 3886   0.350   2.751   2.424 -1.2031  2.5931 -0.9215
  972SOL    HW2 3887   0.348   2.903   2.452  1.4289 -0.2906  3.1869
  972SOL     MW 3888   0.316   2.830   2.414 -0.1637 -0.0488  0.6121
  973SOL     OW 3889   2.616   3.019   2.138 -0.2783 -0.0693  0.5112
  973SOL    HW1 3890   2.561   2.967   2.076  0.9847  2.9050  2.6128
  973SOL    HW2 3891   2.681   3.052   2.077  0.0217  0.0353 -0.6297
  973SOL     MW 3892   2.617   3.017   2.122 -0.0721  0.3370  0.6380
  974SOL     OW 3893   2.007   0.147   2.597  0.3430 -0.3918  0.5178
  974SOL    HW1 3894   2.081   0.119   2.651 -0.8106  0.8026 -1.6839
  974SOL    HW2 3895   1.954   0.068   2.598  0.5435  0.0507  0.6833
  974SOL     MW 3896   2.010   0.133   2.604  0.2172 -0.1759  0.2492
  975SOL     OW 3897   2.185   2.467   2.507 -0.0595 -0.2302  0.0975
  975SOL    HW1 3898   2.246   2.529   2.542 -0.9859 -0.8298 -0.2624
  975SOL    HW2 3899   2.120   2.534   2.464 -3.1175 -1.2492 -2.0339
  975SOL     MW 3900   2.184   2.484   2.506 -0.5852 -0.4437 -0.2312
  976SOL     OW 3901   0.174   0.353   1.589 -0.4381 -0.4884  0.0519
  976SOL    HW1 3902   0.238   0.284   1.617  1.2616  0.7835 -0.2664
  976SOL    HW2 3903   0.091   0.316   1.564 -1.5615  1.4100 -1.0426
  976SOL     MW 3904   0.172   0.339   1.589 -0.3621 -0.0701 -0.1345
  977SOL     OW 3905   1.754   2.744   2.383 -0.1187  0.1110  0.3183
  977SOL    HW1 3906   1.833   2.689   2.390  0.5671 -3.7286 -2.7899
  977SOL    HW2 3907   1.776   2.832   2.405 -3.3502 -0.6857  0.8179
  977SOL     MW 3908   1.768   2.749   2.387 -0.4546 -0.5007 -0.0259
   3.10000   3.10000   3.10000
