977 TIP4P/2005f water molecules t=   1.36000 step= 1360
 3908
    1SOL     OW    1   0.375   0.851   0.030  0.3988  0.3588 -0.0572
    1SOL    HW1    2   0.346   0.867  -0.064  1.0647 -0.8819 -1.7934
    1SOL    HW2    3   0.319   0.782   0.070  1.4981 -0.3417 -1.1284
    1SOL     MW    4   0.364   0.844   0.023  0.6317  0.1027 -0.4276
    2SOL     OW    5   0.341   3.035   1.149 -0.2903 -0.0725 -0.5370
    2SOL    HW1    6   0.407   3.092   1.104  1.9293 -1.1285  0.0159
    2SOL    HW2    7   0.253   3.080   1.139  0.0665 -1.9383 -1.0451
    2SOL     MW    8   0.338   3.048   1.142  0.0497 -0.4580 -0.5311
    3SOL     OW    9   2.614   0.341   0.952  0.3161  0.0111 -0.8889
    3SOL    HW1   10   2.649   0.400   0.892  1.0284 -1.9434  3.6550
    3SOL    HW2   11   2.595   0.396   1.032  1.1690  3.6006  3.9034
    3SOL     MW   12   2.616   0.356   0.955  0.5226  0.2268  0.3429
    4SOL     OW   13   3.058   1.741   0.584 -0.0714 -0.1378  0.1795
    4SOL    HW1   14   3.018   1.817   0.541  0.4927 -1.0104 -0.2968
    4SOL    HW2   15   3.088   1.685   0.510 -0.5102 -1.0474 -0.1961
    4SOL     MW   16   3.057   1.743   0.569 -0.0549 -0.3730  0.0671
    5SOL     OW   17   1.649   1.524   0.599 -0.3514 -0.4830  1.0457
    5SOL    HW1   18   1.667   1.482   0.682 -1.9937 -0.0940 -0.2189
    5SOL    HW2   19   1.548   1.507   0.578 -3.5751 -0.0731 -2.5798
    5SOL     MW   20   1.638   1.516   0.607 -0.9934 -0.3776  0.4005
    6SOL     OW   21   0.819   1.389   0.581 -0.8405 -0.0734  0.2742
    6SOL    HW1   22   0.727   1.408   0.554 -2.5346 -0.3873  0.0965
    6SOL    HW2   23   0.831   1.316   0.644  1.0090  1.0155 -0.3058
    6SOL     MW   24   0.808   1.382   0.586 -0.8200  0.0288  0.1742
    7SOL     OW   25   1.998   1.052   0.008 -0.1649 -0.0856  0.1996
    7SOL    HW1   26   2.062   1.101  -0.039 -0.5169  0.4688 -3.0004
    7SOL    HW2   27   2.024   1.047   0.102  2.7124  0.4539  2.7719
    7SOL     MW   28   2.010   1.058   0.014  0.1683  0.0587  0.1168
    8SOL     OW   29   0.797   1.536   1.182 -0.6858 -0.3913 -0.0318
    8SOL    HW1   30   0.887   1.562   1.169  0.4957  0.4255 -0.4326
    8SOL    HW2   31   0.800   1.442   1.205 -2.9185  0.7429 -2.6201
    8SOL     MW   32   0.809   1.527   1.183 -0.8245 -0.1339 -0.4262
    9SOL     OW   33   1.032   0.510   1.338  0.3657 -0.3075  0.6051
    9SOL    HW1   34   0.975   0.432   1.309  1.2756  0.5798 -3.1560
    9SOL    HW2   35   1.056   0.479   1.428  1.3015 -0.3435  0.7832
    9SOL     MW   36   1.028   0.495   1.346  0.6092 -0.1952  0.1324
   10SOL     OW   37   0.251   0.790   0.531 -0.3687  0.1926  0.0278
   10SOL    HW1   38   0.326   0.824   0.479 -0.1976  0.4205  0.1835
   10SOL    HW2   39   0.244   0.829   0.621 -0.0520  1.3262  0.7156
   10SOL     MW   40   0.260   0.799   0.536 -0.3043  0.3723  0.1391
   11SOL     OW   41   0.740   1.148   1.586  0.2936  0.1275 -0.0873
   11SOL    HW1   42   0.783   1.130   1.668 -0.1793  0.0406  1.4393
   11SOL    HW2   43   0.746   1.072   1.525  0.4659  4.6468 -1.6820
   11SOL     MW   44   0.747   1.136   1.588  0.2540  0.7123 -0.0963
   12SOL     OW   45   3.042   1.142   0.870 -0.2513 -0.1415 -0.1959
   12SOL    HW1   46   3.098   1.210   0.912 -0.4774  0.4906 -0.4214
   12SOL    HW2   47   2.993   1.189   0.806  0.8406  2.6057 -3.0844
   12SOL     MW   48   3.043   1.157   0.867 -0.1370  0.3044 -0.6068
   13SOL     OW   49   1.848   1.427   1.313 -0.5608  0.1448 -0.5823
   13SOL    HW1   50   1.901   1.385   1.253 -1.8813  1.6324 -2.5748
   13SOL    HW2   51   1.850   1.524   1.288  1.0190  1.5316  1.6354
   13SOL     MW   52   1.855   1.434   1.302 -0.5266  0.5240 -0.5526
   14SOL     OW   53   0.554   0.307   1.851  0.3056 -0.4524 -0.8622
   14SOL    HW1   54   0.498   0.236   1.834 -1.0227  1.5626 -0.9047
   14SOL    HW2   55   0.602   0.328   1.775 -0.9363  2.4931  0.4855
   14SOL     MW   56   0.553   0.301   1.839 -0.0335  0.2021 -0.6900
   15SOL     OW   57   1.985   0.337   1.051 -0.1675 -0.4019  0.3705
   15SOL    HW1   58   1.972   0.406   1.113  1.1044  0.1562 -0.5731
   15SOL    HW2   59   2.058   0.356   0.989  0.5729  0.1214  0.1520
   15SOL     MW   60   1.993   0.349   1.051  0.0980 -0.2592  0.2172
   16SOL     OW   61   0.235   1.823   0.304  0.4585  0.0169 -0.0588
   16SOL    HW1   62   0.326   1.816   0.266  1.3241  1.0254 -0.1532
   16SOL    HW2   63   0.223   1.916   0.323  0.4678  0.0626 -1.5546
   16SOL     MW   64   0.245   1.835   0.301  0.5739  0.1560 -0.2686
   17SOL     OW   65   1.046   0.888   1.421  0.2178 -0.2852 -0.0691
   17SOL    HW1   66   1.083   0.883   1.513 -0.4723 -0.4051  0.1993
   17SOL    HW2   67   0.950   0.885   1.444  1.1075 -1.3903  0.1552
   17SOL     MW   68   1.038   0.887   1.436  0.2441 -0.4468 -0.0041
   18SOL     OW   69   0.124   1.589   0.360  0.6138 -0.3621  0.0654
   18SOL    HW1   70   0.174   1.675   0.353  0.1957  1.0331 -2.1128
   18SOL    HW2   71   0.096   1.581   0.271 -0.8030  0.6340 -1.0266
   18SOL     MW   72   0.127   1.600   0.347  0.3717 -0.0466 -0.3661
   19SOL     OW   73   0.109   1.364   0.960 -0.2150  0.6756 -0.4823
   19SOL    HW1   74   0.153   1.395   0.882 -0.3589 -0.6878  1.3870
   19SOL    HW2   75   0.020   1.402   0.949  1.8703  0.2288  1.0508
   19SOL     MW   76   0.103   1.373   0.948  0.0412  0.4368 -0.0334
   20SOL     OW   77   0.414   2.168   1.198  0.0000  0.3351 -0.0743
   20SOL    HW1   78   0.391   2.093   1.146  2.5600 -0.2725 -0.8657
   20SOL    HW2   79   0.377   2.146   1.285 -1.6955 -1.3511 -0.7493
   20SOL     MW   80   0.406   2.155   1.203  0.1141  0.0324 -0.2678
   21SOL     OW   81   0.488   0.880   0.399  0.1764  0.5382 -0.1129
   21SOL    HW1   82   0.567   0.857   0.453  2.2210  0.6816 -2.3144
   21SOL    HW2   83   0.511   0.876   0.307 -0.4134 -0.6686  1.4326
   21SOL     MW   84   0.502   0.876   0.394  0.3684  0.3979 -0.1994
   22SOL     OW   85   1.530   0.701   0.958 -0.0081  0.2497 -0.4778
   22SOL    HW1   86   1.516   0.648   0.882 -0.6027 -1.3206 -1.6947
   22SOL    HW2   87   1.442   0.730   0.989  0.6235  0.1349 -1.7610
   22SOL     MW   88   1.516   0.698   0.952 -0.0032  0.0274 -0.8077
   23SOL     OW   89   3.077   0.697   0.676  0.3483  0.4776  0.4748
   23SOL    HW1   90   3.121   0.615   0.699 -0.3163  0.4688 -0.8179
   23SOL    HW2   91   3.142   0.767   0.687  1.9842  1.0925 -0.8499
   23SOL     MW   92   3.091   0.695   0.680  0.4764  0.5576  0.1295
   24SOL     OW   93   2.048   2.214   3.083  0.2600 -0.3607 -0.6430
   24SOL    HW1   94   2.053   2.204   3.179  1.8606  0.7492  1.3772
   24SOL    HW2   95   2.072   2.122   3.063  1.2154 -1.7179 -0.9570
   24SOL     MW   96   2.052   2.201   3.093  0.5973 -0.3933 -0.4178
   25SOL     OW   97   0.247   1.344   0.434  0.1458 -0.1574 -0.8374
   25SOL    HW1   98   0.251   1.444   0.419  0.6069  0.2964  1.8704
   25SOL    HW2   99   0.331   1.311   0.418 -1.1199 -0.8529  3.4489
   25SOL     MW  100   0.259   1.353   0.430  0.0396 -0.1893  0.0854
   26SOL     OW  101   2.061   1.038   0.282 -0.0568 -0.4223 -0.2981
   26SOL    HW1  102   1.993   1.071   0.340 -0.3764  1.4303 -2.5346
   26SOL    HW2  103   2.132   1.097   0.287 -0.8703  0.9485  1.9302
   26SOL     MW  104   2.061   1.050   0.290 -0.2063  0.0030 -0.2992
   27SOL     OW  105   1.929   1.428   0.215 -0.8839 -0.3282  0.3349
   27SOL    HW1  106   1.875   1.509   0.218 -0.7308  0.2682 -0.1918
   27SOL    HW2  107   1.975   1.428   0.302 -0.6037  0.4647  1.0918
   27SOL     MW  108   1.928   1.439   0.227 -0.8267 -0.1449  0.3653
   28SOL     OW  109   0.449   1.005   2.002  0.6648  0.3359  0.1036
   28SOL    HW1  110   0.492   1.014   2.092 -0.5112 -0.7248 -0.4644
   28SOL    HW2  111   0.352   0.986   2.006  0.6913 -3.0789  2.1136
   28SOL     MW  112   0.442   1.004   2.015  0.5131 -0.2546  0.2939
   29SOL     OW  113   0.249   1.430   0.723 -0.0682 -0.3595 -0.4314
   29SOL    HW1  114   0.287   1.523   0.732  0.3589  0.2762 -1.2684
   29SOL    HW2  115   0.269   1.398   0.636 -0.2677  1.0882 -3.5339
   29SOL     MW  116   0.257   1.438   0.713 -0.0381 -0.0846 -0.9512
   30SOL     OW  117   0.839   1.268   1.234 -0.2520 -0.1106 -0.0675
   30SOL    HW1  118   0.767   1.231   1.278  0.3528 -0.1593 -1.5489
   30SOL    HW2  119   0.912   1.235   1.293 -0.9927  2.4585 -0.0179
   30SOL     MW  120   0.839   1.259   1.248 -0.2699  0.2219 -0.2564
   31SOL     OW  121   0.426   0.260   0.190  0.4033  0.7315  0.0758
   31SOL    HW1  122   0.457   0.177   0.225 -0.5966 -0.5750 -1.7270
   31SOL    HW2  123   0.460   0.255   0.100  0.5835 -0.1489  1.6227
   31SOL     MW  124   0.435   0.248   0.183  0.2952  0.4430  0.0420
   32SOL     OW  125   2.676   0.992   1.129  0.0503 -0.2999 -0.2357
   32SOL    HW1  126   2.621   0.922   1.130  1.0761  1.3843  1.0351
   32SOL    HW2  127   2.754   0.957   1.085 -2.7916 -0.2496 -1.4238
   32SOL     MW  128   2.679   0.978   1.123 -0.1894 -0.0710 -0.2248
   33SOL     OW  129   1.618   1.332   0.378  0.0681 -0.3046 -0.2831
   33SOL    HW1  130   1.688   1.274   0.405 -0.3544  1.9221 -0.6067
   33SOL    HW2  131   1.620   1.401   0.445 -1.9033  0.7514  0.5641
   33SOL     MW  132   1.627   1.333   0.391 -0.2478  0.1285 -0.2140
   34SOL     OW  133   1.256   1.942   1.121 -0.3624  0.2090  0.4468
   34SOL    HW1  134   1.175   1.973   1.151  2.1672  1.3257 -0.3165
   34SOL    HW2  135   1.320   1.962   1.186  1.5592 -1.2674  0.2722
   34SOL     MW  136   1.253   1.949   1.133  0.2249  0.1615  0.3230
   35SOL     OW  137   0.350   0.122   1.810 -0.5996 -0.0898  0.2000
   35SOL    HW1  138   0.391   0.050   1.856 -1.7516  0.0838  1.4443
   35SOL    HW2  139   0.333   0.081   1.720 -0.2160  1.2075 -1.2038
   35SOL     MW  140   0.353   0.107   1.804 -0.7010  0.1043  0.1789
   36SOL     OW  141   1.943   1.910   0.572  0.3678  0.4567  0.0995
   36SOL    HW1  142   1.920   1.898   0.481  0.5336 -1.4020  1.1476
   36SOL    HW2  143   1.926   1.820   0.605 -0.8432 -0.7138  2.6038
   36SOL     MW  144   1.938   1.896   0.564  0.2299  0.0571  0.5682
   37SOL     OW  145   1.807   2.004   0.980 -0.2482 -0.1016  0.1457
   37SOL    HW1  146   1.783   1.950   0.908  3.0034  0.0734  1.2035
   37SOL    HW2  147   1.736   2.055   1.011  1.3492 -1.7028  1.8454
   37SOL     MW  148   1.795   2.003   0.975  0.3916 -0.2898  0.5096
   38SOL     OW  149   2.810   0.933   0.121 -0.2784 -0.8419  0.1414
   38SOL    HW1  150   2.822   0.914   0.216  0.6940  1.4373 -1.6177
   38SOL    HW2  151   2.885   0.889   0.079 -0.8351 -1.9856  3.9701
   38SOL     MW  152   2.821   0.925   0.128 -0.2236 -0.6921  0.4145
   39SOL     OW  153   1.459   0.555   0.746  0.2319 -0.4458  0.2162
   39SOL    HW1  154   1.422   0.477   0.790 -0.5064 -1.9318 -1.5126
   39SOL    HW2  155   1.385   0.615   0.731 -0.5741 -0.7054 -0.2255
   39SOL     MW  156   1.444   0.553   0.750  0.0282 -0.6761 -0.0702
   40SOL     OW  157   1.243   1.875   0.208  0.6025  0.1373 -0.0605
   40SOL    HW1  158   1.294   1.812   0.262  0.2330 -1.1819  0.4168
   40SOL    HW2  159   1.212   1.942   0.268  1.2498 -2.0071  0.6318
   40SOL     MW  160   1.245   1.875   0.223  0.6392 -0.3197  0.0938
   41SOL     OW  161   0.571   0.487   1.634  0.3907  0.3049 -0.0806
   41SOL    HW1  162   0.649   0.537   1.612  2.2193  2.0166  1.6268
   41SOL    HW2  163   0.497   0.555   1.644 -2.5910  2.7209  0.7491
   41SOL     MW  164   0.572   0.503   1.632  0.2386  0.8495  0.2542
   42SOL     OW  165   1.293   3.008   1.947 -0.2086 -0.0978 -0.3174
   42SOL    HW1  166   1.206   3.011   1.982 -0.6213  1.3942  0.4407
   42SOL    HW2  167   1.318   2.921   1.979 -0.9889 -0.3920 -0.2509
   42SOL     MW  168   1.285   2.997   1.955 -0.3660  0.0602 -0.2086
   43SOL     OW  169   1.458   0.132   1.644 -0.3316 -0.0014  0.3720
   43SOL    HW1  170   1.516   0.066   1.603 -0.2443  1.4122 -0.8800
   43SOL    HW2  171   1.373   0.091   1.660  1.7257  1.0286  3.6017
   43SOL     MW  172   1.454   0.118   1.641 -0.0487  0.3210  0.6329
   44SOL     OW  173   1.289   0.767   1.059  0.4910 -0.2671 -0.1676
   44SOL    HW1  174   1.263   0.862   1.051  1.3429  1.4943  2.7634
   44SOL    HW2  175   1.291   0.747   1.155  1.1426  1.5026  1.7334
   44SOL     MW  176   1.285   0.777   1.071  0.6894  0.1988  0.4699
   45SOL     OW  177   1.267   0.757   0.754 -0.1426  0.1102  0.4348
   45SOL    HW1  178   1.216   0.768   0.833 -1.6264 -0.5012 -1.0524
   45SOL    HW2  179   1.191   0.738   0.690  1.4210 -0.2897  2.3929
   45SOL     MW  180   1.250   0.756   0.756 -0.1321 -0.0232  0.4969
   46SOL     OW  181   0.554   1.094   0.600 -0.6876  0.1975  0.3117
   46SOL    HW1  182   0.521   1.088   0.514  0.2388  1.7554  2.2247
   46SOL    HW2  183   0.648   1.096   0.580 -0.4888  1.1053 -0.0939
   46SOL     MW  184   0.562   1.094   0.586 -0.5391  0.5228  0.5106
   47SOL     OW  185   0.200   1.953   1.952 -0.2025  0.4638  0.0072
   47SOL    HW1  186   0.262   1.880   1.963 -0.2615 -1.8290 -1.2721
   47SOL    HW2  187   0.150   1.937   2.034 -1.3087  0.3187  1.6762
   47SOL     MW  188   0.201   1.941   1.964 -0.3562  0.1421  0.0586
   48SOL     OW  189   1.118   0.509   1.030  0.4892  0.1224  0.1645
   48SOL    HW1  190   1.022   0.509   1.009  0.8880  0.6795 -0.8063
   48SOL    HW2  191   1.141   0.597   1.049 -2.0451  0.7714 -1.4466
   48SOL     MW  192   1.108   0.521   1.030  0.2074  0.2815 -0.1761
   49SOL     OW  193   1.712   0.646   1.523 -0.1401 -0.4078 -0.0297
   49SOL    HW1  194   1.720   0.595   1.604  0.1924 -1.1197 -0.5679
   49SOL    HW2  195   1.735   0.589   1.449 -0.5696  0.0486  0.1915
   49SOL     MW  196   1.716   0.632   1.524 -0.1529 -0.4415 -0.0715
   50SOL     OW  197   1.254   1.146   0.562  0.3869  0.0166  0.2189
   50SOL    HW1  198   1.177   1.168   0.619 -0.4276  1.1364  0.9616
   50SOL    HW2  199   1.318   1.092   0.618  0.2581  2.2884  2.1128
   50SOL     MW  200   1.252   1.142   0.577  0.2624  0.4641  0.5668
   51SOL     OW  201   0.312   2.933   0.904  0.4148 -0.0151 -0.3832
   51SOL    HW1  202   0.404   2.916   0.884 -1.3993  1.0731  1.4108
   51SOL    HW2  203   0.310   2.973   0.991  0.3318  3.2544 -0.8354
   51SOL     MW  204   0.324   2.936   0.913  0.1645  0.5598 -0.2062
   52SOL     OW  205   0.791   1.793   0.468 -0.3940  0.3210 -0.0541
   52SOL    HW1  206   0.776   1.888   0.482  0.0156  0.9116  1.2318
   52SOL    HW2  207   0.831   1.782   0.382  2.5149 -0.6224  0.1405
   52SOL     MW  208   0.794   1.804   0.459  0.0438  0.2744  0.1412
   53SOL     OW  209   0.426   2.130   0.507  0.1529  0.3304  0.4935
   53SOL    HW1  210   0.360   2.131   0.440  2.7283 -0.3727  1.9221
   53SOL    HW2  211   0.425   2.219   0.546  0.8100  1.2198 -1.1126
   53SOL     MW  212   0.417   2.142   0.503  0.5794  0.3550  0.4701
   54SOL     OW  213   2.086   0.935   0.765 -0.0466 -0.3588  0.1997
   54SOL    HW1  214   2.109   0.922   0.670 -1.8759  0.9871  0.2314
   54SOL    HW2  215   2.033   0.858   0.795 -0.5706  0.0950  1.0584
   54SOL     MW  216   2.082   0.923   0.756 -0.3571 -0.1214  0.3172
   55SOL     OW  217   0.534   1.589   1.662 -0.2021 -0.7716 -0.3459
   55SOL    HW1  218   0.488   1.593   1.576 -3.3205  0.2918 -1.3397
   55SOL    HW2  219   0.551   1.499   1.658  0.2491  0.1982 -1.2430
   55SOL     MW  220   0.530   1.578   1.650 -0.5540 -0.5034 -0.5954
   56SOL     OW  221   0.608   0.872   0.142 -0.1511  0.0157  0.0134
   56SOL    HW1  222   0.644   0.957   0.128 -2.3651 -0.6176 -0.5062
   56SOL    HW2  223   0.529   0.875   0.086 -1.7246  1.0290  0.2762
   56SOL     MW  224   0.603   0.883   0.133 -0.6508  0.0658 -0.0205
   57SOL     OW  225   1.190   1.211   1.177  0.0764  0.2354 -0.0567
   57SOL    HW1  226   1.276   1.252   1.180  0.7131  2.0187 -1.9148
   57SOL    HW2  227   1.160   1.188   1.266 -0.1393 -1.6306  1.7696
   57SOL     MW  228   1.197   1.213   1.189  0.1319  0.2245 -0.0609
   58SOL     OW  229   0.520   1.227   1.291 -0.1097  0.5046 -0.3577
   58SOL    HW1  230   0.517   1.319   1.261  2.3344  2.7691  1.3389
   58SOL    HW2  231   0.492   1.232   1.383  1.3445  1.0877 -1.0514
   58SOL     MW  232   0.516   1.240   1.300  0.4046  0.8803 -0.2254
   59SOL     OW  233   1.512   1.688   0.319 -0.0561  0.1232  0.2624
   59SOL    HW1  234   1.551   1.740   0.392 -0.0172 -0.1128  2.6080
   59SOL    HW2  235   1.443   1.632   0.357  0.1291 -1.0466  2.1061
   59SOL     MW  236   1.508   1.688   0.334 -0.0266 -0.0623  0.8151
   60SOL     OW  237   3.083   0.210   1.691 -0.2061 -0.6165  0.4305
   60SOL    HW1  238   2.996   0.246   1.734 -5.5637 -3.1717  0.8114
   60SOL    HW2  239   3.115   0.160   1.764 -0.8140 -1.9227  3.2998
   60SOL     MW  240   3.076   0.208   1.706 -0.9932 -1.1260  0.8593
   61SOL     OW  241   1.977   1.388   3.046  0.2873  0.2418 -0.7514
   61SOL    HW1  242   1.933   1.388   3.136 -1.7377 -1.3700 -0.2896
   61SOL    HW2  243   2.069   1.352   3.054 -1.1857  2.8952 -3.2081
   61SOL     MW  244   1.984   1.383   3.059 -0.1742  0.3793 -1.0146
   62SOL     OW  245   0.548   1.713   0.523 -0.0389  0.4040  0.3091
   62SOL    HW1  246   0.641   1.729   0.508  3.9721 -1.1345  0.5642
   62SOL    HW2  247   0.552   1.620   0.526  0.9325 -1.2623 -2.1434
   62SOL     MW  248   0.560   1.703   0.521  0.6185 -0.0188  0.0191
   63SOL     OW  249   1.706   0.646   0.683  0.3262  0.0315 -0.3527
   63SOL    HW1  250   1.697   0.742   0.678 -2.1027 -0.7729  0.0369
   63SOL    HW2  251   1.614   0.616   0.679 -0.3079 -0.8302  0.9135
   63SOL     MW  252   1.693   0.655   0.682 -0.0779 -0.1883 -0.1343
   64SOL     OW  253   0.304   1.685   0.762 -0.3732 -0.3479 -0.2771
   64SOL    HW1  254   0.359   1.763   0.740 -1.1234  0.3273  3.8955
   64SOL    HW2  255   0.216   1.724   0.762 -0.7599  0.5535  0.6254
   64SOL     MW  256   0.300   1.701   0.759 -0.5232 -0.1399  0.3925
   65SOL     OW  257   1.576   2.332   0.401 -0.1875 -0.1056 -0.1906
   65SOL    HW1  258   1.665   2.340   0.437  0.7391 -2.6816 -0.1901
   65SOL    HW2  259   1.516   2.337   0.480  0.4993 -0.7554  2.0061
   65SOL     MW  260   1.580   2.333   0.416  0.0254 -0.5312  0.0993
   66SOL     OW  261   0.336   0.530   0.468  0.0969  0.0448 -0.3540
   66SOL    HW1  262   0.365   0.548   0.379  0.1349  0.3420 -0.1124
   66SOL    HW2  263   0.306   0.622   0.495 -1.1930  0.9901 -1.1314
   66SOL     MW  264   0.336   0.544   0.459 -0.0683  0.2087 -0.4247
   67SOL     OW  265   1.459   0.144   1.993 -0.3366  0.0626  0.1074
   67SOL    HW1  266   1.488   0.189   1.913  1.7558 -0.1905 -1.7598
   67SOL    HW2  267   1.444   0.055   1.968  2.0694  0.0260 -0.0276
   67SOL     MW  268   1.461   0.138   1.979  0.2569  0.0244 -0.1567
   68SOL     OW  269   0.790   0.035   2.944  0.0835 -0.3748  0.1901
   68SOL    HW1  270   0.786   0.095   2.869 -0.5068  0.6859 -0.6964
   68SOL    HW2  271   0.842   0.070   3.018  3.6476 -1.5067  1.9556
   68SOL     MW  272   0.797   0.048   2.944  0.4759 -0.3842  0.3060
   69SOL     OW  273   0.955   0.202   1.954 -0.1324  0.0862  0.1437
   69SOL    HW1  274   1.050   0.218   1.976  0.6327  0.5782 -5.1515
   69SOL    HW2  275   0.932   0.118   2.000  0.3392  0.7781  0.9758
   69SOL     MW  276   0.964   0.193   1.963  0.0308  0.2424 -0.4452
   70SOL     OW  277   0.504   1.705   1.104 -0.7359 -0.1780 -0.6292
   70SOL    HW1  278   0.546   1.772   1.157 -1.1478  2.0018 -1.5171
   70SOL    HW2  279   0.562   1.691   1.027  0.6326  1.6793 -0.2780
   70SOL     MW  280   0.517   1.712   1.101 -0.6097  0.3547 -0.7000
   71SOL     OW  281   1.552   0.534   1.155 -0.0973  0.1260  0.1585
   71SOL    HW1  282   1.548   0.581   1.235 -0.2316 -2.6386  0.2460
   71SOL    HW2  283   1.535   0.597   1.087  0.0625 -0.2696 -0.3015
   71SOL     MW  284   1.549   0.548   1.157 -0.0940 -0.2909  0.1094
   72SOL     OW  285   0.789   1.852   0.991 -0.0636  0.6262  0.0210
   72SOL    HW1  286   0.754   1.934   0.953  0.8251  0.0834  0.4148
   72SOL    HW2  287   0.743   1.783   0.940 -1.1116 -1.2654  0.4075
   72SOL     MW  288   0.778   1.854   0.979 -0.0846  0.3050  0.1239
   73SOL     OW  289   1.231   0.688   1.313  0.7432 -0.6287  0.0619
   73SOL    HW1  290   1.175   0.614   1.310 -3.2451  1.2754  0.4068
   73SOL    HW2  291   1.169   0.760   1.327  0.3433  1.2900  1.0752
   73SOL     MW  292   1.216   0.688   1.314  0.1642 -0.1243  0.2411
   74SOL     OW  293   2.865   0.259   1.089  0.3819 -0.2262 -0.4645
   74SOL    HW1  294   2.920   0.335   1.115  1.2137 -1.9435 -1.0809
   74SOL    HW2  295   2.790   0.296   1.047 -0.6414 -0.5190 -1.5960
   74SOL     MW  296   2.862   0.274   1.087  0.3566 -0.4914 -0.6951
   75SOL     OW  297   1.580   1.345   0.108 -0.2893 -0.6261  0.4215
   75SOL    HW1  298   1.645   1.276   0.080 -0.5995  0.6974 -0.4167
   75SOL    HW2  299   1.592   1.355   0.205 -0.2757 -0.7102 -0.9413
   75SOL     MW  300   1.590   1.337   0.117 -0.3284 -0.4626  0.1311
   76SOL     OW  301   2.971   0.604   0.450 -0.0356 -0.2715  0.2447
   76SOL    HW1  302   3.012   0.638   0.533  1.9248 -0.4287 -0.1513
   76SOL    HW2  303   3.039   0.561   0.399 -0.2065  0.3531  0.9295
   76SOL     MW  304   2.985   0.603   0.454  0.2005 -0.2098  0.2828
   77SOL     OW  305   0.862   0.543   0.455  0.9681 -0.4270 -0.5519
   77SOL    HW1  306   0.859   0.559   0.360 -1.2805 -1.0023 -0.2801
   77SOL    HW2  307   0.871   0.445   0.459  0.9538  0.1144 -0.7655
   77SOL     MW  308   0.863   0.532   0.443  0.6696 -0.4315 -0.5442
   78SOL     OW  309   0.759   0.839   1.168  0.6177  0.1635 -0.2772
   78SOL    HW1  310   0.769   0.925   1.131  0.6734  2.5213 -0.3389
   78SOL    HW2  311   0.658   0.827   1.155 -0.8406  2.5171 -2.4990
   78SOL     MW  312   0.747   0.849   1.162  0.4326  0.7852 -0.5785
   79SOL     OW  313   1.903   1.632   0.628  0.3540  0.2246 -0.1865
   79SOL    HW1  314   1.824   1.597   0.585  0.7527  1.0414  1.8673
   79SOL    HW2  315   1.880   1.607   0.721 -1.3189  2.4586 -0.0939
   79SOL     MW  316   1.890   1.624   0.635  0.1859  0.6271  0.0967
   80SOL     OW  317   0.083   0.956   0.358  0.0132  0.3764  0.1008
   80SOL    HW1  318  -0.002   0.910   0.360  0.3012 -0.4350 -0.7246
   80SOL    HW2  319   0.133   0.903   0.417  2.6717 -0.6516 -1.4884
   80SOL     MW  320   0.078   0.943   0.366  0.4020  0.1337 -0.2178
   81SOL     OW  321   1.861   1.887   0.322  0.0832 -0.8057  0.1307
   81SOL    HW1  322   1.845   1.791   0.281  0.9462 -1.6638 -2.2696
   81SOL    HW2  323   1.799   1.943   0.265  0.2116 -1.0645  0.9765
   81SOL     MW  324   1.850   1.882   0.309  0.2140 -0.9531 -0.0744
   82SOL     OW  325   0.840   1.027   0.502  0.6749  0.4002  0.2383
   82SOL    HW1  326   0.817   1.037   0.407 -0.1607  1.3135  0.8003
   82SOL    HW2  327   0.833   0.933   0.530 -1.5323 -2.1751  0.2486
   82SOL     MW  328   0.836   1.016   0.493  0.2734  0.1809  0.3138
   83SOL     OW  329   0.044   0.747   1.508 -0.3038  0.0412  0.4541
   83SOL    HW1  330   0.049   0.781   1.418  2.1360 -1.9128  0.4891
   83SOL    HW2  331   0.116   0.680   1.509  0.5838 -1.4347 -1.7942
   83SOL     MW  332   0.054   0.743   1.496  0.1352 -0.4113  0.1621
   84SOL     OW  333   0.040   0.199   0.900  0.4364  0.2036 -0.0700
   84SOL    HW1  334  -0.000   0.259   0.964 -1.3641  1.9546  0.6099
   84SOL    HW2  335   0.054   0.119   0.952 -0.5927 -0.9133  0.4578
   84SOL     MW  336   0.037   0.197   0.915  0.0631  0.2872  0.0893
   85SOL     OW  337   0.411   0.446   0.716 -0.1340 -0.0367  0.3846
   85SOL    HW1  338   0.396   0.466   0.629 -0.6421 -1.8223  2.7713
   85SOL    HW2  339   0.370   0.357   0.734  0.2259 -0.2617  1.5552
   85SOL     MW  340   0.404   0.437   0.707 -0.1535 -0.3020  0.8539
   86SOL     OW  341   1.198   0.249   1.123 -0.2968 -0.1921 -0.1264
   86SOL    HW1  342   1.174   0.334   1.154 -2.1812  1.0407 -1.9163
   86SOL    HW2  343   1.292   0.253   1.128 -2.8098 -2.0513  2.1380
   86SOL     MW  344   1.207   0.261   1.128 -0.8770 -0.2747 -0.0638
   87SOL     OW  345   1.103   1.481   1.209 -0.5315 -0.0702 -0.0597
   87SOL    HW1  346   1.157   1.545   1.158 -1.0646 -1.4849 -0.1383
   87SOL    HW2  347   1.137   1.398   1.193 -3.3538  1.3835 -1.0668
   87SOL     MW  348   1.114   1.478   1.200 -0.9742 -0.0650 -0.2030
   88SOL     OW  349   1.217   1.002   0.997  0.6867 -0.2812 -0.0797
   88SOL    HW1  350   1.311   1.026   0.975  0.4601  0.9995 -1.8822
   88SOL    HW2  351   1.185   1.059   1.073 -2.0515  0.7111  1.2127
   88SOL     MW  352   1.225   1.013   1.004  0.2955  0.0187 -0.1470
   89SOL     OW  353   1.740   0.731   0.349 -0.3094 -0.0113  0.7829
   89SOL    HW1  354   1.745   0.644   0.389 -0.1814 -0.0132  1.4118
   89SOL    HW2  355   1.828   0.744   0.315  1.1438  0.0607  1.9880
   89SOL     MW  356   1.752   0.721   0.350 -0.1008 -0.0021  1.0249
   90SOL     OW  357   0.813   1.157   2.883  0.0349  0.0007  0.1921
   90SOL    HW1  358   0.892   1.105   2.890  2.3704  2.0572 -0.1375
   90SOL    HW2  359   0.825   1.224   2.956 -0.6525  1.3274 -1.0001
   90SOL     MW  360   0.825   1.159   2.894  0.2524  0.4471 -0.0087
   91SOL     OW  361   2.171   0.660   0.499 -0.0078 -0.7627 -0.8495
   91SOL    HW1  362   2.233   0.720   0.449  2.3273  0.9911 -0.9921
   91SOL    HW2  363   2.186   0.565   0.464  1.8322 -2.9191 -1.1691
   91SOL     MW  364   2.181   0.655   0.488  0.5430 -0.8158 -0.9105
   92SOL     OW  365   1.691   0.901   0.586 -0.8163  0.2922 -0.5422
   92SOL    HW1  366   1.594   0.906   0.598 -1.0616 -0.0025  0.9559
   92SOL    HW2  367   1.700   0.837   0.511 -2.2694 -0.0735  0.2113
   92SOL     MW  368   1.680   0.893   0.577 -1.0404  0.2050 -0.2452
   93SOL     OW  369   1.129   0.161   0.432 -0.0629  0.0286  0.1059
   93SOL    HW1  370   1.043   0.195   0.403 -1.6233  1.0374  1.1498
   93SOL    HW2  371   1.197   0.194   0.375 -0.0847  0.8026  0.1793
   93SOL     MW  372   1.126   0.170   0.421 -0.2717  0.2638  0.2533
   94SOL     OW  373   1.865   1.372   1.589 -0.2988 -0.3855  0.1787
   94SOL    HW1  374   1.867   1.396   1.493 -0.4108 -1.6939  1.5592
   94SOL    HW2  375   1.829   1.284   1.592  1.1419  0.8657 -0.8134
   94SOL     MW  376   1.861   1.364   1.577 -0.1235 -0.3931  0.2300
   95SOL     OW  377   0.694   1.600   0.933 -0.3767 -0.3258 -0.3336
   95SOL    HW1  378   0.743   1.583   1.017 -0.1311  0.5722 -1.2862
   95SOL    HW2  379   0.633   1.529   0.916  0.0473 -0.4211  2.2315
   95SOL     MW  380   0.693   1.589   0.942 -0.2883 -0.2199 -0.1208
   96SOL     OW  381   1.327   1.877   1.727 -0.0767 -0.4736 -0.2034
   96SOL    HW1  382   1.244   1.887   1.781  0.3538  1.1246  0.4326
   96SOL    HW2  383   1.319   1.795   1.684 -1.0361  1.3681 -0.4513
   96SOL     MW  384   1.315   1.868   1.728 -0.1465 -0.0197 -0.1522
   97SOL     OW  385   1.106   1.466   0.843  0.3684 -0.0877 -0.1685
   97SOL    HW1  386   1.151   1.530   0.898 -2.3766 -0.5856  1.4316
   97SOL    HW2  387   1.027   1.512   0.808  0.5413 -2.0625  1.1002
   97SOL     MW  388   1.101   1.480   0.846  0.0290 -0.4139  0.2100
   98SOL     OW  389   1.458   1.311   1.160 -0.3473  0.5869  0.0598
   98SOL    HW1  390   1.506   1.359   1.224 -1.2927 -1.7146  0.1682
   98SOL    HW2  391   1.462   1.369   1.077 -1.2577 -1.2354  0.9628
   98SOL     MW  392   1.465   1.325   1.157 -0.5922  0.0428  0.1932
   99SOL     OW  393   1.463   0.283   1.252  0.3277  0.0605  0.0478
   99SOL    HW1  394   1.495   0.367   1.219  2.2023 -0.5344  1.2760
   99SOL    HW2  395   1.407   0.302   1.333 -1.5889  0.6045 -1.9821
   99SOL     MW  396   1.460   0.296   1.258  0.3221  0.0538 -0.0580
  100SOL     OW  397   1.048   1.157   1.403 -0.6118 -0.0177  0.2077
  100SOL    HW1  398   1.087   1.190   1.484  0.9038  2.0490  0.2143
  100SOL    HW2  399   1.039   1.065   1.420  0.3598  0.3603  1.0337
  100SOL     MW  400   1.052   1.149   1.416 -0.2836  0.3048  0.3175
  101SOL     OW  401   0.489   1.214   0.354  0.6096 -0.2151  0.6838
  101SOL    HW1  402   0.422   1.178   0.295  1.4673  0.4780 -0.4254
  101SOL    HW2  403   0.559   1.179   0.300  2.4033 -2.0054 -0.4039
  101SOL     MW  404   0.490   1.205   0.339  0.9594 -0.3599  0.3939
  102SOL     OW  405   2.904   0.640   0.996 -0.0124  0.4048  0.4822
  102SOL    HW1  406   2.901   0.730   0.974  1.7759  0.6601  0.7734
  102SOL    HW2  407   2.883   0.623   1.094  1.7819 -0.9480 -1.1202
  102SOL     MW  408   2.901   0.649   1.006  0.4603  0.2600  0.3092
  103SOL     OW  409   1.825   0.263   1.886  0.3782 -0.8115 -0.5998
  103SOL    HW1  410   1.824   0.178   1.851 -1.4033  0.2445 -0.7235
  103SOL    HW2  411   1.820   0.256   1.980 -1.0181 -0.6951 -1.3453
  103SOL     MW  412   1.824   0.251   1.894 -0.0411 -0.6568 -0.7145
  104SOL     OW  413   0.101   1.512   1.586 -0.1329  0.1113 -0.0738
  104SOL    HW1  414   0.175   1.473   1.624 -3.0359 -0.7248 -1.6093
  104SOL    HW2  415   0.035   1.456   1.620  2.1193 -0.3579  1.4564
  104SOL     MW  416   0.102   1.499   1.596 -0.2188 -0.0609 -0.0745
  105SOL     OW  417   0.003   1.206   0.423  0.0344  0.2336 -0.1402
  105SOL    HW1  418   0.047   1.120   0.411  1.6511 -2.2964  4.2122
  105SOL    HW2  419   0.070   1.270   0.426 -0.7715 -0.8632 -1.7426
  105SOL     MW  420   0.018   1.203   0.422  0.1414 -0.2449  0.2227
  106SOL     OW  421   0.803   0.420   0.915 -0.3078 -0.1499 -0.6820
  106SOL    HW1  422   0.721   0.466   0.906 -0.9529 -1.4465  1.6716
  106SOL    HW2  423   0.840   0.409   0.824 -0.0320  2.3868 -0.9535
  106SOL     MW  424   0.797   0.425   0.902 -0.3565  0.0137 -0.4073
  107SOL     OW  425   0.806   2.119   2.908 -0.6812 -0.0806  0.1717
  107SOL    HW1  426   0.714   2.110   2.880  0.3844 -1.3433  0.4248
  107SOL    HW2  427   0.795   2.077   2.992  3.5381 -1.2584 -2.2683
  107SOL     MW  428   0.792   2.112   2.916  0.0161 -0.4026 -0.1169
  108SOL     OW  429   1.350   1.627   1.644  0.5085 -0.1379  0.0469
  108SOL    HW1  430   1.300   1.604   1.567 -2.6975 -2.0087 -3.8721
  108SOL    HW2  431   1.421   1.562   1.657 -0.2945  2.0562  1.8765
  108SOL     MW  432   1.353   1.615   1.636 -0.0205 -0.0953 -0.2288
  109SOL     OW  433   1.983   0.761   0.255  0.1585 -0.5295 -0.3068
  109SOL    HW1  434   2.008   0.854   0.263  1.9613 -1.4557 -0.0256
  109SOL    HW2  435   2.026   0.714   0.328  3.3327  0.6660 -1.0517
  109SOL     MW  436   1.992   0.767   0.265  0.8152 -0.4939 -0.3680
  110SOL     OW  437   0.414   1.922   0.661  0.0548  0.4595  0.4408
  110SOL    HW1  438   0.469   1.866   0.602 -1.3510  3.3623 -0.0771
  110SOL    HW2  439   0.404   2.002   0.603 -0.2374  0.7894 -1.2675
  110SOL     MW  440   0.420   1.925   0.646 -0.1693  0.8860  0.1470
  111SOL     OW  441   0.779   0.877   1.443 -0.0005  0.5250  0.1385
  111SOL    HW1  442   0.770   0.862   1.346  2.6615  0.2408  1.7492
  111SOL    HW2  443   0.766   0.789   1.476  0.2303 -0.0116 -0.4053
  111SOL     MW  444   0.776   0.864   1.435  0.3812  0.4167  0.2793
  112SOL     OW  445   1.333   1.068   1.618 -0.3282  0.2191  0.0506
  112SOL    HW1  446   1.267   1.136   1.627 -1.2536  3.2759 -1.0382
  112SOL    HW2  447   1.282   0.987   1.615  2.1207 -2.1511 -0.4023
  112SOL     MW  448   1.318   1.066   1.619 -0.1272  0.3097 -0.1528
  113SOL     OW  449   1.256   3.079   1.693  0.1330  0.4857 -0.4745
  113SOL    HW1  450   1.273   3.043   1.786 -0.2513  0.0401  1.3659
  113SOL    HW2  451   1.230   3.003   1.638  2.6464 -0.0498 -1.7211
  113SOL     MW  452   1.255   3.065   1.698  0.4139  0.3562 -0.3962
  114SOL     OW  453   0.261   2.871   1.878 -0.4200 -0.2663 -0.2134
  114SOL    HW1  454   0.343   2.912   1.914  1.3486  2.5886  0.5224
  114SOL    HW2  455   0.201   2.937   1.897  2.1711 -3.4896 -2.1091
  114SOL     MW  456   0.264   2.885   1.885  0.1553 -0.3149 -0.3664
  115SOL     OW  457   0.459   0.809   1.145 -0.4451 -0.2786 -0.1290
  115SOL    HW1  458   0.463   0.723   1.196  2.9942 -0.2523  0.2300
  115SOL    HW2  459   0.411   0.876   1.204 -1.4163  3.4281 -2.0129
  115SOL     MW  460   0.453   0.806   1.160 -0.1194  0.2139 -0.3302
  116SOL     OW  461   0.820   1.068   0.982  0.1109  0.5396  0.0526
  116SOL    HW1  462   0.800   1.104   0.892  0.1310  0.1914 -2.0930
  116SOL    HW2  463   0.856   1.138   1.032 -2.3679 -0.6967 -2.3582
  116SOL     MW  464   0.822   1.082   0.977 -0.2135  0.3305 -0.5486
  117SOL     OW  465   1.104   1.192   0.806  0.1794 -0.5441  0.3032
  117SOL    HW1  466   1.108   1.127   0.877 -2.4872  2.0516 -1.4187
  117SOL    HW2  467   1.110   1.287   0.839  1.3922 -1.8327 -0.2478
  117SOL     MW  468   1.105   1.196   0.820 -0.0124 -0.3717  0.0033
  118SOL     OW  469   3.046   2.964   1.684 -0.5662  0.3965  0.1592
  118SOL    HW1  470   3.103   3.014   1.744  3.3602  0.9108 -0.9327
  118SOL    HW2  471   2.952   2.974   1.713 -2.1856  0.5041  4.0400
  118SOL     MW  472   3.041   2.971   1.696 -0.2618  0.4786  0.5271
  119SOL     OW  473   0.429   1.494   1.271 -0.4767 -0.2221 -0.0565
  119SOL    HW1  474   0.450   1.538   1.185 -1.1958 -0.4929  0.8014
  119SOL    HW2  475   0.335   1.471   1.267 -1.5947 -1.1713 -0.9417
  119SOL     MW  476   0.419   1.497   1.259 -0.7191 -0.3831 -0.0601
  120SOL     OW  477   0.205   0.742   1.022 -0.4622  0.5296  0.2791
  120SOL    HW1  478   0.126   0.777   1.067 -2.3240  1.8101 -3.3464
  120SOL    HW2  479   0.274   0.792   1.068 -1.0033 -1.2526 -1.4197
  120SOL     MW  480   0.204   0.753   1.034 -0.7792  0.4634 -0.4234
  121SOL     OW  481   1.756   1.096   1.672  0.1529  0.5969  0.3453
  121SOL    HW1  482   1.676   1.060   1.701  2.5686 -0.9354 -2.3768
  121SOL    HW2  483   1.781   1.039   1.593  4.6901  0.5908 -0.6700
  121SOL     MW  484   1.749   1.084   1.666  1.0703  0.3939 -0.1478
  122SOL     OW  485   0.192   0.555   0.837 -0.0109  0.4546 -0.2464
  122SOL    HW1  486   0.283   0.531   0.814  0.8456  1.5719  1.5567
  122SOL    HW2  487   0.201   0.608   0.914 -1.1614  1.5907 -1.9643
  122SOL     MW  488   0.205   0.559   0.844 -0.0497  0.7519 -0.2352
  123SOL     OW  489   1.848   1.104   0.454 -0.4672 -0.3276  0.4520
  123SOL    HW1  490   1.792   1.035   0.486  1.3456  1.2449  1.7191
  123SOL    HW2  491   1.860   1.155   0.532  1.2648 -3.7882 -0.6743
  123SOL     MW  492   1.842   1.102   0.469  0.0005 -0.5767  0.4706
  124SOL     OW  493   0.536   0.562   0.918 -0.9909  0.4109 -0.3694
  124SOL    HW1  494   0.499   0.515   0.841 -1.4903 -2.1745 -0.9812
  124SOL    HW2  495   0.564   0.649   0.886 -1.1702 -0.3171  1.2461
  124SOL     MW  496   0.535   0.567   0.904 -1.0804 -0.0263 -0.2370
  125SOL     OW  497   0.729   1.774   1.708  0.4558 -0.0116 -0.3066
  125SOL    HW1  498   0.657   1.707   1.699  1.6893 -0.5408  2.7688
  125SOL    HW2  499   0.691   1.862   1.721  0.2699  3.0392  0.2095
  125SOL     MW  500   0.714   1.777   1.709  0.5940  0.3211  0.1673
  126SOL     OW  501   2.137   1.556   1.972  0.0936 -0.3910 -0.3715
  126SOL    HW1  502   2.195   1.634   1.952 -1.8340 -0.4166 -0.6295
  126SOL    HW2  503   2.198   1.486   2.000  3.2374  0.7204 -0.3017
  126SOL     MW  504   2.153   1.557   1.973  0.2541 -0.2478 -0.3963
  127SOL     OW  505   0.576   0.849   1.801  0.4606  0.3074 -0.4942
  127SOL    HW1  506   0.659   0.833   1.846  0.0231  2.3167 -0.4412
  127SOL    HW2  507   0.534   0.917   1.861 -0.8331  0.6749  0.7105
  127SOL     MW  508   0.581   0.856   1.815  0.2322  0.6210 -0.3282
  128SOL     OW  509   1.681   0.723   2.912 -0.2749 -0.2151 -0.0544
  128SOL    HW1  510   1.709   0.730   2.818 -0.1137  1.0244 -1.0205
  128SOL    HW2  511   1.644   0.810   2.929  0.6726  1.3162 -2.4743
  128SOL     MW  512   1.680   0.736   2.902 -0.1286  0.1505 -0.5012
  129SOL     OW  513   1.631   0.930   0.150 -0.1114  0.6548 -0.0700
  129SOL    HW1  514   1.541   0.902   0.137 -1.4280 -0.5531 -1.4240
  129SOL    HW2  515   1.672   0.878   0.216  0.6328 -0.7269  0.7793
  129SOL     MW  516   1.625   0.920   0.157 -0.1869  0.3131 -0.1366
  130SOL     OW  517   0.809   1.369   0.322 -0.0490 -0.2056 -0.1689
  130SOL    HW1  518   0.837   1.387   0.417 -2.4749 -0.0009  0.4602
  130SOL    HW2  519   0.852   1.441   0.270  1.5089  0.3559  0.7261
  130SOL     MW  520   0.818   1.381   0.328 -0.1636 -0.1045  0.0322
  131SOL     OW  521   3.040   0.830   3.093  0.3744 -0.1475 -0.0500
  131SOL    HW1  522   3.027   0.879   3.003 -0.0249 -1.2691 -3.6987
  131SOL    HW2  523   3.135   0.801   3.103  0.4443  1.1336  1.7809
  131SOL     MW  524   3.051   0.833   3.082  0.3309 -0.1265 -0.2899
  132SOL     OW  525   2.725   0.144   1.305  0.3725  0.2244 -0.1367
  132SOL    HW1  526   2.785   0.175   1.238  0.2327 -1.0916 -1.5140
  132SOL    HW2  527   2.653   0.113   1.256  2.0383 -0.3352  2.7476
  132SOL     MW  528   2.723   0.144   1.290  0.5739 -0.0231  0.0622
  133SOL     OW  529   1.045   0.148   1.695  0.5745  0.6904  0.0402
  133SOL    HW1  530   1.117   0.083   1.701 -1.0490 -0.3666 -0.4497
  133SOL    HW2  531   1.029   0.172   1.787  0.3404 -1.4489 -0.3167
  133SOL     MW  532   1.052   0.142   1.708  0.3294  0.2687 -0.0715
  134SOL     OW  533   1.413   2.472   1.424 -0.0825 -0.9226  0.0240
  134SOL    HW1  534   1.349   2.536   1.402  0.6630  1.3228  0.9136
  134SOL    HW2  535   1.449   2.505   1.506 -0.9522 -0.9670 -0.0990
  134SOL     MW  536   1.409   2.485   1.432 -0.0989 -0.6322  0.1252
  135SOL     OW  537   3.042   0.976   2.852  0.3064  0.6016  0.5674
  135SOL    HW1  538   3.088   1.037   2.910 -0.3890 -3.6528  0.2793
  135SOL    HW2  539   2.962   1.027   2.846  0.2412 -0.8269  0.7566
  135SOL     MW  540   3.037   0.991   2.859  0.2061 -0.1482  0.5543
  136SOL     OW  541   0.216   2.070   0.842  0.3290  0.0615  0.7352
  136SOL    HW1  542   0.151   1.993   0.848 -1.3044 -1.3861 -1.8449
  136SOL    HW2  543   0.283   2.047   0.780 -4.2858 -1.9351  1.3672
  136SOL     MW  544   0.216   2.057   0.834 -0.4954 -0.3929  0.4782
  137SOL     OW  545   0.696   2.056   0.560 -0.0620  0.1401  0.5240
  137SOL    HW1  546   0.701   2.064   0.660 -0.2083  2.4413 -1.2360
  137SOL    HW2  547   0.602   2.070   0.545  1.1158  3.0352  0.5384
  137SOL     MW  548   0.684   2.059   0.571  0.0741  0.8257  0.2937
  138SOL     OW  549   0.501   0.537   1.197 -0.5635 -0.7028  0.0268
  138SOL    HW1  550   0.415   0.502   1.175  2.4077  0.6371 -0.6589
  138SOL    HW2  551   0.537   0.537   1.103 -1.8650  1.8650 -1.8273
  138SOL     MW  552   0.495   0.532   1.182 -0.3432 -0.1872 -0.3083
  139SOL     OW  553   2.863   0.540   1.263 -0.5953  0.3908  0.3005
  139SOL    HW1  554   2.906   0.471   1.305  0.3298  0.1107 -1.5057
  139SOL    HW2  555   2.855   0.605   1.335 -3.1468  0.0014  1.1749
  139SOL     MW  556   2.867   0.539   1.278 -0.8099  0.3024  0.1776
  140SOL     OW  557   0.932   0.477   2.011 -0.5332 -0.4852 -0.1658
  140SOL    HW1  558   0.943   0.381   1.988 -1.2292 -0.2718 -0.3764
  140SOL    HW2  559   0.898   0.472   2.105  0.0717 -0.1106  0.0594
  140SOL     MW  560   0.929   0.464   2.021 -0.5453 -0.4076 -0.1639
  141SOL     OW  561   0.988   0.630   1.692 -0.4245 -0.0823 -0.2928
  141SOL    HW1  562   1.057   0.562   1.677 -3.0215  0.1000 -1.3449
  141SOL    HW2  563   1.036   0.708   1.681  0.9148 -0.1592 -0.0590
  141SOL     MW  564   1.004   0.632   1.689 -0.5904 -0.0684 -0.4007
  142SOL     OW  565   0.829   1.173   0.735 -0.1650  0.0333  0.0181
  142SOL    HW1  566   0.856   1.111   0.664 -1.4061 -0.0601  0.0360
  142SOL    HW2  567   0.915   1.193   0.765 -1.3610  1.4683  2.4507
  142SOL     MW  568   0.844   1.168   0.729 -0.4866  0.2103  0.3414
  143SOL     OW  569   1.819   0.675   1.088  0.2665 -0.2759  0.0144
  143SOL    HW1  570   1.871   0.666   1.006  1.0658  0.9505  0.8011
  143SOL    HW2  571   1.725   0.674   1.061 -0.2372  2.6919  0.1635
  143SOL     MW  572   1.814   0.674   1.073  0.3055  0.2775  0.1378
  144SOL     OW  573   0.286   1.363   1.708 -0.0457  0.4429  0.6116
  144SOL    HW1  574   0.352   1.323   1.648  1.1120 -0.9594  0.9046
  144SOL    HW2  575   0.320   1.332   1.798  0.7272 -2.9015 -0.3221
  144SOL     MW  576   0.299   1.354   1.712  0.2090 -0.1834  0.5271
  145SOL     OW  577   0.180   0.494   1.234 -0.4243 -0.2323  0.5382
  145SOL    HW1  578   0.200   0.400   1.220 -2.0297  0.8704 -0.7250
  145SOL    HW2  579   0.145   0.505   1.144 -0.4257  0.0553 -1.5557
  145SOL     MW  580   0.178   0.483   1.220 -0.6363 -0.0489  0.0953
  146SOL     OW  581   0.874   1.958   1.392  0.7230 -0.6505 -0.3617
  146SOL    HW1  582   0.921   1.974   1.313  1.5410  3.3029 -0.1086
  146SOL    HW2  583   0.781   1.943   1.373  2.9051 -0.2160 -1.5338
  146SOL     MW  584   0.868   1.958   1.379  1.1189 -0.0716 -0.4830
  147SOL     OW  585   0.404   0.517   2.954  0.4148  0.1072 -0.1799
  147SOL    HW1  586   0.408   0.578   3.022 -1.0702  0.0359 -1.0564
  147SOL    HW2  587   0.339   0.557   2.895  0.7181 -2.1250 -1.2296
  147SOL     MW  588   0.396   0.530   2.955  0.2589 -0.1967 -0.4341
  148SOL     OW  589   0.061   0.873   1.239 -0.5698 -0.7225 -0.7575
  148SOL    HW1  590   0.154   0.893   1.277  2.4660  2.5807  0.0933
  148SOL    HW2  591   0.019   0.957   1.248  0.5689  0.7841 -1.5075
  148SOL     MW  592   0.068   0.887   1.245 -0.0190 -0.0879 -0.7442
  149SOL     OW  593   1.556   1.155   1.404  0.7199  0.3510  0.3064
  149SOL    HW1  594   1.495   1.153   1.480  0.8624 -2.2445  0.2952
  149SOL    HW2  595   1.565   1.249   1.388  1.6010  0.0886  0.6432
  149SOL     MW  596   1.549   1.167   1.412  0.8550 -0.0261  0.3494
  150SOL     OW  597   1.724   1.388   0.845 -0.5028 -0.5252 -0.0187
  150SOL    HW1  598   1.772   1.305   0.845  0.0032 -0.8876  3.0082
  150SOL    HW2  599   1.790   1.454   0.873 -0.0176  2.2595  2.7454
  150SOL     MW  600   1.739   1.386   0.849 -0.3720 -0.2056  0.7454
  151SOL     OW  601   1.678   1.840   0.802  0.2655  0.4246  0.3725
  151SOL    HW1  602   1.654   1.825   0.710  2.0257  1.2422  0.6839
  151SOL    HW2  603   1.603   1.820   0.858 -2.3696 -1.2935 -1.6683
  151SOL     MW  604   1.665   1.835   0.798  0.1501  0.3058  0.1443
  152SOL     OW  605   0.779   1.421   1.644 -0.0993 -0.1289 -0.4901
  152SOL    HW1  606   0.750   1.471   1.569 -0.8388  0.1040 -0.6898
  152SOL    HW2  607   0.772   1.324   1.622 -0.0739 -1.8080  2.3323
  152SOL     MW  608   0.774   1.415   1.631 -0.1935 -0.3197 -0.1441
  153SOL     OW  609   2.569   1.229   0.769 -0.1483  0.1718 -0.0060
  153SOL    HW1  610   2.647   1.198   0.722 -1.8821 -2.6169 -0.3450
  153SOL    HW2  611   2.516   1.145   0.771 -0.0182 -2.8526  0.8327
  153SOL     MW  612   2.572   1.214   0.763 -0.3599 -0.5952  0.0599
  154SOL     OW  613   0.122   1.747   1.711 -0.0240  0.2945  0.3500
  154SOL    HW1  614   0.104   1.658   1.673 -2.3521 -0.0742 -1.9366
  154SOL    HW2  615   0.195   1.748   1.768  0.8537 -0.3007  0.0616
  154SOL     MW  616   0.130   1.735   1.714 -0.2154  0.1673  0.0103
  155SOL     OW  617   1.171   0.722   0.316  0.1082  0.4835  0.0938
  155SOL    HW1  618   1.168   0.684   0.409  1.8299  0.1445  2.6292
  155SOL    HW2  619   1.162   0.816   0.329 -1.9894  0.3695  0.1889
  155SOL     MW  620   1.170   0.729   0.330  0.0586  0.4237  0.4408
  156SOL     OW  621   1.569   3.029   1.084  0.1756  0.5260  0.7359
  156SOL    HW1  622   1.655   3.068   1.111  0.9198  1.7109 -1.7285
  156SOL    HW2  623   1.586   2.933   1.076  0.4234  0.7855 -0.8351
  156SOL     MW  624   1.583   3.021   1.086  0.3064  0.7166  0.2034
  157SOL     OW  625   1.370   1.136   0.122  0.0046  0.3911 -0.1652
  157SOL    HW1  626   1.327   1.094   0.211 -2.9119  1.3111 -0.7764
  157SOL    HW2  627   1.458   1.146   0.155  0.2337 -2.2835 -0.6234
  157SOL     MW  628   1.376   1.131   0.138 -0.3499  0.1596 -0.3063
  158SOL     OW  629   0.400   1.644   2.316  0.8146 -0.0340  0.2190
  158SOL    HW1  630   0.433   1.697   2.244 -1.4282 -0.3409  0.7352
  158SOL    HW2  631   0.350   1.708   2.367  1.7237  0.3504  0.8031
  158SOL     MW  632   0.398   1.660   2.314  0.6386 -0.0238  0.3642
  159SOL     OW  633   1.238   1.680   0.465  0.1541 -0.4264  0.2123
  159SOL    HW1  634   1.201   1.643   0.385  1.8302 -1.7588 -0.9137
  159SOL    HW2  635   1.164   1.707   0.515  0.4731 -2.2360 -1.0513
  159SOL     MW  636   1.223   1.679   0.461  0.4173 -0.8410 -0.1030
  160SOL     OW  637   0.479   1.238   1.565 -0.0575 -0.0535  0.1086
  160SOL    HW1  638   0.437   1.154   1.587  0.4574  1.0114 -0.9277
  160SOL    HW2  639   0.572   1.225   1.594  3.0047 -1.4949 -0.5697
  160SOL     MW  640   0.486   1.226   1.572  0.4145 -0.1032 -0.1176
  161SOL     OW  641   0.458   2.191   2.561  0.2331 -0.7180  0.2728
  161SOL    HW1  642   0.362   2.189   2.576 -3.8296  0.0290  1.7600
  161SOL    HW2  643   0.476   2.143   2.481  1.2009  1.0590 -2.6722
  161SOL     MW  644   0.447   2.184   2.552 -0.1753 -0.3850  0.0805
  162SOL     OW  645   1.073   1.832   1.842 -0.4808  0.1525 -0.0360
  162SOL    HW1  646   1.092   1.932   1.854  0.7619  0.4429 -0.6740
  162SOL    HW2  647   0.992   1.836   1.893 -1.3937 -0.2297 -0.0342
  162SOL     MW  648   1.065   1.846   1.850 -0.4373  0.1404 -0.1199
  163SOL     OW  649   2.044   3.044   0.903  0.1298 -0.1731  0.0857
  163SOL    HW1  650   2.054   3.101   0.831 -0.5011 -0.7543  1.2713
  163SOL    HW2  651   2.056   2.949   0.864  0.9111 -1.6948  1.2453
  163SOL     MW  652   2.047   3.039   0.888  0.1496 -0.4505  0.3951
  164SOL     OW  653   0.303   0.223   0.810 -0.4612 -0.0643 -0.1514
  164SOL    HW1  654   0.208   0.227   0.851  0.1982 -1.0251  0.8903
  164SOL    HW2  655   0.295   0.154   0.744  2.1354  0.2630 -0.9519
  164SOL     MW  656   0.289   0.215   0.807 -0.0316 -0.1479 -0.1196
  165SOL     OW  657   1.225   1.320   0.338 -0.5496  0.1720  0.2372
  165SOL    HW1  658   1.224   1.265   0.419  0.4731 -0.0716 -2.2280
  165SOL    HW2  659   1.248   1.267   0.258 -1.6272  0.1135  0.4309
  165SOL     MW  660   1.228   1.306   0.338 -0.5568  0.1322 -0.0625
  166SOL     OW  661   0.543   1.142   1.016  0.3341 -0.6941  0.0133
  166SOL    HW1  662   0.524   1.189   1.104  0.0659  2.9505  0.4070
  166SOL    HW2  663   0.635   1.114   1.028  2.1282  0.4782  2.4256
  166SOL     MW  664   0.552   1.145   1.029  0.5354 -0.0586  0.3835
  167SOL     OW  665   0.823   1.113   0.237  0.1165  0.1763  0.0599
  167SOL    HW1  666   0.804   1.213   0.240 -0.1609 -2.0390 -1.7028
  167SOL    HW2  667   0.896   1.098   0.174 -1.1266  2.5808  0.2234
  167SOL     MW  668   0.830   1.125   0.229 -0.0841  0.2013 -0.1511
  168SOL     OW  669   1.747   1.646   3.031 -0.0326 -0.3388 -0.9992
  168SOL    HW1  670   1.664   1.695   3.012 -0.4514  2.2198  3.8496
  168SOL    HW2  671   1.744   1.561   2.980  0.1598 -1.0859  0.3236
  168SOL     MW  672   1.736   1.641   3.022 -0.0625 -0.0998 -0.1849
  169SOL     OW  673   0.333   0.986   1.320 -0.0901 -0.3052  0.2844
  169SOL    HW1  674   0.361   0.980   1.410 -1.8430 -1.3696  0.6539
  169SOL    HW2  675   0.337   1.080   1.295 -2.8706  0.4486 -0.8381
  169SOL     MW  676   0.337   0.998   1.329 -0.6882 -0.3462  0.1851
  170SOL     OW  677   1.132   1.519   1.494  0.2968 -0.4568 -0.0965
  170SOL    HW1  678   1.065   1.580   1.500 -2.5525 -0.9315  0.2096
  170SOL    HW2  679   1.149   1.513   1.400  2.3155  0.3061  1.3193
  170SOL     MW  680   1.126   1.527   1.482  0.1872 -0.4188  0.1307
  171SOL     OW  681   0.546   1.421   0.529  0.0873 -0.4715  0.0219
  171SOL    HW1  682   0.538   1.404   0.619 -0.5893  2.4504 -2.0149
  171SOL    HW2  683   0.538   1.341   0.478 -0.3549  1.6171 -2.1357
  171SOL     MW  684   0.544   1.408   0.534 -0.0603  0.1896 -0.5315
  172SOL     OW  685   0.879   0.295   1.272 -0.3784 -0.2836 -0.1932
  172SOL    HW1  686   0.809   0.355   1.281 -0.5556 -0.7180 -0.7559
  172SOL    HW2  687   0.868   0.233   1.343  1.1744  2.7263 -1.7743
  172SOL     MW  688   0.868   0.295   1.283 -0.1969  0.0562 -0.4761
  173SOL     OW  689   0.500   1.782   0.264  0.0423  0.6986 -0.0265
  173SOL    HW1  690   0.492   1.685   0.248 -1.4078  1.2794  0.1731
  173SOL    HW2  691   0.490   1.785   0.358 -0.5714 -0.8993 -1.7834
  173SOL     MW  692   0.498   1.769   0.274 -0.2300  0.5644 -0.2320
  174SOL     OW  693   1.833   0.893   1.506 -0.4088  0.1824 -0.6180
  174SOL    HW1  694   1.788   0.812   1.522  1.7734  0.2148  0.0081
  174SOL    HW2  695   1.808   0.912   1.416 -1.5673 -2.3930 -0.1829
  174SOL     MW  696   1.824   0.885   1.496 -0.2737 -0.1531 -0.4780
  175SOL     OW  697   0.503   1.519   0.231  0.3505  0.3449 -0.8435
  175SOL    HW1  698   0.448   1.449   0.202 -2.4022  1.2210 -0.2072
  175SOL    HW2  699   0.524   1.500   0.327  2.1098 -1.9186  0.8997
  175SOL     MW  700   0.499   1.507   0.240  0.2194  0.1618 -0.5296
  176SOL     OW  701   0.151   1.495   1.199 -0.0480 -0.4457  0.3108
  176SOL    HW1  702   0.147   1.439   1.120  3.9649  1.9263  1.0280
  176SOL    HW2  703   0.074   1.489   1.258  2.3357  2.2763  1.3282
  176SOL     MW  704   0.140   1.487   1.196  0.7960  0.2264  0.5396
  177SOL     OW  705   0.553   0.332   1.386  0.3319 -0.3734  1.1855
  177SOL    HW1  706   0.540   0.400   1.317 -2.3730 -2.2257  1.6238
  177SOL    HW2  707   0.567   0.377   1.471  0.9468 -1.6269 -0.1467
  177SOL     MW  708   0.553   0.347   1.388  0.0561 -0.7832  1.0675
  178SOL     OW  709   3.094   0.523   2.970  0.0155 -0.2716  0.0022
  178SOL    HW1  710   3.056   0.534   3.058  1.1538  0.2477  4.3885
  178SOL    HW2  711   3.025   0.473   2.916 -1.5467  0.3262 -0.9089
  178SOL     MW  712   3.080   0.518   2.975 -0.0404 -0.1242  0.4607
  179SOL     OW  713   1.559   1.446   1.388  0.3548  0.0028 -0.2914
  179SOL    HW1  714   1.570   1.442   1.480  2.1253 -0.4726 -0.2995
  179SOL    HW2  715   1.653   1.448   1.365  1.4670  1.4480  0.6991
  179SOL     MW  716   1.573   1.446   1.397  0.7352  0.1308 -0.1618
  180SOL     OW  717   3.007   0.245   0.495 -0.7471  0.2827  0.0325
  180SOL    HW1  718   2.970   0.257   0.407  0.8137 -0.5593 -2.9706
  180SOL    HW2  719   3.084   0.308   0.491 -1.7755  1.6425 -1.3123
  180SOL     MW  720   3.012   0.255   0.483 -0.6768  0.3510 -0.5412
  181SOL     OW  721   1.148   1.343   3.065  0.1365 -0.2501  0.3277
  181SOL    HW1  722   1.228   1.398   3.075 -0.0596  0.7226 -0.7537
  181SOL    HW2  723   1.181   1.268   3.010  0.3911 -0.2279 -3.3859
  181SOL     MW  724   1.163   1.340   3.059  0.1442 -0.1188 -0.3049
  182SOL     OW  725   0.396   0.991   1.590 -0.7523  1.1068  0.4917
  182SOL    HW1  726   0.316   0.954   1.626  0.2726 -2.9459 -1.1614
  182SOL    HW2  727   0.460   0.948   1.648  2.9746  0.7188 -0.0921
  182SOL     MW  728   0.394   0.980   1.603 -0.1254  0.5209  0.1965
  183SOL     OW  729   1.539   1.707   1.222 -0.4174 -0.4792  0.8736
  183SOL    HW1  730   1.636   1.707   1.244  2.7444  1.8331 -1.4345
  183SOL    HW2  731   1.508   1.650   1.289 -0.4647  0.4442  0.8561
  183SOL     MW  732   1.547   1.700   1.234 -0.0065 -0.0523  0.5668
  184SOL     OW  733   0.823   0.724   1.888 -0.4346 -0.0885 -0.1069
  184SOL    HW1  734   0.876   0.697   1.816  1.3143  1.9474 -0.9926
  184SOL    HW2  735   0.823   0.642   1.938  1.9719 -0.1725 -1.0650
  184SOL     MW  736   0.830   0.710   1.885  0.1137  0.1691 -0.3501
  185SOL     OW  737   1.112   0.957   1.904 -0.0174 -0.2568 -0.3906
  185SOL    HW1  738   1.122   0.868   1.939  0.4432  0.7173 -0.5218
  185SOL    HW2  739   1.136   1.018   1.971  0.9010 -0.2841 -3.4289
  185SOL     MW  740   1.117   0.954   1.918  0.1646 -0.1319 -0.8088
  186SOL     OW  741   0.355   1.684   1.446 -0.2256 -0.0528  0.4748
  186SOL    HW1  742   0.399   1.636   1.372 -2.4657 -2.6201  3.6956
  186SOL    HW2  743   0.269   1.680   1.412 -1.5827 -1.2663 -2.8549
  186SOL     MW  744   0.350   1.677   1.432 -0.7002 -0.5516  0.4604
  187SOL     OW  745   1.493   0.726   1.365 -0.1934  0.6809 -0.0648
  187SOL    HW1  746   1.544   0.686   1.432 -1.0358  0.4359 -0.4126
  187SOL    HW2  747   1.415   0.675   1.345 -0.8832 -1.5131  2.1190
  187SOL     MW  748   1.489   0.714   1.371 -0.3955  0.3591  0.1775
  188SOL     OW  749   1.921   1.161   0.772  0.1881  0.3593 -0.0490
  188SOL    HW1  750   1.905   1.146   0.863 -0.2557  1.9895 -4.3675
  188SOL    HW2  751   1.959   1.076   0.742  2.0478  0.2212  0.4598
  188SOL     MW  752   1.924   1.148   0.780  0.3749  0.5562 -0.5516
  189SOL     OW  753   0.684   0.773   0.846 -0.3520 -0.1698 -0.2967
  189SOL    HW1  754   0.607   0.829   0.838  2.5600 -3.3114 -1.3134
  189SOL    HW2  755   0.746   0.808   0.907 -0.6420 -0.6914  1.3727
  189SOL     MW  756   0.682   0.785   0.853 -0.0061 -0.6531 -0.2106
  190SOL     OW  757   1.836   0.294   2.145  0.4486  0.3325 -0.5111
  190SOL    HW1  758   1.861   0.258   2.229 -1.8001 -1.2537  0.5042
  190SOL    HW2  759   1.917   0.340   2.119 -2.6519 -0.2360  0.9397
  190SOL     MW  760   1.850   0.296   2.153 -0.2572  0.0482 -0.1858
  191SOL     OW  761   1.532   0.966   1.213 -0.1723  0.4714  0.7838
  191SOL    HW1  762   1.524   1.036   1.278 -1.2331 -1.6828  0.9547
  191SOL    HW2  763   1.511   0.886   1.261 -0.1229 -1.9725 -2.7682
  191SOL     MW  764   1.528   0.965   1.228 -0.3058 -0.1353  0.3377
  192SOL     OW  765   0.570   2.108   2.804  0.1296  0.3002  0.2259
  192SOL    HW1  766   0.532   2.137   2.723  1.2418  2.4752  2.8772
  192SOL    HW2  767   0.583   2.011   2.792 -5.2340  0.1669  0.1677
  192SOL     MW  768   0.567   2.099   2.792 -0.4313  0.5696  0.5681
  193SOL     OW  769   0.889   1.584   0.731 -0.7571  0.7281  0.3520
  193SOL    HW1  770   0.821   1.583   0.797  3.2150  0.7993  0.9520
  193SOL    HW2  771   0.839   1.529   0.663 -4.6447 -0.5387 -2.4277
  193SOL     MW  772   0.873   1.577   0.730 -0.7460  0.5704  0.0644
  194SOL     OW  773   0.501   1.373   0.862  0.2543 -0.9011 -0.7815
  194SOL    HW1  774   0.517   1.277   0.887  2.2037 -1.2083  1.8195
  194SOL    HW2  775   0.404   1.375   0.857 -2.2646  0.1580 -2.3869
  194SOL     MW  776   0.491   1.360   0.865  0.1792 -0.8019 -0.6502
  195SOL     OW  777   1.270   1.130   2.963  0.0302 -0.2269  0.0109
  195SOL    HW1  778   1.325   1.109   3.040  1.4592 -0.8335 -1.8851
  195SOL    HW2  779   1.218   1.054   2.955  0.4068 -1.5909  1.5465
  195SOL     MW  780   1.271   1.117   2.973  0.2685 -0.4869 -0.0366
  196SOL     OW  781   2.204   0.964   0.525  0.5099 -0.1674  0.0326
  196SOL    HW1  782   2.179   0.962   0.428  1.6002 -0.8031 -2.2907
  196SOL    HW2  783   2.217   1.058   0.547  0.0208 -0.1276 -0.2776
  196SOL     MW  784   2.202   0.976   0.515  0.5892 -0.2461 -0.3149
  197SOL     OW  785   0.614   1.314   2.205 -0.0982 -0.2657  1.1497
  197SOL    HW1  786   0.624   1.224   2.158 -0.3000 -2.7202 -1.5266
  197SOL    HW2  787   0.686   1.370   2.171  0.2511 -1.5006  0.1704
  197SOL     MW  788   0.625   1.310   2.194 -0.0787 -0.7525  0.6674
  198SOL     OW  789   2.927   1.414   1.006  0.1834  0.1401  0.3645
  198SOL    HW1  790   2.867   1.472   0.956  0.3269  0.6604 -0.1515
  198SOL    HW2  791   2.871   1.342   1.036 -1.7903 -1.4737  0.8858
  198SOL     MW  792   2.912   1.412   1.004 -0.0581 -0.0042  0.3652
  199SOL     OW  793   0.738   1.356   1.941  0.4322 -0.2064 -0.1736
  199SOL    HW1  794   0.642   1.365   1.932  1.6879  2.6031  1.3419
  199SOL    HW2  795   0.778   1.403   1.870  0.3556 -0.3071  2.6388
  199SOL     MW  796   0.730   1.363   1.931  0.5878  0.1510  0.3974
  200SOL     OW  797   1.855   2.907   1.374 -0.1152  0.3250 -0.1595
  200SOL    HW1  798   1.863   2.928   1.283 -0.2075 -1.0269 -2.7218
  200SOL    HW2  799   1.780   2.967   1.390  0.5150 -1.4475  1.0080
  200SOL     MW  800   1.846   2.918   1.364 -0.0443 -0.0872 -0.3435
  201SOL     OW  801   0.993   0.364   0.743  0.7036  0.0462 -0.1212
  201SOL    HW1  802   0.991   0.269   0.738  0.9404 -0.7525 -0.6857
  201SOL    HW2  803   1.048   0.380   0.814 -2.0715  0.3121 -2.0917
  201SOL     MW  804   1.000   0.353   0.751  0.3687 -0.0241 -0.4557
  202SOL     OW  805   1.493   1.741   0.964  0.1072  0.4619 -0.0438
  202SOL    HW1  806   1.524   1.650   0.941 -0.7730 -1.5117  1.6332
  202SOL    HW2  807   1.506   1.738   1.056 -1.4948  1.9702 -2.3547
  202SOL     MW  808   1.499   1.729   0.973 -0.2203  0.4005 -0.1274
  203SOL     OW  809   2.982   0.415   1.486 -0.7769 -0.6434  0.1687
  203SOL    HW1  810   3.026   0.332   1.476  0.6791  0.9585  1.1140
  203SOL    HW2  811   3.059   0.464   1.503 -0.8646 -2.3864  0.4682
  203SOL     MW  812   2.998   0.411   1.487 -0.5964 -0.6620  0.3329
  204SOL     OW  813   1.018   1.804   0.630  0.1528  0.4212  0.1857
  204SOL    HW1  814   0.980   1.728   0.681 -0.2726 -1.6230  2.5429
  204SOL    HW2  815   0.941   1.826   0.576  0.7244  1.0616  0.5701
  204SOL     MW  816   1.003   1.797   0.630  0.1721  0.2360  0.5474
  205SOL     OW  817   1.365   3.062   1.322 -0.5944 -0.3522  0.4343
  205SOL    HW1  818   1.407   3.072   1.238 -0.6772  0.8706 -0.3423
  205SOL    HW2  819   1.301   3.134   1.332  0.6405  0.6945  0.2535
  205SOL     MW  820   1.362   3.072   1.313 -0.4424 -0.0528  0.3080
  206SOL     OW  821   0.481   3.081   1.392 -0.4394 -0.1221  0.1369
  206SOL    HW1  822   0.445   3.043   1.311 -0.1774 -1.0706  0.1896
  206SOL    HW2  823   0.538   3.012   1.430 -0.0122 -1.1917 -0.2570
  206SOL     MW  824   0.484   3.067   1.386 -0.3484 -0.3883  0.0919
  207SOL     OW  825   0.900   1.652   0.243 -0.1958  0.7779 -0.3166
  207SOL    HW1  826   0.907   1.721   0.185 -0.7118 -0.7794 -0.9925
  207SOL    HW2  827   0.990   1.617   0.236 -1.4707  0.1768  0.7369
  207SOL     MW  828   0.913   1.656   0.234 -0.4321  0.4931 -0.2668
  208SOL     OW  829   0.685   1.674   1.404  1.0180 -0.5599  0.8034
  208SOL    HW1  830   0.762   1.690   1.455 -0.2184 -0.0933 -1.6737
  208SOL    HW2  831   0.719   1.645   1.320 -1.0079 -1.0332 -1.6591
  208SOL     MW  832   0.700   1.672   1.399  0.5875 -0.5608  0.1517
  209SOL     OW  833   1.518   0.513   2.775  0.1148 -0.4598  0.0443
  209SOL    HW1  834   1.555   0.588   2.815  0.4504 -1.0506  0.3998
  209SOL    HW2  835   1.589   0.450   2.784 -0.7299 -2.0529  2.0922
  209SOL     MW  836   1.532   0.514   2.781  0.0476 -0.7479  0.3614
  210SOL     OW  837   1.471   1.457   0.931  0.3751  1.3890  0.1281
  210SOL    HW1  838   1.557   1.411   0.905  0.6825  1.1575  1.8131
  210SOL    HW2  839   1.421   1.461   0.852  0.3273 -1.3295  1.8011
  210SOL     MW  840   1.476   1.451   0.917  0.4093  0.9998  0.5712
  211SOL     OW  841   1.719   0.292   1.004  0.4017  0.2250 -0.1126
  211SOL    HW1  842   1.688   0.304   0.916  0.9566  2.8550 -0.4096
  211SOL    HW2  843   1.810   0.319   1.008  1.1077  1.7209  0.8981
  211SOL     MW  844   1.727   0.297   0.993  0.5680  0.7694 -0.0184
  212SOL     OW  845   0.288   1.088   0.201 -0.7834 -0.0790  0.6058
  212SOL    HW1  846   0.231   1.020   0.243 -2.1367  2.0779  2.5382
  212SOL    HW2  847   0.333   1.035   0.134  0.2850 -1.6847 -1.6489
  212SOL     MW  848   0.287   1.072   0.198 -0.8210 -0.0063  0.5633
  213SOL     OW  849   0.489   1.751   2.994 -0.1414  0.1012  0.2124
  213SOL    HW1  850   0.512   1.833   3.042 -1.0553 -2.2161  0.4528
  213SOL    HW2  851   0.520   1.771   2.909 -1.3836  0.5226  2.3703
  213SOL     MW  852   0.496   1.765   2.989 -0.4259 -0.1490  0.5288
  214SOL     OW  853   0.630   0.341   2.124 -0.1716 -0.5082  0.3681
  214SOL    HW1  854   0.560   0.394   2.155 -1.9555 -0.2532 -0.1919
  214SOL    HW2  855   0.613   0.314   2.035  1.6696 -0.4915 -1.5857
  214SOL     MW  856   0.618   0.345   2.116 -0.1641 -0.4724  0.0364
  215SOL     OW  857   0.497   0.648   2.640  1.1692  0.2264 -0.1781
  215SOL    HW1  858   0.483   0.662   2.545 -0.3890 -0.5177 -1.7715
  215SOL    HW2  859   0.413   0.640   2.679  0.2797  2.7589 -2.9159
  215SOL     MW  860   0.484   0.649   2.632  0.8463  0.4623 -0.7495
  216SOL     OW  861   3.004   3.034   2.718  0.1280 -0.1901 -0.4851
  216SOL    HW1  862   2.934   3.034   2.784 -0.8774  0.3487 -0.9147
  216SOL    HW2  863   3.017   3.120   2.691  1.0339 -1.1358 -0.2503
  216SOL     MW  864   2.997   3.045   2.723  0.1148 -0.2438 -0.5108
  217SOL     OW  865   1.052   1.102   0.093  0.1710 -0.1730  0.2357
  217SOL    HW1  866   1.044   1.024   0.033 -1.6076 -1.1314  0.1139
  217SOL    HW2  867   1.120   1.165   0.063 -0.6346 -0.8079  1.1832
  217SOL     MW  868   1.060   1.100   0.081 -0.1700 -0.3832  0.3446
  218SOL     OW  869   0.867   1.348   2.699 -0.4243 -0.1012  0.3820
  218SOL    HW1  870   0.867   1.279   2.766  0.0950  0.0166  1.5454
  218SOL    HW2  871   0.945   1.398   2.706 -1.6943  1.8438 -0.1559
  218SOL     MW  872   0.877   1.345   2.709 -0.5233  0.1710  0.4646
  219SOL     OW  873   1.119   0.336   2.612 -0.5048  0.4121  0.1475
  219SOL    HW1  874   1.205   0.385   2.635 -2.4344 -0.7418 -0.2033
  219SOL    HW2  875   1.066   0.410   2.592 -0.9320  0.1356 -0.0548
  219SOL     MW  876   1.124   0.353   2.613 -0.8157  0.2234  0.0745
  220SOL     OW  877   1.657   0.485   2.256 -0.1290  1.0010 -0.0184
  220SOL    HW1  878   1.604   0.528   2.186 -1.0060  1.3552 -1.0669
  220SOL    HW2  879   1.705   0.413   2.211  0.0950  1.4804 -0.8450
  220SOL     MW  880   1.657   0.481   2.241 -0.2152  1.1110 -0.2658
  221SOL     OW  881   0.345   1.281   2.892 -0.0996  0.0531  0.1767
  221SOL    HW1  882   0.418   1.228   2.863 -0.2179 -1.5931  0.0754
  221SOL    HW2  883   0.380   1.369   2.863 -0.2440 -0.0655 -0.5048
  221SOL     MW  884   0.359   1.286   2.884 -0.1342 -0.1797  0.0734
  222SOL     OW  885   0.502   0.934   2.647  0.6207 -0.3528  0.3630
  222SOL    HW1  886   0.421   0.964   2.611  4.0725 -0.5988 -0.3983
  222SOL    HW2  887   0.479   0.846   2.675 -0.4038 -3.0847  1.2955
  222SOL     MW  888   0.488   0.926   2.646  0.9409 -0.7457  0.3856
  223SOL     OW  889   0.067   2.005   2.557 -0.8218 -0.3764  0.7171
  223SOL    HW1  890   0.026   1.988   2.644 -1.7766  0.1816 -0.5212
  223SOL    HW2  891   0.085   2.096   2.547 -0.8740 -2.9411  3.5221
  223SOL     MW  892   0.064   2.015   2.567 -0.9547 -0.6412  0.9238
  224SOL     OW  893   1.489   0.758   2.486 -0.6460 -1.0550 -0.3676
  224SOL    HW1  894   1.438   0.767   2.564 -2.6933  0.4697 -0.6522
  224SOL    HW2  895   1.498   0.847   2.450 -2.1431 -3.0523  0.2510
  224SOL     MW  896   1.484   0.771   2.492 -1.1136 -1.1173 -0.3236
  225SOL     OW  897   2.938   1.444   2.255  0.0665  0.0520  0.4406
  225SOL    HW1  898   2.994   1.499   2.199  3.1783 -0.5017  0.5430
  225SOL    HW2  899   2.895   1.510   2.304  2.5721 -0.0708 -0.5865
  225SOL     MW  900   2.940   1.460   2.254  0.8077 -0.0372  0.3186
  226SOL     OW  901   0.391   1.527   2.710 -0.6283  0.1745  0.2596
  226SOL    HW1  902   0.481   1.539   2.684  0.7996  1.2569  2.9834
  226SOL    HW2  903   0.359   1.615   2.698 -4.0061  1.1248  2.5165
  226SOL     MW  904   0.399   1.540   2.705 -0.8855  0.4427  0.9167
  227SOL     OW  905   0.556   1.120   2.839  0.5631 -0.3815 -0.3687
  227SOL    HW1  906   0.649   1.115   2.823 -1.2855  0.5333 -0.2655
  227SOL    HW2  907   0.528   1.054   2.775  1.7299 -2.4080  2.4380
  227SOL     MW  908   0.564   1.110   2.828  0.4732 -0.5281  0.0153
  228SOL     OW  909   0.738   1.110   2.050 -0.1564 -0.7014  0.0598
  228SOL    HW1  910   0.755   1.188   1.990  1.2753  1.0554 -0.5391
  228SOL    HW2  911   0.805   1.110   2.118 -1.3728 -0.3545  1.2230
  228SOL     MW  912   0.749   1.121   2.051 -0.1280 -0.4238  0.1343
  229SOL     OW  913   0.183   0.661   0.015  0.5811 -0.1035 -0.0196
  229SOL    HW1  914   0.136   0.629  -0.062 -0.3847  0.1046  1.2446
  229SOL    HW2  915   0.199   0.575   0.056  1.3127 -3.0479  0.8102
  229SOL     MW  916   0.179   0.645   0.010  0.5502 -0.4645  0.2567
  230SOL     OW  917   1.799   1.359   2.023  0.1424  0.4862 -0.0487
  230SOL    HW1  918   1.745   1.333   2.105 -0.0937  0.7360 -3.2328
  230SOL    HW2  919   1.842   1.276   2.014  1.6496  0.1783 -0.0878
  230SOL     MW  920   1.798   1.345   2.033  0.3101  0.4785 -0.4739
  231SOL     OW  921   2.741   1.246   2.167 -0.2959 -0.2903 -0.0305
  231SOL    HW1  922   2.811   1.309   2.197  1.9015 -0.5585  1.9768
  231SOL    HW2  923   2.687   1.286   2.088 -0.1056 -2.4806 -1.6340
  231SOL     MW  924   2.743   1.259   2.160  0.0191 -0.6146  0.0228
  232SOL     OW  925   2.282   0.830   1.996  0.1079 -0.5285  0.0995
  232SOL    HW1  926   2.220   0.868   1.940  0.3100 -2.3030 -1.3732
  232SOL    HW2  927   2.223   0.794   2.059  1.0105  3.1151  0.2252
  232SOL     MW  928   2.266   0.830   1.997  0.2536 -0.2819 -0.0782
  233SOL     OW  929   2.063   0.439   2.074  0.4072  0.5459 -0.1656
  233SOL    HW1  930   2.123   0.364   2.048 -0.3095  1.0036  1.6360
  233SOL    HW2  931   2.106   0.486   2.148 -0.3108  0.2648  3.2367
  233SOL     MW  932   2.077   0.435   2.080  0.2179  0.5692  0.5210
  234SOL     OW  933   0.257   1.055   2.623  0.3466 -0.4786  0.9149
  234SOL    HW1  934   0.177   1.040   2.572 -1.1743  0.7831  1.2375
  234SOL    HW2  935   0.286   1.150   2.607  0.4378  1.2236  1.4035
  234SOL     MW  936   0.250   1.065   2.614  0.1580 -0.0875  1.0219
  235SOL     OW  937   1.053   3.043   2.792 -0.5566 -0.3316  0.5078
  235SOL    HW1  938   1.096   3.013   2.876 -0.5594  0.8505  3.6916
  235SOL    HW2  939   1.023   3.135   2.811  0.8924 -1.0646  0.5258
  235SOL     MW  940   1.054   3.051   2.805 -0.3658 -0.2724  0.9302
  236SOL     OW  941   2.960   0.596   0.137 -0.0676 -0.3362 -0.0137
  236SOL    HW1  942   2.875   0.629   0.154  0.0491  0.0936  0.0301
  236SOL    HW2  943   2.998   0.676   0.094 -0.0652 -1.8581 -1.8577
  236SOL     MW  944   2.954   0.611   0.134 -0.0519 -0.4803 -0.2512
  237SOL     OW  945   1.964   1.105   2.197 -0.3605 -0.9422  0.3171
  237SOL    HW1  946   1.885   1.081   2.151  1.6908  1.1188  1.7574
  237SOL    HW2  947   2.030   1.034   2.182 -0.7264  0.9811 -0.2804
  237SOL     MW  948   1.963   1.092   2.189 -0.1381 -0.4165  0.4283
  238SOL     OW  949   1.106   1.776   2.955  0.2882  0.2400  0.5874
  238SOL    HW1  950   1.037   1.743   2.896  0.0971  2.4450 -3.0732
  238SOL    HW2  951   1.184   1.721   2.938  0.8812 -0.1225  0.2046
  238SOL     MW  952   1.107   1.765   2.945  0.3413  0.4831  0.0539
  239SOL     OW  953   1.211   1.372   2.316 -0.4547 -0.6532 -0.9146
  239SOL    HW1  954   1.133   1.402   2.360 -1.0500 -1.8273  1.3028
  239SOL    HW2  955   1.235   1.281   2.353  1.2807 -1.6550  2.2227
  239SOL     MW  956   1.204   1.364   2.327 -0.3043 -0.9403 -0.2081
  240SOL     OW  957   0.616   0.916   2.266 -0.3774 -0.1678 -0.8181
  240SOL    HW1  958   0.650   0.938   2.360 -2.6608 -0.5013  2.2002
  240SOL    HW2  959   0.686   0.882   2.208  2.2226 -0.1167  0.1088
  240SOL     MW  960   0.629   0.915   2.271 -0.3356 -0.2051 -0.2975
  241SOL     OW  961   0.660   0.440   0.009 -0.1859  0.2946 -0.5666
  241SOL    HW1  962   0.669   0.514   0.074  1.8668  1.2231 -1.8471
  241SOL    HW2  963   0.580   0.462  -0.046  2.5649  1.4212  0.0341
  241SOL     MW  964   0.650   0.452   0.010  0.4479  0.5658 -0.6563
  242SOL     OW  965   1.492   1.722   2.264 -0.0299  0.2656 -1.0229
  242SOL    HW1  966   1.444   1.807   2.270 -0.0206 -0.2983  0.8340
  242SOL    HW2  967   1.440   1.644   2.244  0.6036 -0.3592  0.6637
  242SOL     MW  968   1.479   1.723   2.262  0.0549  0.1088 -0.5554
  243SOL     OW  969   0.988   0.245   2.388 -0.4616  0.1583  0.0882
  243SOL    HW1  970   1.065   0.203   2.340  4.1703  1.2093  0.4699
  243SOL    HW2  971   1.031   0.277   2.466  0.2850 -0.2678 -0.2854
  243SOL     MW  972   1.004   0.243   2.392  0.2480  0.2407  0.0892
  244SOL     OW  973   0.135   0.805   2.347 -0.4145  0.0627  0.2329
  244SOL    HW1  974   0.116   0.901   2.344  1.3785  2.6818 -2.7569
  244SOL    HW2  975   0.230   0.789   2.366 -1.1096 -0.1140 -1.2894
  244SOL     MW  976   0.145   0.816   2.349 -0.2696  0.3850 -0.3624
  245SOL     OW  977   1.272   0.188   2.296  0.0133 -0.3064  0.0456
  245SOL    HW1  978   1.325   0.109   2.307  2.1940  2.9652 -1.2455
  245SOL    HW2  979   1.306   0.258   2.356 -2.5463  1.7393 -1.3399
  245SOL     MW  980   1.284   0.187   2.306 -0.0367  0.3952 -0.3075
  246SOL     OW  981   1.177   1.135   2.086  0.1351  0.1053 -0.8570
  246SOL    HW1  982   1.111   1.132   2.161  0.3433 -1.4827 -1.0517
  246SOL    HW2  983   1.264   1.115   2.134  0.7048  0.5587  0.9508
  246SOL     MW  984   1.180   1.132   2.102  0.2377 -0.0444 -0.6442
  247SOL     OW  985   0.767   0.630   0.188  0.3571  0.3173 -0.6435
  247SOL    HW1  986   0.730   0.706   0.150 -0.0477 -0.2057  1.2717
  247SOL    HW2  987   0.859   0.614   0.151  1.9144  2.3810  1.6881
  247SOL     MW  988   0.775   0.638   0.178  0.5092  0.5206 -0.0832
  248SOL     OW  989   0.340   1.296   2.577  0.1512 -0.1840  0.2303
  248SOL    HW1  990   0.350   1.322   2.481  1.0593  1.9265  0.4442
  248SOL    HW2  991   0.353   1.375   2.627 -1.8929 -1.4218  0.2162
  248SOL     MW  992   0.343   1.310   2.571  0.0013 -0.0688  0.2567
  249SOL     OW  993   3.087   1.905   2.795 -0.8477  0.2486  0.3763
  249SOL    HW1  994   3.017   1.841   2.787  1.2405 -0.6087  0.8698
  249SOL    HW2  995   3.150   1.856   2.851  0.2727  3.6126  0.3262
  249SOL     MW  996   3.086   1.890   2.802 -0.4244  0.5794  0.4348
  250SOL     OW  997   2.149   0.920   2.253 -0.2649 -0.2084 -0.6403
  250SOL    HW1  998   2.119   0.842   2.302 -0.7627  0.0092  1.6004
  250SOL    HW2  999   2.229   0.939   2.301  0.4361 -2.5427 -0.1516
  250SOL     MW 1000   2.156   0.912   2.266 -0.2381 -0.4876 -0.2802
  251SOL     OW 1001   0.193   0.914   1.991 -0.4355  0.0224  0.4924
  251SOL    HW1 1002   0.212   0.819   2.012  0.7999  1.6696  1.5190
  251SOL    HW2 1003   0.157   0.916   1.902 -0.7165  0.2416  2.5444
  251SOL     MW 1004   0.191   0.901   1.982 -0.3096  0.2686  0.8986
  252SOL     OW 1005   1.668   1.018   2.890 -0.3672  0.1717 -1.0380
  252SOL    HW1 1006   1.702   1.046   2.976  2.1614  2.3399 -1.0266
  252SOL    HW2 1007   1.739   1.028   2.831 -1.5115  1.3733 -0.1588
  252SOL     MW 1008   1.681   1.023   2.893 -0.1846  0.6163 -0.9205
  253SOL     OW 1009   1.121   1.703   2.454 -0.1067 -0.2801 -0.5110
  253SOL    HW1 1010   1.153   1.702   2.353  0.4110  1.7868 -2.2706
  253SOL    HW2 1011   1.066   1.784   2.476 -0.9906 -2.0301  0.9829
  253SOL     MW 1012   1.118   1.713   2.443 -0.1550 -0.2383 -0.5461
  254SOL     OW 1013   0.962   1.115   2.253 -0.2565  0.7742  0.5327
  254SOL    HW1 1014   0.929   1.029   2.214  3.2155 -0.6995  1.0700
  254SOL    HW2 1015   0.898   1.153   2.310 -1.2840  0.0345 -2.2859
  254SOL     MW 1016   0.949   1.108   2.255  0.0660  0.4822  0.2317
  255SOL     OW 1017   0.857   2.509   2.156  0.5805  0.3670 -0.8010
  255SOL    HW1 1018   0.757   2.480   2.149 -2.7248 -0.9164 -0.6504
  255SOL    HW2 1019   0.919   2.434   2.164  0.5064  1.0896 -3.1333
  255SOL     MW 1020   0.852   2.495   2.156  0.1346  0.2930 -1.0889
  256SOL     OW 1021   1.225   2.764   2.971 -0.0899  0.1778 -0.2195
  256SOL    HW1 1022   1.177   2.690   2.927 -2.2787  0.1288 -0.3229
  256SOL    HW2 1023   1.316   2.777   2.936  2.1491 -2.2859 -0.5683
  256SOL     MW 1024   1.231   2.756   2.960 -0.0833 -0.1537 -0.2792
  257SOL     OW 1025   0.049   1.908   3.093 -0.6566  0.0579 -0.0704
  257SOL    HW1 1026   0.118   1.923   3.156  0.4840 -0.2906  3.8781
  257SOL    HW2 1027   0.084   1.831   3.044  0.0984  0.7363 -0.7389
  257SOL     MW 1028   0.063   1.900   3.095 -0.4065  0.1014  0.3624
  258SOL     OW 1029   0.726   0.983   2.530 -1.3834  0.3395 -0.1813
  258SOL    HW1 1030   0.732   1.075   2.512 -1.1979  1.0234 -0.2610
  258SOL    HW2 1031   0.635   0.984   2.567  1.2316 -2.9200  1.6886
  258SOL     MW 1032   0.715   0.995   2.532 -1.0139 -0.0003  0.0549
  259SOL     OW 1033   0.846   0.454   2.265 -0.8668  0.8431 -0.3548
  259SOL    HW1 1034   0.768   0.399   2.252 -1.5067  1.5405  3.5660
  259SOL    HW2 1035   0.914   0.394   2.304  0.4261  2.2743 -0.3983
  259SOL     MW 1036   0.844   0.438   2.269 -0.7806  1.1240  0.1568
  260SOL     OW 1037   0.661   0.113   1.626  0.1274 -0.0762 -0.2742
  260SOL    HW1 1038   0.603   0.132   1.551 -1.9072  2.4730 -0.7934
  260SOL    HW2 1039   0.751   0.127   1.596 -0.6685  2.7778 -0.1685
  260SOL     MW 1040   0.665   0.117   1.612 -0.2461  0.6367 -0.3288
  261SOL     OW 1041   1.114   0.688   2.005  0.0457 -0.4890 -0.6836
  261SOL    HW1 1042   1.116   0.690   2.102  1.3466  0.5654 -3.2275
  261SOL    HW2 1043   1.061   0.605   1.986 -3.4263 -2.1740 -0.0954
  261SOL     MW 1044   1.107   0.677   2.015 -0.2408 -0.5722 -0.9416
  262SOL     OW 1045   1.101   0.346   0.178  0.2687 -0.0513 -0.2569
  262SOL    HW1 1046   1.199   0.343   0.170 -2.2595  2.6371 -1.3154
  262SOL    HW2 1047   1.071   0.276   0.120  1.1154 -1.7806  2.3765
  262SOL     MW 1048   1.110   0.337   0.169  0.0468  0.0753 -0.0491
  263SOL     OW 1049   0.367   0.041   2.481 -0.5823 -0.0281 -0.0514
  263SOL    HW1 1050   0.283   0.090   2.461 -2.1456  0.4556 -0.5057
  263SOL    HW2 1051   0.424   0.061   2.407 -2.7037 -1.3159 -1.2111
  263SOL     MW 1052   0.363   0.050   2.469 -1.0685 -0.1342 -0.2643
  264SOL     OW 1053   1.557   1.361   1.884 -0.2053  0.2184  0.1160
  264SOL    HW1 1054   1.538   1.272   1.856  0.6876 -0.2984 -0.6935
  264SOL    HW2 1055   1.647   1.361   1.919  0.4962  0.2066  1.6129
  264SOL     MW 1056   1.566   1.349   1.885  0.0051  0.1487  0.2067
  265SOL     OW 1057   0.770   2.753   2.292 -0.4958  0.5628  0.8886
  265SOL    HW1 1058   0.814   2.684   2.242  1.6208  1.2469 -0.2167
  265SOL    HW2 1059   0.752   2.726   2.386  0.0364  0.3593  2.5425
  265SOL     MW 1060   0.773   2.740   2.298 -0.1463  0.6262  0.9610
  266SOL     OW 1061   0.908   0.835   2.169  0.0207 -0.1036 -0.2202
  266SOL    HW1 1062   0.942   0.856   2.084  0.9210 -2.7404 -0.9642
  266SOL    HW2 1063   0.975   0.840   2.232 -1.1084 -0.5854 -1.7789
  266SOL     MW 1064   0.921   0.839   2.166 -0.0095 -0.5151 -0.5240
  267SOL     OW 1065   1.334   1.762   2.637 -0.1652 -0.0517 -0.2160
  267SOL    HW1 1066   1.424   1.732   2.611  0.0872  0.6054  1.9124
  267SOL    HW2 1067   1.275   1.742   2.566  3.9045  3.1898 -1.8439
  267SOL     MW 1068   1.338   1.755   2.625  0.4050  0.4627 -0.1500
  268SOL     OW 1069   0.137   0.925   1.687 -0.1632 -0.0633  0.2270
  268SOL    HW1 1070   0.108   1.020   1.663 -1.7956 -0.0181 -1.3127
  268SOL    HW2 1071   0.101   0.861   1.630  2.1193  0.6681 -1.5079
  268SOL     MW 1072   0.129   0.929   1.676 -0.0774  0.0391 -0.2051
  269SOL     OW 1073   1.357   1.955   2.304  0.3107 -0.3370 -0.7384
  269SOL    HW1 1074   1.404   2.022   2.349 -0.5430  1.5431  0.4404
  269SOL    HW2 1075   1.267   1.974   2.334  1.9861 -2.0603  0.7817
  269SOL     MW 1076   1.351   1.966   2.314  0.4191 -0.3163 -0.3823
  270SOL     OW 1077   1.140   0.432   1.599 -0.1455 -0.2940 -0.3770
  270SOL    HW1 1078   1.115   0.350   1.649 -1.2928 -0.8753  0.2555
  270SOL    HW2 1079   1.233   0.422   1.575 -1.3000  0.3684 -0.9725
  270SOL     MW 1080   1.149   0.420   1.602 -0.4492 -0.2833 -0.3721
  271SOL     OW 1081   0.777   0.063   2.470 -0.0342  0.1267 -0.6550
  271SOL    HW1 1082   0.838  -0.002   2.499  2.7801  3.5411 -2.7767
  271SOL    HW2 1083   0.847   0.132   2.451  2.7862  0.5107 -0.3240
  271SOL     MW 1084   0.794   0.064   2.472  0.7093  0.6278 -0.8913
  272SOL     OW 1085   1.464   2.828   2.866 -1.0164 -0.0627  0.2404
  272SOL    HW1 1086   1.435   2.824   2.772  1.7817  3.2147  1.5295
  272SOL    HW2 1087   1.493   2.921   2.870  0.6898  1.7034  1.7835
  272SOL     MW 1088   1.464   2.840   2.854 -0.4221  0.6027  0.6141
  273SOL     OW 1089   1.436   0.906   2.772 -0.1486  0.1645 -0.4639
  273SOL    HW1 1090   1.510   0.935   2.820 -1.4921 -4.3327 -1.0203
  273SOL    HW2 1091   1.399   0.983   2.730 -0.7364  0.2791 -0.0791
  273SOL     MW 1092   1.441   0.920   2.773 -0.4034 -0.4137 -0.4866
  274SOL     OW 1093   1.400   0.774   0.148  0.0857  0.0378  0.4265
  274SOL    HW1 1094   1.460   0.709   0.181  2.1600  1.7476  2.0802
  274SOL    HW2 1095   1.319   0.769   0.206  0.7382 -1.4925  0.9040
  274SOL     MW 1096   1.397   0.764   0.160  0.4455  0.0615  0.7077
  275SOL     OW 1097   1.710   0.517   1.760  0.3578 -0.0968  0.5298
  275SOL    HW1 1098   1.763   0.572   1.820  2.1825 -0.6251 -1.0706
  275SOL    HW2 1099   1.721   0.427   1.785 -0.7252  1.9006  1.0015
  275SOL     MW 1100   1.718   0.512   1.772  0.4557  0.0970  0.3809
  276SOL     OW 1101   0.430   1.266   1.932  0.4261 -0.7776 -0.4419
  276SOL    HW1 1102   0.448   1.169   1.948  2.5565  0.7276  0.7909
  276SOL    HW2 1103   0.360   1.299   1.993  0.7287  2.7318 -2.5245
  276SOL     MW 1104   0.423   1.258   1.942  0.7471 -0.1159 -0.5540
  277SOL     OW 1105   1.980   1.120   2.477 -0.2156 -0.8335 -0.5533
  277SOL    HW1 1106   2.030   1.201   2.486  0.3223 -2.0513 -0.4446
  277SOL    HW2 1107   1.980   1.110   2.383  0.5664  0.4949 -0.3338
  277SOL     MW 1108   1.986   1.129   2.466 -0.0415 -0.8189 -0.5100
  278SOL     OW 1109   1.366   0.671   1.733  0.1007  0.1104  0.7517
  278SOL    HW1 1110   1.347   0.595   1.795  0.7384 -1.9795  2.8043
  278SOL    HW2 1111   1.437   0.714   1.769 -0.8543 -3.2148  0.5474
  278SOL     MW 1112   1.373   0.666   1.746  0.0588 -0.6041  0.9956
  279SOL     OW 1113   0.551   0.092   2.246  0.5805  0.3875  0.7160
  279SOL    HW1 1114   0.612   0.023   2.218 -0.0106 -0.3742  2.9705
  279SOL    HW2 1115   0.601   0.170   2.232  0.6340 -0.5358  1.8541
  279SOL     MW 1116   0.566   0.093   2.241  0.5096  0.1652  1.1636
  280SOL     OW 1117   1.438   1.056   2.158  0.5022  1.1032 -0.1168
  280SOL    HW1 1118   1.501   0.982   2.143 -1.9016  1.1243  1.8759
  280SOL    HW2 1119   1.431   1.041   2.258  1.1431  0.4916  1.3738
  280SOL     MW 1120   1.445   1.044   2.169  0.2696  1.0253  0.3428
  281SOL     OW 1121   1.404   1.171   2.696  0.1911 -0.4709  0.2468
  281SOL    HW1 1122   1.456   1.245   2.675 -0.9962 -2.5643 -0.7542
  281SOL    HW2 1123   1.369   1.187   2.784  1.4761 -2.5344 -0.5462
  281SOL     MW 1124   1.406   1.183   2.705  0.2040 -1.0193  0.0101
  282SOL     OW 1125   1.143   1.267   1.635  0.6792  0.1578 -0.1522
  282SOL    HW1 1126   1.133   1.356   1.596  0.3267 -0.1847  0.8121
  282SOL    HW2 1127   1.065   1.249   1.687  0.0047  1.6197 -2.6413
  282SOL     MW 1128   1.131   1.277   1.637  0.5437  0.3055 -0.3534
  283SOL     OW 1129   0.842   1.307   0.012  0.4313 -0.1726  0.4979
  283SOL    HW1 1130   0.929   1.280   0.034  1.3030 -0.6524 -0.5341
  283SOL    HW2 1131   0.839   1.397  -0.025 -1.3670 -2.5940 -0.1145
  283SOL     MW 1132   0.853   1.315   0.010  0.3091 -0.5554  0.2809
  284SOL     OW 1133   0.419   0.754   2.371  0.0108 -0.3954 -0.2879
  284SOL    HW1 1134   0.501   0.803   2.351  0.1414 -1.7710 -1.0051
  284SOL    HW2 1135   0.423   0.673   2.319 -1.0371  0.3793  1.1003
  284SOL     MW 1136   0.430   0.750   2.362 -0.1102 -0.4747 -0.1994
  285SOL     OW 1137   0.901   0.890   2.806  0.3154 -0.2620  0.3768
  285SOL    HW1 1138   0.929   0.930   2.723 -1.4564 -1.0824  0.0304
  285SOL    HW2 1139   0.844   0.825   2.777 -0.8479  2.4195  0.6138
  285SOL     MW 1140   0.897   0.887   2.791 -0.0719 -0.0165  0.3624
  286SOL     OW 1141   1.126   1.483   2.612  0.1698  0.2129  0.2115
  286SOL    HW1 1142   1.217   1.479   2.627  2.0602  0.6224 -1.5661
  286SOL    HW2 1143   1.117   1.547   2.541 -2.3939 -1.4954 -2.8293
  286SOL     MW 1144   1.137   1.491   2.605  0.0809  0.0415 -0.4243
  287SOL     OW 1145   1.226   1.028   0.307  0.2653  0.2057 -0.0303
  287SOL    HW1 1146   1.243   1.071   0.392 -0.9155  0.1984 -2.6328
  287SOL    HW2 1147   1.149   1.072   0.272 -2.3677 -0.4513 -2.0264
  287SOL     MW 1148   1.218   1.039   0.313 -0.2379  0.1181 -0.6371
  288SOL     OW 1149   1.473   0.604   2.055 -0.4587 -0.0937 -0.0734
  288SOL    HW1 1150   1.433   0.617   2.142  3.1461 -1.5420 -1.6195
  288SOL    HW2 1151   1.519   0.683   2.054 -5.4321 -0.8392  1.0890
  288SOL     MW 1152   1.474   0.616   2.067 -0.6393 -0.3832 -0.1240
  289SOL     OW 1153   1.006   0.984   2.587 -0.8790  0.4709  0.6145
  289SOL    HW1 1154   1.059   0.899   2.574  1.0522  0.2171 -1.4215
  289SOL    HW2 1155   0.923   0.955   2.554  1.3679  1.1276 -1.1840
  289SOL     MW 1156   1.002   0.969   2.581 -0.3277  0.5240  0.1086
  290SOL     OW 1157   0.807   0.601   1.493  0.0434 -0.3900  0.0080
  290SOL    HW1 1158   0.857   0.608   1.410  0.3988  1.0793  0.0514
  290SOL    HW2 1159   0.875   0.593   1.561  0.9550  1.4503 -1.3362
  290SOL     MW 1160   0.823   0.600   1.491  0.2105  0.0467 -0.1637
  291SOL     OW 1161   0.202   0.384   0.126  0.2214  0.0496 -0.1425
  291SOL    HW1 1162   0.288   0.340   0.155  0.2954 -3.8515 -1.2322
  291SOL    HW2 1163   0.153   0.318   0.073 -1.9669 -0.5849  2.3622
  291SOL     MW 1164   0.206   0.370   0.122 -0.0576 -0.5488  0.0442
  292SOL     OW 1165   1.035   0.600   0.121  0.0060 -0.2526  0.5544
  292SOL    HW1 1166   1.085   0.646   0.192  0.3101 -0.6857  3.9289
  292SOL    HW2 1167   1.061   0.512   0.141 -3.2407  1.1093 -1.1677
  292SOL     MW 1168   1.045   0.594   0.133 -0.3823 -0.1300  0.7724
  293SOL     OW 1169   0.133   0.192   2.491 -0.1508 -0.2631  0.3570
  293SOL    HW1 1170   0.080   0.135   2.430  0.6763  1.1071 -2.1059
  293SOL    HW2 1171   0.069   0.216   2.558 -1.3756 -1.4972  1.6116
  293SOL     MW 1172   0.118   0.188   2.492 -0.2032 -0.2451  0.1976
  294SOL     OW 1173   1.366   0.577   2.314 -0.4924  0.5393  0.0060
  294SOL    HW1 1174   1.408   0.635   2.379 -1.7289  0.7379 -0.3086
  294SOL    HW2 1175   1.378   0.483   2.340  1.3607  0.4442  2.0836
  294SOL     MW 1176   1.373   0.572   2.326 -0.4110  0.5530  0.2386
  295SOL     OW 1177   0.916   0.537   2.554 -0.8052  0.0771  0.3858
  295SOL    HW1 1178   0.860   0.551   2.475  2.5790  1.6117 -0.0795
  295SOL    HW2 1179   0.869   0.576   2.626 -0.0704 -0.9337 -1.5498
  295SOL     MW 1180   0.902   0.544   2.553 -0.2618  0.1462  0.0690
  296SOL     OW 1181   1.215   0.239   2.028  0.3551 -0.1547 -0.0227
  296SOL    HW1 1182   1.304   0.196   2.015 -2.1701 -2.5139 -1.7063
  296SOL    HW2 1183   1.204   0.237   2.121 -0.6183 -1.7467 -1.8357
  296SOL     MW 1184   1.225   0.233   2.038 -0.1065 -0.6760 -0.4840
  297SOL     OW 1185   1.420   0.387   1.542 -0.4236 -0.4398 -0.1417
  297SOL    HW1 1186   1.443   0.448   1.606  1.2511 -1.1035 -0.0482
  297SOL    HW2 1187   1.432   0.309   1.592  0.4472 -0.5005 -0.3612
  297SOL     MW 1188   1.425   0.385   1.557 -0.0878 -0.5354 -0.1583
  298SOL     OW 1189   1.603   0.852   2.062  0.3353  0.0809  0.4467
  298SOL    HW1 1190   1.658   0.901   2.003 -0.2724  0.1117 -0.4095
  298SOL    HW2 1191   1.658   0.804   2.121  0.1633  1.0844  0.7323
  298SOL     MW 1192   1.618   0.852   2.062  0.2324  0.2173  0.3714
  299SOL     OW 1193   0.607   1.120   3.104 -0.3780  0.3198  0.1252
  299SOL    HW1 1194   0.569   1.106   3.010 -3.1675  0.9772 -0.4153
  299SOL    HW2 1195   0.691   1.171   3.089  1.3735 -2.4338  0.3654
  299SOL     MW 1196   0.613   1.125   3.089 -0.5150  0.0432  0.0856
  300SOL     OW 1197   1.223   1.130   2.459 -1.0059 -0.0277  0.1781
  300SOL    HW1 1198   1.137   1.099   2.483  0.7459  1.0272  1.2393
  300SOL    HW2 1199   1.264   1.165   2.537  1.0359 -0.5688 -1.1606
  300SOL     MW 1200   1.217   1.131   2.472 -0.5054  0.0401  0.1415
  301SOL     OW 1201   1.434   0.954   0.671 -0.0459  0.2916  0.1609
  301SOL    HW1 1202   1.463   0.979   0.757  1.1498  1.2399 -0.6324
  301SOL    HW2 1203   1.374   0.888   0.695  3.2953 -0.1001  0.5122
  301SOL     MW 1204   1.430   0.949   0.686  0.5527  0.3651  0.1026
  302SOL     OW 1205   0.216   1.553   2.036  0.1684 -0.1257 -0.1594
  302SOL    HW1 1206   0.212   1.472   2.086 -0.1986  0.7690  1.5227
  302SOL    HW2 1207   0.133   1.599   2.039  0.3815  0.8726  0.1930
  302SOL     MW 1208   0.204   1.548   2.043  0.1481  0.1241  0.1091
  303SOL     OW 1209   0.352   1.781   2.703 -0.1133 -0.3363 -0.0982
  303SOL    HW1 1210   0.295   1.792   2.629 -0.6705  1.8688 -1.8578
  303SOL    HW2 1211   0.289   1.775   2.777  0.4138 -0.8216  2.4415
  303SOL     MW 1212   0.336   1.782   2.703 -0.1173 -0.1094  0.0048
  304SOL     OW 1213   0.492   2.050   2.319  0.1305  0.3189  0.2171
  304SOL    HW1 1214   0.569   2.112   2.296  0.0121 -0.8523  1.3536
  304SOL    HW2 1215   0.522   1.975   2.371 -2.7810 -2.5838  1.0698
  304SOL     MW 1216   0.506   2.049   2.323 -0.2693 -0.2186  0.4796
  305SOL     OW 1217   1.110   0.649   0.567  0.1056  0.8862  0.2596
  305SOL    HW1 1218   1.020   0.620   0.551 -0.0684 -1.3763  0.2244
  305SOL    HW2 1219   1.157   0.561   0.559 -0.9944  1.3887 -0.5046
  305SOL     MW 1220   1.104   0.633   0.564 -0.0625  0.6540  0.1541
  306SOL     OW 1221   1.152   1.560   0.231 -0.6585 -0.3073 -0.5067
  306SOL    HW1 1222   1.198   1.474   0.256  1.2870 -1.3196 -0.7363
  306SOL    HW2 1223   1.193   1.567   0.143  0.8290  1.2587 -0.2933
  306SOL     MW 1224   1.164   1.550   0.223 -0.2055 -0.2343 -0.5089
  307SOL     OW 1225   1.328   0.449   1.878  0.1079  0.3155  0.3270
  307SOL    HW1 1226   1.281   0.386   1.929 -1.0014 -0.7527 -1.4043
  307SOL    HW2 1227   1.385   0.488   1.948  1.3503 -0.2042  1.4991
  307SOL     MW 1228   1.329   0.446   1.894  0.1254  0.1060  0.2532
  308SOL     OW 1229   2.240   0.503   2.674  0.1321 -0.1842 -0.1203
  308SOL    HW1 1230   2.337   0.523   2.680 -1.5133 -1.8642  2.4869
  308SOL    HW2 1231   2.200   0.594   2.678  1.4751 -0.4986  0.3409
  308SOL     MW 1232   2.248   0.517   2.675  0.0922 -0.4474  0.2845
  309SOL     OW 1233   0.475   0.555   0.221 -0.0590 -0.1501 -0.0002
  309SOL    HW1 1234   0.524   0.566   0.302  0.0499 -0.4704  0.7133
  309SOL    HW2 1235   0.496   0.467   0.196 -0.4681  1.1135  0.6219
  309SOL     MW 1236   0.485   0.545   0.228 -0.0987 -0.0256  0.1760
  310SOL     OW 1237   0.476   0.593   1.896  0.2074  0.1557  0.3477
  310SOL    HW1 1238   0.506   0.513   1.864  0.5690  4.4873  1.2806
  310SOL    HW2 1239   0.522   0.672   1.861 -0.4421  1.6087  0.4319
  310SOL     MW 1240   0.486   0.593   1.887  0.1694  0.9189  0.4819
  311SOL     OW 1241   1.911   0.652   1.937  0.6712 -0.0051 -0.1259
  311SOL    HW1 1242   1.900   0.706   2.019 -0.3921  1.5094 -1.6603
  311SOL    HW2 1243   1.957   0.571   1.954 -0.7917 -0.6084 -3.2197
  311SOL     MW 1244   1.916   0.649   1.950  0.3379  0.1151 -0.7366
  312SOL     OW 1245   1.813   2.468   0.178 -0.2684  0.1233 -0.3564
  312SOL    HW1 1246   1.835   2.423   0.256 -1.4897  0.7715 -0.9442
  312SOL    HW2 1247   1.725   2.498   0.202 -0.1606  1.1496  0.5597
  312SOL     MW 1248   1.804   2.466   0.191 -0.4153  0.3442 -0.3131
  313SOL     OW 1249   0.101   1.116   3.026  0.2471  0.5903  0.1785
  313SOL    HW1 1250   0.062   1.141   3.109  0.1590  1.1253 -2.0402
  313SOL    HW2 1251   0.166   1.184   2.996 -1.0655 -0.1488  3.7190
  313SOL     MW 1252   0.105   1.128   3.033  0.0623  0.5634  0.3529
  314SOL     OW 1253   2.173   2.968   2.999  0.3873 -0.2012  0.4075
  314SOL    HW1 1254   2.116   2.996   2.922  2.2590 -1.0975  2.7640
  314SOL    HW2 1255   2.188   3.052   3.038 -1.9337 -3.9620  0.9709
  314SOL     MW 1256   2.167   2.983   2.994  0.3280 -0.8156  0.7928
  315SOL     OW 1257   1.541   1.818   2.991 -0.0222 -0.3519 -0.7597
  315SOL    HW1 1258   1.479   1.840   3.067  1.2729  0.8720 -1.6404
  315SOL    HW2 1259   1.544   1.905   2.947 -0.6143 -2.5652  0.6559
  315SOL     MW 1260   1.533   1.832   2.995  0.0706 -0.4825 -0.6891
  316SOL     OW 1261   1.249   0.552   2.715 -0.6954  0.2196 -0.0594
  316SOL    HW1 1262   1.346   0.550   2.728  1.6342 -0.8327 -0.9213
  316SOL    HW2 1263   1.213   0.551   2.804  0.1981  0.9106 -1.3934
  316SOL     MW 1264   1.257   0.552   2.729 -0.2701  0.1719 -0.3491
  317SOL     OW 1265   0.674   1.552   2.647  0.6076  0.3271 -0.6785
  317SOL    HW1 1266   0.732   1.482   2.680  1.9891 -1.2042  0.5479
  317SOL    HW2 1267   0.688   1.570   2.556 -0.0119 -0.3092  0.9747
  317SOL     MW 1268   0.684   1.545   2.639  0.7081  0.0411 -0.2985
  318SOL     OW 1269   1.356   0.346   2.941  0.0545  0.5986  0.0021
  318SOL    HW1 1270   1.263   0.367   2.936 -1.5551 -1.0824  0.3404
  318SOL    HW2 1271   1.395   0.432   2.912  2.2347 -1.2517  1.6161
  318SOL     MW 1272   1.349   0.360   2.937  0.1298  0.1327  0.2597
  319SOL     OW 1273   0.864   0.334   2.917  0.4031 -0.0579  0.1352
  319SOL    HW1 1274   0.839   0.353   2.829 -0.7827  1.4986  3.0496
  319SOL    HW2 1275   0.783   0.355   2.972 -0.8253  2.5590 -0.2897
  319SOL     MW 1276   0.850   0.339   2.913  0.0845  0.4928  0.4637
  320SOL     OW 1277   1.075   1.378   2.002  0.2922 -0.2429  0.0444
  320SOL    HW1 1278   1.120   1.304   2.046 -0.5050  0.1218  0.6831
  320SOL    HW2 1279   1.134   1.431   1.943  1.2745  0.4053 -0.0106
  320SOL     MW 1280   1.088   1.375   2.000  0.3166 -0.1092  0.1214
  321SOL     OW 1281   1.088   0.913   2.981 -0.5988 -0.2755 -0.9686
  321SOL    HW1 1282   1.019   0.898   2.916 -0.1101  1.8307  1.2111
  321SOL    HW2 1283   1.141   0.835   3.005  1.2020  1.3358  0.9102
  321SOL     MW 1284   1.086   0.901   2.976 -0.2967  0.2150 -0.4331
  322SOL     OW 1285   1.167   0.852   1.661  0.3631 -0.1232  0.4971
  322SOL    HW1 1286   1.237   0.788   1.668 -2.0316 -0.0438 -1.0013
  322SOL    HW2 1287   1.160   0.907   1.743  0.1595  1.8262 -1.8303
  322SOL     MW 1288   1.175   0.851   1.673  0.0203  0.1445 -0.0076
  323SOL     OW 1289   1.241   1.598   1.893 -0.1393  0.4885  0.3437
  323SOL    HW1 1290   1.275   1.595   1.802  2.4147  2.6548  0.8418
  323SOL    HW2 1291   1.169   1.665   1.881 -0.1424 -1.3100  1.6268
  323SOL     MW 1292   1.236   1.607   1.879  0.1973  0.5371  0.5787
  324SOL     OW 1293   1.477   1.009   2.417  0.3799  0.1288 -0.3362
  324SOL    HW1 1294   1.409   1.019   2.477  1.4181 -2.1173  0.4063
  324SOL    HW2 1295   1.552   1.063   2.440  2.6198 -0.1187 -1.3784
  324SOL     MW 1296   1.478   1.018   2.428  0.8124 -0.2002 -0.3758
  325SOL     OW 1297   1.103   0.488   2.952 -0.1829 -0.3911  0.1231
  325SOL    HW1 1298   1.096   0.529   3.037 -2.8655  1.0973  0.8106
  325SOL    HW2 1299   1.018   0.439   2.949  1.5402 -0.8301 -0.2847
  325SOL     MW 1300   1.091   0.487   2.963 -0.3095 -0.2527  0.1600
  326SOL     OW 1301   0.369   1.385   2.306 -0.4396  0.2605 -0.4158
  326SOL    HW1 1302   0.449   1.364   2.250 -0.2568  0.5401 -5.7299
  326SOL    HW2 1303   0.366   1.485   2.317 -1.2391 -1.8287 -0.6020
  326SOL     MW 1304   0.379   1.395   2.300 -0.5209  0.0217 -1.1415
  327SOL     OW 1305   1.914   0.774   2.444  0.0285 -0.1290  0.4068
  327SOL    HW1 1306   1.879   0.726   2.522  0.4385  1.0021  0.3624
  327SOL    HW2 1307   1.934   0.858   2.491  0.0835 -0.4437 -0.7993
  327SOL     MW 1308   1.912   0.779   2.461  0.0899 -0.0213  0.2418
  328SOL     OW 1309   0.204   1.261   2.095  0.1383 -0.4207 -1.0579
  328SOL    HW1 1310   0.129   1.200   2.087  1.1512 -2.8419  0.3851
  328SOL    HW2 1311   0.229   1.263   2.188 -1.2838  1.4346  0.7266
  328SOL     MW 1312   0.197   1.253   2.106  0.0843 -0.4954 -0.6321
  329SOL     OW 1313   0.034   0.173   1.374  0.7151 -0.0986 -0.5811
  329SOL    HW1 1314   0.016   0.115   1.450 -0.9846  0.9481  0.3884
  329SOL    HW2 1315   0.124   0.193   1.349 -0.0167 -1.6721 -1.3662
  329SOL     MW 1316   0.044   0.168   1.380  0.3943 -0.1681 -0.5568
  330SOL     OW 1317   0.394   3.049   2.039  0.0069  0.3325  0.0392
  330SOL    HW1 1318   0.441   3.107   2.100 -0.5207  0.0972  0.5024
  330SOL    HW2 1319   0.308   3.049   2.083  1.1574  2.3609 -3.3339
  330SOL     MW 1320   0.389   3.057   2.053  0.0890  0.5691 -0.3447
  331SOL     OW 1321   0.783   1.254   2.427 -0.2585 -0.5920  0.2310
  331SOL    HW1 1322   0.747   1.322   2.369 -1.7393 -1.1707  0.6399
  331SOL    HW2 1323   0.827   1.295   2.502 -1.1363  3.4074  0.4219
  331SOL     MW 1324   0.784   1.268   2.429 -0.5697 -0.1407  0.3101
  332SOL     OW 1325   1.345   1.657   2.902  0.2114  0.2224  0.4261
  332SOL    HW1 1326   1.341   1.664   2.805 -1.4886  2.2826  1.3231
  332SOL    HW2 1327   1.416   1.717   2.928 -0.5281  2.1476 -2.4958
  332SOL     MW 1328   1.354   1.666   2.892 -0.1105  0.7482  0.1589
  333SOL     OW 1329   1.736   1.407   2.899 -0.5368  0.5646 -0.4474
  333SOL    HW1 1330   1.833   1.398   2.933  2.3731  2.7001  1.0307
  333SOL    HW2 1331   1.693   1.332   2.938  0.4980 -0.9525  1.7891
  333SOL     MW 1332   1.743   1.396   2.908 -0.0164  0.6462  0.0427
  334SOL     OW 1333   1.262   3.059   2.578  0.4240 -0.0932  0.7531
  334SOL    HW1 1334   1.177   3.072   2.624 -1.4482 -0.4483  0.1171
  334SOL    HW2 1335   1.322   3.128   2.622  1.2323  1.8016  0.6393
  334SOL     MW 1336   1.259   3.070   2.590  0.2836  0.1099  0.6541
  335SOL     OW 1337   1.327   0.728   2.985 -0.0805 -0.2798  0.3557
  335SOL    HW1 1338   1.358   0.759   3.072 -0.9667  0.7980  3.5077
  335SOL    HW2 1339   1.374   0.790   2.919 -0.4163  2.3447 -4.0168
  335SOL     MW 1340   1.337   0.740   2.988 -0.2417  0.2087  0.1946
  336SOL     OW 1341   0.956   1.170   1.813 -0.3458  0.4582 -0.5704
  336SOL    HW1 1342   0.944   1.213   1.904 -0.4005 -0.7500  0.0181
  336SOL    HW2 1343   1.005   1.091   1.832  1.0897  2.0041 -0.7860
  336SOL     MW 1344   0.961   1.165   1.827 -0.1636  0.5028 -0.5212
  337SOL     OW 1345   0.607   1.842   2.765 -0.4118 -0.2183 -0.2016
  337SOL    HW1 1346   0.531   1.800   2.717  0.1975 -1.2689 -0.9531
  337SOL    HW2 1347   0.680   1.776   2.774 -1.3015  0.5977  0.4620
  337SOL     MW 1348   0.607   1.828   2.760 -0.4488 -0.2493 -0.2132
  338SOL     OW 1349   1.119   0.739   2.560 -0.5106 -0.2997  0.3396
  338SOL    HW1 1350   1.040   0.679   2.559 -1.1429  1.1433  1.5375
  338SOL    HW2 1351   1.182   0.691   2.608 -2.6589 -0.5535 -1.9479
  338SOL     MW 1352   1.117   0.724   2.566 -0.8775 -0.1428  0.1958
  339SOL     OW 1353   1.501   1.067   1.853 -0.4938  0.1659  0.6733
  339SOL    HW1 1354   1.442   1.058   1.778  1.0430  1.3941 -1.6144
  339SOL    HW2 1355   1.447   1.058   1.931 -1.5968  2.0914  0.0353
  339SOL     MW 1356   1.486   1.065   1.853 -0.4366  0.5820  0.2873
  340SOL     OW 1357   1.372   1.494   0.027  0.6080 -0.3775 -0.0393
  340SOL    HW1 1358   1.383   1.543  -0.054  1.2519  2.1108  0.7905
  340SOL    HW2 1359   1.457   1.476   0.057 -1.5463  1.5244 -0.4335
  340SOL     MW 1360   1.385   1.498   0.020  0.4087  0.2017  0.0182
  341SOL     OW 1361   0.087   1.344   2.744 -1.1039  0.0784 -0.0662
  341SOL    HW1 1362   0.148   1.275   2.735 -0.3716  2.2789  1.5571
  341SOL    HW2 1363   0.021   1.320   2.683  2.2723 -0.0564 -0.8071
  341SOL     MW 1364   0.086   1.332   2.735 -0.5618  0.3510  0.0502
  342SOL     OW 1365   1.359   0.362   0.151  0.0528 -0.1991 -0.4137
  342SOL    HW1 1366   1.421   0.425   0.200  3.3359  1.5125 -0.2822
  342SOL    HW2 1367   1.386   0.375   0.062  0.6524 -0.5784  0.8533
  342SOL     MW 1368   1.371   0.372   0.146  0.5651 -0.0233 -0.2292
  343SOL     OW 1369   0.301   0.304   2.224  0.0783 -0.0635  0.2468
  343SOL    HW1 1370   0.383   0.250   2.235  1.4013  0.5125 -2.1423
  343SOL    HW2 1371   0.238   0.268   2.160 -1.1411 -2.3734  0.7676
  343SOL     MW 1372   0.303   0.292   2.217  0.0920 -0.2923  0.0003
  344SOL     OW 1373   1.671   2.049   0.195  0.4287  0.3411 -0.1950
  344SOL    HW1 1374   1.701   2.121   0.137 -1.3805 -0.6861 -2.5811
  344SOL    HW2 1375   1.601   2.003   0.152 -3.0536 -1.7272 -0.7810
  344SOL     MW 1376   1.665   2.052   0.182 -0.2694 -0.0673 -0.5871
  345SOL     OW 1377   0.698   1.557   2.357  0.0454  0.0130 -0.0609
  345SOL    HW1 1378   0.610   1.529   2.329 -3.2083  1.7197 -1.3331
  345SOL    HW2 1379   0.755   1.524   2.284 -0.4118  2.4766  0.3978
  345SOL     MW 1380   0.694   1.549   2.343 -0.4442  0.5632 -0.1682
  346SOL     OW 1381   1.743   1.142   0.015 -0.5317 -0.7150 -0.0212
  346SOL    HW1 1382   1.841   1.135   0.005 -2.2501 -1.1939  1.2586
  346SOL    HW2 1383   1.712   1.067   0.073 -0.2686  0.7036  0.6823
  346SOL     MW 1384   1.752   1.132   0.021 -0.7237 -0.5910  0.2404
  347SOL     OW 1385   1.149   0.729   2.293  0.1166  0.5203 -0.4406
  347SOL    HW1 1386   1.227   0.671   2.295  2.4152 -0.6283  1.7606
  347SOL    HW2 1387   1.143   0.751   2.379 -0.5501 -0.1806 -0.4955
  347SOL     MW 1388   1.158   0.724   2.304  0.3319  0.2763 -0.1574
  348SOL     OW 1389   1.324   2.571   1.893  0.2926 -0.6010  0.3907
  348SOL    HW1 1390   1.328   2.497   1.957  0.4278 -0.7340  2.7226
  348SOL    HW2 1391   1.366   2.648   1.944  1.4481 -0.5220  0.9319
  348SOL     MW 1392   1.330   2.571   1.908  0.4629 -0.6081  0.7698
  349SOL     OW 1393   1.401   0.160   2.717 -0.0038 -0.6626  0.0010
  349SOL    HW1 1394   1.371   0.209   2.799 -1.5125 -2.5391  2.0393
  349SOL    HW2 1395   1.479   0.115   2.757 -1.2849 -1.1731 -1.1115
  349SOL     MW 1396   1.408   0.160   2.733 -0.3719 -0.9775  0.1232
  350SOL     OW 1397   1.805   0.657   2.666 -0.0172  0.1830  0.2201
  350SOL    HW1 1398   1.757   0.579   2.616 -0.7376 -0.9448  0.6412
  350SOL    HW2 1399   1.868   0.613   2.726 -0.2202  4.2352 -1.6883
  350SOL     MW 1400   1.807   0.641   2.667 -0.1390  0.5688  0.0238
  351SOL     OW 1401   0.082   1.196   1.633 -0.2666  0.3903  0.5461
  351SOL    HW1 1402   0.029   1.169   1.705  1.6331  0.6383 -0.6932
  351SOL    HW2 1403   0.160   1.256   1.663  0.6198 -0.9951 -0.5902
  351SOL     MW 1404   0.086   1.200   1.646  0.1010  0.2402  0.2326
  352SOL     OW 1405   0.847   1.713   2.786 -0.2912  0.5020  0.8486
  352SOL    HW1 1406   0.828   1.666   2.871 -1.0567  3.2885 -1.6606
  352SOL    HW2 1407   0.796   1.664   2.720 -1.1005  1.3686 -0.7047
  352SOL     MW 1408   0.838   1.700   2.789 -0.4990  0.9840  0.3126
  353SOL     OW 1409   0.039   2.524   2.762  0.0016  0.6514  0.3081
  353SOL    HW1 1410   0.114   2.477   2.720 -0.6068 -1.2838 -0.5047
  353SOL    HW2 1411   0.032   2.613   2.733 -0.2309  0.2349  0.7496
  353SOL     MW 1412   0.048   2.530   2.753 -0.1094  0.3411  0.2591
  354SOL     OW 1413   0.308   2.443   0.812  0.2034 -0.0233 -0.1484
  354SOL    HW1 1414   0.340   2.413   0.898  0.2368  2.1573 -1.8450
  354SOL    HW2 1415   0.231   2.392   0.807  1.1045  0.2614  3.2616
  354SOL     MW 1416   0.302   2.432   0.823  0.3267  0.3020  0.0777
  355SOL     OW 1417   3.075   2.228   0.346  0.7644  0.6720  0.1715
  355SOL    HW1 1418   2.987   2.179   0.339 -2.4008 -0.9303  2.2283
  355SOL    HW2 1419   3.064   2.283   0.427 -0.7083 -0.9995  1.3461
  355SOL     MW 1420   3.062   2.229   0.356  0.1524  0.2401  0.5978
  356SOL     OW 1421   0.833   2.749   0.936 -0.2750 -0.7397  0.1334
  356SOL    HW1 1422   0.870   2.811   0.873  1.3708 -0.9488 -0.9145
  356SOL    HW2 1423   0.733   2.763   0.939 -1.2445 -0.0800  0.7973
  356SOL     MW 1424   0.825   2.759   0.928 -0.1858 -0.6803  0.0827
  357SOL     OW 1425   1.786   2.844   0.437 -0.3180 -0.6985  0.6484
  357SOL    HW1 1426   1.792   2.804   0.521  2.7755  0.1755  0.3801
  357SOL    HW2 1427   1.864   2.819   0.386  2.0825  2.2110 -0.2109
  357SOL     MW 1428   1.797   2.836   0.441  0.4069 -0.1993  0.4996
  358SOL     OW 1429   0.475   0.146   1.010  0.3211  0.3059 -0.3528
  358SOL    HW1 1430   0.565   0.126   0.972  1.9343 -1.7035 -0.2936
  358SOL    HW2 1431   0.420   0.191   0.942 -0.4735  0.7370  0.8425
  358SOL     MW 1432   0.480   0.149   0.996  0.4291  0.0976 -0.1873
  359SOL     OW 1433   0.806   2.900   1.861  0.2239  0.3863  0.2436
  359SOL    HW1 1434   0.802   2.811   1.893  1.1010 -1.8710 -0.9413
  359SOL    HW2 1435   0.850   2.892   1.776 -1.3190 -1.0827 -1.4662
  359SOL     MW 1436   0.811   2.887   1.854  0.1360 -0.1054 -0.1383
  360SOL     OW 1437   0.568   2.801   0.874 -0.0976 -0.3631 -0.5517
  360SOL    HW1 1438   0.575   2.753   0.790 -1.8543 -1.1236  0.7624
  360SOL    HW2 1439   0.554   2.729   0.940 -1.7828  0.0782  0.8209
  360SOL     MW 1440   0.567   2.785   0.871 -0.5517 -0.4052 -0.1972
  361SOL     OW 1441   0.242   2.624   1.350 -0.1708 -0.2194  0.4699
  361SOL    HW1 1442   0.235   2.695   1.412 -0.8654  0.1001 -1.2092
  361SOL    HW2 1443   0.338   2.615   1.328 -2.8429  0.0043 -0.2461
  361SOL     MW 1444   0.254   2.632   1.356 -0.6150 -0.1477  0.1539
  362SOL     OW 1445   1.442   2.378   0.631 -0.1521 -0.6042 -0.3769
  362SOL    HW1 1446   1.467   2.316   0.697 -0.5868  0.3250 -2.4676
  362SOL    HW2 1447   1.496   2.463   0.639 -0.2604 -0.6730 -0.1852
  362SOL     MW 1448   1.452   2.381   0.641 -0.2238 -0.4907 -0.6275
  363SOL     OW 1449   0.303   3.065   0.668  0.2832 -0.5925  0.2478
  363SOL    HW1 1450   0.300   3.022   0.756  0.9239 -0.5603  3.3876
  363SOL    HW2 1451   0.212   3.065   0.634  0.1916 -0.4117  0.0892
  363SOL     MW 1452   0.291   3.059   0.675  0.3557 -0.5644  0.6411
  364SOL     OW 1453   0.723   0.244   0.196  0.3198  0.1982 -0.4619
  364SOL    HW1 1454   0.666   0.168   0.217 -0.5889 -1.4692 -0.2692
  364SOL    HW2 1455   0.670   0.306   0.143 -1.8599 -0.8575 -1.6463
  364SOL     MW 1456   0.709   0.242   0.192 -0.0877 -0.1611 -0.5927
  365SOL     OW 1457   0.975   2.008   1.155 -0.7583  0.5934 -0.6043
  365SOL    HW1 1458   0.919   2.080   1.131  0.6324 -1.4136 -0.3091
  365SOL    HW2 1459   0.927   1.941   1.106  1.2298 -0.0739  1.5269
  365SOL     MW 1460   0.961   2.009   1.145 -0.3125  0.2405 -0.2841
  366SOL     OW 1461   2.942   2.653   0.931 -0.5057 -0.8338 -0.3617
  366SOL    HW1 1462   3.019   2.675   0.982 -0.6436  0.5274  1.9547
  366SOL    HW2 1463   2.968   2.673   0.837 -1.5162 -1.0998  0.7439
  366SOL     MW 1464   2.955   2.659   0.926 -0.6572 -0.6893  0.0898
  367SOL     OW 1465   1.236   2.913   0.867 -0.1878  0.9154  0.0872
  367SOL    HW1 1466   1.260   2.981   0.808  1.7584 -2.3372 -0.5574
  367SOL    HW2 1467   1.207   2.842   0.813  2.2433 -0.5055  1.8469
  367SOL     MW 1468   1.235   2.912   0.852  0.3898  0.2987  0.2343
  368SOL     OW 1469   1.681   0.343   0.736  0.1688  0.5676 -0.4838
  368SOL    HW1 1470   1.750   0.313   0.678 -1.5293 -3.9532  1.0661
  368SOL    HW2 1471   1.702   0.437   0.747  1.8490  0.3221  0.4090
  368SOL     MW 1472   1.693   0.352   0.730  0.1665 -0.0613 -0.1615
  369SOL     OW 1473   0.129   2.430   1.765 -0.5487  0.4962 -0.0982
  369SOL    HW1 1474   0.220   2.402   1.768 -0.1873  0.7860 -2.0583
  369SOL    HW2 1475   0.114   2.525   1.747  0.2205  0.7624 -0.4289
  369SOL     MW 1476   0.139   2.439   1.763 -0.3995  0.5695 -0.4004
  370SOL     OW 1477   0.744   0.148   0.930 -0.5025 -0.0377  0.4079
  370SOL    HW1 1478   0.765   0.241   0.934  0.7339 -0.5259  2.4043
  370SOL    HW2 1479   0.825   0.112   0.976  2.8066 -0.2233  2.6121
  370SOL     MW 1480   0.758   0.156   0.937  0.0972 -0.1266  0.9622
  371SOL     OW 1481   1.296   2.878   1.492  0.1895 -0.2430 -0.1991
  371SOL    HW1 1482   1.251   2.817   1.435  1.3755 -2.1049  1.0173
  371SOL    HW2 1483   1.327   2.953   1.431 -1.1919  1.2627  0.3604
  371SOL     MW 1484   1.294   2.880   1.477  0.1637 -0.2900  0.0352
  372SOL     OW 1485   0.811   2.303   0.486  0.1024 -0.4877  0.3206
  372SOL    HW1 1486   0.773   2.215   0.490 -0.8324  1.1272  0.1483
  372SOL    HW2 1487   0.841   2.336   0.393 -1.2407  2.5955 -0.9702
  372SOL     MW 1488   0.810   2.296   0.474 -0.1981  0.1322  0.1276
  373SOL     OW 1489   2.831   3.027   1.442  0.5738  0.6045 -0.3924
  373SOL    HW1 1490   2.918   3.011   1.411  0.5959 -3.0777 -1.9343
  373SOL    HW2 1491   2.803   3.113   1.397 -0.9833  1.9611 -0.6399
  373SOL     MW 1492   2.838   3.036   1.432  0.3713  0.2976 -0.6285
  374SOL     OW 1493   1.514   0.535   0.299  0.0052 -0.5372 -0.2699
  374SOL    HW1 1494   1.604   0.522   0.263  3.0227 -1.2488  1.5117
  374SOL    HW2 1495   1.515   0.477   0.376 -0.4644 -2.8640  0.5364
  374SOL     MW 1496   1.526   0.526   0.304  0.3414 -0.9381  0.0716
  375SOL     OW 1497   0.985   2.102   2.287 -0.0805  0.0092  0.8880
  375SOL    HW1 1498   1.036   2.092   2.364 -2.7388 -2.0689 -2.1838
  375SOL    HW2 1499   0.963   2.015   2.269  0.3323 -0.1659  1.7786
  375SOL     MW 1500   0.989   2.089   2.295 -0.3768 -0.2881  0.6002
  376SOL     OW 1501   0.712   2.494   0.057 -0.5077 -0.4617  0.5021
  376SOL    HW1 1502   0.691   2.434   0.134 -0.9470 -0.0259  1.6355
  376SOL    HW2 1503   0.719   2.447  -0.035  1.7651  0.2789 -1.5209
  376SOL     MW 1504   0.710   2.480   0.055 -0.2658 -0.3065  0.3847
  377SOL     OW 1505   1.257   2.070   0.860  0.2827  0.6819  0.1916
  377SOL    HW1 1506   1.163   2.046   0.840  1.1001 -0.5113 -0.3198
  377SOL    HW2 1507   1.276   2.016   0.940  1.9304 -2.5948  0.9236
  377SOL     MW 1508   1.247   2.060   0.868  0.6079  0.0922  0.2207
  378SOL     OW 1509   0.910   2.860   1.631  0.2787  0.0992  0.1786
  378SOL    HW1 1510   0.864   2.774   1.625 -2.2084 -1.1357  2.8750
  378SOL    HW2 1511   0.941   2.877   1.546 -2.9051  0.0840 -0.0562
  378SOL     MW 1512   0.908   2.850   1.619 -0.4695 -0.0657  0.5034
  379SOL     OW 1513   1.136   1.674   2.167  0.2141 -0.4631 -0.2273
  379SOL    HW1 1514   1.060   1.673   2.108  0.3397 -0.1164  0.0021
  379SOL    HW2 1515   1.214   1.631   2.120  1.5204 -1.3971 -1.8561
  379SOL     MW 1516   1.137   1.668   2.153  0.4030 -0.5406 -0.4119
  380SOL     OW 1517   0.893   0.133   1.484 -0.0808 -0.5804 -0.4250
  380SOL    HW1 1518   0.906   0.041   1.457 -0.5205  2.4574  0.1183
  380SOL    HW2 1519   0.932   0.142   1.572  1.0406 -1.8686 -3.8870
  380SOL     MW 1520   0.900   0.122   1.492  0.0091 -0.3496 -0.8101
  381SOL     OW 1521   0.721   2.074   0.823 -0.0828  0.2809 -0.3144
  381SOL    HW1 1522   0.819   2.067   0.808  1.3456 -0.6117  3.4227
  381SOL    HW2 1523   0.714   2.137   0.887 -0.8121 -1.1285 -0.9757
  381SOL     MW 1524   0.733   2.081   0.829  0.0095 -0.0229  0.0914
  382SOL     OW 1525   0.701   0.146   0.629  0.0606  0.0212 -0.2518
  382SOL    HW1 1526   0.703   0.130   0.726 -2.5319  0.1636  0.2962
  382SOL    HW2 1527   0.701   0.058   0.595  2.0041  1.6435 -0.9165
  382SOL     MW 1528   0.701   0.132   0.637 -0.0251  0.2540 -0.2672
  383SOL     OW 1529   0.563   0.033   0.274  0.0760  0.5698 -0.1332
  383SOL    HW1 1530   0.592  -0.031   0.204 -3.0445 -0.5875 -1.1850
  383SOL    HW2 1531   0.535  -0.019   0.350  2.0739  0.0009 -0.7507
  383SOL     MW 1532   0.563   0.018   0.275 -0.0721  0.3420 -0.3534
  384SOL     OW 1533   0.749   2.966   0.566 -0.2568  0.0836  0.3032
  384SOL    HW1 1534   0.812   2.955   0.639  1.4354  1.0721  3.2571
  384SOL    HW2 1535   0.695   2.885   0.583  1.9183  2.6193  1.3126
  384SOL     MW 1536   0.751   2.954   0.578  0.2534  0.5486  0.8261
  385SOL     OW 1537   1.428   2.051   1.526  0.5619 -0.3505  0.2784
  385SOL    HW1 1538   1.495   2.105   1.565 -0.5032 -0.3649 -1.1978
  385SOL    HW2 1539   1.390   1.980   1.585  2.4634 -0.6963  0.9543
  385SOL     MW 1540   1.431   2.049   1.539  0.6723 -0.3980  0.1728
  386SOL     OW 1541   1.287   0.360   0.855  0.9376 -0.4365 -0.4276
  386SOL    HW1 1542   1.243   0.421   0.920  0.2696 -1.7184  2.2406
  386SOL    HW2 1543   1.291   0.281   0.908 -0.6207 -1.3720 -0.3569
  386SOL     MW 1544   1.281   0.358   0.870  0.6439 -0.7291 -0.0663
  387SOL     OW 1545   0.822   2.191   1.515 -0.0241 -0.4216 -0.1217
  387SOL    HW1 1546   0.910   2.240   1.489  2.2422 -0.3595 -1.2638
  387SOL    HW2 1547   0.842   2.107   1.466  1.2822 -1.8165 -0.0957
  387SOL     MW 1548   0.837   2.187   1.505  0.4473 -0.5974 -0.2689
  388SOL     OW 1549   1.499   2.771   1.252  0.7473 -0.7409  0.1395
  388SOL    HW1 1550   1.423   2.827   1.232 -2.4661  1.0957  1.3936
  388SOL    HW2 1551   1.483   2.694   1.193 -4.5108 -0.2239 -3.5408
  388SOL     MW 1552   1.487   2.768   1.242 -0.3705 -0.4304 -0.1806
  389SOL     OW 1553   0.517   0.175   3.042  0.9741 -0.1510  0.2000
  389SOL    HW1 1554   0.605   0.142   3.064 -0.2588 -1.2910  0.7022
  389SOL    HW2 1555   0.509   0.201   2.945 -2.9202 -1.2400 -3.1957
  389SOL     MW 1556   0.527   0.174   3.032  0.2976 -0.4451 -0.1818
  390SOL     OW 1557   1.321   0.033   0.720 -0.6610 -0.2489  0.1254
  390SOL    HW1 1558   1.388   0.032   0.649  1.5447 -1.7747 -1.3609
  390SOL    HW2 1559   1.341   0.104   0.778  2.4984  1.0244 -1.4432
  390SOL     MW 1560   1.332   0.043   0.718  0.0469 -0.2823 -0.2777
  391SOL     OW 1561   0.390   2.177   1.485  0.4070  0.3222  0.7624
  391SOL    HW1 1562   0.353   2.093   1.513  0.6830  0.2276  0.3969
  391SOL    HW2 1563   0.320   2.241   1.498 -2.1664 -1.1010  0.3923
  391SOL     MW 1564   0.376   2.174   1.491  0.1039  0.1219  0.6654
  392SOL     OW 1565   2.080   2.226   0.319 -0.0218  0.2066  0.1328
  392SOL    HW1 1566   2.175   2.200   0.329  0.6507  0.8875  0.2100
  392SOL    HW2 1567   2.051   2.250   0.403  1.3365 -1.0209 -0.7784
  392SOL     MW 1568   2.088   2.226   0.331  0.2461  0.1345  0.0228
  393SOL     OW 1569   0.283   2.907   2.798  0.1584  0.0774  0.5899
  393SOL    HW1 1570   0.358   2.897   2.736  1.5278 -1.5362  0.6193
  393SOL    HW2 1571   0.275   3.000   2.812  1.7185  0.6719 -3.5542
  393SOL     MW 1572   0.292   2.918   2.791  0.5449 -0.0570  0.0470
  394SOL     OW 1573   0.937   1.729   1.534  0.1247 -0.6690 -0.1740
  394SOL    HW1 1574   0.894   1.721   1.616  1.0683  3.3996 -1.4727
  394SOL    HW2 1575   0.930   1.822   1.514  2.0478 -2.4826  0.8550
  394SOL     MW 1576   0.930   1.740   1.542  0.5030 -0.3714 -0.2096
  395SOL     OW 1577   0.957   2.966   2.557  0.4873  0.3360 -0.3908
  395SOL    HW1 1578   0.990   2.984   2.646 -0.9415 -0.7229  0.5951
  395SOL    HW2 1579   1.022   2.899   2.526 -0.5882 -0.9796 -0.6457
  395SOL     MW 1580   0.970   2.960   2.565  0.1569  0.0227 -0.2944
  396SOL     OW 1581   0.702   1.830   2.419  0.3100  0.0409  0.1824
  396SOL    HW1 1582   0.789   1.843   2.450 -0.6482 -2.1354 -0.3554
  396SOL    HW2 1583   0.696   1.732   2.399 -2.6976 -1.2479 -2.0559
  396SOL     MW 1584   0.712   1.819   2.420 -0.2132 -0.4163 -0.1839
  397SOL     OW 1585   1.038   2.340   1.442  0.0853 -0.3756 -0.0324
  397SOL    HW1 1586   1.062   2.342   1.345 -1.2584 -1.9188 -2.1958
  397SOL    HW2 1587   1.115   2.298   1.489  0.6946  0.1406  0.7467
  397SOL     MW 1588   1.051   2.335   1.436 -0.0116 -0.5111 -0.2150
  398SOL     OW 1589   0.625   2.717   0.621  0.3451  1.1005 -0.1212
  398SOL    HW1 1590   0.544   2.687   0.587  0.1925  0.0846 -0.0220
  398SOL    HW2 1591   0.679   2.639   0.632 -2.2861 -1.2645 -0.3264
  398SOL     MW 1592   0.622   2.703   0.618 -0.0222  0.6544 -0.1352
  399SOL     OW 1593   0.208   2.098   0.327 -0.6648 -0.3575  0.2084
  399SOL    HW1 1594   0.119   2.140   0.338  1.9547 -2.6886  2.4978
  399SOL    HW2 1595   0.252   2.117   0.243 -0.3478 -2.0517 -2.0861
  399SOL     MW 1596   0.202   2.106   0.317 -0.2773 -0.8886  0.2077
  400SOL     OW 1597   0.563   1.971   0.030 -0.0170  0.3695  0.6110
  400SOL    HW1 1598   0.484   2.014   0.033 -0.5662 -1.5411  0.0310
  400SOL    HW2 1599   0.563   1.923   0.110  0.3918  0.7701  0.5244
  400SOL     MW 1600   0.553   1.970   0.041 -0.0356  0.1703  0.5231
  401SOL     OW 1601   0.816   2.097   0.083 -0.1266 -0.1190 -0.3337
  401SOL    HW1 1602   0.882   2.030   0.100  2.3370  2.6010 -1.0071
  401SOL    HW2 1603   0.731   2.052   0.088 -0.8962 -0.1502 -0.3218
  401SOL     MW 1604   0.814   2.083   0.086  0.0969  0.2358 -0.4210
  402SOL     OW 1605   0.578   2.977   1.735 -0.1373 -0.3347 -0.2691
  402SOL    HW1 1606   0.641   2.936   1.802 -1.5806  0.6313  1.6396
  402SOL    HW2 1607   0.622   3.056   1.710 -0.1855 -2.6950 -0.4129
  402SOL     MW 1608   0.592   2.982   1.741 -0.3340 -0.5186 -0.0363
  403SOL     OW 1609   0.105   0.417   0.410  0.3217  1.0178 -0.5634
  403SOL    HW1 1610   0.192   0.439   0.444  1.8563  0.0239  0.4709
  403SOL    HW2 1611   0.117   0.377   0.320  2.5946 -1.9190  0.8485
  403SOL     MW 1612   0.118   0.414   0.402  0.8241  0.4992 -0.2407
  404SOL     OW 1613   0.948   2.919   0.759  0.2999 -0.3457  0.1871
  404SOL    HW1 1614   1.010   2.868   0.714 -0.5051 -1.5812  0.0025
  404SOL    HW2 1615   0.977   3.010   0.740  1.6711  0.4580 -1.8794
  404SOL     MW 1616   0.960   2.924   0.751  0.3746 -0.4027 -0.1099
  405SOL     OW 1617   0.512   2.437   1.524 -0.0130  0.3335 -0.0385
  405SOL    HW1 1618   0.524   2.486   1.442 -1.0865  2.0398 -0.3583
  405SOL    HW2 1619   0.505   2.344   1.488  2.5287  1.7546 -2.0223
  405SOL     MW 1620   0.512   2.431   1.509  0.1807  0.7461 -0.3424
  406SOL     OW 1621   0.327   2.412   1.091 -0.1855 -0.0809  0.2816
  406SOL    HW1 1622   0.234   2.421   1.103 -0.2427  0.9841  0.9422
  406SOL    HW2 1623   0.357   2.333   1.140  1.1872 -1.7211 -0.1779
  406SOL     MW 1624   0.319   2.403   1.099 -0.0120 -0.1567  0.3081
  407SOL     OW 1625   0.057   2.692   1.158  0.8248 -0.1700 -0.4691
  407SOL    HW1 1626   0.117   2.661   1.235  3.8683  1.4422  1.5406
  407SOL    HW2 1627   0.114   2.694   1.083  0.1336 -0.6503  1.5469
  407SOL     MW 1628   0.073   2.688   1.158  1.1351 -0.0207  0.0621
  408SOL     OW 1629   2.131   2.095   0.650 -0.4871 -0.5267  0.8537
  408SOL    HW1 1630   2.085   2.129   0.730  0.4186 -0.4629 -0.1769
  408SOL    HW2 1631   2.052   2.045   0.622 -0.8344  3.1874  1.2861
  408SOL     MW 1632   2.114   2.093   0.657 -0.4134 -0.0282  0.7747
  409SOL     OW 1633   1.449   0.153   0.961  0.1494  0.1009 -0.1660
  409SOL    HW1 1634   1.511   0.200   1.011 -1.2189 -0.6663 -2.7960
  409SOL    HW2 1635   1.467   0.062   0.983 -1.8459  0.0943 -1.0011
  409SOL     MW 1636   1.459   0.147   0.970 -0.2944 -0.0012 -0.6232
  410SOL     OW 1637   1.077   2.407   1.179 -0.5383 -0.0781  0.7406
  410SOL    HW1 1638   1.006   2.445   1.122  1.3948 -0.6927 -2.4655
  410SOL    HW2 1639   1.141   2.385   1.111  1.1898 -0.3048 -0.1967
  410SOL     MW 1640   1.076   2.409   1.162 -0.0552 -0.1891  0.1939
  411SOL     OW 1641   1.923   0.008   2.905  0.1170 -0.4979  0.0692
  411SOL    HW1 1642   1.852  -0.037   2.861 -0.0872 -0.3405  1.9217
  411SOL    HW2 1643   1.884   0.071   2.966  2.2742  1.3265 -1.1004
  411SOL     MW 1644   1.909   0.010   2.907  0.3747 -0.2364  0.1593
  412SOL     OW 1645   1.027   2.222   0.620 -0.0213  0.0489  0.2348
  412SOL    HW1 1646   1.068   2.295   0.666 -2.0540  0.0072 -2.4127
  412SOL    HW2 1647   0.948   2.251   0.575 -2.4465 -1.2621 -0.3553
  412SOL     MW 1648   1.022   2.236   0.620 -0.6094 -0.1296 -0.1924
  413SOL     OW 1649   0.554   2.724   0.040  0.1480  0.1095 -0.2483
  413SOL    HW1 1650   0.640   2.661   0.046  1.5963 -0.9141  1.4209
  413SOL    HW2 1651   0.573   2.772  -0.039  1.6889 -0.6214 -1.1031
  413SOL     MW 1652   0.568   2.722   0.030  0.5424 -0.1220 -0.1409
  414SOL     OW 1653   2.034   3.000   1.165  0.2036 -0.4276  0.2940
  414SOL    HW1 1654   2.044   3.096   1.195  2.8411  0.7257 -0.5964
  414SOL    HW2 1655   2.008   3.024   1.075  0.0966  0.0208  0.3710
  414SOL     MW 1656   2.032   3.016   1.157  0.5375 -0.2162  0.1867
  415SOL     OW 1657   1.761   2.796   1.077 -0.3579  0.0570 -0.0400
  415SOL    HW1 1658   1.720   2.767   1.158 -1.2713  2.7494 -0.9212
  415SOL    HW2 1659   1.856   2.775   1.086 -0.6935 -2.1799  0.6354
  415SOL     MW 1660   1.768   2.789   1.089 -0.5227  0.1171 -0.0672
  416SOL     OW 1661   0.573   1.932   1.369 -0.3297 -1.0392  0.8876
  416SOL    HW1 1662   0.480   1.933   1.382 -1.5608  2.0830 -0.5131
  416SOL    HW2 1663   0.609   1.846   1.405 -2.1438  0.2223 -0.5819
  416SOL     MW 1664   0.565   1.921   1.375 -0.7315 -0.4608  0.5089
  417SOL     OW 1665   0.989   2.986   2.046 -0.3208  0.1541 -0.4161
  417SOL    HW1 1666   0.918   2.991   2.105 -1.1982  0.8904 -0.4435
  417SOL    HW2 1667   0.955   2.943   1.969  1.0955 -0.4438  1.3945
  417SOL     MW 1668   0.975   2.981   2.044 -0.2497  0.1724 -0.1808
  418SOL     OW 1669   0.693   2.911   0.166 -0.0926  0.3301 -0.1057
  418SOL    HW1 1670   0.764   2.911   0.099  2.1728 -0.9919  0.8717
  418SOL    HW2 1671   0.639   2.830   0.152 -0.8572  0.5066  1.6570
  418SOL     MW 1672   0.695   2.900   0.155  0.1054  0.1790  0.2558
  419SOL     OW 1673   0.505   2.633   1.337  0.2477  0.0659  0.1464
  419SOL    HW1 1674   0.565   2.695   1.383 -2.5345  2.1867  2.6915
  419SOL    HW2 1675   0.566   2.618   1.264  1.9613 -3.2295  1.3157
  419SOL     MW 1676   0.521   2.639   1.333  0.1067 -0.0891  0.6365
  420SOL     OW 1677   0.793   2.209   1.073  0.0376 -0.0084  0.1971
  420SOL    HW1 1678   0.745   2.241   1.152  0.4028  2.6635 -0.7003
  420SOL    HW2 1679   0.808   2.297   1.028  1.4715 -0.5614  0.0968
  420SOL     MW 1680   0.789   2.225   1.078  0.2750  0.2712  0.0654
  421SOL     OW 1681   2.975   0.193   3.077  0.1537 -0.4047 -0.2862
  421SOL    HW1 1682   2.893   0.185   3.024 -0.6920 -1.2740 -0.2268
  421SOL    HW2 1683   3.003   0.103   3.081  0.1698 -0.2981  0.2016
  421SOL     MW 1684   2.968   0.180   3.070  0.0443 -0.5053 -0.2140
  422SOL     OW 1685   0.825   2.487   0.945 -0.5078  0.0048 -0.3459
  422SOL    HW1 1686   0.843   2.579   0.938 -1.8041  1.3289  0.5911
  422SOL    HW2 1687   0.829   2.466   0.850  0.9627  0.4250 -1.3500
  422SOL     MW 1688   0.828   2.497   0.931 -0.4848  0.2350 -0.3547
  423SOL     OW 1689   1.489   0.062   0.481  0.3459 -0.2778 -0.4141
  423SOL    HW1 1690   1.489   0.068   0.384  2.2460 -2.4295 -0.3020
  423SOL    HW2 1691   1.498   0.156   0.518 -1.6235 -1.3084  0.6707
  423SOL     MW 1692   1.490   0.075   0.473  0.3368 -0.6977 -0.2562
  424SOL     OW 1693   0.674   2.284   1.301  0.0618  0.3483 -0.0363
  424SOL    HW1 1694   0.588   2.239   1.284 -1.4410 -0.9624 -2.3552
  424SOL    HW2 1695   0.722   2.247   1.378 -2.2399 -0.2274  0.6162
  424SOL     MW 1696   0.669   2.273   1.309 -0.4402  0.0994 -0.2562
  425SOL     OW 1697   1.733   2.747   2.053 -0.0446  0.2521  0.0838
  425SOL    HW1 1698   1.735   2.743   1.955 -0.0591 -0.0566  0.7185
  425SOL    HW2 1699   1.744   2.652   2.084  0.6046 -3.9769  0.7190
  425SOL     MW 1700   1.735   2.734   2.044  0.0391 -0.3466  0.2513
  426SOL     OW 1701   0.838   1.698   1.971 -0.1137  0.5447  0.2655
  426SOL    HW1 1702   0.784   1.724   1.891  0.8425 -0.4743  1.3859
  426SOL    HW2 1703   0.812   1.761   2.049  1.0618 -0.3331  3.4654
  426SOL     MW 1704   0.828   1.710   1.971  0.1675  0.2945  0.8355
  427SOL     OW 1705   0.366   1.680   1.853 -0.5803 -0.4113  0.0714
  427SOL    HW1 1706   0.426   1.655   1.789  0.7936  0.6748  1.8940
  427SOL    HW2 1707   0.327   1.603   1.893 -0.2712 -1.1186 -0.2813
  427SOL     MW 1708   0.369   1.667   1.850 -0.3583 -0.3613  0.2653
  428SOL     OW 1709   0.577   2.582   1.054  0.1096  0.1881  0.8166
  428SOL    HW1 1710   0.658   2.545   1.027 -1.3213  3.6283 -2.4553
  428SOL    HW2 1711   0.514   2.503   1.048  1.8592 -1.5400 -0.0568
  428SOL     MW 1712   0.579   2.567   1.050  0.1516  0.4140  0.2697
  429SOL     OW 1713   1.231   2.826   1.128 -0.1697 -0.0190  0.2817
  429SOL    HW1 1714   1.137   2.830   1.141 -0.2191 -1.9884 -0.6062
  429SOL    HW2 1715   1.248   2.848   1.037 -0.6459 -1.2014  0.5885
  429SOL     MW 1716   1.221   2.829   1.118 -0.2391 -0.4349  0.2050
  430SOL     OW 1717   1.162   2.730   0.694 -0.0466 -0.2130  0.1716
  430SOL    HW1 1718   1.193   2.645   0.724 -0.2865  0.6148 -1.1034
  430SOL    HW2 1719   1.097   2.714   0.617 -0.0798  2.1126 -2.4706
  430SOL     MW 1720   1.157   2.716   0.688 -0.0826  0.2030 -0.3453
  431SOL     OW 1721   0.331   1.944   1.058  0.2449 -0.7493  0.4745
  431SOL    HW1 1722   0.399   1.882   1.048  0.3896  1.0637 -1.5050
  431SOL    HW2 1723   0.317   1.986   0.972  2.0760 -2.4115  0.0662
  431SOL     MW 1724   0.338   1.941   1.046  0.5056 -0.7294  0.1595
  432SOL     OW 1725   0.067   0.035   1.129 -0.6525 -0.2074 -0.7020
  432SOL    HW1 1726   0.053   0.109   1.189 -0.1392  0.3264  0.7343
  432SOL    HW2 1727   0.008  -0.032   1.158  0.9594 -1.7015 -2.4431
  432SOL     MW 1728   0.057   0.036   1.141 -0.3721 -0.3341 -0.7422
  433SOL     OW 1729   0.633   2.860   1.483  0.4459  0.0861  0.0582
  433SOL    HW1 1730   0.608   2.858   1.579 -1.5084  3.3324 -0.5976
  433SOL    HW2 1731   0.729   2.888   1.478  3.3143 -1.0516  0.7510
  433SOL     MW 1732   0.642   2.863   1.495  0.5665  0.3643  0.0631
  434SOL     OW 1733   1.558   2.803   1.597 -0.5318  0.4456  0.0066
  434SOL    HW1 1734   1.472   2.810   1.556 -0.0817  1.1972  2.2292
  434SOL    HW2 1735   1.616   2.773   1.527 -2.1964  0.6523 -1.1088
  434SOL     MW 1736   1.554   2.800   1.582 -0.6920  0.5721  0.1527
  435SOL     OW 1737   2.749   1.764   0.182 -0.4225 -0.1491  0.3254
  435SOL    HW1 1738   2.807   1.836   0.176 -1.4843 -0.4484  2.0676
  435SOL    HW2 1739   2.704   1.778   0.103 -2.3431 -0.1257 -0.9271
  435SOL     MW 1740   2.751   1.776   0.171 -0.8160 -0.1855  0.3900
  436SOL     OW 1741   1.380   2.682   0.379 -0.0180 -0.0826 -0.3383
  436SOL    HW1 1742   1.421   2.676   0.467 -1.6112 -2.6554 -0.2447
  436SOL    HW2 1743   1.385   2.778   0.349 -0.9430 -0.0826 -1.7218
  436SOL     MW 1744   1.386   2.693   0.386 -0.3503 -0.4221 -0.5085
  437SOL     OW 1745   0.932   2.967   1.359  0.8087 -0.2933  0.1296
  437SOL    HW1 1746   1.003   3.027   1.338 -0.2108  1.0691 -0.9334
  437SOL    HW2 1747   0.930   2.892   1.301  1.1466 -1.8311  0.2269
  437SOL     MW 1748   0.941   2.965   1.349  0.7188 -0.3164  0.0021
  438SOL     OW 1749   0.803   2.621   1.915  0.0680  0.6177  0.3186
  438SOL    HW1 1750   0.820   2.583   2.000  1.6610  0.3396 -2.3125
  438SOL    HW2 1751   0.764   2.549   1.866 -1.1834  0.0042  2.5937
  438SOL     MW 1752   0.800   2.606   1.919  0.1131  0.5000  0.2716
  439SOL     OW 1753   1.188   2.087   0.403 -0.7324 -0.0707  0.2383
  439SOL    HW1 1754   1.133   2.101   0.477 -0.2525  1.4900 -1.3366
  439SOL    HW2 1755   1.186   2.174   0.357 -2.1346  1.0702  1.0636
  439SOL     MW 1756   1.181   2.100   0.407 -0.8541  0.2858  0.1394
  440SOL     OW 1757   1.669   2.961   3.085 -0.5998 -0.0557  0.2472
  440SOL    HW1 1758   1.643   2.920   3.170 -3.0381  1.4790 -0.9458
  440SOL    HW2 1759   1.768   2.956   3.083 -0.3898 -3.7285 -0.3119
  440SOL     MW 1760   1.679   2.955   3.096 -0.8938 -0.3378  0.0160
  441SOL     OW 1761   0.376   2.671   0.510  0.0901 -0.3627  0.6043
  441SOL    HW1 1762   0.340   2.641   0.419 -2.1680 -0.5094 -0.8410
  441SOL    HW2 1763   0.384   2.763   0.506 -2.5438 -2.3919  0.0769
  441SOL     MW 1764   0.372   2.679   0.498 -0.5553 -0.6497  0.3440
  442SOL     OW 1765   3.077   2.347   0.596  0.4731 -0.1239 -0.2019
  442SOL    HW1 1766   3.083   2.433   0.565 -0.0173 -2.2448 -3.4674
  442SOL    HW2 1767   2.985   2.315   0.623  0.3882 -0.0039  1.9737
  442SOL     MW 1768   3.066   2.354   0.596  0.3972 -0.3879 -0.3457
  443SOL     OW 1769   1.499   1.746   1.991  0.2165 -0.4768  0.5214
  443SOL    HW1 1770   1.435   1.715   1.926  1.3558  2.4186  0.4263
  443SOL    HW2 1771   1.493   1.711   2.076  3.1406 -0.6545  0.2553
  443SOL     MW 1772   1.490   1.738   1.994  0.7527 -0.1182  0.4737
  444SOL     OW 1773   0.875   2.574   1.583  0.3368  0.5476  0.2010
  444SOL    HW1 1774   0.972   2.563   1.594  1.0820 -1.6610  2.7836
  444SOL    HW2 1775   0.827   2.521   1.650  0.7292 -0.5782  0.6268
  444SOL     MW 1776   0.882   2.566   1.593  0.4869  0.1076  0.5979
  445SOL     OW 1777   1.156   0.126   1.369  0.6039  0.3079  0.3274
  445SOL    HW1 1778   1.077   0.148   1.422 -0.0927  0.2519  4.8158
  445SOL    HW2 1779   1.123   0.150   1.282  1.2299  0.3463 -0.6627
  445SOL     MW 1780   1.141   0.132   1.364  0.5946  0.3056  0.7890
  446SOL     OW 1781   2.793   2.852   1.040  0.2914  0.2172  0.1558
  446SOL    HW1 1782   2.738   2.892   0.970 -0.7414 -0.5495 -2.9451
  446SOL    HW2 1783   2.831   2.776   0.992 -1.1747 -0.3815 -0.0835
  446SOL     MW 1784   2.791   2.847   1.025 -0.0383  0.0370 -0.2849
  447SOL     OW 1785   0.033   2.001   1.633 -0.6669 -0.0179 -0.4315
  447SOL    HW1 1786   0.069   1.939   1.702  1.7685 -1.1450  0.5984
  447SOL    HW2 1787  -0.030   1.944   1.578 -1.9089  2.0867 -0.0872
  447SOL     MW 1788   0.029   1.986   1.635 -0.5094  0.1111 -0.2502
  448SOL     OW 1789   1.747   2.413   1.672  0.2371 -0.2387  0.5607
  448SOL    HW1 1790   1.706   2.327   1.666  1.1932 -1.3454 -0.3856
  448SOL    HW2 1791   1.664   2.469   1.671 -0.1250  3.1431 -1.9148
  448SOL     MW 1792   1.730   2.409   1.671  0.3155  0.0615  0.1092
  449SOL     OW 1793   0.875   2.869   0.352  0.2326  0.3998  0.2725
  449SOL    HW1 1794   0.808   2.887   0.278  3.0472  0.9620 -1.4250
  449SOL    HW2 1795   0.818   2.897   0.430 -0.0489 -1.8061 -2.3143
  449SOL     MW 1796   0.858   2.875   0.352  0.5668  0.1829 -0.2928
  450SOL     OW 1797   1.208   2.452   0.743  0.2100  0.3553  0.1524
  450SOL    HW1 1798   1.219   2.410   0.830 -1.0209 -1.1293 -0.8363
  450SOL    HW2 1799   1.283   2.416   0.693  2.8615 -2.5004 -0.4521
  450SOL     MW 1800   1.220   2.442   0.748  0.3975 -0.2174 -0.0578
  451SOL     OW 1801   0.567   2.012   1.667  0.3504  0.4350  0.0768
  451SOL    HW1 1802   0.647   2.047   1.707  2.1303  0.2052 -1.0120
  451SOL    HW2 1803   0.566   2.040   1.573 -0.2822  1.1910  0.6683
  451SOL     MW 1804   0.578   2.020   1.660  0.5018  0.5044  0.0112
  452SOL     OW 1805   0.311   2.650   0.060  0.5676 -0.2487 -0.3846
  452SOL    HW1 1806   0.399   2.678   0.039  0.8858  1.4486 -0.6726
  452SOL    HW2 1807   0.259   2.732   0.043 -0.5393  0.8804  0.3495
  452SOL     MW 1808   0.316   2.664   0.055  0.4635  0.1242 -0.3258
  453SOL     OW 1809   0.323   3.046   1.593  0.2441  0.4230 -0.2494
  453SOL    HW1 1810   0.383   2.999   1.649 -0.6795 -2.3041 -2.2312
  453SOL    HW2 1811   0.370   3.066   1.501 -0.3536  1.3615 -1.3783
  453SOL     MW 1812   0.337   3.043   1.588  0.0434  0.1871 -0.6599
  454SOL     OW 1813   0.959   2.720   1.169  0.1030 -0.0893 -0.6293
  454SOL    HW1 1814   0.891   2.663   1.194  0.2574  3.1494  0.8362
  454SOL    HW2 1815   0.915   2.767   1.095 -2.9555  0.8141 -2.0967
  454SOL     MW 1816   0.944   2.719   1.163 -0.2802  0.4572 -0.6295
  455SOL     OW 1817   1.621   2.844   0.220  0.7016  0.3274  0.2843
  455SOL    HW1 1818   1.667   2.842   0.303  0.1969  1.3551 -2.0906
  455SOL    HW2 1819   1.600   2.751   0.209 -0.5273  1.1002 -1.2539
  455SOL     MW 1820   1.624   2.832   0.230  0.4728  0.5649 -0.2320
  456SOL     OW 1821   2.743   0.307   1.534  0.0552  0.2463 -0.1132
  456SOL    HW1 1822   2.743   0.233   1.468  0.4298 -2.2874  0.0555
  456SOL    HW2 1823   2.830   0.354   1.513 -0.7840  0.1003 -0.9069
  456SOL     MW 1824   2.754   0.303   1.523 -0.0061 -0.1073 -0.1956
  457SOL     OW 1825   0.831   1.581   3.030 -0.8323  0.2578 -0.5902
  457SOL    HW1 1826   0.739   1.564   3.063  0.1446 -0.3034  0.8435
  457SOL    HW2 1827   0.874   1.622   3.102 -0.0546 -2.6017 -1.7866
  457SOL     MW 1828   0.825   1.584   3.044 -0.6008 -0.1935 -0.5589
  458SOL     OW 1829   1.384   1.443   0.614 -0.1966  0.4442  0.6918
  458SOL    HW1 1830   1.320   1.507   0.578 -0.7970  0.6395 -1.2743
  458SOL    HW2 1831   1.346   1.356   0.592  0.7576 -2.1735  1.9802
  458SOL     MW 1832   1.371   1.440   0.606 -0.1499  0.1246  0.6024
  459SOL     OW 1833   1.534   0.028   0.206  0.2572 -0.1232  0.0693
  459SOL    HW1 1834   1.539  -0.066   0.213  0.2522 -0.7343  1.1481
  459SOL    HW2 1835   1.485   0.042   0.121  2.3634  1.2086 -2.2397
  459SOL     MW 1836   1.528   0.018   0.196  0.5344 -0.0281 -0.0930
  460SOL     OW 1837   1.752   2.143   0.641 -0.1081  0.0785 -0.1053
  460SOL    HW1 1838   1.664   2.132   0.678  1.5949 -2.8139  1.6945
  460SOL    HW2 1839   1.782   2.053   0.616 -0.0349 -0.8026  0.5249
  460SOL     MW 1840   1.744   2.129   0.642  0.1262 -0.4194  0.2153
  461SOL     OW 1841   0.448   2.391   0.576  0.3503 -0.1443  0.6605
  461SOL    HW1 1842   0.440   2.470   0.523 -2.0956  1.1418 -1.7847
  461SOL    HW2 1843   0.421   2.431   0.662 -0.6750 -0.8961 -0.6635
  461SOL     MW 1844   0.443   2.406   0.580 -0.1077 -0.0738  0.1632
  462SOL     OW 1845   0.331   0.254   1.231 -0.4237  0.0033 -0.2809
  462SOL    HW1 1846   0.391   0.238   1.152  1.0508  1.8276 -1.0367
  462SOL    HW2 1847   0.400   0.261   1.302  1.0920 -1.5737  2.5875
  462SOL     MW 1848   0.348   0.252   1.230 -0.0292  0.0359 -0.0022
  463SOL     OW 1849   0.992   0.083   0.668  0.2709 -0.1747 -0.2860
  463SOL    HW1 1850   1.067   0.087   0.612  0.3038  4.0715  0.3314
  463SOL    HW2 1851   0.912   0.103   0.612  0.7335 -1.4518  1.0630
  463SOL     MW 1852   0.991   0.086   0.654  0.3363  0.2170 -0.0266
  464SOL     OW 1853   0.770   3.027   2.204  0.1749 -0.3691  0.2398
  464SOL    HW1 1854   0.750   2.937   2.229 -1.4514 -0.9609 -0.9438
  464SOL    HW2 1855   0.787   3.074   2.285  0.7363  2.9805 -0.4542
  464SOL     MW 1856   0.770   3.021   2.218  0.0344 -0.0052 -0.0079
  465SOL     OW 1857   0.868   0.257   0.440  0.6083  0.0963 -0.0542
  465SOL    HW1 1858   0.804   0.235   0.512  2.3904 -1.3903  0.2057
  465SOL    HW2 1859   0.813   0.281   0.365  0.6099  0.4565 -2.8436
  465SOL     MW 1860   0.852   0.257   0.440  0.8437 -0.0523 -0.3879
  466SOL     OW 1861   0.976   2.027   0.799 -0.1278 -0.0736  0.3877
  466SOL    HW1 1862   0.976   1.943   0.755 -1.5204 -0.5232 -1.5881
  466SOL    HW2 1863   1.011   2.096   0.735  0.7869  0.4921 -0.5076
  466SOL     MW 1864   0.981   2.025   0.785 -0.1909 -0.0583  0.0089
  467SOL     OW 1865   1.260   2.332   0.967  0.4288  0.6647  0.7389
  467SOL    HW1 1866   1.357   2.342   0.960  1.0509  1.0579  1.0738
  467SOL    HW2 1867   1.234   2.241   0.934 -1.2295 -0.3002 -1.0175
  467SOL     MW 1868   1.270   2.322   0.962  0.2921  0.5893  0.5514
  468SOL     OW 1869   0.478   2.663   1.927  0.4571  0.0880 -0.3068
  468SOL    HW1 1870   0.462   2.580   1.880  0.3966 -0.3138  2.9817
  468SOL    HW2 1871   0.402   2.714   1.909  1.8998  1.9650 -2.5293
  468SOL     MW 1872   0.466   2.659   1.919  0.6395  0.2827 -0.1662
  469SOL     OW 1873   0.392   2.137   1.827 -0.0545  0.1900 -0.1132
  469SOL    HW1 1874   0.323   2.086   1.868 -0.0826 -0.2246 -0.6392
  469SOL    HW2 1875   0.455   2.072   1.781  1.3713 -1.9374 -1.0921
  469SOL     MW 1876   0.391   2.121   1.826  0.1299 -0.1454 -0.3117
  470SOL     OW 1877   3.047   2.576   0.153  0.5230 -0.2295 -0.2938
  470SOL    HW1 1878   2.969   2.593   0.218 -2.3747  0.5596 -1.5536
  470SOL    HW2 1879   3.016   2.594   0.061  0.3896 -0.6917 -1.7289
  470SOL     MW 1880   3.033   2.581   0.149  0.1231 -0.1864 -0.6494
  471SOL     OW 1881   1.165   2.634   1.402  0.4473 -0.5722 -0.3426
  471SOL    HW1 1882   1.141   2.590   1.485 -1.7594  0.9292 -1.2250
  471SOL    HW2 1883   1.089   2.612   1.345 -2.0496  0.9804  1.8472
  471SOL     MW 1884   1.152   2.625   1.406 -0.1733 -0.1693 -0.1701
  472SOL     OW 1885   2.817   2.103   0.356 -1.0564  0.0839  0.4082
  472SOL    HW1 1886   2.809   2.086   0.265  0.9424 -0.1758 -0.1431
  472SOL    HW2 1887   2.801   2.017   0.402  0.0231 -1.6762  3.8401
  472SOL     MW 1888   2.814   2.090   0.350 -0.6502 -0.1826  0.7882
  473SOL     OW 1889   0.776   2.564   1.320 -0.5786 -0.2777  0.2366
  473SOL    HW1 1890   0.725   2.485   1.332  2.6974 -1.3089 -2.1486
  473SOL    HW2 1891   0.800   2.587   1.410 -1.5233  0.1934 -0.5645
  473SOL     MW 1892   0.772   2.556   1.333 -0.2710 -0.3516 -0.1838
  474SOL     OW 1893   0.806   2.196   1.773 -1.3742  1.2975 -0.0124
  474SOL    HW1 1894   0.888   2.243   1.814  0.3584  2.5016 -3.6158
  474SOL    HW2 1895   0.820   2.196   1.675 -1.3627  0.1867 -0.6168
  474SOL     MW 1896   0.819   2.202   1.766 -1.1441  1.3098 -0.5676
  475SOL     OW 1897   1.636   3.028   1.474 -0.0253 -0.5623 -0.2661
  475SOL    HW1 1898   1.566   3.013   1.416  2.8645 -2.8635  1.4445
  475SOL    HW2 1899   1.617   2.970   1.549  0.6487 -0.3924  1.3420
  475SOL     MW 1900   1.624   3.018   1.476  0.4449 -0.8435  0.1718
  476SOL     OW 1901   1.384   2.614   1.047 -0.0684 -0.4781  0.2069
  476SOL    HW1 1902   1.318   2.671   1.092 -0.0746  1.9018  0.2892
  476SOL    HW2 1903   1.425   2.674   0.988 -0.6781  0.8666 -1.0426
  476SOL     MW 1904   1.381   2.629   1.045 -0.1496  0.0133  0.0529
  477SOL     OW 1905   0.815   2.506   0.672  0.2857  0.6643  0.3111
  477SOL    HW1 1906   0.875   2.552   0.608 -0.0511 -0.8276  0.5888
  477SOL    HW2 1907   0.794   2.434   0.613  0.7573 -1.7851  1.3230
  477SOL     MW 1908   0.820   2.502   0.656  0.3035  0.1443  0.4813
  478SOL     OW 1909   0.172   2.705   0.909 -0.2390 -0.1845  0.1896
  478SOL    HW1 1910   0.240   2.778   0.898  0.4909 -0.1827 -2.6100
  478SOL    HW2 1911   0.238   2.637   0.903  1.1301 -0.4148  1.7094
  478SOL     MW 1912   0.190   2.706   0.907  0.0379 -0.2146  0.0207
  479SOL     OW 1913   1.471   2.017   1.261  0.0033  0.3496  0.3499
  479SOL    HW1 1914   1.442   2.048   1.351 -2.2376  0.8562  1.2075
  479SOL    HW2 1915   1.519   1.939   1.274 -1.1515  0.2899 -1.9216
  479SOL     MW 1916   1.474   2.010   1.275 -0.4447  0.4085  0.1634
  480SOL     OW 1917   1.939   2.451   1.263 -0.5536  0.8032 -0.6725
  480SOL    HW1 1918   1.863   2.395   1.267  1.5946  0.8656  3.1600
  480SOL    HW2 1919   1.992   2.423   1.187  0.7515 -3.3809  0.4314
  480SOL     MW 1920   1.936   2.440   1.253 -0.0980  0.2594 -0.0212
  481SOL     OW 1921   1.050   3.099   1.073  0.2456  0.0916  0.3682
  481SOL    HW1 1922   1.096   3.041   1.012  0.1997  1.5509 -0.3068
  481SOL    HW2 1923   1.101   3.175   1.084 -1.7902  0.7563  1.7996
  481SOL     MW 1924   1.063   3.101   1.066 -0.0290  0.3718  0.4680
  482SOL     OW 1925   1.092   3.047   0.260  0.2177  0.3501 -0.1264
  482SOL    HW1 1926   1.019   2.991   0.284 -2.2130 -0.4372 -1.1880
  482SOL    HW2 1927   1.096   3.115   0.330 -3.3041 -2.0309  1.4106
  482SOL     MW 1928   1.083   3.049   0.273 -0.5677 -0.0679 -0.0637
  483SOL     OW 1929   0.406   2.956   0.439 -0.9477  0.1119  0.2928
  483SOL    HW1 1930   0.333   2.968   0.377 -0.2413 -1.6751 -1.4694
  483SOL    HW2 1931   0.377   3.010   0.515 -0.5646  1.4533 -0.2462
  483SOL     MW 1932   0.393   2.965   0.441 -0.8040  0.0531 -0.0108
  484SOL     OW 1933   1.833   1.905   1.487  0.4164 -0.1969  0.8757
  484SOL    HW1 1934   1.866   1.978   1.428  0.8149  0.3443 -2.2532
  484SOL    HW2 1935   1.818   1.950   1.571 -0.8582 -0.4664  0.2051
  484SOL     MW 1936   1.836   1.921   1.490  0.3008 -0.1611  0.3744
  485SOL     OW 1937   0.478   2.337   0.194  0.4828  0.6096 -0.3383
  485SOL    HW1 1938   0.532   2.335   0.267 -0.6780 -0.5027  0.8298
  485SOL    HW2 1939   0.413   2.411   0.215 -1.0057  1.4837 -1.4096
  485SOL     MW 1940   0.476   2.346   0.206  0.1333  0.5781 -0.3256
  486SOL     OW 1941   0.184   2.365   1.490  0.0355 -0.0113  0.4494
  486SOL    HW1 1942   0.221   2.448   1.462  0.6503 -2.1803  0.2682
  486SOL    HW2 1943   0.135   2.377   1.569 -1.5860 -0.2907 -0.4796
  486SOL     MW 1944   0.183   2.378   1.497 -0.0974 -0.3344  0.3029
  487SOL     OW 1945   1.209   1.665   1.022 -0.1091  0.1532  0.5763
  487SOL    HW1 1946   1.191   1.759   1.049 -0.3241  2.5806  0.3464
  487SOL    HW2 1947   1.303   1.682   1.004  1.0196 -0.3378 -1.1518
  487SOL     MW 1948   1.219   1.679   1.023  0.0115  0.4087  0.3180
  488SOL     OW 1949   1.647   1.866   0.512 -0.8379 -0.3700 -1.0299
  488SOL    HW1 1950   1.721   1.877   0.451 -2.0055 -0.4464  2.4875
  488SOL    HW2 1951   1.579   1.934   0.492 -1.2011  2.7314 -0.6765
  488SOL     MW 1952   1.648   1.876   0.501 -1.0398  0.0292 -0.5192
  489SOL     OW 1953   0.753   0.778   0.563 -0.0517  0.1301  0.1330
  489SOL    HW1 1954   0.781   0.688   0.535  1.1488 -0.6250 -0.9132
  489SOL    HW2 1955   0.744   0.768   0.659  4.6887  1.0572  3.0847
  489SOL     MW 1956   0.755   0.765   0.572  0.7322  0.1528  0.3844
  490SOL     OW 1957   1.453   2.071   0.478 -0.2255  0.1473  0.3044
  490SOL    HW1 1958   1.506   2.136   0.422  0.2040  1.3889 -4.4793
  490SOL    HW2 1959   1.359   2.076   0.462  1.5382  1.6846  0.9933
  490SOL     MW 1960   1.448   2.080   0.469  0.0638  0.5140 -0.2359
  491SOL     OW 1961   1.350   2.943   0.350 -0.2705  0.5976 -0.2122
  491SOL    HW1 1962   1.369   2.999   0.426 -1.1664  3.3094  0.2399
  491SOL    HW2 1963   1.252   2.945   0.339  0.9820  2.0454  2.9432
  491SOL     MW 1964   1.339   2.951   0.358 -0.2235  1.1464  0.2638
  492SOL     OW 1965   1.499   2.116   0.736 -0.2451  0.9084 -0.2088
  492SOL    HW1 1966   1.485   2.100   0.642 -0.1991 -0.0510  2.2209
  492SOL    HW2 1967   1.416   2.081   0.776 -1.6076  0.1116 -0.6287
  492SOL     MW 1968   1.486   2.109   0.729 -0.4188  0.6767  0.0563
  493SOL     OW 1969   0.195   2.994   0.273 -0.0835 -0.0639  0.2859
  493SOL    HW1 1970   0.167   3.058   0.339  0.2463  1.1909 -0.9693
  493SOL    HW2 1971   0.200   3.055   0.196 -1.0133  1.9433  0.6912
  493SOL     MW 1972   0.192   3.011   0.271 -0.1627  0.3665  0.1738
  494SOL     OW 1973   0.391   2.387   1.775  0.0625 -0.2550  0.2788
  494SOL    HW1 1974   0.389   2.290   1.778  1.0593  1.2107 -0.6417
  494SOL    HW2 1975   0.428   2.402   1.688 -4.0621 -3.0906  1.3123
  494SOL     MW 1976   0.396   2.376   1.764 -0.3502 -0.4357  0.2937
  495SOL     OW 1977   2.921   1.637   2.640  0.3381 -0.0222  0.3851
  495SOL    HW1 1978   2.912   1.721   2.595 -0.1049 -0.6754 -0.3713
  495SOL    HW2 1979   2.880   1.644   2.728 -0.3135  1.8120 -2.9830
  495SOL     MW 1980   2.914   1.649   2.646  0.1936  0.1336 -0.1591
  496SOL     OW 1981   2.941   2.342   2.679 -0.2703  0.3720 -0.4475
  496SOL    HW1 1982   2.981   2.277   2.730 -0.9044 -2.4104 -0.7401
  496SOL    HW2 1983   2.991   2.424   2.699 -0.7806  1.8642  2.7369
  496SOL     MW 1984   2.953   2.344   2.688 -0.4213  0.2017 -0.0659
  497SOL     OW 1985   1.538   2.285   2.658  0.7309 -0.3077  0.1920
  497SOL    HW1 1986   1.496   2.241   2.583  0.4489 -0.4477 -0.2708
  497SOL    HW2 1987   1.548   2.223   2.731  0.1050  0.7195  1.9885
  497SOL     MW 1988   1.534   2.271   2.658  0.6111 -0.1906  0.3680
  498SOL     OW 1989   1.487   2.737   2.325 -0.4178 -0.5265 -0.2754
  498SOL    HW1 1990   1.493   2.650   2.288 -0.2961  3.6765 -0.8929
  498SOL    HW2 1991   1.568   2.736   2.376  2.1718 -1.7747 -2.0668
  498SOL     MW 1992   1.498   2.725   2.327 -0.0601 -0.1367 -0.5933
  499SOL     OW 1993   0.938   0.122   0.079  0.3886  0.7932 -0.3827
  499SOL    HW1 1994   0.865   0.160   0.124  3.4774 -2.2851 -2.3549
  499SOL    HW2 1995   0.985   0.058   0.127 -1.3867  2.8964  0.5563
  499SOL     MW 1996   0.935   0.119   0.091  0.5619  0.6645 -0.5191
  500SOL     OW 1997   1.083   2.563   2.814  0.2433 -0.2650 -0.0024
  500SOL    HW1 1998   1.088   2.510   2.894 -1.7397  1.1103 -1.3923
  500SOL    HW2 1999   1.000   2.608   2.809  0.3917  1.5310  1.2095
  500SOL     MW 2000   1.072   2.562   2.823  0.0013  0.1534 -0.0259
  501SOL     OW 2001   1.774   2.199   3.069 -0.4314 -0.8345 -1.0434
  501SOL    HW1 2002   1.719   2.271   3.033  1.5416 -1.9249  3.5879
  501SOL    HW2 2003   1.865   2.235   3.062 -0.2483 -1.8975 -0.6373
  501SOL     MW 2004   1.779   2.213   3.063 -0.1469 -1.1186 -0.3787
  502SOL     OW 2005   0.150   2.826   3.016  0.0050 -0.3043  0.2809
  502SOL    HW1 2006   0.094   2.748   2.994  0.2849 -0.4095  0.5912
  502SOL    HW2 2007   0.213   2.844   2.943  3.3747  0.3721  1.4740
  502SOL     MW 2008   0.151   2.818   3.004  0.4865 -0.2289  0.4792
  503SOL     OW 2009   1.133   2.767   2.135  0.2117  0.4703 -0.1003
  503SOL    HW1 2010   1.107   2.715   2.065 -0.6362 -0.3989  1.7983
  503SOL    HW2 2011   1.083   2.847   2.121 -3.9566 -2.0096 -0.6128
  503SOL     MW 2012   1.123   2.771   2.124 -0.4501  0.0284  0.0826
  504SOL     OW 2013   0.101   2.702   2.129  0.3025 -0.2923  0.3078
  504SOL    HW1 2014   0.138   2.617   2.102 -0.6826 -0.3467  0.4562
  504SOL    HW2 2015   0.013   2.683   2.147  2.0084 -1.3570 -1.1833
  504SOL     MW 2016   0.094   2.688   2.128  0.3976 -0.4399  0.1307
  505SOL     OW 2017   1.710   2.711   2.801 -0.2057 -0.3883 -0.5668
  505SOL    HW1 2018   1.692   2.743   2.713 -0.6933 -0.3064 -2.5146
  505SOL    HW2 2019   1.632   2.751   2.845 -1.3964 -1.8691  2.2133
  505SOL     MW 2020   1.698   2.721   2.795 -0.4272 -0.5729 -0.4570
  506SOL     OW 2021   1.571   3.087   2.844  0.5748 -0.3356 -0.0735
  506SOL    HW1 2022   1.591   3.067   2.936 -1.0193  1.0380  0.3155
  506SOL    HW2 2023   1.637   3.042   2.789 -1.9226 -0.8165 -1.4650
  506SOL     MW 2024   1.582   3.078   2.849  0.0350 -0.2178 -0.2058
  507SOL     OW 2025   0.899   2.764   2.867 -0.9623  0.4814  0.0127
  507SOL    HW1 2026   0.958   2.821   2.822  4.3041  0.4059 -1.9305
  507SOL    HW2 2027   0.804   2.791   2.857 -2.2411 -0.2330  0.2914
  507SOL     MW 2028   0.894   2.775   2.860 -0.4362  0.3772 -0.2069
  508SOL     OW 2029   1.151   2.097   2.519 -0.1732 -0.2706  0.3064
  508SOL    HW1 2030   1.218   2.064   2.580  0.4333 -0.2556 -0.9054
  508SOL    HW2 2031   1.121   2.176   2.556  1.4811  3.5277  0.0895
  508SOL     MW 2032   1.156   2.103   2.532  0.1251  0.2325  0.1179
  509SOL     OW 2033   0.690   2.578   2.738 -0.3728  0.2963  0.3355
  509SOL    HW1 2034   0.644   2.549   2.663  1.3484  2.2174  2.9100
  509SOL    HW2 2035   0.631   2.565   2.810 -2.0890 -1.2422  0.0612
  509SOL     MW 2036   0.677   2.573   2.737 -0.3721  0.3468  0.6390
  510SOL     OW 2037   1.510   2.552   1.687  0.5659  0.7543 -0.0148
  510SOL    HW1 2038   1.535   2.636   1.663  0.0325  0.2854  0.9730
  510SOL    HW2 2039   1.450   2.546   1.766  0.8423 -2.6808  2.2333
  510SOL     MW 2040   1.505   2.562   1.694  0.5320  0.2392  0.4121
  511SOL     OW 2041   0.409   2.653   2.443  0.5530 -0.2875  0.2652
  511SOL    HW1 2042   0.464   2.582   2.443 -2.1891 -0.0082  1.5323
  511SOL    HW2 2043   0.396   2.687   2.354 -1.4506 -0.1183 -3.4307
  511SOL     MW 2044   0.414   2.648   2.431 -0.0731 -0.2283 -0.0553
  512SOL     OW 2045   1.050   2.024   2.818  0.6424 -0.3356 -0.1301
  512SOL    HW1 2046   0.958   2.040   2.848  1.1304 -1.0821 -0.0743
  512SOL    HW2 2047   1.078   1.937   2.850  1.5925 -0.8363 -0.8346
  512SOL     MW 2048   1.042   2.015   2.826  0.8321 -0.5002 -0.2157
  513SOL     OW 2049   1.525   2.428   2.285  0.1573 -0.1160 -0.1547
  513SOL    HW1 2050   1.585   2.413   2.215 -1.5483  2.1147 -0.2840
  513SOL    HW2 2051   1.561   2.446   2.372  0.0038  1.2521 -1.2450
  513SOL     MW 2052   1.538   2.428   2.288 -0.0880  0.3588 -0.3156
  514SOL     OW 2053   0.286   2.494   2.615 -0.4846  0.0233 -0.2158
  514SOL    HW1 2054   0.300   2.558   2.542  0.5849  1.8802 -0.9429
  514SOL    HW2 2055   0.360   2.511   2.674  1.2585  1.7607 -0.5130
  514SOL     MW 2056   0.298   2.505   2.613 -0.1135  0.4976 -0.3509
  515SOL     OW 2057   1.154   2.079   1.888 -0.1244  1.0820 -0.9665
  515SOL    HW1 2058   1.142   2.172   1.873  0.3581  0.5676 -0.3295
  515SOL    HW2 2059   1.244   2.068   1.918  0.2761  0.2616 -1.4163
  515SOL     MW 2060   1.165   2.090   1.890 -0.0079  0.9059 -0.9418
  516SOL     OW 2061   1.458   2.481   3.081  0.3935 -0.6440 -0.1075
  516SOL    HW1 2062   1.510   2.470   3.006  0.9304 -0.9675  0.9184
  516SOL    HW2 2063   1.361   2.491   3.061 -0.3068 -0.4430  0.2127
  516SOL     MW 2064   1.452   2.481   3.068  0.3719 -0.6602  0.0701
  517SOL     OW 2065   0.596   2.477   2.141  0.3020  0.3391  0.1680
  517SOL    HW1 2066   0.568   2.543   2.075 -1.6379  0.4862  1.0080
  517SOL    HW2 2067   0.529   2.398   2.130 -0.4782 -1.6043  0.5891
  517SOL     MW 2068   0.583   2.475   2.131 -0.0569  0.1021  0.3344
  518SOL     OW 2069   1.837   0.224   3.053  0.5127 -0.3143 -0.3887
  518SOL    HW1 2070   1.788   0.271   2.983 -0.2775  1.0576 -1.2723
  518SOL    HW2 2071   1.769   0.187   3.107 -0.7731 -1.1973 -1.1510
  518SOL     MW 2072   1.821   0.225   3.051  0.2388 -0.2498 -0.6058
  519SOL     OW 2073   0.710   2.434   1.724  0.0705  0.3965 -0.3662
  519SOL    HW1 2074   0.747   2.343   1.752 -0.1766  1.2441 -0.3441
  519SOL    HW2 2075   0.653   2.437   1.649  0.4491  1.9070  2.3643
  519SOL     MW 2076   0.707   2.423   1.718  0.0878  0.7076 -0.0030
  520SOL     OW 2077   1.276   2.133   2.934 -0.0057 -0.9821 -0.7075
  520SOL    HW1 2078   1.179   2.119   2.905 -0.0212  1.3294 -0.6138
  520SOL    HW2 2079   1.295   2.071   3.005 -0.8182  0.7944 -1.9735
  520SOL     MW 2080   1.266   2.123   2.940 -0.1149 -0.4427 -0.8622
  521SOL     OW 2081   1.703   2.063   2.233  0.0069 -0.0734  1.1705
  521SOL    HW1 2082   1.722   2.091   2.143 -0.8901 -1.9177 -0.2173
  521SOL    HW2 2083   1.706   1.967   2.223 -0.4089  1.1008  0.2846
  521SOL     MW 2084   1.706   2.054   2.220 -0.1663 -0.1618  0.8705
  522SOL     OW 2085   2.836   2.563   2.195 -0.1176 -0.4140 -1.0416
  522SOL    HW1 2086   2.901   2.509   2.236 -0.4309  0.5722  0.3759
  522SOL    HW2 2087   2.779   2.582   2.266  2.2801  1.1681 -2.3062
  522SOL     MW 2088   2.837   2.558   2.210  0.1575 -0.0751 -1.0215
  523SOL     OW 2089   0.858   1.496   2.156 -0.2281  0.3430  0.1400
  523SOL    HW1 2090   0.843   1.565   2.091 -2.4223 -0.0095  1.0120
  523SOL    HW2 2091   0.925   1.444   2.113  0.4956 -0.4793 -1.4208
  523SOL     MW 2092   0.865   1.498   2.142 -0.4221  0.1880  0.0492
  524SOL     OW 2093   0.720   2.388   2.919  0.6107  0.0769 -0.1239
  524SOL    HW1 2094   0.747   2.445   2.845  2.9924  1.9461 -0.5607
  524SOL    HW2 2095   0.742   2.299   2.892  0.9887 -1.7162  0.5674
  524SOL     MW 2096   0.727   2.384   2.906  0.9748  0.0870 -0.0903
  525SOL     OW 2097   0.401   2.285   2.073  0.4899 -0.4204 -0.0363
  525SOL    HW1 2098   0.360   2.214   2.130  2.1520 -2.1947 -0.2419
  525SOL    HW2 2099   0.431   2.240   1.997 -0.7446  0.2959 -0.3282
  525SOL     MW 2100   0.400   2.270   2.070  0.5463 -0.5600 -0.1019
  526SOL     OW 2101   0.655   2.099   2.034  0.0041 -0.1589  0.2298
  526SOL    HW1 2102   0.697   2.154   1.965 -0.4082  3.8972 -0.0057
  526SOL    HW2 2103   0.632   2.158   2.100 -0.3082 -1.0814 -1.4936
  526SOL     MW 2104   0.658   2.114   2.033 -0.0915  0.2545 -0.0286
  527SOL     OW 2105   1.371   2.014   2.015  0.0149 -0.1145 -0.0237
  527SOL    HW1 2106   1.354   1.997   2.109 -2.7174 -0.5080  1.5560
  527SOL    HW2 2107   1.394   1.928   1.981 -4.5350  0.4968 -0.0278
  527SOL     MW 2108   1.372   2.001   2.023 -0.9459 -0.0858  0.1842
  528SOL     OW 2109   0.622   2.890   2.930 -0.1141 -0.6625  0.5770
  528SOL    HW1 2110   0.648   2.973   2.955  1.7568 -2.8559 -1.2202
  528SOL    HW2 2111   0.575   2.896   2.846 -0.0414 -1.2475  0.3071
  528SOL     MW 2112   0.620   2.901   2.922  0.1423 -1.0291  0.3042
  529SOL     OW 2113   1.013   2.332   1.866 -0.3235  0.1970  0.3174
  529SOL    HW1 2114   1.029   2.327   1.966 -0.9403  0.5321  2.7125
  529SOL    HW2 2115   1.024   2.420   1.853 -1.2519 -1.5256 -0.7944
  529SOL     MW 2116   1.016   2.343   1.878 -0.5273  0.0139  0.4868
  530SOL     OW 2117   1.207   2.399   3.019 -0.0931  0.7729  0.4735
  530SOL    HW1 2118   1.172   2.385   3.112  0.0145  2.4516  2.8225
  530SOL    HW2 2119   1.222   2.308   2.992  0.5572  0.2407  0.7768
  530SOL     MW 2120   1.204   2.385   3.028  0.0069  0.9242  0.8234
  531SOL     OW 2121   0.940   1.892   2.574  0.4868  0.1914 -0.0603
  531SOL    HW1 2122   0.986   1.964   2.621 -2.4425 -2.2194 -0.9926
  531SOL    HW2 2123   0.913   1.830   2.650  0.9715 -0.5486 -0.1527
  531SOL     MW 2124   0.943   1.894   2.591  0.1643 -0.2243 -0.1955
  532SOL     OW 2125   1.743   0.308   2.792 -0.2621  0.5776 -0.3681
  532SOL    HW1 2126   1.743   0.213   2.784 -0.0637  0.9906  1.0301
  532SOL    HW2 2127   1.830   0.339   2.777  1.3386 -2.5958 -0.0032
  532SOL     MW 2128   1.754   0.299   2.789 -0.0247  0.2134 -0.1355
  533SOL     OW 2129   1.880   2.625   3.072 -0.1268 -0.3457  0.0042
  533SOL    HW1 2130   1.848   2.561   3.145  0.7236 -0.6797 -2.0397
  533SOL    HW2 2131   1.814   2.616   2.999 -1.7170  0.9997 -0.1887
  533SOL     MW 2132   1.867   2.616   3.072 -0.2244 -0.2122 -0.2909
  534SOL     OW 2133   1.772   2.434   2.514  0.3156  0.0848 -0.2213
  534SOL    HW1 2134   1.719   2.365   2.557 -1.1369  0.6174  0.9438
  534SOL    HW2 2135   1.859   2.437   2.561  0.5009  0.2024 -2.1641
  534SOL     MW 2136   1.776   2.425   2.526  0.1484  0.1706 -0.3239
  535SOL     OW 2137   1.931   2.361   1.894 -0.4201  0.5639  0.0606
  535SOL    HW1 2138   1.877   2.365   1.813 -0.0434  0.9524 -2.7795
  535SOL    HW2 2139   2.010   2.408   1.861  2.4881 -1.0114  1.4778
  535SOL     MW 2140   1.934   2.368   1.879  0.0133  0.4073 -0.1271
  536SOL     OW 2141   0.459   1.834   2.080  0.4113  0.1378 -0.1413
  536SOL    HW1 2142   0.431   1.777   2.007 -2.0794 -0.4673 -0.2193
  536SOL    HW2 2143   0.476   1.919   2.037 -0.6067  0.4868 -1.5237
  536SOL     MW 2144   0.458   1.837   2.065 -0.0516  0.1040 -0.3340
  537SOL     OW 2145   1.099   0.211   2.855 -0.1326 -0.0277  0.0138
  537SOL    HW1 2146   1.017   0.242   2.885  0.5673  1.4351  0.9487
  537SOL    HW2 2147   1.107   0.259   2.772 -1.6027 -0.5856  0.1612
  537SOL     MW 2148   1.089   0.221   2.848 -0.2342  0.0917  0.1566
  538SOL     OW 2149   1.378   0.043   3.071  0.2476  0.2218 -0.2637
  538SOL    HW1 2150   1.350   0.132   3.075  1.6665 -2.2148  0.1598
  538SOL    HW2 2151   1.345   0.009   2.985 -0.7225  0.5248 -0.5381
  538SOL     MW 2152   1.370   0.050   3.060  0.3068 -0.0597 -0.2441
  539SOL     OW 2153   0.772   2.767   2.559 -0.0361 -0.0444  0.6538
  539SOL    HW1 2154   0.845   2.827   2.564 -1.2122  0.1412 -2.4437
  539SOL    HW2 2155   0.771   2.706   2.634  1.0548 -0.5329 -1.5866
  539SOL     MW 2156   0.781   2.767   2.569 -0.0473 -0.0844 -0.0505
  540SOL     OW 2157   0.388   2.516   2.910 -0.2080  0.4261  0.2450
  540SOL    HW1 2158   0.357   2.565   2.986 -2.3626 -0.0947  0.1307
  540SOL    HW2 2159   0.354   2.433   2.926 -0.1687  1.4750 -0.6194
  540SOL     MW 2160   0.379   2.512   2.922 -0.4871  0.4958  0.1158
  541SOL     OW 2161   0.199   2.946   2.214 -0.0318  0.2800 -0.0410
  541SOL    HW1 2162   0.172   2.861   2.178  2.1578  2.1157  1.3378
  541SOL    HW2 2163   0.235   2.918   2.299 -2.8101 -0.4741 -2.7013
  541SOL     MW 2164   0.200   2.931   2.220 -0.1095  0.4227 -0.2101
  542SOL     OW 2165   1.073   2.320   2.676  0.1536  0.0756  0.5245
  542SOL    HW1 2166   1.086   2.253   2.742  1.1880 -0.0816 -0.0573
  542SOL    HW2 2167   1.095   2.403   2.720  0.2250 -1.4109 -1.3568
  542SOL     MW 2168   1.078   2.322   2.691  0.2995 -0.1413  0.1995
  543SOL     OW 2169   1.667   2.457   2.846  0.3059  0.2063 -0.6112
  543SOL    HW1 2170   1.628   2.434   2.764  0.0025 -1.6332  0.9746
  543SOL    HW2 2171   1.701   2.545   2.819  0.4752  1.7605 -0.0083
  543SOL     MW 2172   1.666   2.466   2.832  0.2882  0.1687 -0.3224
  544SOL     OW 2173   0.706   0.222   2.720  0.1476 -0.6730 -0.3708
  544SOL    HW1 2174   0.612   0.238   2.726  0.9428 -0.1560  1.7036
  544SOL    HW2 2175   0.701   0.173   2.639 -0.0535 -0.7669 -1.2558
  544SOL     MW 2176   0.693   0.218   2.710  0.2260 -0.6172 -0.2139
  545SOL     OW 2177   1.503   2.180   2.378 -0.6675 -0.1548  0.6188
  545SOL    HW1 2178   1.498   2.272   2.352  0.3359  1.2919 -1.8626
  545SOL    HW2 2179   1.591   2.156   2.328  0.8428  1.6084  0.8215
  545SOL     MW 2180   1.514   2.189   2.368 -0.3358  0.2687  0.3182
  546SOL     OW 2181   2.913   2.016   0.097 -0.7524 -0.1477 -0.5990
  546SOL    HW1 2182   2.894   2.082   0.033 -0.0361 -1.4413  0.6715
  546SOL    HW2 2183   2.996   1.973   0.069 -0.3372  0.4222 -0.3164
  546SOL     MW 2184   2.921   2.019   0.085 -0.6031 -0.2432 -0.3941
  547SOL     OW 2185   0.165   0.098   0.067 -0.3858 -0.1026  0.5719
  547SOL    HW1 2186   0.212   0.139   0.003 -0.7764  1.4935  3.2633
  547SOL    HW2 2187   0.101   0.043   0.019  1.7506  0.5662 -0.9304
  547SOL     MW 2188   0.163   0.096   0.052 -0.1554  0.1962  0.7288
  548SOL     OW 2189   0.310   2.518   0.299  0.1757 -0.6993  0.2183
  548SOL    HW1 2190   0.312   2.576   0.212 -3.4285  0.2148 -1.2323
  548SOL    HW2 2191   0.239   2.456   0.284 -1.6932  1.0806 -1.1073
  548SOL     MW 2192   0.301   2.517   0.286 -0.5464 -0.3438 -0.1480
  549SOL     OW 2193   0.804   1.882   2.176  0.3465 -0.1293  0.5814
  549SOL    HW1 2194   0.767   1.968   2.144 -0.9194  2.0199  2.1328
  549SOL    HW2 2195   0.771   1.868   2.267  2.7929 -1.1477  2.5352
  549SOL     MW 2196   0.795   1.891   2.184  0.5023  0.0199  1.0439
  550SOL     OW 2197   1.806   1.723   2.528 -0.0065 -0.5940  0.0002
  550SOL    HW1 2198   1.796   1.739   2.435  1.3899 -1.5763 -0.5293
  550SOL    HW2 2199   1.787   1.807   2.574  0.1986 -0.2168  1.8565
  550SOL     MW 2200   1.802   1.736   2.522  0.2048 -0.6738  0.1752
  551SOL     OW 2201   0.920   2.320   0.211  0.0154  0.6090 -0.3716
  551SOL    HW1 2202   1.014   2.332   0.192 -1.8334  0.5897 -0.8820
  551SOL    HW2 2203   0.896   2.253   0.149  1.0378 -0.2003  3.8390
  551SOL     MW 2204   0.929   2.313   0.200 -0.0936  0.4997  0.1166
  552SOL     OW 2205   1.765   1.763   2.262  0.1658  0.6411 -0.1813
  552SOL    HW1 2206   1.677   1.733   2.228 -2.2374  1.8463 -2.2332
  552SOL    HW2 2207   1.816   1.742   2.187  0.2096 -2.8519  1.5277
  552SOL     MW 2208   1.761   1.757   2.247 -0.1455  0.3393 -0.2266
  553SOL     OW 2209   1.275   2.277   1.554 -0.0860  0.0936 -0.6643
  553SOL    HW1 2210   1.329   2.202   1.540  0.6182  0.3976  1.2824
  553SOL    HW2 2211   1.328   2.338   1.511 -0.2531 -2.2631 -0.6618
  553SOL     MW 2212   1.289   2.275   1.546 -0.0152 -0.1773 -0.4071
  554SOL     OW 2213   0.532   2.953   2.642 -0.1226  0.0233 -0.2728
  554SOL    HW1 2214   0.529   3.026   2.583 -1.6844 -0.9803  2.0945
  554SOL    HW2 2215   0.614   2.908   2.618  1.8097 -1.1019  2.3826
  554SOL     MW 2216   0.542   2.957   2.631 -0.0737 -0.2576  0.3899
  555SOL     OW 2217   0.627   2.436   2.502 -0.1564 -0.2372  0.0131
  555SOL    HW1 2218   0.581   2.359   2.534  0.4703 -0.1672  0.8575
  555SOL    HW2 2219   0.726   2.417   2.510  3.6998  1.4066  0.9949
  555SOL     MW 2220   0.634   2.423   2.507  0.4351 -0.0111  0.2540
  556SOL     OW 2221   0.992   1.885   0.094  0.6409  0.1317  0.0795
  556SOL    HW1 2222   1.010   1.878  -0.002 -0.8697  1.0928 -1.1046
  556SOL    HW2 2223   1.075   1.873   0.134 -2.2303  1.9722 -0.1465
  556SOL     MW 2224   1.005   1.882   0.086  0.0628  0.5013 -0.1066
  557SOL     OW 2225   0.964   2.628   0.501 -0.6781 -0.6814  0.3680
  557SOL    HW1 2226   1.018   2.567   0.443 -0.1349  1.1428  2.6640
  557SOL    HW2 2227   0.933   2.696   0.441  3.3335  0.2964  2.9418
  557SOL     MW 2228   0.967   2.629   0.485 -0.0771 -0.3117  1.0105
  558SOL     OW 2229   0.206   2.308   2.998 -0.3569 -0.2390 -0.2673
  558SOL    HW1 2230   0.134   2.309   2.934  1.5964 -0.9851 -2.2783
  558SOL    HW2 2231   0.174   2.350   3.074  0.6425  2.3197  0.1174
  558SOL     MW 2232   0.192   2.313   3.000  0.0327  0.0001 -0.4819
  559SOL     OW 2233   1.079   2.334   2.127  0.0004  0.1485 -0.0120
  559SOL    HW1 2234   1.165   2.359   2.157  0.1213 -2.3205 -0.1311
  559SOL    HW2 2235   1.075   2.245   2.163 -2.8862  0.9975  2.0754
  559SOL     MW 2236   1.090   2.325   2.135 -0.3645 -0.0653  0.2477
  560SOL     OW 2237   1.952   2.896   0.057 -0.2956  0.4026  0.6150
  560SOL    HW1 2238   2.027   2.927   0.008 -0.3836 -0.2303  1.4652
  560SOL    HW2 2239   1.923   2.816   0.014 -0.8095 -0.3843  0.1273
  560SOL     MW 2240   1.958   2.890   0.045 -0.3750  0.2153  0.6628
  561SOL     OW 2241   0.325   2.132   0.079  0.0815 -0.0969  0.5348
  561SOL    HW1 2242   0.295   2.181   0.002  0.6744  0.2393  0.2356
  561SOL    HW2 2243   0.393   2.201   0.104 -0.6821  2.2873 -2.2529
  561SOL     MW 2244   0.330   2.148   0.072  0.0590  0.2620  0.1275
  562SOL     OW 2245   0.697   2.231   2.295 -0.2278 -0.0416 -0.6391
  562SOL    HW1 2246   0.672   2.314   2.329  1.6562 -1.4178  2.4728
  562SOL    HW2 2247   0.788   2.206   2.325  0.7354 -2.0078  2.1009
  562SOL     MW 2248   0.706   2.238   2.304  0.1478 -0.4826  0.1330
  563SOL     OW 2249   1.245   0.412   0.571 -0.0555  0.5809 -0.3324
  563SOL    HW1 2250   1.195   0.353   0.516 -0.2375 -0.2276  0.7704
  563SOL    HW2 2251   1.223   0.377   0.655 -0.3252  0.2175 -2.2448
  563SOL     MW 2252   1.236   0.399   0.575 -0.1151  0.4263 -0.4392
  564SOL     OW 2253   1.156   2.621   2.370 -0.1693  0.4389 -0.0572
  564SOL    HW1 2254   1.144   2.662   2.286  0.0232 -1.7828  3.4989
  564SOL    HW2 2255   1.166   2.684   2.438 -1.0047  0.3663  2.5132
  564SOL     MW 2256   1.156   2.634   2.368 -0.2541  0.1362  0.7511
  565SOL     OW 2257   2.738   2.743   2.617 -0.3750 -0.0593 -0.4134
  565SOL    HW1 2258   2.769   2.816   2.567  0.0277 -0.5184 -0.2157
  565SOL    HW2 2259   2.689   2.690   2.558  0.0486  0.3632  1.2389
  565SOL     MW 2260   2.736   2.746   2.602 -0.2660 -0.0641 -0.1693
  566SOL     OW 2261   2.123   1.853   2.433 -0.1535  0.2249 -0.1324
  566SOL    HW1 2262   2.142   1.824   2.344 -0.5943 -0.2309 -0.3595
  566SOL    HW2 2263   2.172   1.939   2.442 -1.4356  3.2792  1.5551
  566SOL     MW 2264   2.132   1.860   2.422 -0.3808  0.5677  0.0603
  567SOL     OW 2265   1.133   2.984   3.047  0.3048  0.3888 -0.5730
  567SOL    HW1 2266   1.180   3.022   3.118 -0.7738  1.9065  0.4225
  567SOL    HW2 2267   1.177   2.903   3.023 -1.0499  0.9295  0.1280
  567SOL     MW 2268   1.145   2.978   3.053 -0.0162  0.6604 -0.3492
  568SOL     OW 2269   1.621   2.073   2.896  0.0195 -0.2026  0.3693
  568SOL    HW1 2270   1.685   2.114   2.953  3.7509 -1.1481 -0.3429
  568SOL    HW2 2271   1.675   2.033   2.825  0.1608 -0.7424 -2.5833
  568SOL     MW 2272   1.636   2.073   2.894  0.5304 -0.3986 -0.1142
  569SOL     OW 2273   0.173   2.279   2.511  0.1467  0.8451 -0.0975
  569SOL    HW1 2274   0.103   2.315   2.456 -0.3652  1.6417  1.4454
  569SOL    HW2 2275   0.202   2.361   2.557  0.8999  1.5643 -0.8715
  569SOL     MW 2276   0.168   2.294   2.510  0.1786  1.0451  0.0040
  570SOL     OW 2277   1.502   0.345   0.540  0.3020  0.3203  0.0754
  570SOL    HW1 2278   1.416   0.388   0.562 -1.5314  3.0144 -0.7561
  570SOL    HW2 2279   1.549   0.345   0.625  1.4530 -1.5943 -0.6001
  570SOL     MW 2280   1.497   0.351   0.554  0.2120  0.4231 -0.1234
  571SOL     OW 2281   1.337   2.379   2.094 -0.2026 -0.3491  0.5341
  571SOL    HW1 2282   1.390   2.414   2.168  2.0811  1.1324 -0.9426
  571SOL    HW2 2283   1.381   2.305   2.047 -0.4703 -2.5137 -1.0200
  571SOL     MW 2284   1.350   2.374   2.098  0.0634 -0.4392  0.1342
  572SOL     OW 2285   1.029   2.581   0.090 -1.0364 -0.8712  0.1665
  572SOL    HW1 2286   1.007   2.675   0.068 -0.7052 -0.1228 -1.2338
  572SOL    HW2 2287   0.943   2.544   0.090  1.8444  1.6431 -1.6165
  572SOL     MW 2288   1.015   2.589   0.087 -0.6126 -0.4407 -0.2535
  573SOL     OW 2289   1.205   2.308   0.197 -0.1888  0.2212 -0.3202
  573SOL    HW1 2290   1.298   2.288   0.201  0.2967  1.6850  0.3439
  573SOL    HW2 2291   1.217   2.401   0.220 -2.3023 -2.5898  1.1899
  573SOL     MW 2292   1.219   2.318   0.201 -0.4036  0.0434 -0.0333
  574SOL     OW 2293   1.170   2.554   0.323 -0.1617 -0.0407 -0.6557
  574SOL    HW1 2294   1.252   2.612   0.351  0.1009  0.5828 -1.5773
  574SOL    HW2 2295   1.134   2.593   0.243  0.1615  1.5263  0.3553
  574SOL     MW 2296   1.176   2.567   0.316 -0.0844  0.2483 -0.6439
  575SOL     OW 2297   3.040   2.221   1.749  0.1822 -0.1511 -0.2774
  575SOL    HW1 2298   3.085   2.137   1.725 -1.4408 -2.5389  0.0324
  575SOL    HW2 2299   3.112   2.280   1.753 -2.3776 -0.5978 -2.4371
  575SOL     MW 2300   3.055   2.218   1.746 -0.3697 -0.5251 -0.5215
  576SOL     OW 2301   2.829   1.822   2.019  0.0794 -0.1312 -0.0335
  576SOL    HW1 2302   2.839   1.900   1.964  2.9672  1.0412 -0.5965
  576SOL    HW2 2303   2.735   1.821   2.019  3.4256  0.2850 -0.8619
  576SOL     MW 2304   2.818   1.832   2.012  0.9019  0.0784 -0.2171
  577SOL     OW 2305   2.075   0.234   0.108  0.3901  0.2456  0.0230
  577SOL    HW1 2306   1.989   0.238   0.063  0.6352 -1.7921  1.4513
  577SOL    HW2 2307   2.067   0.192   0.197 -0.5179 -2.6989 -0.5900
  577SOL     MW 2308   2.063   0.229   0.114  0.3027 -0.4118  0.1306
  578SOL     OW 2309   1.928   2.043   2.408 -0.2575 -0.5412  0.0510
  578SOL    HW1 2310   1.847   2.040   2.354  1.5629 -0.4787  2.6728
  578SOL    HW2 2311   1.966   1.956   2.416 -1.3169  0.7961  0.2631
  578SOL     MW 2312   1.923   2.031   2.402 -0.1571 -0.3565  0.4249
  579SOL     OW 2313   0.936   2.429   2.457 -0.5590 -0.0024  0.0360
  579SOL    HW1 2314   1.000   2.401   2.528  1.8778 -1.2269  1.0542
  579SOL    HW2 2315   0.985   2.488   2.412 -1.1980 -3.1413  0.7592
  579SOL     MW 2316   0.951   2.433   2.460 -0.3218 -0.5781  0.2657
  580SOL     OW 2317   0.927   2.837   0.031  0.8866  0.5171 -0.0828
  580SOL    HW1 2318   0.996   2.898   0.010  0.8561 -0.4568 -1.9010
  580SOL    HW2 2319   0.894   2.811  -0.055 -1.9640 -1.0277  0.5036
  580SOL     MW 2320   0.932   2.842   0.017  0.5065  0.1848 -0.2453
  581SOL     OW 2321   1.149   2.497   1.677  0.1726  0.2235 -0.0592
  581SOL    HW1 2322   1.201   2.525   1.748 -0.9693 -3.9988 -0.2397
  581SOL    HW2 2323   1.173   2.401   1.675 -2.4054 -2.8204  1.1612
  581SOL     MW 2324   1.159   2.488   1.686 -0.3182 -0.7352  0.0780
  582SOL     OW 2325   0.029   2.813   2.715 -0.0098  0.5969  0.5063
  582SOL    HW1 2326  -0.018   2.903   2.710  1.4164  1.3595  0.8813
  582SOL    HW2 2327   0.117   2.834   2.745  0.1970 -2.7232  1.7009
  582SOL     MW 2328   0.035   2.827   2.718  0.2057  0.2594  0.7134
  583SOL     OW 2329   1.996   2.437   2.685  0.3283 -0.3119  0.3710
  583SOL    HW1 2330   2.071   2.439   2.626 -1.6999  0.1633  0.1648
  583SOL    HW2 2331   1.977   2.348   2.685  0.1988  3.3027  1.4098
  583SOL     MW 2332   2.003   2.425   2.678  0.0436  0.2277  0.4808
  584SOL     OW 2333   0.057   1.899   2.219 -0.2463  0.1082  0.2526
  584SOL    HW1 2334   0.113   1.860   2.286 -1.0004 -2.7545  2.7712
  584SOL    HW2 2335   0.081   1.992   2.219 -0.9468 -0.5783 -0.7780
  584SOL     MW 2336   0.067   1.906   2.228 -0.4382 -0.3601  0.4489
  585SOL     OW 2337   1.565   2.584   0.195  0.4880  0.3949 -0.9815
  585SOL    HW1 2338   1.522   2.543   0.115 -2.4289 -2.6036 -1.6751
  585SOL    HW2 2339   1.489   2.603   0.251 -2.0173  0.4961  0.6221
  585SOL     MW 2340   1.550   2.581   0.192 -0.2274  0.0126 -0.8614
  586SOL     OW 2341   1.417   2.817   2.590 -0.3880 -0.1873  0.0382
  586SOL    HW1 2342   1.448   2.790   2.505  1.3758 -0.7614 -0.7680
  586SOL    HW2 2343   1.369   2.896   2.576 -2.7922  0.5656 -2.2369
  586SOL     MW 2344   1.415   2.824   2.577 -0.4725 -0.1637 -0.3683
  587SOL     OW 2345   1.376   1.518   2.154 -0.1672  0.0517 -0.2443
  587SOL    HW1 2346   1.318   1.460   2.206  1.1582 -1.4800  1.2207
  587SOL    HW2 2347   1.417   1.456   2.094  1.4845 -1.0467  0.1132
  587SOL     MW 2348   1.374   1.502   2.153  0.2256 -0.2953 -0.0038
  588SOL     OW 2349   1.358   2.037   2.688  0.0967 -0.4226 -0.1306
  588SOL    HW1 2350   1.361   1.944   2.694 -0.7927  0.0862 -1.7749
  588SOL    HW2 2351   1.346   2.072   2.778  1.4613  2.3359  0.0512
  588SOL     MW 2352   1.357   2.029   2.701  0.1594  0.0085 -0.3236
  589SOL     OW 2353   1.394   2.016   0.051  0.0485 -0.0689 -0.0098
  589SOL    HW1 2354   1.419   2.092   0.102  1.2527  0.1716 -0.7518
  589SOL    HW2 2355   1.338   1.962   0.110  1.0915  1.4024 -1.0360
  589SOL     MW 2356   1.390   2.019   0.066  0.3450  0.1570 -0.2431
  590SOL     OW 2357   0.491   2.775   2.198 -0.2352  0.0211 -0.3005
  590SOL    HW1 2358   0.497   2.749   2.104  1.4960 -1.7028 -0.7015
  590SOL    HW2 2359   0.578   2.750   2.226 -0.0667 -0.5729 -2.4029
  590SOL     MW 2360   0.504   2.768   2.189  0.0154 -0.2847 -0.6308
  591SOL     OW 2361   2.271   0.677   0.026 -0.4926  0.1049 -0.0543
  591SOL    HW1 2362   2.227   0.755   0.002 -2.9835 -1.2195  4.0195
  591SOL    HW2 2363   2.342   0.666  -0.041  1.4254 -2.5879  1.3398
  591SOL     MW 2364   2.275   0.686   0.014 -0.5682 -0.4251  0.6671
  592SOL     OW 2365   1.746   2.947   0.744 -0.1550 -0.3631 -0.2741
  592SOL    HW1 2366   1.758   3.012   0.676 -0.1580  1.6323  0.4974
  592SOL    HW2 2367   1.802   2.980   0.812 -0.1763  2.8874 -0.2001
  592SOL     MW 2368   1.755   2.960   0.744 -0.1582  0.3290 -0.1626
  593SOL     OW 2369   1.954   0.675   0.849  0.0625  0.5269 -0.3632
  593SOL    HW1 2370   1.893   0.658   0.777  1.7041  1.3812 -3.1664
  593SOL    HW2 2371   2.016   0.605   0.860 -0.9366 -0.8243 -0.1376
  593SOL     MW 2372   1.954   0.664   0.841  0.1473  0.4613 -0.7033
  594SOL     OW 2373   2.785   1.111   1.407 -0.1225 -0.3162  0.2148
  594SOL    HW1 2374   2.876   1.119   1.392  1.3879 -1.7883  0.3754
  594SOL    HW2 2375   2.747   1.057   1.336 -0.1035 -2.1898  0.8777
  594SOL     MW 2376   2.792   1.105   1.396  0.0793 -0.7576  0.3234
  595SOL     OW 2377   0.472   0.939   0.831 -0.2681 -0.4857  0.0575
  595SOL    HW1 2378   0.492   0.961   0.739  0.4115 -1.8609  0.3047
  595SOL    HW2 2379   0.495   1.023   0.883  0.4686  1.0769 -2.5667
  595SOL     MW 2380   0.478   0.953   0.826 -0.0812 -0.4610 -0.2561
  596SOL     OW 2381   2.468   1.330   0.526  0.5201 -0.4904 -0.7334
  596SOL    HW1 2382   2.523   1.403   0.503 -0.8112  0.1246  1.3257
  596SOL    HW2 2383   2.497   1.307   0.611 -0.7364  3.4812 -2.0788
  596SOL     MW 2384   2.479   1.336   0.534  0.1787  0.1148 -0.6392
  597SOL     OW 2385   2.161   0.668   1.609  0.3375 -0.2668  0.1417
  597SOL    HW1 2386   2.186   0.606   1.676 -1.6954  0.0171  1.6236
  597SOL    HW2 2387   2.092   0.620   1.550 -3.1947  1.1190 -3.1366
  597SOL     MW 2388   2.155   0.653   1.610 -0.3968 -0.0465 -0.0953
  598SOL     OW 2389   2.571   1.046   2.849  0.2729  0.4075  0.1848
  598SOL    HW1 2390   2.581   0.967   2.800 -1.1711 -0.3861  2.5425
  598SOL    HW2 2391   2.659   1.071   2.878  1.1928 -0.1370  0.7089
  598SOL     MW 2392   2.584   1.039   2.846  0.2037  0.2310  0.5650
  599SOL     OW 2393   2.983   0.410   2.128  0.1792  0.7044  0.9698
  599SOL    HW1 2394   3.031   0.424   2.207 -0.1749 -3.0483  0.5863
  599SOL    HW2 2395   3.011   0.486   2.075 -0.2261  0.5565  0.8840
  599SOL     MW 2396   2.993   0.422   2.131  0.0790  0.1898  0.9079
  600SOL     OW 2397   1.833   1.628   0.899  0.7633 -0.2293  0.1790
  600SOL    HW1 2398   1.905   1.674   0.944 -0.0916  1.0072  0.1580
  600SOL    HW2 2399   1.769   1.695   0.883  0.3480 -0.3211  0.5179
  600SOL     MW 2400   1.834   1.643   0.903  0.5957 -0.0783  0.2210
  601SOL     OW 2401   2.533   0.725   0.809  0.0177 -0.3342  0.0470
  601SOL    HW1 2402   2.527   0.717   0.907  0.3447 -0.6112  0.7096
  601SOL    HW2 2403   2.460   0.671   0.763 -1.7728 -0.5426 -2.9939
  601SOL     MW 2404   2.522   0.717   0.816 -0.1754 -0.3983 -0.2668
  602SOL     OW 2405   2.312   1.936   0.768  0.1723 -0.1362  0.1789
  602SOL    HW1 2406   2.290   1.840   0.762  0.8257 -1.7188 -0.4020
  602SOL    HW2 2407   2.258   1.981   0.701 -1.7705  2.3384 -0.6051
  602SOL     MW 2408   2.302   1.929   0.758  0.0021 -0.0185 -0.0011
  603SOL     OW 2409   2.999   1.384   1.958 -0.6471 -0.2646  0.6862
  603SOL    HW1 2410   3.068   1.437   1.984 -1.7000 -0.7082 -1.6654
  603SOL    HW2 2411   2.996   1.314   2.022 -0.6103 -1.1895 -2.9688
  603SOL     MW 2412   3.007   1.382   1.970 -0.7811 -0.4451 -0.1063
  604SOL     OW 2413   2.036   1.476   0.460 -0.7537 -0.3770 -0.2385
  604SOL    HW1 2414   2.106   1.417   0.507  1.5588 -2.1392 -1.4765
  604SOL    HW2 2415   1.986   1.518   0.527  0.3020  0.6888 -0.9713
  604SOL     MW 2416   2.039   1.474   0.475 -0.3093 -0.4689 -0.4985
  605SOL     OW 2417   2.521   1.476   0.888 -0.6603  0.2102 -0.2054
  605SOL    HW1 2418   2.496   1.533   0.813  3.4691  2.9573  3.4167
  605SOL    HW2 2419   2.540   1.391   0.853 -0.3268 -0.4768  0.4780
  605SOL     MW 2420   2.520   1.473   0.874 -0.0714  0.4820  0.3627
  606SOL     OW 2421   2.550   1.801   1.986  0.3668  0.3625 -0.7274
  606SOL    HW1 2422   2.459   1.781   1.971  1.1908  0.6499  0.7294
  606SOL    HW2 2423   2.599   1.723   1.961  0.7452  0.5783  0.4097
  606SOL     MW 2424   2.544   1.788   1.981  0.5254  0.4289 -0.3852
  607SOL     OW 2425   2.376   0.964   3.031 -0.6194  0.4770 -0.2556
  607SOL    HW1 2426   2.441   1.008   2.981  1.2986  2.0982  2.8130
  607SOL    HW2 2427   2.417   0.950   3.118  1.0475 -0.1549 -0.2302
  607SOL     MW 2428   2.390   0.968   3.036 -0.1464  0.6075  0.1526
  608SOL     OW 2429   1.842   0.253   0.538 -0.1650 -0.1143 -0.1539
  608SOL    HW1 2430   1.838   0.313   0.467  0.2188  0.0255 -1.3728
  608SOL    HW2 2431   1.805   0.174   0.510 -2.3559  0.1713 -3.1331
  608SOL     MW 2432   1.837   0.250   0.525 -0.4035 -0.0582 -0.7078
  609SOL     OW 2433   2.134   1.918   3.020  0.1873  0.1059  0.0312
  609SOL    HW1 2434   2.045   1.875   2.996 -0.6257 -1.2347 -0.0901
  609SOL    HW2 2435   2.140   1.887   3.113 -0.3187 -0.0701  1.8378
  609SOL     MW 2436   2.123   1.908   3.029  0.0133 -0.0942  0.2535
  610SOL     OW 2437   1.801   0.946   1.237 -0.4801  0.2270 -0.0422
  610SOL    HW1 2438   1.811   0.856   1.203 -1.7592 -1.1657 -0.4843
  610SOL    HW2 2439   1.709   0.968   1.218  2.1773 -0.1854  1.9378
  610SOL     MW 2440   1.790   0.937   1.230 -0.2983 -0.0111  0.1607
  611SOL     OW 2441   2.482   1.657   0.691 -0.4437  0.0876  0.1383
  611SOL    HW1 2442   2.545   1.670   0.625  0.2093 -0.9464 -0.6215
  611SOL    HW2 2443   2.394   1.665   0.653 -1.4866 -0.3330  0.4122
  611SOL     MW 2444   2.479   1.660   0.677 -0.4951 -0.1044  0.0742
  612SOL     OW 2445   2.845   2.945   0.383  0.3824  0.1322 -0.5302
  612SOL    HW1 2446   2.898   2.966   0.468  0.6579  0.9156  1.8734
  612SOL    HW2 2447   2.896   2.892   0.322 -0.4800  2.1921 -0.0736
  612SOL     MW 2448   2.859   2.941   0.386  0.3049  0.5073 -0.1528
  613SOL     OW 2449   1.476   1.040   0.939  0.2118 -0.0253  0.2640
  613SOL    HW1 2450   1.493   1.132   0.937  2.0895 -1.3539  2.6280
  613SOL    HW2 2451   1.504   1.009   1.022  0.2745  0.2218 -2.0778
  613SOL     MW 2452   1.482   1.048   0.949  0.4678 -0.1680  0.2669
  614SOL     OW 2453   2.004   0.507   1.476 -0.0337  0.3216 -0.9558
  614SOL    HW1 2454   1.994   0.458   1.566 -0.4964 -1.8783 -1.2037
  614SOL    HW2 2455   1.919   0.493   1.430 -0.2506  1.5546  0.0256
  614SOL     MW 2456   1.991   0.499   1.482 -0.1234  0.1940 -0.8590
  615SOL     OW 2457   2.381   0.723   0.290  0.5120  0.1416  0.2441
  615SOL    HW1 2458   2.448   0.663   0.324  1.7423 -1.9053  1.2780
  615SOL    HW2 2459   2.356   0.682   0.201  0.8168 -1.2844 -1.8520
  615SOL     MW 2460   2.387   0.710   0.283  0.7145 -0.3166  0.1039
  616SOL     OW 2461   2.501   0.453   1.645  0.0748  0.1445 -0.7931
  616SOL    HW1 2462   2.552   0.376   1.615 -1.0116 -2.8109 -1.1054
  616SOL    HW2 2463   2.475   0.502   1.569 -0.2851  0.3671  1.9728
  616SOL     MW 2464   2.505   0.449   1.631 -0.1161 -0.2160 -0.4694
  617SOL     OW 2465   2.845   0.611   1.720  0.2399  0.1281  0.6525
  617SOL    HW1 2466   2.761   0.611   1.771 -2.3474  3.4185  0.3698
  617SOL    HW2 2467   2.874   0.522   1.715 -1.5505  1.4446 -0.2049
  617SOL     MW 2468   2.838   0.599   1.726 -0.3377  0.7360  0.5021
  618SOL     OW 2469   2.724   0.379   2.019 -0.1936 -0.3479  0.0854
  618SOL    HW1 2470   2.696   0.462   1.982  2.4523 -3.0454  0.5888
  618SOL    HW2 2471   2.803   0.393   2.072 -1.8429  0.5626  2.6899
  618SOL     MW 2472   2.731   0.392   2.021 -0.0621 -0.5837  0.4954
  619SOL     OW 2473   2.643   0.706   0.070 -0.4717 -0.3866  0.3153
  619SOL    HW1 2474   2.667   0.790   0.116 -1.5629  2.7798 -0.7474
  619SOL    HW2 2475   2.613   0.656   0.145 -0.7187  2.4666 -0.7421
  619SOL     MW 2476   2.642   0.711   0.086 -0.6483  0.4077  0.0355
  620SOL     OW 2477   2.251   1.088   0.934  0.1189  0.0506 -0.3327
  620SOL    HW1 2478   2.304   1.034   0.873 -1.5460  0.7206 -1.8619
  620SOL    HW2 2479   2.168   1.060   0.901  1.8828 -1.0079 -1.0076
  620SOL     MW 2480   2.247   1.077   0.922  0.1320 -0.0007 -0.6235
  621SOL     OW 2481   1.523   2.235   1.944 -1.1352  0.0860  0.2095
  621SOL    HW1 2482   1.492   2.152   1.973 -0.2793 -1.0321  1.0861
  621SOL    HW2 2483   1.612   2.238   1.982 -0.2327 -2.1079 -0.6898
  621SOL     MW 2484   1.531   2.225   1.953 -0.9032 -0.3510  0.2065
  622SOL     OW 2485   2.624   0.243   0.272 -0.4288  0.2746  0.3469
  622SOL    HW1 2486   2.713   0.285   0.283  0.6191  0.3761  1.7270
  622SOL    HW2 2487   2.635   0.158   0.315 -3.4378  0.4055  1.6313
  622SOL     MW 2488   2.637   0.237   0.279 -0.6876  0.3053  0.6985
  623SOL     OW 2489   2.438   2.744   0.874 -0.0941 -0.1945  0.3132
  623SOL    HW1 2490   2.501   2.813   0.874 -0.4381 -3.5866  0.7238
  623SOL    HW2 2491   2.383   2.776   0.938 -0.3338 -0.0060 -3.4168
  623SOL     MW 2492   2.439   2.757   0.882 -0.1711 -0.6172 -0.1247
  624SOL     OW 2493   2.131   1.610   3.034 -0.0278 -0.4559  0.6061
  624SOL    HW1 2494   2.086   1.538   3.075  1.0799  1.4182 -3.0548
  624SOL    HW2 2495   2.062   1.651   2.985 -0.6747  1.0729 -2.8003
  624SOL     MW 2496   2.116   1.606   3.033  0.0330 -0.0069 -0.3264
  625SOL     OW 2497   2.237   1.920   1.102  0.8563 -0.8112 -0.3542
  625SOL    HW1 2498   2.306   1.875   1.157  1.5459 -0.7930 -0.5811
  625SOL    HW2 2499   2.269   1.941   1.013 -1.3607 -0.4852 -0.6879
  625SOL     MW 2500   2.250   1.917   1.097  0.6548 -0.7658 -0.4282
  626SOL     OW 2501   0.220   1.796   2.455 -0.5248  0.5150 -0.5689
  626SOL    HW1 2502   0.182   1.719   2.496 -0.0724  0.4995 -1.2427
  626SOL    HW2 2503   0.192   1.878   2.505  0.3580  1.4034 -2.7043
  626SOL     MW 2504   0.211   1.797   2.467 -0.3486  0.6301 -0.9395
  627SOL     OW 2505   2.538   0.786   2.570 -0.1902  0.0690 -0.2770
  627SOL    HW1 2506   2.458   0.832   2.590  1.5355  1.1878  0.5772
  627SOL    HW2 2507   2.534   0.760   2.477  1.6743  2.4773  0.4677
  627SOL     MW 2508   2.527   0.788   2.560  0.2835  0.5343 -0.0661
  628SOL     OW 2509   2.242   1.359   1.331 -0.4564  0.6180  1.2211
  628SOL    HW1 2510   2.211   1.278   1.295 -1.5298  0.5348  0.5757
  628SOL    HW2 2511   2.307   1.391   1.267 -0.6220  0.8184 -2.3390
  628SOL     MW 2512   2.246   1.353   1.318 -0.6198  0.6335  0.6662
  629SOL     OW 2513   1.805   0.464   1.284 -0.7652  0.0154  0.5224
  629SOL    HW1 2514   1.795   0.547   1.229 -0.9367  1.7418 -1.9610
  629SOL    HW2 2515   1.730   0.416   1.247 -2.1618 -0.1477 -0.2503
  629SOL     MW 2516   1.794   0.468   1.272 -0.9721  0.2217  0.0928
  630SOL     OW 2517   2.423   1.858   2.990  0.3632  0.0613 -0.1439
  630SOL    HW1 2518   2.419   1.957   2.978 -0.7442  2.2471 -0.8272
  630SOL    HW2 2519   2.329   1.834   2.973 -0.1260 -0.8985  0.2306
  630SOL     MW 2520   2.410   1.868   2.986  0.1525  0.2230 -0.1847
  631SOL     OW 2521   2.057   1.673   1.542  0.5599 -0.5904 -0.5468
  631SOL    HW1 2522   2.072   1.590   1.598  0.3630  0.9447  1.6564
  631SOL    HW2 2523   1.994   1.727   1.600 -0.1610  1.7209 -0.0802
  631SOL     MW 2524   2.050   1.669   1.557  0.4388 -0.0829 -0.1946
  632SOL     OW 2525   0.251   1.944   1.490 -0.2130 -0.0674  0.5874
  632SOL    HW1 2526   0.167   1.959   1.551  0.6830 -1.1515  0.4202
  632SOL    HW2 2527   0.285   1.852   1.496 -0.2519 -0.9905 -1.7623
  632SOL     MW 2528   0.244   1.934   1.499 -0.0999 -0.3322  0.2553
  633SOL     OW 2529   2.600   0.534   0.289  1.2225  0.3674 -0.0355
  633SOL    HW1 2530   2.655   0.525   0.367 -1.8804 -1.5160  0.3033
  633SOL    HW2 2531   2.592   0.444   0.249 -3.1712 -1.4775 -2.2370
  633SOL     MW 2532   2.606   0.521   0.294  0.2334 -0.1245 -0.2813
  634SOL     OW 2533   2.700   3.045   0.630 -0.5218  0.3608  0.0538
  634SOL    HW1 2534   2.719   3.137   0.631 -1.8359 -2.4218 -2.0528
  634SOL    HW2 2535   2.659   3.031   0.542  0.5769 -1.1761 -0.9852
  634SOL     MW 2536   2.697   3.055   0.619 -0.5502 -0.2091 -0.3612
  635SOL     OW 2537   2.585   0.126   1.849  0.3505  0.0532 -0.1116
  635SOL    HW1 2538   2.659   0.076   1.813  2.1667  0.1923  0.6340
  635SOL    HW2 2539   2.630   0.196   1.888  1.5993  1.0647  1.4628
  635SOL     MW 2540   2.601   0.128   1.849  0.7549  0.2050  0.1945
  636SOL     OW 2541   2.777   1.618   0.871 -0.3989  0.1124  0.0014
  636SOL    HW1 2542   2.688   1.583   0.879  2.0010  0.9215  3.4976
  636SOL    HW2 2543   2.774   1.697   0.926 -0.4670  2.7147 -1.6287
  636SOL     MW 2544   2.765   1.624   0.879 -0.0912  0.5625  0.2476
  637SOL     OW 2545   2.886   1.534   0.631 -0.0005  0.1946  0.0925
  637SOL    HW1 2546   2.941   1.614   0.611 -2.3496  3.3362  0.6931
  637SOL    HW2 2547   2.835   1.558   0.708  0.7901 -0.0827 -1.1078
  637SOL     MW 2548   2.887   1.548   0.639 -0.2061  0.5725  0.0134
  638SOL     OW 2549   2.707   0.510   0.537  0.2326  0.0631 -0.2774
  638SOL    HW1 2550   2.801   0.510   0.516  0.2340 -0.9320 -0.2543
  638SOL    HW2 2551   2.722   0.505   0.636 -0.3170 -1.9057  1.6685
  638SOL     MW 2552   2.721   0.509   0.547  0.1603 -0.3280 -0.0176
  639SOL     OW 2553   1.763   3.097   0.532  0.0203  0.0178  0.1654
  639SOL    HW1 2554   1.672   3.122   0.503  0.2389 -1.1041  3.0602
  639SOL    HW2 2555   1.793   3.013   0.483  1.2078 -2.3075  1.7886
  639SOL     MW 2556   1.755   3.089   0.522  0.2059 -0.4370  0.7615
  640SOL     OW 2557   0.330   1.335   0.081  0.6417  0.7595 -0.2576
  640SOL    HW1 2558   0.364   1.316  -0.010  0.6231 -3.7664 -0.1340
  640SOL    HW2 2559   0.294   1.251   0.111 -1.0686  0.1142 -1.1977
  640SOL     MW 2560   0.330   1.322   0.073  0.4136  0.0772 -0.3654
  641SOL     OW 2561   2.219   0.429   0.384  0.0014  0.0397 -0.2408
  641SOL    HW1 2562   2.236   0.423   0.291 -1.8587  1.8874 -2.2885
  641SOL    HW2 2563   2.256   0.355   0.426 -1.5123  0.5349 -2.9013
  641SOL     MW 2564   2.226   0.418   0.377 -0.4437  0.3488 -0.8620
  642SOL     OW 2565   0.085   0.037   0.492 -0.0345  0.0847 -0.0328
  642SOL    HW1 2566   0.028   0.121   0.508  1.9184 -0.6042  2.8263
  642SOL    HW2 2567   0.032  -0.040   0.512  0.6292 -2.6031 -0.4238
  642SOL     MW 2568   0.071   0.038   0.497  0.3107 -0.3608  0.2928
  643SOL     OW 2569   2.035   0.320   1.705  0.6971  0.1480  0.2360
  643SOL    HW1 2570   1.971   0.309   1.775  2.4356  0.7505 -1.3387
  643SOL    HW2 2571   2.028   0.248   1.635 -3.0346 -0.8913 -0.7705
  643SOL     MW 2572   2.025   0.309   1.705  0.4341  0.0904 -0.1046
  644SOL     OW 2573   2.679   1.835   0.985 -0.0485 -0.0056  0.0557
  644SOL    HW1 2574   2.674   1.780   1.064 -2.2488  0.1921 -2.4564
  644SOL    HW2 2575   2.598   1.872   0.963  1.4385 -0.3160 -0.0214
  644SOL     MW 2576   2.667   1.832   0.992 -0.1426 -0.0205 -0.2860
  645SOL     OW 2577   2.847   0.811   0.756  0.2467 -0.2451  0.2433
  645SOL    HW1 2578   2.937   0.794   0.749 -1.9648 -0.8592 -1.2324
  645SOL    HW2 2579   2.805   0.724   0.755  1.3846 -0.5941 -2.2047
  645SOL     MW 2580   2.854   0.798   0.755  0.1050 -0.3722 -0.2744
  646SOL     OW 2581   0.066   2.315   0.837 -0.3004  0.0080 -0.8827
  646SOL    HW1 2582   0.101   2.225   0.837  1.3592  0.9006 -0.7429
  646SOL    HW2 2583   0.039   2.323   0.739 -1.0541  0.8871 -1.1816
  646SOL     MW 2584   0.067   2.304   0.824 -0.1809  0.2418 -0.9037
  647SOL     OW 2585   2.708   0.499   2.993 -0.0330  0.2300  0.2095
  647SOL    HW1 2586   2.649   0.432   3.024 -0.2701 -0.3093 -1.4854
  647SOL    HW2 2587   2.702   0.561   3.065  1.7241 -1.2417  1.7803
  647SOL     MW 2588   2.699   0.498   3.007  0.1675 -0.0353  0.1931
  648SOL     OW 2589   2.259   0.745   1.129 -0.1634  0.0375 -0.1645
  648SOL    HW1 2590   2.173   0.711   1.101 -1.9367 -1.0910  0.9494
  648SOL    HW2 2591   2.241   0.786   1.211  2.1998  0.9996 -0.1718
  648SOL     MW 2592   2.246   0.746   1.136 -0.0855  0.0156 -0.0185
  649SOL     OW 2593   2.415   2.713   1.297  0.2454  0.4934 -0.5596
  649SOL    HW1 2594   2.503   2.740   1.320 -0.2573  1.4120 -1.4624
  649SOL    HW2 2595   2.424   2.617   1.269  3.0305 -2.1368  0.5809
  649SOL     MW 2596   2.428   2.704   1.296  0.5465  0.2676 -0.5282
  650SOL     OW 2597   2.770   0.216   0.637 -0.0571 -0.8161 -0.1061
  650SOL    HW1 2598   2.796   0.209   0.728 -2.4297  2.4660  0.3440
  650SOL    HW2 2599   2.858   0.224   0.591  1.5040  1.2356  2.1170
  650SOL     MW 2600   2.785   0.216   0.643 -0.1642 -0.1123  0.2466
  651SOL     OW 2601   0.007   0.452   0.997 -0.1152 -0.1623 -0.1681
  651SOL    HW1 2602   0.079   0.467   0.931 -0.8988  1.9578  1.6818
  651SOL    HW2 2603  -0.046   0.529   0.989  1.5763 -0.1816 -1.6294
  651SOL     MW 2604   0.010   0.464   0.987  0.0046  0.1148 -0.1168
  652SOL     OW 2605   2.389   1.457   3.021 -0.3943 -0.6568 -0.5829
  652SOL    HW1 2606   2.443   1.486   2.951  0.5382 -1.3101  1.7233
  652SOL    HW2 2607   2.312   1.511   3.026  4.0314 -0.0340 -0.8911
  652SOL     MW 2608   2.386   1.468   3.013  0.3127 -0.6608 -0.3193
  653SOL     OW 2609   1.813   0.430   0.322 -0.3195 -0.2199 -0.1265
  653SOL    HW1 2610   1.781   0.341   0.295 -3.9298 -1.4908  1.3689
  653SOL    HW2 2611   1.865   0.463   0.248 -1.1699  0.6124 -1.1772
  653SOL     MW 2612   1.816   0.423   0.308 -0.9080 -0.2778 -0.0678
  654SOL     OW 2613   2.436   0.982   0.744 -0.0522 -0.5457  0.2994
  654SOL    HW1 2614   2.374   0.949   0.675 -1.2133  1.1821 -2.1926
  654SOL    HW2 2615   2.486   0.896   0.774 -1.7011 -0.3072  0.8296
  654SOL     MW 2616   2.434   0.966   0.739 -0.4230 -0.2862  0.0406
  655SOL     OW 2617   2.883   0.864   0.393  0.0937  0.4586  0.0539
  655SOL    HW1 2618   2.862   0.900   0.478  3.4257  0.7615 -0.9530
  655SOL    HW2 2619   2.897   0.771   0.406 -3.1458  1.7859 -0.0200
  655SOL     MW 2620   2.882   0.856   0.406  0.1059  0.6737 -0.0887
  656SOL     OW 2621   1.782   2.643   1.374 -0.1047 -0.1992  0.0566
  656SOL    HW1 2622   1.807   2.734   1.362 -2.7321  0.3781 -3.0997
  656SOL    HW2 2623   1.851   2.589   1.336 -2.4899 -0.7247 -1.4883
  656SOL     MW 2624   1.794   2.648   1.367 -0.7661 -0.1924 -0.5637
  657SOL     OW 2625   0.115   1.746   1.149  0.0702  0.2834  0.3808
  657SOL    HW1 2626   0.190   1.780   1.097 -1.2946 -0.8148  1.6957
  657SOL    HW2 2627   0.129   1.653   1.163 -1.1031 -0.7539  0.3770
  657SOL     MW 2628   0.126   1.738   1.144 -0.2647  0.0016  0.5538
  658SOL     OW 2629   2.663   1.317   0.236  0.6013  0.4098 -0.0478
  658SOL    HW1 2630   2.639   1.236   0.286  1.6108  3.6108 -0.1998
  658SOL    HW2 2631   2.699   1.380   0.300 -1.3588  1.4186  0.4632
  658SOL     MW 2632   2.665   1.314   0.251  0.4759  0.9652 -0.0004
  659SOL     OW 2633   2.207   1.555   1.003 -0.0607  0.0165  0.0740
  659SOL    HW1 2634   2.291   1.571   0.960  0.2195 -0.3228  1.1557
  659SOL    HW2 2635   2.186   1.635   1.045 -0.2178 -3.8280 -0.9203
  659SOL     MW 2636   2.215   1.568   1.003 -0.0445 -0.5355  0.0855
  660SOL     OW 2637   2.097   1.461   1.710  0.0645  0.1938 -0.4539
  660SOL    HW1 2638   2.109   1.476   1.806  0.7523 -0.0142  2.1422
  660SOL    HW2 2639   2.018   1.405   1.691 -0.7161 -1.1818 -2.1050
  660SOL     MW 2640   2.088   1.456   1.720  0.0522 -0.0152 -0.3292
  661SOL     OW 2641   2.476   0.975   0.199 -0.6984 -0.1870  0.0244
  661SOL    HW1 2642   2.542   1.016   0.258  0.5695  3.5853  0.4286
  661SOL    HW2 2643   2.437   0.901   0.252 -0.0812 -5.6022 -0.0835
  661SOL     MW 2644   2.479   0.971   0.214 -0.4496 -0.4037  0.0635
  662SOL     OW 2645   2.598   2.966   0.857  0.2966  0.1371 -0.6041
  662SOL    HW1 2646   2.551   3.049   0.878 -1.1983  1.2538  0.8508
  662SOL    HW2 2647   2.631   2.985   0.765 -1.2605 -2.2324 -1.0605
  662SOL     MW 2648   2.596   2.980   0.847 -0.1061 -0.0282 -0.4724
  663SOL     OW 2649   2.681   1.487   0.457  0.4483  0.3128 -0.2392
  663SOL    HW1 2650   2.655   1.566   0.409 -2.9814  3.4921  0.7103
  663SOL    HW2 2651   2.770   1.505   0.495  2.1535 -0.0774  1.3087
  663SOL     MW 2652   2.689   1.500   0.456  0.2208  0.6808  0.0903
  664SOL     OW 2653   2.557   1.495   1.625 -0.4797  0.4038  0.1894
  664SOL    HW1 2654   2.558   1.560   1.557 -3.7169 -1.9406  0.8083
  664SOL    HW2 2655   2.482   1.449   1.610  1.2768  0.6486  0.0295
  664SOL     MW 2656   2.547   1.497   1.614 -0.6751  0.1268  0.2500
  665SOL     OW 2657   2.774   0.770   2.106  0.0300  0.1143 -0.0950
  665SOL    HW1 2658   2.755   0.830   2.030  2.3773 -2.5547 -2.5017
  665SOL    HW2 2659   2.862   0.737   2.086 -1.4664 -0.8924  1.2752
  665SOL     MW 2660   2.783   0.774   2.094  0.1423 -0.3707 -0.2318
  666SOL     OW 2661   2.773   3.053   1.715  0.0367 -0.2120 -0.3354
  666SOL    HW1 2662   2.781   3.081   1.623  2.7758  1.2236  1.4244
  666SOL    HW2 2663   2.708   2.982   1.711 -0.3318  0.5232  0.4877
  666SOL     MW 2664   2.765   3.047   1.703  0.3495  0.0744  0.0054
  667SOL     OW 2665   2.000   2.706   1.718 -0.2424 -0.1729  0.3917
  667SOL    HW1 2666   2.004   2.686   1.811 -0.5783 -1.4120  1.0458
  667SOL    HW2 2667   2.067   2.773   1.704  1.8495  1.1906  1.8509
  667SOL     MW 2668   2.010   2.712   1.729 -0.0107 -0.1565  0.6705
  668SOL     OW 2669   2.725   0.528   0.802  0.4221 -0.0140  0.2126
  668SOL    HW1 2670   2.776   0.566   0.880 -2.0019  0.7444  2.0843
  668SOL    HW2 2671   2.643   0.581   0.809  1.7904 -1.5002 -1.0373
  668SOL     MW 2672   2.721   0.540   0.813  0.2828 -0.1100  0.2946
  669SOL     OW 2673   0.144   0.883   0.782  0.1745 -0.7594  0.3131
  669SOL    HW1 2674   0.148   0.971   0.819  2.0548  3.0156 -1.3630
  669SOL    HW2 2675   0.170   0.838   0.862  0.2561  2.2783  0.9814
  669SOL     MW 2676   0.148   0.889   0.797  0.4334  0.1395  0.1801
  670SOL     OW 2677   2.901   0.317   0.239  0.2597  0.3133  0.8503
  670SOL    HW1 2678   2.931   0.269   0.156 -0.3295 -2.1859  0.7166
  670SOL    HW2 2679   2.906   0.411   0.217 -0.8136  1.0417 -1.8435
  670SOL     MW 2680   2.906   0.323   0.225  0.0403  0.0797  0.4772
  671SOL     OW 2681   2.007   3.030   1.564 -0.1294 -0.4225  0.0068
  671SOL    HW1 2682   1.955   2.990   1.495  0.1241 -2.7942 -1.2570
  671SOL    HW2 2683   1.941   3.049   1.633  0.7097  1.1166  0.1054
  671SOL     MW 2684   1.992   3.027   1.564  0.0148 -0.5323 -0.1469
  672SOL     OW 2685   1.830   1.693   1.275 -0.5083 -0.1412  0.0447
  672SOL    HW1 2686   1.831   1.759   1.344 -0.5720 -2.7619 -0.7754
  672SOL    HW2 2687   1.892   1.726   1.211 -1.4648  2.5995 -0.3057
  672SOL     MW 2688   1.838   1.706   1.276 -0.6429 -0.1254 -0.1097
  673SOL     OW 2689   2.746   1.072   0.639 -0.3216  0.0396 -0.6447
  673SOL    HW1 2690   2.763   0.994   0.684 -1.0609 -0.2109 -0.5062
  673SOL    HW2 2691   2.813   1.130   0.667 -1.7988 -3.6232 -0.3264
  673SOL     MW 2692   2.757   1.070   0.649 -0.6140 -0.4767 -0.5844
  674SOL     OW 2693   2.465   3.090   1.291 -0.1924 -0.2986 -0.2712
  674SOL    HW1 2694   2.405   3.077   1.216 -0.5721 -0.1082 -2.1482
  674SOL    HW2 2695   2.514   3.010   1.303  0.8285 -0.3241  0.2076
  674SOL     MW 2696   2.463   3.078   1.283 -0.1078 -0.2769 -0.4557
  675SOL     OW 2697   2.941   0.905   1.024 -0.5919  0.1268  0.1417
  675SOL    HW1 2698   3.017   0.878   1.083  1.1683 -1.0226 -0.4339
  675SOL    HW2 2699   2.966   0.989   0.977 -1.8223  1.6604 -1.1724
  675SOL     MW 2700   2.954   0.912   1.026 -0.5220  0.1775 -0.1076
  676SOL     OW 2701   2.958   1.416   1.703 -0.0264 -0.2345  0.1789
  676SOL    HW1 2702   2.870   1.372   1.673 -2.8045  1.9400 -2.0370
  676SOL    HW2 2703   2.942   1.415   1.796 -0.4777 -1.7971 -0.6461
  676SOL     MW 2704   2.944   1.410   1.711 -0.4525 -0.1538 -0.2223
  677SOL     OW 2705   2.352   0.547   2.035 -0.3204 -0.7732 -0.6932
  677SOL    HW1 2706   2.302   0.514   1.956  1.5260  2.4408  0.3593
  677SOL    HW2 2707   2.343   0.644   2.038  1.1574  1.2276  0.6533
  677SOL     MW 2708   2.344   0.556   2.025  0.1182 -0.0852 -0.3767
  678SOL     OW 2709   2.461   1.662   0.324 -0.0469 -0.1798 -0.3055
  678SOL    HW1 2710   2.376   1.677   0.368 -0.0407  1.0728  0.8297
  678SOL    HW2 2711   2.460   1.586   0.269  2.5476  0.0123 -2.5079
  678SOL     MW 2712   2.450   1.654   0.323  0.2962  0.0108 -0.4463
  679SOL     OW 2713   2.227   0.478   1.293  0.3319 -0.2452 -0.2709
  679SOL    HW1 2714   2.233   0.393   1.254 -0.3099  0.6484  0.4075
  679SOL    HW2 2715   2.144   0.477   1.342  0.6091  2.8687  0.7747
  679SOL     MW 2716   2.217   0.466   1.294  0.2838  0.2835 -0.0434
  680SOL     OW 2717   2.321   0.169   1.495  0.0512 -0.1809  0.1710
  680SOL    HW1 2718   2.226   0.191   1.483 -1.1806 -0.8872  1.6985
  680SOL    HW2 2719   2.327   0.091   1.453 -0.1211  2.4861 -1.3969
  680SOL     MW 2720   2.309   0.162   1.488 -0.1340  0.0778  0.1656
  681SOL     OW 2721   0.244   0.565   1.568 -0.3985 -0.5701 -0.4766
  681SOL    HW1 2722   0.210   0.501   1.638 -1.2243  1.6978 -1.9689
  681SOL    HW2 2723   0.291   0.513   1.506 -0.8538 -2.7388  0.0149
  681SOL     MW 2724   0.246   0.550   1.569 -0.5675 -0.5570 -0.6086
  682SOL     OW 2725   0.164   2.823   1.539  0.2804  0.4433  0.5399
  682SOL    HW1 2726   0.240   2.880   1.550  0.5670  1.0828 -0.5541
  682SOL    HW2 2727   0.091   2.888   1.527  0.1970  2.0862 -0.1544
  682SOL     MW 2728   0.164   2.839   1.539  0.3072  0.7444  0.3039
  683SOL     OW 2729   2.087   0.839   2.976  0.7040 -0.1065 -0.0190
  683SOL    HW1 2730   2.045   0.758   3.005  0.1136  0.6826 -0.1951
  683SOL    HW2 2731   2.036   0.905   3.032 -0.7518  2.6866  1.5511
  683SOL     MW 2732   2.074   0.837   2.987  0.4340  0.3662  0.1649
  684SOL     OW 2733   2.196   1.693   0.691 -0.3344 -0.0922  0.3674
  684SOL    HW1 2734   2.187   1.697   0.590 -0.9472  1.7092 -0.0352
  684SOL    HW2 2735   2.122   1.641   0.721 -1.1325  2.1207 -1.1460
  684SOL     MW 2736   2.185   1.687   0.682 -0.5206  0.4375  0.1146
  685SOL     OW 2737   2.708   1.671   1.202  0.2691  0.0915 -0.3627
  685SOL    HW1 2738   2.756   1.706   1.272 -0.2276 -0.9881 -2.8427
  685SOL    HW2 2739   2.698   1.581   1.235 -0.2511 -0.4739  2.6965
  685SOL     MW 2740   2.713   1.664   1.216  0.1349 -0.1255 -0.2863
  686SOL     OW 2741   2.859   0.728   1.471 -0.0314  0.2564  0.4736
  686SOL    HW1 2742   2.857   0.701   1.569  2.1735 -0.1170  0.4526
  686SOL    HW2 2743   2.945   0.767   1.475  2.4163  0.8620  1.4378
  686SOL     MW 2744   2.870   0.730   1.485  0.5825  0.2871  0.5980
  687SOL     OW 2745   2.137   0.163   1.217 -0.3159 -0.3572 -0.8048
  687SOL    HW1 2746   2.198   0.121   1.152 -0.0729  2.9414 -0.8634
  687SOL    HW2 2747   2.059   0.195   1.163 -0.2810 -1.5036  0.3820
  687SOL     MW 2748   2.135   0.162   1.201 -0.2792 -0.0732 -0.6559
  688SOL     OW 2749   2.395   0.627   1.433 -0.0520  0.0073 -0.3903
  688SOL    HW1 2750   2.372   0.584   1.352  1.9743  0.4951  2.0855
  688SOL    HW2 2751   2.314   0.622   1.483  1.2874 -0.0930  0.1127
  688SOL     MW 2752   2.381   0.620   1.429  0.3921  0.0584  0.0027
  689SOL     OW 2753   2.449   0.719   2.931  1.1440 -0.2231  0.5725
  689SOL    HW1 2754   2.403   0.804   2.960  0.8868 -0.9840  4.8090
  689SOL    HW2 2755   2.532   0.716   2.979  0.2136 -1.3932 -2.2712
  689SOL     MW 2756   2.454   0.730   2.941  0.9873 -0.4779  0.7562
  690SOL     OW 2757   2.051   0.910   1.842  0.1787 -0.4144  0.1058
  690SOL    HW1 2758   2.033   0.818   1.848  0.2098  1.7483  0.5423
  690SOL    HW2 2759   2.076   0.927   1.748  1.3757  0.4800 -0.4714
  690SOL     MW 2760   2.052   0.900   1.831  0.3407 -0.0110  0.0872
  691SOL     OW 2761   2.403   0.227   0.837  0.6836  0.1758  0.1570
  691SOL    HW1 2762   2.481   0.265   0.875  0.6118 -1.5117 -0.6096
  691SOL    HW2 2763   2.334   0.286   0.869  0.3337 -0.8352 -1.9461
  691SOL     MW 2764   2.404   0.240   0.846  0.6280 -0.1803 -0.2216
  692SOL     OW 2765   2.924   1.610   1.492 -0.1890 -0.2604 -0.6584
  692SOL    HW1 2766   2.930   1.565   1.574  0.1705  0.9513 -0.5771
  692SOL    HW2 2767   2.971   1.697   1.505  1.2463 -0.6339  0.2987
  692SOL     MW 2768   2.931   1.616   1.505  0.0478 -0.1498 -0.5214
  693SOL     OW 2769   2.264   0.416   0.091  1.0147  0.6888  0.4724
  693SOL    HW1 2770   2.190   0.363   0.064  0.2278  1.3848  1.9537
  693SOL    HW2 2771   2.246   0.508   0.065  2.8930  0.2696 -1.4737
  693SOL     MW 2772   2.252   0.421   0.084  1.1587  0.7254  0.4111
  694SOL     OW 2773   1.923   1.153   1.065 -0.4177 -0.8672 -0.1189
  694SOL    HW1 2774   2.014   1.145   1.110  2.0148  1.0532 -0.1697
  694SOL    HW2 2775   1.874   1.100   1.125 -0.1967  1.6167 -0.5372
  694SOL     MW 2776   1.929   1.145   1.079 -0.0676 -0.2861 -0.1808
  695SOL     OW 2777   2.986   1.433   1.298  0.0095 -0.2039 -0.7413
  695SOL    HW1 2778   2.943   1.461   1.216 -0.3950 -1.5950 -1.5592
  695SOL    HW2 2779   2.961   1.502   1.371 -1.1515  0.7561 -0.8987
  695SOL     MW 2780   2.977   1.446   1.297 -0.1970 -0.2608 -0.8700
  696SOL     OW 2781   2.097   1.394   0.771  0.1864  0.8203  0.2379
  696SOL    HW1 2782   2.120   1.427   0.856 -0.3470  1.5561  2.7434
  696SOL    HW2 2783   2.039   1.316   0.791 -2.3438 -1.7424  0.0234
  696SOL     MW 2784   2.092   1.388   0.785 -0.2178  0.5792  0.5402
  697SOL     OW 2785   2.878   1.013   2.225 -0.4139 -0.5205  0.5606
  697SOL    HW1 2786   2.846   1.103   2.235  1.0242  2.4494  1.3324
  697SOL    HW2 2787   2.809   0.960   2.184 -0.2041  0.6949 -3.2679
  697SOL     MW 2788   2.865   1.018   2.221 -0.1965  0.0317  0.1573
  698SOL     OW 2789   2.533   0.333   0.021 -0.1448  0.3369 -0.2477
  698SOL    HW1 2790   2.442   0.366   0.042  1.6405 -0.8131  3.4188
  698SOL    HW2 2791   2.557   0.282   0.092 -2.2141  0.0516 -1.6132
  698SOL     MW 2792   2.524   0.331   0.033 -0.1823  0.1475  0.0559
  699SOL     OW 2793   1.901   1.623   2.048 -0.3657 -0.0056  0.4413
  699SOL    HW1 2794   1.862   1.534   2.045  4.1848  1.8365  0.6517
  699SOL    HW2 2795   1.994   1.621   2.008 -2.2586 -1.7157 -1.9945
  699SOL     MW 2796   1.908   1.611   2.043 -0.0150  0.0119  0.1477
  700SOL     OW 2797   2.709   0.912   1.601 -0.4755 -0.2516  0.0187
  700SOL    HW1 2798   2.757   0.986   1.577 -1.0559  0.2507  0.7017
  700SOL    HW2 2799   2.743   0.837   1.547 -2.2601 -1.9004 -0.0105
  700SOL     MW 2800   2.720   0.912   1.591 -0.7876 -0.4029  0.1049
  701SOL     OW 2801   1.694   1.181   2.478 -0.1828  0.1159 -0.3184
  701SOL    HW1 2802   1.788   1.151   2.479  1.5282 -0.8035 -1.4239
  701SOL    HW2 2803   1.675   1.252   2.548  1.3277 -1.1782  1.3784
  701SOL     MW 2804   1.704   1.186   2.488  0.2422 -0.1762 -0.2404
  702SOL     OW 2805   2.149   0.412   0.831  0.3036  0.5683 -0.0835
  702SOL    HW1 2806   2.127   0.344   0.773 -0.0274  0.4256  0.5686
  702SOL    HW2 2807   2.216   0.464   0.785  0.6535  0.3738  0.2109
  702SOL     MW 2808   2.155   0.410   0.817  0.3061  0.5238  0.0413
  703SOL     OW 2809   2.702   1.240   1.040  0.4862  0.0370 -0.2287
  703SOL    HW1 2810   2.632   1.267   0.980  0.7923  2.2357 -2.6047
  703SOL    HW2 2811   2.679   1.149   1.071 -1.6283 -0.8420  2.3714
  703SOL     MW 2812   2.689   1.232   1.036  0.2476  0.2111 -0.1991
  704SOL     OW 2813   3.062   1.244   0.131 -0.9212  0.6187 -0.3768
  704SOL    HW1 2814   2.971   1.227   0.112  0.2734  2.2578  0.1198
  704SOL    HW2 2815   3.074   1.212   0.219  0.0258 -0.7542  0.7230
  704SOL     MW 2816   3.051   1.237   0.140 -0.6386  0.6539 -0.1662
  705SOL     OW 2817   2.186   1.631   1.309 -0.2851 -0.3969  0.2198
  705SOL    HW1 2818   2.145   1.616   1.395  0.9118 -1.1479  2.7180
  705SOL    HW2 2819   2.200   1.542   1.282  1.6030  0.8311 -0.5940
  705SOL     MW 2820   2.183   1.617   1.317  0.1219 -0.3339  0.4420
  706SOL     OW 2821   2.935   1.266   0.642 -0.4018  0.0675  0.1264
  706SOL    HW1 2822   3.002   1.254   0.582 -0.1298  0.9223  0.7629
  706SOL    HW2 2823   2.934   1.365   0.641  1.7171 -1.0022  1.0730
  706SOL     MW 2824   2.944   1.278   0.634 -0.0864  0.0392  0.3353
  707SOL     OW 2825   2.325   0.039   1.027  0.2372 -0.0200  0.1124
  707SOL    HW1 2826   2.333   0.114   0.968 -0.0617 -1.0378  3.2584
  707SOL    HW2 2827   2.268  -0.020   0.977 -1.0520 -1.3697 -0.1509
  707SOL     MW 2828   2.318   0.041   1.012  0.0277 -0.3323  0.4927
  708SOL     OW 2829   2.429   1.420   0.183  0.1721 -0.5888  0.1258
  708SOL    HW1 2830   2.515   1.376   0.204 -0.2134 -0.5709  3.6207
  708SOL    HW2 2831   2.434   1.449   0.088  0.7814 -0.7735 -1.0606
  708SOL     MW 2832   2.441   1.418   0.173  0.2016 -0.6108  0.4304
  709SOL     OW 2833   1.771   1.660   0.224  0.2113  0.1404  0.6654
  709SOL    HW1 2834   1.762   1.659   0.128  0.4020 -1.1371 -0.5626
  709SOL    HW2 2835   1.679   1.659   0.248 -0.7991  1.7509  2.7833
  709SOL     MW 2836   1.758   1.660   0.214  0.1031  0.1843  0.7828
  710SOL     OW 2837   2.172   1.109   1.210 -0.0708  0.0541  0.1629
  710SOL    HW1 2838   2.197   1.090   1.115  0.6605 -1.8855  0.1908
  710SOL    HW2 2839   2.184   1.020   1.247 -2.8630 -1.9497  3.0671
  710SOL     MW 2840   2.177   1.095   1.202 -0.3427 -0.4662  0.5498
  711SOL     OW 2841   2.336   0.087   1.759 -0.0847 -0.2942 -0.3967
  711SOL    HW1 2842   2.432   0.100   1.793  1.7291  1.2403 -0.4067
  711SOL    HW2 2843   2.338   0.122   1.669  1.2822 -0.7481  1.1225
  711SOL     MW 2844   2.349   0.093   1.751  0.3350 -0.1516 -0.1975
  712SOL     OW 2845   1.936   0.628   3.081  0.3444 -0.1483 -0.4171
  712SOL    HW1 2846   1.843   0.651   3.052 -0.5253 -0.2795 -0.0788
  712SOL    HW2 2847   1.950   0.672   3.163  0.9770  1.0183  0.2857
  712SOL     MW 2848   1.925   0.636   3.088  0.3131 -0.0117 -0.2797
  713SOL     OW 2849   2.551   0.744   1.085  0.4403 -0.1097 -0.1421
  713SOL    HW1 2850   2.599   0.672   1.129  1.5988 -1.3551 -0.4665
  713SOL    HW2 2851   2.460   0.720   1.090 -1.4407  0.2784  1.2185
  713SOL     MW 2852   2.545   0.731   1.091  0.3450 -0.2228 -0.0054
  714SOL     OW 2853   2.189   0.144   2.001 -0.2627 -0.1685  0.5710
  714SOL    HW1 2854   2.246   0.109   2.075  0.3238 -0.1001  1.0757
  714SOL    HW2 2855   2.244   0.125   1.918 -0.6031  2.5016 -2.6571
  714SOL     MW 2856   2.204   0.137   2.000 -0.2302  0.1928  0.2117
  715SOL     OW 2857   1.839   2.027   1.740 -0.0839  0.3355 -0.2279
  715SOL    HW1 2858   1.935   2.051   1.735 -0.8798  0.0721 -0.9945
  715SOL    HW2 2859   1.824   1.956   1.807  0.2219 -1.4295  0.1194
  715SOL     MW 2860   1.850   2.021   1.748 -0.1485  0.0679 -0.2832
  716SOL     OW 2861   2.354   0.566   0.711  0.0489  0.0053  0.5676
  716SOL    HW1 2862   2.391   0.502   0.655  1.5554  2.3210  0.6484
  716SOL    HW2 2863   2.310   0.612   0.644  0.6409 -1.4059 -1.4730
  716SOL     MW 2864   2.353   0.564   0.695  0.3257  0.1246  0.3090
  717SOL     OW 2865   2.819   1.645   2.889 -0.6223  0.5787  0.4574
  717SOL    HW1 2866   2.894   1.613   2.941 -0.5424  2.0644 -2.4441
  717SOL    HW2 2867   2.758   1.707   2.942 -0.9365  3.4518  0.4135
  717SOL     MW 2868   2.821   1.649   2.903 -0.6532  1.1538  0.0688
  718SOL     OW 2869   2.684   1.418   1.340 -0.0871 -0.2456 -0.3578
  718SOL    HW1 2870   2.683   1.433   1.435  0.0147 -2.2418  0.1141
  718SOL    HW2 2871   2.721   1.335   1.319 -0.0776  0.4462 -2.2599
  718SOL     MW 2872   2.689   1.409   1.350 -0.0724 -0.4177 -0.5465
  719SOL     OW 2873   2.170   1.261   0.545 -0.3947 -0.2131  0.0116
  719SOL    HW1 2874   2.263   1.287   0.514  1.6783 -1.5600  0.5724
  719SOL    HW2 2875   2.161   1.302   0.631  1.8944 -1.1332  1.9310
  719SOL     MW 2876   2.181   1.270   0.552  0.1808 -0.5122  0.3389
  720SOL     OW 2877   2.800   1.200   0.042  0.2327 -0.6600 -0.4091
  720SOL    HW1 2878   2.811   1.111   0.076 -1.2171 -0.4285  0.7441
  720SOL    HW2 2879   2.740   1.239   0.108  1.2358  1.2913  0.5416
  720SOL     MW 2880   2.794   1.193   0.055  0.1738 -0.3720 -0.1315
  721SOL     OW 2881   2.477   0.885   1.407  0.2438  0.1231  0.4043
  721SOL    HW1 2882   2.481   0.796   1.440 -1.9319 -1.0908 -2.3868
  721SOL    HW2 2883   2.534   0.929   1.468 -0.6658 -2.6348 -0.0971
  721SOL     MW 2884   2.485   0.879   1.420 -0.1633 -0.4010 -0.0301
  722SOL     OW 2885   2.596   1.115   0.415  0.1304  0.1237  0.4297
  722SOL    HW1 2886   2.537   1.188   0.459 -1.4382  3.1435  3.1756
  722SOL    HW2 2887   2.659   1.091   0.487  1.7819  1.4764  1.5683
  722SOL     MW 2888   2.597   1.121   0.430  0.1413  0.7006  0.9422
  723SOL     OW 2889   2.329   1.374   1.582  0.0205 -0.8888  0.2582
  723SOL    HW1 2890   2.289   1.345   1.498 -0.9217 -1.2374 -0.3060
  723SOL    HW2 2891   2.249   1.408   1.628  1.4353  1.1931  1.4029
  723SOL     MW 2892   2.313   1.375   1.577  0.0828 -0.6601  0.3348
  724SOL     OW 2893   2.455   0.355   0.561  0.0280 -0.3434 -0.1025
  724SOL    HW1 2894   2.470   0.284   0.626 -0.9017 -0.7451  0.3365
  724SOL    HW2 2895   2.534   0.373   0.506  0.7154 -2.7009 -1.0855
  724SOL     MW 2896   2.467   0.348   0.562 -0.0040 -0.7074 -0.1743
  725SOL     OW 2897   2.584   0.445   1.214  0.0620 -0.9590  0.5138
  725SOL    HW1 2898   2.671   0.435   1.252  1.1998 -0.1650  1.6236
  725SOL    HW2 2899   2.532   0.406   1.284 -0.6380  1.5482  0.5973
  725SOL     MW 2900   2.589   0.439   1.228  0.1197 -0.5234  0.6713
  726SOL     OW 2901   2.535   2.508   0.516 -0.3708 -0.5426 -0.2993
  726SOL    HW1 2902   2.486   2.585   0.494  2.7424 -0.3846  0.3815
  726SOL    HW2 2903   2.482   2.464   0.580 -2.2533  1.5253  0.5047
  726SOL     MW 2904   2.521   2.512   0.522 -0.2084 -0.2489 -0.1034
  727SOL     OW 2905   2.866   0.349   1.781  0.3682 -0.3881 -0.1990
  727SOL    HW1 2906   2.796   0.340   1.714  1.0108  2.6028  0.4239
  727SOL    HW2 2907   2.824   0.350   1.873  0.1846  0.6604  1.1375
  727SOL     MW 2908   2.851   0.348   1.784  0.4288  0.1448  0.0595
  728SOL     OW 2909   2.831   1.140   2.884  0.3567  0.2266  0.2661
  728SOL    HW1 2910   2.818   1.203   2.808  0.6256  0.1970  1.1675
  728SOL    HW2 2911   2.822   1.192   2.961 -1.3945  0.8254 -2.9337
  728SOL     MW 2912   2.828   1.155   2.884  0.1611  0.3017 -0.0372
  729SOL     OW 2913   2.434   1.458   1.170  0.1872  0.2945 -0.6102
  729SOL    HW1 2914   2.498   1.417   1.228  0.2749  0.1487 -1.6051
  729SOL    HW2 2915   2.465   1.440   1.081 -0.4608  3.2946 -2.0277
  729SOL     MW 2916   2.446   1.450   1.166  0.1133  0.6711 -0.9285
  730SOL     OW 2917   2.281   1.186   0.279 -0.4979  0.5657  0.0332
  730SOL    HW1 2918   2.359   1.134   0.269  1.6434 -4.2451  2.8617
  730SOL    HW2 2919   2.309   1.276   0.265  5.4433  0.3987  2.9564
  730SOL     MW 2920   2.295   1.191   0.276  0.5685 -0.0910  0.7921
  731SOL     OW 2921   2.802   2.061   2.906 -0.1551  0.0670 -0.2768
  731SOL    HW1 2922   2.747   2.044   2.833  0.2150  1.0863 -1.2978
  731SOL    HW2 2923   2.884   2.098   2.878  0.7147 -0.8825 -1.9244
  731SOL     MW 2924   2.806   2.064   2.893  0.0085  0.0762 -0.6289
  732SOL     OW 2925   2.213   0.887   1.341  0.2618  0.3098 -0.4663
  732SOL    HW1 2926   2.173   0.917   1.425 -0.3882  0.0781 -1.4662
  732SOL    HW2 2927   2.313   0.884   1.373  1.4447 -0.2527  2.1625
  732SOL     MW 2928   2.221   0.890   1.356  0.3321  0.2050 -0.2514
  733SOL     OW 2929   2.399   2.823   2.993  0.2941 -0.1587  0.2995
  733SOL    HW1 2930   2.326   2.884   2.969  0.3761  0.1991 -0.1218
  733SOL    HW2 2931   2.364   2.731   2.987  1.0851  1.1829 -1.9733
  733SOL     MW 2932   2.385   2.819   2.989  0.4092  0.0655 -0.0560
  734SOL     OW 2933   1.476   0.303   2.482  0.6342  0.1092  1.1056
  734SOL    HW1 2934   1.443   0.265   2.562 -1.2796  0.2460  2.2286
  734SOL    HW2 2935   1.490   0.227   2.426  0.4821  1.5767  0.0286
  734SOL     MW 2936   1.474   0.288   2.485  0.3616  0.3209  1.1117
  735SOL     OW 2937   2.914   0.888   2.615  0.5372  0.1996 -0.1309
  735SOL    HW1 2938   2.910   0.792   2.615 -2.6483  1.1865 -1.5846
  735SOL    HW2 2939   2.964   0.923   2.688 -2.9906  0.7307  0.5669
  735SOL     MW 2940   2.920   0.880   2.625 -0.3485  0.3999 -0.2306
  736SOL     OW 2941   0.082   0.616   2.544  0.0551 -0.6256 -0.4044
  736SOL    HW1 2942   0.091   0.687   2.480 -0.2891 -2.5789 -2.0375
  736SOL    HW2 2943   0.072   0.542   2.485 -1.5311  1.2702  0.7651
  736SOL     MW 2944   0.082   0.616   2.528 -0.1996 -0.6332 -0.4655
  737SOL     OW 2945   2.936   0.600   2.649  0.0070  0.0957  0.4462
  737SOL    HW1 2946   2.893   0.569   2.568 -3.6524 -0.0090  0.1950
  737SOL    HW2 2947   3.028   0.614   2.621  0.0555 -0.5658  1.1297
  737SOL     MW 2948   2.942   0.597   2.634 -0.4694 -0.0054  0.5032
  738SOL     OW 2949   0.203   0.585   1.939 -0.0449 -0.0185 -0.5902
  738SOL    HW1 2950   0.297   0.584   1.930  0.2769 -0.0394  1.7555
  738SOL    HW2 2951   0.173   0.509   1.886  1.0326 -1.2791  0.0069
  738SOL     MW 2952   0.212   0.575   1.931  0.1397 -0.1876 -0.2019
  739SOL     OW 2953   2.486   0.994   2.070  0.1520  0.2814  0.4454
  739SOL    HW1 2954   2.402   0.952   2.040 -1.5423 -1.6327 -1.7818
  739SOL    HW2 2955   2.493   1.074   2.026 -1.9713  2.0442  0.5544
  739SOL     MW 2956   2.476   0.999   2.060 -0.3517  0.2614  0.1660
  740SOL     OW 2957   0.202   1.743   2.922 -0.0529  0.1442 -0.6423
  740SOL    HW1 2958   0.144   1.664   2.924 -4.3929 -0.8783  1.1215
  740SOL    HW2 2959   0.279   1.718   2.974 -1.0184 -1.5916  0.6895
  740SOL     MW 2960   0.204   1.729   2.929 -0.7529 -0.2197 -0.2339
  741SOL     OW 2961   2.195   1.218   2.683 -0.5706  0.8407 -0.2595
  741SOL    HW1 2962   2.162   1.295   2.635 -3.3422 -0.8795 -0.6572
  741SOL    HW2 2963   2.131   1.213   2.751 -0.1755  2.1879 -1.1947
  741SOL     MW 2964   2.182   1.227   2.685 -0.8842  0.7915 -0.4354
  742SOL     OW 2965   1.646   1.242   2.223  0.6818 -0.1989  0.5564
  742SOL    HW1 2966   1.578   1.176   2.198 -1.1981 -0.3744  0.2687
  742SOL    HW2 2967   1.673   1.232   2.317 -1.5196 -0.0792  1.4461
  742SOL     MW 2968   1.641   1.232   2.232  0.1433 -0.2063  0.6359
  743SOL     OW 2969   2.446   1.298   2.723  0.3701 -0.7511  0.0721
  743SOL    HW1 2970   2.349   1.274   2.733 -1.2193  0.4173 -0.6401
  743SOL    HW2 2971   2.501   1.237   2.758 -0.0108 -0.8036  0.8375
  743SOL     MW 2972   2.440   1.287   2.729  0.1102 -0.6039  0.0792
  744SOL     OW 2973   2.738   0.931   1.883 -0.1142  0.5235 -0.2402
  744SOL    HW1 2974   2.671   1.001   1.897 -1.2169 -2.3789 -1.4342
  744SOL    HW2 2975   2.733   0.909   1.788 -0.1767  0.9999 -0.3477
  744SOL     MW 2976   2.729   0.937   1.873 -0.2679  0.2034 -0.4119
  745SOL     OW 2977   1.746   0.416   2.505  0.1767 -0.2693  0.3880
  745SOL    HW1 2978   1.727   0.449   2.416 -0.6754 -2.4560  0.4302
  745SOL    HW2 2979   1.668   0.362   2.523 -0.1081  0.6715  1.5414
  745SOL     MW 2980   1.733   0.413   2.496  0.0267 -0.4337  0.5457
  746SOL     OW 2981   1.592   1.479   1.659  0.0165 -0.2615  0.7193
  746SOL    HW1 2982   1.668   1.529   1.674  1.7161  0.1546 -2.3959
  746SOL    HW2 2983   1.585   1.429   1.741 -0.1938 -1.7046 -0.0542
  746SOL     MW 2984   1.601   1.479   1.672  0.2130 -0.3970  0.2062
  747SOL     OW 2985   2.566   1.136   1.793  0.9118 -0.3851  0.0162
  747SOL    HW1 2986   2.479   1.132   1.750 -2.3860 -3.2401  2.4122
  747SOL    HW2 2987   2.570   1.224   1.838  0.3396  0.7102  0.5051
  747SOL     MW 2988   2.555   1.147   1.793  0.4012 -0.6173  0.3968
  748SOL     OW 2989   0.104   0.035   1.878 -0.0635 -0.2205  0.4298
  748SOL    HW1 2990   0.194   0.073   1.864  0.3756  2.4386  1.3449
  748SOL    HW2 2991   0.075   0.068   1.961 -0.0465 -1.7341  0.5670
  748SOL     MW 2992   0.112   0.044   1.887 -0.0033 -0.0694  0.5687
  749SOL     OW 2993   2.500   0.558   2.721  0.4847  0.2752 -0.0162
  749SOL    HW1 2994   2.526   0.622   2.653 -1.2565  0.7757 -1.1833
  749SOL    HW2 2995   2.483   0.609   2.806 -1.3431  1.2210 -0.0539
  749SOL     MW 2996   2.501   0.573   2.723  0.0138  0.4660 -0.1752
  750SOL     OW 2997   2.041   3.023   1.978 -0.0678  0.2663 -0.3891
  750SOL    HW1 2998   2.097   3.106   1.989  1.1785  0.4056 -1.6795
  750SOL    HW2 2999   2.107   2.950   1.974  1.2988 -1.8720  0.2575
  750SOL     MW 3000   2.057   3.025   1.979  0.2770  0.0025 -0.4741
  751SOL     OW 3001   0.060   0.429   2.353 -0.4861  0.7065  0.3837
  751SOL    HW1 3002   0.048   0.344   2.392  0.2128 -0.9272 -0.5670
  751SOL    HW2 3003   0.155   0.432   2.339 -2.1465  0.7302  1.6608
  751SOL     MW 3004   0.071   0.418   2.357 -0.6130  0.4941  0.4268
  752SOL     OW 3005   2.136   0.767   2.717 -0.0985 -0.3841  0.2764
  752SOL    HW1 3006   2.202   0.821   2.673 -1.0612  0.8752  0.1833
  752SOL    HW2 3007   2.144   0.793   2.810 -0.1819  2.9391 -0.6085
  752SOL     MW 3008   2.146   0.777   2.723 -0.2365  0.2205  0.1474
  753SOL     OW 3009   2.919   0.276   2.452 -0.4682  0.2523 -0.0963
  753SOL    HW1 3010   2.889   0.220   2.388  0.2035 -0.6212  0.6059
  753SOL    HW2 3011   2.871   0.352   2.423 -1.0550 -1.3454  0.7740
  753SOL     MW 3012   2.909   0.278   2.440 -0.4570 -0.0738  0.1112
  754SOL     OW 3013   2.256   2.964   2.593  0.4240  0.6822 -0.1118
  754SOL    HW1 3014   2.261   2.954   2.502 -3.4802 -0.3287  1.3327
  754SOL    HW2 3015   2.335   2.926   2.638  1.9629  0.2282  3.7263
  754SOL     MW 3016   2.267   2.958   2.587  0.1119  0.4889  0.5852
  755SOL     OW 3017   2.730   1.530   2.496 -0.2453  0.1679 -0.5815
  755SOL    HW1 3018   2.728   1.448   2.541 -1.1445  2.8889  0.1787
  755SOL    HW2 3019   2.808   1.573   2.545  1.1357 -2.1033 -0.6464
  755SOL     MW 3020   2.740   1.525   2.509 -0.1817  0.2273 -0.4898
  756SOL     OW 3021   2.219   1.205   3.007 -0.1504 -0.5982 -0.0354
  756SOL    HW1 3022   2.284   1.274   3.027  1.0459 -0.7283  0.5002
  756SOL    HW2 3023   2.270   1.125   3.032  0.0532 -3.2397 -0.7483
  756SOL     MW 3024   2.234   1.204   3.013  0.0343 -0.9639 -0.0588
  757SOL     OW 3025   2.124   0.941   1.578  0.0464  0.2565  0.0379
  757SOL    HW1 3026   2.153   0.847   1.577  0.5809  0.8139  0.5337
  757SOL    HW2 3027   2.028   0.947   1.554 -0.0212 -0.0638  1.1947
  757SOL     MW 3028   2.115   0.929   1.575  0.1080  0.2878  0.2559
  758SOL     OW 3029   2.210   1.726   2.659 -0.0881  0.4344 -0.0107
  758SOL    HW1 3030   2.203   1.761   2.573  2.3142  1.9930  0.9301
  758SOL    HW2 3031   2.304   1.710   2.650 -2.7670 -0.2476 -0.0430
  758SOL     MW 3032   2.222   1.728   2.647 -0.1246  0.5501  0.1091
  759SOL     OW 3033   1.622   1.360   2.662 -0.2442 -0.4095  0.4187
  759SOL    HW1 3034   1.602   1.435   2.608 -2.7474  0.2432  0.2828
  759SOL    HW2 3035   1.669   1.396   2.738 -0.8399  1.4196  0.1909
  759SOL     MW 3036   1.626   1.374   2.665 -0.6530 -0.0820  0.3707
  760SOL     OW 3037   2.620   1.983   2.716 -0.3036 -0.3000 -0.0552
  760SOL    HW1 3038   2.577   1.901   2.695  1.0422 -2.6077  0.4384
  760SOL    HW2 3039   2.599   2.046   2.643 -0.1193  1.8587 -0.8078
  760SOL     MW 3040   2.612   1.980   2.704 -0.1017 -0.3197 -0.0893
  761SOL     OW 3041   2.189   0.359   2.444 -0.0891 -0.8248 -0.1039
  761SOL    HW1 3042   2.103   0.315   2.436  1.0648 -0.0952 -0.6399
  761SOL    HW2 3043   2.200   0.392   2.531 -1.3406  0.1892 -1.5880
  761SOL     MW 3044   2.179   0.357   2.454 -0.1020 -0.5948 -0.3705
  762SOL     OW 3045   0.047   0.178   2.098  0.6551  0.0338  0.0632
  762SOL    HW1 3046   0.028   0.128   2.173  2.6348 -1.8057  1.8257
  762SOL    HW2 3047  -0.026   0.235   2.093 -0.1717  1.4305 -1.2983
  762SOL     MW 3048   0.035   0.179   2.107  0.8072 -0.0247  0.1161
  763SOL     OW 3049   2.375   1.044   2.300  0.2000 -0.8301  0.6355
  763SOL    HW1 3050   2.421   1.026   2.214 -1.1135  2.6802 -2.8219
  763SOL    HW2 3051   2.441   1.113   2.332 -0.1130  0.3726 -0.3507
  763SOL     MW 3052   2.390   1.051   2.293 -0.0146 -0.2083  0.0492
  764SOL     OW 3053   0.442   0.276   2.782 -0.3444 -0.4061  0.2536
  764SOL    HW1 3054   0.382   0.209   2.774  1.3541 -0.5488 -2.0172
  764SOL    HW2 3055   0.394   0.350   2.816  1.0991 -0.9689 -2.1391
  764SOL     MW 3056   0.427   0.277   2.786  0.0702 -0.4992 -0.3617
  765SOL     OW 3057   2.762   0.058   2.321 -0.0933 -0.3619  0.2747
  765SOL    HW1 3058   2.715   0.043   2.232  0.0462 -2.4260  1.1899
  765SOL    HW2 3059   2.781  -0.034   2.341 -1.3107  0.7062 -1.9386
  765SOL     MW 3060   2.759   0.044   2.312 -0.2356 -0.4933  0.1034
  766SOL     OW 3061   1.827   2.978   2.167  0.8037  0.1217 -0.4553
  766SOL    HW1 3062   1.884   3.014   2.102  1.7566 -0.5862  0.0453
  766SOL    HW2 3063   1.779   2.902   2.120 -2.3208 -0.2447 -2.4580
  766SOL     MW 3064   1.828   2.973   2.152  0.5172 -0.0200 -0.6535
  767SOL     OW 3065   2.647   0.612   1.903 -0.0239 -0.6049  0.5168
  767SOL    HW1 3066   2.694   0.676   1.953 -1.4384 -0.2274  0.1957
  767SOL    HW2 3067   2.559   0.603   1.940 -0.3807  0.5012  0.7046
  767SOL     MW 3068   2.642   0.619   1.915 -0.2576 -0.4091  0.4992
  768SOL     OW 3069   0.002   1.553   2.953 -0.0729 -0.0434 -0.3470
  768SOL    HW1 3070   0.043   1.535   3.039  3.6934 -1.4015  0.5010
  768SOL    HW2 3071   0.024   1.490   2.886  0.4619  1.7805  1.8064
  768SOL     MW 3072   0.010   1.542   2.956  0.4946  0.0180  0.0490
  769SOL     OW 3073   2.449   0.651   2.328  0.5746 -0.3328  0.0373
  769SOL    HW1 3074   2.364   0.620   2.325  3.3606 -0.4769  1.7175
  769SOL    HW2 3075   2.492   0.585   2.280 -1.8711  1.0267 -0.0690
  769SOL     MW 3076   2.443   0.638   2.321  0.6195 -0.1724  0.2450
  770SOL     OW 3077   0.105   1.596   2.611 -0.3878 -0.2006  0.5050
  770SOL    HW1 3078   0.005   1.597   2.610  0.9276 -1.5823 -1.6447
  770SOL    HW2 3079   0.130   1.512   2.647 -1.5537  0.2853 -2.2625
  770SOL     MW 3080   0.095   1.585   2.616 -0.3681 -0.3188 -0.1438
  771SOL     OW 3081   3.028   0.643   1.972  0.8729  0.4388  0.5187
  771SOL    HW1 3082   2.988   0.652   1.886  2.0632 -0.1265  2.7233
  771SOL    HW2 3083   3.123   0.626   1.964 -1.5305 -2.9879  0.3654
  771SOL     MW 3084   3.035   0.642   1.960  0.7128 -0.0879  0.7893
  772SOL     OW 3085   3.082   0.006   2.331  0.0195  0.1658  0.5212
  772SOL    HW1 3086   2.990  -0.019   2.323 -0.2499  1.6872  0.7609
  772SOL    HW2 3087   3.141  -0.063   2.300 -1.4407  1.5955  0.6543
  772SOL     MW 3088   3.078  -0.006   2.326 -0.2087  0.5552  0.5704
  773SOL     OW 3089   2.470   2.845   2.743  0.1786 -0.0735 -0.3951
  773SOL    HW1 3090   2.500   2.762   2.708 -0.0607  0.8302  2.5846
  773SOL    HW2 3091   2.456   2.821   2.837  0.6272  0.7326  0.0272
  773SOL     MW 3092   2.472   2.831   2.751  0.2062  0.1521  0.0538
  774SOL     OW 3093   2.317   1.123   1.710 -0.0955  0.2004 -0.3251
  774SOL    HW1 3094   2.306   1.215   1.674 -1.0560  2.2329  1.4402
  774SOL    HW2 3095   2.250   1.070   1.663  1.1160  3.9734  0.3474
  774SOL     MW 3096   2.306   1.128   1.699 -0.0624  0.9663 -0.0035
  775SOL     OW 3097   2.273   2.905   2.316 -0.2006 -0.2427 -0.2010
  775SOL    HW1 3098   2.313   2.975   2.261  2.9513 -0.6596 -0.4590
  775SOL    HW2 3099   2.325   2.825   2.293  1.4330 -0.2921 -1.7999
  775SOL     MW 3100   2.285   2.904   2.305  0.4308 -0.3043 -0.4460
  776SOL     OW 3101   0.104   1.480   0.095  0.6652 -0.4891  0.4453
  776SOL    HW1 3102   0.181   1.440   0.072 -3.2106  0.8780  0.5411
  776SOL    HW2 3103   0.048   1.402   0.093 -1.2900 -0.3821 -2.4208
  776SOL     MW 3104   0.107   1.464   0.091 -0.1042 -0.2946  0.0798
  777SOL     OW 3105   2.957   1.087   1.774 -0.1979  0.6375 -0.1012
  777SOL    HW1 3106   2.888   1.129   1.727  1.1520 -1.0486 -1.7263
  777SOL    HW2 3107   2.913   1.020   1.823 -1.5885 -0.6258  1.5077
  777SOL     MW 3108   2.942   1.083   1.775 -0.2033  0.2483 -0.1033
  778SOL     OW 3109   2.901   0.404   2.837 -0.4033  0.3696  0.4430
  778SOL    HW1 3110   2.831   0.432   2.892  0.0901 -0.8351 -0.6994
  778SOL    HW2 3111   2.899   0.469   2.761 -1.1235  0.3084  1.3087
  778SOL     MW 3112   2.892   0.416   2.834 -0.4332  0.2026  0.4065
  779SOL     OW 3113   2.144   0.615   2.338  0.2282  0.2927  0.1844
  779SOL    HW1 3114   2.102   0.673   2.407  0.9652 -2.5147 -3.5034
  779SOL    HW2 3115   2.163   0.532   2.370  0.5550  2.1470  0.5032
  779SOL     MW 3116   2.141   0.612   2.351  0.3685  0.1669 -0.2601
  780SOL     OW 3117   0.232   0.082   2.778  0.0849 -0.3214 -0.7391
  780SOL    HW1 3118   0.182   0.149   2.826  0.4035  0.4700 -0.7476
  780SOL    HW2 3119   0.214   0.095   2.688  1.8445  3.3000  0.9984
  780SOL     MW 3120   0.223   0.092   2.773  0.3591  0.2608 -0.5109
  781SOL     OW 3121   3.029   1.293   2.488  0.6839 -0.2480 -0.0061
  781SOL    HW1 3122   3.022   1.351   2.414  1.0861  1.1881 -0.2997
  781SOL    HW2 3123   3.042   1.207   2.448 -1.9408 -2.0011 -0.1137
  781SOL     MW 3124   3.030   1.289   2.473  0.3907 -0.2899 -0.0590
  782SOL     OW 3125   0.579   1.514   3.055 -0.8031  0.1185  0.0162
  782SOL    HW1 3126   0.554   1.600   3.020 -3.1538  1.3551 -2.3507
  782SOL    HW2 3127   0.546   1.510   3.141  1.9490 -1.4365 -1.8450
  782SOL     MW 3128   0.571   1.525   3.062 -0.7501  0.0765 -0.5416
  783SOL     OW 3129   2.757   0.499   2.454  0.9805 -0.2372 -0.3279
  783SOL    HW1 3130   2.697   0.500   2.378  1.1230 -0.1136 -0.3534
  783SOL    HW2 3131   2.707   0.447   2.517  2.3387 -0.8233 -0.2598
  783SOL     MW 3132   2.742   0.492   2.452  1.1785 -0.2982 -0.3223
  784SOL     OW 3133   0.300   0.932   2.883  0.1244  0.3683  0.0542
  784SOL    HW1 3134   0.224   0.974   2.918  0.3278 -2.3425 -3.2964
  784SOL    HW2 3135   0.321   0.989   2.801 -1.2496  2.6578 -0.7909
  784SOL     MW 3136   0.293   0.945   2.877 -0.0300  0.3127 -0.4994
  785SOL     OW 3137   0.439   0.556   2.179  0.0747  0.1383  0.1168
  785SOL    HW1 3138   0.466   0.565   2.082 -0.0487 -0.9256  0.6552
  785SOL    HW2 3139   0.364   0.493   2.172  2.7333 -2.4451 -1.5575
  785SOL     MW 3140   0.433   0.549   2.165  0.4092 -0.3429 -0.0331
  786SOL     OW 3141   1.985   0.469   2.824  0.2252  0.0981  0.1164
  786SOL    HW1 3142   2.002   0.465   2.917  0.5399 -1.3654 -3.2067
  786SOL    HW2 3143   2.065   0.459   2.770  3.0798  0.9998 -4.6616
  786SOL     MW 3144   1.998   0.467   2.829  0.6434  0.0240 -0.9524
  787SOL     OW 3145   2.434   0.145   2.945  0.1592 -0.3493 -0.2796
  787SOL    HW1 3146   2.484   0.077   2.892 -0.5448 -3.8962  1.7909
  787SOL    HW2 3147   2.494   0.218   2.953 -0.7174  1.5469  1.3690
  787SOL     MW 3148   2.449   0.145   2.939 -0.0494 -0.5671  0.2111
  788SOL     OW 3149   2.860   2.908   2.370  0.0537 -0.6940 -0.3031
  788SOL    HW1 3150   2.819   2.830   2.327  2.2421 -0.8629  0.8580
  788SOL    HW2 3151   2.928   2.862   2.413 -0.4939  1.8214 -2.7490
  788SOL     MW 3152   2.864   2.892   2.370  0.2702 -0.3844 -0.4726
  789SOL     OW 3153   0.111   0.275   2.950 -0.5634  0.2726  0.1782
  789SOL    HW1 3154   0.027   0.242   2.973  1.2582  0.3214 -1.0418
  789SOL    HW2 3155   0.114   0.373   2.945 -1.9291 -0.4465  0.6738
  789SOL     MW 3156   0.101   0.283   2.952 -0.5033  0.1842  0.0826
  790SOL     OW 3157   3.064   1.031   2.418  0.2432  0.2581  0.1345
  790SOL    HW1 3158   3.018   0.961   2.473 -0.5574 -1.5714 -1.3447
  790SOL    HW2 3159   3.025   1.013   2.331  1.1283 -0.7239  3.5172
  790SOL     MW 3160   3.053   1.020   2.414  0.2544 -0.1128  0.3857
  791SOL     OW 3161   2.671   0.349   2.678 -0.8953  0.6925  0.6527
  791SOL    HW1 3162   2.607   0.420   2.709 -0.2214  3.3286  0.0185
  791SOL    HW2 3163   2.741   0.361   2.742 -1.5887  0.2825  1.9830
  791SOL     MW 3164   2.671   0.360   2.691 -0.8979  0.9862  0.7446
  792SOL     OW 3165   2.400   0.231   2.345 -0.0006  0.1507  0.3243
  792SOL    HW1 3166   2.337   0.298   2.363  1.3237  0.2807 -0.1422
  792SOL    HW2 3167   2.443   0.216   2.428  3.6393  1.4780  3.0105
  792SOL     MW 3168   2.397   0.238   2.358  0.6544  0.3430  0.6172
  793SOL     OW 3169   1.826   1.061   1.940 -0.3908 -0.3322 -0.1324
  793SOL    HW1 3170   1.787   1.075   1.849 -4.1366  2.0402 -0.5344
  793SOL    HW2 3171   1.907   1.019   1.919 -3.1120  3.1218 -4.5915
  793SOL     MW 3172   1.832   1.057   1.925 -1.2441  0.4366 -0.7737
  794SOL     OW 3173   1.465   2.248   0.159  0.5465 -0.3161 -0.9217
  794SOL    HW1 3174   1.468   2.319   0.090  0.2145  1.0016  1.7774
  794SOL    HW2 3175   1.523   2.283   0.230  1.2014  0.9290 -0.9421
  794SOL     MW 3176   1.473   2.262   0.160  0.5891  0.0220 -0.5683
  795SOL     OW 3177   2.312   0.946   2.607 -0.3366 -0.2585  0.6337
  795SOL    HW1 3178   2.307   1.033   2.642 -1.0733  0.6152 -1.7923
  795SOL    HW2 3179   2.345   0.969   2.520 -0.0640 -0.6302 -2.3218
  795SOL     MW 3180   2.315   0.961   2.600 -0.3978 -0.1923 -0.0763
  796SOL     OW 3181   0.251   0.646   2.768 -0.0988  0.0116  0.1773
  796SOL    HW1 3182   0.240   0.728   2.814 -0.1474  0.0281  1.6932
  796SOL    HW2 3183   0.189   0.634   2.692  0.3834 -1.6186  0.2458
  796SOL     MW 3184   0.242   0.655   2.764 -0.0416 -0.2013  0.3864
  797SOL     OW 3185   2.602   0.122   2.532  0.3634 -0.0312 -0.1823
  797SOL    HW1 3186   2.643   0.198   2.558 -0.4835  2.1746 -1.1927
  797SOL    HW2 3187   2.655   0.099   2.452 -1.3136  1.3134 -0.2710
  797SOL     MW 3188   2.615   0.129   2.525  0.0304  0.4372 -0.3273
  798SOL     OW 3189   2.365   0.023   2.184 -0.4471 -0.5128  0.2226
  798SOL    HW1 3190   2.374   0.086   2.259  2.7215  1.2925 -1.9404
  798SOL    HW2 3191   2.448   0.004   2.139  0.6352 -1.2105 -1.0095
  798SOL     MW 3192   2.377   0.029   2.188  0.1138 -0.3666 -0.2253
  799SOL     OW 3193   2.453   2.940   0.171  0.1328  0.0861  0.1287
  799SOL    HW1 3194   2.428   2.865   0.121 -1.3577  0.7028  0.8102
  799SOL    HW2 3195   2.393   3.003   0.135 -0.2406 -1.5671  1.2276
  799SOL     MW 3196   2.442   2.939   0.159 -0.1132 -0.0506  0.3636
  800SOL     OW 3197   1.840   3.074   1.788  0.5835 -0.2438  0.4006
  800SOL    HW1 3198   1.780   3.009   1.821 -1.3547 -0.1137 -0.6917
  800SOL    HW2 3199   1.911   3.074   1.857 -0.9857  0.3896  1.4951
  800SOL     MW 3200   1.842   3.065   1.802  0.1208 -0.1430  0.4009
  801SOL     OW 3201   2.792   1.271   2.644  0.1452 -0.4597 -0.5194
  801SOL    HW1 3202   2.746   1.191   2.609  1.4864 -0.9391  4.0231
  801SOL    HW2 3203   2.869   1.285   2.582 -1.4384 -0.8949  1.2615
  801SOL     MW 3204   2.796   1.262   2.632  0.1132 -0.5804  0.3149
  802SOL     OW 3205   2.556   1.541   2.810  0.0418 -0.2333 -0.0080
  802SOL    HW1 3206   2.524   1.462   2.762  1.0141 -4.0677  1.2514
  802SOL    HW2 3207   2.659   1.551   2.814 -0.7670  1.8499  0.1502
  802SOL     MW 3208   2.566   1.532   2.804  0.0633 -0.4643  0.1790
  803SOL     OW 3209   2.323   1.308   1.971 -0.1036 -0.7064  0.0968
  803SOL    HW1 3210   2.289   1.290   2.056  0.1226  1.2206  1.4746
  803SOL    HW2 3211   2.277   1.259   1.903  2.2301 -2.6685  1.1141
  803SOL     MW 3212   2.312   1.299   1.973  0.2341 -0.7110  0.4128
  804SOL     OW 3213   2.307   0.051   0.077  0.0964  0.8509 -0.4921
  804SOL    HW1 3214   2.233   0.114   0.079 -0.2363  0.2471  1.7061
  804SOL    HW2 3215   2.351   0.088  -0.003 -1.9189 -0.5580 -0.4894
  804SOL     MW 3216   2.303   0.064   0.067 -0.2134  0.5853 -0.2017
  805SOL     OW 3217   2.693   1.046   2.536 -0.7661  0.3578  0.3268
  805SOL    HW1 3218   2.641   0.981   2.579  0.2360  0.4112 -0.0940
  805SOL    HW2 3219   2.774   0.992   2.541 -0.3266 -0.4383 -0.1505
  805SOL     MW 3220   2.697   1.030   2.542 -0.5759  0.2598  0.2083
  806SOL     OW 3221   2.569   0.415   2.245 -0.1084  0.6651  0.3454
  806SOL    HW1 3222   2.514   0.332   2.258 -0.0609  1.4866  0.4029
  806SOL    HW2 3223   2.587   0.415   2.149  1.6710 -0.0148  0.1002
  806SOL     MW 3224   2.564   0.404   2.234  0.1326  0.6838  0.3206
  807SOL     OW 3225   3.089   1.110   2.100  0.4249 -0.1922  0.4168
  807SOL    HW1 3226   3.132   1.043   2.054  0.0418  2.4458  0.9536
  807SOL    HW2 3227   2.993   1.076   2.113 -0.0518  1.1600  2.2931
  807SOL     MW 3228   3.082   1.097   2.095  0.3114  0.3342  0.7352
  808SOL     OW 3229   2.581   3.088   2.789  0.1646 -0.7679  0.1025
  808SOL    HW1 3230   2.537   3.006   2.769 -1.9596  2.5307 -0.7347
  808SOL    HW2 3231   2.586   3.131   2.708 -1.2993 -1.1090 -0.5875
  808SOL     MW 3232   2.576   3.083   2.776 -0.3088 -0.3776 -0.0990
  809SOL     OW 3233   2.541   1.228   2.398 -0.0481 -0.3210  0.4948
  809SOL    HW1 3234   2.581   1.167   2.453 -3.1049 -0.7829 -1.5894
  809SOL    HW2 3235   2.596   1.237   2.319  2.1536 -0.9294  0.9532
  809SOL     MW 3236   2.554   1.221   2.395 -0.1609 -0.4622  0.2803
  810SOL     OW 3237   2.201   1.252   2.208 -0.4171 -0.0095 -0.5499
  810SOL    HW1 3238   2.252   1.176   2.238  0.3663  0.7939 -1.6711
  810SOL    HW2 3239   2.110   1.215   2.203  2.9298 -1.2290 -1.4172
  810SOL     MW 3240   2.196   1.237   2.211  0.1279 -0.0644 -0.8122
  811SOL     OW 3241   1.520   0.086   2.295  0.0817 -0.3241 -0.1125
  811SOL    HW1 3242   1.606   0.042   2.317  4.4885 -1.4045  0.3295
  811SOL    HW2 3243   1.520   0.091   2.196  4.7981 -3.4117 -2.8403
  811SOL     MW 3244   1.532   0.081   2.285  1.2854 -0.8740 -0.4141
  812SOL     OW 3245   1.452   2.777   2.046  0.0296  0.3460  0.0408
  812SOL    HW1 3246   1.549   2.774   2.054  0.8507  0.9348  3.7536
  812SOL    HW2 3247   1.422   2.785   2.139 -0.9497 -1.0359 -0.3676
  812SOL     MW 3248   1.461   2.778   2.060  0.0087  0.2414  0.4768
  813SOL     OW 3249   1.794   0.708   2.212 -0.1232 -0.0142 -0.0090
  813SOL    HW1 3250   1.764   0.622   2.247  0.4877  3.2406  2.9352
  813SOL    HW2 3251   1.839   0.738   2.293 -4.7808 -0.1215  1.1344
  813SOL     MW 3252   1.796   0.701   2.227 -0.6571  0.4011  0.5303
  814SOL     OW 3253   2.752   1.255   1.629 -0.0119  0.3676 -0.2685
  814SOL    HW1 3254   2.661   1.225   1.656  1.2336 -1.6023  3.2085
  814SOL    HW2 3255   2.761   1.214   1.543 -1.0048  1.6731 -2.2267
  814SOL     MW 3256   2.741   1.245   1.621  0.0214  0.2799 -0.0681
  815SOL     OW 3257   2.505   1.663   2.392 -0.1335 -0.6157  0.2016
  815SOL    HW1 3258   2.438   1.598   2.402 -0.8569  4.0114 -0.7374
  815SOL    HW2 3259   2.583   1.613   2.426  1.2074 -1.4470  1.4929
  815SOL     MW 3260   2.507   1.648   2.398 -0.0520 -0.1149  0.2481
  816SOL     OW 3261   0.755   0.652   2.745 -0.0488  0.2252 -0.4673
  816SOL    HW1 3262   0.758   0.618   2.831  1.7222  1.5848 -1.4143
  816SOL    HW2 3263   0.664   0.642   2.713 -0.5815  1.6715 -3.1728
  816SOL     MW 3264   0.744   0.646   2.752  0.1146  0.5954 -0.9492
  817SOL     OW 3265   3.054   1.162   1.371 -0.1690 -0.0912  0.0895
  817SOL    HW1 3266   3.082   1.166   1.464  0.3643 -1.8052 -1.0024
  817SOL    HW2 3267   3.046   1.251   1.334  1.7120 -1.5198 -0.7153
  817SOL     MW 3268   3.056   1.174   1.379  0.1495 -0.5058 -0.1607
  818SOL     OW 3269   1.907   1.029   2.727  0.1133  0.4340 -0.2434
  818SOL    HW1 3270   1.938   1.084   2.657 -0.8999 -0.8237 -2.2685
  818SOL    HW2 3271   1.959   0.946   2.718 -3.7324 -0.5947 -2.6672
  818SOL     MW 3272   1.918   1.025   2.717 -0.5278  0.1323 -0.8304
  819SOL     OW 3273   1.966   0.237   2.470 -0.2382  0.0278 -0.9517
  819SOL    HW1 3274   1.903   0.302   2.498  0.6645 -4.3667  1.9556
  819SOL    HW2 3275   2.003   0.207   2.557 -1.2310  0.5302 -0.8689
  819SOL     MW 3276   1.962   0.242   2.485 -0.2501 -0.4857 -0.5572
  820SOL     OW 3277   2.480   1.748   2.650  0.2274  0.0573 -0.0977
  820SOL    HW1 3278   2.510   1.688   2.718 -1.2732  0.7599  2.3049
  820SOL    HW2 3279   2.503   1.706   2.571 -0.7141  3.0839  0.7375
  820SOL     MW 3280   2.487   1.735   2.649 -0.0948  0.5493  0.3295
  821SOL     OW 3281   2.599   1.349   1.970  0.0230  0.3176 -0.3115
  821SOL    HW1 3282   2.619   1.439   1.936 -1.0744 -0.6460 -3.5502
  821SOL    HW2 3283   2.503   1.341   1.977  1.4257 -2.5814 -0.4845
  821SOL     MW 3284   2.589   1.360   1.967  0.0633 -0.1920 -0.7617
  822SOL     OW 3285   2.841   2.684   1.458  0.3752  0.2462 -0.3666
  822SOL    HW1 3286   2.883   2.710   1.538 -5.1826 -0.4818  0.3126
  822SOL    HW2 3287   2.795   2.755   1.420  0.6733 -0.3248 -0.8849
  822SOL     MW 3288   2.841   2.697   1.464 -0.3187  0.0748 -0.3454
  823SOL     OW 3289   2.265   0.454   1.804  0.2082  0.3858  0.7821
  823SOL    HW1 3290   2.342   0.444   1.741  1.0783 -3.0349  0.5563
  823SOL    HW2 3291   2.210   0.374   1.777  2.9647 -1.1704  0.9305
  823SOL     MW 3292   2.268   0.442   1.792  0.6867 -0.2709  0.7719
  824SOL     OW 3293   2.089   1.401   2.506  0.3531 -0.0201  0.8330
  824SOL    HW1 3294   2.174   1.415   2.471 -1.0097 -2.1644 -4.9086
  824SOL    HW2 3295   2.047   1.478   2.540 -0.7966  1.0251  0.2445
  824SOL     MW 3296   2.095   1.413   2.505  0.0216 -0.1651 -0.0022
  825SOL     OW 3297   2.084   2.547   0.361  0.3731 -0.2143  0.2664
  825SOL    HW1 3298   2.017   2.489   0.389  0.5617  2.4416 -1.0855
  825SOL    HW2 3299   2.156   2.499   0.318  4.5126 -0.0765  0.9953
  825SOL     MW 3300   2.085   2.533   0.359  0.9442  0.1543  0.1842
  826SOL     OW 3301   1.863   2.390   0.473 -1.0263  0.3758  0.0611
  826SOL    HW1 3302   1.836   2.307   0.516 -3.0230 -0.4839 -2.5420
  826SOL    HW2 3303   1.825   2.453   0.537  0.3981 -0.3099 -2.3831
  826SOL     MW 3304   1.854   2.387   0.487 -1.1018  0.1719 -0.6049
  827SOL     OW 3305   1.960   2.169   0.839  0.1377 -0.0541 -0.1345
  827SOL    HW1 3306   1.886   2.193   0.778 -0.8613  0.7436  1.8058
  827SOL    HW2 3307   1.909   2.102   0.895  4.1609  0.6522  1.9515
  827SOL     MW 3308   1.943   2.163   0.838  0.5367  0.1443  0.3967
  828SOL     OW 3309   0.051   2.618   0.506  0.3680 -0.3356  0.2109
  828SOL    HW1 3310   0.141   2.616   0.527 -1.0689  0.5168  0.3826
  828SOL    HW2 3311   0.036   2.681   0.433  1.2592 -1.6724 -0.8181
  828SOL     MW 3312   0.061   2.626   0.499  0.2960 -0.3995  0.0978
  829SOL     OW 3313   3.004   2.924   1.208 -0.0711 -0.2719  0.0449
  829SOL    HW1 3314   2.942   2.917   1.140  0.0181 -1.2366 -0.7218
  829SOL    HW2 3315   3.059   2.841   1.203  0.0439 -3.0502  0.0982
  829SOL     MW 3316   3.003   2.912   1.199 -0.0442 -0.7657 -0.0492
  830SOL     OW 3317   2.511   2.849   2.028  0.1104 -0.2241 -0.3130
  830SOL    HW1 3318   2.411   2.856   2.005 -2.2318  0.2384 -2.8162
  830SOL    HW2 3319   2.554   2.823   1.945  2.5990 -0.5847  3.5989
  830SOL     MW 3320   2.504   2.846   2.014  0.1297 -0.2107 -0.1272
  831SOL     OW 3321   2.420   2.443   1.232  0.0835 -0.4504 -0.4911
  831SOL    HW1 3322   2.394   2.360   1.276  4.2883  2.1895  2.5750
  831SOL    HW2 3323   2.515   2.432   1.222  2.2510  0.2270  0.0196
  831SOL     MW 3324   2.429   2.430   1.237  0.9243 -0.0127 -0.0192
  832SOL     OW 3325   2.385   2.125   1.794  0.5218 -0.1732 -0.5593
  832SOL    HW1 3326   2.404   2.218   1.819 -0.4712  1.2637  0.5931
  832SOL    HW2 3327   2.474   2.102   1.777  0.1323  1.6083  0.1597
  832SOL     MW 3328   2.399   2.134   1.795  0.3394  0.2515 -0.3124
  833SOL     OW 3329   1.772   2.512   0.925 -0.0573  0.8762 -0.4298
  833SOL    HW1 3330   1.683   2.458   0.932 -2.6985 -0.5122  6.2279
  833SOL    HW2 3331   1.787   2.556   1.006 -1.8817 -1.0997  2.5023
  833SOL     MW 3332   1.762   2.511   0.937 -0.6465  0.4323  0.8355
  834SOL     OW 3333   2.251   2.396   0.578  0.4377 -0.8411  0.3723
  834SOL    HW1 3334   2.189   2.322   0.590  1.7571 -1.1813  0.0659
  834SOL    HW2 3335   2.306   2.382   0.497 -0.3809 -0.9382  2.2471
  834SOL     MW 3336   2.250   2.384   0.569  0.5038 -0.8988  0.5792
  835SOL     OW 3337   1.835   2.585   0.672 -0.7385  0.1421 -0.1101
  835SOL    HW1 3338   1.816   2.541   0.759  1.0713  0.0321  1.0397
  835SOL    HW2 3339   1.848   2.675   0.701  0.2241 -2.5357 -0.1304
  835SOL     MW 3340   1.834   2.591   0.687 -0.3727 -0.2257  0.0389
  836SOL     OW 3341   2.047   2.208   1.621  0.4713  0.0939 -0.1959
  836SOL    HW1 3342   2.124   2.156   1.591  1.0669 -0.1471  1.5307
  836SOL    HW2 3343   2.081   2.253   1.700  2.1339  2.2115 -1.2094
  836SOL     MW 3344   2.062   2.207   1.628  0.7693  0.3415 -0.1018
  837SOL     OW 3345   2.045   0.158   0.709  0.6030  0.1200 -0.4719
  837SOL    HW1 3346   1.986   0.212   0.649  1.6432 -0.0160  0.5004
  837SOL    HW2 3347   2.095   0.115   0.640 -3.1510 -0.2535  0.5003
  837SOL     MW 3348   2.044   0.159   0.692  0.2450  0.0528 -0.2154
  838SOL     OW 3349   2.864   2.059   0.952  0.1344  0.2282  0.4252
  838SOL    HW1 3350   2.824   1.975   0.972  0.3151  1.9689  0.9346
  838SOL    HW2 3351   2.949   2.057   0.988 -0.9532 -0.6466 -0.6735
  838SOL     MW 3352   2.870   2.047   0.959  0.0147  0.3425  0.3475
  839SOL     OW 3353   1.530   2.401   0.950 -0.0862 -0.1002  0.1198
  839SOL    HW1 3354   1.505   2.474   1.005  2.1713  2.0564 -0.6428
  839SOL    HW2 3355   1.574   2.338   1.009 -1.1759 -1.4526 -0.2163
  839SOL     MW 3356   1.532   2.402   0.965  0.0679  0.0059 -0.0251
  840SOL     OW 3357   2.259   2.100   2.429  0.4102  0.6464  0.4702
  840SOL    HW1 3358   2.241   2.165   2.352  0.8976  3.6589 -3.0084
  840SOL    HW2 3359   2.317   2.148   2.487 -0.5772  2.1305  1.7838
  840SOL     MW 3360   2.265   2.115   2.426  0.3442  1.2397  0.1845
  841SOL     OW 3361   2.270   2.433   0.058  0.6012 -0.1232  0.2478
  841SOL    HW1 3362   2.295   2.496  -0.004 -0.7405 -2.7159  1.5386
  841SOL    HW2 3363   2.196   2.388   0.018  0.0872  0.9879  1.6621
  841SOL     MW 3364   2.264   2.435   0.044  0.3563 -0.3187  0.6047
  842SOL     OW 3365   2.665   2.010   1.474  0.0412 -0.1353 -0.6436
  842SOL    HW1 3366   2.620   1.930   1.495 -3.8894 -0.8918 -1.3991
  842SOL    HW2 3367   2.631   2.030   1.391  0.9155 -1.9720  3.2563
  842SOL     MW 3368   2.655   2.002   1.466 -0.3621 -0.4774 -0.2287
  843SOL     OW 3369   2.626   2.789   1.789  0.2938 -0.2907  0.0898
  843SOL    HW1 3370   2.713   2.750   1.803  0.4194 -0.8601 -1.1421
  843SOL    HW2 3371   2.576   2.721   1.742 -2.9824 -0.7535 -0.1801
  843SOL     MW 3372   2.631   2.775   1.785 -0.1219 -0.4269 -0.1083
  844SOL     OW 3373   2.678   2.347   1.179  0.9616 -0.1700 -0.2825
  844SOL    HW1 3374   2.732   2.378   1.107 -0.2874  0.8788 -0.1200
  844SOL    HW2 3375   2.734   2.360   1.260 -1.0596  0.3781 -1.6821
  844SOL     MW 3376   2.693   2.353   1.180  0.5302  0.0407 -0.4457
  845SOL     OW 3377   2.861   2.583   0.355 -0.0619  0.4160 -0.1014
  845SOL    HW1 3378   2.815   2.505   0.349 -0.1142  2.7348 -0.5329
  845SOL    HW2 3379   2.820   2.637   0.421  0.1548  1.3083 -0.5634
  845SOL     MW 3380   2.850   2.580   0.363 -0.0402  0.8397 -0.2193
  846SOL     OW 3381   1.509   2.803   0.832  0.4244  0.1346  0.4302
  846SOL    HW1 3382   1.586   2.860   0.813  0.9191  2.2533 -1.2748
  846SOL    HW2 3383   1.429   2.846   0.802 -0.1742 -0.2039 -4.1968
  846SOL     MW 3384   1.508   2.816   0.826  0.4107  0.3694 -0.4052
  847SOL     OW 3385   2.463   1.909   0.187  0.0182 -0.1358 -0.0166
  847SOL    HW1 3386   2.494   1.820   0.220  0.7018  0.9321 -1.1509
  847SOL    HW2 3387   2.428   1.877   0.101  0.8562 -0.2096 -1.2887
  847SOL     MW 3388   2.463   1.893   0.180  0.2190 -0.0047 -0.3341
  848SOL     OW 3389   2.551   2.100   1.186 -0.5408  0.0101 -0.9334
  848SOL    HW1 3390   2.604   2.179   1.173 -0.8858  1.0647 -1.0593
  848SOL    HW2 3391   2.536   2.062   1.100 -0.7241  1.0261 -1.1617
  848SOL     MW 3392   2.556   2.105   1.172 -0.6105  0.2833 -0.9801
  849SOL     OW 3393   2.051   2.806   0.801 -0.4594 -0.1807  0.1531
  849SOL    HW1 3394   2.069   2.757   0.880  1.5848  1.6133 -0.1107
  849SOL    HW2 3395   2.109   2.765   0.731 -0.2380 -2.1420  0.6890
  849SOL     MW 3396   2.061   2.794   0.802 -0.1605 -0.2028  0.1890
  850SOL     OW 3397   2.270   1.798   1.632  1.0737  0.1372 -0.0686
  850SOL    HW1 3398   2.194   1.757   1.596 -2.1002  1.4320  2.6029
  850SOL    HW2 3399   2.264   1.894   1.599  1.3586 -0.6098 -2.8648
  850SOL     MW 3400   2.259   1.805   1.623  0.6925  0.2094 -0.0851
  851SOL     OW 3401   2.380   2.354   0.292 -0.3920  0.0472 -0.1536
  851SOL    HW1 3402   2.337   2.362   0.206 -2.9864 -0.7925  0.4694
  851SOL    HW2 3403   2.477   2.357   0.276  0.1811  1.2557 -1.1465
  851SOL     MW 3404   2.387   2.356   0.278 -0.6587  0.0959 -0.2024
  852SOL     OW 3405   2.342   2.084   0.331  0.0657 -0.3933 -0.6121
  852SOL    HW1 3406   2.372   2.171   0.305  1.4948  0.0455  0.4150
  852SOL    HW2 3407   2.389   2.011   0.286  0.8176 -0.6308  1.7307
  852SOL     MW 3408   2.352   2.086   0.321  0.3534 -0.3667 -0.1675
  853SOL     OW 3409   2.460   2.377   1.885  0.1333 -0.9470  0.0811
  853SOL    HW1 3410   2.460   2.445   1.818  1.2310 -1.9701  1.7034
  853SOL    HW2 3411   2.537   2.385   1.943 -0.5853 -0.6000 -1.3966
  853SOL     MW 3412   2.470   2.387   1.884  0.1833 -1.0362  0.1002
  854SOL     OW 3413   2.846   2.239   0.731 -0.0713 -0.3550 -0.0449
  854SOL    HW1 3414   2.753   2.226   0.699  0.6567 -0.7653 -1.1733
  854SOL    HW2 3415   2.862   2.162   0.790 -2.2726 -1.3815 -1.6871
  854SOL     MW 3416   2.836   2.227   0.734 -0.2657 -0.5446 -0.4105
  855SOL     OW 3417   2.697   2.359   0.350  0.4372 -0.0069  0.3887
  855SOL    HW1 3418   2.655   2.386   0.437 -0.8581 -0.8307  1.8370
  855SOL    HW2 3419   2.736   2.273   0.365  0.3671  0.7572 -1.2285
  855SOL     MW 3420   2.697   2.351   0.364  0.2571 -0.0147  0.3664
  856SOL     OW 3421   2.143   1.908   0.241 -0.3649 -0.6873 -0.2267
  856SOL    HW1 3422   2.064   1.932   0.290  1.8908  0.1602  1.1533
  856SOL    HW2 3423   2.206   1.949   0.298 -2.0486 -0.3904  0.6922
  856SOL     MW 3424   2.141   1.917   0.255 -0.2894 -0.5363  0.0766
  857SOL     OW 3425   2.468   1.960   0.527  0.2763 -0.4145 -0.0622
  857SOL    HW1 3426   2.413   2.006   0.459 -1.7894 -0.2769  0.1403
  857SOL    HW2 3427   2.413   1.944   0.610  0.4062  3.4711  0.6627
  857SOL     MW 3428   2.453   1.964   0.529  0.0209  0.1164  0.0602
  858SOL     OW 3429   2.908   2.673   1.786  0.2846 -0.3411  0.2582
  858SOL    HW1 3430   3.004   2.694   1.796 -0.2006 -1.3294  1.4948
  858SOL    HW2 3431   2.902   2.577   1.787 -1.0465 -1.1514 -1.5198
  858SOL     MW 3432   2.920   2.663   1.788  0.0450 -0.5784  0.1868
  859SOL     OW 3433   2.059   2.650   1.059 -1.3398  0.5231  0.6224
  859SOL    HW1 3434   2.076   2.555   1.054 -2.5531 -1.4355  1.0956
  859SOL    HW2 3435   2.139   2.693   1.098 -2.0749  2.8903  1.5473
  859SOL     MW 3436   2.072   2.643   1.063 -1.5969  0.5770  0.8068
  860SOL     OW 3437   2.681   2.643   0.134 -0.2256  0.2309  0.2672
  860SOL    HW1 3438   2.726   2.668   0.223 -0.2752  0.5059  1.2627
  860SOL    HW2 3439   2.681   2.725   0.074 -1.2950  0.5971  0.9846
  860SOL     MW 3440   2.687   2.657   0.138 -0.3732  0.3155  0.4932
  861SOL     OW 3441   1.631   2.175   1.110  0.1235  0.2345  0.2671
  861SOL    HW1 3442   1.663   2.228   1.180 -1.3825  0.9327  1.2815
  861SOL    HW2 3443   1.578   2.105   1.153  0.1099 -1.3736 -0.3522
  861SOL     MW 3444   1.628   2.173   1.125 -0.0770  0.1144  0.3192
  862SOL     OW 3445   2.511   1.772   1.483 -0.1096  0.1765 -0.2824
  862SOL    HW1 3446   2.438   1.776   1.543 -0.5800 -0.6225  2.0724
  862SOL    HW2 3447   2.478   1.779   1.393  2.0712  0.1587 -1.0341
  862SOL     MW 3448   2.497   1.773   1.479  0.1161  0.0688 -0.0709
  863SOL     OW 3449   2.981   1.779   1.032  0.1059  0.1129 -0.1553
  863SOL    HW1 3450   3.056   1.738   1.072 -1.4341  1.5169  0.5276
  863SOL    HW2 3451   2.967   1.850   1.097  0.0167 -0.8939 -0.7154
  863SOL     MW 3452   2.989   1.783   1.046 -0.1091  0.1653 -0.1391
  864SOL     OW 3453   0.064   1.833   0.827  0.1166 -0.0618 -0.2520
  864SOL    HW1 3454   0.030   1.809   0.911 -1.0207  1.5376 -2.6156
  864SOL    HW2 3455   0.003   1.789   0.773  2.2061  1.3528  1.6356
  864SOL     MW 3456   0.051   1.824   0.831  0.2422  0.3359 -0.3148
  865SOL     OW 3457   2.585   2.157   0.030  1.0129  0.1079  0.2513
  865SOL    HW1 3458   2.590   2.066   0.059  1.4422 -1.8349  0.9612
  865SOL    HW2 3459   2.522   2.148  -0.043 -0.2339  2.3689 -0.7003
  865SOL     MW 3460   2.577   2.144   0.024  0.9050  0.1499  0.2194
  866SOL     OW 3461   2.654   2.332   1.593 -0.6430  0.0112  0.0153
  866SOL    HW1 3462   2.642   2.241   1.616  0.4469 -0.6630 -0.4482
  866SOL    HW2 3463   2.703   2.336   1.508 -1.7189 -0.8909  1.1368
  866SOL     MW 3464   2.659   2.321   1.585 -0.6412 -0.1968  0.1021
  867SOL     OW 3465   0.081   2.684   1.757 -0.1126 -0.1898 -0.5164
  867SOL    HW1 3466   0.124   2.745   1.820 -0.0829 -1.8060  0.1248
  867SOL    HW2 3467   0.126   2.715   1.672 -0.0120  3.2262 -0.6901
  867SOL     MW 3468   0.093   2.696   1.754 -0.0954  0.0477 -0.4547
  868SOL     OW 3469   2.759   2.694   0.584  0.1065  0.1272 -0.1616
  868SOL    HW1 3470   2.685   2.631   0.600 -1.7277 -1.6083  0.0643
  868SOL    HW2 3471   2.725   2.778   0.564 -0.6133 -1.7064  0.4772
  868SOL     MW 3472   2.745   2.697   0.583 -0.2305 -0.3437 -0.0475
  869SOL     OW 3473   2.091   2.370   1.031  0.5411  0.8581 -0.6342
  869SOL    HW1 3474   2.181   2.360   0.992  0.3695  1.0663 -3.4160
  869SOL    HW2 3475   2.024   2.368   0.961 -0.7581  1.4442  1.8117
  869SOL     MW 3476   2.094   2.368   1.016  0.3471  0.9629 -0.6785
  870SOL     OW 3477   2.167   0.072   0.476  0.2120  0.2435  0.1433
  870SOL    HW1 3478   2.255   0.109   0.450  1.3855  1.9459 -0.9099
  870SOL    HW2 3479   2.176  -0.023   0.479 -0.2523  2.2396 -1.1104
  870SOL     MW 3480   2.180   0.065   0.473  0.3056  0.7315 -0.1611
  871SOL     OW 3481   2.456   2.076   0.928  0.2819  0.2065  0.4293
  871SOL    HW1 3482   2.388   2.024   0.881 -2.1210  0.2272 -0.4136
  871SOL    HW2 3483   2.411   2.153   0.964  1.7458 -1.0166  0.7421
  871SOL     MW 3484   2.441   2.080   0.926  0.1580  0.0478  0.3594
  872SOL     OW 3485   2.058   2.528   1.505  0.0910  0.6931  0.0503
  872SOL    HW1 3486   1.983   2.563   1.550  1.4107 -1.3114  0.0301
  872SOL    HW2 3487   2.017   2.472   1.434 -0.2217  0.8983  1.2961
  872SOL     MW 3488   2.043   2.525   1.501  0.2239  0.4557  0.2120
  873SOL     OW 3489   2.845   2.110   1.949  0.0185  0.5022 -0.8713
  873SOL    HW1 3490   2.847   2.160   2.025 -0.8655 -0.1172 -2.4930
  873SOL    HW2 3491   2.924   2.130   1.898  0.0279  2.3270 -0.5396
  873SOL     MW 3492   2.856   2.119   1.952 -0.0969  0.6612 -1.0415
  874SOL     OW 3493   2.340   1.427   2.387 -0.0032  0.0109 -0.7467
  874SOL    HW1 3494   2.285   1.401   2.313  1.0060 -0.1659 -0.5305
  874SOL    HW2 3495   2.398   1.355   2.412  1.9214  0.0751  1.3471
  874SOL     MW 3496   2.340   1.414   2.381  0.3839 -0.0039 -0.4419
  875SOL     OW 3497   2.363   2.342   0.971  0.0328 -0.1289  0.0104
  875SOL    HW1 3498   2.428   2.379   0.911  0.3966 -1.6757  0.2270
  875SOL    HW2 3499   2.394   2.381   1.054  1.8330  1.8879 -0.1855
  875SOL     MW 3500   2.376   2.352   0.974  0.3183 -0.0669  0.0131
  876SOL     OW 3501   3.076   2.259   1.346 -0.3686 -0.1201 -0.9781
  876SOL    HW1 3502   3.070   2.305   1.267  1.1221 -1.9989 -2.6514
  876SOL    HW2 3503   3.148   2.305   1.391 -0.1590 -3.7642  1.9625
  876SOL     MW 3504   3.085   2.272   1.342 -0.1442 -0.8488 -0.8109
  877SOL     OW 3505   0.008   2.806   0.321  0.1935  0.5204  0.2303
  877SOL    HW1 3506   0.074   2.868   0.296  1.3586 -1.2062  0.1947
  877SOL    HW2 3507  -0.001   2.752   0.247  0.5126  1.5800 -0.0841
  877SOL     MW 3508   0.015   2.807   0.308  0.3893  0.4324  0.1841
  878SOL     OW 3509   2.432   1.764   1.222  0.0965 -0.4626  0.0880
  878SOL    HW1 3510   2.355   1.711   1.251 -2.4786  1.4825 -0.0101
  878SOL    HW2 3511   2.497   1.697   1.187 -1.1451  1.4005 -1.8922
  878SOL     MW 3512   2.431   1.748   1.221 -0.4071  0.0399 -0.1862
  879SOL     OW 3513   2.765   2.433   0.943 -0.0002  0.1680 -0.5839
  879SOL    HW1 3514   2.819   2.512   0.961 -1.1760  3.2652 -1.3795
  879SOL    HW2 3515   2.820   2.365   0.898  3.2100 -1.7400 -1.2962
  879SOL     MW 3516   2.780   2.434   0.939  0.2682  0.3249 -0.7828
  880SOL     OW 3517   2.595   2.188   0.665 -0.0896  0.5923 -0.1014
  880SOL    HW1 3518   2.572   2.174   0.754  0.1721  1.0523  1.2308
  880SOL    HW2 3519   2.546   2.124   0.611 -3.4181 -2.7230 -3.3514
  880SOL     MW 3520   2.586   2.178   0.669 -0.4942  0.2156 -0.3544
  881SOL     OW 3521   3.001   2.737   0.690 -0.0561  0.2262  0.0956
  881SOL    HW1 3522   2.909   2.713   0.674  1.2953 -1.1995 -2.4065
  881SOL    HW2 3523   3.062   2.692   0.619  3.7781  0.0246 -0.4977
  881SOL     MW 3524   2.997   2.728   0.678  0.6281  0.0115 -0.3128
  882SOL     OW 3525   2.263   2.847   1.955  0.2824  0.5034 -0.2514
  882SOL    HW1 3526   2.255   2.876   1.859  0.0080 -2.0207 -1.0837
  882SOL    HW2 3527   2.195   2.772   1.957 -0.5138 -0.2225  1.7017
  882SOL     MW 3528   2.253   2.841   1.943  0.1411  0.0746 -0.1035
  883SOL     OW 3529   2.352   2.202   1.355  0.1151 -0.1842 -0.3338
  883SOL    HW1 3530   2.417   2.154   1.296  0.4016  3.7644  3.0628
  883SOL    HW2 3531   2.265   2.196   1.307  1.1342  1.2124 -0.4287
  883SOL     MW 3532   2.349   2.195   1.341  0.2874  0.5211  0.1018
  884SOL     OW 3533   1.969   1.801   1.057  0.7180 -0.1966 -0.3058
  884SOL    HW1 3534   1.912   1.873   1.031 -0.7477 -0.5096 -0.2197
  884SOL    HW2 3535   2.044   1.841   1.094 -1.0475 -0.2017  0.2845
  884SOL     MW 3536   1.971   1.816   1.058  0.2917 -0.2386 -0.2166
  885SOL     OW 3537   2.837   2.396   1.786 -0.2325  0.0050 -0.1819
  885SOL    HW1 3538   2.907   2.327   1.759 -0.1534 -0.1663 -2.8022
  885SOL    HW2 3539   2.772   2.376   1.718  0.6908  1.5255  1.6656
  885SOL     MW 3540   2.838   2.384   1.773 -0.1002  0.1830 -0.2838
  886SOL     OW 3541   2.837   2.428   1.394  0.5012  0.0222 -0.1839
  886SOL    HW1 3542   2.914   2.387   1.376  0.6669  2.1006  0.2452
  886SOL    HW2 3543   2.848   2.523   1.404 -0.3502  0.6352  2.7128
  886SOL     MW 3544   2.848   2.436   1.393  0.4107  0.3773  0.2549
  887SOL     OW 3545   2.288   2.675   1.535  0.5409 -0.0786 -0.5726
  887SOL    HW1 3546   2.322   2.709   1.449  0.1441  5.1599 -0.3691
  887SOL    HW2 3547   2.213   2.616   1.520 -1.4735  0.4842 -0.9752
  887SOL     MW 3548   2.283   2.671   1.522  0.2228  0.6868 -0.5989
  888SOL     OW 3549   1.897   2.172   1.396  0.4947  0.6326 -0.4253
  888SOL    HW1 3550   1.966   2.179   1.327  1.4425 -0.5561  0.0217
  888SOL    HW2 3551   1.947   2.197   1.479  2.0650 -0.1939 -1.5529
  888SOL     MW 3552   1.912   2.176   1.398  0.8269  0.3667 -0.5151
  889SOL     OW 3553   2.349   1.994   2.060 -0.1503 -0.5069 -0.4200
  889SOL    HW1 3554   2.431   1.947   2.058  1.4898  0.9498  0.1279
  889SOL    HW2 3555   2.348   2.041   1.977 -0.3975  0.5843 -0.2989
  889SOL     MW 3556   2.360   1.994   2.049  0.0335 -0.1707 -0.3317
  890SOL     OW 3557   0.122   2.383   0.152  0.5567 -0.5894  0.1325
  890SOL    HW1 3558   0.067   2.468   0.158  0.2903 -1.9103  1.8284
  890SOL    HW2 3559   0.075   2.320   0.214  3.1146 -0.9004 -0.0378
  890SOL     MW 3560   0.109   2.386   0.161  0.8590 -0.8047  0.3337
  891SOL     OW 3561   3.036   1.976   1.235 -0.9003  0.0347 -0.3523
  891SOL    HW1 3562   3.112   1.910   1.246 -0.0904  2.0121 -0.5748
  891SOL    HW2 3563   3.067   2.067   1.254  2.6187 -0.7261 -0.6562
  891SOL     MW 3564   3.050   1.979   1.239 -0.3292  0.1952 -0.4218
  892SOL     OW 3565   2.461   2.378   2.756  0.0506 -0.2328  0.5235
  892SOL    HW1 3566   2.441   2.307   2.814  3.7188 -0.1861 -2.9240
  892SOL    HW2 3567   2.551   2.398   2.774 -0.5218 -0.2382  0.6828
  892SOL     MW 3568   2.470   2.371   2.766  0.4590 -0.2274  0.0896
  893SOL     OW 3569   1.645   2.432   1.258  0.5367 -0.1075  1.1849
  893SOL    HW1 3570   1.558   2.420   1.303 -0.9354 -0.6235 -0.2179
  893SOL    HW2 3571   1.687   2.509   1.297 -0.1645  1.2403  1.0613
  893SOL     MW 3572   1.639   2.440   1.269  0.2500  0.0022  0.9835
  894SOL     OW 3573   2.726   1.864   0.471  0.5411 -0.6439 -0.2751
  894SOL    HW1 3574   2.643   1.900   0.497 -3.0705 -0.2973  0.6120
  894SOL    HW2 3575   2.714   1.806   0.402 -1.3620 -0.9371  0.9597
  894SOL     MW 3576   2.714   1.861   0.465 -0.1865 -0.6368  0.0049
  895SOL     OW 3577   2.121   2.179   1.223 -0.1866  0.2788  0.4147
  895SOL    HW1 3578   2.105   2.244   1.155  0.2045  0.3567  1.3697
  895SOL    HW2 3579   2.150   2.091   1.187 -0.6936  0.4290 -1.3617
  895SOL     MW 3580   2.123   2.176   1.209 -0.2019  0.3089  0.3064
  896SOL     OW 3581   2.242   2.843   1.100 -0.6604  0.6835  0.1289
  896SOL    HW1 3582   2.294   2.787   1.162 -0.1071  0.7109  0.9729
  896SOL    HW2 3583   2.171   2.887   1.150  0.4248 -4.2434 -1.2459
  896SOL     MW 3584   2.240   2.841   1.114 -0.4442  0.0371  0.0589
  897SOL     OW 3585   3.071   3.027   3.052  0.1048  0.0682 -0.0599
  897SOL    HW1 3586   3.133   2.947   3.033 -0.1550 -0.8899  3.1583
  897SOL    HW2 3587   3.038   3.032   2.960 -0.3137  2.1510  1.2086
  897SOL     MW 3588   3.075   3.017   3.037  0.0153  0.2166  0.5321
  898SOL     OW 3589   2.040   0.180   1.467 -0.3286 -0.1028 -0.7690
  898SOL    HW1 3590   2.023   0.089   1.499 -0.2088 -0.0723  0.1204
  898SOL    HW2 3591   2.079   0.169   1.382 -1.2867  0.7335 -1.8307
  898SOL     MW 3592   2.043   0.167   1.460 -0.4392  0.0116 -0.7918
  899SOL     OW 3593   2.970   2.984   0.613  0.0465  0.5120 -0.1749
  899SOL    HW1 3594   2.991   2.890   0.648  1.8667 -0.9351  0.2608
  899SOL    HW2 3595   2.881   3.003   0.642 -0.4896 -0.4948  0.9814
  899SOL     MW 3596   2.961   2.974   0.621  0.2159  0.1882  0.0352
  900SOL     OW 3597   0.031   2.416   1.098  0.4004  0.1534 -0.1724
  900SOL    HW1 3598   0.037   2.514   1.090  1.2480  1.6875 -0.3537
  900SOL    HW2 3599   0.024   2.372   1.010 -1.1885 -0.2878  0.0180
  900SOL     MW 3600   0.031   2.423   1.086  0.3026  0.2976 -0.1712
  901SOL     OW 3601   1.750   2.785   1.795 -0.1234 -0.2517 -0.4250
  901SOL    HW1 3602   1.827   2.756   1.754  1.8689 -1.3410  0.6103
  901SOL    HW2 3603   1.685   2.761   1.729  1.2768  0.0470 -1.7052
  901SOL     MW 3604   1.752   2.778   1.781  0.3242 -0.3560 -0.4573
  902SOL     OW 3605   2.652   2.087   1.747 -0.2845  0.3822 -0.6929
  902SOL    HW1 3606   2.678   2.046   1.659 -0.6443 -3.0419 -1.8281
  902SOL    HW2 3607   2.725   2.094   1.810 -1.8406  0.1287  0.5307
  902SOL     MW 3608   2.665   2.083   1.744 -0.5373 -0.1030 -0.6812
  903SOL     OW 3609   1.569   2.626   0.639  0.5857 -0.2169  0.1456
  903SOL    HW1 3610   1.663   2.631   0.626  1.7837 -1.0581 -0.2270
  903SOL    HW2 3611   1.529   2.674   0.713  0.2609  0.0938  0.0716
  903SOL     MW 3612   1.576   2.633   0.647  0.7009 -0.2869  0.0867
  904SOL     OW 3613   2.470   2.571   1.685  0.0892 -0.2879  0.3346
  904SOL    HW1 3614   2.415   2.625   1.623 -2.7627 -0.0144  0.3885
  904SOL    HW2 3615   2.498   2.496   1.634 -2.7070  1.3758  1.5160
  904SOL     MW 3616   2.466   2.568   1.670 -0.6560 -0.0323  0.4976
  905SOL     OW 3617   2.325   2.492   2.100 -0.0562  0.0297 -0.2267
  905SOL    HW1 3618   2.377   2.435   2.051 -0.7457 -1.0975 -3.7539
  905SOL    HW2 3619   2.279   2.441   2.170 -2.1015  1.4428 -1.0112
  905SOL     MW 3620   2.326   2.478   2.103 -0.4170  0.0674 -0.7956
  906SOL     OW 3621   2.536   2.475   0.820 -0.1189  0.4269  0.2895
  906SOL    HW1 3622   2.615   2.456   0.871 -0.9912  3.6518  1.7749
  906SOL    HW2 3623   2.510   2.562   0.838  2.7690 -1.9424  2.2118
  906SOL     MW 3624   2.543   2.484   0.829  0.1470  0.5398  0.7391
  907SOL     OW 3625   2.658   2.882   1.294 -0.3982 -0.1259 -0.5140
  907SOL    HW1 3626   2.711   2.936   1.359  2.6812  0.5316 -0.1003
  907SOL    HW2 3627   2.703   2.884   1.204 -1.6178 -1.1009 -0.2906
  907SOL     MW 3628   2.671   2.889   1.291 -0.1529 -0.1678 -0.4299
  908SOL     OW 3629   2.723   2.396   0.010 -0.4726  0.2041 -0.1045
  908SOL    HW1 3630   2.658   2.341   0.056 -1.6387 -0.5853  0.3091
  908SOL    HW2 3631   2.710   2.479   0.060 -1.1154 -0.1330 -0.0059
  908SOL     MW 3632   2.713   2.399   0.023 -0.7113  0.0555 -0.0370
  909SOL     OW 3633   1.773   0.093   1.173 -0.5319 -0.0921  0.3251
  909SOL    HW1 3634   1.761   0.156   1.105  0.3663 -0.0165  2.0390
  909SOL    HW2 3635   1.739   0.123   1.260  1.5617 -0.1013  0.4240
  909SOL     MW 3636   1.767   0.105   1.175 -0.1371 -0.0833  0.5643
  910SOL     OW 3637   2.219   1.704   0.409  0.0855  0.2899 -0.2539
  910SOL    HW1 3638   2.151   1.634   0.392  0.2612  0.5359 -1.9512
  910SOL    HW2 3639   2.197   1.777   0.348  1.3997 -0.0288  0.2087
  910SOL     MW 3640   2.207   1.705   0.399  0.2821  0.2803 -0.4168
  911SOL     OW 3641   2.264   2.055   1.570  0.3252 -0.0747 -0.0640
  911SOL    HW1 3642   2.306   2.083   1.650 -0.3671  0.8698  0.7783
  911SOL    HW2 3643   2.306   2.107   1.497 -0.4393 -1.6568  1.8876
  911SOL     MW 3644   2.275   2.065   1.571  0.1330 -0.1588  0.3046
  912SOL     OW 3645   2.925   1.904   1.488  0.1311  0.0381  0.2934
  912SOL    HW1 3646   2.946   1.918   1.391  1.4303  0.1163  2.1134
  912SOL    HW2 3647   2.836   1.944   1.500  1.9258  0.9188 -2.3554
  912SOL     MW 3648   2.916   1.911   1.477  0.5393  0.1646  0.1840
  913SOL     OW 3649   2.609   3.087   0.366  0.6358  0.0385  0.3200
  913SOL    HW1 3650   2.694   3.051   0.339  2.6568 -0.1553  0.0743
  913SOL    HW2 3651   2.550   3.048   0.296 -0.6051 -1.4758 -1.8689
  913SOL     MW 3652   2.612   3.077   0.353  0.7388 -0.1868 -0.0013
  914SOL     OW 3653   2.689   1.830   3.020 -0.1849  0.2386  0.2603
  914SOL    HW1 3654   2.712   1.918   2.997 -1.7079 -0.1836 -0.0116
  914SOL    HW2 3655   2.595   1.820   2.997  2.5010 -0.7988 -1.5906
  914SOL     MW 3656   2.680   1.840   3.014 -0.0315  0.0460 -0.0198
  915SOL     OW 3657   1.757   0.188   0.231  0.8300 -0.5440 -0.1049
  915SOL    HW1 3658   1.824   0.117   0.259 -1.8585 -0.1687 -0.5477
  915SOL    HW2 3659   1.671   0.141   0.224 -1.3067  0.0606 -1.0925
  915SOL     MW 3660   1.754   0.172   0.234  0.1934 -0.4147 -0.2937
  916SOL     OW 3661   1.785   2.152   1.987 -0.4141  0.3988  0.1285
  916SOL    HW1 3662   1.848   2.224   1.969 -0.0153  0.1620 -0.9033
  916SOL    HW2 3663   1.771   2.108   1.900 -0.4608 -0.4637  0.0330
  916SOL     MW 3664   1.792   2.156   1.973 -0.3676  0.2537 -0.0202
  917SOL     OW 3665   2.501   2.200   2.553 -0.0592  0.0820 -0.5001
  917SOL    HW1 3666   2.487   2.264   2.621  0.3138  0.6223  0.3611
  917SOL    HW2 3667   2.574   2.239   2.508  2.4266 -0.1804  0.3274
  917SOL     MW 3668   2.509   2.213   2.556  0.3180  0.1186 -0.2773
  918SOL     OW 3669   1.976   1.585   2.695  0.5874  0.6688 -0.0384
  918SOL    HW1 3670   1.907   1.619   2.634 -0.9933  0.5189  0.5116
  918SOL    HW2 3671   2.058   1.634   2.675  5.0927 -1.6292 -0.9680
  918SOL     MW 3672   1.978   1.596   2.684  0.9733  0.3458 -0.0885
  919SOL     OW 3673   3.062   2.405   2.320 -0.3444  0.4239 -0.2016
  919SOL    HW1 3674   2.998   2.336   2.295  0.6350 -0.4172  0.9365
  919SOL    HW2 3675   3.115   2.406   2.235  0.0029 -0.9778 -4.5452
  919SOL     MW 3676   3.061   2.396   2.306 -0.1694  0.1280 -0.6245
  920SOL     OW 3677   2.702   2.867   3.078 -0.2641 -0.0784 -0.0646
  920SOL    HW1 3678   2.612   2.891   3.063  0.4758  0.4111 -2.4464
  920SOL    HW2 3679   2.730   2.813   3.002  2.9783  1.9000 -3.4852
  920SOL     MW 3680   2.693   2.863   3.066  0.2613  0.2472 -0.8301
  921SOL     OW 3681   2.462   2.601   2.593 -0.2305  0.1150  0.4277
  921SOL    HW1 3682   2.506   2.592   2.509 -1.2333 -0.5973 -0.4871
  921SOL    HW2 3683   2.470   2.518   2.630 -0.4609  2.0613 -1.1126
  921SOL     MW 3684   2.469   2.589   2.587 -0.3932  0.2778  0.1038
  922SOL     OW 3685   2.017   2.808   0.306  0.3958 -0.0367  0.5851
  922SOL    HW1 3686   1.983   2.827   0.215 -0.9535 -0.2870  0.5444
  922SOL    HW2 3687   2.031   2.706   0.318 -2.4146 -0.7788  2.3877
  922SOL     MW 3688   2.014   2.797   0.295 -0.1530 -0.1677  0.8176
  923SOL     OW 3689   2.207   2.878   1.690  0.2638  0.0559  0.5160
  923SOL    HW1 3690   2.244   2.814   1.626 -0.7366  0.9860 -0.0699
  923SOL    HW2 3691   2.164   2.939   1.632  0.7541 -0.4442  1.5119
  923SOL     MW 3692   2.206   2.878   1.674  0.1965  0.1126  0.5701
  924SOL     OW 3693   1.146   2.761   2.629 -0.3331  0.1958  0.5340
  924SOL    HW1 3694   1.242   2.768   2.618  0.2841  0.7584  1.4886
  924SOL    HW2 3695   1.124   2.684   2.676  3.3785  0.3842 -1.0924
  924SOL     MW 3696   1.156   2.752   2.634  0.2381  0.2949  0.4454
  925SOL     OW 3697   3.040   0.215   2.685  0.3065  0.3437  0.1900
  925SOL    HW1 3698   2.974   0.220   2.608  1.2937 -1.2516 -0.3431
  925SOL    HW2 3699   3.006   0.277   2.755  0.6342 -0.9052 -0.9652
  925SOL     MW 3700   3.027   0.224   2.684  0.4800 -0.0316 -0.0328
  926SOL     OW 3701   2.707   2.391   2.026 -0.3569 -0.0270  0.2222
  926SOL    HW1 3702   2.747   2.474   2.070  3.2010  1.2027  0.2681
  926SOL    HW2 3703   2.749   2.389   1.933 -0.7474 -1.9238 -1.7503
  926SOL     MW 3704   2.718   2.401   2.019  0.0610 -0.1150 -0.0320
  927SOL     OW 3705   2.362   0.181   0.314  0.1852  0.4775 -0.2364
  927SOL    HW1 3706   2.456   0.196   0.310 -0.6897 -2.2919 -1.4204
  927SOL    HW2 3707   2.342   0.142   0.221  0.2789 -0.1690 -1.6424
  927SOL     MW 3708   2.372   0.178   0.301  0.0821  0.0268 -0.5781
  928SOL     OW 3709   2.145   2.443   1.748  0.4473  0.0988  0.4351
  928SOL    HW1 3710   2.116   2.472   1.659 -2.5343 -2.1066  2.4615
  928SOL    HW2 3711   2.229   2.483   1.762 -0.7486  1.4380 -0.9239
  928SOL     MW 3712   2.153   2.452   1.738 -0.1039 -0.0155  0.5231
  929SOL     OW 3713   2.719   2.345   2.475  0.3324  0.0474 -0.2695
  929SOL    HW1 3714   2.749   2.294   2.394 -2.7392 -0.2935  0.0549
  929SOL    HW2 3715   2.788   2.323   2.542  1.2993  0.9405  2.9655
  929SOL     MW 3716   2.732   2.335   2.473  0.0547  0.1203  0.2001
  930SOL     OW 3717   2.028   2.833   2.643 -0.1422 -0.1885 -0.3628
  930SOL    HW1 3718   2.039   2.765   2.717 -1.2034  1.2789 -1.1174
  930SOL    HW2 3719   2.113   2.875   2.630 -0.4409 -1.5501 -0.8439
  930SOL     MW 3720   2.041   2.830   2.651 -0.3216 -0.1745 -0.5258
  931SOL     OW 3721   3.045   2.749   2.473  0.0955  0.3375  0.2910
  931SOL    HW1 3722   3.087   2.772   2.556 -1.6485  0.6093  1.5951
  931SOL    HW2 3723   3.104   2.684   2.426  4.1666 -1.9420 -0.6379
  931SOL     MW 3724   3.058   2.743   2.477  0.4025  0.0726  0.3405
  932SOL     OW 3725   2.916   1.860   2.487 -0.1330 -0.5072 -0.0018
  932SOL    HW1 3726   2.997   1.910   2.499 -2.3866  1.7736  3.0616
  932SOL    HW2 3727   2.874   1.892   2.409 -1.5366 -0.8499  0.9982
  932SOL     MW 3728   2.921   1.871   2.478 -0.6156 -0.2515  0.5343
  933SOL     OW 3729   2.043   2.818   2.205 -0.2688 -0.1805 -0.0988
  933SOL    HW1 3730   2.111   2.867   2.245 -2.1318  0.0609 -2.9497
  933SOL    HW2 3731   1.965   2.872   2.214 -0.6252  2.4331  1.9369
  933SOL     MW 3732   2.042   2.832   2.212 -0.5617  0.1962 -0.2064
  934SOL     OW 3733   1.996   2.651   2.434 -0.0603 -0.7578 -0.4576
  934SOL    HW1 3734   2.008   2.727   2.497 -1.0717  2.2843  1.1981
  934SOL    HW2 3735   2.004   2.694   2.349 -0.4792  0.2239  1.6616
  934SOL     MW 3736   1.998   2.667   2.431 -0.2490 -0.2269  0.0405
  935SOL     OW 3737   2.672   1.599   1.861 -0.0559 -0.0160 -0.2345
  935SOL    HW1 3738   2.761   1.614   1.838  0.1123 -1.2880  0.9512
  935SOL    HW2 3739   2.625   1.568   1.788  0.3373  2.9827 -3.1665
  935SOL     MW 3740   2.678   1.597   1.848  0.0182  0.2119 -0.4649
  936SOL     OW 3741   2.985   2.271   3.091  0.5277  0.1889  0.4301
  936SOL    HW1 3742   3.026   2.314   3.166 -0.9523 -2.0306 -1.2810
  936SOL    HW2 3743   2.895   2.303   3.096  0.3649  1.0773 -0.0877
  936SOL     MW 3744   2.978   2.281   3.101  0.3109  0.0133  0.1361
  937SOL     OW 3745   2.013   2.163   2.648  0.0666  0.4191  0.8141
  937SOL    HW1 3746   2.102   2.139   2.650  2.4137  2.1504  1.3161
  937SOL    HW2 3747   1.977   2.134   2.558  1.3481 -1.5701 -1.6538
  937SOL     MW 3748   2.020   2.156   2.637  0.5454  0.3851  0.5547
  938SOL     OW 3749   2.277   1.775   1.921 -0.1394 -0.0664 -0.0021
  938SOL    HW1 3750   2.286   1.799   1.830 -0.3911 -0.4564  1.0869
  938SOL    HW2 3751   2.265   1.854   1.975  0.3891 -0.0445 -1.6201
  938SOL     MW 3752   2.277   1.789   1.916 -0.1029 -0.1150 -0.0719
  939SOL     OW 3753   2.790   1.960   2.259 -0.3660  0.0981 -0.0887
  939SOL    HW1 3754   2.821   1.918   2.179 -0.8987 -0.1632  0.9386
  939SOL    HW2 3755   2.699   1.963   2.267  2.6836  2.5313  0.7746
  939SOL     MW 3756   2.782   1.955   2.249 -0.0339  0.3847  0.1608
  940SOL     OW 3757   2.295   0.138   2.723 -0.2072 -0.5592 -0.0760
  940SOL    HW1 3758   2.308   0.051   2.677 -1.6944  1.1718 -0.2134
  940SOL    HW2 3759   2.347   0.139   2.805 -0.2715  1.2744 -1.5077
  940SOL     MW 3760   2.304   0.127   2.727 -0.4119 -0.0889 -0.2830
  941SOL     OW 3761   0.142   2.424   2.077  0.1469  0.1954 -0.0378
  941SOL    HW1 3762   0.222   2.374   2.094 -4.1680  0.8867 -1.2635
  941SOL    HW2 3763   0.129   2.416   1.980  2.5897 -1.8282 -1.7217
  941SOL     MW 3764   0.151   2.416   2.067 -0.1001  0.0196 -0.4217
  942SOL     OW 3765   2.831   2.235   2.234 -0.0809 -0.0408  0.8380
  942SOL    HW1 3766   2.780   2.278   2.167  2.1129  0.6227  2.0741
  942SOL    HW2 3767   2.806   2.140   2.258  2.8004  0.2552  1.1705
  942SOL     MW 3768   2.821   2.228   2.228  0.5887  0.0858  1.0450
  943SOL     OW 3769   0.225   2.136   2.270  0.0866 -0.1363  0.4476
  943SOL    HW1 3770   0.213   2.194   2.345 -1.2655 -0.6122 -0.5670
  943SOL    HW2 3771   0.311   2.092   2.298  1.2567 -1.8439  1.4686
  943SOL     MW 3772   0.235   2.138   2.283  0.0626 -0.4244  0.4485
  944SOL     OW 3773   2.108   2.635   1.985  0.2486 -0.4483  0.4138
  944SOL    HW1 3774   2.184   2.584   2.021 -1.4179 -0.4110  0.2093
  944SOL    HW2 3775   2.071   2.676   2.060  0.1056  0.5106  2.3996
  944SOL     MW 3776   2.113   2.634   1.999  0.0099 -0.3168  0.6489
  945SOL     OW 3777   2.787   2.675   2.898  0.2737 -0.1640 -0.3889
  945SOL    HW1 3778   2.765   2.586   2.904  0.2588  2.8662 -0.5463
  945SOL    HW2 3779   2.787   2.691   2.803  0.3552  1.3485 -2.5154
  945SOL     MW 3780   2.784   2.666   2.886  0.2825  0.4354 -0.6902
  946SOL     OW 3781   2.447   2.700   2.255  0.1696  0.0325  0.3153
  946SOL    HW1 3782   2.475   2.767   2.202 -0.6053 -0.0134  1.0952
  946SOL    HW2 3783   2.419   2.628   2.200 -1.2624 -1.0448 -2.9331
  946SOL     MW 3784   2.447   2.700   2.241 -0.1216 -0.1157 -0.0104
  947SOL     OW 3785   1.971   0.014   0.268  0.0988 -0.6960 -0.1624
  947SOL    HW1 3786   1.979  -0.063   0.222 -3.0782  0.3857  2.4281
  947SOL    HW2 3787   2.047   0.027   0.331  0.2318  0.3522  0.2709
  947SOL     MW 3788   1.982   0.006   0.271 -0.3028 -0.4149  0.2366
  948SOL     OW 3789   1.785   3.007   2.672 -0.2080  0.2765  0.7859
  948SOL    HW1 3790   1.862   2.961   2.651  0.9252 -1.0055  1.8707
  948SOL    HW2 3791   1.759   3.031   2.583 -2.7385 -1.0581  2.6808
  948SOL     MW 3792   1.792   3.004   2.658 -0.3924 -0.0688  1.1790
  949SOL     OW 3793   2.523   1.932   2.340  0.3878  0.6468 -0.2300
  949SOL    HW1 3794   2.518   1.842   2.367  0.5875 -0.3025 -1.1848
  949SOL    HW2 3795   2.436   1.969   2.360 -0.5602  1.3135  0.4903
  949SOL     MW 3796   2.511   1.925   2.347  0.2891  0.6095 -0.2609
  950SOL     OW 3797   2.295   2.585   2.934 -0.4438  0.2815  0.1739
  950SOL    HW1 3798   2.344   2.521   2.880 -0.5079  0.4772  0.5274
  950SOL    HW2 3799   2.202   2.600   2.903  0.4926 -1.3678  4.1091
  950SOL     MW 3800   2.289   2.579   2.923 -0.3287  0.0897  0.7398
  951SOL     OW 3801   3.062   2.168   2.858  0.2476  0.6500 -0.1750
  951SOL    HW1 3802   3.069   2.193   2.954  0.3843 -2.2061 -1.2193
  951SOL    HW2 3803   3.091   2.076   2.848  0.3749  0.2828 -1.4092
  951SOL     MW 3804   3.067   2.159   2.869  0.2824  0.2247 -0.4756
  952SOL     OW 3805   3.075   1.652   2.111  0.1403 -0.3269 -0.3090
  952SOL    HW1 3806   3.008   1.703   2.064 -1.7622 -0.6806 -1.4698
  952SOL    HW2 3807   3.099   1.724   2.166 -0.7749  0.1774  0.6337
  952SOL     MW 3808   3.069   1.668   2.112 -0.2315 -0.3070 -0.3378
  953SOL     OW 3809   1.942   1.763   2.910 -0.2259  0.3636 -0.8667
  953SOL    HW1 3810   1.871   1.723   2.960 -2.0234  1.1746 -0.3617
  953SOL    HW2 3811   1.949   1.696   2.848  0.7569 -0.4809  0.8333
  953SOL     MW 3812   1.934   1.749   2.909 -0.3334  0.3592 -0.5758
  954SOL     OW 3813   2.448   2.124   2.885 -0.9648 -0.3217  0.0522
  954SOL    HW1 3814   2.355   2.103   2.854  1.3267 -1.0916  2.6113
  954SOL    HW2 3815   2.512   2.070   2.834  4.5826  1.4145  1.9117
  954SOL     MW 3816   2.444   2.114   2.874  0.0695 -0.1942  0.6352
  955SOL     OW 3817   1.540   1.622   2.533 -0.0574  0.1346 -0.3737
  955SOL    HW1 3818   1.512   1.672   2.456  2.0620  2.9199  2.6231
  955SOL    HW2 3819   1.640   1.643   2.542  2.7737  0.6145  2.1552
  955SOL     MW 3820   1.549   1.632   2.524  0.5958  0.5654  0.3554
  956SOL     OW 3821   2.722   2.411   2.828  0.2685  0.5791  0.0965
  956SOL    HW1 3822   2.738   2.391   2.915 -0.0301  3.2254 -3.6421
  956SOL    HW2 3823   2.797   2.376   2.783 -3.0397  0.1794 -3.8262
  956SOL     MW 3824   2.734   2.404   2.834 -0.2074  0.8755 -0.9143
  957SOL     OW 3825   2.222   2.910   0.460  0.0659  0.9542 -0.2346
  957SOL    HW1 3826   2.141   2.877   0.425  0.2846 -3.3117  2.6101
  957SOL    HW2 3827   2.235   2.843   0.528 -1.6351 -0.4845 -3.6023
  957SOL     MW 3828   2.213   2.896   0.464 -0.1297  0.2015 -0.3036
  958SOL     OW 3829   2.049   2.649   2.847 -0.3859  0.2489 -0.5331
  958SOL    HW1 3830   2.025   2.582   2.787  0.0724  1.8299  2.2148
  958SOL    HW2 3831   1.992   2.640   2.925  1.1482  2.5618 -2.5629
  958SOL     MW 3832   2.038   2.639   2.849 -0.1230  0.7627 -0.4383
  959SOL     OW 3833   2.504   2.768   0.409  0.0745  0.8510  0.4066
  959SOL    HW1 3834   2.521   2.800   0.325 -1.4921 -0.2902 -0.6219
  959SOL    HW2 3835   2.413   2.787   0.415  1.6584 -1.0933 -1.6647
  959SOL     MW 3836   2.494   2.775   0.399  0.0768  0.4439 -0.0024
  960SOL     OW 3837   1.896   2.314   2.315  0.5112 -0.4212  0.2702
  960SOL    HW1 3838   1.885   2.221   2.337  0.8331  1.3075  1.1032
  960SOL    HW2 3839   1.860   2.359   2.392  1.3188  1.1139 -0.2060
  960SOL     MW 3840   1.890   2.308   2.328  0.6602  0.0094  0.3173
  961SOL     OW 3841   2.171   2.333   2.267  0.2895  0.1468 -0.0906
  961SOL    HW1 3842   2.074   2.327   2.252  0.6469 -0.0116  3.2510
  961SOL    HW2 3843   2.176   2.380   2.347  0.2560 -2.7841  1.7726
  961SOL     MW 3844   2.159   2.338   2.275  0.3322 -0.2608  0.5961
  962SOL     OW 3845   2.229   2.020   2.776  1.2452  0.1303 -0.2821
  962SOL    HW1 3846   2.171   2.011   2.854  0.7902  0.2918 -0.6518
  962SOL    HW2 3847   2.275   1.935   2.762 -2.4597  1.1871  1.4824
  962SOL     MW 3848   2.228   2.008   2.785  0.6964  0.2911 -0.0981
  963SOL     OW 3849   1.799   2.484   2.144 -0.0600 -0.4556  0.2239
  963SOL    HW1 3850   1.842   2.423   2.205  1.5536  2.3407  0.1532
  963SOL    HW2 3851   1.855   2.485   2.065 -0.8222  0.7333 -0.1368
  963SOL     MW 3852   1.812   2.476   2.142  0.0523  0.0702  0.1670
  964SOL     OW 3853   1.809   1.958   2.726  0.4284  0.5233  0.4940
  964SOL    HW1 3854   1.880   2.017   2.704 -0.9491 -1.7327 -0.1464
  964SOL    HW2 3855   1.839   1.891   2.791 -1.7488  2.4983  0.1787
  964SOL     MW 3856   1.823   1.957   2.732 -0.0406  0.4862  0.3679
  965SOL     OW 3857   2.275   2.714   0.641 -0.2942  0.4499  0.4379
  965SOL    HW1 3858   2.272   2.621   0.616 -1.2524  1.0234 -1.5347
  965SOL    HW2 3859   2.344   2.711   0.706  0.0297 -0.7132 -1.2038
  965SOL     MW 3860   2.283   2.701   0.646 -0.3779  0.3721 -0.0389
  966SOL     OW 3861   2.662   2.597   2.391 -0.1147  0.4039 -0.2709
  966SOL    HW1 3862   2.585   2.613   2.327 -2.2666  0.3800 -0.5159
  966SOL    HW2 3863   2.677   2.499   2.392  0.8129 -1.5009  0.5513
  966SOL     MW 3864   2.653   2.586   2.383 -0.2762  0.1494 -0.1947
  967SOL     OW 3865   2.816   3.068   2.936  0.0916 -0.5055  0.3078
  967SOL    HW1 3866   2.790   3.019   3.018  1.0853  2.6596  2.4111
  967SOL    HW2 3867   2.744   3.064   2.875  0.2332  1.8588 -1.4745
  967SOL     MW 3868   2.803   3.061   2.939  0.2414  0.2240  0.3502
  968SOL     OW 3869   3.025   2.620   2.997 -0.0134 -0.2016  0.1865
  968SOL    HW1 3870   2.941   2.655   2.963 -0.4067  1.1746  1.2506
  968SOL    HW2 3871   3.053   2.569   2.914  2.2578 -0.0901  0.8346
  968SOL     MW 3872   3.018   2.618   2.982  0.2343 -0.0053  0.4124
  969SOL     OW 3873   1.614   2.181   1.678 -0.0317  0.3187 -0.0672
  969SOL    HW1 3874   1.679   2.113   1.684 -0.9106 -0.3419 -0.6227
  969SOL    HW2 3875   1.567   2.181   1.765  0.0973  1.0121  1.0667
  969SOL     MW 3876   1.617   2.172   1.690 -0.1307  0.3231  0.0091
  970SOL     OW 3877   1.783   1.830   1.913  0.3798 -0.1061 -0.0379
  970SOL    HW1 3878   1.824   1.750   1.943 -3.8762  1.1005  1.0014
  970SOL    HW2 3879   1.694   1.801   1.921  0.3641 -0.5986  0.5629
  970SOL     MW 3880   1.777   1.816   1.918 -0.1838 -0.0119  0.1785
  971SOL     OW 3881   1.781   3.087   2.409 -0.4071 -0.1528  0.0016
  971SOL    HW1 3882   1.811   3.038   2.327  0.3510 -4.3858 -0.6895
  971SOL    HW2 3883   1.841   3.163   2.416  0.2244 -2.1463 -1.8606
  971SOL     MW 3884   1.793   3.090   2.399 -0.2237 -0.9744 -0.3353
  972SOL     OW 3885   0.259   2.885   2.482  0.2416 -0.4677  0.1572
  972SOL    HW1 3886   0.330   2.820   2.489 -0.5385  0.2126 -1.3816
  972SOL    HW2 3887   0.308   2.973   2.491  0.1310  2.9264 -0.5967
  972SOL     MW 3888   0.275   2.888   2.484  0.1241  0.0699 -0.1453
  973SOL     OW 3889   2.615   3.088   2.094 -0.0224 -0.7787  0.5910
  973SOL    HW1 3890   2.585   2.997   2.065 -0.2659  0.6058  2.0070
  973SOL    HW2 3891   2.594   3.147   2.020 -0.3070 -2.4197  2.3591
  973SOL     MW 3892   2.608   3.084   2.081 -0.0921 -0.8125  1.0111
  974SOL     OW 3893   2.039   0.169   2.712 -0.0971 -0.3939 -0.2743
  974SOL    HW1 3894   2.136   0.172   2.729 -1.3005 -0.3550  0.1355
  974SOL    HW2 3895   2.004   0.103   2.771 -3.1372  0.0185  0.7760
  974SOL     MW 3896   2.047   0.161   2.722 -0.6570 -0.3343 -0.0817
  975SOL     OW 3897   2.196   2.488   2.497  0.0239 -0.4468 -0.3579
  975SOL    HW1 3898   2.267   2.546   2.528 -1.5010  0.2626 -0.3526
  975SOL    HW2 3899   2.120   2.554   2.492  0.5426  0.7918 -0.4412
  975SOL     MW 3900   2.195   2.504   2.501 -0.1088 -0.1897 -0.3682
  976SOL     OW 3901   0.161   0.404   1.754 -0.1526  0.3284 -0.1381
  976SOL    HW1 3902   0.244   0.346   1.760  0.5814  0.6922 -0.5482
  976SOL    HW2 3903   0.097   0.337   1.717 -1.1489 -0.5854 -3.7454
  976SOL     MW 3904   0.163   0.387   1.750 -0.1872  0.2559 -0.6681
  977SOL     OW 3905   1.705   2.694   2.514 -0.5197  0.1066 -0.2964
  977SOL    HW1 3906   1.716   2.595   2.514 -1.2200 -0.7478 -1.5907
  977SOL    HW2 3907   1.772   2.714   2.446 -0.0648  2.7213 -1.4019
  977SOL     MW 3908   1.715   2.684   2.505 -0.5520  0.3389 -0.6130
   3.10000   3.10000   3.10000
