977 TIP4P/2005f water molecules t=   1.03000 step= 1030
 3908
    1SOL     OW    1   0.384   0.804   0.027  0.5633  0.2685  0.7874
    1SOL    HW1    2   0.356   0.822  -0.064 -1.2196  0.4920 -1.2448
    1SOL    HW2    3   0.325   0.732   0.046  1.2712 -2.4368 -1.9196
    1SOL     MW    4   0.373   0.797   0.018  0.4215 -0.0590  0.1621
    2SOL     OW    5   0.329   3.042   1.164 -0.0369  0.4271  0.4317
    2SOL    HW1    6   0.347   3.136   1.135  0.1225  3.4009 -1.5558
    2SOL    HW2    7   0.234   3.053   1.179  1.0317  1.6137 -0.4705
    2SOL     MW    8   0.319   3.056   1.162  0.1251  0.9760  0.0504
    3SOL     OW    9   2.636   0.441   0.989 -0.2401 -0.4637  0.0495
    3SOL    HW1   10   2.677   0.511   0.931  1.4528  1.7078 -3.8940
    3SOL    HW2   11   2.593   0.498   1.065  0.2894  1.0669  0.5211
    3SOL     MW   12   2.636   0.458   0.992  0.0531  0.0247 -0.4086
    4SOL     OW   13   2.924   1.671   0.570 -0.0536 -0.2926 -0.1075
    4SOL    HW1   14   2.881   1.744   0.528  1.1657  0.0373 -0.8553
    4SOL    HW2   15   2.995   1.628   0.517  2.5358  2.1461 -1.3309
    4SOL     MW   16   2.928   1.675   0.557  0.4489  0.0726 -0.3676
    5SOL     OW   17   1.785   1.498   0.512 -0.1277 -0.3042  0.3980
    5SOL    HW1   18   1.828   1.448   0.577 -0.4409  0.0696 -0.6712
    5SOL    HW2   19   1.689   1.478   0.526 -3.5842  1.2988  0.8567
    5SOL     MW   20   1.778   1.489   0.523 -0.6250 -0.0434  0.3174
    6SOL     OW   21   0.808   1.388   0.592 -0.0760 -0.6263 -0.0511
    6SOL    HW1   22   0.717   1.382   0.623 -1.5712  0.0906  0.8925
    6SOL    HW2   23   0.856   1.320   0.638  0.6282  0.0444 -4.0763
    6SOL     MW   24   0.802   1.378   0.602 -0.1803 -0.4432 -0.4577
    7SOL     OW   25   2.068   1.043   3.099  0.1211 -0.6809 -0.0704
    7SOL    HW1   26   2.111   1.072   3.018  0.8328 -0.9236  2.3800
    7SOL    HW2   27   2.111   1.102   3.162 -0.5512 -1.8706  0.1985
    7SOL     MW   28   2.079   1.055   3.097  0.1263 -0.8699  0.2884
    8SOL     OW   29   0.923   1.429   1.126 -0.3859  0.0407  0.9692
    8SOL    HW1   30   1.011   1.400   1.142 -1.0602  2.5839  1.5249
    8SOL    HW2   31   0.868   1.364   1.168  0.7074  0.6198 -0.8485
    8SOL     MW   32   0.928   1.416   1.134 -0.3306  0.4526  0.8027
    9SOL     OW   33   1.013   0.531   1.395  0.6492  0.8142  0.1722
    9SOL    HW1   34   1.001   0.465   1.324  0.6244 -1.2425 -1.6971
    9SOL    HW2   35   1.055   0.480   1.466 -0.6121 -0.9906 -1.2048
    9SOL     MW   36   1.017   0.516   1.395  0.4795  0.3047 -0.2561
   10SOL     OW   37   0.211   0.766   0.452 -0.5764 -0.2904 -0.1451
   10SOL    HW1   38   0.296   0.797   0.411  0.9838  0.2245  1.8488
   10SOL    HW2   39   0.218   0.821   0.533 -0.0942  0.8982 -0.1053
   10SOL     MW   40   0.223   0.777   0.457 -0.3069 -0.0656  0.1233
   11SOL     OW   41   0.803   1.131   1.668 -0.0123  0.2296 -1.2333
   11SOL    HW1   42   0.860   1.148   1.743  1.8453 -3.0385  1.1996
   11SOL    HW2   43   0.828   1.047   1.646 -1.8376 -0.4646  1.9775
   11SOL     MW   44   0.814   1.122   1.675 -0.0080 -0.2932 -0.4887
   12SOL     OW   45   0.034   1.079   0.860 -0.0628  0.1487 -0.2839
   12SOL    HW1   46   0.093   1.137   0.909  2.3738  1.7633  2.5312
   12SOL    HW2   47  -0.020   1.145   0.822 -2.8568 -0.3513 -0.3272
   12SOL     MW   48   0.034   1.096   0.862 -0.1100  0.2957  0.0818
   13SOL     OW   49   1.859   1.434   1.349 -0.5089  0.5854 -0.6148
   13SOL    HW1   50   1.895   1.375   1.281 -0.6493 -0.2368  2.3513
   13SOL    HW2   51   1.867   1.523   1.318  1.5496  0.2068 -0.6822
   13SOL     MW   52   1.865   1.438   1.336 -0.2558  0.4270 -0.2323
   14SOL     OW   53   0.592   0.383   1.869 -0.5832  0.1640  0.0102
   14SOL    HW1   54   0.528   0.307   1.878 -0.9423  0.7913 -0.1883
   14SOL    HW2   55   0.682   0.352   1.851  3.3331 -0.4808 -0.9949
   14SOL     MW   56   0.595   0.369   1.868 -0.1139  0.1617 -0.1486
   15SOL     OW   57   1.936   0.348   1.058 -0.1304  0.0223  0.5395
   15SOL    HW1   58   1.916   0.429   1.104  0.9850  0.7984  2.3066
   15SOL    HW2   59   1.999   0.372   0.990 -0.5681  1.8899  1.1044
   15SOL     MW   60   1.941   0.362   1.055 -0.0410  0.3711  0.8472
   16SOL     OW   61   0.197   1.802   0.325  0.0436  0.3154  0.2168
   16SOL    HW1   62   0.278   1.754   0.355  0.1267 -0.5249  0.9291
   16SOL    HW2   63   0.214   1.893   0.339 -1.7847 -1.5421 -1.6247
   16SOL     MW   64   0.210   1.808   0.331 -0.1867 -0.0405  0.0678
   17SOL     OW   65   1.107   0.893   1.426 -0.0030 -0.0846  0.3111
   17SOL    HW1   66   1.157   0.898   1.509 -2.2267 -2.5479 -0.9160
   17SOL    HW2   67   1.018   0.872   1.448  0.1568  2.8487 -0.2834
   17SOL     MW   68   1.101   0.891   1.440 -0.2753 -0.0226  0.0707
   18SOL     OW   69   0.052   1.576   0.423 -0.1646 -0.2200  0.1202
   18SOL    HW1   70   0.089   1.661   0.405 -0.9898 -3.8423  1.3838
   18SOL    HW2   71   0.056   1.532   0.336 -3.6232 -2.2824 -0.5495
   18SOL     MW   72   0.057   1.582   0.409 -0.7298 -0.9700  0.1986
   19SOL     OW   73   0.126   1.292   1.021 -0.0231 -0.4423  0.0867
   19SOL    HW1   74   0.171   1.342   0.954 -1.4640 -2.5267  0.6527
   19SOL    HW2   75   0.041   1.334   1.025 -1.3945  1.0472 -0.2350
   19SOL     MW   76   0.121   1.304   1.013 -0.3942 -0.5208  0.1189
   20SOL     OW   77   0.450   2.156   1.177 -0.5779 -0.1209 -0.0618
   20SOL    HW1   78   0.415   2.076   1.129 -1.6867 -2.0684 -0.5556
   20SOL    HW2   79   0.394   2.173   1.257 -1.4858  0.2310 -2.2933
   20SOL     MW   80   0.438   2.148   1.181 -0.8440 -0.3314 -0.4214
   21SOL     OW   81   0.454   0.857   0.392  0.0471  0.2057  0.0310
   21SOL    HW1   82   0.505   0.809   0.458  2.3113  1.5099  0.6284
   21SOL    HW2   83   0.512   0.854   0.318 -1.7937  1.7741  0.7406
   21SOL     MW   84   0.468   0.851   0.391  0.1029  0.5847  0.2035
   22SOL     OW   85   1.584   0.644   1.023  0.1054 -0.5983  0.0754
   22SOL    HW1   86   1.527   0.626   0.949  1.4203  0.9169  2.4986
   22SOL    HW2   87   1.549   0.721   1.066 -0.2462  0.4051  1.8022
   22SOL     MW   88   1.572   0.652   1.018  0.2325 -0.2660  0.6229
   23SOL     OW   89   3.068   0.727   0.658 -0.0812 -0.5125  0.0699
   23SOL    HW1   90   3.119   0.663   0.719  0.7173 -2.6970  0.8242
   23SOL    HW2   91   3.127   0.796   0.632 -1.6758  1.2722 -1.8868
   23SOL     MW   92   3.082   0.728   0.663 -0.1862 -0.5652 -0.0887
   24SOL     OW   93   2.028   2.225   0.041  0.3049 -0.4453 -0.4295
   24SOL    HW1   94   2.045   2.198   0.136  2.9174  0.4611 -1.0853
   24SOL    HW2   95   2.041   2.141  -0.003 -1.0569 -2.5754  1.0324
   24SOL     MW   96   2.032   2.210   0.048  0.4699 -0.6068 -0.3232
   25SOL     OW   97   0.225   1.418   0.556 -0.2714  0.4048  0.4182
   25SOL    HW1   98   0.169   1.470   0.503  2.1614  2.4429  1.1072
   25SOL    HW2   99   0.321   1.446   0.553 -0.1124  0.0160  1.8461
   25SOL     MW  100   0.230   1.429   0.548  0.0706  0.6224  0.6975
   26SOL     OW  101   2.103   1.001   0.360  0.3375  0.6331  0.0552
   26SOL    HW1  102   2.036   1.047   0.398  0.9070 -2.1613 -0.8929
   26SOL    HW2  103   2.164   1.059   0.315  0.4360  0.4879  0.4881
   26SOL     MW  104   2.103   1.015   0.359  0.4256  0.2453 -0.0128
   27SOL     OW  105   2.016   1.432   0.244 -0.3931 -0.0946 -0.1764
   27SOL    HW1  106   1.926   1.452   0.267 -1.2956 -0.1204 -2.5222
   27SOL    HW2  107   2.072   1.462   0.315 -1.3825  4.8170  0.3837
   27SOL     MW  108   2.011   1.439   0.256 -0.6427  0.5500 -0.4120
   28SOL     OW  109   0.448   0.980   1.949 -0.4677  0.1513 -0.4149
   28SOL    HW1  110   0.496   0.999   2.031  0.6829  1.2551  4.0588
   28SOL    HW2  111   0.375   0.922   1.972 -0.5345  3.4879  2.1892
   28SOL     MW  112   0.445   0.975   1.963 -0.3247  0.7372  0.5190
   29SOL     OW  113   0.230   1.428   0.825 -0.4769  0.5684  0.1302
   29SOL    HW1  114   0.200   1.519   0.815  1.0485  0.1256  0.6143
   29SOL    HW2  115   0.233   1.395   0.736 -1.8216 -0.4452 -1.5091
   29SOL     MW  116   0.226   1.436   0.812 -0.4531  0.3763 -0.0222
   30SOL     OW  117   0.813   1.188   1.238  0.2086 -0.0601 -0.2480
   30SOL    HW1  118   0.724   1.182   1.268 -0.1193  0.1973 -0.3714
   30SOL    HW2  119   0.870   1.190   1.323  1.3690 -0.9093  1.5076
   30SOL     MW  120   0.809   1.188   1.253  0.3184 -0.1382 -0.0326
   31SOL     OW  121   0.417   0.215   0.178  1.0211 -0.1156 -0.0446
   31SOL    HW1  122   0.419   0.121   0.194  1.2216  1.6363 -4.4789
   31SOL    HW2  123   0.408   0.218   0.084  0.3678  3.1485 -1.3302
   31SOL     MW  124   0.416   0.203   0.168  0.9613  0.5462 -0.7993
   32SOL     OW  125   2.822   0.957   1.176 -0.2751  0.1865  0.2395
   32SOL    HW1  126   2.753   0.913   1.122  0.9510  1.9645  0.3550
   32SOL    HW2  127   2.909   0.928   1.145  1.2202  2.5665  0.2214
   32SOL     MW  128   2.824   0.947   1.164  0.0839  0.7351  0.2524
   33SOL     OW  129   1.734   1.306   0.325 -0.2572  0.0433 -0.2536
   33SOL    HW1  130   1.773   1.233   0.377  0.9239 -0.7623 -0.0252
   33SOL    HW2  131   1.741   1.381   0.381 -0.2309 -1.1002 -0.2346
   33SOL     MW  132   1.740   1.307   0.339 -0.0979 -0.2139 -0.2210
   34SOL     OW  133   1.232   1.888   1.121  0.2654  0.1298 -0.2867
   34SOL    HW1  134   1.144   1.913   1.147 -1.1702 -0.3479 -0.6979
   34SOL    HW2  135   1.299   1.921   1.184 -0.0133  1.0463  2.1729
   34SOL     MW  136   1.229   1.895   1.133  0.0392  0.1877 -0.0164
   35SOL     OW  137   0.431   0.172   1.825  0.0593 -0.8865 -0.3139
   35SOL    HW1  138   0.441   0.086   1.870  1.6213 -0.0089  1.9622
   35SOL    HW2  139   0.451   0.162   1.734 -3.3050 -1.6454  1.8852
   35SOL     MW  140   0.435   0.159   1.819 -0.1785 -0.8708  0.2765
   36SOL     OW  141   1.959   1.964   0.580  0.1213 -0.1145  0.1534
   36SOL    HW1  142   1.963   1.964   0.485 -0.4439 -1.2592 -0.4129
   36SOL    HW2  143   1.982   1.868   0.598  1.3067 -0.4892 -1.4345
   36SOL     MW  144   1.963   1.951   0.570  0.2031 -0.3150 -0.1308
   37SOL     OW  145   1.786   1.971   0.972  0.6732  0.3034 -0.3178
   37SOL    HW1  146   1.714   1.929   0.920  1.6600 -0.2302  1.0474
   37SOL    HW2  147   1.736   2.018   1.035  1.2355 -1.7838 -0.3581
   37SOL     MW  148   1.770   1.972   0.974  0.8776 -0.0424 -0.1430
   38SOL     OW  149   2.819   0.918   0.152  0.0005  0.4084 -0.1019
   38SOL    HW1  150   2.864   0.870   0.225  1.8189 -0.7781  0.0461
   38SOL    HW2  151   2.881   0.912   0.084  1.4058 -0.0118  1.4786
   38SOL     MW  152   2.833   0.911   0.153  0.4258  0.1964  0.1262
   39SOL     OW  153   1.420   0.646   0.802  0.1718 -0.4740  0.0593
   39SOL    HW1  154   1.392   0.557   0.826 -1.2385 -1.5219  0.3696
   39SOL    HW2  155   1.340   0.691   0.759 -0.8538  1.4566  1.1869
   39SOL     MW  156   1.406   0.640   0.800 -0.1496 -0.3575  0.2490
   40SOL     OW  157   1.183   1.913   0.317  0.2129  0.0162 -0.0008
   40SOL    HW1  158   1.207   1.842   0.375 -1.3560  1.7980  0.8354
   40SOL    HW2  159   1.177   1.991   0.373  2.8001 -1.0795  2.3670
   40SOL     MW  160   1.185   1.914   0.332  0.3472  0.1067  0.4219
   41SOL     OW  161   0.597   0.556   1.643 -0.1222 -0.4535 -0.4467
   41SOL    HW1  162   0.690   0.589   1.647 -0.5237 -0.5416 -0.6726
   41SOL    HW2  163   0.584   0.483   1.705  0.6244 -1.6885  0.9382
   41SOL     MW  164   0.607   0.551   1.652 -0.0766 -0.6281 -0.2938
   42SOL     OW  165   1.249   3.003   1.997  0.3273  0.0639  0.4853
   42SOL    HW1  166   1.164   3.028   2.031  0.6084 -1.3248 -1.0997
   42SOL    HW2  167   1.294   2.959   2.067  0.3083 -1.7959  0.8430
   42SOL     MW  168   1.244   3.000   2.011  0.3619 -0.3647  0.3234
   43SOL     OW  169   1.513   0.136   1.723 -0.2205 -0.5664 -0.1357
   43SOL    HW1  170   1.554   0.107   1.640  2.2710  1.7739 -1.7037
   43SOL    HW2  171   1.438   0.072   1.732  0.6500 -1.4415  0.9235
   43SOL     MW  172   1.508   0.124   1.713  0.2231 -0.3731 -0.2028
   44SOL     OW  173   1.070   0.796   1.036  0.5840  0.2027  0.2760
   44SOL    HW1  174   1.114   0.872   1.000  2.2829 -0.6126  1.6101
   44SOL    HW2  175   1.119   0.766   1.112  0.7533 -0.1308 -1.3752
   44SOL     MW  176   1.082   0.802   1.041  0.8305  0.0511  0.2342
   45SOL     OW  177   1.220   0.758   0.655  0.0279 -0.0887 -0.4304
   45SOL    HW1  178   1.158   0.824   0.682  1.3733  0.7554 -1.0350
   45SOL    HW2  179   1.169   0.699   0.587 -5.5371 -1.7424  0.5381
   45SOL     MW  180   1.205   0.759   0.650 -0.5288 -0.1955 -0.3824
   46SOL     OW  181   0.564   1.186   0.610 -0.3815 -0.7928 -0.1178
   46SOL    HW1  182   0.510   1.171   0.532 -1.4250 -0.1965 -0.3587
   46SOL    HW2  183   0.641   1.136   0.596  1.5684  2.0744 -0.4985
   46SOL     MW  184   0.567   1.177   0.598 -0.2619 -0.3358 -0.1998
   47SOL     OW  185   0.200   2.034   1.996  0.2773  0.7840  0.2434
   47SOL    HW1  186   0.283   1.991   1.991  0.0013 -0.4327 -2.1274
   47SOL    HW2  187   0.169   2.027   2.086  0.5975  1.3477 -1.6512
   47SOL     MW  188   0.207   2.027   2.007  0.2831  0.6978 -0.3194
   48SOL     OW  189   1.076   0.487   1.023 -0.4504 -0.4352  0.6841
   48SOL    HW1  190   0.988   0.455   1.016  1.4357 -0.5817  1.3409
   48SOL    HW2  191   1.072   0.576   1.011 -1.7224 -2.3169 -0.3114
   48SOL     MW  192   1.063   0.495   1.020 -0.3694 -0.7028  0.6394
   49SOL     OW  193   1.775   0.708   1.521 -0.7396 -0.1942 -0.2385
   49SOL    HW1  194   1.745   0.658   1.593 -2.7778  1.8882  0.6457
   49SOL    HW2  195   1.863   0.672   1.492 -1.3806  0.0924  2.1359
   49SOL     MW  196   1.783   0.697   1.526 -1.0931  0.1184  0.1914
   50SOL     OW  197   1.313   1.066   0.508  0.5508  0.4996  0.0569
   50SOL    HW1  198   1.272   1.132   0.562 -1.3249  1.6379 -0.6010
   50SOL    HW2  199   1.384   1.027   0.561  0.5992  0.9494  0.3885
   50SOL     MW  200   1.317   1.070   0.522  0.3097  0.7091  0.0139
   51SOL     OW  201   0.329   2.922   0.916 -0.0694 -0.2300 -0.5172
   51SOL    HW1  202   0.407   2.867   0.926  0.2677  0.2254  2.7265
   51SOL    HW2  203   0.331   2.963   1.002  3.5176 -0.4304  1.6528
   51SOL     MW  204   0.340   2.920   0.929  0.4483 -0.1964  0.1971
   52SOL     OW  205   0.778   1.735   0.423 -0.1578 -0.1419 -0.2774
   52SOL    HW1  206   0.752   1.810   0.372 -1.9718 -0.3113 -3.0019
   52SOL    HW2  207   0.734   1.664   0.376  1.2435 -1.2028  0.7645
   52SOL     MW  208   0.769   1.736   0.410 -0.2122 -0.3042 -0.4994
   53SOL     OW  209   0.442   2.091   0.536 -0.5086 -0.7974 -0.6491
   53SOL    HW1  210   0.379   2.066   0.469 -0.0494 -1.9849 -1.3528
   53SOL    HW2  211   0.431   2.185   0.549  3.0240  2.0257 -0.0775
   53SOL     MW  212   0.433   2.100   0.529  0.0181 -0.5816 -0.6665
   54SOL     OW  213   2.003   0.936   0.789 -0.4848 -0.0660 -0.0196
   54SOL    HW1  214   2.040   0.959   0.702  2.2086  1.2178  0.0466
   54SOL    HW2  215   1.998   0.840   0.793  0.4352 -0.0425 -0.6029
   54SOL     MW  216   2.007   0.926   0.778 -0.0080  0.1065 -0.0879
   55SOL     OW  217   0.529   1.547   1.614  0.1438 -0.0726  0.0058
   55SOL    HW1  218   0.487   1.584   1.538  2.0654  0.2823 -0.0943
   55SOL    HW2  219   0.611   1.509   1.589 -1.0180  0.1813  1.5449
   55SOL     MW  220   0.534   1.547   1.601  0.2440  0.0078  0.1957
   56SOL     OW  221   0.615   0.819   0.188 -0.0491  0.1391  0.2538
   56SOL    HW1  222   0.641   0.911   0.176  1.4447 -1.2787  1.0153
   56SOL    HW2  223   0.542   0.813   0.126  0.9460 -0.2655  1.2210
   56SOL     MW  224   0.609   0.830   0.178  0.2793 -0.1014  0.4819
   57SOL     OW  225   1.152   1.276   1.172  0.3711 -0.6226  0.0698
   57SOL    HW1  226   1.248   1.254   1.167 -0.0336  1.1231  0.0062
   57SOL    HW2  227   1.130   1.219   1.244 -2.6667 -0.0183  2.8487
   57SOL     MW  228   1.161   1.265   1.181 -0.0831 -0.3125  0.4280
   58SOL     OW  229   0.565   1.195   1.355 -1.1783  0.7989  0.1417
   58SOL    HW1  230   0.545   1.284   1.338  2.9911  1.6821 -2.6865
   58SOL    HW2  231   0.573   1.181   1.448  0.8180 -1.0591 -1.1868
   58SOL     MW  232   0.564   1.205   1.365 -0.3648  0.6703 -0.4067
   59SOL     OW  233   1.550   1.706   0.358 -0.1947 -0.4390 -0.1936
   59SOL    HW1  234   1.585   1.752   0.437  0.0957 -2.3788 -0.3547
   59SOL    HW2  235   1.458   1.703   0.379 -1.9162 -0.2378  2.6650
   59SOL     MW  236   1.542   1.712   0.372 -0.3835 -0.6684  0.1623
   60SOL     OW  237   0.023   0.215   1.616 -0.3633  0.0422  0.4047
   60SOL    HW1  238  -0.045   0.270   1.664 -4.3204  4.0757  1.2384
   60SOL    HW2  239   0.055   0.154   1.683 -0.7179 -0.2593  2.5104
   60SOL     MW  240   0.018   0.214   1.631 -0.9322  0.5346  0.7926
   61SOL     OW  241   2.019   1.472   3.074  0.8980 -0.8210 -0.1243
   61SOL    HW1  242   2.026   1.453   3.171  2.0001  2.7102  0.9600
   61SOL    HW2  243   2.085   1.415   3.028 -0.0567  0.5833 -3.5247
   61SOL     MW  244   2.029   1.462   3.081  0.9175 -0.1698 -0.4299
   62SOL     OW  245   0.576   1.701   0.609  0.2629 -0.3138 -0.2107
   62SOL    HW1  246   0.670   1.694   0.588 -0.3882  1.9900 -0.1980
   62SOL    HW2  247   0.562   1.618   0.637 -2.6005  1.6955 -0.5029
   62SOL     MW  248   0.587   1.689   0.610 -0.2008  0.2552 -0.2476
   63SOL     OW  249   1.694   0.682   0.709  0.1930  0.2491  0.0895
   63SOL    HW1  250   1.726   0.764   0.669 -1.5638  0.2019  2.7626
   63SOL    HW2  251   1.599   0.702   0.717 -0.1775  0.1598  0.1329
   63SOL     MW  252   1.686   0.696   0.705 -0.0877  0.2311  0.4479
   64SOL     OW  253   0.219   1.711   0.834  0.3410  0.3664 -0.1790
   64SOL    HW1  254   0.268   1.752   0.769 -0.4875 -0.7613  1.7801
   64SOL    HW2  255   0.132   1.728   0.801 -1.2876 -1.5414 -0.6122
   64SOL     MW  256   0.214   1.719   0.821  0.0168 -0.0341  0.0223
   65SOL     OW  257   1.586   2.305   0.373  0.0268  0.1235  0.4704
   65SOL    HW1  258   1.659   2.256   0.401 -1.5334  0.1776 -0.4224
   65SOL    HW2  259   1.536   2.336   0.451 -0.5190 -1.2182  0.7946
   65SOL     MW  260   1.589   2.303   0.387 -0.2511 -0.0464  0.3954
   66SOL     OW  261   0.297   0.518   0.542 -0.2147  0.2828  0.0393
   66SOL    HW1  262   0.365   0.491   0.470  2.9849  0.2686  0.7473
   66SOL    HW2  263   0.269   0.607   0.517 -1.0144 -3.2138 -0.3888
   66SOL     MW  264   0.302   0.527   0.529  0.1020 -0.1804  0.0762
   67SOL     OW  265   1.507   0.079   2.034 -0.2990 -0.0960 -0.8102
   67SOL    HW1  266   1.554   0.099   1.955 -1.5808  0.6342  0.3031
   67SOL    HW2  267   1.465  -0.002   2.015  0.8227 -2.9252  1.6746
   67SOL     MW  268   1.508   0.071   2.021 -0.3201 -0.3729 -0.3355
   68SOL     OW  269   0.707   0.030   2.936 -0.2098  0.1994  0.7874
   68SOL    HW1  270   0.706   0.093   2.859  4.2127  1.2237  2.2056
   68SOL    HW2  271   0.772   0.069   2.999  0.4756  0.7759  0.6783
   68SOL     MW  272   0.715   0.043   2.934  0.4641  0.4106  0.9601
   69SOL     OW  273   1.060   0.216   1.962  0.2192 -0.1517 -0.3618
   69SOL    HW1  274   1.154   0.223   1.982 -0.9511  0.6822  1.2205
   69SOL    HW2  275   1.024   0.138   2.004 -2.6433 -3.3957 -4.8675
   69SOL     MW  276   1.067   0.207   1.970 -0.3129 -0.4697 -0.7475
   70SOL     OW  277   0.575   1.730   1.138  0.3248 -0.2018  0.5095
   70SOL    HW1  278   0.630   1.718   1.216 -0.4383  1.8786 -0.1360
   70SOL    HW2  279   0.629   1.776   1.077 -1.0256  0.8172 -0.8051
   70SOL     MW  280   0.590   1.734   1.140  0.0459  0.2071  0.2509
   71SOL     OW  281   1.595   0.479   1.250  0.2597 -0.3214 -0.2636
   71SOL    HW1  282   1.561   0.555   1.300 -0.4881  1.8693 -1.2306
   71SOL    HW2  283   1.583   0.501   1.156  3.5915 -0.7209 -0.7708
   71SOL     MW  284   1.589   0.492   1.244  0.6006 -0.0851 -0.4581
   72SOL     OW  285   0.773   1.874   0.990  0.4608 -0.1907  0.0771
   72SOL    HW1  286   0.762   1.926   0.907 -1.4594  0.9013  2.7512
   72SOL    HW2  287   0.810   1.784   0.973  1.0654 -1.7978  0.1923
   72SOL     MW  288   0.777   1.869   0.977  0.2873 -0.2587  0.4451
   73SOL     OW  289   1.172   0.694   1.265 -0.2795  0.0970  0.5744
   73SOL    HW1  290   1.105   0.633   1.298 -1.1303 -0.7483 -0.0988
   73SOL    HW2  291   1.157   0.774   1.326 -1.4442  2.5653 -0.9851
   73SOL     MW  292   1.161   0.697   1.278 -0.5454  0.3111  0.2798
   74SOL     OW  293   2.718   0.184   1.005  0.1898  0.5777  0.6619
   74SOL    HW1  294   2.791   0.180   0.944  1.1488  1.2295 -1.4054
   74SOL    HW2  295   2.700   0.279   1.002 -0.2645  1.1853 -1.7911
   74SOL     MW  296   2.725   0.196   0.997  0.2564  0.7439  0.0655
   75SOL     OW  297   1.583   1.434   0.143 -0.7970 -0.2235  0.1669
   75SOL    HW1  298   1.639   1.510   0.135 -1.4446 -0.6073  0.1031
   75SOL    HW2  299   1.635   1.388   0.214 -3.0753 -0.0672  1.0134
   75SOL     MW  300   1.597   1.438   0.151 -1.1831 -0.2535  0.2702
   76SOL     OW  301   2.940   0.561   0.462  0.0009 -0.0516 -0.1059
   76SOL    HW1  302   2.984   0.619   0.528 -1.3391 -0.1440  0.6279
   76SOL    HW2  303   3.013   0.511   0.422 -1.1709  0.9543  0.9416
   76SOL     MW  304   2.956   0.562   0.465 -0.3305  0.0690  0.1292
   77SOL     OW  305   0.825   0.548   0.466 -0.1800  0.4629  0.3181
   77SOL    HW1  306   0.800   0.558   0.373 -0.3222 -0.2044  0.9852
   77SOL    HW2  307   0.778   0.469   0.495 -0.6314 -1.7041  1.1802
   77SOL     MW  308   0.815   0.539   0.458 -0.2584  0.0889  0.5198
   78SOL     OW  309   0.758   0.912   1.268  0.1012  0.1885 -0.1948
   78SOL    HW1  310   0.785   0.963   1.194  2.5201  0.8825 -2.2329
   78SOL    HW2  311   0.668   0.880   1.245  0.4027 -1.4331 -1.3280
   78SOL     MW  312   0.750   0.914   1.255  0.4601  0.0661 -0.6132
   79SOL     OW  313   1.958   1.688   0.581 -0.0732 -0.6420  0.3760
   79SOL    HW1  314   1.883   1.634   0.549 -2.9164 -0.7507  0.0995
   79SOL    HW2  315   1.954   1.676   0.679  0.6434  1.4637  2.2440
   79SOL     MW  316   1.947   1.679   0.590 -0.3538 -0.3785  0.5860
   80SOL     OW  317   0.085   0.977   0.324  0.0544 -0.1430 -0.3565
   80SOL    HW1  318  -0.003   0.957   0.310  1.1652  1.1393  3.0435
   80SOL    HW2  319   0.119   0.909   0.382  1.3965  0.7091  1.5024
   80SOL     MW  320   0.078   0.965   0.330  0.3780  0.1386  0.3374
   81SOL     OW  321   1.911   1.891   0.337 -0.0072 -0.1263  0.3239
   81SOL    HW1  322   1.882   1.810   0.377  1.4273  0.4536  2.1828
   81SOL    HW2  323   1.847   1.922   0.276  0.9704  1.4965  2.1777
   81SOL     MW  324   1.899   1.884   0.334  0.3110  0.1643  0.8138
   82SOL     OW  325   0.777   1.015   0.556  0.2680 -0.4589  0.3862
   82SOL    HW1  326   0.783   1.044   0.458  1.5854  0.0118 -1.6956
   82SOL    HW2  327   0.738   0.927   0.556  0.7291 -0.2512 -1.0091
   82SOL     MW  328   0.773   1.007   0.543  0.5027 -0.3694 -0.0726
   83SOL     OW  329   0.076   0.650   1.443  0.1094  0.7962 -0.3398
   83SOL    HW1  330   0.114   0.712   1.379 -0.0293  0.4028  0.2739
   83SOL    HW2  331   0.156   0.595   1.459 -1.2990 -1.9758 -0.0933
   83SOL     MW  332   0.092   0.651   1.437 -0.0947  0.3785 -0.2263
   84SOL     OW  333   0.144   0.221   1.020 -0.2148 -0.2459  0.2438
   84SOL    HW1  334   0.074   0.285   1.013 -1.3449 -2.5839  0.9682
   84SOL    HW2  335   0.141   0.187   1.110 -0.0774 -1.7108 -1.1452
   84SOL     MW  336   0.135   0.225   1.031 -0.3458 -0.7477  0.1561
   85SOL     OW  337   0.478   0.428   0.785 -0.1426  0.3135 -0.0942
   85SOL    HW1  338   0.441   0.473   0.714  1.0114 -1.3673  2.5187
   85SOL    HW2  339   0.427   0.345   0.800  0.9695  0.9239 -1.0495
   85SOL     MW  340   0.466   0.423   0.778  0.1564  0.1722  0.1245
   86SOL     OW  341   1.179   0.250   1.128 -0.1383  0.1581 -0.1053
   86SOL    HW1  342   1.142   0.329   1.099  0.1754 -2.6344 -0.6481
   86SOL    HW2  343   1.245   0.266   1.195  2.5023 -1.1192 -2.5008
   86SOL     MW  344   1.183   0.262   1.133  0.2515 -0.3788 -0.4930
   87SOL     OW  345   1.269   1.505   1.302 -0.2240  0.8450 -0.0627
   87SOL    HW1  346   1.271   1.552   1.219 -1.7898  0.4383  0.8615
   87SOL    HW2  347   1.246   1.412   1.276 -0.1722 -2.0308  0.3719
   87SOL     MW  348   1.266   1.499   1.288 -0.4237  0.4119  0.1166
   88SOL     OW  349   1.196   1.069   0.965  0.0199  0.0065 -0.0965
   88SOL    HW1  350   1.286   1.093   0.975 -2.0484 -0.2512  0.7278
   88SOL    HW2  351   1.150   1.134   1.017  1.7230  3.0877  1.0170
   88SOL     MW  352   1.201   1.080   0.973 -0.0283  0.3790  0.1591
   89SOL     OW  353   1.708   0.734   0.367 -0.3194 -0.0736 -0.4609
   89SOL    HW1  354   1.686   0.645   0.389 -0.3271  0.5051  2.4300
   89SOL    HW2  355   1.785   0.727   0.305  1.3571  0.2825 -0.5707
   89SOL     MW  356   1.715   0.722   0.362 -0.0992  0.0497 -0.0940
   90SOL     OW  357   0.802   1.082   2.750  0.6333 -0.4875  0.9484
   90SOL    HW1  358   0.826   0.995   2.794 -0.2630 -2.5861  0.7979
   90SOL    HW2  359   0.807   1.159   2.810 -0.8197  3.3033  3.3413
   90SOL     MW  360   0.806   1.081   2.764  0.3233 -0.2642  1.2442
   91SOL     OW  361   2.182   0.674   0.418 -0.5199  0.0937  0.0792
   91SOL    HW1  362   2.253   0.699   0.359  0.0662  3.4841 -1.3414
   91SOL    HW2  363   2.185   0.578   0.417  0.7617 -1.0625 -0.9570
   91SOL     MW  364   2.192   0.664   0.410 -0.2735  0.3885 -0.2449
   92SOL     OW  365   1.748   0.927   0.551 -0.5300  0.1258  0.3912
   92SOL    HW1  366   1.664   0.958   0.587  0.8935 -3.3183 -1.4736
   92SOL    HW2  367   1.726   0.853   0.492  2.3333 -0.0794  1.5363
   92SOL     MW  368   1.734   0.921   0.548  0.0356 -0.3557  0.2963
   93SOL     OW  369   0.959   0.256   0.416  0.0053  0.3730  0.1993
   93SOL    HW1  370   0.867   0.282   0.413  0.4109  0.3525  0.2374
   93SOL    HW2  371   0.994   0.270   0.325  1.7243  0.7803 -0.1930
   93SOL     MW  372   0.951   0.261   0.403  0.2856  0.4241  0.1526
   94SOL     OW  373   1.836   1.385   1.637  0.3162 -0.2052  0.8977
   94SOL    HW1  374   1.843   1.388   1.546 -1.0095 -1.4076  1.3359
   94SOL    HW2  375   1.795   1.303   1.675 -1.0984  1.3236  3.4865
   94SOL     MW  376   1.832   1.374   1.630 -0.0454 -0.1621  1.2971
   95SOL     OW  377   0.803   1.572   0.928  0.1214  0.5931  0.3064
   95SOL    HW1  378   0.847   1.518   0.993 -3.7527 -0.0436  2.9202
   95SOL    HW2  379   0.714   1.536   0.921  0.6899 -1.6728  0.8537
   95SOL     MW  380   0.797   1.560   0.936 -0.3147  0.2101  0.7235
   96SOL     OW  381   1.220   1.878   1.669 -0.3837 -0.2448  0.4829
   96SOL    HW1  382   1.169   1.857   1.743  2.0163 -1.9449  0.0145
   96SOL    HW2  383   1.235   1.796   1.628 -1.3429  4.8466  4.2538
   96SOL     MW  384   1.216   1.864   1.674 -0.1936  0.2027  0.9186
   97SOL     OW  385   1.243   1.454   0.793 -0.5467 -0.1152  0.9189
   97SOL    HW1  386   1.275   1.496   0.873  3.1123 -0.5586 -0.5882
   97SOL    HW2  387   1.153   1.494   0.776 -0.1057  0.4278 -0.7604
   97SOL     MW  388   1.236   1.465   0.801 -0.0058 -0.1020  0.4985
   98SOL     OW  389   1.427   1.274   1.040  0.0010  0.4514 -0.3188
   98SOL    HW1  390   1.495   1.293   1.108  2.5899  0.9595  0.9661
   98SOL    HW2  391   1.471   1.261   0.958  1.0549 -2.3069  1.9439
   98SOL     MW  392   1.442   1.275   1.038  0.4816  0.1545  0.1492
   99SOL     OW  393   1.339   0.342   1.333  0.0107 -0.1859 -0.8159
   99SOL    HW1  394   1.418   0.396   1.308  4.0527 -0.9767  1.4213
   99SOL    HW2  395   1.314   0.382   1.417 -0.4120  1.5301 -1.9364
   99SOL     MW  396   1.346   0.355   1.341  0.4883 -0.0638 -0.6685
  100SOL     OW  397   1.011   1.173   1.419  0.1851  0.3728 -0.6650
  100SOL    HW1  398   1.039   1.193   1.506  2.4436 -3.2150 -0.0259
  100SOL    HW2  399   1.054   1.085   1.414  1.2343  0.7820 -1.6040
  100SOL     MW  400   1.020   1.164   1.430  0.6215 -0.0466 -0.7045
  101SOL     OW  401   0.488   1.126   0.338  0.3430  0.6476 -0.0501
  101SOL    HW1  402   0.469   1.035   0.370  1.4494 -0.8858 -0.1114
  101SOL    HW2  403   0.520   1.101   0.256  0.7639 -0.6770  0.4892
  101SOL     MW  404   0.490   1.111   0.332  0.5445  0.2705  0.0130
  102SOL     OW  405   2.894   0.680   1.035 -0.6249  0.0515 -0.5330
  102SOL    HW1  406   2.970   0.737   1.043  0.0336 -0.9682  0.8034
  102SOL    HW2  407   2.871   0.639   1.120  0.2159 -0.0267  3.0029
  102SOL     MW  408   2.901   0.682   1.047 -0.4271 -0.0933  0.1098
  103SOL     OW  409   1.687   0.281   1.857 -0.3871 -0.2927  0.1997
  103SOL    HW1  410   1.619   0.232   1.805  1.3696  1.5941  1.3294
  103SOL    HW2  411   1.764   0.226   1.861 -2.1766  3.8383  0.6662
  103SOL     MW  412   1.688   0.267   1.850 -0.3914  0.5013  0.4103
  104SOL     OW  413   0.143   1.563   1.547 -0.1548 -0.8560  0.8379
  104SOL    HW1  414   0.168   1.468   1.573  0.2410  0.4293  0.0176
  104SOL    HW2  415   0.069   1.556   1.497  1.4053  2.1534  2.8424
  104SOL     MW  416   0.137   1.550   1.544  0.1033 -0.2893  0.9941
  105SOL     OW  417   0.072   1.230   0.432 -0.2526 -0.3336 -0.3153
  105SOL    HW1  418   0.101   1.146   0.398  0.2016  2.4729  2.6912
  105SOL    HW2  419   0.151   1.272   0.460 -2.0871 -0.8539  1.2366
  105SOL     MW  420   0.086   1.225   0.431 -0.4347 -0.0320  0.2862
  106SOL     OW  421   0.839   0.338   0.973  0.1590  0.1333  0.0110
  106SOL    HW1  422   0.794   0.414   0.933  1.1611  1.6187 -0.5534
  106SOL    HW2  423   0.915   0.318   0.915  0.7028 -0.0603 -0.0070
  106SOL     MW  424   0.843   0.345   0.960  0.3630  0.3037 -0.0659
  107SOL     OW  425   0.808   2.184   2.950 -0.2690  0.2563  0.1401
  107SOL    HW1  426   0.735   2.135   2.914 -0.8599  1.3550  0.2542
  107SOL    HW2  427   0.796   2.172   3.045 -2.1860 -0.7804 -1.7121
  107SOL     MW  428   0.797   2.176   2.958 -0.5999  0.2645 -0.0892
  108SOL     OW  429   1.343   1.591   1.641  0.0314  0.0382  0.1605
  108SOL    HW1  430   1.297   1.545   1.568 -1.5627 -0.2575 -3.0644
  108SOL    HW2  431   1.430   1.568   1.622 -1.9114 -2.3329 -2.5445
  108SOL     MW  432   1.348   1.582   1.629 -0.4353 -0.3136 -0.6219
  109SOL     OW  433   1.953   0.757   0.212  0.4483 -0.4627  0.1468
  109SOL    HW1  434   1.973   0.850   0.184 -2.3736  1.7307  3.5048
  109SOL    HW2  435   2.012   0.737   0.287 -2.6479 -1.6958  1.1127
  109SOL     MW  436   1.964   0.767   0.218 -0.3325 -0.3360  0.7173
  110SOL     OW  437   0.342   1.881   0.638  0.5402 -0.1694 -0.6297
  110SOL    HW1  438   0.421   1.834   0.670 -1.2460 -0.9963  1.9753
  110SOL    HW2  439   0.379   1.968   0.612 -0.6626  1.4978  1.4980
  110SOL     MW  440   0.357   1.887   0.638  0.1458 -0.0586 -0.0053
  111SOL     OW  441   0.855   0.906   1.523 -0.3777 -0.7228  0.0593
  111SOL    HW1  442   0.825   0.936   1.435  0.7608 -0.1829 -2.5055
  111SOL    HW2  443   0.829   0.818   1.543 -1.6081  0.9886  0.9254
  111SOL     MW  444   0.847   0.899   1.514 -0.3898 -0.4257 -0.1648
  112SOL     OW  445   1.312   1.129   1.606  0.2191 -0.6800  0.1860
  112SOL    HW1  446   1.244   1.192   1.640 -0.3797  0.1199 -0.9878
  112SOL    HW2  447   1.284   1.039   1.632  0.3132 -0.1449  1.0036
  112SOL     MW  448   1.300   1.126   1.614  0.1525 -0.5039  0.1390
  113SOL     OW  449   1.287   3.106   1.730 -0.2210  0.4057  0.3384
  113SOL    HW1  450   1.272   3.072   1.818 -0.8928 -4.2525  0.0945
  113SOL    HW2  451   1.281   3.032   1.664 -0.0457 -0.0245 -1.5185
  113SOL     MW  452   1.284   3.092   1.733 -0.2865 -0.2656  0.0612
  114SOL     OW  453   0.303   2.871   1.939 -0.2182 -0.2269 -0.8054
  114SOL    HW1  454   0.371   2.941   1.968  3.5420 -1.8486 -0.5236
  114SOL    HW2  455   0.307   2.867   1.844 -0.4984  0.2153 -0.2272
  114SOL     MW  456   0.313   2.880   1.931  0.2410 -0.3826 -0.6919
  115SOL     OW  457   0.503   0.848   1.115 -0.1447  0.4873  0.6297
  115SOL    HW1  458   0.524   0.753   1.131  0.8746  0.2419 -0.1233
  115SOL    HW2  459   0.442   0.877   1.187  0.0089  1.4428 -0.2377
  115SOL     MW  460   0.498   0.839   1.127  0.0100  0.5810  0.4159
  116SOL     OW  461   0.775   1.099   0.967  0.1569  0.1180  0.4654
  116SOL    HW1  462   0.825   1.148   0.894  1.8857 -3.6725  0.3092
  116SOL    HW2  463   0.804   1.141   1.045  0.0303  0.6437  2.1403
  116SOL     MW  464   0.785   1.111   0.968  0.3683 -0.3128  0.6658
  117SOL     OW  465   1.215   1.205   0.714 -0.1499  0.5822 -0.2171
  117SOL    HW1  466   1.212   1.153   0.797 -0.8597  0.1269 -1.9829
  117SOL    HW2  467   1.238   1.293   0.744  0.9407  1.1099  3.1119
  117SOL     MW  468   1.218   1.209   0.729 -0.0997  0.5918 -0.0109
  118SOL     OW  469   3.041   2.974   1.710  0.3104  0.4512 -0.2218
  118SOL    HW1  470   3.099   3.049   1.723  1.4255 -1.8076  0.4075
  118SOL    HW2  471   2.950   3.009   1.733 -4.1920 -1.4307 -0.7958
  118SOL     MW  472   3.037   2.989   1.715 -0.1365 -0.0951 -0.2145
  119SOL     OW  473   0.472   1.485   1.273  0.3512 -0.3714 -0.6640
  119SOL    HW1  474   0.518   1.560   1.240 -0.5746  0.1359 -0.8585
  119SOL    HW2  475   0.387   1.472   1.234 -1.2193  0.0762  1.9725
  119SOL     MW  476   0.467   1.493   1.264  0.0219 -0.2454 -0.3418
  120SOL     OW  477   0.267   0.700   0.983 -0.0835  0.6637 -0.9935
  120SOL    HW1  478   0.256   0.632   1.052  1.2104 -0.6198 -0.5126
  120SOL    HW2  479   0.347   0.748   1.008  3.1579 -0.6190 -1.7312
  120SOL     MW  480   0.276   0.697   0.996  0.5149  0.3251 -1.0274
  121SOL     OW  481   1.726   1.128   1.750  0.1912 -0.6181  0.3004
  121SOL    HW1  482   1.637   1.085   1.767 -0.4372 -1.1731 -0.8401
  121SOL    HW2  483   1.771   1.070   1.689 -0.3503 -0.3065  3.5987
  121SOL     MW  484   1.720   1.115   1.744  0.0369 -0.6502  0.5851
  122SOL     OW  485   0.137   0.560   0.798  0.4949  0.1581  0.4155
  122SOL    HW1  486   0.207   0.539   0.735  0.0519 -1.6353  0.2887
  122SOL    HW2  487   0.175   0.625   0.862  0.8303  0.8257 -0.4206
  122SOL     MW  488   0.151   0.566   0.798  0.4807  0.0096  0.2884
  123SOL     OW  489   1.880   1.158   0.510  0.5174  0.0890 -0.0021
  123SOL    HW1  490   1.857   1.066   0.532  0.1581 -0.2303  2.4921
  123SOL    HW2  491   1.862   1.214   0.588 -2.5303  0.7001 -2.5583
  123SOL     MW  492   1.875   1.153   0.523  0.0679  0.1275 -0.0102
  124SOL     OW  493   0.673   0.547   0.921 -0.1776 -0.0186  0.3682
  124SOL    HW1  494   0.615   0.489   0.868 -1.6389 -0.3801 -1.1475
  124SOL    HW2  495   0.683   0.637   0.882  1.9056  1.7840 -0.2829
  124SOL     MW  496   0.667   0.551   0.909 -0.0956  0.1716  0.0823
  125SOL     OW  497   0.639   1.794   1.751  0.3114 -0.0923  0.5468
  125SOL    HW1  498   0.587   1.737   1.693 -0.5074  1.1427  1.1770
  125SOL    HW2  499   0.598   1.886   1.753  1.4967 -1.8415 -0.5221
  125SOL     MW  500   0.627   1.799   1.743  0.3597 -0.1601  0.4890
  126SOL     OW  501   2.065   1.575   1.953  0.0962  0.1875  0.2337
  126SOL    HW1  502   2.097   1.664   1.955  0.6640  0.2867  0.5319
  126SOL    HW2  503   2.140   1.518   1.974 -0.2357 -0.3493  0.0656
  126SOL     MW  504   2.079   1.579   1.956  0.1273  0.1298  0.2509
  127SOL     OW  505   0.639   0.796   1.818 -0.5509 -0.1097 -0.5090
  127SOL    HW1  506   0.698   0.746   1.871 -1.0077  0.4500 -2.2257
  127SOL    HW2  507   0.620   0.879   1.863  0.2010 -0.9351 -0.8734
  127SOL     MW  508   0.644   0.801   1.831 -0.5120 -0.1448 -0.7836
  128SOL     OW  509   1.805   0.746   2.928  0.5597 -0.2092 -0.0986
  128SOL    HW1  510   1.807   0.692   2.846 -0.3418 -0.8480 -0.2920
  128SOL    HW2  511   1.775   0.833   2.892  2.2278 -1.7249 -1.1675
  128SOL     MW  512   1.801   0.750   2.913  0.6608 -0.4935 -0.2651
  129SOL     OW  513   1.570   0.921   0.221 -0.2670 -0.2758  0.0783
  129SOL    HW1  514   1.537   0.852   0.162  2.4328 -0.2195 -1.3210
  129SOL    HW2  515   1.603   0.861   0.291  1.1842  2.0633  1.0590
  129SOL     MW  516   1.570   0.904   0.223  0.2807  0.0403  0.0230
  130SOL     OW  517   0.746   1.370   0.316 -0.4006 -0.5193 -0.2409
  130SOL    HW1  518   0.770   1.377   0.413  1.3534  0.2879 -1.1924
  130SOL    HW2  519   0.801   1.430   0.275  0.2567 -0.2600  0.9376
  130SOL     MW  520   0.756   1.379   0.323 -0.0824 -0.3786 -0.2110
  131SOL     OW  521   3.056   0.815   0.025 -0.4585  0.2872  0.3067
  131SOL    HW1  522   3.040   0.848  -0.060 -1.4199 -1.3113  0.0048
  131SOL    HW2  523   3.148   0.801   0.029 -2.0690  1.4481 -2.0439
  131SOL     MW  524   3.066   0.818   0.015 -0.7979  0.2295 -0.0432
  132SOL     OW  525   2.695   0.134   1.277  0.0702 -0.2529  0.9095
  132SOL    HW1  526   2.717   0.170   1.182 -0.1746  1.9899 -0.8862
  132SOL    HW2  527   2.621   0.076   1.262 -1.8141 -0.2834  0.5103
  132SOL     MW  528   2.688   0.131   1.262 -0.2107  0.0390  0.6199
  133SOL     OW  529   1.053   0.140   1.691 -0.0127  0.0726  0.1728
  133SOL    HW1  530   1.132   0.085   1.685  0.9423  1.9443  1.4765
  133SOL    HW2  531   1.048   0.160   1.783 -3.5448 -0.2141 -1.7829
  133SOL     MW  532   1.063   0.136   1.702 -0.3527  0.2817  0.0867
  134SOL     OW  533   1.399   2.537   1.428  0.4989 -0.3618 -0.2951
  134SOL    HW1  534   1.330   2.605   1.418 -1.3020  1.1199 -0.7515
  134SOL    HW2  535   1.453   2.554   1.505 -0.6395  2.8452  0.2004
  134SOL     MW  536   1.397   2.548   1.437  0.1111  0.2569 -0.2899
  135SOL     OW  537   3.003   0.972   2.880 -0.1761 -0.4170  0.8586
  135SOL    HW1  538   3.079   1.027   2.875 -0.4101  1.9484 -0.4809
  135SOL    HW2  539   2.930   1.032   2.855  1.6176  2.0430 -0.8786
  135SOL     MW  540   3.004   0.987   2.876  0.0297  0.2197  0.4526
  136SOL     OW  541   0.168   2.003   0.808  0.0794 -0.0258  0.1035
  136SOL    HW1  542   0.084   1.963   0.784 -0.6981  0.8781 -1.7579
  136SOL    HW2  543   0.229   1.966   0.740 -0.7525 -0.6900 -3.3670
  136SOL     MW  544   0.165   1.993   0.796 -0.1329  0.0058 -0.6000
  137SOL     OW  545   0.728   2.041   0.528  0.1490 -0.0453 -0.0188
  137SOL    HW1  546   0.765   2.041   0.619  3.2566  4.1023  0.9619
  137SOL    HW2  547   0.632   2.031   0.545 -1.9963 -0.1195 -3.0329
  137SOL     MW  548   0.720   2.040   0.542  0.2760  0.4922 -0.2871
  138SOL     OW  549   0.514   0.575   1.163 -0.0163 -0.2824  0.5158
  138SOL    HW1  550   0.428   0.534   1.143  0.1922 -1.6938  3.2988
  138SOL    HW2  551   0.571   0.553   1.088 -0.8674  0.0659  0.6057
  138SOL     MW  552   0.510   0.567   1.150 -0.1011 -0.4227  0.8948
  139SOL     OW  553   2.775   0.637   1.295  0.3159 -0.0582 -0.5147
  139SOL    HW1  554   2.787   0.550   1.335  3.2751  1.6581 -1.5696
  139SOL    HW2  555   2.811   0.700   1.362  2.0304  1.9221  0.7262
  139SOL     MW  556   2.782   0.633   1.309  0.9326  0.4295 -0.4902
  140SOL     OW  557   0.905   0.413   2.070  0.4984  0.3858 -0.1829
  140SOL    HW1  558   0.969   0.351   2.029 -2.3047 -0.2457  2.3241
  140SOL    HW2  559   0.905   0.401   2.165  4.1564  1.8253  0.6788
  140SOL     MW  560   0.913   0.403   2.077  0.6112  0.4924  0.2615
  141SOL     OW  561   1.048   0.672   1.754 -0.3313  0.0502 -0.0547
  141SOL    HW1  562   1.096   0.593   1.725 -0.6772 -0.0733  2.2068
  141SOL    HW2  563   1.099   0.748   1.730 -0.8954  0.9737  1.9427
  141SOL     MW  564   1.061   0.672   1.747 -0.4513  0.1557  0.5072
  142SOL     OW  565   0.922   1.182   0.716  0.1723 -0.2283 -0.0092
  142SOL    HW1  566   0.896   1.112   0.654  2.2400 -0.6440  1.4294
  142SOL    HW2  567   1.013   1.175   0.703 -0.8771  0.1460  3.8501
  142SOL     MW  568   0.930   1.172   0.706  0.3066 -0.2337  0.6898
  143SOL     OW  569   1.840   0.760   1.075  0.5046  0.0199 -0.4794
  143SOL    HW1  570   1.926   0.732   1.033 -0.2286 -2.3443 -2.4778
  143SOL    HW2  571   1.768   0.732   1.016  0.4982 -0.7577 -0.8971
  143SOL     MW  572   1.842   0.753   1.061  0.4070 -0.3947 -0.7982
  144SOL     OW  573   0.269   1.210   1.641  0.6513  0.5183  0.7442
  144SOL    HW1  574   0.357   1.222   1.610 -0.7349  1.1041  0.9785
  144SOL    HW2  575   0.268   1.222   1.736 -3.1886  1.4080  0.3557
  144SOL     MW  576   0.280   1.213   1.649 -0.0382  0.7130  0.7238
  145SOL     OW  577   0.221   0.490   1.156 -0.3933 -0.0233  0.1110
  145SOL    HW1  578   0.287   0.433   1.198  2.0557 -1.8596  0.9340
  145SOL    HW2  579   0.143   0.452   1.138  2.9821  2.0990  0.6279
  145SOL     MW  580   0.220   0.478   1.159  0.3752  0.0144  0.2878
  146SOL     OW  581   0.845   1.960   1.364 -0.4742  0.3866  0.5237
  146SOL    HW1  582   0.886   1.967   1.278 -1.4213 -1.0918  2.0192
  146SOL    HW2  583   0.756   1.926   1.346 -1.5376  1.8980 -2.7349
  146SOL     MW  584   0.839   1.957   1.350 -0.7395  0.3909  0.2911
  147SOL     OW  585   0.446   0.460   2.974 -0.4019 -0.1791  0.4506
  147SOL    HW1  586   0.392   0.458   3.051 -0.7723 -0.3899  0.9337
  147SOL    HW2  587   0.399   0.516   2.910  1.7998  0.5891  1.4557
  147SOL     MW  588   0.432   0.467   2.975 -0.1603 -0.1056  0.6469
  148SOL     OW  589   0.145   0.877   1.291 -0.3220  0.7336  0.4593
  148SOL    HW1  590   0.246   0.901   1.289  0.0923 -1.9387 -0.3972
  148SOL    HW2  591   0.115   0.950   1.353 -1.2934  1.9683 -1.8269
  148SOL     MW  592   0.154   0.890   1.299 -0.3955  0.5439  0.0447
  149SOL     OW  593   1.355   1.188   1.354  1.0463  0.0035  0.2143
  149SOL    HW1  594   1.344   1.172   1.450 -0.9550  0.3654 -0.0464
  149SOL    HW2  595   1.437   1.241   1.345  1.2423 -0.2550  3.1655
  149SOL     MW  596   1.365   1.193   1.365  0.8081  0.0172  0.5693
  150SOL     OW  597   1.796   1.334   0.753 -0.7696  0.4902  0.1315
  150SOL    HW1  598   1.830   1.271   0.817  0.8694  3.6697 -0.6680
  150SOL    HW2  599   1.828   1.415   0.791 -1.1120  0.3151 -0.6316
  150SOL     MW  600   1.805   1.336   0.766 -0.5985  0.8866 -0.0746
  151SOL     OW  601   1.645   1.770   0.800 -0.0086  0.3343 -0.0249
  151SOL    HW1  602   1.654   1.799   0.709  1.4512 -3.1280  1.2656
  151SOL    HW2  603   1.588   1.688   0.814 -1.1025 -1.1712 -0.2130
  151SOL     MW  604   1.638   1.763   0.789  0.0397 -0.3212  0.1206
  152SOL     OW  605   0.766   1.382   1.508 -0.0490  0.3074  0.2351
  152SOL    HW1  606   0.765   1.313   1.576  1.9178 -1.2922 -1.3893
  152SOL    HW2  607   0.861   1.380   1.483 -0.5844  3.0236  1.7965
  152SOL     MW  608   0.779   1.372   1.514  0.1398  0.4547  0.2268
  153SOL     OW  609   2.610   1.207   0.799  0.0641  0.1659  0.2271
  153SOL    HW1  610   2.688   1.167   0.746  0.4699 -2.8777  1.1121
  153SOL    HW2  611   2.545   1.142   0.778 -1.5683 -1.4772 -0.9797
  153SOL     MW  612   2.611   1.193   0.790 -0.0978 -0.4525  0.1847
  154SOL     OW  613   0.221   1.792   1.711 -0.3147  0.0176  0.4222
  154SOL    HW1  614   0.156   1.721   1.693 -0.6827 -3.5700 -0.9944
  154SOL    HW2  615   0.299   1.741   1.727  0.4070 -0.5798 -0.9248
  154SOL     MW  616   0.223   1.776   1.710 -0.2680 -0.5346  0.0576
  155SOL     OW  617   1.209   0.701   0.211 -0.2859  0.0931  0.1866
  155SOL    HW1  618   1.240   0.642   0.285 -1.3071  0.0697  1.4418
  155SOL    HW2  619   1.156   0.767   0.259 -0.6715 -0.2112  3.4977
  155SOL     MW  620   1.206   0.702   0.227 -0.4715  0.0498  0.7891
  156SOL     OW  621   1.484   3.044   1.114 -0.0147 -0.4171 -0.0700
  156SOL    HW1  622   1.571   3.077   1.141  2.3272 -0.6144 -2.6470
  156SOL    HW2  623   1.497   2.953   1.129 -2.1100 -1.8324 -3.1501
  156SOL     MW  624   1.497   3.036   1.119  0.0178 -0.6298 -0.8164
  157SOL     OW  625   1.458   1.188   0.123  0.1522  0.7006 -0.3731
  157SOL    HW1  626   1.515   1.109   0.149  3.4536 -2.6808  0.6735
  157SOL    HW2  627   1.519   1.266   0.132  0.6807 -1.0336 -3.1416
  157SOL     MW  628   1.474   1.188   0.127  0.6575  0.0257 -0.6003
  158SOL     OW  629   0.530   1.652   2.218 -1.2883  0.0264  0.0097
  158SOL    HW1  630   0.508   1.708   2.145  0.2391 -1.1652  1.0059
  158SOL    HW2  631   0.454   1.656   2.271  2.5253  1.5439 -0.2727
  158SOL     MW  632   0.517   1.660   2.216 -0.5836  0.0694  0.1039
  159SOL     OW  633   1.275   1.651   0.436 -0.1751 -0.2488  0.1651
  159SOL    HW1  634   1.232   1.579   0.386 -1.0288  0.2211 -0.2898
  159SOL    HW2  635   1.202   1.679   0.498 -0.6438 -1.3874 -1.1631
  159SOL     MW  636   1.260   1.645   0.438 -0.3496 -0.3370 -0.0702
  160SOL     OW  637   0.540   1.142   1.637 -0.3090 -0.5199  0.1075
  160SOL    HW1  638   0.515   1.053   1.663  1.2067  0.9115  0.7162
  160SOL    HW2  639   0.639   1.138   1.649  0.6111 -0.5142  0.2113
  160SOL     MW  640   0.550   1.130   1.642  0.0124 -0.3303  0.2015
  161SOL     OW  641   0.518   2.286   2.564  0.1038  0.6188  0.1176
  161SOL    HW1  642   0.432   2.261   2.597  1.0859  1.5042 -1.3647
  161SOL    HW2  643   0.538   2.219   2.502 -1.0551 -0.2592  0.7527
  161SOL     MW  644   0.510   2.274   2.560  0.0805  0.6198  0.0058
  162SOL     OW  645   1.081   1.793   1.894  0.5382  0.1088 -0.1129
  162SOL    HW1  646   1.101   1.878   1.933  0.4073  0.4987  0.2221
  162SOL    HW2  647   0.994   1.767   1.928  2.6667 -4.0768 -0.0657
  162SOL     MW  648   1.072   1.801   1.904  0.8018 -0.3920 -0.0625
  163SOL     OW  649   2.094   0.004   0.911 -0.4210 -0.6982  0.1322
  163SOL    HW1  650   2.079   0.059   0.829 -1.7840 -0.6335 -1.2929
  163SOL    HW2  651   2.089  -0.082   0.872 -0.6664 -0.6810 -3.2363
  163SOL     MW  652   2.092   0.000   0.895 -0.6332 -0.6874 -0.5003
  164SOL     OW  653   0.322   0.210   0.825  0.0971 -0.0207 -0.9814
  164SOL    HW1  654   0.233   0.210   0.861 -1.4256  0.1385  0.4278
  164SOL    HW2  655   0.328   0.135   0.770 -0.5728 -1.9582 -1.4350
  164SOL     MW  656   0.311   0.200   0.823 -0.1921 -0.2553 -0.8553
  165SOL     OW  657   1.359   1.271   0.352  0.0663  0.0844  0.2941
  165SOL    HW1  658   1.366   1.205   0.420 -0.6424  0.4688  0.8091
  165SOL    HW2  659   1.392   1.244   0.263 -0.0038  0.3434 -1.9704
  165SOL     MW  660   1.365   1.259   0.349 -0.0365  0.1693  0.0633
  166SOL     OW  661   0.536   1.201   1.004 -0.0346  0.3675  0.1688
  166SOL    HW1  662   0.504   1.219   1.087 -0.5273 -0.0361 -1.6632
  166SOL    HW2  663   0.612   1.135   1.004  0.6870 -2.6369 -1.6569
  166SOL     MW  664   0.542   1.195   1.015 -0.0044 -0.0821 -0.3138
  167SOL     OW  665   0.780   1.063   0.298 -0.4059  1.2555 -0.1597
  167SOL    HW1  666   0.756   1.162   0.280  0.1160  2.7846 -0.8737
  167SOL    HW2  667   0.855   1.056   0.232  0.5752 -2.0971 -2.8166
  167SOL     MW  668   0.787   1.075   0.287 -0.2076  1.0149 -0.6044
  168SOL     OW  669   1.683   1.662   3.054 -0.1139 -0.3451 -0.4056
  168SOL    HW1  670   1.591   1.682   3.063  0.0172  2.1953  4.2118
  168SOL    HW2  671   1.695   1.573   3.025  0.2593  3.4360 -0.2321
  168SOL     MW  672   1.672   1.653   3.051 -0.0473  0.4890  0.2265
  169SOL     OW  673   0.406   0.967   1.347  0.4212  0.2696 -0.1792
  169SOL    HW1  674   0.432   0.910   1.420  1.3038  2.1660 -2.0394
  169SOL    HW2  675   0.457   1.048   1.349 -0.7852  1.1743 -2.9037
  169SOL     MW  676   0.416   0.970   1.357  0.3785  0.6392 -0.7841
  170SOL     OW  677   1.044   1.532   1.533  0.6012  0.0749  0.0351
  170SOL    HW1  678   0.988   1.614   1.549  1.2047  1.0680 -0.4774
  170SOL    HW2  679   1.077   1.546   1.448  2.4826 -0.7211  2.9586
  170SOL     MW  680   1.041   1.544   1.524  0.9290  0.1009  0.3532
  171SOL     OW  681   0.502   1.449   0.651  0.1917  0.2854  0.2812
  171SOL    HW1  682   0.504   1.458   0.752 -0.4317 -0.6123  2.1756
  171SOL    HW2  683   0.507   1.351   0.640  1.8586 -2.3464  1.9332
  171SOL     MW  684   0.503   1.437   0.663  0.3293 -0.1803  0.7491
  172SOL     OW  685   0.889   0.342   1.255 -0.1843 -0.8119 -0.0202
  172SOL    HW1  686   0.845   0.334   1.170  0.4478 -1.1932 -0.0751
  172SOL    HW2  687   0.817   0.382   1.299  2.1940  0.3268  0.1992
  172SOL     MW  688   0.874   0.346   1.249  0.2129 -0.7120  0.0015
  173SOL     OW  689   0.437   1.690   0.376  0.3247 -0.0938 -0.0412
  173SOL    HW1  690   0.464   1.612   0.323 -0.9676  0.0390 -1.3239
  173SOL    HW2  691   0.497   1.685   0.454 -0.0989  0.2365 -1.8870
  173SOL     MW  692   0.449   1.679   0.380  0.0983 -0.0327 -0.4539
  174SOL     OW  693   1.836   0.974   1.565  0.5026 -0.1707  0.0006
  174SOL    HW1  694   1.814   0.879   1.574 -1.8152 -1.8125  0.5655
  174SOL    HW2  695   1.824   0.991   1.471  1.9858 -1.7233  1.6888
  174SOL     MW  696   1.831   0.964   1.553  0.3925 -0.5921  0.2979
  175SOL     OW  697   0.501   1.458   0.234  0.0263 -0.4942 -0.2943
  175SOL    HW1  698   0.434   1.402   0.201 -0.6092 -4.0409 -1.2070
  175SOL    HW2  699   0.579   1.405   0.242 -0.9618  1.7197 -0.6472
  175SOL     MW  700   0.503   1.444   0.231 -0.1880 -0.6700 -0.4613
  176SOL     OW  701   0.205   1.506   1.183  0.4704  0.2683 -0.5870
  176SOL    HW1  702   0.185   1.435   1.122 -0.9477 -2.2724  1.0758
  176SOL    HW2  703   0.118   1.520   1.234  3.1555 -2.7027 -0.9179
  176SOL     MW  704   0.191   1.498   1.182  0.6376 -0.4589 -0.4112
  177SOL     OW  705   0.659   0.477   1.405 -0.2549  0.1879 -0.6712
  177SOL    HW1  706   0.624   0.528   1.332  5.2456  0.4838  0.0625
  177SOL    HW2  707   0.624   0.508   1.488  1.5522  0.0809 -2.8133
  177SOL     MW  708   0.649   0.488   1.406  0.7092  0.2128 -0.8570
  178SOL     OW  709   3.049   0.565   2.952  0.2682  0.6571  0.3074
  178SOL    HW1  710   2.980   0.618   2.986 -0.6501  1.9194 -0.5411
  178SOL    HW2  711   3.008   0.532   2.871  2.6240 -0.2856  1.4048
  178SOL     MW  712   3.034   0.568   2.946  0.4579  0.6993  0.3403
  179SOL     OW  713   1.587   1.328   1.310 -0.0892  0.2760 -0.1713
  179SOL    HW1  714   1.582   1.367   1.400  0.1430  2.3160 -2.2869
  179SOL    HW2  715   1.675   1.323   1.284 -1.2678 -1.8127  1.7073
  179SOL     MW  716   1.598   1.333   1.319 -0.2141  0.2695 -0.2026
  180SOL     OW  717   3.023   0.191   0.417 -0.0573  0.2295 -0.0029
  180SOL    HW1  718   2.937   0.196   0.377  0.0248  1.0589  1.4151
  180SOL    HW2  719   3.076   0.260   0.374  1.7671  0.0944  0.9227
  180SOL     MW  720   3.019   0.201   0.406  0.1943  0.3211  0.3063
  181SOL     OW  721   1.114   1.322   3.097  0.2238  0.2792  0.1450
  181SOL    HW1  722   1.158   1.408   3.120  0.5611  0.9734 -0.7988
  181SOL    HW2  723   1.184   1.268   3.068 -0.6163  0.5063 -0.4322
  181SOL     MW  724   1.129   1.326   3.096  0.1574  0.4008 -0.0557
  182SOL     OW  725   0.471   0.849   1.588  0.5282 -0.1784 -0.3336
  182SOL    HW1  726   0.380   0.836   1.631  1.0038 -1.7211 -0.9670
  182SOL    HW2  727   0.529   0.799   1.650 -3.1563 -0.5768 -0.2500
  182SOL     MW  728   0.467   0.841   1.602  0.1048 -0.4345 -0.4062
  183SOL     OW  729   1.597   1.555   1.142  0.1996  0.3645  0.1830
  183SOL    HW1  730   1.586   1.632   1.194 -1.7583  0.5316  0.7572
  183SOL    HW2  731   1.588   1.484   1.203  0.8039  1.7514 -0.9293
  183SOL     MW  732   1.594   1.556   1.156  0.0210  0.5696  0.1120
  184SOL     OW  733   0.839   0.656   1.959 -0.0817 -0.2481  0.2087
  184SOL    HW1  734   0.900   0.678   1.884 -0.6002  1.2890 -0.5220
  184SOL    HW2  735   0.877   0.574   1.994  0.8405  0.8555  0.0257
  184SOL     MW  736   0.852   0.648   1.954 -0.0285  0.1003  0.0882
  185SOL     OW  737   1.195   0.970   1.937 -0.1536 -0.4107 -0.1239
  185SOL    HW1  738   1.161   0.888   1.976  0.6219  1.9312 -0.8704
  185SOL    HW2  739   1.215   1.031   2.003 -1.2000 -2.0082 -0.2809
  185SOL     MW  740   1.193   0.967   1.951 -0.1893 -0.3125 -0.2431
  186SOL     OW  741   0.365   1.704   1.433 -0.1292 -0.4246 -0.2762
  186SOL    HW1  742   0.374   1.643   1.358 -0.0088 -0.5194 -2.3730
  186SOL    HW2  743   0.297   1.669   1.497 -0.6000  1.9043  0.2521
  186SOL     MW  744   0.357   1.692   1.431 -0.1754 -0.1299 -0.4832
  187SOL     OW  745   1.446   0.692   1.360 -0.3125  0.1450 -0.2432
  187SOL    HW1  746   1.436   0.672   1.451 -1.9046  1.9071 -0.4620
  187SOL    HW2  747   1.363   0.687   1.317  2.2885  1.5101 -1.2244
  187SOL     MW  748   1.434   0.689   1.366 -0.1794  0.5576 -0.4015
  188SOL     OW  749   1.896   1.153   0.938 -0.0332 -0.2459 -0.2270
  188SOL    HW1  750   1.920   1.164   1.035 -1.1717 -1.8811  0.0116
  188SOL    HW2  751   1.911   1.061   0.903  1.5777 -1.0762  2.3210
  188SOL     MW  752   1.901   1.142   0.946  0.0292 -0.5712  0.1407
  189SOL     OW  753   0.658   0.828   0.830 -0.1888  0.3953  0.4510
  189SOL    HW1  754   0.568   0.872   0.838 -0.4256 -0.6650  0.5181
  189SOL    HW2  755   0.715   0.890   0.870  0.8056  0.0789  0.9749
  189SOL     MW  756   0.653   0.842   0.836 -0.0888  0.2136  0.5289
  190SOL     OW  757   1.916   0.222   2.165  0.2675  0.2854  0.2778
  190SOL    HW1  758   1.913   0.196   2.258  2.7249  0.4189  0.1657
  190SOL    HW2  759   1.997   0.275   2.151  1.8115  1.3295 -0.4074
  190SOL     MW  760   1.926   0.226   2.176  0.7955  0.4407  0.1726
  191SOL     OW  761   1.471   0.952   1.231 -0.0764  0.3124  0.0623
  191SOL    HW1  762   1.409   1.020   1.258  0.2746 -1.6981 -2.8377
  191SOL    HW2  763   1.467   0.885   1.298  0.7612  1.2812  0.6553
  191SOL     MW  764   1.463   0.952   1.244  0.0804  0.1750 -0.2421
  192SOL     OW  765   0.607   2.127   2.768 -0.1635 -0.7465 -0.0308
  192SOL    HW1  766   0.582   2.186   2.694  1.3956  4.8795 -1.2744
  192SOL    HW2  767   0.600   2.034   2.741  0.2621  0.8273 -2.5658
  192SOL     MW  768   0.603   2.122   2.754  0.0984  0.2034 -0.5293
  193SOL     OW  769   0.987   1.554   0.733 -0.2411 -0.4555 -0.0676
  193SOL    HW1  770   0.924   1.567   0.807  1.8895 -0.1873 -2.6683
  193SOL    HW2  771   0.939   1.498   0.666  2.5187 -2.1001 -3.6304
  193SOL     MW  772   0.973   1.548   0.734  0.4042 -0.6371 -0.8808
  194SOL     OW  773   0.523   1.456   0.910  0.2279  0.2155 -0.4090
  194SOL    HW1  774   0.530   1.368   0.952 -0.8370 -0.1544  0.7527
  194SOL    HW2  775   0.432   1.480   0.922 -0.0273  2.8903 -1.9766
  194SOL     MW  776   0.512   1.448   0.917  0.0538  0.5196 -0.4626
  195SOL     OW  777   1.314   1.160   2.985  0.1580  0.4430  0.2846
  195SOL    HW1  778   1.372   1.171   3.059  1.8714 -3.9053 -0.2181
  195SOL    HW2  779   1.278   1.076   2.995  1.6963  0.5741  0.2848
  195SOL     MW  780   1.317   1.151   2.997  0.5870 -0.1134  0.2183
  196SOL     OW  781   2.204   1.043   0.617 -0.4360 -0.3053 -0.1409
  196SOL    HW1  782   2.193   1.022   0.523 -1.0686  0.9170  2.8023
  196SOL    HW2  783   2.194   1.142   0.622  0.7037  2.0341 -0.7799
  196SOL     MW  784   2.201   1.053   0.605 -0.3691  0.1647  0.1631
  197SOL     OW  785   0.636   1.266   2.111 -0.0555  0.9044  0.2768
  197SOL    HW1  786   0.666   1.178   2.074  0.5273 -1.3559 -0.8681
  197SOL    HW2  787   0.624   1.335   2.040 -0.7238  4.2583  1.6889
  197SOL     MW  788   0.638   1.264   2.097 -0.0667  1.0487  0.3121
  198SOL     OW  789   2.934   1.388   1.088 -0.0639  0.0281 -0.2348
  198SOL    HW1  790   2.909   1.471   1.044 -1.6005  1.8069  2.1176
  198SOL    HW2  791   2.852   1.343   1.086  2.1339  0.3297 -1.7060
  198SOL     MW  792   2.920   1.393   1.082  0.0233  0.3026 -0.1185
  199SOL     OW  793   0.510   1.413   1.882 -0.4886  0.2516 -0.1452
  199SOL    HW1  794   0.425   1.375   1.881 -2.3981  2.1161 -3.7564
  199SOL    HW2  795   0.536   1.404   1.794  0.2358 -3.4244  2.8588
  199SOL     MW  796   0.502   1.406   1.870 -0.6450  0.0126 -0.2253
  200SOL     OW  797   1.893   2.967   1.329  0.5770 -0.9010  0.3181
  200SOL    HW1  798   1.907   2.953   1.236 -3.5053  1.6880 -1.1126
  200SOL    HW2  799   1.835   3.039   1.327  2.4961  0.6582 -0.7124
  200SOL     MW  800   1.887   2.974   1.316  0.2916 -0.3537 -0.0066
  201SOL     OW  801   1.049   0.237   0.824  0.1246  0.6212 -0.3070
  201SOL    HW1  802   1.030   0.180   0.747 -2.1792  0.6736 -0.2501
  201SOL    HW2  803   1.145   0.237   0.817 -2.2568  0.3634  0.8438
  201SOL     MW  804   1.059   0.230   0.813 -0.4935  0.5941 -0.1477
  202SOL     OW  805   1.504   1.549   0.867 -0.0425 -0.5059 -0.0469
  202SOL    HW1  806   1.468   1.467   0.839  0.6604 -0.1712  0.5211
  202SOL    HW2  807   1.514   1.547   0.964  0.2853  0.3452  1.2483
  202SOL     MW  808   1.501   1.538   0.876  0.0935 -0.3494  0.1990
  203SOL     OW  809   3.040   0.410   1.312 -0.4514 -0.0734  0.3864
  203SOL    HW1  810   3.129   0.359   1.330  1.6659 -1.9547  2.9309
  203SOL    HW2  811   3.073   0.499   1.328  2.1453  0.0689 -0.5599
  203SOL     MW  812   3.056   0.415   1.317  0.1706 -0.3028  0.5972
  204SOL     OW  813   1.041   1.745   0.561 -0.0206 -0.0477 -0.0125
  204SOL    HW1  814   1.025   1.686   0.631 -0.0900  1.5832  2.7084
  204SOL    HW2  815   0.981   1.713   0.492 -0.9202 -0.7766  0.6069
  204SOL     MW  816   1.031   1.733   0.561 -0.1484  0.0713  0.4282
  205SOL     OW  817   1.393   0.024   1.371 -0.5691 -0.5364 -0.0337
  205SOL    HW1  818   1.404   0.003   1.278  1.7375 -2.0050 -0.3405
  205SOL    HW2  819   1.356   0.111   1.381  2.7571  1.0886  0.5957
  205SOL     MW  820   1.389   0.032   1.360  0.1741 -0.5158  0.0088
  206SOL     OW  821   0.420   3.000   1.438  0.3298 -0.0693 -0.0928
  206SOL    HW1  822   0.373   3.021   1.349  1.4143  3.3518  0.7469
  206SOL    HW2  823   0.493   2.943   1.413  1.0319  1.0182  1.1049
  206SOL     MW  824   0.424   2.995   1.423  0.5655  0.5255  0.1760
  207SOL     OW  825   0.907   1.561   0.207  0.3325 -0.1632  0.4491
  207SOL    HW1  826   0.921   1.649   0.166 -1.6762  0.2305  1.5355
  207SOL    HW2  827   0.996   1.514   0.211 -1.5990 -2.6014 -3.3999
  207SOL     MW  828   0.921   1.567   0.202 -0.1874 -0.4330  0.0846
  208SOL     OW  829   0.715   1.634   1.356  0.6856 -0.8692 -0.3308
  208SOL    HW1  830   0.765   1.682   1.422 -0.5437  0.7442 -0.6600
  208SOL    HW2  831   0.709   1.544   1.380  0.6759  0.0685  3.8436
  208SOL     MW  832   0.721   1.628   1.368  0.5222 -0.5326  0.1766
  209SOL     OW  833   1.546   0.492   2.988  0.3790 -0.2877 -0.3447
  209SOL    HW1  834   1.559   0.589   2.986 -1.2992  1.0251 -1.4874
  209SOL    HW2  835   1.615   0.448   2.936  0.2859 -3.5230 -2.2097
  209SOL     MW  836   1.557   0.499   2.981  0.1453 -0.5414 -0.7416
  210SOL     OW  837   1.525   1.283   0.772 -0.1707 -0.0295  0.1084
  210SOL    HW1  838   1.616   1.305   0.786 -1.7120  1.6839 -0.4023
  210SOL    HW2  839   1.499   1.336   0.690  2.0516  1.7109 -0.7099
  210SOL     MW  840   1.534   1.293   0.763 -0.0808  0.4262 -0.0670
  211SOL     OW  841   1.704   0.287   0.924  0.5824 -0.5897  0.5188
  211SOL    HW1  842   1.678   0.329   0.839 -0.1083 -0.0437  1.3290
  211SOL    HW2  843   1.790   0.314   0.959  2.8430 -1.1612 -1.2067
  211SOL     MW  844   1.712   0.296   0.918  0.7895 -0.5931  0.3980
  212SOL     OW  845   0.296   1.019   0.150  0.1848 -0.2163  0.1548
  212SOL    HW1  846   0.223   1.009   0.210 -0.7715 -3.8867 -0.1491
  212SOL    HW2  847   0.312   0.934   0.112  0.9997  1.6420  0.1593
  212SOL     MW  848   0.288   1.007   0.153  0.1661 -0.4554  0.1153
  213SOL     OW  849   0.549   1.685   3.064  0.1671 -0.1048 -0.0206
  213SOL    HW1  850   0.527   1.741   3.134 -0.5048  1.7989 -0.3266
  213SOL    HW2  851   0.561   1.754   2.997  2.6764 -0.9569 -0.6854
  213SOL     MW  852   0.548   1.702   3.064  0.4095  0.0340 -0.1487
  214SOL     OW  853   0.636   0.318   2.166  0.0890  0.5803 -0.2928
  214SOL    HW1  854   0.563   0.377   2.152  3.1194 -0.4369 -1.2838
  214SOL    HW2  855   0.694   0.357   2.098 -0.3618  0.3091 -2.3688
  214SOL     MW  856   0.634   0.331   2.155  0.4293  0.4103 -0.6975
  215SOL     OW  857   0.507   0.722   2.652 -0.1943  0.0906 -0.1909
  215SOL    HW1  858   0.511   0.698   2.551  4.5098  1.9024 -2.6723
  215SOL    HW2  859   0.425   0.688   2.691 -0.8917  0.3860  1.5372
  215SOL     MW  860   0.497   0.714   2.644  0.3344  0.3686 -0.2903
  216SOL     OW  861   2.910   3.010   2.648  0.1624  0.0683  0.0736
  216SOL    HW1  862   2.885   3.031   2.736 -0.3418 -4.2174  1.0826
  216SOL    HW2  863   2.923   3.097   2.615 -0.2905  0.0314 -1.1916
  216SOL     MW  864   2.908   3.024   2.656  0.0361 -0.5020  0.0398
  217SOL     OW  865   1.016   1.080   0.132  0.5009 -0.1487  0.6030
  217SOL    HW1  866   1.032   1.013   0.068  0.3861 -2.0994 -0.3225
  217SOL    HW2  867   1.061   1.156   0.091  0.0097  0.8621 -0.6096
  217SOL     MW  868   1.024   1.081   0.118  0.4209 -0.2727  0.3209
  218SOL     OW  869   0.948   1.306   2.560 -0.5650  0.0616 -0.0436
  218SOL    HW1  870   0.981   1.260   2.635 -0.9181 -1.2091 -2.9203
  218SOL    HW2  871   1.018   1.374   2.550 -0.7354  1.0675  1.3742
  218SOL     MW  872   0.962   1.309   2.568 -0.6341  0.0267 -0.2361
  219SOL     OW  873   1.138   0.403   2.647  0.1835 -0.4496  0.2841
  219SOL    HW1  874   1.189   0.456   2.705 -0.6105 -3.9178  0.3243
  219SOL    HW2  875   1.063   0.452   2.609 -0.8218 -1.3957  0.9937
  219SOL     MW  876   1.135   0.417   2.650 -0.0539 -1.0320  0.3831
  220SOL     OW  877   1.776   0.477   2.215  0.1996 -0.7301 -0.0480
  220SOL    HW1  878   1.697   0.488   2.157 -1.1745  1.4093 -4.0166
  220SOL    HW2  879   1.818   0.396   2.185 -2.0307 -0.0111  0.7275
  220SOL     MW  880   1.771   0.468   2.203 -0.2760 -0.3530 -0.4693
  221SOL     OW  881   0.385   1.311   2.970 -0.1948  0.2838 -0.2337
  221SOL    HW1  882   0.443   1.253   2.915 -1.5943 -3.4065  2.7925
  221SOL    HW2  883   0.419   1.397   2.947 -2.0007 -0.3002 -2.2891
  221SOL     MW  884   0.397   1.315   2.960 -0.6178 -0.2801 -0.1056
  222SOL     OW  885   0.345   0.963   2.680  0.2929  0.7297 -0.0485
  222SOL    HW1  886   0.286   1.002   2.613 -2.7621 -1.9565 -0.7028
  222SOL    HW2  887   0.408   0.903   2.642  1.4335  0.7818 -0.2824
  222SOL     MW  888   0.346   0.960   2.666  0.0403  0.3822 -0.1657
  223SOL     OW  889   0.027   2.022   2.517  0.4790 -0.1605  0.1836
  223SOL    HW1  890   0.074   1.972   2.583 -0.0916  1.0943  0.4338
  223SOL    HW2  891   0.098   2.074   2.477  0.4526  2.1948  0.0123
  223SOL     MW  892   0.042   2.022   2.521  0.4002  0.3159  0.1940
  224SOL     OW  893   1.509   0.737   2.597  0.5915  0.1164  0.1964
  224SOL    HW1  894   1.542   0.781   2.678  1.8171 -1.1725 -0.0023
  224SOL    HW2  895   1.478   0.806   2.544 -0.0642  0.2192 -1.3432
  224SOL     MW  896   1.509   0.752   2.601  0.6667 -0.0401 -0.0329
  225SOL     OW  897   2.895   1.425   2.285 -0.2020 -0.0925  0.7642
  225SOL    HW1  898   2.935   1.466   2.214 -1.8829 -0.1831  1.2766
  225SOL    HW2  899   2.865   1.494   2.345 -0.3482  0.2922 -1.1734
  225SOL     MW  900   2.897   1.439   2.284 -0.4430 -0.0537  0.5762
  226SOL     OW  901   0.457   1.502   2.718 -0.0123  0.3015  0.2879
  226SOL    HW1  902   0.538   1.481   2.673  0.4977 -1.7923  0.2758
  226SOL    HW2  903   0.447   1.597   2.689  0.7744  1.9260 -0.6071
  226SOL     MW  904   0.467   1.512   2.708  0.1588  0.2396  0.1682
  227SOL     OW  905   0.544   1.125   2.835  0.3503 -0.2447 -0.2319
  227SOL    HW1  906   0.635   1.105   2.808 -0.3710  1.3464 -0.7363
  227SOL    HW2  907   0.480   1.074   2.784  1.7559 -2.0765  1.7778
  227SOL     MW  908   0.548   1.115   2.825  0.4406 -0.2764 -0.0333
  228SOL     OW  909   0.748   0.974   2.029 -0.1476  0.8140  0.0881
  228SOL    HW1  910   0.832   0.997   1.994 -0.2756  2.5596  0.1864
  228SOL    HW2  911   0.761   0.945   2.121  2.2029 -1.2831  1.0667
  228SOL     MW  912   0.761   0.973   2.037  0.1456  0.7676  0.2302
  229SOL     OW  913   0.177   0.621   3.087 -0.1238 -0.1114  0.0039
  229SOL    HW1  914   0.107   0.620   3.020  0.5845  1.8775  0.8881
  229SOL    HW2  915   0.187   0.532   3.123  1.2836  0.8451 -1.0420
  229SOL     MW  916   0.169   0.609   3.083  0.1553  0.2772 -0.0174
  230SOL     OW  917   1.675   1.315   2.031  0.0225 -0.5499 -0.9087
  230SOL    HW1  918   1.613   1.292   2.104  0.0686 -1.4321 -0.3870
  230SOL    HW2  919   1.750   1.260   2.051 -0.5587  0.1613  1.1663
  230SOL     MW  920   1.677   1.305   2.043 -0.0481 -0.5725 -0.5661
  231SOL     OW  921   2.712   1.251   2.219 -0.0016 -0.3360 -0.5024
  231SOL    HW1  922   2.799   1.306   2.256  2.5470  0.2437  0.2561
  231SOL    HW2  923   2.678   1.291   2.131  1.4614 -0.2932 -1.6040
  231SOL     MW  924   2.719   1.264   2.212  0.5277 -0.2538 -0.5477
  232SOL     OW  925   2.223   0.854   2.016 -0.5115  0.6917 -0.3413
  232SOL    HW1  926   2.144   0.863   1.962 -1.5423  0.0291  0.7296
  232SOL    HW2  927   2.197   0.890   2.104 -1.8560  0.2616  3.0134
  232SOL     MW  928   2.209   0.860   2.020 -0.8249  0.5475  0.2426
  233SOL     OW  929   2.061   0.435   2.059  0.1931 -0.0329  0.1127
  233SOL    HW1  930   2.108   0.350   2.038 -1.1742  0.3416  1.3031
  233SOL    HW2  931   2.092   0.487   2.135 -2.5007  2.6162 -0.2341
  233SOL     MW  932   2.071   0.431   2.066 -0.3427  0.3660  0.2240
  234SOL     OW  933   0.223   1.060   2.445 -0.0995 -0.0502  0.7747
  234SOL    HW1  934   0.133   1.060   2.419  2.0003 -1.3962 -0.3006
  234SOL    HW2  935   0.246   1.150   2.463 -1.3495 -0.7094  2.3727
  234SOL     MW  936   0.214   1.072   2.444  0.0126 -0.3147  0.8437
  235SOL     OW  937   1.113   3.061   2.720 -0.1534 -0.4905  0.1860
  235SOL    HW1  938   1.150   3.021   2.798 -2.3991  0.2272  0.2482
  235SOL    HW2  939   1.082   3.144   2.753  0.5637 -0.5433 -0.4421
  235SOL     MW  940   1.114   3.066   2.735 -0.3551 -0.4028  0.1113
  236SOL     OW  941   2.935   0.547   0.144 -0.1219  0.8625  0.0336
  236SOL    HW1  942   2.849   0.570   0.116 -0.6215  3.4249  1.1616
  236SOL    HW2  943   2.980   0.628   0.129 -1.4191 -1.1921  0.6347
  236SOL     MW  944   2.930   0.561   0.138 -0.3590  0.9295  0.2618
  237SOL     OW  945   1.999   1.113   2.172  0.1091  0.1180 -0.1825
  237SOL    HW1  946   1.927   1.088   2.114  0.4112  0.6629 -0.2532
  237SOL    HW2  947   2.039   1.024   2.189  0.8804 -2.6473 -1.9836
  237SOL     MW  948   1.995   1.098   2.167  0.2507 -0.1749 -0.4295
  238SOL     OW  949   1.079   1.829   2.969 -0.0575 -0.2323 -1.0384
  238SOL    HW1  950   1.049   1.737   2.968  2.5842  0.5233 -1.2422
  238SOL    HW2  951   1.174   1.815   2.970 -2.3682 -1.1556 -1.2719
  238SOL     MW  952   1.088   1.815   2.969 -0.0139 -0.2544 -1.0961
  239SOL     OW  953   1.291   1.384   2.382  0.3464  0.3394 -0.3792
  239SOL    HW1  954   1.281   1.445   2.458  4.1114  2.2512 -0.7925
  239SOL    HW2  955   1.293   1.296   2.411 -1.0009 -1.1665 -2.8767
  239SOL     MW  956   1.290   1.380   2.396  0.6654  0.3929 -0.7632
  240SOL     OW  957   0.683   0.855   2.314 -0.3296  0.4720  0.3913
  240SOL    HW1  958   0.704   0.914   2.382 -2.3619 -0.1447  2.3803
  240SOL    HW2  959   0.766   0.808   2.309 -1.5468  0.5011  2.0393
  240SOL     MW  960   0.696   0.857   2.322 -0.7583  0.3944  0.8712
  241SOL     OW  961   0.676   0.401   0.025 -0.0302  0.0625 -0.6128
  241SOL    HW1  962   0.708   0.471   0.083 -1.4455 -0.6553 -0.6907
  241SOL    HW2  963   0.586   0.420   0.004  2.3414 -0.5036  1.2284
  241SOL     MW  964   0.668   0.413   0.030  0.0960 -0.1069 -0.3801
  242SOL     OW  965   1.508   1.716   2.333 -0.2556  0.3851 -0.3138
  242SOL    HW1  966   1.469   1.805   2.345 -0.8627 -0.0623  1.5561
  242SOL    HW2  967   1.456   1.657   2.274  0.1301 -1.8204 -0.9848
  242SOL     MW  968   1.496   1.720   2.327 -0.2848  0.0351 -0.1556
  243SOL     OW  969   1.038   0.189   2.499 -0.0116 -0.6376 -0.5687
  243SOL    HW1  970   1.108   0.166   2.437 -2.1131  0.0984 -0.6526
  243SOL    HW2  971   1.066   0.256   2.557 -1.5343 -1.0029  0.4385
  243SOL     MW  972   1.051   0.195   2.499 -0.4898 -0.5887 -0.4469
  244SOL     OW  973   0.246   0.770   2.416 -0.4345  0.1339 -0.5642
  244SOL    HW1  974   0.250   0.867   2.410  0.0671  0.5724  1.8562
  244SOL    HW2  975   0.335   0.742   2.394 -1.1558 -1.9545 -0.4026
  244SOL     MW  976   0.258   0.779   2.413 -0.4635 -0.0838 -0.2236
  245SOL     OW  977   1.268   0.199   2.318 -0.0364 -0.1427  0.2515
  245SOL    HW1  978   1.334   0.130   2.296  0.8455 -1.2143 -3.0236
  245SOL    HW2  979   1.318   0.268   2.364  1.6468  1.3680  2.5549
  245SOL     MW  980   1.284   0.199   2.321  0.3021 -0.0848  0.1233
  246SOL     OW  981   1.257   1.177   2.102  0.3365 -0.6986 -0.6453
  246SOL    HW1  982   1.197   1.129   2.170 -0.9402 -2.1673 -1.6388
  246SOL    HW2  983   1.345   1.187   2.142  3.6650  1.9202  2.0553
  246SOL     MW  984   1.260   1.172   2.116  0.6072 -0.5468 -0.4201
  247SOL     OW  985   0.741   0.585   0.211 -0.3217  0.5336  0.1545
  247SOL    HW1  986   0.684   0.655   0.191 -1.4476 -3.1191 -1.8906
  247SOL    HW2  987   0.831   0.612   0.179 -0.1231  1.3355 -0.6710
  247SOL     MW  988   0.745   0.597   0.204 -0.4440  0.1575 -0.2243
  248SOL     OW  989   0.313   1.338   2.539 -0.1891 -0.6603  0.7778
  248SOL    HW1  990   0.356   1.343   2.452 -2.6085 -2.6509  0.3795
  248SOL    HW2  991   0.364   1.396   2.601 -0.7576  0.6313 -0.3780
  248SOL     MW  992   0.325   1.346   2.536 -0.5833 -0.7525  0.5727
  249SOL     OW  993   0.175   1.888   2.737 -0.2003 -0.5297 -0.3150
  249SOL    HW1  994   0.142   1.805   2.697  0.1647  0.6989  2.1057
  249SOL    HW2  995   0.225   1.857   2.814 -1.0699 -2.3710 -3.5145
  249SOL     MW  996   0.177   1.873   2.742 -0.2669 -0.6105 -0.4177
  250SOL     OW  997   2.196   0.939   2.266  0.1802  0.3818  0.3075
  250SOL    HW1  998   2.263   0.867   2.278  0.1871  4.0244 -2.2941
  250SOL    HW2  999   2.245   1.012   2.307  0.4884  1.5886 -1.6111
  250SOL     MW 1000   2.211   0.939   2.273  0.2218  1.0217 -0.2889
  251SOL     OW 1001   0.151   0.903   1.979  0.2988  0.9758  0.0968
  251SOL    HW1 1002   0.089   0.836   2.021 -1.7340 -0.7238 -0.2445
  251SOL    HW2 1003   0.149   0.888   1.887  0.7965  2.3834 -2.1169
  251SOL     MW 1004   0.142   0.892   1.972  0.0963  0.9372 -0.2403
  252SOL     OW 1005   1.738   0.996   2.849  0.3225  0.5191  0.1172
  252SOL    HW1 1006   1.733   1.043   2.932  0.2623  1.3603  0.6687
  252SOL    HW2 1007   1.797   1.051   2.794 -0.6663  2.3821  0.0705
  252SOL     MW 1008   1.745   1.009   2.853  0.1841  0.8759  0.1838
  253SOL     OW 1009   1.184   1.780   2.548  0.0159  0.3960 -0.0786
  253SOL    HW1 1010   1.202   1.779   2.448  2.3157  0.9661  1.1390
  253SOL    HW2 1011   1.093   1.810   2.565  0.6328 -1.9669 -0.2154
  253SOL     MW 1012   1.174   1.784   2.537  0.4008  0.1594  0.0640
  254SOL     OW 1013   1.065   1.019   2.245  0.2472  0.0207  0.1835
  254SOL    HW1 1014   1.029   0.938   2.281 -2.2936 -0.8002 -0.8315
  254SOL    HW2 1015   0.985   1.082   2.247 -2.6781  1.3747 -1.3386
  254SOL     MW 1016   1.049   1.017   2.250 -0.4740  0.0911 -0.1512
  255SOL     OW 1017   0.782   2.573   2.126  0.2041 -0.1545 -0.9799
  255SOL    HW1 1018   0.706   2.515   2.139  0.8948 -0.1832  1.1355
  255SOL    HW2 1019   0.863   2.523   2.122 -0.4504  1.8444 -0.4926
  255SOL     MW 1020   0.783   2.559   2.127  0.2089  0.1054 -0.6365
  256SOL     OW 1021   1.358   2.679   2.962  0.2723  0.0746 -0.3176
  256SOL    HW1 1022   1.367   2.604   2.908 -0.8326  0.1051  2.5836
  256SOL    HW2 1023   1.388   2.746   2.901 -2.9032  0.8914  0.3705
  256SOL     MW 1024   1.363   2.678   2.947 -0.2924  0.1864  0.1560
  257SOL     OW 1025   0.173   1.889   0.058  0.6387  0.3192 -0.3098
  257SOL    HW1 1026   0.175   1.838   0.143  0.1684 -0.8015 -1.9762
  257SOL    HW2 1027   0.208   1.828  -0.005  0.7740  1.3378 -2.0263
  257SOL     MW 1028   0.178   1.874   0.061  0.5945  0.3057 -0.7562
  258SOL     OW 1029   0.813   1.041   2.466  0.6945 -0.0256 -0.1982
  258SOL    HW1 1030   0.807   1.117   2.400  0.4652  0.6384  2.6983
  258SOL    HW2 1031   0.755   1.068   2.536  0.7693 -0.2962  1.7815
  258SOL     MW 1032   0.804   1.055   2.466  0.6741  0.0263  0.4451
  259SOL     OW 1033   0.839   0.389   2.353 -0.1324 -0.6023 -0.6988
  259SOL    HW1 1034   0.763   0.334   2.332  1.2487  1.4437 -1.1917
  259SOL    HW2 1035   0.920   0.337   2.369  3.1858  3.0905 -0.5620
  259SOL     MW 1036   0.839   0.375   2.353  0.4876  0.1549 -0.7458
  260SOL     OW 1037   0.510   0.133   1.576 -0.0972 -0.1062  0.5338
  260SOL    HW1 1038   0.488   0.055   1.524  0.0685 -1.5198  1.7570
  260SOL    HW2 1039   0.611   0.139   1.578  1.9516  0.0756 -0.4662
  260SOL     MW 1040   0.520   0.124   1.569  0.1950 -0.2687  0.5633
  261SOL     OW 1041   1.144   0.725   2.029  0.4445 -0.2785  0.4830
  261SOL    HW1 1042   1.179   0.717   2.115  2.2098 -0.6938  1.1338
  261SOL    HW2 1043   1.168   0.646   1.975 -2.4147 -1.7263 -3.2916
  261SOL     MW 1044   1.152   0.714   2.033  0.3002 -0.5243  0.0709
  262SOL     OW 1045   1.027   0.305   0.150  0.1035 -0.0769  0.2197
  262SOL    HW1 1046   1.124   0.315   0.153  0.6439  1.0407 -0.7325
  262SOL    HW2 1047   1.026   0.225   0.095  0.6840  0.4231  0.5109
  262SOL     MW 1048   1.040   0.295   0.143  0.2514  0.1365  0.1325
  263SOL     OW 1049   0.400   0.019   2.447 -0.0839 -0.1452 -0.1584
  263SOL    HW1 1050   0.317   0.069   2.430 -0.3106  0.8602 -1.6261
  263SOL    HW2 1051   0.457   0.039   2.370  1.2075 -0.8459 -0.0454
  263SOL     MW 1052   0.397   0.028   2.434  0.0565 -0.1050 -0.3371
  264SOL     OW 1053   1.460   1.363   1.840 -0.1352 -0.0785 -0.0294
  264SOL    HW1 1054   1.403   1.292   1.862  1.1909 -0.7798 -0.7910
  264SOL    HW2 1055   1.536   1.362   1.905  0.4671  2.4358  1.2682
  264SOL     MW 1056   1.463   1.354   1.852  0.1192  0.1607  0.0413
  265SOL     OW 1057   0.748   2.816   2.269  0.2790  0.3729 -0.5826
  265SOL    HW1 1058   0.773   2.733   2.228  2.9137 -0.5543  2.2017
  265SOL    HW2 1059   0.749   2.799   2.362  1.2307 -1.1697  0.8498
  265SOL     MW 1060   0.751   2.803   2.276  0.7522  0.0470 -0.0263
  266SOL     OW 1061   0.933   0.760   2.209 -1.3616 -0.0514  0.2154
  266SOL    HW1 1062   0.915   0.747   2.120 -0.4387 -0.5115  2.5705
  266SOL    HW2 1063   1.017   0.718   2.225  0.9717  2.1215  0.8732
  266SOL     MW 1064   0.942   0.753   2.199 -0.9320  0.1746  0.6129
  267SOL     OW 1065   1.427   1.789   2.720  0.0310 -0.1053 -0.7326
  267SOL    HW1 1066   1.469   1.709   2.690 -0.2462  0.3146 -2.1097
  267SOL    HW2 1067   1.345   1.789   2.667 -4.5195  0.9607 -0.1476
  267SOL     MW 1068   1.422   1.778   2.709 -0.6059  0.0908 -0.8371
  268SOL     OW 1069   0.191   0.825   1.662 -0.1878 -0.0649  0.0638
  268SOL    HW1 1070   0.148   0.896   1.617  1.1003 -0.5842  0.7492
  268SOL    HW2 1071   0.148   0.758   1.614 -0.3834 -0.1163 -0.9792
  268SOL     MW 1072   0.180   0.826   1.650 -0.0437 -0.1402  0.0166
  269SOL     OW 1073   1.413   1.976   2.385 -0.1561  0.1848  0.1151
  269SOL    HW1 1074   1.454   2.059   2.398  1.1638 -1.0954 -1.1823
  269SOL    HW2 1075   1.326   1.996   2.422 -4.3372  2.2312  0.6448
  269SOL     MW 1076   1.407   1.990   2.391 -0.5336  0.2859  0.0138
  270SOL     OW 1077   1.122   0.428   1.622 -0.0800  0.0118 -0.5445
  270SOL    HW1 1078   1.102   0.335   1.637  0.8393 -1.7663  0.9517
  270SOL    HW2 1079   1.214   0.423   1.618 -0.1834 -0.8945 -0.1941
  270SOL     MW 1080   1.131   0.415   1.623  0.0277 -0.3424 -0.3009
  271SOL     OW 1081   0.855   0.008   2.572  0.3454  0.0325  0.4033
  271SOL    HW1 1082   0.886  -0.077   2.607  0.1713 -1.1195  0.6403
  271SOL    HW2 1083   0.927   0.062   2.549 -1.9437 -0.1584  0.3698
  271SOL     MW 1084   0.868   0.004   2.574  0.0204 -0.1447  0.4301
  272SOL     OW 1085   1.482   2.852   2.764  0.8724 -0.6242 -0.6644
  272SOL    HW1 1086   1.424   2.842   2.689 -2.4852 -0.4129  0.3765
  272SOL    HW2 1087   1.487   2.947   2.779  0.9940  2.5929  1.8805
  272SOL     MW 1088   1.475   2.863   2.756  0.4454 -0.1719 -0.1913
  273SOL     OW 1089   1.471   0.962   2.802  0.4493 -0.2154 -0.1014
  273SOL    HW1 1090   1.565   0.978   2.804 -2.6899 -2.6597  1.0391
  273SOL    HW2 1091   1.433   1.048   2.815 -0.5800  0.2375 -2.9722
  273SOL     MW 1092   1.478   0.975   2.804 -0.1007 -0.4781 -0.3297
  274SOL     OW 1093   1.467   0.694   0.100  0.3356 -0.2047  0.2570
  274SOL    HW1 1094   1.497   0.614   0.147  0.5438 -2.6763 -3.7858
  274SOL    HW2 1095   1.370   0.689   0.130 -1.0728 -0.5409  0.0934
  274SOL     MW 1096   1.458   0.683   0.110  0.1773 -0.5752 -0.2980
  275SOL     OW 1097   1.701   0.568   1.767 -0.0706 -0.3499  0.5095
  275SOL    HW1 1098   1.758   0.617   1.825 -1.7598  1.5011  1.1127
  275SOL    HW2 1099   1.692   0.492   1.827 -2.9789 -0.6358  2.0498
  275SOL     MW 1100   1.707   0.565   1.782 -0.6772 -0.1434  0.7923
  276SOL     OW 1101   0.314   1.223   1.904 -0.4648  0.2264 -0.0115
  276SOL    HW1 1102   0.376   1.148   1.901 -1.1977 -2.1464 -1.4672
  276SOL    HW2 1103   0.247   1.211   1.969  0.5304 -2.7148  2.0056
  276SOL     MW 1104   0.314   1.211   1.912 -0.4302 -0.4748  0.0626
  277SOL     OW 1105   1.915   1.224   2.420  0.3403 -0.6352  0.6437
  277SOL    HW1 1106   1.987   1.260   2.473 -2.8995 -1.4516  1.9733
  277SOL    HW2 1107   1.962   1.174   2.349 -0.6698 -1.7581  0.4398
  277SOL     MW 1108   1.931   1.222   2.418 -0.2204 -0.8911  0.7922
  278SOL     OW 1109   1.417   0.628   1.706 -0.6615  1.1148 -0.0607
  278SOL    HW1 1110   1.370   0.602   1.790  1.7967  1.0763  0.4747
  278SOL    HW2 1111   1.509   0.636   1.725  1.0706  0.4108 -3.5130
  278SOL     MW 1112   1.423   0.626   1.720 -0.1087  1.0168 -0.4455
  279SOL     OW 1113   0.588   0.070   2.257 -0.5539  0.8913 -0.3656
  279SOL    HW1 1114   0.675   0.034   2.277  0.4949 -0.2972 -0.3402
  279SOL    HW2 1115   0.601   0.145   2.202 -2.0951 -1.0096 -0.3905
  279SOL     MW 1116   0.602   0.075   2.252 -0.6188  0.4837 -0.3655
  280SOL     OW 1117   1.507   0.983   2.131 -0.0671 -0.1196 -0.0777
  280SOL    HW1 1118   1.557   0.921   2.079 -0.8378  0.5699 -2.0445
  280SOL    HW2 1119   1.509   0.953   2.227 -1.2749 -0.0292 -1.9152
  280SOL     MW 1120   1.514   0.971   2.137 -0.3282 -0.0167 -0.5797
  281SOL     OW 1121   1.323   1.348   2.781  0.3423 -0.1359 -0.4058
  281SOL    HW1 1122   1.416   1.354   2.787 -3.1445  0.1053  1.0841
  281SOL    HW2 1123   1.300   1.285   2.846  2.1910 -0.8423 -0.4504
  281SOL     MW 1124   1.332   1.340   2.790  0.1262 -0.1973 -0.2151
  282SOL     OW 1125   1.104   1.299   1.676 -0.8914  0.8477 -0.1762
  282SOL    HW1 1126   1.083   1.391   1.649  1.6212  2.4747  0.5458
  282SOL    HW2 1127   1.052   1.286   1.753  0.7542 -4.1151 -1.6102
  282SOL     MW 1128   1.094   1.309   1.683 -0.3428  0.4076 -0.2701
  283SOL     OW 1129   0.811   1.221   2.983 -0.4184  0.3587 -0.0647
  283SOL    HW1 1130   0.836   1.171   3.062 -0.1061  1.0509 -0.9550
  283SOL    HW2 1131   0.794   1.316   3.007 -0.6554  2.1107 -2.3362
  283SOL     MW 1132   0.812   1.227   2.996 -0.4084  0.6812 -0.4819
  284SOL     OW 1133   0.500   0.671   2.381  0.0372  0.3404  0.0941
  284SOL    HW1 1134   0.575   0.730   2.341 -2.5530  0.9004 -1.6384
  284SOL    HW2 1135   0.490   0.603   2.316 -0.2073 -1.5956 -0.8178
  284SOL     MW 1136   0.509   0.670   2.367 -0.3368  0.1588 -0.2548
  285SOL     OW 1137   0.972   0.866   2.818  0.5484 -0.8788  0.2683
  285SOL    HW1 1138   0.989   0.917   2.737 -0.6050  1.3012  0.7538
  285SOL    HW2 1139   0.920   0.789   2.784  1.1197  1.6360 -1.8650
  285SOL     MW 1140   0.967   0.863   2.802  0.4716 -0.2594  0.0509
  286SOL     OW 1141   1.133   1.502   2.593 -0.5930  0.1381  1.0240
  286SOL    HW1 1142   1.189   1.489   2.666  1.5837  2.9157  0.4849
  286SOL    HW2 1143   1.138   1.597   2.574  0.4306 -3.5634  0.2481
  286SOL     MW 1144   1.141   1.513   2.600 -0.1708  0.0162  0.8505
  287SOL     OW 1145   1.130   0.922   0.330 -0.2714 -0.1851 -0.1499
  287SOL    HW1 1146   1.210   0.956   0.361 -0.2862 -1.3961 -0.8034
  287SOL    HW2 1147   1.092   0.986   0.270  2.5960  0.2943 -0.2576
  287SOL     MW 1148   1.136   0.935   0.326  0.1049 -0.2817 -0.2503
  288SOL     OW 1149   1.538   0.572   2.104  0.0867 -0.3837 -0.4377
  288SOL    HW1 1150   1.484   0.591   2.179  0.0976 -1.5534  1.9378
  288SOL    HW2 1151   1.552   0.653   2.061  0.0166 -0.7999 -0.1522
  288SOL     MW 1152   1.533   0.585   2.108  0.0789 -0.5930 -0.0866
  289SOL     OW 1153   1.052   1.014   2.581 -0.0511 -0.7571  0.1373
  289SOL    HW1 1154   1.077   0.925   2.558  1.1318  2.4992 -1.9664
  289SOL    HW2 1155   0.960   1.026   2.548 -2.3080 -2.9897  0.4446
  289SOL     MW 1156   1.043   1.004   2.573 -0.1928 -0.6221 -0.0997
  290SOL     OW 1157   0.845   0.634   1.595  0.3205  0.4694 -0.0410
  290SOL    HW1 1158   0.895   0.602   1.520  0.8729 -0.4197  0.6549
  290SOL    HW2 1159   0.919   0.665   1.655  1.0450 -2.2630 -1.0122
  290SOL     MW 1160   0.861   0.634   1.593  0.4889 -0.0084 -0.0773
  291SOL     OW 1161   0.210   0.371   0.087 -0.4924  0.0208 -0.1511
  291SOL    HW1 1162   0.247   0.316   0.158  0.8159  2.5801  0.1043
  291SOL    HW2 1163   0.145   0.320   0.035 -2.4058 -0.4769  0.8827
  291SOL     MW 1164   0.206   0.357   0.089 -0.5723  0.2928  0.0190
  292SOL     OW 1165   1.002   0.568   0.081  0.0218 -0.5273 -0.5848
  292SOL    HW1 1166   1.068   0.612   0.125 -1.6947 -4.0973 -0.7160
  292SOL    HW2 1167   1.019   0.476   0.109 -1.8713  0.5212  1.0985
  292SOL     MW 1168   1.013   0.561   0.091 -0.4545 -0.8600 -0.3800
  293SOL     OW 1169   0.155   0.148   2.401  0.1173  0.0256  0.2543
  293SOL    HW1 1170   0.086   0.128   2.336  0.4048  2.0746  0.8443
  293SOL    HW2 1171   0.107   0.151   2.482  1.0149 -1.4917 -1.1520
  293SOL     MW 1172   0.139   0.146   2.403  0.2737  0.0957  0.1466
  294SOL     OW 1173   1.463   0.602   2.360 -0.5034 -0.4403 -0.3925
  294SOL    HW1 1174   1.495   0.643   2.444  1.4843 -2.0055  2.0156
  294SOL    HW2 1175   1.451   0.520   2.403  0.3905  2.2786 -0.2069
  294SOL     MW 1176   1.465   0.597   2.377 -0.1232 -0.2881 -0.0503
  295SOL     OW 1177   0.940   0.563   2.540 -0.4430  0.2380  0.5229
  295SOL    HW1 1178   0.884   0.529   2.475 -0.1513  2.1091  0.1184
  295SOL    HW2 1179   0.886   0.597   2.603  1.0724 -3.5699 -0.1311
  295SOL     MW 1180   0.926   0.563   2.540 -0.2046 -0.0175  0.3833
  296SOL     OW 1181   1.314   0.274   2.034 -0.4792  0.7795 -0.0304
  296SOL    HW1 1182   1.383   0.203   2.030 -1.3535 -1.5592 -1.3245
  296SOL    HW2 1183   1.289   0.279   2.131  0.0000 -0.2722 -1.1206
  296SOL     MW 1184   1.320   0.265   2.046 -0.5314  0.3321 -0.3450
  297SOL     OW 1185   1.380   0.377   1.600 -0.0391  0.1791 -0.5016
  297SOL    HW1 1186   1.407   0.464   1.627  1.5244  0.9536 -0.2369
  297SOL    HW2 1187   1.436   0.319   1.644 -0.6004  2.6944  2.1516
  297SOL     MW 1188   1.391   0.381   1.610  0.0931  0.6131 -0.1166
  298SOL     OW 1189   1.632   0.818   1.983  0.1396  0.0643  0.2151
  298SOL    HW1 1190   1.670   0.889   1.932 -1.4973  0.5595 -2.6391
  298SOL    HW2 1191   1.712   0.809   2.036  0.2307 -0.8147 -1.3030
  298SOL     MW 1192   1.647   0.826   1.983 -0.0643  0.0136 -0.3618
  299SOL     OW 1193   0.578   1.065   0.069 -0.0702  0.0224  0.1308
  299SOL    HW1 1194   0.592   1.126  -0.009 -0.6228  1.4556 -0.8977
  299SOL    HW2 1195   0.484   1.069   0.068 -0.0309  3.1157  0.2972
  299SOL     MW 1196   0.567   1.073   0.059 -0.1379  0.6196  0.0171
  300SOL     OW 1197   1.304   1.152   2.528  0.2223  0.2175 -0.0901
  300SOL    HW1 1198   1.220   1.108   2.543 -0.3158  1.7223  3.0347
  300SOL    HW2 1199   1.316   1.214   2.601  1.7363  0.0005  1.8104
  300SOL     MW 1200   1.295   1.155   2.540  0.3511  0.3874  0.5729
  301SOL     OW 1201   1.482   0.900   0.650  0.6959 -0.4392  0.1161
  301SOL    HW1 1202   1.470   0.932   0.743 -1.7622 -0.3720 -2.0122
  301SOL    HW2 1203   1.403   0.853   0.632 -0.1597 -0.7972  0.5470
  301SOL     MW 1204   1.470   0.898   0.660  0.2586 -0.4776 -0.1079
  302SOL     OW 1205   0.125   1.529   2.012  0.1476 -0.0512 -0.2765
  302SOL    HW1 1206   0.146   1.496   2.104  0.3795 -1.0534  2.8211
  302SOL    HW2 1207   0.046   1.587   2.028  0.6145 -0.9739  0.8951
  302SOL     MW 1208   0.117   1.532   2.026  0.2398 -0.3052  0.2867
  303SOL     OW 1209   0.429   1.778   2.599  0.0879  0.9433  0.6548
  303SOL    HW1 1210   0.400   1.734   2.518  0.7901 -0.5707  0.8184
  303SOL    HW2 1211   0.342   1.817   2.624  0.8130 -1.9799 -2.3693
  303SOL     MW 1212   0.413   1.777   2.592  0.2762  0.3579  0.2774
  304SOL     OW 1213   0.549   2.073   2.380 -0.2981 -0.2637 -0.0586
  304SOL    HW1 1214   0.604   2.114   2.310 -2.2887  1.3517  1.1849
  304SOL    HW2 1215   0.606   1.994   2.396 -0.0551 -0.1864  0.1424
  304SOL     MW 1216   0.564   2.068   2.373 -0.5286 -0.0404  0.1320
  305SOL     OW 1217   1.101   0.556   0.471  0.6631 -0.3379  0.3582
  305SOL    HW1 1218   1.003   0.553   0.463  0.0548  1.2380  0.8160
  305SOL    HW2 1219   1.135   0.485   0.525 -0.2265  1.1921  0.0714
  305SOL     MW 1220   1.092   0.547   0.477  0.4654  0.0719  0.3807
  306SOL     OW 1221   1.168   1.463   0.292  0.0324  0.3936  0.2079
  306SOL    HW1 1222   1.225   1.392   0.332 -0.5935  1.3120  2.1841
  306SOL    HW2 1223   1.208   1.477   0.205 -2.4411  2.2663  1.7403
  306SOL     MW 1224   1.181   1.456   0.286 -0.3765  0.7619  0.6709
  307SOL     OW 1225   1.314   0.538   1.942  0.0325 -0.0283 -0.1287
  307SOL    HW1 1226   1.315   0.438   1.957  1.1788 -1.8160 -1.4047
  307SOL    HW2 1227   1.378   0.553   2.014  4.1156  0.4000 -1.8697
  307SOL     MW 1228   1.322   0.527   1.953  0.7225 -0.2077 -0.5268
  308SOL     OW 1229   2.161   0.521   2.728  0.1840  0.1230  0.1687
  308SOL    HW1 1230   2.252   0.516   2.758  3.6903 -1.6114  0.8977
  308SOL    HW2 1231   2.154   0.615   2.718  0.9672 -2.3610  1.2685
  308SOL     MW 1232   2.172   0.533   2.730  0.7499 -0.4336  0.4100
  309SOL     OW 1233   0.472   0.454   0.349  0.1305 -0.0484 -0.0654
  309SOL    HW1 1234   0.562   0.458   0.390  1.8224  1.9145 -0.4367
  309SOL    HW2 1235   0.473   0.375   0.295  3.4100  1.6700 -3.5528
  309SOL     MW 1236   0.484   0.444   0.348  0.7864  0.4373 -0.5745
  310SOL     OW 1237   0.438   0.658   1.958 -0.3297 -0.1169  0.2424
  310SOL    HW1 1238   0.473   0.579   1.933  0.1816  0.3586  2.1491
  310SOL    HW2 1239   0.494   0.724   1.911  1.2829  1.5818 -1.4917
  310SOL     MW 1240   0.450   0.657   1.948 -0.0494  0.1700  0.2652
  311SOL     OW 1241   1.916   0.641   1.924  0.0122 -0.2794  0.4684
  311SOL    HW1 1242   1.896   0.697   2.002 -0.6023 -2.5279  0.0389
  311SOL    HW2 1243   1.958   0.563   1.956 -4.7457 -0.2669  2.2492
  311SOL     MW 1244   1.919   0.638   1.938 -0.6967 -0.5745  0.6467
  312SOL     OW 1245   1.824   2.512   0.121  0.3241  0.1191  0.2725
  312SOL    HW1 1246   1.895   2.519   0.187  1.6838  1.6471 -0.1121
  312SOL    HW2 1247   1.747   2.544   0.161  2.8733 -0.9533 -0.2452
  312SOL     MW 1248   1.823   2.517   0.135  0.8399  0.1792  0.1534
  313SOL     OW 1249   0.146   1.073   2.966  0.2645  0.5129  0.1700
  313SOL    HW1 1250   0.091   1.114   3.034  2.6278  0.7083  1.5567
  313SOL    HW2 1251   0.200   1.149   2.937 -0.2209  2.1013  0.5657
  313SOL     MW 1252   0.146   1.088   2.971  0.5123  0.7483  0.4052
  314SOL     OW 1253   2.185   2.966   2.966 -0.0253  0.2180 -0.0870
  314SOL    HW1 1254   2.136   3.039   2.933  1.8740 -0.7211  0.8585
  314SOL    HW2 1255   2.260   3.009   3.009 -2.0969  0.2170 -0.4486
  314SOL     MW 1256   2.189   2.981   2.967 -0.0480  0.0939 -0.0099
  315SOL     OW 1257   1.528   1.932   0.010  0.4518 -0.0310 -0.4472
  315SOL    HW1 1258   1.451   1.957   0.067  0.2927  1.2356 -2.6680
  315SOL    HW2 1259   1.511   1.997  -0.063  0.9609 -1.9038  1.2403
  315SOL     MW 1260   1.516   1.944   0.008  0.4980 -0.1110 -0.5175
  316SOL     OW 1261   1.301   0.638   2.714  0.0670 -0.5958 -0.4211
  316SOL    HW1 1262   1.382   0.652   2.673 -0.6916 -2.5932  2.2387
  316SOL    HW2 1263   1.315   0.659   2.804  1.8807 -2.6307 -0.2148
  316SOL     MW 1264   1.314   0.643   2.721  0.2062 -1.1278 -0.0429
  317SOL     OW 1265   0.688   1.411   2.551 -0.4021  0.0322  0.5705
  317SOL    HW1 1266   0.772   1.359   2.551 -1.1553 -0.6460 -0.1629
  317SOL    HW2 1267   0.692   1.462   2.461 -0.9305  0.6285 -3.8554
  317SOL     MW 1268   0.700   1.411   2.539 -0.5712  0.0214 -0.1103
  318SOL     OW 1269   1.309   0.349   2.930 -0.1321 -0.2887  0.6226
  318SOL    HW1 1270   1.220   0.402   2.937 -1.2121  1.6888 -2.3245
  318SOL    HW2 1271   1.373   0.414   2.956  0.1642 -0.6107 -0.6334
  318SOL     MW 1272   1.305   0.365   2.935 -0.2355 -0.0703  0.0680
  319SOL     OW 1273   0.787   0.444   2.871  0.0940  0.2676 -0.4389
  319SOL    HW1 1274   0.767   0.356   2.836 -1.3214 -1.4384  1.5195
  319SOL    HW2 1275   0.739   0.438   2.957 -1.8236 -1.3705 -0.5966
  319SOL     MW 1276   0.778   0.431   2.878 -0.3457 -0.1736 -0.2013
  320SOL     OW 1277   1.058   1.356   2.035 -0.1719  0.1454  0.6875
  320SOL    HW1 1278   1.127   1.298   2.072  1.4423  0.3437 -0.4188
  320SOL    HW2 1279   1.106   1.414   1.972 -0.2037  0.2301 -1.4950
  320SOL     MW 1280   1.073   1.356   2.032  0.0369  0.1827  0.2535
  321SOL     OW 1281   1.149   0.912   3.031 -0.5204  0.2977 -0.2377
  321SOL    HW1 1282   1.103   0.903   2.948  1.1311  0.9399 -2.2706
  321SOL    HW2 1283   1.212   0.844   3.017 -1.9307  1.9261  1.5450
  321SOL     MW 1284   1.151   0.902   3.018 -0.4886  0.5973 -0.2707
  322SOL     OW 1285   1.234   0.870   1.686 -0.6754 -0.0056 -0.2135
  322SOL    HW1 1286   1.316   0.824   1.700  0.5919  0.4079  0.2573
  322SOL    HW2 1287   1.224   0.914   1.777  1.2200  1.3049 -1.6284
  322SOL     MW 1288   1.244   0.869   1.700 -0.2581  0.2219 -0.3381
  323SOL     OW 1289   1.200   1.535   1.904 -0.2151  0.1841 -0.5733
  323SOL    HW1 1290   1.277   1.531   1.845 -0.5062  0.1875 -0.7575
  323SOL    HW2 1291   1.168   1.619   1.884 -1.1167  1.0564 -0.3599
  323SOL     MW 1292   1.206   1.545   1.894 -0.3725  0.2997 -0.5695
  324SOL     OW 1293   1.477   0.948   2.423  0.0841  0.2021  0.2870
  324SOL    HW1 1294   1.426   1.024   2.454  3.8228 -3.0625 -0.2871
  324SOL    HW2 1295   1.566   0.971   2.453 -1.5715  0.7495  0.6029
  324SOL     MW 1296   1.482   0.961   2.431  0.3589 -0.1564  0.2529
  325SOL     OW 1297   1.083   0.493   2.929  0.2635  0.3976 -0.7119
  325SOL    HW1 1298   1.046   0.504   3.019 -1.4394 -0.0917 -0.3870
  325SOL    HW2 1299   0.998   0.497   2.887  4.0725  1.4108 -0.1660
  325SOL     MW 1300   1.067   0.495   2.935  0.5414  0.4667 -0.5970
  326SOL     OW 1301   0.463   1.367   2.308 -0.1328 -0.3035 -0.2240
  326SOL    HW1 1302   0.508   1.321   2.238  2.0915 -0.2410 -0.5459
  326SOL    HW2 1303   0.497   1.458   2.306  2.7324  1.0091  1.2542
  326SOL     MW 1304   0.473   1.373   2.298  0.5387 -0.1221 -0.0714
  327SOL     OW 1305   1.928   0.792   2.443 -0.2857 -0.3189 -0.1411
  327SOL    HW1 1306   1.869   0.766   2.519 -0.1624 -0.5938  1.8500
  327SOL    HW2 1307   2.020   0.777   2.476 -0.4932  0.5253 -0.7321
  327SOL     MW 1308   1.932   0.786   2.458 -0.2968 -0.2438  0.0436
  328SOL     OW 1309   0.196   1.395   2.211  0.4137  0.6226 -0.7148
  328SOL    HW1 1310   0.165   1.307   2.195 -2.4981 -0.1544 -0.4905
  328SOL    HW2 1311   0.287   1.383   2.239 -1.6994 -0.4417 -0.5786
  328SOL     MW 1312   0.204   1.381   2.213 -0.2493  0.3797 -0.6672
  329SOL     OW 1313   0.150   0.248   1.367  0.0177  0.1941  0.8700
  329SOL    HW1 1314   0.113   0.234   1.456 -2.2999  0.6871 -2.4942
  329SOL    HW2 1315   0.236   0.291   1.377  0.3716  2.5580 -0.6987
  329SOL     MW 1316   0.156   0.252   1.380 -0.2414  0.5711  0.2191
  330SOL     OW 1317   0.372   0.019   2.099  0.0350 -0.1952  0.3866
  330SOL    HW1 1318   0.462   0.021   2.143  1.5821 -0.0862  0.5809
  330SOL    HW2 1319   0.315  -0.037   2.158 -0.6320  1.4791  2.3401
  330SOL     MW 1320   0.377   0.012   2.113  0.1511  0.0401  0.6700
  331SOL     OW 1321   0.896   1.239   2.258 -0.1466  0.5978  0.1310
  331SOL    HW1 1322   0.822   1.279   2.213 -0.5648 -2.9543  1.8099
  331SOL    HW2 1323   0.908   1.290   2.336 -1.1397 -0.2944 -0.8622
  331SOL     MW 1324   0.888   1.251   2.262 -0.3328  0.0114  0.2215
  332SOL     OW 1325   1.346   1.787   2.982  0.3765 -0.0032  0.1144
  332SOL    HW1 1326   1.370   1.797   2.886 -0.7752 -0.6334  0.1329
  332SOL    HW2 1327   1.425   1.819   3.026 -1.2617 -0.2801 -2.9485
  332SOL     MW 1328   1.359   1.793   2.975  0.0084 -0.1229 -0.2873
  333SOL     OW 1329   1.768   1.395   2.972 -0.8679  0.0629 -0.2779
  333SOL    HW1 1330   1.863   1.413   2.982 -4.3912  1.0782 -0.8343
  333SOL    HW2 1331   1.747   1.327   3.032 -0.2311  0.6795 -2.2732
  333SOL     MW 1332   1.778   1.389   2.981 -1.2487  0.2782 -0.6146
  334SOL     OW 1333   1.353   0.018   2.611 -0.4613  0.0372 -0.4314
  334SOL    HW1 1334   1.262   0.008   2.639 -0.5870  1.3239  0.9653
  334SOL    HW2 1335   1.382   0.103   2.647 -1.0018  0.4231 -0.9984
  334SOL     MW 1336   1.345   0.028   2.619 -0.5492  0.2579 -0.3219
  335SOL     OW 1337   1.367   0.750   2.961 -0.1904  0.1867  0.2320
  335SOL    HW1 1338   1.415   0.735   3.045  0.2962  1.5727  0.8249
  335SOL    HW2 1339   1.396   0.834   2.935  0.1098 -0.4134  1.7865
  335SOL     MW 1340   1.377   0.759   2.969 -0.0866  0.2904  0.5153
  336SOL     OW 1341   0.957   1.124   1.908 -0.2228  0.4054 -0.4852
  336SOL    HW1 1342   0.951   1.207   1.959 -0.7850 -0.6332 -1.7743
  336SOL    HW2 1343   1.027   1.089   1.957 -0.2923 -1.1776 -2.9429
  336SOL     MW 1344   0.965   1.130   1.922 -0.3062  0.0595 -0.9795
  337SOL     OW 1345   0.602   1.819   2.786  0.9323 -0.1684  0.2439
  337SOL    HW1 1346   0.531   1.818   2.724 -1.1950 -1.3221 -0.1140
  337SOL    HW2 1347   0.670   1.768   2.748  0.4741  0.5400  1.0805
  337SOL     MW 1348   0.602   1.812   2.773  0.5912 -0.2272  0.3071
  338SOL     OW 1349   1.129   0.769   2.539  0.2018  0.1493  0.4508
  338SOL    HW1 1350   1.062   0.700   2.531  0.0126 -0.0539  1.2053
  338SOL    HW2 1351   1.175   0.722   2.611 -0.9372 -1.8095 -0.2300
  338SOL     MW 1352   1.126   0.754   2.548  0.0266 -0.1360  0.4605
  339SOL     OW 1353   1.474   1.034   1.829  0.2071  0.5055 -0.3134
  339SOL    HW1 1354   1.429   1.065   1.755 -2.1160 -0.1687 -1.4623
  339SOL    HW2 1355   1.402   1.023   1.891  0.5119  0.8444  0.3385
  339SOL     MW 1356   1.459   1.037   1.828 -0.0592  0.4613 -0.3789
  340SOL     OW 1357   1.304   1.541   0.056  0.1314 -0.3262 -0.2943
  340SOL    HW1 1358   1.307   1.633   0.021 -0.0199  2.0777 -0.2580
  340SOL    HW2 1359   1.391   1.520   0.082  1.2561 -0.2879 -0.3495
  340SOL     MW 1360   1.316   1.550   0.055  0.2598 -0.0040 -0.2968
  341SOL     OW 1361   0.124   1.423   2.757 -0.3953 -0.3602  0.3254
  341SOL    HW1 1362   0.214   1.391   2.736  0.1393 -1.3570 -0.0375
  341SOL    HW2 1363   0.079   1.385   2.681 -2.9278 -0.4301  0.7726
  341SOL     MW 1364   0.130   1.414   2.744 -0.6589 -0.5010  0.3365
  342SOL     OW 1365   1.295   0.311   0.117 -0.0420 -0.6651  0.5385
  342SOL    HW1 1366   1.375   0.351   0.159  1.7261  2.2747  0.1477
  342SOL    HW2 1367   1.308   0.316   0.021  0.4450  0.7619 -1.4617
  342SOL     MW 1368   1.307   0.317   0.110  0.2555 -0.0889  0.2230
  343SOL     OW 1369   0.255   0.256   2.157  0.5050 -0.1787 -0.6505
  343SOL    HW1 1370   0.303   0.177   2.136 -4.4773 -1.7969  0.1727
  343SOL    HW2 1371   0.208   0.289   2.081 -0.5994  3.6950  1.6524
  343SOL     MW 1372   0.255   0.250   2.144 -0.2981  0.1189 -0.2380
  344SOL     OW 1373   1.724   2.022   0.163 -0.4853 -0.6225  0.0329
  344SOL    HW1 1374   1.729   2.108   0.128 -1.6916 -2.8323 -1.6022
  344SOL    HW2 1375   1.658   1.981   0.111 -0.3954 -0.7097  0.7032
  344SOL     MW 1376   1.716   2.028   0.151 -0.6326 -0.9255 -0.0944
  345SOL     OW 1377   0.749   1.573   2.351 -0.0645  0.1854  0.0962
  345SOL    HW1 1378   0.678   1.594   2.289  2.1723 -0.4145 -0.9740
  345SOL    HW2 1379   0.827   1.583   2.299 -2.2951  1.5133 -2.0229
  345SOL     MW 1380   0.750   1.577   2.336 -0.0636  0.2814 -0.3246
  346SOL     OW 1381   1.774   1.081   0.036 -0.2774  0.2798  0.3224
  346SOL    HW1 1382   1.859   1.038   0.019  0.1714  2.4422 -1.6961
  346SOL    HW2 1383   1.722   1.032   0.102 -1.4184  0.9027  0.8423
  346SOL     MW 1384   1.778   1.069   0.042 -0.3687  0.6473  0.1247
  347SOL     OW 1385   1.209   0.689   2.288 -0.2667 -0.5063 -0.4775
  347SOL    HW1 1386   1.297   0.660   2.317  1.0615 -0.0206 -0.0820
  347SOL    HW2 1387   1.179   0.733   2.367 -1.8507 -0.0194  0.0362
  347SOL     MW 1388   1.216   0.691   2.302 -0.3005 -0.3780 -0.3575
  348SOL     OW 1389   1.383   2.691   1.934 -0.4057 -0.4436 -0.2471
  348SOL    HW1 1390   1.406   2.597   1.957  1.0977  0.4687  1.1200
  348SOL    HW2 1391   1.405   2.751   2.006  1.8496  3.5230 -0.5714
  348SOL     MW 1392   1.389   2.687   1.946  0.0902  0.2001 -0.1095
  349SOL     OW 1393   1.451   0.249   2.708  0.1401 -0.0906  0.4215
  349SOL    HW1 1394   1.394   0.294   2.768 -2.0240  1.5112 -0.6623
  349SOL    HW2 1395   1.537   0.249   2.754 -3.3303 -1.8487  0.3588
  349SOL     MW 1396   1.455   0.255   2.722 -0.6033 -0.1112  0.2702
  350SOL     OW 1397   1.842   0.657   2.671  0.3050  0.1687  0.1210
  350SOL    HW1 1398   1.762   0.605   2.639 -0.6304  1.3720  0.4211
  350SOL    HW2 1399   1.918   0.603   2.658 -2.3254  1.6259  1.6484
  350SOL     MW 1400   1.842   0.643   2.665 -0.1655  0.5197  0.3621
  351SOL     OW 1401   0.096   1.051   1.530  0.3889  0.6505  0.3661
  351SOL    HW1 1402   0.019   1.076   1.578 -0.1109 -0.1213 -1.7515
  351SOL    HW2 1403   0.159   1.110   1.560 -1.1661  0.6873 -1.5536
  351SOL     MW 1404   0.094   1.062   1.540  0.1178  0.5536 -0.1666
  352SOL     OW 1405   0.821   1.650   2.696 -0.1890  0.1038  0.4427
  352SOL    HW1 1406   0.872   1.611   2.773  0.3678  0.4268  0.8568
  352SOL    HW2 1407   0.780   1.576   2.652 -0.5195 -1.2009 -0.6110
  352SOL     MW 1408   0.822   1.635   2.700 -0.1591 -0.0257  0.3583
  353SOL     OW 1409   3.053   2.518   2.642  0.0850 -0.3849  0.1783
  353SOL    HW1 1410   3.149   2.513   2.624  2.2996  0.1371 -1.0445
  353SOL    HW2 1411   3.014   2.587   2.582  0.7605  0.5150 -0.8804
  353SOL     MW 1412   3.061   2.526   2.632  0.4663 -0.1973 -0.1227
  354SOL     OW 1413   0.244   2.481   0.802 -0.0816  0.1377  0.2288
  354SOL    HW1 1414   0.321   2.439   0.842 -0.4067  0.2075 -1.3928
  354SOL    HW2 1415   0.178   2.416   0.822 -0.9827 -1.7143 -1.9145
  354SOL     MW 1416   0.246   2.467   0.810 -0.2434 -0.0974 -0.2679
  355SOL     OW 1417   0.048   2.254   0.397 -0.5650 -0.1986 -0.1661
  355SOL    HW1 1418  -0.032   2.203   0.409  0.8587 -0.6205  1.1232
  355SOL    HW2 1419   0.030   2.340   0.439  1.4192 -0.9016  0.2980
  355SOL     MW 1420   0.035   2.259   0.404 -0.1154 -0.3470  0.0652
  356SOL     OW 1421   0.849   2.820   1.000  0.2184  0.0492  0.3891
  356SOL    HW1 1422   0.887   2.877   0.923  1.1134  0.9232  0.2590
  356SOL    HW2 1423   0.755   2.821   0.991  2.1616 -0.1641  2.1593
  356SOL     MW 1424   0.842   2.827   0.989  0.5929  0.1364  0.6055
  357SOL     OW 1425   1.785   2.906   0.413 -0.2012  0.0300 -0.5656
  357SOL    HW1 1426   1.733   2.841   0.461  0.4138  0.6554 -0.2218
  357SOL    HW2 1427   1.863   2.851   0.398  1.4821  0.2617  2.1572
  357SOL     MW 1428   1.788   2.890   0.418  0.1020  0.1431 -0.1610
  358SOL     OW 1429   0.454   0.165   1.067 -0.1862 -0.3676 -0.1879
  358SOL    HW1 1430   0.548   0.150   1.045  1.1065  0.1753 -1.7255
  358SOL    HW2 1431   0.405   0.200   0.988  0.2443 -1.5802 -1.2815
  358SOL     MW 1432   0.460   0.167   1.054  0.0411 -0.4560 -0.5351
  359SOL     OW 1433   0.853   2.933   1.870 -0.5914 -0.5573 -0.4416
  359SOL    HW1 1434   0.849   2.837   1.885  1.4966 -0.3718 -4.9338
  359SOL    HW2 1435   0.880   2.942   1.780 -1.9324 -1.3963  0.7405
  359SOL     MW 1436   0.856   2.922   1.860 -0.4928 -0.6435 -0.8784
  360SOL     OW 1437   0.568   2.766   0.922  0.3637  0.1375 -0.2479
  360SOL    HW1 1438   0.558   2.715   0.844 -0.4109  0.8558 -0.7626
  360SOL    HW2 1439   0.555   2.697   0.990 -0.6646 -0.5523  0.7231
  360SOL     MW 1440   0.565   2.750   0.920  0.1258  0.1413 -0.1877
  361SOL     OW 1441   0.174   2.648   1.341  0.1553 -0.0244 -0.5789
  361SOL    HW1 1442   0.142   2.725   1.389  0.5865  0.3764  0.9740
  361SOL    HW2 1443   0.269   2.660   1.338  0.4331  0.4935  0.2397
  361SOL     MW 1444   0.182   2.660   1.347  0.2488  0.0968 -0.2660
  362SOL     OW 1445   1.488   2.398   0.638  0.1541 -0.2880 -0.0376
  362SOL    HW1 1446   1.485   2.357   0.722 -0.6349  0.0736 -0.1887
  362SOL    HW2 1447   1.575   2.443   0.639  0.4321  0.1907  3.5271
  362SOL     MW 1448   1.499   2.399   0.649  0.0867 -0.1771  0.4128
  363SOL     OW 1449   0.313   3.069   0.676 -0.5952  0.3083 -0.2802
  363SOL    HW1 1450   0.324   3.008   0.749  0.4211 -0.3664 -1.2033
  363SOL    HW2 1451   0.223   3.070   0.634 -3.2919  0.0441 -2.2093
  363SOL     MW 1452   0.302   3.061   0.680 -0.8169  0.1844 -0.6565
  364SOL     OW 1453   0.703   0.163   0.213  0.2063 -0.4403 -0.5926
  364SOL    HW1 1454   0.633   0.093   0.239 -0.0064  1.1704  0.2224
  364SOL    HW2 1455   0.651   0.233   0.178  0.8487  2.1118  0.7012
  364SOL     MW 1456   0.687   0.163   0.212  0.2630  0.1090 -0.3144
  365SOL     OW 1457   0.976   2.006   1.092 -0.0213  0.6546  0.4001
  365SOL    HW1 1458   0.949   2.099   1.070 -0.0281 -0.6005  0.7841
  365SOL    HW2 1459   0.902   1.958   1.053 -0.6020  0.7627  0.0123
  365SOL     MW 1460   0.963   2.012   1.084 -0.0988  0.5032  0.3996
  366SOL     OW 1461   2.833   2.670   1.022  0.5131  0.5055 -0.0502
  366SOL    HW1 1462   2.927   2.667   1.063 -0.1552 -0.6909  0.4953
  366SOL    HW2 1463   2.850   2.704   0.932  0.4692  1.2603  1.7223
  366SOL     MW 1464   2.848   2.674   1.015  0.4191  0.4473  0.2556
  367SOL     OW 1465   1.239   2.950   0.864 -0.6826  0.1182  0.3722
  367SOL    HW1 1466   1.256   3.021   0.806  2.0504 -0.0994  0.3625
  367SOL    HW2 1467   1.193   2.876   0.812  0.4791 -0.9373 -0.5503
  367SOL     MW 1468   1.235   2.949   0.850 -0.1687 -0.0498  0.2492
  368SOL     OW 1469   1.647   0.402   0.697  0.6233  0.1728  0.5085
  368SOL    HW1 1470   1.738   0.386   0.663  2.2462  1.2898 -1.9723
  368SOL    HW2 1471   1.643   0.496   0.700  2.0260 -2.1888  0.0540
  368SOL     MW 1472   1.659   0.412   0.693  1.0225  0.0086  0.1212
  369SOL     OW 1473   0.136   2.497   1.726 -0.5180 -0.3643  1.1756
  369SOL    HW1 1474   0.241   2.496   1.729  1.4559 -3.4162  2.5478
  369SOL    HW2 1475   0.101   2.586   1.751 -1.9892  0.3723  2.0174
  369SOL     MW 1476   0.145   2.508   1.729 -0.4517 -0.6698  1.4677
  370SOL     OW 1477   0.726   0.100   1.028  0.0988 -0.1318  0.2467
  370SOL    HW1 1478   0.796   0.166   1.005 -2.7306  1.4554 -0.0966
  370SOL    HW2 1479   0.748   0.053   1.108  0.2983  0.8716 -0.2192
  370SOL     MW 1480   0.738   0.103   1.035 -0.2482  0.2100  0.1400
  371SOL     OW 1481   1.299   2.922   1.523  0.3243  0.5008 -0.2092
  371SOL    HW1 1482   1.250   2.850   1.482 -0.4563 -0.8640 -0.0978
  371SOL    HW2 1483   1.315   2.991   1.454  0.7826 -1.0921 -1.4648
  371SOL     MW 1484   1.294   2.922   1.508  0.2817  0.1105 -0.3602
  372SOL     OW 1485   0.744   2.315   0.466 -0.2103 -0.8622 -0.3096
  372SOL    HW1 1486   0.734   2.228   0.498  0.0286  1.3275 -1.9325
  372SOL    HW2 1487   0.783   2.294   0.381 -2.3782 -0.5867  2.3626
  372SOL     MW 1488   0.748   2.301   0.459 -0.4649 -0.5369 -0.1711
  373SOL     OW 1489   2.759   2.999   1.458  0.1212 -0.1082 -0.3606
  373SOL    HW1 1490   2.829   2.982   1.398  1.7021 -1.0087  1.0800
  373SOL    HW2 1491   2.713   3.074   1.426 -0.7995 -0.6215 -2.2561
  373SOL     MW 1492   2.762   3.007   1.446  0.2083 -0.2947 -0.4206
  374SOL     OW 1493   1.527   0.470   0.239  0.3664  0.2609 -0.2828
  374SOL    HW1 1494   1.593   0.415   0.198 -1.2245  1.0731  0.6616
  374SOL    HW2 1495   1.504   0.429   0.322  0.2361 -0.7301 -0.2777
  374SOL     MW 1496   1.533   0.457   0.245  0.1393  0.2373 -0.1575
  375SOL     OW 1497   0.962   2.119   2.286  0.1659  0.4959 -0.2621
  375SOL    HW1 1498   1.008   2.115   2.366 -0.1924 -1.1734 -0.6177
  375SOL    HW2 1499   0.974   2.027   2.244  1.6192 -1.4204  0.5402
  375SOL     MW 1500   0.970   2.107   2.291  0.3104  0.0228 -0.2032
  376SOL     OW 1501   0.734   2.580   0.075  1.5889 -0.1933  0.2531
  376SOL    HW1 1502   0.701   2.519   0.156 -0.7223 -0.5146 -1.7474
  376SOL    HW2 1503   0.730   2.520  -0.002  1.8692 -2.1580  0.5957
  376SOL     MW 1504   0.729   2.564   0.076  1.3210 -0.4949  0.0343
  377SOL     OW 1505   1.282   2.008   0.875  0.1060 -0.1214  0.2328
  377SOL    HW1 1506   1.210   1.981   0.818  2.2644  0.6479 -0.3079
  377SOL    HW2 1507   1.255   1.973   0.957 -2.0384  1.2329 -0.7911
  377SOL     MW 1508   1.269   2.000   0.878  0.1078  0.1588  0.0264
  378SOL     OW 1509   0.915   2.808   1.570 -0.7406  0.4807 -0.1276
  378SOL    HW1 1510   0.867   2.725   1.565 -0.4791 -2.3675 -1.8482
  378SOL    HW2 1511   0.901   2.867   1.493  0.5657  1.1863  0.0530
  378SOL     MW 1512   0.907   2.804   1.559 -0.5337  0.1980 -0.3308
  379SOL     OW 1513   1.162   1.771   2.287 -0.3733  0.0635 -0.3399
  379SOL    HW1 1514   1.075   1.795   2.253 -1.3974  1.6789  3.1806
  379SOL    HW2 1515   1.179   1.685   2.246  1.2126 -0.4086 -1.6840
  379SOL     MW 1516   1.153   1.763   2.277 -0.2992  0.2143 -0.0527
  380SOL     OW 1517   0.793   0.111   1.619  0.5857  0.0259  0.5935
  380SOL    HW1 1518   0.806   0.076   1.536  0.9272  2.9514 -0.6920
  380SOL    HW2 1519   0.883   0.123   1.651 -0.4668 -1.1271  1.3890
  380SOL     MW 1520   0.806   0.108   1.613  0.4919  0.2597  0.5288
  381SOL     OW 1521   0.814   2.049   0.785  0.0722  0.1520  0.6936
  381SOL    HW1 1522   0.903   2.019   0.788 -0.6753  1.8859  0.5379
  381SOL    HW2 1523   0.816   2.145   0.804 -0.1627 -1.9836  0.3439
  381SOL     MW 1524   0.826   2.058   0.788 -0.0574  0.0990  0.6269
  382SOL     OW 1525   0.673   0.078   0.726  0.4344 -0.2923  0.1568
  382SOL    HW1 1526   0.666   0.076   0.817  1.3044 -2.0274 -3.6329
  382SOL    HW2 1527   0.669  -0.015   0.688  0.1611 -0.6802 -1.9197
  382SOL     MW 1528   0.672   0.065   0.733  0.5131 -0.5724 -0.6172
  383SOL     OW 1529   0.541   3.079   0.288 -0.1598  0.2718 -0.2846
  383SOL    HW1 1530   0.542   3.025   0.208 -1.0671  1.7253 -0.2575
  383SOL    HW2 1531   0.512   3.031   0.359  1.5008  1.1587  1.0011
  383SOL     MW 1532   0.538   3.065   0.287 -0.0604  0.5806 -0.1114
  384SOL     OW 1533   0.676   2.920   0.628  0.9226  0.2157 -0.0572
  384SOL    HW1 1534   0.750   2.907   0.689  2.1075  0.0211 -0.6859
  384SOL    HW2 1535   0.628   2.836   0.631  0.6387 -0.3304 -0.5838
  384SOL     MW 1536   0.679   2.907   0.636  1.0415  0.1180 -0.2096
  385SOL     OW 1537   1.378   2.101   1.520  0.2371  0.0311  0.1110
  385SOL    HW1 1538   1.469   2.133   1.551 -0.2421 -1.9169  0.5761
  385SOL    HW2 1539   1.336   2.038   1.581  3.3286  0.7814 -0.1155
  385SOL     MW 1540   1.385   2.097   1.532  0.5817 -0.1269  0.1424
  386SOL     OW 1541   1.299   0.420   0.899  0.1051 -0.0248  0.1268
  386SOL    HW1 1542   1.213   0.452   0.935  1.2957  0.6634 -1.0747
  386SOL    HW2 1543   1.326   0.337   0.938  0.7649 -1.3193  0.7054
  386SOL     MW 1544   1.292   0.413   0.908  0.3493 -0.1048  0.0446
  387SOL     OW 1545   0.810   2.202   1.515  0.0036 -0.1919  0.3463
  387SOL    HW1 1546   0.844   2.279   1.473 -3.2098  0.3088  1.0708
  387SOL    HW2 1547   0.843   2.128   1.464  2.2531  0.6820  1.5115
  387SOL     MW 1548   0.818   2.202   1.502 -0.1236 -0.0105  0.5956
  388SOL     OW 1549   1.548   2.793   1.207 -0.1716  0.0553 -0.3125
  388SOL    HW1 1550   1.464   2.760   1.174 -1.0751 -0.2937 -2.3894
  388SOL    HW2 1551   1.597   2.760   1.135 -2.2515 -3.2255  0.7853
  388SOL     MW 1552   1.544   2.784   1.193 -0.5653 -0.4236 -0.4417
  389SOL     OW 1553   0.446   0.093   3.012 -0.2698  0.0891  0.4819
  389SOL    HW1 1554   0.534   0.071   2.996 -2.6520  0.2654  0.1896
  389SOL    HW2 1555   0.420   0.154   2.946 -1.2688 -1.2739  4.2650
  389SOL     MW 1556   0.455   0.098   3.001 -0.7159 -0.0675  0.9425
  390SOL     OW 1557   1.296   0.088   0.704  0.3158  0.3136  0.1234
  390SOL    HW1 1558   1.357   0.086   0.628  1.0941 -1.6459 -1.9139
  390SOL    HW2 1559   1.355   0.104   0.780 -3.8948 -1.8396 -0.2749
  390SOL     MW 1560   1.312   0.090   0.704 -0.1370 -0.2290 -0.1980
  391SOL     OW 1561   0.323   2.203   1.414  0.2700  0.2143 -0.0908
  391SOL    HW1 1562   0.269   2.121   1.390  3.3099  0.2098 -0.0275
  391SOL    HW2 1563   0.249   2.257   1.439  1.1327 -0.2139  1.0783
  391SOL     MW 1564   0.306   2.199   1.414  0.7849  0.1572  0.0718
  392SOL     OW 1565   2.060   2.208   0.315 -0.2024 -0.1153 -0.0125
  392SOL    HW1 1566   2.119   2.163   0.372 -1.5539  1.8527  1.6045
  392SOL    HW2 1567   2.022   2.273   0.375 -3.6975  2.3658  0.1846
  392SOL     MW 1568   2.063   2.211   0.330 -0.8418  0.4717  0.2269
  393SOL     OW 1569   0.195   3.003   2.769  0.5740 -0.4684  0.7624
  393SOL    HW1 1570   0.290   2.997   2.744 -0.7672 -3.5251 -1.0043
  393SOL    HW2 1571   0.171   3.092   2.751 -1.1333  0.9240  0.2045
  393SOL     MW 1572   0.204   3.014   2.763  0.1718 -0.6880  0.4557
  394SOL     OW 1573   0.870   1.736   1.561 -0.3054 -0.2393  0.1280
  394SOL    HW1 1574   0.821   1.766   1.635  1.0467  0.0771 -1.3848
  394SOL    HW2 1575   0.887   1.824   1.513 -0.9064  0.0894  0.6636
  394SOL     MW 1576   0.866   1.752   1.565 -0.2063 -0.1542 -0.0009
  395SOL     OW 1577   1.004   2.834   2.639 -0.1857  0.9262  0.7530
  395SOL    HW1 1578   1.045   2.915   2.669 -0.1505 -0.3660 -1.0346
  395SOL    HW2 1579   1.077   2.790   2.594  0.7469 -2.8056  0.6223
  395SOL     MW 1580   1.019   2.839   2.637 -0.0580  0.2633  0.4999
  396SOL     OW 1581   0.733   1.851   2.393 -0.5919 -0.8864 -0.4972
  396SOL    HW1 1582   0.806   1.873   2.450  0.4098  0.8254 -0.5519
  396SOL    HW2 1583   0.742   1.758   2.384  2.6177  2.9369  1.1439
  396SOL     MW 1584   0.744   1.842   2.399 -0.0363 -0.1561 -0.2879
  397SOL     OW 1585   1.005   2.307   1.289  0.2394  0.2245  0.2951
  397SOL    HW1 1586   1.040   2.362   1.219  1.2549 -0.1664  2.9332
  397SOL    HW2 1587   1.065   2.308   1.369  1.0299 -1.4556  0.0322
  397SOL     MW 1588   1.017   2.314   1.290  0.4777 -0.0487  0.6085
  398SOL     OW 1589   0.539   2.638   0.680 -0.2529 -0.1160  0.1380
  398SOL    HW1 1590   0.478   2.609   0.606 -1.7877 -0.2875 -1.4397
  398SOL    HW2 1591   0.626   2.593   0.667  1.0589  3.8433 -1.4457
  398SOL     MW 1592   0.543   2.628   0.668 -0.2823  0.3838 -0.2791
  399SOL     OW 1593   0.241   2.076   0.325 -0.1142  0.5009 -0.1801
  399SOL    HW1 1594   0.164   2.128   0.354 -1.2217  0.7987 -1.7387
  399SOL    HW2 1595   0.268   2.117   0.245 -0.0496 -1.8416 -4.7176
  399SOL     MW 1596   0.235   2.088   0.319 -0.2518  0.2311 -0.9844
  400SOL     OW 1597   0.496   1.940   0.115 -0.1691  0.2898 -0.6373
  400SOL    HW1 1598   0.460   2.028   0.120 -0.4644  0.4068 -0.8483
  400SOL    HW2 1599   0.465   1.903   0.198  2.8499  1.3909  0.6355
  400SOL     MW 1600   0.487   1.946   0.127  0.1903  0.4505 -0.4972
  401SOL     OW 1601   0.755   2.033   0.086 -0.0055  0.6880 -0.2988
  401SOL    HW1 1602   0.832   1.972   0.112  0.3142 -0.9462  0.1407
  401SOL    HW2 1603   0.668   2.004   0.112 -1.0069  0.6600 -2.6817
  401SOL     MW 1604   0.753   2.021   0.093 -0.0954  0.4687 -0.5552
  402SOL     OW 1605   0.596   2.964   1.801  0.0186 -0.2108 -0.3049
  402SOL    HW1 1606   0.675   2.949   1.851  0.3492 -0.8026 -2.0365
  402SOL    HW2 1607   0.609   3.049   1.757  1.3231 -0.4531  0.3893
  402SOL     MW 1608   0.608   2.973   1.802  0.2343 -0.3209 -0.4418
  403SOL     OW 1609   0.062   0.443   0.352 -0.0164  0.2386  0.6374
  403SOL    HW1 1610   0.141   0.481   0.397 -0.7333  0.6253  1.5749
  403SOL    HW2 1611   0.078   0.444   0.255 -0.1604 -0.3424 -1.1655
  403SOL     MW 1612   0.075   0.448   0.345 -0.1300  0.2130  0.5232
  404SOL     OW 1613   0.925   2.929   0.751  0.2967  0.0186 -0.0699
  404SOL    HW1 1614   0.997   2.870   0.718  1.6205 -0.7005  3.0497
  404SOL    HW2 1615   0.935   3.022   0.725  0.1224  2.3550  2.4313
  404SOL     MW 1616   0.936   2.933   0.744  0.4483  0.2320  0.6717
  405SOL     OW 1617   0.519   2.407   1.517  0.2116  0.0340  1.1137
  405SOL    HW1 1618   0.484   2.477   1.463  0.8535 -0.0162  0.1265
  405SOL    HW2 1619   0.482   2.323   1.491  0.2011 -3.8256 -1.1083
  405SOL     MW 1620   0.510   2.405   1.507  0.2949 -0.4819  0.6903
  406SOL     OW 1621   0.411   2.412   1.052 -0.2689  0.0022  0.8446
  406SOL    HW1 1622   0.320   2.426   1.076 -2.3098 -0.5040 -0.2424
  406SOL    HW2 1623   0.423   2.321   1.068 -1.2519 -0.4423 -2.7267
  406SOL     MW 1624   0.401   2.402   1.057 -0.6679 -0.1232  0.2300
  407SOL     OW 1625   3.091   2.675   1.157  0.6366 -0.4764  0.1645
  407SOL    HW1 1626   3.161   2.675   1.231  1.9880  1.1730 -0.7077
  407SOL    HW2 1627   3.135   2.728   1.090  2.2091  0.9831 -2.1083
  407SOL     MW 1628   3.106   2.682   1.158  1.0224 -0.0662 -0.2504
  408SOL     OW 1629   2.145   2.130   0.702  0.8135  0.7043 -0.5386
  408SOL    HW1 1630   2.110   2.177   0.779  2.2113 -2.0526 -0.4796
  408SOL    HW2 1631   2.074   2.092   0.645  0.8564  0.5161 -3.6226
  408SOL     MW 1632   2.131   2.131   0.705  1.0036  0.3157 -0.9377
  409SOL     OW 1633   1.472   0.146   0.895 -0.4741 -0.0512  0.2235
  409SOL    HW1 1634   1.557   0.186   0.903 -1.0838 -1.9747 -0.1075
  409SOL    HW2 1635   1.466   0.074   0.961 -0.3041  1.3390  2.0686
  409SOL     MW 1636   1.482   0.142   0.905 -0.5321 -0.1216  0.4233
  410SOL     OW 1637   1.107   2.481   1.079 -0.0154 -0.1352  1.0164
  410SOL    HW1 1638   1.038   2.480   1.009  1.3358  1.3936 -1.3570
  410SOL    HW2 1639   1.175   2.423   1.048  2.1994 -0.2551  0.1624
  410SOL     MW 1640   1.107   2.473   1.066  0.4551  0.0507  0.5906
  411SOL     OW 1641   1.978   0.040   2.905 -0.0782  0.3786 -0.1923
  411SOL    HW1 1642   1.904   0.019   2.853  0.3713  2.6777  2.1946
  411SOL    HW2 1643   1.948   0.105   2.971 -0.5670  0.5603  0.2615
  411SOL     MW 1644   1.964   0.046   2.907 -0.0834  0.7059  0.1825
  412SOL     OW 1645   1.003   2.275   0.600  0.4958 -0.3763  0.0984
  412SOL    HW1 1646   1.060   2.337   0.650  0.2740  0.2025 -0.5092
  412SOL    HW2 1647   0.925   2.315   0.563 -4.3511  0.4548 -1.2348
  412SOL     MW 1648   1.000   2.289   0.602 -0.1730 -0.1903 -0.1577
  413SOL     OW 1649   0.566   2.757   3.063  0.3399 -0.2259 -0.5859
  413SOL    HW1 1650   0.619   2.685   3.109  0.6912 -2.6563 -0.2603
  413SOL    HW2 1651   0.617   2.778   2.986 -3.4115 -1.5584  3.2071
  413SOL     MW 1652   0.580   2.750   3.059 -0.1087 -0.7224 -0.0425
  414SOL     OW 1653   1.924   2.930   1.058  0.1774  0.9758  0.1635
  414SOL    HW1 1654   1.872   2.939   0.976  0.4016  0.7597  1.6536
  414SOL    HW2 1655   1.977   3.012   1.057 -0.3399  1.9844  1.7618
  414SOL     MW 1656   1.924   2.942   1.047  0.1387  1.0804  0.5710
  415SOL     OW 1657   1.799   2.628   1.080  0.5502  0.2463 -0.1400
  415SOL    HW1 1658   1.800   2.616   1.179  0.8250 -0.6194  1.4333
  415SOL    HW2 1659   1.849   2.707   1.057 -0.8307  1.2482 -1.0028
  415SOL     MW 1660   1.806   2.637   1.090  0.4042  0.2643 -0.0462
  416SOL     OW 1661   0.574   1.943   1.386  0.3083  0.7463 -0.1282
  416SOL    HW1 1662   0.540   1.997   1.315  1.8675 -0.5913 -1.5765
  416SOL    HW2 1663   0.509   1.867   1.387  1.6431 -1.1758 -0.3829
  416SOL     MW 1664   0.561   1.940   1.377  0.6902  0.3162 -0.3529
  417SOL     OW 1665   1.008   3.059   2.080 -0.1315 -0.0012  0.5260
  417SOL    HW1 1666   0.961   3.052   2.163  3.6900  1.6320 -1.4547
  417SOL    HW2 1667   0.959   3.008   2.012 -1.9496 -1.3188 -3.3507
  417SOL     MW 1668   0.995   3.051   2.082  0.1328  0.0404 -0.2468
  418SOL     OW 1669   0.729   2.908   0.122 -0.0120  0.3074  0.1930
  418SOL    HW1 1670   0.809   2.893   0.071  0.2084  1.3777  0.9171
  418SOL    HW2 1671   0.671   2.842   0.076  0.5821  1.5294  0.4944
  418SOL     MW 1672   0.732   2.897   0.109  0.0955  0.6099  0.3283
  419SOL     OW 1673   0.458   2.629   1.388 -0.1926 -0.2459 -0.7169
  419SOL    HW1 1674   0.503   2.710   1.427 -0.5643 -3.0818 -2.2196
  419SOL    HW2 1675   0.521   2.605   1.315  0.0635  1.9742  0.5896
  419SOL     MW 1676   0.472   2.636   1.384 -0.2078 -0.3271 -0.7428
  420SOL     OW 1677   0.859   2.244   0.971 -0.2756 -0.6740 -0.1233
  420SOL    HW1 1678   0.794   2.279   1.033 -0.8173 -0.7525 -1.0236
  420SOL    HW2 1679   0.860   2.310   0.909  0.9390 -1.9189  0.5399
  420SOL     MW 1680   0.851   2.258   0.971 -0.1868 -0.8486 -0.1546
  421SOL     OW 1681   2.938   0.126   3.083  0.3568  0.0804 -0.4219
  421SOL    HW1 1682   2.863   0.115   3.016  1.0177 -0.1615 -1.0662
  421SOL    HW2 1683   2.955   0.035   3.112  3.1028  1.3520 -1.6756
  421SOL     MW 1684   2.930   0.112   3.078  0.8063  0.2162 -0.6723
  422SOL     OW 1685   0.889   2.535   0.882 -0.0317 -0.1243  0.3607
  422SOL    HW1 1686   0.856   2.613   0.927 -0.0901  1.9236 -2.7235
  422SOL    HW2 1687   0.852   2.534   0.795 -3.9307 -3.2011 -0.4672
  422SOL     MW 1688   0.880   2.545   0.876 -0.5538 -0.2600 -0.1555
  423SOL     OW 1689   1.451   0.107   0.494 -0.5041 -0.0826 -0.7131
  423SOL    HW1 1690   1.437   0.079   0.406 -1.3348 -2.8751 -0.0302
  423SOL    HW2 1691   1.452   0.205   0.477 -2.3389 -1.3311 -2.2490
  423SOL     MW 1692   1.449   0.116   0.480 -0.8558 -0.6157 -0.8257
  424SOL     OW 1693   0.703   2.276   1.198 -0.1782  0.3762 -0.0592
  424SOL    HW1 1694   0.627   2.223   1.182 -0.8419 -2.2060  0.0702
  424SOL    HW2 1695   0.749   2.228   1.265  1.3861  0.4363  1.9033
  424SOL     MW 1696   0.699   2.262   1.205 -0.0593  0.0435  0.2168
  425SOL     OW 1697   1.745   2.815   2.057  0.1277  0.0290  0.4965
  425SOL    HW1 1698   1.744   2.817   1.963  1.3961 -0.0851  1.7622
  425SOL    HW2 1699   1.765   2.728   2.093 -0.2468 -1.5402  1.4726
  425SOL     MW 1700   1.748   2.803   2.049  0.2457 -0.1931  0.7923
  426SOL     OW 1701   0.790   1.697   1.944 -0.0578 -0.0576  0.0068
  426SOL    HW1 1702   0.727   1.728   1.881  0.1653  3.1869  1.9382
  426SOL    HW2 1703   0.790   1.759   2.016 -1.1080  2.1065 -2.0470
  426SOL     MW 1704   0.781   1.709   1.945 -0.1669  0.6560 -0.0094
  427SOL     OW 1705   0.344   1.645   1.907  0.0630 -0.0517 -0.1863
  427SOL    HW1 1706   0.406   1.575   1.923  1.4872  0.8665 -4.2068
  427SOL    HW2 1707   0.258   1.608   1.932 -2.1599 -0.1845 -0.4185
  427SOL     MW 1708   0.341   1.631   1.912 -0.0424  0.0519 -0.7474
  428SOL     OW 1709   0.579   2.588   1.135  0.5891  0.1530 -0.3265
  428SOL    HW1 1710   0.663   2.559   1.141 -2.6452 -0.4395 -0.4221
  428SOL    HW2 1711   0.512   2.520   1.113  0.4186 -1.1094 -1.1155
  428SOL     MW 1712   0.581   2.576   1.133  0.1399 -0.0917 -0.4432
  429SOL     OW 1713   1.269   2.793   1.067 -0.3031 -0.0880  0.5311
  429SOL    HW1 1714   1.177   2.794   1.102 -0.9080 -0.2224  1.8096
  429SOL    HW2 1715   1.271   2.859   0.994  0.4968 -2.1586 -0.8410
  429SOL     MW 1716   1.257   2.802   1.062 -0.2774 -0.3789  0.5187
  430SOL     OW 1717   1.134   2.752   0.726 -0.0727  0.2091  0.1143
  430SOL    HW1 1718   1.170   2.665   0.749 -0.7595  0.8639  0.1562
  430SOL    HW2 1719   1.103   2.729   0.633  1.8842  0.6241 -3.9550
  430SOL     MW 1720   1.135   2.738   0.717  0.0948  0.3502 -0.4170
  431SOL     OW 1721   0.361   1.929   1.053 -0.2583  0.2931  0.5336
  431SOL    HW1 1722   0.404   1.845   1.067 -0.8209 -0.3689 -0.7453
  431SOL    HW2 1723   0.320   1.922   0.970  0.2438 -0.8467 -0.9200
  431SOL     MW 1724   0.362   1.917   1.044 -0.2663  0.0554  0.1730
  432SOL     OW 1725   0.071   0.020   1.214  0.3150  0.4967  0.2789
  432SOL    HW1 1726   0.070   0.082   1.288 -0.6017 -2.1080 -1.7849
  432SOL    HW2 1727   0.005  -0.045   1.243 -0.2224 -1.1289  0.5452
  432SOL     MW 1728   0.062   0.020   1.227  0.1231 -0.0615  0.0418
  433SOL     OW 1729   0.613   2.795   1.518  0.0793  0.1704 -0.2737
  433SOL    HW1 1730   0.648   2.822   1.609 -0.6795 -1.6945  0.8578
  433SOL    HW2 1731   0.687   2.830   1.466  1.6985  0.0080  0.7445
  433SOL     MW 1732   0.627   2.803   1.523  0.1928 -0.0971  0.0100
  434SOL     OW 1733   1.599   2.852   1.515 -0.0583  0.3578 -0.5112
  434SOL    HW1 1734   1.508   2.889   1.532 -0.4218  1.5217 -0.4511
  434SOL    HW2 1735   1.580   2.794   1.442 -2.0295 -2.8754  2.8079
  434SOL     MW 1736   1.584   2.849   1.508 -0.3663  0.0848 -0.0654
  435SOL     OW 1737   2.843   1.790   0.210  0.1510 -0.0665 -0.4680
  435SOL    HW1 1738   2.908   1.865   0.182  0.6709 -0.4521  1.4768
  435SOL    HW2 1739   2.787   1.781   0.134 -2.2639 -0.1379 -0.2390
  435SOL     MW 1740   2.844   1.799   0.196 -0.0990 -0.1268 -0.1812
  436SOL     OW 1741   1.321   2.710   0.390 -0.0825 -0.4448  0.3343
  436SOL    HW1 1742   1.398   2.702   0.444 -1.1008  1.6921  0.6317
  436SOL    HW2 1743   1.275   2.798   0.404 -1.2089  0.4278  2.1215
  436SOL     MW 1744   1.325   2.720   0.399 -0.3655 -0.0477  0.6093
  437SOL     OW 1745   0.847   2.956   1.352 -0.2049  0.1969 -0.4924
  437SOL    HW1 1746   0.899   3.036   1.357  0.6536 -0.9355 -0.7497
  437SOL    HW2 1747   0.898   2.899   1.291  1.3751 -0.7280  3.0158
  437SOL     MW 1748   0.860   2.959   1.345  0.1168 -0.0745 -0.0635
  438SOL     OW 1749   0.835   2.647   1.882 -0.7600 -0.6436  0.0267
  438SOL    HW1 1750   0.817   2.619   1.969  1.1943 -1.2446 -0.3018
  438SOL    HW2 1751   0.786   2.593   1.820 -0.9958 -1.5008 -2.0840
  438SOL     MW 1752   0.827   2.636   1.885 -0.5332 -0.8360 -0.2951
  439SOL     OW 1753   1.222   2.180   0.450  0.6076  0.2170 -0.5549
  439SOL    HW1 1754   1.167   2.212   0.526 -1.1748  1.2527 -1.0992
  439SOL    HW2 1755   1.175   2.228   0.381  1.6912 -0.1537  0.1326
  439SOL     MW 1756   1.208   2.191   0.451  0.5154  0.3048 -0.5360
  440SOL     OW 1757   1.765   3.003   3.074  0.0963  0.0034 -0.0669
  440SOL    HW1 1758   1.710   2.964   3.142  1.0220  0.4973 -0.4321
  440SOL    HW2 1759   1.852   2.961   3.077 -3.3203  0.0826 -1.3039
  440SOL     MW 1760   1.769   2.992   3.083 -0.2324  0.0790 -0.2783
  441SOL     OW 1761   0.316   2.626   0.455 -0.3772 -0.4572  0.0186
  441SOL    HW1 1762   0.303   2.600   0.367  2.2923  1.1661  0.2221
  441SOL    HW2 1763   0.336   2.722   0.446 -1.8389  0.9920 -1.1292
  441SOL     MW 1764   0.317   2.635   0.442 -0.2179 -0.0518 -0.1060
  442SOL     OW 1765   3.051   2.432   0.596  0.2260  0.0481  0.6528
  442SOL    HW1 1766   3.072   2.520   0.605  1.4203  2.0729 -2.4662
  442SOL    HW2 1767   2.972   2.416   0.650 -1.0674  0.3015 -0.8000
  442SOL     MW 1768   3.043   2.441   0.604  0.2130  0.3487  0.0496
  443SOL     OW 1769   1.411   1.800   1.913 -0.0553  0.5881 -0.1568
  443SOL    HW1 1770   1.340   1.794   1.848 -0.3308 -1.9054  1.5039
  443SOL    HW2 1771   1.408   1.718   1.964  0.8951  2.0043 -0.8373
  443SOL     MW 1772   1.401   1.789   1.911  0.0337  0.4460 -0.0275
  444SOL     OW 1773   0.884   2.529   1.575 -0.1905  0.7178 -0.4125
  444SOL    HW1 1774   0.972   2.512   1.610 -2.0025  0.2814  0.3109
  444SOL    HW2 1775   0.823   2.477   1.631 -1.9390 -2.1963 -0.6753
  444SOL     MW 1776   0.888   2.520   1.587 -0.6603  0.2758 -0.3517
  445SOL     OW 1777   1.014   0.080   1.351  0.6087  0.4453  0.3627
  445SOL    HW1 1778   0.992   0.172   1.328  3.0348  1.6149  1.3356
  445SOL    HW2 1779   1.005   0.036   1.263 -0.2067 -0.4764 -1.4670
  445SOL     MW 1780   1.010   0.086   1.336  0.8212  0.4780  0.2496
  446SOL     OW 1781   2.728   2.915   1.103  0.3200  0.3036  0.2579
  446SOL    HW1 1782   2.668   2.954   1.042  1.4551  1.2933 -0.8654
  446SOL    HW2 1783   2.768   2.839   1.054 -0.0073 -0.6675 -0.5854
  446SOL     MW 1784   2.725   2.910   1.089  0.4266  0.3061 -0.0016
  447SOL     OW 1785   0.084   2.029   1.638  0.1268 -0.0915 -0.1796
  447SOL    HW1 1786   0.125   1.945   1.659  0.9007 -1.2160 -0.7829
  447SOL    HW2 1787  -0.004   1.987   1.625 -2.4057 -0.8683  4.0376
  447SOL     MW 1788   0.078   2.013   1.639 -0.1052 -0.3423  0.2972
  448SOL     OW 1789   1.733   2.403   1.600  0.3157  0.2772 -0.2560
  448SOL    HW1 1790   1.693   2.316   1.599 -1.8225 -1.5209  0.7575
  448SOL    HW2 1791   1.669   2.455   1.651  0.2958 -0.8458 -1.6693
  448SOL     MW 1792   1.719   2.398   1.606  0.0309 -0.1082 -0.3087
  449SOL     OW 1793   0.803   2.827   0.376 -0.1285  0.2757 -0.1751
  449SOL    HW1 1794   0.756   2.853   0.289 -0.2419  0.3640 -0.0420
  449SOL    HW2 1795   0.763   2.874   0.456 -0.8817 -0.3651  2.6409
  449SOL     MW 1796   0.792   2.837   0.375 -0.2428  0.2028  0.2140
  450SOL     OW 1797   1.207   2.474   0.689  0.1340  0.2236  0.5211
  450SOL    HW1 1798   1.214   2.428   0.766 -5.1791  0.7117 -3.4385
  450SOL    HW2 1799   1.292   2.470   0.643  2.1715  1.3618  1.3618
  450SOL     MW 1800   1.219   2.467   0.693 -0.2982  0.4382  0.1096
  451SOL     OW 1801   0.581   2.090   1.637 -0.2177  0.2409  0.4162
  451SOL    HW1 1802   0.664   2.124   1.604  0.0269  3.8975 -1.7643
  451SOL    HW2 1803   0.559   2.033   1.567 -0.8236  2.3921 -0.2675
  451SOL     MW 1804   0.589   2.087   1.624 -0.2654  1.0071  0.0383
  452SOL     OW 1805   0.306   2.709   3.104  0.0001 -0.0944 -0.2360
  452SOL    HW1 1806   0.396   2.736   3.075  1.6545 -0.1261 -0.8068
  452SOL    HW2 1807   0.253   2.728   3.028 -0.2372 -1.4575 -0.6371
  452SOL     MW 1808   0.311   2.715   3.090  0.1871 -0.2785 -0.3642
  453SOL     OW 1809   0.358   2.930   1.680 -0.2162  0.5882  0.3402
  453SOL    HW1 1810   0.443   2.924   1.721 -0.8366  2.1397 -0.5473
  453SOL    HW2 1811   0.372   2.960   1.584  0.3124 -0.1261 -1.6892
  453SOL     MW 1812   0.371   2.934   1.673 -0.2283  0.6987 -0.0446
  454SOL     OW 1813   1.014   2.780   1.192 -0.2714  0.4397  0.1434
  454SOL    HW1 1814   0.965   2.703   1.220  2.1057 -1.6477  0.6023
  454SOL    HW2 1815   0.966   2.803   1.112  0.5661 -3.6172 -1.2216
  454SOL     MW 1816   1.001   2.773   1.186  0.1528 -0.3710  0.0238
  455SOL     OW 1817   1.605   2.937   0.189  0.4658  0.3062 -0.7666
  455SOL    HW1 1818   1.661   2.942   0.267 -0.0265 -0.2753  1.2645
  455SOL    HW2 1819   1.571   2.837   0.181 -2.8476 -0.8910 -0.7251
  455SOL     MW 1820   1.608   2.924   0.199 -0.0363  0.0715 -0.4931
  456SOL     OW 1821   2.777   0.356   1.429 -0.8008  0.3372  0.7377
  456SOL    HW1 1822   2.734   0.281   1.392 -2.7676  0.5567  1.5928
  456SOL    HW2 1823   2.857   0.364   1.374  1.6788  0.4851 -0.5090
  456SOL     MW 1824   2.782   0.347   1.417 -0.7331  0.3857  0.6860
  457SOL     OW 1825   0.985   1.580   2.911  0.3093  0.3832 -0.1167
  457SOL    HW1 1826   0.898   1.551   2.950 -1.8658 -0.0371  0.2259
  457SOL    HW2 1827   1.015   1.503   2.863 -3.5013 -1.2763  2.2635
  457SOL     MW 1828   0.977   1.566   2.910 -0.4804  0.1088  0.2425
  458SOL     OW 1829   1.473   1.430   0.555 -0.1269  0.8137  0.0960
  458SOL    HW1 1830   1.419   1.512   0.548 -0.8894  1.0460  1.2840
  458SOL    HW2 1831   1.459   1.392   0.469  0.8555 -0.5171  0.0742
  458SOL     MW 1832   1.464   1.436   0.543 -0.0979  0.6687  0.2499
  459SOL     OW 1833   1.448   0.093   0.206 -0.2668  0.0721 -0.1040
  459SOL    HW1 1834   1.480   0.012   0.167 -1.8725  0.3168 -1.0007
  459SOL    HW2 1835   1.392   0.123   0.136  1.8543  1.5343  0.8029
  459SOL     MW 1836   1.445   0.086   0.192 -0.1988  0.2973 -0.1026
  460SOL     OW 1837   1.792   2.195   0.612 -0.1934  0.1924  0.2721
  460SOL    HW1 1838   1.713   2.174   0.661 -0.4942 -2.4885 -0.6934
  460SOL    HW2 1839   1.864   2.144   0.647  0.4316 -0.4632 -1.3986
  460SOL     MW 1840   1.791   2.186   0.623 -0.1506 -0.2478 -0.0757
  461SOL     OW 1841   0.380   2.367   0.575 -0.1829  0.4705 -0.0570
  461SOL    HW1 1842   0.361   2.451   0.534 -0.7606 -1.7501 -1.7892
  461SOL    HW2 1843   0.332   2.378   0.661 -0.7502  0.5858  1.5255
  461SOL     MW 1844   0.371   2.379   0.581 -0.3340  0.1927 -0.0767
  462SOL     OW 1845   0.413   0.316   1.305 -0.3633 -0.4439  0.5359
  462SOL    HW1 1846   0.436   0.270   1.225  1.0678  0.2754  1.5255
  462SOL    HW2 1847   0.493   0.362   1.328  1.7977  1.3167 -0.6901
  462SOL     MW 1848   0.427   0.316   1.297  0.1106 -0.1167  0.5047
  463SOL     OW 1849   0.949   0.072   0.619  0.7264 -0.1223  0.2196
  463SOL    HW1 1850   0.950   0.098   0.528  0.4130  0.0232  2.0032
  463SOL    HW2 1851   0.857   0.079   0.647 -1.3282  0.7434  1.0599
  463SOL     MW 1852   0.937   0.076   0.611  0.4140  0.0111  0.5658
  464SOL     OW 1853   0.848   3.058   2.303  0.0287 -0.4109  0.0744
  464SOL    HW1 1854   0.822   2.967   2.276 -0.8784  2.1492  0.0316
  464SOL    HW2 1855   0.831   3.071   2.397 -0.2260  3.4380  1.9685
  464SOL     MW 1856   0.842   3.047   2.311 -0.1246  0.4347  0.3187
  465SOL     OW 1857   0.702   0.311   0.470  0.2956  0.3128 -0.0138
  465SOL    HW1 1858   0.695   0.267   0.555 -1.6903 -1.0277  0.3767
  465SOL    HW2 1859   0.680   0.249   0.400 -0.5854 -0.2179  1.8806
  465SOL     MW 1860   0.698   0.297   0.472 -0.0826  0.0659  0.2877
  466SOL     OW 1861   1.063   1.983   0.704  0.0698  0.5578  0.0475
  466SOL    HW1 1862   1.041   1.902   0.660  0.0752  0.0529 -0.5345
  466SOL    HW2 1863   1.025   2.052   0.655 -1.6776  1.0374  1.4236
  466SOL     MW 1864   1.055   1.982   0.692 -0.1600  0.5544  0.1522
  467SOL     OW 1865   1.260   2.291   0.933 -0.2619 -0.7099  0.0306
  467SOL    HW1 1866   1.356   2.304   0.910  1.0364 -2.0469 -0.5645
  467SOL    HW2 1867   1.243   2.201   0.913  0.0221  0.7872  0.5070
  467SOL     MW 1868   1.270   2.281   0.927 -0.0531 -0.6888  0.0149
  468SOL     OW 1869   0.393   2.611   1.991 -0.2933  0.3354  0.1159
  468SOL    HW1 1870   0.399   2.553   1.911 -0.6835  0.2095  1.8006
  468SOL    HW2 1871   0.354   2.691   1.955 -0.7641 -2.9048 -0.5841
  468SOL     MW 1872   0.388   2.614   1.976 -0.4069 -0.1087  0.2459
  469SOL     OW 1873   0.369   2.195   1.780  0.2494  0.4856  0.3800
  469SOL    HW1 1874   0.292   2.132   1.789 -0.6919 -1.0595 -1.2639
  469SOL    HW2 1875   0.431   2.157   1.711 -0.6385  0.4001 -1.2925
  469SOL     MW 1876   0.367   2.182   1.772  0.0081  0.2704 -0.0576
  470SOL     OW 1877   3.042   2.593   0.079 -0.2093 -0.2285  0.5595
  470SOL    HW1 1878   2.959   2.545   0.065  1.4006 -2.8234  0.3877
  470SOL    HW2 1879   3.051   2.629  -0.006 -1.2133 -0.5136  1.6229
  470SOL     MW 1880   3.032   2.592   0.066 -0.1293 -0.6085  0.6771
  471SOL     OW 1881   1.133   2.709   1.441 -0.1555 -0.1333 -0.2712
  471SOL    HW1 1882   1.052   2.736   1.482  1.6815 -0.8954  0.2687
  471SOL    HW2 1883   1.111   2.679   1.357 -0.0350 -2.3312  1.1131
  471SOL     MW 1884   1.119   2.708   1.435  0.1028 -0.5238 -0.0173
  472SOL     OW 1885   2.904   2.109   0.397 -0.8285  0.1288  0.2187
  472SOL    HW1 1886   2.966   2.067   0.333 -0.4933 -0.5226 -0.6978
  472SOL    HW2 1887   2.848   2.031   0.412 -2.6069  0.0005 -3.4618
  472SOL     MW 1888   2.905   2.093   0.391 -1.0189  0.0260 -0.3878
  473SOL     OW 1889   0.864   2.543   1.301 -0.2917  0.2411 -0.7223
  473SOL    HW1 1890   0.904   2.453   1.288 -2.0264 -0.4160 -0.7226
  473SOL    HW2 1891   0.829   2.547   1.389 -0.8918  2.7653  0.1512
  473SOL     MW 1892   0.865   2.531   1.311 -0.5998  0.4874 -0.6071
  474SOL     OW 1893   0.866   2.124   1.788  1.0271  0.0458  0.1112
  474SOL    HW1 1894   0.944   2.167   1.810 -0.5811 -3.6786  1.3882
  474SOL    HW2 1895   0.855   2.140   1.695 -0.2000  0.1077 -0.9734
  474SOL     MW 1896   0.875   2.132   1.779  0.6530 -0.4375  0.1366
  475SOL     OW 1897   1.652   0.014   1.433  0.1283 -0.2531  0.6433
  475SOL    HW1 1898   1.561   0.028   1.421  1.5737 -0.6334  0.4856
  475SOL    HW2 1899   1.658  -0.079   1.462  0.5869 -1.5972  0.0311
  475SOL     MW 1900   1.641   0.004   1.435  0.3795 -0.4806  0.5417
  476SOL     OW 1901   1.404   2.608   0.922 -0.2917 -0.2066  0.4888
  476SOL    HW1 1902   1.337   2.635   0.992 -0.5401 -1.8912 -1.6544
  476SOL    HW2 1903   1.460   2.686   0.899 -2.1608  2.2557  2.0321
  476SOL     MW 1904   1.403   2.622   0.929 -0.5711 -0.1040  0.4097
  477SOL     OW 1905   0.773   2.529   0.632  0.2627  0.1213  0.1261
  477SOL    HW1 1906   0.833   2.583   0.581 -0.2829 -0.5283  1.6502
  477SOL    HW2 1907   0.748   2.451   0.578  2.2112  0.1212 -1.1361
  477SOL     MW 1908   0.778   2.526   0.618  0.4478  0.0356  0.1607
  478SOL     OW 1909   0.130   2.727   0.932  0.3296  0.3006  0.3741
  478SOL    HW1 1910   0.200   2.793   0.903 -1.6738  0.9627 -0.9437
  478SOL    HW2 1911   0.164   2.651   0.893  1.5871 -2.3996  1.8679
  478SOL     MW 1912   0.144   2.726   0.923  0.2312  0.0317  0.3973
  479SOL     OW 1913   1.427   1.976   1.278  0.0199  0.2813 -0.6221
  479SOL    HW1 1914   1.404   2.023   1.360  2.9079 -0.4526  0.0437
  479SOL    HW2 1915   1.512   1.926   1.306 -0.0654  2.2085 -0.0908
  479SOL     MW 1916   1.435   1.975   1.293  0.3897  0.4387 -0.4641
  480SOL     OW 1917   1.884   2.340   1.345 -0.1840  0.7003 -0.2561
  480SOL    HW1 1918   1.876   2.243   1.338 -4.1411  1.6737  0.6424
  480SOL    HW2 1919   1.943   2.370   1.279  2.5590 -0.3389  0.5956
  480SOL     MW 1920   1.891   2.331   1.335 -0.3442  0.6916 -0.0252
  481SOL     OW 1921   1.025   0.003   1.083 -0.6765  0.7127 -0.9404
  481SOL    HW1 1922   1.066  -0.054   1.017 -3.3780 -0.3786 -1.0545
  481SOL    HW2 1923   1.064   0.083   1.060 -0.6588  1.3516 -1.0094
  481SOL     MW 1924   1.036   0.006   1.071 -1.0306  0.6530 -0.9645
  482SOL     OW 1925   0.981   3.020   0.319  0.6835 -0.1517 -0.2636
  482SOL    HW1 1926   0.921   2.944   0.331  2.4874  0.2688 -1.0247
  482SOL    HW2 1927   0.963   3.055   0.232 -0.4814 -1.0856 -0.7758
  482SOL     MW 1928   0.971   3.015   0.309  0.7678 -0.2195 -0.4316
  483SOL     OW 1929   0.402   2.905   0.439  0.5096  0.3153 -0.0150
  483SOL    HW1 1930   0.320   2.934   0.395 -0.3619  0.8703 -2.0115
  483SOL    HW2 1931   0.400   2.955   0.521 -0.2775 -0.4073  0.5931
  483SOL     MW 1932   0.391   2.915   0.444  0.2908  0.2932 -0.1982
  484SOL     OW 1933   1.673   1.883   1.383  0.5240  0.4585 -0.3314
  484SOL    HW1 1934   1.739   1.957   1.387  0.5839 -0.1122  1.1744
  484SOL    HW2 1935   1.689   1.840   1.467 -0.0777 -1.3286 -0.5692
  484SOL     MW 1936   1.684   1.887   1.394  0.4525  0.1474 -0.1641
  485SOL     OW 1937   0.551   2.448   0.237 -0.4261 -0.4802 -0.3655
  485SOL    HW1 1938   0.565   2.413   0.318  0.6587 -0.7548 -0.3436
  485SOL    HW2 1939   0.463   2.485   0.253  1.2512 -0.5831 -0.6775
  485SOL     MW 1940   0.541   2.448   0.250 -0.0617 -0.5300 -0.4037
  486SOL     OW 1941   0.121   2.388   1.475 -0.3430 -0.5755  0.3296
  486SOL    HW1 1942   0.136   2.469   1.420  0.4207 -0.9639 -0.1955
  486SOL    HW2 1943   0.110   2.421   1.564  3.1735 -0.4894  0.5062
  486SOL     MW 1944   0.121   2.403   1.479  0.2217 -0.6154  0.2836
  487SOL     OW 1945   1.284   1.618   1.024  0.1338  0.6871 -0.1380
  487SOL    HW1 1946   1.239   1.694   1.061 -1.7826  0.6668 -1.2998
  487SOL    HW2 1947   1.358   1.659   0.996 -3.9094 -2.0753 -0.3343
  487SOL     MW 1948   1.288   1.633   1.025 -0.6525  0.3200 -0.3172
  488SOL     OW 1949   1.679   1.865   0.559 -0.4138  0.3977 -0.0022
  488SOL    HW1 1950   1.755   1.896   0.608  1.9826 -1.8997  1.9743
  488SOL    HW2 1951   1.623   1.941   0.556 -1.0938 -0.8794  0.0636
  488SOL     MW 1952   1.681   1.879   0.565 -0.1873 -0.0739  0.2673
  489SOL     OW 1953   0.676   0.769   0.551 -0.1623 -0.1773 -0.0728
  489SOL    HW1 1954   0.734   0.698   0.533 -0.0451 -0.7971  0.2293
  489SOL    HW2 1955   0.661   0.777   0.640  0.5687  0.9827 -0.6727
  489SOL     MW 1956   0.681   0.761   0.560 -0.0504 -0.1060 -0.1121
  490SOL     OW 1957   1.453   2.014   0.422  0.1665  0.0190  0.0460
  490SOL    HW1 1958   1.484   2.021   0.337 -0.7009 -1.2749 -1.3788
  490SOL    HW2 1959   1.366   2.057   0.427 -2.0536 -0.4650 -0.5084
  490SOL     MW 1960   1.445   2.020   0.411 -0.2408 -0.2156 -0.2152
  491SOL     OW 1961   1.194   2.941   0.475  0.2507 -0.4403 -0.1501
  491SOL    HW1 1962   1.164   2.974   0.556 -1.4313  0.4516 -0.0999
  491SOL    HW2 1963   1.128   2.971   0.413  3.0890 -1.1223 -1.5067
  491SOL     MW 1964   1.181   2.950   0.478  0.4033 -0.4126 -0.3225
  492SOL     OW 1965   1.505   2.055   0.684 -0.2259  0.0094  0.7263
  492SOL    HW1 1966   1.478   2.052   0.592  0.1746  3.7018 -1.2495
  492SOL    HW2 1967   1.425   2.048   0.729 -0.9975  1.7296 -0.3128
  492SOL     MW 1968   1.491   2.054   0.678 -0.2748  0.7236  0.3285
  493SOL     OW 1969   0.162   2.948   0.347  0.5425  0.3646  0.0113
  493SOL    HW1 1970   0.109   3.003   0.411  0.7735  1.4964  0.2291
  493SOL    HW2 1971   0.159   2.997   0.264 -0.4938  1.8097 -1.1434
  493SOL     MW 1972   0.154   2.962   0.344  0.4363  0.7046 -0.1123
  494SOL     OW 1973   0.403   2.457   1.762  0.6541 -0.0035  0.5886
  494SOL    HW1 1974   0.385   2.360   1.769  2.4903  0.0375  2.0181
  494SOL    HW2 1975   0.438   2.460   1.670  0.6224 -1.8892 -3.3992
  494SOL     MW 1976   0.405   2.444   1.751  0.8921 -0.2469  0.2510
  495SOL     OW 1977   2.915   1.702   2.618  0.5079 -0.7648 -0.1896
  495SOL    HW1 1978   2.898   1.796   2.617  0.1162 -0.2960 -1.1378
  495SOL    HW2 1979   2.903   1.670   2.707 -2.0584  1.6192 -0.3119
  495SOL     MW 1980   2.911   1.710   2.629  0.1176 -0.3884 -0.3308
  496SOL     OW 1981   2.872   2.308   2.669  0.2459  0.4133  0.2074
  496SOL    HW1 1982   2.897   2.226   2.703  1.1064  2.0647 -0.0564
  496SOL    HW2 1983   2.947   2.377   2.657 -3.3194  1.3597  1.0772
  496SOL     MW 1984   2.885   2.306   2.672 -0.1110  0.7560  0.2873
  497SOL     OW 1985   1.596   2.274   2.636 -0.3384 -0.1328  0.2613
  497SOL    HW1 1986   1.546   2.223   2.573  2.1216 -1.5046  0.7220
  497SOL    HW2 1987   1.606   2.221   2.717  0.4576  0.5069 -0.1845
  497SOL     MW 1988   1.591   2.260   2.639  0.0912 -0.2294  0.2633
  498SOL     OW 1989   1.530   2.724   2.384 -0.3383  0.0647  0.1661
  498SOL    HW1 1990   1.537   2.645   2.326  0.3845 -1.7353 -3.7202
  498SOL    HW2 1991   1.601   2.713   2.451  2.2976  2.6718 -4.9038
  498SOL     MW 1992   1.540   2.712   2.385  0.1049  0.1712 -1.0156
  499SOL     OW 1993   0.914   0.071   0.043 -0.1753  0.2435  0.0915
  499SOL    HW1 1994   0.841   0.091   0.099  0.4337  0.1527  2.5321
  499SOL    HW2 1995   0.909  -0.030   0.022  1.5340 -0.2966 -1.2754
  499SOL     MW 1996   0.904   0.060   0.048  0.1306  0.1602  0.2331
  500SOL     OW 1997   1.111   2.506   2.738  0.2917  0.4265 -0.2636
  500SOL    HW1 1998   1.149   2.473   2.822  0.2089  2.0180  1.8796
  500SOL    HW2 1999   1.029   2.548   2.773 -3.2692 -1.7889  0.1667
  500SOL     MW 2000   1.105   2.507   2.753 -0.1891  0.3442  0.0760
  501SOL     OW 2001   1.728   2.250   3.086  0.0101 -0.2233 -0.5383
  501SOL    HW1 2002   1.692   2.342   3.099  3.5617 -1.3815 -1.8225
  501SOL    HW2 2003   1.823   2.268   3.090  0.4032  1.6104 -0.3900
  501SOL     MW 2004   1.736   2.264   3.088  0.5305 -0.1342 -0.6881
  502SOL     OW 2005   0.054   2.807   2.956 -0.3352 -0.1267 -0.2957
  502SOL    HW1 2006  -0.009   2.737   2.922  1.8300  0.5946  0.9902
  502SOL    HW2 2007   0.078   2.859   2.874  1.7149 -2.5306  0.4867
  502SOL     MW 2008   0.049   2.804   2.941  0.2210 -0.3487 -0.0228
  503SOL     OW 2009   1.106   2.662   1.996  0.0576  0.2958  0.8461
  503SOL    HW1 2010   1.201   2.667   1.971 -1.4459 -3.0805  0.5998
  503SOL    HW2 2011   1.045   2.652   1.920 -1.7433  0.3649  0.5011
  503SOL     MW 2012   1.110   2.661   1.983 -0.3784 -0.1406  0.7681
  504SOL     OW 2013   0.026   2.690   2.074 -0.2967  0.0444  0.1130
  504SOL    HW1 2014   0.069   2.604   2.079 -4.6866 -0.1862  1.9696
  504SOL    HW2 2015  -0.063   2.664   2.074  0.6963  0.8632  1.2014
  504SOL     MW 2016   0.020   2.675   2.075 -0.7449  0.1220  0.5016
  505SOL     OW 2017   1.652   2.634   2.798  0.0913 -0.0985  0.0438
  505SOL    HW1 2018   1.683   2.627   2.708 -0.9778 -0.9596  1.2685
  505SOL    HW2 2019   1.595   2.709   2.789 -0.3930 -0.9889  0.0651
  505SOL     MW 2020   1.649   2.643   2.785 -0.1136 -0.3296  0.2082
  506SOL     OW 2021   1.608   3.083   2.859  0.2585  0.0207 -0.2393
  506SOL    HW1 2022   1.649   3.009   2.903 -0.0949  0.9484  0.7427
  506SOL    HW2 2023   1.648   3.082   2.772 -2.5586 -2.2343  2.2644
  506SOL     MW 2024   1.619   3.073   2.853 -0.1598 -0.1544  0.2206
  507SOL     OW 2025   0.932   2.666   2.854 -0.0273 -0.5081 -0.3014
  507SOL    HW1 2026   0.974   2.744   2.819 -1.1124  0.2015  1.4607
  507SOL    HW2 2027   0.835   2.675   2.850 -0.9582  1.1871  1.0179
  507SOL     MW 2028   0.924   2.677   2.848 -0.2933 -0.1908  0.1052
  508SOL     OW 2029   1.194   2.124   2.502 -0.3108 -0.3046 -0.0198
  508SOL    HW1 2030   1.242   2.085   2.578 -1.2503 -0.7193 -1.5875
  508SOL    HW2 2031   1.147   2.198   2.541 -2.3923  2.2368  3.5245
  508SOL     MW 2032   1.194   2.128   2.517 -0.7094 -0.0240  0.2410
  509SOL     OW 2033   0.607   2.606   2.768  0.1037 -0.0286 -0.2420
  509SOL    HW1 2034   0.627   2.572   2.680 -1.1680  1.0414 -1.5386
  509SOL    HW2 2035   0.515   2.600   2.776  2.2338 -1.1212  1.6018
  509SOL     MW 2036   0.597   2.600   2.757  0.2170 -0.0316 -0.1698
  510SOL     OW 2037   1.492   2.601   1.675 -0.1719 -0.0777 -0.0049
  510SOL    HW1 2038   1.549   2.684   1.661  1.1519 -1.8966 -0.4242
  510SOL    HW2 2039   1.459   2.618   1.763 -1.6464  0.1885  0.4302
  510SOL     MW 2040   1.495   2.614   1.684 -0.1918 -0.2825 -0.0028
  511SOL     OW 2041   0.434   2.632   2.435 -0.2308  0.2324 -0.5301
  511SOL    HW1 2042   0.524   2.580   2.436  4.2430 -2.0206 -0.4817
  511SOL    HW2 2043   0.447   2.681   2.352 -0.8755 -0.1455  1.1388
  511SOL     MW 2044   0.448   2.632   2.424  0.2744 -0.1147 -0.3035
  512SOL     OW 2045   0.963   2.018   2.795  0.5899 -0.2151  0.1317
  512SOL    HW1 2046   0.918   2.078   2.862  1.1012  1.1865  2.2380
  512SOL    HW2 2047   1.006   1.957   2.850 -0.7363  0.9002 -0.6280
  512SOL     MW 2048   0.963   2.018   2.811  0.4824  0.1170  0.3094
  513SOL     OW 2049   1.631   2.492   2.272 -0.1906  0.1286  0.0600
  513SOL    HW1 2050   1.701   2.513   2.211  0.2933 -0.0482  1.2560
  513SOL    HW2 2051   1.675   2.428   2.331  1.5983  1.3027 -0.6090
  513SOL     MW 2052   1.646   2.486   2.272  0.1093  0.2602  0.1295
  514SOL     OW 2053   0.247   2.491   2.617 -0.6929 -0.1957  0.2951
  514SOL    HW1 2054   0.314   2.560   2.584  2.6320 -0.5297  2.0882
  514SOL    HW2 2055   0.295   2.449   2.686 -2.2001  2.0545  0.0179
  514SOL     MW 2056   0.262   2.494   2.622 -0.4531  0.0572  0.4951
  515SOL     OW 2057   1.163   2.011   2.014  0.4121 -0.3476  0.6788
  515SOL    HW1 2058   1.145   2.094   1.973  1.6233  0.1489 -1.8880
  515SOL    HW2 2059   1.257   2.022   2.040  1.0710 -1.2645 -0.5268
  515SOL     MW 2060   1.173   2.023   2.012  0.6588 -0.4031  0.1810
  516SOL     OW 2061   1.461   2.485   0.012 -0.0109 -0.2774  0.3098
  516SOL    HW1 2062   1.440   2.444  -0.075 -0.0407  2.0433 -0.3399
  516SOL    HW2 2063   1.429   2.571  -0.013  0.5336 -0.8976  1.3393
  516SOL     MW 2064   1.454   2.491  -0.003  0.0570 -0.0530  0.3599
  517SOL     OW 2065   0.557   2.446   2.204  0.2286 -0.2602 -0.5045
  517SOL    HW1 2066   0.522   2.535   2.186  2.5489 -0.5753 -3.0310
  517SOL    HW2 2067   0.500   2.393   2.134 -0.5565  0.7502 -1.9302
  517SOL     MW 2068   0.545   2.451   2.192  0.4312 -0.1685 -1.0259
  518SOL     OW 2069   1.806   0.182   3.078 -0.0302  0.8367 -0.0456
  518SOL    HW1 2070   1.754   0.225   3.142 -0.1778 -0.3633 -0.3488
  518SOL    HW2 2071   1.774   0.087   3.076 -0.1284 -0.1210  2.6281
  518SOL     MW 2072   1.795   0.175   3.087 -0.0626  0.5520  0.2672
  519SOL     OW 2073   0.729   2.412   1.753 -0.3653 -0.2117 -0.1579
  519SOL    HW1 2074   0.752   2.324   1.785  0.6859 -0.9831  1.7996
  519SOL    HW2 2075   0.639   2.411   1.725  0.2424  1.8517  1.5098
  519SOL     MW 2076   0.721   2.400   1.754 -0.1465 -0.0412  0.3204
  520SOL     OW 2077   1.157   2.134   2.976 -0.0558  0.2217  0.2601
  520SOL    HW1 2078   1.116   2.049   2.985 -1.1693  0.6639  1.3452
  520SOL    HW2 2079   1.217   2.133   3.057  1.0883 -2.1622  1.7842
  520SOL     MW 2080   1.159   2.123   2.988 -0.0517 -0.0345  0.6044
  521SOL     OW 2081   1.733   1.990   2.160 -0.1557  0.5271  0.3653
  521SOL    HW1 2082   1.752   2.020   2.073  0.9410  0.8960 -0.4719
  521SOL    HW2 2083   1.729   1.897   2.138 -3.4375  0.0660 -2.4488
  521SOL     MW 2084   1.735   1.982   2.146 -0.4440  0.5149 -0.1164
  522SOL     OW 2085   2.909   2.519   2.260  0.1414  0.0628 -0.0659
  522SOL    HW1 2086   2.996   2.462   2.279  2.0846 -1.4074 -0.8014
  522SOL    HW2 2087   2.923   2.602   2.304 -3.9357 -2.6947  1.1914
  522SOL     MW 2088   2.922   2.522   2.268 -0.1401 -0.4950  0.0029
  523SOL     OW 2089   0.946   1.584   2.144  0.0864  0.1262  0.5177
  523SOL    HW1 2090   0.895   1.614   2.070 -0.5132  3.4530 -0.0600
  523SOL    HW2 2091   0.967   1.494   2.119  0.3833  2.3889 -1.7253
  523SOL     MW 2092   0.942   1.576   2.131  0.0464  0.8637  0.1456
  524SOL     OW 2093   0.652   2.415   2.966  0.6117  0.4918 -0.7700
  524SOL    HW1 2094   0.656   2.473   2.887 -0.3709 -1.0939  1.8029
  524SOL    HW2 2095   0.723   2.355   2.949 -1.6120  2.8176  1.2905
  524SOL     MW 2096   0.662   2.415   2.953  0.1886  0.5895 -0.1587
  525SOL     OW 2097   0.419   2.278   2.043 -0.8577 -0.7068  0.0568
  525SOL    HW1 2098   0.382   2.220   2.114 -1.8053 -1.1415  2.4287
  525SOL    HW2 2099   0.398   2.236   1.951 -1.3940  0.1382 -1.6532
  525SOL     MW 2100   0.411   2.265   2.040 -1.0535 -0.6527  0.1441
  526SOL     OW 2101   0.685   1.988   1.968  0.6644 -0.7501  0.0433
  526SOL    HW1 2102   0.737   2.028   1.904 -0.6060  1.1903  0.2504
  526SOL    HW2 2103   0.662   2.059   2.030 -0.3801 -0.9249  0.0604
  526SOL     MW 2104   0.689   2.002   1.968  0.3590 -0.5171  0.0729
  527SOL     OW 2105   1.417   2.021   2.081 -0.1445  0.0332 -0.2936
  527SOL    HW1 2106   1.426   2.010   2.177  2.1606 -1.9699 -1.4125
  527SOL    HW2 2107   1.402   1.938   2.030 -0.8378 -0.8030 -1.6866
  527SOL     MW 2108   1.416   2.009   2.087  0.0682 -0.3414 -0.6250
  528SOL     OW 2109   0.719   2.868   2.855 -0.0485 -0.5669 -0.0969
  528SOL    HW1 2110   0.713   2.963   2.868  1.9141 -1.4452 -1.4405
  528SOL    HW2 2111   0.647   2.853   2.794 -0.2444  0.0549  1.1000
  528SOL     MW 2112   0.709   2.878   2.849  0.1846 -0.6007 -0.1162
  529SOL     OW 2113   1.094   2.237   1.905 -0.3903  0.3533 -0.1075
  529SOL    HW1 2114   1.067   2.292   1.980  0.1239 -1.2162  2.7128
  529SOL    HW2 2115   1.109   2.297   1.831 -1.4691 -1.7861  2.3330
  529SOL     MW 2116   1.092   2.252   1.905 -0.4648 -0.1360  0.5866
  530SOL     OW 2117   1.144   2.397   3.007  0.1985 -0.8486 -0.8251
  530SOL    HW1 2118   1.151   2.406   3.103 -3.3938  1.7540  0.1564
  530SOL    HW2 2119   1.139   2.302   2.989 -2.3831 -0.8390 -1.0818
  530SOL     MW 2120   1.144   2.386   3.017 -0.6161 -0.5040 -0.7295
  531SOL     OW 2121   0.927   1.878   2.579 -0.6019 -0.0095  0.3468
  531SOL    HW1 2122   0.943   1.937   2.662  1.1311 -0.6455  3.1952
  531SOL    HW2 2123   0.878   1.798   2.608 -2.4919  1.7764 -2.6302
  531SOL     MW 2124   0.923   1.876   2.594 -0.6226  0.1422  0.3298
  532SOL     OW 2125   1.745   0.341   2.826  0.7808 -0.2682 -0.3384
  532SOL    HW1 2126   1.737   0.264   2.884  0.1012 -0.2838  1.0731
  532SOL    HW2 2127   1.832   0.362   2.852 -3.7344  0.5205  1.7931
  532SOL     MW 2128   1.756   0.333   2.837  0.0954 -0.1662  0.1291
  533SOL     OW 2129   1.866   2.658   3.003  0.8771 -0.1042  0.1707
  533SOL    HW1 2130   1.835   2.599   3.074  0.8043 -2.7440  2.3395
  533SOL    HW2 2131   1.798   2.649   2.938  4.2905 -0.2055  2.0573
  533SOL     MW 2132   1.853   2.649   3.004  1.3178 -0.4658  0.7058
  534SOL     OW 2133   1.780   2.391   2.471 -0.3956  0.4896 -0.1420
  534SOL    HW1 2134   1.720   2.352   2.539 -0.4328 -0.3076  1.6653
  534SOL    HW2 2135   1.858   2.394   2.526  1.8656  3.0789 -2.9542
  534SOL     MW 2136   1.782   2.386   2.487 -0.1022  0.7261 -0.2746
  535SOL     OW 2137   1.869   2.370   1.834  0.4942  0.0339 -0.1848
  535SOL    HW1 2138   1.833   2.383   1.745 -0.6065 -0.2547  0.9505
  535SOL    HW2 2139   1.960   2.402   1.836 -0.2349  0.1414  2.1856
  535SOL     MW 2140   1.876   2.376   1.823  0.2528  0.0100  0.2777
  536SOL     OW 2141   0.442   1.869   2.047  0.1192 -0.3970  0.4601
  536SOL    HW1 2142   0.420   1.817   1.972  3.0186 -2.8377 -0.0989
  536SOL    HW2 2143   0.520   1.916   2.012 -1.5304  0.1414  0.1775
  536SOL     MW 2144   0.449   1.868   2.032  0.2841 -0.6480  0.3490
  537SOL     OW 2145   1.013   0.175   2.859  0.3101  0.6093 -0.4928
  537SOL    HW1 2146   0.979   0.168   2.951 -0.8919 -0.4700 -0.5852
  537SOL    HW2 2147   1.024   0.262   2.837 -0.3521 -0.4191  2.3611
  537SOL     MW 2148   1.010   0.185   2.869  0.0641  0.3312 -0.1284
  538SOL     OW 2149   1.359   0.034   2.983 -0.3623 -0.4690  0.1078
  538SOL    HW1 2150   1.332   0.126   2.969  0.4910  0.2255 -1.3972
  538SOL    HW2 2151   1.448   0.028   2.946 -0.3514  0.1548  0.5438
  538SOL     MW 2152   1.368   0.046   2.977 -0.2483 -0.2951 -0.0333
  539SOL     OW 2153   0.754   2.764   2.537 -0.2699  0.2601 -0.0724
  539SOL    HW1 2154   0.833   2.782   2.597 -0.0887 -2.0836  0.0734
  539SOL    HW2 2155   0.758   2.670   2.520 -0.0636 -0.5057 -1.2989
  539SOL     MW 2156   0.765   2.754   2.543 -0.2188 -0.1502 -0.2150
  540SOL     OW 2157   0.408   2.415   2.825  0.3510  0.3011  0.0859
  540SOL    HW1 2158   0.489   2.395   2.869 -1.3245 -1.3336 -0.1940
  540SOL    HW2 2159   0.347   2.379   2.889  2.3887 -1.7934  0.3257
  540SOL     MW 2160   0.411   2.407   2.839  0.3988 -0.1909  0.0806
  541SOL     OW 2161   0.200   2.948   2.218  0.2092  0.1320  0.0783
  541SOL    HW1 2162   0.191   2.873   2.154  1.3662 -1.8682 -1.0901
  541SOL    HW2 2163   0.237   2.911   2.302  1.6891 -1.8839  2.0674
  541SOL     MW 2164   0.203   2.933   2.221  0.5571 -0.3979  0.1866
  542SOL     OW 2165   1.010   2.278   2.635  0.3167  0.7741  0.0134
  542SOL    HW1 2166   0.972   2.232   2.710 -2.7953 -0.1685  2.0153
  542SOL    HW2 2167   1.032   2.365   2.669 -2.9039 -0.2462  2.1421
  542SOL     MW 2168   1.008   2.283   2.649 -0.5188  0.5151  0.5584
  543SOL     OW 2169   1.449   2.446   2.817  0.2464 -0.3439  0.2746
  543SOL    HW1 2170   1.480   2.363   2.779  1.7184  2.0244  1.8203
  543SOL    HW2 2171   1.523   2.507   2.788  1.0247 -0.7032  0.1169
  543SOL     MW 2172   1.463   2.443   2.808  0.5433 -0.0788  0.4578
  544SOL     OW 2173   0.727   0.209   2.731 -0.5281  0.5145  0.7218
  544SOL    HW1 2174   0.623   0.207   2.720 -3.5678 -0.7032  0.4630
  544SOL    HW2 2175   0.770   0.143   2.676  0.2191  0.6991  2.5097
  544SOL     MW 2176   0.719   0.200   2.722 -0.8305  0.3782  0.9236
  545SOL     OW 2177   1.574   2.195   2.319  0.2846  0.3086 -0.4123
  545SOL    HW1 2178   1.520   2.254   2.272  1.7732  1.2431  1.6946
  545SOL    HW2 2179   1.609   2.132   2.257 -1.8011 -0.4938  1.2591
  545SOL     MW 2180   1.571   2.195   2.305  0.2058  0.3261  0.0862
  546SOL     OW 2181   3.012   1.984   0.121  0.0026 -0.0215 -0.0877
  546SOL    HW1 2182   2.996   2.057   0.067  0.0747 -0.9161 -0.6352
  546SOL    HW2 2183   3.092   1.950   0.085 -0.0276 -2.6004 -1.6727
  546SOL     MW 2184   3.020   1.989   0.109  0.0081 -0.4798 -0.3691
  547SOL     OW 2185   0.292   3.039   0.109 -0.5253  0.6420 -0.5643
  547SOL    HW1 2186   0.303   3.093   0.031  0.8789 -2.6763  1.8731
  547SOL    HW2 2187   0.307   2.945   0.081  2.2080  2.5906 -1.2833
  547SOL     MW 2188   0.295   3.033   0.095  0.0206  0.4613 -0.3375
  548SOL     OW 2189   0.276   2.535   0.212  0.5232 -0.5116 -0.0291
  548SOL    HW1 2190   0.293   2.588   0.129  0.5776 -1.3520  1.7073
  548SOL    HW2 2191   0.231   2.457   0.188 -3.4705  1.0352  0.0118
  548SOL     MW 2192   0.273   2.532   0.198  0.0034 -0.4184  0.2054
  549SOL     OW 2193   0.860   1.870   2.137 -0.2434  0.2692 -0.5204
  549SOL    HW1 2194   0.823   1.931   2.075 -1.0597 -1.3988  0.5625
  549SOL    HW2 2195   0.795   1.841   2.205 -1.5235  2.3745  2.2081
  549SOL     MW 2196   0.847   1.874   2.138 -0.5200  0.3269 -0.0175
  550SOL     OW 2197   1.778   1.707   2.603  0.4551  0.7737  0.2614
  550SOL    HW1 2198   1.802   1.704   2.504 -0.8848  1.2281  0.3459
  550SOL    HW2 2199   1.757   1.794   2.633 -0.2729 -0.6097  0.0169
  550SOL     MW 2200   1.778   1.718   2.594  0.1822  0.6511  0.2403
  551SOL     OW 2201   0.874   2.257   0.226 -0.5149 -0.1818 -0.1726
  551SOL    HW1 2202   0.967   2.273   0.214 -0.9163  1.4298 -1.3413
  551SOL    HW2 2203   0.838   2.182   0.178 -0.6316  1.2989  0.3982
  551SOL     MW 2204   0.881   2.249   0.218 -0.5833  0.2262 -0.2515
  552SOL     OW 2205   1.789   1.700   2.319 -0.1542 -0.1334  1.4124
  552SOL    HW1 2206   1.694   1.706   2.287 -1.5488 -0.1452  0.6482
  552SOL    HW2 2207   1.817   1.646   2.241  2.7822 -2.7426 -4.4146
  552SOL     MW 2208   1.780   1.694   2.305  0.0492 -0.4792  0.5428
  553SOL     OW 2209   1.212   2.318   1.475  0.6745 -0.0997  0.4314
  553SOL    HW1 2210   1.246   2.230   1.484  1.0864  2.3715 -0.5470
  553SOL    HW2 2211   1.287   2.373   1.455 -1.4385  1.5231  0.6587
  553SOL     MW 2212   1.226   2.314   1.473  0.4500  0.4405  0.3323
  554SOL     OW 2213   0.538   2.909   2.639 -0.0371  0.0133 -0.0844
  554SOL    HW1 2214   0.522   2.969   2.574  0.1247 -0.2255 -1.6683
  554SOL    HW2 2215   0.603   2.847   2.602  0.1646 -0.5905  1.4968
  554SOL     MW 2216   0.544   2.909   2.626  0.0109 -0.0979 -0.0848
  555SOL     OW 2217   0.672   2.491   2.524  0.7561 -0.7744 -0.0088
  555SOL    HW1 2218   0.602   2.423   2.536 -0.2613  5.1227 -0.0205
  555SOL    HW2 2219   0.749   2.443   2.482 -0.3020 -1.1122  0.5369
  555SOL     MW 2220   0.673   2.476   2.520  0.4823 -0.0409  0.0617
  556SOL     OW 2221   0.949   1.856   0.137 -0.1936  0.7311  0.1366
  556SOL    HW1 2222   1.015   1.854   0.066  1.1518  0.4577 -0.1860
  556SOL    HW2 2223   1.005   1.866   0.211  0.5979  0.3847 -1.3069
  556SOL     MW 2224   0.965   1.857   0.137  0.0884  0.6493 -0.0964
  557SOL     OW 2225   0.973   2.664   0.504 -0.4624  0.1391 -0.4783
  557SOL    HW1 2226   1.008   2.621   0.428 -0.3173 -0.2186  1.8835
  557SOL    HW2 2227   0.914   2.734   0.464 -1.7406  0.3383 -0.8521
  557SOL     MW 2228   0.970   2.667   0.488 -0.6119  0.1182 -0.2160
  558SOL     OW 2229   0.247   2.293   3.034 -0.4809  1.0803 -0.0344
  558SOL    HW1 2230   0.215   2.209   3.000 -0.0347 -0.8568  2.2530
  558SOL    HW2 2231   0.172   2.318   3.088 -2.6104  1.5106  0.0315
  558SOL     MW 2232   0.233   2.285   3.037 -0.7030  0.8815  0.2761
  559SOL     OW 2233   0.996   2.345   2.129 -0.2648 -0.7362 -0.4550
  559SOL    HW1 2234   1.027   2.413   2.192 -2.0977  0.3407 -1.3088
  559SOL    HW2 2235   1.008   2.260   2.172 -0.7812  3.7917 -0.0727
  559SOL     MW 2236   1.001   2.342   2.143 -0.5748  0.0033 -0.5172
  560SOL     OW 2237   2.009   2.877   0.034  0.0806  0.2719 -0.4148
  560SOL    HW1 2238   2.078   2.904  -0.031  0.7202 -2.3238  1.4316
  560SOL    HW2 2239   1.971   2.798  -0.007 -0.3339 -1.2380 -1.8229
  560SOL     MW 2240   2.013   2.870   0.020  0.1103 -0.2698 -0.3570
  561SOL     OW 2241   0.400   2.203   0.145  0.2650 -0.1507 -0.6149
  561SOL    HW1 2242   0.377   2.235   0.053  0.9204  0.8982 -3.1422
  561SOL    HW2 2243   0.464   2.275   0.172 -0.0531  2.9382  0.1826
  561SOL     MW 2244   0.405   2.217   0.136  0.3095  0.3953 -0.8432
  562SOL     OW 2245   0.710   2.169   2.171 -1.0452  0.1377 -0.5104
  562SOL    HW1 2246   0.676   2.260   2.159 -0.7471  0.1297  0.1310
  562SOL    HW2 2247   0.799   2.173   2.208  1.3150 -1.3812  0.3407
  562SOL     MW 2248   0.717   2.182   2.175 -0.6944 -0.0637 -0.3135
  563SOL     OW 2249   1.199   0.305   0.558 -0.2587  0.0224 -0.1721
  563SOL    HW1 2250   1.121   0.274   0.512  1.3365  0.2241  0.6133
  563SOL    HW2 2251   1.221   0.224   0.601  1.9037  0.0711 -3.3957
  563SOL     MW 2252   1.192   0.290   0.558  0.2371  0.0554 -0.4938
  564SOL     OW 2253   1.066   2.562   2.268  0.5469 -0.4428  0.3712
  564SOL    HW1 2254   1.110   2.602   2.191 -1.9428  1.5567  3.2409
  564SOL    HW2 2255   1.114   2.591   2.353  1.6797 -1.6103  1.0845
  564SOL     MW 2256   1.078   2.571   2.269  0.3679 -0.3330  0.8440
  565SOL     OW 2257   2.842   2.734   2.656 -0.5864 -0.3635 -0.0948
  565SOL    HW1 2258   2.913   2.796   2.636 -1.0962  0.0165  1.4659
  565SOL    HW2 2259   2.767   2.739   2.590 -1.4350  1.0358 -1.0345
  565SOL     MW 2260   2.841   2.743   2.645 -0.7656 -0.1287 -0.0128
  566SOL     OW 2261   2.193   1.863   2.315  0.0750  0.0307 -0.4152
  566SOL    HW1 2262   2.274   1.836   2.270  0.0245 -0.8002  0.1989
  566SOL    HW2 2263   2.230   1.932   2.375 -2.1652 -1.7671 -0.0700
  566SOL     MW 2264   2.209   1.868   2.317 -0.2272 -0.3161 -0.2886
  567SOL     OW 2265   1.206   2.911   2.956  0.4082  0.8253  0.3858
  567SOL    HW1 2266   1.256   2.990   2.976 -4.4216  2.1259  4.6234
  567SOL    HW2 2267   1.249   2.825   2.979 -2.5339  0.7516  2.1910
  567SOL     MW 2268   1.218   2.910   2.962 -0.6172  0.9872  1.1830
  568SOL     OW 2269   1.601   2.125   2.874 -0.7004 -0.5478  0.2000
  568SOL    HW1 2270   1.638   2.160   2.958  0.3522 -2.8672 -0.7357
  568SOL    HW2 2271   1.667   2.060   2.828 -2.2011  2.0369 -0.9690
  568SOL     MW 2272   1.615   2.121   2.879 -0.7595 -0.5128 -0.0777
  569SOL     OW 2273   0.175   2.286   2.465 -0.2967  0.6219 -0.0195
  569SOL    HW1 2274   0.094   2.301   2.415 -2.2729 -1.9699 -3.1351
  569SOL    HW2 2275   0.206   2.371   2.500 -0.0444  0.7210 -0.0253
  569SOL     MW 2276   0.168   2.299   2.463 -0.5241  0.2930 -0.4313
  570SOL     OW 2277   1.445   0.368   0.488 -0.2628 -0.0796 -0.6563
  570SOL    HW1 2278   1.350   0.371   0.523 -2.1852  3.7238  2.2311
  570SOL    HW2 2279   1.499   0.387   0.568  0.6987 -0.7980 -0.3565
  570SOL     MW 2280   1.439   0.371   0.503 -0.3896  0.3274 -0.2358
  571SOL     OW 2281   1.510   2.456   2.003 -0.1822  0.0955 -0.0636
  571SOL    HW1 2282   1.542   2.458   2.093  2.2605  2.9529 -1.4946
  571SOL    HW2 2283   1.513   2.364   1.981 -0.0770 -1.9029  0.1670
  571SOL     MW 2284   1.514   2.444   2.012  0.1540  0.2088 -0.2220
  572SOL     OW 2285   0.997   2.635   0.094  0.3243 -0.7025  0.3479
  572SOL    HW1 2286   1.003   2.643  -0.001 -1.6290  0.5873  0.3960
  572SOL    HW2 2287   0.916   2.581   0.109 -2.7113  0.3144  2.2597
  572SOL     MW 2288   0.987   2.629   0.083 -0.3339 -0.3981  0.6065
  573SOL     OW 2289   1.146   2.318   0.224 -0.5421 -0.5688  0.0435
  573SOL    HW1 2290   1.240   2.324   0.215  0.9837 -1.1315 -2.2512
  573SOL    HW2 2291   1.127   2.414   0.259  1.9742  0.1534  0.9353
  573SOL     MW 2292   1.155   2.331   0.227 -0.0088 -0.5477 -0.1416
  574SOL     OW 2293   1.108   2.555   0.319 -0.1454 -0.1520  0.8992
  574SOL    HW1 2294   1.189   2.596   0.336  2.4776 -0.7671 -1.2334
  574SOL    HW2 2295   1.080   2.603   0.242  1.0297  0.5506  1.1306
  574SOL     MW 2296   1.115   2.567   0.311  0.3557 -0.1405  0.6484
  575SOL     OW 2297   0.050   2.243   1.813 -0.3917 -0.0196 -0.2082
  575SOL    HW1 2298   0.063   2.163   1.758 -1.2608 -0.2512 -0.4190
  575SOL    HW2 2299   0.104   2.303   1.758  1.5571 -3.5806  0.3560
  575SOL     MW 2300   0.059   2.241   1.798 -0.2493 -0.5200 -0.1616
  576SOL     OW 2301   2.789   1.829   2.112 -0.6086  0.2664  0.1517
  576SOL    HW1 2302   2.811   1.885   2.042 -0.5973 -0.5232  0.4710
  576SOL    HW2 2303   2.723   1.765   2.081 -0.1340  1.4304 -0.0440
  576SOL     MW 2304   2.783   1.828   2.099 -0.5445  0.3158  0.1680
  577SOL     OW 2305   2.047   0.214   0.101 -0.8738  0.1591 -0.0874
  577SOL    HW1 2306   1.964   0.201   0.046 -3.5063 -1.0615 -1.0265
  577SOL    HW2 2307   2.027   0.166   0.181 -1.5654  1.4987 -0.9866
  577SOL     MW 2308   2.034   0.206   0.104 -1.3124  0.1748 -0.3299
  578SOL     OW 2309   1.928   1.992   2.359  0.0348 -0.0345  0.1337
  578SOL    HW1 2310   1.863   1.975   2.291  2.1501 -4.5449 -2.5471
  578SOL    HW2 2311   2.007   1.949   2.325 -1.0463  0.7428  0.1619
  578SOL     MW 2312   1.930   1.984   2.346  0.1713 -0.5270 -0.2163
  579SOL     OW 2313   0.888   2.393   2.414  0.5355 -0.5624  0.3904
  579SOL    HW1 2314   0.937   2.344   2.480 -1.3788  0.9336 -0.8183
  579SOL    HW2 2315   0.954   2.435   2.353 -0.3096 -2.1697 -0.2826
  579SOL     MW 2316   0.903   2.392   2.414  0.1714 -0.5771  0.1422
  580SOL     OW 2317   0.946   2.931   3.040 -0.0887 -0.3651 -0.7572
  580SOL    HW1 2318   1.038   2.931   3.016 -0.8387 -4.0075 -0.3602
  580SOL    HW2 2319   0.900   2.889   2.964 -1.3130  0.5332  0.6460
  580SOL     MW 2320   0.952   2.925   3.027 -0.3492 -0.7272 -0.5197
  581SOL     OW 2321   1.133   2.449   1.694  0.1645 -0.2716  0.4183
  581SOL    HW1 2322   1.167   2.526   1.637 -1.1755 -0.9618 -0.1592
  581SOL    HW2 2323   1.144   2.374   1.631  3.1511 -1.2044 -3.8234
  581SOL     MW 2324   1.139   2.449   1.679  0.3817 -0.4858 -0.2175
  582SOL     OW 2325   0.010   2.832   2.577  0.5694 -0.3008  0.5427
  582SOL    HW1 2326  -0.013   2.907   2.627 -0.1335 -3.7575  2.0393
  582SOL    HW2 2327   0.095   2.857   2.546 -1.0274  1.8021  3.2887
  582SOL     MW 2328   0.018   2.845   2.579  0.2660 -0.4794  1.1025
  583SOL     OW 2329   1.995   2.416   2.634 -0.2053 -0.0441 -0.3511
  583SOL    HW1 2330   2.079   2.430   2.586  1.2035 -0.9376 -1.8068
  583SOL    HW2 2331   1.997   2.317   2.645 -1.0122  1.3013  1.1799
  583SOL     MW 2332   2.006   2.405   2.629 -0.1259  0.0155 -0.3412
  584SOL     OW 2333   0.196   1.851   2.226 -0.6477 -0.2234  0.1191
  584SOL    HW1 2334   0.259   1.830   2.161 -1.8420  1.0699  0.6591
  584SOL    HW2 2335   0.214   1.940   2.254  0.0502  1.0394 -0.0557
  584SOL     MW 2336   0.207   1.860   2.221 -0.7132  0.1138  0.1673
  585SOL     OW 2337   1.523   2.669   0.221  0.6889  0.2389  0.6014
  585SOL    HW1 2338   1.495   2.587   0.187 -1.9979 -0.5004 -0.1950
  585SOL    HW2 2339   1.443   2.695   0.267 -2.2630  1.8290  0.1229
  585SOL     MW 2340   1.509   2.662   0.223 -0.0551  0.3511  0.4332
  586SOL     OW 2341   1.338   2.852   2.550 -0.2392  0.1508  0.0640
  586SOL    HW1 2342   1.391   2.808   2.474  0.7752 -1.0319  0.0513
  586SOL    HW2 2343   1.367   2.941   2.556 -1.4013 -2.1817 -2.2567
  586SOL     MW 2344   1.349   2.858   2.541 -0.2587 -0.3130 -0.2439
  587SOL     OW 2345   1.327   1.570   2.167  0.4043  0.0315  0.0635
  587SOL    HW1 2346   1.311   1.497   2.230  0.4434  1.5315  0.7760
  587SOL    HW2 2347   1.263   1.558   2.098 -0.6607 -2.1093 -0.5588
  587SOL     MW 2348   1.317   1.559   2.167  0.2690 -0.0530  0.0754
  588SOL     OW 2349   1.343   2.061   2.732  0.1428 -0.1580 -0.2623
  588SOL    HW1 2350   1.437   2.060   2.762  0.0289 -0.8767 -1.3962
  588SOL    HW2 2351   1.283   2.065   2.811  1.4421  1.6289 -0.5016
  588SOL     MW 2352   1.347   2.061   2.747  0.2992 -0.0171 -0.4435
  589SOL     OW 2353   1.289   2.053   0.105  0.3647 -0.0554 -0.5373
  589SOL    HW1 2354   1.327   2.130   0.154  1.3585  0.0231 -0.8645
  589SOL    HW2 2355   1.246   1.998   0.173  1.9308 -0.2945  0.3610
  589SOL     MW 2356   1.288   2.056   0.120  0.7025 -0.0766 -0.4620
  590SOL     OW 2357   0.452   2.784   2.206  0.3715 -0.4205  0.1274
  590SOL    HW1 2358   0.443   2.742   2.124  0.3773  1.2889  0.8967
  590SOL    HW2 2359   0.540   2.810   2.218 -1.2727 -0.8748  0.9371
  590SOL     MW 2360   0.462   2.782   2.196  0.1553 -0.2549  0.3357
  591SOL     OW 2361   2.250   0.644   0.006 -0.4058 -0.1762 -0.3309
  591SOL    HW1 2362   2.171   0.681  -0.024 -0.0417  0.9081  1.1533
  591SOL    HW2 2363   2.302   0.683  -0.056 -0.8082 -0.4652 -3.3750
  591SOL     MW 2364   2.247   0.654  -0.006 -0.4108 -0.0712 -0.5367
  592SOL     OW 2365   1.792   2.958   0.807 -0.1978  0.0856 -0.6428
  592SOL    HW1 2366   1.756   3.029   0.745  1.2000 -0.2904 -0.9223
  592SOL    HW2 2367   1.846   2.891   0.763  2.5051  0.3697 -1.2508
  592SOL     MW 2368   1.794   2.959   0.793  0.3433  0.0735 -0.7599
  593SOL     OW 2369   1.952   0.676   0.815 -0.6383 -0.1449 -0.3069
  593SOL    HW1 2370   1.863   0.678   0.771 -0.4100  0.7608 -1.2469
  593SOL    HW2 2371   1.995   0.597   0.785 -0.0168 -0.3654  0.4251
  593SOL     MW 2372   1.946   0.666   0.806 -0.5262 -0.0545 -0.3344
  594SOL     OW 2373   2.802   1.165   1.362 -0.6833  0.4327  0.3338
  594SOL    HW1 2374   2.897   1.201   1.380  0.6999 -3.3438 -0.3162
  594SOL    HW2 2375   2.816   1.102   1.293  0.4411 -0.5932  4.1961
  594SOL     MW 2376   2.816   1.161   1.355 -0.3524 -0.2009  0.7576
  595SOL     OW 2377   0.414   1.021   0.818  0.5342  0.2359 -0.4485
  595SOL    HW1 2378   0.450   1.070   0.747  2.3786 -2.8215  0.4701
  595SOL    HW2 2379   0.434   1.084   0.883 -0.5070 -0.9356 -3.9402
  595SOL     MW 2380   0.421   1.036   0.817  0.6402 -0.3221 -0.7880
  596SOL     OW 2381   2.453   1.329   0.570 -0.0028  0.5683  0.1078
  596SOL    HW1 2382   2.518   1.392   0.542 -1.1416 -0.4758  1.4538
  596SOL    HW2 2383   2.496   1.303   0.654  1.7695  0.3687 -0.4170
  596SOL     MW 2384   2.468   1.334   0.577  0.0808  0.4042  0.2161
  597SOL     OW 2385   2.187   0.703   1.614 -0.0721 -0.1627  0.0888
  597SOL    HW1 2386   2.223   0.645   1.682 -1.2377 -1.5263  1.1039
  597SOL    HW2 2387   2.121   0.653   1.562 -1.3760 -0.9159  1.2869
  597SOL     MW 2388   2.183   0.689   1.616 -0.3979 -0.4420  0.3808
  598SOL     OW 2389   2.590   1.012   2.830  0.0504  0.3885 -0.6722
  598SOL    HW1 2390   2.608   0.988   2.739 -0.4309 -0.7852 -0.3495
  598SOL    HW2 2391   2.673   1.061   2.862  1.3830 -1.1358 -2.3542
  598SOL     MW 2392   2.604   1.016   2.822  0.1627  0.0325 -0.8515
  599SOL     OW 2393   2.958   0.410   2.095  0.2271 -0.4555 -0.0290
  599SOL    HW1 2394   3.030   0.411   2.161 -0.3355  1.4381  0.0217
  599SOL    HW2 2395   2.964   0.491   2.043  2.0124  1.6722  1.2768
  599SOL     MW 2396   2.968   0.421   2.097  0.3884  0.0751  0.1499
  600SOL     OW 2397   1.849   1.596   0.830  0.1603 -0.3615 -0.0248
  600SOL    HW1 2398   1.871   1.646   0.911  1.2105  1.7914 -0.8586
  600SOL    HW2 2399   1.764   1.639   0.810 -0.3084  2.4230  0.1227
  600SOL     MW 2400   1.841   1.609   0.838  0.2370  0.2900 -0.1153
  601SOL     OW 2401   2.503   0.775   0.804 -0.1096  0.0923  0.0252
  601SOL    HW1 2402   2.501   0.789   0.908  2.0787 -1.1605  1.9364
  601SOL    HW2 2403   2.424   0.721   0.787 -2.1944 -1.6096 -0.1485
  601SOL     MW 2404   2.493   0.770   0.815 -0.0960 -0.2975  0.2544
  602SOL     OW 2405   2.312   1.929   0.798 -0.3612  0.5179 -0.1496
  602SOL    HW1 2406   2.295   1.837   0.771 -2.4497  0.9422  0.8353
  602SOL    HW2 2407   2.258   1.983   0.744  1.4849  1.0795 -1.6674
  602SOL     MW 2408   2.303   1.924   0.788 -0.3932  0.6480 -0.2199
  603SOL     OW 2409   0.016   1.351   1.828  0.5142  0.2987  0.1589
  603SOL    HW1 2410   0.062   1.389   1.901  0.3245 -1.1272 -0.0185
  603SOL    HW2 2411   0.048   1.262   1.826  0.1565  1.6870  3.5928
  603SOL     MW 2412   0.026   1.344   1.837  0.4420  0.2938  0.5886
  604SOL     OW 2413   2.155   1.539   0.483  0.3856  0.1962  0.5677
  604SOL    HW1 2414   2.148   1.445   0.512 -1.1517 -0.7331 -0.0308
  604SOL    HW2 2415   2.063   1.577   0.504 -1.8679  2.5754  0.7494
  604SOL     MW 2416   2.142   1.531   0.490 -0.1146  0.3875  0.5127
  605SOL     OW 2417   2.578   1.468   0.869 -0.5600  0.0490  0.3705
  605SOL    HW1 2418   2.540   1.531   0.803 -3.7040 -0.9079  4.4236
  605SOL    HW2 2419   2.584   1.376   0.842 -1.5886  2.2260 -0.1850
  605SOL     MW 2420   2.574   1.464   0.857 -1.1105  0.2100  0.8320
  606SOL     OW 2421   2.574   1.653   2.011 -0.1093 -0.9029  0.0516
  606SOL    HW1 2422   2.489   1.694   2.003 -1.2241 -0.2654  0.2624
  606SOL    HW2 2423   2.602   1.636   1.921 -0.3855 -1.1146 -1.7933
  606SOL     MW 2424   2.566   1.656   1.998 -0.2928 -0.8467 -0.1640
  607SOL     OW 2425   2.419   1.109   3.010  0.4245 -0.2616 -0.6942
  607SOL    HW1 2426   2.478   1.092   2.935 -0.1651  0.8024 -0.9896
  607SOL    HW2 2427   2.470   1.081   3.090  3.1480  0.4915  1.2959
  607SOL     MW 2428   2.433   1.103   3.011  0.7061 -0.0219 -0.4706
  608SOL     OW 2429   1.865   0.276   0.595 -0.2286  0.3122 -0.3504
  608SOL    HW1 2430   1.847   0.327   0.516 -0.5830 -3.1926 -1.3669
  608SOL    HW2 2431   1.810   0.198   0.592 -0.4762  0.4304 -0.7644
  608SOL     MW 2432   1.855   0.273   0.584 -0.3081 -0.1346 -0.5391
  609SOL     OW 2433   2.056   1.974   3.021  0.1918 -0.2490 -0.5260
  609SOL    HW1 2434   1.965   1.936   3.026 -1.8220 -1.3098  1.2198
  609SOL    HW2 2435   2.081   1.950   3.114 -1.1050 -0.1372  1.8816
  609SOL     MW 2436   2.047   1.966   3.034 -0.2450 -0.3742  0.0220
  610SOL     OW 2437   1.761   0.997   1.279 -0.6233 -0.2220 -0.6594
  610SOL    HW1 2438   1.772   0.932   1.215 -0.4615 -0.0833 -0.6462
  610SOL    HW2 2439   1.664   1.014   1.279 -0.3892  3.7928  2.1025
  610SOL     MW 2440   1.750   0.991   1.271 -0.5710  0.3260 -0.2933
  611SOL     OW 2441   2.537   1.703   0.689  0.1907 -0.1776  0.0615
  611SOL    HW1 2442   2.522   1.783   0.730 -1.0349 -1.6446 -1.5864
  611SOL    HW2 2443   2.484   1.710   0.611 -0.1688  1.4113  0.1377
  611SOL     MW 2444   2.528   1.714   0.684 -0.0185 -0.1615 -0.1459
  612SOL     OW 2445   2.842   2.863   0.395  0.4107  0.8243 -0.2795
  612SOL    HW1 2446   2.868   2.926   0.467 -0.0050  0.3109  0.0137
  612SOL    HW2 2447   2.929   2.831   0.353  1.0010 -0.7267  2.5808
  612SOL     MW 2448   2.857   2.867   0.399  0.4337  0.5519  0.1366
  613SOL     OW 2449   1.466   1.012   0.890 -0.1321 -0.3302 -0.4302
  613SOL    HW1 2450   1.506   1.086   0.841  1.1642  0.6202  1.0322
  613SOL    HW2 2451   1.501   1.013   0.982 -0.4144  3.9506  2.2093
  613SOL     MW 2452   1.476   1.022   0.896  0.0017  0.3600  0.1110
  614SOL     OW 2453   1.992   0.579   1.457 -0.3509  0.0295 -0.4479
  614SOL    HW1 2454   1.977   0.510   1.528  0.2276 -3.1575  1.9457
  614SOL    HW2 2455   1.946   0.553   1.373  0.7477  4.2923 -1.4729
  614SOL     MW 2456   1.984   0.567   1.456 -0.1297  0.1715 -0.2673
  615SOL     OW 2457   2.380   0.752   0.230 -0.2622  0.1128  0.3806
  615SOL    HW1 2458   2.424   0.674   0.266 -0.2848  1.2725  0.3952
  615SOL    HW2 2459   2.344   0.706   0.151 -1.9149 -3.0607 -0.5457
  615SOL     MW 2460   2.381   0.735   0.225 -0.4832 -0.1529  0.2603
  616SOL     OW 2461   2.522   0.413   1.655 -0.4091 -0.1589  0.1526
  616SOL    HW1 2462   2.573   0.340   1.617  0.4414  2.1535 -0.7868
  616SOL    HW2 2463   2.487   0.452   1.577 -3.5662 -1.8451 -0.0584
  616SOL     MW 2464   2.524   0.409   1.640 -0.7134 -0.0763  0.0008
  617SOL     OW 2465   2.797   0.616   1.710 -0.1755  0.1567  0.0300
  617SOL    HW1 2466   2.729   0.591   1.771 -1.9150 -1.4893  0.3783
  617SOL    HW2 2467   2.841   0.528   1.702 -0.9035  0.6253  2.2314
  617SOL     MW 2468   2.794   0.601   1.717 -0.5011  0.0014  0.3664
  618SOL     OW 2469   2.718   0.347   1.923 -0.3947  0.1001 -0.2621
  618SOL    HW1 2470   2.668   0.424   1.903 -1.6810 -0.3118  2.0156
  618SOL    HW2 2471   2.778   0.376   1.994  0.6355  0.5318 -1.9517
  618SOL     MW 2472   2.719   0.361   1.930 -0.4285  0.1027 -0.1845
  619SOL     OW 2473   2.646   0.689   0.075 -0.0073  0.1152 -0.3880
  619SOL    HW1 2474   2.691   0.773   0.095  1.0043  1.1162  2.2258
  619SOL    HW2 2475   2.600   0.655   0.150  0.2310  0.6103 -0.5183
  619SOL     MW 2476   2.646   0.696   0.087  0.1576  0.3126 -0.0603
  620SOL     OW 2477   2.207   1.057   0.937  0.1636 -0.0078  0.3130
  620SOL    HW1 2478   2.280   1.025   0.889 -0.6263  0.9827 -0.6604
  620SOL    HW2 2479   2.131   1.012   0.902 -0.9110  1.2950 -0.9179
  620SOL     MW 2480   2.206   1.047   0.926 -0.0824  0.2948  0.0222
  621SOL     OW 2481   1.547   2.196   1.904 -0.0263 -0.0149  0.4204
  621SOL    HW1 2482   1.490   2.134   1.946  2.2863  4.0527  0.6547
  621SOL    HW2 2483   1.634   2.170   1.913  1.3427  2.2720 -2.8865
  621SOL     MW 2484   1.551   2.185   1.911  0.4595  0.8235  0.0150
  622SOL     OW 2485   2.629   0.185   0.222 -0.2091  0.2454 -0.0950
  622SOL    HW1 2486   2.717   0.226   0.216 -0.3048 -0.5023  0.6862
  622SOL    HW2 2487   2.646   0.105   0.272  0.8367  0.9215  0.5589
  622SOL     MW 2488   2.643   0.180   0.228 -0.0837  0.2360  0.0943
  623SOL     OW 2489   2.396   2.782   0.821 -0.1080 -0.3421 -0.3107
  623SOL    HW1 2490   2.467   2.848   0.805 -2.2271  0.7920 -2.0759
  623SOL    HW2 2491   2.376   2.774   0.916  2.7628  1.8289  2.8029
  623SOL     MW 2492   2.403   2.789   0.832 -0.0088  0.0940 -0.1328
  624SOL     OW 2493   2.151   1.687   2.998 -0.0070 -0.1425  0.3822
  624SOL    HW1 2494   2.114   1.620   3.046  0.3392 -1.0205  0.0536
  624SOL    HW2 2495   2.076   1.737   2.953 -2.2485  1.4197 -0.8039
  624SOL     MW 2496   2.136   1.685   2.998 -0.2571 -0.0522  0.1824
  625SOL     OW 2497   2.199   1.916   1.036 -0.0659 -0.3531 -0.3861
  625SOL    HW1 2498   2.254   1.870   1.094 -0.4279  0.9200 -0.6257
  625SOL    HW2 2499   2.232   1.906   0.944 -0.0724  1.2204 -0.4299
  625SOL     MW 2500   2.211   1.909   1.032 -0.1145  0.0225 -0.4235
  626SOL     OW 2501   0.305   1.660   2.376 -0.0260  0.4823 -0.4308
  626SOL    HW1 2502   0.224   1.611   2.404 -1.3971  3.1967  0.4410
  626SOL    HW2 2503   0.275   1.739   2.329 -0.6860  1.9569 -0.7712
  626SOL     MW 2504   0.291   1.664   2.374 -0.2940  1.0350 -0.3607
  627SOL     OW 2505   2.442   0.707   2.546  0.1413 -0.2435 -0.0244
  627SOL    HW1 2506   2.393   0.787   2.553  1.4324 -1.6302 -0.8107
  627SOL    HW2 2507   2.426   0.691   2.453 -2.7631 -0.2175  0.2192
  627SOL     MW 2508   2.434   0.715   2.534 -0.0716 -0.4230 -0.0960
  628SOL     OW 2509   2.350   1.408   1.317 -0.3547 -1.0664 -0.8484
  628SOL    HW1 2510   2.299   1.333   1.285  0.4726 -0.5058  2.1225
  628SOL    HW2 2511   2.418   1.411   1.254  0.6146 -1.0526 -0.4513
  628SOL     MW 2512   2.353   1.399   1.304 -0.1177 -0.9906 -0.4040
  629SOL     OW 2513   1.864   0.545   1.223 -0.2433 -0.3972  0.2291
  629SOL    HW1 2514   1.856   0.619   1.163  2.2051 -0.9409 -1.8918
  629SOL    HW2 2515   1.767   0.518   1.232 -2.2824  1.0023  0.9602
  629SOL     MW 2516   1.850   0.551   1.216 -0.1893 -0.2843  0.0457
  630SOL     OW 2517   2.372   1.829   3.068 -0.4322  0.4793  0.6724
  630SOL    HW1 2518   2.368   1.880   2.992 -0.3842  3.1486  1.8854
  630SOL    HW2 2519   2.285   1.785   3.082 -1.6395  0.6921 -0.6207
  630SOL     MW 2520   2.360   1.830   3.060 -0.5851  0.8596  0.6619
  631SOL     OW 2521   2.046   1.822   1.550  0.4913 -0.1047 -0.3096
  631SOL    HW1 2522   2.060   1.732   1.576 -1.1415 -0.7356 -2.6644
  631SOL    HW2 2523   2.008   1.815   1.466 -0.0604 -4.6954  0.2300
  631SOL     MW 2524   2.043   1.809   1.542  0.2031 -0.7936 -0.5491
  632SOL     OW 2525   0.202   1.976   1.389  0.3988  0.7743  0.1593
  632SOL    HW1 2526   0.150   2.000   1.470  2.4013  0.6794 -0.7442
  632SOL    HW2 2527   0.225   1.884   1.404  0.5515 -1.6709  3.0726
  632SOL     MW 2528   0.198   1.967   1.401  0.6831  0.4392  0.4245
  633SOL     OW 2529   2.557   0.560   0.302  0.1630  0.7778 -0.0755
  633SOL    HW1 2530   2.559   0.543   0.396 -0.1350  1.0167 -2.1591
  633SOL    HW2 2531   2.533   0.475   0.262  0.2741  0.9265  2.3464
  633SOL     MW 2532   2.554   0.547   0.309  0.1383  0.8290 -0.0309
  634SOL     OW 2533   2.667   0.027   0.646  0.3738 -0.6450 -0.2251
  634SOL    HW1 2534   2.717   0.111   0.643 -0.1031  0.1460  4.3624
  634SOL    HW2 2535   2.664  -0.017   0.559  1.4827 -1.0426  0.8150
  634SOL     MW 2536   2.673   0.033   0.634  0.4572 -0.5931  0.5174
  635SOL     OW 2537   2.598   0.129   1.836 -0.3164  0.1165 -0.0661
  635SOL    HW1 2538   2.662   0.089   1.778 -1.0638  2.1490  2.6194
  635SOL    HW2 2539   2.653   0.201   1.870  1.6995 -1.3366 -1.2666
  635SOL     MW 2540   2.614   0.133   1.833 -0.1490  0.1930  0.1298
  636SOL     OW 2541   2.828   1.605   0.963  0.2154  0.2623 -0.9280
  636SOL    HW1 2542   2.754   1.594   0.904 -0.3034  0.8060  0.1544
  636SOL    HW2 2543   2.857   1.692   0.968  0.8704 -1.2801 -3.3087
  636SOL     MW 2544   2.822   1.615   0.956  0.2334  0.1305 -1.0993
  637SOL     OW 2545   2.876   1.442   0.721  0.1139  0.2375 -0.4664
  637SOL    HW1 2546   2.876   1.528   0.679 -1.0319 -1.2932 -2.3950
  637SOL    HW2 2547   2.860   1.457   0.810  0.1650 -0.7764 -2.2985
  637SOL     MW 2548   2.874   1.455   0.727 -0.0306 -0.0983 -0.9626
  638SOL     OW 2549   2.682   0.522   0.565  0.1536  0.3513 -0.5372
  638SOL    HW1 2550   2.772   0.522   0.533 -1.7464 -1.8326 -0.2348
  638SOL    HW2 2551   2.692   0.530   0.660 -2.5708 -1.0658  0.1154
  638SOL     MW 2552   2.696   0.523   0.574 -0.4565 -0.1238 -0.4112
  639SOL     OW 2553   1.723   0.032   0.589 -0.1356  0.2938  0.3842
  639SOL    HW1 2554   1.633   0.036   0.570  4.1555  0.9531 -0.6579
  639SOL    HW2 2555   1.759  -0.008   0.509  0.1250 -2.4913 -0.2046
  639SOL     MW 2556   1.716   0.028   0.576  0.4650  0.0133  0.1690
  640SOL     OW 2557   0.305   1.308   0.140 -0.5991  0.3609  0.4547
  640SOL    HW1 2558   0.332   1.321   0.046  0.6239 -0.7344 -1.6149
  640SOL    HW2 2559   0.308   1.212   0.162  1.9122 -1.0848  0.2797
  640SOL     MW 2560   0.309   1.297   0.130 -0.1064  0.0256  0.1586
  641SOL     OW 2561   2.187   0.401   0.424  0.4259  0.1250  0.2933
  641SOL    HW1 2562   2.199   0.390   0.327 -0.2173 -0.2226  2.3958
  641SOL    HW2 2563   2.273   0.386   0.469  0.2722 -0.7489 -0.2940
  641SOL     MW 2564   2.200   0.398   0.417  0.3207 -0.0362  0.4932
  642SOL     OW 2565   0.061   3.086   0.554  0.4073  0.0337 -0.1944
  642SOL    HW1 2566   0.037   3.172   0.502 -2.4672 -0.8020 -0.0397
  642SOL    HW2 2567  -0.024   3.061   0.586  0.4600 -0.6140  0.8808
  642SOL     MW 2568   0.047   3.094   0.551  0.0350 -0.1620 -0.0321
  643SOL     OW 2569   1.990   0.379   1.652  0.1811  0.0232  0.9067
  643SOL    HW1 2570   1.934   0.332   1.705  1.8594  1.2009  0.7420
  643SOL    HW2 2571   2.039   0.311   1.599 -1.6701  1.1038 -3.1298
  643SOL     MW 2572   1.989   0.364   1.652  0.1583  0.3212  0.3524
  644SOL     OW 2573   2.742   1.957   1.071 -0.7296 -0.3908  0.0040
  644SOL    HW1 2574   2.732   1.905   1.150  1.7149 -0.7190  0.9354
  644SOL    HW2 2575   2.652   1.982   1.049  0.2239 -1.6074 -1.3606
  644SOL     MW 2576   2.729   1.953   1.078 -0.2813 -0.5946 -0.0531
  645SOL     OW 2577   2.809   0.840   0.658 -0.4082  0.3180  0.2612
  645SOL    HW1 2578   2.893   0.802   0.674 -2.0613  0.3907  0.4716
  645SOL    HW2 2579   2.746   0.787   0.709  0.1866  1.3025 -1.8522
  645SOL     MW 2580   2.812   0.828   0.667 -0.5478  0.4575  0.0101
  646SOL     OW 2581   0.078   2.276   0.843 -0.4719 -0.4395  0.3253
  646SOL    HW1 2582   0.085   2.179   0.844 -2.2479 -1.3972 -2.2672
  646SOL    HW2 2583   0.042   2.309   0.760  0.7891 -1.1011 -2.5322
  646SOL     MW 2584   0.074   2.267   0.832 -0.5398 -0.6532 -0.3938
  647SOL     OW 2585   2.704   0.476   2.905  0.6224  0.1587 -0.2691
  647SOL    HW1 2586   2.641   0.430   2.969  3.2867  0.2165  5.4227
  647SOL    HW2 2587   2.649   0.549   2.875  1.2358  1.2624  0.1200
  647SOL     MW 2588   2.688   0.479   2.910  1.0549  0.3119  0.5332
  648SOL     OW 2589   2.138   0.730   1.180  0.6694 -0.2261  0.0040
  648SOL    HW1 2590   2.192   0.659   1.219 -0.9971  1.1373 -0.6779
  648SOL    HW2 2591   2.125   0.794   1.244 -0.4468 -0.0409  0.2004
  648SOL     MW 2592   2.144   0.729   1.194  0.3022 -0.0218 -0.0601
  649SOL     OW 2593   2.386   2.656   1.298  0.0332  0.4368  0.0196
  649SOL    HW1 2594   2.465   2.710   1.315  0.8788  0.2897  3.9080
  649SOL    HW2 2595   2.408   2.562   1.299 -0.6475 -2.0500  2.8192
  649SOL     MW 2596   2.399   2.651   1.300  0.0549  0.0893  0.9020
  650SOL     OW 2597   2.852   0.248   0.653  0.0018  0.2198  0.5542
  650SOL    HW1 2598   2.884   0.312   0.716 -0.6467  0.5862  1.2351
  650SOL    HW2 2599   2.924   0.246   0.579  1.3130 -0.1306 -1.5185
  650SOL     MW 2600   2.866   0.256   0.652  0.0892  0.2219  0.3706
  651SOL     OW 2601   3.062   0.426   0.973 -0.1975 -0.1283  0.4370
  651SOL    HW1 2602   3.104   0.481   0.898  1.8600  3.2037  0.9389
  651SOL    HW2 2603   2.993   0.480   1.012 -0.1525 -0.0831  0.3682
  651SOL     MW 2604   3.059   0.440   0.968  0.0799  0.3173  0.4941
  652SOL     OW 2605   2.424   1.538   3.041  0.2654  0.0366 -0.2838
  652SOL    HW1 2606   2.499   1.512   2.994 -0.0215 -1.7300  0.7528
  652SOL    HW2 2607   2.405   1.622   3.009 -1.9042 -0.5803  1.4022
  652SOL     MW 2608   2.431   1.546   3.030 -0.0587 -0.2779  0.0754
  653SOL     OW 2609   1.831   0.461   0.393  0.3480 -0.0743  0.1875
  653SOL    HW1 2610   1.790   0.406   0.327 -0.8745  1.8378  3.0458
  653SOL    HW2 2611   1.899   0.485   0.334  0.8670  2.2419 -0.5439
  653SOL     MW 2612   1.834   0.457   0.377  0.2552  0.4836  0.4681
  654SOL     OW 2613   2.420   1.013   0.765  0.2265 -0.3382 -0.1346
  654SOL    HW1 2614   2.349   1.005   0.694 -1.4635  1.7187  0.7729
  654SOL    HW2 2615   2.461   0.919   0.778 -0.4911  0.3269 -0.8107
  654SOL     MW 2616   2.416   0.999   0.758 -0.0912  0.0209 -0.1041
  655SOL     OW 2617   2.944   0.806   0.376 -0.2984 -0.1118  0.0467
  655SOL    HW1 2618   2.906   0.828   0.462  0.9480  1.0108  1.2582
  655SOL    HW2 2619   2.938   0.706   0.376 -1.9257 -2.6010  0.3523
  655SOL     MW 2620   2.938   0.796   0.388 -0.3487 -0.2921  0.2469
  656SOL     OW 2621   1.861   2.663   1.356 -0.7497 -0.8708 -0.3114
  656SOL    HW1 2622   1.861   2.758   1.352 -1.2181  2.2152  1.0994
  656SOL    HW2 2623   1.926   2.643   1.429  0.7191 -1.3540  1.8029
  656SOL     MW 2624   1.870   2.673   1.365 -0.6177 -0.5274  0.1537
  657SOL     OW 2625   0.139   1.763   1.183  0.5761  0.0720 -0.3089
  657SOL    HW1 2626   0.209   1.813   1.139  3.3483 -0.0174 -0.6173
  657SOL    HW2 2627   0.165   1.668   1.157  0.6598  0.1508  1.6275
  657SOL     MW 2628   0.152   1.757   1.174  0.9529  0.0706 -0.0941
  658SOL     OW 2629   2.669   1.345   0.257 -0.3715 -0.0902 -0.1423
  658SOL    HW1 2630   2.645   1.264   0.307  0.7065 -2.2044  2.4223
  658SOL    HW2 2631   2.682   1.400   0.338  0.2827 -1.8833  2.0181
  658SOL     MW 2632   2.667   1.342   0.275 -0.1430 -0.6058  0.4811
  659SOL     OW 2633   2.257   1.520   0.995 -0.3117 -0.7976 -0.8404
  659SOL    HW1 2634   2.347   1.527   1.024 -1.8671  0.9717 -2.2152
  659SOL    HW2 2635   2.210   1.568   1.068 -0.9862  4.2101  1.1154
  659SOL     MW 2636   2.263   1.527   1.009 -0.6059  0.0966 -0.7637
  660SOL     OW 2637   2.062   1.562   1.671  0.1133 -0.4667 -0.2727
  660SOL    HW1 2638   2.073   1.567   1.771  2.0017 -2.0873  0.6393
  660SOL    HW2 2639   1.992   1.491   1.660 -2.7112  1.0668  2.3529
  660SOL     MW 2640   2.054   1.553   1.683 -0.0102 -0.4782  0.1940
  661SOL     OW 2641   2.455   1.007   0.194  0.2215  0.1408  0.4270
  661SOL    HW1 2642   2.520   1.038   0.260  1.0472  0.5052 -3.2816
  661SOL    HW2 2643   2.447   0.913   0.204 -1.0894  1.5899  0.2364
  661SOL     MW 2644   2.462   0.999   0.204  0.1575  0.3801 -0.0875
  662SOL     OW 2645   2.553   3.011   0.903  0.0821  0.9331 -0.0837
  662SOL    HW1 2646   2.497   3.063   0.961  0.2524 -1.0935 -1.2882
  662SOL    HW2 2647   2.584   3.080   0.846 -0.7413  0.8877  1.5784
  662SOL     MW 2648   2.549   3.027   0.903 -0.0041  0.6597 -0.0233
  663SOL     OW 2649   2.664   1.494   0.495  0.4198 -0.1390 -0.4974
  663SOL    HW1 2650   2.630   1.583   0.463  2.5896 -0.4243  0.2675
  663SOL    HW2 2651   2.736   1.518   0.558  0.5064  1.7789  0.9870
  663SOL     MW 2652   2.669   1.509   0.499  0.7175  0.0764 -0.2006
  664SOL     OW 2653   2.544   1.536   1.555 -0.3876  0.0812 -0.0391
  664SOL    HW1 2654   2.516   1.625   1.579  0.7360  0.9832 -1.1887
  664SOL    HW2 2655   2.475   1.472   1.588  1.4034 -1.9362 -0.2253
  664SOL     MW 2656   2.531   1.539   1.562 -0.0031 -0.0659 -0.2153
  665SOL     OW 2657   2.847   0.852   2.019 -0.2839 -0.2005  0.4562
  665SOL    HW1 2658   2.827   0.885   1.932 -0.9786 -3.5883 -0.5082
  665SOL    HW2 2659   2.912   0.790   1.998 -0.5484  0.6177 -0.5157
  665SOL     MW 2660   2.853   0.849   2.005 -0.4104 -0.5395  0.2008
  666SOL     OW 2661   2.772   3.060   1.721 -0.4863  0.6777 -0.1039
  666SOL    HW1 2662   2.772   3.058   1.624  2.7072  0.4976 -0.1442
  666SOL    HW2 2663   2.719   2.985   1.746  1.0656  0.5581  1.4172
  666SOL     MW 2664   2.765   3.050   1.711  0.1398  0.6381  0.0914
  667SOL     OW 2665   1.940   2.661   1.807  0.4008 -0.3316  0.1335
  667SOL    HW1 2666   1.944   2.636   1.899  1.0095  1.2519 -0.9621
  667SOL    HW2 2667   2.014   2.723   1.796  1.1939 -0.3622 -0.1907
  667SOL     MW 2668   1.950   2.666   1.817  0.5857 -0.1267 -0.0538
  668SOL     OW 2669   2.739   0.630   0.821 -0.0152 -0.9380 -0.4279
  668SOL    HW1 2670   2.801   0.669   0.898  0.7125  3.1116  0.2960
  668SOL    HW2 2671   2.646   0.666   0.835 -0.6887  0.8922  0.6823
  668SOL     MW 2672   2.735   0.640   0.833 -0.0081 -0.1622 -0.1859
  669SOL     OW 2673   0.175   0.916   0.701 -0.7129 -0.4342  0.2847
  669SOL    HW1 2674   0.126   0.961   0.771 -2.4202  0.3286  2.4684
  669SOL    HW2 2675   0.263   0.933   0.714 -1.3589  0.8437  0.9595
  669SOL     MW 2676   0.180   0.924   0.712 -1.0234 -0.1650  0.6618
  670SOL     OW 2677   2.865   0.309   0.196 -0.6182  0.3601  0.2532
  670SOL    HW1 2678   2.893   0.257   0.126 -1.9218 -1.2941 -0.1563
  670SOL    HW2 2679   2.898   0.396   0.176 -0.8791  0.4213  2.0249
  670SOL     MW 2680   2.873   0.314   0.184 -0.8246  0.1499  0.4329
  671SOL     OW 2681   2.057   3.048   1.539 -0.2488  0.5429  0.3743
  671SOL    HW1 2682   1.989   3.015   1.475 -1.6839 -0.3740  0.1704
  671SOL    HW2 2683   2.016   3.092   1.617  1.2283  1.5335  2.0783
  671SOL     MW 2684   2.043   3.050   1.541 -0.2433  0.5526  0.5722
  672SOL     OW 2685   1.893   1.731   1.324  0.0615 -0.1510 -0.1587
  672SOL    HW1 2686   1.821   1.793   1.323 -1.9254 -0.9212  0.5627
  672SOL    HW2 2687   1.908   1.723   1.234 -1.7715 -1.4758  1.1050
  672SOL     MW 2688   1.886   1.738   1.312 -0.4425 -0.4274  0.1032
  673SOL     OW 2689   2.787   1.110   0.610  0.3603 -0.3068  0.3397
  673SOL    HW1 2690   2.787   1.019   0.640  0.0501  0.9641 -1.7695
  673SOL    HW2 2691   2.877   1.138   0.618 -1.0050  0.1657  1.9703
  673SOL     MW 2692   2.799   1.102   0.615  0.1392 -0.0768  0.2766
  674SOL     OW 2693   2.440   3.054   1.314  0.0622 -0.1586 -0.2897
  674SOL    HW1 2694   2.396   3.055   1.232 -0.6763  1.2542 -0.4009
  674SOL    HW2 2695   2.427   2.966   1.347  1.6480 -0.3462  1.3022
  674SOL     MW 2696   2.432   3.043   1.308  0.1740  0.0030 -0.0943
  675SOL     OW 2697   3.064   0.878   1.072 -0.0037 -0.3901  0.0661
  675SOL    HW1 2698   3.132   0.846   1.126  0.6065 -0.0274  0.7700
  675SOL    HW2 2699   3.101   0.931   1.003  0.2606 -3.1997  0.9867
  675SOL     MW 2700   3.078   0.881   1.070  0.1117 -0.7130  0.2804
  676SOL     OW 2701   2.932   1.488   1.682  0.3085 -0.2092 -0.3541
  676SOL    HW1 2702   2.889   1.424   1.627  1.7928  2.3942  0.6133
  676SOL    HW2 2703   3.003   1.435   1.711  0.7639  0.6305 -0.6888
  676SOL     MW 2704   2.935   1.472   1.678  0.5644  0.2451 -0.2706
  677SOL     OW 2705   2.362   0.599   2.021  0.1951 -0.4372 -0.1956
  677SOL    HW1 2706   2.333   0.543   1.950 -0.7813  3.3599 -0.0904
  677SOL    HW2 2707   2.303   0.670   2.018  1.6815 -2.5443  1.4499
  677SOL     MW 2708   2.350   0.601   2.011  0.2624 -0.2142  0.0354
  678SOL     OW 2709   2.532   1.702   0.301 -0.6068  0.2405  0.7900
  678SOL    HW1 2710   2.447   1.726   0.342  0.9344 -1.5004  1.2984
  678SOL    HW2 2711   2.509   1.612   0.266 -0.4366 -1.5690 -0.6196
  678SOL     MW 2712   2.518   1.693   0.301 -0.3810 -0.2279  0.6711
  679SOL     OW 2713   2.217   0.436   1.297  0.4737 -0.2924 -0.2974
  679SOL    HW1 2714   2.228   0.361   1.239 -1.8082 -1.8227  0.8489
  679SOL    HW2 2715   2.132   0.420   1.339 -0.2064  0.6083 -0.2491
  679SOL     MW 2716   2.207   0.424   1.295  0.0829 -0.3755 -0.1398
  680SOL     OW 2717   2.367   0.170   1.473  0.0493  0.2346 -0.1304
  680SOL    HW1 2718   2.282   0.200   1.469  1.3722  1.2590  0.5260
  680SOL    HW2 2719   2.378   0.101   1.396 -0.6182 -1.9777  0.0766
  680SOL     MW 2720   2.357   0.165   1.462  0.1358  0.0779 -0.0165
  681SOL     OW 2721   0.286   0.498   1.512  0.0305 -0.0676 -0.2189
  681SOL    HW1 2722   0.259   0.461   1.589  2.5224  0.2690 -2.0991
  681SOL    HW2 2723   0.379   0.509   1.535  2.2497 -0.2347  1.0187
  681SOL     MW 2724   0.295   0.494   1.525  0.6520 -0.0452 -0.3037
  682SOL     OW 2725   0.130   2.878   1.498  0.7162 -0.2576  0.3557
  682SOL    HW1 2726   0.205   2.852   1.550  2.0158  0.1222 -2.2582
  682SOL    HW2 2727   0.069   2.916   1.562 -2.1970 -0.3143  0.4608
  682SOL     MW 2728   0.132   2.879   1.513  0.5033 -0.2150  0.0247
  683SOL     OW 2729   2.052   0.792   2.981 -0.8715 -0.1838 -0.0165
  683SOL    HW1 2730   1.954   0.775   2.965 -0.7375 -0.9972  0.8261
  683SOL    HW2 2731   2.066   0.873   3.029  0.7892 -1.3087 -0.2171
  683SOL     MW 2732   2.041   0.800   2.985 -0.6347 -0.4396  0.0682
  684SOL     OW 2733   2.235   1.671   0.734 -0.1008 -0.4823 -1.0888
  684SOL    HW1 2734   2.217   1.617   0.660 -0.5550 -0.4738  0.6939
  684SOL    HW2 2735   2.242   1.610   0.811  0.9554 -0.1846 -0.2572
  684SOL     MW 2736   2.233   1.656   0.735 -0.0214 -0.4419 -0.7439
  685SOL     OW 2737   2.611   1.721   1.217 -0.2505  0.1752 -0.3582
  685SOL    HW1 2738   2.685   1.700   1.273 -0.0625  0.3951 -0.7261
  685SOL    HW2 2739   2.581   1.640   1.181  0.0441  2.1281 -1.1911
  685SOL     MW 2740   2.617   1.707   1.220 -0.1868  0.4619 -0.5166
  686SOL     OW 2741   2.899   0.784   1.519 -0.1536 -0.2181 -0.3003
  686SOL    HW1 2742   2.848   0.730   1.580  1.3583 -1.3602  0.4502
  686SOL    HW2 2743   2.987   0.751   1.528 -0.8274 -4.9084 -2.5090
  686SOL     MW 2744   2.904   0.773   1.528 -0.0430 -0.9876 -0.4927
  687SOL     OW 2745   2.152   0.192   1.157  0.0051  0.1896  0.1963
  687SOL    HW1 2746   2.236   0.151   1.123  0.5056 -0.8990 -2.3473
  687SOL    HW2 2747   2.088   0.223   1.094  2.8527  3.1632 -0.0204
  687SOL     MW 2748   2.155   0.191   1.145  0.4468  0.4383 -0.1679
  688SOL     OW 2749   2.413   0.589   1.445  0.4821 -0.1017 -0.0861
  688SOL    HW1 2750   2.351   0.537   1.386 -1.8115  0.0816 -2.0343
  688SOL    HW2 2751   2.351   0.634   1.509 -1.9412  3.4603  2.1668
  688SOL     MW 2752   2.397   0.588   1.446 -0.1403  0.3925 -0.0459
  689SOL     OW 2753   2.458   0.755   2.978  0.3220 -0.2786  0.0503
  689SOL    HW1 2754   2.495   0.842   2.950 -2.3212  0.0708 -2.4544
  689SOL    HW2 2755   2.522   0.720   3.045  1.9565 -1.9697 -1.2029
  689SOL     MW 2756   2.471   0.762   2.983  0.1889 -0.4556 -0.4455
  690SOL     OW 2757   2.015   0.863   1.844 -0.7872 -0.6209  0.3627
  690SOL    HW1 2758   1.988   0.771   1.833 -3.9174 -1.3539 -0.3165
  690SOL    HW2 2759   2.051   0.884   1.755 -1.0456 -1.1979  1.4847
  690SOL     MW 2760   2.016   0.854   1.831 -1.2343 -0.7937  0.4211
  691SOL     OW 2761   2.400   0.328   0.902  0.2268 -0.3483 -0.0881
  691SOL    HW1 2762   2.476   0.379   0.926  2.2940  2.2534 -0.9638
  691SOL    HW2 2763   2.321   0.381   0.905 -0.2937 -0.0901 -1.8326
  691SOL     MW 2764   2.399   0.342   0.905  0.4309  0.0291 -0.4338
  692SOL     OW 2765   2.833   1.709   1.395  0.0983 -0.1098  0.6105
  692SOL    HW1 2766   2.817   1.655   1.473 -0.5055 -2.0993  1.0987
  692SOL    HW2 2767   2.891   1.780   1.437  2.6494 -1.6752  1.7135
  692SOL     MW 2768   2.839   1.712   1.411  0.3552 -0.5788  0.8205
  693SOL     OW 2769   2.257   0.402   0.141  0.0348 -0.2004 -0.0975
  693SOL    HW1 2770   2.191   0.339   0.128  1.2210  1.1798  1.9198
  693SOL    HW2 2771   2.223   0.483   0.099 -2.3221  1.2362 -1.0733
  693SOL     MW 2772   2.244   0.404   0.134 -0.1196  0.1712  0.0399
  694SOL     OW 2773   1.945   1.202   1.193  0.2341 -0.0275 -0.1554
  694SOL    HW1 2774   2.043   1.187   1.189  2.2257  0.4503 -1.0929
  694SOL    HW2 2775   1.895   1.128   1.229 -0.1530  1.0976  0.5790
  694SOL     MW 2776   1.951   1.190   1.197  0.4458  0.1840 -0.1822
  695SOL     OW 2777   3.026   1.536   1.289  0.2390  0.5595 -0.4761
  695SOL    HW1 2778   2.988   1.478   1.216 -0.7074  0.8531 -0.5839
  695SOL    HW2 2779   2.954   1.595   1.297  0.8126 -1.3191  0.7390
  695SOL     MW 2780   3.011   1.536   1.281  0.1898  0.3504 -0.3300
  696SOL     OW 2781   2.125   1.343   0.827  0.0730  0.9714  0.0302
  696SOL    HW1 2782   2.168   1.386   0.900 -1.8170 -1.1751 -2.6158
  696SOL    HW2 2783   2.078   1.259   0.852  0.8105  0.2760  0.2951
  696SOL     MW 2784   2.124   1.338   0.840 -0.0791  0.5965 -0.2840
  697SOL     OW 2785   2.905   1.051   2.220 -0.0957  0.5672  0.1819
  697SOL    HW1 2786   2.831   1.106   2.200  1.1309 -1.5909 -0.4050
  697SOL    HW2 2787   2.896   0.972   2.172  1.3180  0.6756  0.8831
  697SOL     MW 2788   2.894   1.048   2.211  0.2527  0.2968  0.1970
  698SOL     OW 2789   2.553   0.341   0.005 -0.2534  0.1649 -0.1555
  698SOL    HW1 2790   2.465   0.349   0.045  0.6646 -1.3444  4.0036
  698SOL    HW2 2791   2.597   0.287   0.071 -2.4541  1.7644  0.9186
  698SOL     MW 2792   2.547   0.335   0.019 -0.4226  0.1768  0.5350
  699SOL     OW 2793   1.798   1.577   2.073  0.4876 -0.4401  0.0553
  699SOL    HW1 2794   1.764   1.487   2.074 -0.8363 -0.5132  1.6035
  699SOL    HW2 2795   1.887   1.557   2.038 -0.4662  3.1721 -2.4744
  699SOL     MW 2796   1.805   1.563   2.068  0.1871  0.0268 -0.0742
  700SOL     OW 2797   2.665   0.934   1.473 -0.0560 -0.3605 -0.3016
  700SOL    HW1 2798   2.694   1.008   1.415  1.2308 -0.8922 -1.7695
  700SOL    HW2 2799   2.747   0.878   1.480  0.8224 -1.2150 -0.9502
  700SOL     MW 2800   2.679   0.936   1.466  0.2297 -0.5434 -0.5808
  701SOL     OW 2801   1.652   1.192   2.471  0.1136  0.1336  0.8210
  701SOL    HW1 2802   1.745   1.215   2.452 -1.0924  0.6098  0.7923
  701SOL    HW2 2803   1.623   1.251   2.536  0.3850 -0.2539  0.2660
  701SOL     MW 2804   1.660   1.203   2.477 -0.0097  0.1453  0.7440
  702SOL     OW 2805   2.140   0.418   0.847  0.2941 -0.4814  0.0482
  702SOL    HW1 2806   2.104   0.338   0.802  1.7141  2.5432 -1.5129
  702SOL    HW2 2807   2.176   0.480   0.783 -1.0664  3.2709  1.5819
  702SOL     MW 2808   2.140   0.415   0.833  0.3020  0.4127  0.0446
  703SOL     OW 2809   2.726   1.207   1.063 -0.2047 -0.3523  0.5281
  703SOL    HW1 2810   2.676   1.196   0.974 -0.9412 -2.5612 -0.5069
  703SOL    HW2 2811   2.777   1.127   1.071  0.5046 -2.2664  1.0371
  703SOL     MW 2812   2.726   1.195   1.052 -0.2083 -0.8963  0.4587
  704SOL     OW 2813   3.028   1.176   0.071  0.6296 -0.0140 -0.6650
  704SOL    HW1 2814   2.930   1.190   0.070 -0.5759  0.1459 -0.5590
  704SOL    HW2 2815   3.058   1.129   0.155  0.0932 -1.8673  2.2031
  704SOL     MW 2816   3.019   1.171   0.082  0.3998 -0.2374 -0.2726
  705SOL     OW 2817   2.181   1.629   1.246 -0.7137  0.0902 -0.3950
  705SOL    HW1 2818   2.106   1.627   1.310  1.4184  0.6745 -0.5361
  705SOL    HW2 2819   2.224   1.543   1.269 -1.0646 -1.0529 -2.8765
  705SOL     MW 2820   2.177   1.618   1.258 -0.4787  0.0165 -0.7411
  706SOL     OW 2821   3.024   1.236   0.651  0.3701  0.3704 -0.1442
  706SOL    HW1 2822   3.088   1.234   0.572  2.5736 -0.7417 -1.2742
  706SOL    HW2 2823   2.971   1.315   0.653 -1.2482 -3.0477 -0.4860
  706SOL     MW 2824   3.026   1.246   0.641  0.4473 -0.2273 -0.3384
  707SOL     OW 2825   2.358   0.069   1.038 -0.4103 -0.2084  0.3868
  707SOL    HW1 2826   2.376   0.149   0.992 -2.0727  3.6622  1.4657
  707SOL    HW2 2827   2.277   0.030   0.992 -0.1065  0.6471 -1.2391
  707SOL     MW 2828   2.349   0.074   1.026 -0.5896  0.4151  0.3146
  708SOL     OW 2829   2.412   1.429   0.194 -0.4306 -0.3474 -0.0154
  708SOL    HW1 2830   2.498   1.394   0.194 -0.2114 -2.5166 -1.4853
  708SOL    HW2 2831   2.416   1.475   0.109  2.7564  1.2946  2.4342
  708SOL     MW 2832   2.424   1.431   0.183  0.0188 -0.4170  0.1138
  709SOL     OW 2833   1.775   1.630   0.210  0.1809  0.1467 -0.1713
  709SOL    HW1 2834   1.764   1.666   0.126 -1.8339 -0.9312 -1.5889
  709SOL    HW2 2835   1.704   1.661   0.267  0.2267  1.1158 -0.6633
  709SOL     MW 2836   1.764   1.639   0.207 -0.0789  0.1323 -0.4233
  710SOL     OW 2837   2.207   1.195   1.179  0.0796 -0.5472 -0.4432
  710SOL    HW1 2838   2.211   1.160   1.088 -3.3742  2.0390  0.1635
  710SOL    HW2 2839   2.230   1.120   1.240  1.2163 -4.1676 -1.8964
  710SOL     MW 2840   2.210   1.180   1.175 -0.2261 -0.6836 -0.5548
  711SOL     OW 2841   2.333   0.147   1.744  0.0438  0.5497 -0.5118
  711SOL    HW1 2842   2.425   0.154   1.775  0.2792 -0.5092 -2.1100
  711SOL    HW2 2843   2.337   0.151   1.647 -0.4978 -1.3400  1.8165
  711SOL     MW 2844   2.346   0.148   1.735  0.0034  0.1606 -0.4155
  712SOL     OW 2845   1.909   0.506   0.125  0.0270  0.2911 -0.4962
  712SOL    HW1 2846   1.870   0.510   0.038 -0.3478 -0.8514  3.0722
  712SOL    HW2 2847   1.926   0.603   0.140  0.6487 -1.0684 -3.7017
  712SOL     MW 2848   1.906   0.519   0.115  0.0596 -0.0390 -0.4483
  713SOL     OW 2849   2.562   0.856   1.086  0.0709 -0.3642 -0.1423
  713SOL    HW1 2850   2.571   0.786   1.145 -4.0912  0.4820  0.1336
  713SOL    HW2 2851   2.482   0.902   1.126  1.0025  1.5472  2.4655
  713SOL     MW 2852   2.553   0.852   1.099 -0.3553 -0.0003  0.2382
  714SOL     OW 2853   2.223   0.232   2.019  0.0437 -0.5566 -0.4127
  714SOL    HW1 2854   2.257   0.188   2.095  0.6688  0.5253  2.2988
  714SOL    HW2 2855   2.267   0.207   1.937 -0.6234  0.0839 -2.8462
  714SOL     MW 2856   2.233   0.223   2.018  0.0381 -0.3294 -0.3760
  715SOL     OW 2857   1.752   1.868   1.668 -0.0290 -0.1166  0.4883
  715SOL    HW1 2858   1.843   1.843   1.643 -2.0689 -1.7609 -0.3449
  715SOL    HW2 2859   1.734   1.825   1.749  1.1875  1.8528  0.2427
  715SOL     MW 2860   1.762   1.859   1.676 -0.1377 -0.0737  0.3460
  716SOL     OW 2861   2.306   0.585   0.715  0.0374  0.2372  0.7323
  716SOL    HW1 2862   2.359   0.509   0.679 -1.2758 -0.5741  0.5421
  716SOL    HW2 2863   2.267   0.628   0.639  1.6996 -1.1195  0.3838
  716SOL     MW 2864   2.308   0.581   0.700  0.0834 -0.0488  0.6612
  717SOL     OW 2865   2.860   1.602   2.880 -0.0604  0.6602 -0.4730
  717SOL    HW1 2866   2.950   1.608   2.916 -2.0233  1.8451 -0.8786
  717SOL    HW2 2867   2.798   1.638   2.944 -0.4514 -0.5392 -0.4546
  717SOL     MW 2868   2.863   1.608   2.893 -0.3710  0.6583 -0.5241
  718SOL     OW 2869   2.680   1.405   1.329 -0.1641  0.2704  0.2152
  718SOL    HW1 2870   2.641   1.435   1.409 -0.9017  0.9779 -2.6232
  718SOL    HW2 2871   2.708   1.317   1.345 -2.2647  0.7555  3.4671
  718SOL     MW 2872   2.679   1.397   1.342 -0.5386  0.4278  0.2697
  719SOL     OW 2873   2.187   1.294   0.579  0.2139  0.0522  0.6112
  719SOL    HW1 2874   2.284   1.299   0.571 -2.6751  0.7988 -0.4209
  719SOL    HW2 2875   2.174   1.296   0.678 -1.5659  0.1090 -0.2007
  719SOL     MW 2876   2.198   1.295   0.591 -0.4021  0.1582  0.3679
  720SOL     OW 2877   2.755   1.205   0.025  0.2569 -0.3125 -0.0143
  720SOL    HW1 2878   2.760   1.142   0.094  0.9750 -0.5515  0.4595
  720SOL    HW2 2879   2.726   1.271   0.090 -0.6896 -0.3412  1.7014
  720SOL     MW 2880   2.752   1.205   0.043  0.2267 -0.3478  0.2746
  721SOL     OW 2881   2.443   0.842   1.365  0.2914  0.0884 -0.1406
  721SOL    HW1 2882   2.452   0.749   1.393  1.8425 -1.1906  0.0043
  721SOL    HW2 2883   2.516   0.887   1.410 -2.1288  0.2373  0.2807
  721SOL     MW 2884   2.454   0.836   1.375  0.1767 -0.0607 -0.0659
  722SOL     OW 2885   2.589   1.129   0.411  0.0326 -0.4733 -0.4697
  722SOL    HW1 2886   2.521   1.186   0.449 -0.0496 -1.7034 -0.9961
  722SOL    HW2 2887   2.664   1.132   0.478 -0.1404 -2.2816 -2.7240
  722SOL     MW 2888   2.590   1.137   0.425 -0.0011 -0.8742 -0.8365
  723SOL     OW 2889   2.317   1.373   1.588  0.9543  0.2627  0.1702
  723SOL    HW1 2890   2.340   1.391   1.497 -2.1721  0.8290  0.6754
  723SOL    HW2 2891   2.239   1.433   1.604  2.7451 -1.2700  2.4670
  723SOL     MW 2892   2.310   1.384   1.578  0.7781  0.1352  0.5399
  724SOL     OW 2893   2.445   0.378   0.610 -0.3128 -0.5518 -0.3988
  724SOL    HW1 2894   2.452   0.329   0.695 -0.7230  1.8710 -0.1420
  724SOL    HW2 2895   2.535   0.405   0.588 -0.7453  0.7871 -2.5599
  724SOL     MW 2896   2.458   0.375   0.618 -0.4240 -0.0555 -0.6500
  725SOL     OW 2897   2.541   0.574   1.197 -0.1904  0.2685  0.5124
  725SOL    HW1 2898   2.622   0.594   1.243  1.6978 -1.0846 -0.8667
  725SOL    HW2 2899   2.489   0.515   1.247 -0.7962 -2.3665 -0.0221
  725SOL     MW 2900   2.545   0.569   1.210 -0.0212 -0.2577  0.2599
  726SOL     OW 2901   2.566   2.449   0.557 -0.4604  0.0914  0.0372
  726SOL    HW1 2902   2.523   2.505   0.494 -2.4431 -0.0017  2.1711
  726SOL    HW2 2903   2.508   2.419   0.621  1.9140  0.9786 -1.0246
  726SOL     MW 2904   2.553   2.452   0.557 -0.4087  0.1962  0.1787
  727SOL     OW 2905   2.912   0.381   1.693  0.7401 -0.6077  0.0188
  727SOL    HW1 2906   2.860   0.351   1.613  1.3755 -3.2824  2.5738
  727SOL    HW2 2907   2.863   0.345   1.770 -0.8724  3.8802  0.7721
  727SOL     MW 2908   2.899   0.372   1.692  0.6112 -0.3684  0.4553
  728SOL     OW 2909   2.816   1.185   2.858 -0.5550  0.0945  0.5047
  728SOL    HW1 2910   2.796   1.256   2.791 -3.3831 -0.6046 -1.7002
  728SOL    HW2 2911   2.794   1.218   2.943  0.4734 -1.5326 -0.0052
  728SOL     MW 2912   2.811   1.199   2.860 -0.7924 -0.2124  0.1465
  729SOL     OW 2913   2.516   1.491   1.123 -0.2309 -0.5118 -0.1599
  729SOL    HW1 2914   2.586   1.450   1.172  1.8597  2.4635  0.6503
  729SOL    HW2 2915   2.542   1.477   1.030  0.7166  2.2061 -2.8057
  729SOL     MW 2916   2.529   1.484   1.117  0.1699  0.2393 -0.4021
  730SOL     OW 2917   2.252   1.179   0.169  1.1542  0.0696  0.1586
  730SOL    HW1 2918   2.331   1.125   0.175 -1.9607 -0.0838  1.8395
  730SOL    HW2 2919   2.274   1.258   0.218  0.7351  0.1997 -3.4268
  730SOL     MW 2920   2.265   1.182   0.176  0.6880  0.0665 -0.0927
  731SOL     OW 2921   2.757   1.897   2.851 -0.0077 -0.1219  0.0338
  731SOL    HW1 2922   2.698   1.922   2.780  0.0521  1.1863  1.4789
  731SOL    HW2 2923   2.836   1.952   2.823  0.3396  0.1206  0.7715
  731SOL     MW 2924   2.760   1.908   2.838  0.0460  0.0827  0.3218
  732SOL     OW 2925   2.215   1.004   1.367  0.0583 -0.1397  0.0037
  732SOL    HW1 2926   2.185   0.999   1.456  1.2514  0.6656  0.0075
  732SOL    HW2 2927   2.286   0.946   1.358 -0.8433  0.0623 -0.2709
  732SOL     MW 2928   2.220   0.996   1.377  0.0968 -0.0068 -0.0320
  733SOL     OW 2929   2.361   2.757   3.018 -0.2065  0.1392 -0.1992
  733SOL    HW1 2930   2.278   2.808   3.003  0.4929  1.0878  1.2609
  733SOL    HW2 2931   2.327   2.672   3.053  1.1131 -2.5543 -0.8230
  733SOL     MW 2932   2.345   2.752   3.021  0.0599 -0.0910 -0.0889
  734SOL     OW 2933   1.442   0.368   2.446 -0.2976 -0.3827  0.0366
  734SOL    HW1 2934   1.432   0.342   2.536  0.2718 -2.6352 -1.8854
  734SOL    HW2 2935   1.480   0.292   2.397  0.0002 -0.4016 -0.9074
  734SOL     MW 2936   1.446   0.354   2.451 -0.1832 -0.6824 -0.3416
  735SOL     OW 2937   2.928   0.884   2.623  0.1528  0.5487 -0.0260
  735SOL    HW1 2938   2.934   0.790   2.590 -0.0240 -1.8365 -0.7458
  735SOL    HW2 2939   2.967   0.887   2.712 -2.1268 -0.6513  1.1379
  735SOL     MW 2940   2.934   0.872   2.631 -0.1713  0.0756  0.0326
  736SOL     OW 2941   0.079   0.579   2.476  0.4598  0.2850  0.2717
  736SOL    HW1 2942   0.142   0.644   2.452 -0.9329 -0.8330  0.7357
  736SOL    HW2 2943   0.081   0.506   2.415 -0.4249  0.9724  0.4567
  736SOL     MW 2944   0.087   0.578   2.465  0.1593  0.2282  0.3574
  737SOL     OW 2945   2.928   0.626   2.562 -0.3385 -0.2055  0.3050
  737SOL    HW1 2946   2.884   0.582   2.488 -0.3124  0.9651  2.3796
  737SOL    HW2 2947   3.029   0.623   2.539 -1.1430 -0.2062 -1.3664
  737SOL     MW 2948   2.935   0.619   2.549 -0.4412 -0.0511  0.3582
  738SOL     OW 2949   0.157   0.618   1.892 -0.5711 -0.6569 -0.0435
  738SOL    HW1 2950   0.243   0.639   1.927 -0.0671  2.6811  1.0559
  738SOL    HW2 2951   0.169   0.545   1.833  0.1476 -0.7746  1.6101
  738SOL     MW 2952   0.170   0.611   1.889 -0.4098 -0.2320  0.3198
  739SOL     OW 2953   2.457   1.016   2.055  0.5050 -0.2555 -0.0435
  739SOL    HW1 2954   2.377   0.973   2.028 -2.1581  2.3599  3.0985
  739SOL    HW2 2955   2.499   1.023   1.971  0.6008 -1.5959 -0.3839
  739SOL     MW 2956   2.452   1.012   2.040  0.1663 -0.0873  0.3261
  740SOL     OW 2957   0.277   1.744   2.941 -0.2268 -0.5353 -0.2750
  740SOL    HW1 2958   0.207   1.677   2.951 -1.6537 -0.5160 -1.1197
  740SOL    HW2 2959   0.364   1.708   2.952 -1.9733  0.0064  1.1386
  740SOL     MW 2960   0.279   1.731   2.944 -0.6455 -0.4613 -0.1999
  741SOL     OW 2961   2.236   1.166   2.744 -0.5407 -0.5377 -0.0341
  741SOL    HW1 2962   2.176   1.208   2.675 -0.0287  0.6162 -1.3723
  741SOL    HW2 2963   2.219   1.230   2.818  0.7558  1.0191  2.4225
  741SOL     MW 2964   2.226   1.180   2.745 -0.3021 -0.1801  0.1135
  742SOL     OW 2965   1.501   1.232   2.213 -0.4838 -0.0196  0.2699
  742SOL    HW1 2966   1.494   1.139   2.185 -0.5211  1.1544 -1.7153
  742SOL    HW2 2967   1.520   1.228   2.305 -0.1075  0.6705 -1.3776
  742SOL     MW 2968   1.502   1.219   2.221 -0.4390  0.2264 -0.2094
  743SOL     OW 2969   2.497   1.307   2.716 -1.0984  0.7468 -0.2348
  743SOL    HW1 2970   2.411   1.289   2.744  0.3410 -1.4385 -3.0958
  743SOL    HW2 2971   2.539   1.215   2.720  0.4829 -1.3119  0.5776
  743SOL     MW 2972   2.491   1.293   2.720 -0.6999  0.1868 -0.5051
  744SOL     OW 2973   2.765   0.966   1.775  0.3093  0.1869  0.2165
  744SOL    HW1 2974   2.704   1.038   1.775  4.8063  1.4627 -0.8062
  744SOL    HW2 2975   2.741   0.914   1.701 -1.9217  2.9404 -0.6254
  744SOL     MW 2976   2.754   0.969   1.765  0.6083  0.7185 -0.0295
  745SOL     OW 2977   1.699   0.456   2.486 -0.7320  0.0489 -0.4759
  745SOL    HW1 2978   1.719   0.473   2.396 -0.0791 -2.1100 -2.1100
  745SOL    HW2 2979   1.622   0.396   2.483 -0.7329 -2.1643  2.7264
  745SOL     MW 2980   1.692   0.450   2.474 -0.6460 -0.5280 -0.2690
  746SOL     OW 2981   1.573   1.435   1.583  0.5041 -0.0523 -0.8189
  746SOL    HW1 2982   1.662   1.446   1.620  1.6900  1.1974  1.7061
  746SOL    HW2 2983   1.516   1.412   1.656  0.3662 -1.8265 -0.4416
  746SOL     MW 2984   1.577   1.433   1.598  0.6424 -0.1215 -0.4360
  747SOL     OW 2985   2.540   1.171   1.794 -0.4219  0.3366  0.2517
  747SOL    HW1 2986   2.450   1.140   1.770 -0.6962 -0.2070 -3.9617
  747SOL    HW2 2987   2.551   1.215   1.881 -0.1913 -0.7566 -0.3195
  747SOL     MW 2988   2.529   1.173   1.802 -0.4277  0.1206 -0.3796
  748SOL     OW 2989   0.143   0.032   1.801 -0.4026 -0.5094  0.3545
  748SOL    HW1 2990   0.211  -0.028   1.838  2.0735 -0.3462 -0.5115
  748SOL    HW2 2991   0.095   0.067   1.877  2.3254  0.1270 -1.4874
  748SOL     MW 2992   0.146   0.029   1.816  0.2840 -0.4039 -0.0028
  749SOL     OW 2993   2.434   0.546   2.789 -0.3915  0.0493 -0.9207
  749SOL    HW1 2994   2.471   0.612   2.727 -1.6377  0.2382  1.0338
  749SOL    HW2 2995   2.412   0.600   2.873 -0.6846 -0.7530 -0.8670
  749SOL     MW 2996   2.436   0.562   2.792 -0.5946 -0.0316 -0.6557
  750SOL     OW 2997   2.048   3.096   1.974 -0.1895  0.1035  0.2479
  750SOL    HW1 2998   2.070   3.188   1.995  1.0466  2.6912 -2.3220
  750SOL    HW2 2999   2.125   3.039   1.980 -3.0910  0.3924  2.4500
  750SOL     MW 3000   2.061   3.101   1.977 -0.4093  0.4831  0.1994
  751SOL     OW 3001   0.042   0.393   2.285 -0.0924 -0.5386 -0.1412
  751SOL    HW1 3002  -0.028   0.338   2.329  2.3577  2.2646  1.0652
  751SOL    HW2 3003   0.106   0.319   2.272  0.2334 -0.7003  0.6308
  751SOL     MW 3004   0.041   0.376   2.289  0.2738 -0.1901  0.1198
  752SOL     OW 3005   2.134   0.818   2.667  0.3867  0.2427 -0.7300
  752SOL    HW1 3006   2.209   0.871   2.636  1.1630 -1.2985  0.8367
  752SOL    HW2 3007   2.111   0.849   2.753  0.4844  0.3481 -0.7953
  752SOL     MW 3008   2.141   0.829   2.675  0.5020  0.0532 -0.5319
  753SOL     OW 3009   2.927   0.248   2.396  0.1820  0.6757  0.1280
  753SOL    HW1 3010   2.890   0.184   2.338  1.0231 -0.9454 -0.2262
  753SOL    HW2 3011   2.866   0.320   2.390 -1.9194  0.1708  1.8314
  753SOL     MW 3012   2.914   0.249   2.388  0.0157  0.3952  0.3060
  754SOL     OW 3013   2.243   2.993   2.638 -0.8051  0.1763 -0.4873
  754SOL    HW1 3014   2.257   2.978   2.545 -1.1865 -0.6013 -0.7166
  754SOL    HW2 3015   2.308   2.942   2.686  0.9789 -0.8656  0.3653
  754SOL     MW 3016   2.253   2.985   2.632 -0.6201 -0.0637 -0.4051
  755SOL     OW 3017   2.729   1.583   2.485 -0.3785 -0.8163 -0.1881
  755SOL    HW1 3018   2.744   1.503   2.540  2.1797 -1.3373  1.0588
  755SOL    HW2 3019   2.798   1.637   2.527  1.8868  0.5141  0.2193
  755SOL     MW 3020   2.740   1.579   2.498  0.2579 -0.7095  0.0302
  756SOL     OW 3021   2.260   1.346   2.947 -0.2440  0.1314  0.0505
  756SOL    HW1 3022   2.306   1.434   2.960  2.9736 -0.9976  1.4306
  756SOL    HW2 3023   2.319   1.286   2.997 -1.2236 -2.7210 -0.1528
  756SOL     MW 3024   2.274   1.350   2.956  0.0513 -0.3939  0.2057
  757SOL     OW 3025   2.106   0.956   1.624  0.5702 -0.2869 -0.4848
  757SOL    HW1 3026   2.134   0.861   1.612  0.8495 -0.1937  0.0719
  757SOL    HW2 3027   2.008   0.961   1.596  1.6668  0.0973 -2.0515
  757SOL     MW 3028   2.097   0.944   1.619  0.7517 -0.2239 -0.6180
  758SOL     OW 3029   2.192   1.781   2.611  0.1819 -0.6015  0.0001
  758SOL    HW1 3030   2.205   1.778   2.515 -1.5932 -0.5326  0.4604
  758SOL    HW2 3031   2.269   1.736   2.639 -1.1996  0.0615 -0.7731
  758SOL     MW 3032   2.204   1.775   2.602 -0.2346 -0.5050 -0.0412
  759SOL     OW 3033   1.605   1.352   2.725  0.4208 -0.0570 -0.2262
  759SOL    HW1 3034   1.580   1.432   2.672  0.3509  0.8224  2.7091
  759SOL    HW2 3035   1.684   1.378   2.766  1.7259  0.4108 -0.7033
  759SOL     MW 3036   1.612   1.366   2.723  0.5838  0.1207  0.0981
  760SOL     OW 3037   2.542   1.989   2.688 -0.3435  0.2670 -0.4073
  760SOL    HW1 3038   2.502   1.898   2.671 -0.4479  4.5281  1.9696
  760SOL    HW2 3039   2.566   2.040   2.603 -0.4529  1.4765  0.1610
  760SOL     MW 3040   2.540   1.984   2.674 -0.3717  0.9888 -0.0187
  761SOL     OW 3041   2.123   0.423   2.470  0.3599 -0.1997  0.2364
  761SOL    HW1 3042   2.074   0.341   2.497 -1.2152 -0.4090 -0.5387
  761SOL    HW2 3043   2.162   0.455   2.552  2.5043 -1.1072  1.9467
  761SOL     MW 3044   2.122   0.417   2.485  0.4350 -0.3471  0.3598
  762SOL     OW 3045   3.083   0.136   1.996  0.2493 -0.2184  0.0389
  762SOL    HW1 3046   3.066   0.083   2.070  0.3641 -1.4108 -0.5779
  762SOL    HW2 3047   3.018   0.208   1.997 -1.9233 -1.0508  0.6590
  762SOL     MW 3048   3.072   0.138   2.006 -0.0222 -0.4855  0.0393
  763SOL     OW 3049   2.424   1.075   2.336 -0.0019  0.2980  0.0313
  763SOL    HW1 3050   2.466   1.054   2.247 -0.7974 -1.1594 -1.0682
  763SOL    HW2 3051   2.485   1.144   2.370  1.8591 -0.0666 -0.5906
  763SOL     MW 3052   2.437   1.081   2.329  0.1387  0.0576 -0.1958
  764SOL     OW 3053   0.447   0.236   2.775  0.6542  0.5331 -0.2691
  764SOL    HW1 3054   0.372   0.247   2.717  1.6714 -0.1795  0.7929
  764SOL    HW2 3055   0.448   0.317   2.823  2.8243  0.0180 -0.9651
  764SOL     MW 3056   0.437   0.249   2.774  1.0747  0.3711 -0.2208
  765SOL     OW 3057   2.728   0.094   2.274  0.1216  0.2616  0.0112
  765SOL    HW1 3058   2.679   0.057   2.195  0.8346 -0.3869 -0.1891
  765SOL    HW2 3059   2.767   0.013   2.316  2.2846 -0.6156  0.0180
  765SOL     MW 3060   2.727   0.079   2.269  0.5011  0.0603 -0.0143
  766SOL     OW 3061   1.852   3.028   2.188 -0.6508 -0.5617  0.3126
  766SOL    HW1 3062   1.907   3.090   2.143 -1.3662 -0.8136  2.3077
  766SOL    HW2 3063   1.821   2.959   2.124 -1.3368  1.2493 -0.3241
  766SOL     MW 3064   1.855   3.027   2.174 -0.8357 -0.3560  0.4918
  767SOL     OW 3065   2.648   0.624   1.950  0.1550 -0.6596 -0.1512
  767SOL    HW1 3066   2.695   0.701   1.987 -0.7598  1.7683 -1.8573
  767SOL    HW2 3067   2.555   0.646   1.965 -0.7013 -0.8024 -0.3844
  767SOL     MW 3068   2.642   0.637   1.957 -0.0786 -0.3581 -0.4071
  768SOL     OW 3069   0.020   1.560   2.989 -0.1087  0.2016  0.5673
  768SOL    HW1 3070   0.031   1.531   3.078 -2.1294 -2.2752 -0.8750
  768SOL    HW2 3071   0.035   1.489   2.922  0.3151 -1.3123 -0.3356
  768SOL     MW 3072   0.024   1.547   2.992 -0.3194 -0.3250  0.2579
  769SOL     OW 3073   2.351   0.701   2.283  0.3310  0.2278  0.4729
  769SOL    HW1 3074   2.271   0.646   2.270 -2.5506  0.5851 -0.5915
  769SOL    HW2 3075   2.414   0.668   2.224 -0.8655  2.1861  0.3578
  769SOL     MW 3076   2.349   0.689   2.274 -0.2071  0.5333  0.3173
  770SOL     OW 3077   0.095   1.648   2.631  0.1391 -0.1101  0.0849
  770SOL    HW1 3078  -0.001   1.656   2.610 -0.4848  2.4055  1.0191
  770SOL    HW2 3079   0.090   1.573   2.692 -2.3183 -1.3004  3.0561
  770SOL     MW 3080   0.082   1.639   2.637 -0.2675  0.0647  0.6002
  771SOL     OW 3081   2.995   0.636   1.937 -1.0253  0.2479 -0.4627
  771SOL    HW1 3082   2.938   0.646   1.859  2.2495 -0.9070 -0.1109
  771SOL    HW2 3083   3.085   0.634   1.905  0.7456 -2.1158 -0.1378
  771SOL     MW 3084   2.999   0.637   1.923 -0.3596 -0.2164 -0.3734
  772SOL     OW 3085   3.072   0.009   2.239 -0.1173 -0.4300 -0.1767
  772SOL    HW1 3086   3.027  -0.037   2.304  1.7530  1.3721 -2.6556
  772SOL    HW2 3087   3.136  -0.049   2.204 -0.2934  1.3979  1.3171
  772SOL     MW 3088   3.074  -0.005   2.243  0.1062  0.0489 -0.3067
  773SOL     OW 3089   2.426   2.818   2.742  0.2617 -0.0242 -0.0189
  773SOL    HW1 3090   2.448   2.732   2.699  1.6418  1.3585 -0.0648
  773SOL    HW2 3091   2.408   2.779   2.832 -0.6977 -0.4401  1.3733
  773SOL     MW 3092   2.427   2.801   2.748  0.3172  0.1034  0.1587
  774SOL     OW 3093   2.274   1.144   1.741 -0.0266 -0.0568 -0.4581
  774SOL    HW1 3094   2.287   1.210   1.671  2.6963 -1.2866 -1.2203
  774SOL    HW2 3095   2.214   1.077   1.713  1.8300 -3.9317  2.8677
  774SOL     MW 3096   2.268   1.144   1.728  0.5776 -0.7303 -0.1199
  775SOL     OW 3097   2.294   2.939   2.372  1.2363 -0.5257 -0.8734
  775SOL    HW1 3098   2.303   3.023   2.330 -4.2546 -1.8620 -0.7720
  775SOL    HW2 3099   2.362   2.883   2.344  2.3357 -0.2274  1.2239
  775SOL     MW 3100   2.304   2.942   2.362  0.6569 -0.6627 -0.5833
  776SOL     OW 3101   0.051   1.421   0.150 -0.4016  0.0195 -0.5770
  776SOL    HW1 3102   0.137   1.394   0.148 -2.8813  1.2203 -0.8806
  776SOL    HW2 3103  -0.005   1.343   0.135 -0.4154 -1.9465 -2.2086
  776SOL     MW 3104   0.055   1.407   0.148 -0.7306 -0.0815 -0.8323
  777SOL     OW 3105   3.005   1.096   1.722 -0.0513 -0.5182  0.5566
  777SOL    HW1 3106   2.974   1.182   1.688 -0.2793  2.0951  1.2908
  777SOL    HW2 3107   2.919   1.045   1.735 -1.9559  0.3030  1.2567
  777SOL     MW 3108   2.989   1.100   1.719 -0.3326 -0.0651  0.7459
  778SOL     OW 3109   2.909   0.437   2.739 -0.5127 -0.3123  0.0444
  778SOL    HW1 3110   2.836   0.447   2.804 -0.5428  0.2296 -0.2045
  778SOL    HW2 3111   2.917   0.514   2.687  1.6352 -0.5298 -1.5035
  778SOL     MW 3112   2.900   0.449   2.741 -0.2333 -0.2695 -0.1927
  779SOL     OW 3113   2.095   0.611   2.283 -0.4845  0.5067  0.0541
  779SOL    HW1 3114   2.011   0.658   2.277  1.9402 -1.4684  1.1314
  779SOL    HW2 3115   2.077   0.537   2.358  1.5339  0.4852  2.5125
  779SOL     MW 3116   2.081   0.608   2.292  0.1017  0.2433  0.5206
  780SOL     OW 3117   0.145   0.190   2.763  0.5287  0.0966 -0.0252
  780SOL    HW1 3118   0.140   0.220   2.853  0.3963 -2.0665 -1.0048
  780SOL    HW2 3119   0.060   0.191   2.723  1.0220  0.1539 -1.0378
  780SOL     MW 3120   0.133   0.194   2.769  0.5763 -0.1812 -0.2880
  781SOL     OW 3121   3.042   1.322   2.509 -0.1321  0.3561 -0.3986
  781SOL    HW1 3122   3.039   1.369   2.425 -1.6972  0.3444 -1.3003
  781SOL    HW2 3123   3.056   1.226   2.491 -0.8520 -3.7172  0.7995
  781SOL     MW 3124   3.044   1.315   2.495 -0.4336 -0.1829 -0.3595
  782SOL     OW 3125   0.749   1.500   3.052  0.0426 -0.1876 -0.5331
  782SOL    HW1 3126   0.661   1.549   3.044  0.8184  0.4647 -1.4446
  782SOL    HW2 3127   0.783   1.526   3.140 -1.3130  3.0073  2.2347
  782SOL     MW 3128   0.742   1.510   3.063 -0.0339  0.3200 -0.2882
  783SOL     OW 3129   2.771   0.472   2.407  0.1695 -0.1873  0.4007
  783SOL    HW1 3130   2.705   0.457   2.339  1.3681  0.2752 -1.4064
  783SOL    HW2 3131   2.721   0.469   2.490  1.6074  0.2085 -0.0662
  783SOL     MW 3132   2.755   0.470   2.409  0.5174 -0.0741  0.1007
  784SOL     OW 3133   0.215   0.835   2.876  0.5357  0.2780 -0.0975
  784SOL    HW1 3134   0.165   0.911   2.913 -0.9472 -3.7024 -0.7347
  784SOL    HW2 3135   0.269   0.874   2.811 -2.1739  2.2938 -2.0677
  784SOL     MW 3136   0.216   0.850   2.873 -0.0175  0.0188 -0.4415
  785SOL     OW 3137   0.416   0.481   2.205  0.2519 -0.2223  0.1324
  785SOL    HW1 3138   0.398   0.557   2.146  1.1030 -0.5599 -1.6767
  785SOL    HW2 3139   0.343   0.415   2.212 -1.9660 -0.7049  0.0279
  785SOL     MW 3140   0.404   0.483   2.198  0.0716 -0.3305 -0.1201
  786SOL     OW 3141   1.980   0.428   2.939 -0.3851  0.6798  0.4804
  786SOL    HW1 3142   2.014   0.440   3.028 -0.1963 -1.4352 -3.7891
  786SOL    HW2 3143   2.056   0.464   2.883  0.0398  1.2217 -1.5394
  786SOL     MW 3144   1.995   0.434   2.944 -0.3041  0.4723 -0.3494
  787SOL     OW 3145   2.438   0.165   2.906 -0.1030 -0.2683  0.5753
  787SOL    HW1 3146   2.475   0.089   2.841 -0.2342  1.9841 -1.2005
  787SOL    HW2 3147   2.509   0.204   2.959 -3.0104  0.3048  1.5883
  787SOL     MW 3148   2.452   0.160   2.904 -0.5039  0.1045  0.4747
  788SOL     OW 3149   2.870   2.984   2.397  0.4442 -0.3445  0.1061
  788SOL    HW1 3150   2.863   2.990   2.489 -1.2040  0.6732 -0.2079
  788SOL    HW2 3151   2.911   2.898   2.372  0.8238 -0.4378  0.8471
  788SOL     MW 3152   2.875   2.974   2.406  0.2768 -0.2225  0.1624
  789SOL     OW 3153   0.058   0.294   2.991  0.1586  0.1628 -0.5112
  789SOL    HW1 3154  -0.003   0.225   3.004  1.0080 -0.1189 -3.2319
  789SOL    HW2 3155   0.014   0.382   2.984  1.2071  4.8292 -0.5544
  789SOL     MW 3156   0.044   0.297   2.991  0.4090  0.7413 -0.8758
  790SOL     OW 3157   3.066   1.045   2.454 -0.5511 -0.3312 -0.5370
  790SOL    HW1 3158   3.008   0.988   2.517 -1.1242  1.4620  0.7841
  790SOL    HW2 3159   3.010   1.061   2.370 -1.0429  2.0737 -1.2391
  790SOL     MW 3160   3.051   1.040   2.451 -0.6916  0.2227 -0.4553
  791SOL     OW 3161   2.628   0.377   2.620 -0.2666 -0.7264 -0.1095
  791SOL    HW1 3162   2.544   0.415   2.656  0.2331  0.5955  1.0992
  791SOL    HW2 3163   2.689   0.371   2.691 -1.2232  2.5966  0.3613
  791SOL     MW 3164   2.625   0.381   2.634 -0.3269 -0.1135  0.1121
  792SOL     OW 3165   2.345   0.292   2.403  0.3309 -0.4203  0.4165
  792SOL    HW1 3166   2.263   0.337   2.423 -0.1731 -0.7960 -0.5054
  792SOL    HW2 3167   2.349   0.217   2.471  0.1023 -0.7516  2.9354
  792SOL     MW 3168   2.334   0.288   2.415  0.2343 -0.5136  0.6272
  793SOL     OW 3169   1.846   1.025   1.975  0.2879  0.3271 -0.2071
  793SOL    HW1 3170   1.805   1.089   1.921  0.7196  2.7451 -1.7028
  793SOL    HW2 3171   1.918   0.984   1.919  4.0884 -2.8545 -0.2810
  793SOL     MW 3172   1.850   1.028   1.960  0.8463  0.2264 -0.4142
  794SOL     OW 3173   1.399   2.277   0.186  0.4433  0.3491 -0.1450
  794SOL    HW1 3174   1.417   2.352   0.125 -1.1175 -0.1341  0.9311
  794SOL    HW2 3175   1.471   2.274   0.247  0.2127 -0.1368 -2.9906
  794SOL     MW 3176   1.411   2.287   0.186  0.2069  0.2213 -0.3785
  795SOL     OW 3177   2.351   0.967   2.599 -0.1014  0.2261 -1.1193
  795SOL    HW1 3178   2.324   1.042   2.656  2.7119 -1.0206 -0.5480
  795SOL    HW2 3179   2.391   1.008   2.518  1.0468 -1.9847 -0.6159
  795SOL     MW 3180   2.353   0.982   2.596  0.4213 -0.2301 -0.9775
  796SOL     OW 3181   0.255   0.600   2.750 -0.1947  0.2166  0.0609
  796SOL    HW1 3182   0.207   0.659   2.802  0.2302  1.1998 -2.3672
  796SOL    HW2 3183   0.202   0.584   2.675 -1.2803 -1.2852 -0.0921
  796SOL     MW 3184   0.241   0.605   2.747 -0.2819  0.1482 -0.2797
  797SOL     OW 3185   2.571   0.103   2.505 -0.3871 -0.0614 -0.1464
  797SOL    HW1 3186   2.603   0.201   2.526 -0.9923  0.3165  0.3592
  797SOL    HW2 3187   2.603   0.095   2.413  0.1246  0.5307  3.5436
  797SOL     MW 3188   2.580   0.115   2.496 -0.3995  0.0666  0.4071
  798SOL     OW 3189   2.302   0.069   2.222  0.4326 -0.0058 -0.4469
  798SOL    HW1 3190   2.301   0.149   2.282 -1.3348 -2.1441  1.9280
  798SOL    HW2 3191   2.396   0.057   2.183 -0.8107 -1.4888 -0.8332
  798SOL     MW 3192   2.315   0.078   2.225  0.0354 -0.4836 -0.1845
  799SOL     OW 3193   2.480   2.952   0.074 -0.2488 -0.2364  0.7164
  799SOL    HW1 3194   2.423   2.888   0.035 -0.8026  0.6770 -1.7922
  799SOL    HW2 3195   2.441   3.039   0.070  0.1642 -1.8365  1.0497
  799SOL     MW 3196   2.467   2.955   0.068 -0.2674 -0.3270  0.4294
  800SOL     OW 3197   1.884   0.030   1.753 -0.0749  0.0069  0.1100
  800SOL    HW1 3198   1.831  -0.048   1.740 -0.5291 -0.4656  1.4537
  800SOL    HW2 3199   1.946   0.002   1.819 -0.2684  0.2013  1.2303
  800SOL     MW 3200   1.885   0.016   1.760 -0.1603 -0.0298  0.4351
  801SOL     OW 3201   2.774   1.281   2.570  0.7324  0.3346  0.0457
  801SOL    HW1 3202   2.765   1.182   2.557 -0.3195 -1.8710 -0.6783
  801SOL    HW2 3203   2.861   1.309   2.547 -1.0626 -1.6909  0.1372
  801SOL     MW 3204   2.784   1.272   2.565  0.3568 -0.2237 -0.0378
  802SOL     OW 3205   2.605   1.537   2.781 -0.1144 -0.5401  0.6835
  802SOL    HW1 3206   2.562   1.451   2.750  0.5228 -0.7345  1.5113
  802SOL    HW2 3207   2.703   1.530   2.781  1.7894  1.0080 -2.8215
  802SOL     MW 3208   2.612   1.525   2.777  0.2208 -0.3615  0.3303
  803SOL     OW 3209   2.295   1.413   2.004  0.7147  0.1034  0.0008
  803SOL    HW1 3210   2.288   1.351   2.072  1.3810 -0.1450 -3.2788
  803SOL    HW2 3211   2.334   1.376   1.930 -0.3930  2.2179 -1.0163
  803SOL     MW 3212   2.299   1.400   2.003  0.6565  0.3496 -0.5661
  804SOL     OW 3213   2.289   0.065   0.015  0.4538  0.0693  0.2429
  804SOL    HW1 3214   2.203   0.108   0.031 -0.1949 -0.3279  2.2694
  804SOL    HW2 3215   2.329   0.108  -0.061  0.9410 -0.1669  1.0566
  804SOL     MW 3216   2.283   0.076   0.007  0.4325 -0.0143  0.6176
  805SOL     OW 3217   2.683   1.003   2.554 -0.3729 -0.2835  0.1190
  805SOL    HW1 3218   2.662   0.945   2.482  0.8729  0.3144 -1.3874
  805SOL    HW2 3219   2.768   0.963   2.584 -0.7706 -0.3812  1.4292
  805SOL     MW 3220   2.692   0.990   2.549 -0.2610 -0.2175  0.0931
  806SOL     OW 3221   2.528   0.436   2.258  0.1856 -0.6894 -0.5506
  806SOL    HW1 3222   2.463   0.387   2.309  0.2039  0.0445 -1.6800
  806SOL    HW2 3223   2.482   0.462   2.178 -2.4989 -1.3463  1.1209
  806SOL     MW 3224   2.514   0.433   2.254 -0.1662 -0.6792 -0.4791
  807SOL     OW 3225   0.095   1.146   2.082  0.2672  0.5135  0.2727
  807SOL    HW1 3226   0.124   1.063   2.046  1.5097  0.5689 -0.9062
  807SOL    HW2 3227   0.006   1.122   2.085  3.4084 -1.4972 -2.0900
  807SOL     MW 3228   0.087   1.132   2.078  0.8456  0.2555 -0.1946
  808SOL     OW 3229   2.526   3.074   2.731  0.2615  0.2244 -0.4525
  808SOL    HW1 3230   2.511   2.979   2.723  0.7573  1.2415 -1.3695
  808SOL    HW2 3231   2.533   3.107   2.638  1.9687 -1.9736 -1.7680
  808SOL     MW 3232   2.525   3.066   2.718  0.5522  0.0686 -0.7470
  809SOL     OW 3233   2.543   1.287   2.414  0.8020 -0.4977  0.7605
  809SOL    HW1 3234   2.612   1.273   2.477 -2.8591 -1.9841  0.6746
  809SOL    HW2 3235   2.589   1.287   2.327  0.1940 -0.8609 -1.8972
  809SOL     MW 3236   2.558   1.286   2.411  0.2388 -0.7417  0.3985
  810SOL     OW 3237   2.240   1.252   2.252  0.0471 -0.3396  0.2956
  810SOL    HW1 3238   2.309   1.188   2.270  1.0531 -2.4544 -0.7540
  810SOL    HW2 3239   2.167   1.212   2.197 -2.5535 -2.4342 -0.1027
  810SOL     MW 3240   2.240   1.238   2.247 -0.1633 -0.8950  0.1046
  811SOL     OW 3241   1.553   0.161   2.292 -0.8819  0.6579  0.0584
  811SOL    HW1 3242   1.613   0.109   2.350  2.4088  0.4911  2.4676
  811SOL    HW2 3243   1.546   0.114   2.206 -0.0982 -0.3352 -2.3910
  811SOL     MW 3244   1.560   0.148   2.288 -0.3443  0.5048  0.0531
  812SOL     OW 3245   1.479   2.854   2.130 -0.6271 -0.3204  0.4856
  812SOL    HW1 3246   1.566   2.867   2.086  1.4193  2.7400 -0.4195
  812SOL    HW2 3247   1.505   2.826   2.221  1.2259  1.1775 -0.0807
  812SOL     MW 3248   1.494   2.852   2.136 -0.1126  0.2811  0.2915
  813SOL     OW 3249   1.824   0.747   2.174  0.1340  0.3758  0.2270
  813SOL    HW1 3250   1.786   0.663   2.203 -0.6884  0.7810  0.9562
  813SOL    HW2 3251   1.834   0.800   2.254 -0.4644 -1.2553  0.0090
  813SOL     MW 3252   1.821   0.743   2.188 -0.0535  0.2140  0.2945
  814SOL     OW 3253   2.760   1.262   1.623  0.0290  0.0317  0.1845
  814SOL    HW1 3254   2.669   1.270   1.634  1.0936 -0.8622  0.0560
  814SOL    HW2 3255   2.769   1.218   1.542 -3.1723 -0.3268  0.5183
  814SOL     MW 3256   2.749   1.257   1.614 -0.2529 -0.1336  0.2116
  815SOL     OW 3257   2.473   1.675   2.388  0.2886 -0.1662  0.3102
  815SOL    HW1 3258   2.433   1.588   2.385 -2.9637 -1.5100  1.3075
  815SOL    HW2 3259   2.572   1.657   2.390  3.8166 -0.3278 -1.8978
  815SOL     MW 3260   2.481   1.661   2.388  0.3250 -0.3648  0.1504
  816SOL     OW 3261   0.783   0.691   2.729  0.1591 -0.5150 -0.2136
  816SOL    HW1 3262   0.771   0.610   2.780  0.4663  0.0270 -2.0728
  816SOL    HW2 3263   0.704   0.714   2.680 -3.7983  0.4103  1.9817
  816SOL     MW 3264   0.771   0.684   2.729 -0.3225 -0.3214 -0.1693
  817SOL     OW 3265   3.043   1.294   1.468  0.2858 -0.2100 -0.4261
  817SOL    HW1 3266   3.120   1.239   1.474 -0.6717 -0.2479 -0.7623
  817SOL    HW2 3267   3.051   1.358   1.395  0.5217  1.3230 -1.2114
  817SOL     MW 3268   3.054   1.295   1.459  0.1906 -0.0127 -0.5741
  818SOL     OW 3269   1.938   1.074   2.689  0.0675 -0.0264  0.3018
  818SOL    HW1 3270   1.952   1.121   2.608 -1.6622  0.0020 -1.7866
  818SOL    HW2 3271   1.993   0.998   2.685  0.1020  0.2408  0.2426
  818SOL     MW 3272   1.947   1.070   2.678 -0.1562  0.0126  0.0184
  819SOL     OW 3273   1.876   0.239   2.450  0.1124  0.9005  0.1391
  819SOL    HW1 3274   1.839   0.330   2.446  3.5274 -0.0397 -1.3847
  819SOL    HW2 3275   1.889   0.225   2.541  1.4985 -1.1266 -1.4793
  819SOL     MW 3276   1.873   0.249   2.461  0.7459  0.5090 -0.2755
  820SOL     OW 3277   2.458   1.734   2.651  0.0870  0.3889  0.6920
  820SOL    HW1 3278   2.507   1.670   2.710 -3.9113 -0.9186 -0.5282
  820SOL    HW2 3279   2.465   1.699   2.557 -1.6568  0.0693  2.1242
  820SOL     MW 3280   2.465   1.721   2.646 -0.6706  0.1742  0.7200
  821SOL     OW 3281   2.583   1.355   1.990 -0.0552  0.2031  0.4161
  821SOL    HW1 3282   2.608   1.405   1.914 -0.4056  0.5736  3.2744
  821SOL    HW2 3283   2.516   1.413   2.026 -2.0822  0.8180 -0.6406
  821SOL     MW 3284   2.578   1.369   1.984 -0.3689  0.3331  0.6538
  822SOL     OW 3285   2.801   2.582   1.485  0.4025  0.1614 -0.2222
  822SOL    HW1 3286   2.824   2.600   1.580  1.9641  0.5926 -0.0929
  822SOL    HW2 3287   2.743   2.648   1.457 -2.1183 -1.0713 -0.2755
  822SOL     MW 3288   2.797   2.593   1.494  0.2760  0.0557 -0.2122
  823SOL     OW 3289   2.251   0.450   1.752  0.0297 -0.1359 -0.1590
  823SOL    HW1 3290   2.324   0.398   1.723  0.5629  0.2092  1.3587
  823SOL    HW2 3291   2.164   0.418   1.715 -0.8780  0.0903  0.9129
  823SOL     MW 3292   2.249   0.439   1.743 -0.0197 -0.0605  0.1827
  824SOL     OW 3293   2.081   1.335   2.612 -0.2509 -0.7041  0.2763
  824SOL    HW1 3294   2.119   1.406   2.559  2.5795 -1.2346 -0.9943
  824SOL    HW2 3295   2.016   1.371   2.669 -0.1060  1.7055  1.9131
  824SOL     MW 3296   2.077   1.349   2.613  0.1417 -0.4562  0.3246
  825SOL     OW 3297   2.040   2.566   0.308  0.2749  0.2181 -0.4557
  825SOL    HW1 3298   2.025   2.524   0.392 -1.1164  1.1001  0.1565
  825SOL    HW2 3299   2.111   2.511   0.278  1.4027  0.7039  0.6333
  825SOL     MW 3300   2.047   2.553   0.315  0.2401  0.3985 -0.2313
  826SOL     OW 3301   1.920   2.414   0.514 -0.0314 -1.0411  0.4165
  826SOL    HW1 3302   1.868   2.332   0.539 -1.1780 -1.6451  1.4938
  826SOL    HW2 3303   1.877   2.479   0.568  0.1445  0.2227  0.5128
  826SOL     MW 3304   1.908   2.412   0.524 -0.1595 -0.9540  0.5713
  827SOL     OW 3305   1.950   2.216   0.891 -0.5193 -0.6190 -0.8759
  827SOL    HW1 3306   1.873   2.265   0.862  0.4874 -0.2972  0.9805
  827SOL    HW2 3307   1.917   2.125   0.904 -0.8773  2.4211 -1.7016
  827SOL     MW 3308   1.935   2.210   0.889 -0.4337 -0.1754 -0.7399
  828SOL     OW 3309   0.051   2.697   0.628  0.4703 -0.0940 -0.4391
  828SOL    HW1 3310   0.140   2.688   0.596 -0.3630 -2.3253  0.3090
  828SOL    HW2 3311  -0.002   2.734   0.557  0.5134  0.8404  2.3590
  828SOL     MW 3312   0.056   2.701   0.614  0.3660 -0.2652  0.0288
  829SOL     OW 3313   2.965   2.918   1.272 -0.0367 -0.0376  0.0209
  829SOL    HW1 3314   2.896   2.939   1.212 -0.5341  0.6666  2.1051
  829SOL    HW2 3315   2.991   2.837   1.233 -0.1478  0.0128 -0.3131
  829SOL     MW 3316   2.959   2.910   1.259 -0.1170  0.0620  0.2518
  830SOL     OW 3317   2.490   2.840   2.023 -0.1318 -0.3798  0.6032
  830SOL    HW1 3318   2.403   2.865   1.982  0.5833 -1.0458 -2.4583
  830SOL    HW2 3319   2.553   2.849   1.951 -2.1447  0.5127  1.0642
  830SOL     MW 3320   2.487   2.844   2.008 -0.3030 -0.3499  0.2601
  831SOL     OW 3321   2.420   2.389   1.276  0.1239  0.2009 -0.3048
  831SOL    HW1 3322   2.387   2.329   1.348 -1.1553  0.2200  0.9372
  831SOL    HW2 3323   2.510   2.361   1.248 -2.2295 -0.8648 -0.6157
  831SOL     MW 3324   2.427   2.377   1.282 -0.3554  0.0628 -0.1820
  832SOL     OW 3325   2.449   2.228   1.907  0.4332  0.3191 -0.5039
  832SOL    HW1 3326   2.478   2.326   1.929  1.3152  0.3581  1.1515
  832SOL    HW2 3327   2.532   2.178   1.894  0.5416  1.3315  0.4854
  832SOL     MW 3328   2.464   2.235   1.908  0.5639  0.4578 -0.1550
  833SOL     OW 3329   1.775   2.430   0.893 -0.2982  0.3398  0.2135
  833SOL    HW1 3330   1.688   2.396   0.891 -0.0970  0.9478  0.3757
  833SOL    HW2 3331   1.787   2.493   0.967 -1.3012  1.0293  4.7890
  833SOL     MW 3332   1.765   2.434   0.903 -0.4040  0.5110  0.8386
  834SOL     OW 3333   2.227   2.476   0.553 -0.0177 -0.4874 -0.0584
  834SOL    HW1 3334   2.202   2.404   0.607 -2.5232 -1.7701 -0.2758
  834SOL    HW2 3335   2.273   2.452   0.472  0.6701 -0.3849 -2.7377
  834SOL     MW 3336   2.230   2.463   0.549 -0.2575 -0.6431 -0.4406
  835SOL     OW 3337   1.773   2.601   0.697  0.5554 -0.9565  0.4971
  835SOL    HW1 3338   1.761   2.541   0.764 -0.0736  2.5368 -4.7213
  835SOL    HW2 3339   1.842   2.669   0.716  0.5808 -0.6314  1.3678
  835SOL     MW 3340   1.780   2.602   0.709  0.4758 -0.4527 -0.0765
  836SOL     OW 3341   1.972   2.126   1.624 -0.5249 -0.3170 -0.0649
  836SOL    HW1 3342   2.065   2.117   1.646  0.2405 -0.6655  1.4069
  836SOL    HW2 3343   1.942   2.213   1.644  0.7789 -0.9804  2.3534
  836SOL     MW 3344   1.980   2.136   1.630 -0.2519 -0.4505  0.4483
  837SOL     OW 3345   2.090   0.190   0.696 -0.4286 -0.1163 -0.2772
  837SOL    HW1 3346   2.010   0.232   0.652 -0.4066 -0.2248 -4.3942
  837SOL    HW2 3347   2.126   0.159   0.612 -1.1340  1.0545 -2.4990
  837SOL     MW 3348   2.084   0.191   0.679 -0.5188  0.0239 -1.1135
  838SOL     OW 3349   2.946   2.068   0.899 -0.4174 -0.9004  0.5504
  838SOL    HW1 3350   2.880   2.032   0.958  0.7714 -2.4625 -1.6929
  838SOL    HW2 3351   2.963   2.002   0.828  1.0515 -0.9814 -0.6840
  838SOL     MW 3352   2.939   2.054   0.898 -0.0668 -1.1172  0.0916
  839SOL     OW 3353   1.518   2.354   0.919 -0.3824  0.2109  0.3011
  839SOL    HW1 3354   1.507   2.446   0.936  2.7604 -1.4895  0.0127
  839SOL    HW2 3355   1.534   2.305   1.002 -0.3532 -2.2243 -1.4215
  839SOL     MW 3356   1.519   2.359   0.932  0.0361 -0.3348  0.0358
  840SOL     OW 3357   2.317   2.099   2.414  0.2499 -0.2802 -0.3148
  840SOL    HW1 3358   2.282   2.172   2.357 -0.0976  0.2716  1.6107
  840SOL    HW2 3359   2.400   2.133   2.446 -3.1466  0.1088 -0.1075
  840SOL     MW 3360   2.324   2.113   2.410 -0.2441 -0.1561 -0.0334
  841SOL     OW 3361   2.211   2.411   0.116  0.2395  0.2141 -0.5126
  841SOL    HW1 3362   2.263   2.434   0.036  2.5810 -2.3425  2.2044
  841SOL    HW2 3363   2.147   2.350   0.085 -1.6320  0.6593 -1.9462
  841SOL     MW 3364   2.210   2.406   0.101  0.3015 -0.0645 -0.3433
  842SOL     OW 3365   2.658   1.998   1.575 -0.3560 -0.3358 -0.2357
  842SOL    HW1 3366   2.592   1.924   1.578  4.5095 -0.6983  1.6759
  842SOL    HW2 3367   2.645   2.034   1.494 -1.2433  2.0210  1.5712
  842SOL     MW 3368   2.648   1.993   1.565  0.1689 -0.0727  0.2549
  843SOL     OW 3369   2.668   2.831   1.797  0.2458 -0.2790 -0.4548
  843SOL    HW1 3370   2.751   2.786   1.799 -2.4464 -0.6640  1.3198
  843SOL    HW2 3371   2.607   2.775   1.753  0.4919 -0.2263  0.8811
  843SOL     MW 3372   2.671   2.818   1.792 -0.0770 -0.3228 -0.0444
  844SOL     OW 3373   2.675   2.305   1.214  0.5304  0.5844  0.0338
  844SOL    HW1 3374   2.706   2.336   1.127 -0.7846  0.3962  1.0308
  844SOL    HW2 3375   2.747   2.317   1.267 -1.4863 -0.1276 -0.4207
  844SOL     MW 3376   2.689   2.311   1.209  0.0908  0.4656  0.1054
  845SOL     OW 3377   2.838   2.459   0.273 -0.0659  0.0276  0.2096
  845SOL    HW1 3378   2.773   2.388   0.300  0.4547  1.1690 -1.3778
  845SOL    HW2 3379   2.880   2.507   0.344 -0.3235 -1.9784  0.3544
  845SOL     MW 3380   2.835   2.456   0.286 -0.0312 -0.0865  0.0192
  846SOL     OW 3381   1.515   2.851   0.817  0.2777  0.1289  0.5398
  846SOL    HW1 3382   1.586   2.915   0.833 -0.4812  0.2743 -1.7360
  846SOL    HW2 3383   1.435   2.893   0.840  0.8818 -0.7772 -0.8837
  846SOL     MW 3384   1.514   2.865   0.822  0.2573  0.0285  0.0517
  847SOL     OW 3385   2.516   1.942   0.177 -0.0651  0.3834 -0.4937
  847SOL    HW1 3386   2.549   1.855   0.215  0.7132 -0.4462  0.2748
  847SOL    HW2 3387   2.478   1.910   0.098  3.4647  0.9401  2.6997
  847SOL     MW 3388   2.515   1.926   0.172  0.5033  0.3474  0.0290
  848SOL     OW 3389   2.529   2.076   1.341  0.6241  0.3049 -0.2952
  848SOL    HW1 3390   2.586   2.122   1.282 -2.8513  1.4162  2.4172
  848SOL    HW2 3391   2.486   2.013   1.286  0.1089  0.2030 -1.0267
  848SOL     MW 3392   2.530   2.074   1.326  0.0976  0.4381 -0.0338
  849SOL     OW 3393   1.997   2.758   0.756  0.5664  0.9798 -0.0157
  849SOL    HW1 3394   2.016   2.701   0.830 -2.2133 -1.2012 -0.3171
  849SOL    HW2 3395   2.078   2.767   0.709 -1.7320  1.2712 -1.2251
  849SOL     MW 3396   2.010   2.752   0.759 -0.1036  0.7305 -0.2150
  850SOL     OW 3397   2.288   1.924   1.727  0.2207  0.0734  0.0225
  850SOL    HW1 3398   2.195   1.912   1.687 -1.2386  0.2295  0.5124
  850SOL    HW2 3399   2.295   2.020   1.725 -0.2483 -0.4610 -2.3468
  850SOL     MW 3400   2.276   1.935   1.721 -0.0337  0.0235 -0.2255
  851SOL     OW 3401   2.363   2.379   0.330  0.4879  0.4593 -0.8590
  851SOL    HW1 3402   2.317   2.379   0.246 -0.4209 -1.7277  0.4705
  851SOL    HW2 3403   2.439   2.434   0.313  0.4944 -3.6755 -0.8608
  851SOL     MW 3404   2.367   2.386   0.317  0.3688 -0.3748 -0.6838
  852SOL     OW 3405   2.336   2.100   0.315 -0.0798 -0.1420  0.4465
  852SOL    HW1 3406   2.363   2.191   0.323 -1.2044 -0.7360  1.1543
  852SOL    HW2 3407   2.396   2.046   0.257  1.6912 -0.9559  2.7204
  852SOL     MW 3408   2.347   2.105   0.309  0.0055 -0.3278  0.8399
  853SOL     OW 3409   2.463   2.495   1.974  0.0298  0.2727 -0.2322
  853SOL    HW1 3410   2.475   2.570   1.919 -2.8474  0.7410  0.1094
  853SOL    HW2 3411   2.537   2.481   2.035 -2.0187  0.3719 -0.7170
  853SOL     MW 3412   2.475   2.503   1.975 -0.6201  0.3476 -0.2511
  854SOL     OW 3413   2.866   2.312   0.793  0.7346 -0.2643 -0.1876
  854SOL    HW1 3414   2.804   2.259   0.744  1.0728 -1.1131 -1.0275
  854SOL    HW2 3415   2.916   2.237   0.833 -1.8343 -0.9210 -0.9997
  854SOL     MW 3416   2.864   2.295   0.792  0.4403 -0.4630 -0.4055
  855SOL     OW 3417   2.671   2.272   0.363  0.1760  0.5391 -0.1696
  855SOL    HW1 3418   2.635   2.301   0.442  0.7575 -2.0257 -0.1596
  855SOL    HW2 3419   2.747   2.222   0.382  1.2165  1.6730 -0.2312
  855SOL     MW 3420   2.676   2.269   0.376  0.3900  0.3503 -0.1764
  856SOL     OW 3421   2.135   1.883   0.165  0.2017 -0.1592  0.2488
  856SOL    HW1 3422   2.060   1.877   0.221  0.9541 -0.1252 -3.3046
  856SOL    HW2 3423   2.190   1.945   0.212 -0.5757 -1.5867  0.6393
  856SOL     MW 3424   2.132   1.890   0.178  0.1984 -0.3431 -0.1685
  857SOL     OW 3425   2.496   1.980   0.520  0.3483 -0.4591  0.3028
  857SOL    HW1 3426   2.463   2.047   0.456 -2.1035  3.6385 -3.2385
  857SOL    HW2 3427   2.428   1.924   0.548  1.5551  0.0083  1.0140
  857SOL     MW 3428   2.483   1.981   0.515  0.1841  0.1432 -0.0706
  858SOL     OW 3429   2.874   2.646   1.764 -0.3306  0.4644  0.2386
  858SOL    HW1 3430   2.952   2.705   1.766  1.4354  1.6908 -1.7773
  858SOL    HW2 3431   2.911   2.562   1.795 -2.2416  1.1485  1.4262
  858SOL     MW 3432   2.889   2.643   1.769 -0.3498  0.7165  0.1293
  859SOL     OW 3433   2.103   2.577   0.946  0.3443 -0.5764 -0.2863
  859SOL    HW1 3434   2.051   2.513   0.997 -0.7570 -1.0897 -0.0042
  859SOL    HW2 3435   2.192   2.540   0.927  1.4758  0.7489  1.7985
  859SOL     MW 3436   2.108   2.564   0.950  0.3483 -0.4693  0.0260
  860SOL     OW 3437   2.675   2.595   0.119 -0.1274  0.6245 -0.0204
  860SOL    HW1 3438   2.736   2.573   0.197 -3.3253  0.0459 -0.2089
  860SOL    HW2 3439   2.689   2.682   0.077 -0.4820 -0.1903  2.6404
  860SOL     MW 3440   2.685   2.604   0.124 -0.5961  0.4406  0.3058
  861SOL     OW 3441   1.588   2.128   1.120 -0.7009 -0.3353 -0.3240
  861SOL    HW1 3442   1.584   2.210   1.166  1.9505 -0.1522 -1.6771
  861SOL    HW2 3443   1.521   2.067   1.154 -1.5823  0.8804  0.4274
  861SOL     MW 3444   1.578   2.131   1.131 -0.4674 -0.1507 -0.4034
  862SOL     OW 3445   2.468   1.793   1.574  0.3161  0.2026 -0.2175
  862SOL    HW1 3446   2.402   1.846   1.615 -0.1179 -1.1945 -1.0840
  862SOL    HW2 3447   2.435   1.774   1.486 -1.2290  1.9123 -0.2296
  862SOL     MW 3448   2.455   1.798   1.568  0.0550  0.2439 -0.3334
  863SOL     OW 3449   3.015   1.808   1.016 -0.1453 -0.3130 -0.1035
  863SOL    HW1 3450   3.090   1.775   1.070 -1.3253  2.3603  0.0432
  863SOL    HW2 3451   3.015   1.899   1.039 -0.3818 -1.1350  1.0757
  863SOL     MW 3452   3.025   1.816   1.026 -0.3322 -0.0687  0.0714
  864SOL     OW 3453   3.051   1.847   0.758 -0.1639 -0.0049 -0.2919
  864SOL    HW1 3454   3.017   1.816   0.843 -0.4785 -1.5072 -0.0706
  864SOL    HW2 3455   2.999   1.792   0.690 -0.2570 -1.6073 -3.7127
  864SOL     MW 3456   3.040   1.836   0.760 -0.2177 -0.4146 -0.7141
  865SOL     OW 3457   2.506   2.200   0.002 -1.0346 -0.0165 -0.0180
  865SOL    HW1 3458   2.541   2.126   0.047  2.7300  0.7398  0.1833
  865SOL    HW2 3459   2.459   2.159  -0.067  0.6426 -1.9692  0.5476
  865SOL     MW 3460   2.504   2.185  -0.001 -0.3167 -0.1744  0.0831
  866SOL     OW 3461   2.662   2.377   1.690 -0.1829  0.0042  0.4557
  866SOL    HW1 3462   2.638   2.297   1.738  2.8305 -1.3395  0.7542
  866SOL    HW2 3463   2.701   2.348   1.604 -1.0894 -0.2009 -2.3170
  866SOL     MW 3464   2.664   2.363   1.685  0.0951 -0.2001  0.1293
  867SOL     OW 3465   0.029   2.744   1.801 -0.0583 -0.3520 -0.4909
  867SOL    HW1 3466   0.042   2.723   1.901 -1.4866 -1.1186 -2.1235
  867SOL    HW2 3467  -0.001   2.838   1.793  1.7060 -0.3017 -1.1284
  867SOL     MW 3468   0.027   2.753   1.813 -0.0139 -0.4465 -0.7904
  868SOL     OW 3469   2.822   2.604   0.542 -0.3222  0.0565  0.2120
  868SOL    HW1 3470   2.738   2.558   0.553 -1.6609  0.4625 -0.2473
  868SOL    HW2 3471   2.811   2.692   0.507  0.6337  0.8185 -0.4034
  868SOL     MW 3472   2.810   2.609   0.539 -0.3727  0.2106  0.0702
  869SOL     OW 3473   2.057   2.328   1.106  0.0854  0.1631 -0.0301
  869SOL    HW1 3474   2.150   2.328   1.096 -1.7479 -0.1292 -0.9052
  869SOL    HW2 3475   2.033   2.284   1.022 -0.6914 -2.2766  1.9975
  869SOL     MW 3476   2.066   2.322   1.093 -0.2590 -0.1974  0.1220
  870SOL     OW 3477   2.145   0.051   0.460 -0.2591  0.5158 -0.1499
  870SOL    HW1 3478   2.205   0.076   0.386 -2.3137 -2.6445  0.8943
  870SOL    HW2 3479   2.141  -0.045   0.460  0.3398  1.8398  0.7998
  870SOL     MW 3480   2.152   0.042   0.450 -0.4511  0.2735  0.1132
  871SOL     OW 3481   2.511   2.084   0.967  0.0665 -0.2708  0.2703
  871SOL    HW1 3482   2.439   2.019   0.955 -2.5545 -0.5328  0.2324
  871SOL    HW2 3483   2.471   2.164   1.001 -0.1104  0.8443 -2.1099
  871SOL     MW 3484   2.496   2.086   0.970 -0.3027 -0.1582 -0.0488
  872SOL     OW 3485   2.015   2.540   1.546  0.3334 -0.2003  0.2323
  872SOL    HW1 3486   1.993   2.588   1.629 -0.2118  0.7984  0.5167
  872SOL    HW2 3487   1.945   2.480   1.525  0.7801  0.0971  2.6612
  872SOL     MW 3488   2.003   2.538   1.554  0.3204 -0.0293  0.5903
  873SOL     OW 3489   2.918   2.009   1.961  0.1884 -0.2476  0.3610
  873SOL    HW1 3490   2.907   2.039   2.055 -2.7317  0.7749  0.9507
  873SOL    HW2 3491   3.009   2.031   1.941 -2.5494  0.1710 -1.1256
  873SOL     MW 3492   2.929   2.016   1.971 -0.5581 -0.0575  0.2426
  874SOL     OW 3493   2.299   1.433   2.463  0.1286 -0.1767  0.1066
  874SOL    HW1 3494   2.276   1.373   2.382 -0.4011  0.8370 -1.4518
  874SOL    HW2 3495   2.392   1.418   2.482  0.7280  3.2446  2.3123
  874SOL     MW 3496   2.308   1.423   2.455  0.1378  0.4085  0.1920
  875SOL     OW 3497   2.345   2.279   1.050  0.1751 -0.5993 -0.2996
  875SOL    HW1 3498   2.362   2.347   0.986 -0.6966 -0.6574 -0.5880
  875SOL    HW2 3499   2.385   2.318   1.129  0.9274  1.1522 -1.6933
  875SOL     MW 3500   2.353   2.293   1.052  0.1594 -0.3759 -0.5215
  876SOL     OW 3501   3.046   2.275   1.287 -0.0072  0.2518  0.2287
  876SOL    HW1 3502   3.077   2.324   1.207  3.3660  0.8214 -0.7230
  876SOL    HW2 3503   3.110   2.309   1.351  2.2259 -1.7478 -0.9869
  876SOL     MW 3504   3.059   2.286   1.285  0.7325  0.0631 -0.0573
  877SOL     OW 3505   3.091   2.741   0.323  0.5851  0.4404 -0.5838
  877SOL    HW1 3506   3.150   2.818   0.317  0.7316 -0.3080  1.0283
  877SOL    HW2 3507   3.107   2.694   0.242  2.3130  1.5652 -0.8306
  877SOL     MW 3508   3.101   2.745   0.311  0.8324  0.4901 -0.4037
  878SOL     OW 3509   2.374   1.821   1.311  0.4062  0.0096  0.2122
  878SOL    HW1 3510   2.309   1.747   1.289 -1.5224 -2.6556  1.0700
  878SOL    HW2 3511   2.467   1.802   1.276  4.2912  2.0344  0.6957
  878SOL     MW 3512   2.378   1.809   1.303  0.6643 -0.0749  0.3892
  879SOL     OW 3513   2.707   2.436   0.972  0.6614  0.0386  0.0728
  879SOL    HW1 3514   2.752   2.516   1.006  0.2878 -0.8998 -0.3886
  879SOL    HW2 3515   2.762   2.388   0.914 -0.4805 -0.8104  2.9417
  879SOL     MW 3516   2.720   2.440   0.969  0.4614 -0.1972  0.3905
  880SOL     OW 3517   2.620   2.169   0.720 -0.1830 -0.3203  0.6038
  880SOL    HW1 3518   2.598   2.139   0.803  1.8472 -0.1089  1.4034
  880SOL    HW2 3519   2.581   2.100   0.665 -3.2782  1.7618 -1.9862
  880SOL     MW 3520   2.612   2.156   0.723 -0.3235 -0.0177  0.3676
  881SOL     OW 3521   2.903   2.733   0.761 -0.1571  0.2691  0.1134
  881SOL    HW1 3522   2.863   2.672   0.691 -0.8702 -0.0462 -2.8777
  881SOL    HW2 3523   3.001   2.719   0.747  1.2029 -1.1528 -0.9202
  881SOL     MW 3524   2.910   2.723   0.750 -0.0718  0.0399 -0.4176
  882SOL     OW 3525   2.235   2.894   1.952 -0.0838 -0.2903 -0.2252
  882SOL    HW1 3526   2.207   2.875   1.854  0.8027  1.7855  1.5503
  882SOL    HW2 3527   2.179   2.834   2.010 -4.8986  1.7885  2.1608
  882SOL     MW 3528   2.224   2.884   1.947 -0.6021  0.2579  0.3238
  883SOL     OW 3529   2.309   2.206   1.445 -0.0430  0.3880 -0.0244
  883SOL    HW1 3530   2.391   2.157   1.422 -1.4289 -0.0722 -0.4418
  883SOL    HW2 3531   2.249   2.152   1.390  0.6081 -1.1826  0.8189
  883SOL     MW 3532   2.312   2.192   1.435 -0.1399  0.1200  0.0318
  884SOL     OW 3533   1.950   1.755   1.054 -0.1670 -0.2557 -0.0174
  884SOL    HW1 3534   1.899   1.827   1.022  0.3183 -2.0741  1.1431
  884SOL    HW2 3535   2.043   1.792   1.050 -0.4004 -1.8170  2.1295
  884SOL     MW 3536   1.955   1.769   1.049 -0.1338 -0.7016  0.4190
  885SOL     OW 3537   2.894   2.375   1.848 -0.4652 -0.3215 -0.2052
  885SOL    HW1 3538   2.954   2.305   1.836  0.7985  1.2753  0.3485
  885SOL    HW2 3539   2.831   2.367   1.782  0.5821 -1.0428  1.3391
  885SOL     MW 3540   2.894   2.365   1.838 -0.1603 -0.2060  0.0716
  886SOL     OW 3541   2.828   2.322   1.446 -0.3703 -0.4995  0.0951
  886SOL    HW1 3542   2.911   2.324   1.392 -1.1964 -1.7167  1.8991
  886SOL    HW2 3543   2.822   2.419   1.463  0.7842 -0.4530 -0.3955
  886SOL     MW 3544   2.838   2.335   1.441 -0.3270 -0.6540  0.2684
  887SOL     OW 3545   2.281   2.620   1.551  0.0938 -0.1023  0.5902
  887SOL    HW1 3546   2.316   2.601   1.464 -0.0385  1.4635 -1.4806
  887SOL    HW2 3547   2.197   2.570   1.556  1.2257 -1.0791 -1.4176
  887SOL     MW 3548   2.275   2.611   1.540  0.2257 -0.0246  0.0520
  888SOL     OW 3549   1.862   2.056   1.384 -0.1402  0.1398  0.1628
  888SOL    HW1 3550   1.927   2.036   1.319 -0.1604  1.2166  0.3867
  888SOL    HW2 3551   1.903   2.071   1.471  1.7028 -1.3419  0.9465
  888SOL     MW 3552   1.876   2.055   1.387  0.1003  0.0864  0.2958
  889SOL     OW 3553   2.299   2.046   2.063 -0.2595  0.0061 -0.0629
  889SOL    HW1 3554   2.340   2.043   2.146 -0.0016  0.3091  0.9027
  889SOL    HW2 3555   2.330   2.123   2.015  1.7566  0.8789  0.6200
  889SOL     MW 3556   2.309   2.056   2.068  0.0405  0.1613  0.1546
  890SOL     OW 3557   0.071   2.369   0.118 -0.0849  0.2075  0.1799
  890SOL    HW1 3558   0.034   2.459   0.110 -1.9545 -0.6428  0.6835
  890SOL    HW2 3559   0.041   2.349   0.207  1.3531  0.1100 -0.1285
  890SOL     MW 3560   0.062   2.379   0.129 -0.1418  0.0824  0.2057
  891SOL     OW 3561   3.027   2.001   1.291 -0.2784  0.2519  0.3266
  891SOL    HW1 3562   3.102   1.948   1.274 -1.1927  2.9552  1.5566
  891SOL    HW2 3563   3.040   2.098   1.276  1.7336 -2.0872  2.7003
  891SOL     MW 3564   3.038   2.007   1.287 -0.1335  0.2999  0.8021
  892SOL     OW 3565   2.435   2.323   2.743  0.1178 -0.3570  0.2672
  892SOL    HW1 3566   2.421   2.237   2.786  3.4889  0.1212 -0.1395
  892SOL    HW2 3567   2.514   2.359   2.801 -0.1802  2.9197 -0.8217
  892SOL     MW 3568   2.444   2.316   2.757  0.5232  0.1384  0.0699
  893SOL     OW 3569   1.620   2.382   1.237 -0.0192  0.6001  0.0082
  893SOL    HW1 3570   1.560   2.430   1.300 -2.0395  1.0055  0.0135
  893SOL    HW2 3571   1.705   2.371   1.281  0.5057  2.0138 -1.8137
  893SOL     MW 3572   1.623   2.387   1.251 -0.2165  0.8401 -0.2314
  894SOL     OW 3573   2.760   1.900   0.455 -0.9946  0.4876 -0.1492
  894SOL    HW1 3574   2.669   1.942   0.454  1.3439  1.4339 -3.0033
  894SOL    HW2 3575   2.775   1.863   0.361 -0.3899 -1.8589 -1.5787
  894SOL     MW 3576   2.750   1.900   0.443 -0.6063  0.3028 -0.7144
  895SOL     OW 3577   2.127   2.080   1.226  0.1502 -0.2664 -0.4479
  895SOL    HW1 3578   2.083   2.168   1.200 -0.3677  0.8208 -2.1491
  895SOL    HW2 3579   2.159   2.036   1.145 -0.7496  0.9344  1.3838
  895SOL     MW 3580   2.126   2.086   1.212 -0.0369  0.0355 -0.4307
  896SOL     OW 3581   2.249   2.788   1.077  1.0431  0.5970  0.4445
  896SOL    HW1 3582   2.284   2.771   1.160  0.0214 -0.3960 -1.7683
  896SOL    HW2 3583   2.168   2.732   1.060 -2.3816 -3.4259 -0.7724
  896SOL     MW 3584   2.243   2.778   1.086  0.4564 -0.0648 -0.0080
  897SOL     OW 3585   3.005   2.956   0.051  0.4421  0.9830 -0.6309
  897SOL    HW1 3586   3.059   2.911  -0.014  4.9959  0.2584 -2.2647
  897SOL    HW2 3587   2.920   2.916   0.053  0.2503  1.2521 -0.9844
  897SOL     MW 3588   3.001   2.945   0.043  1.0177  0.9229 -0.8931
  898SOL     OW 3589   2.093   0.211   1.439  0.2053 -0.1484  0.5581
  898SOL    HW1 3590   2.068   0.122   1.469 -0.2973 -0.8445  0.0272
  898SOL    HW2 3591   2.078   0.209   1.341  1.5514  0.0083 -0.5866
  898SOL     MW 3592   2.088   0.199   1.430  0.3166 -0.2196  0.3370
  899SOL     OW 3593   2.898   2.986   0.644 -0.3424  0.0693 -0.1770
  899SOL    HW1 3594   2.887   2.906   0.701 -2.2911  0.2279  2.2552
  899SOL    HW2 3595   2.828   3.047   0.676 -0.4908 -1.0236  1.1593
  899SOL     MW 3596   2.887   2.983   0.656 -0.6191 -0.0540  0.3202
  900SOL     OW 3597   0.111   2.396   1.108  0.2245  0.3420 -0.2765
  900SOL    HW1 3598   0.072   2.485   1.126  0.3300 -0.9186  1.6833
  900SOL    HW2 3599   0.087   2.374   1.017 -1.6792  0.0759  0.4662
  900SOL     MW 3600   0.102   2.404   1.098 -0.0128  0.1406  0.0801
  901SOL     OW 3601   1.750   2.833   1.775 -0.1569 -0.4607  0.1485
  901SOL    HW1 3602   1.817   2.755   1.763  0.1228 -0.3409 -2.6761
  901SOL    HW2 3603   1.717   2.855   1.688 -0.9575  0.2031  0.8082
  901SOL     MW 3604   1.754   2.825   1.762 -0.2257 -0.3573 -0.1371
  902SOL     OW 3605   2.688   2.125   1.836 -0.2483  0.5414 -0.1565
  902SOL    HW1 3606   2.688   2.074   1.758  1.4180 -1.0834  2.3303
  902SOL    HW2 3607   2.760   2.083   1.884  0.0262  0.5747  1.7348
  902SOL     MW 3608   2.698   2.113   1.832  0.0078  0.3314  0.4212
  903SOL     OW 3609   1.604   2.752   0.557 -0.0316 -0.5006  0.0349
  903SOL    HW1 3610   1.665   2.685   0.601 -0.7926 -1.7984  2.0366
  903SOL    HW2 3611   1.555   2.799   0.623  0.0912 -2.5472 -1.2282
  903SOL     MW 3612   1.606   2.749   0.572 -0.1158 -0.9419  0.1323
  904SOL     OW 3613   2.497   2.647   1.716  1.1503  0.1386  0.0742
  904SOL    HW1 3614   2.424   2.619   1.662  0.0569 -2.0627  1.0779
  904SOL    HW2 3615   2.562   2.582   1.697 -2.5589  0.8936 -0.9829
  904SOL     MW 3616   2.496   2.634   1.706  0.5167 -0.0522  0.0671
  905SOL     OW 3617   2.300   2.550   2.174 -0.1278 -0.1400  0.0751
  905SOL    HW1 3618   2.368   2.551   2.103 -0.4443  1.4117  1.4257
  905SOL    HW2 3619   2.261   2.460   2.177 -1.0317 -1.0988 -0.2036
  905SOL     MW 3620   2.303   2.538   2.165 -0.2888 -0.0618  0.2165
  906SOL     OW 3621   2.446   2.491   0.873 -0.3387 -0.0691 -0.1418
  906SOL    HW1 3622   2.538   2.468   0.895 -1.4183  0.9808 -3.5051
  906SOL    HW2 3623   2.462   2.590   0.845  0.9085 -3.5274 -3.2775
  906SOL     MW 3624   2.461   2.501   0.872 -0.3166 -0.3869 -0.9993
  907SOL     OW 3625   2.628   2.783   1.340 -0.2523  0.0107  0.2703
  907SOL    HW1 3626   2.661   2.860   1.384  0.5838 -0.8883  1.8711
  907SOL    HW2 3627   2.650   2.802   1.247 -0.3454  1.1146 -0.5026
  907SOL     MW 3628   2.635   2.796   1.334 -0.1542  0.0377  0.3796
  908SOL     OW 3629   2.749   2.349   3.085  0.1567 -0.5942 -0.3069
  908SOL    HW1 3630   2.691   2.283   3.108 -0.3804  2.2061 -4.2961
  908SOL    HW2 3631   2.721   2.427   3.135 -1.1061  0.7346 -2.5663
  908SOL     MW 3632   2.738   2.351   3.095 -0.0808 -0.0494 -1.1313
  909SOL     OW 3633   1.710   0.108   1.156  0.2508 -0.2024  0.7533
  909SOL    HW1 3634   1.740   0.177   1.092 -0.6138 -1.1482 -2.3628
  909SOL    HW2 3635   1.686   0.148   1.234 -0.9496 -1.9563 -1.1592
  909SOL     MW 3636   1.711   0.123   1.158 -0.0217 -0.5586  0.0898
  910SOL     OW 3637   2.320   1.750   0.460 -0.9777 -0.2997 -0.3778
  910SOL    HW1 3638   2.269   1.669   0.448 -1.5528 -1.2256 -1.3091
  910SOL    HW2 3639   2.259   1.818   0.434 -0.6331 -1.0622  1.3298
  910SOL     MW 3640   2.305   1.748   0.455 -1.0081 -0.5224 -0.2754
  911SOL     OW 3641   2.230   2.195   1.720  0.1703 -0.2919 -0.2817
  911SOL    HW1 3642   2.308   2.214   1.772  1.8152 -0.9807 -0.1313
  911SOL    HW2 3643   2.254   2.208   1.627  1.1940 -1.7445 -0.4306
  911SOL     MW 3644   2.243   2.199   1.715  0.5224 -0.5744 -0.2815
  912SOL     OW 3645   2.947   1.930   1.540  0.3241  0.1388 -0.4430
  912SOL    HW1 3646   2.965   1.968   1.459 -0.2505  0.2831  1.3513
  912SOL    HW2 3647   2.857   1.958   1.563  0.0629 -0.8525  0.8369
  912SOL     MW 3648   2.937   1.938   1.533  0.2139  0.0270 -0.0374
  913SOL     OW 3649   2.628   3.039   0.367  0.0655 -0.2435 -0.1393
  913SOL    HW1 3650   2.698   2.975   0.370 -0.1833  1.0837  1.8320
  913SOL    HW2 3651   2.549   3.007   0.312 -0.7326  0.8138  0.6062
  913SOL     MW 3652   2.627   3.026   0.360 -0.0726  0.0711  0.2191
  914SOL     OW 3653   2.713   1.756   3.084  0.7137 -0.3594  0.2479
  914SOL    HW1 3654   2.727   1.824   3.012  0.0124  1.7369 -0.0891
  914SOL    HW2 3655   2.629   1.784   3.119 -2.0150  2.4235  0.9217
  914SOL     MW 3656   2.704   1.769   3.079  0.2611  0.2844  0.2923
  915SOL     OW 3657   1.673   0.239   0.244  0.4189 -0.1787 -0.0718
  915SOL    HW1 3658   1.753   0.183   0.245  2.5997 -0.2362  0.1254
  915SOL    HW2 3659   1.594   0.180   0.225 -0.5862  1.8652  1.8074
  915SOL     MW 3660   1.673   0.224   0.242  0.5740  0.0834  0.2021
  916SOL     OW 3661   1.816   2.103   1.898 -0.1050  0.1539 -0.1892
  916SOL    HW1 3662   1.845   2.182   1.855 -1.6921 -1.8099 -0.4570
  916SOL    HW2 3663   1.847   2.035   1.841 -0.1916  0.7720 -0.7082
  916SOL     MW 3664   1.824   2.104   1.885 -0.3258 -0.0236 -0.2930
  917SOL     OW 3665   2.551   2.194   2.510 -0.2028  0.1152 -0.3355
  917SOL    HW1 3666   2.532   2.249   2.584 -1.0479  2.5474 -2.1973
  917SOL    HW2 3667   2.623   2.241   2.469  0.9981  0.3913 -0.6532
  917SOL     MW 3668   2.558   2.207   2.515 -0.1559  0.4725 -0.6230
  918SOL     OW 3669   2.000   1.608   2.708 -0.0430  0.5572  0.0743
  918SOL    HW1 3670   1.923   1.632   2.654  0.3228 -2.5901  0.4592
  918SOL    HW2 3671   2.065   1.664   2.666 -1.6759 -0.3968 -0.4833
  918SOL     MW 3672   1.998   1.618   2.696 -0.2102  0.0161  0.0515
  919SOL     OW 3673   3.090   2.336   2.278 -0.3153  0.5521  0.1841
  919SOL    HW1 3674   3.027   2.274   2.240 -0.4932  1.2198 -0.3366
  919SOL    HW2 3675   3.147   2.354   2.204  0.9571  0.4427 -1.4167
  919SOL     MW 3676   3.089   2.330   2.263 -0.1709  0.6257 -0.0958
  920SOL     OW 3677   2.728   2.860   3.094 -0.8695 -0.2366  0.1507
  920SOL    HW1 3678   2.653   2.886   3.145  0.5468 -2.7081  3.3022
  920SOL    HW2 3679   2.702   2.807   3.017 -1.1480  0.6696 -0.3951
  920SOL     MW 3680   2.715   2.856   3.090 -0.7194 -0.4431  0.4945
  921SOL     OW 3681   2.454   2.583   2.621 -0.1723  0.0933 -0.2219
  921SOL    HW1 3682   2.525   2.608   2.554  2.7519 -1.9957 -3.7173
  921SOL    HW2 3683   2.471   2.488   2.652  1.0870 -1.6675 -1.3226
  921SOL     MW 3684   2.465   2.574   2.616  0.3797 -0.4146 -0.8283
  922SOL     OW 3685   2.052   2.868   0.305  0.1211 -0.2156 -0.1286
  922SOL    HW1 3686   2.036   2.891   0.213  2.9149  3.3399  1.2974
  922SOL    HW2 3687   2.047   2.774   0.306 -0.7070  2.4400 -0.1700
  922SOL     MW 3688   2.049   2.859   0.293  0.3805  0.6039  0.0541
  923SOL     OW 3689   2.155   2.824   1.704 -0.4344 -0.0348  0.3493
  923SOL    HW1 3690   2.199   2.754   1.656  1.3099  1.9794  1.4393
  923SOL    HW2 3691   2.127   2.889   1.642  2.6368 -0.4295 -0.4853
  923SOL     MW 3692   2.157   2.823   1.690  0.2009  0.1789  0.3830
  924SOL     OW 3693   1.172   2.627   2.509 -0.3018  0.4596  0.4690
  924SOL    HW1 3694   1.229   2.693   2.545 -0.1074  1.2650  2.8378
  924SOL    HW2 3695   1.172   2.563   2.578  1.4098  2.1687 -0.0511
  924SOL     MW 3696   1.180   2.627   2.523 -0.0503  0.7913  0.7129
  925SOL     OW 3697   2.994   0.190   2.644  0.7206 -0.1157  0.0956
  925SOL    HW1 3698   2.981   0.217   2.546 -0.0344  0.2918  0.2910
  925SOL    HW2 3699   2.967   0.265   2.693  2.5897  2.5014  0.8038
  925SOL     MW 3700   2.989   0.203   2.638  0.8676  0.2834  0.2148
  926SOL     OW 3701   2.730   2.389   2.077 -0.0191  0.1865 -0.3658
  926SOL    HW1 3702   2.760   2.442   2.151 -2.6294  1.6732 -1.6309
  926SOL    HW2 3703   2.808   2.373   2.024  3.0415 -1.4711  0.9631
  926SOL     MW 3704   2.744   2.394   2.080  0.0403  0.1640 -0.3574
  927SOL     OW 3705   2.339   0.142   0.265 -0.1754 -0.4198  0.3142
  927SOL    HW1 3706   2.435   0.174   0.269 -0.9772  0.4153 -0.9081
  927SOL    HW2 3707   2.325   0.114   0.174 -0.0818 -1.1639 -0.9463
  927SOL     MW 3708   2.349   0.142   0.254 -0.2689 -0.4078 -0.0134
  928SOL     OW 3709   2.167   2.433   1.878  0.4366 -0.1207 -1.1887
  928SOL    HW1 3710   2.231   2.397   1.932 -4.0150 -1.9526 -0.4519
  928SOL    HW2 3711   2.174   2.374   1.802 -0.0920 -0.2915 -0.3539
  928SOL     MW 3712   2.176   2.421   1.875 -0.2205 -0.3849 -0.9814
  929SOL     OW 3713   2.755   2.396   2.440 -0.0796 -0.0250  0.2058
  929SOL    HW1 3714   2.818   2.440   2.389 -0.1609  1.3280  0.5254
  929SOL    HW2 3715   2.804   2.360   2.515  2.8014  2.0620 -1.4602
  929SOL     MW 3716   2.770   2.397   2.443  0.2898  0.4289  0.0282
  930SOL     OW 3717   2.019   2.876   2.696 -0.1110  0.8656  0.6164
  930SOL    HW1 3718   2.036   2.799   2.747 -0.3075 -0.6876  1.9451
  930SOL    HW2 3719   2.107   2.913   2.669  2.1694 -0.4077  0.5315
  930SOL     MW 3720   2.033   2.871   2.699  0.1640  0.4927  0.7805
  931SOL     OW 3721   3.019   2.748   2.340 -0.3615 -0.7251 -0.2611
  931SOL    HW1 3722   3.073   2.774   2.415  0.5564  0.7205 -1.1620
  931SOL    HW2 3723   3.081   2.756   2.269  2.8359 -1.2857 -0.8673
  931SOL     MW 3724   3.034   2.752   2.341  0.1815 -0.6083 -0.4599
  932SOL     OW 3725   2.861   1.957   2.563  0.2466  0.3777 -0.2227
  932SOL    HW1 3726   2.952   1.992   2.550 -0.5172  0.7988 -2.5854
  932SOL    HW2 3727   2.826   1.947   2.474 -0.5015  0.9553 -0.8683
  932SOL     MW 3728   2.868   1.960   2.550  0.0471  0.5095 -0.6196
  933SOL     OW 3729   2.045   2.862   2.279  0.5293 -0.6084 -0.1859
  933SOL    HW1 3730   2.124   2.916   2.291  2.6881 -3.5121 -0.5698
  933SOL    HW2 3731   1.971   2.918   2.246 -1.7331  0.4646 -1.3507
  933SOL     MW 3732   2.045   2.876   2.276  0.5156 -0.8499 -0.3902
  934SOL     OW 3733   2.022   2.698   2.493  0.0898  0.4374 -0.4306
  934SOL    HW1 3734   2.035   2.770   2.557  1.3811 -1.1523  1.8243
  934SOL    HW2 3735   2.033   2.738   2.404 -0.2295 -0.9753  0.9335
  934SOL     MW 3736   2.025   2.713   2.490  0.2181  0.0413  0.0469
  935SOL     OW 3737   2.679   1.528   1.785 -0.3785 -0.1171  0.4929
  935SOL    HW1 3738   2.777   1.514   1.788  1.8082 -1.9625 -0.5283
  935SOL    HW2 3739   2.651   1.539   1.697  3.6826 -1.8132  0.1972
  935SOL     MW 3740   2.689   1.527   1.773  0.4458 -0.5844  0.3191
  936SOL     OW 3741   2.981   2.220   3.049  0.1390 -0.0434 -0.0237
  936SOL    HW1 3742   3.031   2.278   3.105 -0.1437  0.1878 -0.1308
  936SOL    HW2 3743   2.896   2.264   3.064 -2.2269 -0.1358 -0.1178
  936SOL     MW 3744   2.976   2.234   3.059 -0.2104 -0.0251 -0.0503
  937SOL     OW 3745   1.929   2.133   2.617  0.5795  0.0939  0.0174
  937SOL    HW1 3746   2.004   2.091   2.660 -1.2859 -0.3892 -1.4550
  937SOL    HW2 3747   1.922   2.089   2.534 -0.0894 -0.1582 -0.0848
  937SOL     MW 3748   1.938   2.122   2.612  0.2451 -0.0031 -0.1903
  938SOL     OW 3749   2.270   1.782   1.960  0.1229 -0.4701  0.3296
  938SOL    HW1 3750   2.290   1.834   1.880  0.9631 -0.2857  0.3731
  938SOL    HW2 3751   2.262   1.854   2.019  1.7313  0.4046 -0.0827
  938SOL     MW 3752   2.272   1.798   1.957  0.4460 -0.3304  0.2809
  939SOL     OW 3753   2.732   1.977   2.337  0.7258 -0.0215  0.1545
  939SOL    HW1 3754   2.755   1.921   2.259 -1.8801  1.5795  0.0887
  939SOL    HW2 3755   2.633   1.968   2.326 -3.2906 -0.8039 -1.8094
  939SOL     MW 3756   2.722   1.968   2.325 -0.1479  0.0865 -0.1133
  940SOL     OW 3757   2.284   0.162   2.634 -0.1742  0.2392 -0.1293
  940SOL    HW1 3758   2.289   0.064   2.647  0.0814  0.3628  2.3142
  940SOL    HW2 3759   2.346   0.182   2.704  0.5919 -0.5935  3.4614
  940SOL     MW 3760   2.293   0.152   2.645 -0.0394  0.1456  0.6669
  941SOL     OW 3761   0.129   2.437   2.059 -0.0837  0.3324  0.1041
  941SOL    HW1 3762   0.230   2.427   2.059 -0.2558 -0.0716 -0.7562
  941SOL    HW2 3763   0.109   2.406   1.974  0.1712  2.2913  3.7078
  941SOL     MW 3764   0.140   2.431   2.048 -0.0728  0.5376  0.4661
  942SOL     OW 3765   2.857   2.159   2.181 -0.3269  0.2750  0.0509
  942SOL    HW1 3766   2.813   2.234   2.140 -1.1078 -1.8440 -1.5713
  942SOL    HW2 3767   2.792   2.124   2.236 -0.1475  0.6839 -2.1154
  942SOL     MW 3768   2.843   2.164   2.183 -0.4063  0.0494 -0.4490
  943SOL     OW 3769   0.312   2.112   2.273  0.5187  0.2191 -0.0804
  943SOL    HW1 3770   0.272   2.183   2.323  1.4955  0.3594 -2.1888
  943SOL    HW2 3771   0.399   2.097   2.320  1.0658 -1.1405 -0.7811
  943SOL     MW 3772   0.318   2.119   2.286  0.7197  0.0583 -0.4510
  944SOL     OW 3773   2.091   2.700   2.079  0.3870  0.0484 -0.9289
  944SOL    HW1 3774   2.169   2.641   2.105  2.4974 -1.2380 -0.2197
  944SOL    HW2 3775   2.068   2.771   2.156  0.0446  0.6526  0.2559
  944SOL     MW 3776   2.098   2.702   2.093  0.6202 -0.0416 -0.6790
  945SOL     OW 3777   2.657   2.696   2.886  0.6395 -0.3564  0.1669
  945SOL    HW1 3778   2.658   2.605   2.861  0.1698  0.4508 -0.8857
  945SOL    HW2 3779   2.596   2.732   2.827  0.6672  1.1963  1.2858
  945SOL     MW 3780   2.649   2.688   2.875  0.5812 -0.0450  0.1757
  946SOL     OW 3781   2.485   2.730   2.296 -0.0750 -0.6931 -0.0802
  946SOL    HW1 3782   2.525   2.761   2.213 -1.2353 -2.0113  3.1719
  946SOL    HW2 3783   2.407   2.676   2.276 -2.8804 -1.1025 -3.2987
  946SOL     MW 3784   2.480   2.727   2.283 -0.5983 -0.9211 -0.0758
  947SOL     OW 3785   1.909   0.068   0.321  0.1361 -0.0272 -0.0609
  947SOL    HW1 3786   1.894  -0.029   0.298 -1.5504  1.8196 -0.7753
  947SOL    HW2 3787   1.981   0.077   0.384  1.1310  2.1376 -1.6820
  947SOL     MW 3788   1.916   0.056   0.326  0.0449  0.5021 -0.3691
  948SOL     OW 3789   1.826   3.066   2.686 -0.6048 -0.4754  0.0238
  948SOL    HW1 3790   1.876   2.982   2.687  0.7338 -0.6814  1.1162
  948SOL    HW2 3791   1.788   3.077   2.595  0.1509 -0.9870 -0.2199
  948SOL     MW 3792   1.827   3.056   2.674 -0.3285 -0.5701  0.1358
  949SOL     OW 3793   2.472   1.918   2.273 -0.2892  0.1170  0.1946
  949SOL    HW1 3794   2.480   1.830   2.313 -0.4740  1.7700 -0.4353
  949SOL    HW2 3795   2.429   1.980   2.337  3.8215  2.2744  1.0288
  949SOL     MW 3796   2.467   1.915   2.286  0.2288  0.6197  0.2216
  950SOL     OW 3797   2.269   2.450   2.957 -0.0353 -0.0100  0.1910
  950SOL    HW1 3798   2.303   2.389   2.892  1.6508  0.3694 -1.8212
  950SOL    HW2 3799   2.212   2.509   2.905 -1.6412  1.3557 -0.8225
  950SOL     MW 3800   2.266   2.450   2.941 -0.0247  0.2202 -0.2082
  951SOL     OW 3801   3.010   2.079   2.803  0.1467 -0.5015 -0.0903
  951SOL    HW1 3802   3.021   2.136   2.882 -0.0347  1.3868  1.3433
  951SOL    HW2 3803   3.074   2.012   2.808 -0.6162 -0.3583 -0.8261
  951SOL     MW 3804   3.020   2.078   2.814  0.0221 -0.2335  0.0018
  952SOL     OW 3805   3.030   1.647   2.142  0.4539  0.2740  0.2434
  952SOL    HW1 3806   2.948   1.699   2.137  0.2907  0.9318 -1.8432
  952SOL    HW2 3807   3.094   1.708   2.178  0.4929 -1.1240 -0.2712
  952SOL     MW 3808   3.028   1.662   2.146  0.4375  0.1763 -0.0998
  953SOL     OW 3809   1.872   1.778   2.900 -0.3601  0.0508 -0.6578
  953SOL    HW1 3810   1.805   1.736   2.958  0.9605 -0.7752 -3.9211
  953SOL    HW2 3811   1.896   1.714   2.828 -0.1988 -0.1099  1.0896
  953SOL     MW 3812   1.866   1.764   2.898 -0.1646 -0.0794 -0.8578
  954SOL     OW 3813   2.371   2.076   2.894 -0.4829 -0.2110 -0.6198
  954SOL    HW1 3814   2.287   2.055   2.861 -1.0198  1.4082 -2.4845
  954SOL    HW2 3815   2.438   2.052   2.824  0.1854  0.2956  0.9040
  954SOL     MW 3816   2.369   2.070   2.880 -0.4656  0.0695 -0.6647
  955SOL     OW 3817   1.554   1.578   2.578  0.1670 -0.3125  0.0218
  955SOL    HW1 3818   1.525   1.608   2.488 -1.6658 -0.7424 -1.6318
  955SOL    HW2 3819   1.639   1.629   2.583 -1.7734 -0.3529  0.6007
  955SOL     MW 3820   1.561   1.589   2.567 -0.3308 -0.3746 -0.1200
  956SOL     OW 3821   2.673   2.429   2.833  0.1617 -0.2220  0.4463
  956SOL    HW1 3822   2.706   2.422   2.921 -1.9571 -0.6571 -0.8714
  956SOL    HW2 3823   2.753   2.399   2.784  1.5756  2.3958 -2.3514
  956SOL     MW 3824   2.688   2.424   2.838  0.0687  0.0660 -0.0967
  957SOL     OW 3825   2.320   2.830   0.358 -0.3269  0.0725 -0.1856
  957SOL    HW1 3826   2.238   2.858   0.318  2.3781 -1.4166 -2.5435
  957SOL    HW2 3827   2.295   2.801   0.452  0.9442 -1.5438  1.1159
  957SOL     MW 3828   2.306   2.830   0.366  0.1977 -0.3372 -0.3250
  958SOL     OW 3829   2.102   2.626   2.827  0.2791  0.1049  0.2431
  958SOL    HW1 3830   2.067   2.554   2.772  0.7786  1.2484  0.2835
  958SOL    HW2 3831   2.039   2.619   2.894  0.5625 -1.9885 -2.0668
  958SOL     MW 3832   2.089   2.616   2.829  0.3824 -0.0204 -0.0563
  959SOL     OW 3833   2.500   2.614   0.338  0.2535  0.2110  0.0347
  959SOL    HW1 3834   2.550   2.618   0.263 -0.8207  0.6564  0.0709
  959SOL    HW2 3835   2.441   2.693   0.330 -0.8935  1.2426 -0.3893
  959SOL     MW 3836   2.499   2.625   0.327 -0.0395  0.4059 -0.0164
  960SOL     OW 3837   1.923   2.284   2.245  0.4192  0.7631  0.3475
  960SOL    HW1 3838   1.940   2.191   2.272  1.5154  1.0124  0.8619
  960SOL    HW2 3839   1.856   2.311   2.309  0.3191 -1.7929 -0.5117
  960SOL     MW 3840   1.916   2.275   2.257  0.5506  0.4588  0.3020
  961SOL     OW 3841   2.197   2.321   2.266 -0.2639 -0.3789  0.1232
  961SOL    HW1 3842   2.103   2.303   2.254  0.2323  0.8303 -0.6363
  961SOL    HW2 3843   2.184   2.382   2.345  0.6715  3.7977  1.6110
  961SOL     MW 3844   2.183   2.326   2.275 -0.0750  0.3317  0.2193
  962SOL     OW 3845   2.152   2.029   2.745  0.3926  0.1629  0.4080
  962SOL    HW1 3846   2.126   1.999   2.828 -2.1107  0.3218  1.0650
  962SOL    HW2 3847   2.166   1.952   2.685  1.2987 -0.1951 -1.4028
  962SOL     MW 3848   2.150   2.015   2.748  0.1818  0.1366  0.2557
  963SOL     OW 3849   1.809   2.548   2.082 -0.5472 -0.1946  0.3160
  963SOL    HW1 3850   1.902   2.553   2.087 -0.2321  1.1475 -1.6801
  963SOL    HW2 3851   1.794   2.483   2.012 -1.2252 -1.2100  2.0778
  963SOL     MW 3852   1.819   2.540   2.073 -0.5951 -0.1515  0.2851
  964SOL     OW 3853   1.754   1.967   2.748 -0.0688 -0.1944  0.0945
  964SOL    HW1 3854   1.812   2.023   2.698 -0.3136 -1.1289  2.2582
  964SOL    HW2 3855   1.818   1.909   2.792 -0.4627  0.6549 -1.2219
  964SOL     MW 3856   1.770   1.967   2.747 -0.1531 -0.2057  0.2063
  965SOL     OW 3857   2.225   2.746   0.604  0.3651 -0.1038  0.7059
  965SOL    HW1 3858   2.233   2.653   0.576  0.3628  0.9053  2.1173
  965SOL    HW2 3859   2.298   2.760   0.668 -0.6936  0.2387  1.5136
  965SOL     MW 3860   2.236   2.735   0.609  0.2251  0.0745  0.9987
  966SOL     OW 3861   2.672   2.663   2.475 -0.6497 -0.5737  0.3575
  966SOL    HW1 3862   2.623   2.675   2.393  1.4365  1.1055 -0.9673
  966SOL    HW2 3863   2.717   2.581   2.455  1.9953  0.0039 -0.1496
  966SOL     MW 3864   2.672   2.653   2.461 -0.0254 -0.2759  0.1158
  967SOL     OW 3865   2.760   3.043   2.881  0.0630  0.3107  0.2670
  967SOL    HW1 3866   2.747   2.986   2.956  1.7023  0.3911 -0.0916
  967SOL    HW2 3867   2.671   3.041   2.841 -1.3159 -0.0699 -1.2747
  967SOL     MW 3868   2.747   3.035   2.886  0.0973  0.2711  0.0163
  968SOL     OW 3869   2.968   2.617   2.896 -0.4689  0.4096 -0.0668
  968SOL    HW1 3870   2.894   2.665   2.869  0.5996 -3.7008  0.2522
  968SOL    HW2 3871   2.987   2.564   2.820 -1.5376 -0.4569  0.0096
  968SOL     MW 3872   2.961   2.616   2.882 -0.4690 -0.2470 -0.0146
  969SOL     OW 3873   1.624   2.153   1.637 -0.0613  0.4079  0.0475
  969SOL    HW1 3874   1.648   2.064   1.638  1.8133  1.1975 -0.7585
  969SOL    HW2 3875   1.583   2.172   1.723 -0.2627  0.8054 -2.2457
  969SOL     MW 3876   1.622   2.144   1.649  0.1594  0.5646 -0.3614
  970SOL     OW 3877   1.686   1.802   1.946  0.3592  0.1263  0.5195
  970SOL    HW1 3878   1.699   1.715   1.992 -0.1506 -2.4754  1.4276
  970SOL    HW2 3879   1.585   1.802   1.940 -1.0292 -3.7110 -0.3680
  970SOL     MW 3880   1.674   1.790   1.951  0.1087 -0.7233  0.5222
  971SOL     OW 3881   1.737   0.009   2.415  0.2864 -0.4320  0.3406
  971SOL    HW1 3882   1.774  -0.032   2.341 -0.5081 -2.2216  1.5870
  971SOL    HW2 3883   1.799   0.086   2.429  0.0301 -2.0460 -1.0836
  971SOL     MW 3884   1.750   0.013   2.407  0.1478 -0.8810  0.3171
  972SOL     OW 3885   0.280   2.867   2.470 -0.0649  0.7139 -0.4318
  972SOL    HW1 3886   0.339   2.789   2.470  1.4227  1.8369 -1.0370
  972SOL    HW2 3887   0.331   2.949   2.478  0.2359  0.6454 -3.6518
  972SOL     MW 3888   0.294   2.867   2.471  0.1710  0.8531 -0.9365
  973SOL     OW 3889   2.543   0.005   2.101 -0.2678  0.7088  0.3741
  973SOL    HW1 3890   2.513  -0.080   2.067  0.4949 -1.7100  0.5295
  973SOL    HW2 3891   2.557   0.054   2.015  1.2750 -3.2369 -0.3796
  973SOL     MW 3892   2.541   0.000   2.085  0.0364 -0.1310  0.2952
  974SOL     OW 3893   2.014   0.222   2.689 -0.1157  0.7620 -0.2866
  974SOL    HW1 3894   2.104   0.233   2.671 -1.5725 -0.6258 -0.5395
  974SOL    HW2 3895   2.019   0.146   2.745  1.1607  0.4083  0.5552
  974SOL     MW 3896   2.026   0.213   2.694 -0.1395  0.5322 -0.2089
  975SOL     OW 3897   2.212   2.486   2.502  0.2636 -0.0586  0.4127
  975SOL    HW1 3898   2.272   2.536   2.557  0.7963 -0.6459  0.5616
  975SOL    HW2 3899   2.144   2.553   2.483 -1.0701  0.3740  1.3358
  975SOL     MW 3900   2.211   2.501   2.507  0.1579 -0.0790  0.5541
  976SOL     OW 3901   0.227   0.361   1.754  0.2470  0.3360  0.7161
  976SOL    HW1 3902   0.288   0.295   1.799 -0.9814 -0.8284 -0.3386
  976SOL    HW2 3903   0.157   0.305   1.707 -3.1407 -0.1348  0.4629
  976SOL     MW 3904   0.226   0.345   1.753 -0.3620  0.1202  0.5435
  977SOL     OW 3905   1.750   2.647   2.543 -0.1813  0.4125  0.5701
  977SOL    HW1 3906   1.753   2.553   2.507  2.6534 -0.3566  4.1640
  977SOL    HW2 3907   1.834   2.684   2.536 -2.1099  0.8421  2.5705
  977SOL     MW 3908   1.761   2.639   2.537 -0.0617  0.3677  1.3082
   3.10000   3.10000   3.10000
