977 TIP4P/2005f water molecules t=   1.08000 step= 1080
 3908
    1SOL     OW    1   0.401   0.791   0.026  0.3600 -0.3223 -0.5182
    1SOL    HW1    2   0.432   0.834  -0.056  0.9488 -0.1832  1.4650
    1SOL    HW2    3   0.321   0.739   0.002 -1.8409 -1.8253  0.1027
    1SOL     MW    4   0.394   0.790   0.012  0.1473 -0.5023 -0.1746
    2SOL     OW    5   0.334   3.057   1.179 -0.2596 -0.4296  0.0920
    2SOL    HW1    6   0.371   3.134   1.132  2.8321  1.6182 -0.8529
    2SOL    HW2    7   0.239   3.060   1.194  0.8822 -1.2123  0.6343
    2SOL     MW    8   0.326   3.067   1.174  0.2990 -0.2627  0.0389
    3SOL     OW    9   2.617   0.441   0.984 -0.7606 -0.1304  0.0783
    3SOL    HW1   10   2.660   0.483   0.919  1.9760  0.0025  2.2567
    3SOL    HW2   11   2.578   0.501   1.052 -1.0606  0.3111 -0.3470
    3SOL     MW   12   2.617   0.454   0.985 -0.4391 -0.0546  0.3096
    4SOL     OW   13   2.933   1.682   0.554  0.0633  0.6072 -0.5291
    4SOL    HW1   14   2.888   1.734   0.488 -0.2972  1.1200 -3.2363
    4SOL    HW2   15   3.001   1.646   0.497 -0.3200 -1.9903  0.1792
    4SOL     MW   16   2.936   1.684   0.538 -0.0348  0.3322 -0.7928
    5SOL     OW   17   1.746   1.486   0.526 -1.1473  0.2936 -0.2016
    5SOL    HW1   18   1.744   1.438   0.607  1.3674 -3.2846 -1.1403
    5SOL    HW2   19   1.651   1.509   0.506 -1.5893 -1.3373  1.3812
    5SOL     MW   20   1.733   1.483   0.534 -0.8738 -0.3937 -0.1166
    6SOL     OW   21   0.802   1.368   0.578 -0.2149 -0.1141  0.1327
    6SOL    HW1   22   0.705   1.376   0.589 -0.2572 -3.1546 -1.9278
    6SOL    HW2   23   0.827   1.293   0.632  0.6996  0.4664 -0.9708
    6SOL     MW   24   0.793   1.359   0.587 -0.0998 -0.4387 -0.2848
    7SOL     OW   25   2.071   1.021   0.007  0.3003 -0.2346  0.4907
    7SOL    HW1   26   2.110   1.059  -0.069 -1.3157  1.7800 -0.9982
    7SOL    HW2   27   2.123   1.056   0.078 -1.5224  1.7358 -0.2487
    7SOL     MW   28   2.083   1.031   0.007 -0.1534  0.2912  0.1967
    8SOL     OW   29   0.906   1.442   1.167 -0.2591  0.3910  0.3932
    8SOL    HW1   30   0.989   1.402   1.146  1.3798  0.1458  1.8145
    8SOL    HW2   31   0.854   1.367   1.189  1.0214  1.4818 -0.7601
    8SOL     MW   32   0.910   1.427   1.167  0.1261  0.5026  0.4285
    9SOL     OW   33   1.013   0.531   1.399 -0.4502 -0.3634  0.0518
    9SOL    HW1   34   0.956   0.473   1.343 -0.6594 -0.6905 -2.2581
    9SOL    HW2   35   1.050   0.475   1.468  0.3212  1.1012 -0.9574
    9SOL     MW   36   1.011   0.516   1.401 -0.3760 -0.2134 -0.3861
   10SOL     OW   37   0.208   0.766   0.466  0.1097  0.2140  0.6976
   10SOL    HW1   38   0.300   0.799   0.441  1.0811 -0.6568 -1.6616
   10SOL    HW2   39   0.172   0.820   0.542  2.8966  0.1364  0.8076
   10SOL     MW   40   0.216   0.778   0.473  0.6056  0.0889  0.4009
   11SOL     OW   41   0.814   1.139   1.624  0.2569  0.0813 -0.8356
   11SOL    HW1   42   0.861   1.162   1.708  1.1247  2.6707 -1.6488
   11SOL    HW2   43   0.819   1.050   1.607 -3.4013  1.3882  0.3213
   11SOL     MW   44   0.821   1.130   1.632 -0.1113  0.5954 -0.7903
   12SOL     OW   45   0.022   1.086   0.867 -0.1102 -0.4383  0.4075
   12SOL    HW1   46   0.055   1.153   0.927 -1.4957  3.8909  0.4253
   12SOL    HW2   47  -0.036   1.133   0.814 -1.6082 -2.0827 -0.0151
   12SOL     MW   48   0.019   1.101   0.868 -0.4906 -0.0841  0.3541
   13SOL     OW   49   1.840   1.441   1.334 -0.3807 -0.0841 -0.1236
   13SOL    HW1   50   1.879   1.395   1.263  0.3189  1.3434  2.0526
   13SOL    HW2   51   1.859   1.536   1.322  2.7130 -1.0629 -1.6259
   13SOL     MW   52   1.848   1.448   1.323  0.1198 -0.0249 -0.0346
   14SOL     OW   53   0.575   0.400   1.863 -0.2253  0.1134  0.0145
   14SOL    HW1   54   0.516   0.325   1.885  1.3936 -0.0229  0.0930
   14SOL    HW2   55   0.649   0.350   1.825 -3.6863  0.7969 -0.5630
   14SOL     MW   56   0.577   0.383   1.861 -0.4684  0.1856 -0.0513
   15SOL     OW   57   1.954   0.351   1.061  0.5903  0.1156 -0.3921
   15SOL    HW1   58   1.951   0.430   1.113  0.7989  0.6680  0.9127
   15SOL    HW2   59   2.027   0.359   1.000 -0.5787 -1.9380 -0.8673
   15SOL     MW   60   1.964   0.363   1.060  0.4636 -0.0825 -0.2827
   16SOL     OW   61   0.189   1.801   0.325 -0.2335 -0.1375 -0.3264
   16SOL    HW1   62   0.273   1.749   0.344 -0.3821  0.0773  1.0012
   16SOL    HW2   63   0.213   1.888   0.343  2.5266 -1.1745  0.1947
   16SOL     MW   64   0.203   1.806   0.330  0.1111 -0.2460 -0.0825
   17SOL     OW   65   1.093   0.918   1.447 -0.4323  0.5626  0.5060
   17SOL    HW1   66   1.121   0.918   1.535 -0.2796  0.4613 -1.5616
   17SOL    HW2   67   1.000   0.894   1.453  0.3673  1.6808 -1.7093
   17SOL     MW   68   1.084   0.915   1.459 -0.3067  0.6967 -0.0591
   18SOL     OW   69   0.034   1.571   0.413 -0.1896  0.1271 -0.5995
   18SOL    HW1   70   0.065   1.654   0.386  0.0043 -3.4065  1.1704
   18SOL    HW2   71   0.031   1.516   0.333  1.2660  3.0746 -0.7894
   18SOL     MW   72   0.037   1.575   0.399  0.0280  0.0498 -0.3910
   19SOL     OW   73   0.104   1.280   1.034 -0.5522  0.2786  0.0916
   19SOL    HW1   74   0.128   1.327   0.952 -0.3190 -0.2399  3.8834
   19SOL    HW2   75   0.010   1.307   1.048 -2.2193 -1.4521 -1.1742
   19SOL     MW   76   0.094   1.290   1.025 -0.7414 -0.0182  0.4249
   20SOL     OW   77   0.442   2.154   1.170  0.2387  0.1523  0.3243
   20SOL    HW1   78   0.395   2.079   1.133 -1.5387 -0.4290  0.0097
   20SOL    HW2   79   0.389   2.180   1.248 -0.2207  3.3394 -2.3190
   20SOL     MW   80   0.429   2.147   1.176 -0.0565  0.4961 -0.0660
   21SOL     OW   81   0.454   0.870   0.416 -0.0910 -0.0022  0.4614
   21SOL    HW1   82   0.508   0.825   0.483  0.8740  0.3946  0.2360
   21SOL    HW2   83   0.513   0.864   0.343 -1.0551  2.8397  1.1904
   21SOL     MW   84   0.469   0.863   0.415 -0.0909  0.4251  0.5278
   22SOL     OW   85   1.593   0.638   1.034 -0.1772  0.2095  0.3014
   22SOL    HW1   86   1.547   0.632   0.953  2.5628  0.6415  1.4979
   22SOL    HW2   87   1.535   0.699   1.082  0.9529  0.5567 -1.9224
   22SOL     MW   88   1.579   0.645   1.029  0.3334  0.3123  0.1658
   23SOL     OW   89   3.052   0.697   0.672 -0.4340 -0.4477  0.6045
   23SOL    HW1   90   3.119   0.630   0.709  2.4304 -0.7294  0.5634
   23SOL    HW2   91   3.113   0.772   0.673 -0.5910  0.8070 -0.7737
   23SOL     MW   92   3.069   0.698   0.677 -0.0768 -0.3193  0.4172
   24SOL     OW   93   2.025   2.204   0.030 -0.2634 -0.2397  0.1084
   24SOL    HW1   94   2.011   2.189   0.124 -0.9395  1.5661 -1.3936
   24SOL    HW2   95   2.034   2.123  -0.023 -0.4499 -2.5528 -0.3298
   24SOL     MW   96   2.025   2.191   0.035 -0.3772 -0.3066 -0.1476
   25SOL     OW   97   0.229   1.424   0.570  0.2833  0.1292 -0.0518
   25SOL    HW1   98   0.171   1.481   0.525  0.0667 -1.4985  1.4268
   25SOL    HW2   99   0.313   1.451   0.542 -2.6078 -2.3309 -1.7833
   25SOL     MW  100   0.233   1.435   0.560 -0.1267 -0.4102 -0.0852
   26SOL     OW  101   2.106   1.040   0.349 -0.1362  0.8266 -0.4762
   26SOL    HW1  102   2.035   1.090   0.383 -0.0076  1.7516 -2.2481
   26SOL    HW2  103   2.149   1.109   0.294 -2.8442  0.9599  0.0029
   26SOL     MW  104   2.103   1.056   0.346 -0.4766  0.9663 -0.6468
   27SOL     OW  105   1.994   1.442   0.233 -0.3474  0.2709 -0.3035
   27SOL    HW1  106   1.916   1.492   0.263  0.5155  2.3237  1.9504
   27SOL    HW2  107   2.061   1.450   0.303 -0.8533 -3.7177  0.1602
   27SOL     MW  108   1.993   1.449   0.246 -0.3003  0.0155  0.0550
   28SOL     OW  109   0.433   0.995   1.952  0.2368 -0.0280  0.3579
   28SOL    HW1  110   0.485   0.974   2.033 -1.9659  1.4873 -0.2378
   28SOL    HW2  111   0.352   0.947   1.964 -1.3506  1.0367 -1.5077
   28SOL     MW  112   0.429   0.986   1.964 -0.2633  0.3124  0.0332
   29SOL     OW  113   0.213   1.456   0.847 -0.4388  0.0835  0.7230
   29SOL    HW1  114   0.206   1.551   0.825  1.5514 -0.7844  2.2359
   29SOL    HW2  115   0.216   1.412   0.761  0.0672 -1.1826 -0.3274
   29SOL     MW  116   0.212   1.463   0.832 -0.1095 -0.1981  0.7840
   30SOL     OW  117   0.818   1.198   1.226 -0.0526 -0.0777 -0.0110
   30SOL    HW1  118   0.738   1.217   1.275 -1.5165  2.4501  0.9107
   30SOL    HW2  119   0.885   1.186   1.301  0.0817  0.0647  3.0015
   30SOL     MW  120   0.816   1.199   1.242 -0.2280  0.2746  0.5081
   31SOL     OW  121   0.451   0.244   0.164  0.2039  0.9125  0.0348
   31SOL    HW1  122   0.444   0.191   0.238  1.1000 -0.5765 -1.0253
   31SOL    HW2  123   0.429   0.183   0.090 -0.3852  1.4467 -1.3465
   31SOL     MW  124   0.447   0.229   0.164  0.2444  0.7866 -0.2873
   32SOL     OW  125   2.815   0.971   1.183  0.2053 -0.1919  0.1297
   32SOL    HW1  126   2.769   0.893   1.195  0.7963  0.2411 -0.6435
   32SOL    HW2  127   2.900   0.939   1.151 -0.3488 -0.6506  0.3480
   32SOL     MW  128   2.820   0.956   1.180  0.2102 -0.1953  0.0565
   33SOL     OW  129   1.722   1.304   0.322 -0.1524 -0.0917  0.0825
   33SOL    HW1  130   1.794   1.245   0.341 -2.4199 -0.0012 -0.5288
   33SOL    HW2  131   1.715   1.346   0.405 -0.2730 -0.1580  0.9226
   33SOL     MW  132   1.731   1.301   0.335 -0.4675 -0.0885  0.1127
   34SOL     OW  133   1.222   1.895   1.102 -0.0960  0.4831 -0.1566
   34SOL    HW1  134   1.135   1.933   1.118 -1.3499  0.0168 -0.9767
   34SOL    HW2  135   1.274   1.933   1.173 -0.0243  1.0652  1.4903
   34SOL     MW  136   1.217   1.905   1.114 -0.2520  0.4984 -0.0475
   35SOL     OW  137   0.411   0.148   1.851 -0.6940 -0.0979  0.7098
   35SOL    HW1  138   0.427   0.072   1.906 -0.9350  0.4010 -1.5004
   35SOL    HW2  139   0.434   0.121   1.760 -2.1665  0.4152  2.7850
   35SOL     MW  140   0.416   0.134   1.846 -0.9201  0.0356  0.6920
   36SOL     OW  141   1.965   1.965   0.600  0.0835 -0.2958  0.4957
   36SOL    HW1  142   1.977   1.950   0.507 -2.3120  2.5146 -1.6818
   36SOL    HW2  143   1.958   1.877   0.640  0.6619  1.3732  1.1197
   36SOL     MW  144   1.966   1.951   0.593 -0.1563  0.2952  0.2907
   37SOL     OW  145   1.803   1.976   0.958 -0.2410 -0.2074 -0.5563
   37SOL    HW1  146   1.749   1.924   0.897 -0.6802  0.5331  3.9466
   37SOL    HW2  147   1.740   2.025   1.010  1.5661  0.8875  1.7762
   37SOL     MW  148   1.788   1.976   0.957 -0.0605  0.0348  0.3456
   38SOL     OW  149   2.815   0.934   0.147 -0.3181  0.3698 -0.1093
   38SOL    HW1  150   2.843   0.900   0.236 -0.6090 -1.4764  0.5608
   38SOL    HW2  151   2.886   0.911   0.090 -1.9170  2.5087 -2.1463
   38SOL     MW  152   2.828   0.926   0.152 -0.5674  0.4084 -0.2897
   39SOL     OW  153   1.430   0.625   0.804  0.1644 -0.2632 -0.1307
   39SOL    HW1  154   1.396   0.537   0.826 -0.8430 -0.8831 -1.0412
   39SOL    HW2  155   1.344   0.669   0.785  1.9697  1.0417  2.2791
   39SOL     MW  156   1.414   0.619   0.805  0.2697 -0.1728  0.0671
   40SOL     OW  157   1.182   1.918   0.314  0.2129  0.2183 -0.3795
   40SOL    HW1  158   1.246   1.852   0.342 -0.6365 -1.9064  0.9765
   40SOL    HW2  159   1.217   2.002   0.349 -1.4732  2.1019 -2.3537
   40SOL     MW  160   1.195   1.920   0.323 -0.1216  0.1865 -0.4610
   41SOL     OW  161   0.576   0.528   1.622 -0.4358 -0.4030 -0.9254
   41SOL    HW1  162   0.660   0.575   1.625 -0.5969 -0.8224 -1.4851
   41SOL    HW2  163   0.586   0.466   1.699 -0.7446 -2.4934  0.0912
   41SOL     MW  164   0.589   0.526   1.633 -0.4978 -0.7341 -0.8651
   42SOL     OW  165   1.280   3.000   2.009  0.4406  0.2240  0.0238
   42SOL    HW1  166   1.199   3.002   2.056  1.4573 -1.8975  0.3840
   42SOL    HW2  167   1.346   2.963   2.073  0.6287  1.7567  1.2118
   42SOL     MW  168   1.278   2.995   2.024  0.5995  0.1463  0.2281
   43SOL     OW  169   1.522   0.118   1.701  0.1566 -0.2865 -0.1805
   43SOL    HW1  170   1.582   0.088   1.628 -0.4569  1.3690 -1.4206
   43SOL    HW2  171   1.435   0.079   1.689  0.6063 -0.4512 -5.1781
   43SOL     MW  172   1.519   0.109   1.690  0.1350 -0.0898 -1.0035
   44SOL     OW  173   1.101   0.800   1.035  0.5013  0.0801 -0.2290
   44SOL    HW1  174   1.096   0.889   1.002 -0.3014 -0.3858 -2.7354
   44SOL    HW2  175   1.157   0.802   1.110  0.5321  0.2063 -1.4320
   44SOL     MW  176   1.108   0.812   1.041  0.3995  0.0353 -0.7184
   45SOL     OW  177   1.226   0.758   0.637  0.5553  0.0894 -0.3410
   45SOL    HW1  178   1.145   0.809   0.619 -0.2297  1.1394  1.5964
   45SOL    HW2  179   1.210   0.684   0.566  0.3664 -2.5765 -0.8353
   45SOL     MW  180   1.213   0.755   0.625  0.4268 -0.1238 -0.1506
   46SOL     OW  181   0.549   1.154   0.599 -0.1882 -0.3077 -0.0611
   46SOL    HW1  182   0.536   1.153   0.501  1.1851  1.5045  0.3284
   46SOL    HW2  183   0.625   1.098   0.598  2.1164 -1.1683 -2.0741
   46SOL     MW  184   0.557   1.146   0.586  0.2971 -0.1821 -0.2753
   47SOL     OW  185   0.217   2.050   1.987  0.2985 -0.4105 -0.4532
   47SOL    HW1  186   0.306   2.011   1.991  0.2927 -0.6874  0.8035
   47SOL    HW2  187   0.210   2.096   2.068  0.5354  1.3915  0.2880
   47SOL     MW  188   0.228   2.051   1.999  0.3290 -0.2093 -0.1896
   48SOL     OW  189   1.059   0.488   1.057  0.0963  0.2530  0.5041
   48SOL    HW1  190   0.971   0.466   1.035  2.2252  1.5965  4.3227
   48SOL    HW2  191   1.067   0.585   1.052  0.4818  3.7052 -0.7413
   48SOL     MW  192   1.049   0.498   1.054  0.4281  0.8857  0.8436
   49SOL     OW  193   1.726   0.702   1.541 -0.7620 -0.2371  0.5476
   49SOL    HW1  194   1.725   0.639   1.616 -0.3233 -2.0562  0.9783
   49SOL    HW2  195   1.782   0.659   1.480 -2.6850 -0.4647  1.3453
   49SOL     MW  196   1.734   0.688   1.543 -0.9578 -0.5071  0.7097
   50SOL     OW  197   1.329   1.070   0.517  0.1109 -0.0196  0.2329
   50SOL    HW1  198   1.279   1.103   0.590 -1.5945 -0.6536 -0.7810
   50SOL    HW2  199   1.364   0.989   0.551 -0.6587  0.5327  0.5692
   50SOL     MW  200   1.327   1.063   0.531 -0.2157 -0.0304  0.1435
   51SOL     OW  201   0.343   2.920   0.909  0.4882 -0.0137  0.0951
   51SOL    HW1  202   0.423   2.863   0.907  0.4652 -1.2648 -0.8740
   51SOL    HW2  203   0.348   2.986   0.982 -1.0534  4.3190  0.0782
   51SOL     MW  204   0.354   2.921   0.918  0.2818  0.3929 -0.0350
   52SOL     OW  205   0.780   1.720   0.412  0.1202 -0.2425 -0.1595
   52SOL    HW1  206   0.758   1.802   0.364  2.1449 -0.5940  1.5164
   52SOL    HW2  207   0.797   1.650   0.348 -0.3676 -0.6952  0.1227
   52SOL     MW  208   0.779   1.722   0.397  0.3230 -0.3486  0.0988
   53SOL     OW  209   0.442   2.101   0.481  0.3693  0.2931 -0.7797
   53SOL    HW1  210   0.374   2.101   0.417 -0.8810 -1.5184 -0.3950
   53SOL    HW2  211   0.423   2.190   0.522 -0.3835  3.8352 -3.6718
   53SOL     MW  212   0.430   2.113   0.478  0.1050  0.5214 -1.1105
   54SOL     OW  213   1.999   0.941   0.792 -0.2601 -0.0902  0.2885
   54SOL    HW1  214   2.047   0.964   0.710  2.6815 -1.3333  0.7114
   54SOL    HW2  215   1.978   0.848   0.780  0.0013 -1.4026  0.8763
   54SOL     MW  216   2.003   0.932   0.779  0.1625 -0.4274  0.4219
   55SOL     OW  217   0.546   1.551   1.615  0.1700  0.0740  0.1251
   55SOL    HW1  218   0.479   1.598   1.565 -0.5038  0.4018 -0.3011
   55SOL    HW2  219   0.599   1.517   1.545  1.8239  2.4347 -0.5691
   55SOL     MW  220   0.544   1.552   1.599  0.2993  0.4288 -0.0227
   56SOL     OW  221   0.618   0.830   0.188 -0.0124  0.4776 -0.1376
   56SOL    HW1  222   0.623   0.919   0.154  0.2801 -1.4923 -2.6839
   56SOL    HW2  223   0.543   0.791   0.142 -0.0167  1.4657  2.0043
   56SOL     MW  224   0.609   0.837   0.177  0.0257  0.3480 -0.1910
   57SOL     OW  225   1.172   1.255   1.180  0.8579 -0.1064 -0.2551
   57SOL    HW1  226   1.261   1.247   1.203 -0.5950  0.0489  0.5854
   57SOL    HW2  227   1.114   1.213   1.245  0.1613  0.6447  3.1911
   57SOL     MW  228   1.176   1.248   1.191  0.5743  0.0132  0.3105
   58SOL     OW  229   0.525   1.235   1.350 -0.6069  0.2875  0.0500
   58SOL    HW1  230   0.496   1.318   1.313  2.7397  2.1351  0.9375
   58SOL    HW2  231   0.524   1.273   1.435 -0.6501  3.9780 -1.0871
   58SOL     MW  232   0.521   1.251   1.356 -0.1711  1.0182  0.0171
   59SOL     OW  233   1.545   1.691   0.355  0.1600  0.0437  0.0662
   59SOL    HW1  234   1.576   1.751   0.421  2.0302 -2.3323  0.3032
   59SOL    HW2  235   1.455   1.656   0.381 -1.7407 -0.6735 -0.5714
   59SOL     MW  236   1.537   1.694   0.367  0.1559 -0.3644  0.0133
   60SOL     OW  237   0.036   0.222   1.648  0.7428  0.2029  0.6958
   60SOL    HW1  238  -0.045   0.255   1.667  2.9505 -1.8872  1.4455
   60SOL    HW2  239   0.062   0.144   1.701  1.0947 -0.0425  1.5738
   60SOL     MW  240   0.029   0.216   1.658  1.0805 -0.1052  0.9106
   61SOL     OW  241   2.044   1.430   3.059 -0.4095 -0.4835 -0.2856
   61SOL    HW1  242   2.044   1.420   3.157 -0.3296 -0.6628  0.1335
   61SOL    HW2  243   2.128   1.383   3.031  1.3896 -1.1917  3.1872
   61SOL     MW  244   2.055   1.422   3.068 -0.1615 -0.6006  0.2279
   62SOL     OW  245   0.578   1.704   0.602  0.0256 -0.1545 -0.1576
   62SOL    HW1  246   0.660   1.703   0.550 -0.4860 -2.6436  1.7096
   62SOL    HW2  247   0.559   1.622   0.628  3.2532  1.7435 -3.7354
   62SOL     MW  248   0.586   1.693   0.598  0.3839 -0.2325 -0.3833
   63SOL     OW  249   1.690   0.691   0.714 -0.2717 -0.0433 -0.0962
   63SOL    HW1  250   1.705   0.772   0.663  0.9600 -1.0022  0.6522
   63SOL    HW2  251   1.596   0.694   0.739 -0.3300  0.4074 -0.0115
   63SOL     MW  252   1.680   0.702   0.711 -0.1169 -0.1103  0.0138
   64SOL     OW  253   0.227   1.715   0.828  0.0002  0.4753  0.1079
   64SOL    HW1  254   0.271   1.742   0.751 -0.2072 -1.7961  0.5417
   64SOL    HW2  255   0.148   1.770   0.841  0.8848  0.8909 -1.1837
   64SOL     MW  256   0.222   1.725   0.819  0.0896  0.2305 -0.0053
   65SOL     OW  257   1.587   2.314   0.403 -0.0032  0.1838  0.5059
   65SOL    HW1  258   1.644   2.246   0.441  0.3657 -0.2903  1.9289
   65SOL    HW2  259   1.545   2.342   0.487 -0.9363 -1.2059 -1.1086
   65SOL     MW  260   1.589   2.309   0.419 -0.0776 -0.0621  0.4806
   66SOL     OW  261   0.288   0.519   0.544 -0.2651 -0.0485  0.0227
   66SOL    HW1  262   0.368   0.509   0.482  1.9158  0.1622 -0.6040
   66SOL    HW2  263   0.251   0.606   0.521  1.6007 -1.2102 -1.0582
   66SOL     MW  264   0.293   0.530   0.533  0.2688 -0.1740 -0.2026
   67SOL     OW  265   1.487   0.076   2.004 -0.4915  0.3658 -0.3934
   67SOL    HW1  266   1.514   0.055   1.915  0.5199 -1.4528 -2.3668
   67SOL    HW2  267   1.404   0.026   2.022 -2.3692 -1.4390 -0.9565
   67SOL     MW  268   1.480   0.066   1.995 -0.6058 -0.1123 -0.7280
   68SOL     OW  269   0.700   0.041   2.978 -0.2542  0.1367  0.3884
   68SOL    HW1  270   0.699   0.089   2.892 -2.4334  0.9985 -0.1495
   68SOL    HW2  271   0.793   0.047   3.009 -1.5206 -1.8733  3.0714
   68SOL     MW  272   0.712   0.048   2.971 -0.7088 -0.0148  0.6714
   69SOL     OW  273   1.045   0.200   1.960 -0.4646  0.1111  0.6537
   69SOL    HW1  274   1.139   0.212   1.983 -1.7013 -1.1722  3.8604
   69SOL    HW2  275   1.016   0.117   2.004 -0.4896 -3.4690 -0.6423
   69SOL     MW  276   1.053   0.190   1.969 -0.6311 -0.5306  0.9058
   70SOL     OW  277   0.584   1.733   1.158  0.1153  0.1649  0.7719
   70SOL    HW1  278   0.632   1.694   1.230  2.3898  0.4792 -1.9451
   70SOL    HW2  279   0.646   1.791   1.109  0.6509 -0.0618 -2.8644
   70SOL     MW  280   0.599   1.736   1.161  0.4861  0.1765 -0.0664
   71SOL     OW  281   1.592   0.463   1.246 -0.4081 -0.2353 -0.0051
   71SOL    HW1  282   1.578   0.523   1.321  0.4099  0.0601  1.2426
   71SOL    HW2  283   1.587   0.527   1.174  0.6985  0.3410 -0.2777
   71SOL     MW  284   1.589   0.480   1.247 -0.1541 -0.1203  0.1236
   72SOL     OW  285   0.782   1.845   1.001  0.2534 -0.1414  0.5139
   72SOL    HW1  286   0.790   1.898   0.918  0.7300 -1.0474  1.6887
   72SOL    HW2  287   0.800   1.751   0.970 -0.9917 -1.1518 -1.3817
   72SOL     MW  288   0.786   1.840   0.986  0.1520 -0.3943  0.4188
   73SOL     OW  289   1.190   0.719   1.272 -0.0619  0.7462  0.0678
   73SOL    HW1  290   1.128   0.651   1.288  1.3792 -0.0573  2.1502
   73SOL    HW2  291   1.160   0.797   1.329 -0.6699  0.9434  1.1544
   73SOL     MW  292   1.178   0.721   1.282  0.0480  0.6662  0.4859
   74SOL     OW  293   2.740   0.196   1.039  0.7087 -0.1704  0.8706
   74SOL    HW1  294   2.808   0.183   0.976 -1.1047 -0.7195  2.1182
   74SOL    HW2  295   2.700   0.284   1.031 -2.2015  0.0067 -0.4276
   74SOL     MW  296   2.743   0.206   1.029  0.0855 -0.2195  0.8639
   75SOL     OW  297   1.547   1.446   0.148 -0.4484  0.5037  0.2890
   75SOL    HW1  298   1.614   1.505   0.115 -0.3564  0.4548 -2.1591
   75SOL    HW2  299   1.590   1.404   0.225  1.5273  1.5690 -2.2243
   75SOL     MW  300   1.561   1.448   0.154 -0.1756  0.6378 -0.3656
   76SOL     OW  301   2.936   0.545   0.476  0.0231 -0.3387  0.2350
   76SOL    HW1  302   2.978   0.611   0.536 -0.3277  0.0789 -0.0609
   76SOL    HW2  303   3.010   0.506   0.430  0.1296  1.5046  1.6484
   76SOL     MW  304   2.952   0.549   0.478 -0.0091 -0.0404  0.3825
   77SOL     OW  305   0.827   0.572   0.480  0.3140  0.3301 -0.0173
   77SOL    HW1  306   0.803   0.583   0.387 -0.4546  0.5951  1.0273
   77SOL    HW2  307   0.774   0.493   0.506 -0.2065 -1.2133  1.1212
   77SOL     MW  308   0.817   0.563   0.471  0.1440  0.1614  0.2707
   78SOL     OW  309   0.756   0.903   1.246 -0.0447 -0.1938 -0.4116
   78SOL    HW1  310   0.790   0.990   1.211 -2.5824 -0.5206 -1.2499
   78SOL    HW2  311   0.679   0.882   1.192 -1.0498  0.0352  0.8387
   78SOL     MW  312   0.750   0.912   1.234 -0.5122 -0.2067 -0.3573
   79SOL     OW  313   1.940   1.672   0.604 -0.3987  0.1714  0.2236
   79SOL    HW1  314   1.865   1.635   0.561 -2.6944 -2.8454  1.1594
   79SOL    HW2  315   1.934   1.641   0.697  0.8119 -1.8284  0.7141
   79SOL     MW  316   1.929   1.663   0.611 -0.5419 -0.4905  0.4118
   80SOL     OW  317   0.083   0.952   0.320 -0.2576 -0.3957 -0.0753
   80SOL    HW1  318  -0.005   0.921   0.305 -2.5751 -1.4163 -1.0985
   80SOL    HW2  319   0.112   0.879   0.372  0.2455 -1.4943 -1.2401
   80SOL     MW  320   0.076   0.938   0.325 -0.4970 -0.6753 -0.3640
   81SOL     OW  321   1.909   1.883   0.321 -0.1009 -0.3939 -0.7521
   81SOL    HW1  322   1.883   1.800   0.281 -0.3979  1.0455 -1.8918
   81SOL    HW2  323   1.839   1.934   0.277 -0.0847 -3.4325  0.5416
   81SOL     MW  324   1.897   1.879   0.310 -0.1379 -0.6049 -0.7318
   82SOL     OW  325   0.800   1.005   0.555  0.2471 -0.1276 -0.0576
   82SOL    HW1  326   0.797   1.024   0.457  2.8637  0.6449 -2.7789
   82SOL    HW2  327   0.767   0.918   0.554  1.0948  1.8839  0.2093
   82SOL     MW  328   0.795   0.996   0.542  0.7042  0.2398 -0.3814
   83SOL     OW  329   0.067   0.678   1.435 -0.3875  0.1493  0.1057
   83SOL    HW1  330   0.098   0.748   1.375  1.8052  0.5004  1.5760
   83SOL    HW2  331   0.140   0.620   1.457  0.0179  0.8148 -0.7161
   83SOL     MW  332   0.081   0.680   1.430 -0.0447  0.2834  0.1913
   84SOL     OW  333   0.122   0.204   1.019 -0.5587 -0.2860 -0.4265
   84SOL    HW1  334   0.064   0.281   1.019 -1.9703 -0.0725 -0.6230
   84SOL    HW2  335   0.111   0.153   1.097  2.0567  0.8169 -0.7799
   84SOL     MW  336   0.113   0.207   1.029 -0.3998 -0.1123 -0.4990
   85SOL     OW  337   0.466   0.447   0.765 -0.3610  0.1789 -0.6116
   85SOL    HW1  338   0.428   0.481   0.687 -1.0630  1.2965 -2.7173
   85SOL    HW2  339   0.414   0.368   0.774  0.7216  3.3586 -0.7964
   85SOL     MW  340   0.454   0.441   0.756 -0.3108  0.7459 -0.9138
   86SOL     OW  341   1.176   0.236   1.112 -0.2945 -0.3263 -0.3965
   86SOL    HW1  342   1.143   0.319   1.090  2.3169 -0.2364  2.0170
   86SOL    HW2  343   1.248   0.267   1.168  0.3427 -1.3831 -0.7532
   86SOL     MW  344   1.181   0.251   1.116  0.1341 -0.4539 -0.1251
   87SOL     OW  345   1.245   1.538   1.302 -0.5903  0.3783 -0.3859
   87SOL    HW1  346   1.225   1.597   1.231 -2.0979  0.4930  0.8185
   87SOL    HW2  347   1.228   1.452   1.263 -1.3389  3.1795  0.7177
   87SOL     MW  348   1.240   1.534   1.287 -0.8880  0.7630 -0.0814
   88SOL     OW  349   1.189   1.075   0.956 -0.0189 -0.1791 -0.2021
   88SOL    HW1  350   1.278   1.044   0.946  1.4963  0.9738 -1.4073
   88SOL    HW2  351   1.190   1.145   1.028 -2.9507  2.1738 -0.7339
   88SOL     MW  352   1.201   1.080   0.964 -0.2058  0.2835 -0.4313
   89SOL     OW  353   1.717   0.729   0.358  0.5134  0.0769 -0.0499
   89SOL    HW1  354   1.753   0.647   0.399  1.8122 -1.0360 -1.7055
   89SOL    HW2  355   1.796   0.767   0.312  1.0636  1.6744  3.6128
   89SOL     MW  356   1.732   0.723   0.357  0.7574  0.1408  0.2149
   90SOL     OW  357   0.821   1.061   2.787  0.2740 -0.3426  0.3638
   90SOL    HW1  358   0.892   1.007   2.822 -3.0945  0.1614  1.0541
   90SOL    HW2  359   0.824   1.127   2.851  0.7993  0.0540  0.1697
   90SOL     MW  360   0.831   1.062   2.800 -0.1012 -0.2238  0.4293
   91SOL     OW  361   2.153   0.684   0.424 -0.6851 -0.0218  0.7199
   91SOL    HW1  362   2.229   0.705   0.365 -1.1770  0.6266 -2.9352
   91SOL    HW2  363   2.141   0.588   0.427  0.9310 -1.8013 -2.4978
   91SOL     MW  364   2.162   0.674   0.416 -0.5368 -0.1710 -0.1869
   92SOL     OW  365   1.740   0.920   0.570  0.2053 -0.1031  0.0084
   92SOL    HW1  366   1.649   0.943   0.603  2.5808 -0.7672  0.5934
   92SOL    HW2  367   1.720   0.869   0.490 -0.1011  1.7054  0.1127
   92SOL     MW  368   1.725   0.916   0.564  0.4783  0.0479  0.0993
   93SOL     OW  369   0.973   0.260   0.424 -0.1593 -0.3031  0.3566
   93SOL    HW1  370   0.882   0.291   0.431  0.7812  0.2892  0.2913
   93SOL    HW2  371   0.997   0.283   0.330 -0.2975 -0.8112 -1.0759
   93SOL     MW  372   0.964   0.267   0.412 -0.0535 -0.2920  0.1590
   94SOL     OW  373   1.847   1.377   1.682  0.3589 -0.2457  0.7737
   94SOL    HW1  374   1.860   1.339   1.591 -1.3169 -2.2507 -2.4193
   94SOL    HW2  375   1.807   1.297   1.716 -1.4459  1.4195 -2.1604
   94SOL     MW  376   1.844   1.361   1.674 -0.1004 -0.2906 -0.0347
   95SOL     OW  377   0.797   1.594   0.949  0.0164 -0.0650  0.4297
   95SOL    HW1  378   0.832   1.547   1.025  1.4897  0.3653  1.9426
   95SOL    HW2  379   0.702   1.574   0.945 -1.1834  0.9348 -2.5702
   95SOL     MW  380   0.789   1.586   0.959  0.0525  0.1237  0.2335
   96SOL     OW  381   1.236   1.879   1.680  0.9988 -0.2733 -0.0374
   96SOL    HW1  382   1.177   1.857   1.750  2.3539  1.5096 -0.2718
   96SOL    HW2  383   1.265   1.802   1.647  0.4608  3.5572 -2.0697
   96SOL     MW  384   1.232   1.866   1.685  1.1066  0.4673 -0.3365
   97SOL     OW  385   1.213   1.459   0.833 -0.6127 -0.1266  0.6362
   97SOL    HW1  386   1.209   1.510   0.914 -0.3542  2.9530 -1.3418
   97SOL    HW2  387   1.133   1.499   0.784 -1.7131 -0.5586  0.8531
   97SOL     MW  388   1.202   1.471   0.837 -0.7238  0.2227  0.4039
   98SOL     OW  389   1.434   1.283   1.052  0.1473  0.2759  0.9476
   98SOL    HW1  390   1.499   1.327   1.104 -0.6584 -1.3003 -0.9353
   98SOL    HW2  391   1.416   1.341   0.976 -1.5542  0.4855 -1.4226
   98SOL     MW  392   1.440   1.296   1.049 -0.1835  0.0956  0.3864
   99SOL     OW  393   1.370   0.325   1.293  0.7757 -0.5761 -0.6282
   99SOL    HW1  394   1.431   0.380   1.236  0.7145 -0.2878  0.4704
   99SOL    HW2  395   1.403   0.339   1.380 -0.4069  0.0032  0.0260
   99SOL     MW  396   1.382   0.334   1.297  0.6116 -0.4617 -0.3969
  100SOL     OW  397   1.044   1.178   1.393  0.4037 -0.0728 -0.1042
  100SOL    HW1  398   1.060   1.240   1.467  1.5275  0.8070  0.5715
  100SOL    HW2  399   1.067   1.084   1.416 -1.7230 -0.7511 -3.1012
  100SOL     MW  400   1.049   1.174   1.406  0.2714 -0.0462 -0.4105
  101SOL     OW  401   0.505   1.154   0.347  0.1022  0.4687 -0.1768
  101SOL    HW1  402   0.444   1.082   0.330 -0.7994  1.9753  1.1151
  101SOL    HW2  403   0.594   1.134   0.310  2.7438  0.4002 -2.2563
  101SOL     MW  404   0.509   1.142   0.340  0.3318  0.6585 -0.2807
  102SOL     OW  405   2.875   0.665   1.021  0.2431 -0.4992 -0.6783
  102SOL    HW1  406   2.941   0.729   1.030 -2.1622  1.5134 -1.8720
  102SOL    HW2  407   2.857   0.639   1.115 -1.4799  2.2453  2.5543
  102SOL     MW  408   2.881   0.670   1.034 -0.3016  0.1284 -0.4093
  103SOL     OW  409   1.680   0.293   1.869 -0.1132  0.3002 -0.2746
  103SOL    HW1  410   1.631   0.231   1.813  2.1434  0.4867  3.0399
  103SOL    HW2  411   1.708   0.238   1.941 -1.1514 -0.8570  3.5115
  103SOL     MW  412   1.677   0.277   1.871  0.0476  0.1722  0.6622
  104SOL     OW  413   0.142   1.534   1.590  0.3638 -0.6000  0.9171
  104SOL    HW1  414   0.180   1.463   1.627 -1.8316  1.3075 -1.4851
  104SOL    HW2  415   0.046   1.526   1.607 -2.3375 -2.7226  1.2440
  104SOL     MW  416   0.134   1.524   1.597 -0.2823 -0.6283  0.6433
  105SOL     OW  417   0.062   1.235   0.413  0.0481  0.0030 -0.5787
  105SOL    HW1  418   0.064   1.148   0.389 -2.7696  1.9721  0.7890
  105SOL    HW2  419   0.149   1.262   0.435 -0.4886  0.2251 -0.0287
  105SOL     MW  420   0.074   1.227   0.412 -0.3945  0.2921 -0.3257
  106SOL     OW  421   0.842   0.345   0.980 -0.4927  0.0459  0.1860
  106SOL    HW1  422   0.797   0.426   0.956 -2.1042 -0.1940 -0.2967
  106SOL    HW2  423   0.904   0.309   0.911 -0.1618 -0.3366  0.6562
  106SOL     MW  424   0.844   0.351   0.968 -0.6616 -0.0362  0.1844
  107SOL     OW  425   0.788   2.192   2.936 -0.4142  0.1622 -0.3286
  107SOL    HW1  426   0.712   2.165   2.877  1.4035  0.9476 -3.5556
  107SOL    HW2  427   0.778   2.156   3.028  0.5140 -0.9465 -1.4801
  107SOL     MW  428   0.776   2.184   2.941 -0.0519  0.1196 -0.9063
  108SOL     OW  429   1.326   1.598   1.634 -0.7550  0.3379 -0.0711
  108SOL    HW1  430   1.256   1.559   1.573 -0.6749  2.2559  0.3087
  108SOL    HW2  431   1.411   1.558   1.606  3.0146  2.0077 -1.4934
  108SOL     MW  432   1.328   1.588   1.622 -0.2471  0.8113 -0.2086
  109SOL     OW  433   1.974   0.756   0.249  0.5652  0.1429  0.8019
  109SOL    HW1  434   2.010   0.843   0.255  0.0506 -1.5008 -0.8688
  109SOL    HW2  435   2.028   0.725   0.328 -1.5461  3.8716  2.6852
  109SOL     MW  436   1.986   0.764   0.260  0.2187  0.4180  0.8299
  110SOL     OW  437   0.358   1.846   0.640  0.3834 -0.4694  0.0415
  110SOL    HW1  438   0.445   1.812   0.666 -1.4378  2.2405  0.9639
  110SOL    HW2  439   0.384   1.914   0.579  0.7096  0.2809 -0.1213
  110SOL     MW  440   0.373   1.850   0.636  0.1862 -0.0129  0.1417
  111SOL     OW  441   0.831   0.891   1.510 -0.5914  0.0781 -0.3315
  111SOL    HW1  442   0.798   0.902   1.417  1.3132 -1.5655 -2.1540
  111SOL    HW2  443   0.797   0.803   1.522 -0.9103  2.6931 -2.1772
  111SOL     MW  444   0.822   0.881   1.499 -0.3822  0.2062 -0.8155
  112SOL     OW  445   1.306   1.114   1.626 -0.4289  0.1289  0.2796
  112SOL    HW1  446   1.235   1.175   1.653 -1.8592 -1.5536  0.2986
  112SOL    HW2  447   1.273   1.024   1.638  0.3594  0.7164  0.7224
  112SOL     MW  448   1.293   1.110   1.631 -0.5136 -0.0155  0.3405
  113SOL     OW  449   1.269   3.088   1.741  0.0147 -0.4879  0.3589
  113SOL    HW1  450   1.252   3.064   1.832 -2.3441 -1.5391  1.7480
  113SOL    HW2  451   1.279   3.002   1.703 -0.2708 -1.4021 -1.7764
  113SOL     MW  452   1.268   3.074   1.748 -0.3342 -0.7472  0.2605
  114SOL     OW  453   0.295   2.851   1.930 -0.0798 -0.1906  0.3184
  114SOL    HW1  454   0.336   2.931   1.961 -5.5311 -1.6114  0.7993
  114SOL    HW2  455   0.265   2.878   1.842 -1.3037 -0.0071  0.5678
  114SOL     MW  456   0.296   2.865   1.923 -0.9605 -0.3539  0.4148
  115SOL     OW  457   0.514   0.852   1.127  0.3944 -0.1157 -0.2794
  115SOL    HW1  458   0.539   0.759   1.149 -0.0066 -1.0002  0.3185
  115SOL    HW2  459   0.473   0.883   1.213  0.6269 -1.0348  0.8980
  115SOL     MW  460   0.512   0.844   1.141  0.3722 -0.3536 -0.0451
  116SOL     OW  461   0.797   1.084   0.979  0.3694 -0.4285 -0.5260
  116SOL    HW1  462   0.855   1.124   0.917 -1.7459 -2.2436  1.3576
  116SOL    HW2  463   0.817   1.122   1.065  0.8335  3.2846  1.6893
  116SOL     MW  464   0.807   1.095   0.982  0.1516 -0.1780  0.0148
  117SOL     OW  465   1.194   1.208   0.719 -0.2919 -0.2357  0.4533
  117SOL    HW1  466   1.174   1.158   0.802  1.5973 -1.7459 -2.9733
  117SOL    HW2  467   1.208   1.293   0.755 -0.7175 -0.0014  1.1946
  117SOL     MW  468   1.193   1.212   0.735 -0.0988 -0.4040  0.0990
  118SOL     OW  469   3.036   2.975   1.685 -0.1545 -0.7467 -0.8695
  118SOL    HW1  470   3.106   3.031   1.716 -2.3608  1.7668  1.3770
  118SOL    HW2  471   2.947   3.019   1.704 -0.9773  2.4983  0.1300
  118SOL     MW  472   3.033   2.988   1.692 -0.5541  0.0130 -0.4412
  119SOL     OW  473   0.473   1.466   1.242 -0.2842 -0.1926 -0.6788
  119SOL    HW1  474   0.522   1.499   1.168  0.1916  0.7327 -1.2693
  119SOL    HW2  475   0.386   1.490   1.215  0.4719 -0.4774 -0.5247
  119SOL     MW  476   0.468   1.473   1.229 -0.1216 -0.1081 -0.7364
  120SOL     OW  477   0.289   0.738   0.960  0.5548  1.0107 -0.1085
  120SOL    HW1  478   0.277   0.684   1.040  1.4463 -0.9987 -0.3626
  120SOL    HW2  479   0.343   0.812   0.990  0.5962 -0.5638 -0.0068
  120SOL     MW  480   0.295   0.741   0.975  0.6779  0.5378 -0.1286
  121SOL     OW  481   1.731   1.125   1.747  0.2050  0.2244 -0.8739
  121SOL    HW1  482   1.634   1.101   1.753  0.2027 -0.5664 -0.7555
  121SOL    HW2  483   1.774   1.061   1.695  1.7873  1.6827  2.0077
  121SOL     MW  484   1.724   1.114   1.741  0.4135  0.3124 -0.4781
  122SOL     OW  485   0.136   0.548   0.800 -0.3704 -0.5910 -0.1148
  122SOL    HW1  486   0.212   0.535   0.742 -0.0790  0.4531 -0.3833
  122SOL    HW2  487   0.172   0.611   0.864  0.4231 -0.8669  1.3454
  122SOL     MW  488   0.151   0.555   0.800 -0.2273 -0.4897  0.0424
  123SOL     OW  489   1.901   1.147   0.506  0.4865 -0.3245 -0.3190
  123SOL    HW1  490   1.844   1.079   0.546  0.6899 -0.9953 -0.2183
  123SOL    HW2  491   1.904   1.211   0.573  1.2754 -1.4259  1.8173
  123SOL     MW  492   1.894   1.146   0.520  0.6174 -0.5583 -0.0239
  124SOL     OW  493   0.663   0.558   0.938 -0.2895  0.3093  0.3119
  124SOL    HW1  494   0.598   0.521   0.880 -1.9648  0.1219  2.6629
  124SOL    HW2  495   0.656   0.654   0.912  0.8069  0.2585 -1.4005
  124SOL     MW  496   0.654   0.566   0.927 -0.3659  0.2778  0.3961
  125SOL     OW  497   0.646   1.788   1.734 -0.1640 -0.0050 -0.8625
  125SOL    HW1  498   0.591   1.713   1.706  2.8016 -0.7155 -1.8570
  125SOL    HW2  499   0.597   1.863   1.735  1.4903 -3.2698  2.3273
  125SOL     MW  500   0.632   1.788   1.730  0.4456 -0.5295 -0.5728
  126SOL     OW  501   2.081   1.585   1.962  0.3978  0.0654  0.1686
  126SOL    HW1  502   2.140   1.661   1.958 -1.0591  2.1701  1.1775
  126SOL    HW2  503   2.147   1.517   1.968  2.2661  1.0768 -1.7758
  126SOL     MW  504   2.097   1.586   1.962  0.4521  0.4765  0.0452
  127SOL     OW  505   0.619   0.792   1.808 -0.2780  0.0520  0.0544
  127SOL    HW1  506   0.694   0.757   1.854 -0.3469  0.9549  1.3671
  127SOL    HW2  507   0.616   0.881   1.836  0.7189 -0.0434 -0.7599
  127SOL     MW  508   0.628   0.799   1.818 -0.1555  0.1586  0.1201
  128SOL     OW  509   1.777   0.729   2.922 -1.1631 -0.3095  0.1421
  128SOL    HW1  510   1.798   0.713   2.825  1.5434 -0.3251  0.6092
  128SOL    HW2  511   1.739   0.816   2.926  0.8843  0.6446 -2.5331
  128SOL     MW  512   1.775   0.738   2.910 -0.5359 -0.1857 -0.1493
  129SOL     OW  513   1.572   0.938   0.206  0.4026  0.6981 -0.6564
  129SOL    HW1  514   1.525   0.877   0.147 -1.3060 -0.8500  0.5507
  129SOL    HW2  515   1.609   0.881   0.271 -0.3460  0.0236 -0.8171
  129SOL     MW  516   1.571   0.922   0.207  0.0784  0.4048 -0.5183
  130SOL     OW  517   0.746   1.356   0.317 -0.1455  0.7926  0.3911
  130SOL    HW1  518   0.779   1.357   0.413  2.5004 -1.1107 -0.5042
  130SOL    HW2  519   0.790   1.430   0.276  1.8155  2.7085 -1.4480
  130SOL     MW  520   0.756   1.366   0.324  0.4624  0.7943  0.0303
  131SOL     OW  521   3.032   0.827   0.028 -0.1465  0.0680 -0.1432
  131SOL    HW1  522   3.009   0.873  -0.050  0.4752 -0.2278  2.3071
  131SOL    HW2  523   3.124   0.805   0.013  1.9454  0.2666  0.8102
  131SOL     MW  524   3.041   0.830   0.015  0.2115  0.0552  0.3059
  132SOL     OW  525   2.683   0.121   1.316 -0.2635 -0.0595  0.8802
  132SOL    HW1  526   2.695   0.145   1.217  0.2608  1.6772 -0.4544
  132SOL    HW2  527   2.592   0.085   1.316 -0.6803 -1.6180 -0.6845
  132SOL     MW  528   2.673   0.120   1.303 -0.2493 -0.0360  0.4977
  133SOL     OW  529   1.057   0.168   1.698 -0.1507  0.5006 -0.4514
  133SOL    HW1  530   1.125   0.102   1.681  1.8038  2.3240  2.6629
  133SOL    HW2  531   1.052   0.169   1.796  1.8149 -0.0369 -2.1464
  133SOL     MW  532   1.066   0.159   1.708  0.3665  0.6703 -0.2641
  134SOL     OW  533   1.408   2.526   1.409  0.3494 -0.0120 -0.5603
  134SOL    HW1  534   1.337   2.590   1.398 -0.4240 -2.9157  0.7870
  134SOL    HW2  535   1.444   2.562   1.489 -0.0960 -0.4374  0.7289
  134SOL     MW  536   1.404   2.539   1.418  0.1886 -0.4512 -0.2124
  135SOL     OW  537   2.997   0.973   2.911 -0.3492  0.3961  0.1286
  135SOL    HW1  538   3.076   1.029   2.902  2.9540  1.5886  1.5828
  135SOL    HW2  539   2.917   1.024   2.898 -0.4010 -1.4388  0.8835
  135SOL     MW  540   2.997   0.987   2.908  0.0798  0.3113  0.4200
  136SOL     OW  541   0.170   2.013   0.803  0.2290  0.2358 -0.1497
  136SOL    HW1  542   0.095   1.982   0.751 -2.0198  0.6344 -0.4962
  136SOL    HW2  543   0.246   1.976   0.753  0.5617 -0.4961 -0.0193
  136SOL     MW  544   0.170   2.004   0.790 -0.0238  0.1918 -0.1782
  137SOL     OW  545   0.719   2.040   0.528 -0.4621 -0.3156 -0.0692
  137SOL    HW1  546   0.738   2.030   0.625 -1.5078 -0.3370  2.7440
  137SOL    HW2  547   0.623   2.052   0.511 -2.1094 -1.2843  1.8088
  137SOL     MW  548   0.709   2.040   0.539 -0.8174 -0.4462  0.5498
  138SOL     OW  549   0.512   0.579   1.178 -0.2578  0.0763  0.0474
  138SOL    HW1  550   0.433   0.537   1.147  0.5337  4.2480 -2.6578
  138SOL    HW2  551   0.573   0.571   1.102 -1.1978  0.9354 -0.3620
  138SOL     MW  552   0.510   0.572   1.164 -0.2774  0.7401 -0.3635
  139SOL     OW  553   2.808   0.635   1.278  0.2399 -0.4424 -0.3765
  139SOL    HW1  554   2.830   0.544   1.279  0.7151 -1.7530 -0.7443
  139SOL    HW2  555   2.859   0.670   1.357  2.1648  0.6953 -1.6833
  139SOL     MW  556   2.817   0.628   1.288  0.5566 -0.4652 -0.5974
  140SOL     OW  557   0.926   0.428   2.066  0.5087 -0.2074 -0.2948
  140SOL    HW1  558   0.968   0.366   2.010  0.1802  3.6098 -0.6498
  140SOL    HW2  559   0.923   0.381   2.152 -0.7042  0.0311  0.6476
  140SOL     MW  560   0.931   0.414   2.070  0.3053  0.3277 -0.2173
  141SOL     OW  561   1.048   0.663   1.769 -0.0883 -0.6298  0.0867
  141SOL    HW1  562   1.084   0.581   1.740  0.3127 -0.1048  0.6132
  141SOL    HW2  563   1.113   0.726   1.735  1.6748 -0.7116 -1.6609
  141SOL     MW  564   1.061   0.661   1.761  0.1972 -0.5713 -0.0744
  142SOL     OW  565   0.933   1.171   0.739 -0.4127 -0.3394  0.3327
  142SOL    HW1  566   0.889   1.109   0.677  1.3376 -0.9074  2.2662
  142SOL    HW2  567   1.027   1.170   0.725 -0.9141  2.1121  2.1005
  142SOL     MW  568   0.940   1.162   0.729 -0.2479 -0.0909  0.8210
  143SOL     OW  569   1.847   0.758   1.051 -0.3650 -0.1777 -0.3179
  143SOL    HW1  570   1.903   0.720   0.982  0.4684 -1.8679  3.0405
  143SOL    HW2  571   1.759   0.739   1.016 -0.7056  1.5439  0.0088
  143SOL     MW  572   1.843   0.751   1.037 -0.3000 -0.1735  0.1683
  144SOL     OW  573   0.286   1.254   1.644  0.1213  0.9005 -0.4004
  144SOL    HW1  574   0.374   1.213   1.641  0.2627  1.3370  1.4641
  144SOL    HW2  575   0.269   1.248   1.740  1.9880 -1.0046 -0.5310
  144SOL     MW  576   0.295   1.248   1.656  0.3862  0.7067 -0.1716
  145SOL     OW  577   0.226   0.491   1.169  0.2873  0.4928  0.3843
  145SOL    HW1  578   0.245   0.427   1.240 -0.3845 -0.1047 -0.8717
  145SOL    HW2  579   0.169   0.429   1.118 -1.0487 -5.4336 -0.6581
  145SOL     MW  580   0.221   0.474   1.171  0.0224 -0.3680  0.0810
  146SOL     OW  581   0.846   1.976   1.389  0.2111  0.2377  0.4676
  146SOL    HW1  582   0.904   2.002   1.318  3.5820  1.4381  3.3184
  146SOL    HW2  583   0.755   1.965   1.352 -0.9359  1.9688 -1.9987
  146SOL     MW  584   0.842   1.978   1.375  0.5046  0.6245  0.5183
  147SOL     OW  585   0.418   0.451   2.990 -0.6936 -0.3051 -0.0421
  147SOL    HW1  586   0.332   0.433   3.028  0.4869  1.3130  0.9936
  147SOL    HW2  587   0.411   0.542   2.974  0.1734  0.1990  1.4951
  147SOL     MW  588   0.405   0.461   2.993 -0.4234 -0.0251  0.2974
  148SOL     OW  589   0.132   0.916   1.311 -0.0835  0.8563  0.2377
  148SOL    HW1  590   0.221   0.947   1.282 -2.5678  0.9437  2.8823
  148SOL    HW2  591   0.110   0.963   1.393  1.3200  2.3177 -1.9267
  148SOL     MW  592   0.141   0.927   1.318 -0.2261  1.0607  0.3010
  149SOL     OW  593   1.391   1.173   1.358  0.6634 -0.2634 -0.0425
  149SOL    HW1  594   1.381   1.185   1.455 -2.4450 -0.9370 -0.1190
  149SOL    HW2  595   1.464   1.231   1.326  1.1916 -0.8051  0.7342
  149SOL     MW  596   1.399   1.182   1.367  0.3230 -0.4238  0.0499
  150SOL     OW  597   1.774   1.354   0.760  0.0419 -0.0887  0.5530
  150SOL    HW1  598   1.799   1.279   0.816 -1.8417  1.3235 -0.5785
  150SOL    HW2  599   1.837   1.425   0.784 -0.9787 -1.0362 -0.8216
  150SOL     MW  600   1.786   1.353   0.771 -0.3413 -0.0274  0.2223
  151SOL     OW  601   1.653   1.775   0.825  0.6478  0.1393  0.3050
  151SOL    HW1  602   1.655   1.791   0.734 -2.5521  0.9159  2.5571
  151SOL    HW2  603   1.588   1.701   0.835 -1.9787  0.9371  1.4242
  151SOL     MW  604   1.645   1.767   0.814 -0.1210  0.3470  0.7498
  152SOL     OW  605   0.774   1.404   1.528  0.3689  0.0821  0.8105
  152SOL    HW1  606   0.761   1.319   1.569 -1.9608  1.6605  0.2068
  152SOL    HW2  607   0.812   1.460   1.590 -1.7607  1.0270 -0.4492
  152SOL     MW  608   0.777   1.400   1.542 -0.2195  0.4150  0.5646
  153SOL     OW  609   2.611   1.208   0.799  0.2915  0.3972 -0.0128
  153SOL    HW1  610   2.690   1.172   0.741  1.2547  0.3596 -1.9667
  153SOL    HW2  611   2.538   1.154   0.787 -0.1642  1.3371  2.0913
  153SOL     MW  612   2.612   1.197   0.790  0.3584  0.5162  0.0070
  154SOL     OW  613   0.192   1.786   1.710 -0.6802 -0.2119 -0.1834
  154SOL    HW1  614   0.215   1.713   1.646 -2.0813  0.7328 -1.2146
  154SOL    HW2  615   0.212   1.743   1.795  1.7568  0.7082  0.3692
  154SOL     MW  616   0.198   1.771   1.713 -0.5435  0.0342 -0.2465
  155SOL     OW  617   1.198   0.671   0.231 -0.4968 -0.8960  0.5139
  155SOL    HW1  618   1.180   0.622   0.313  3.5854 -2.3900 -1.9384
  155SOL    HW2  619   1.176   0.758   0.263  1.1676  0.8740  2.1741
  155SOL     MW  620   1.192   0.676   0.246  0.2614 -0.8596  0.4094
  156SOL     OW  621   1.492   3.042   1.106  0.1057 -0.0217 -0.1473
  156SOL    HW1  622   1.556   3.102   1.148  2.7198 -0.9602 -0.6340
  156SOL    HW2  623   1.521   2.955   1.125  1.8703 -0.4888  1.3999
  156SOL     MW  624   1.504   3.039   1.114  0.6834 -0.2072 -0.0074
  157SOL     OW  625   1.470   1.178   0.103  0.1211 -0.4077 -0.2035
  157SOL    HW1  626   1.518   1.090   0.137 -0.8481 -2.6062  2.7285
  157SOL    HW2  627   1.529   1.252   0.101 -0.6528 -0.4165  0.8517
  157SOL     MW  628   1.484   1.176   0.107 -0.1089 -0.6989  0.3226
  158SOL     OW  629   0.499   1.635   2.221 -0.3904 -0.7520  0.2177
  158SOL    HW1  630   0.487   1.702   2.155 -2.4479 -2.1334  0.6839
  158SOL    HW2  631   0.442   1.666   2.293  3.2210  1.2043 -2.1335
  158SOL     MW  632   0.490   1.648   2.222 -0.1853 -0.6762 -0.0310
  159SOL     OW  633   1.274   1.663   0.463 -0.0900  0.5189  0.5991
  159SOL    HW1  634   1.231   1.601   0.401  0.7151  0.1498 -1.3338
  159SOL    HW2  635   1.201   1.715   0.504  1.8187 -0.4525  0.7369
  159SOL     MW  636   1.259   1.662   0.460  0.2680  0.3420  0.3622
  160SOL     OW  637   0.527   1.114   1.634 -0.1862 -0.5533 -0.5177
  160SOL    HW1  638   0.512   1.022   1.611 -2.6300 -0.0621  0.3590
  160SOL    HW2  639   0.623   1.129   1.623 -0.4478 -2.8175  0.5895
  160SOL     MW  640   0.538   1.104   1.629 -0.5431 -0.7872 -0.2560
  161SOL     OW  641   0.508   2.286   2.564 -0.2618  0.0642 -0.1529
  161SOL    HW1  642   0.419   2.313   2.568 -2.6886 -1.8692 -0.6082
  161SOL    HW2  643   0.517   2.221   2.495  2.4844 -1.3706 -0.5237
  161SOL     MW  644   0.498   2.281   2.556 -0.2197 -0.3802 -0.2619
  162SOL     OW  645   1.085   1.777   1.899 -0.5472  0.1449  0.3774
  162SOL    HW1  646   1.091   1.847   1.966 -4.8145 -1.7970  0.4891
  162SOL    HW2  647   0.992   1.768   1.897  1.0939  0.8573  1.7473
  162SOL     MW  648   1.074   1.785   1.908 -0.8937 -0.0173  0.5729
  163SOL     OW  649   2.099   3.084   0.891  0.3830 -0.2973 -0.9066
  163SOL    HW1  650   2.097   3.162   0.827  0.8096  1.3012 -0.2624
  163SOL    HW2  651   2.091   3.003   0.834  1.7735 -1.1762  1.0020
  163SOL     MW  652   2.098   3.083   0.875  0.6228 -0.2023 -0.5698
  164SOL     OW  653   0.325   0.205   0.792  0.1783  0.0224 -0.2111
  164SOL    HW1  654   0.244   0.189   0.842 -0.7075  0.2864  1.2690
  164SOL    HW2  655   0.332   0.127   0.745 -0.0485  0.6191  0.1295
  164SOL     MW  656   0.316   0.193   0.792  0.0315  0.1359  0.0291
  165SOL     OW  657   1.364   1.301   0.352  0.2872  0.4636 -0.0029
  165SOL    HW1  658   1.365   1.229   0.414 -1.6517  2.3181 -2.4522
  165SOL    HW2  659   1.392   1.244   0.278  0.0326 -1.0115 -0.0894
  165SOL     MW  660   1.368   1.284   0.351 -0.0022  0.5137 -0.3375
  166SOL     OW  661   0.520   1.214   1.003 -0.0483  0.1031 -0.3088
  166SOL    HW1  662   0.489   1.164   1.083 -2.3245 -0.2345  1.1003
  166SOL    HW2  663   0.598   1.157   0.976 -0.1297 -2.6014  1.9557
  166SOL     MW  664   0.526   1.200   1.010 -0.3593 -0.2983  0.1759
  167SOL     OW  665   0.787   1.108   0.281  0.5299 -0.6862  0.0387
  167SOL    HW1  666   0.767   1.204   0.289  1.5176  1.1265 -2.0456
  167SOL    HW2  667   0.848   1.085   0.208 -1.2099  1.6620 -1.8044
  167SOL     MW  668   0.793   1.118   0.273  0.4306 -0.1372 -0.4795
  168SOL     OW  669   1.679   1.660   3.044 -0.0869  0.2074 -0.1271
  168SOL    HW1  670   1.615   1.700   2.983  1.5790 -2.9009 -3.2199
  168SOL    HW2  671   1.690   1.572   3.012  1.6384  3.7820 -1.7845
  168SOL     MW  672   1.672   1.654   3.032  0.3606  0.2689 -0.7538
  169SOL     OW  673   0.410   0.984   1.339 -0.3300  0.3323  0.1466
  169SOL    HW1  674   0.436   0.918   1.403 -1.2642  1.5214  0.6244
  169SOL    HW2  675   0.472   1.058   1.354  1.3333 -0.7376 -0.3800
  169SOL     MW  676   0.422   0.985   1.349 -0.2338  0.3480  0.1402
  170SOL     OW  677   1.081   1.548   1.526  0.5090  0.4497 -0.1372
  170SOL    HW1  678   1.036   1.631   1.555  0.9200 -0.4628  0.3867
  170SOL    HW2  679   1.102   1.559   1.434  2.8820  1.0980 -1.6716
  170SOL     MW  680   1.077   1.561   1.518  0.8763  0.4149 -0.2705
  171SOL     OW  681   0.518   1.431   0.636  0.4555 -0.3551 -0.5245
  171SOL    HW1  682   0.507   1.429   0.730  0.1300 -2.2537  0.6710
  171SOL    HW2  683   0.535   1.335   0.618  1.6934 -1.7636 -1.6131
  171SOL     MW  684   0.519   1.418   0.646  0.5759 -0.7914 -0.5104
  172SOL     OW  685   0.876   0.314   1.269 -0.2800 -0.5663  0.5548
  172SOL    HW1  686   0.897   0.319   1.179 -0.4565  1.3806  0.7054
  172SOL    HW2  687   0.807   0.372   1.298  3.6546  2.0447  1.2697
  172SOL     MW  688   0.870   0.322   1.261  0.2159  0.0351  0.6690
  173SOL     OW  689   0.450   1.693   0.352  0.1426  0.3210 -0.6029
  173SOL    HW1  690   0.477   1.622   0.289  0.2894 -1.1326  0.5809
  173SOL    HW2  691   0.494   1.675   0.433  0.2511  2.0843 -3.6661
  173SOL     MW  692   0.460   1.681   0.354  0.1763  0.3618 -0.8509
  174SOL     OW  693   1.860   0.944   1.543  0.3087 -0.4114 -0.7319
  174SOL    HW1  694   1.806   0.863   1.556 -1.8992 -1.0334  1.0712
  174SOL    HW2  695   1.826   0.976   1.463  0.5115 -1.9384 -1.4934
  174SOL     MW  696   1.848   0.938   1.534  0.0441 -0.6950 -0.5945
  175SOL     OW  697   0.503   1.458   0.229  0.0963  0.2228 -0.1185
  175SOL    HW1  698   0.425   1.411   0.206 -3.0235 -2.0708  1.0408
  175SOL    HW2  699   0.570   1.400   0.244  0.2746  2.6933  0.7350
  175SOL     MW  700   0.501   1.444   0.228 -0.2918  0.2462  0.1471
  176SOL     OW  701   0.221   1.489   1.168 -0.4327  0.0036 -0.0239
  176SOL    HW1  702   0.183   1.407   1.127  1.7730 -3.4259 -0.0601
  176SOL    HW2  703   0.142   1.519   1.211  2.9484 -2.1901 -0.4566
  176SOL     MW  704   0.205   1.482   1.168  0.3044 -0.7383 -0.0858
  177SOL     OW  705   0.670   0.454   1.354 -0.0244 -0.8039 -0.6544
  177SOL    HW1  706   0.605   0.497   1.297  2.4414 -0.9687  1.1680
  177SOL    HW2  707   0.646   0.501   1.429  0.6630 -1.1498 -4.1550
  177SOL     MW  708   0.658   0.466   1.356  0.3916 -0.8713 -0.8759
  178SOL     OW  709   3.056   0.575   2.944  0.0413 -0.0717 -0.3232
  178SOL    HW1  710   3.008   0.601   3.025  0.7123 -0.7588 -0.0753
  178SOL    HW2  711   3.003   0.574   2.868 -0.7626  0.8070  0.1924
  178SOL     MW  712   3.043   0.578   2.945  0.0237 -0.0464 -0.2224
  179SOL     OW  713   1.592   1.359   1.302  0.2484  0.8050 -0.0464
  179SOL    HW1  714   1.581   1.373   1.398 -0.5362  0.7202 -1.7596
  179SOL    HW2  715   1.687   1.372   1.307  1.3287 -1.1313  0.0603
  179SOL     MW  716   1.603   1.362   1.315  0.2874  0.5383 -0.2584
  180SOL     OW  717   3.022   0.214   0.431 -0.0971  0.5313  0.4896
  180SOL    HW1  718   2.957   0.225   0.361 -1.8200  0.8772  1.5511
  180SOL    HW2  719   3.078   0.295   0.421  0.1321  0.8504 -2.2790
  180SOL     MW  720   3.021   0.226   0.421 -0.2942  0.6190  0.2644
  181SOL     OW  721   1.127   1.333   3.099  0.2109  0.2135 -0.0744
  181SOL    HW1  722   1.190   1.398   3.131 -1.2996 -1.5321 -1.1042
  181SOL    HW2  723   1.188   1.276   3.054  0.1934 -0.5291  0.2331
  181SOL     MW  724   1.143   1.334   3.097  0.0093 -0.1148 -0.1697
  182SOL     OW  725   0.476   0.848   1.572 -0.1243  0.2069  0.0759
  182SOL    HW1  726   0.387   0.842   1.619  0.8692  2.1272 -3.3562
  182SOL    HW2  727   0.541   0.810   1.635 -0.2216 -2.2563 -3.3441
  182SOL     MW  728   0.473   0.842   1.587 -0.0061  0.1352 -0.8282
  183SOL     OW  729   1.601   1.579   1.144 -0.1620  0.4327  0.0140
  183SOL    HW1  730   1.508   1.602   1.160  0.5017  1.3932 -1.6766
  183SOL    HW2  731   1.617   1.512   1.205 -0.2360 -0.0967 -0.3218
  183SOL     MW  732   1.591   1.573   1.154 -0.0842  0.4896 -0.2534
  184SOL     OW  733   0.836   0.665   1.961  0.0296  0.4510  0.0666
  184SOL    HW1  734   0.917   0.693   1.916 -2.7904 -0.1687 -1.3842
  184SOL    HW2  735   0.859   0.575   1.997  0.9367  1.9620  1.3129
  184SOL     MW  736   0.850   0.657   1.960 -0.2228  0.5686  0.0396
  185SOL     OW  737   1.182   0.964   1.913 -0.5670  0.2368 -0.2817
  185SOL    HW1  738   1.167   0.873   1.957  0.8427  0.3916 -2.4059
  185SOL    HW2  739   1.207   1.018   1.985  1.4704 -2.0374 -0.9997
  185SOL     MW  740   1.183   0.959   1.929 -0.1122 -0.0428 -0.6567
  186SOL     OW  741   0.365   1.687   1.421  0.0371 -0.7042 -0.1852
  186SOL    HW1  742   0.404   1.657   1.336 -0.5661  0.2708  0.3034
  186SOL    HW2  743   0.282   1.638   1.414  1.6231  1.6677 -2.4908
  186SOL     MW  744   0.359   1.676   1.409  0.1668 -0.2626 -0.4250
  187SOL     OW  745   1.434   0.705   1.339  0.5311  0.2634 -0.4474
  187SOL    HW1  746   1.462   0.698   1.431 -0.7711 -0.3712  0.3115
  187SOL    HW2  747   1.338   0.700   1.342  3.3203 -0.1037  0.2552
  187SOL     MW  748   1.425   0.703   1.352  0.7273  0.1312 -0.2546
  188SOL     OW  749   1.886   1.159   0.912 -0.1367  0.4165 -0.6862
  188SOL    HW1  750   1.910   1.147   1.005 -3.2592  2.4337  0.2113
  188SOL    HW2  751   1.927   1.080   0.872 -1.2206  0.6519 -1.5868
  188SOL     MW  752   1.895   1.147   0.919 -0.6917  0.7137 -0.6866
  189SOL     OW  753   0.650   0.841   0.850 -0.3015  0.2173  0.1953
  189SOL    HW1  754   0.589   0.904   0.810  2.7483 -1.0412  0.9985
  189SOL    HW2  755   0.722   0.896   0.890  0.6612  0.7907  0.0322
  189SOL     MW  756   0.651   0.856   0.850  0.2279  0.1269  0.2797
  190SOL     OW  757   1.923   0.239   2.178 -0.0140  0.0886  0.2149
  190SOL    HW1  758   1.922   0.227   2.272 -2.5260 -1.7125 -1.1443
  190SOL    HW2  759   1.994   0.310   2.160 -0.6418  3.1523  1.9843
  190SOL     MW  760   1.932   0.246   2.188 -0.4283  0.2552  0.2690
  191SOL     OW  761   1.480   0.963   1.222  0.3190 -0.0204 -0.3694
  191SOL    HW1  762   1.438   1.037   1.266 -0.4034 -1.8735 -2.6635
  191SOL    HW2  763   1.442   0.883   1.261  0.0156  0.4952  0.5331
  191SOL     MW  764   1.470   0.962   1.233  0.1837 -0.1969 -0.5530
  192SOL     OW  765   0.613   2.111   2.766  0.2478 -0.4730  0.3726
  192SOL    HW1  766   0.548   2.125   2.692 -0.0587 -1.2550 -1.8895
  192SOL    HW2  767   0.601   2.022   2.792 -1.4252 -1.1263 -0.4469
  192SOL     MW  768   0.603   2.101   2.760 -0.0134 -0.6624 -0.0340
  193SOL     OW  769   0.979   1.522   0.724 -0.3489 -0.1334 -0.1733
  193SOL    HW1  770   0.927   1.566   0.792 -3.0619 -3.8940 -2.9371
  193SOL    HW2  771   0.913   1.459   0.676 -1.4428 -1.3439  0.5573
  193SOL     MW  772   0.963   1.520   0.727 -0.8512 -0.7893 -0.4415
  194SOL     OW  773   0.533   1.479   0.925  0.1589  0.5615  0.6008
  194SOL    HW1  774   0.524   1.389   0.959 -0.7451 -0.6890 -0.1532
  194SOL    HW2  775   0.445   1.518   0.926 -1.1061  0.3255  0.7503
  194SOL     MW  776   0.521   1.472   0.930 -0.1272  0.3654  0.5210
  195SOL     OW  777   1.307   1.165   2.990 -0.2283  0.0143 -0.3021
  195SOL    HW1  778   1.376   1.169   3.055 -0.6434  2.5181 -1.1900
  195SOL    HW2  779   1.254   1.085   2.992 -4.8298  0.5658  0.2562
  195SOL     MW  780   1.309   1.155   2.999 -0.8902  0.4174 -0.3456
  196SOL     OW  781   2.182   1.009   0.610 -0.1059 -0.6653 -0.7173
  196SOL    HW1  782   2.173   1.001   0.517 -2.0026 -0.7242  3.0208
  196SOL    HW2  783   2.179   1.108   0.618  1.1388  2.1959  1.1285
  196SOL     MW  784   2.180   1.021   0.599 -0.1919 -0.2956  0.0194
  197SOL     OW  785   0.648   1.306   2.116  0.4946  0.4104 -0.1763
  197SOL    HW1  786   0.650   1.211   2.090  0.3135  2.9415  0.2606
  197SOL    HW2  787   0.629   1.347   2.027  1.1678 -2.1896 -1.4027
  197SOL     MW  788   0.646   1.299   2.101  0.5596  0.4013 -0.2805
  198SOL     OW  789   2.933   1.386   1.067  0.0729 -0.2904 -0.4575
  198SOL    HW1  790   2.919   1.439   0.990  0.4057  0.4322 -0.1379
  198SOL    HW2  791   2.861   1.329   1.078 -0.3016 -0.2144 -0.5609
  198SOL     MW  792   2.922   1.385   1.059  0.0674 -0.1850 -0.4289
  199SOL     OW  793   0.494   1.411   1.885  0.1256 -0.3301 -0.0645
  199SOL    HW1  794   0.416   1.356   1.896 -2.3359  0.2596  4.2438
  199SOL    HW2  795   0.486   1.464   1.805 -0.7447  3.2753 -0.4673
  199SOL     MW  796   0.483   1.410   1.876 -0.3140  0.2234  0.4508
  200SOL     OW  797   1.903   2.935   1.349  0.2482 -0.4184  0.5444
  200SOL    HW1  798   1.926   2.948   1.258  0.4935 -0.9067 -1.2269
  200SOL    HW2  799   1.813   2.974   1.364 -2.8481 -1.8555  4.2116
  200SOL     MW  800   1.894   2.942   1.339 -0.1279 -0.6724  0.7946
  201SOL     OW  801   1.038   0.267   0.811 -0.3454  0.6822  0.0548
  201SOL    HW1  802   1.031   0.191   0.754  0.1346  3.0669 -1.2119
  201SOL    HW2  803   1.097   0.330   0.779  0.6342  0.5766 -2.6756
  201SOL     MW  804   1.045   0.265   0.799 -0.1528  0.9829 -0.4726
  202SOL     OW  805   1.516   1.546   0.888  0.5295  0.4601  0.6176
  202SOL    HW1  806   1.540   1.463   0.845 -0.3395 -2.8337  2.7377
  202SOL    HW2  807   1.559   1.538   0.975 -0.7029  0.6828  1.0026
  202SOL     MW  808   1.525   1.534   0.894  0.2522  0.0549  0.9481
  203SOL     OW  809   3.014   0.422   1.342 -0.7187  0.6893  0.8134
  203SOL    HW1  810   3.091   0.356   1.358  0.0425 -0.6297  1.8394
  203SOL    HW2  811   3.045   0.508   1.373 -3.1450  0.9110  0.0703
  203SOL     MW  812   3.029   0.425   1.348 -0.9384  0.5445  0.8507
  204SOL     OW  813   1.033   1.758   0.560 -0.3169  0.6004 -0.0012
  204SOL    HW1  814   1.014   1.685   0.614 -0.8456  0.7362  0.3438
  204SOL    HW2  815   0.955   1.760   0.504  0.9853 -3.4479 -0.2012
  204SOL     MW  816   1.020   1.749   0.560 -0.2148  0.0842  0.0179
  205SOL     OW  817   1.390   0.026   1.335  0.1086  0.1886 -0.8388
  205SOL    HW1  818   1.403   0.002   1.245 -1.3300  2.1610 -1.0449
  205SOL    HW2  819   1.323   0.094   1.326 -0.2027 -0.1062 -0.7459
  205SOL     MW  820   1.383   0.032   1.322 -0.1223  0.4100 -0.8538
  206SOL     OW  821   0.449   3.016   1.423  0.6031  0.1358 -0.1991
  206SOL    HW1  822   0.417   3.020   1.326  3.3338  3.5895  0.3051
  206SOL    HW2  823   0.524   2.955   1.418  1.8138  0.7476 -3.8260
  206SOL     MW  824   0.455   3.009   1.409  1.1231  0.6722 -0.6111
  207SOL     OW  825   0.906   1.556   0.213 -0.0873  0.1394  0.3670
  207SOL    HW1  826   0.937   1.625   0.157  1.1250 -4.0236 -3.1455
  207SOL    HW2  827   0.989   1.524   0.255 -0.0543  2.6920 -2.3484
  207SOL     MW  828   0.921   1.561   0.211  0.0770 -0.0731 -0.4547
  208SOL     OW  829   0.741   1.607   1.348  0.2404 -0.0286 -0.3345
  208SOL    HW1  830   0.790   1.640   1.422 -1.2455  1.5534 -0.5079
  208SOL    HW2  831   0.777   1.517   1.355  2.2356 -0.7616 -1.1703
  208SOL     MW  832   0.752   1.599   1.358  0.3076  0.0834 -0.4676
  209SOL     OW  833   1.561   0.461   2.955 -0.1385 -0.5345 -0.6486
  209SOL    HW1  834   1.579   0.552   2.956  3.5364 -2.2854 -0.1452
  209SOL    HW2  835   1.636   0.423   2.897  1.0959 -0.4549 -1.9871
  209SOL     MW  836   1.573   0.468   2.947  0.5093 -0.7550 -0.7588
  210SOL     OW  837   1.517   1.272   0.777 -0.2283 -0.0691 -0.3480
  210SOL    HW1  838   1.610   1.292   0.781 -0.3947 -1.6610  2.5179
  210SOL    HW2  839   1.487   1.318   0.696 -1.4569 -1.1588 -0.4540
  210SOL     MW  840   1.525   1.281   0.767 -0.4124 -0.4229  0.0162
  211SOL     OW  841   1.725   0.247   0.956  0.2046 -0.7283  0.3813
  211SOL    HW1  842   1.696   0.295   0.879 -1.8284 -0.9417  1.8355
  211SOL    HW2  843   1.807   0.294   0.974  0.7531  0.3588 -0.1259
  211SOL     MW  844   1.732   0.260   0.948  0.0087 -0.6130  0.5062
  212SOL     OW  845   0.291   1.029   0.152 -0.2854  0.3397  0.1073
  212SOL    HW1  846   0.218   0.995   0.203  0.3744 -2.1403  1.4249
  212SOL    HW2  847   0.330   0.957   0.105  1.6913  4.3599 -2.6057
  212SOL     MW  848   0.287   1.015   0.152  0.0625  0.5429 -0.0768
  213SOL     OW  849   0.544   1.708   3.036 -0.3719  0.7140 -0.9575
  213SOL    HW1  850   0.541   1.778   3.106 -0.3955  0.6694  1.4992
  213SOL    HW2  851   0.588   1.743   2.955  2.2368 -1.2434  1.0164
  213SOL     MW  852   0.550   1.722   3.034 -0.0309  0.4498 -0.3730
  214SOL     OW  853   0.653   0.347   2.151  0.1000  0.9124 -0.4120
  214SOL    HW1  854   0.567   0.393   2.180  1.1704 -0.7843  0.6575
  214SOL    HW2  855   0.664   0.353   2.058  0.7349 -1.6852  2.0188
  214SOL     MW  856   0.643   0.354   2.143  0.3250  0.3458  0.0499
  215SOL     OW  857   0.496   0.735   2.651 -0.2594  0.3829  0.4727
  215SOL    HW1  858   0.476   0.709   2.555 -3.1237 -4.0125 -2.7869
  215SOL    HW2  859   0.423   0.689   2.697 -1.6013  0.5297  0.0403
  215SOL     MW  860   0.484   0.725   2.645 -0.8144 -0.1777 -0.0144
  216SOL     OW  861   2.921   3.020   2.683  0.5122  0.0273  0.5541
  216SOL    HW1  862   2.875   3.036   2.763  3.4945 -0.1857  2.7120
  216SOL    HW2  863   2.982   3.094   2.668 -2.0880  3.7580 -1.5176
  216SOL     MW  864   2.923   3.032   2.692  0.5626  0.4914  0.5654
  217SOL     OW  865   1.036   1.084   0.136  0.1579  0.6225 -0.0538
  217SOL    HW1  866   1.051   1.020   0.067  0.4674 -2.3515  0.7601
  217SOL    HW2  867   1.083   1.166   0.120  0.7704 -0.2723 -0.4675
  217SOL     MW  868   1.044   1.086   0.124  0.2796  0.1120 -0.0010
  218SOL     OW  869   0.923   1.311   2.555 -0.1030  0.3446  0.1719
  218SOL    HW1  870   0.974   1.240   2.593  0.1329  0.0177  2.7941
  218SOL    HW2  871   0.973   1.393   2.561 -1.9674  0.8137 -0.7516
  218SOL     MW  872   0.936   1.312   2.561 -0.3179  0.3634  0.3960
  219SOL     OW  873   1.134   0.371   2.645 -0.3056 -0.4547 -0.3643
  219SOL    HW1  874   1.194   0.435   2.674 -0.4581 -0.7956  0.1022
  219SOL    HW2  875   1.059   0.428   2.631  1.6001 -0.9925 -0.4565
  219SOL     MW  876   1.132   0.387   2.647 -0.0743 -0.5707 -0.3149
  220SOL     OW  877   1.762   0.449   2.203 -0.0037 -0.3261  0.0264
  220SOL    HW1  878   1.681   0.460   2.147 -3.1675  0.0085  0.3839
  220SOL    HW2  879   1.816   0.378   2.173 -1.9899  0.7371 -0.9704
  220SOL     MW  880   1.759   0.441   2.192 -0.6832 -0.1417 -0.0580
  221SOL     OW  881   0.369   1.307   2.954 -0.5886 -0.3137 -0.2719
  221SOL    HW1  882   0.436   1.255   2.909 -1.1506  1.3803 -1.5326
  221SOL    HW2  883   0.375   1.396   2.921  3.4967  0.7972 -0.1310
  221SOL     MW  884   0.378   1.312   2.944 -0.1237  0.0564 -0.4197
  222SOL     OW  885   0.383   0.978   2.684  1.0507 -0.1223 -0.0150
  222SOL    HW1  886   0.311   0.983   2.618  0.6483 -2.6543  2.3003
  222SOL    HW2  887   0.434   0.902   2.656  3.2462  1.1159 -1.1384
  222SOL     MW  888   0.380   0.969   2.672  1.2873 -0.2930  0.1423
  223SOL     OW  889   0.059   2.029   2.518  0.5058  0.3245 -0.1582
  223SOL    HW1  890   0.109   1.971   2.576  0.3348  0.6187  0.7812
  223SOL    HW2  891   0.103   2.115   2.518  2.8427 -1.9341 -1.4114
  223SOL     MW  892   0.072   2.033   2.526  0.7916  0.0653 -0.1996
  224SOL     OW  893   1.551   0.748   2.598  0.8081  0.1911  0.1909
  224SOL    HW1  894   1.528   0.795   2.676 -0.2745  0.7921 -2.5244
  224SOL    HW2  895   1.560   0.819   2.539 -0.5844  1.8398  0.6649
  224SOL     MW  896   1.549   0.763   2.600  0.4815  0.4879 -0.1049
  225SOL     OW  897   2.895   1.443   2.308  0.3288  0.5271 -0.0687
  225SOL    HW1  898   2.941   1.512   2.265  1.0546  1.8919 -3.2014
  225SOL    HW2  899   2.825   1.488   2.359  1.5259 -1.6181 -0.2158
  225SOL     MW  900   2.892   1.458   2.309  0.5825  0.4242 -0.5014
  226SOL     OW  901   0.456   1.505   2.721 -0.4197  0.1003  0.1559
  226SOL    HW1  902   0.535   1.482   2.668  0.6467 -1.8466 -1.2716
  226SOL    HW2  903   0.423   1.593   2.699 -1.2079 -3.3592 -1.4524
  226SOL     MW  904   0.462   1.513   2.711 -0.3830 -0.6130 -0.2447
  227SOL     OW  905   0.540   1.116   2.840 -0.0889 -0.0474  0.2322
  227SOL    HW1  906   0.617   1.062   2.831 -0.2437  0.4017  2.8682
  227SOL    HW2  907   0.485   1.072   2.775 -1.3886 -1.1510  3.7086
  227SOL     MW  908   0.543   1.103   2.831 -0.2808 -0.1337  1.0386
  228SOL     OW  909   0.733   1.029   2.036 -0.4763  1.2048 -0.0138
  228SOL    HW1  910   0.807   1.058   1.978  0.1270  0.5072 -1.8060
  228SOL    HW2  911   0.759   0.952   2.086 -1.2867  2.7582  0.6793
  228SOL     MW  912   0.746   1.023   2.035 -0.5036  1.3177 -0.1588
  229SOL     OW  913   0.185   0.634   0.005  0.0609  0.4668  0.4375
  229SOL    HW1  914   0.128   0.605  -0.069  0.2698  0.0804  2.4598
  229SOL    HW2  915   0.201   0.551   0.050 -0.9385  1.1264 -1.1496
  229SOL     MW  916   0.179   0.619   0.001 -0.0434  0.5028  0.4949
  230SOL     OW  917   1.682   1.304   2.007  0.1785 -0.0462 -0.2084
  230SOL    HW1  918   1.621   1.296   2.083 -0.5883  1.6588  0.7503
  230SOL    HW2  919   1.706   1.215   1.982  0.1973 -0.4562 -1.8445
  230SOL     MW  920   1.677   1.291   2.014  0.0798  0.1247 -0.2978
  231SOL     OW  921   2.718   1.242   2.194 -0.0248 -0.1376  0.0129
  231SOL    HW1  922   2.783   1.314   2.212  3.2284  3.6927  4.6050
  231SOL    HW2  923   2.673   1.278   2.114  1.5441  0.1893 -0.8072
  231SOL     MW  924   2.721   1.256   2.186  0.6114  0.4109  0.5106
  232SOL     OW  925   2.220   0.875   2.003  0.6786  0.2537 -0.2669
  232SOL    HW1  926   2.132   0.878   1.964 -0.6838 -1.9373  0.9254
  232SOL    HW2  927   2.212   0.907   2.098  0.4622  0.8204 -0.2111
  232SOL     MW  928   2.207   0.880   2.010  0.4703  0.0394 -0.1023
  233SOL     OW  929   2.064   0.447   2.071  0.6382 -0.0507  0.3411
  233SOL    HW1  930   2.139   0.398   2.039 -0.9185  2.0496  0.9488
  233SOL    HW2  931   2.106   0.510   2.135  3.3337 -0.0892 -0.9084
  233SOL     MW  932   2.079   0.449   2.075  0.7884  0.2213  0.2564
  234SOL     OW  933   0.227   1.062   2.477 -0.2683  0.1457  0.2360
  234SOL    HW1  934   0.134   1.059   2.465 -0.0731  2.5491 -0.1872
  234SOL    HW2  935   0.243   1.155   2.491 -1.6479  0.2859  0.4115
  234SOL     MW  936   0.217   1.074   2.477 -0.4246  0.4813  0.2033
  235SOL     OW  937   1.126   3.063   2.758  0.2289  0.1469  1.0242
  235SOL    HW1  938   1.164   3.018   2.836  1.1405  1.3828 -0.1079
  235SOL    HW2  939   1.103   3.151   2.787  0.2075 -1.0016  0.9206
  235SOL     MW  940   1.128   3.068   2.772  0.3463  0.1584  0.8612
  236SOL     OW  941   2.916   0.610   0.139 -0.6227  0.9607 -0.1877
  236SOL    HW1  942   2.828   0.637   0.101 -1.6859 -2.4887 -1.5461
  236SOL    HW2  943   2.980   0.679   0.127  0.0323  3.2805  0.0217
  236SOL     MW  944   2.913   0.623   0.132 -0.6766  0.8116 -0.3393
  237SOL     OW  945   2.019   1.122   2.183  0.3064  0.3989  0.2871
  237SOL    HW1  946   1.945   1.095   2.131 -0.7618  1.2439  1.4579
  237SOL    HW2  947   2.052   1.046   2.244  0.3212 -0.2486  1.9883
  237SOL     MW  948   2.013   1.108   2.184  0.1674  0.4250  0.6660
  238SOL     OW  949   1.081   1.824   2.942  0.3193 -0.5851  0.1130
  238SOL    HW1  950   1.029   1.740   2.937 -1.8760  1.7866 -2.1440
  238SOL    HW2  951   1.174   1.797   2.935 -0.9143  0.0603 -0.9044
  238SOL     MW  952   1.086   1.809   2.940 -0.1331 -0.1870 -0.3190
  239SOL     OW  953   1.307   1.410   2.365  0.0873  0.7634  0.0247
  239SOL    HW1  954   1.248   1.448   2.428 -2.3083 -3.2901 -0.8352
  239SOL    HW2  955   1.324   1.321   2.408 -0.6645 -0.9029  3.6515
  239SOL     MW  956   1.301   1.403   2.379 -0.3279  0.0087  0.3898
  240SOL     OW  957   0.665   0.879   2.322 -0.3789  0.3878 -0.0201
  240SOL    HW1  958   0.687   0.934   2.398 -1.2575  0.8595  3.5783
  240SOL    HW2  959   0.743   0.831   2.294 -2.2619  0.1596 -0.3108
  240SOL     MW  960   0.678   0.880   2.328 -0.7432  0.4199  0.4163
  241SOL     OW  961   0.675   0.394   0.005 -0.2384 -0.1498 -0.1209
  241SOL    HW1  962   0.689   0.465   0.067  2.9074 -0.5097 -0.8381
  241SOL    HW2  963   0.584   0.393  -0.018  1.3153 -2.6837  1.0228
  241SOL     MW  964   0.665   0.403   0.010  0.3816 -0.5316 -0.0646
  242SOL     OW  965   1.499   1.725   2.327  0.0165  0.1787  0.1043
  242SOL    HW1  966   1.445   1.804   2.334 -1.0685 -0.6092  0.1980
  242SOL    HW2  967   1.445   1.671   2.262  0.3539  0.0666 -1.4170
  242SOL     MW  968   1.485   1.728   2.320 -0.0822  0.0600 -0.0841
  243SOL     OW  969   1.037   0.173   2.473 -0.0872 -0.3036 -0.2081
  243SOL    HW1  970   1.099   0.180   2.401 -1.6846  1.4052  1.1406
  243SOL    HW2  971   1.079   0.241   2.526  0.0003  1.5042 -2.2348
  243SOL     MW  972   1.051   0.183   2.470 -0.2864  0.1604 -0.2975
  244SOL     OW  973   0.237   0.793   2.384 -0.2723  0.5046 -0.6664
  244SOL    HW1  974   0.234   0.887   2.402  1.0593 -0.8807  1.0452
  244SOL    HW2  975   0.329   0.763   2.385 -0.3855  1.1338 -0.8386
  244SOL     MW  976   0.249   0.801   2.387 -0.1115  0.4049 -0.4633
  245SOL     OW  977   1.242   0.191   2.306 -0.8049 -0.3933 -0.8606
  245SOL    HW1  978   1.290   0.110   2.330 -2.9311  0.3167  0.5789
  245SOL    HW2  979   1.284   0.262   2.360  1.1201  0.8252  1.3319
  245SOL     MW  980   1.254   0.189   2.316 -0.8315 -0.1389 -0.3814
  246SOL     OW  981   1.250   1.156   2.091 -0.6742 -0.0998 -0.2845
  246SOL    HW1  982   1.201   1.114   2.167 -1.2950  0.7135  0.7269
  246SOL    HW2  983   1.340   1.168   2.132  2.3394 -0.3266  2.5982
  246SOL     MW  984   1.256   1.152   2.107 -0.3585 -0.0225  0.2293
  247SOL     OW  985   0.751   0.584   0.211  0.4764 -0.4781 -0.2440
  247SOL    HW1  986   0.715   0.664   0.176  2.5971 -0.3625  1.8892
  247SOL    HW2  987   0.841   0.578   0.163  0.6219  0.6870  0.9715
  247SOL     MW  988   0.758   0.594   0.200  0.7754 -0.3091  0.1978
  248SOL     OW  989   0.306   1.305   2.576  0.2345 -0.4748  0.7166
  248SOL    HW1  990   0.350   1.338   2.498 -0.7696  1.8790  2.2794
  248SOL    HW2  991   0.363   1.347   2.642 -0.8068 -1.0682 -1.0216
  248SOL     MW  992   0.319   1.315   2.575 -0.0354 -0.2426  0.6935
  249SOL     OW  993   0.171   1.881   2.719  0.1314  0.1189  0.2425
  249SOL    HW1  994   0.134   1.798   2.677  0.4686 -0.2797 -2.1105
  249SOL    HW2  995   0.192   1.846   2.806  1.3457  2.5031 -1.0546
  249SOL     MW  996   0.169   1.865   2.725  0.3361  0.3809 -0.2391
  250SOL     OW  997   2.190   0.937   2.288 -0.2670 -0.6187  0.3044
  250SOL    HW1  998   2.208   0.845   2.283 -1.7012  2.2627  1.4754
  250SOL    HW2  999   2.277   0.979   2.300 -1.4316  0.4247  1.5810
  250SOL     MW 1000   2.204   0.931   2.289 -0.6099 -0.1008  0.6273
  251SOL     OW 1001   0.173   0.929   1.961  0.2561  0.0476 -0.2711
  251SOL    HW1 1002   0.154   0.846   1.997  2.7761  2.1388 -1.9902
  251SOL    HW2 1003   0.144   0.924   1.865 -1.1592 -1.5864 -2.3316
  251SOL     MW 1004   0.166   0.918   1.953  0.4019  0.1079 -0.7698
  252SOL     OW 1005   1.739   1.022   2.881 -0.0403  0.2434  0.8392
  252SOL    HW1 1006   1.759   1.057   2.972 -1.0705  1.5763  2.0198
  252SOL    HW2 1007   1.807   1.050   2.817 -0.5170  0.7343 -0.8031
  252SOL     MW 1008   1.751   1.030   2.884 -0.2391  0.4840  0.7783
  253SOL     OW 1009   1.180   1.787   2.555 -0.3189  0.1176 -0.0911
  253SOL    HW1 1010   1.162   1.783   2.455 -0.7447  0.1663  0.9011
  253SOL    HW2 1011   1.111   1.849   2.575 -1.0176 -0.8994 -1.6852
  253SOL     MW 1012   1.168   1.794   2.545 -0.4673 -0.0101 -0.1705
  254SOL     OW 1013   1.065   1.036   2.241 -0.0647  0.5003 -0.2768
  254SOL    HW1 1014   1.017   0.959   2.208  1.5870 -1.2397  2.5011
  254SOL    HW2 1015   0.992   1.102   2.269 -2.6784  0.9788  1.4975
  254SOL     MW 1016   1.049   1.034   2.241 -0.1916  0.3339  0.3238
  255SOL     OW 1017   0.806   2.559   2.126  0.5079 -0.2940  0.1712
  255SOL    HW1 1018   0.721   2.516   2.122  1.5920 -0.7034  0.5505
  255SOL    HW2 1019   0.864   2.483   2.131 -0.2535  0.6224  0.9382
  255SOL     MW 1020   0.802   2.543   2.126  0.5505 -0.2271  0.3224
  256SOL     OW 1021   1.356   2.699   2.946 -0.3707  0.5409 -0.1032
  256SOL    HW1 1022   1.324   2.632   2.887  0.1550  0.6347 -3.6964
  256SOL    HW2 1023   1.418   2.749   2.896 -1.2867  0.4721 -0.5200
  256SOL     MW 1024   1.360   2.697   2.932 -0.4222  0.5442 -0.6323
  257SOL     OW 1025   0.190   1.909   0.037  0.1309  0.5282 -0.2103
  257SOL    HW1 1026   0.209   1.890   0.126 -0.8952  1.3624 -1.3493
  257SOL    HW2 1027   0.222   1.838  -0.020  0.8539 -0.2419  0.0702
  257SOL     MW 1028   0.196   1.897   0.042  0.0909  0.5366 -0.3236
  258SOL     OW 1029   0.822   1.053   2.476 -0.1031  0.5653  0.2629
  258SOL    HW1 1030   0.806   1.129   2.421  2.0556 -2.9811  1.5164
  258SOL    HW2 1031   0.780   1.061   2.564 -3.0949 -0.8812  1.0603
  258SOL     MW 1032   0.815   1.064   2.481 -0.2130 -0.0934  0.5335
  259SOL     OW 1033   0.863   0.377   2.329  0.6068  0.0928 -0.1642
  259SOL    HW1 1034   0.775   0.384   2.289 -0.2834 -4.7285  0.7248
  259SOL    HW2 1035   0.870   0.285   2.354  0.6783  0.8365 -2.7101
  259SOL     MW 1036   0.853   0.366   2.327  0.4988 -0.4452 -0.3828
  260SOL     OW 1037   0.526   0.112   1.589  0.7778 -0.4586  0.3975
  260SOL    HW1 1038   0.492   0.058   1.512  0.7784 -1.7719 -0.2590
  260SOL    HW2 1039   0.626   0.109   1.591 -0.6729  0.8604  0.2099
  260SOL     MW 1040   0.535   0.104   1.579  0.5864 -0.4578  0.2861
  261SOL     OW 1041   1.154   0.722   2.040  0.2350  0.2117  0.1544
  261SOL    HW1 1042   1.169   0.700   2.130  2.0432 -2.5642  0.0744
  261SOL    HW2 1043   1.220   0.660   1.997 -1.1728 -1.5018  0.1319
  261SOL     MW 1044   1.165   0.711   2.046  0.2878 -0.3806  0.1409
  262SOL     OW 1045   1.031   0.296   0.165  0.0613 -0.3721  0.0377
  262SOL    HW1 1046   1.129   0.303   0.168  1.0267  3.0438 -0.4303
  262SOL    HW2 1047   1.006   0.224   0.106  2.3831  0.1170  1.0199
  262SOL     MW 1048   1.041   0.287   0.158  0.4950  0.1431  0.1055
  263SOL     OW 1049   0.404   0.021   2.443  0.3550  0.3548  0.1013
  263SOL    HW1 1050   0.319   0.071   2.439 -0.0690  0.7363  0.5569
  263SOL    HW2 1051   0.461   0.046   2.369  0.6857  2.0578  0.4197
  263SOL     MW 1052   0.400   0.031   2.433  0.3427  0.6298  0.2034
  264SOL     OW 1053   1.467   1.356   1.833  0.6165 -0.2533 -0.4185
  264SOL    HW1 1054   1.444   1.263   1.827 -0.1876 -0.3930 -0.3423
  264SOL    HW2 1055   1.541   1.349   1.898 -2.4133 -2.1991  0.3526
  264SOL     MW 1056   1.474   1.343   1.841  0.1107 -0.5285 -0.3067
  265SOL     OW 1057   0.747   2.808   2.250 -0.3169 -0.4851 -0.6368
  265SOL    HW1 1058   0.777   2.722   2.217  1.1958 -1.1031  0.7844
  265SOL    HW2 1059   0.760   2.801   2.344  3.0651  3.3582  0.3455
  265SOL     MW 1060   0.753   2.796   2.258  0.3289 -0.0595 -0.3197
  266SOL     OW 1061   0.876   0.761   2.218 -0.7850 -0.0588 -0.3095
  266SOL    HW1 1062   0.873   0.715   2.137  1.8749  0.5648 -0.3547
  266SOL    HW2 1063   0.945   0.717   2.268 -3.8130 -1.8994  1.3109
  266SOL     MW 1064   0.885   0.749   2.214 -0.8335 -0.2194 -0.1017
  267SOL     OW 1065   1.419   1.774   2.697 -0.0860 -0.0693 -0.0002
  267SOL    HW1 1066   1.463   1.691   2.683  0.8365 -1.7703  1.5011
  267SOL    HW2 1067   1.334   1.778   2.642 -2.9141 -2.7886 -0.8765
  267SOL     MW 1068   1.413   1.764   2.688 -0.3374 -0.6525  0.0823
  268SOL     OW 1069   0.191   0.832   1.657  0.0567  0.4925 -0.0014
  268SOL    HW1 1070   0.169   0.917   1.624  1.5059 -1.1205  1.1971
  268SOL    HW2 1071   0.138   0.759   1.620  1.1793 -0.2596 -2.0630
  268SOL     MW 1072   0.181   0.834   1.648  0.3960  0.1804 -0.1153
  269SOL     OW 1073   1.402   1.991   2.372  0.0785  0.3705 -0.9437
  269SOL    HW1 1074   1.440   2.076   2.367 -1.4365  1.3954  2.7657
  269SOL    HW2 1075   1.315   1.993   2.424 -1.5164 -1.2272  1.8513
  269SOL     MW 1076   1.395   2.003   2.378 -0.3318  0.2949 -0.0855
  270SOL     OW 1077   1.113   0.410   1.618  0.0291 -0.3196  0.2291
  270SOL    HW1 1078   1.099   0.316   1.651 -0.2572 -0.5929  1.8404
  270SOL    HW2 1079   1.204   0.418   1.603 -1.3700  1.6467 -0.6653
  270SOL     MW 1080   1.123   0.399   1.620 -0.1933 -0.0962  0.3237
  271SOL     OW 1081   0.850   0.008   2.591 -0.1927  0.2620  0.1528
  271SOL    HW1 1082   0.889  -0.054   2.649 -0.1626  1.6107 -0.3648
  271SOL    HW2 1083   0.929   0.054   2.556 -1.4941 -2.1256  1.7969
  271SOL     MW 1084   0.866   0.006   2.594 -0.3604  0.1249  0.3014
  272SOL     OW 1085   1.513   2.834   2.767  0.5249 -0.2453  0.2984
  272SOL    HW1 1086   1.452   2.836   2.696 -0.6683 -2.0375 -0.7781
  272SOL    HW2 1087   1.546   2.928   2.775 -2.4802  3.4668  0.7584
  272SOL     MW 1088   1.509   2.846   2.759 -0.0290  0.0080  0.2170
  273SOL     OW 1089   1.490   0.939   2.800  0.6438 -0.6175 -0.1022
  273SOL    HW1 1090   1.579   0.980   2.815 -2.0728 -0.7721 -1.5360
  273SOL    HW2 1091   1.444   0.989   2.734  1.3310 -0.4410  0.6474
  273SOL     MW 1092   1.496   0.951   2.793  0.3760 -0.6146 -0.1925
  274SOL     OW 1093   1.463   0.703   0.109 -0.3994  0.3825  0.2021
  274SOL    HW1 1094   1.516   0.639   0.156 -0.7388 -0.2381  0.4597
  274SOL    HW2 1095   1.368   0.678   0.126 -0.7753  0.2352 -0.2545
  274SOL     MW 1096   1.457   0.691   0.117 -0.4938  0.2811  0.1759
  275SOL     OW 1097   1.672   0.554   1.780 -0.4856 -0.3900 -0.0605
  275SOL    HW1 1098   1.730   0.588   1.849 -1.2019  1.5791  0.3032
  275SOL    HW2 1099   1.650   0.463   1.808 -2.3486  1.4074  1.8431
  275SOL     MW 1100   1.677   0.547   1.793 -0.8259  0.1070  0.2387
  276SOL     OW 1101   0.298   1.224   1.928  0.0024  0.1684  0.3185
  276SOL    HW1 1102   0.346   1.142   1.934  3.3642  0.9271 -1.4345
  276SOL    HW2 1103   0.219   1.208   1.980 -0.1896  0.8675  4.0895
  276SOL     MW 1104   0.294   1.211   1.936  0.4206  0.3607  0.5848
  277SOL     OW 1105   1.911   1.179   2.450 -0.3755 -0.5854  0.4793
  277SOL    HW1 1106   1.979   1.234   2.493  1.0009 -0.2697 -3.7902
  277SOL    HW2 1107   1.931   1.192   2.357  1.1763 -3.2939  2.4131
  277SOL     MW 1108   1.922   1.188   2.443  0.0108 -0.9011  0.1711
  278SOL     OW 1109   1.404   0.679   1.695 -0.0810  0.6054 -0.0203
  278SOL    HW1 1110   1.358   0.627   1.763  1.3148  0.7896 -1.2384
  278SOL    HW2 1111   1.493   0.678   1.736  1.2047  0.1557 -0.0238
  278SOL     MW 1112   1.409   0.672   1.709  0.2728  0.5704 -0.1815
  279SOL     OW 1113   0.588   0.098   2.251  0.2781  0.2720 -0.0835
  279SOL    HW1 1114   0.670   0.055   2.284  2.0967  2.0233  1.6090
  279SOL    HW2 1115   0.627   0.165   2.199  0.8356 -0.0370  2.0292
  279SOL     MW 1116   0.604   0.101   2.248  0.5916  0.4623  0.4185
  280SOL     OW 1117   1.484   0.973   2.140 -0.5847 -0.4895  0.6138
  280SOL    HW1 1118   1.541   0.914   2.092  0.1791 -0.1537  0.2787
  280SOL    HW2 1119   1.488   0.944   2.230  2.1266  0.3941 -3.1905
  280SOL     MW 1120   1.492   0.962   2.146 -0.1262 -0.3286  0.0677
  281SOL     OW 1121   1.344   1.332   2.751  0.6955 -0.4292 -0.7679
  281SOL    HW1 1122   1.434   1.341   2.746 -0.1643  0.0419  0.6401
  281SOL    HW2 1123   1.328   1.274   2.825 -2.3999 -0.8143 -0.7039
  281SOL     MW 1124   1.353   1.326   2.760  0.1737 -0.4179 -0.5737
  282SOL     OW 1125   1.080   1.292   1.663 -0.1273 -0.5986 -0.8066
  282SOL    HW1 1126   1.109   1.378   1.633  0.7072  0.6507  2.6444
  282SOL    HW2 1127   1.006   1.310   1.722 -1.3078  1.5936  1.0582
  282SOL     MW 1128   1.074   1.306   1.667 -0.1730 -0.1445 -0.1052
  283SOL     OW 1129   0.792   1.249   2.993 -0.1483  0.1154  0.1622
  283SOL    HW1 1130   0.881   1.257   3.019  0.6105  1.7164 -0.2382
  283SOL    HW2 1131   0.757   1.343   2.999  1.4241  0.8813  2.2594
  283SOL     MW 1132   0.799   1.263   2.997  0.1593  0.4277  0.3861
  284SOL     OW 1133   0.484   0.678   2.388 -0.3478  0.4614  0.2136
  284SOL    HW1 1134   0.552   0.749   2.361 -0.9012  0.3077 -1.4497
  284SOL    HW2 1135   0.475   0.603   2.326  0.6913 -4.2732  0.2913
  284SOL     MW 1136   0.492   0.678   2.376 -0.2837 -0.1835  0.0044
  285SOL     OW 1137   0.986   0.839   2.815 -0.1347 -0.6522 -0.2094
  285SOL    HW1 1138   1.009   0.877   2.727 -0.3798 -0.5430 -0.3390
  285SOL    HW2 1139   0.906   0.787   2.804  0.0554  1.5075  1.2004
  285SOL     MW 1140   0.978   0.837   2.802 -0.1419 -0.3528 -0.0405
  286SOL     OW 1141   1.123   1.511   2.649  0.1032  0.1464  1.0282
  286SOL    HW1 1142   1.184   1.463   2.711  0.6344 -1.7168  1.3198
  286SOL    HW2 1143   1.137   1.601   2.662 -2.0877 -1.5337  0.0755
  286SOL     MW 1144   1.133   1.517   2.659 -0.1157 -0.3211  0.9410
  287SOL     OW 1145   1.128   0.926   0.344 -0.1416  0.2113  0.4396
  287SOL    HW1 1146   1.175   0.998   0.389  3.8068  0.8437  0.3658
  287SOL    HW2 1147   1.085   0.974   0.277  2.0901 -1.0911  0.9707
  287SOL     MW 1148   1.129   0.942   0.341  0.6738  0.1229  0.4999
  288SOL     OW 1149   1.551   0.563   2.078  0.3874 -0.1099 -0.7923
  288SOL    HW1 1150   1.522   0.602   2.160  0.6842 -1.1806  1.4837
  288SOL    HW2 1151   1.596   0.630   2.030 -1.6424  2.3186 -1.0540
  288SOL     MW 1152   1.553   0.577   2.082  0.1588  0.0692 -0.5265
  289SOL     OW 1153   1.075   1.006   2.595  1.2799 -0.2404  0.0537
  289SOL    HW1 1154   1.106   0.929   2.549 -2.0673  2.0935 -1.5843
  289SOL    HW2 1155   0.981   1.018   2.566 -0.7604 -0.3228  1.9986
  289SOL     MW 1156   1.066   0.997   2.585  0.5691  0.0566  0.0942
  290SOL     OW 1157   0.840   0.639   1.581 -0.1958 -0.4202  0.0617
  290SOL    HW1 1158   0.898   0.594   1.517 -0.9465 -0.6025 -1.9573
  290SOL    HW2 1159   0.897   0.633   1.662 -1.9744  0.4106  0.6247
  290SOL     MW 1160   0.855   0.633   1.583 -0.5295 -0.3346 -0.1304
  291SOL     OW 1161   0.199   0.376   0.112 -0.0423  0.1994  0.7513
  291SOL    HW1 1162   0.284   0.334   0.105 -2.2050 -1.9764 -0.0074
  291SOL    HW2 1163   0.138   0.333   0.049 -0.1912 -3.0446  0.5441
  291SOL     MW 1164   0.202   0.365   0.103 -0.3473 -0.5157  0.6239
  292SOL     OW 1165   0.989   0.553   0.062 -0.0992 -0.0850 -0.2785
  292SOL    HW1 1166   1.048   0.618   0.090 -1.3699  0.4770  0.1566
  292SOL    HW2 1167   1.008   0.468   0.111 -4.1003  1.2756  1.4149
  292SOL     MW 1168   0.999   0.551   0.072 -0.7948  0.1687  0.0023
  293SOL     OW 1169   0.159   0.137   2.422  0.0357 -0.6288  0.2876
  293SOL    HW1 1170   0.096   0.086   2.373  1.4942  0.9306  0.8658
  293SOL    HW2 1171   0.121   0.174   2.503 -0.6496  1.9660  0.2710
  293SOL     MW 1172   0.146   0.135   2.426  0.1377 -0.0807  0.3617
  294SOL     OW 1173   1.450   0.603   2.341 -0.0423 -0.1912  0.0966
  294SOL    HW1 1174   1.479   0.662   2.416 -1.2210 -0.1257 -1.2318
  294SOL    HW2 1175   1.428   0.518   2.376  0.4214  1.5932 -3.9986
  294SOL     MW 1176   1.451   0.600   2.356 -0.1366  0.0529 -0.6190
  295SOL     OW 1177   0.940   0.562   2.545  0.0781 -0.3081 -0.0513
  295SOL    HW1 1178   0.896   0.514   2.475 -0.3918 -0.6882 -0.7931
  295SOL    HW2 1179   0.879   0.578   2.613  3.6925 -1.8531 -2.9541
  295SOL     MW 1180   0.926   0.558   2.544  0.4930 -0.5621 -0.5322
  296SOL     OW 1181   1.287   0.281   2.046 -0.5090 -0.3193  0.5142
  296SOL    HW1 1182   1.381   0.252   2.037  0.1146  0.8804  1.8312
  296SOL    HW2 1183   1.263   0.251   2.134 -0.8121 -0.9384 -1.7864
  296SOL     MW 1184   1.296   0.273   2.056 -0.4667 -0.2427  0.3844
  297SOL     OW 1185   1.390   0.397   1.593  0.2295  0.3098 -0.0900
  297SOL    HW1 1186   1.415   0.482   1.632  0.5264  3.1588 -1.4723
  297SOL    HW2 1187   1.451   0.330   1.625  2.2983 -2.4476 -1.6652
  297SOL     MW 1188   1.402   0.399   1.603  0.5417  0.3219 -0.4802
  298SOL     OW 1189   1.644   0.804   1.977  0.4230 -0.0948 -0.2400
  298SOL    HW1 1190   1.632   0.848   1.893 -0.9147 -0.9447  0.5199
  298SOL    HW2 1191   1.723   0.814   2.026 -3.1957 -0.8179  0.8226
  298SOL     MW 1192   1.653   0.811   1.972 -0.2309 -0.3024  0.0005
  299SOL     OW 1193   0.568   1.090   0.056 -0.2750  0.5363 -0.8438
  299SOL    HW1 1194   0.584   1.112  -0.034  1.7284 -1.0195  2.9534
  299SOL    HW2 1195   0.476   1.109   0.084 -0.0177 -0.9520  1.8765
  299SOL     MW 1196   0.558   1.096   0.048  0.0233  0.1347  0.0162
  300SOL     OW 1197   1.305   1.159   2.542 -0.3313  0.0441  0.5097
  300SOL    HW1 1198   1.222   1.108   2.550 -0.9416 -0.9511 -1.4638
  300SOL    HW2 1199   1.297   1.222   2.616  0.5307 -0.0759  0.6198
  300SOL     MW 1200   1.293   1.160   2.553 -0.2981 -0.1031  0.2638
  301SOL     OW 1201   1.484   0.878   0.636 -0.8976 -0.1954  0.0266
  301SOL    HW1 1202   1.476   0.942   0.711  0.9580  1.7184 -1.8802
  301SOL    HW2 1203   1.397   0.829   0.642 -2.9468 -0.7746 -1.5129
  301SOL     MW 1204   1.471   0.880   0.647 -0.9232 -0.0193 -0.4281
  302SOL     OW 1205   0.132   1.550   1.982  0.1165  0.9961 -0.1018
  302SOL    HW1 1206   0.149   1.502   2.060  1.8989  1.1816  0.5066
  302SOL    HW2 1207   0.056   1.609   2.000  1.8265  0.6423 -1.6237
  302SOL     MW 1208   0.124   1.551   1.995  0.5773  0.9739 -0.2223
  303SOL     OW 1209   0.415   1.804   2.621 -0.4784  0.6884  0.7714
  303SOL    HW1 1210   0.385   1.781   2.530  2.2945 -3.1993  0.9005
  303SOL    HW2 1211   0.338   1.836   2.667  1.1939 -1.7010 -0.4320
  303SOL     MW 1212   0.401   1.805   2.615  0.1081 -0.1398  0.6297
  304SOL     OW 1213   0.555   2.064   2.386  0.1074 -0.0863  0.1065
  304SOL    HW1 1214   0.601   2.111   2.317 -1.9824  0.4224  0.9042
  304SOL    HW2 1215   0.608   1.989   2.421 -0.1966  1.6460 -0.2216
  304SOL     MW 1216   0.568   2.060   2.382 -0.2085  0.2094  0.1684
  305SOL     OW 1217   1.122   0.562   0.483  0.1983  0.1163  0.0065
  305SOL    HW1 1218   1.028   0.565   0.510  0.1191  2.0145 -0.3298
  305SOL    HW2 1219   1.149   0.485   0.530 -0.2029  1.7207 -0.1738
  305SOL     MW 1220   1.113   0.552   0.493  0.1349  0.5784 -0.0616
  306SOL     OW 1221   1.164   1.471   0.278 -0.2085  0.3054 -0.4589
  306SOL    HW1 1222   1.232   1.405   0.312  0.9164  0.4598 -1.5323
  306SOL    HW2 1223   1.205   1.504   0.200  1.4518 -1.4620  1.0643
  306SOL     MW 1224   1.178   1.466   0.272  0.1590  0.0926 -0.3996
  307SOL     OW 1225   1.341   0.527   1.915  0.5369 -0.0070 -0.6457
  307SOL    HW1 1226   1.310   0.433   1.935 -1.6850 -0.8023 -1.8030
  307SOL    HW2 1227   1.434   0.534   1.945  1.5727  1.3072 -1.4618
  307SOL     MW 1228   1.349   0.515   1.922  0.3804  0.0614 -0.9061
  308SOL     OW 1229   2.161   0.532   2.741 -0.4911  0.4718  0.1192
  308SOL    HW1 1230   2.254   0.525   2.747  1.3610  0.0630 -0.7744
  308SOL    HW2 1231   2.130   0.598   2.686 -2.3919 -0.0269  1.0587
  308SOL     MW 1232   2.169   0.539   2.735 -0.4976  0.3521  0.1252
  309SOL     OW 1233   0.484   0.456   0.338  0.1570  0.0900 -0.3410
  309SOL    HW1 1234   0.556   0.500   0.297 -3.0571  2.4465 -0.1931
  309SOL    HW2 1235   0.457   0.392   0.270 -0.1997  0.2958 -1.0141
  309SOL     MW 1236   0.490   0.454   0.324 -0.3141  0.4281 -0.4103
  310SOL     OW 1237   0.432   0.640   1.967 -0.2345 -0.2397  0.1232
  310SOL    HW1 1238   0.463   0.558   1.919  1.3871 -4.3443 -0.7250
  310SOL    HW2 1239   0.491   0.705   1.923  2.4582 -1.6897 -0.0065
  310SOL     MW 1240   0.444   0.638   1.955  0.3348 -0.9726 -0.0059
  311SOL     OW 1241   1.886   0.602   1.957 -0.9828 -0.2542  0.5298
  311SOL    HW1 1242   1.858   0.659   2.026  1.0139  0.0138 -2.2054
  311SOL    HW2 1243   1.930   0.533   2.004 -2.5179 -2.5250 -2.7563
  311SOL     MW 1244   1.888   0.600   1.972 -0.9219 -0.5184 -0.2647
  312SOL     OW 1245   1.842   2.515   0.142  0.1449 -0.0947  0.2291
  312SOL    HW1 1246   1.912   2.541   0.205 -1.0089  1.1116 -0.1208
  312SOL    HW2 1247   1.761   2.537   0.189 -2.5602  1.2051  1.0172
  312SOL     MW 1248   1.840   2.521   0.156 -0.3643  0.2360  0.2869
  313SOL     OW 1249   0.154   1.114   2.979  0.2557  0.7865 -0.0407
  313SOL    HW1 1250   0.079   1.142   3.036 -1.7661 -0.5700 -2.2965
  313SOL    HW2 1251   0.217   1.184   2.962  1.1564 -2.3537  1.6409
  313SOL     MW 1252   0.152   1.127   2.985  0.1078  0.1932 -0.1165
  314SOL     OW 1253   2.184   2.979   2.948  0.0200  0.3333 -0.3093
  314SOL    HW1 1254   2.134   3.045   2.902 -1.0620  0.5871  2.1653
  314SOL    HW2 1255   2.238   3.032   3.008 -1.6073 -0.5362 -0.6554
  314SOL     MW 1256   2.184   2.995   2.950 -0.3375  0.2521 -0.0285
  315SOL     OW 1257   1.537   1.933   3.076  0.0977 -0.2745 -0.6026
  315SOL    HW1 1258   1.456   1.958   3.135 -0.3373 -0.9025  2.5923
  315SOL    HW2 1259   1.525   1.994   2.996  1.7008 -1.2205 -1.3932
  315SOL     MW 1260   1.524   1.944   3.074  0.2518 -0.4821 -0.2854
  316SOL     OW 1261   1.303   0.598   2.708  0.4068 -0.7270  0.0575
  316SOL    HW1 1262   1.393   0.613   2.707  0.8779 -1.9096 -2.1694
  316SOL    HW2 1263   1.267   0.608   2.798 -3.3643 -1.5460  0.4297
  316SOL     MW 1264   1.310   0.601   2.720 -0.0286 -0.9911 -0.1872
  317SOL     OW 1265   0.674   1.431   2.585  0.0210  0.7483  0.7774
  317SOL    HW1 1266   0.748   1.370   2.580  0.4168  2.0567  1.0034
  317SOL    HW2 1267   0.659   1.462   2.488 -2.5561  0.6614 -3.0973
  317SOL     MW 1268   0.682   1.427   2.571 -0.2668  0.9095  0.2960
  318SOL     OW 1269   1.321   0.336   2.961  0.7433 -0.2312  0.2921
  318SOL    HW1 1270   1.247   0.395   2.933 -1.3485 -0.1604  0.5391
  318SOL    HW2 1271   1.398   0.389   2.957  0.0368 -1.2924  0.0987
  318SOL     MW 1272   1.321   0.351   2.957  0.3741 -0.3619  0.2992
  319SOL     OW 1273   0.795   0.453   2.856  0.6740 -0.1533  0.1322
  319SOL    HW1 1274   0.784   0.361   2.821 -1.0720 -1.8655 -0.1971
  319SOL    HW2 1275   0.759   0.455   2.949 -3.9349  3.1469 -2.5129
  319SOL     MW 1276   0.789   0.441   2.863 -0.1645  0.0562 -0.2603
  320SOL     OW 1277   1.063   1.359   2.041  0.3411  0.0904 -0.1705
  320SOL    HW1 1278   1.139   1.304   2.068  0.7957 -1.8948 -0.8057
  320SOL    HW2 1279   1.104   1.422   1.980  0.2473  0.2530 -1.1503
  320SOL     MW 1280   1.079   1.360   2.037  0.3887 -0.1501 -0.3836
  321SOL     OW 1281   1.136   0.945   3.025  0.2304  0.5739 -0.1989
  321SOL    HW1 1282   1.071   0.932   2.959  1.3873  0.5450 -0.3125
  321SOL    HW2 1283   1.204   0.886   3.009 -1.9641 -0.6573  1.3882
  321SOL     MW 1284   1.136   0.935   3.014  0.0935  0.4077 -0.0045
  322SOL     OW 1285   1.215   0.854   1.678 -0.3311 -0.3555 -0.3861
  322SOL    HW1 1286   1.286   0.789   1.675 -0.9413 -2.1382 -0.6055
  322SOL    HW2 1287   1.194   0.884   1.772 -0.3281 -0.8441  2.1590
  322SOL     MW 1288   1.221   0.850   1.690 -0.4112 -0.6552 -0.0792
  323SOL     OW 1289   1.202   1.539   1.877  0.2233 -0.3640 -0.4567
  323SOL    HW1 1290   1.265   1.554   1.808  0.0780 -0.6643  0.7617
  323SOL    HW2 1291   1.141   1.609   1.889  1.9675 -0.9287  0.1590
  323SOL     MW 1292   1.202   1.550   1.870  0.4342 -0.4781 -0.2147
  324SOL     OW 1293   1.490   0.966   2.432  0.1487  0.9755  0.3083
  324SOL    HW1 1294   1.411   0.990   2.468  1.6568 -1.5542 -3.0543
  324SOL    HW2 1295   1.546   1.037   2.465  2.5006 -1.9687 -1.8493
  324SOL     MW 1296   1.487   0.978   2.441  0.6580  0.2533 -0.4200
  325SOL     OW 1297   1.091   0.513   2.908  0.2184  0.4083  0.0687
  325SOL    HW1 1298   1.042   0.538   2.989  1.2121 -0.0379 -0.1867
  325SOL    HW2 1299   1.032   0.501   2.837 -1.9692 -1.3888 -2.8520
  325SOL     MW 1300   1.077   0.515   2.909  0.0609  0.1124 -0.3503
  326SOL     OW 1301   0.453   1.360   2.303 -0.1691  0.4415  0.3241
  326SOL    HW1 1302   0.510   1.310   2.241 -0.3140 -1.6616 -2.3216
  326SOL    HW2 1303   0.468   1.450   2.267 -0.5667 -1.5359  1.6280
  326SOL     MW 1304   0.463   1.365   2.290 -0.2407 -0.0969  0.1471
  327SOL     OW 1305   1.920   0.781   2.436  0.0723  0.1986 -0.0018
  327SOL    HW1 1306   1.898   0.732   2.523 -0.2878 -0.5424  0.7175
  327SOL    HW2 1307   1.926   0.867   2.467 -1.3971 -0.9148 -0.7513
  327SOL     MW 1308   1.918   0.786   2.452 -0.1691 -0.0460 -0.0058
  328SOL     OW 1309   0.215   1.387   2.211  0.2701 -0.1402  0.1581
  328SOL    HW1 1310   0.193   1.304   2.164  0.0098  1.2031 -3.3596
  328SOL    HW2 1311   0.304   1.379   2.243 -1.4823 -1.5210 -1.5723
  328SOL     MW 1312   0.224   1.375   2.209  0.0046 -0.1452 -0.5344
  329SOL     OW 1313   0.138   0.242   1.402 -0.4076 -0.4625  0.1559
  329SOL    HW1 1314   0.097   0.249   1.489  1.8569 -2.1185 -0.3746
  329SOL    HW2 1315   0.234   0.263   1.415  0.1412  1.7701  2.1967
  329SOL     MW 1316   0.145   0.246   1.415 -0.0364 -0.3864  0.3551
  330SOL     OW 1317   0.376   0.007   2.091  0.1816  0.0112 -0.7076
  330SOL    HW1 1318   0.458  -0.009   2.145  0.5819 -1.6378  0.4076
  330SOL    HW2 1319   0.312  -0.043   2.144 -0.3902 -1.8529 -1.3313
  330SOL     MW 1320   0.378  -0.002   2.106  0.1590 -0.4523 -0.6428
  331SOL     OW 1321   0.873   1.244   2.283 -0.6237 -0.1075  0.2076
  331SOL    HW1 1322   0.825   1.270   2.207  0.7204  0.7177  0.7109
  331SOL    HW2 1323   0.905   1.324   2.325 -0.9212 -0.1471  3.2116
  331SOL     MW 1324   0.871   1.258   2.279 -0.4856 -0.0039  0.6703
  332SOL     OW 1325   1.349   1.756   2.966  0.0253 -0.9219 -0.5400
  332SOL    HW1 1326   1.357   1.770   2.868 -0.9136 -2.1777 -1.2048
  332SOL    HW2 1327   1.420   1.812   3.002 -0.4532 -1.1590 -0.7255
  332SOL     MW 1328   1.360   1.765   2.958 -0.1617 -1.1189 -0.6522
  333SOL     OW 1329   1.727   1.403   2.961 -0.4573  0.0704 -0.2465
  333SOL    HW1 1330   1.817   1.399   2.940 -3.7636 -1.8805  0.9469
  333SOL    HW2 1331   1.710   1.316   2.997  0.2051 -0.8196  0.4943
  333SOL     MW 1332   1.737   1.391   2.963 -0.8061 -0.3044  0.0087
  334SOL     OW 1333   1.333   0.021   2.583 -0.3508  0.1564 -0.6128
  334SOL    HW1 1334   1.247   0.007   2.626  0.0523 -2.0884 -0.7175
  334SOL    HW2 1335   1.376   0.096   2.623 -0.2862 -0.5099 -1.6049
  334SOL     MW 1336   1.327   0.029   2.594 -0.2891 -0.2276 -0.7575
  335SOL     OW 1337   1.354   0.761   2.958 -0.3360  0.3343 -0.2097
  335SOL    HW1 1338   1.389   0.731   3.045 -1.5633 -0.1689  0.3421
  335SOL    HW2 1339   1.405   0.830   2.916 -1.0473 -0.3825 -2.9347
  335SOL     MW 1340   1.365   0.766   2.964 -0.5918  0.1734 -0.4965
  336SOL     OW 1341   0.949   1.140   1.883 -0.1116  0.3684 -0.3942
  336SOL    HW1 1342   0.966   1.226   1.913 -1.6164 -2.8806  0.0543
  336SOL    HW2 1343   1.022   1.085   1.904  1.6862  2.0672  1.6148
  336SOL     MW 1344   0.961   1.144   1.890 -0.0729  0.1639 -0.0699
  337SOL     OW 1345   0.643   1.814   2.818  0.2966  0.3521  0.6203
  337SOL    HW1 1346   0.585   1.811   2.743  0.1607 -2.1204 -0.8331
  337SOL    HW2 1347   0.713   1.764   2.783 -0.5296  1.2869  1.6938
  337SOL     MW 1348   0.645   1.807   2.803  0.1697  0.1492  0.5702
  338SOL     OW 1349   1.141   0.737   2.549  0.1431 -0.8132  0.1377
  338SOL    HW1 1350   1.061   0.678   2.533 -0.4313  0.1941  0.5972
  338SOL    HW2 1351   1.206   0.692   2.613  1.6311  1.2549 -0.3837
  338SOL     MW 1352   1.139   0.723   2.555  0.2637 -0.4074  0.1295
  339SOL     OW 1353   1.484   1.062   1.819  0.2233  0.4655  0.3784
  339SOL    HW1 1354   1.433   1.086   1.743  1.8013  2.5030 -0.1965
  339SOL    HW2 1355   1.431   1.031   1.889 -0.3667 -0.0528 -0.8622
  339SOL     MW 1356   1.470   1.061   1.818  0.3536  0.6660  0.1388
  340SOL     OW 1357   1.310   1.531   0.049 -0.1023 -0.0422 -0.1580
  340SOL    HW1 1358   1.316   1.603  -0.019  0.0195  0.3316  0.4808
  340SOL    HW2 1359   1.400   1.514   0.084  2.6597 -1.0827  1.4018
  340SOL     MW 1360   1.323   1.538   0.045  0.2782 -0.1302  0.1321
  341SOL     OW 1361   0.091   1.385   2.770 -0.6631 -0.8613  0.0296
  341SOL    HW1 1362   0.155   1.345   2.712 -1.1778  0.9498  0.3536
  341SOL    HW2 1363   0.001   1.368   2.738 -1.7502 -0.1377 -1.3444
  341SOL     MW 1364   0.087   1.378   2.758 -0.8744 -0.5269 -0.1089
  342SOL     OW 1365   1.309   0.302   0.124  0.3900  0.1332  0.4616
  342SOL    HW1 1366   1.368   0.377   0.151  1.2592 -1.9566  0.4216
  342SOL    HW2 1367   1.319   0.298   0.026 -2.9506  1.0432 -2.5059
  342SOL     MW 1368   1.318   0.311   0.115  0.0639 -0.0224  0.0648
  343SOL     OW 1369   0.267   0.272   2.117  0.1258  0.3617 -0.9860
  343SOL    HW1 1370   0.317   0.193   2.131 -0.8752 -1.5049  0.2806
  343SOL    HW2 1371   0.186   0.231   2.087  1.6255 -3.0338  0.7745
  343SOL     MW 1372   0.263   0.256   2.115  0.1916 -0.3326 -0.5867
  344SOL     OW 1373   1.716   2.002   0.180 -0.2861 -0.0987  0.4120
  344SOL    HW1 1374   1.730   2.091   0.151  1.2969  2.0134  0.3141
  344SOL    HW2 1375   1.670   1.965   0.107  3.0799 -1.1422 -1.5321
  344SOL     MW 1376   1.712   2.009   0.167  0.3668  0.0423  0.1426
  345SOL     OW 1377   0.741   1.579   2.337 -0.6288 -0.1410 -0.2803
  345SOL    HW1 1378   0.671   1.557   2.271 -0.6570 -1.5963  1.3024
  345SOL    HW2 1379   0.815   1.600   2.281  1.2057 -1.8124  1.7224
  345SOL     MW 1380   0.741   1.579   2.321 -0.3905 -0.5535  0.1928
  346SOL     OW 1381   1.761   1.101   0.031 -0.2445  0.4549 -0.1835
  346SOL    HW1 1382   1.840   1.115   0.081 -1.2628 -1.9065  0.0439
  346SOL    HW2 1383   1.712   1.034   0.079  1.3965  2.5177  1.1978
  346SOL     MW 1384   1.765   1.094   0.044 -0.1623  0.4155  0.0288
  347SOL     OW 1385   1.194   0.668   2.299 -0.6228 -0.2563  0.4282
  347SOL    HW1 1386   1.290   0.648   2.306 -0.2354 -1.5772  0.3065
  347SOL    HW2 1387   1.174   0.705   2.386  0.7285  0.9156  3.0284
  347SOL     MW 1388   1.204   0.670   2.312 -0.3934 -0.2759  0.7552
  348SOL     OW 1389   1.364   2.666   1.913 -0.5725 -0.6205 -0.3941
  348SOL    HW1 1390   1.402   2.581   1.952 -0.0269  0.4111  0.6152
  348SOL    HW2 1391   1.414   2.725   1.978  0.5225  1.9679 -0.5140
  348SOL     MW 1392   1.376   2.662   1.927 -0.3560 -0.1429 -0.2768
  349SOL     OW 1393   1.444   0.248   2.724  0.0729 -0.3959  0.5234
  349SOL    HW1 1394   1.398   0.296   2.794 -0.7383  0.6715  1.3101
  349SOL    HW2 1395   1.533   0.253   2.736 -0.5003  2.3445 -1.3559
  349SOL     MW 1396   1.450   0.255   2.735 -0.1097  0.1065  0.3793
  350SOL     OW 1397   1.843   0.648   2.661 -0.2802 -0.4330 -0.6751
  350SOL    HW1 1398   1.766   0.606   2.618  2.0510 -1.1685  1.6525
  350SOL    HW2 1399   1.890   0.575   2.700  0.0352 -2.4474  1.1971
  350SOL     MW 1400   1.839   0.633   2.661  0.0690 -0.7958 -0.1210
  351SOL     OW 1401   0.102   1.072   1.537  0.1682  0.4746  0.2310
  351SOL    HW1 1402   0.034   1.083   1.605  3.6752 -0.5375  3.2734
  351SOL    HW2 1403   0.179   1.121   1.571 -3.6273 -1.0671  1.5200
  351SOL     MW 1404   0.103   1.080   1.550  0.1301  0.1376  0.8024
  352SOL     OW 1405   0.810   1.641   2.705  0.0843 -0.4099 -0.0647
  352SOL    HW1 1406   0.868   1.595   2.770  0.7132 -1.3457 -1.7693
  352SOL    HW2 1407   0.756   1.574   2.653 -0.2371 -2.7042 -0.3510
  352SOL     MW 1408   0.811   1.626   2.706  0.1249 -0.8361 -0.3273
  353SOL     OW 1409   3.067   2.518   2.651 -0.0081  0.6235  0.3529
  353SOL    HW1 1410   3.166   2.518   2.655  3.5694  0.1118  1.2626
  353SOL    HW2 1411   3.046   2.609   2.629  0.4420 -0.4178  1.2345
  353SOL     MW 1412   3.077   2.530   2.649  0.5233  0.4186  0.5892
  354SOL     OW 1413   0.253   2.485   0.813  0.1708  0.1466  0.3132
  354SOL    HW1 1414   0.287   2.456   0.894  0.8963 -2.1211 -1.5894
  354SOL    HW2 1415   0.181   2.430   0.784 -0.1847 -0.2243 -2.8569
  354SOL     MW 1416   0.248   2.474   0.820  0.2196 -0.2015 -0.3561
  355SOL     OW 1417   0.019   2.255   0.387 -0.5464  0.1807 -0.0950
  355SOL    HW1 1418  -0.067   2.207   0.379 -0.4827  0.2981  2.7560
  355SOL    HW2 1419   0.000   2.325   0.449  0.2085 -0.7363 -2.3106
  355SOL     MW 1420   0.005   2.258   0.394 -0.4384  0.0752 -0.0112
  356SOL     OW 1421   0.840   2.819   0.982 -0.3285 -0.3908 -0.2944
  356SOL    HW1 1422   0.887   2.872   0.905 -0.1205  0.5627 -0.8769
  356SOL    HW2 1423   0.749   2.818   0.953 -0.1730  1.8602 -1.1822
  356SOL     MW 1424   0.834   2.826   0.968 -0.2805  0.0320 -0.4884
  357SOL     OW 1425   1.774   2.920   0.396 -0.2781  0.4623 -0.3231
  357SOL    HW1 1426   1.708   2.857   0.423  0.8461  0.5241  0.4244
  357SOL    HW2 1427   1.850   2.879   0.353 -1.2776  0.8317  0.2404
  357SOL     MW 1428   1.775   2.906   0.394 -0.2616  0.5192 -0.1501
  358SOL     OW 1429   0.462   0.158   1.053  0.2367  0.1981 -0.2960
  358SOL    HW1 1430   0.552   0.125   1.041  1.7978  0.4132 -1.4809
  358SOL    HW2 1431   0.435   0.177   0.965 -1.3708  0.5737  1.1872
  358SOL     MW 1432   0.470   0.156   1.040  0.2306  0.2761 -0.2566
  359SOL     OW 1433   0.852   2.891   1.848  0.4046 -0.8775 -0.3832
  359SOL    HW1 1434   0.836   2.797   1.860 -0.6621  0.5221  3.3518
  359SOL    HW2 1435   0.882   2.890   1.758 -0.4856  0.3537 -2.4099
  359SOL     MW 1436   0.854   2.879   1.838  0.1464 -0.5304 -0.1578
  360SOL     OW 1437   0.581   2.773   0.917  0.1588  0.1351 -0.1161
  360SOL    HW1 1438   0.556   2.729   0.838 -0.8951  0.3268  0.2550
  360SOL    HW2 1439   0.562   2.715   0.992  0.3158  0.9573 -0.6215
  360SOL     MW 1440   0.575   2.760   0.916  0.0404  0.2689 -0.1338
  361SOL     OW 1441   0.194   2.643   1.354 -0.0052 -0.4601  0.5867
  361SOL    HW1 1442   0.176   2.712   1.418 -1.4724  0.0635  1.2611
  361SOL    HW2 1443   0.292   2.640   1.339  1.3461  1.2490 -1.0938
  361SOL     MW 1444   0.205   2.652   1.360 -0.0205 -0.1655  0.4540
  362SOL     OW 1445   1.496   2.391   0.641  0.0416  0.2401  0.2091
  362SOL    HW1 1446   1.519   2.336   0.719 -1.0137 -0.4983  1.4669
  362SOL    HW2 1447   1.531   2.475   0.662 -0.1713 -0.2863 -0.5492
  362SOL     MW 1448   1.504   2.395   0.654 -0.1257  0.0732  0.2750
  363SOL     OW 1449   0.297   3.071   0.662  0.1996 -0.3798 -0.1192
  363SOL    HW1 1450   0.295   3.007   0.730  0.7606  0.8334 -0.4937
  363SOL    HW2 1451   0.209   3.055   0.624 -2.0871 -0.3907  0.8726
  363SOL     MW 1452   0.285   3.060   0.666 -0.0281 -0.2212 -0.0378
  364SOL     OW 1453   0.737   0.173   0.198  0.3306  0.4574  0.1431
  364SOL    HW1 1454   0.665   0.106   0.210  0.5258  1.6749 -0.7891
  364SOL    HW2 1455   0.701   0.251   0.150  0.5708  1.9440  0.3382
  364SOL     MW 1456   0.723   0.175   0.193  0.3880  0.8142  0.0459
  365SOL     OW 1457   0.976   2.030   1.129 -0.1953  0.2615  0.6554
  365SOL    HW1 1458   0.945   2.113   1.093  1.7396 -1.6705  4.3665
  365SOL    HW2 1459   0.930   1.958   1.082 -1.6236  0.6159 -0.4295
  365SOL     MW 1460   0.966   2.032   1.118 -0.1285  0.0533  1.0019
  366SOL     OW 1461   2.858   2.693   1.026  0.3938  0.3347  0.0879
  366SOL    HW1 1462   2.951   2.675   1.062 -0.9312 -0.2715 -0.1682
  366SOL    HW2 1463   2.874   2.707   0.930  1.3047 -1.6048 -0.7219
  366SOL     MW 1464   2.872   2.693   1.018  0.3392 -0.0012 -0.0528
  367SOL     OW 1465   1.225   2.978   0.870 -0.1127  0.5558  0.3197
  367SOL    HW1 1466   1.242   3.038   0.796  0.5150  0.9858 -1.4814
  367SOL    HW2 1467   1.210   2.894   0.821 -0.7713 -0.4398  0.7006
  367SOL     MW 1468   1.225   2.975   0.854 -0.1168  0.4811  0.1323
  368SOL     OW 1469   1.666   0.419   0.707 -0.0180  0.2855  0.2066
  368SOL    HW1 1470   1.735   0.372   0.657  1.3304 -0.3949 -0.2821
  368SOL    HW2 1471   1.670   0.512   0.701 -2.0270  0.4683  3.4244
  368SOL     MW 1472   1.675   0.425   0.700 -0.1052  0.2199  0.5667
  369SOL     OW 1473   0.137   2.467   1.775  0.5813 -0.9726  0.5017
  369SOL    HW1 1474   0.233   2.493   1.757  0.2557  0.3932  0.6940
  369SOL    HW2 1475   0.092   2.556   1.783 -1.3195  1.8378 -0.4679
  369SOL     MW 1476   0.144   2.482   1.773  0.2876 -0.4216  0.3992
  370SOL     OW 1477   0.721   0.094   1.023  0.5040  0.1001 -0.5634
  370SOL    HW1 1478   0.758   0.181   1.025  0.1784 -2.4803  0.3594
  370SOL    HW2 1479   0.799   0.051   1.050 -3.7466 -0.8050  2.0422
  370SOL     MW 1480   0.736   0.100   1.027 -0.0998 -0.3598 -0.0978
  371SOL     OW 1481   1.318   2.921   1.528  0.6113 -0.2792  0.0972
  371SOL    HW1 1482   1.277   2.846   1.480 -0.8308 -1.2661  1.6733
  371SOL    HW2 1483   1.327   2.996   1.466 -0.3706 -0.5755 -0.7365
  371SOL     MW 1484   1.314   2.921   1.513  0.2915 -0.4485  0.1952
  372SOL     OW 1485   0.740   2.296   0.455 -0.0333  0.0060  0.1945
  372SOL    HW1 1486   0.721   2.210   0.488  0.3833  2.2317 -1.0329
  372SOL    HW2 1487   0.782   2.286   0.358  1.4116  2.8807  1.2937
  372SOL     MW 1488   0.743   2.284   0.447  0.2123  0.6789  0.1776
  373SOL     OW 1489   2.770   3.000   1.440  0.2791  0.2918 -0.0389
  373SOL    HW1 1490   2.837   2.972   1.380  0.1539  1.0498 -0.6380
  373SOL    HW2 1491   2.736   3.081   1.403 -1.9999  0.8958 -1.0547
  373SOL     MW 1492   2.775   3.007   1.427 -0.0381  0.4715 -0.2519
  374SOL     OW 1493   1.537   0.458   0.230  0.1558 -0.4957 -0.2554
  374SOL    HW1 1494   1.592   0.383   0.212  2.4782  1.3983 -1.9144
  374SOL    HW2 1495   1.505   0.435   0.316  1.0870 -2.0181  0.0490
  374SOL     MW 1496   1.540   0.445   0.239  0.5851 -0.4467 -0.4341
  375SOL     OW 1497   0.976   2.115   2.269  0.5829 -0.4871 -0.7653
  375SOL    HW1 1498   1.027   2.096   2.352 -0.5648  0.6561  3.8406
  375SOL    HW2 1499   1.001   2.035   2.217 -4.0367 -0.2248  0.9460
  375SOL     MW 1500   0.986   2.102   2.273 -0.1780 -0.3016  0.0682
  376SOL     OW 1501   0.748   2.548   0.083 -0.3791 -0.7237  0.2199
  376SOL    HW1 1502   0.710   2.486   0.152  1.0787 -0.3755 -1.7206
  376SOL    HW2 1503   0.707   2.504   0.003 -1.7209  0.4093 -2.8408
  376SOL     MW 1504   0.738   2.534   0.081 -0.3638 -0.5283 -0.4400
  377SOL     OW 1505   1.287   2.013   0.870 -0.0710 -0.0632 -0.2710
  377SOL    HW1 1506   1.214   2.000   0.810  3.6091  0.5176  0.0685
  377SOL    HW2 1507   1.260   1.990   0.957 -2.0810  1.4361 -1.7460
  377SOL     MW 1508   1.274   2.009   0.874  0.1494  0.2113 -0.4209
  378SOL     OW 1509   0.893   2.830   1.573 -0.0211  0.3998  0.4424
  378SOL    HW1 1510   0.881   2.736   1.555 -0.5325 -1.1832 -2.5773
  378SOL    HW2 1511   0.886   2.876   1.485 -1.8869  2.1896  1.1293
  378SOL     MW 1512   0.891   2.824   1.559 -0.3347  0.4271  0.1346
  379SOL     OW 1513   1.146   1.774   2.264 -0.1586 -0.1592 -0.1846
  379SOL    HW1 1514   1.073   1.745   2.211  1.4924 -0.4314 -2.0450
  379SOL    HW2 1515   1.224   1.721   2.242 -1.6719 -0.8002 -2.4618
  379SOL     MW 1516   1.147   1.764   2.254 -0.1404 -0.2797 -0.7305
  380SOL     OW 1517   0.798   0.106   1.626 -0.2927 -0.0520 -0.0571
  380SOL    HW1 1518   0.804   0.162   1.544 -0.0167  0.0564 -0.7561
  380SOL    HW2 1519   0.885   0.117   1.665 -0.9208  0.9277 -0.9437
  380SOL     MW 1520   0.810   0.115   1.621 -0.3392  0.0916 -0.2663
  381SOL     OW 1521   0.804   2.031   0.796 -0.3147 -0.7043 -0.5753
  381SOL    HW1 1522   0.897   2.027   0.780 -0.6653  2.1775  3.3023
  381SOL    HW2 1523   0.794   2.121   0.831  0.8734 -4.2241  1.8149
  381SOL     MW 1524   0.815   2.042   0.799 -0.2042 -0.7885  0.2516
  382SOL     OW 1525   0.714   0.072   0.718  0.9022  0.0338 -0.1448
  382SOL    HW1 1526   0.687   0.071   0.807 -1.9217  0.0549  2.1845
  382SOL    HW2 1527   0.694  -0.021   0.694  1.7538  0.5047  0.4091
  382SOL     MW 1528   0.708   0.059   0.727  0.6420  0.0988  0.2356
  383SOL     OW 1529   0.528   3.083   0.273  0.0845  0.0161 -0.2402
  383SOL    HW1 1530   0.598   3.025   0.248 -1.4612 -0.3642 -0.1039
  383SOL    HW2 1531   0.493   3.027   0.336  2.3458  0.3164 -2.5295
  383SOL     MW 1532   0.533   3.068   0.278  0.1789  0.0055 -0.5243
  384SOL     OW 1533   0.710   2.913   0.614  0.0662 -0.1083  0.2319
  384SOL    HW1 1534   0.788   2.896   0.668  0.8079 -1.6747  0.6486
  384SOL    HW2 1535   0.644   2.846   0.636  0.4570 -1.2223 -2.5524
  384SOL     MW 1536   0.712   2.902   0.624  0.2156 -0.4619 -0.0805
  385SOL     OW 1537   1.384   2.087   1.524 -0.3518 -0.6423  0.4405
  385SOL    HW1 1538   1.461   2.122   1.578 -0.3199  2.0005 -2.3402
  385SOL    HW2 1539   1.346   2.029   1.586  1.1782 -1.4498 -1.7962
  385SOL     MW 1540   1.389   2.084   1.540 -0.1457 -0.4002 -0.2215
  386SOL     OW 1541   1.309   0.401   0.898 -0.0225 -0.6101  0.1148
  386SOL    HW1 1542   1.250   0.427   0.968  2.6512 -2.0037 -0.6403
  386SOL    HW2 1543   1.325   0.307   0.921 -2.0929 -0.1021 -0.6557
  386SOL     MW 1544   1.303   0.392   0.910  0.0571 -0.7269 -0.0865
  387SOL     OW 1545   0.817   2.199   1.539  0.3184 -0.1481  0.4929
  387SOL    HW1 1546   0.874   2.263   1.495  1.8363 -0.4250 -1.1248
  387SOL    HW2 1547   0.825   2.118   1.489 -0.0986  0.4056  1.1810
  387SOL     MW 1548   0.826   2.196   1.526  0.4636 -0.1116  0.3703
  388SOL     OW 1549   1.524   2.771   1.183 -0.3633 -0.5833 -0.4140
  388SOL    HW1 1550   1.431   2.756   1.154 -1.6343  1.7098  3.2027
  388SOL    HW2 1551   1.588   2.701   1.171  0.8064 -0.0435 -1.1312
  388SOL     MW 1552   1.521   2.760   1.178 -0.3767 -0.2096 -0.0314
  389SOL     OW 1553   0.435   0.097   3.029  0.1509  0.0530 -0.1336
  389SOL    HW1 1554   0.526   0.075   3.025 -0.6952  1.6722 -0.6213
  389SOL    HW2 1555   0.432   0.141   2.947  3.1342  1.0940 -0.5477
  389SOL     MW 1556   0.447   0.100   3.017  0.4329  0.4040 -0.2526
  390SOL     OW 1557   1.287   0.080   0.700 -0.3798 -0.3294 -0.0063
  390SOL    HW1 1558   1.345   0.083   0.623  2.3850  0.7155 -0.4818
  390SOL    HW2 1559   1.347   0.105   0.774 -1.7757  2.2037 -3.1838
  390SOL     MW 1560   1.302   0.084   0.699 -0.1992  0.1426 -0.4883
  391SOL     OW 1561   0.353   2.238   1.419  0.3907  0.4103  0.0879
  391SOL    HW1 1562   0.308   2.151   1.438 -1.0986  1.0811  0.7611
  391SOL    HW2 1563   0.293   2.309   1.433 -0.5341  0.3824  0.1710
  391SOL     MW 1564   0.339   2.236   1.423  0.0722  0.4951  0.1877
  392SOL     OW 1565   2.030   2.217   0.320 -0.6103  0.1619  0.1399
  392SOL    HW1 1566   2.127   2.209   0.322  0.3121 -1.7029 -2.4966
  392SOL    HW2 1567   1.995   2.256   0.405  0.3052  1.2419 -0.1928
  392SOL     MW 1568   2.038   2.221   0.332 -0.3678  0.0583 -0.2518
  393SOL     OW 1569   0.215   2.974   2.799  0.2891 -0.4130  0.5172
  393SOL    HW1 1570   0.287   2.957   2.745  1.5128 -0.1889  1.4104
  393SOL    HW2 1571   0.198   3.073   2.797  1.2384  0.5335 -2.4074
  393SOL     MW 1572   0.222   2.985   2.791  0.5758 -0.2586  0.2491
  394SOL     OW 1573   0.856   1.744   1.560 -0.2166  0.3423 -0.2228
  394SOL    HW1 1574   0.784   1.768   1.621  0.0623  0.6887  1.4130
  394SOL    HW2 1575   0.878   1.825   1.506  0.6140 -2.2275  0.2340
  394SOL     MW 1576   0.849   1.758   1.561 -0.0702  0.0489  0.0533
  395SOL     OW 1577   0.980   2.828   2.653 -0.7037 -0.0516  0.3612
  395SOL    HW1 1578   1.022   2.899   2.702  1.4704 -1.4640 -2.0369
  395SOL    HW2 1579   1.048   2.778   2.595 -1.3791 -3.4215  0.0030
  395SOL     MW 1580   0.995   2.831   2.652 -0.5060 -0.6826 -0.0024
  396SOL     OW 1581   0.717   1.843   2.374 -0.1775 -0.1322 -0.2028
  396SOL    HW1 1582   0.786   1.867   2.438  1.5812  1.6700  0.3087
  396SOL    HW2 1583   0.707   1.746   2.372 -2.2907  3.5046  1.4364
  396SOL     MW 1584   0.725   1.834   2.382 -0.2242  0.5854  0.0809
  397SOL     OW 1585   1.014   2.317   1.310  0.3375  0.3043  0.7965
  397SOL    HW1 1586   1.057   2.363   1.240 -2.3723 -0.8040 -0.0347
  397SOL    HW2 1587   1.086   2.322   1.374 -1.4643 -0.3396 -1.1615
  397SOL     MW 1588   1.029   2.323   1.309 -0.2578  0.0731  0.4285
  398SOL     OW 1589   0.524   2.655   0.676 -0.2505  0.3421 -0.0083
  398SOL    HW1 1590   0.447   2.605   0.655  2.8468  0.4183  2.4995
  398SOL    HW2 1591   0.598   2.592   0.661 -0.2161  1.4453 -2.1845
  398SOL     MW 1592   0.524   2.640   0.671  0.1627  0.4977  0.0354
  399SOL     OW 1593   0.240   2.087   0.315 -0.2112  0.1951 -0.1697
  399SOL    HW1 1594   0.162   2.129   0.350  0.3567  0.1910  0.1550
  399SOL    HW2 1595   0.278   2.152   0.250  0.4463  2.1148 -3.4451
  399SOL     MW 1596   0.235   2.101   0.311 -0.0495  0.4478 -0.5590
  400SOL     OW 1597   0.506   1.946   0.093  0.5320 -0.0024 -0.1918
  400SOL    HW1 1598   0.451   2.022   0.073 -0.3498 -0.4219 -2.0535
  400SOL    HW2 1599   0.476   1.912   0.175 -2.1262 -1.9821 -1.2281
  400SOL     MW 1600   0.494   1.951   0.101  0.0649 -0.3189 -0.5742
  401SOL     OW 1601   0.752   2.063   0.067 -0.0146  0.3323 -0.2177
  401SOL    HW1 1602   0.823   1.999   0.100 -0.2363 -0.4285 -0.4713
  401SOL    HW2 1603   0.675   2.012   0.095 -0.1567 -0.8152 -0.9272
  401SOL     MW 1604   0.751   2.048   0.075 -0.0626  0.0805 -0.3448
  402SOL     OW 1605   0.593   2.969   1.778  0.0798  0.3618 -0.4559
  402SOL    HW1 1606   0.679   2.946   1.812 -0.7520 -0.5174 -2.2352
  402SOL    HW2 1607   0.618   3.029   1.710 -1.0306 -1.2295 -1.2473
  402SOL     MW 1608   0.608   2.974   1.773 -0.1765  0.0359 -0.7951
  403SOL     OW 1609   0.075   0.440   0.380  0.5677 -0.3500  0.6066
  403SOL    HW1 1610   0.146   0.487   0.428  1.5396 -0.1250 -2.2573
  403SOL    HW2 1611   0.120   0.404   0.300  0.0498 -0.2883  1.8903
  403SOL     MW 1612   0.090   0.441   0.375  0.6276 -0.3122  0.3981
  404SOL     OW 1613   0.936   2.929   0.766  0.3658 -0.0947  0.1113
  404SOL    HW1 1614   1.014   2.874   0.744  0.2608  0.4354 -1.9155
  404SOL    HW2 1615   0.971   3.015   0.737 -0.2707  2.2599  0.6353
  404SOL     MW 1616   0.951   2.933   0.759  0.2680  0.2859 -0.0870
  405SOL     OW 1617   0.523   2.398   1.544  0.0802  0.2476  0.1592
  405SOL    HW1 1618   0.508   2.441   1.461 -0.5794  0.8860 -1.7692
  405SOL    HW2 1619   0.481   2.312   1.520  1.5787 -3.5422 -1.9888
  405SOL     MW 1620   0.516   2.392   1.530  0.1909 -0.1682 -0.3787
  406SOL     OW 1621   0.371   2.401   1.073 -0.4455 -0.0547  0.2570
  406SOL    HW1 1622   0.279   2.419   1.095 -1.1122  1.7023  0.5675
  406SOL    HW2 1623   0.386   2.310   1.096 -1.1311 -2.0533 -0.3816
  406SOL     MW 1624   0.361   2.392   1.079 -0.6239 -0.0866  0.2137
  407SOL     OW 1625  -0.003   2.658   1.145  0.0636 -0.1965 -0.3443
  407SOL    HW1 1626   0.060   2.639   1.219 -0.1929 -1.0039  2.0035
  407SOL    HW2 1627   0.052   2.684   1.074 -1.1473 -1.7259  1.8139
  407SOL     MW 1628   0.013   2.659   1.145 -0.1300 -0.5048  0.2502
  408SOL     OW 1629   2.178   2.157   0.666  0.2560  0.4012 -0.8521
  408SOL    HW1 1630   2.121   2.204   0.722  1.9033 -1.3234 -0.2523
  408SOL    HW2 1631   2.115   2.103   0.610 -2.9908  3.6976  0.9551
  408SOL     MW 1632   2.162   2.156   0.666  0.0449  0.6086 -0.5345
  409SOL     OW 1633   1.450   0.144   0.928 -0.2814 -0.0904  0.5981
  409SOL    HW1 1634   1.538   0.175   0.944 -0.3441  2.5787  0.3167
  409SOL    HW2 1635   1.447   0.061   0.976 -1.5898  1.4782  1.4332
  409SOL     MW 1636   1.461   0.137   0.937 -0.4623  0.4687  0.6712
  410SOL     OW 1637   1.113   2.462   1.111 -0.0129 -0.2992  0.2804
  410SOL    HW1 1638   1.056   2.508   1.054  0.7514 -2.9198 -0.2863
  410SOL    HW2 1639   1.157   2.400   1.047  2.5060 -2.2452 -0.6599
  410SOL     MW 1640   1.111   2.460   1.095  0.4203 -0.9017  0.0816
  411SOL     OW 1641   1.979   0.072   2.886 -0.1324  0.6708 -0.4842
  411SOL    HW1 1642   1.927   0.030   2.822  0.7266  0.3521 -2.0312
  411SOL    HW2 1643   1.915   0.100   2.948  1.1066 -0.2245 -1.9013
  411SOL     MW 1644   1.964   0.070   2.886  0.1444  0.5106 -0.8753
  412SOL     OW 1645   1.026   2.256   0.594  0.6802 -0.3252 -0.5172
  412SOL    HW1 1646   1.035   2.348   0.616  0.2545 -1.0768  3.0121
  412SOL    HW2 1647   0.925   2.257   0.572 -1.1018  0.9690 -1.0728
  412SOL     MW 1648   1.014   2.268   0.594  0.3889 -0.2536 -0.1249
  413SOL     OW 1649   0.585   2.739   3.054  0.3065 -0.2164 -0.1511
  413SOL    HW1 1650   0.638   2.665   3.104  1.9659 -1.7267  2.2967
  413SOL    HW2 1651   0.643   2.775   2.984 -0.2609 -1.1215  4.6333
  413SOL     MW 1652   0.600   2.734   3.052  0.4506 -0.5351  0.8031
  414SOL     OW 1653   1.913   2.964   1.067 -0.3909  0.4228  0.2351
  414SOL    HW1 1654   1.838   3.019   1.069  0.5393  1.2289  2.8143
  414SOL    HW2 1655   1.975   3.006   1.005 -1.6396  0.3526 -0.7615
  414SOL     MW 1656   1.912   2.976   1.059 -0.4329  0.5199  0.4439
  415SOL     OW 1657   1.826   2.654   1.082  0.4585  0.8197 -0.1705
  415SOL    HW1 1658   1.807   2.653   1.179  0.7032  0.5924  1.3918
  415SOL    HW2 1659   1.834   2.748   1.070  1.1620  0.4603  0.4784
  415SOL     MW 1660   1.824   2.666   1.093  0.5836  0.7423  0.1212
  416SOL     OW 1661   0.562   1.975   1.373 -0.5115  0.3152 -0.2686
  416SOL    HW1 1662   0.526   2.033   1.304  1.9058  2.3028 -0.5533
  416SOL    HW2 1663   0.541   1.886   1.354 -1.9077  3.3603 -0.6244
  416SOL     MW 1664   0.554   1.971   1.362 -0.3767  0.9792 -0.3531
  417SOL     OW 1665   0.993   3.061   2.071 -0.1640  0.1842 -0.0334
  417SOL    HW1 1666   0.936   3.054   2.147  0.0538 -1.6017 -4.1474
  417SOL    HW2 1667   0.951   3.002   1.998 -2.0074 -2.6090 -0.6568
  417SOL     MW 1668   0.980   3.052   2.072 -0.3785 -0.4200 -0.6584
  418SOL     OW 1669   0.722   2.922   0.122 -0.4497  0.0687 -0.1219
  418SOL    HW1 1670   0.800   2.910   0.064 -1.9743  0.2613 -2.4136
  418SOL    HW2 1671   0.652   2.872   0.072  0.0826  2.6131 -1.1568
  418SOL     MW 1672   0.723   2.914   0.108 -0.5806  0.4298 -0.5608
  419SOL     OW 1673   0.457   2.610   1.347  0.9028 -0.1978 -0.6935
  419SOL    HW1 1674   0.502   2.693   1.376 -2.8475 -2.0930  1.2428
  419SOL    HW2 1675   0.510   2.587   1.266 -1.0714 -2.1119 -0.2728
  419SOL     MW 1676   0.470   2.618   1.340  0.1475 -0.7004 -0.3825
  420SOL     OW 1677   0.854   2.244   0.987 -0.0068  0.3679  0.5988
  420SOL    HW1 1678   0.792   2.254   1.062  2.4150  1.9524  1.5279
  420SOL    HW2 1679   0.868   2.328   0.939 -0.4796  2.4109 -1.8986
  420SOL     MW 1680   0.847   2.257   0.991  0.2504  0.8465  0.3919
  421SOL     OW 1681   2.953   0.144   3.055 -0.0156  0.4065 -0.6536
  421SOL    HW1 1682   2.891   0.125   2.988  1.6760  2.5948  2.3297
  421SOL    HW2 1683   2.998   0.059   3.068 -0.7826  1.7045 -2.0231
  421SOL     MW 1684   2.951   0.131   3.048  0.1064  0.8665 -0.4407
  422SOL     OW 1685   0.888   2.525   0.905  0.3375 -0.1724  0.7812
  422SOL    HW1 1686   0.865   2.612   0.938 -2.8787 -1.2346  2.1908
  422SOL    HW2 1687   0.880   2.537   0.810 -0.1492  1.8377 -1.7389
  422SOL     MW 1688   0.884   2.538   0.896 -0.1511 -0.0474  0.6347
  423SOL     OW 1689   1.445   0.083   0.466  0.2754 -0.2010  0.1278
  423SOL    HW1 1690   1.444   0.062   0.373 -1.8224  0.2304 -0.6976
  423SOL    HW2 1691   1.466   0.175   0.475  0.5778 -1.8861 -1.1178
  423SOL     MW 1692   1.448   0.092   0.455  0.0385 -0.3664 -0.1455
  424SOL     OW 1693   0.692   2.284   1.195 -0.2204  0.1903  0.1126
  424SOL    HW1 1694   0.610   2.226   1.184 -2.1217 -2.5850 -1.7079
  424SOL    HW2 1695   0.746   2.258   1.270 -1.0525  1.2873 -0.6639
  424SOL     MW 1696   0.689   2.273   1.204 -0.5811 -0.0311 -0.2301
  425SOL     OW 1697   1.735   2.808   2.058 -0.5858 -0.1035 -0.2196
  425SOL    HW1 1698   1.707   2.817   1.970  0.7549 -2.3822 -1.2779
  425SOL    HW2 1699   1.769   2.720   2.040 -0.7334 -0.6071  0.3468
  425SOL     MW 1700   1.736   2.797   2.044 -0.4284 -0.4706 -0.2845
  426SOL     OW 1701   0.812   1.687   1.960  0.7193 -0.0104  0.4976
  426SOL    HW1 1702   0.749   1.724   1.901  1.3486 -0.8172 -2.4221
  426SOL    HW2 1703   0.821   1.753   2.028  2.1518 -0.7309  0.9327
  426SOL     MW 1704   0.805   1.701   1.961  0.9913 -0.2119  0.1698
  427SOL     OW 1705   0.366   1.652   1.893  0.5276 -0.0728 -0.0771
  427SOL    HW1 1706   0.419   1.592   1.941 -1.2278  2.0547  1.0166
  427SOL    HW2 1707   0.281   1.619   1.927 -0.4653 -0.5324  0.6195
  427SOL     MW 1708   0.362   1.640   1.904  0.1650  0.1473  0.1591
  428SOL     OW 1709   0.603   2.597   1.124  0.2343 -0.1367 -0.1474
  428SOL    HW1 1710   0.685   2.582   1.164  2.6004  1.0110 -1.8230
  428SOL    HW2 1711   0.590   2.509   1.102  3.0346  0.4857 -0.0087
  428SOL     MW 1712   0.612   2.583   1.127  0.9160  0.0968 -0.3502
  429SOL     OW 1713   1.258   2.782   1.120  0.2353 -0.2201  0.7854
  429SOL    HW1 1714   1.166   2.751   1.144  0.3257 -0.4851  0.6954
  429SOL    HW2 1715   1.246   2.856   1.058 -2.8172  0.0414  1.4624
  429SOL     MW 1716   1.244   2.787   1.115 -0.1556 -0.2206  0.8629
  430SOL     OW 1717   1.133   2.746   0.705  0.1223 -0.2283 -0.3451
  430SOL    HW1 1718   1.177   2.667   0.736 -1.0592  0.4999  0.9319
  430SOL    HW2 1719   1.085   2.723   0.616 -1.0302 -2.3977 -1.2793
  430SOL     MW 1720   1.132   2.732   0.698 -0.1856 -0.4185 -0.2998
  431SOL     OW 1721   0.342   1.922   1.065  0.2860  0.2898 -0.2373
  431SOL    HW1 1722   0.411   1.857   1.053 -0.7677 -2.4956  1.4118
  431SOL    HW2 1723   0.300   1.937   0.978 -1.4332  1.2936 -2.8466
  431SOL     MW 1724   0.346   1.915   1.052 -0.0798  0.0547 -0.3640
  432SOL     OW 1725   0.073   0.029   1.231 -0.3152  0.4411  0.6619
  432SOL    HW1 1726   0.086   0.104   1.288  0.8086 -3.3815  0.8018
  432SOL    HW2 1727  -0.008  -0.022   1.251  1.2899 -0.1354 -1.3502
  432SOL     MW 1728   0.064   0.032   1.241  0.0448 -0.1393  0.4149
  433SOL     OW 1729   0.617   2.809   1.507 -0.3513  0.3404  0.0775
  433SOL    HW1 1730   0.577   2.814   1.589  0.6930  0.4793 -2.9197
  433SOL    HW2 1731   0.711   2.831   1.513 -1.4207 -1.7638 -1.1589
  433SOL     MW 1732   0.624   2.813   1.519 -0.3546  0.0811 -0.4811
  434SOL     OW 1733   1.583   2.842   1.512 -0.2560 -0.5955  0.1632
  434SOL    HW1 1734   1.485   2.841   1.520  0.2174  1.0644  1.2727
  434SOL    HW2 1735   1.606   2.844   1.418 -0.7333 -0.3393 -0.6636
  434SOL     MW 1736   1.573   2.843   1.501 -0.2565 -0.3427  0.2005
  435SOL     OW 1737   2.852   1.789   0.219  0.2746  0.1354  0.3647
  435SOL    HW1 1738   2.932   1.840   0.187 -0.8226 -1.4219 -0.8793
  435SOL    HW2 1739   2.822   1.754   0.134  1.0378 -1.5057 -3.7684
  435SOL     MW 1740   2.859   1.791   0.204  0.2305 -0.2866 -0.3447
  436SOL     OW 1741   1.335   2.697   0.421  0.7224 -0.3348  0.6184
  436SOL    HW1 1742   1.371   2.693   0.508  2.9662 -0.3975  2.5529
  436SOL    HW2 1743   1.288   2.781   0.435 -3.3941 -2.0983 -0.8006
  436SOL     MW 1744   1.334   2.707   0.434  0.4753 -0.5757  0.6864
  437SOL     OW 1745   0.851   2.962   1.340  0.0993  0.3341 -0.3637
  437SOL    HW1 1746   0.905   3.041   1.342  1.5861  0.5114  1.9169
  437SOL    HW2 1747   0.892   2.910   1.275 -0.1492 -0.5065  1.6262
  437SOL     MW 1748   0.863   2.966   1.332  0.2627  0.2466  0.1998
  438SOL     OW 1749   0.814   2.633   1.844 -0.1583 -0.2797 -0.3506
  438SOL    HW1 1750   0.826   2.600   1.930  0.8316 -0.6607 -3.4965
  438SOL    HW2 1751   0.765   2.554   1.806 -2.3002  0.1754  0.3306
  438SOL     MW 1752   0.809   2.618   1.850 -0.3103 -0.2699 -0.6758
  439SOL     OW 1753   1.238   2.179   0.429 -0.0469 -0.0358 -0.2642
  439SOL    HW1 1754   1.198   2.224   0.505  2.1488  0.0004 -1.0035
  439SOL    HW2 1755   1.193   2.213   0.349  0.8841 -0.8823 -0.1423
  439SOL     MW 1756   1.227   2.189   0.428  0.3656 -0.1427 -0.3456
  440SOL     OW 1757   1.770   3.025   3.071  0.4739  0.6283 -0.0210
  440SOL    HW1 1758   1.715   2.978   3.138  0.8330  1.6987  0.9906
  440SOL    HW2 1759   1.850   2.974   3.071 -2.0669  3.2258 -2.6903
  440SOL     MW 1760   1.773   3.012   3.080  0.1861  1.1122 -0.2397
  441SOL     OW 1761   0.305   2.629   0.471  0.2500  0.3382  0.1667
  441SOL    HW1 1762   0.290   2.603   0.383 -0.4774 -1.8660  0.4114
  441SOL    HW2 1763   0.374   2.699   0.472 -1.7681  0.8419  1.8872
  441SOL     MW 1764   0.313   2.635   0.459 -0.1122  0.1138  0.4260
  442SOL     OW 1765   3.080   2.426   0.617  0.5644 -0.6895  0.0648
  442SOL    HW1 1766   3.088   2.521   0.617  0.3433  2.8687 -0.1530
  442SOL    HW2 1767   3.010   2.403   0.675  0.3176  2.0874  0.5558
  442SOL     MW 1768   3.072   2.436   0.624  0.5026  0.1463  0.1009
  443SOL     OW 1769   1.409   1.807   1.910 -0.2613 -0.0042 -0.2334
  443SOL    HW1 1770   1.395   1.857   1.832  1.8153 -1.2990  0.6506
  443SOL    HW2 1771   1.331   1.756   1.914 -0.1857 -0.0126 -2.0922
  443SOL     MW 1772   1.397   1.807   1.900  0.0227 -0.1761 -0.3620
  444SOL     OW 1773   0.869   2.552   1.550 -0.2223  0.3714 -0.7950
  444SOL    HW1 1774   0.954   2.535   1.583 -0.1690  2.7370  1.4224
  444SOL    HW2 1775   0.814   2.495   1.606  0.2835 -2.9392 -0.6078
  444SOL     MW 1776   0.873   2.542   1.561 -0.1485  0.2467 -0.4777
  445SOL     OW 1777   1.039   0.091   1.355  0.2296  0.1768 -0.2553
  445SOL    HW1 1778   0.963   0.149   1.351 -0.2798 -1.6202 -0.2680
  445SOL    HW2 1779   1.046   0.052   1.266  1.0576 -0.6616  1.5173
  445SOL     MW 1780   1.030   0.094   1.342  0.2716 -0.1709 -0.0231
  446SOL     OW 1781   2.740   2.919   1.115  0.0686 -0.0068  0.2322
  446SOL    HW1 1782   2.678   2.965   1.057 -1.0628  1.0632 -0.2460
  446SOL    HW2 1783   2.775   2.838   1.068  0.2972 -2.1261  0.9751
  446SOL     MW 1784   2.737   2.914   1.101 -0.0505 -0.1453  0.2671
  447SOL     OW 1785   0.090   2.015   1.643 -0.0367 -0.1350  0.2522
  447SOL    HW1 1786   0.127   1.932   1.673 -0.5412  0.9789  2.5514
  447SOL    HW2 1787  -0.007   2.003   1.628 -1.2660 -1.4302  0.5835
  447SOL     MW 1788   0.082   2.003   1.645 -0.2655 -0.1589  0.5993
  448SOL     OW 1789   1.736   2.415   1.607  0.0548  0.2386  0.3220
  448SOL    HW1 1790   1.676   2.338   1.610 -1.3061 -1.4161 -0.8928
  448SOL    HW2 1791   1.696   2.481   1.558  1.7824  1.6535  0.3787
  448SOL     MW 1792   1.723   2.414   1.601  0.1032  0.2070  0.1692
  449SOL     OW 1793   0.787   2.853   0.370  0.0908  0.5025 -0.5916
  449SOL    HW1 1794   0.736   2.867   0.284 -0.8212  0.1011 -0.7896
  449SOL    HW2 1795   0.723   2.882   0.443 -0.7792  2.4616  2.3825
  449SOL     MW 1796   0.772   2.859   0.369 -0.1443  0.7080 -0.2253
  450SOL     OW 1797   1.206   2.478   0.716  0.0635  0.0552  0.3070
  450SOL    HW1 1798   1.192   2.411   0.781  1.4535 -2.0385  3.6783
  450SOL    HW2 1799   1.284   2.446   0.671 -2.4992 -3.3305  1.4212
  450SOL     MW 1800   1.214   2.465   0.719 -0.0913 -0.6677  0.8988
  451SOL     OW 1801   0.566   2.093   1.638 -0.2009 -0.4099 -0.0645
  451SOL    HW1 1802   0.649   2.138   1.613 -0.6361  0.7819 -1.7615
  451SOL    HW2 1803   0.538   2.071   1.549 -1.6787 -0.5491 -2.5958
  451SOL     MW 1804   0.573   2.096   1.623 -0.4533 -0.2710 -0.6224
  452SOL     OW 1805   0.296   2.706   3.103 -0.4764 -0.1306  0.1244
  452SOL    HW1 1806   0.387   2.735   3.077  0.5455  1.6101  0.9215
  452SOL    HW2 1807   0.225   2.733   3.041 -0.3983  0.6797 -0.5969
  452SOL     MW 1808   0.299   2.713   3.091 -0.3313  0.2060  0.1344
  453SOL     OW 1809   0.346   2.962   1.672 -0.0271  0.7244 -0.3275
  453SOL    HW1 1810   0.431   2.963   1.713 -1.1730  1.4353 -1.6987
  453SOL    HW2 1811   0.363   3.006   1.584 -1.4225  0.4641 -3.2349
  453SOL     MW 1812   0.360   2.968   1.666 -0.3624  0.7838 -0.8920
  454SOL     OW 1813   1.007   2.770   1.212 -0.0842 -0.0446 -0.0093
  454SOL    HW1 1814   0.928   2.718   1.241  0.0609 -1.7800  2.8903
  454SOL    HW2 1815   0.971   2.781   1.126 -4.0520 -3.0399  2.3298
  454SOL     MW 1816   0.992   2.764   1.205 -0.5885 -0.6688  0.6819
  455SOL     OW 1817   1.619   2.934   0.167 -0.0129 -0.2828 -0.1615
  455SOL    HW1 1818   1.656   2.957   0.254  0.4965  1.0793  0.9086
  455SOL    HW2 1819   1.578   2.843   0.193  0.8735 -1.9641 -0.8713
  455SOL     MW 1820   1.618   2.925   0.182  0.1713 -0.3250 -0.1140
  456SOL     OW 1821   2.762   0.367   1.461  0.0054  0.1639  0.8672
  456SOL    HW1 1822   2.739   0.286   1.417  0.2791 -2.2248  0.1115
  456SOL    HW2 1823   2.851   0.388   1.422  2.0075 -0.9253 -1.1210
  456SOL     MW 1824   2.771   0.359   1.450  0.3056 -0.2950  0.5052
  457SOL     OW 1825   0.976   1.573   2.911  0.0887 -0.4008  0.2355
  457SOL    HW1 1826   0.890   1.534   2.948 -3.2905 -0.6054  2.1898
  457SOL    HW2 1827   1.045   1.515   2.939  1.5608 -0.0348 -0.5419
  457SOL     MW 1828   0.973   1.560   2.920 -0.1629 -0.3795  0.3908
  458SOL     OW 1829   1.469   1.468   0.553 -0.1842  0.5768  0.1694
  458SOL    HW1 1830   1.409   1.539   0.572  0.7471  0.5286 -1.6680
  458SOL    HW2 1831   1.446   1.429   0.469 -1.8337  0.6947 -0.6804
  458SOL     MW 1832   1.458   1.472   0.544 -0.2789  0.5860 -0.1851
  459SOL     OW 1833   1.448   0.088   0.197  0.1536  0.0936 -0.6298
  459SOL    HW1 1834   1.432   0.022   0.131  0.5358 -1.4644  1.0646
  459SOL    HW2 1835   1.393   0.167   0.183  0.7160 -1.4540  0.4196
  459SOL     MW 1836   1.439   0.090   0.187  0.2782 -0.3161 -0.2678
  460SOL     OW 1837   1.758   2.173   0.621 -0.9495 -0.7508  0.0809
  460SOL    HW1 1838   1.676   2.154   0.670 -0.9744 -2.5324  0.5937
  460SOL    HW2 1839   1.816   2.105   0.657 -0.5476 -0.8443  0.2630
  460SOL     MW 1840   1.755   2.161   0.632 -0.8998 -0.9982  0.1726
  461SOL     OW 1841   0.368   2.380   0.575 -0.1949  0.0509  0.2232
  461SOL    HW1 1842   0.343   2.465   0.541 -1.5535  1.3094  1.6062
  461SOL    HW2 1843   0.323   2.378   0.662  0.1132 -1.6122 -1.3228
  461SOL     MW 1844   0.359   2.391   0.582 -0.3335 -0.0025  0.2017
  462SOL     OW 1845   0.413   0.307   1.307  0.0560 -0.2865 -0.2886
  462SOL    HW1 1846   0.424   0.276   1.218  0.0636 -1.1334 -1.4210
  462SOL    HW2 1847   0.502   0.300   1.350 -0.4388 -1.3217  0.4189
  462SOL     MW 1848   0.426   0.302   1.301 -0.0083 -0.5348 -0.3447
  463SOL     OW 1849   0.965   0.069   0.640  0.3618 -0.0629  0.2118
  463SOL    HW1 1850   0.972   0.105   0.555  0.2353 -0.6216 -1.1891
  463SOL    HW2 1851   0.878   0.097   0.672 -0.3389  0.2486  1.1023
  463SOL     MW 1852   0.954   0.077   0.633  0.2526 -0.0955  0.1445
  464SOL     OW 1853   0.839   3.074   2.307 -0.5036  0.1538 -0.2958
  464SOL    HW1 1854   0.819   2.978   2.294 -0.3159  1.5228  2.0964
  464SOL    HW2 1855   0.827   3.087   2.406 -0.0815  0.8679  2.2103
  464SOL     MW 1856   0.835   3.063   2.318 -0.4231  0.4286  0.3505
  465SOL     OW 1857   0.706   0.300   0.479  0.1837 -0.1281  0.1127
  465SOL    HW1 1858   0.632   0.274   0.533  1.2456 -1.1991  0.5654
  465SOL    HW2 1859   0.676   0.268   0.396  0.0862 -1.2952 -1.0387
  465SOL     MW 1860   0.693   0.293   0.475  0.3109 -0.4234  0.0205
  466SOL     OW 1861   1.064   2.011   0.705  0.2004  0.3500  0.3661
  466SOL    HW1 1862   1.077   1.940   0.644 -1.0587  0.4100 -0.5811
  466SOL    HW2 1863   1.070   2.094   0.657 -2.9234  1.0258 -2.0907
  466SOL     MW 1864   1.067   2.013   0.691 -0.3779  0.4471 -0.0830
  467SOL     OW 1865   1.235   2.270   0.929 -0.5710  0.0105 -0.2186
  467SOL    HW1 1866   1.330   2.299   0.918 -0.6706 -0.7257  0.5444
  467SOL    HW2 1867   1.241   2.177   0.915 -1.5000  1.2469  0.9282
  467SOL     MW 1868   1.248   2.262   0.925 -0.7067  0.0765  0.0334
  468SOL     OW 1869   0.382   2.617   2.009 -0.0677 -0.2354  0.3868
  468SOL    HW1 1870   0.393   2.558   1.929 -1.1488 -0.5253  3.2750
  468SOL    HW2 1871   0.361   2.707   1.971  1.2213 -0.9521  0.6846
  468SOL     MW 1872   0.381   2.621   1.993 -0.0403 -0.3682  0.8072
  469SOL     OW 1873   0.367   2.194   1.796 -0.5373 -0.2239  0.3186
  469SOL    HW1 1874   0.296   2.129   1.810  1.5089  0.5699  0.9140
  469SOL    HW2 1875   0.422   2.157   1.723  1.3930  0.6637 -1.7382
  469SOL     MW 1876   0.365   2.180   1.788 -0.0126 -0.0021  0.1258
  470SOL     OW 1877   3.011   2.594   0.101 -1.0621 -0.0116  0.4811
  470SOL    HW1 1878   2.959   2.550   0.172  1.6510 -1.8987 -1.6283
  470SOL    HW2 1879   2.971   2.598   0.015  0.7763  2.4057 -0.6315
  470SOL     MW 1880   2.999   2.589   0.099 -0.4616  0.0584  0.0560
  471SOL     OW 1881   1.151   2.695   1.454  0.6835 -0.0309  0.3713
  471SOL    HW1 1882   1.089   2.711   1.520 -0.6452 -1.2591  0.9539
  471SOL    HW2 1883   1.113   2.744   1.377 -1.2688  2.0013 -0.2799
  471SOL     MW 1884   1.138   2.703   1.452  0.2506  0.0752  0.3622
  472SOL     OW 1885   2.885   2.123   0.381 -0.2982 -0.0045 -0.6943
  472SOL    HW1 1886   2.871   2.103   0.290  2.1148  1.3757  1.2560
  472SOL    HW2 1887   2.860   2.045   0.432 -0.6375 -0.7539 -0.0595
  472SOL     MW 1888   2.880   2.110   0.376 -0.0246  0.0787 -0.3532
  473SOL     OW 1889   0.846   2.565   1.264 -0.4390  0.2274 -0.7002
  473SOL    HW1 1890   0.888   2.483   1.249 -1.4959  1.7446  1.2519
  473SOL    HW2 1891   0.832   2.557   1.361 -2.1085  0.5199 -0.2400
  473SOL     MW 1892   0.850   2.553   1.275 -0.7987  0.4662 -0.3819
  474SOL     OW 1893   0.878   2.116   1.793 -0.2802 -0.2119  0.0871
  474SOL    HW1 1894   0.961   2.156   1.817 -2.4684 -3.1207 -0.8204
  474SOL    HW2 1895   0.870   2.123   1.696  2.5676  0.7660 -0.2135
  474SOL     MW 1896   0.888   2.123   1.784 -0.1931 -0.4666 -0.0723
  475SOL     OW 1897   1.658   0.007   1.474 -0.0050  0.0825  0.9806
  475SOL    HW1 1898   1.585   0.048   1.435 -0.9721  0.8654  0.7257
  475SOL    HW2 1899   1.626  -0.074   1.516 -1.3682 -1.3548 -1.6256
  475SOL     MW 1900   1.644   0.002   1.474 -0.3124 -0.0039  0.6031
  476SOL     OW 1901   1.402   2.600   0.946  0.1737  0.2611  0.5107
  476SOL    HW1 1902   1.337   2.648   0.993  0.8009 -4.1138 -0.9024
  476SOL    HW2 1903   1.445   2.672   0.899 -1.9640 -0.1020  1.9264
  476SOL     MW 1904   1.399   2.616   0.946 -0.0256 -0.3640  0.5111
  477SOL     OW 1905   0.781   2.512   0.637 -0.1777 -0.8900 -0.0446
  477SOL    HW1 1906   0.833   2.573   0.583  0.0255  0.3559  4.2854
  477SOL    HW2 1907   0.767   2.438   0.575 -1.4606  0.1791  0.3297
  477SOL     MW 1908   0.786   2.511   0.622 -0.3202 -0.5845  0.5761
  478SOL     OW 1909   0.150   2.726   0.934  0.5539  0.1535 -0.1190
  478SOL    HW1 1910   0.222   2.788   0.920 -2.8734 -0.8988 -1.9501
  478SOL    HW2 1911   0.138   2.658   0.863  1.0986 -2.3306 -1.6348
  478SOL     MW 1912   0.158   2.725   0.923  0.1735 -0.3131 -0.5606
  479SOL     OW 1913   1.438   1.987   1.277  0.1148 -0.0921  0.1338
  479SOL    HW1 1914   1.416   2.036   1.359 -0.3645  2.1535 -0.2264
  479SOL    HW2 1915   1.509   1.927   1.314  0.7819 -0.6148 -3.1026
  479SOL     MW 1916   1.444   1.986   1.293  0.1396  0.1352 -0.3407
  480SOL     OW 1917   1.883   2.370   1.329  0.0800  0.4579 -0.2181
  480SOL    HW1 1918   1.870   2.278   1.346  2.5350  0.0771 -3.6265
  480SOL    HW2 1919   1.926   2.380   1.242  0.4777  2.4928 -0.4181
  480SOL     MW 1920   1.887   2.359   1.320  0.4564  0.6762 -0.6942
  481SOL     OW 1921   0.993   0.043   1.038 -0.5721  0.6789 -0.9243
  481SOL    HW1 1922   1.040  -0.015   0.982  1.3712  0.2629 -0.2047
  481SOL    HW2 1923   1.043   0.122   1.054  0.2317  1.9960  0.6164
  481SOL     MW 1924   1.005   0.046   1.033 -0.2096  0.7978 -0.6261
  482SOL     OW 1925   1.020   3.014   0.293  0.3609 -0.0437 -0.6274
  482SOL    HW1 1926   0.934   2.972   0.301  2.1130 -0.8617 -2.2017
  482SOL    HW2 1927   1.003   3.102   0.264  1.8421  0.8372  1.6481
  482SOL     MW 1928   1.006   3.020   0.290  0.7875 -0.0354 -0.5349
  483SOL     OW 1929   0.416   2.911   0.462  0.1429 -0.0789  0.7037
  483SOL    HW1 1930   0.335   2.923   0.416  0.4112  0.8290  0.0065
  483SOL    HW2 1931   0.407   2.964   0.540 -1.7737  0.4976 -0.4321
  483SOL     MW 1932   0.404   2.919   0.466 -0.0746  0.1170  0.4618
  484SOL     OW 1933   1.670   1.875   1.373 -0.0819 -0.0624 -0.0663
  484SOL    HW1 1934   1.722   1.953   1.348 -1.7136  0.9494  0.6295
  484SOL    HW2 1935   1.668   1.869   1.471  2.4795 -3.1770 -0.1004
  484SOL     MW 1936   1.677   1.885   1.383  0.0407 -0.3398  0.0210
  485SOL     OW 1937   0.546   2.414   0.223  0.2123 -0.6164 -0.2286
  485SOL    HW1 1938   0.558   2.387   0.320 -0.1194 -2.7212  2.3668
  485SOL    HW2 1939   0.460   2.454   0.205  2.1249 -0.4091 -0.4576
  485SOL     MW 1940   0.536   2.416   0.234  0.4209 -0.8668  0.0836
  486SOL     OW 1941   0.126   2.382   1.490  0.4505  0.7455  0.2730
  486SOL    HW1 1942   0.149   2.472   1.466 -0.0278 -1.2507  1.6206
  486SOL    HW2 1943   0.109   2.394   1.584 -0.8789 -0.7969  2.0876
  486SOL     MW 1944   0.127   2.395   1.500  0.2120  0.2786  0.6902
  487SOL     OW 1945   1.276   1.640   1.034  0.1420 -0.1486  0.6746
  487SOL    HW1 1946   1.259   1.735   1.040 -1.1072 -1.0538 -3.0551
  487SOL    HW2 1947   1.345   1.637   0.976 -1.4041  3.5375 -1.6719
  487SOL     MW 1948   1.283   1.652   1.027 -0.2268  0.2183 -0.1271
  488SOL     OW 1949   1.664   1.871   0.551 -0.1720  0.1567 -0.3087
  488SOL    HW1 1950   1.747   1.872   0.496 -2.4548 -2.5329 -2.5320
  488SOL    HW2 1951   1.616   1.944   0.515 -0.4976 -0.5059 -1.0647
  488SOL     MW 1952   1.669   1.881   0.539 -0.5161 -0.2856 -0.7018
  489SOL     OW 1953   0.654   0.765   0.571 -0.5741  0.0235  0.8915
  489SOL    HW1 1954   0.723   0.706   0.548 -1.7665  2.0719  0.7245
  489SOL    HW2 1955   0.658   0.760   0.663  2.2068  0.4527  1.2057
  489SOL     MW 1956   0.664   0.757   0.580 -0.3645  0.3504  0.9110
  490SOL     OW 1957   1.461   2.018   0.421  0.6043 -0.1641 -0.1092
  490SOL    HW1 1958   1.502   2.019   0.329  0.5362  2.8746 -0.4508
  490SOL    HW2 1959   1.404   2.099   0.419 -1.5791  0.1650  1.9056
  490SOL     MW 1960   1.458   2.029   0.409  0.3072  0.2802  0.1116
  491SOL     OW 1961   1.203   2.932   0.472  0.1159  0.2047  0.1075
  491SOL    HW1 1962   1.236   3.009   0.520  2.2901 -0.3111 -2.5827
  491SOL    HW2 1963   1.135   2.967   0.415  1.1239  1.7580  1.3564
  491SOL     MW 1964   1.198   2.947   0.471  0.5358  0.3416 -0.0827
  492SOL     OW 1965   1.509   2.077   0.714  0.4879  0.6390  0.5664
  492SOL    HW1 1966   1.460   2.044   0.636  2.1708 -1.4674 -1.4097
  492SOL    HW2 1967   1.456   2.055   0.792 -2.3246  1.5560  2.1113
  492SOL     MW 1968   1.495   2.070   0.714  0.3389  0.4821  0.5095
  493SOL     OW 1969   0.186   2.974   0.325  0.5686  0.3921 -0.3972
  493SOL    HW1 1970   0.132   3.030   0.386  0.3172  2.2077 -0.8788
  493SOL    HW2 1971   0.215   3.019   0.241  0.6628 -0.0087 -2.0999
  493SOL     MW 1972   0.182   2.987   0.322  0.5478  0.5787 -0.6854
  494SOL     OW 1973   0.434   2.468   1.787  0.3632  0.2053  0.5645
  494SOL    HW1 1974   0.419   2.374   1.805  2.3411  0.2322  1.2362
  494SOL    HW2 1975   0.467   2.473   1.700 -1.4949  1.8463 -0.8097
  494SOL     MW 1976   0.437   2.456   1.778  0.3790  0.4254  0.4718
  495SOL     OW 1977   2.930   1.689   2.608 -0.3836 -0.0703 -0.1775
  495SOL    HW1 1978   2.903   1.778   2.611 -0.1986  0.0992 -1.4863
  495SOL    HW2 1979   2.897   1.660   2.692 -1.1095 -0.7563 -3.1948
  495SOL     MW 1980   2.922   1.697   2.619 -0.4549 -0.1384 -0.7483
  496SOL     OW 1981   2.881   2.326   2.683  0.0542  0.0194  0.2300
  496SOL    HW1 1982   2.913   2.244   2.716  1.7314 -2.2033  0.2595
  496SOL    HW2 1983   2.970   2.378   2.689  0.7193  0.6892  0.2994
  496SOL     MW 1984   2.897   2.322   2.688  0.3633 -0.1855  0.2431
  497SOL     OW 1985   1.591   2.260   2.645 -0.1770 -0.3713 -0.1342
  497SOL    HW1 1986   1.530   2.216   2.587 -1.4944 -0.7431  0.5459
  497SOL    HW2 1987   1.561   2.229   2.730  0.4859  0.1276 -0.1344
  497SOL     MW 1988   1.579   2.250   2.649 -0.2634 -0.3545 -0.0445
  498SOL     OW 1989   1.518   2.736   2.381 -0.1104  0.1325  0.1960
  498SOL    HW1 1990   1.551   2.660   2.324  2.0362 -0.1997 -2.2217
  498SOL    HW2 1991   1.583   2.729   2.446 -1.1491  0.9267  1.3980
  498SOL     MW 1992   1.531   2.725   2.382  0.0358  0.1935  0.0356
  499SOL     OW 1993   0.922   0.082   0.033  0.6537  0.0657 -0.4848
  499SOL    HW1 1994   0.853   0.121   0.084  0.8570 -1.1259 -3.8729
  499SOL    HW2 1995   0.899  -0.017   0.034 -0.6071  0.0792  0.6081
  499SOL     MW 1996   0.910   0.074   0.040  0.5142 -0.0898 -0.7876
  500SOL     OW 1997   1.130   2.515   2.761  0.5284  0.2571  0.1560
  500SOL    HW1 1998   1.149   2.480   2.853 -0.4022  1.7245  1.6220
  500SOL    HW2 1999   1.051   2.570   2.775  0.5245  2.8365 -0.8315
  500SOL     MW 2000   1.122   2.518   2.775  0.4051  0.7911  0.2191
  501SOL     OW 2001   1.755   2.237   3.067  0.8154 -0.0790 -0.0177
  501SOL    HW1 2002   1.757   2.306   3.124 -0.7121 -1.0014  0.4222
  501SOL    HW2 2003   1.851   2.235   3.044  0.8247 -2.4409 -2.2178
  501SOL     MW 2004   1.768   2.246   3.072  0.6151 -0.5124 -0.2500
  502SOL     OW 2005   0.065   2.812   2.951  0.2334  0.2891 -0.0081
  502SOL    HW1 2006  -0.001   2.745   2.926  4.2772  0.6465  1.4310
  502SOL    HW2 2007   0.095   2.849   2.866  1.4085 -4.5049  1.2293
  502SOL     MW 2008   0.060   2.808   2.937  0.9220 -0.2963  0.3451
  503SOL     OW 2009   1.097   2.672   2.045 -0.0709  0.1414  0.7434
  503SOL    HW1 2010   1.176   2.697   2.002 -1.9735 -0.1213  1.8826
  503SOL    HW2 2011   1.043   2.658   1.970  1.6248  1.0742  2.8532
  503SOL     MW 2012   1.100   2.673   2.029 -0.0982  0.2298  1.1721
  504SOL     OW 2013   3.100   2.698   2.079 -0.3733 -0.0035 -0.2106
  504SOL    HW1 2014   3.163   2.626   2.079  1.8328  2.3488  1.0400
  504SOL    HW2 2015   3.016   2.650   2.086 -2.6912  0.2126 -0.1305
  504SOL     MW 2016   3.097   2.682   2.080 -0.3881  0.3353 -0.0350
  505SOL     OW 2017   1.668   2.623   2.824  0.8040 -0.2555  0.8636
  505SOL    HW1 2018   1.720   2.610   2.747 -0.1170 -0.8771  2.5027
  505SOL    HW2 2019   1.608   2.693   2.801  1.3556 -0.6209  0.3831
  505SOL     MW 2020   1.667   2.631   2.811  0.7553 -0.3857  1.0165
  506SOL     OW 2021   1.596   3.088   2.859 -0.1215  0.2693  0.0760
  506SOL    HW1 2022   1.643   3.037   2.927 -0.7768 -2.7716 -2.4555
  506SOL    HW2 2023   1.657   3.087   2.782 -3.8422  1.2921  0.4004
  506SOL     MW 2024   1.610   3.081   2.858 -0.6988  0.0030 -0.2152
  507SOL     OW 2025   0.907   2.660   2.849 -0.6060  0.0312 -0.1991
  507SOL    HW1 2026   0.924   2.720   2.777 -0.0919 -2.3486 -1.4339
  507SOL    HW2 2027   0.818   2.687   2.868 -0.4078 -0.8528  0.7238
  507SOL     MW 2028   0.897   2.671   2.842 -0.5120 -0.3994 -0.2402
  508SOL     OW 2029   1.169   2.112   2.503 -0.2696 -0.4910 -0.1589
  508SOL    HW1 2030   1.213   2.089   2.584 -0.7873 -0.0481 -2.0437
  508SOL    HW2 2031   1.111   2.184   2.540 -3.0180  2.3160  2.4213
  508SOL     MW 2032   1.167   2.119   2.518 -0.7005 -0.0622 -0.0671
  509SOL     OW 2033   0.616   2.607   2.752  0.2983  0.0364 -0.4220
  509SOL    HW1 2034   0.634   2.548   2.676 -0.5035  0.7362 -0.9712
  509SOL    HW2 2035   0.537   2.580   2.797 -1.7244  1.1683 -0.6010
  509SOL     MW 2036   0.608   2.596   2.748 -0.0744  0.2781 -0.5181
  510SOL     OW 2037   1.492   2.602   1.679  0.1796  0.1930 -0.0615
  510SOL    HW1 2038   1.546   2.669   1.657 -1.9604 -1.2432 -1.1381
  510SOL    HW2 2039   1.448   2.626   1.764 -0.5796  1.4470  0.3966
  510SOL     MW 2040   1.493   2.614   1.687 -0.2029  0.1690 -0.1431
  511SOL     OW 2041   0.430   2.626   2.435 -0.2384 -0.1803  0.3243
  511SOL    HW1 2042   0.512   2.562   2.457  0.1895  1.0489  1.1509
  511SOL    HW2 2043   0.454   2.680   2.358 -0.6777 -3.2596 -0.2469
  511SOL     MW 2044   0.444   2.624   2.427 -0.2399 -0.4244  0.3580
  512SOL     OW 2045   0.979   2.036   2.812  0.1950  0.5073 -0.0912
  512SOL    HW1 2046   0.904   2.079   2.868  1.2601  4.0956  0.8427
  512SOL    HW2 2047   1.006   1.948   2.845 -1.7508  1.7700 -0.0891
  512SOL     MW 2048   0.973   2.030   2.824  0.0788  1.1474  0.0323
  513SOL     OW 2049   1.603   2.488   2.266 -0.5025 -0.3105 -0.1146
  513SOL    HW1 2050   1.633   2.512   2.180 -3.6826 -0.7712 -0.2870
  513SOL    HW2 2051   1.680   2.460   2.314 -0.7743  0.2881 -0.2471
  513SOL     MW 2052   1.617   2.487   2.261 -0.9580 -0.2923 -0.1548
  514SOL     OW 2053   0.228   2.504   2.631  0.2747  0.4179 -0.2152
  514SOL    HW1 2054   0.255   2.577   2.569 -1.1233  0.4509  1.8028
  514SOL    HW2 2055   0.298   2.498   2.696 -0.6433 -2.0373  3.4714
  514SOL     MW 2056   0.241   2.513   2.631 -0.0309  0.0983  0.5375
  515SOL     OW 2057   1.153   2.008   2.045 -0.4208  0.0243  0.4619
  515SOL    HW1 2058   1.121   2.085   1.998 -0.9924  2.9050 -0.1047
  515SOL    HW2 2059   1.247   2.020   2.060 -1.2768  1.1305  0.1580
  515SOL     MW 2060   1.162   2.020   2.041 -0.6092  0.5503  0.3470
  516SOL     OW 2061   1.472   2.486   0.012  0.2944  0.4521 -0.3444
  516SOL    HW1 2062   1.488   2.446  -0.076  1.6763  2.8647  0.8283
  516SOL    HW2 2063   1.411   2.555  -0.006  0.9657  1.5798  0.9421
  516SOL     MW 2064   1.466   2.490  -0.002  0.5653  0.9192 -0.0199
  517SOL     OW 2065   0.559   2.429   2.159 -0.3739 -0.3531 -1.0689
  517SOL    HW1 2066   0.504   2.489   2.110  1.5820  2.3565 -1.0092
  517SOL    HW2 2067   0.504   2.342   2.141 -1.3741 -2.4738 -2.1421
  517SOL     MW 2068   0.544   2.425   2.150 -0.2478 -0.2754 -1.2026
  518SOL     OW 2069   1.775   0.197   3.075 -0.7884 -0.1466 -0.1314
  518SOL    HW1 2070   1.749   0.234   3.159 -1.1608  1.9435  2.1468
  518SOL    HW2 2071   1.751   0.100   3.081 -3.7788 -0.6661 -1.6357
  518SOL     MW 2072   1.768   0.189   3.087 -1.2321  0.0607 -0.0293
  519SOL     OW 2073   0.717   2.397   1.766  0.2736 -0.4164  0.5236
  519SOL    HW1 2074   0.751   2.307   1.763 -0.8625  0.3324 -1.0476
  519SOL    HW2 2075   0.622   2.391   1.758 -1.9530 -1.8184  0.2264
  519SOL     MW 2076   0.709   2.384   1.764 -0.1701 -0.5026  0.2770
  520SOL     OW 2077   1.164   2.122   2.984  0.1347 -0.0957 -0.5247
  520SOL    HW1 2078   1.102   2.082   2.920 -1.9569 -0.1037  0.4560
  520SOL    HW2 2079   1.196   2.053   3.049  2.9607  1.7584  0.2400
  520SOL     MW 2080   1.160   2.108   2.984  0.2316  0.1479 -0.2944
  521SOL     OW 2081   1.723   2.020   2.159  0.2005  0.4173  0.0506
  521SOL    HW1 2082   1.804   2.024   2.104 -0.5525  2.1015 -2.2900
  521SOL    HW2 2083   1.667   1.952   2.121 -1.6712  1.2864  1.3996
  521SOL     MW 2084   1.726   2.012   2.147 -0.1458  0.7542 -0.0802
  522SOL     OW 2085   2.882   2.522   2.236 -0.8833  0.4158 -0.5063
  522SOL    HW1 2086   2.956   2.465   2.253  0.5721 -1.2932  0.3699
  522SOL    HW2 2087   2.902   2.600   2.280  1.0500 -2.6060 -2.8573
  522SOL     MW 2088   2.894   2.525   2.244 -0.4362 -0.2084 -0.7009
  523SOL     OW 2089   0.947   1.583   2.170  0.4071 -0.4500  0.3429
  523SOL    HW1 2090   0.920   1.619   2.084 -0.1520  1.8987  0.3060
  523SOL    HW2 2091   1.003   1.511   2.155  0.6468  0.4313  1.2400
  523SOL     MW 2092   0.951   1.579   2.157  0.3650 -0.0238  0.4564
  524SOL     OW 2093   0.688   2.431   2.952  0.9077 -0.1483 -0.1264
  524SOL    HW1 2094   0.685   2.485   2.873 -2.0649 -1.9744  3.7758
  524SOL    HW2 2095   0.725   2.340   2.930 -0.3191  1.8935 -0.5946
  524SOL     MW 2096   0.693   2.426   2.939  0.3536 -0.1199  0.3267
  525SOL     OW 2097   0.377   2.264   2.062 -0.3429  0.9114  0.5446
  525SOL    HW1 2098   0.352   2.203   2.138 -0.5692 -2.6741  2.8232
  525SOL    HW2 2099   0.355   2.215   1.975 -1.0810 -0.5029  0.1443
  525SOL     MW 2100   0.371   2.249   2.060 -0.4702  0.2517  0.7924
  526SOL     OW 2101   0.692   1.998   1.959 -0.3996  0.6889 -0.4742
  526SOL    HW1 2102   0.763   2.033   1.909 -0.2143  2.6487 -0.3890
  526SOL    HW2 2103   0.668   2.077   2.010 -0.0844 -1.2989  1.5258
  526SOL     MW 2104   0.698   2.013   1.959 -0.3336  0.6852 -0.1991
  527SOL     OW 2105   1.440   2.016   2.075  0.2660 -0.2079  0.1768
  527SOL    HW1 2106   1.430   2.010   2.168  1.5582  2.5393 -0.2129
  527SOL    HW2 2107   1.430   1.922   2.055 -0.2586 -0.5708  2.3947
  527SOL     MW 2108   1.437   2.003   2.085  0.3672  0.1067  0.4180
  528SOL     OW 2109   0.715   2.867   2.855 -0.3727  0.4311 -0.3871
  528SOL    HW1 2110   0.694   2.952   2.896  0.5870 -0.6701  1.2967
  528SOL    HW2 2111   0.650   2.855   2.784 -2.0656  2.2388  1.1734
  528SOL     MW 2112   0.704   2.877   2.851 -0.4694  0.5243  0.0409
  529SOL     OW 2113   1.093   2.248   1.887  0.4013  0.1347 -0.8145
  529SOL    HW1 2114   1.054   2.307   1.954  0.5101  0.0758 -0.6302
  529SOL    HW2 2115   1.098   2.308   1.813 -0.6031  0.2466  4.4757
  529SOL     MW 2116   1.088   2.264   1.886  0.2831  0.1417 -0.0922
  530SOL     OW 2117   1.147   2.395   2.980  0.0823 -0.1586  0.2198
  530SOL    HW1 2118   1.054   2.389   2.984  1.3890  0.2559 -0.2924
  530SOL    HW2 2119   1.169   2.302   2.976 -1.2016 -0.8685 -1.8012
  530SOL     MW 2120   1.138   2.382   2.980  0.0853 -0.1976 -0.1144
  531SOL     OW 2121   0.900   1.872   2.579 -0.3936 -0.1208 -0.1281
  531SOL    HW1 2122   0.907   1.935   2.657 -0.7312 -0.3858  1.6297
  531SOL    HW2 2123   0.876   1.790   2.620 -1.7840  0.5169 -1.0605
  531SOL     MW 2124   0.898   1.869   2.594 -0.6216 -0.0716 -0.0192
  532SOL     OW 2125   1.754   0.324   2.836  0.1110 -0.1208  0.5715
  532SOL    HW1 2126   1.743   0.279   2.923  0.9573 -1.6154 -0.7432
  532SOL    HW2 2127   1.837   0.367   2.842 -1.4776 -3.0228 -1.1768
  532SOL     MW 2128   1.763   0.324   2.848  0.0131 -0.7009  0.1674
  533SOL     OW 2129   1.915   2.650   3.006  0.1785 -0.1460 -0.0077
  533SOL    HW1 2130   1.889   2.589   3.073  0.8551 -1.1619  0.1949
  533SOL    HW2 2131   1.846   2.663   2.950  3.1305 -2.3639  1.1550
  533SOL     MW 2132   1.903   2.644   3.007  0.6573 -0.5727  0.1724
  534SOL     OW 2133   1.770   2.406   2.477 -0.2279  0.4466  0.3992
  534SOL    HW1 2134   1.710   2.342   2.522  0.0630 -0.7685  0.6715
  534SOL    HW2 2135   1.849   2.419   2.530 -1.3101 -2.5335 -1.2670
  534SOL     MW 2136   1.773   2.399   2.490 -0.3323 -0.1069  0.2153
  535SOL     OW 2137   1.897   2.362   1.839  0.4394 -0.0135  0.1844
  535SOL    HW1 2138   1.837   2.387   1.767  3.1222  0.6571 -0.9626
  535SOL    HW2 2139   1.984   2.396   1.817  0.0932 -2.2774  0.2120
  535SOL     MW 2140   1.901   2.370   1.826  0.7477 -0.2237  0.0367
  536SOL     OW 2141   0.439   1.846   2.050  0.0367 -0.0109 -0.2269
  536SOL    HW1 2142   0.415   1.773   1.992  0.1854  2.2361  0.0063
  536SOL    HW2 2143   0.517   1.892   2.023 -2.0082 -1.1694  2.1263
  536SOL     MW 2144   0.446   1.843   2.039 -0.2135  0.1327  0.1143
  537SOL     OW 2145   1.025   0.194   2.853  0.2011  0.0798  0.2782
  537SOL    HW1 2146   0.994   0.222   2.935  1.5289  3.6188 -0.9671
  537SOL    HW2 2147   1.062   0.274   2.809  2.0162  0.3437 -3.8184
  537SOL     MW 2148   1.026   0.208   2.858  0.6158  0.5815 -0.4266
  538SOL     OW 2149   1.362   0.047   2.994  0.2364  0.6885  0.1218
  538SOL    HW1 2150   1.329   0.136   2.989  1.2638 -0.2593  1.7867
  538SOL    HW2 2151   1.437   0.043   2.931  0.1813 -0.1532  1.0327
  538SOL     MW 2152   1.368   0.058   2.985  0.3647  0.4524  0.4616
  539SOL     OW 2153   0.745   2.770   2.518 -0.0864  0.4758 -0.3365
  539SOL    HW1 2154   0.828   2.793   2.566 -0.5320 -0.2795 -2.4775
  539SOL    HW2 2155   0.728   2.675   2.542 -0.1592 -1.0461 -3.2739
  539SOL     MW 2156   0.754   2.761   2.528 -0.1548  0.1754 -1.0066
  540SOL     OW 2157   0.414   2.418   2.845  0.2309  0.3267  0.5310
  540SOL    HW1 2158   0.493   2.403   2.896  1.2769  0.5484 -1.4573
  540SOL    HW2 2159   0.340   2.388   2.898 -0.6818 -0.4473 -1.2974
  540SOL     MW 2160   0.415   2.412   2.859  0.2485  0.2539  0.0274
  541SOL     OW 2161   0.192   2.936   2.207 -0.2909 -0.6743 -0.7526
  541SOL    HW1 2162   0.197   2.851   2.163 -1.4148  0.6021 -0.0396
  541SOL    HW2 2163   0.229   2.916   2.291  0.0035 -0.2217  1.7856
  541SOL     MW 2164   0.198   2.922   2.212 -0.4003 -0.4462 -0.3237
  542SOL     OW 2165   1.011   2.283   2.650  0.2402 -0.2712  0.7347
  542SOL    HW1 2166   1.013   2.228   2.733 -0.7347 -1.6047 -0.2540
  542SOL    HW2 2167   1.020   2.372   2.677 -1.1479  1.1646 -1.1459
  542SOL     MW 2168   1.012   2.287   2.665 -0.0716 -0.2577  0.3561
  543SOL     OW 2169   1.467   2.439   2.846  0.2851 -0.1267  0.4882
  543SOL    HW1 2170   1.459   2.409   2.758 -0.2404 -1.9464  0.1982
  543SOL    HW2 2171   1.550   2.498   2.845  1.5420  0.6239  1.9588
  543SOL     MW 2172   1.477   2.443   2.834  0.3816 -0.2678  0.6439
  544SOL     OW 2173   0.719   0.214   2.761  0.3726 -0.3677  0.4837
  544SOL    HW1 2174   0.628   0.230   2.740 -2.3315 -1.0639 -2.4954
  544SOL    HW2 2175   0.740   0.151   2.693  1.8639 -0.2761 -0.4154
  544SOL     MW 2176   0.710   0.208   2.749  0.2126 -0.4475 -0.0280
  545SOL     OW 2177   1.586   2.196   2.315  0.2516 -0.1495  0.1586
  545SOL    HW1 2178   1.615   2.281   2.282  0.2542 -0.4188 -2.4748
  545SOL    HW2 2179   1.618   2.138   2.248 -1.7159  1.2162 -0.3774
  545SOL     MW 2180   1.594   2.200   2.302 -0.0077 -0.0049 -0.2596
  546SOL     OW 2181   3.022   1.989   0.115  0.2281  0.2374  0.1571
  546SOL    HW1 2182   3.005   2.062   0.056  0.0599  1.5570 -1.2614
  546SOL    HW2 2183   3.114   1.962   0.101  1.7650 -2.3927 -2.1675
  546SOL     MW 2184   3.032   1.995   0.106  0.4087  0.0645 -0.3368
  547SOL     OW 2185   0.268   3.053   0.081 -0.6008  0.0659 -0.8636
  547SOL    HW1 2186   0.325   3.100   0.020 -1.4395 -1.2918  4.0048
  547SOL    HW2 2187   0.245   2.977   0.037 -2.8965  0.3330  0.8052
  547SOL     MW 2188   0.272   3.049   0.067 -1.0144 -0.0780 -0.0010
  548SOL     OW 2189   0.294   2.515   0.201  0.1939 -0.1105 -0.2087
  548SOL    HW1 2190   0.290   2.573   0.118 -0.7934  0.1786  1.0228
  548SOL    HW2 2191   0.238   2.437   0.183  0.3075 -1.6319 -1.2398
  548SOL     MW 2192   0.286   2.512   0.188  0.0786 -0.2731 -0.1822
  549SOL     OW 2193   0.860   1.887   2.149 -0.0640  0.2403  0.3798
  549SOL    HW1 2194   0.800   1.941   2.099  3.2445 -2.2789 -0.9969
  549SOL    HW2 2195   0.812   1.892   2.237  0.9771  0.1250  1.4061
  549SOL     MW 2196   0.846   1.895   2.154  0.5099 -0.1073  0.3335
  550SOL     OW 2197   1.782   1.743   2.607 -0.1294  0.1499  0.0244
  550SOL    HW1 2198   1.771   1.731   2.508 -0.3490 -0.7887 -1.2701
  550SOL    HW2 2199   1.746   1.830   2.617 -0.3069 -0.2107  2.7035
  550SOL     MW 2200   1.776   1.753   2.595 -0.1818 -0.0215  0.2071
  551SOL     OW 2201   0.844   2.263   0.217 -0.5200  0.2201 -0.4267
  551SOL    HW1 2202   0.939   2.250   0.208 -0.1166  0.9131 -1.7264
  551SOL    HW2 2203   0.812   2.192   0.163  1.3967  0.4016  0.5254
  551SOL     MW 2204   0.852   2.252   0.209 -0.2139  0.3355 -0.4725
  552SOL     OW 2205   1.773   1.688   2.349 -0.6356  0.0121 -0.1987
  552SOL    HW1 2206   1.682   1.722   2.335  0.5052 -1.6022 -1.1667
  552SOL    HW2 2207   1.818   1.622   2.283  1.2004 -3.1390 -1.0610
  552SOL     MW 2208   1.767   1.684   2.339 -0.2428 -0.6166 -0.4402
  553SOL     OW 2209   1.251   2.321   1.482  0.3916 -0.1338  0.0692
  553SOL    HW1 2210   1.291   2.233   1.481  2.0464  2.9935 -1.9156
  553SOL    HW2 2211   1.318   2.382   1.451  0.7436  0.9005  2.5095
  553SOL     MW 2212   1.265   2.318   1.478  0.6564  0.4153  0.1293
  554SOL     OW 2213   0.534   2.909   2.635 -0.2559  0.1427  0.0015
  554SOL    HW1 2214   0.526   3.004   2.599  0.8478  1.3316 -2.1209
  554SOL    HW2 2215   0.600   2.864   2.581  1.4353 -0.4997  1.6618
  554SOL     MW 2216   0.542   2.916   2.623  0.1129  0.2148 -0.0595
  555SOL     OW 2217   0.696   2.500   2.521 -0.0559 -0.0071 -0.0438
  555SOL    HW1 2218   0.634   2.422   2.533  2.3132 -0.5621 -0.5591
  555SOL    HW2 2219   0.773   2.449   2.475  1.7167 -2.1320 -0.9148
  555SOL     MW 2220   0.698   2.483   2.517  0.4905 -0.3607 -0.2267
  556SOL     OW 2221   0.960   1.873   0.138  0.3107  0.1014 -0.2001
  556SOL    HW1 2222   0.992   1.834   0.056  0.0707  2.0510 -0.5827
  556SOL    HW2 2223   1.029   1.884   0.206 -0.4521 -0.7975  3.2943
  556SOL     MW 2224   0.973   1.870   0.136  0.1784  0.2400  0.2105
  557SOL     OW 2225   0.951   2.687   0.513  0.0015  0.4177  0.0347
  557SOL    HW1 2226   1.004   2.640   0.448 -1.0099  1.9493  3.2629
  557SOL    HW2 2227   0.906   2.763   0.465 -0.1976  2.2356 -2.1205
  557SOL     MW 2228   0.952   2.691   0.498 -0.1582  0.8596  0.1763
  558SOL     OW 2229   0.233   2.327   3.019 -0.1979  0.4670 -0.3409
  558SOL    HW1 2230   0.197   2.254   2.970  0.2243  1.4711 -1.4987
  558SOL    HW2 2231   0.173   2.361   3.087 -1.6010 -0.5085  1.7414
  558SOL     MW 2232   0.220   2.322   3.021 -0.3273  0.4707 -0.2189
  559SOL     OW 2233   0.971   2.343   2.115 -0.4476  0.1582  0.0278
  559SOL    HW1 2234   1.035   2.390   2.170 -4.8078  2.0963  0.4096
  559SOL    HW2 2235   0.958   2.258   2.166  1.6701  0.9050 -3.3281
  559SOL     MW 2236   0.978   2.338   2.129 -0.7434  0.5124 -0.3646
  560SOL     OW 2237   1.991   2.875   0.027 -0.2424  0.3640  0.0736
  560SOL    HW1 2238   2.052   2.919  -0.036 -2.8834  0.1681 -0.4099
  560SOL    HW2 2239   1.959   2.794  -0.019 -0.8581 -2.4398  1.4588
  560SOL     MW 2240   1.995   2.870   0.013 -0.6721 -0.0318  0.1926
  561SOL     OW 2241   0.419   2.210   0.098  0.2798 -0.0530 -0.8802
  561SOL    HW1 2242   0.362   2.245   0.024 -0.8076 -1.6922 -2.0903
  561SOL    HW2 2243   0.487   2.275   0.133 -1.8695  1.9993  0.2311
  561SOL     MW 2244   0.420   2.223   0.093 -0.1472  0.0015 -0.8932
  562SOL     OW 2245   0.672   2.178   2.171 -0.4494  0.2997  0.3691
  562SOL    HW1 2246   0.671   2.272   2.164  1.6372 -0.4651 -0.1025
  562SOL    HW2 2247   0.762   2.164   2.210  2.6093 -0.1949  0.6472
  562SOL     MW 2248   0.684   2.188   2.175  0.2294  0.1335  0.3435
  563SOL     OW 2249   1.193   0.305   0.557  0.5526  0.1679  0.1762
  563SOL    HW1 2250   1.107   0.290   0.507  0.9803 -1.0413  2.1214
  563SOL    HW2 2251   1.210   0.231   0.613  1.2348 -1.2608 -1.1493
  563SOL     MW 2252   1.184   0.293   0.558  0.6990 -0.1802  0.2579
  564SOL     OW 2253   1.091   2.539   2.293  0.6303 -0.5108  0.2213
  564SOL    HW1 2254   1.100   2.582   2.210 -0.8100  0.3452  1.5910
  564SOL    HW2 2255   1.111   2.612   2.361 -0.3929 -0.3046  1.4370
  564SOL     MW 2256   1.095   2.554   2.291  0.3053 -0.3707  0.5624
  565SOL     OW 2257   2.840   2.724   2.655 -0.0062 -0.2344 -0.3083
  565SOL    HW1 2258   2.817   2.813   2.635  2.4269  1.0652  0.4944
  565SOL    HW2 2259   2.775   2.680   2.593 -1.5020  1.9458  0.2084
  565SOL     MW 2260   2.829   2.730   2.645  0.1174  0.2248 -0.1342
  566SOL     OW 2261   2.178   1.855   2.321 -0.6088 -0.3150  0.4885
  566SOL    HW1 2262   2.213   1.825   2.239 -0.8565  1.7932  0.2080
  566SOL    HW2 2263   2.212   1.942   2.341 -1.2781 -2.6368 -0.9741
  566SOL     MW 2264   2.187   1.862   2.313 -0.7298 -0.3432  0.2585
  567SOL     OW 2265   1.193   2.929   2.974  0.0047 -0.1005  0.1459
  567SOL    HW1 2266   1.264   2.981   3.015 -2.1262 -2.0866  1.1170
  567SOL    HW2 2267   1.252   2.854   2.958 -2.1537  2.9710  0.7616
  567SOL     MW 2268   1.210   2.926   2.977 -0.5612  0.0427  0.3552
  568SOL     OW 2269   1.567   2.100   2.888 -0.3824  0.0811  0.1075
  568SOL    HW1 2270   1.621   2.151   2.951  0.4353 -3.1924  0.3507
  568SOL    HW2 2271   1.646   2.069   2.830  1.2712 -2.2019 -2.6304
  568SOL     MW 2272   1.584   2.102   2.889 -0.0563 -0.6520 -0.2216
  569SOL     OW 2273   0.173   2.278   2.453  0.1807 -0.5440  0.0269
  569SOL    HW1 2274   0.093   2.300   2.410 -0.4037 -0.0056  1.3290
  569SOL    HW2 2275   0.179   2.353   2.514 -0.5954  0.6840 -2.1808
  569SOL     MW 2276   0.163   2.291   2.456  0.0012 -0.3110 -0.0926
  570SOL     OW 2277   1.455   0.384   0.473  0.2381  0.1422  0.3548
  570SOL    HW1 2278   1.361   0.351   0.485 -2.6198 -0.4421 -0.6831
  570SOL    HW2 2279   1.477   0.432   0.554  0.4995  0.9901 -0.0530
  570SOL     MW 2280   1.446   0.386   0.486 -0.1045  0.1770  0.1641
  571SOL     OW 2281   1.507   2.460   2.005 -0.0931 -0.0143  0.1147
  571SOL    HW1 2282   1.478   2.449   2.094 -2.6148 -0.5786 -0.6378
  571SOL    HW2 2283   1.530   2.372   1.969  1.0379 -2.6272  1.3404
  571SOL     MW 2284   1.506   2.447   2.012 -0.2766 -0.4335  0.1771
  572SOL     OW 2285   1.036   2.613   0.101  1.3351 -0.3407  0.1667
  572SOL    HW1 2286   1.055   2.672   0.029 -0.5909  0.8291  0.2945
  572SOL    HW2 2287   0.943   2.586   0.072 -1.7027  1.6468 -0.6171
  572SOL     MW 2288   1.026   2.617   0.087  0.6802  0.0759  0.0801
  573SOL     OW 2289   1.121   2.287   0.212 -0.6850 -0.5511 -0.3276
  573SOL    HW1 2290   1.191   2.309   0.146  0.5751 -1.2020 -1.9445
  573SOL    HW2 2291   1.110   2.368   0.271 -0.0693  0.8165  0.5389
  573SOL     MW 2292   1.129   2.301   0.211 -0.4375 -0.4565 -0.4266
  574SOL     OW 2293   1.126   2.533   0.346  0.1396 -0.2606  0.3934
  574SOL    HW1 2294   1.202   2.568   0.385 -0.4216 -2.9097  0.1179
  574SOL    HW2 2295   1.103   2.583   0.266  1.4455 -3.4255  0.6336
  574SOL     MW 2296   1.133   2.545   0.341  0.2378 -1.0277  0.3887
  575SOL     OW 2297   0.015   2.231   1.804 -0.8905 -0.2854 -0.1834
  575SOL    HW1 2298   0.040   2.157   1.745 -0.2015  0.1212  2.2480
  575SOL    HW2 2299   0.072   2.307   1.791 -1.5560 -1.9689  0.0041
  575SOL     MW 2300   0.025   2.231   1.794 -0.8874 -0.4539  0.1621
  576SOL     OW 2301   2.769   1.806   2.112 -0.2594 -0.9601 -0.1932
  576SOL    HW1 2302   2.775   1.873   2.046  0.9936 -2.0952 -2.3356
  576SOL    HW2 2303   2.693   1.755   2.087  0.7251 -0.9973  1.7761
  576SOL     MW 2304   2.760   1.808   2.100  0.0358 -1.1148 -0.2161
  577SOL     OW 2305   2.034   0.215   0.102  0.4905 -0.0217  0.1836
  577SOL    HW1 2306   1.959   0.235   0.040  0.5627  0.3605 -1.7764
  577SOL    HW2 2307   2.006   0.143   0.156 -0.0560  0.2162 -0.6797
  577SOL     MW 2308   2.021   0.208   0.101  0.4279  0.0601 -0.1889
  578SOL     OW 2309   1.942   2.000   2.362  0.2406  0.3321  0.1429
  578SOL    HW1 2310   1.852   1.965   2.338 -2.4810 -0.4222 -0.1624
  578SOL    HW2 2311   2.004   1.935   2.333  2.2584  3.1768  0.5592
  578SOL     MW 2312   1.938   1.987   2.355  0.1478  0.6079  0.1576
  579SOL     OW 2313   0.910   2.375   2.412  0.2082  0.1192 -0.3687
  579SOL    HW1 2314   0.950   2.324   2.486  0.0259  0.0864 -1.8280
  579SOL    HW2 2315   0.982   2.419   2.366  0.0253 -1.2811  1.0455
  579SOL     MW 2316   0.925   2.374   2.416  0.1600 -0.0699 -0.3746
  580SOL     OW 2317   0.922   2.910   3.025 -0.2645 -0.0550  0.2851
  580SOL    HW1 2318   1.018   2.917   3.018  0.2146 -1.8473  1.0013
  580SOL    HW2 2319   0.890   2.862   2.952 -0.5491  0.2824  2.6089
  580SOL     MW 2320   0.930   2.905   3.014 -0.2388 -0.2469  0.6862
  581SOL     OW 2321   1.127   2.445   1.708 -0.0028 -0.0089  0.3180
  581SOL    HW1 2322   1.207   2.463   1.745 -2.0605  0.4192  2.2126
  581SOL    HW2 2323   1.151   2.402   1.623 -0.4637 -1.2552 -2.6436
  581SOL     MW 2324   1.141   2.442   1.702 -0.3351 -0.1168  0.1772
  582SOL     OW 2325   0.040   2.805   2.603  0.4977 -0.8433  0.0642
  582SOL    HW1 2326  -0.022   2.873   2.623 -1.4566 -1.0201  1.7793
  582SOL    HW2 2327   0.117   2.837   2.558  0.5908  0.4910 -0.5792
  582SOL     MW 2328   0.042   2.818   2.600  0.2521 -0.6906  0.2056
  583SOL     OW 2329   1.984   2.405   2.638 -0.0032 -0.3165  0.4099
  583SOL    HW1 2330   2.058   2.446   2.587  1.1132  0.2566 -0.6053
  583SOL    HW2 2331   1.989   2.306   2.630 -1.5623  2.0824 -0.3623
  583SOL     MW 2332   1.994   2.397   2.630 -0.0616  0.0756  0.1741
  584SOL     OW 2333   0.160   1.861   2.221 -0.9447  0.2063 -0.0660
  584SOL    HW1 2334   0.239   1.880   2.174  0.8849  0.8800  0.2658
  584SOL    HW2 2335   0.155   1.945   2.268 -2.5499  1.0212 -1.1205
  584SOL     MW 2336   0.170   1.875   2.221 -0.9151  0.4027 -0.1613
  585SOL     OW 2337   1.550   2.678   0.230  0.6483 -0.0621 -0.1673
  585SOL    HW1 2338   1.517   2.622   0.155  0.3049  1.0561 -1.5432
  585SOL    HW2 2339   1.479   2.698   0.293 -1.0121  1.6027  2.4999
  585SOL     MW 2340   1.536   2.673   0.228  0.3839  0.3051  0.0031
  586SOL     OW 2341   1.336   2.855   2.534  0.3868  0.9270 -0.1485
  586SOL    HW1 2342   1.380   2.821   2.450  0.8386 -1.0053  1.1942
  586SOL    HW2 2343   1.349   2.946   2.541  0.8659 -1.8369  0.1343
  586SOL     MW 2344   1.343   2.862   2.524  0.5096  0.3074  0.0660
  587SOL     OW 2345   1.337   1.576   2.156  0.2221  0.4287 -0.5081
  587SOL    HW1 2346   1.324   1.499   2.216  1.2928 -0.1451 -0.1363
  587SOL    HW2 2347   1.347   1.537   2.065 -0.6783  1.1017 -1.3325
  587SOL     MW 2348   1.336   1.561   2.152  0.2446  0.4418 -0.5678
  588SOL     OW 2349   1.331   2.071   2.720 -0.5734  0.5295 -0.0844
  588SOL    HW1 2350   1.386   2.002   2.744 -1.3920  0.6158 -3.0571
  588SOL    HW2 2351   1.307   2.111   2.800  1.2067 -3.4632 -0.1234
  588SOL     MW 2352   1.335   2.067   2.734 -0.4466  0.0141 -0.4817
  589SOL     OW 2353   1.330   2.029   0.098  0.7918 -0.8508  0.5976
  589SOL    HW1 2354   1.343   2.126   0.122  1.8907  1.1612 -0.1787
  589SOL    HW2 2355   1.276   1.991   0.169 -0.6551 -1.0940  1.0361
  589SOL     MW 2356   1.325   2.037   0.111  0.7459 -0.6174  0.5530
  590SOL     OW 2357   0.482   2.769   2.204  0.7449 -0.0912 -0.0559
  590SOL    HW1 2358   0.467   2.717   2.128  2.3076  1.2275 -0.2033
  590SOL    HW2 2359   0.574   2.785   2.204 -0.1746 -0.2225 -1.1628
  590SOL     MW 2360   0.492   2.764   2.194  0.8297  0.0654 -0.2214
  591SOL     OW 2361   2.239   0.634   3.101  0.0456 -0.2878  0.1584
  591SOL    HW1 2362   2.164   0.688   3.083  3.4438 -0.5311  2.6258
  591SOL    HW2 2363   2.300   0.647   3.038  0.1329  0.3515 -0.0808
  591SOL     MW 2364   2.237   0.643   3.090  0.5055 -0.2355  0.4524
  592SOL     OW 2365   1.782   2.956   0.787 -0.4352 -0.0315 -0.3071
  592SOL    HW1 2366   1.766   3.023   0.718 -0.9173 -1.5943  1.6056
  592SOL    HW2 2367   1.851   2.903   0.741  0.3731 -0.5940  1.1755
  592SOL     MW 2368   1.789   2.958   0.772 -0.3922 -0.3119  0.1409
  593SOL     OW 2369   1.941   0.657   0.803  0.3983 -0.3017 -0.1829
  593SOL    HW1 2370   1.847   0.663   0.768 -1.3048 -1.0483  0.1163
  593SOL    HW2 2371   1.962   0.565   0.809 -0.8697 -0.2304  0.5993
  593SOL     MW 2372   1.931   0.646   0.799  0.0063 -0.3908 -0.0402
  594SOL     OW 2373   2.793   1.168   1.395  0.3146  0.4048  0.4564
  594SOL    HW1 2374   2.894   1.191   1.392  1.8504 -1.1176  0.6344
  594SOL    HW2 2375   2.784   1.110   1.319 -4.9584 -2.0241  1.4837
  594SOL     MW 2376   2.805   1.163   1.384 -0.1785 -0.1166  0.6154
  595SOL     OW 2377   0.443   1.014   0.791  0.1475 -0.3993 -0.0845
  595SOL    HW1 2378   0.452   1.067   0.713  3.2380 -2.8731  1.0040
  595SOL    HW2 2379   0.454   1.067   0.864  0.7285 -0.2915 -0.8536
  595SOL     MW 2380   0.446   1.028   0.790  0.6319 -0.7114 -0.0423
  596SOL     OW 2381   2.476   1.340   0.582  0.7474  0.0086  0.3292
  596SOL    HW1 2382   2.535   1.404   0.542 -0.8773 -0.7824 -1.0289
  596SOL    HW2 2383   2.492   1.337   0.676 -1.2447  1.1091 -1.2401
  596SOL     MW 2384   2.486   1.348   0.589  0.2702  0.0494 -0.0570
  597SOL     OW 2385   2.189   0.669   1.612  0.2139 -0.5465 -0.2819
  597SOL    HW1 2386   2.198   0.603   1.682  0.1202 -0.2018  1.5514
  597SOL    HW2 2387   2.121   0.635   1.555 -0.2227 -0.1851 -0.9895
  597SOL     MW 2388   2.181   0.656   1.614  0.1439 -0.4533 -0.1334
  598SOL     OW 2389   2.592   1.025   2.793 -0.3631  0.2879 -0.1978
  598SOL    HW1 2390   2.612   1.004   2.699 -2.5903 -1.4059 -1.3203
  598SOL    HW2 2391   2.672   1.081   2.822  0.4762  0.4241  0.0547
  598SOL     MW 2392   2.605   1.029   2.785 -0.5462  0.0824 -0.3126
  599SOL     OW 2393   2.959   0.389   2.068  0.3048 -0.4764 -0.6915
  599SOL    HW1 2394   3.016   0.423   2.139 -1.5344 -0.7450  1.9799
  599SOL    HW2 2395   2.963   0.464   2.005 -0.3489 -0.1916 -3.4891
  599SOL     MW 2396   2.967   0.403   2.069 -0.0241 -0.4743 -0.7082
  600SOL     OW 2397   1.863   1.597   0.844  0.1664  0.1497  0.9365
  600SOL    HW1 2398   1.896   1.641   0.926  1.8613  1.5933 -1.1346
  600SOL    HW2 2399   1.781   1.645   0.824 -1.6176 -0.2517 -0.8815
  600SOL     MW 2400   1.856   1.609   0.853  0.1546  0.2872  0.4233
  601SOL     OW 2401   2.511   0.749   0.828  0.4255 -0.0312  0.2906
  601SOL    HW1 2402   2.527   0.768   0.927  0.2972  0.4222  1.9355
  601SOL    HW2 2403   2.427   0.710   0.811 -2.1398 -1.4815  1.8857
  601SOL     MW 2404   2.502   0.746   0.839  0.0701 -0.1627  0.7181
  602SOL     OW 2405   2.309   1.947   0.780  0.0951 -0.0307 -0.1871
  602SOL    HW1 2406   2.287   1.871   0.727  0.3691  1.2755 -1.2587
  602SOL    HW2 2407   2.275   2.024   0.734  1.8118  1.1747  0.1814
  602SOL     MW 2408   2.301   1.947   0.767  0.3577  0.3007 -0.2799
  603SOL     OW 2409   0.034   1.353   1.830  0.0834 -0.0860 -0.0593
  603SOL    HW1 2410   0.072   1.423   1.887 -1.1794  0.0382 -0.4009
  603SOL    HW2 2411   0.011   1.278   1.884 -3.0534 -2.5556 -2.5033
  603SOL     MW 2412   0.036   1.352   1.845 -0.4971 -0.3954 -0.4268
  604SOL     OW 2413   2.144   1.539   0.490 -0.5461 -0.0667 -0.3377
  604SOL    HW1 2414   2.161   1.452   0.527 -1.4818  0.0487  0.0337
  604SOL    HW2 2415   2.068   1.582   0.521 -1.2340 -1.0011 -2.2333
  604SOL     MW 2416   2.136   1.533   0.499 -0.7603 -0.1748 -0.5388
  605SOL     OW 2417   2.552   1.481   0.855 -0.1260  0.0310 -0.7543
  605SOL    HW1 2418   2.597   1.541   0.801 -1.4088 -2.1181  1.2074
  605SOL    HW2 2419   2.591   1.400   0.834 -1.4456  2.6255 -0.1578
  605SOL     MW 2420   2.563   1.478   0.845 -0.4693  0.0898 -0.4167
  606SOL     OW 2421   2.560   1.646   2.017 -0.2664  0.5357  0.2612
  606SOL    HW1 2422   2.466   1.661   1.998 -0.3353  1.7415  0.9296
  606SOL    HW2 2423   2.604   1.622   1.934 -0.7260 -0.5387 -1.6443
  606SOL     MW 2424   2.554   1.645   2.004 -0.3362  0.5531  0.0980
  607SOL     OW 2425   2.425   1.106   2.998  0.0665 -0.1945  0.3197
  607SOL    HW1 2426   2.475   1.070   2.923 -2.3132 -0.9982 -1.5706
  607SOL    HW2 2427   2.457   1.059   3.077  0.5271  0.0319 -2.8796
  607SOL     MW 2428   2.435   1.095   2.999 -0.1867 -0.2707 -0.3519
  608SOL     OW 2429   1.851   0.278   0.579  0.0700  0.3429 -0.5080
  608SOL    HW1 2430   1.855   0.335   0.504  2.3730 -1.5130 -0.5358
  608SOL    HW2 2431   1.817   0.191   0.556 -2.3366 -0.6172  3.6665
  608SOL     MW 2432   1.847   0.274   0.566  0.0563 -0.0287  0.0391
  609SOL     OW 2433   2.050   1.956   3.003 -0.4335 -0.2479 -0.3698
  609SOL    HW1 2434   1.971   1.913   2.961  1.2920 -0.6363  0.4186
  609SOL    HW2 2435   2.071   1.920   3.092  1.5929 -0.8196 -0.2059
  609SOL     MW 2436   2.043   1.946   3.009  0.0615 -0.3746 -0.2442
  610SOL     OW 2437   1.749   0.995   1.258  0.2767  0.0626 -0.2081
  610SOL    HW1 2438   1.812   0.931   1.214 -0.6544 -3.7681 -2.8774
  610SOL    HW2 2439   1.657   0.972   1.238  1.2722 -0.4459  0.4351
  610SOL     MW 2440   1.745   0.983   1.249  0.2852 -0.5099 -0.4754
  611SOL     OW 2441   2.534   1.695   0.687 -0.4084 -0.1620 -0.0138
  611SOL    HW1 2442   2.546   1.776   0.740  1.8924  1.2493 -0.2234
  611SOL    HW2 2443   2.452   1.651   0.713  0.5048 -1.6610  2.0010
  611SOL     MW 2444   2.525   1.700   0.697  0.0156 -0.1736  0.2244
  612SOL     OW 2445   2.868   2.884   0.391  0.5174  0.3097 -0.2269
  612SOL    HW1 2446   2.886   2.919   0.481  0.3646  0.3729  0.6130
  612SOL    HW2 2447   2.958   2.857   0.364 -2.4833 -3.1126  0.6010
  612SOL     MW 2448   2.882   2.885   0.399  0.1013 -0.1335 -0.0068
  613SOL     OW 2449   1.465   1.023   0.892 -0.0228  0.1867  0.2843
  613SOL    HW1 2450   1.471   1.122   0.887 -1.2308  1.6124 -0.4173
  613SOL    HW2 2451   1.506   1.009   0.978 -1.4784 -1.3490 -1.6308
  613SOL     MW 2452   1.471   1.034   0.903 -0.3742  0.1722 -0.0609
  614SOL     OW 2453   1.998   0.577   1.459  0.4359 -0.0517  0.6729
  614SOL    HW1 2454   1.981   0.506   1.530 -2.3665 -4.2159  0.8509
  614SOL    HW2 2455   1.940   0.552   1.385  0.4618  0.8120 -0.1033
  614SOL     MW 2456   1.988   0.564   1.458  0.0696 -0.4871  0.5940
  615SOL     OW 2457   2.343   0.756   0.242 -0.6781 -0.0576  0.1707
  615SOL    HW1 2458   2.417   0.696   0.250 -1.3668  2.4841 -1.6748
  615SOL    HW2 2459   2.289   0.740   0.161  1.2852  2.2811 -0.8391
  615SOL     MW 2460   2.345   0.746   0.232 -0.5100  0.5863 -0.2060
  616SOL     OW 2461   2.505   0.411   1.652  0.1032  0.1747 -0.0159
  616SOL    HW1 2462   2.554   0.348   1.605 -1.6797 -3.4530 -0.6039
  616SOL    HW2 2463   2.488   0.488   1.594 -1.9296  0.4340 -1.9809
  616SOL     MW 2464   2.509   0.413   1.638 -0.4003 -0.2697 -0.3527
  617SOL     OW 2465   2.796   0.628   1.712 -0.1819  0.2837 -0.0312
  617SOL    HW1 2466   2.722   0.660   1.771 -2.0909  3.1598 -1.1709
  617SOL    HW2 2467   2.791   0.535   1.693  1.7160  0.5422  2.6466
  617SOL     MW 2468   2.785   0.620   1.717 -0.1833  0.6973  0.1717
  618SOL     OW 2469   2.734   0.355   1.916  0.6832 -0.3966  0.0597
  618SOL    HW1 2470   2.720   0.452   1.911 -2.6578  0.8552 -0.3311
  618SOL    HW2 2471   2.784   0.345   1.995 -0.1211  1.5643 -0.5074
  618SOL     MW 2472   2.739   0.366   1.926  0.1363  0.0273 -0.0667
  619SOL     OW 2473   2.674   0.710   0.065  0.7628  0.5589  0.0407
  619SOL    HW1 2474   2.699   0.799   0.094  1.5646  1.2570 -0.4043
  619SOL    HW2 2475   2.633   0.682   0.143 -0.0225  0.2699 -0.2636
  619SOL     MW 2476   2.672   0.718   0.079  0.7650  0.6129 -0.0582
  620SOL     OW 2477   2.210   1.056   0.932  0.0253 -0.2673 -0.4299
  620SOL    HW1 2478   2.281   1.032   0.874  1.6200 -1.1239 -1.0524
  620SOL    HW2 2479   2.141   0.996   0.901 -0.3823 -0.2907 -2.0487
  620SOL     MW 2480   2.210   1.045   0.920  0.1819 -0.3834 -0.7256
  621SOL     OW 2481   1.561   2.206   1.914 -0.1754  0.2745  0.0914
  621SOL    HW1 2482   1.507   2.149   1.969  5.8198  1.1320 -0.6113
  621SOL    HW2 2483   1.646   2.165   1.929 -0.4786 -1.1301 -0.0703
  621SOL     MW 2484   1.565   2.193   1.923  0.5756  0.2023 -0.0227
  622SOL     OW 2485   2.594   0.184   0.232 -0.7487 -0.1759  0.2202
  622SOL    HW1 2486   2.676   0.234   0.241 -2.2183  0.2502  1.4077
  622SOL    HW2 2487   2.617   0.096   0.273 -1.8904 -0.2666  2.2483
  622SOL     MW 2488   2.608   0.179   0.239 -1.0933 -0.1316  0.6444
  623SOL     OW 2489   2.404   2.777   0.831  0.6051 -0.0774  0.7378
  623SOL    HW1 2490   2.480   2.821   0.862 -0.8659 -0.2781  1.3595
  623SOL    HW2 2491   2.357   2.785   0.919 -1.1716  0.3055  1.8912
  623SOL     MW 2492   2.408   2.784   0.847  0.1766 -0.0533  0.9720
  624SOL     OW 2493   2.149   1.689   3.010 -0.0568 -0.1705  0.1114
  624SOL    HW1 2494   2.116   1.611   3.042  0.0794  1.1337  0.3592
  624SOL    HW2 2495   2.077   1.721   2.962  3.1176 -2.6692  2.7403
  624SOL     MW 2496   2.135   1.683   3.008  0.3800 -0.3281  0.4909
  625SOL     OW 2497   2.191   1.880   1.038 -0.3527 -0.8427  0.1404
  625SOL    HW1 2498   2.275   1.857   1.083  0.9381 -1.0722  0.7234
  625SOL    HW2 2499   2.216   1.900   0.945  1.4548  0.8092  1.5235
  625SOL     MW 2500   2.205   1.880   1.032  0.0561 -0.6550  0.3998
  626SOL     OW 2501   0.292   1.686   2.394 -0.5273  0.3021  1.0590
  626SOL    HW1 2502   0.230   1.640   2.444 -0.5430  1.9183 -1.0565
  626SOL    HW2 2503   0.236   1.740   2.339  0.9070  0.9098 -0.3159
  626SOL     MW 2504   0.277   1.687   2.393 -0.3401  0.5955  0.5985
  627SOL     OW 2505   2.451   0.697   2.548  0.5922  0.3635 -0.5648
  627SOL    HW1 2506   2.452   0.785   2.582 -2.3042 -0.1329  1.1246
  627SOL    HW2 2507   2.411   0.706   2.461 -3.5313 -0.4451  1.3262
  627SOL     MW 2508   2.446   0.710   2.541 -0.3340  0.1913 -0.0924
  628SOL     OW 2509   2.311   1.370   1.295 -0.8712  0.1082  0.1876
  628SOL    HW1 2510   2.269   1.292   1.250  0.6141  0.6897  2.5286
  628SOL    HW2 2511   2.392   1.385   1.250  0.0892 -2.2244 -1.3431
  628SOL     MW 2512   2.316   1.362   1.283 -0.5486 -0.1228  0.2945
  629SOL     OW 2513   1.852   0.538   1.239 -0.0156 -0.0072  0.0030
  629SOL    HW1 2514   1.863   0.615   1.188 -1.8088  1.4826  1.4046
  629SOL    HW2 2515   1.758   0.512   1.229 -0.6542 -0.9635 -2.6354
  629SOL     MW 2516   1.841   0.544   1.231 -0.3364  0.0632 -0.1602
  630SOL     OW 2517   2.357   1.863   3.079 -0.2086  0.3798 -0.2573
  630SOL    HW1 2518   2.369   1.895   2.987  0.8287  0.2260 -3.0623
  630SOL    HW2 2519   2.266   1.826   3.072 -0.8183  3.4592  1.0722
  630SOL     MW 2520   2.346   1.862   3.066 -0.1522  0.7658 -0.4519
  631SOL     OW 2521   2.062   1.786   1.543  0.2999 -0.8406  0.0108
  631SOL    HW1 2522   2.062   1.694   1.575  1.2725 -2.4680  3.4719
  631SOL    HW2 2523   2.006   1.786   1.464 -0.3502  0.7080 -2.5922
  631SOL     MW 2524   2.055   1.774   1.537  0.3425 -0.8510  0.1240
  632SOL     OW 2525   0.217   1.983   1.405  0.6773  0.0159  0.0357
  632SOL    HW1 2526   0.201   1.978   1.503 -2.1392  1.0292 -1.3058
  632SOL    HW2 2527   0.226   1.887   1.375 -2.7084 -0.7012  1.0007
  632SOL     MW 2528   0.216   1.970   1.414 -0.1410  0.0550 -0.0140
  633SOL     OW 2529   2.569   0.586   0.298  0.2344  0.5200  0.0410
  633SOL    HW1 2530   2.603   0.598   0.386 -0.8791 -0.2132 -1.7441
  633SOL    HW2 2531   2.524   0.505   0.299 -0.7409  0.3789 -4.3757
  633SOL     MW 2532   2.568   0.577   0.310 -0.0412  0.4046 -0.7773
  634SOL     OW 2533   2.669   0.021   0.652 -0.2306  0.0614  0.3308
  634SOL    HW1 2534   2.720   0.107   0.651 -1.5666  2.7539 -1.2594
  634SOL    HW2 2535   2.635   0.006   0.564  2.9160  0.7744 -0.0938
  634SOL     MW 2536   2.671   0.031   0.641  0.0083  0.5107  0.0650
  635SOL     OW 2537   2.570   0.124   1.852 -0.1668 -0.0686  0.3878
  635SOL    HW1 2538   2.637   0.069   1.801 -2.8207 -0.9687  1.5858
  635SOL    HW2 2539   2.612   0.212   1.874 -0.7502  0.8632  1.5162
  635SOL     MW 2540   2.585   0.129   1.848 -0.5940 -0.0644  0.6948
  636SOL     OW 2541   2.833   1.605   0.911  0.1387 -0.0240 -0.7576
  636SOL    HW1 2542   2.750   1.638   0.943 -0.3288 -0.6561  1.2655
  636SOL    HW2 2543   2.895   1.656   0.959  1.4951  2.2794 -3.3974
  636SOL     MW 2544   2.830   1.616   0.922  0.2560  0.1965 -0.8389
  637SOL     OW 2545   2.868   1.459   0.689 -0.3332  0.2220 -0.9481
  637SOL    HW1 2546   2.901   1.533   0.634  1.2815  1.9031  3.2848
  637SOL    HW2 2547   2.852   1.505   0.770  1.7138  0.8658 -0.0538
  637SOL     MW 2548   2.870   1.475   0.692  0.1499  0.5288 -0.2716
  638SOL     OW 2549   2.671   0.527   0.540 -0.3296 -0.0594 -0.4422
  638SOL    HW1 2550   2.763   0.522   0.513 -1.3519  1.8932  1.2918
  638SOL    HW2 2551   2.677   0.533   0.637  1.4221 -0.1934  0.5247
  638SOL     MW 2552   2.684   0.527   0.549 -0.2334  0.1805 -0.0859
  639SOL     OW 2553   1.719   0.035   0.581 -0.2925 -0.5634 -0.5699
  639SOL    HW1 2554   1.631   0.046   0.607 -2.1327 -0.8727  0.7061
  639SOL    HW2 2555   1.729  -0.044   0.521  1.2139  1.5078 -2.5603
  639SOL     MW 2556   1.709   0.026   0.576 -0.3366 -0.3309 -0.6641
  640SOL     OW 2557   0.275   1.306   0.140 -0.4537 -0.0803 -0.4212
  640SOL    HW1 2558   0.302   1.319   0.048 -0.5917  0.6365 -1.3321
  640SOL    HW2 2559   0.288   1.212   0.147 -1.0408  0.8340  0.8695
  640SOL     MW 2560   0.281   1.296   0.129 -0.5493  0.1349 -0.3711
  641SOL     OW 2561   2.220   0.405   0.431  0.9077  0.0680 -0.0649
  641SOL    HW1 2562   2.246   0.387   0.345 -1.8127  0.8535  1.9875
  641SOL    HW2 2563   2.298   0.386   0.484 -0.3890  0.5049 -2.4893
  641SOL     MW 2564   2.234   0.400   0.427  0.3777  0.2293 -0.1140
  642SOL     OW 2565   0.043   3.093   0.548 -0.7704  0.2620 -0.4554
  642SOL    HW1 2566   0.019   3.185   0.517  1.7607  0.4501  1.9335
  642SOL    HW2 2567  -0.041   3.052   0.580 -3.5039  0.0069  0.5117
  642SOL     MW 2568   0.029   3.100   0.548 -0.7971  0.2532 -0.0126
  643SOL     OW 2569   2.004   0.371   1.669  0.4305 -0.0417  0.2160
  643SOL    HW1 2570   1.935   0.353   1.740 -1.4625 -1.2426  1.1993
  643SOL    HW2 2571   2.047   0.288   1.644 -1.1822 -0.6630 -1.1010
  643SOL     MW 2572   2.001   0.358   1.675 -0.0320 -0.2821  0.1720
  644SOL     OW 2573   2.724   1.935   1.061 -0.1736 -0.2691 -0.3928
  644SOL    HW1 2574   2.691   1.853   1.103  0.2850  0.4922  1.8746
  644SOL    HW2 2575   2.650   1.984   1.022 -2.2359 -4.4423 -0.4366
  644SOL     MW 2576   2.709   1.931   1.061 -0.3852 -0.7193 -0.0995
  645SOL     OW 2577   2.813   0.845   0.653  0.3459 -0.2432 -0.3791
  645SOL    HW1 2578   2.882   0.787   0.680  0.8776 -0.7635 -0.7753
  645SOL    HW2 2579   2.737   0.793   0.665 -0.6672 -0.8871  1.6368
  645SOL     MW 2580   2.812   0.831   0.658  0.2824 -0.3968 -0.1654
  646SOL     OW 2581   0.063   2.266   0.847  0.1005  0.1039  0.4004
  646SOL    HW1 2582   0.084   2.177   0.825  0.3531 -1.1117  3.0707
  646SOL    HW2 2583  -0.028   2.265   0.811 -1.0803  1.0987  0.2752
  646SOL     MW 2584   0.053   2.254   0.840 -0.0220  0.0748  0.7362
  647SOL     OW 2585   2.718   0.496   2.918  0.1595  0.3875  0.5075
  647SOL    HW1 2586   2.728   0.475   3.011 -3.0557  0.9839 -0.2356
  647SOL    HW2 2587   2.627   0.481   2.896  0.4197 -0.9835  0.9207
  647SOL     MW 2588   2.707   0.491   2.928 -0.2303  0.2853  0.4640
  648SOL     OW 2589   2.166   0.719   1.178  0.6218 -0.2272 -0.0339
  648SOL    HW1 2590   2.195   0.638   1.208  0.9910 -0.6667  1.1811
  648SOL    HW2 2591   2.218   0.785   1.224  1.3384 -1.5182 -1.2433
  648SOL     MW 2592   2.177   0.717   1.188  0.7651 -0.4555 -0.0331
  649SOL     OW 2593   2.380   2.673   1.308 -0.1507  0.2413  0.3955
  649SOL    HW1 2594   2.451   2.720   1.351 -1.6420  0.7151  2.5341
  649SOL    HW2 2595   2.408   2.583   1.286  0.7051 -0.5611 -4.7608
  649SOL     MW 2596   2.393   2.667   1.311 -0.2346  0.1980 -0.0026
  650SOL     OW 2597   2.854   0.248   0.675  0.0241 -0.2844  0.1098
  650SOL    HW1 2598   2.902   0.320   0.714 -0.8392 -0.5956  0.1117
  650SOL    HW2 2599   2.888   0.240   0.579 -0.0910  1.4971  1.4442
  650SOL     MW 2600   2.865   0.257   0.667 -0.1050 -0.0904  0.2861
  651SOL     OW 2601   3.062   0.434   0.986  0.2140  0.2585  0.1420
  651SOL    HW1 2602   3.098   0.473   0.901  1.4935 -0.3815  1.0527
  651SOL    HW2 2603   3.003   0.500   1.020 -0.9875  0.1106 -0.7958
  651SOL     MW 2604   3.059   0.448   0.980  0.2243  0.1545  0.1384
  652SOL     OW 2605   2.442   1.538   3.034  0.0969 -0.2021  0.3781
  652SOL    HW1 2606   2.503   1.540   2.963  1.1122 -0.9945 -0.4230
  652SOL    HW2 2607   2.386   1.619   3.032 -0.4018  3.3366 -3.3679
  652SOL     MW 2608   2.443   1.549   3.025  0.1651  0.1602 -0.2218
  653SOL     OW 2609   1.835   0.466   0.382 -0.1813  0.0269 -0.4899
  653SOL    HW1 2610   1.746   0.445   0.367 -1.9964  1.3368 -2.0421
  653SOL    HW2 2611   1.890   0.463   0.302  0.0325  1.5324 -0.2361
  653SOL     MW 2612   1.830   0.463   0.370 -0.3926  0.3984 -0.6612
  654SOL     OW 2613   2.415   1.027   0.757 -0.1916  0.0683 -0.2293
  654SOL    HW1 2614   2.334   1.004   0.703 -0.9485 -1.3267 -0.1749
  654SOL    HW2 2615   2.458   0.941   0.778 -1.1051  0.3042  0.5075
  654SOL     MW 2616   2.410   1.013   0.752 -0.4120 -0.0846 -0.1249
  655SOL     OW 2617   2.919   0.830   0.383 -0.4940  0.9536  0.4948
  655SOL    HW1 2618   2.883   0.840   0.471  0.2596 -0.5892  0.6534
  655SOL    HW2 2619   2.924   0.732   0.371 -2.9080 -1.8588 -2.3919
  655SOL     MW 2620   2.915   0.818   0.393 -0.7130  0.3790  0.1349
  656SOL     OW 2621   1.820   2.652   1.347 -0.9788  0.0084  0.0238
  656SOL    HW1 2622   1.883   2.730   1.358  0.2875  1.6340  0.0993
  656SOL    HW2 2623   1.866   2.569   1.377 -1.6055 -0.0945 -0.9754
  656SOL     MW 2624   1.835   2.651   1.353 -0.8944  0.2093 -0.0981
  657SOL     OW 2625   0.157   1.780   1.159 -0.3165 -0.4056 -0.2151
  657SOL    HW1 2626   0.221   1.846   1.121  0.3901  1.4449 -1.5610
  657SOL    HW2 2627   0.191   1.691   1.141 -1.3999  2.7459 -0.3098
  657SOL     MW 2628   0.170   1.777   1.152 -0.3662  0.2544 -0.4052
  658SOL     OW 2629   2.656   1.325   0.254 -0.1467 -0.2799 -0.1738
  658SOL    HW1 2630   2.650   1.236   0.293  0.2666 -3.3819 -0.3182
  658SOL    HW2 2631   2.680   1.391   0.326 -0.1648  1.4233 -0.7846
  658SOL     MW 2632   2.658   1.322   0.269 -0.0946 -0.4645 -0.2735
  659SOL     OW 2633   2.254   1.529   0.975  0.1422  0.5620  0.0579
  659SOL    HW1 2634   2.328   1.471   0.992  3.2008  0.9940 -2.7420
  659SOL    HW2 2635   2.220   1.555   1.070  0.1983  1.5871  2.3828
  659SOL     MW 2636   2.259   1.525   0.990  0.5532  0.7542 -0.0048
  660SOL     OW 2637   2.073   1.539   1.673  0.2613 -0.4346  0.2155
  660SOL    HW1 2638   2.062   1.577   1.764  3.2367  0.6977 -0.0731
  660SOL    HW2 2639   2.000   1.474   1.672  0.2074  0.7942  0.7270
  660SOL     MW 2640   2.062   1.536   1.685  0.6467 -0.1231  0.2449
  661SOL     OW 2641   2.475   1.003   0.184  0.5393 -0.4786 -0.5914
  661SOL    HW1 2642   2.546   1.027   0.249  0.8084 -1.0591 -3.0450
  661SOL    HW2 2643   2.446   0.912   0.198 -1.3417  0.3340 -1.1423
  661SOL     MW 2644   2.480   0.994   0.194  0.3266 -0.4480 -0.9878
  662SOL     OW 2645   2.560   3.044   0.898  0.5974  0.2658 -0.2181
  662SOL    HW1 2646   2.509   3.108   0.939 -1.2774 -1.8058 -0.5115
  662SOL    HW2 2647   2.598   3.074   0.816 -0.4237  0.2236 -0.4102
  662SOL     MW 2648   2.558   3.056   0.893  0.2153 -0.0131 -0.2822
  663SOL     OW 2649   2.683   1.494   0.469  0.3781  0.0358 -0.2743
  663SOL    HW1 2650   2.648   1.583   0.472 -2.4761 -3.3936  0.3918
  663SOL    HW2 2651   2.755   1.499   0.533 -0.1556 -0.0736 -2.5561
  663SOL     MW 2652   2.688   1.507   0.477 -0.0689 -0.4311 -0.4875
  664SOL     OW 2653   2.555   1.536   1.549  0.6107  0.2561  0.4809
  664SOL    HW1 2654   2.533   1.626   1.575  0.0282 -0.3535  2.0818
  664SOL    HW2 2655   2.479   1.479   1.586 -0.3144  0.1248  0.4193
  664SOL     MW 2656   2.542   1.540   1.558  0.4118  0.1584  0.6840
  665SOL     OW 2657   2.820   0.846   2.035 -0.5363  0.1469  0.2737
  665SOL    HW1 2658   2.798   0.889   1.953 -2.8930 -1.8163  0.0417
  665SOL    HW2 2659   2.894   0.790   2.024 -1.9232 -0.1688  0.9035
  665SOL     MW 2660   2.827   0.845   2.023 -1.0303 -0.1538  0.3262
  666SOL     OW 2661   2.774   3.088   1.710 -0.1290  0.4486 -0.1471
  666SOL    HW1 2662   2.785   3.066   1.616  5.2025 -2.2546  0.6068
  666SOL    HW2 2663   2.738   3.004   1.742 -0.8673  1.0884 -1.0853
  666SOL     MW 2664   2.770   3.074   1.702  0.4770  0.1764 -0.1714
  667SOL     OW 2665   1.976   2.654   1.799  0.2714  0.0853 -0.1921
  667SOL    HW1 2666   2.026   2.638   1.878 -1.0029 -1.4846  0.0729
  667SOL    HW2 2667   2.032   2.723   1.758  0.9451  0.7275  0.2320
  667SOL     MW 2668   1.990   2.661   1.804  0.1921 -0.0371 -0.1012
  668SOL     OW 2669   2.722   0.596   0.797 -0.2914 -0.4142 -0.6955
  668SOL    HW1 2670   2.775   0.633   0.865  0.9776 -0.4101  1.2543
  668SOL    HW2 2671   2.656   0.661   0.798 -1.3079 -2.4056 -1.7904
  668SOL     MW 2672   2.721   0.609   0.806 -0.2581 -0.6764 -0.5827
  669SOL     OW 2673   0.149   0.896   0.703 -0.5312 -0.5694 -0.3136
  669SOL    HW1 2674   0.128   0.954   0.775 -0.1663  0.8405  1.7343
  669SOL    HW2 2675   0.235   0.870   0.735  1.4212 -1.3706  1.5063
  669SOL     MW 2676   0.158   0.900   0.717 -0.2255 -0.4891  0.1967
  670SOL     OW 2677   2.858   0.300   0.207  0.1586 -0.2616  0.1955
  670SOL    HW1 2678   2.881   0.262   0.121  2.3228  0.8343 -2.9755
  670SOL    HW2 2679   2.866   0.391   0.197  0.9232 -0.6583 -0.2976
  670SOL     MW 2680   2.862   0.307   0.195  0.5450 -0.1694 -0.2879
  671SOL     OW 2681   2.049   3.062   1.567 -0.0803 -0.2482  0.3774
  671SOL    HW1 2682   1.994   3.026   1.493 -3.4406 -0.3426  2.2802
  671SOL    HW2 2683   1.983   3.094   1.633 -0.0062 -0.4201  2.5613
  671SOL     MW 2684   2.033   3.061   1.566 -0.5139 -0.2833  0.9166
  672SOL     OW 2685   1.900   1.712   1.317  0.1126 -0.4736 -0.3787
  672SOL    HW1 2686   1.819   1.755   1.343  0.6194 -0.3783  0.5868
  672SOL    HW2 2687   1.902   1.722   1.221 -0.6588  0.2061  2.7627
  672SOL     MW 2688   1.889   1.719   1.307  0.0777 -0.3713  0.1632
  673SOL     OW 2689   2.787   1.118   0.618 -0.2284  0.4836  0.0816
  673SOL    HW1 2690   2.790   1.020   0.627  0.8131  1.5353 -3.8465
  673SOL    HW2 2691   2.878   1.148   0.623 -0.3704 -0.0616 -0.0562
  673SOL     MW 2692   2.800   1.109   0.619 -0.1097  0.5504 -0.4549
  674SOL     OW 2693   2.444   3.057   1.298  0.2456  0.3757 -0.3141
  674SOL    HW1 2694   2.407   3.077   1.209 -0.6962 -0.7851 -2.5881
  674SOL    HW2 2695   2.507   2.985   1.292 -0.0887  0.0720 -1.3812
  674SOL     MW 2696   2.448   3.050   1.286  0.0772  0.1825 -0.7549
  675SOL     OW 2697   3.071   0.869   1.078 -0.0855 -0.0517  0.0428
  675SOL    HW1 2698   3.136   0.876   1.146  0.6064  1.2433  1.4321
  675SOL    HW2 2699   3.096   0.935   1.019 -1.5114  1.7521  0.3567
  675SOL     MW 2700   3.083   0.879   1.079 -0.1824  0.3571  0.2675
  676SOL     OW 2701   2.947   1.489   1.664  0.2041  0.0653 -0.2273
  676SOL    HW1 2702   2.904   1.425   1.617 -0.7315  0.9223 -0.7663
  676SOL    HW2 2703   2.998   1.447   1.730  0.8082 -1.2155 -1.1499
  676SOL     MW 2704   2.948   1.475   1.666  0.1604  0.0094 -0.4201
  677SOL     OW 2705   2.372   0.585   2.001  0.2476 -0.2367 -0.7645
  677SOL    HW1 2706   2.342   0.529   1.932 -1.2254 -0.4827  0.6694
  677SOL    HW2 2707   2.320   0.662   1.992 -2.5691  0.0579  2.0057
  677SOL     MW 2708   2.361   0.588   1.991 -0.3184 -0.2303 -0.2098
  678SOL     OW 2709   2.518   1.691   0.327 -0.2136 -0.2485 -0.0553
  678SOL    HW1 2710   2.440   1.710   0.385  1.7859 -1.7680  1.6813
  678SOL    HW2 2711   2.490   1.620   0.269  0.4491 -0.1128  3.3472
  678SOL     MW 2712   2.504   1.684   0.327  0.1377 -0.4311  0.6228
  679SOL     OW 2713   2.238   0.453   1.289  0.1069  0.8299 -0.0513
  679SOL    HW1 2714   2.244   0.373   1.237  2.4687  0.3225  0.6666
  679SOL    HW2 2715   2.163   0.430   1.341  0.8824  1.4971  0.5624
  679SOL     MW 2716   2.229   0.439   1.289  0.5209  0.8510  0.1244
  680SOL     OW 2717   2.374   0.179   1.462  0.2703 -0.0727 -0.4387
  680SOL    HW1 2718   2.280   0.191   1.466 -2.2666  1.8320 -0.0747
  680SOL    HW2 2719   2.380   0.093   1.412 -0.5521  1.4475  1.8514
  680SOL     MW 2720   2.363   0.169   1.456 -0.1729  0.3792 -0.0885
  681SOL     OW 2721   0.298   0.504   1.520  0.3719  0.6945  0.4274
  681SOL    HW1 2722   0.268   0.463   1.600 -3.5845 -2.2560  2.5289
  681SOL    HW2 2723   0.390   0.521   1.531 -1.7650 -0.7203 -0.0151
  681SOL     MW 2724   0.306   0.501   1.532 -0.4321  0.1185  0.6463
  682SOL     OW 2725   0.147   2.856   1.512 -0.0391 -0.4838 -0.0132
  682SOL    HW1 2726   0.200   2.878   1.589  0.3915 -1.1964  1.2272
  682SOL    HW2 2727   0.069   2.913   1.509  1.7633  0.9350  2.3836
  682SOL     MW 2728   0.144   2.866   1.522  0.2555 -0.3906  0.4667
  683SOL     OW 2729   2.059   0.785   2.973  0.2338 -0.1380 -0.4688
  683SOL    HW1 2730   1.962   0.787   2.950 -0.3957  1.9929 -1.3785
  683SOL    HW2 2731   2.062   0.861   3.033  0.3094 -0.8689 -1.2815
  683SOL     MW 2732   2.047   0.795   2.978  0.1607  0.0467 -0.6960
  684SOL     OW 2733   2.234   1.656   0.725  0.5542  0.1138  0.6695
  684SOL    HW1 2734   2.183   1.607   0.663 -0.9531 -0.3595  1.2501
  684SOL    HW2 2735   2.233   1.602   0.804 -0.7109  0.7361 -0.8064
  684SOL     MW 2736   2.227   1.642   0.727  0.1884  0.1334  0.5514
  685SOL     OW 2737   2.620   1.735   1.202  0.4242 -0.3845 -0.2319
  685SOL    HW1 2738   2.682   1.736   1.276  1.2804  0.2043 -0.9238
  685SOL    HW2 2739   2.588   1.650   1.195  0.2053  2.5979  1.8270
  685SOL     MW 2740   2.624   1.724   1.211  0.5083  0.0867 -0.0516
  686SOL     OW 2741   2.899   0.753   1.492  0.3076 -0.4683 -0.1529
  686SOL    HW1 2742   2.859   0.714   1.568 -2.0029 -1.9696 -1.2791
  686SOL    HW2 2743   2.996   0.745   1.501  1.7722 -0.3023 -2.0882
  686SOL     MW 2744   2.906   0.747   1.504  0.1960 -0.6445 -0.5568
  687SOL     OW 2745   2.148   0.214   1.194 -0.1296  0.0395  0.6265
  687SOL    HW1 2746   2.207   0.157   1.144 -0.2288 -2.1942  1.8128
  687SOL    HW2 2747   2.084   0.240   1.131 -0.1643  3.4751  1.8128
  687SOL     MW 2748   2.147   0.210   1.179 -0.1473  0.1981  0.9395
  688SOL     OW 2749   2.396   0.574   1.468 -0.2585 -0.0743  0.5942
  688SOL    HW1 2750   2.361   0.496   1.416  0.1893 -1.1353 -2.9840
  688SOL    HW2 2751   2.308   0.603   1.511 -3.8224 -0.5726  2.1330
  688SOL     MW 2752   2.379   0.568   1.467 -0.6697 -0.2800  0.3251
  689SOL     OW 2753   2.471   0.732   2.964  0.0043 -0.5890 -0.4887
  689SOL    HW1 2754   2.481   0.823   2.947  2.4045 -1.5573  0.1134
  689SOL    HW2 2755   2.553   0.701   3.008  0.8389 -1.0184 -1.3714
  689SOL     MW 2756   2.483   0.740   2.967  0.4311 -0.7734 -0.5257
  690SOL     OW 2757   1.988   0.847   1.855 -0.4025 -0.5316 -0.1255
  690SOL    HW1 2758   1.954   0.763   1.886  0.1673 -0.3136  0.9712
  690SOL    HW2 2759   2.038   0.844   1.777  0.4074 -0.6109  1.8077
  690SOL     MW 2760   1.990   0.836   1.849 -0.2205 -0.5133  0.2743
  691SOL     OW 2761   2.404   0.292   0.887 -0.2053 -1.1791 -0.2292
  691SOL    HW1 2762   2.482   0.338   0.911  1.7921 -1.6025 -0.2970
  691SOL    HW2 2763   2.342   0.358   0.914  1.1408  1.5728 -2.9378
  691SOL     MW 2764   2.406   0.307   0.894  0.2358 -0.8719 -0.5955
  692SOL     OW 2765   2.839   1.690   1.427 -0.0537 -0.4360  0.6561
  692SOL    HW1 2766   2.843   1.621   1.493  2.1920  0.5624 -0.5421
  692SOL    HW2 2767   2.882   1.773   1.469  1.4051 -0.2081 -1.7497
  692SOL     MW 2768   2.845   1.692   1.441  0.4351 -0.2742  0.1806
  693SOL     OW 2769   2.257   0.398   0.135  0.0246  0.0388 -0.1886
  693SOL    HW1 2770   2.179   0.345   0.140 -0.5697 -2.6970  0.6004
  693SOL    HW2 2771   2.229   0.485   0.095 -0.2658 -0.0030 -0.9966
  693SOL     MW 2772   2.243   0.402   0.130 -0.0921 -0.3277 -0.1911
  694SOL     OW 2773   1.941   1.214   1.201 -0.2040  0.3798 -0.0720
  694SOL    HW1 2774   2.024   1.166   1.212 -1.3036 -2.3897  3.6976
  694SOL    HW2 2775   1.879   1.147   1.229 -0.3103  1.1690  0.8674
  694SOL     MW 2776   1.944   1.199   1.206 -0.3631  0.1185  0.5493
  695SOL     OW 2777   3.055   1.542   1.285  0.8430 -0.2152 -0.1332
  695SOL    HW1 2778   2.999   1.498   1.216  0.2732 -0.7390  1.5925
  695SOL    HW2 2779   3.002   1.610   1.325  0.0871  0.4777  1.9041
  695SOL     MW 2780   3.041   1.545   1.281  0.6681 -0.1929  0.3633
  696SOL     OW 2781   2.092   1.361   0.832 -1.0341 -0.0998  0.2455
  696SOL    HW1 2782   2.142   1.412   0.898 -2.9128 -1.6018 -2.0237
  696SOL    HW2 2783   2.065   1.286   0.880 -1.8549  0.6682 -2.8145
  696SOL     MW 2784   2.095   1.358   0.847 -1.3903 -0.1967 -0.4577
  697SOL     OW 2785   2.908   1.058   2.201 -0.1532 -0.0777 -0.9990
  697SOL    HW1 2786   2.833   1.111   2.184  1.8565 -3.2934 -2.2477
  697SOL    HW2 2787   2.885   0.975   2.163  1.8162 -1.4741 -0.6230
  697SOL     MW 2788   2.895   1.054   2.193  0.3718 -0.6862 -1.1141
  698SOL     OW 2789   2.522   0.345   0.014 -1.0110  0.0631  0.3357
  698SOL    HW1 2790   2.431   0.374   0.041 -2.1049  0.8931 -2.1978
  698SOL    HW2 2791   2.550   0.288   0.086  3.2210 -0.4060  0.0710
  698SOL     MW 2792   2.513   0.341   0.027 -0.5970  0.1107 -0.0335
  699SOL     OW 2793   1.819   1.563   2.071  0.4382 -0.0780  0.2379
  699SOL    HW1 2794   1.778   1.485   2.034  1.4864 -1.4010 -1.0751
  699SOL    HW2 2795   1.903   1.578   2.037 -1.7720 -0.3010 -2.5907
  699SOL     MW 2796   1.825   1.555   2.062  0.2849 -0.2820 -0.3085
  700SOL     OW 2797   2.688   0.924   1.480  0.7301 -0.0269  0.4874
  700SOL    HW1 2798   2.722   1.007   1.442 -1.6327 -0.1754  0.5399
  700SOL    HW2 2799   2.769   0.866   1.468 -0.7236 -1.9526 -1.3936
  700SOL     MW 2800   2.703   0.927   1.473  0.2266 -0.3006  0.2461
  701SOL     OW 2801   1.640   1.193   2.502 -0.2624 -0.3685  0.1736
  701SOL    HW1 2802   1.736   1.191   2.488 -1.9892 -0.9028  0.6315
  701SOL    HW2 2803   1.628   1.241   2.583 -0.8719  1.0266  0.7052
  701SOL     MW 2804   1.651   1.199   2.511 -0.5707 -0.2550  0.3042
  702SOL     OW 2805   2.143   0.414   0.857 -0.2631 -0.2973  0.3271
  702SOL    HW1 2806   2.128   0.333   0.812  2.1456  2.6587  0.1421
  702SOL    HW2 2807   2.199   0.464   0.794  0.3280 -0.0031 -0.3558
  702SOL     MW 2808   2.148   0.410   0.843  0.1327  0.1315  0.2126
  703SOL     OW 2809   2.718   1.194   1.071 -0.1372  0.4571 -0.4320
  703SOL    HW1 2810   2.687   1.194   0.978 -2.4174 -0.4481  2.8109
  703SOL    HW2 2811   2.765   1.107   1.091  1.3757 -1.3994  1.1453
  703SOL     MW 2812   2.720   1.182   1.061 -0.2385  0.0927  0.2040
  704SOL     OW 2813   3.059   1.172   0.058  0.1993 -0.1948  0.1394
  704SOL    HW1 2814   2.962   1.163   0.042 -0.0493 -0.4050  1.4765
  704SOL    HW2 2815   3.071   1.133   0.143  2.4028  1.3565 -3.1571
  704SOL     MW 2816   3.048   1.166   0.067  0.4572 -0.0179 -0.1192
  705SOL     OW 2817   2.171   1.624   1.227  0.1017 -0.1758 -0.1254
  705SOL    HW1 2818   2.083   1.649   1.231  0.5930 -1.0415 -1.7332
  705SOL    HW2 2819   2.192   1.546   1.282 -0.5292  0.0798 -1.0881
  705SOL     MW 2820   2.162   1.617   1.235  0.0833 -0.2563 -0.4645
  706SOL     OW 2821   3.033   1.224   0.661 -0.3383  0.0447  0.3920
  706SOL    HW1 2822   3.091   1.235   0.581  1.1134  0.7900 -0.8629
  706SOL    HW2 2823   2.985   1.306   0.654  1.2901 -2.9573 -2.3381
  706SOL     MW 2824   3.034   1.237   0.650  0.0681 -0.2530 -0.1338
  707SOL     OW 2825   2.336   0.066   1.029 -0.5669  0.2165 -0.3132
  707SOL    HW1 2826   2.351   0.134   0.966 -0.8505  0.8354 -3.0358
  707SOL    HW2 2827   2.269   0.006   0.993  1.4330 -1.9488  2.4932
  707SOL     MW 2828   2.329   0.067   1.016 -0.3404  0.0125 -0.3022
  708SOL     OW 2829   2.407   1.424   0.190  0.2466  0.3317 -0.2377
  708SOL    HW1 2830   2.486   1.375   0.217  1.1464 -2.6606 -0.8017
  708SOL    HW2 2831   2.411   1.452   0.101 -2.3831  1.5117  2.0909
  708SOL     MW 2832   2.418   1.421   0.182  0.0184  0.0926 -0.0049
  709SOL     OW 2833   1.771   1.635   0.205 -0.1923  0.1996  0.2572
  709SOL    HW1 2834   1.735   1.657   0.121 -0.8815 -0.1101 -1.4718
  709SOL    HW2 2835   1.701   1.664   0.262 -0.2745 -1.0904 -0.6132
  709SOL     MW 2836   1.757   1.642   0.201 -0.2941 -0.0114 -0.0857
  710SOL     OW 2837   2.214   1.171   1.169 -0.2176 -0.7083  0.0192
  710SOL    HW1 2838   2.217   1.125   1.082 -0.0276  3.1113 -0.2744
  710SOL    HW2 2839   2.228   1.097   1.233 -0.0901 -4.3954 -1.7673
  710SOL     MW 2840   2.216   1.155   1.166 -0.1757 -0.6908 -0.2552
  711SOL     OW 2841   2.335   0.173   1.740  0.1243  0.4599 -0.2649
  711SOL    HW1 2842   2.423   0.144   1.775 -0.7166  1.0454  1.1484
  711SOL    HW2 2843   2.354   0.173   1.648 -1.8374 -2.3662  1.8208
  711SOL     MW 2844   2.349   0.169   1.733 -0.2455  0.1642  0.1968
  712SOL     OW 2845   1.910   0.509   0.099  0.0230  0.5380 -0.2977
  712SOL    HW1 2846   1.847   0.541   0.039 -3.0360  0.4143  0.3102
  712SOL    HW2 2847   1.936   0.586   0.151  0.7440 -4.0173  0.1657
  712SOL     MW 2848   1.905   0.523   0.098 -0.2854 -0.0793 -0.1563
  713SOL     OW 2849   2.555   0.835   1.078 -0.4198 -0.2896  0.0131
  713SOL    HW1 2850   2.547   0.755   1.132  4.5057 -3.8014  1.6199
  713SOL    HW2 2851   2.517   0.897   1.131 -0.7758 -1.1642 -3.4953
  713SOL     MW 2852   2.549   0.832   1.092  0.1831 -0.8683 -0.2378
  714SOL     OW 2853   2.226   0.202   1.986 -0.1310 -0.2194 -0.1606
  714SOL    HW1 2854   2.279   0.150   2.044  3.3934 -3.5528 -3.3465
  714SOL    HW2 2855   2.256   0.160   1.902 -0.2639  0.3166 -1.4466
  714SOL     MW 2856   2.237   0.189   1.983  0.3165 -0.5885 -0.7506
  715SOL     OW 2857   1.751   1.874   1.694 -0.0081  0.3444  0.4391
  715SOL    HW1 2858   1.841   1.864   1.679  0.1984  1.0745  0.4357
  715SOL    HW2 2859   1.732   1.830   1.775 -0.3298  0.7506  0.9608
  715SOL     MW 2860   1.761   1.867   1.703 -0.0233  0.4943  0.5075
  716SOL     OW 2861   2.311   0.600   0.731 -0.0792  0.0714 -0.0436
  716SOL    HW1 2862   2.341   0.534   0.667 -0.5124  0.3072  0.4563
  716SOL    HW2 2863   2.242   0.648   0.688 -0.6398  1.2207  0.6202
  716SOL     MW 2864   2.306   0.597   0.717 -0.2103  0.2542  0.1100
  717SOL     OW 2865   2.868   1.621   2.866  0.7662 -0.2658  0.2273
  717SOL    HW1 2866   2.945   1.610   2.917 -1.0139  2.2110 -1.1354
  717SOL    HW2 2867   2.822   1.683   2.924 -1.7479  0.8321 -1.7220
  717SOL     MW 2868   2.872   1.628   2.880  0.1996  0.2059 -0.2097
  718SOL     OW 2869   2.669   1.436   1.336  0.6343  0.2426  0.0917
  718SOL    HW1 2870   2.641   1.471   1.419 -2.3437  2.2157 -2.9104
  718SOL    HW2 2871   2.715   1.351   1.346 -0.5780 -1.6350  2.2639
  718SOL     MW 2872   2.672   1.429   1.348  0.0815  0.2552 -0.0178
  719SOL     OW 2873   2.194   1.295   0.586  0.4459 -0.5251  0.0005
  719SOL    HW1 2874   2.288   1.321   0.579 -1.7169  0.3697  0.8208
  719SOL    HW2 2875   2.167   1.339   0.670  0.8427  0.4036  1.9405
  719SOL     MW 2876   2.203   1.304   0.596  0.2129 -0.2845  0.3647
  720SOL     OW 2877   2.772   1.183   0.046  0.4658 -0.5804  0.4569
  720SOL    HW1 2878   2.795   1.101   0.092  0.8551  0.0803  1.8832
  720SOL    HW2 2879   2.725   1.254   0.094  0.4099  0.5209 -2.3173
  720SOL     MW 2880   2.769   1.182   0.058  0.5098 -0.3479  0.2791
  721SOL     OW 2881   2.443   0.844   1.346  0.3462 -0.1824 -0.3149
  721SOL    HW1 2882   2.425   0.761   1.397  0.3907  0.6891  2.6597
  721SOL    HW2 2883   2.516   0.885   1.395 -1.2705  1.4724 -1.4932
  721SOL     MW 2884   2.451   0.838   1.359  0.1388  0.1509 -0.0779
  722SOL     OW 2885   2.601   1.109   0.410  0.4510 -0.3037  0.5941
  722SOL    HW1 2886   2.539   1.163   0.459  1.4733  0.0894  3.0140
  722SOL    HW2 2887   2.683   1.108   0.462 -2.8429  1.8796  0.7400
  722SOL     MW 2888   2.604   1.116   0.423  0.1513  0.0363  0.9326
  723SOL     OW 2889   2.333   1.381   1.594 -0.5364  0.0346 -0.2430
  723SOL    HW1 2890   2.348   1.346   1.506  0.3783  0.3201  0.7499
  723SOL    HW2 2891   2.275   1.450   1.579  1.7475 -1.8253  0.1070
  723SOL     MW 2892   2.327   1.386   1.580 -0.1144 -0.1731 -0.0658
  724SOL     OW 2893   2.426   0.364   0.598 -0.3429  0.0481 -0.0117
  724SOL    HW1 2894   2.421   0.320   0.680 -0.4705  1.6889 -0.7936
  724SOL    HW2 2895   2.520   0.386   0.579  1.3276 -2.6708  1.2170
  724SOL     MW 2896   2.438   0.361   0.606 -0.1393 -0.0942  0.0472
  725SOL     OW 2897   2.541   0.585   1.202  0.1857  0.4371  0.1036
  725SOL    HW1 2898   2.624   0.606   1.236 -0.5578 -0.5715  1.3988
  725SOL    HW2 2899   2.486   0.588   1.284 -0.2165  1.1165  0.2693
  725SOL     MW 2900   2.544   0.588   1.217  0.0346  0.3937  0.2964
  726SOL     OW 2901   2.564   2.459   0.566  0.3202  0.2212 -0.0978
  726SOL    HW1 2902   2.523   2.527   0.517  0.1117  1.1283  0.9308
  726SOL    HW2 2903   2.494   2.440   0.629 -1.8156  1.6189  1.7464
  726SOL     MW 2904   2.549   2.466   0.568  0.0109  0.5253  0.2813
  727SOL     OW 2905   2.903   0.356   1.711 -0.8872 -0.5675  0.2126
  727SOL    HW1 2906   2.861   0.339   1.629  0.3710 -0.2952  2.3772
  727SOL    HW2 2907   2.847   0.331   1.787 -2.1115  2.4230 -2.4552
  727SOL     MW 2908   2.890   0.351   1.710 -0.8827 -0.1370  0.1462
  728SOL     OW 2909   2.793   1.176   2.871 -0.0155 -0.1090  0.4816
  728SOL    HW1 2910   2.847   1.240   2.828 -1.5707 -1.2920  1.5687
  728SOL    HW2 2911   2.776   1.201   2.960  2.2093 -0.1288  0.5025
  728SOL     MW 2912   2.798   1.188   2.877  0.0729 -0.2677  0.6278
  729SOL     OW 2913   2.507   1.481   1.137 -0.4461  0.1862  0.2176
  729SOL    HW1 2914   2.582   1.467   1.198 -3.7567  1.9203  0.2907
  729SOL    HW2 2915   2.539   1.495   1.049 -0.2477 -0.3878  1.3855
  729SOL     MW 2916   2.521   1.481   1.134 -0.8568  0.3392  0.3814
  730SOL     OW 2917   2.270   1.183   0.179 -0.1757 -0.0996  0.2981
  730SOL    HW1 2918   2.353   1.126   0.176 -1.3175  0.6904  2.6220
  730SOL    HW2 2919   2.292   1.259   0.228  1.3683 -1.1765 -2.4622
  730SOL     MW 2920   2.284   1.185   0.185 -0.1226 -0.1375  0.2405
  731SOL     OW 2921   2.761   1.917   2.854  0.2129  0.8283 -0.1428
  731SOL    HW1 2922   2.688   1.956   2.801 -0.0943  0.5323 -0.6738
  731SOL    HW2 2923   2.843   1.945   2.815 -2.0173  0.9166  2.2148
  731SOL     MW 2924   2.762   1.926   2.842 -0.1218  0.8009  0.0982
  732SOL     OW 2925   2.222   0.982   1.354  0.2469 -0.4963 -0.6986
  732SOL    HW1 2926   2.189   0.965   1.442  1.2793  1.0345  0.0309
  732SOL    HW2 2927   2.304   0.936   1.355 -2.6940  0.2256 -0.8895
  732SOL     MW 2928   2.229   0.974   1.366 -0.0049 -0.1991 -0.6275
  733SOL     OW 2929   2.360   2.751   3.002  0.0475 -0.2372 -0.3075
  733SOL    HW1 2930   2.298   2.817   2.973  0.9851 -1.1945 -1.4248
  733SOL    HW2 2931   2.329   2.661   2.989 -0.9629  0.7793 -0.9758
  733SOL     MW 2932   2.348   2.748   2.997  0.0379 -0.2294 -0.5431
  734SOL     OW 2933   1.424   0.333   2.476 -0.2567  0.0977  0.9354
  734SOL    HW1 2934   1.427   0.303   2.567 -1.7546  1.1657 -0.5333
  734SOL    HW2 2935   1.482   0.280   2.422 -0.8217  1.5087 -0.0072
  734SOL     MW 2936   1.432   0.322   2.481 -0.5289  0.4248  0.6173
  735SOL     OW 2937   2.920   0.905   2.634 -0.1073  0.6079  0.5097
  735SOL    HW1 2938   2.918   0.809   2.617 -0.7357 -3.0667 -2.4527
  735SOL    HW2 2939   2.953   0.908   2.724 -0.4891 -2.3878  1.1543
  735SOL     MW 2940   2.924   0.893   2.644 -0.2406 -0.2722  0.2039
  736SOL     OW 2941   0.084   0.577   2.506  0.2023  0.0227  0.5789
  736SOL    HW1 2942   0.133   0.638   2.452 -2.5134 -1.6289  0.5942
  736SOL    HW2 2943   0.083   0.498   2.451 -0.1473  0.2284  0.6523
  736SOL     MW 2944   0.090   0.575   2.492 -0.2022 -0.1681  0.5906
  737SOL     OW 2945   2.924   0.633   2.573 -0.0072 -0.0126  0.3303
  737SOL    HW1 2946   2.873   0.586   2.506 -0.6499  2.4802  1.2448
  737SOL    HW2 2947   3.021   0.626   2.539  2.1697  1.0696 -0.6599
  737SOL     MW 2948   2.930   0.626   2.560  0.1952  0.4591  0.3203
  738SOL     OW 2949   0.137   0.584   1.898 -0.6172 -0.2870  0.0144
  738SOL    HW1 2950   0.226   0.620   1.884  0.3791 -2.5002  2.7658
  738SOL    HW2 2951   0.153   0.495   1.868  0.7043 -0.8599  0.4204
  738SOL     MW 2952   0.151   0.577   1.892 -0.3114 -0.6546  0.4310
  739SOL     OW 2953   2.468   1.004   2.061  0.3465 -0.1640  0.2550
  739SOL    HW1 2954   2.408   0.942   2.021 -0.7440 -0.7667 -1.8754
  739SOL    HW2 2955   2.498   1.071   2.001 -2.3903  1.1085 -0.0777
  739SOL     MW 2956   2.464   1.004   2.048 -0.1585 -0.0756 -0.0700
  740SOL     OW 2957   0.256   1.713   2.945 -0.5948 -0.5474  0.4224
  740SOL    HW1 2958   0.187   1.650   2.977  0.3459 -1.7711 -1.1237
  740SOL    HW2 2959   0.339   1.677   2.968 -0.2784  0.2394 -0.0628
  740SOL     MW 2960   0.258   1.700   2.952 -0.4289 -0.6051  0.1544
  741SOL     OW 2961   2.234   1.142   2.751  0.0504 -0.9060  0.3222
  741SOL    HW1 2962   2.142   1.151   2.718  0.3971  0.8628 -2.5359
  741SOL    HW2 2963   2.239   1.187   2.841 -2.1435 -0.5840  2.2477
  741SOL     MW 2964   2.222   1.149   2.759 -0.1933 -0.6302  0.1991
  742SOL     OW 2965   1.500   1.241   2.220  0.3933  0.1477 -0.2331
  742SOL    HW1 2966   1.540   1.153   2.213  2.2042  1.4211  1.8817
  742SOL    HW2 2967   1.521   1.269   2.308  1.8047 -0.5337  1.7123
  742SOL     MW 2968   1.508   1.233   2.231  0.8185  0.2258  0.3026
  743SOL     OW 2969   2.451   1.300   2.699 -0.3302 -0.3330  0.1729
  743SOL    HW1 2970   2.353   1.287   2.692 -3.7767 -1.1179 -2.6348
  743SOL    HW2 2971   2.475   1.229   2.756 -1.6373  1.4004 -3.8750
  743SOL     MW 2972   2.441   1.289   2.705 -0.9574 -0.2079 -0.7316
  744SOL     OW 2973   2.762   0.981   1.782 -0.5059  0.0516  0.2894
  744SOL    HW1 2974   2.694   1.040   1.811 -2.6216  1.6083 -0.4201
  744SOL    HW2 2975   2.729   0.939   1.701  1.3416 -2.0981 -1.3005
  744SOL     MW 2976   2.749   0.983   1.775 -0.5413 -0.0266 -0.0140
  745SOL     OW 2977   1.691   0.463   2.474 -0.0207  0.2364  0.0524
  745SOL    HW1 2978   1.739   0.473   2.391  1.3504  1.4367 -2.7719
  745SOL    HW2 2979   1.606   0.433   2.443  1.9726 -1.3638 -1.1962
  745SOL     MW 2980   1.686   0.460   2.459  0.4232  0.1836 -0.4850
  746SOL     OW 2981   1.580   1.431   1.559 -0.2420 -0.0937 -0.0323
  746SOL    HW1 2982   1.673   1.449   1.585  0.7356 -0.5725 -0.2225
  746SOL    HW2 2983   1.544   1.423   1.648 -0.9353  0.2013  1.1221
  746SOL     MW 2984   1.588   1.433   1.574 -0.2045 -0.1179  0.0949
  747SOL     OW 2985   2.547   1.178   1.800  0.7040  0.0896  0.4934
  747SOL    HW1 2986   2.453   1.149   1.784 -1.4420  1.4553  0.1591
  747SOL    HW2 2987   2.536   1.236   1.879 -0.6506 -2.7444 -0.5654
  747SOL     MW 2988   2.533   1.182   1.809  0.2421 -0.1041  0.3096
  748SOL     OW 2989   0.133   0.020   1.810 -0.0802  0.2308  0.2593
  748SOL    HW1 2990   0.217   0.062   1.820 -2.7464  0.4442 -0.1253
  748SOL    HW2 2991   0.076   0.057   1.882  0.6907 -0.7718 -1.4720
  748SOL     MW 2992   0.136   0.030   1.821 -0.3303  0.1267 -0.0199
  749SOL     OW 2993   2.437   0.542   2.750  0.8460 -0.2351 -0.0651
  749SOL    HW1 2994   2.431   0.603   2.671 -1.1111 -0.3863  0.5379
  749SOL    HW2 2995   2.446   0.611   2.823 -1.1348 -3.9779  0.9617
  749SOL     MW 2996   2.437   0.559   2.750  0.3264 -0.7489  0.1499
  750SOL     OW 2997   2.034   0.008   1.984 -0.1873 -0.2971  0.1900
  750SOL    HW1 2998   2.075   0.098   1.998 -1.0021  0.4714 -2.3382
  750SOL    HW2 2999   2.110  -0.046   1.984 -0.7580  2.1829  2.3782
  750SOL     MW 3000   2.049   0.013   1.986 -0.3701  0.1315  0.1452
  751SOL     OW 3001   0.050   0.382   2.293  0.4051  0.1665  0.1380
  751SOL    HW1 3002  -0.030   0.333   2.332  1.4131  0.6511 -1.2270
  751SOL    HW2 3003   0.124   0.320   2.277 -2.3088 -0.5414 -0.0301
  751SOL     MW 3004   0.049   0.367   2.296  0.1800  0.1371 -0.0643
  752SOL     OW 3005   2.137   0.819   2.652 -0.0771 -0.1457 -0.0967
  752SOL    HW1 3006   2.223   0.828   2.615 -1.3759  0.3666  0.0770
  752SOL    HW2 3007   2.154   0.839   2.746  0.5866  0.2697  0.6197
  752SOL     MW 3008   2.150   0.823   2.660 -0.1609 -0.0233  0.0208
  753SOL     OW 3009   2.937   0.267   2.397  0.1080  0.0281  0.2426
  753SOL    HW1 3010   2.883   0.194   2.361  0.9484 -3.2562 -1.6335
  753SOL    HW2 3011   2.873   0.335   2.405 -2.2091 -1.5154 -0.5203
  753SOL     MW 3012   2.921   0.266   2.393 -0.0868 -0.6089 -0.1056
  754SOL     OW 3013   2.240   2.997   2.599  0.2403 -0.0859 -0.9836
  754SOL    HW1 3014   2.266   2.961   2.516 -0.1531 -1.0124 -0.6870
  754SOL    HW2 3015   2.292   2.942   2.661  1.4479 -1.0751  0.1800
  754SOL     MW 3016   2.250   2.985   2.596  0.3477 -0.3387 -0.7910
  755SOL     OW 3017   2.722   1.528   2.473 -0.2362 -0.9900  0.2833
  755SOL    HW1 3018   2.720   1.443   2.522 -0.5784  0.6682 -0.3683
  755SOL    HW2 3019   2.772   1.597   2.519 -0.6161  1.1675  0.1440
  755SOL     MW 3020   2.728   1.526   2.486 -0.3315 -0.4865  0.1790
  756SOL     OW 3021   2.261   1.321   2.964  0.5720 -0.9081  0.0368
  756SOL    HW1 3022   2.293   1.408   2.940 -0.5955 -0.5976  1.4966
  756SOL    HW2 3023   2.332   1.277   3.016  1.6788 -1.2474  0.3450
  756SOL     MW 3024   2.275   1.327   2.968  0.5640 -0.9119  0.2701
  757SOL     OW 3025   2.130   0.942   1.602  0.1130 -0.3779  0.1182
  757SOL    HW1 3026   2.156   0.848   1.604 -0.5389 -1.6056 -1.8861
  757SOL    HW2 3027   2.036   0.947   1.565 -0.3644 -1.6671 -0.7190
  757SOL     MW 3028   2.121   0.930   1.597 -0.0360 -0.7100 -0.2567
  758SOL     OW 3029   2.189   1.770   2.606  0.0576  0.1444 -0.1463
  758SOL    HW1 3030   2.201   1.806   2.519  0.5086  0.6209  1.4359
  758SOL    HW2 3031   2.274   1.745   2.639 -0.9618  1.2863  0.7749
  758SOL     MW 3032   2.201   1.771   2.599 -0.0174  0.3579  0.1840
  759SOL     OW 3033   1.620   1.345   2.717 -0.1329  0.0044 -0.2620
  759SOL    HW1 3034   1.590   1.423   2.665 -1.0086 -0.9132  2.0496
  759SOL    HW2 3035   1.675   1.373   2.793  1.9167 -0.9074  1.0396
  759SOL     MW 3036   1.623   1.359   2.720  0.0219 -0.2370  0.2147
  760SOL     OW 3037   2.546   2.008   2.692  0.7366  0.0939 -0.1287
  760SOL    HW1 3038   2.497   1.920   2.674 -0.6515  2.8337  0.3237
  760SOL    HW2 3039   2.573   2.040   2.601  0.3028 -2.3000  0.8492
  760SOL     MW 3040   2.543   2.001   2.678  0.4962  0.1395  0.0600
  761SOL     OW 3041   2.128   0.423   2.478 -0.1968  0.2421 -0.5288
  761SOL    HW1 3042   2.050   0.365   2.481  2.3379 -0.4941  0.8750
  761SOL    HW2 3043   2.161   0.428   2.567  1.4334  1.0477  1.3831
  761SOL     MW 3044   2.122   0.416   2.490  0.3527  0.2513 -0.0913
  762SOL     OW 3045   3.087   0.140   2.008  0.0747  0.6424  0.5642
  762SOL    HW1 3046   3.061   0.095   2.086  0.5183  0.0519 -0.4890
  762SOL    HW2 3047   3.041   0.224   2.021 -1.1704 -1.1972 -0.8347
  762SOL     MW 3048   3.077   0.145   2.020 -0.0311  0.3218  0.2406
  763SOL     OW 3049   2.439   1.070   2.321  0.6057 -0.0121 -0.4603
  763SOL    HW1 3050   2.465   1.047   2.227  0.6489 -0.2164 -1.2607
  763SOL    HW2 3051   2.487   1.146   2.354 -2.0580  1.1830 -2.7530
  763SOL     MW 3052   2.449   1.077   2.313  0.2600  0.1186 -0.8684
  764SOL     OW 3053   0.450   0.265   2.773 -0.7717  0.5034  0.3102
  764SOL    HW1 3054   0.377   0.248   2.718  1.0050  1.8560 -0.3164
  764SOL    HW2 3055   0.427   0.332   2.836 -2.1138  1.8226 -0.2563
  764SOL     MW 3056   0.437   0.272   2.774 -0.7144  0.8559  0.1528
  765SOL     OW 3057   2.747   0.094   2.287  0.1407 -0.0358  0.3330
  765SOL    HW1 3058   2.698   0.072   2.205  2.6243 -0.7450 -0.0902
  765SOL    HW2 3059   2.780   0.003   2.317  3.1463 -0.5227  0.0802
  765SOL     MW 3060   2.745   0.079   2.280  0.8650 -0.1936  0.2438
  766SOL     OW 3061   1.845   3.015   2.208  0.2361 -0.3927  0.3750
  766SOL    HW1 3062   1.889   3.071   2.145  2.3749 -0.1666  0.3387
  766SOL    HW2 3063   1.794   2.956   2.148  0.3695  3.9918 -0.7199
  766SOL     MW 3064   1.844   3.015   2.192  0.5359  0.2156  0.2257
  767SOL     OW 3065   2.634   0.614   1.945 -0.2933  0.2388  0.0392
  767SOL    HW1 3066   2.675   0.669   2.011 -0.1475 -0.6519 -0.4389
  767SOL    HW2 3067   2.540   0.597   1.970 -0.1678 -0.2875 -0.9864
  767SOL     MW 3068   2.627   0.619   1.957 -0.2575  0.0518 -0.1592
  768SOL     OW 3069   0.022   1.564   2.995  0.2265 -0.0893 -0.2663
  768SOL    HW1 3070   0.005   1.517   3.075 -2.1588  1.8811 -1.9870
  768SOL    HW2 3071   0.059   1.492   2.940  0.6930  1.4365 -1.2202
  768SOL     MW 3072   0.024   1.549   2.999 -0.0267  0.3720 -0.6192
  769SOL     OW 3073   2.342   0.719   2.299 -0.2111  0.0221  0.2576
  769SOL    HW1 3074   2.262   0.662   2.302 -1.9758 -1.7884 -0.8634
  769SOL    HW2 3075   2.400   0.662   2.247  0.4648 -0.1796 -2.3526
  769SOL     MW 3076   2.339   0.704   2.292 -0.3547 -0.2434 -0.2347
  770SOL     OW 3077   0.093   1.640   2.617  0.3225 -0.6281 -0.8854
  770SOL    HW1 3078   0.000   1.669   2.595  0.5409  0.7512  0.2111
  770SOL    HW2 3079   0.092   1.565   2.684 -2.1201 -2.0326  1.9019
  770SOL     MW 3080   0.081   1.634   2.623  0.0290 -0.6314 -0.3729
  771SOL     OW 3081   2.963   0.635   1.919 -0.4321 -0.3452 -0.4323
  771SOL    HW1 3082   2.913   0.630   1.837  1.1977  1.4754  1.8631
  771SOL    HW2 3083   3.055   0.616   1.905  0.5578 -1.2987  2.0160
  771SOL     MW 3084   2.968   0.632   1.906 -0.0864 -0.2308  0.1936
  772SOL     OW 3085   3.081   3.095   2.240  0.0205 -0.1302  0.1373
  772SOL    HW1 3086   3.012   3.043   2.275  3.7021 -0.2022 -0.2440
  772SOL    HW2 3087   3.140   3.035   2.197  0.3775  2.6452  3.2770
  772SOL     MW 3088   3.080   3.080   2.239  0.5533  0.2265  0.5012
  773SOL     OW 3089   2.440   2.819   2.755  0.3120  0.1988 -0.0309
  773SOL    HW1 3090   2.428   2.743   2.702  0.3424  1.1801  0.8305
  773SOL    HW2 3091   2.424   2.801   2.850 -0.9998 -3.2684  0.4899
  773SOL     MW 3092   2.436   2.807   2.760  0.1429 -0.1292  0.1514
  774SOL     OW 3093   2.279   1.142   1.729  0.1980  0.3205  0.1748
  774SOL    HW1 3094   2.303   1.221   1.677 -1.5915  0.0027 -1.7980
  774SOL    HW2 3095   2.230   1.088   1.663  0.0679 -0.1928 -3.8066
  774SOL     MW 3096   2.276   1.145   1.713 -0.0553  0.2109 -0.6108
  775SOL     OW 3097   2.323   2.916   2.344  0.0421 -0.3793 -0.0718
  775SOL    HW1 3098   2.344   2.996   2.300 -2.2478 -1.8732 -1.8563
  775SOL    HW2 3099   2.374   2.850   2.297  3.4935  1.3601 -0.4570
  775SOL     MW 3100   2.333   2.918   2.332  0.1954 -0.3469 -0.3581
  776SOL     OW 3101   0.024   1.424   0.121 -0.0899  0.1817 -0.2923
  776SOL    HW1 3102   0.106   1.388   0.132 -3.1925 -0.3621  0.3790
  776SOL    HW2 3103  -0.025   1.342   0.093 -1.9397 -0.2496  1.2022
  776SOL     MW 3104   0.028   1.408   0.118 -0.7433  0.0530 -0.0065
  777SOL     OW 3105   3.016   1.081   1.741  0.4771 -0.1315  0.0162
  777SOL    HW1 3106   2.982   1.169   1.722  2.9371 -0.9453  0.2840
  777SOL    HW2 3107   2.929   1.035   1.757 -0.0317  1.1022  2.4120
  777SOL     MW 3108   3.000   1.087   1.740  0.7345 -0.0761  0.3676
  778SOL     OW 3109   2.915   0.412   2.745  0.2033 -0.2852  0.0721
  778SOL    HW1 3110   2.848   0.443   2.811  1.0516  2.0081 -0.6317
  778SOL    HW2 3111   2.914   0.480   2.680  0.0599 -2.3346  1.1674
  778SOL     MW 3112   2.906   0.425   2.745  0.2963 -0.2530  0.1237
  779SOL     OW 3113   2.091   0.618   2.290  0.3114 -0.0085  0.4559
  779SOL    HW1 3114   2.046   0.691   2.325 -0.9260 -0.8840 -3.3695
  779SOL    HW2 3115   2.083   0.541   2.362  0.0759  0.0044  4.4751
  779SOL     MW 3116   2.084   0.617   2.304  0.1170 -0.1223  0.4815
  780SOL     OW 3117   0.187   0.175   2.746  0.8238 -0.3894  0.0001
  780SOL    HW1 3118   0.172   0.219   2.826  2.9526 -1.1204 -1.8682
  780SOL    HW2 3119   0.098   0.180   2.714  0.5964  0.8882  1.1532
  780SOL     MW 3120   0.173   0.182   2.752  1.0747 -0.3173 -0.0942
  781SOL     OW 3121   3.042   1.319   2.504  0.1557  0.1241  0.2163
  781SOL    HW1 3122   3.012   1.368   2.426  1.9208 -1.3845 -0.8251
  781SOL    HW2 3123   3.039   1.224   2.474  0.9416 -3.9560 -1.1617
  781SOL     MW 3124   3.038   1.313   2.490  0.4923 -0.6133 -0.1029
  782SOL     OW 3125   0.756   1.503   3.043 -0.2060  0.5502  0.3253
  782SOL    HW1 3126   0.693   1.575   3.062  0.3764  1.3290 -1.5012
  782SOL    HW2 3127   0.805   1.496   3.131  1.6271 -0.2887 -0.8879
  782SOL     MW 3128   0.754   1.512   3.057  0.1127  0.5423 -0.0758
  783SOL     OW 3129   2.756   0.471   2.416 -0.5989  0.2380  0.1413
  783SOL    HW1 3130   2.693   0.459   2.341 -2.7215 -2.4454  1.9393
  783SOL    HW2 3131   2.696   0.449   2.488 -0.2706  2.2880 -1.1339
  783SOL     MW 3132   2.740   0.466   2.416 -0.8356  0.1544  0.2103
  784SOL     OW 3133   0.241   0.855   2.871  0.4665  0.9192  0.0633
  784SOL    HW1 3134   0.216   0.931   2.915 -0.5459 -1.4764 -0.4053
  784SOL    HW2 3135   0.280   0.892   2.797  0.3489 -1.4391  2.9784
  784SOL     MW 3136   0.242   0.870   2.867  0.3174  0.2919  0.3861
  785SOL     OW 3137   0.427   0.478   2.193  0.1035  0.2776 -0.3113
  785SOL    HW1 3138   0.413   0.550   2.131  2.6475 -1.2831 -2.5558
  785SOL    HW2 3139   0.343   0.426   2.188 -0.9783  0.5124 -0.4857
  785SOL     MW 3140   0.414   0.480   2.184  0.2964  0.1027 -0.6304
  786SOL     OW 3141   1.974   0.462   2.931  0.2486  0.5463 -0.6565
  786SOL    HW1 3142   1.965   0.502   3.012 -1.4615  2.1358  0.4825
  786SOL    HW2 3143   2.061   0.491   2.889 -2.6489  1.9990 -0.0712
  786SOL     MW 3144   1.984   0.471   2.936 -0.3593  0.9477 -0.4290
  787SOL     OW 3145   2.422   0.165   2.918 -0.2190  0.0309 -0.3680
  787SOL    HW1 3146   2.484   0.100   2.865 -0.1116  1.7222  0.3489
  787SOL    HW2 3147   2.480   0.226   2.965  0.2153 -2.0328  1.8305
  787SOL     MW 3148   2.438   0.165   2.917 -0.1475 -0.0182  0.0166
  788SOL     OW 3149   2.884   2.967   2.368  0.2520 -0.3813 -0.6418
  788SOL    HW1 3150   2.896   2.985   2.457 -3.3811 -0.9599  0.7366
  788SOL    HW2 3151   2.929   2.879   2.361 -0.0491  1.7787 -0.0427
  788SOL     MW 3152   2.891   2.958   2.379 -0.2671 -0.1726 -0.3809
  789SOL     OW 3153   0.047   0.312   2.966  0.1286  0.3521 -0.3080
  789SOL    HW1 3154  -0.006   0.236   2.978 -1.1172 -0.0995 -1.4239
  789SOL    HW2 3155  -0.019   0.374   2.922 -1.6630  0.9093 -1.1921
  789SOL     MW 3156   0.032   0.310   2.962 -0.2721  0.3660 -0.5719
  790SOL     OW 3157   3.041   1.054   2.437  0.1957  0.4672  0.1996
  790SOL    HW1 3158   2.993   0.997   2.503 -0.2215  0.2440  0.7398
  790SOL    HW2 3159   2.991   1.058   2.352 -1.7785 -0.8315 -2.1027
  790SOL     MW 3160   3.028   1.047   2.435 -0.1198  0.2664 -0.0329
  791SOL     OW 3161   2.605   0.346   2.625 -0.4115 -0.3610  0.1229
  791SOL    HW1 3162   2.553   0.404   2.682 -1.2254 -2.5511 -0.0202
  791SOL    HW2 3163   2.690   0.336   2.675  1.2609 -1.6911  0.1562
  791SOL     MW 3164   2.610   0.352   2.639 -0.2982 -0.8254  0.1084
  792SOL     OW 3165   2.356   0.269   2.400 -0.1750 -0.0725 -0.5818
  792SOL    HW1 3166   2.289   0.322   2.443 -0.5054 -0.7998  1.7810
  792SOL    HW2 3167   2.391   0.211   2.476  2.6847 -0.1148 -0.8715
  792SOL     MW 3168   2.351   0.268   2.416  0.1587 -0.1740 -0.3082
  793SOL     OW 3169   1.850   1.051   1.972 -0.2737  0.7378  0.3141
  793SOL    HW1 3170   1.821   1.084   1.893  1.9841 -1.6708  0.8836
  793SOL    HW2 3171   1.915   0.990   1.943  1.1735 -0.6956  1.2248
  793SOL     MW 3172   1.855   1.047   1.958  0.2151  0.2309  0.5094
  794SOL     OW 3173   1.419   2.276   0.176  0.3130 -0.4045  0.2446
  794SOL    HW1 3174   1.438   2.360   0.123  0.6116 -1.3512 -0.9188
  794SOL    HW2 3175   1.475   2.287   0.250  0.0645  0.2568 -2.2052
  794SOL     MW 3176   1.429   2.289   0.179  0.3196 -0.4421 -0.2322
  795SOL     OW 3177   2.358   0.968   2.555  0.0992  0.0380 -0.4866
  795SOL    HW1 3178   2.340   1.044   2.611  1.6495 -0.4525  0.2564
  795SOL    HW2 3179   2.384   1.005   2.467 -0.6612 -0.3394  1.8925
  795SOL     MW 3180   2.359   0.983   2.551  0.2034 -0.0765 -0.0747
  796SOL     OW 3181   0.261   0.596   2.738  0.2981 -0.0342 -0.1606
  796SOL    HW1 3182   0.221   0.660   2.792  0.4039  0.6218 -1.4149
  796SOL    HW2 3183   0.207   0.590   2.656  1.3505 -1.8037 -1.9047
  796SOL     MW 3184   0.249   0.604   2.734  0.4509 -0.1811 -0.5562
  797SOL     OW 3185   2.570   0.113   2.493  0.3745 -0.0357 -0.1738
  797SOL    HW1 3186   2.587   0.214   2.522  0.5965 -0.1030  0.4925
  797SOL    HW2 3187   2.623   0.101   2.414 -2.7857  1.2578 -0.5179
  797SOL     MW 3188   2.579   0.125   2.486 -0.0132  0.1261 -0.1313
  798SOL     OW 3189   2.317   0.068   2.217 -0.1205  0.2593  0.0526
  798SOL    HW1 3190   2.330   0.140   2.286  1.6979 -1.7118  1.4448
  798SOL    HW2 3191   2.409   0.058   2.179  2.7762  2.7841 -1.2919
  798SOL     MW 3192   2.331   0.076   2.221  0.5016  0.3323  0.0589
  799SOL     OW 3193   2.466   2.934   0.104 -0.3943 -0.3903  0.5597
  799SOL    HW1 3194   2.409   2.857   0.107 -1.5207 -1.4631  1.1095
  799SOL    HW2 3195   2.412   3.009   0.106  1.3105  1.3048  1.1437
  799SOL     MW 3196   2.451   2.934   0.105 -0.3180 -0.3082  0.7093
  800SOL     OW 3197   1.876   0.022   1.769 -0.3606 -0.3067  0.3037
  800SOL    HW1 3198   1.824  -0.055   1.787 -0.4611 -0.5322  0.0257
  800SOL    HW2 3199   1.934   0.028   1.842 -2.4837  1.2237  1.3163
  800SOL     MW 3200   1.877   0.013   1.781 -0.6539 -0.1346  0.4006
  801SOL     OW 3201   2.798   1.280   2.593  0.3343 -0.3229  0.8985
  801SOL    HW1 3202   2.778   1.182   2.602  0.1400  1.3320  1.7843
  801SOL    HW2 3203   2.883   1.283   2.547 -1.8593  1.2346  0.5352
  801SOL     MW 3204   2.806   1.267   2.588  0.0192  0.1010  0.9674
  802SOL     OW 3205   2.587   1.539   2.822 -0.5032  0.3229  0.5432
  802SOL    HW1 3206   2.559   1.454   2.778 -0.0944 -0.4333  1.3620
  802SOL    HW2 3207   2.675   1.523   2.861 -1.5682  1.8754  0.9210
  802SOL     MW 3208   2.595   1.526   2.821 -0.5898  0.4280  0.7011
  803SOL     OW 3209   2.315   1.417   1.999 -0.0257 -0.1542 -0.0468
  803SOL    HW1 3210   2.305   1.383   2.084 -0.1957  1.2878  2.2779
  803SOL    HW2 3211   2.290   1.342   1.942 -1.2201 -2.1055  1.2916
  803SOL     MW 3212   2.310   1.403   2.003 -0.2057 -0.2214  0.4365
  804SOL     OW 3213   2.290   0.063   0.027 -0.3193 -0.1813  0.4319
  804SOL    HW1 3214   2.211   0.120   0.037 -1.4202 -1.2302 -1.0086
  804SOL    HW2 3215   2.345   0.109  -0.039 -2.0409  1.8115 -0.2084
  804SOL     MW 3216   2.287   0.076   0.020 -0.6917 -0.0567  0.1573
  805SOL     OW 3217   2.683   0.994   2.546  0.2796  0.1378 -0.8917
  805SOL    HW1 3218   2.662   0.973   2.456  0.5315 -1.9620 -0.0625
  805SOL    HW2 3219   2.760   0.942   2.574 -0.4465 -0.6327  0.3270
  805SOL     MW 3220   2.690   0.984   2.537  0.2171 -0.2409 -0.6215
  806SOL     OW 3221   2.532   0.408   2.229 -0.0748 -0.5426 -0.5149
  806SOL    HW1 3222   2.470   0.365   2.288 -0.0960  0.7028  0.6802
  806SOL    HW2 3223   2.500   0.395   2.142  2.9800  0.4285 -2.0084
  806SOL     MW 3224   2.520   0.401   2.225  0.3255 -0.2502 -0.5543
  807SOL     OW 3225   0.095   1.177   2.099 -0.9081  0.3387  0.4240
  807SOL    HW1 3226   0.106   1.097   2.050  1.9154  1.3498 -0.0632
  807SOL    HW2 3227   0.039   1.160   2.175 -1.0260 -0.4940  3.4325
  807SOL     MW 3228   0.089   1.164   2.103 -0.5511  0.3622  0.7567
  808SOL     OW 3229   2.556   3.078   2.736  0.5615 -0.0524  0.5665
  808SOL    HW1 3230   2.529   2.984   2.736  0.2229 -0.1763  2.8171
  808SOL    HW2 3231   2.570   3.111   2.644  2.4205  3.2809 -1.8087
  808SOL     MW 3232   2.554   3.070   2.724  0.7621  0.3710  0.5500
  809SOL     OW 3233   2.568   1.285   2.432 -0.0693  0.0087 -0.1654
  809SOL    HW1 3234   2.611   1.243   2.501  1.1273 -2.3274 -2.1926
  809SOL    HW2 3235   2.631   1.288   2.362  2.6969  0.8840  0.2041
  809SOL     MW 3236   2.582   1.279   2.431  0.4535 -0.1840 -0.3841
  810SOL     OW 3237   2.238   1.260   2.246  0.1962  1.0853 -0.5408
  810SOL    HW1 3238   2.308   1.198   2.269  2.0317 -1.0019  2.9614
  810SOL    HW2 3239   2.159   1.210   2.209 -2.9451  0.0948  0.8490
  810SOL     MW 3240   2.237   1.245   2.244  0.0239  0.6793  0.1047
  811SOL     OW 3241   1.544   0.164   2.282  0.1604 -0.4040 -0.5068
  811SOL    HW1 3242   1.597   0.085   2.316  3.6136 -1.1941  0.4723
  811SOL    HW2 3243   1.541   0.140   2.186  0.1052 -3.0868 -0.4614
  811SOL     MW 3244   1.551   0.150   2.274  0.6088 -0.8622 -0.3716
  812SOL     OW 3245   1.462   2.849   2.139 -0.3087 -0.5001 -0.0376
  812SOL    HW1 3246   1.561   2.856   2.121 -0.1059  2.4577 -3.5089
  812SOL    HW2 3247   1.467   2.820   2.230  1.5606  2.1205 -0.1471
  812SOL     MW 3248   1.476   2.846   2.149 -0.0353  0.2359 -0.5100
  813SOL     OW 3249   1.829   0.749   2.188 -0.1011 -0.4364  0.2071
  813SOL    HW1 3250   1.796   0.662   2.213 -1.4915  0.1308 -0.0739
  813SOL    HW2 3251   1.862   0.782   2.271  1.3690 -0.6495 -1.0007
  813SOL     MW 3252   1.829   0.742   2.202 -0.0905 -0.3897  0.0106
  814SOL     OW 3253   2.754   1.256   1.647 -0.0792  0.0722  0.6217
  814SOL    HW1 3254   2.666   1.259   1.687 -0.5200 -0.3541  2.9195
  814SOL    HW2 3255   2.760   1.226   1.554  2.1357 -2.2952 -0.4446
  814SOL     MW 3256   2.743   1.253   1.640  0.1549 -0.2964  0.7842
  815SOL     OW 3257   2.483   1.661   2.411 -0.0990  0.0181  0.8111
  815SOL    HW1 3258   2.428   1.577   2.418 -0.6062 -3.7528 -0.9043
  815SOL    HW2 3259   2.577   1.630   2.397  3.4121 -1.6539 -1.3711
  815SOL     MW 3260   2.488   1.645   2.410  0.2974 -0.7001  0.2969
  816SOL     OW 3261   0.761   0.679   2.730 -0.5815  0.3516 -0.0678
  816SOL    HW1 3262   0.749   0.591   2.777 -0.6504  2.2962  1.6374
  816SOL    HW2 3263   0.674   0.692   2.685 -2.6064  1.2491  0.1388
  816SOL     MW 3264   0.748   0.669   2.731 -0.8577  0.7266  0.1844
  817SOL     OW 3265   3.035   1.286   1.430 -0.5345 -0.1095 -0.8715
  817SOL    HW1 3266   3.111   1.234   1.458  0.4907 -0.2618 -0.4468
  817SOL    HW2 3267   3.073   1.373   1.408 -1.0845  0.0424  0.2109
  817SOL     MW 3268   3.050   1.290   1.431 -0.4718 -0.1096 -0.6727
  818SOL     OW 3269   1.943   1.060   2.690  0.3105 -0.6206  0.2543
  818SOL    HW1 3270   1.946   1.123   2.616  1.9589 -2.1039 -0.5306
  818SOL    HW2 3271   2.006   0.990   2.669 -0.2827 -2.5844  1.0998
  818SOL     MW 3272   1.951   1.059   2.678  0.4497 -1.0754  0.2623
  819SOL     OW 3273   1.897   0.273   2.453  0.1098  0.6204  0.0701
  819SOL    HW1 3274   1.835   0.346   2.461  4.3080  0.7790 -0.2650
  819SOL    HW2 3275   1.926   0.253   2.547 -2.3339 -1.1564 -0.5935
  819SOL     MW 3276   1.893   0.280   2.466  0.3413  0.4069 -0.0617
  820SOL     OW 3277   2.458   1.740   2.675  0.3288 -0.1555  0.1989
  820SOL    HW1 3278   2.514   1.680   2.730 -0.5163  1.0171 -0.0242
  820SOL    HW2 3279   2.464   1.697   2.585 -1.0783  1.9314 -0.3770
  820SOL     MW 3280   2.466   1.726   2.670  0.0317  0.2746  0.0935
  821SOL     OW 3281   2.577   1.351   2.007 -0.3118 -0.3590 -0.2447
  821SOL    HW1 3282   2.627   1.413   1.957 -0.1364 -1.0240 -0.4020
  821SOL    HW2 3283   2.485   1.388   2.016 -0.9533 -1.1961  1.0185
  821SOL     MW 3284   2.571   1.364   2.002 -0.3733 -0.5572 -0.0988
  822SOL     OW 3285   2.816   2.595   1.478  0.2743  0.1489  0.0138
  822SOL    HW1 3286   2.832   2.626   1.567  1.0939 -2.1243 -1.1047
  822SOL    HW2 3287   2.774   2.669   1.428 -0.9241  2.4552  0.3146
  822SOL     MW 3288   2.813   2.609   1.483  0.2243  0.1532 -0.0940
  823SOL     OW 3289   2.250   0.467   1.767 -0.0232  0.7070  0.7293
  823SOL    HW1 3290   2.321   0.415   1.726 -1.2288 -1.2472 -1.3632
  823SOL    HW2 3291   2.168   0.419   1.743  2.2187 -0.7836  1.6183
  823SOL     MW 3292   2.249   0.453   1.758  0.1135  0.2525  0.5705
  824SOL     OW 3293   2.074   1.351   2.606 -0.2172  0.8064 -0.5422
  824SOL    HW1 3294   2.158   1.388   2.572  0.0914  5.0518  0.5762
  824SOL    HW2 3295   2.036   1.434   2.645 -1.1657  1.9939  1.6317
  824SOL     MW 3296   2.080   1.367   2.606 -0.3016  1.5233 -0.1078
  825SOL     OW 3297   2.050   2.585   0.286  0.5465  0.2576 -0.3899
  825SOL    HW1 3298   2.060   2.530   0.364  1.0825  1.0096  1.5468
  825SOL    HW2 3299   2.099   2.552   0.210 -0.8700 -0.2963 -1.3199
  825SOL     MW 3300   2.058   2.573   0.286  0.4303  0.2837 -0.2571
  826SOL     OW 3301   1.927   2.382   0.529  0.6156 -0.6130  0.1150
  826SOL    HW1 3302   1.866   2.310   0.555 -2.4705 -0.2227  0.5506
  826SOL    HW2 3303   1.890   2.461   0.575 -0.1167  1.3817  0.2150
  826SOL     MW 3304   1.914   2.383   0.539  0.1118 -0.2983  0.1857
  827SOL     OW 3305   1.937   2.193   0.860  0.0575 -0.2855 -0.4099
  827SOL    HW1 3306   1.854   2.212   0.821  0.3603 -3.1697  1.0871
  827SOL    HW2 3307   1.921   2.110   0.908  1.5096  2.8803 -0.8857
  827SOL     MW 3308   1.924   2.184   0.861  0.2890 -0.2484 -0.2752
  828SOL     OW 3309   0.065   2.687   0.599 -0.0255 -0.2292 -0.3740
  828SOL    HW1 3310   0.157   2.676   0.612  0.8744  1.9062 -3.8657
  828SOL    HW2 3311   0.062   2.679   0.506  0.2059  0.0511 -0.4883
  828SOL     MW 3312   0.077   2.684   0.588  0.1238  0.0896 -0.8498
  829SOL     OW 3313   2.972   2.921   1.270  0.4311  0.1593 -0.1476
  829SOL    HW1 3314   2.897   2.935   1.217  1.2532  0.4660  0.3747
  829SOL    HW2 3315   3.021   2.847   1.234  0.0685 -1.1586 -0.7354
  829SOL     MW 3316   2.969   2.913   1.258  0.4917  0.0259 -0.1562
  830SOL     OW 3317   2.495   2.835   2.048  0.2790  0.3821  0.0212
  830SOL    HW1 3318   2.409   2.854   2.002 -2.3628 -1.8950  0.4289
  830SOL    HW2 3319   2.555   2.809   1.980  2.0786  0.9760  2.1108
  830SOL     MW 3320   2.492   2.834   2.033  0.1679  0.1600  0.3507
  831SOL     OW 3321   2.418   2.403   1.267 -0.0096  0.2653 -0.2408
  831SOL    HW1 3322   2.389   2.342   1.339 -2.0362 -0.8169 -0.1698
  831SOL    HW2 3323   2.507   2.368   1.244 -0.8318  1.6289  0.2392
  831SOL     MW 3324   2.426   2.391   1.273 -0.3854  0.3024 -0.1681
  832SOL     OW 3325   2.436   2.239   1.887 -0.5072  0.0523  0.0361
  832SOL    HW1 3326   2.445   2.336   1.924 -0.4345  1.5549 -2.2241
  832SOL    HW2 3327   2.522   2.196   1.903 -0.8870 -1.6471 -0.8817
  832SOL     MW 3328   2.449   2.246   1.894 -0.5478  0.0263 -0.3832
  833SOL     OW 3329   1.769   2.431   0.926 -0.0524 -0.1636  0.5283
  833SOL    HW1 3330   1.690   2.388   0.949  1.6373 -0.5790 -0.5833
  833SOL    HW2 3331   1.784   2.483   1.001  1.1366  1.8739  1.4649
  833SOL     MW 3332   1.760   2.432   0.939  0.3274  0.0505  0.5052
  834SOL     OW 3333   2.231   2.455   0.542  0.0325  0.0397 -0.1944
  834SOL    HW1 3334   2.153   2.401   0.565  1.2244 -1.1092 -0.1078
  834SOL    HW2 3335   2.264   2.397   0.471 -1.8912 -2.0432 -1.8032
  834SOL     MW 3336   2.225   2.440   0.536 -0.0641 -0.3867 -0.3952
  835SOL     OW 3337   1.814   2.574   0.682  0.9398 -0.2653 -0.3390
  835SOL    HW1 3338   1.805   2.518   0.776  0.1370 -0.4395  0.5251
  835SOL    HW2 3339   1.886   2.633   0.711  0.8374 -0.7982 -2.6176
  835SOL     MW 3340   1.822   2.575   0.698  0.8204 -0.3586 -0.5257
  836SOL     OW 3341   1.952   2.123   1.653 -0.2580  0.1667  0.8137
  836SOL    HW1 3342   2.046   2.131   1.644 -0.8485  0.5665  1.1523
  836SOL    HW2 3343   1.935   2.212   1.679 -0.0164  0.5851  1.8527
  836SOL     MW 3344   1.962   2.136   1.655 -0.3040  0.2746  0.9955
  837SOL     OW 3345   2.082   0.183   0.688  0.0499 -0.0485  0.4442
  837SOL    HW1 3346   1.987   0.207   0.664 -2.6624 -1.1762 -1.3755
  837SOL    HW2 3347   2.131   0.144   0.608  3.7831 -1.1843  1.8494
  837SOL     MW 3348   2.076   0.181   0.674  0.1846 -0.3472  0.3895
  838SOL     OW 3349   2.918   2.040   0.913 -0.7574 -0.0553  0.0267
  838SOL    HW1 3350   2.856   1.994   0.970 -0.8499 -0.4065 -1.1271
  838SOL    HW2 3351   2.924   1.981   0.837  0.4973  1.1552  0.9553
  838SOL     MW 3352   2.911   2.026   0.911 -0.6041  0.0581 -0.0030
  839SOL     OW 3353   1.507   2.340   0.930 -0.3887 -0.1202  0.0242
  839SOL    HW1 3354   1.479   2.429   0.957 -1.7446 -2.0030  1.8990
  839SOL    HW2 3355   1.508   2.277   1.006 -1.1193 -0.1019 -1.0180
  839SOL     MW 3356   1.503   2.344   0.944 -0.6640 -0.3662  0.1341
  840SOL     OW 3357   2.302   2.099   2.398 -0.0578 -0.1313 -0.4674
  840SOL    HW1 3358   2.270   2.171   2.335 -1.4009  1.3488  3.3266
  840SOL    HW2 3359   2.378   2.139   2.435 -5.1003  3.0399  1.7015
  840SOL     MW 3360   2.308   2.114   2.394 -0.9003  0.4824  0.3193
  841SOL     OW 3361   2.202   2.424   0.101 -0.5684  0.5366 -0.5196
  841SOL    HW1 3362   2.220   2.445   0.012  0.1356 -0.6716  1.4657
  841SOL    HW2 3363   2.174   2.331   0.086 -0.7092 -1.8273 -1.0987
  841SOL     MW 3364   2.201   2.414   0.087 -0.4941  0.0653 -0.3341
  842SOL     OW 3365   2.669   1.992   1.583  0.3978  0.0315  0.5298
  842SOL    HW1 3366   2.596   1.927   1.577  3.1482  2.3762 -2.7660
  842SOL    HW2 3367   2.663   2.038   1.500 -1.8099  1.4490 -2.1666
  842SOL     MW 3368   2.659   1.989   1.571  0.4694  0.5279 -0.2608
  843SOL     OW 3369   2.673   2.844   1.808 -0.0223  0.2839  0.5760
  843SOL    HW1 3370   2.752   2.792   1.821 -1.9511  1.7295  0.0144
  843SOL    HW2 3371   2.619   2.777   1.771 -0.7290  4.1271 -0.8940
  843SOL     MW 3372   2.676   2.828   1.805 -0.3700  0.9817  0.3079
  844SOL     OW 3373   2.669   2.316   1.224 -0.2933 -0.0009  0.0144
  844SOL    HW1 3374   2.713   2.338   1.141 -0.6366  0.2903  3.2451
  844SOL    HW2 3375   2.725   2.334   1.297 -0.5623 -0.2786 -1.3836
  844SOL     MW 3376   2.682   2.321   1.223 -0.3741  0.0009  0.2562
  845SOL     OW 3377   2.854   2.480   0.281  0.5957  0.6688  0.3113
  845SOL    HW1 3378   2.790   2.408   0.310 -1.5650  3.1977 -1.4342
  845SOL    HW2 3379   2.877   2.508   0.368 -0.8016  2.3707  0.5199
  845SOL     MW 3380   2.848   2.474   0.296  0.1263  1.2270  0.1085
  846SOL     OW 3381   1.525   2.850   0.829  0.5421 -0.3484 -0.0166
  846SOL    HW1 3382   1.615   2.882   0.839 -1.8528  2.1576 -0.3739
  846SOL    HW2 3383   1.472   2.911   0.879 -0.3260 -0.3582  1.8570
  846SOL     MW 3384   1.530   2.862   0.837  0.1116 -0.0190  0.1835
  847SOL     OW 3385   2.518   1.961   0.170  0.0616  0.3860  0.0407
  847SOL    HW1 3386   2.555   1.885   0.222 -2.5683 -0.8629 -2.4197
  847SOL    HW2 3387   2.462   1.928   0.098 -0.5608  1.0018  5.0987
  847SOL     MW 3388   2.515   1.946   0.167 -0.3675  0.3025  0.3834
  848SOL     OW 3389   2.546   2.102   1.336  0.3303  0.4990  0.1310
  848SOL    HW1 3390   2.598   2.159   1.287 -3.0899 -1.4294  0.6333
  848SOL    HW2 3391   2.550   2.014   1.297  2.3130  1.4765 -0.5677
  848SOL     MW 3392   2.554   2.098   1.324  0.1407  0.3735  0.1051
  849SOL     OW 3393   2.008   2.796   0.762  0.1052  0.6489  0.1734
  849SOL    HW1 3394   2.017   2.735   0.837  1.7730  0.0601  0.8003
  849SOL    HW2 3395   2.090   2.773   0.716  0.0060 -2.3996  2.8523
  849SOL     MW 3396   2.020   2.785   0.766  0.3122  0.1690  0.6096
  850SOL     OW 3397   2.276   1.906   1.713 -0.4845 -0.7557 -0.7311
  850SOL    HW1 3398   2.210   1.883   1.642 -2.3779  0.0418  4.0524
  850SOL    HW2 3399   2.281   2.002   1.728  0.2220 -0.8382 -0.5412
  850SOL     MW 3400   2.268   1.916   1.706 -0.6411 -0.6614 -0.0749
  851SOL     OW 3401   2.368   2.357   0.313 -0.0118 -0.7193  0.0689
  851SOL    HW1 3402   2.332   2.357   0.226  0.5398 -0.8855  1.9775
  851SOL    HW2 3403   2.433   2.423   0.309 -0.1971  0.7552 -1.3749
  851SOL     MW 3404   2.372   2.366   0.301  0.0365 -0.5467  0.1302
  852SOL     OW 3405   2.340   2.083   0.340  0.0860 -0.1558  0.1386
  852SOL    HW1 3406   2.380   2.169   0.340 -0.4923 -0.9553 -2.1372
  852SOL    HW2 3407   2.403   2.029   0.286 -0.5882  0.1390  0.1700
  852SOL     MW 3408   2.354   2.088   0.333 -0.0792 -0.2224 -0.1575
  853SOL     OW 3409   2.474   2.505   1.962  0.4358 -0.0977 -0.0816
  853SOL    HW1 3410   2.492   2.555   1.881  1.2066  1.1317 -0.6077
  853SOL    HW2 3411   2.560   2.495   2.001 -0.8969 -0.3383  0.6681
  853SOL     MW 3412   2.488   2.511   1.956  0.3616  0.0327 -0.0521
  854SOL     OW 3413   2.877   2.278   0.782 -0.1510 -1.1281  0.0796
  854SOL    HW1 3414   2.793   2.267   0.733 -0.0859  1.3530 -1.3333
  854SOL    HW2 3415   2.883   2.202   0.848 -1.3696 -0.1303 -0.0136
  854SOL     MW 3416   2.867   2.267   0.784 -0.3032 -0.6691 -0.1191
  855SOL     OW 3417   2.671   2.283   0.358 -0.4942  0.2186  0.0216
  855SOL    HW1 3418   2.629   2.322   0.432 -2.3175  0.4865  1.1537
  855SOL    HW2 3419   2.737   2.223   0.386  2.7754  1.9246 -1.0356
  855SOL     MW 3420   2.674   2.280   0.371 -0.3033  0.4790  0.0315
  856SOL     OW 3421   2.139   1.889   0.184 -0.2008  0.4546  0.8025
  856SOL    HW1 3422   2.062   1.896   0.238  1.5554  1.4474 -1.7996
  856SOL    HW2 3423   2.192   1.964   0.194 -0.0465 -0.1849 -0.3471
  856SOL     MW 3424   2.136   1.900   0.192  0.0512  0.5012  0.3075
  857SOL     OW 3425   2.493   1.986   0.535  0.1229 -0.0882  0.8024
  857SOL    HW1 3426   2.441   2.041   0.474 -3.4006  2.0410 -1.1377
  857SOL    HW2 3427   2.427   1.916   0.525 -1.8841  0.2086 -1.3744
  857SOL     MW 3428   2.478   1.984   0.526 -0.6068  0.2319  0.2592
  858SOL     OW 3429   2.867   2.655   1.767 -0.1975 -0.3461  0.1386
  858SOL    HW1 3430   2.961   2.694   1.778  2.3794  0.1641 -3.8725
  858SOL    HW2 3431   2.869   2.564   1.790  2.9257  0.3002 -0.3073
  858SOL     MW 3432   2.880   2.648   1.771  0.5546 -0.1935 -0.4494
  859SOL     OW 3433   2.128   2.562   0.937  0.6572 -0.0804 -0.1747
  859SOL    HW1 3434   2.086   2.512   1.009  0.8436  0.7834 -0.4817
  859SOL    HW2 3435   2.173   2.495   0.887 -2.4832 -0.7690 -1.4864
  859SOL     MW 3436   2.128   2.546   0.940  0.2674 -0.0573 -0.3883
  860SOL     OW 3437   2.664   2.611   0.119 -0.0262  0.0142  0.1119
  860SOL    HW1 3438   2.738   2.607   0.191  0.2374  1.4936 -2.5232
  860SOL    HW2 3439   2.679   2.700   0.080  1.6853 -2.6118  0.4857
  860SOL     MW 3440   2.676   2.622   0.124  0.2344 -0.1371 -0.1865
  861SOL     OW 3441   1.581   2.143   1.090  0.3107  0.5368 -0.4706
  861SOL    HW1 3442   1.586   2.219   1.147 -0.4772  1.8692 -0.0769
  861SOL    HW2 3443   1.518   2.088   1.141  0.6003  0.0753 -0.7446
  861SOL     MW 3444   1.574   2.146   1.104  0.2450  0.6518 -0.4548
  862SOL     OW 3445   2.479   1.802   1.562  0.0421  0.1113 -0.1028
  862SOL    HW1 3446   2.405   1.838   1.612 -0.0385 -0.8507  1.6877
  862SOL    HW2 3447   2.445   1.787   1.474  2.3904 -0.0560 -0.8118
  862SOL     MW 3448   2.465   1.804   1.557  0.3413 -0.0377  0.0399
  863SOL     OW 3449   3.016   1.783   1.027  0.2399 -0.7378  0.5095
  863SOL    HW1 3450   3.100   1.784   1.077 -0.2479 -2.9774 -1.6481
  863SOL    HW2 3451   2.982   1.871   1.043  0.3519  0.4515 -0.5932
  863SOL     MW 3452   3.023   1.795   1.035  0.1903 -0.8764  0.0793
  864SOL     OW 3453   3.043   1.838   0.744 -0.0220  0.1543  0.2134
  864SOL    HW1 3454   3.022   1.783   0.819  1.3627 -3.4008  0.8100
  864SOL    HW2 3455   3.024   1.779   0.666  0.0398 -1.6093 -1.5061
  864SOL     MW 3456   3.037   1.823   0.743  0.1688 -0.5475  0.0653
  865SOL     OW 3457   2.483   2.200   0.008 -0.1803 -0.0759  0.3066
  865SOL    HW1 3458   2.477   2.119   0.060  0.0854  0.5683  1.2520
  865SOL    HW2 3459   2.453   2.185  -0.082 -1.1648  1.1378 -1.1451
  865SOL     MW 3460   2.479   2.187   0.003 -0.2752  0.1692  0.2398
  866SOL     OW 3461   2.661   2.372   1.694  0.2194  0.1019 -0.4512
  866SOL    HW1 3462   2.647   2.289   1.742  0.1991  1.1674  0.7431
  866SOL    HW2 3463   2.703   2.344   1.607 -1.4741 -2.2715 -0.0267
  866SOL     MW 3464   2.665   2.358   1.689 -0.0067 -0.0706 -0.2376
  867SOL     OW 3465   0.030   2.720   1.787  0.0081 -0.0675  0.1410
  867SOL    HW1 3466   0.071   2.754   1.870 -0.8942 -0.5493 -2.7461
  867SOL    HW2 3467   0.007   2.800   1.734  2.7480  0.3392 -0.8502
  867SOL     MW 3468   0.033   2.735   1.791  0.2506 -0.0774 -0.3707
  868SOL     OW 3469   2.787   2.614   0.536 -0.5746  0.3046 -0.1311
  868SOL    HW1 3470   2.705   2.569   0.556 -0.9264 -0.3844 -0.1104
  868SOL    HW2 3471   2.757   2.694   0.491 -2.4347  1.2527  1.5123
  868SOL     MW 3472   2.772   2.618   0.533 -0.8664  0.3388  0.0884
  869SOL     OW 3473   2.073   2.322   1.095  0.2539 -0.3023 -0.8042
  869SOL    HW1 3474   2.167   2.313   1.082  0.3076 -0.8944  3.4296
  869SOL    HW2 3475   2.022   2.292   1.018  1.3616  0.2500 -0.9351
  869SOL     MW 3476   2.079   2.316   1.083  0.4071 -0.3075 -0.2629
  870SOL     OW 3477   2.139   0.060   0.449 -0.1901 -0.0158 -0.3531
  870SOL    HW1 3478   2.206   0.114   0.396  1.2410 -0.1693  3.8537
  870SOL    HW2 3479   2.171  -0.028   0.442 -0.7792 -1.4587  0.4817
  870SOL     MW 3480   2.152   0.056   0.442 -0.0790 -0.2264  0.3121
  871SOL     OW 3481   2.499   2.050   0.965 -0.7730 -0.8176 -0.3700
  871SOL    HW1 3482   2.435   1.994   0.917 -0.8273 -0.3221  2.1125
  871SOL    HW2 3483   2.439   2.116   0.997  0.5429  1.0034 -2.4739
  871SOL     MW 3484   2.482   2.051   0.963 -0.6065 -0.5119 -0.3200
  872SOL     OW 3485   2.020   2.523   1.560  0.1845 -0.5691  0.0397
  872SOL    HW1 3486   1.986   2.550   1.646  0.8981  1.9058 -1.4473
  872SOL    HW2 3487   1.957   2.456   1.536 -1.7435 -1.4037  0.5545
  872SOL     MW 3488   2.007   2.518   1.568  0.0243 -0.3527 -0.0886
  873SOL     OW 3489   2.914   2.019   1.968 -0.4283  0.4632 -0.2734
  873SOL    HW1 3490   2.908   2.072   2.050  1.5899 -0.2440  1.1812
  873SOL    HW2 3491   3.001   2.029   1.937  2.2760  0.9339  2.1276
  873SOL     MW 3492   2.925   2.027   1.975  0.1948  0.4320  0.2353
  874SOL     OW 3493   2.310   1.430   2.463  0.2336 -0.1271 -0.1364
  874SOL    HW1 3494   2.267   1.390   2.383  2.1921 -0.8120  0.0007
  874SOL    HW2 3495   2.401   1.394   2.468  0.9991 -1.5351 -1.0151
  874SOL     MW 3496   2.317   1.420   2.453  0.5930 -0.4033 -0.2342
  875SOL     OW 3497   2.333   2.282   1.022 -0.2558  0.2581 -0.4022
  875SOL    HW1 3498   2.360   2.342   0.950 -2.4090  0.4367 -1.3404
  875SOL    HW2 3499   2.356   2.331   1.103 -3.0300  2.1719 -0.6892
  875SOL     MW 3500   2.340   2.297   1.023 -0.9059  0.5342 -0.5638
  876SOL     OW 3501   3.059   2.282   1.300 -0.0028  0.3084  0.2060
  876SOL    HW1 3502   3.094   2.336   1.222 -1.0353  0.8116 -0.3108
  876SOL    HW2 3503   3.127   2.297   1.369  2.4097 -2.7643 -0.6254
  876SOL     MW 3504   3.073   2.291   1.299  0.1793 -0.0306  0.0281
  877SOL     OW 3505   0.006   2.764   0.310  0.1625  0.5304 -0.3312
  877SOL    HW1 3506   0.084   2.823   0.308  1.0964 -0.7082  3.0686
  877SOL    HW2 3507   0.013   2.714   0.228  1.4299 -1.3119  0.1292
  877SOL     MW 3508   0.017   2.765   0.299  0.4529  0.1239  0.1781
  878SOL     OW 3509   2.383   1.825   1.309 -0.4741  0.2186 -0.2706
  878SOL    HW1 3510   2.314   1.763   1.268  1.8620 -0.5175 -0.7146
  878SOL    HW2 3511   2.459   1.793   1.264  0.7019 -0.1789 -1.3904
  878SOL     MW 3512   2.384   1.813   1.298 -0.0107  0.0690 -0.4770
  879SOL     OW 3513   2.732   2.442   0.973  0.6193  0.3372  0.0104
  879SOL    HW1 3514   2.792   2.513   1.003 -0.1209 -1.2426 -0.8886
  879SOL    HW2 3515   2.783   2.398   0.909 -0.8894  0.9436 -0.2178
  879SOL     MW 3516   2.746   2.446   0.968  0.3225  0.2088 -0.1383
  880SOL     OW 3517   2.618   2.163   0.739  0.4425  0.1062 -0.0269
  880SOL    HW1 3518   2.570   2.156   0.820 -2.7919  0.0874  2.5621
  880SOL    HW2 3519   2.586   2.092   0.686 -1.8168 -0.3085  1.2631
  880SOL     MW 3520   2.607   2.153   0.743 -0.2824  0.0490  0.4849
  881SOL     OW 3521   2.913   2.740   0.763  0.5490  0.0164 -0.0729
  881SOL    HW1 3522   2.862   2.690   0.699 -1.8316 -2.2295 -1.2457
  881SOL    HW2 3523   3.004   2.745   0.722  0.4878  0.2203 -0.4011
  881SOL     MW 3524   2.918   2.734   0.749  0.2268 -0.2530 -0.2710
  882SOL     OW 3525   2.231   2.901   1.955  0.3159  0.5469 -0.2082
  882SOL    HW1 3526   2.216   2.881   1.855  0.6377  0.3801  1.3984
  882SOL    HW2 3527   2.188   2.824   1.996 -3.2894 -3.1279  0.5006
  882SOL     MW 3528   2.223   2.888   1.948 -0.1173  0.0400  0.0973
  883SOL     OW 3529   2.307   2.205   1.437  0.0932 -0.2366 -0.6276
  883SOL    HW1 3530   2.393   2.164   1.410  0.6544  0.2905  1.4021
  883SOL    HW2 3531   2.241   2.176   1.372  0.0550  0.0453 -0.0648
  883SOL     MW 3532   2.309   2.196   1.425  0.1622 -0.1299 -0.2855
  884SOL     OW 3533   1.943   1.749   1.053  0.0312  0.0915 -0.1019
  884SOL    HW1 3534   1.890   1.827   1.042  2.0304  0.5649  0.6429
  884SOL    HW2 3535   2.034   1.783   1.037 -3.7563  1.7060  1.9499
  884SOL     MW 3536   1.948   1.764   1.050 -0.2048  0.3670  0.2671
  885SOL     OW 3537   2.891   2.379   1.843 -0.0096  0.2352 -0.2398
  885SOL    HW1 3538   2.946   2.303   1.854  0.3617 -0.2104 -0.1176
  885SOL    HW2 3539   2.812   2.363   1.798 -1.0851  1.4065  1.5685
  885SOL     MW 3540   2.888   2.367   1.839 -0.1025  0.3310  0.0149
  886SOL     OW 3541   2.807   2.306   1.457  0.0164  0.1005  0.2621
  886SOL    HW1 3542   2.889   2.279   1.420 -2.4534  1.8400  1.7687
  886SOL    HW2 3543   2.810   2.405   1.461 -1.4911 -0.1128 -0.0153
  886SOL     MW 3544   2.818   2.316   1.452 -0.5084  0.3019  0.4243
  887SOL     OW 3545   2.284   2.627   1.572 -0.2307  0.1892  0.3373
  887SOL    HW1 3546   2.310   2.606   1.481  0.2093  1.6013 -1.7103
  887SOL    HW2 3547   2.210   2.570   1.596  1.7079  0.6445  2.2152
  887SOL     MW 3548   2.278   2.616   1.563  0.0831  0.4356  0.3149
  888SOL     OW 3549   1.889   2.089   1.379  0.5924  0.7324 -0.2948
  888SOL    HW1 3550   1.973   2.083   1.332  0.8714  0.3369 -0.1986
  888SOL    HW2 3551   1.922   2.078   1.466 -0.3761  0.3805  0.0854
  888SOL     MW 3552   1.904   2.087   1.385  0.5014  0.6338 -0.2320
  889SOL     OW 3553   2.303   2.042   2.065  0.3863 -0.3681  0.0012
  889SOL    HW1 3554   2.392   2.022   2.102  2.7021  0.0015 -0.2739
  889SOL    HW2 3555   2.318   2.121   2.012 -2.2834  1.5051  0.4384
  889SOL     MW 3556   2.317   2.050   2.063  0.3396 -0.0722  0.0226
  890SOL     OW 3557   0.059   2.358   0.146 -0.5315 -0.1695  0.5118
  890SOL    HW1 3558   0.014   2.446   0.134  1.4270 -0.0529  2.2199
  890SOL    HW2 3559   0.058   2.332   0.239  1.9285 -1.3564 -1.1779
  890SOL     MW 3560   0.053   2.366   0.157  0.0515 -0.3107  0.5142
  891SOL     OW 3561   3.029   2.008   1.297  0.4475  0.2819 -0.3950
  891SOL    HW1 3562   3.119   1.998   1.308 -0.7217 -1.9704  1.2014
  891SOL    HW2 3563   3.033   2.099   1.276  1.4700 -2.6538  3.1972
  891SOL     MW 3564   3.041   2.019   1.296  0.4281 -0.4026  0.2896
  892SOL     OW 3565   2.451   2.316   2.753 -0.4558 -0.2082 -0.2853
  892SOL    HW1 3566   2.405   2.241   2.790  2.2578 -1.2122  3.0002
  892SOL    HW2 3567   2.537   2.341   2.801  2.9088  0.3520  0.2609
  892SOL     MW 3568   2.456   2.310   2.765  0.3462 -0.2668  0.2202
  893SOL     OW 3569   1.610   2.410   1.236 -0.3830  0.5366 -0.0761
  893SOL    HW1 3570   1.548   2.447   1.300  1.6476 -0.5049 -0.8347
  893SOL    HW2 3571   1.693   2.397   1.282 -1.5915 -1.3115  1.8016
  893SOL     MW 3572   1.613   2.413   1.250 -0.2745  0.1554  0.0716
  894SOL     OW 3573   2.731   1.884   0.441 -0.0834 -0.4150  0.3917
  894SOL    HW1 3574   2.645   1.923   0.436  1.9702 -2.2320 -2.9188
  894SOL    HW2 3575   2.760   1.835   0.356 -0.1045 -2.9579 -0.1046
  894SOL     MW 3576   2.723   1.882   0.429  0.1847 -0.9902 -0.1105
  895SOL     OW 3577   2.114   2.091   1.236 -0.3628  0.2472  0.3076
  895SOL    HW1 3578   2.086   2.179   1.186 -0.2735  0.6454  1.2638
  895SOL    HW2 3579   2.134   2.034   1.163  0.9136  1.1214  2.3304
  895SOL     MW 3580   2.113   2.095   1.220 -0.1826  0.4151  0.7006
  896SOL     OW 3581   2.295   2.796   1.081  0.6310  0.0573 -0.1607
  896SOL    HW1 3582   2.324   2.791   1.167  1.1173 -0.0094 -0.3652
  896SOL    HW2 3583   2.197   2.783   1.095  3.2329  1.3987  0.2933
  896SOL     MW 3584   2.286   2.794   1.095  1.0385  0.2255 -0.1278
  897SOL     OW 3585   3.037   2.995   0.011  0.5716  0.6990 -0.6215
  897SOL    HW1 3586   3.079   2.921  -0.042  1.2555 -4.1382 -1.7195
  897SOL    HW2 3587   2.950   2.958   0.030 -0.2269 -1.1675  0.7064
  897SOL     MW 3588   3.031   2.980   0.007  0.5565 -0.1855 -0.5912
  898SOL     OW 3589   2.096   0.199   1.459 -0.0007 -0.1025  0.5589
  898SOL    HW1 3590   2.075   0.108   1.486  1.3842 -1.8610 -2.5129
  898SOL    HW2 3591   2.089   0.202   1.361  2.5297  0.5612  1.2279
  898SOL     MW 3592   2.092   0.187   1.449  0.5159 -0.2469  0.2419
  899SOL     OW 3593   2.910   2.971   0.638  0.5569 -0.2042 -0.2990
  899SOL    HW1 3594   2.904   2.887   0.690  2.5667 -2.5381  0.9965
  899SOL    HW2 3595   2.839   3.033   0.666  0.5439  1.5275  1.0315
  899SOL     MW 3596   2.900   2.968   0.648  0.8204 -0.2836  0.0475
  900SOL     OW 3597   0.112   2.411   1.092 -0.5655  0.1259 -0.3264
  900SOL    HW1 3598   0.082   2.500   1.079  1.5586 -1.4845 -0.5439
  900SOL    HW2 3599   0.100   2.361   1.009 -1.4176 -0.2364 -0.2767
  900SOL     MW 3600   0.107   2.417   1.079 -0.3976 -0.1344 -0.3485
  901SOL     OW 3601   1.728   2.833   1.773 -0.2086  0.0863 -0.0714
  901SOL    HW1 3602   1.796   2.759   1.780 -0.6804  0.1488 -0.0664
  901SOL    HW2 3603   1.715   2.841   1.678 -1.2080  0.6871 -0.7093
  901SOL     MW 3604   1.735   2.824   1.761 -0.4027  0.1738 -0.1549
  902SOL     OW 3605   2.697   2.131   1.818  0.4322 -0.3833 -0.6439
  902SOL    HW1 3606   2.680   2.079   1.741 -0.1425  0.4769 -0.5113
  902SOL    HW2 3607   2.771   2.094   1.869 -1.1193 -0.6131  1.4312
  902SOL     MW 3608   2.704   2.119   1.814  0.1517 -0.3001 -0.3526
  903SOL     OW 3609   1.594   2.728   0.568 -0.0932 -0.5047  0.5164
  903SOL    HW1 3610   1.667   2.678   0.611  0.3760  1.1826 -0.0480
  903SOL    HW2 3611   1.569   2.776   0.643 -0.6350  0.1959  0.3762
  903SOL     MW 3612   1.600   2.728   0.584 -0.1027 -0.1896  0.4234
  904SOL     OW 3613   2.524   2.607   1.713  0.5359 -1.1242 -0.1290
  904SOL    HW1 3614   2.437   2.604   1.668 -2.1661 -1.0477  3.1954
  904SOL    HW2 3615   2.577   2.537   1.684 -0.4994 -1.6326 -0.2537
  904SOL     MW 3616   2.519   2.597   1.703  0.0428 -1.1812  0.2932
  905SOL     OW 3617   2.283   2.546   2.173 -0.4062 -0.3000 -0.3533
  905SOL    HW1 3618   2.339   2.528   2.096 -3.6706 -0.6656 -0.3780
  905SOL    HW2 3619   2.264   2.458   2.206  1.6840 -1.3296  0.7919
  905SOL     MW 3620   2.288   2.532   2.167 -0.5611 -0.4841 -0.2054
  906SOL     OW 3621   2.433   2.478   0.857  0.0122  0.3778  0.0762
  906SOL    HW1 3622   2.518   2.463   0.900 -0.3274 -3.6683 -3.8352
  906SOL    HW2 3623   2.418   2.571   0.866 -1.1941 -5.4618 -0.5175
  906SOL     MW 3624   2.442   2.488   0.864 -0.1918 -0.9265 -0.5182
  907SOL     OW 3625   2.627   2.793   1.352  0.1751  0.3240 -0.1001
  907SOL    HW1 3626   2.665   2.862   1.403  1.3610 -0.6235 -0.5678
  907SOL    HW2 3627   2.681   2.792   1.272  0.4894 -1.4227  0.3986
  907SOL     MW 3628   2.639   2.802   1.348  0.3731 -0.0315 -0.0960
  908SOL     OW 3629   2.725   2.339   3.073 -0.6725 -0.1541  0.5713
  908SOL    HW1 3630   2.663   2.277   3.101  0.6619  0.7487 -4.2831
  908SOL    HW2 3631   2.703   2.418   3.124 -0.8605 -1.4834  1.1387
  908SOL     MW 3632   2.714   2.341   3.083 -0.5213 -0.2104  0.0057
  909SOL     OW 3633   1.715   0.086   1.172 -0.0770 -0.7675  0.1669
  909SOL    HW1 3634   1.725   0.150   1.098  0.5754  0.7731  1.9486
  909SOL    HW2 3635   1.759   0.132   1.249  2.3956  1.1774  0.3308
  909SOL     MW 3636   1.722   0.100   1.172  0.3353 -0.3076  0.4236
  910SOL     OW 3637   2.284   1.772   0.436 -0.6533  1.2486 -0.7287
  910SOL    HW1 3638   2.243   1.689   0.452 -0.1262  1.3998 -0.5102
  910SOL    HW2 3639   2.261   1.796   0.346  1.2447 -0.7351 -2.3339
  910SOL     MW 3640   2.275   1.764   0.426 -0.3333  1.0068 -0.9116
  911SOL     OW 3641   2.259   2.187   1.704  0.4925 -0.3108 -0.4904
  911SOL    HW1 3642   2.336   2.213   1.756  0.3335  1.9463  1.4122
  911SOL    HW2 3643   2.282   2.193   1.610  0.0132  0.1104 -0.7728
  911SOL     MW 3644   2.272   2.191   1.699  0.4083  0.0426 -0.2767
  912SOL     OW 3645   2.937   1.925   1.535 -0.3185 -0.1382  0.0519
  912SOL    HW1 3646   2.962   1.969   1.447 -1.0825  0.3653  2.1961
  912SOL    HW2 3647   2.862   1.973   1.574 -1.2654 -1.7212 -0.1543
  912SOL     MW 3648   2.930   1.937   1.529 -0.5443 -0.2806  0.3076
  913SOL     OW 3649   2.627   3.042   0.363 -0.1205  0.1176 -0.0741
  913SOL    HW1 3650   2.708   2.987   0.375 -1.3175 -2.3730 -1.1157
  913SOL    HW2 3651   2.575   2.978   0.320  3.8139  2.0370  0.1290
  913SOL     MW 3652   2.631   3.026   0.359  0.2407  0.0422 -0.1847
  914SOL     OW 3653   2.718   1.748   3.063 -0.1340 -0.0928 -0.3625
  914SOL    HW1 3654   2.728   1.821   2.997 -0.6603  1.3392 -2.7154
  914SOL    HW2 3655   2.628   1.754   3.099  1.1535 -2.5100 -2.2400
  914SOL     MW 3656   2.707   1.758   3.059 -0.0335 -0.2228 -0.9206
  915SOL     OW 3657   1.702   0.231   0.236  0.0933 -0.0060 -0.3309
  915SOL    HW1 3658   1.797   0.197   0.246  1.3647 -2.3468 -1.9465
  915SOL    HW2 3659   1.646   0.156   0.204  0.7182 -0.3186  0.8870
  915SOL     MW 3660   1.707   0.216   0.233  0.3435 -0.3561 -0.3834
  916SOL     OW 3661   1.807   2.110   1.895  0.4650  0.3525  0.0094
  916SOL    HW1 3662   1.833   2.201   1.884 -1.3212 -1.3698 -0.4851
  916SOL    HW2 3663   1.852   2.063   1.825 -1.0652 -1.8218  0.4774
  916SOL     MW 3664   1.816   2.116   1.884  0.0274 -0.1616  0.0059
  917SOL     OW 3665   2.543   2.220   2.497 -0.3554  0.4567 -0.0229
  917SOL    HW1 3666   2.512   2.254   2.583 -2.5380  0.6371  1.0550
  917SOL    HW2 3667   2.614   2.278   2.461  1.0288 -0.3937 -0.6890
  917SOL     MW 3668   2.548   2.232   2.504 -0.4608  0.3683  0.0314
  918SOL     OW 3669   1.999   1.607   2.721  0.0916 -0.4494 -0.0314
  918SOL    HW1 3670   1.929   1.630   2.658 -0.8431 -1.1624  1.9007
  918SOL    HW2 3671   2.078   1.653   2.690 -2.1336  0.3591 -1.0676
  918SOL     MW 3672   2.001   1.616   2.708 -0.3254 -0.4368  0.0868
  919SOL     OW 3673   3.082   2.336   2.264  0.0940 -0.3104 -0.4217
  919SOL    HW1 3674   3.028   2.265   2.230 -3.1651  2.4814 -0.4973
  919SOL    HW2 3675   3.137   2.373   2.198 -2.3639 -0.1265  0.6882
  919SOL     MW 3676   3.082   2.331   2.251 -0.6603  0.0822 -0.2852
  920SOL     OW 3677   2.711   2.857   0.007  0.0384  0.3239  0.2055
  920SOL    HW1 3678   2.622   2.873   0.040  0.2220  0.3953 -1.9336
  920SOL    HW2 3679   2.685   2.795  -0.068 -1.0393 -0.2337  1.2818
  920SOL     MW 3680   2.696   2.851   0.002 -0.0796  0.2597  0.0653
  921SOL     OW 3681   2.438   2.568   2.615 -0.1552 -0.2936  0.7975
  921SOL    HW1 3682   2.500   2.577   2.549 -2.8370  1.2279 -0.8495
  921SOL    HW2 3683   2.466   2.487   2.660 -2.2957  0.3544 -0.6631
  921SOL     MW 3684   2.450   2.559   2.612 -0.7914 -0.0074  0.3875
  922SOL     OW 3685   2.047   2.854   0.300 -0.3231 -0.4992 -0.1356
  922SOL    HW1 3686   2.036   2.860   0.204  0.8560 -1.1629  0.2855
  922SOL    HW2 3687   2.066   2.763   0.314 -1.8063  1.0620 -2.0371
  922SOL     MW 3688   2.048   2.843   0.289 -0.3632 -0.3808 -0.3310
  923SOL     OW 3689   2.142   2.832   1.698 -0.0705  0.5035 -0.5944
  923SOL    HW1 3690   2.194   2.778   1.638  1.3361  1.5207  0.8778
  923SOL    HW2 3691   2.112   2.903   1.641 -0.2553  1.2202 -1.6965
  923SOL     MW 3692   2.145   2.835   1.683  0.0907  0.7322 -0.5456
  924SOL     OW 3693   1.151   2.667   2.524 -0.7822  0.6837  0.3236
  924SOL    HW1 3694   1.222   2.728   2.539  1.2328  0.2007 -1.3900
  924SOL    HW2 3695   1.145   2.603   2.591 -2.0315 -0.0145 -1.8179
  924SOL     MW 3696   1.160   2.666   2.535 -0.6812  0.5279 -0.1851
  925SOL     OW 3697   3.032   0.186   2.649  0.8253 -0.2743 -0.3294
  925SOL    HW1 3698   3.006   0.217   2.560 -0.3255 -0.9476  0.9696
  925SOL    HW2 3699   3.012   0.261   2.701  1.8068  0.5387  1.9673
  925SOL     MW 3700   3.026   0.200   2.644  0.8029 -0.2559  0.1450
  926SOL     OW 3701   2.718   2.406   2.055 -0.7139  0.2850 -0.2937
  926SOL    HW1 3702   2.767   2.459   2.118 -1.0058  0.3830 -1.5132
  926SOL    HW2 3703   2.791   2.379   1.992  3.2344  5.3323 -1.4480
  926SOL     MW 3704   2.734   2.410   2.055 -0.2315  0.9639 -0.6069
  927SOL     OW 3705   2.341   0.122   0.299  0.5691 -0.1103  0.7193
  927SOL    HW1 3706   2.432   0.145   0.299 -3.0702 -0.3590  1.3313
  927SOL    HW2 3707   2.325   0.105   0.202  0.3706 -0.7147 -1.4824
  927SOL     MW 3708   2.351   0.123   0.286  0.0627 -0.2228  0.5095
  928SOL     OW 3709   2.166   2.414   1.819 -0.2437 -0.5550 -1.1505
  928SOL    HW1 3710   2.170   2.392   1.915  1.2322  0.4951  0.3693
  928SOL    HW2 3711   2.193   2.336   1.771 -0.8457  0.1835 -0.3001
  928SOL     MW 3712   2.170   2.401   1.825 -0.1284 -0.3190 -0.8378
  929SOL     OW 3713   2.745   2.387   2.450 -0.1672 -0.1301  0.2289
  929SOL    HW1 3714   2.807   2.426   2.393  0.9759 -3.0591 -1.9111
  929SOL    HW2 3715   2.792   2.357   2.529 -1.2317 -3.1258 -1.0132
  929SOL     MW 3716   2.759   2.389   2.453 -0.1568 -0.9118 -0.2174
  930SOL     OW 3717   2.011   2.876   2.733 -0.0485 -0.4306  0.2244
  930SOL    HW1 3718   2.051   2.789   2.760  1.8206 -2.2546 -0.0739
  930SOL    HW2 3719   2.081   2.929   2.704  0.4126  0.0783  4.8377
  930SOL     MW 3720   2.025   2.871   2.733  0.2590 -0.6041  0.7937
  931SOL     OW 3721   3.026   2.744   2.345  0.2765  0.2113  0.8004
  931SOL    HW1 3722   3.073   2.749   2.428 -0.0321  0.2254  0.4727
  931SOL    HW2 3723   3.079   2.764   2.263 -0.6651 -1.1814 -2.8007
  931SOL     MW 3724   3.039   2.747   2.345  0.1115  0.0294  0.2820
  932SOL     OW 3725   2.886   1.965   2.561  0.8401 -0.2061  0.0452
  932SOL    HW1 3726   2.973   2.005   2.550 -1.3691  1.4769  0.4171
  932SOL    HW2 3727   2.847   1.961   2.472 -0.6976  0.4714 -0.8356
  932SOL     MW 3728   2.892   1.969   2.548  0.3457  0.1053 -0.0219
  933SOL     OW 3729   2.072   2.842   2.266  0.7490 -0.3596 -0.4374
  933SOL    HW1 3730   2.151   2.894   2.274 -0.8144  2.5092 -0.2474
  933SOL    HW2 3731   1.996   2.904   2.255 -2.0495  1.6043  0.0476
  933SOL     MW 3732   2.072   2.857   2.265  0.1735  0.2780 -0.3484
  934SOL     OW 3733   2.027   2.706   2.504 -0.0690 -0.0812  0.4860
  934SOL    HW1 3734   2.026   2.781   2.565  0.7453  0.7310 -0.0952
  934SOL    HW2 3735   2.050   2.751   2.418 -0.4232  2.1398  2.0029
  934SOL     MW 3736   2.030   2.722   2.501 -0.0083  0.3190  0.6095
  935SOL     OW 3737   2.685   1.514   1.803  0.1273 -0.0962  0.0665
  935SOL    HW1 3738   2.775   1.510   1.765  1.7241 -2.0218  3.9872
  935SOL    HW2 3739   2.642   1.519   1.723  1.8981  0.5780 -2.3201
  935SOL     MW 3740   2.691   1.514   1.788  0.5716 -0.2613  0.2689
  936SOL     OW 3741   3.000   2.206   3.055  0.4997 -0.2305  0.2077
  936SOL    HW1 3742   3.055   2.253   3.119 -0.6148 -0.6642  1.6436
  936SOL    HW2 3743   2.911   2.238   3.053 -0.4638 -0.8303 -0.3675
  936SOL     MW 3744   2.996   2.217   3.063  0.2255 -0.3668  0.3213
  937SOL     OW 3745   1.951   2.131   2.609  0.3442 -0.1909 -0.1829
  937SOL    HW1 3746   2.016   2.091   2.673 -0.0592  1.4066 -1.0087
  937SOL    HW2 3747   1.965   2.090   2.523  0.8748 -0.0880 -1.3663
  937SOL     MW 3748   1.961   2.120   2.606  0.3610  0.0335 -0.4480
  938SOL     OW 3749   2.284   1.776   1.976  0.1824  0.0551 -0.0590
  938SOL    HW1 3750   2.289   1.792   1.880  1.2437  0.3721  0.3766
  938SOL    HW2 3751   2.277   1.864   2.015  1.0074  1.4036  2.6662
  938SOL     MW 3752   2.284   1.789   1.968  0.4313  0.2749  0.3580
  939SOL     OW 3753   2.733   1.980   2.319  0.2537  0.1465 -0.5254
  939SOL    HW1 3754   2.744   1.914   2.245  0.5489  1.7635 -0.0385
  939SOL    HW2 3755   2.634   1.993   2.339 -3.2807  0.0069  3.0116
  939SOL     MW 3756   2.721   1.973   2.312 -0.1737  0.3415  0.0055
  940SOL     OW 3757   2.280   0.169   2.674  0.1313 -0.1289  0.9309
  940SOL    HW1 3758   2.255   0.076   2.662 -2.5142  0.6919  3.9545
  940SOL    HW2 3759   2.335   0.189   2.759 -0.1684  1.2326  2.0846
  940SOL     MW 3760   2.284   0.160   2.684 -0.2573  0.1590  1.4821
  941SOL     OW 3761   0.125   2.443   2.067  0.3284  0.0069  0.2240
  941SOL    HW1 3762   0.214   2.464   2.080 -4.6316  0.7279  0.2840
  941SOL    HW2 3763   0.122   2.381   1.997 -0.1600 -0.1706 -2.3874
  941SOL     MW 3764   0.136   2.437   2.060 -0.3905  0.0786 -0.1126
  942SOL     OW 3765   2.854   2.183   2.179 -0.0111  0.4721 -0.0280
  942SOL    HW1 3766   2.812   2.262   2.151  1.3976  0.6481  0.4267
  942SOL    HW2 3767   2.798   2.140   2.239  2.3587  2.3515  1.1845
  942SOL     MW 3768   2.841   2.188   2.183  0.4874  0.7433  0.1920
  943SOL     OW 3769   0.304   2.119   2.266 -0.7943 -0.1637  0.2450
  943SOL    HW1 3770   0.250   2.166   2.325  1.6246  2.1355  0.6224
  943SOL    HW2 3771   0.390   2.098   2.311 -0.6523 -2.4865  1.1876
  943SOL     MW 3772   0.308   2.122   2.279 -0.4564 -0.1668  0.4191
  944SOL     OW 3773   2.089   2.673   2.037 -0.2238 -0.7816 -0.6400
  944SOL    HW1 3774   2.161   2.629   2.081  2.4979 -0.6581 -0.6891
  944SOL    HW2 3775   2.058   2.722   2.115 -3.4007 -2.6096  2.8564
  944SOL     MW 3776   2.094   2.674   2.053 -0.2839 -1.0065 -0.1851
  945SOL     OW 3777   2.673   2.688   2.899 -0.0933 -0.2362  0.1758
  945SOL    HW1 3778   2.687   2.596   2.896  1.5546  1.0818  0.6863
  945SOL    HW2 3779   2.657   2.719   2.809  1.6740  0.2854 -0.8486
  945SOL     MW 3780   2.673   2.680   2.887  0.3573  0.0065  0.1080
  946SOL     OW 3781   2.471   2.702   2.273  0.1483 -0.4553 -0.5871
  946SOL    HW1 3782   2.498   2.738   2.185 -1.1713  0.0444  3.7902
  946SOL    HW2 3783   2.392   2.653   2.245 -2.5510  0.2251 -1.1794
  946SOL     MW 3784   2.464   2.700   2.258 -0.3820 -0.2996 -0.0877
  947SOL     OW 3785   1.908   0.079   0.308 -0.1677 -0.1581 -0.0786
  947SOL    HW1 3786   1.857   0.011   0.340  2.6105  2.7340 -0.0814
  947SOL    HW2 3787   1.988   0.076   0.370 -0.0157  0.5540  1.5690
  947SOL     MW 3788   1.912   0.070   0.320  0.2189  0.3174  0.1384
  948SOL     OW 3789   1.794   3.042   2.691 -0.7571 -0.3508  0.5114
  948SOL    HW1 3790   1.841   2.958   2.704  0.8332 -0.0609  2.2901
  948SOL    HW2 3791   1.777   3.049   2.589  0.8025 -1.0752 -0.5094
  948SOL     MW 3792   1.798   3.032   2.679 -0.3415 -0.4082  0.6114
  949SOL     OW 3793   2.473   1.928   2.273  0.0938 -0.0647 -0.2064
  949SOL    HW1 3794   2.480   1.837   2.293 -1.9310  0.7402 -1.2143
  949SOL    HW2 3795   2.413   1.960   2.343 -0.4794 -0.8674 -0.7602
  949SOL     MW 3796   2.466   1.921   2.285 -0.2489 -0.0644 -0.4125
  950SOL     OW 3797   2.294   2.465   2.931  0.7493  0.5900 -0.5485
  950SOL    HW1 3798   2.348   2.414   2.866  1.2449  0.0506 -0.7390
  950SOL    HW2 3799   2.224   2.515   2.880 -0.0120  1.9867 -2.1039
  950SOL     MW 3800   2.292   2.465   2.915  0.7142  0.7031 -0.7789
  951SOL     OW 3801   3.008   2.067   2.815 -0.1527  0.0198  0.2892
  951SOL    HW1 3802   3.011   2.119   2.900  1.0816 -0.7658  1.9414
  951SOL    HW2 3803   3.091   2.016   2.814  0.4485 -1.2092  0.1581
  951SOL     MW 3804   3.019   2.067   2.826  0.0895 -0.2460  0.4899
  952SOL     OW 3805   3.035   1.669   2.161 -0.1894  0.4190  0.5199
  952SOL    HW1 3806   2.945   1.698   2.150  1.1643  0.0727  1.8890
  952SOL    HW2 3807   3.084   1.746   2.191  0.1902  1.9248 -2.6320
  952SOL     MW 3808   3.030   1.683   2.164  0.0393  0.5720  0.2847
  953SOL     OW 3809   1.885   1.776   2.890  0.4292 -0.0849  0.6187
  953SOL    HW1 3810   1.814   1.732   2.944 -0.4889  2.2221  1.6222
  953SOL    HW2 3811   1.922   1.704   2.827  2.4206 -0.5754 -2.8034
  953SOL     MW 3812   1.881   1.761   2.889  0.5708  0.1548  0.2996
  954SOL     OW 3813   2.375   2.073   2.885 -0.0176  0.2140 -0.0610
  954SOL    HW1 3814   2.302   2.056   2.831  0.5661  1.1953  3.2352
  954SOL    HW2 3815   2.456   2.057   2.824  2.0522 -2.5707  1.6551
  954SOL     MW 3816   2.376   2.069   2.870  0.3325 -0.0239  0.6004
  955SOL     OW 3817   1.552   1.575   2.566  0.2643  0.1732 -0.4126
  955SOL    HW1 3818   1.514   1.597   2.476 -1.4174  0.7922  1.1966
  955SOL    HW2 3819   1.613   1.648   2.587  0.5465 -0.9325 -0.6547
  955SOL     MW 3820   1.555   1.588   2.557  0.0797  0.1090 -0.2322
  956SOL     OW 3821   2.682   2.420   2.826  0.0645  0.0926 -0.1356
  956SOL    HW1 3822   2.677   2.381   2.915  3.5157  0.0732 -2.3447
  956SOL    HW2 3823   2.765   2.391   2.783  1.6231 -1.7935  0.6208
  956SOL     MW 3824   2.692   2.411   2.832  0.7255 -0.1588 -0.3273
  957SOL     OW 3825   2.322   2.825   0.366  0.1233  0.1295  0.4075
  957SOL    HW1 3826   2.237   2.852   0.331 -1.3706 -1.2961  0.9358
  957SOL    HW2 3827   2.296   2.793   0.460 -2.9107  0.0525  0.5353
  957SOL     MW 3828   2.307   2.825   0.374 -0.4741 -0.0688  0.4941
  958SOL     OW 3829   2.096   2.626   2.824 -0.4437 -0.2377 -0.4753
  958SOL    HW1 3830   2.052   2.567   2.766  0.6802  0.1874 -0.0897
  958SOL    HW2 3831   2.042   2.637   2.907  3.8338  1.7395 -0.9783
  958SOL     MW 3832   2.083   2.620   2.827  0.2690  0.0792 -0.4908
  959SOL     OW 3833   2.515   2.641   0.338  0.3889  0.3393  0.1425
  959SOL    HW1 3834   2.548   2.627   0.255 -1.2621 -1.5688  0.0460
  959SOL    HW2 3835   2.440   2.706   0.334 -0.7794 -0.3602  1.2627
  959SOL     MW 3836   2.509   2.648   0.327  0.0170 -0.0048  0.2776
  960SOL     OW 3837   1.928   2.299   2.266 -0.2211 -0.1282  0.7503
  960SOL    HW1 3838   1.913   2.209   2.290 -0.0269  2.1822 -0.4244
  960SOL    HW2 3839   1.906   2.342   2.346  0.1433 -0.2744 -1.3864
  960SOL     MW 3840   1.923   2.292   2.280 -0.1474  0.1573  0.3134
  961SOL     OW 3841   2.202   2.318   2.299  0.2821 -0.2259  0.4738
  961SOL    HW1 3842   2.110   2.312   2.276  0.8685  3.3155  1.4940
  961SOL    HW2 3843   2.213   2.380   2.380  1.0063  4.5247 -0.0854
  961SOL     MW 3844   2.192   2.326   2.307  0.4551  0.8681  0.5346
  962SOL     OW 3845   2.139   2.017   2.756 -0.4367 -0.6977  0.2137
  962SOL    HW1 3846   2.096   1.989   2.833  0.0406 -1.8508  0.8700
  962SOL    HW2 3847   2.137   1.943   2.692  0.2237  1.0949 -0.6627
  962SOL     MW 3848   2.133   2.004   2.758 -0.2866 -0.6134  0.1847
  963SOL     OW 3849   1.812   2.540   2.081  0.4441 -0.1911 -0.3020
  963SOL    HW1 3850   1.891   2.528   2.138  1.2109 -1.6686  0.6069
  963SOL    HW2 3851   1.835   2.515   1.994  0.0855  1.6784 -0.4150
  963SOL     MW 3852   1.825   2.535   2.077  0.4980 -0.1393 -0.1970
  964SOL     OW 3853   1.754   1.969   2.729 -0.0026  0.9782 -0.4251
  964SOL    HW1 3854   1.805   2.038   2.688 -2.2950  0.6671 -0.1246
  964SOL    HW2 3855   1.811   1.904   2.780  0.4211  0.0821  0.7872
  964SOL     MW 3856   1.768   1.969   2.730 -0.2491  0.8189 -0.2255
  965SOL     OW 3857   2.234   2.735   0.617  0.0675 -0.4243 -0.6396
  965SOL    HW1 3858   2.240   2.640   0.599 -0.1149 -0.5052  2.4542
  965SOL    HW2 3859   2.301   2.746   0.690 -1.1750 -0.6018  1.6375
  965SOL     MW 3860   2.244   2.724   0.624 -0.1205 -0.4584  0.0690
  966SOL     OW 3861   2.650   2.632   2.466 -0.0959 -0.5706 -0.6394
  966SOL    HW1 3862   2.601   2.672   2.393  0.4924 -0.9199  1.2211
  966SOL    HW2 3863   2.666   2.537   2.466 -1.6712  1.1360  1.9454
  966SOL     MW 3864   2.646   2.625   2.456 -0.2261 -0.3915 -0.0529
  967SOL     OW 3865   2.764   3.062   2.903 -0.0057  0.5103  0.6313
  967SOL    HW1 3866   2.758   2.990   2.964  0.9761  1.2258  1.5056
  967SOL    HW2 3867   2.690   3.070   2.838  0.4237 -1.1908  0.5409
  967SOL     MW 3868   2.753   3.054   2.902  0.1805  0.3802  0.7347
  968SOL     OW 3869   2.948   2.621   2.899 -0.2237 -0.0549  0.2141
  968SOL    HW1 3870   2.894   2.669   2.843  0.5747  1.2295  0.3895
  968SOL    HW2 3871   2.988   2.558   2.839  1.2488 -0.8831  1.2166
  968SOL     MW 3872   2.946   2.619   2.884  0.0759  0.0053  0.3695
  969SOL     OW 3873   1.624   2.165   1.642  0.0094  0.2677  0.6220
  969SOL    HW1 3874   1.661   2.074   1.648 -0.1465 -2.3867  0.8635
  969SOL    HW2 3875   1.607   2.185   1.735  0.6023 -1.9018 -1.0859
  969SOL     MW 3876   1.626   2.155   1.655  0.0671 -0.3688  0.4286
  970SOL     OW 3877   1.697   1.792   1.961  0.0627 -0.0669  0.1944
  970SOL    HW1 3878   1.744   1.708   1.993  0.7555 -2.1909 -1.1416
  970SOL    HW2 3879   1.598   1.789   1.967  1.0242 -0.2923 -0.1035
  970SOL     MW 3880   1.690   1.780   1.966  0.2810 -0.3768 -0.0212
  971SOL     OW 3881   1.743   0.006   2.441  0.0843  0.6640  0.2047
  971SOL    HW1 3882   1.773  -0.038   2.363 -1.5604  0.3300  1.7281
  971SOL    HW2 3883   1.789   0.089   2.445 -1.2694 -1.7291 -0.9047
  971SOL     MW 3884   1.753   0.011   2.431 -0.3113  0.3041  0.2593
  972SOL     OW 3885   0.275   2.888   2.466 -0.0684 -0.1938  0.3787
  972SOL    HW1 3886   0.334   2.813   2.476 -1.7430 -1.1299  0.6945
  972SOL    HW2 3887   0.336   2.962   2.462 -1.3944  0.2649  2.1200
  972SOL     MW 3888   0.291   2.888   2.467 -0.4643 -0.2568  0.6501
  973SOL     OW 3889   2.543   0.016   2.090  0.6017  0.1924 -0.5110
  973SOL    HW1 3890   2.544  -0.080   2.061 -0.3575 -2.7243  0.7551
  973SOL    HW2 3891   2.557   0.070   2.008  0.7208 -0.8484 -0.2589
  973SOL     MW 3892   2.545   0.010   2.075  0.4908 -0.3298 -0.3107
  974SOL     OW 3893   2.022   0.248   2.679  0.2907  0.4793  0.2827
  974SOL    HW1 3894   2.115   0.233   2.675 -0.0111  1.5404 -0.7805
  974SOL    HW2 3895   1.993   0.203   2.761  0.8411 -2.1601 -1.0717
  974SOL     MW 3896   2.031   0.240   2.689  0.3235  0.2710 -0.0363
  975SOL     OW 3897   2.219   2.493   2.499 -0.5328  0.0038 -0.2978
  975SOL    HW1 3898   2.288   2.522   2.557 -1.0551 -1.4050  0.4458
  975SOL    HW2 3899   2.171   2.573   2.472  0.2400  2.4736  0.0539
  975SOL     MW 3900   2.221   2.508   2.503 -0.4998  0.1438 -0.1533
  976SOL     OW 3901   0.228   0.365   1.776  0.1449 -0.4597  0.1847
  976SOL    HW1 3902   0.283   0.301   1.819 -0.8902  3.3253  0.9650
  976SOL    HW2 3903   0.166   0.307   1.721  0.8212 -1.2412 -0.6968
  976SOL     MW 3904   0.227   0.349   1.774  0.0975 -0.0634  0.1714
  977SOL     OW 3905   1.754   2.675   2.563  0.2356  0.2254 -0.1834
  977SOL    HW1 3906   1.738   2.584   2.535  0.1446  2.6494  0.4505
  977SOL    HW2 3907   1.844   2.683   2.536  1.7381  2.0073 -0.0249
  977SOL     MW 3908   1.764   2.664   2.556  0.4218  0.7803 -0.0789
   3.10000   3.10000   3.10000
