977 TIP4P/2005f water molecules t=   0.99000 step= 990
 3908
    1SOL     OW    1   0.370   0.796   3.102  0.0649 -0.0503  0.7984
    1SOL    HW1    2   0.353   0.826   3.017 -0.2190  0.0772  0.5413
    1SOL    HW2    3   0.302   0.731   3.105 -0.1062 -0.8693 -2.1785
    1SOL     MW    4   0.359   0.791   3.091  0.0049 -0.1415  0.3717
    2SOL     OW    5   0.321   3.019   1.161 -0.1461  0.0682 -0.2110
    2SOL    HW1    6   0.373   3.104   1.150  3.8628  1.8950  0.4296
    2SOL    HW2    7   0.235   3.061   1.181  1.7178  2.4161 -2.4108
    2SOL     MW    8   0.317   3.036   1.163  0.6287  0.6190 -0.4167
    3SOL     OW    9   2.643   0.434   0.976 -0.0591  0.4428  0.9412
    3SOL    HW1   10   2.684   0.508   0.926 -1.5192  2.9226 -1.9406
    3SOL    HW2   11   2.592   0.483   1.052  1.5366  0.6772 -0.5752
    3SOL     MW   12   2.642   0.450   0.980 -0.0412  0.8009  0.3609
    4SOL     OW   13   2.924   1.678   0.579 -0.5206 -0.1153 -0.2165
    4SOL    HW1   14   2.862   1.755   0.562  0.7562  0.2000 -1.4575
    4SOL    HW2   15   3.004   1.673   0.522  1.2234  1.6514 -1.5035
    4SOL     MW   16   2.926   1.688   0.569 -0.1220  0.1594 -0.5500
    5SOL     OW   17   1.784   1.500   0.507  0.4475 -0.2546  0.0131
    5SOL    HW1   18   1.780   1.420   0.558  1.0430  0.6049 -1.7524
    5SOL    HW2   19   1.700   1.538   0.501 -1.5009  1.4443 -0.1622
    5SOL     MW   20   1.773   1.494   0.513  0.2690  0.0830 -0.2430
    6SOL     OW   21   0.808   1.415   0.598 -0.0610 -0.7652  0.0597
    6SOL    HW1   22   0.725   1.426   0.639 -0.4249 -0.7157 -0.9331
    6SOL    HW2   23   0.844   1.338   0.635  1.0433  0.2231 -1.5857
    6SOL     MW   24   0.802   1.406   0.608  0.0367 -0.6283 -0.2884
    7SOL     OW   25   2.063   1.066   3.087  0.1522 -0.6144  0.8552
    7SOL    HW1   26   2.040   1.137   3.025  1.5282  0.8062 -1.5971
    7SOL    HW2   27   2.118   1.109   3.153 -0.7270 -0.0838 -0.5605
    7SOL     MW   28   2.067   1.081   3.087  0.2178 -0.3570  0.3448
    8SOL     OW   29   0.929   1.417   1.094  0.4380  0.2141  0.5693
    8SOL    HW1   30   1.018   1.396   1.115 -1.4461  1.1123 -0.2766
    8SOL    HW2   31   0.878   1.340   1.133 -0.3049  1.5547  1.5508
    8SOL     MW   32   0.934   1.404   1.102  0.0914  0.5095  0.5872
    9SOL     OW   33   1.005   0.527   1.408 -0.2579 -0.0933 -0.1825
    9SOL    HW1   34   0.962   0.461   1.344  0.1377 -1.7351 -1.4550
    9SOL    HW2   35   1.050   0.473   1.477  1.7931 -1.6094 -2.1831
    9SOL     MW   36   1.005   0.511   1.409  0.0649 -0.5099 -0.6144
   10SOL     OW   37   0.218   0.774   0.462 -0.0538 -0.1368 -0.5543
   10SOL    HW1   38   0.311   0.799   0.439  0.9068  1.1502  3.3654
   10SOL    HW2   39   0.216   0.821   0.549  0.7314  0.3770  0.6360
   10SOL     MW   40   0.230   0.783   0.470  0.1766  0.1008  0.1199
   11SOL     OW   41   0.809   1.136   1.709 -0.0706 -0.1148 -1.0104
   11SOL    HW1   42   0.853   1.116   1.789 -0.8016 -3.2899 -0.1343
   11SOL    HW2   43   0.810   1.063   1.655 -1.1067  0.0740 -0.5493
   11SOL     MW   44   0.815   1.123   1.712 -0.3037 -0.5088 -0.8340
   12SOL     OW   45   0.035   1.077   0.869 -0.1554 -0.1778 -0.0267
   12SOL    HW1   46   0.076   1.140   0.927  2.2158  1.1447  2.7812
   12SOL    HW2   47  -0.026   1.133   0.821  0.0068 -1.6585 -3.9290
   12SOL     MW   48   0.032   1.092   0.870  0.1788 -0.1987 -0.1711
   13SOL     OW   49   1.875   1.417   1.358 -0.2722  0.2599  0.6729
   13SOL    HW1   50   1.900   1.337   1.302 -0.3443  1.2532  0.8659
   13SOL    HW2   51   1.897   1.493   1.307 -2.9351  1.6184  2.4333
   13SOL     MW   52   1.881   1.416   1.344 -0.6331  0.5702  0.9306
   14SOL     OW   53   0.617   0.395   1.873 -0.5141 -0.7539 -0.4322
   14SOL    HW1   54   0.544   0.331   1.843 -2.1994 -0.7470  0.9867
   14SOL    HW2   55   0.697   0.354   1.876 -3.1903  1.5503  1.5178
   14SOL     MW   56   0.617   0.381   1.869 -1.0896 -0.4490  0.0123
   15SOL     OW   57   1.937   0.349   1.023 -0.0763 -0.0826  0.7894
   15SOL    HW1   58   1.930   0.403   1.100  2.3302 -0.8993  2.0030
   15SOL    HW2   59   2.008   0.384   0.966  0.3701  0.8393  1.7891
   15SOL     MW   60   1.945   0.361   1.025  0.3001 -0.0687  1.0814
   16SOL     OW   61   0.197   1.798   0.318 -0.0964  0.2745  0.0598
   16SOL    HW1   62   0.281   1.760   0.351  0.1151 -0.7515  0.0604
   16SOL    HW2   63   0.202   1.888   0.342 -1.0928 -1.9626 -0.4079
   16SOL     MW   64   0.209   1.805   0.326 -0.2000 -0.1560 -0.0019
   17SOL     OW   65   1.116   0.903   1.426 -0.3744 -0.1151 -0.3891
   17SOL    HW1   66   1.174   0.862   1.496 -0.4421 -0.1395  1.4942
   17SOL    HW2   67   1.026   0.889   1.452  1.9110  0.6451  1.9835
   17SOL     MW   68   1.112   0.896   1.439 -0.0818 -0.0180  0.1724
   18SOL     OW   69   0.058   1.593   0.412  0.3180  0.0706  0.0291
   18SOL    HW1   70   0.115   1.655   0.368 -0.3923 -2.1560  2.5905
   18SOL    HW2   71   0.042   1.527   0.346 -1.9600 -1.0449 -0.8257
   18SOL     MW   72   0.063   1.592   0.398 -0.0763 -0.3704  0.2543
   19SOL     OW   73   0.117   1.299   1.028  0.8466 -0.1708 -0.1996
   19SOL    HW1   74   0.162   1.352   0.963 -1.9382  3.6332 -0.4176
   19SOL    HW2   75   0.034   1.345   1.034 -1.3268 -0.0809 -1.1912
   19SOL     MW   76   0.112   1.312   1.020  0.1924  0.3430 -0.3592
   20SOL     OW   77   0.470   2.163   1.189  0.0271  0.3534 -0.0297
   20SOL    HW1   78   0.437   2.091   1.131 -0.7470 -1.4220 -1.8402
   20SOL    HW2   79   0.398   2.188   1.250  0.1761 -0.3729 -2.0210
   20SOL     MW   80   0.456   2.157   1.189 -0.0554  0.0233 -0.5313
   21SOL     OW   81   0.466   0.843   0.392 -0.7287  0.0439 -0.0979
   21SOL    HW1   82   0.544   0.845   0.448 -0.8083  3.2376  0.9087
   21SOL    HW2   83   0.500   0.818   0.308 -1.4593  1.4156 -0.2069
   21SOL     MW   84   0.481   0.840   0.388 -0.8356  0.6463  0.0205
   22SOL     OW   85   1.576   0.666   1.019 -0.0569 -0.5969 -0.2967
   22SOL    HW1   86   1.519   0.658   0.940  2.2458  0.9030  0.9856
   22SOL    HW2   87   1.537   0.727   1.076  1.1021 -1.2871 -2.2915
   22SOL     MW   88   1.563   0.673   1.016  0.3998 -0.4901 -0.3907
   23SOL     OW   89   3.077   0.746   0.659 -0.5239 -0.2053 -0.1375
   23SOL    HW1   90   3.117   0.666   0.704 -1.6474 -3.3967 -0.7321
   23SOL    HW2   91   3.136   0.818   0.671 -2.0993 -0.0094  0.4022
   23SOL     MW   92   3.090   0.745   0.667 -0.8800 -0.6005 -0.1447
   24SOL     OW   93   1.999   2.238   0.054  1.0822 -0.0343 -0.3957
   24SOL    HW1   94   2.003   2.215   0.151 -0.2920 -0.5596  0.8631
   24SOL    HW2   95   2.016   2.151   0.019  1.4104 -0.9221  0.7390
   24SOL     MW   96   2.001   2.224   0.062  0.9442 -0.2207 -0.0799
   25SOL     OW   97   0.242   1.409   0.538 -0.5793 -0.3183  0.2992
   25SOL    HW1   98   0.195   1.472   0.489 -2.9649  0.5912  3.1755
   25SOL    HW2   99   0.340   1.427   0.539  2.2981  4.2452 -1.6401
   25SOL     MW  100   0.249   1.419   0.531 -0.5144  0.4038  0.4228
   26SOL     OW  101   2.086   0.992   0.357  0.6882  0.2904  0.4517
   26SOL    HW1  102   2.019   1.035   0.407  2.5079 -0.6931 -3.3906
   26SOL    HW2  103   2.130   1.055   0.301 -0.8071 -2.6406 -2.6321
   26SOL     MW  104   2.083   1.006   0.356  0.7310 -0.2261 -0.4622
   27SOL     OW  105   2.030   1.428   0.251 -0.3386 -0.1066 -0.1798
   27SOL    HW1  106   1.940   1.459   0.265  1.2587  2.4848  1.8149
   27SOL    HW2  107   2.090   1.484   0.298  1.2331 -2.8648  0.4233
   27SOL     MW  108   2.026   1.439   0.259  0.0795 -0.1286  0.1630
   28SOL     OW  109   0.457   0.975   1.958  0.2436  0.1391 -0.3620
   28SOL    HW1  110   0.530   0.934   1.987 -3.2570 -0.9095  0.9981
   28SOL    HW2  111   0.387   0.907   1.958  0.2836 -2.8788  0.0881
   28SOL     MW  112   0.457   0.961   1.962 -0.2130 -0.3974 -0.1232
   29SOL     OW  113   0.258   1.428   0.815 -0.8548 -0.6236  0.3468
   29SOL    HW1  114   0.226   1.521   0.826  2.1085  0.3675  2.7560
   29SOL    HW2  115   0.250   1.414   0.720 -0.2105  2.0066 -1.8182
   29SOL     MW  116   0.253   1.438   0.804 -0.3788 -0.1458  0.3790
   30SOL     OW  117   0.817   1.200   1.226 -0.6241 -0.1966  0.2966
   30SOL    HW1  118   0.734   1.198   1.272 -1.3240  1.2703  2.5272
   30SOL    HW2  119   0.890   1.199   1.298  1.8235 -2.3951  1.7501
   30SOL     MW  120   0.816   1.199   1.241 -0.3935 -0.2931  0.7827
   31SOL     OW  121   0.390   0.195   0.192  0.0437  0.6703 -0.6660
   31SOL    HW1  122   0.390   0.130   0.266  1.9275  1.9184  0.8766
   31SOL    HW2  123   0.411   0.136   0.125  1.5226  0.8924  2.0277
   31SOL     MW  124   0.393   0.179   0.193  0.4874  0.8643 -0.1071
   32SOL     OW  125   2.818   0.960   1.162  0.4653 -0.3559  0.2477
   32SOL    HW1  126   2.741   0.907   1.129 -1.6191  0.7912  1.3582
   32SOL    HW2  127   2.899   0.941   1.115  0.9007 -1.7740  0.2446
   32SOL     MW  128   2.819   0.950   1.151  0.2477 -0.3916  0.3938
   33SOL     OW  129   1.741   1.305   0.330 -0.0840  0.3136  0.0074
   33SOL    HW1  130   1.793   1.240   0.382  0.6807 -0.1929  1.0302
   33SOL    HW2  131   1.734   1.380   0.387 -0.4792 -1.2471  0.0806
   33SOL     MW  132   1.747   1.306   0.344 -0.0352  0.0409  0.1520
   34SOL     OW  133   1.228   1.871   1.116  0.1110  0.3723  0.4235
   34SOL    HW1  134   1.136   1.900   1.115 -0.2220  3.1153 -0.5776
   34SOL    HW2  135   1.274   1.908   1.192 -0.3224  1.0999  2.4772
   34SOL     MW  136   1.222   1.880   1.126  0.0099  0.8302  0.5624
   35SOL     OW  137   0.428   0.201   1.822  0.3467 -0.6643  0.1775
   35SOL    HW1  138   0.367   0.160   1.883 -1.2392 -0.1941  0.1563
   35SOL    HW2  139   0.433   0.153   1.745  0.8220  0.7552 -0.1182
   35SOL     MW  140   0.420   0.189   1.820  0.2001 -0.4149  0.1357
   36SOL     OW  141   1.948   1.969   0.584  0.2953 -0.1116  0.5361
   36SOL    HW1  142   1.999   1.990   0.508 -1.4005 -0.5987 -0.0193
   36SOL    HW2  143   1.955   1.866   0.596  2.3871  0.3783 -1.5464
   36SOL     MW  144   1.956   1.958   0.576  0.3476 -0.1113  0.1880
   37SOL     OW  145   1.758   1.965   0.981  0.4220  0.4047  0.1307
   37SOL    HW1  146   1.706   1.903   0.922  2.0632 -1.4801 -0.3377
   37SOL    HW2  147   1.696   2.008   1.035 -0.5353 -1.1961 -3.0417
   37SOL     MW  148   1.743   1.963   0.980  0.5122 -0.0552 -0.3497
   38SOL     OW  149   2.812   0.901   0.142  0.0834  0.5617  0.2955
   38SOL    HW1  150   2.838   0.892   0.234  0.7860  1.3234  1.7793
   38SOL    HW2  151   2.897   0.891   0.101 -0.1592 -0.4442  3.4623
   38SOL     MW  152   2.826   0.898   0.149  0.1441  0.5295  0.9091
   39SOL     OW  153   1.421   0.647   0.802 -0.0469  0.3066 -0.1508
   39SOL    HW1  154   1.395   0.555   0.813 -1.4411 -0.6091  2.2228
   39SOL    HW2  155   1.342   0.697   0.762 -1.1222  2.5634  0.9752
   39SOL     MW  156   1.407   0.641   0.798 -0.3728  0.4835  0.3109
   40SOL     OW  157   1.157   1.909   0.313  0.5714  0.1773 -0.0721
   40SOL    HW1  158   1.226   1.842   0.330  1.0902  3.0376  0.5290
   40SOL    HW2  159   1.175   1.971   0.383  1.2192 -1.8233  0.3881
   40SOL     MW  160   1.168   1.908   0.324  0.7253  0.2908  0.0679
   41SOL     OW  161   0.577   0.568   1.667  0.8295 -0.2443 -0.6145
   41SOL    HW1  162   0.660   0.617   1.652 -0.2317  2.1124  0.5527
   41SOL    HW2  163   0.594   0.499   1.731  1.1321  0.3994  2.5979
   41SOL     MW  164   0.590   0.565   1.674  0.7294  0.1516 -0.0366
   42SOL     OW  165   1.261   3.010   1.975 -0.6995 -0.0546  0.4146
   42SOL    HW1  166   1.177   3.020   2.018 -0.6049 -0.9336  0.0800
   42SOL    HW2  167   1.304   2.939   2.018  0.0197  1.7332 -0.7174
   42SOL     MW  168   1.255   3.002   1.986 -0.5921  0.0653  0.2211
   43SOL     OW  169   1.515   0.154   1.711 -0.2457 -0.1033  0.0158
   43SOL    HW1  170   1.579   0.113   1.658  0.1809 -0.1522  2.2696
   43SOL    HW2  171   1.444   0.086   1.728 -1.4112  1.8512  2.7258
   43SOL     MW  172   1.514   0.139   1.706 -0.3432  0.1481  0.6707
   44SOL     OW  173   1.048   0.787   1.020  0.2329  0.1407  0.3411
   44SOL    HW1  174   1.085   0.873   0.998  2.5301 -0.6845  1.1350
   44SOL    HW2  175   1.089   0.757   1.102  0.2351  1.5812 -0.0433
   44SOL     MW  176   1.058   0.794   1.028  0.5363  0.2218  0.3951
   45SOL     OW  177   1.221   0.769   0.659  0.3767  0.1222  0.1272
   45SOL    HW1  178   1.155   0.752   0.728 -1.9344 -1.3453 -1.5975
   45SOL    HW2  179   1.197   0.706   0.589 -0.3998 -3.4376 -1.0552
   45SOL     MW  180   1.209   0.758   0.659 -0.0306 -0.5411 -0.2563
   46SOL     OW  181   0.566   1.198   0.603  0.5798 -0.0467  0.1540
   46SOL    HW1  182   0.519   1.174   0.520 -0.5815  0.4311 -0.7634
   46SOL    HW2  183   0.646   1.149   0.599 -1.8295 -0.8778  4.8820
   46SOL     MW  184   0.570   1.188   0.592  0.1087 -0.0933  0.6568
   47SOL     OW  185   0.193   2.006   1.985  0.2895  0.4085  0.4185
   47SOL    HW1  186   0.280   1.966   1.977  1.0760  3.8459  2.7099
   47SOL    HW2  187   0.155   1.969   2.066 -2.3953  1.8968  1.9188
   47SOL     MW  188   0.200   1.996   1.995  0.0391  1.0584  0.9188
   48SOL     OW  189   1.078   0.518   1.006  0.0931 -0.6815  0.3654
   48SOL    HW1  190   1.000   0.479   0.966 -0.4135  2.0689 -0.1574
   48SOL    HW2  191   1.063   0.606   1.004  1.0980 -3.6501  1.8186
   48SOL     MW  192   1.066   0.524   1.001  0.1589 -0.7103  0.4882
   49SOL     OW  193   1.791   0.719   1.537 -0.1823 -0.3598 -0.4979
   49SOL    HW1  194   1.744   0.695   1.614  0.9727  1.1550 -1.3745
   49SOL    HW2  195   1.874   0.666   1.536 -0.5704  0.2400 -0.4273
   49SOL     MW  196   1.796   0.709   1.547 -0.0811 -0.0808 -0.6043
   50SOL     OW  197   1.291   1.049   0.502  0.5861 -0.2356  0.0561
   50SOL    HW1  198   1.262   1.107   0.576  0.9673  0.9114  2.8342
   50SOL    HW2  199   1.370   0.999   0.531  2.6715 -0.0380 -1.2834
   50SOL     MW  200   1.298   1.050   0.516  0.9115 -0.0582  0.2459
   51SOL     OW  201   0.328   2.919   0.918 -0.1126  0.5573 -0.1645
   51SOL    HW1  202   0.403   2.859   0.924 -0.0507  2.1337  2.3768
   51SOL    HW2  203   0.325   2.958   1.009  2.3934 -2.3769  2.5028
   51SOL     MW  204   0.338   2.916   0.931  0.2262  0.3782  0.5227
   52SOL     OW  205   0.786   1.749   0.440 -0.1185 -1.0817 -0.6743
   52SOL    HW1  206   0.770   1.835   0.475  0.5058 -1.5778  0.1324
   52SOL    HW2  207   0.790   1.771   0.348 -1.9060 -0.6027 -1.6879
   52SOL     MW  208   0.784   1.763   0.432 -0.2719 -1.0840 -0.7016
   53SOL     OW  209   0.457   2.121   0.544 -0.5630 -0.3008  0.0361
   53SOL    HW1  210   0.392   2.101   0.474  3.1977  0.5350 -3.3605
   53SOL    HW2  211   0.429   2.208   0.576  2.1745  1.7650  2.9518
   53SOL     MW  212   0.445   2.130   0.539  0.2944  0.0821 -0.0274
   54SOL     OW  213   2.013   0.945   0.796 -0.4033 -0.3192 -0.1153
   54SOL    HW1  214   2.076   0.959   0.726  1.0170 -0.6707  0.9664
   54SOL    HW2  215   1.997   0.850   0.799 -1.0480 -0.2955 -0.4933
   54SOL     MW  216   2.019   0.934   0.787 -0.3010 -0.3624 -0.0224
   55SOL     OW  217   0.527   1.554   1.614  0.0580 -0.3534 -0.2286
   55SOL    HW1  218   0.468   1.615   1.573  1.3251 -1.2746 -0.1728
   55SOL    HW2  219   0.581   1.509   1.547  0.0074  0.8965  0.1425
   55SOL     MW  220   0.526   1.556   1.600  0.2185 -0.3100 -0.1723
   56SOL     OW  221   0.613   0.809   0.167  0.0246  0.7285  0.7908
   56SOL    HW1  222   0.644   0.900   0.155 -0.1119  0.4707  0.2827
   56SOL    HW2  223   0.542   0.800   0.101  0.9116 -2.1044  0.6861
   56SOL     MW  224   0.608   0.820   0.157  0.1236  0.3207  0.7099
   57SOL     OW  225   1.153   1.282   1.159 -0.3958  0.0933  0.5273
   57SOL    HW1  226   1.224   1.327   1.101 -0.0158 -0.8382 -1.1318
   57SOL    HW2  227   1.201   1.243   1.231 -4.3362  1.1319  3.9858
   57SOL     MW  228   1.169   1.283   1.161 -0.8656  0.1075  0.7647
   58SOL     OW  229   0.576   1.171   1.365  0.2146  0.5799  0.2456
   58SOL    HW1  230   0.561   1.259   1.344 -0.9918 -3.3089 -2.1124
   58SOL    HW2  231   0.584   1.160   1.458  3.0406  0.0448 -0.7612
   58SOL     MW  232   0.575   1.181   1.374  0.4283 -0.0038 -0.1984
   59SOL     OW  233   1.561   1.721   0.359 -0.2347 -0.1570 -0.1461
   59SOL    HW1  234   1.604   1.779   0.428 -0.0951 -0.2528  0.8688
   59SOL    HW2  235   1.479   1.702   0.396  1.6139 -0.6344  0.0968
   59SOL     MW  236   1.556   1.726   0.373  0.0276 -0.2326  0.0199
   60SOL     OW  237   0.055   0.209   1.595 -0.4484 -0.1390  0.4488
   60SOL    HW1  238  -0.031   0.243   1.614 -3.2025  3.3935  1.1315
   60SOL    HW2  239   0.067   0.141   1.667  0.2233 -1.3306  2.0303
   60SOL     MW  240   0.045   0.204   1.607 -0.7231  0.1698  0.7476
   61SOL     OW  241   2.006   1.487   3.089 -0.4626 -0.6023 -0.4861
   61SOL    HW1  242   2.025   1.482   3.186 -1.9528  4.5543  0.2280
   61SOL    HW2  243   2.058   1.416   3.050 -1.4621 -2.3655 -0.6949
   61SOL     MW  244   2.016   1.477   3.096 -0.7911 -0.1546 -0.4194
   62SOL     OW  245   0.567   1.713   0.617  0.1868 -0.5173  0.0613
   62SOL    HW1  246   0.654   1.704   0.571  0.9164  1.7183 -1.8976
   62SOL    HW2  247   0.562   1.626   0.641  1.0095  0.3059  0.6838
   62SOL     MW  248   0.578   1.701   0.614  0.3916 -0.1138 -0.1150
   63SOL     OW  249   1.694   0.673   0.701 -0.0760  0.4603  0.2878
   63SOL    HW1  250   1.708   0.738   0.629 -0.4528 -1.4222 -1.1755
   63SOL    HW2  251   1.602   0.688   0.728 -0.1533  1.3248  0.1551
   63SOL     MW  252   1.684   0.683   0.695 -0.1359  0.3260  0.0772
   64SOL     OW  253   0.205   1.695   0.832  0.2032  0.6270 -0.1644
   64SOL    HW1  254   0.246   1.750   0.766  0.9906 -1.9353  2.3777
   64SOL    HW2  255   0.122   1.735   0.845  2.3093  0.0683  0.6408
   64SOL     MW  256   0.199   1.707   0.825  0.5849  0.2152  0.2773
   65SOL     OW  257   1.594   2.301   0.378 -0.4505  0.3364 -0.7927
   65SOL    HW1  258   1.687   2.277   0.392 -1.2018 -2.6941  0.2028
   65SOL    HW2  259   1.560   2.333   0.463 -1.5918 -2.1349  0.7606
   65SOL     MW  260   1.601   2.302   0.391 -0.7002 -0.3895 -0.4564
   66SOL     OW  261   0.291   0.522   0.547  0.3808 -0.1214 -0.3478
   66SOL    HW1  262   0.364   0.507   0.479  2.7130  2.0323  1.2351
   66SOL    HW2  263   0.258   0.608   0.519  1.2017 -4.2865 -0.3347
   66SOL     MW  264   0.296   0.532   0.534  0.7968 -0.3868 -0.1372
   67SOL     OW  265   1.524   0.080   2.046 -0.5877 -0.0290  0.1738
   67SOL    HW1  266   1.595   0.081   1.979  1.0529  1.9256  0.1169
   67SOL    HW2  267   1.464   0.012   2.019 -1.7740  3.8172  0.0342
   67SOL     MW  268   1.525   0.071   2.033 -0.5278  0.7364  0.1479
   68SOL     OW  269   0.710   0.034   2.915 -0.7312 -0.5076  0.2084
   68SOL    HW1  270   0.726   0.107   2.852  1.4344 -2.7710  0.8433
   68SOL    HW2  271   0.791   0.039   2.965  1.8373 -0.9700 -1.7980
   68SOL     MW  272   0.723   0.044   2.913 -0.1066 -0.8672  0.0275
   69SOL     OW  273   1.062   0.220   1.976  0.1394  0.0638 -0.0954
   69SOL    HW1  274   1.150   0.229   2.009 -1.2599  1.6548  0.2525
   69SOL    HW2  275   1.048   0.129   1.984  0.7237 -0.0788 -1.3938
   69SOL     MW  276   1.072   0.209   1.982  0.0319  0.2549 -0.2208
   70SOL     OW  277   0.567   1.736   1.123  0.5222 -0.3442  0.4996
   70SOL    HW1  278   0.593   1.744   1.215 -1.1041  0.9230 -0.1445
   70SOL    HW2  279   0.637   1.774   1.074 -1.7352  1.0127 -1.2197
   70SOL     MW  280   0.579   1.742   1.128  0.0098  0.0020  0.1878
   71SOL     OW  281   1.584   0.488   1.254  0.1120 -0.3247  0.2155
   71SOL    HW1  282   1.524   0.554   1.290  0.6466  1.1466  1.2981
   71SOL    HW2  283   1.591   0.509   1.159  1.0446  1.0468  0.0278
   71SOL     MW  284   1.577   0.500   1.246  0.3056  0.0504  0.3336
   72SOL     OW  285   0.751   1.863   0.976  0.5434  0.7611  0.3490
   72SOL    HW1  286   0.743   1.927   0.902 -0.2807  1.2715  2.5629
   72SOL    HW2  287   0.764   1.774   0.944  0.0194 -1.5986  1.0098
   72SOL     MW  288   0.752   1.860   0.962  0.3656  0.5171  0.7283
   73SOL     OW  289   1.195   0.689   1.255 -0.4627  0.0129  0.0113
   73SOL    HW1  290   1.145   0.617   1.291 -0.0420 -1.1467 -0.5741
   73SOL    HW2  291   1.172   0.766   1.313 -0.4671  1.3172 -0.3630
   73SOL     MW  292   1.186   0.690   1.267 -0.4078  0.0320 -0.1153
   74SOL     OW  293   2.710   0.159   0.984  0.2654  0.4488  0.6272
   74SOL    HW1  294   2.791   0.149   0.938 -1.7616  1.5590  0.9281
   74SOL    HW2  295   2.698   0.254   0.972 -0.0240  0.3371 -0.3144
   74SOL     MW  296   2.719   0.170   0.976 -0.0402  0.5806  0.5427
   75SOL     OW  297   1.611   1.431   0.130 -0.1130  0.5988  0.5461
   75SOL    HW1  298   1.652   1.513   0.154 -1.2228  0.5753 -1.3437
   75SOL    HW2  299   1.636   1.380   0.210 -1.8298  1.5667 -0.1838
   75SOL     MW  300   1.620   1.435   0.143 -0.4860  0.7234  0.2005
   76SOL     OW  301   2.951   0.555   0.471 -0.3437  0.0647 -0.3451
   76SOL    HW1  302   2.998   0.596   0.547 -0.6677 -0.8859  1.0638
   76SOL    HW2  303   3.017   0.520   0.409 -1.9112  0.5691  0.7716
   76SOL     MW  304   2.966   0.556   0.473 -0.5933  0.0058 -0.0119
   77SOL     OW  305   0.826   0.545   0.458  0.1794  0.0379 -0.3539
   77SOL    HW1  306   0.806   0.560   0.363  0.7687 -0.3612 -0.4853
   77SOL    HW2  307   0.768   0.478   0.484  0.6086 -1.2962  0.0343
   77SOL     MW  308   0.816   0.538   0.449  0.3138 -0.1908 -0.3200
   78SOL     OW  309   0.741   0.900   1.280  0.5154  0.5587 -0.2566
   78SOL    HW1  310   0.764   0.988   1.259  2.0970 -2.5341 -0.2861
   78SOL    HW2  311   0.710   0.855   1.204 -2.5527 -1.2532  0.4498
   78SOL     MW  312   0.740   0.906   1.267  0.3193 -0.0885 -0.1673
   79SOL     OW  313   1.960   1.704   0.580 -0.0497 -0.0080 -0.2452
   79SOL    HW1  314   1.900   1.643   0.532 -0.9461  0.8859 -3.1164
   79SOL    HW2  315   1.951   1.673   0.674 -0.1623  0.8710  1.4095
   79SOL     MW  316   1.951   1.692   0.586 -0.1828  0.2259 -0.4057
   80SOL     OW  317   0.080   0.970   0.326 -0.3231  0.5080 -0.0776
   80SOL    HW1  318  -0.003   0.925   0.347  1.9616  0.8709 -2.2158
   80SOL    HW2  319   0.149   0.922   0.371  1.2218  0.4698  1.1010
   80SOL     MW  320   0.078   0.958   0.335  0.1821  0.5509 -0.2042
   81SOL     OW  321   1.901   1.888   0.303  0.3271  0.1885  0.8783
   81SOL    HW1  322   1.885   1.810   0.251  0.7338  0.0467  1.0927
   81SOL    HW2  323   1.857   1.961   0.262  0.1498  1.1648  2.3259
   81SOL     MW  324   1.893   1.888   0.291  0.3574  0.2986  1.0976
   82SOL     OW  325   0.767   1.027   0.563 -0.0319  0.2435 -0.5050
   82SOL    HW1  326   0.787   1.044   0.463 -0.4302 -1.4853  0.4335
   82SOL    HW2  327   0.727   0.941   0.570 -0.3111  0.1956  0.8059
   82SOL     MW  328   0.765   1.018   0.551 -0.1213  0.0091 -0.2082
   83SOL     OW  329   0.065   0.634   1.450  0.4193  0.4116 -0.0357
   83SOL    HW1  330   0.115   0.676   1.376 -0.9988  0.1330 -1.0598
   83SOL    HW2  331   0.141   0.581   1.488  0.0419 -2.0368 -0.4314
   83SOL     MW  332   0.082   0.632   1.446  0.1824  0.0518 -0.2230
   84SOL     OW  333   0.131   0.236   1.027  0.5527 -0.0605 -0.2887
   84SOL    HW1  334   0.053   0.288   0.999  2.9325 -0.2772 -1.8806
   84SOL    HW2  335   0.103   0.144   1.041  0.4611 -0.3532  0.7872
   84SOL     MW  336   0.117   0.230   1.025  0.8546 -0.1277 -0.3568
   85SOL     OW  337   0.476   0.425   0.773  0.0347 -0.2575  0.6026
   85SOL    HW1  338   0.425   0.462   0.695  1.2376 -1.0120 -0.1621
   85SOL    HW2  339   0.439   0.339   0.800 -0.6564  0.6826  0.4860
   85SOL     MW  340   0.464   0.419   0.766  0.1022 -0.2330  0.4864
   86SOL     OW  341   1.177   0.250   1.135  0.0881  0.0701 -0.0643
   86SOL    HW1  342   1.118   0.312   1.094  1.3428 -2.5740 -0.1535
   86SOL    HW2  343   1.222   0.289   1.208  0.5110  0.0478 -0.8285
   86SOL     MW  344   1.175   0.264   1.140  0.3095 -0.2817 -0.1769
   87SOL     OW  345   1.280   1.480   1.300 -0.2031  0.3583  0.0866
   87SOL    HW1  346   1.291   1.551   1.234  1.3222 -0.2513 -1.0667
   87SOL    HW2  347   1.207   1.429   1.270 -2.1390 -0.2717  0.2065
   87SOL     MW  348   1.272   1.483   1.287 -0.2573  0.1948 -0.0498
   88SOL     OW  349   1.188   1.063   0.966  0.2948  0.5456 -0.2408
   88SOL    HW1  350   1.273   1.018   0.964 -0.6149  1.3455  2.4334
   88SOL    HW2  351   1.203   1.121   1.036 -0.7018 -1.6705 -0.9986
   88SOL     MW  352   1.201   1.065   0.975  0.0433  0.3587  0.0121
   89SOL     OW  353   1.720   0.728   0.366 -0.8279  0.0426  0.3705
   89SOL    HW1  354   1.730   0.638   0.395 -1.0300  1.3639 -0.6932
   89SOL    HW2  355   1.801   0.748   0.311  0.8187  4.2727  2.0442
   89SOL     MW  356   1.732   0.718   0.363 -0.6373  0.7750  0.4510
   90SOL     OW  357   0.779   1.102   2.724  0.1985 -0.6527 -0.0089
   90SOL    HW1  358   0.843   1.027   2.731  2.9398 -2.0181 -2.0683
   90SOL    HW2  359   0.779   1.145   2.813 -0.1422  0.8399  4.7931
   90SOL     MW  360   0.788   1.098   2.737  0.5152 -0.6359  0.3530
   91SOL     OW  361   2.196   0.668   0.423 -0.4899  0.0947 -0.4213
   91SOL    HW1  362   2.271   0.707   0.381  0.8951  0.6433  0.5274
   91SOL    HW2  363   2.205   0.575   0.400  0.1668 -1.5105  0.7486
   91SOL     MW  364   2.207   0.661   0.415 -0.2205 -0.0447 -0.1418
   92SOL     OW  365   1.750   0.923   0.551  0.3731  0.2860 -0.3564
   92SOL    HW1  366   1.659   0.919   0.594  1.5180 -0.9893 -0.0631
   92SOL    HW2  367   1.763   0.852   0.487  1.0920  1.3771  1.0330
   92SOL     MW  368   1.739   0.913   0.548  0.6190  0.2617 -0.1344
   93SOL     OW  369   0.968   0.242   0.406 -0.4794  0.3006  0.0136
   93SOL    HW1  370   0.884   0.280   0.427 -0.1043 -1.3545  1.6087
   93SOL    HW2  371   0.995   0.278   0.320 -0.3617  1.0096 -0.5792
   93SOL     MW  372   0.961   0.252   0.397 -0.4144  0.1757  0.1458
   94SOL     OW  373   1.831   1.392   1.605  0.1218 -0.1848 -0.3041
   94SOL    HW1  374   1.849   1.387   1.509 -0.0443 -0.8706 -3.4359
   94SOL    HW2  375   1.819   1.308   1.651  1.8350 -1.2405  1.9643
   94SOL     MW  376   1.832   1.380   1.598  0.3259 -0.4146 -0.4180
   95SOL     OW  377   0.789   1.568   0.923  0.9996 -0.4478 -0.4461
   95SOL    HW1  378   0.834   1.515   0.989 -3.0813  0.2243  3.0810
   95SOL    HW2  379   0.697   1.542   0.926  1.0758  0.9929  2.7916
   95SOL     MW  380   0.783   1.558   0.932  0.4712 -0.1690  0.4464
   96SOL     OW  381   1.244   1.876   1.646 -0.8533  0.0330  0.6122
   96SOL    HW1  382   1.164   1.865   1.695  2.4835 -0.0477 -2.3588
   96SOL    HW2  383   1.282   1.784   1.644 -4.1473  3.4229  0.6825
   96SOL     MW  384   1.239   1.862   1.652 -0.8476  0.4696  0.2295
   97SOL     OW  385   1.247   1.466   0.769  0.0692 -0.0863  0.6152
   97SOL    HW1  386   1.249   1.506   0.855  0.6909 -1.8061  0.1439
   97SOL    HW2  387   1.164   1.500   0.726 -0.1178 -0.7143 -1.9720
   97SOL     MW  388   1.237   1.476   0.774  0.1265 -0.3961  0.2117
   98SOL     OW  389   1.414   1.262   1.050  0.3315  0.0539 -0.0937
   98SOL    HW1  390   1.491   1.256   1.099  0.5310  0.5787 -3.2507
   98SOL    HW2  391   1.439   1.303   0.966  0.4210 -0.0949  0.9961
   98SOL     MW  392   1.428   1.266   1.046  0.3696  0.1035 -0.3664
   99SOL     OW  393   1.329   0.343   1.353 -0.0423  0.0598  0.0481
   99SOL    HW1  394   1.407   0.361   1.305 -1.3405  2.2322 -3.5816
   99SOL    HW2  395   1.363   0.351   1.445  4.7754 -1.4110 -0.6222
   99SOL     MW  396   1.344   0.346   1.359  0.4221  0.1524 -0.5192
  100SOL     OW  397   1.003   1.167   1.446  0.1266  0.0407 -0.5448
  100SOL    HW1  398   1.022   1.183   1.535  1.6135  0.2617 -2.8583
  100SOL    HW2  399   1.050   1.083   1.434 -1.3284 -2.3644  2.5057
  100SOL     MW  400   1.012   1.158   1.456  0.1308 -0.2474 -0.4475
  101SOL     OW  401   0.484   1.118   0.354 -0.2339  0.1281 -0.6162
  101SOL    HW1  402   0.470   1.023   0.361  0.1079 -2.2718 -1.4605
  101SOL    HW2  403   0.474   1.125   0.260  1.7496 -0.5432  1.5106
  101SOL     MW  404   0.481   1.107   0.342  0.0729 -0.2771 -0.4470
  102SOL     OW  405   2.912   0.663   1.049 -0.5643  0.3440 -0.6829
  102SOL    HW1  406   2.991   0.717   1.048 -0.9302  0.7601  0.8733
  102SOL    HW2  407   2.884   0.653   1.139  1.2954  2.9556  1.7049
  102SOL     MW  408   2.919   0.669   1.061 -0.3672  0.7435 -0.1626
  103SOL     OW  409   1.719   0.288   1.844 -1.2564 -0.4980  0.3290
  103SOL    HW1  410   1.650   0.236   1.801  0.9033  2.9581  1.3693
  103SOL    HW2  411   1.798   0.227   1.861 -0.0747 -1.2554  1.0153
  103SOL     MW  412   1.721   0.273   1.841 -0.8156 -0.1419  0.5568
  104SOL     OW  413   0.143   1.584   1.512 -0.0354 -0.5146  0.3663
  104SOL    HW1  414   0.134   1.521   1.587  2.0347 -1.9579  4.2692
  104SOL    HW2  415   0.050   1.594   1.473  1.7996 -1.1891  0.8061
  104SOL     MW  416   0.129   1.577   1.517  0.4798 -0.7941  0.9393
  105SOL     OW  417   0.069   1.229   0.428  0.6988  0.1445  0.0423
  105SOL    HW1  418   0.109   1.142   0.403 -0.4752  0.5941  2.1263
  105SOL    HW2  419   0.144   1.275   0.458 -1.0335 -1.1668  0.5000
  105SOL     MW  420   0.084   1.223   0.428  0.3154  0.0308  0.3776
  106SOL     OW  421   0.849   0.342   0.977 -0.2964 -0.2873 -0.0694
  106SOL    HW1  422   0.795   0.404   0.926 -1.3227  0.6116  0.2365
  106SOL    HW2  423   0.907   0.296   0.913 -0.8195  0.7861 -1.1739
  106SOL     MW  424   0.850   0.344   0.962 -0.5008 -0.0271 -0.1748
  107SOL     OW  425   0.813   2.179   2.952  0.1994  0.0744 -0.1992
  107SOL    HW1  426   0.753   2.160   2.879  2.2308 -0.6449 -1.0094
  107SOL    HW2  427   0.780   2.121   3.026 -0.8096 -1.5021 -1.8641
  107SOL     MW  428   0.801   2.169   2.952  0.3343 -0.2285 -0.5257
  108SOL     OW  429   1.337   1.606   1.646  0.3670 -0.5299 -0.2349
  108SOL    HW1  430   1.298   1.586   1.568  1.7310 -3.4970  1.5928
  108SOL    HW2  431   1.410   1.546   1.638  1.2274  2.8521 -0.3999
  108SOL     MW  432   1.341   1.596   1.635  0.6604 -0.4752 -0.0155
  109SOL     OW  433   1.950   0.775   0.216 -0.0349 -0.3655 -0.2736
  109SOL    HW1  434   1.973   0.772   0.125  0.6122 -1.8329 -0.7492
  109SOL    HW2  435   1.995   0.849   0.263  1.6917 -1.9296  1.4834
  109SOL     MW  436   1.959   0.784   0.210  0.2783 -0.7655 -0.1045
  110SOL     OW  437   0.343   1.871   0.662 -0.3965  0.2727 -0.4603
  110SOL    HW1  438   0.421   1.812   0.664  0.2583 -1.4565 -2.2076
  110SOL    HW2  439   0.378   1.956   0.634 -1.8720  1.5247 -0.4673
  110SOL     MW  440   0.358   1.875   0.659 -0.5048  0.2097 -0.6918
  111SOL     OW  441   0.864   0.916   1.525  0.0602  0.1554 -0.0243
  111SOL    HW1  442   0.815   0.895   1.439 -1.1929 -2.5508 -2.3467
  111SOL    HW2  443   0.856   0.841   1.583 -0.7582  1.7431 -0.0623
  111SOL     MW  444   0.857   0.904   1.521 -0.2131  0.0078 -0.3357
  112SOL     OW  445   1.321   1.137   1.618 -0.6878  0.4878 -0.4558
  112SOL    HW1  446   1.248   1.194   1.651 -0.7652 -0.2748 -0.9039
  112SOL    HW2  447   1.294   1.042   1.621 -0.1876 -1.2555  2.1621
  112SOL     MW  448   1.308   1.132   1.623 -0.6320  0.1572 -0.1695
  113SOL     OW  449   1.288   3.091   1.728 -0.0434  0.4885  0.1535
  113SOL    HW1  450   1.274   3.038   1.807 -0.2585 -1.5332 -0.4626
  113SOL    HW2  451   1.286   3.034   1.647  1.8026 -2.6529  0.0064
  113SOL     MW  452   1.286   3.077   1.728  0.1718 -0.1928  0.0528
  114SOL     OW  453   0.303   2.881   1.961 -0.0341 -0.2525 -0.3886
  114SOL    HW1  454   0.373   2.937   2.007  1.3921  1.5094  2.2147
  114SOL    HW2  455   0.322   2.877   1.866  1.9829  1.2672  0.9651
  114SOL     MW  456   0.315   2.888   1.955  0.4202  0.1805  0.1334
  115SOL     OW  457   0.501   0.839   1.104  0.1377 -0.6292 -0.0545
  115SOL    HW1  458   0.506   0.741   1.110 -0.3163  0.4504  0.3311
  115SOL    HW2  459   0.456   0.872   1.185 -0.6089  2.1439  0.4187
  115SOL     MW  460   0.496   0.831   1.115 -0.0207 -0.1209  0.0588
  116SOL     OW  461   0.779   1.099   0.945 -0.1806  0.2854  0.8760
  116SOL    HW1  462   0.852   1.108   0.875 -0.0633 -1.5722 -1.9854
  116SOL    HW2  463   0.813   1.136   1.024 -1.6623 -2.0799 -0.7034
  116SOL     MW  464   0.793   1.105   0.946 -0.3606 -0.2718  0.2901
  117SOL     OW  465   1.206   1.178   0.724  0.4566  0.4872 -0.4770
  117SOL    HW1  466   1.200   1.128   0.809 -0.1459  0.4130 -0.9452
  117SOL    HW2  467   1.229   1.264   0.751  1.5750  0.5355  1.4163
  117SOL     MW  468   1.208   1.183   0.739  0.5247  0.4838 -0.2890
  118SOL     OW  469   3.038   2.975   1.712 -0.1512  0.0564  0.1588
  118SOL    HW1  470   3.076   3.044   1.771  1.9455 -2.4182  0.6201
  118SOL    HW2  471   2.938   2.991   1.712 -1.8760 -0.8097 -2.1874
  118SOL     MW  472   3.030   2.987   1.720 -0.1021 -0.3844 -0.0899
  119SOL     OW  473   0.452   1.495   1.291  0.8876 -0.1984 -0.1679
  119SOL    HW1  474   0.485   1.529   1.209  0.5620  0.1208  0.1012
  119SOL    HW2  475   0.358   1.479   1.289 -0.0448  1.2802 -2.4756
  119SOL     MW  476   0.444   1.497   1.280  0.7216  0.0388 -0.4369
  120SOL     OW  477   0.267   0.691   1.008  0.1114 -0.0883 -0.0092
  120SOL    HW1  478   0.248   0.620   1.074  0.2662 -0.4335  1.3248
  120SOL    HW2  479   0.299   0.764   1.057 -0.9314 -0.6500 -0.1312
  120SOL     MW  480   0.269   0.691   1.023 -0.0058 -0.2080  0.1507
  121SOL     OW  481   1.718   1.155   1.743  0.3184 -0.6107 -0.1188
  121SOL    HW1  482   1.624   1.131   1.761 -2.2217 -1.0288 -0.2054
  121SOL    HW2  483   1.746   1.091   1.679 -1.2576 -1.1285  3.4624
  121SOL     MW  484   1.709   1.144   1.737 -0.2247 -0.7342  0.3423
  122SOL     OW  485   0.120   0.556   0.779  0.1301  0.2055  0.5168
  122SOL    HW1  486   0.172   0.514   0.709 -1.2899  0.0865 -0.4685
  122SOL    HW2  487   0.179   0.617   0.829  0.4916 -1.5208  1.0106
  122SOL     MW  488   0.134   0.558   0.777 -0.0096 -0.0380  0.4519
  123SOL     OW  489   1.876   1.152   0.506 -0.4247  0.2823  0.1055
  123SOL    HW1  490   1.834   1.069   0.534 -1.6756 -0.3863 -0.8247
  123SOL    HW2  491   1.898   1.203   0.586  2.6249 -1.7559  3.0734
  123SOL     MW  492   1.874   1.148   0.520 -0.1874 -0.0748  0.3744
  124SOL     OW  493   0.675   0.552   0.915  0.1257 -0.2842  0.2687
  124SOL    HW1  494   0.613   0.505   0.852 -2.6878  0.6738 -1.4592
  124SOL    HW2  495   0.687   0.642   0.885  0.0555  1.5873  1.1342
  124SOL     MW  496   0.669   0.558   0.903 -0.2548  0.0891  0.1549
  125SOL     OW  497   0.630   1.794   1.720  0.0337  0.0087  0.9361
  125SOL    HW1  498   0.578   1.716   1.696 -0.2089  2.1048  0.4604
  125SOL    HW2  499   0.594   1.873   1.668 -2.5915  1.5108 -0.2646
  125SOL     MW  500   0.618   1.794   1.710 -0.3446  0.4835  0.7149
  126SOL     OW  501   2.065   1.574   1.946 -0.0789 -0.0427  0.1916
  126SOL    HW1  502   2.126   1.643   1.974  0.6444 -1.3000 -0.0153
  126SOL    HW2  503   2.109   1.492   1.965  0.0337 -0.3975 -1.6949
  126SOL     MW  504   2.079   1.573   1.952  0.0313 -0.2554 -0.0846
  127SOL     OW  505   0.654   0.801   1.836 -0.4285 -0.0556  0.0661
  127SOL    HW1  506   0.716   0.733   1.860  0.6375  2.5221 -1.3030
  127SOL    HW2  507   0.680   0.871   1.899 -0.5462  1.9791 -1.7266
  127SOL     MW  508   0.666   0.801   1.847 -0.3034  0.5530 -0.3511
  128SOL     OW  509   1.785   0.740   2.934  0.1263  0.6675 -0.0867
  128SOL    HW1  510   1.778   0.698   2.847  0.2591  2.2142 -1.1501
  128SOL    HW2  511   1.767   0.832   2.907  0.1004 -1.0671  0.6749
  128SOL     MW  512   1.782   0.747   2.919  0.1404  0.6427 -0.1265
  129SOL     OW  513   1.577   0.936   0.210 -0.3947 -0.5784  0.4245
  129SOL    HW1  514   1.535   0.861   0.163 -1.6115  1.2195 -0.8093
  129SOL    HW2  515   1.631   0.888   0.278  2.5207 -1.1361 -0.3754
  129SOL     MW  516   1.579   0.920   0.213 -0.1705 -0.4147  0.1561
  130SOL     OW  517   0.759   1.376   0.330 -0.2677  0.0254 -0.5297
  130SOL    HW1  518   0.788   1.395   0.425  3.2590  0.4202 -0.4235
  130SOL    HW2  519   0.802   1.435   0.276 -1.6686 -2.3584  2.6325
  130SOL     MW  520   0.769   1.386   0.335  0.0127 -0.2370 -0.0985
  131SOL     OW  521   3.071   0.804   0.017 -0.1431  0.1746  0.0168
  131SOL    HW1  522   3.047   0.853  -0.060  4.1252  0.6786  2.1832
  131SOL    HW2  523   3.142   0.742  -0.001 -1.5720  1.9138  0.1250
  131SOL     MW  524   3.077   0.802   0.004  0.2315  0.4706  0.3169
  132SOL     OW  525   2.690   0.131   1.255  0.1515  0.2185  0.2331
  132SOL    HW1  526   2.694   0.152   1.152  0.5282  0.7956 -0.7574
  132SOL    HW2  527   2.604   0.105   1.279  1.9473 -0.7288 -0.2202
  132SOL     MW  528   2.679   0.130   1.245  0.4382  0.1697  0.0426
  133SOL     OW  529   1.048   0.150   1.693  0.3606 -0.4527 -0.1934
  133SOL    HW1  530   1.137   0.113   1.694  0.3409 -1.7171 -0.9508
  133SOL    HW2  531   1.035   0.170   1.785 -0.4195 -2.3644 -2.0116
  133SOL     MW  532   1.058   0.148   1.705  0.2551 -0.8717 -0.5332
  134SOL     OW  533   1.378   2.535   1.436  1.0183 -0.0873 -0.2975
  134SOL    HW1  534   1.302   2.586   1.411 -0.9700  1.6650  1.9346
  134SOL    HW2  535   1.407   2.562   1.526 -0.7624  1.4415 -0.0100
  134SOL     MW  536   1.372   2.545   1.444  0.5210  0.3456  0.0350
  135SOL     OW  537   3.005   0.972   2.854 -0.0299 -0.1674  0.2192
  135SOL    HW1  538   3.089   1.009   2.870 -1.6660  0.4356 -0.4387
  135SOL    HW2  539   2.947   1.053   2.847  3.1377  3.1010  0.6153
  135SOL     MW  540   3.008   0.988   2.855  0.1722  0.3434  0.1847
  136SOL     OW  541   0.169   2.022   0.822 -0.1531 -0.6821 -0.1981
  136SOL    HW1  542   0.081   1.991   0.801  0.3763  0.3665 -2.9383
  136SOL    HW2  543   0.223   1.971   0.757  0.2602 -1.7312 -2.7859
  136SOL     MW  544   0.165   2.011   0.810 -0.0287 -0.6821 -0.9011
  137SOL     OW  545   0.711   2.039   0.517  0.2790  0.0036  0.8001
  137SOL    HW1  546   0.731   2.051   0.614  4.2129  1.8748  0.2899
  137SOL    HW2  547   0.610   2.048   0.519 -0.1386 -0.4048 -4.3406
  137SOL     MW  548   0.701   2.042   0.530  0.7430  0.1966  0.0545
  138SOL     OW  549   0.525   0.582   1.135 -0.3356  0.1671  0.5990
  138SOL    HW1  550   0.437   0.548   1.117 -2.0801  1.3795 -1.2511
  138SOL    HW2  551   0.581   0.555   1.058  0.6562 -0.0100  2.6251
  138SOL     MW  552   0.521   0.574   1.122 -0.4349  0.3037  0.6222
  139SOL     OW  553   2.770   0.628   1.325 -0.3217  0.3659 -0.9302
  139SOL    HW1  554   2.808   0.537   1.341 -2.2816 -0.6568  0.1675
  139SOL    HW2  555   2.818   0.686   1.382  1.8519  1.0690  0.0990
  139SOL     MW  556   2.781   0.624   1.335 -0.2935  0.3237 -0.6496
  140SOL     OW  557   0.872   0.402   2.075  0.9254  0.2537 -0.1313
  140SOL    HW1  558   0.932   0.335   2.039 -0.7794  1.3372  1.5587
  140SOL    HW2  559   0.895   0.401   2.167  2.6605 -1.3604 -1.8584
  140SOL     MW  560   0.883   0.393   2.083  0.9294  0.1837 -0.1362
  141SOL     OW  561   1.063   0.665   1.741 -0.0620  0.2308  0.3013
  141SOL    HW1  562   1.109   0.581   1.729 -1.6941 -0.2443  2.1849
  141SOL    HW2  563   1.125   0.735   1.730 -2.4199 -0.8192 -0.7604
  141SOL     MW  564   1.078   0.663   1.738 -0.5885  0.0296  0.4097
  142SOL     OW  565   0.916   1.189   0.713  0.1481 -0.1914 -0.2230
  142SOL    HW1  566   0.901   1.115   0.653 -1.3971 -0.9755  1.7618
  142SOL    HW2  567   1.009   1.178   0.731 -2.0743  0.7397 -0.4485
  142SOL     MW  568   0.926   1.178   0.708 -0.3490 -0.1720  0.0091
  143SOL     OW  569   1.821   0.787   1.100  0.3366 -0.5909 -0.3578
  143SOL    HW1  570   1.888   0.779   1.031  2.3172 -2.2874 -1.3837
  143SOL    HW2  571   1.742   0.752   1.055  1.3628 -4.3839 -2.0465
  143SOL     MW  572   1.820   0.781   1.085  0.7333 -1.3152 -0.7160
  144SOL     OW  573   0.265   1.198   1.618 -0.0037  0.2018  0.5904
  144SOL    HW1  574   0.360   1.204   1.597 -1.0238 -0.0124 -1.5261
  144SOL    HW2  575   0.252   1.214   1.710  0.8206 -0.5111  0.4883
  144SOL     MW  576   0.276   1.201   1.628 -0.0296  0.0795  0.2977
  145SOL     OW  577   0.224   0.484   1.165 -0.0750  0.5961 -1.0480
  145SOL    HW1  578   0.298   0.450   1.214 -0.0774 -2.3510  3.1469
  145SOL    HW2  579   0.162   0.410   1.135 -1.0583  3.0376  1.1438
  145SOL     MW  580   0.226   0.470   1.168 -0.2050  0.5294 -0.2053
  146SOL     OW  581   0.866   1.951   1.353 -0.2485  0.3657  0.0827
  146SOL    HW1  582   0.919   1.961   1.270 -3.1562 -2.3066 -0.5585
  146SOL    HW2  583   0.782   1.931   1.314  0.3978 -1.5440  0.9139
  146SOL     MW  584   0.862   1.950   1.337 -0.5469 -0.2388  0.1078
  147SOL     OW  585   0.444   0.463   2.949  0.2626  0.0240  0.7524
  147SOL    HW1  586   0.387   0.452   3.024  1.7207  0.1693 -0.1656
  147SOL    HW2  587   0.393   0.515   2.883 -0.2636  0.6384  0.6510
  147SOL     MW  588   0.430   0.469   2.950  0.3856  0.1243  0.6179
  148SOL     OW  589   0.153   0.855   1.284  0.2320  0.3832  0.0703
  148SOL    HW1  590   0.250   0.874   1.314  0.1883  0.7717 -0.7343
  148SOL    HW2  591   0.104   0.918   1.345 -2.9166  0.8857  0.3412
  148SOL     MW  592   0.159   0.866   1.296 -0.1892  0.5007 -0.0001
  149SOL     OW  593   1.326   1.175   1.332  0.5210  0.5997  0.3652
  149SOL    HW1  594   1.316   1.162   1.428 -0.3568  2.0208 -0.0842
  149SOL    HW2  595   1.394   1.243   1.323  0.9435  0.7334  1.0074
  149SOL     MW  596   1.334   1.182   1.344  0.4609  0.8048  0.3907
  150SOL     OW  597   1.821   1.322   0.742 -0.2039 -0.4124  0.7241
  150SOL    HW1  598   1.853   1.269   0.812  0.6565  1.5898  1.3456
  150SOL    HW2  599   1.840   1.410   0.771 -1.3627 -1.1303  1.6003
  150SOL     MW  600   1.828   1.327   0.755 -0.2433 -0.2429  0.9217
  151SOL     OW  601   1.648   1.782   0.812 -0.4105 -0.6515 -0.5423
  151SOL    HW1  602   1.670   1.785   0.719 -0.8369 -0.2243  0.4214
  151SOL    HW2  603   1.589   1.703   0.846 -0.9453 -2.3368 -0.1032
  151SOL     MW  604   1.643   1.772   0.805 -0.5373 -0.8175 -0.3572
  152SOL     OW  605   0.762   1.370   1.501  0.1120  0.4067  0.1193
  152SOL    HW1  606   0.772   1.338   1.589  0.0424 -0.8953  0.4213
  152SOL    HW2  607   0.849   1.349   1.468  1.5306 -1.9747  0.1612
  152SOL     MW  608   0.774   1.363   1.508  0.2900 -0.0793  0.1647
  153SOL     OW  609   2.612   1.212   0.790 -0.0625  0.1085  0.1882
  153SOL    HW1  610   2.680   1.154   0.738 -0.8861 -1.0342  0.1648
  153SOL    HW2  611   2.539   1.146   0.794 -0.6661 -3.1937  2.1033
  153SOL     MW  612   2.611   1.196   0.783 -0.2508 -0.4779  0.4378
  154SOL     OW  613   0.227   1.804   1.697  0.1859 -0.2660  0.1410
  154SOL    HW1  614   0.229   1.731   1.642 -3.5170 -1.0958  1.1983
  154SOL    HW2  615   0.235   1.764   1.782 -1.1042 -0.7180  0.1257
  154SOL     MW  616   0.228   1.789   1.701 -0.4729 -0.4351  0.2785
  155SOL     OW  617   1.220   0.692   0.206  0.6171  0.0860 -0.8192
  155SOL    HW1  618   1.179   0.643   0.282 -4.4315  0.3867  0.2162
  155SOL    HW2  619   1.201   0.786   0.230 -0.4611  0.7116  1.5277
  155SOL     MW  620   1.212   0.698   0.219 -0.1913  0.2082 -0.3729
  156SOL     OW  621   1.488   3.066   1.125 -0.1024 -0.7510 -0.1480
  156SOL    HW1  622   1.578   3.110   1.139  0.1104  2.9598 -4.0719
  156SOL    HW2  623   1.500   2.974   1.129 -0.4710 -0.3077  1.8751
  156SOL     MW  624   1.501   3.060   1.127 -0.1230 -0.2029 -0.3988
  157SOL     OW  625   1.451   1.168   0.122 -0.1429  0.7205  0.1764
  157SOL    HW1  626   1.501   1.091   0.166  2.2310 -1.0991  3.6217
  157SOL    HW2  627   1.523   1.234   0.098  0.1701  1.0805  1.1735
  157SOL     MW  628   1.467   1.166   0.125  0.2116  0.5279  0.7625
  158SOL     OW  629   0.543   1.653   2.214 -0.1769 -0.0069  0.2349
  158SOL    HW1  630   0.569   1.730   2.160  0.5474 -0.7185 -1.2484
  158SOL    HW2  631   0.473   1.684   2.267  3.9981 -0.9679 -0.3182
  158SOL     MW  632   0.537   1.667   2.214  0.4695 -0.2276 -0.0338
  159SOL     OW  633   1.289   1.669   0.436 -0.2770 -0.3580  0.1510
  159SOL    HW1  634   1.261   1.594   0.384 -0.8862  0.6997 -0.1088
  159SOL    HW2  635   1.202   1.709   0.467 -1.1060 -0.9912  0.0881
  159SOL     MW  636   1.274   1.664   0.433 -0.4667 -0.3020  0.1084
  160SOL     OW  637   0.541   1.147   1.622  0.0366  0.1538  0.1181
  160SOL    HW1  638   0.525   1.050   1.634  0.8567  1.0615 -0.5307
  160SOL    HW2  639   0.620   1.167   1.676  0.7654 -0.0985  2.4401
  160SOL     MW  640   0.549   1.137   1.631  0.2409  0.2403  0.3389
  161SOL     OW  641   0.509   2.254   2.559  0.5513  0.4076  0.0259
  161SOL    HW1  642   0.412   2.263   2.557 -1.8878  1.6272  1.8298
  161SOL    HW2  643   0.524   2.180   2.498 -2.3988 -0.5364 -2.7248
  161SOL     MW  644   0.498   2.245   2.551 -0.1598  0.4439 -0.0990
  162SOL     OW  645   1.059   1.779   1.889  0.2199  0.6905  0.4885
  162SOL    HW1  646   1.064   1.867   1.930  4.6911  1.8790  0.3842
  162SOL    HW2  647   0.966   1.749   1.887 -0.7576  0.2653 -1.1797
  162SOL     MW  648   1.047   1.787   1.894  0.6809  0.7912  0.2546
  163SOL     OW  649   2.123   0.020   0.921 -0.6680 -0.1403 -0.3305
  163SOL    HW1  650   2.107   0.102   0.866 -2.3351 -0.9718 -2.5325
  163SOL    HW2  651   2.104  -0.035   0.848 -1.1886  2.1312  0.5351
  163SOL     MW  652   2.118   0.024   0.904 -0.9567  0.0497 -0.5068
  164SOL     OW  653   0.338   0.204   0.846 -0.3366  0.3460 -0.4432
  164SOL    HW1  654   0.251   0.231   0.887 -1.5401  0.8918  1.2576
  164SOL    HW2  655   0.326   0.126   0.797 -1.7696  1.3289 -0.0222
  164SOL     MW  656   0.325   0.197   0.845 -0.6845  0.5477 -0.1633
  165SOL     OW  657   1.351   1.269   0.355  0.4216  0.2843 -0.1143
  165SOL    HW1  658   1.335   1.193   0.410 -1.6003 -0.2560  1.3973
  165SOL    HW2  659   1.397   1.243   0.270  0.2516  0.5372 -2.3706
  165SOL     MW  660   1.355   1.256   0.351  0.1324  0.2463 -0.2125
  166SOL     OW  661   0.527   1.190   1.013  0.1596  0.3544 -0.3074
  166SOL    HW1  662   0.536   1.171   1.109 -1.6036  2.3584 -0.8709
  166SOL    HW2  663   0.604   1.157   0.961  0.3423  0.4762 -2.6071
  166SOL     MW  664   0.538   1.183   1.019 -0.0489  0.6349 -0.6852
  167SOL     OW  665   0.798   1.030   0.292 -0.1991  0.3407  0.6158
  167SOL    HW1  666   0.716   1.083   0.271 -3.6343  3.7244  0.7694
  167SOL    HW2  667   0.849   1.041   0.209  2.0491  2.5714 -1.2742
  167SOL     MW  668   0.794   1.038   0.278 -0.3557  1.0815  0.3867
  168SOL     OW  669   1.689   1.653   3.051 -0.5731  0.1886  0.2581
  168SOL    HW1  670   1.619   1.680   2.996  2.1545 -0.3103 -0.9271
  168SOL    HW2  671   1.702   1.563   3.038  1.6842  3.3552  2.2747
  168SOL     MW  672   1.682   1.645   3.042  0.0846  0.5405  0.3678
  169SOL     OW  673   0.400   0.949   1.354 -0.0220  0.3808  0.2610
  169SOL    HW1  674   0.432   0.911   1.434 -2.2004  1.3824 -2.0959
  169SOL    HW2  675   0.444   1.031   1.340 -0.4636 -0.4072 -0.9335
  169SOL     MW  676   0.410   0.955   1.363 -0.3677  0.4090 -0.2076
  170SOL     OW  677   1.030   1.512   1.523  0.0120  0.7129  0.1859
  170SOL    HW1  678   0.975   1.590   1.549 -0.5526  0.3191  1.2643
  170SOL    HW2  679   1.082   1.547   1.446 -1.4992  0.5319 -0.7009
  170SOL     MW  680   1.030   1.527   1.516 -0.2619  0.6371  0.2112
  171SOL     OW  681   0.503   1.451   0.634 -0.3509 -0.1643 -0.1042
  171SOL    HW1  682   0.494   1.456   0.734  0.1996 -0.1831  1.9055
  171SOL    HW2  683   0.519   1.351   0.622 -1.2600 -2.0759  3.5054
  171SOL     MW  684   0.504   1.439   0.645 -0.3982 -0.4190  0.6372
  172SOL     OW  685   0.868   0.348   1.253  0.6446  0.3977  0.1717
  172SOL    HW1  686   0.868   0.359   1.154  4.0362  1.2760 -1.3199
  172SOL    HW2  687   0.779   0.380   1.268  0.9416 -1.7630 -0.5252
  172SOL     MW  688   0.856   0.353   1.242  1.1313  0.2285 -0.1170
  173SOL     OW  689   0.432   1.696   0.380  0.1757 -0.3132 -0.2430
  173SOL    HW1  690   0.457   1.620   0.323  0.0026 -1.2789  1.1387
  173SOL    HW2  691   0.489   1.674   0.458 -0.1583 -0.8581 -0.0673
  173SOL     MW  692   0.443   1.683   0.383  0.1088 -0.5125 -0.0375
  174SOL     OW  693   1.821   0.980   1.550  0.3286  0.0347  0.1887
  174SOL    HW1  694   1.807   0.881   1.552 -1.4860 -1.5830 -1.2555
  174SOL    HW2  695   1.808   0.999   1.455  0.4713 -0.3185  2.0089
  174SOL     MW  696   1.817   0.969   1.538  0.1080 -0.2253  0.2383
  175SOL     OW  697   0.506   1.483   0.250 -0.2337 -0.1483 -0.2649
  175SOL    HW1  698   0.458   1.412   0.217  0.2466 -2.0025 -0.1186
  175SOL    HW2  699   0.591   1.447   0.280 -1.1011 -0.2255 -0.8121
  175SOL     MW  700   0.511   1.469   0.250 -0.2848 -0.4031 -0.3178
  176SOL     OW  701   0.182   1.494   1.207  0.3155  0.4837 -0.6013
  176SOL    HW1  702   0.176   1.424   1.143 -0.6295 -0.9232 -0.1335
  176SOL    HW2  703   0.090   1.495   1.252  2.7279 -0.2041 -1.7866
  176SOL     MW  704   0.169   1.485   1.204  0.5091  0.2074 -0.6960
  177SOL     OW  705   0.654   0.457   1.401  0.0665  0.8788  0.6372
  177SOL    HW1  706   0.607   0.514   1.337 -0.0701  0.3540  0.9525
  177SOL    HW2  707   0.623   0.482   1.485  3.2148 -1.1566 -1.0135
  177SOL     MW  708   0.644   0.468   1.404  0.4639  0.5410  0.4610
  178SOL     OW  709   3.051   0.534   2.944 -0.7664  0.7847 -0.2507
  178SOL    HW1  710   2.974   0.560   2.992  0.3289  0.5747 -1.7914
  178SOL    HW2  711   3.004   0.489   2.868  0.5595  1.8260 -0.3764
  178SOL     MW  712   3.035   0.531   2.940 -0.4470  0.8944 -0.4706
  179SOL     OW  713   1.592   1.323   1.324  0.2012 -0.0054 -0.7744
  179SOL    HW1  714   1.553   1.368   1.401 -0.2240 -1.1458 -0.4220
  179SOL    HW2  715   1.688   1.331   1.332 -2.2706  0.1552  0.7000
  179SOL     MW  716   1.600   1.330   1.335 -0.1810 -0.1347 -0.5334
  180SOL     OW  717   3.024   0.193   0.417 -0.2054 -0.1250 -0.1745
  180SOL    HW1  718   2.982   0.198   0.328  0.7894 -3.1886 -0.7001
  180SOL    HW2  719   3.086   0.268   0.423 -0.9137  0.6494  0.2653
  180SOL     MW  720   3.027   0.204   0.406 -0.1676 -0.4270 -0.1858
  181SOL     OW  721   1.109   1.308   3.093  0.0690 -0.1441  0.0425
  181SOL    HW1  722   1.164   1.369   3.142  1.6834  4.6172 -0.2356
  181SOL    HW2  723   1.174   1.263   3.039 -1.3655  1.8237 -0.5313
  181SOL     MW  724   1.124   1.310   3.092  0.0927  0.7437 -0.0699
  182SOL     OW  725   0.456   0.867   1.609  0.1499 -0.5357 -0.6799
  182SOL    HW1  726   0.358   0.849   1.628  1.5210 -3.7965  0.7527
  182SOL    HW2  727   0.496   0.803   1.673  0.8128  0.4822 -1.3415
  182SOL     MW  728   0.449   0.856   1.620  0.4183 -0.8316 -0.5782
  183SOL     OW  729   1.589   1.536   1.137  0.0570  0.4180  0.2337
  183SOL    HW1  730   1.619   1.620   1.170  0.6831 -1.0622 -0.7169
  183SOL    HW2  731   1.561   1.483   1.212 -1.5222  2.6800 -0.8789
  183SOL     MW  732   1.589   1.540   1.151 -0.0687  0.5211 -0.0385
  184SOL     OW  733   0.856   0.661   1.953 -0.9232  0.0346  0.0007
  184SOL    HW1  734   0.946   0.670   1.916  2.1181  0.3010  2.4377
  184SOL    HW2  735   0.852   0.571   1.989 -2.9708  0.8483  0.4121
  184SOL     MW  736   0.867   0.650   1.953 -0.7921  0.1771  0.3765
  185SOL     OW  737   1.210   0.989   1.939 -0.5722 -0.4188  0.3735
  185SOL    HW1  738   1.174   0.905   1.968 -0.8935  0.4120  0.5588
  185SOL    HW2  739   1.220   1.049   2.008 -1.7710 -1.9481 -0.4493
  185SOL     MW  740   1.207   0.986   1.952 -0.7728 -0.5110  0.2893
  186SOL     OW  741   0.374   1.715   1.442 -0.5947  0.0232  0.0583
  186SOL    HW1  742   0.431   1.653   1.395  1.1836 -1.2443  0.4836
  186SOL    HW2  743   0.291   1.666   1.465 -1.4567  1.9581  1.2536
  186SOL     MW  744   0.370   1.700   1.439 -0.4738  0.1113  0.2721
  187SOL     OW  745   1.448   0.686   1.375  0.0627 -0.0495 -0.4917
  187SOL    HW1  746   1.443   0.704   1.468  1.7445 -0.8502 -0.6879
  187SOL    HW2  747   1.361   0.674   1.338  1.4009 -0.5720  1.4168
  187SOL     MW  748   1.436   0.687   1.383  0.4612 -0.2241 -0.2658
  188SOL     OW  749   1.897   1.159   0.933 -0.3857  0.3269 -0.2959
  188SOL    HW1  750   1.883   1.166   1.032  0.5726 -1.0287 -0.7250
  188SOL    HW2  751   1.931   1.068   0.910  2.4393  0.0758  2.1123
  188SOL     MW  752   1.900   1.148   0.943  0.1134  0.1149 -0.0348
  189SOL     OW  753   0.661   0.816   0.817  0.0763  0.3782 -0.1783
  189SOL    HW1  754   0.570   0.848   0.840 -2.6248  1.2556  0.3920
  189SOL    HW2  755   0.720   0.872   0.865  0.6600 -2.4074 -0.9072
  189SOL     MW  756   0.657   0.827   0.826 -0.2031  0.1264 -0.1992
  190SOL     OW  757   1.901   0.220   2.153  0.1827 -0.7541  0.4336
  190SOL    HW1  758   1.907   0.237   2.247 -0.1396  1.6585  1.3632
  190SOL    HW2  759   1.963   0.275   2.108  0.7315  0.7048  0.5532
  190SOL     MW  760   1.910   0.229   2.159  0.2126 -0.2433  0.5720
  191SOL     OW  761   1.483   0.942   1.236 -0.5937  0.2262  0.0656
  191SOL    HW1  762   1.423   1.018   1.254  1.4759 -0.0141  1.1229
  191SOL    HW2  763   1.451   0.868   1.285 -0.6954 -0.1987 -3.7658
  191SOL     MW  764   1.471   0.942   1.245 -0.3340  0.1384 -0.3004
  192SOL     OW  765   0.617   2.127   2.788 -0.1900  0.2760 -0.4266
  192SOL    HW1  766   0.591   2.184   2.718  0.7973  1.6302 -2.7140
  192SOL    HW2  767   0.582   2.038   2.767 -1.2486 -1.6857  0.3339
  192SOL     MW  768   0.609   2.123   2.776 -0.1994  0.1959 -0.6281
  193SOL     OW  769   0.991   1.561   0.735 -0.4686 -0.0489  0.4493
  193SOL    HW1  770   0.930   1.559   0.812  3.3703  2.7727 -1.0069
  193SOL    HW2  771   0.950   1.500   0.669 -0.5909 -1.7152 -0.9004
  193SOL     MW  772   0.978   1.553   0.737  0.0217  0.1035  0.0791
  194SOL     OW  773   0.517   1.449   0.927  0.1842  0.0786 -0.3334
  194SOL    HW1  774   0.516   1.365   0.979  0.3753 -0.2335  0.3304
  194SOL    HW2  775   0.423   1.457   0.908  1.2747  0.3576  1.1934
  194SOL     MW  776   0.504   1.439   0.931  0.3533  0.0742 -0.0443
  195SOL     OW  777   1.303   1.138   2.981  0.0214  1.0860  0.0441
  195SOL    HW1  778   1.347   1.139   3.066  2.0930 -2.4629 -0.2031
  195SOL    HW2  779   1.239   1.070   2.984  2.1658 -0.6910  0.1394
  195SOL     MW  780   1.300   1.129   2.993  0.5777  0.3833  0.0240
  196SOL     OW  781   2.209   1.022   0.598  0.0446  0.5011  0.5163
  196SOL    HW1  782   2.179   0.974   0.518  0.0707  1.6673  2.7304
  196SOL    HW2  783   2.213   1.117   0.573  0.0686  1.6805 -0.7583
  196SOL     MW  784   2.206   1.028   0.584  0.0513  0.8105  0.6403
  197SOL     OW  785   0.641   1.229   2.097 -0.3930  0.8305  0.2469
  197SOL    HW1  786   0.660   1.148   2.053  5.3047 -1.2660  2.2034
  197SOL    HW2  787   0.608   1.297   2.036 -0.6441  2.6316 -1.5265
  197SOL     MW  788   0.639   1.227   2.083  0.3256  0.7916  0.2711
  198SOL     OW  789   2.944   1.377   1.089 -0.5041  0.2234  0.0931
  198SOL    HW1  790   2.895   1.451   1.052 -3.1385  0.1511  1.4142
  198SOL    HW2  791   2.882   1.309   1.068  0.5251  2.8912 -0.7639
  198SOL     MW  792   2.929   1.378   1.081 -0.7159  0.5659  0.1544
  199SOL     OW  793   0.533   1.409   1.887 -0.4798 -0.1039  0.0512
  199SOL    HW1  794   0.464   1.347   1.878  2.2835 -3.7330 -1.7523
  199SOL    HW2  795   0.570   1.432   1.800 -5.0610  4.8860  1.2542
  199SOL     MW  796   0.528   1.404   1.874 -0.7196  0.0756 -0.0280
  200SOL     OW  797   1.875   2.989   1.319  0.3323 -0.3797  0.3859
  200SOL    HW1  798   1.852   2.970   1.231  1.8374  1.5272  0.9031
  200SOL    HW2  799   1.806   3.046   1.344  0.0112 -1.7773 -3.5161
  200SOL     MW  800   1.863   2.994   1.310  0.4885 -0.3125 -0.0607
  201SOL     OW  801   1.043   0.214   0.836  0.1433  0.3462 -0.4558
  201SOL    HW1  802   1.046   0.149   0.763  0.5852 -0.8664 -0.3307
  201SOL    HW2  803   1.133   0.257   0.823  2.6098  2.4917  0.3923
  201SOL     MW  804   1.055   0.211   0.825  0.5270  0.4693 -0.3274
  202SOL     OW  805   1.505   1.564   0.874  0.0986 -0.2417 -0.1165
  202SOL    HW1  806   1.493   1.505   0.799 -1.6571  1.1910  0.6949
  202SOL    HW2  807   1.573   1.537   0.934  1.5962 -0.5803 -0.9560
  202SOL     MW  808   1.512   1.553   0.872  0.0645 -0.0974 -0.1202
  203SOL     OW  809   3.044   0.426   1.302 -0.5290 -0.3552  0.1051
  203SOL    HW1  810   3.114   0.352   1.300  2.5674 -2.3692  1.0971
  203SOL    HW2  811   3.102   0.491   1.343  0.7779 -1.2793  0.8140
  203SOL     MW  812   3.061   0.425   1.307  0.0519 -0.7429  0.3295
  204SOL     OW  813   1.045   1.748   0.550 -0.0192 -0.1067  0.1722
  204SOL    HW1  814   1.032   1.683   0.623  0.6585 -0.9478  3.7576
  204SOL    HW2  815   0.956   1.743   0.507 -1.9212  3.6586  0.3744
  204SOL     MW  816   1.032   1.739   0.554 -0.1808  0.2792  0.6720
  205SOL     OW  817   1.382   0.050   1.362  0.7088 -0.4893  0.5061
  205SOL    HW1  818   1.420   0.019   1.279  0.2214 -1.5259 -1.8952
  205SOL    HW2  819   1.354   0.141   1.355 -1.6827 -1.7288  0.6061
  205SOL     MW  820   1.384   0.058   1.350  0.3289 -0.7896  0.2025
  206SOL     OW  821   0.413   3.004   1.422  0.1638 -0.0618  0.2827
  206SOL    HW1  822   0.385   3.009   1.323 -0.8847 -0.1961  0.0715
  206SOL    HW2  823   0.450   2.914   1.434 -1.2463 -0.1663  2.8190
  206SOL     MW  824   0.414   2.993   1.410 -0.1606 -0.0933  0.5894
  207SOL     OW  825   0.907   1.571   0.186  0.0086 -0.0752  0.2054
  207SOL    HW1  826   0.932   1.668   0.173 -2.1387  0.6736  0.5392
  207SOL    HW2  827   0.986   1.528   0.228  0.2115  0.8006  4.6867
  207SOL     MW  828   0.920   1.578   0.190 -0.2479  0.1392  0.8407
  208SOL     OW  829   0.693   1.661   1.365  0.2602 -0.6494 -0.3992
  208SOL    HW1  830   0.742   1.705   1.433  0.5824 -1.8369  0.0708
  208SOL    HW2  831   0.731   1.574   1.353  0.2971  0.8734 -0.3660
  208SOL     MW  832   0.705   1.655   1.373  0.3076 -0.6052 -0.3328
  209SOL     OW  833   1.539   0.498   2.997  0.1965  0.0637 -0.1438
  209SOL    HW1  834   1.564   0.548   3.070 -2.2955  0.1097  1.1500
  209SOL    HW2  835   1.608   0.480   2.938  1.1198 -0.5348 -0.6869
  209SOL     MW  836   1.551   0.502   2.999 -0.0105 -0.0092 -0.0447
  210SOL     OW  837   1.538   1.273   0.784 -0.2978  0.2282 -0.2286
  210SOL    HW1  838   1.632   1.263   0.780 -2.1463  1.3455 -3.8019
  210SOL    HW2  839   1.511   1.297   0.693 -1.2939 -1.6805 -1.6740
  210SOL     MW  840   1.547   1.275   0.772 -0.6731  0.1238 -0.8908
  211SOL     OW  841   1.687   0.311   0.924  0.2032 -0.7941 -0.3056
  211SOL    HW1  842   1.655   0.358   0.843 -1.1649  0.5420  0.0046
  211SOL    HW2  843   1.783   0.313   0.932  1.5065  1.7055 -0.4256
  211SOL     MW  844   1.696   0.318   0.914  0.1946 -0.2880 -0.2805
  212SOL     OW  845   0.281   1.032   0.140  0.6103  0.2080  0.3845
  212SOL    HW1  846   0.204   1.018   0.193  1.6302 -3.0554  0.6952
  212SOL    HW2  847   0.295   0.949   0.093  0.7465  1.0577  0.0431
  212SOL     MW  848   0.272   1.019   0.140  0.7628 -0.1105  0.3805
  213SOL     OW  849   0.536   1.693   3.055  0.1102 -0.0979  0.4182
  213SOL    HW1  850   0.533   1.759   3.124 -0.9868 -3.4801  0.0758
  213SOL    HW2  851   0.562   1.748   2.981  3.1773  0.1857  0.7744
  213SOL     MW  852   0.539   1.709   3.055  0.3701 -0.5068  0.4200
  214SOL     OW  853   0.625   0.307   2.187  0.5203  0.1680 -0.6500
  214SOL    HW1  854   0.551   0.365   2.170  2.0504 -1.8574 -0.4409
  214SOL    HW2  855   0.667   0.310   2.105 -1.7256  1.4834 -1.1439
  214SOL     MW  856   0.621   0.315   2.174  0.4259  0.0743 -0.6875
  215SOL     OW  857   0.502   0.714   2.659 -0.0845  0.0014 -0.5788
  215SOL    HW1  858   0.526   0.720   2.564  0.3081  2.0816 -1.5523
  215SOL    HW2  859   0.434   0.650   2.679  2.3206 -0.8544  5.5037
  215SOL     MW  860   0.496   0.706   2.649  0.2846  0.1629  0.0953
  216SOL     OW  861   2.913   3.034   2.659 -0.2265  0.1297  0.0587
  216SOL    HW1  862   2.850   3.010   2.728  0.3350 -5.9392 -4.2606
  216SOL    HW2  863   2.932   3.124   2.683  1.8640 -1.7047  2.0879
  216SOL     MW  864   2.907   3.043   2.672  0.1235 -0.9131 -0.2435
  217SOL     OW  865   0.997   1.088   0.108  0.4013 -0.5142  0.6330
  217SOL    HW1  866   1.061   1.030   0.075  0.8349  2.2150  0.8546
  217SOL    HW2  867   1.035   1.177   0.092 -2.0425  2.1115 -0.1755
  217SOL     MW  868   1.010   1.092   0.101  0.1361  0.1924  0.5556
  218SOL     OW  869   0.962   1.307   2.557 -0.0166  0.0679  0.0101
  218SOL    HW1  870   0.990   1.229   2.613 -0.7711 -0.4810  1.4029
  218SOL    HW2  871   1.018   1.376   2.594 -1.1735  0.7908  1.7308
  218SOL     MW  872   0.973   1.306   2.570 -0.2688  0.0909  0.4209
  219SOL     OW  873   1.140   0.427   2.642 -0.2279 -0.4204 -0.1410
  219SOL    HW1  874   1.205   0.492   2.673 -0.0944 -2.5234  0.0874
  219SOL    HW2  875   1.060   0.472   2.608 -2.7637  0.5712  0.3305
  219SOL     MW  876   1.138   0.442   2.642 -0.5448 -0.5670 -0.0487
  220SOL     OW  877   1.774   0.494   2.222  0.4324 -0.0483  0.0027
  220SOL    HW1  878   1.685   0.503   2.181 -3.3739 -0.3894 -1.1128
  220SOL    HW2  879   1.816   0.422   2.168  1.1217  0.7117 -1.5561
  220SOL     MW  880   1.768   0.486   2.210  0.0212  0.0070 -0.3501
  221SOL     OW  881   0.394   1.315   2.976 -0.1261 -0.3804 -0.2418
  221SOL    HW1  882   0.436   1.242   2.925 -0.8577 -0.2446  2.6708
  221SOL    HW2  883   0.458   1.385   2.955  0.2495  1.9406  2.4755
  221SOL     MW  884   0.408   1.315   2.967 -0.1731 -0.0563  0.5010
  222SOL     OW  885   0.349   0.946   2.675 -0.3230  0.2333  0.2565
  222SOL    HW1  886   0.321   0.967   2.589 -0.5397  0.7521 -0.8864
  222SOL    HW2  887   0.411   0.874   2.673  0.0326 -0.1231 -0.1071
  222SOL     MW  888   0.354   0.939   2.664 -0.3046  0.2547  0.0578
  223SOL     OW  889   0.017   2.020   2.512  0.2940  0.0229 -0.0054
  223SOL    HW1  890   0.083   1.990   2.576 -1.4987 -1.6016  1.4809
  223SOL    HW2  891   0.022   2.113   2.524 -0.1756  0.1351 -0.9839
  223SOL     MW  892   0.027   2.028   2.522 -0.0045 -0.1766  0.0616
  224SOL     OW  893   1.501   0.760   2.594 -0.1641 -1.0414 -0.2047
  224SOL    HW1  894   1.535   0.801   2.674  0.3010 -0.7154  2.8528
  224SOL    HW2  895   1.505   0.830   2.523  0.9047  1.0987 -3.0820
  224SOL     MW  896   1.506   0.775   2.595  0.0382 -0.7160 -0.1809
  225SOL     OW  897   2.913   1.443   2.269 -0.1250 -0.3459 -0.2156
  225SOL    HW1  898   2.944   1.516   2.222 -0.2368 -1.3535  2.8277
  225SOL    HW2  899   2.848   1.473   2.335 -0.4393 -0.0986 -0.5928
  225SOL     MW  900   2.908   1.457   2.271 -0.1812 -0.4462  0.1362
  226SOL     OW  901   0.456   1.490   2.704  0.0358  0.1284  0.4513
  226SOL    HW1  902   0.539   1.453   2.673 -1.2995 -0.4946  0.4003
  226SOL    HW2  903   0.455   1.574   2.655 -2.0866  2.1980 -0.6275
  226SOL     MW  904   0.467   1.497   2.693 -0.4204  0.3192  0.3023
  227SOL     OW  905   0.523   1.124   2.837  0.6407  0.4268  0.0975
  227SOL    HW1  906   0.599   1.141   2.776  1.9582 -0.8213  1.4314
  227SOL    HW2  907   0.459   1.064   2.793  0.2724  1.1606 -0.9704
  227SOL     MW  908   0.524   1.119   2.823  0.7659  0.3589  0.1326
  228SOL     OW  909   0.739   0.960   2.036  0.2187 -0.3054 -0.6134
  228SOL    HW1  910   0.812   1.021   2.036 -0.8935  0.1048 -1.0305
  228SOL    HW2  911   0.741   0.917   2.121  2.2108  0.6130  1.1972
  228SOL     MW  912   0.749   0.962   2.047  0.3348 -0.1301 -0.4296
  229SOL     OW  913   0.169   0.614   3.097  0.4519  0.0137 -0.2273
  229SOL    HW1  914   0.116   0.587   3.021  0.1704  1.0984  0.7590
  229SOL    HW2  915   0.186   0.535   3.150  1.2111  1.5221 -0.1602
  229SOL     MW  916   0.165   0.600   3.094  0.5149  0.3559 -0.0883
  230SOL     OW  917   1.685   1.345   2.049 -0.2699 -0.2950 -0.0454
  230SOL    HW1  918   1.620   1.312   2.115  0.1508 -1.8571 -0.7053
  230SOL    HW2  919   1.734   1.265   2.031  0.4929 -1.5422  1.6002
  230SOL     MW  920   1.683   1.330   2.055 -0.1137 -0.6657  0.0847
  231SOL     OW  921   2.711   1.255   2.213  0.0448  0.3234  0.6027
  231SOL    HW1  922   2.794   1.311   2.223 -4.0294 -2.3957  0.8676
  231SOL    HW2  923   2.662   1.263   2.126 -1.1757 -1.8215 -0.9294
  231SOL     MW  924   2.715   1.263   2.203 -0.6538 -0.3183  0.4355
  232SOL     OW  925   2.255   0.827   2.009 -0.7398 -0.1354  0.0855
  232SOL    HW1  926   2.178   0.837   1.948 -1.5689  3.4298 -0.1289
  232SOL    HW2  927   2.223   0.871   2.088 -0.0133  2.2184  2.6104
  232SOL     MW  928   2.241   0.834   2.011 -0.7534  0.6456  0.3903
  233SOL     OW  929   2.050   0.447   2.053  0.5600 -0.2514  0.2157
  233SOL    HW1  930   2.114   0.373   2.063 -0.8465 -1.3880  0.5154
  233SOL    HW2  931   2.060   0.517   2.119  1.6630  0.6009 -1.2886
  233SOL     MW  932   2.060   0.446   2.063  0.5200 -0.2889  0.0567
  234SOL     OW  933   0.251   1.067   2.419 -0.9492 -0.0058  0.3699
  234SOL    HW1  934   0.159   1.060   2.410  1.2180 -0.2647  3.0111
  234SOL    HW2  935   0.267   1.161   2.422 -1.2402 -0.2159 -1.8087
  234SOL     MW  936   0.241   1.078   2.419 -0.7017 -0.0677  0.4309
  235SOL     OW  937   1.121   3.065   2.726 -0.1632  0.3158 -0.4694
  235SOL    HW1  938   1.146   3.006   2.797  0.8119  1.4362 -0.8454
  235SOL    HW2  939   1.090   3.142   2.770  0.3044  0.1897  0.8104
  235SOL     MW  940   1.120   3.067   2.741  0.0272  0.4470 -0.3502
  236SOL     OW  941   2.944   0.551   0.122 -0.0988 -0.5209  0.8181
  236SOL    HW1  942   2.857   0.583   0.108  2.1548 -2.5345 -0.3452
  236SOL    HW2  943   2.986   0.637   0.147 -1.6572  0.9665 -0.0478
  236SOL     MW  944   2.938   0.567   0.123 -0.0071 -0.5903  0.5504
  237SOL     OW  945   2.004   1.117   2.187 -0.5431  0.0929 -0.2043
  237SOL    HW1  946   1.940   1.089   2.118  2.3693 -2.6807 -2.1976
  237SOL    HW2  947   2.039   1.032   2.218  0.5695 -1.1710  1.8061
  237SOL     MW  948   2.000   1.102   2.182 -0.0120 -0.4398 -0.2020
  238SOL     OW  949   1.071   1.842   3.008  0.5107 -0.0151 -0.4384
  238SOL    HW1  950   1.058   1.752   2.977  1.0547  1.3677 -0.1164
  238SOL    HW2  951   1.163   1.844   3.007 -1.0785 -2.5927  0.2323
  238SOL     MW  952   1.082   1.830   3.003  0.3728 -0.1727 -0.3074
  239SOL     OW  953   1.278   1.373   2.384  0.0388  0.2492  0.8902
  239SOL    HW1  954   1.225   1.433   2.441 -0.9670  2.2642 -0.3208
  239SOL    HW2  955   1.281   1.293   2.432  1.5868 -0.1071 -1.6097
  239SOL     MW  956   1.272   1.371   2.398  0.1103  0.4680  0.4006
  240SOL     OW  957   0.716   0.831   2.284 -0.5079  0.7216  0.8021
  240SOL    HW1  958   0.716   0.895   2.350 -0.2276 -1.1807  2.9596
  240SOL    HW2  959   0.805   0.793   2.286 -1.8606 -1.6589  0.1266
  240SOL     MW  960   0.728   0.835   2.293 -0.6494  0.1565  0.9976
  241SOL     OW  961   0.667   0.388   0.033  0.5093  0.5651  0.0599
  241SOL    HW1  962   0.697   0.459   0.091 -3.8160 -0.7229  2.1582
  241SOL    HW2  963   0.598   0.422  -0.031  2.3976  1.0718 -0.2703
  241SOL     MW  964   0.662   0.402   0.032  0.1878  0.4620  0.2932
  242SOL     OW  965   1.516   1.705   2.341 -0.1397  0.3934 -0.0487
  242SOL    HW1  966   1.470   1.790   2.363  1.2667  1.2306  1.5787
  242SOL    HW2  967   1.477   1.654   2.270 -0.8248 -1.4760  0.0614
  242SOL     MW  968   1.505   1.710   2.334 -0.0446  0.2572  0.1806
  243SOL     OW  969   1.047   0.212   2.512 -0.1154 -0.2984 -0.1508
  243SOL    HW1  970   1.093   0.204   2.425  0.8210 -1.0291 -0.4973
  243SOL    HW2  971   1.079   0.288   2.556  0.6683 -0.1980  2.0060
  243SOL     MW  972   1.057   0.221   2.506  0.1115 -0.3815  0.0880
  244SOL     OW  973   0.262   0.779   2.431 -0.1351 -0.4019 -0.1733
  244SOL    HW1  974   0.280   0.872   2.415 -1.7692  1.1078  0.0439
  244SOL    HW2  975   0.349   0.736   2.421 -0.2516 -0.8890 -1.9634
  244SOL     MW  976   0.276   0.786   2.427 -0.3661 -0.2670 -0.3808
  245SOL     OW  977   1.256   0.204   2.309  0.4067 -0.1840  0.0915
  245SOL    HW1  978   1.328   0.146   2.324  1.0470  0.2395  1.5747
  245SOL    HW2  979   1.292   0.284   2.338 -0.6340  0.7940  0.8644
  245SOL     MW  980   1.271   0.207   2.315  0.3539  0.0009  0.3892
  246SOL     OW  981   1.242   1.198   2.129 -0.0094 -0.3798 -0.9323
  246SOL    HW1  982   1.175   1.130   2.173  0.2974 -1.6143 -1.9593
  246SOL    HW2  983   1.298   1.227   2.198  4.0736  0.1689 -0.3544
  246SOL     MW  984   1.240   1.193   2.144  0.5698 -0.4703 -0.9915
  247SOL     OW  985   0.766   0.580   0.207 -0.4038  0.1114  0.3790
  247SOL    HW1  986   0.709   0.651   0.192 -0.0018 -1.9626  0.0541
  247SOL    HW2  987   0.859   0.600   0.169  0.4468 -3.4205 -1.9240
  247SOL     MW  988   0.771   0.592   0.200 -0.2386 -0.6282  0.0323
  248SOL     OW  989   0.323   1.360   2.517 -0.0636 -0.2936  0.3466
  248SOL    HW1  990   0.379   1.363   2.436 -1.1911 -2.3679  0.2154
  248SOL    HW2  991   0.369   1.415   2.586  0.5162 -0.9049  1.0699
  248SOL     MW  992   0.337   1.368   2.515 -0.1359 -0.6479  0.4247
  249SOL     OW  993   0.178   1.905   2.736  0.1202 -0.2984  0.1758
  249SOL    HW1  994   0.143   1.829   2.690  1.3831  1.5912  3.0003
  249SOL    HW2  995   0.236   1.865   2.804 -3.6698 -1.0213 -0.8768
  249SOL     MW  996   0.181   1.889   2.739 -0.2132 -0.1445  0.4096
  250SOL     OW  997   2.182   0.914   2.272  0.6223  0.4567 -0.0153
  250SOL    HW1  998   2.204   0.813   2.269 -2.1552  1.0570 -1.7256
  250SOL    HW2  999   2.272   0.954   2.279  1.1930  0.7019 -2.5682
  250SOL     MW 1000   2.197   0.906   2.273  0.3312  0.5682 -0.5778
  251SOL     OW 1001   0.141   0.870   1.977  0.1393  0.3605 -0.1887
  251SOL    HW1 1002   0.168   0.819   2.046 -1.3698  0.4289  1.0716
  251SOL    HW2 1003   0.136   0.818   1.901  2.3625  1.5633  0.2127
  251SOL     MW 1004   0.144   0.857   1.976  0.2335  0.5283  0.0306
  252SOL     OW 1005   1.725   0.991   2.852  0.0513 -0.4916 -0.1760
  252SOL    HW1 1006   1.754   1.025   2.936  1.0085  1.0573 -0.9858
  252SOL    HW2 1007   1.787   1.028   2.788  0.5032 -0.3804 -1.1254
  252SOL     MW 1008   1.737   1.000   2.854  0.2372 -0.2726 -0.4081
  253SOL     OW 1009   1.191   1.766   2.559 -0.8223  0.3213 -0.3250
  253SOL    HW1 1010   1.204   1.772   2.463 -1.5731 -1.8500  1.0380
  253SOL    HW2 1011   1.101   1.789   2.582  1.8641  1.9397  1.1369
  253SOL     MW 1012   1.181   1.770   2.550 -0.5669  0.2484  0.0477
  254SOL     OW 1013   1.074   1.019   2.242 -0.2081 -0.0876  0.2306
  254SOL    HW1 1014   1.041   0.942   2.197 -1.1019  0.3033  0.3752
  254SOL    HW2 1015   1.008   1.094   2.226 -1.4015  2.4869 -2.3755
  254SOL     MW 1016   1.061   1.019   2.234 -0.4835  0.3037 -0.0942
  255SOL     OW 1017   0.780   2.576   2.156 -0.0572 -0.1994 -0.4385
  255SOL    HW1 1018   0.691   2.546   2.172 -0.4213  1.6173  0.3644
  255SOL    HW2 1019   0.842   2.521   2.205  0.5372 -0.2258 -2.1779
  255SOL     MW 1020   0.777   2.565   2.165 -0.0268  0.0368 -0.5620
  256SOL     OW 1021   1.353   2.675   2.957  0.3233  0.1047 -0.1055
  256SOL    HW1 1022   1.326   2.611   2.893  0.0318  1.9302  2.9980
  256SOL    HW2 1023   1.387   2.749   2.905  0.8307  0.2221  1.3755
  256SOL     MW 1024   1.354   2.676   2.942  0.3518  0.3610  0.4993
  257SOL     OW 1025   0.146   1.882   0.075  0.5509  0.0531 -0.0244
  257SOL    HW1 1026   0.153   1.815   0.148  0.4256 -0.4644 -0.6836
  257SOL    HW2 1027   0.185   1.834   0.003  1.3898  0.3847  1.1437
  257SOL     MW 1028   0.152   1.867   0.075  0.6451  0.0286  0.0427
  258SOL     OW 1029   0.784   1.046   2.451  0.5472 -0.2180  0.2206
  258SOL    HW1 1030   0.803   1.136   2.410 -0.8425  1.6899 -0.2207
  258SOL    HW2 1031   0.759   1.073   2.539  2.9377 -0.5553  1.5137
  258SOL     MW 1032   0.783   1.062   2.457  0.6793 -0.0108  0.3330
  259SOL     OW 1033   0.842   0.385   2.373 -0.1016 -0.0386 -0.3076
  259SOL    HW1 1034   0.753   0.408   2.333 -0.1331  4.0273  1.1164
  259SOL    HW2 1035   0.839   0.305   2.423  1.4284  0.4518  0.7600
  259SOL     MW 1036   0.830   0.377   2.374  0.0961  0.5626  0.0212
  260SOL     OW 1037   0.510   0.141   1.561  0.1238 -0.1874  0.4145
  260SOL    HW1 1038   0.484   0.066   1.506  0.3000  1.7562 -2.2422
  260SOL    HW2 1039   0.612   0.137   1.562  2.6613 -0.5326 -1.2414
  260SOL     MW 1040   0.520   0.131   1.554  0.4818  0.0235 -0.1545
  261SOL     OW 1041   1.144   0.741   2.016 -0.3133 -0.3643  0.1062
  261SOL    HW1 1042   1.151   0.737   2.109 -3.1938  2.3960  0.8276
  261SOL    HW2 1043   1.184   0.660   1.979  1.4092 -2.6651 -0.7898
  261SOL     MW 1044   1.151   0.730   2.024 -0.4661 -0.3037  0.0832
  262SOL     OW 1045   1.021   0.307   0.146  0.1573 -0.4009  0.1715
  262SOL    HW1 1046   1.114   0.310   0.117 -0.1913 -0.1634 -2.4663
  262SOL    HW2 1047   0.985   0.229   0.097 -0.5481 -0.4224  0.0728
  262SOL     MW 1048   1.029   0.297   0.136  0.0182 -0.3724 -0.1896
  263SOL     OW 1049   0.402   0.019   2.468 -0.2794  0.1743 -0.6780
  263SOL    HW1 1050   0.324   0.074   2.448 -0.5821  1.6066 -2.1723
  263SOL    HW2 1051   0.464   0.022   2.393  1.8676 -0.1443  0.0979
  263SOL     MW 1052   0.400   0.026   2.455 -0.0361  0.3213 -0.7728
  264SOL     OW 1053   1.466   1.359   1.846 -0.3422  0.3527 -0.5560
  264SOL    HW1 1054   1.389   1.331   1.895 -1.2252 -0.6759 -1.0768
  264SOL    HW2 1055   1.541   1.373   1.907  2.1348 -2.0091  0.4869
  264SOL     MW 1056   1.466   1.357   1.860 -0.1319 -0.0946 -0.4871
  265SOL     OW 1057   0.724   2.804   2.277  0.5498  0.1954 -0.2912
  265SOL    HW1 1058   0.759   2.727   2.230  2.1763 -0.2489  1.9836
  265SOL    HW2 1059   0.731   2.782   2.370  1.2328 -2.7703  1.1192
  265SOL     MW 1060   0.730   2.791   2.283  0.8545 -0.2545  0.1951
  266SOL     OW 1061   0.950   0.759   2.212  0.0065  0.0917 -0.4994
  266SOL    HW1 1062   0.958   0.721   2.125  1.5762  2.3690  1.6316
  266SOL    HW2 1063   0.992   0.704   2.274 -2.1366 -1.5783 -1.7383
  266SOL     MW 1064   0.957   0.747   2.209 -0.0692  0.1718 -0.3817
  267SOL     OW 1065   1.440   1.776   2.743 -0.3784  0.2137 -0.3275
  267SOL    HW1 1066   1.432   1.713   2.671  0.9503 -0.7336  0.0356
  267SOL    HW2 1067   1.375   1.835   2.718 -0.0623  0.6053 -1.6088
  267SOL     MW 1068   1.430   1.775   2.730 -0.1614  0.1404 -0.4486
  268SOL     OW 1069   0.197   0.829   1.661 -0.2277  0.1133  0.0017
  268SOL    HW1 1070   0.152   0.900   1.613  0.5733  1.4897 -1.0964
  268SOL    HW2 1071   0.160   0.763   1.605  1.9652 -0.1094  0.7250
  268SOL     MW 1072   0.186   0.830   1.647  0.1673  0.2655 -0.0477
  269SOL     OW 1073   1.422   1.959   2.371 -0.0077  0.4676  0.4959
  269SOL    HW1 1074   1.489   2.031   2.361 -0.3010 -0.6556 -1.5661
  269SOL    HW2 1075   1.348   2.009   2.391 -1.9193  0.4806  0.9773
  269SOL     MW 1076   1.421   1.975   2.372 -0.2986  0.3212  0.2873
  270SOL     OW 1077   1.116   0.425   1.643  0.0636  0.7195 -0.4776
  270SOL    HW1 1078   1.083   0.341   1.665 -0.6388  0.3377 -0.5699
  270SOL    HW2 1079   1.204   0.403   1.620  0.3255 -1.5337 -0.5703
  270SOL     MW 1080   1.123   0.411   1.643  0.0055  0.3718 -0.5020
  271SOL     OW 1081   0.848   0.011   2.555 -0.2339 -0.3594  0.2664
  271SOL    HW1 1082   0.873  -0.056   2.614 -0.4480  0.3975  2.0398
  271SOL    HW2 1083   0.925   0.066   2.543 -0.4260  1.8355  0.5034
  271SOL     MW 1084   0.861   0.010   2.562 -0.2875  0.0300  0.5317
  272SOL     OW 1085   1.466   2.859   2.801 -0.1300 -0.1561 -0.8348
  272SOL    HW1 1086   1.409   2.888   2.731 -2.3484 -0.4327 -2.2772
  272SOL    HW2 1087   1.516   2.936   2.825  2.7298  2.2832 -2.1268
  272SOL     MW 1088   1.465   2.873   2.795 -0.0454  0.1293 -1.1955
  273SOL     OW 1089   1.458   0.972   2.812  0.6659 -0.0621 -0.3853
  273SOL    HW1 1090   1.549   0.991   2.831 -2.1380 -1.2438 -0.6903
  273SOL    HW2 1091   1.408   1.035   2.862 -1.2644 -2.6252  0.7927
  273SOL     MW 1092   1.463   0.983   2.821  0.0413 -0.5562 -0.2701
  274SOL     OW 1093   1.457   0.709   0.103 -0.3194 -0.1409  0.2263
  274SOL    HW1 1094   1.493   0.629   0.143  0.8608 -1.2006 -3.9362
  274SOL    HW2 1095   1.367   0.708   0.149  1.0597 -1.8901 -2.2726
  274SOL     MW 1096   1.450   0.698   0.114  0.0183 -0.5115 -0.6526
  275SOL     OW 1097   1.710   0.571   1.745 -0.0421  0.4202  0.4464
  275SOL    HW1 1098   1.767   0.599   1.815 -0.8557 -0.0984  1.5998
  275SOL    HW2 1099   1.697   0.479   1.768 -1.1096 -1.9849 -1.7861
  275SOL     MW 1100   1.716   0.563   1.757 -0.2903  0.0344  0.3040
  276SOL     OW 1101   0.325   1.212   1.907  0.0416  0.8591  0.0563
  276SOL    HW1 1102   0.382   1.129   1.917 -2.1514 -3.1631  1.1428
  276SOL    HW2 1103   0.250   1.201   1.962 -0.8196 -0.4392 -3.1844
  276SOL     MW 1104   0.323   1.200   1.916 -0.3614  0.1571 -0.2280
  277SOL     OW 1105   1.908   1.247   2.399  0.6303 -0.6540  0.3034
  277SOL    HW1 1106   1.976   1.303   2.446 -0.1569  1.4086 -0.6986
  277SOL    HW2 1107   1.957   1.216   2.319 -1.4227  1.4519 -2.7363
  277SOL     MW 1108   1.923   1.250   2.395  0.2556 -0.1040 -0.2299
  278SOL     OW 1109   1.440   0.601   1.718 -0.6083  0.1126 -0.2692
  278SOL    HW1 1110   1.399   0.577   1.806 -1.3122  0.7889 -0.4081
  278SOL    HW2 1111   1.535   0.600   1.720  0.1301  0.8311 -1.0627
  278SOL     MW 1112   1.447   0.597   1.730 -0.6037  0.2966 -0.3922
  279SOL     OW 1113   0.604   0.042   2.264  0.1540  0.6894 -0.0860
  279SOL    HW1 1114   0.697   0.008   2.271  1.4912 -2.1997 -0.2211
  279SOL    HW2 1115   0.605   0.125   2.222  0.2471 -1.0102 -0.1353
  279SOL     MW 1116   0.616   0.048   2.260  0.3427  0.0839 -0.1103
  280SOL     OW 1117   1.502   0.976   2.153  0.5056  0.3744 -0.2653
  280SOL    HW1 1118   1.544   0.908   2.106 -1.7357  2.1814 -1.7421
  280SOL    HW2 1119   1.467   0.936   2.239 -1.7920  1.2521 -1.2491
  280SOL     MW 1120   1.503   0.962   2.158 -0.0932  0.7286 -0.5900
  281SOL     OW 1121   1.311   1.353   2.782  0.3224 -0.0526  0.2742
  281SOL    HW1 1122   1.398   1.373   2.750 -2.9266 -1.3824 -0.1959
  281SOL    HW2 1123   1.323   1.283   2.842  2.4265  1.4604 -1.1702
  281SOL     MW 1124   1.324   1.347   2.786  0.1713 -0.0285  0.0216
  282SOL     OW 1125   1.116   1.289   1.683  0.0128 -0.3164 -0.0515
  282SOL    HW1 1126   1.077   1.372   1.646  2.3115 -0.0627 -3.0543
  282SOL    HW2 1127   1.080   1.290   1.774  3.1627  0.3143  1.8686
  282SOL     MW 1128   1.106   1.300   1.690  0.7317 -0.1997 -0.1943
  283SOL     OW 1129   0.824   1.204   2.992 -0.0723  0.5359 -0.1948
  283SOL    HW1 1130   0.892   1.178   3.058  0.9497 -2.0126  1.9715
  283SOL    HW2 1131   0.786   1.290   3.017 -3.0136  1.1319  0.2852
  283SOL     MW 1132   0.828   1.212   3.004 -0.3256  0.2783  0.1544
  284SOL     OW 1133   0.507   0.663   2.390 -0.1056  0.1128 -0.1117
  284SOL    HW1 1134   0.559   0.729   2.333 -2.5946  0.4648  0.8507
  284SOL    HW2 1135   0.465   0.607   2.326 -1.1387  0.9622 -1.2338
  284SOL     MW 1136   0.508   0.664   2.374 -0.5703  0.2713 -0.1327
  285SOL     OW 1137   0.952   0.905   2.816  0.3272 -0.9029  0.0852
  285SOL    HW1 1138   1.025   0.915   2.756 -0.0247 -2.9289 -0.4392
  285SOL    HW2 1139   0.903   0.831   2.773  0.4566  1.3947 -0.6837
  285SOL     MW 1140   0.955   0.897   2.802  0.2979 -0.8671 -0.0854
  286SOL     OW 1141   1.155   1.505   2.572 -0.3423  0.0023  0.1048
  286SOL    HW1 1142   1.236   1.479   2.607 -1.8590 -0.7531 -3.8299
  286SOL    HW2 1143   1.153   1.599   2.562  1.5542 -3.4934 -2.3325
  286SOL     MW 1144   1.166   1.514   2.575 -0.2922 -0.5586 -0.7359
  287SOL     OW 1145   1.136   0.931   0.329  0.2911 -0.0277  0.5669
  287SOL    HW1 1146   1.186   0.966   0.405 -4.9580  1.7619  0.8733
  287SOL    HW2 1147   1.084   1.002   0.293  0.4148 -0.1131 -0.8763
  287SOL     MW 1148   1.136   0.945   0.334 -0.3852  0.1972  0.4169
  288SOL     OW 1149   1.536   0.590   2.104 -0.1370 -0.3129  0.2586
  288SOL    HW1 1150   1.487   0.623   2.180  2.0375  2.0419  4.0890
  288SOL    HW2 1151   1.563   0.671   2.059 -0.0603 -2.1100 -1.3486
  288SOL     MW 1152   1.533   0.605   2.108  0.1601 -0.2393  0.5519
  289SOL     OW 1153   1.061   1.035   2.579  0.2532 -0.2734  0.4499
  289SOL    HW1 1154   1.103   0.955   2.551 -1.5874  2.4712 -3.0555
  289SOL    HW2 1155   0.993   1.047   2.514 -1.1146 -0.7077  0.1163
  289SOL     MW 1156   1.057   1.026   2.567 -0.1701  0.0314 -0.0566
  290SOL     OW 1157   0.837   0.638   1.590  0.0303 -0.4999  0.0040
  290SOL    HW1 1158   0.883   0.599   1.517  1.1723 -0.3042  1.2116
  290SOL    HW2 1159   0.914   0.639   1.651  0.1735 -1.0632 -0.8801
  290SOL     MW 1160   0.854   0.633   1.589  0.1999 -0.5484  0.0467
  291SOL     OW 1161   0.221   0.385   0.097 -0.1535 -0.0659 -0.1578
  291SOL    HW1 1162   0.282   0.315   0.127  1.1825 -0.1865 -3.6805
  291SOL    HW2 1163   0.150   0.324   0.070  1.5554 -3.0140 -1.6723
  291SOL     MW 1164   0.219   0.368   0.097  0.2482 -0.4708 -0.8224
  292SOL     OW 1165   1.000   0.589   0.105  0.0344 -0.2536 -0.1615
  292SOL    HW1 1166   1.078   0.633   0.125 -0.3758 -1.8595  0.5175
  292SOL    HW2 1167   1.027   0.497   0.116 -0.2484 -0.2351 -1.2928
  292SOL     MW 1168   1.014   0.583   0.109 -0.0570 -0.4630 -0.2212
  293SOL     OW 1169   0.149   0.136   2.414 -0.0297  0.1972 -0.6002
  293SOL    HW1 1170   0.072   0.108   2.360  0.6772  0.0989 -0.5975
  293SOL    HW2 1171   0.127   0.221   2.457 -2.2540  0.4407  0.2809
  293SOL     MW 1172   0.136   0.143   2.413 -0.2299  0.2163 -0.4836
  294SOL     OW 1173   1.476   0.634   2.361 -0.2337 -0.5344 -0.3446
  294SOL    HW1 1174   1.478   0.669   2.455 -1.8233 -2.0122  3.5679
  294SOL    HW2 1175   1.445   0.551   2.386 -0.6306 -0.4517  1.2664
  294SOL     MW 1176   1.472   0.628   2.377 -0.4958 -0.7185  0.3842
  295SOL     OW 1177   0.948   0.573   2.528  0.3274 -0.4285  0.3462
  295SOL    HW1 1178   0.908   0.511   2.466 -0.7594 -0.3236 -3.4592
  295SOL    HW2 1179   0.877   0.588   2.582  2.0013 -1.0805  0.0811
  295SOL     MW 1180   0.933   0.567   2.527  0.4049 -0.5007 -0.1908
  296SOL     OW 1181   1.322   0.259   2.045  0.1818  0.0342 -0.3969
  296SOL    HW1 1182   1.399   0.208   2.019  0.5950  0.1398 -1.1114
  296SOL    HW2 1183   1.299   0.228   2.141 -0.7266 -1.4224 -1.6304
  296SOL     MW 1184   1.329   0.248   2.055  0.1164 -0.1440 -0.6539
  297SOL     OW 1185   1.391   0.355   1.620 -0.1878  0.2585 -0.3564
  297SOL    HW1 1186   1.407   0.448   1.644  1.3820  2.3031  0.6839
  297SOL    HW2 1187   1.436   0.298   1.682 -0.2497  2.5662 -1.0691
  297SOL     MW 1188   1.399   0.360   1.632  0.0111  0.8327 -0.3132
  298SOL     OW 1189   1.644   0.797   1.984 -0.1775  0.6362 -0.0869
  298SOL    HW1 1190   1.653   0.882   1.943 -0.4004  0.4825 -1.2579
  298SOL    HW2 1191   1.709   0.812   2.059 -0.7153 -1.4020  1.5335
  298SOL     MW 1192   1.653   0.811   1.989 -0.2778  0.3470 -0.0276
  299SOL     OW 1193   0.573   1.074   0.062 -0.0219 -0.3289  0.4008
  299SOL    HW1 1194   0.602   1.083  -0.026 -0.0942  0.1448 -1.7467
  299SOL    HW2 1195   0.495   1.023   0.048  1.8305 -1.6462  0.5523
  299SOL     MW 1196   0.567   1.069   0.048  0.2130 -0.4402  0.1375
  300SOL     OW 1197   1.293   1.138   2.527  0.2776  0.3730 -0.1183
  300SOL    HW1 1198   1.200   1.134   2.551 -1.0312 -1.1430 -0.9432
  300SOL    HW2 1199   1.341   1.133   2.607 -3.7175  2.3616  1.7562
  300SOL     MW 1200   1.287   1.136   2.541 -0.4222  0.4353  0.0202
  301SOL     OW 1201   1.466   0.909   0.644 -0.1439  0.0225  0.2282
  301SOL    HW1 1202   1.466   0.978   0.714 -2.1335 -0.8342 -2.2652
  301SOL    HW2 1203   1.384   0.867   0.653  1.5923  0.4970  2.4419
  301SOL     MW 1204   1.456   0.912   0.655 -0.1773 -0.0279  0.1913
  302SOL     OW 1205   0.120   1.527   1.999 -0.0468  0.5354 -0.1756
  302SOL    HW1 1206   0.159   1.484   2.079  1.7643 -1.0374  1.6237
  302SOL    HW2 1207   0.040   1.575   2.040  0.9389 -1.0753  2.3688
  302SOL     MW 1208   0.114   1.528   2.015  0.3222  0.1154  0.3975
  303SOL     OW 1209   0.406   1.752   2.588  0.7225  0.5260 -0.4086
  303SOL    HW1 1210   0.370   1.714   2.505 -2.2026 -0.9378  1.5327
  303SOL    HW2 1211   0.321   1.793   2.619  0.0816  0.8668  0.5788
  303SOL     MW 1212   0.390   1.753   2.581  0.2520  0.3778 -0.0222
  304SOL     OW 1213   0.569   2.079   2.375 -0.1140  0.2388  0.3346
  304SOL    HW1 1214   0.619   2.124   2.303 -1.7781 -0.9545  0.7930
  304SOL    HW2 1215   0.632   2.003   2.392 -1.2084 -1.7385  1.3800
  304SOL     MW 1216   0.584   2.075   2.368 -0.4780 -0.1795  0.5330
  305SOL     OW 1217   1.099   0.570   0.459 -0.5270 -0.4556  0.2723
  305SOL    HW1 1218   1.001   0.580   0.459 -1.3388 -0.1460  1.1725
  305SOL    HW2 1219   1.127   0.480   0.489  1.1780 -0.1094  0.5371
  305SOL     MW 1220   1.090   0.560   0.463 -0.4092 -0.3691  0.4260
  306SOL     OW 1221   1.167   1.449   0.277  0.5152 -0.1760 -0.0241
  306SOL    HW1 1222   1.238   1.385   0.303 -0.7953  0.0588  0.3975
  306SOL    HW2 1223   1.193   1.491   0.193 -3.4043  1.3016  2.6432
  306SOL     MW 1224   1.180   1.446   0.270 -0.1749  0.0499  0.3834
  307SOL     OW 1225   1.311   0.531   1.951 -0.3220  0.4612 -0.3282
  307SOL    HW1 1226   1.292   0.439   1.982 -1.6651 -1.6614  1.2484
  307SOL    HW2 1227   1.392   0.544   2.008  3.4868  0.3069 -3.3787
  307SOL     MW 1228   1.319   0.521   1.963  0.0033  0.1608 -0.5227
  308SOL     OW 1229   2.150   0.540   2.718  0.2408 -0.2787 -0.0011
  308SOL    HW1 1230   2.226   0.514   2.760 -0.1125 -2.4984 -0.6687
  308SOL    HW2 1231   2.167   0.636   2.706  0.0626 -1.2601  0.6798
  308SOL     MW 1232   2.162   0.549   2.722  0.1707 -0.7011  0.0006
  309SOL     OW 1233   0.463   0.439   0.352  0.0520  0.7518 -0.0095
  309SOL    HW1 1234   0.536   0.387   0.383  0.7840 -0.6753  0.0991
  309SOL    HW2 1235   0.436   0.402   0.269 -1.9713 -1.0610  1.7916
  309SOL     MW 1236   0.469   0.427   0.345 -0.1184  0.3243  0.2425
  310SOL     OW 1237   0.448   0.650   1.944 -0.6719  0.1849  0.2595
  310SOL    HW1 1238   0.482   0.561   1.932 -1.5479  2.6989  2.4557
  310SOL    HW2 1239   0.518   0.704   1.901  3.3074  1.0686 -0.2449
  310SOL     MW 1240   0.462   0.645   1.937 -0.2625  0.6332  0.4827
  311SOL     OW 1241   1.927   0.638   1.909  0.0720 -0.0098  0.3027
  311SOL    HW1 1242   1.882   0.688   1.984 -2.3596  0.8619  0.3019
  311SOL    HW2 1243   1.967   0.558   1.942 -2.0836  1.0391  0.2983
  311SOL     MW 1244   1.926   0.634   1.923 -0.5333  0.2436  0.3020
  312SOL     OW 1245   1.795   2.510   0.123  0.7522 -0.2194 -0.2458
  312SOL    HW1 1246   1.873   2.533   0.173  1.4897 -1.3537  0.6559
  312SOL    HW2 1247   1.718   2.563   0.161  1.6819  0.4125  0.5255
  312SOL     MW 1248   1.795   2.520   0.134  0.9721 -0.2857 -0.0251
  313SOL     OW 1249   0.126   1.082   2.968  0.3966 -0.6928 -0.5460
  313SOL    HW1 1250   0.098   1.095   3.059  0.0294  0.6131 -0.3120
  313SOL    HW2 1251   0.206   1.128   2.966  0.9841 -1.0112  0.6974
  313SOL     MW 1252   0.132   1.090   2.980  0.4257 -0.5625 -0.3511
  314SOL     OW 1253   2.184   2.955   2.959  0.1440  0.5766 -0.0004
  314SOL    HW1 1254   2.116   2.994   2.906  2.4629 -0.2442  1.2431
  314SOL    HW2 1255   2.224   3.037   2.988 -3.2812  0.5604 -0.3671
  314SOL     MW 1256   2.181   2.971   2.956 -0.0019  0.4662  0.1153
  315SOL     OW 1257   1.508   1.948   0.024  0.1431 -0.8408 -0.1663
  315SOL    HW1 1258   1.424   1.993   0.041  2.0940  0.8724  0.9375
  315SOL    HW2 1259   1.547   2.016  -0.035  0.7055  0.1779 -0.6806
  315SOL     MW 1260   1.502   1.963   0.019  0.4747 -0.4804 -0.0885
  316SOL     OW 1261   1.274   0.653   2.721  0.8144  0.0882  0.1204
  316SOL    HW1 1262   1.350   0.664   2.670  2.2729 -0.7752  0.3483
  316SOL    HW2 1263   1.296   0.675   2.811  2.1041 -0.9348  1.8274
  316SOL     MW 1264   1.287   0.657   2.726  1.1770 -0.1607  0.3757
  317SOL     OW 1265   0.709   1.412   2.559 -0.4746 -0.1236 -0.5318
  317SOL    HW1 1266   0.788   1.351   2.565 -0.9242 -1.0051 -0.5079
  317SOL    HW2 1267   0.712   1.459   2.465 -0.5609 -0.1427 -1.7459
  317SOL     MW 1268   0.720   1.410   2.548 -0.5453 -0.2424 -0.6888
  318SOL     OW 1269   1.325   0.351   2.919 -0.3124 -0.0365  0.2673
  318SOL    HW1 1270   1.251   0.419   2.903 -2.0502  0.5944 -1.2527
  318SOL    HW2 1271   1.397   0.410   2.948 -0.0240  0.2272 -0.3248
  318SOL     MW 1272   1.325   0.368   2.921 -0.5037  0.0816 -0.0114
  319SOL     OW 1273   0.798   0.441   2.886 -0.4431  0.3421 -0.3233
  319SOL    HW1 1274   0.783   0.367   2.828 -1.2960 -0.3791  0.7950
  319SOL    HW2 1275   0.767   0.406   2.969  1.0869 -2.2894 -1.4119
  319SOL     MW 1276   0.792   0.427   2.889 -0.3538 -0.1003 -0.3194
  320SOL     OW 1277   1.056   1.347   2.012 -0.0669  0.0306  0.8502
  320SOL    HW1 1278   1.117   1.309   2.079  0.4897 -0.9645 -0.7592
  320SOL    HW2 1279   1.108   1.412   1.957 -0.2250  0.4494 -1.2115
  320SOL     MW 1280   1.071   1.351   2.013 -0.0143 -0.0454  0.3659
  321SOL     OW 1281   1.165   0.908   3.037 -0.1527 -0.2738  0.0385
  321SOL    HW1 1282   1.099   0.895   2.973 -0.1881 -2.1060 -0.5350
  321SOL    HW2 1283   1.237   0.855   3.000 -0.4689  2.2816 -1.0028
  321SOL     MW 1284   1.166   0.899   3.024 -0.1991 -0.1784 -0.1746
  322SOL     OW 1285   1.255   0.867   1.688 -0.4457  0.1447  0.1487
  322SOL    HW1 1286   1.334   0.821   1.701 -2.4800  0.3739  0.2177
  322SOL    HW2 1287   1.244   0.914   1.774  0.7378 -0.1946 -0.5996
  322SOL     MW 1288   1.264   0.867   1.701 -0.5579  0.1302  0.0591
  323SOL     OW 1289   1.222   1.547   1.917 -0.4687 -0.6611  0.3062
  323SOL    HW1 1290   1.250   1.560   1.823  1.1269 -2.3995 -1.2053
  323SOL    HW2 1291   1.162   1.619   1.928 -2.9132 -1.0924  0.0682
  323SOL     MW 1292   1.218   1.558   1.906 -0.5807 -0.9474  0.0753
  324SOL     OW 1293   1.476   0.954   2.419 -0.0533 -0.3866  0.1473
  324SOL    HW1 1294   1.389   0.990   2.449  3.5713 -1.6579 -2.6062
  324SOL    HW2 1295   1.526   1.037   2.407 -1.8065  0.0417 -0.3949
  324SOL     MW 1296   1.471   0.970   2.421  0.1936 -0.4978 -0.2875
  325SOL     OW 1297   1.056   0.475   2.956  0.5597  0.4404 -0.6692
  325SOL    HW1 1298   1.039   0.529   3.032  2.0084  2.5574 -0.7036
  325SOL    HW2 1299   0.957   0.466   2.931  1.2653 -0.6102  1.2703
  325SOL     MW 1300   1.041   0.481   2.963  0.8439  0.5811 -0.4178
  326SOL     OW 1301   0.468   1.381   2.291 -0.5816 -0.3107  0.9308
  326SOL    HW1 1302   0.529   1.314   2.267  0.1660  0.2617  2.7695
  326SOL    HW2 1303   0.491   1.458   2.244  1.6278 -0.0409  1.1010
  326SOL     MW 1304   0.479   1.382   2.282 -0.1914 -0.1996  1.1959
  327SOL     OW 1305   1.935   0.800   2.441 -0.1278 -0.1215  0.0770
  327SOL    HW1 1306   1.900   0.753   2.520 -2.3519  0.8301  1.1844
  327SOL    HW2 1307   2.003   0.860   2.470  2.5303  0.5737  1.8994
  327SOL     MW 1308   1.940   0.802   2.455 -0.0705  0.0958  0.4635
  328SOL     OW 1309   0.189   1.358   2.246  0.2327  0.9353 -0.5431
  328SOL    HW1 1310   0.168   1.275   2.212  0.6142  2.1666  0.1505
  328SOL    HW2 1311   0.288   1.356   2.261  0.2222  0.8237  2.0938
  328SOL     MW 1312   0.200   1.347   2.244  0.2816  1.0830 -0.1037
  329SOL     OW 1313   0.150   0.228   1.341  0.1578  0.6273  0.9077
  329SOL    HW1 1314   0.127   0.225   1.437 -1.6854  1.1216 -2.4202
  329SOL    HW2 1315   0.236   0.263   1.329 -0.2681 -1.5565 -1.0279
  329SOL     MW 1316   0.159   0.232   1.352 -0.1416  0.4044  0.2133
  330SOL     OW 1317   0.374   0.011   2.078 -0.3001  0.2703  0.2644
  330SOL    HW1 1318   0.465   0.006   2.112  1.4977  0.5450  1.0524
  330SOL    HW2 1319   0.320  -0.021   2.155 -0.2651  1.9662  1.6996
  330SOL     MW 1320   0.379   0.006   2.092 -0.0583  0.5303  0.5577
  331SOL     OW 1321   0.891   1.221   2.272  0.1642  0.2985 -0.4544
  331SOL    HW1 1322   0.833   1.262   2.203  1.5667  1.5487 -1.4948
  331SOL    HW2 1323   0.931   1.296   2.322  0.2961 -1.7490 -0.2236
  331SOL     MW 1324   0.889   1.236   2.270  0.3667  0.1933 -0.5612
  332SOL     OW 1325   1.334   1.775   2.990  0.5586  0.6920 -0.4234
  332SOL    HW1 1326   1.362   1.772   2.896 -0.4175  0.5137 -0.4498
  332SOL    HW2 1327   1.408   1.814   3.032 -2.8914  1.0236 -2.7214
  332SOL     MW 1328   1.348   1.780   2.983 -0.0254  0.7122 -0.7301
  333SOL     OW 1329   1.787   1.390   2.981  0.5885  0.3090  0.0403
  333SOL    HW1 1330   1.868   1.424   3.010 -0.1591 -2.2904 -0.3981
  333SOL    HW2 1331   1.747   1.340   3.054  0.4919 -0.9643 -0.9464
  333SOL     MW 1332   1.793   1.388   2.995  0.4771 -0.2020 -0.1477
  334SOL     OW 1333   1.372   0.008   2.618 -0.4996  0.1664 -0.0680
  334SOL    HW1 1334   1.292   0.021   2.668 -0.1839  2.0452  1.3344
  334SOL    HW2 1335   1.433   0.078   2.644 -0.3184  0.2953 -0.1064
  334SOL     MW 1336   1.369   0.019   2.628 -0.4340  0.4313  0.1120
  335SOL     OW 1337   1.368   0.754   2.946 -0.1110 -0.2544 -0.0783
  335SOL    HW1 1338   1.409   0.735   3.031 -0.5176  0.1214  0.9731
  335SOL    HW2 1339   1.418   0.824   2.912  1.6348 -2.3459  2.0477
  335SOL     MW 1340   1.380   0.760   2.952  0.0657 -0.4808  0.3409
  336SOL     OW 1341   0.961   1.107   1.937  0.2446  0.8073 -0.5949
  336SOL    HW1 1342   0.991   1.202   1.954  1.0434 -0.0784  1.0259
  336SOL    HW2 1343   1.044   1.072   1.907 -2.2553  0.2995 -3.0148
  336SOL     MW 1344   0.976   1.115   1.936  0.0201  0.6234 -0.7003
  337SOL     OW 1345   0.588   1.831   2.788 -0.0322 -0.2279 -0.2869
  337SOL    HW1 1346   0.526   1.801   2.727  1.4736 -3.2064 -1.8548
  337SOL    HW2 1347   0.671   1.785   2.771 -0.6493 -0.1402  2.6954
  337SOL     MW 1348   0.590   1.821   2.778  0.0851 -0.6093 -0.1003
  338SOL     OW 1349   1.122   0.767   2.531  0.1684 -0.1588 -0.3765
  338SOL    HW1 1350   1.044   0.705   2.534 -1.0010 -2.0217  1.4592
  338SOL    HW2 1351   1.165   0.721   2.607  0.0515 -1.0239  1.5088
  338SOL     MW 1352   1.117   0.752   2.542 -0.0013 -0.5187  0.1144
  339SOL     OW 1353   1.473   1.027   1.830 -0.1348  0.1102  0.1521
  339SOL    HW1 1354   1.413   1.070   1.775  0.1599 -1.2504  0.5519
  339SOL    HW2 1355   1.415   0.995   1.898 -0.7453 -3.8674 -0.1188
  339SOL     MW 1356   1.457   1.029   1.832 -0.1764 -0.5942  0.1691
  340SOL     OW 1357   1.302   1.546   0.067 -0.0580 -0.1443  0.1731
  340SOL    HW1 1358   1.312   1.616   0.005 -0.4418 -0.7549 -2.8115
  340SOL    HW2 1359   1.389   1.518   0.086 -1.7704  0.1777 -0.3050
  340SOL     MW 1360   1.315   1.552   0.061 -0.3346 -0.1824 -0.2838
  341SOL     OW 1361   0.142   1.423   2.749 -0.6346 -0.0406 -0.0951
  341SOL    HW1 1362   0.236   1.411   2.765  1.9233  1.8759  1.2762
  341SOL    HW2 1363   0.122   1.363   2.675 -1.0094 -0.5851 -0.3938
  341SOL     MW 1364   0.152   1.413   2.741 -0.3466  0.1404  0.0464
  342SOL     OW 1365   1.299   0.331   0.095 -0.1232 -0.7121  0.6187
  342SOL    HW1 1366   1.344   0.399   0.143  0.9797  1.3294  1.0595
  342SOL    HW2 1367   1.303   0.351   0.002 -0.9354  1.6255  0.2689
  342SOL     MW 1368   1.306   0.343   0.089 -0.0848 -0.1343  0.6307
  343SOL     OW 1369   0.249   0.272   2.154  0.1935 -0.6412  0.2435
  343SOL    HW1 1370   0.270   0.218   2.233  3.0106  0.2774 -1.9783
  343SOL    HW2 1371   0.171   0.233   2.114  0.1505 -0.8025 -0.2164
  343SOL     MW 1372   0.241   0.260   2.159  0.5595 -0.5413 -0.1103
  344SOL     OW 1373   1.745   2.048   0.167 -0.3470 -0.5059 -0.1668
  344SOL    HW1 1374   1.724   2.116   0.106  0.5931 -2.3991  0.6827
  344SOL    HW2 1375   1.676   1.989   0.168  1.3702  0.1818 -2.9406
  344SOL     MW 1376   1.733   2.049   0.159  0.0036 -0.6649 -0.4207
  345SOL     OW 1377   0.766   1.575   2.344 -0.6101 -0.2686  0.3065
  345SOL    HW1 1378   0.689   1.597   2.296  1.8865 -0.2249  0.5725
  345SOL    HW2 1379   0.836   1.569   2.281 -3.8886  2.2014 -0.9966
  345SOL     MW 1380   0.765   1.577   2.329 -0.7132  0.0631  0.1697
  346SOL     OW 1381   1.781   1.059   0.015  0.1283  0.3997  0.7286
  346SOL    HW1 1382   1.848   1.119   0.051  1.1077  2.0432 -1.0936
  346SOL    HW2 1383   1.733   1.017   0.085 -0.5014 -0.3745  0.0082
  346SOL     MW 1384   1.784   1.061   0.029  0.1745  0.5144  0.3932
  347SOL     OW 1385   1.225   0.703   2.295 -0.5479 -0.2484  0.1723
  347SOL    HW1 1386   1.319   0.704   2.315  1.3686 -1.2265  0.0385
  347SOL    HW2 1387   1.185   0.726   2.381 -0.5969 -0.5647  1.9696
  347SOL     MW 1388   1.232   0.706   2.309 -0.3015 -0.4192  0.3917
  348SOL     OW 1389   1.396   2.690   1.931 -0.6002  0.0473  0.6043
  348SOL    HW1 1390   1.419   2.605   1.980  0.6592  0.4664  1.7876
  348SOL    HW2 1391   1.440   2.759   1.975 -0.0245  1.8854 -2.3881
  348SOL     MW 1392   1.405   2.688   1.943 -0.3581  0.3451  0.3656
  349SOL     OW 1393   1.462   0.268   2.701 -0.5947 -0.5616 -0.1045
  349SOL    HW1 1394   1.404   0.291   2.770 -0.4843 -1.9085  0.8211
  349SOL    HW2 1395   1.554   0.292   2.740  0.9843  2.2463 -1.9112
  349SOL     MW 1396   1.467   0.274   2.715 -0.3718 -0.3688 -0.2208
  350SOL     OW 1397   1.831   0.638   2.663  0.1248  0.4171 -0.0895
  350SOL    HW1 1398   1.793   0.568   2.596 -2.8519 -0.2959  1.4891
  350SOL    HW2 1399   1.920   0.606   2.698  1.1542 -0.6771  0.3567
  350SOL     MW 1400   1.838   0.624   2.659 -0.1321  0.1786  0.1777
  351SOL     OW 1401   0.074   1.018   1.514  0.5190  0.6228  0.8364
  351SOL    HW1 1402   0.007   1.047   1.579 -2.3442  0.0927 -0.7057
  351SOL    HW2 1403   0.150   1.074   1.533  2.7212  4.5810 -1.2408
  351SOL     MW 1404   0.076   1.029   1.525  0.4318  1.0751  0.3589
  352SOL     OW 1405   0.823   1.649   2.685 -0.0430 -0.0364  0.0347
  352SOL    HW1 1406   0.881   1.602   2.752 -0.1484 -0.2479  1.8840
  352SOL    HW2 1407   0.791   1.579   2.631  1.3310  0.9419  0.7581
  352SOL     MW 1408   0.826   1.634   2.687  0.1244  0.0648  0.3741
  353SOL     OW 1409   3.052   2.522   2.642 -0.1050 -0.1974 -0.1351
  353SOL    HW1 1410   3.138   2.547   2.613  0.2197  1.5285  1.5911
  353SOL    HW2 1411   3.009   2.611   2.653 -0.0660  2.2741  0.6946
  353SOL     MW 1412   3.058   2.537   2.640 -0.0570  0.3564  0.2022
  354SOL     OW 1413   0.267   2.489   0.796 -0.8174 -0.6165  0.2556
  354SOL    HW1 1414   0.324   2.471   0.875  0.0211  2.2737  2.0845
  354SOL    HW2 1415   0.194   2.426   0.805 -1.5415 -2.2612 -0.2590
  354SOL     MW 1416   0.265   2.479   0.807 -0.8023 -0.4522  0.4290
  355SOL     OW 1417   0.058   2.267   0.395 -0.5916 -0.2396  0.4688
  355SOL    HW1 1418  -0.013   2.203   0.381  0.6088  0.3875 -0.9490
  355SOL    HW2 1419   0.027   2.327   0.466  1.2186 -0.7078  2.1465
  355SOL     MW 1420   0.045   2.266   0.402 -0.1944 -0.2187  0.5031
  356SOL     OW 1421   0.820   2.816   0.969  0.5415  0.2861  0.6263
  356SOL    HW1 1422   0.845   2.887   0.901  1.8710  1.3318  0.9466
  356SOL    HW2 1423   0.724   2.803   0.967  2.9550 -0.2408  0.3728
  356SOL     MW 1424   0.811   2.824   0.960  1.0353  0.3546  0.6351
  357SOL     OW 1425   1.785   2.911   0.421  0.0921 -0.1754 -0.0281
  357SOL    HW1 1426   1.734   2.844   0.469  0.2682  0.2030  1.7030
  357SOL    HW2 1427   1.865   2.863   0.404 -0.4867 -2.6792 -1.2329
  357SOL     MW 1428   1.789   2.896   0.425  0.0390 -0.4558  0.0414
  358SOL     OW 1429   0.465   0.174   1.082 -0.6165  0.3575 -0.1356
  358SOL    HW1 1430   0.556   0.139   1.075  0.4664  2.0846 -0.2881
  358SOL    HW2 1431   0.428   0.188   0.988  0.8350 -0.6923 -1.6881
  358SOL     MW 1432   0.472   0.171   1.069 -0.2821  0.4468 -0.3606
  359SOL     OW 1433   0.875   2.946   1.888 -0.3531  0.0581  0.2482
  359SOL    HW1 1434   0.865   2.849   1.888  0.8116  1.6293 -0.9081
  359SOL    HW2 1435   0.928   2.957   1.805 -0.0374 -3.8265 -0.5398
  359SOL     MW 1436   0.881   2.935   1.877 -0.1578 -0.2471 -0.0083
  360SOL     OW 1437   0.558   2.764   0.935  0.2696  0.0784 -0.5962
  360SOL    HW1 1438   0.551   2.706   0.862 -0.4867 -0.3195 -1.0120
  360SOL    HW2 1439   0.562   2.702   1.011  0.6117 -0.9637  1.4588
  360SOL     MW 1440   0.558   2.748   0.935  0.2149 -0.1116 -0.3799
  361SOL     OW 1441   0.171   2.650   1.365  0.0282 -0.4212 -0.4191
  361SOL    HW1 1442   0.141   2.725   1.418  0.9590  0.0858  0.2491
  361SOL    HW2 1443   0.265   2.645   1.383 -0.7930 -0.4117 -0.0732
  361SOL     MW 1444   0.179   2.659   1.374  0.0427 -0.3530 -0.2853
  362SOL     OW 1445   1.492   2.409   0.621 -0.3220 -0.4098  0.5278
  362SOL    HW1 1446   1.486   2.368   0.707  1.6609  1.8188  0.4374
  362SOL    HW2 1447   1.510   2.497   0.646  2.5214 -0.3263  1.0073
  362SOL     MW 1448   1.494   2.415   0.636  0.3148 -0.1047  0.5791
  363SOL     OW 1449   0.336   3.059   0.690 -0.1459  0.1287 -0.1860
  363SOL    HW1 1450   0.340   2.994   0.767 -0.5113 -0.9295  0.5506
  363SOL    HW2 1451   0.247   3.071   0.659 -3.1726  1.2470 -0.8270
  363SOL     MW 1452   0.325   3.052   0.696 -0.5935  0.1366 -0.1734
  364SOL     OW 1453   0.709   0.183   0.232 -0.1626 -0.3635 -0.4073
  364SOL    HW1 1454   0.630   0.124   0.241  0.8798 -0.0225  2.6529
  364SOL    HW2 1455   0.684   0.249   0.170 -2.1222 -1.5932  0.2361
  364SOL     MW 1456   0.695   0.184   0.225 -0.2836 -0.4808  0.0814
  365SOL     OW 1457   0.976   1.994   1.089  0.0485  0.0753  0.1433
  365SOL    HW1 1458   0.965   2.079   1.038  0.0913  1.6459 -3.0061
  365SOL    HW2 1459   0.907   1.941   1.049 -0.0145  0.3681  0.3015
  365SOL     MW 1460   0.965   1.998   1.077  0.0458  0.3212 -0.2513
  366SOL     OW 1461   2.821   2.660   1.018  0.3543  0.1793 -0.1158
  366SOL    HW1 1462   2.900   2.660   1.083 -0.1826 -0.7823  0.5670
  366SOL    HW2 1463   2.862   2.695   0.939 -0.5316 -0.0439  2.7266
  366SOL     MW 1464   2.836   2.664   1.016  0.1666  0.0230  0.3493
  367SOL     OW 1465   1.263   2.963   0.844 -0.4731 -0.0398  0.2293
  367SOL    HW1 1466   1.273   3.046   0.800 -0.1506  0.9674  3.1145
  367SOL    HW2 1467   1.216   2.907   0.778 -0.7725  0.4924 -0.6490
  367SOL     MW 1468   1.258   2.967   0.830 -0.4701  0.1633  0.4941
  368SOL     OW 1469   1.625   0.413   0.681 -0.2425 -0.3082  0.0375
  368SOL    HW1 1470   1.703   0.364   0.648  0.5130 -2.5684 -2.7138
  368SOL    HW2 1471   1.648   0.507   0.671  0.4609 -3.3854 -0.8313
  368SOL     MW 1472   1.638   0.419   0.675 -0.0500 -1.0124 -0.4401
  369SOL     OW 1473   0.131   2.519   1.690  0.6640 -0.2614  0.4435
  369SOL    HW1 1474   0.231   2.497   1.704 -1.9320 -4.8722  1.0154
  369SOL    HW2 1475   0.108   2.605   1.724 -1.0312 -0.4941 -0.4874
  369SOL     MW 1476   0.141   2.527   1.696  0.0978 -0.9004  0.3961
  370SOL     OW 1477   0.712   0.089   1.018  0.2257  0.4033  0.4213
  370SOL    HW1 1478   0.733   0.184   1.031  0.0089  0.0612  0.2475
  370SOL    HW2 1479   0.794   0.045   0.997  0.9763 -2.4652  2.0584
  370SOL     MW 1480   0.726   0.095   1.017  0.2961 -0.0203  0.6144
  371SOL     OW 1481   1.305   2.905   1.533 -0.6483  0.2424 -0.0269
  371SOL    HW1 1482   1.251   2.829   1.508 -2.9141  0.4045 -0.8327
  371SOL    HW2 1483   1.304   2.967   1.456 -0.0527  0.4690 -0.8871
  371SOL     MW 1484   1.298   2.903   1.520 -0.8686  0.2937 -0.2467
  372SOL     OW 1485   0.757   2.322   0.460 -0.3310  0.4050  0.4295
  372SOL    HW1 1486   0.731   2.231   0.473  2.6577  1.9396  0.1182
  372SOL    HW2 1487   0.796   2.314   0.374 -2.7989  1.1214  1.2129
  372SOL     MW 1488   0.759   2.309   0.450 -0.2623  0.7020  0.4918
  373SOL     OW 1489   2.753   3.009   1.455 -0.0140 -0.2957  0.4029
  373SOL    HW1 1490   2.822   2.958   1.419  0.2260  0.7731  1.1010
  373SOL    HW2 1491   2.745   3.077   1.390  0.3919 -0.1829  2.3629
  373SOL     MW 1492   2.761   3.011   1.441  0.0712 -0.1398  0.7536
  374SOL     OW 1493   1.509   0.463   0.251  0.4758  0.0468 -0.1032
  374SOL    HW1 1494   1.554   0.374   0.245  1.5115  0.5137  1.6172
  374SOL    HW2 1495   1.475   0.466   0.340  0.7326  0.3866  0.1013
  374SOL     MW 1496   1.510   0.452   0.262  0.6464  0.1533  0.1508
  375SOL     OW 1497   0.965   2.098   2.297 -0.4715  1.0934 -0.0061
  375SOL    HW1 1498   1.054   2.084   2.334 -1.9132 -1.8007 -2.3719
  375SOL    HW2 1499   0.975   2.040   2.215 -0.3180 -4.0722 -1.0989
  375SOL     MW 1500   0.978   2.088   2.291 -0.6414  0.0300 -0.4624
  376SOL     OW 1501   0.686   2.578   0.066  0.6160  0.1627  0.2152
  376SOL    HW1 1502   0.645   2.536   0.150  0.6786  1.3677 -4.3440
  376SOL    HW2 1503   0.687   2.501   0.008  1.2701 -0.9568  3.8223
  376SOL     MW 1504   0.681   2.562   0.069  0.7106  0.1740  0.0896
  377SOL     OW 1505   1.279   2.016   0.869  0.0060 -0.4079  0.2200
  377SOL    HW1 1506   1.212   1.981   0.809 -0.7586  1.8950  0.2806
  377SOL    HW2 1507   1.264   1.962   0.944  0.6117 -0.5980 -2.1286
  377SOL     MW 1508   1.268   2.004   0.871 -0.0150 -0.1292 -0.0819
  378SOL     OW 1509   0.941   2.798   1.589 -0.6453  0.4278 -0.8396
  378SOL    HW1 1510   0.901   2.713   1.591  1.8451 -1.8172  0.2067
  378SOL    HW2 1511   0.919   2.849   1.506 -0.9389 -0.8662 -2.5297
  378SOL     MW 1512   0.933   2.794   1.578 -0.3555 -0.0392 -0.9245
  379SOL     OW 1513   1.168   1.767   2.280 -0.1707  0.0105  0.4513
  379SOL    HW1 1514   1.086   1.757   2.231  0.2355  1.5178 -2.5688
  379SOL    HW2 1515   1.224   1.702   2.235  3.4552  0.9144  2.4410
  379SOL     MW 1516   1.164   1.757   2.268  0.3613  0.3287  0.3153
  380SOL     OW 1517   0.772   0.100   1.592  0.3111  0.5146  0.5017
  380SOL    HW1 1518   0.801   0.021   1.542 -0.6540  0.6560  2.8206
  380SOL    HW2 1519   0.856   0.136   1.620 -1.2773 -0.2090  2.8487
  380SOL     MW 1520   0.787   0.094   1.589 -0.0258  0.4378  1.1173
  381SOL     OW 1521   0.813   2.039   0.777  0.0683 -0.1376 -0.2840
  381SOL    HW1 1522   0.895   2.001   0.750  0.7391  2.3895 -1.8674
  381SOL    HW2 1523   0.826   2.130   0.816  0.2767 -0.5814  2.3517
  381SOL     MW 1524   0.825   2.046   0.778  0.1843  0.1373 -0.1452
  382SOL     OW 1525   0.666   0.098   0.723  0.1718 -0.4922  0.3283
  382SOL    HW1 1526   0.688   0.087   0.820 -0.5442  0.3039 -2.4349
  382SOL    HW2 1527   0.610   0.026   0.694 -1.7710 -2.1148  0.6150
  382SOL     MW 1528   0.662   0.087   0.732 -0.1790 -0.6012  0.0015
  383SOL     OW 1529   0.545   3.053   0.294 -0.3360  0.5562 -0.0797
  383SOL    HW1 1530   0.616   2.998   0.259 -0.0643  0.5828 -1.3138
  383SOL    HW2 1531   0.494   3.003   0.352 -3.2612  0.3644 -0.4181
  383SOL     MW 1532   0.547   3.039   0.297 -0.6861  0.5344 -0.2872
  384SOL     OW 1533   0.639   2.905   0.629  0.7718  0.4728  0.0814
  384SOL    HW1 1534   0.731   2.916   0.658  1.6292  0.2231 -0.5148
  384SOL    HW2 1535   0.609   2.820   0.666  0.1019 -0.4749 -0.4226
  384SOL     MW 1536   0.647   2.895   0.638  0.7965  0.3148 -0.0638
  385SOL     OW 1537   1.355   2.097   1.523  0.5213  0.1607 -0.2635
  385SOL    HW1 1538   1.445   2.101   1.565 -0.0585 -0.5245  0.9136
  385SOL    HW2 1539   1.300   2.023   1.556  2.9183  0.7886 -0.6934
  385SOL     MW 1540   1.359   2.088   1.533  0.7610  0.1532 -0.1649
  386SOL     OW 1541   1.306   0.412   0.883 -0.2504  0.2596  0.7140
  386SOL    HW1 1542   1.230   0.458   0.923 -0.0406  0.8277 -1.3134
  386SOL    HW2 1543   1.348   0.351   0.939 -0.2520  1.0541 -0.7554
  386SOL     MW 1544   1.301   0.410   0.896 -0.2230  0.4394  0.2526
  387SOL     OW 1545   0.822   2.192   1.495 -0.5472  0.4317  0.5171
  387SOL    HW1 1546   0.885   2.253   1.456 -0.0673  0.4310  0.3124
  387SOL    HW2 1547   0.853   2.108   1.464 -1.4727  0.3129  1.8208
  387SOL     MW 1548   0.834   2.189   1.486 -0.6060  0.4159  0.6621
  388SOL     OW 1549   1.561   2.803   1.222 -0.3634 -0.2776 -0.3247
  388SOL    HW1 1550   1.482   2.775   1.184 -0.0555 -2.0669  0.6434
  388SOL    HW2 1551   1.616   2.738   1.180  0.3519  1.6580 -1.5818
  388SOL     MW 1552   1.558   2.791   1.212 -0.2284 -0.2583 -0.3628
  389SOL     OW 1553   0.456   0.087   3.003 -0.0014  0.6163 -0.4733
  389SOL    HW1 1554   0.544   0.068   2.980 -3.3792 -0.6846  1.5864
  389SOL    HW2 1555   0.424   0.151   2.945  2.9805 -1.3685 -0.4812
  389SOL     MW 1556   0.463   0.093   2.992 -0.0536  0.1827 -0.2026
  390SOL     OW 1557   1.281   0.080   0.710  0.3102 -0.0428  0.3667
  390SOL    HW1 1558   1.349   0.082   0.642 -1.2599 -0.3977 -4.2919
  390SOL    HW2 1559   1.329   0.112   0.783 -0.3301 -3.8573 -0.0001
  390SOL     MW 1560   1.296   0.084   0.711  0.0186 -0.5929 -0.2964
  391SOL     OW 1561   0.315   2.211   1.413 -0.0551 -0.4858  0.0628
  391SOL    HW1 1562   0.269   2.122   1.414  2.3091 -0.1000  1.6846
  391SOL    HW2 1563   0.234   2.262   1.422  0.3595 -0.2341  0.1266
  391SOL     MW 1564   0.298   2.206   1.414  0.3115 -0.4017  0.2852
  392SOL     OW 1565   2.075   2.201   0.322 -0.5216  0.3846 -0.1084
  392SOL    HW1 1566   2.167   2.179   0.306 -0.7176  0.3463 -1.9438
  392SOL    HW2 1567   2.084   2.233   0.407  0.5890 -1.1719 -2.2141
  392SOL     MW 1568   2.088   2.203   0.331 -0.4009  0.1742 -0.6284
  393SOL     OW 1569   0.176   3.025   2.746  0.4553 -0.1839  0.0847
  393SOL    HW1 1570   0.262   3.008   2.781  1.8720 -3.2043  2.5717
  393SOL    HW2 1571   0.175   3.119   2.734 -1.3370  1.0168  2.0773
  393SOL     MW 1572   0.187   3.035   2.749  0.4057 -0.4240  0.6757
  394SOL     OW 1573   0.872   1.755   1.561  0.1729 -0.6407  0.2749
  394SOL    HW1 1574   0.790   1.780   1.607  1.5754 -1.1328 -2.3189
  394SOL    HW2 1575   0.879   1.828   1.492 -0.1527  0.5026 -1.0450
  394SOL     MW 1576   0.862   1.768   1.558  0.3150 -0.5548 -0.2415
  395SOL     OW 1577   1.013   2.812   2.617 -0.4308  0.6461  0.6564
  395SOL    HW1 1578   1.066   2.891   2.632 -0.8879 -0.9496  2.1395
  395SOL    HW2 1579   1.074   2.756   2.570 -1.1787  0.5224 -2.5661
  395SOL     MW 1580   1.028   2.815   2.613 -0.5898  0.4193  0.4269
  396SOL     OW 1581   0.740   1.870   2.402  0.0062 -0.2849 -0.0691
  396SOL    HW1 1582   0.816   1.889   2.459  0.6756 -3.6801  0.8131
  396SOL    HW2 1583   0.731   1.771   2.402 -1.4505  1.5062  0.8349
  396SOL     MW 1584   0.749   1.860   2.409 -0.0977 -0.4965  0.1666
  397SOL     OW 1585   0.998   2.305   1.270  0.2936  0.4453  0.5060
  397SOL    HW1 1586   1.020   2.314   1.174 -0.1879 -2.4506  0.7289
  397SOL    HW2 1587   1.075   2.287   1.329  0.5580 -1.2693  0.4630
  397SOL     MW 1588   1.011   2.304   1.265  0.2650 -0.1630  0.5297
  398SOL     OW 1589   0.535   2.658   0.683  0.4015 -0.7830 -0.0430
  398SOL    HW1 1590   0.464   2.615   0.640 -1.9345 -1.5046 -0.9895
  398SOL    HW2 1591   0.617   2.614   0.650  0.5942  2.0206 -1.3560
  398SOL     MW 1592   0.537   2.646   0.673  0.1187 -0.5083 -0.3411
  399SOL     OW 1593   0.253   2.063   0.356 -0.3145  0.0205 -0.7875
  399SOL    HW1 1594   0.178   2.121   0.371 -1.3690  1.0753 -2.0614
  399SOL    HW2 1595   0.283   2.079   0.270  1.2972  0.6405 -2.7222
  399SOL     MW 1596   0.247   2.073   0.347 -0.2410  0.2414 -1.2109
  400SOL     OW 1597   0.495   1.924   0.150  0.2230  0.3549 -0.5219
  400SOL    HW1 1598   0.471   2.017   0.153  0.2376  0.1400 -3.8746
  400SOL    HW2 1599   0.413   1.885   0.177 -1.0364 -0.2010 -2.5895
  400SOL     MW 1600   0.481   1.931   0.154  0.0587  0.2532 -1.2371
  401SOL     OW 1601   0.765   2.020   0.100 -0.4730  0.2885 -0.1343
  401SOL    HW1 1602   0.831   1.959   0.143  0.0882 -2.9267 -0.2219
  401SOL    HW2 1603   0.678   1.985   0.116 -0.1868  0.7297 -3.2278
  401SOL     MW 1604   0.762   2.008   0.108 -0.3612 -0.0775 -0.5540
  402SOL     OW 1605   0.599   2.979   1.803 -0.2585 -0.6158  0.3331
  402SOL    HW1 1606   0.686   2.956   1.831 -1.2709  0.7337 -1.5792
  402SOL    HW2 1607   0.602   3.074   1.790  0.9881  0.3394 -1.4619
  402SOL     MW 1608   0.611   2.989   1.805 -0.2276 -0.3117 -0.1560
  403SOL     OW 1609   0.067   0.428   0.332 -0.3232  0.5417  0.0777
  403SOL    HW1 1610   0.128   0.453   0.403 -0.0097  0.4100  2.2415
  403SOL    HW2 1611   0.116   0.387   0.263 -0.1647  0.4076 -1.0790
  403SOL     MW 1612   0.081   0.426   0.332 -0.2610  0.5066  0.2106
  404SOL     OW 1613   0.908   2.925   0.742  0.4649  0.2240  0.5644
  404SOL    HW1 1614   0.990   2.871   0.743  0.6020 -2.2527 -0.2038
  404SOL    HW2 1615   0.920   3.012   0.704 -1.6443  0.9756 -0.9748
  404SOL     MW 1616   0.920   2.929   0.737  0.2047 -0.0036  0.2600
  405SOL     OW 1617   0.513   2.397   1.498  0.1537  0.6175  0.0593
  405SOL    HW1 1618   0.497   2.475   1.446  1.7188  2.1016 -1.4292
  405SOL    HW2 1619   0.458   2.329   1.471 -1.5974 -0.7432  0.9360
  405SOL     MW 1620   0.504   2.398   1.488  0.1291  0.6338 -0.0214
  406SOL     OW 1621   0.404   2.400   1.026  0.4567  0.1442  0.3637
  406SOL    HW1 1622   0.320   2.393   1.067  1.4443  1.5808  0.6197
  406SOL    HW2 1623   0.442   2.314   1.027 -0.7254  1.4520  2.8685
  406SOL     MW 1624   0.398   2.388   1.032  0.4310  0.5063  0.7280
  407SOL     OW 1625   3.057   2.688   1.151  0.2628 -0.2027  0.3100
  407SOL    HW1 1626   3.132   2.662   1.215  1.6777 -0.4905 -0.4910
  407SOL    HW2 1627   3.108   2.718   1.075  3.0448 -1.4934 -0.9514
  407SOL     MW 1628   3.074   2.688   1.149  0.8165 -0.4110  0.0379
  408SOL     OW 1629   2.124   2.107   0.731 -0.2603  0.7127 -0.5308
  408SOL    HW1 1630   2.065   2.136   0.804 -0.3782 -0.9313 -1.6726
  408SOL    HW2 1631   2.067   2.070   0.662  3.0435 -0.7209 -4.5535
  408SOL     MW 1632   2.109   2.106   0.732  0.1601  0.3067 -1.2122
  409SOL     OW 1633   1.481   0.140   0.890  0.2521  0.6146 -0.0398
  409SOL    HW1 1634   1.562   0.188   0.891 -0.4212  0.2225  0.7075
  409SOL    HW2 1635   1.469   0.086   0.969  1.1765 -2.1289 -0.0161
  409SOL     MW 1636   1.490   0.139   0.900  0.2852  0.2009  0.0619
  410SOL     OW 1637   1.097   2.477   1.047  0.1363 -0.1272  0.6917
  410SOL    HW1 1638   1.039   2.513   0.976 -0.0894  3.0773 -0.6734
  410SOL    HW2 1639   1.158   2.414   1.010  0.7845 -0.2010 -0.7738
  410SOL     MW 1640   1.098   2.473   1.033  0.1920  0.2859  0.3182
  411SOL     OW 1641   1.984   0.025   2.901  0.1270  0.1794  0.1253
  411SOL    HW1 1642   1.921   0.010   2.831  0.5102 -1.7902  2.8802
  411SOL    HW2 1643   1.937   0.064   2.974 -1.8524  0.5715 -0.0826
  411SOL     MW 1644   1.970   0.028   2.901 -0.0836 -0.0287  0.4614
  412SOL     OW 1645   1.002   2.283   0.609 -0.0204 -0.0966 -0.2829
  412SOL    HW1 1646   1.043   2.367   0.640 -0.4831  2.2079  1.3541
  412SOL    HW2 1647   0.923   2.291   0.570 -0.8041  0.2682 -0.0117
  412SOL     MW 1648   0.997   2.295   0.608 -0.1849  0.2556 -0.0311
  413SOL     OW 1649   0.555   2.784   3.061  0.8804 -0.7251  0.3831
  413SOL    HW1 1650   0.596   2.701   3.091  2.1544  0.2200  0.1946
  413SOL    HW2 1651   0.594   2.802   2.981 -3.1972 -3.0218  4.0007
  413SOL     MW 1652   0.565   2.775   3.055  0.5105 -0.9034  0.8355
  414SOL     OW 1653   1.920   2.891   1.049  0.0618  0.9518 -0.1829
  414SOL    HW1 1654   1.861   2.930   0.979 -1.4377 -1.2476  1.3644
  414SOL    HW2 1655   2.005   2.930   1.041 -0.6195  3.6193 -0.8986
  414SOL     MW 1656   1.924   2.901   1.038 -0.2260  1.0136 -0.0732
  415SOL     OW 1657   1.783   2.627   1.083  0.4011 -0.0680 -0.3000
  415SOL    HW1 1658   1.798   2.603   1.176 -2.8812 -0.9094  3.1687
  415SOL    HW2 1659   1.842   2.701   1.064  0.9684  0.2461  0.3734
  415SOL     MW 1660   1.793   2.633   1.093  0.0429 -0.1376  0.2465
  416SOL     OW 1661   0.550   1.922   1.396  0.6117  0.3461 -0.2529
  416SOL    HW1 1662   0.498   1.965   1.326  0.9837  2.8593  1.3114
  416SOL    HW2 1663   0.503   1.837   1.415  0.5218 -1.8909  0.0234
  416SOL     MW 1664   0.537   1.917   1.389  0.6489  0.3825 -0.0100
  417SOL     OW 1665   1.002   3.071   2.078 -0.1202 -0.6069  0.3575
  417SOL    HW1 1666   0.958   3.061   2.164  2.1167  0.9351 -2.2832
  417SOL    HW2 1667   0.940   3.017   2.018 -3.2062  0.4563 -4.3140
  417SOL     MW 1668   0.988   3.063   2.082 -0.2323 -0.2632 -0.6073
  418SOL     OW 1669   0.729   2.897   0.125 -0.2922 -0.0700 -0.5857
  418SOL    HW1 1670   0.808   2.910   0.071  0.4882 -2.0092  1.0455
  418SOL    HW2 1671   0.672   2.857   0.060  1.5403  0.0990  0.7787
  418SOL     MW 1672   0.732   2.894   0.109  0.0526 -0.3035 -0.1905
  419SOL     OW 1673   0.445   2.641   1.392  0.6380 -0.2770  0.2436
  419SOL    HW1 1674   0.490   2.710   1.441  0.1625 -5.2106 -1.5000
  419SOL    HW2 1675   0.479   2.641   1.300  0.1290  2.3262  1.3031
  419SOL     MW 1676   0.456   2.650   1.386  0.5081 -0.5845  0.1534
  420SOL     OW 1677   0.872   2.276   0.973 -0.2089 -0.1648  0.0043
  420SOL    HW1 1678   0.800   2.281   1.038 -1.1087 -1.9312 -0.5562
  420SOL    HW2 1679   0.883   2.365   0.951 -3.2115 -2.9757  0.0387
  420SOL     MW 1680   0.864   2.288   0.979 -0.7238 -0.7687 -0.0651
  421SOL     OW 1681   2.925   0.110   3.096  0.1710  0.9360  0.3515
  421SOL    HW1 1682   2.869   0.073   3.026 -2.5002  1.1724 -2.2689
  421SOL    HW2 1683   2.969   0.033   3.139  0.9370  1.9562 -0.2233
  421SOL     MW 1684   2.924   0.095   3.092 -0.0804  1.1018 -0.0701
  422SOL     OW 1685   0.897   2.541   0.890  0.0990 -0.5603 -0.0493
  422SOL    HW1 1686   0.872   2.633   0.883 -1.0210 -0.7191  0.5621
  422SOL    HW2 1687   0.845   2.497   0.831  1.2978  3.6218 -2.6652
  422SOL     MW 1688   0.887   2.547   0.882  0.1094 -0.0294 -0.3138
  423SOL     OW 1689   1.486   0.104   0.508 -0.4481  0.0641 -0.2356
  423SOL    HW1 1690   1.454   0.074   0.425 -2.3053  2.6881  1.4339
  423SOL    HW2 1691   1.465   0.200   0.503  0.5306 -0.5201  2.7022
  423SOL     MW 1692   1.479   0.113   0.496 -0.5640  0.3332  0.3723
  424SOL     OW 1693   0.713   2.267   1.191 -0.3419  0.1753  0.2631
  424SOL    HW1 1694   0.635   2.216   1.207 -1.6776 -1.2633 -0.2409
  424SOL    HW2 1695   0.747   2.284   1.276  0.0940 -2.4872 -1.4265
  424SOL     MW 1696   0.707   2.262   1.204 -0.4606 -0.3658 -0.0263
  425SOL     OW 1697   1.739   2.821   2.030 -0.0990 -0.2040  0.5736
  425SOL    HW1 1698   1.732   2.844   1.938 -0.5671  1.0589  2.1227
  425SOL    HW2 1699   1.771   2.732   2.045  1.5791 -2.5413 -1.1979
  425SOL     MW 1700   1.742   2.813   2.020  0.0606 -0.3458  0.5442
  426SOL     OW 1701   0.799   1.688   1.943 -0.2235 -0.2888 -0.0761
  426SOL    HW1 1702   0.747   1.729   1.873  0.4848  2.1737  3.5197
  426SOL    HW2 1703   0.806   1.751   2.015 -1.5305  0.6959 -1.4406
  426SOL     MW 1704   0.793   1.701   1.943 -0.3025  0.1660  0.2183
  427SOL     OW 1705   0.354   1.648   1.922 -0.4340 -0.1782 -0.4531
  427SOL    HW1 1706   0.419   1.577   1.934  1.2910  2.2320 -0.5912
  427SOL    HW2 1707   0.271   1.610   1.957 -1.4108  0.5445  1.3597
  427SOL     MW 1708   0.352   1.633   1.928 -0.3352  0.2352 -0.2321
  428SOL     OW 1709   0.577   2.593   1.157  0.1840  0.1609 -0.3205
  428SOL    HW1 1710   0.647   2.557   1.215 -3.8315 -1.8787 -2.5228
  428SOL    HW2 1711   0.518   2.524   1.115 -0.1089 -2.1598 -2.4046
  428SOL     MW 1712   0.578   2.579   1.159 -0.3844 -0.4144 -0.8861
  429SOL     OW 1713   1.287   2.785   1.073 -0.6286  0.6391 -0.5062
  429SOL    HW1 1714   1.201   2.756   1.105  0.0493 -2.7435  0.6024
  429SOL    HW2 1715   1.271   2.846   0.998 -0.4484  1.0329  0.6219
  429SOL     MW 1716   1.273   2.790   1.067 -0.5154  0.2447 -0.2111
  430SOL     OW 1717   1.135   2.734   0.722 -0.3534  0.2421 -0.1159
  430SOL    HW1 1718   1.163   2.640   0.733  2.2906  0.0401  1.3897
  430SOL    HW2 1719   1.087   2.723   0.633  0.8545 -1.0175 -2.6440
  430SOL     MW 1720   1.132   2.720   0.711  0.1548  0.0493 -0.2508
  431SOL     OW 1721   0.365   1.920   1.046 -0.1085  0.1626 -0.1810
  431SOL    HW1 1722   0.421   1.844   1.056  2.0093  0.8784 -1.6207
  431SOL    HW2 1723   0.323   1.908   0.963  0.9428 -0.9672  1.8611
  431SOL     MW 1724   0.367   1.909   1.037  0.3097  0.1080 -0.1015
  432SOL     OW 1725   0.064   0.008   1.210  0.1315  0.3640  0.4035
  432SOL    HW1 1726   0.077   0.077   1.279  0.2611 -2.1527 -0.4053
  432SOL    HW2 1727  -0.005  -0.046   1.247 -0.7430 -0.3751  0.3316
  432SOL     MW 1728   0.057   0.010   1.224  0.0332 -0.0656  0.2873
  433SOL     OW 1729   0.627   2.812   1.529 -0.5418 -0.7426 -0.2985
  433SOL    HW1 1730   0.652   2.836   1.618  0.4493  1.4929  3.0312
  433SOL    HW2 1731   0.697   2.852   1.478 -0.3196 -2.3076 -2.8148
  433SOL     MW 1732   0.639   2.820   1.534 -0.3817 -0.6541 -0.1912
  434SOL     OW 1733   1.592   2.841   1.527  0.4919  0.4058 -0.2529
  434SOL    HW1 1734   1.501   2.863   1.493 -1.9889 -0.8508  0.7687
  434SOL    HW2 1735   1.633   2.787   1.458  1.5161  1.2501  0.4806
  434SOL     MW 1736   1.585   2.837   1.513  0.2997  0.3514 -0.0213
  435SOL     OW 1737   2.843   1.798   0.226 -0.0331 -0.0960 -0.4294
  435SOL    HW1 1738   2.908   1.866   0.187  1.0484 -1.0457  0.5821
  435SOL    HW2 1739   2.784   1.774   0.158  0.4088 -1.0283  1.6781
  435SOL     MW 1740   2.844   1.804   0.212  0.1679 -0.3443 -0.0179
  436SOL     OW 1741   1.327   2.728   0.386  0.0716 -0.8230 -0.1800
  436SOL    HW1 1742   1.388   2.719   0.462 -2.0912 -0.3466  1.5151
  436SOL    HW2 1743   1.263   2.805   0.409 -1.3119  0.4377  0.5837
  436SOL     MW 1744   1.326   2.737   0.399 -0.3963 -0.5938  0.1444
  437SOL     OW 1745   0.846   2.945   1.371  0.3500  0.7357 -0.5148
  437SOL    HW1 1746   0.887   3.030   1.352  1.4220 -0.3920 -0.0833
  437SOL    HW2 1747   0.870   2.885   1.297 -1.1265  0.5047 -1.6992
  437SOL     MW 1748   0.854   2.948   1.358  0.2966  0.5564 -0.6141
  438SOL     OW 1749   0.856   2.674   1.888 -0.5253 -0.4241 -0.5252
  438SOL    HW1 1750   0.831   2.646   1.972  2.7109  1.5752  0.8809
  438SOL    HW2 1751   0.823   2.610   1.830  0.4268 -1.7912  0.8978
  438SOL     MW 1752   0.848   2.662   1.891  0.0273 -0.3407 -0.1520
  439SOL     OW 1753   1.199   2.164   0.463  0.7369  0.2951 -0.0937
  439SOL    HW1 1754   1.125   2.218   0.501 -0.6985  1.5804  0.5283
  439SOL    HW2 1755   1.191   2.197   0.371 -0.5507  1.7094  1.1909
  439SOL     MW 1756   1.188   2.175   0.456  0.3776  0.6513  0.1579
  440SOL     OW 1757   1.758   2.996   3.088  0.5064  0.0921 -0.6863
  440SOL    HW1 1758   1.700   2.970   3.160  1.2395  2.2463 -1.8183
  440SOL    HW2 1759   1.843   2.948   3.099 -1.2379  1.8829  0.6689
  440SOL     MW 1760   1.761   2.986   3.099  0.3730  0.6126 -0.6569
  441SOL     OW 1761   0.337   2.637   0.475 -0.4939 -0.0903 -0.6777
  441SOL    HW1 1762   0.313   2.618   0.390 -1.7527 -0.3958  0.5637
  441SOL    HW2 1763   0.357   2.736   0.473  1.3769  1.0175 -2.7254
  441SOL     MW 1764   0.336   2.647   0.464 -0.4131  0.0156 -0.7841
  442SOL     OW 1765   3.053   2.417   0.593 -0.1328  0.7328 -0.4026
  442SOL    HW1 1766   3.079   2.501   0.606 -0.2235 -3.5751  0.9339
  442SOL    HW2 1767   2.960   2.416   0.615 -1.1877 -1.1882  0.1634
  442SOL     MW 1768   3.044   2.428   0.598 -0.2839 -0.0890 -0.1516
  443SOL     OW 1769   1.407   1.778   1.924  0.3821  0.3992  0.0007
  443SOL    HW1 1770   1.385   1.839   1.852 -0.4163 -0.6710 -1.1287
  443SOL    HW2 1771   1.335   1.711   1.915 -0.9035 -0.2141 -1.7888
  443SOL     MW 1772   1.394   1.777   1.913  0.1072  0.1771 -0.3844
  444SOL     OW 1773   0.900   2.516   1.585  0.0387 -0.1129 -0.1278
  444SOL    HW1 1774   0.987   2.487   1.623 -1.9865  0.1200  0.7109
  444SOL    HW2 1775   0.831   2.476   1.640 -2.2547 -1.6733  0.4977
  444SOL     MW 1776   0.902   2.507   1.597 -0.5311 -0.2881  0.0654
  445SOL     OW 1777   0.982   0.073   1.348  0.8304 -0.0303 -0.1496
  445SOL    HW1 1778   0.935   0.154   1.326 -0.2745  0.1182 -0.2432
  445SOL    HW2 1779   1.003   0.029   1.260  1.6375 -2.9578 -1.2728
  445SOL     MW 1780   0.978   0.078   1.333  0.7911 -0.3970 -0.3101
  446SOL     OW 1781   2.723   2.895   1.097 -0.1682  0.5499  0.1079
  446SOL    HW1 1782   2.665   2.938   1.037  1.4279  1.8847  0.1554
  446SOL    HW2 1783   2.742   2.805   1.058 -0.3222  0.3261 -1.2231
  446SOL     MW 1784   2.718   2.889   1.084  0.0221  0.6965 -0.0614
  447SOL     OW 1785   0.083   2.030   1.641  0.1244  0.0416 -0.4819
  447SOL    HW1 1786   0.128   1.958   1.689  1.3716 -0.2224  2.3488
  447SOL    HW2 1787  -0.007   1.993   1.646 -3.2318  0.1287  2.3509
  447SOL     MW 1788   0.077   2.016   1.648 -0.1538  0.0182  0.2654
  448SOL     OW 1789   1.720   2.403   1.618  0.7315 -0.0148 -0.3149
  448SOL    HW1 1790   1.673   2.322   1.621 -0.4418 -0.8340 -1.1007
  448SOL    HW2 1791   1.647   2.470   1.607 -1.5957  0.2445 -1.7709
  448SOL     MW 1792   1.704   2.401   1.617  0.2697 -0.0887 -0.6107
  449SOL     OW 1793   0.797   2.821   0.383  0.3268  0.3583 -0.3957
  449SOL    HW1 1794   0.771   2.813   0.285  2.6638 -1.7253 -0.6612
  449SOL    HW2 1795   0.722   2.840   0.442 -0.8947  1.1002  1.1175
  449SOL     MW 1796   0.783   2.822   0.378  0.4740  0.1813 -0.2311
  450SOL     OW 1797   1.206   2.457   0.683 -0.1557  0.1428  0.0705
  450SOL    HW1 1798   1.201   2.402   0.765  3.8477  5.3455 -1.5753
  450SOL    HW2 1799   1.277   2.426   0.632 -1.4782  1.5459 -0.6334
  450SOL     MW 1800   1.215   2.445   0.687  0.1980  1.0144 -0.2395
  451SOL     OW 1801   0.580   2.058   1.623  0.3946  0.9279  0.1336
  451SOL    HW1 1802   0.613   2.141   1.603 -0.2578 -0.4285  1.7311
  451SOL    HW2 1803   0.575   2.021   1.536  0.2236  1.2000  2.4553
  451SOL     MW 1804   0.584   2.064   1.609  0.2860  0.7848  0.6507
  452SOL     OW 1805   0.289   2.724   0.011  0.5052 -0.8101 -0.1525
  452SOL    HW1 1806   0.376   2.752  -0.025  3.0538 -1.3991  0.0118
  452SOL    HW2 1807   0.224   2.742  -0.058  1.4891  0.2499  0.9110
  452SOL     MW 1808   0.292   2.730  -0.003  0.9713 -0.7480  0.0095
  453SOL     OW 1809   0.354   2.899   1.686  0.2506  0.4866 -0.2087
  453SOL    HW1 1810   0.441   2.915   1.721 -1.1703  0.1599 -0.0429
  453SOL    HW2 1811   0.350   2.946   1.599  1.0098  1.4721 -1.5869
  453SOL     MW 1812   0.365   2.907   1.679  0.1633  0.5735 -0.3686
  454SOL     OW 1813   1.016   2.764   1.195  0.0186  0.7608 -0.1062
  454SOL    HW1 1814   0.996   2.676   1.227  0.8932  0.2796  0.0750
  454SOL    HW2 1815   0.956   2.770   1.125  1.6624  0.3920 -0.1079
  454SOL     MW 1816   1.005   2.753   1.190  0.3509  0.6487 -0.0825
  455SOL     OW 1817   1.597   2.930   0.216  0.2967  0.1615 -0.5500
  455SOL    HW1 1818   1.663   2.916   0.283 -0.6633  0.9781  0.3243
  455SOL    HW2 1819   1.556   2.834   0.194 -3.4861 -0.5614  0.0183
  455SOL     MW 1820   1.601   2.916   0.222 -0.3291  0.1739 -0.3597
  456SOL     OW 1821   2.818   0.349   1.400 -1.0494 -0.2812  0.6280
  456SOL    HW1 1822   2.765   0.289   1.352 -1.7949  2.0961  0.7892
  456SOL    HW2 1823   2.899   0.372   1.346  0.2081  2.4765  0.0552
  456SOL     MW 1824   2.821   0.344   1.387 -0.9819  0.3963  0.5737
  457SOL     OW 1825   0.976   1.572   2.905 -0.0458  0.1172 -0.1507
  457SOL    HW1 1826   0.912   1.540   2.972  2.6989 -2.0048  3.0491
  457SOL    HW2 1827   1.052   1.518   2.934  1.4603  0.6004  0.7053
  457SOL     MW 1828   0.978   1.561   2.918  0.5151 -0.0991  0.3844
  458SOL     OW 1829   1.482   1.412   0.539 -0.2877  0.1321  0.3443
  458SOL    HW1 1830   1.407   1.470   0.543  0.1534  2.9925 -0.1895
  458SOL    HW2 1831   1.457   1.355   0.464 -0.3896 -1.1131  0.9969
  458SOL     MW 1832   1.469   1.412   0.530 -0.2430  0.3452  0.3600
  459SOL     OW 1833   1.461   0.073   0.216 -0.1025  0.6601 -0.5539
  459SOL    HW1 1834   1.478  -0.017   0.193 -1.5542  0.3823  0.7787
  459SOL    HW2 1835   1.396   0.090   0.146 -2.2596 -0.2074  0.8749
  459SOL     MW 1836   1.454   0.064   0.204 -0.5787  0.5090 -0.1896
  460SOL     OW 1837   1.787   2.199   0.603  0.3735 -0.1524  0.3590
  460SOL    HW1 1838   1.704   2.170   0.639  0.2025  0.9047  0.6396
  460SOL    HW2 1839   1.840   2.121   0.587 -0.6283  0.0599  0.5364
  460SOL     MW 1840   1.783   2.185   0.606  0.2187  0.0151  0.4194
  461SOL     OW 1841   0.382   2.369   0.579 -0.0361 -0.6894 -0.3532
  461SOL    HW1 1842   0.346   2.413   0.501  1.7489 -0.3648 -1.4838
  461SOL    HW2 1843   0.365   2.428   0.655  0.3037 -0.1558  2.5485
  461SOL     MW 1844   0.375   2.382   0.579  0.2442 -0.5761 -0.1195
  462SOL     OW 1845   0.414   0.328   1.286  0.3174 -0.2309  0.1193
  462SOL    HW1 1846   0.435   0.277   1.207  1.9946  0.4351  0.3906
  462SOL    HW2 1847   0.484   0.311   1.344 -0.8020 -1.7235 -3.0698
  462SOL     MW 1848   0.426   0.319   1.283  0.3910 -0.3399 -0.2657
  463SOL     OW 1849   0.921   0.066   0.618  0.8103  0.3194 -0.3825
  463SOL    HW1 1850   0.923   0.102   0.529  0.6235  1.3234  1.3189
  463SOL    HW2 1851   0.831   0.079   0.649 -1.0103 -1.0520  0.9086
  463SOL     MW 1852   0.909   0.073   0.611  0.5454  0.2709  0.0123
  464SOL     OW 1853   0.847   3.055   2.291 -0.1757  0.1959  0.1445
  464SOL    HW1 1854   0.814   2.966   2.285 -0.7981  2.0778  0.4512
  464SOL    HW2 1855   0.844   3.085   2.383  2.4419  3.7985  2.2488
  464SOL     MW 1856   0.842   3.047   2.302  0.0875  0.9196  0.4626
  465SOL     OW 1857   0.685   0.293   0.467  0.5833  0.4803  0.1825
  465SOL    HW1 1858   0.630   0.235   0.518 -0.2122 -0.2140 -1.1610
  465SOL    HW2 1859   0.710   0.251   0.382 -0.7811  0.4876  0.0438
  465SOL     MW 1860   0.681   0.280   0.462  0.2983  0.3897 -0.0131
  466SOL     OW 1861   1.063   1.967   0.699 -0.2947  0.3170  0.1706
  466SOL    HW1 1862   1.055   1.885   0.645  1.5440 -2.0977 -0.7769
  466SOL    HW2 1863   1.095   2.035   0.644 -0.9237 -0.9503  1.8726
  466SOL     MW 1864   1.066   1.965   0.684 -0.1351 -0.1688  0.2702
  467SOL     OW 1865   1.261   2.308   0.926 -0.1449  0.0393  0.3546
  467SOL    HW1 1866   1.359   2.314   0.924  1.7557 -2.8618  3.1526
  467SOL    HW2 1867   1.247   2.215   0.901  1.0934  1.2754 -0.0642
  467SOL     MW 1868   1.272   2.296   0.922  0.2693 -0.1804  0.6685
  468SOL     OW 1869   0.399   2.613   1.990 -0.0555  0.0004  0.0352
  468SOL    HW1 1870   0.424   2.568   1.906 -0.6352 -1.8180  0.1220
  468SOL    HW2 1871   0.357   2.692   1.954  1.7353 -2.3965 -1.0326
  468SOL     MW 1872   0.397   2.618   1.974  0.1043 -0.5558 -0.0942
  469SOL     OW 1873   0.364   2.180   1.778 -0.0669  0.4426 -0.1831
  469SOL    HW1 1874   0.299   2.118   1.809 -1.4270 -1.7967 -0.8790
  469SOL    HW2 1875   0.422   2.129   1.715  1.3761 -0.8886  0.5752
  469SOL     MW 1876   0.363   2.165   1.774 -0.0560 -0.0285 -0.1749
  470SOL     OW 1877   3.050   2.612   0.062 -0.1112 -0.2145  0.0149
  470SOL    HW1 1878   2.969   2.573   0.091 -1.7376 -0.0693 -0.8519
  470SOL    HW2 1879   3.030   2.616  -0.033  3.3698 -0.1780 -0.0783
  470SOL     MW 1880   3.036   2.608   0.054  0.1335 -0.1905 -0.1117
  471SOL     OW 1881   1.150   2.713   1.442 -0.7396  0.0084  0.1364
  471SOL    HW1 1882   1.081   2.726   1.507  0.1944 -1.0017  0.5320
  471SOL    HW2 1883   1.112   2.743   1.363 -0.1338  0.6841  2.0699
  471SOL     MW 1884   1.136   2.719   1.440 -0.5365 -0.0357  0.4437
  472SOL     OW 1885   2.946   2.110   0.386 -0.5238  0.0344  0.4856
  472SOL    HW1 1886   2.929   2.086   0.295 -4.5514 -0.4693 -1.5882
  472SOL    HW2 1887   2.913   2.033   0.430 -0.5632  1.0197  1.7179
  472SOL     MW 1888   2.939   2.096   0.380 -1.0604  0.0980  0.3746
  473SOL     OW 1889   0.874   2.546   1.316 -0.2857 -0.4797 -0.0147
  473SOL    HW1 1890   0.899   2.457   1.283 -0.1451 -0.8602 -0.5958
  473SOL    HW2 1891   0.889   2.544   1.410  1.5154  1.7652 -0.4664
  473SOL     MW 1892   0.879   2.534   1.324 -0.0295 -0.2337 -0.1510
  474SOL     OW 1893   0.833   2.141   1.782  0.8864 -0.7126  0.0935
  474SOL    HW1 1894   0.917   2.137   1.828 -2.9933 -1.0455  1.2072
  474SOL    HW2 1895   0.859   2.144   1.693  0.7644 -0.5485  0.6076
  474SOL     MW 1896   0.848   2.141   1.776  0.3584 -0.7348  0.3082
  475SOL     OW 1897   1.653   0.022   1.421 -0.1272 -0.0865 -0.2375
  475SOL    HW1 1898   1.565   0.046   1.400 -0.8882 -0.0536 -0.1640
  475SOL    HW2 1899   1.647  -0.050   1.481 -0.5701  0.5792  1.7341
  475SOL     MW 1900   1.641   0.015   1.426 -0.2860  0.0057  0.0324
  476SOL     OW 1901   1.422   2.607   0.902 -0.4871 -0.2518  0.7810
  476SOL    HW1 1902   1.373   2.641   0.984  0.0609  3.5626 -2.3684
  476SOL    HW2 1903   1.454   2.688   0.857 -0.7642 -0.6495 -2.4345
  476SOL     MW 1904   1.420   2.622   0.907 -0.4514  0.1990 -0.0588
  477SOL     OW 1905   0.778   2.529   0.627 -0.3206 -0.2786 -0.2031
  477SOL    HW1 1906   0.853   2.581   0.599 -1.4169  0.0544 -0.5581
  477SOL    HW2 1907   0.763   2.457   0.564  1.0984 -1.9024  0.6731
  477SOL     MW 1908   0.786   2.527   0.615 -0.2780 -0.4489 -0.1343
  478SOL     OW 1909   0.122   2.718   0.922  0.3846 -0.1177 -0.1848
  478SOL    HW1 1910   0.187   2.796   0.917  0.6435  2.1800  2.1830
  478SOL    HW2 1911   0.154   2.664   0.853 -3.1407  4.2436 -0.0856
  478SOL     MW 1912   0.134   2.721   0.912 -0.0464  0.7609  0.1407
  479SOL     OW 1913   1.429   1.964   1.298  0.0210  0.0854 -0.2973
  479SOL    HW1 1914   1.409   2.015   1.377  1.2982 -0.7871 -1.9100
  479SOL    HW2 1915   1.508   1.907   1.329 -1.3926  1.2507  1.0640
  479SOL     MW 1916   1.436   1.963   1.313  0.0030  0.1240 -0.3305
  480SOL     OW 1917   1.891   2.319   1.348 -0.0225  0.0813 -0.0908
  480SOL    HW1 1918   1.864   2.224   1.359  0.2361  0.2880  0.9425
  480SOL    HW2 1919   1.964   2.315   1.290 -3.5121  1.6605 -1.4765
  480SOL     MW 1920   1.897   2.306   1.342 -0.4488  0.3169 -0.1373
  481SOL     OW 1921   1.070   3.082   1.107 -1.2460  0.5078 -0.2390
  481SOL    HW1 1922   1.127   3.021   1.064 -0.3698 -0.3229 -1.0546
  481SOL    HW2 1923   1.083   3.161   1.063 -3.3964  0.0132  1.5043
  481SOL     MW 1924   1.079   3.085   1.096 -1.4141  0.3330 -0.1166
  482SOL     OW 1925   0.962   3.038   0.333  0.1528 -0.6248 -0.3254
  482SOL    HW1 1926   0.900   2.966   0.355  1.6360  0.2427 -2.0095
  482SOL    HW2 1927   0.937   3.069   0.249  1.3363 -1.3447 -0.3690
  482SOL     MW 1928   0.951   3.033   0.325  0.5047 -0.6053 -0.5533
  483SOL     OW 1929   0.387   2.893   0.454  0.5844  0.0843 -0.4630
  483SOL    HW1 1930   0.295   2.912   0.417 -1.2735 -0.7408 -0.9002
  483SOL    HW2 1931   0.391   2.942   0.539  0.0978  0.4689  0.5512
  483SOL     MW 1932   0.375   2.902   0.460  0.2750  0.0262 -0.3869
  484SOL     OW 1933   1.651   1.858   1.398  0.1899  0.7678 -0.3407
  484SOL    HW1 1934   1.720   1.919   1.368 -0.4976  1.0797 -0.2040
  484SOL    HW2 1935   1.672   1.853   1.491 -0.1201  1.3608 -0.6149
  484SOL     MW 1936   1.663   1.865   1.406  0.0583  0.8872 -0.3588
  485SOL     OW 1937   0.551   2.457   0.262  0.4532 -0.1797 -0.4625
  485SOL    HW1 1938   0.580   2.445   0.351 -0.3181  0.2139 -4.7508
  485SOL    HW2 1939   0.459   2.484   0.282 -0.2695  1.3302 -2.8527
  485SOL     MW 1940   0.543   2.459   0.277  0.2561  0.0714 -1.3437
  486SOL     OW 1941   0.126   2.406   1.443 -0.1339  0.1972  1.1122
  486SOL    HW1 1942   0.113   2.489   1.390  0.2794  0.7351  0.1481
  486SOL    HW2 1943   0.140   2.449   1.528  2.5526 -2.8799  0.7874
  486SOL     MW 1944   0.126   2.423   1.447  0.2751 -0.1378  0.9422
  487SOL     OW 1945   1.281   1.601   1.040  0.2484  0.5879 -0.3808
  487SOL    HW1 1946   1.281   1.695   1.051  0.1726  0.2672 -0.4680
  487SOL    HW2 1947   1.371   1.589   1.008 -4.8345 -0.4007 -1.9007
  487SOL     MW 1948   1.293   1.612   1.037 -0.4322  0.4152 -0.5929
  488SOL     OW 1949   1.689   1.865   0.542  0.0754 -0.0188  0.5787
  488SOL    HW1 1950   1.774   1.894   0.518 -1.2648 -1.7087 -1.3891
  488SOL    HW2 1951   1.662   1.934   0.604 -1.5926  0.6065 -0.8133
  488SOL     MW 1952   1.696   1.878   0.547 -0.3215 -0.1593  0.1354
  489SOL     OW 1953   0.676   0.766   0.559  0.0017  0.2395 -0.1174
  489SOL    HW1 1954   0.718   0.686   0.536  0.0254 -0.3212  0.2532
  489SOL    HW2 1955   0.656   0.771   0.649  0.7602 -0.8934  1.6139
  489SOL     MW 1956   0.679   0.756   0.568  0.1049  0.0161  0.1599
  490SOL     OW 1957   1.442   2.016   0.412  0.7438 -0.3158  0.5222
  490SOL    HW1 1958   1.523   2.061   0.385 -2.0571 -2.1407 -0.2258
  490SOL    HW2 1959   1.373   2.079   0.406 -0.1234  1.6198  0.7432
  490SOL     MW 1960   1.444   2.030   0.408  0.2599 -0.3012  0.4526
  491SOL     OW 1961   1.186   2.956   0.476 -0.0382 -0.1871 -0.0679
  491SOL    HW1 1962   1.195   3.025   0.543  1.5417 -3.0837  1.1440
  491SOL    HW2 1963   1.117   2.989   0.422  0.1287 -0.7420  2.0547
  491SOL     MW 1964   1.178   2.970   0.478  0.1923 -0.6425  0.3720
  492SOL     OW 1965   1.518   2.055   0.677 -0.7562 -0.1661 -0.2491
  492SOL    HW1 1966   1.468   2.054   0.598 -2.8837  1.1716 -0.0625
  492SOL    HW2 1967   1.460   2.035   0.748  2.9285 -0.8874 -0.3790
  492SOL     MW 1968   1.504   2.052   0.676 -0.5508 -0.0848 -0.2416
  493SOL     OW 1969   0.139   2.933   0.341  0.3978  0.1454 -0.1207
  493SOL    HW1 1970   0.106   2.998   0.408  0.2655 -0.1807  0.1929
  493SOL    HW2 1971   0.181   2.988   0.277  1.7676  2.5022  2.8464
  493SOL     MW 1972   0.140   2.949   0.341  0.5611  0.4133  0.3121
  494SOL     OW 1973   0.389   2.462   1.737 -0.1083  0.1810  0.7121
  494SOL    HW1 1974   0.387   2.367   1.762 -0.0396  1.1613  1.3456
  494SOL    HW2 1975   0.427   2.455   1.649  2.4064 -1.3922 -1.3052
  494SOL     MW 1976   0.394   2.449   1.729  0.2326  0.1027  0.5295
  495SOL     OW 1977   2.920   1.707   2.646 -0.2134 -0.1017 -0.6828
  495SOL    HW1 1978   2.904   1.798   2.614 -1.2660  0.5224 -2.1742
  495SOL    HW2 1979   2.871   1.697   2.729 -0.8736  3.1918 -1.8174
  495SOL     MW 1980   2.912   1.717   2.653 -0.4394  0.4152 -1.0292
  496SOL     OW 1981   2.868   2.287   2.665 -0.0737  0.0124  0.1147
  496SOL    HW1 1982   2.906   2.206   2.694  0.1795  1.8508 -3.1354
  496SOL    HW2 1983   2.929   2.370   2.664 -0.0482  0.7083  0.7940
  496SOL     MW 1984   2.881   2.287   2.669 -0.0369  0.3468 -0.2245
  497SOL     OW 1985   1.593   2.276   2.628  0.4139 -0.0345  0.1030
  497SOL    HW1 1986   1.539   2.219   2.571 -1.6677  0.8353  0.2930
  497SOL    HW2 1987   1.578   2.252   2.721  2.3614 -1.3333 -0.7474
  497SOL     MW 1988   1.584   2.265   2.633  0.3962 -0.0911  0.0158
  498SOL     OW 1989   1.533   2.724   2.386 -0.0740 -0.1809  0.4651
  498SOL    HW1 1990   1.533   2.644   2.334  1.3803 -1.1620 -3.8628
  498SOL    HW2 1991   1.627   2.744   2.419 -1.2885  2.9925  2.0704
  498SOL     MW 1992   1.545   2.716   2.384 -0.0424  0.1084  0.1059
  499SOL     OW 1993   0.906   0.090   0.047  0.2308 -0.7328 -0.0264
  499SOL    HW1 1994   0.834   0.077   0.104  1.2858 -1.2663 -1.5637
  499SOL    HW2 1995   0.955   0.003   0.034  0.7721  1.4741 -1.4973
  499SOL     MW 1996   0.903   0.077   0.053  0.4414 -0.5120 -0.4233
  500SOL     OW 1997   1.108   2.484   2.754  0.1549  0.6397 -0.7609
  500SOL    HW1 1998   1.163   2.464   2.829 -0.6085 -2.2336  0.4442
  500SOL    HW2 1999   1.033   2.524   2.798 -1.7765  0.5595  1.2993
  500SOL     MW 2000   1.105   2.487   2.770 -0.2006  0.2500 -0.3301
  501SOL     OW 2001   1.730   2.265   0.011 -0.4856 -0.7476 -0.6820
  501SOL    HW1 2002   1.739   2.350   0.066  0.9306  0.2374  0.4480
  501SOL    HW2 2003   1.825   2.260   0.003 -1.1881  2.7698  0.1665
  501SOL     MW 2004   1.744   2.276   0.017 -0.3914 -0.1535 -0.4210
  502SOL     OW 2005   0.066   2.821   2.960 -0.6522 -0.7578  0.0438
  502SOL    HW1 2006  -0.002   2.758   2.923  1.1295  0.2091 -0.6215
  502SOL    HW2 2007   0.086   2.885   2.886  1.1801  1.1098 -0.1939
  502SOL     MW 2008   0.060   2.821   2.946 -0.1754 -0.3838 -0.0754
  503SOL     OW 2009   1.115   2.651   1.974  0.0104  0.2259  0.3424
  503SOL    HW1 2010   1.200   2.674   1.928  0.6795  2.9412 -1.5192
  503SOL    HW2 2011   1.031   2.672   1.932 -2.2089 -0.9662  0.5612
  503SOL     MW 2012   1.115   2.657   1.963 -0.1942  0.4268  0.1256
  504SOL     OW 2013   0.043   2.689   2.079 -0.3074 -0.0464 -0.4780
  504SOL    HW1 2014   0.101   2.616   2.067 -2.3701  2.5085 -0.5286
  504SOL    HW2 2015  -0.040   2.639   2.081  1.4924 -0.9218 -2.9319
  504SOL     MW 2016   0.039   2.673   2.077 -0.3421  0.1752 -0.8084
  505SOL     OW 2017   1.653   2.647   2.791  0.1036 -0.3601  0.2215
  505SOL    HW1 2018   1.681   2.633   2.702  0.2316 -0.8689  2.1853
  505SOL    HW2 2019   1.587   2.716   2.782  1.3168 -0.1173 -0.7396
  505SOL     MW 2020   1.648   2.654   2.778  0.2806 -0.3952  0.3538
  506SOL     OW 2021   1.607   3.088   2.856 -0.2631 -0.3139  0.0292
  506SOL    HW1 2022   1.654   3.089   2.939 -1.5936  0.0806 -0.3555
  506SOL    HW2 2023   1.682   3.082   2.788  0.3376  1.9577  1.9425
  506SOL     MW 2024   1.623   3.087   2.858 -0.3594  0.0378  0.2309
  507SOL     OW 2025   0.936   2.690   2.858  0.1164 -0.6685  0.0506
  507SOL    HW1 2026   0.958   2.753   2.785 -2.7558 -0.3478 -1.6330
  507SOL    HW2 2027   0.846   2.703   2.883 -0.5687 -1.2542 -0.0048
  507SOL     MW 2028   0.927   2.700   2.851 -0.3529 -0.7035 -0.1788
  508SOL     OW 2029   1.215   2.125   2.502 -0.4206 -0.0689  0.0430
  508SOL    HW1 2030   1.271   2.106   2.584  0.1167  1.5268 -0.7731
  508SOL    HW2 2031   1.145   2.181   2.530 -3.8797  1.0469  1.5839
  508SOL     MW 2032   1.213   2.130   2.516 -0.8061  0.2889  0.1386
  509SOL     OW 2033   0.614   2.602   2.780 -0.5177  0.1490 -0.4575
  509SOL    HW1 2034   0.611   2.557   2.699  1.0191  0.6657 -0.2083
  509SOL    HW2 2035   0.521   2.608   2.813 -0.5764  0.9541 -1.9645
  509SOL     MW 2036   0.602   2.597   2.774 -0.3227  0.3234 -0.6235
  510SOL     OW 2037   1.510   2.608   1.678 -0.5379 -0.3293  0.3095
  510SOL    HW1 2038   1.545   2.688   1.623  0.3931  0.5751 -3.2547
  510SOL    HW2 2039   1.481   2.648   1.761 -1.0948 -0.7844 -0.5695
  510SOL     MW 2040   1.511   2.624   1.682 -0.4885 -0.2700 -0.2767
  511SOL     OW 2041   0.432   2.631   2.444 -0.2066 -0.1236 -0.0010
  511SOL    HW1 2042   0.534   2.614   2.469  1.6384 -1.1029  1.8506
  511SOL    HW2 2043   0.443   2.682   2.360  1.2284  1.5703  3.5822
  511SOL     MW 2044   0.447   2.636   2.436  0.2262 -0.0293  0.7161
  512SOL     OW 2045   0.950   2.025   2.794  0.1197 -0.1732 -0.1415
  512SOL    HW1 2046   0.898   2.083   2.859  0.7355 -0.3617  0.5742
  512SOL    HW2 2047   0.959   1.946   2.852 -2.5877  1.5346 -0.3018
  512SOL     MW 2048   0.944   2.022   2.810 -0.1563  0.0273 -0.0682
  513SOL     OW 2049   1.623   2.486   2.257  0.1405  0.1527  0.6935
  513SOL    HW1 2050   1.694   2.513   2.201 -1.2994 -1.7306 -0.1328
  513SOL    HW2 2051   1.663   2.411   2.304  2.2921  0.1353  0.3636
  513SOL     MW 2052   1.638   2.480   2.256  0.2344 -0.0981  0.5409
  514SOL     OW 2053   0.262   2.500   2.600 -0.1128 -0.1315  0.5899
  514SOL    HW1 2054   0.335   2.549   2.548  2.3463 -2.6382 -1.6747
  514SOL    HW2 2055   0.297   2.471   2.683  1.4519  2.7502 -2.3952
  514SOL     MW 2056   0.276   2.503   2.604  0.4181 -0.0820 -0.1028
  515SOL     OW 2057   1.147   2.014   2.007  0.1905  0.0581  0.1700
  515SOL    HW1 2058   1.148   2.092   1.953 -0.5893  0.4204 -2.6368
  515SOL    HW2 2059   1.241   2.000   2.036  2.7455 -0.0857 -0.6315
  515SOL     MW 2060   1.159   2.022   2.004  0.4247  0.0870 -0.3061
  516SOL     OW 2061   1.463   2.474   3.101 -0.0569  0.6560  0.5576
  516SOL    HW1 2062   1.500   2.427   3.024 -1.1285  0.5702 -2.2869
  516SOL    HW2 2063   1.403   2.529   3.054  0.9675  1.6702  1.2883
  516SOL     MW 2064   1.460   2.475   3.085 -0.0631  0.7785  0.2787
  517SOL     OW 2065   0.547   2.458   2.230  0.2623 -0.2791 -1.0823
  517SOL    HW1 2066   0.480   2.436   2.294 -2.6014  0.6076 -1.8642
  517SOL    HW2 2067   0.503   2.421   2.146  0.6843  0.2925  1.4475
  517SOL     MW 2068   0.532   2.450   2.228 -0.0598 -0.0867 -0.8517
  518SOL     OW 2069   1.800   0.157   3.077  0.1146  0.4082 -0.3106
  518SOL    HW1 2070   1.767   0.198   3.158  0.1928 -1.4469 -0.6005
  518SOL    HW2 2071   1.804   0.060   3.101  2.0394  0.9342  2.1662
  518SOL     MW 2072   1.796   0.149   3.090  0.3788  0.2329 -0.0221
  519SOL     OW 2073   0.726   2.409   1.762  0.1276  0.2498 -0.0593
  519SOL    HW1 2074   0.765   2.329   1.795  1.2838  0.4444  0.4649
  519SOL    HW2 2075   0.669   2.383   1.687  1.7091  1.7418 -2.1092
  519SOL     MW 2076   0.724   2.395   1.756  0.4888  0.4723 -0.2606
  520SOL     OW 2077   1.173   2.123   2.966 -0.3129  0.2467  0.2547
  520SOL    HW1 2078   1.091   2.099   2.924  0.1370 -1.0377  1.7846
  520SOL    HW2 2079   1.179   2.060   3.039 -0.3646 -0.6878  2.1889
  520SOL     MW 2080   1.163   2.112   2.970 -0.2604 -0.0461  0.7117
  521SOL     OW 2081   1.748   1.979   2.164 -0.2365  0.3476 -0.4334
  521SOL    HW1 2082   1.768   1.991   2.075 -1.1885 -1.0252  0.1899
  521SOL    HW2 2083   1.715   1.891   2.162  1.7495 -1.0837  0.3752
  521SOL     MW 2084   1.746   1.969   2.152 -0.1001 -0.0224 -0.2445
  522SOL     OW 2085   2.910   2.524   2.254  0.0449  0.2021  0.2461
  522SOL    HW1 2086   2.982   2.452   2.275 -0.9099  0.1862 -1.2843
  522SOL    HW2 2087   2.934   2.602   2.301 -0.9269 -2.3824  0.6809
  522SOL     MW 2088   2.923   2.525   2.263 -0.2093 -0.1410  0.1016
  523SOL     OW 2089   0.943   1.556   2.141  0.1627  0.7087 -0.0913
  523SOL    HW1 2090   0.886   1.592   2.077 -0.8044  1.4109 -0.3728
  523SOL    HW2 2091   0.971   1.474   2.096  1.9687  2.2091 -0.2674
  523SOL     MW 2092   0.939   1.550   2.127  0.2734  0.9993 -0.1517
  524SOL     OW 2093   0.633   2.400   2.976  0.6272  0.4964 -0.1847
  524SOL    HW1 2094   0.658   2.468   2.911 -0.0702 -0.0673  2.2781
  524SOL    HW2 2095   0.719   2.357   2.989 -2.8043  0.4067  0.1610
  524SOL     MW 2096   0.647   2.403   2.969  0.0824  0.4102  0.1859
  525SOL     OW 2097   0.442   2.291   2.042 -0.2566 -0.0814  0.4486
  525SOL    HW1 2098   0.383   2.228   2.080 -0.0757  0.0287  0.9097
  525SOL    HW2 2099   0.461   2.268   1.946  0.2830  1.5908 -4.0350
  525SOL     MW 2100   0.436   2.280   2.034 -0.1616  0.1538 -0.0821
  526SOL     OW 2101   0.668   2.021   1.969  0.4447 -0.8544 -0.1937
  526SOL    HW1 2102   0.697   2.054   1.890 -0.6392 -0.5265  1.4363
  526SOL    HW2 2103   0.666   2.093   2.034  0.9676  0.6166 -1.1252
  526SOL     MW 2104   0.671   2.035   1.967  0.3707 -0.6171 -0.1016
  527SOL     OW 2105   1.416   2.023   2.104  0.0787  0.1581 -0.5570
  527SOL    HW1 2106   1.410   1.985   2.195  0.3641  0.1981  0.3526
  527SOL    HW2 2107   1.438   1.956   2.040  0.3753 -0.9643 -0.4905
  527SOL     MW 2108   1.418   2.009   2.107  0.1555  0.0153 -0.4282
  528SOL     OW 2109   0.715   2.878   2.861  0.0565  0.2476  0.0348
  528SOL    HW1 2110   0.714   2.973   2.874  2.9507 -0.1491 -0.2463
  528SOL    HW2 2111   0.655   2.876   2.787  1.0681  0.7841 -0.3708
  528SOL     MW 2112   0.707   2.890   2.853  0.5718  0.2660 -0.0558
  529SOL     OW 2113   1.094   2.259   1.884  0.1251 -0.5822  0.4090
  529SOL    HW1 2114   1.070   2.281   1.974 -0.3419 -2.6609  1.8985
  529SOL    HW2 2115   1.132   2.343   1.842  4.9677  0.0794  0.5314
  529SOL     MW 2116   1.096   2.273   1.891  0.7024 -0.7692  0.6217
  530SOL     OW 2117   1.149   2.423   3.035 -0.1903 -0.6353 -0.5759
  530SOL    HW1 2118   1.124   2.443   3.124  3.1385  0.6861  0.0538
  530SOL    HW2 2119   1.118   2.333   3.019 -1.1655  0.7444 -2.7601
  530SOL     MW 2120   1.142   2.414   3.045  0.1202 -0.2789 -0.7810
  531SOL     OW 2121   0.947   1.873   2.562 -0.2197 -0.0027  0.2443
  531SOL    HW1 2122   0.942   1.917   2.650 -1.3885  2.0787  1.2759
  531SOL    HW2 2123   0.898   1.787   2.566  0.4895  1.0657 -0.7660
  531SOL     MW 2124   0.940   1.867   2.574 -0.2804  0.4129  0.2471
  532SOL     OW 2125   1.716   0.345   2.841  0.9845 -0.1779 -0.4631
  532SOL    HW1 2126   1.715   0.301   2.923  0.5245  1.5883 -0.4493
  532SOL    HW2 2127   1.799   0.395   2.846 -2.3022 -0.3208 -1.3385
  532SOL     MW 2128   1.727   0.346   2.852  0.4902  0.0363 -0.5768
  533SOL     OW 2129   1.841   2.674   2.982 -0.0246 -0.2411  0.0112
  533SOL    HW1 2130   1.812   2.610   3.050  1.9304 -3.0350  3.8197
  533SOL    HW2 2131   1.769   2.668   2.916  0.8410 -0.9927  2.7611
  533SOL     MW 2132   1.828   2.665   2.982  0.3476 -0.7089  0.8765
  534SOL     OW 2133   1.799   2.358   2.468 -0.5085  0.6379  0.3039
  534SOL    HW1 2134   1.733   2.323   2.536 -0.5929 -1.9627  0.7312
  534SOL    HW2 2135   1.867   2.392   2.525 -3.0217  3.8454 -1.1646
  534SOL     MW 2136   1.799   2.358   2.485 -0.8512  0.7180  0.1665
  535SOL     OW 2137   1.862   2.368   1.849  0.0420  0.2118 -1.0558
  535SOL    HW1 2138   1.809   2.392   1.771 -0.7820 -1.3962  0.7055
  535SOL    HW2 2139   1.948   2.412   1.844  0.4140 -0.2373  0.8866
  535SOL     MW 2140   1.866   2.377   1.838 -0.0176 -0.0596 -0.5671
  536SOL     OW 2141   0.431   1.883   2.030 -0.0172 -0.2310  0.3237
  536SOL    HW1 2142   0.435   1.801   1.986  2.8455 -1.1712  1.4123
  536SOL    HW2 2143   0.508   1.931   1.991  0.4973 -0.8888 -0.6110
  536SOL     MW 2144   0.441   1.878   2.019  0.4284 -0.4418  0.3440
  537SOL     OW 2145   1.005   0.158   2.877  0.0844  0.2669 -0.4955
  537SOL    HW1 2146   1.022   0.169   2.967  0.2199  1.2739 -0.1307
  537SOL    HW2 2147   1.035   0.241   2.833 -0.3755 -1.9357  0.1058
  537SOL     MW 2148   1.011   0.171   2.883  0.0416  0.1092 -0.3681
  538SOL     OW 2149   1.371   0.052   2.979 -0.0104 -0.5155  0.1598
  538SOL    HW1 2150   1.348   0.143   2.963 -1.4045 -1.0747 -1.0696
  538SOL    HW2 2151   1.446   0.035   2.922  0.1193  1.5172  0.0096
  538SOL     MW 2152   1.378   0.062   2.969 -0.1772 -0.3211 -0.0223
  539SOL     OW 2153   0.760   2.765   2.537 -0.0100 -0.2703 -0.1105
  539SOL    HW1 2154   0.856   2.773   2.572  0.7485 -2.2575  0.1515
  539SOL    HW2 2155   0.720   2.695   2.587  0.3657  1.0867 -0.0705
  539SOL     MW 2156   0.767   2.757   2.548  0.1397 -0.3535 -0.0706
  540SOL     OW 2157   0.389   2.403   2.832  0.5767  0.2688 -0.3521
  540SOL    HW1 2158   0.477   2.379   2.853 -2.6465 -0.6067  1.2349
  540SOL    HW2 2159   0.338   2.355   2.896  1.0416  1.3336 -0.5718
  540SOL     MW 2160   0.394   2.394   2.843  0.2128  0.2938 -0.1717
  541SOL     OW 2161   0.181   2.945   2.216  0.0990  0.2929 -0.2812
  541SOL    HW1 2162   0.218   2.902   2.139  1.2867 -2.0741 -0.6458
  541SOL    HW2 2163   0.223   2.908   2.296  3.0461  1.5736  2.5209
  541SOL     MW 2164   0.191   2.935   2.217  0.6445  0.1496  0.0404
  542SOL     OW 2165   1.005   2.255   2.620  0.2248  0.6113  0.2898
  542SOL    HW1 2166   0.983   2.182   2.672  1.9495  1.2568  2.3384
  542SOL    HW2 2167   1.035   2.330   2.676 -0.9541 -0.0528  1.8725
  542SOL     MW 2168   1.006   2.255   2.635  0.2968  0.6089  0.7689
  543SOL     OW 2169   1.438   2.456   2.810 -0.0070 -0.3465  0.3773
  543SOL    HW1 2170   1.457   2.408   2.725  0.2162  0.3425 -1.2381
  543SOL    HW2 2171   1.507   2.527   2.809  1.9087 -0.9218 -0.0205
  543SOL     MW 2172   1.450   2.459   2.798  0.2752 -0.3315  0.1117
  544SOL     OW 2173   0.737   0.198   2.700  0.5296 -0.2450  0.7164
  544SOL    HW1 2174   0.640   0.202   2.686 -3.8843  2.2477 -0.3859
  544SOL    HW2 2175   0.774   0.129   2.642 -0.6256 -0.3514  1.1201
  544SOL     MW 2176   0.729   0.189   2.690 -0.2052  0.0699  0.6242
  545SOL     OW 2177   1.564   2.183   2.326  0.1592  0.4943 -0.1545
  545SOL    HW1 2178   1.502   2.200   2.253 -0.4919  0.2678  0.6074
  545SOL    HW2 2179   1.642   2.138   2.289 -1.1896 -0.8333  2.1220
  545SOL     MW 2180   1.566   2.179   2.312 -0.1047  0.2893  0.2464
  546SOL     OW 2181   3.010   2.001   0.131  0.2334 -0.4364 -0.3170
  546SOL    HW1 2182   3.003   2.057   0.055 -1.3770 -1.0226  1.6345
  546SOL    HW2 2183   3.085   1.949   0.106  0.9023 -1.8474 -0.6282
  546SOL     MW 2184   3.019   2.002   0.118  0.1092 -0.6999 -0.1006
  547SOL     OW 2185   0.300   3.009   0.120 -0.0406  1.1295  0.1963
  547SOL    HW1 2186   0.365   3.046   0.050 -0.6880 -0.1431 -2.1030
  547SOL    HW2 2187   0.290   2.914   0.092 -0.5352 -0.2561 -1.9123
  547SOL     MW 2188   0.307   3.001   0.107 -0.1912  0.7787 -0.3853
  548SOL     OW 2189   0.271   2.547   0.211 -0.1689 -0.0045 -0.3875
  548SOL    HW1 2190   0.284   2.614   0.143 -0.5048 -0.3729  2.0103
  548SOL    HW2 2191   0.188   2.507   0.192  3.5463 -1.9564 -0.7226
  548SOL     MW 2192   0.262   2.550   0.199  0.2769 -0.3106 -0.1153
  549SOL     OW 2193   0.870   1.875   2.155  0.1126 -0.3762 -0.7601
  549SOL    HW1 2194   0.793   1.928   2.126 -0.0417 -1.0459  1.9030
  549SOL    HW2 2195   0.844   1.849   2.244 -0.2626  0.7329  2.0268
  549SOL     MW 2196   0.857   1.879   2.163  0.0427 -0.3182 -0.0410
  550SOL     OW 2197   1.784   1.702   2.581 -0.3876 -0.2051  0.9449
  550SOL    HW1 2198   1.811   1.707   2.485 -0.6230 -0.5834  1.2581
  550SOL    HW2 2199   1.765   1.787   2.618 -0.2748 -1.1303 -1.1483
  550SOL     MW 2200   1.785   1.714   2.573 -0.4037 -0.3771  0.7100
  551SOL     OW 2201   0.883   2.257   0.237  0.2249  0.0837 -0.1366
  551SOL    HW1 2202   0.972   2.282   0.214 -0.7290  0.1497 -2.0050
  551SOL    HW2 2203   0.853   2.173   0.197 -0.4396  0.0540  0.1305
  551SOL     MW 2204   0.891   2.249   0.228  0.0113  0.0885 -0.3479
  552SOL     OW 2205   1.783   1.722   2.291  0.4990 -0.6245  0.5119
  552SOL    HW1 2206   1.679   1.710   2.289 -0.9884 -0.8117  1.4830
  552SOL    HW2 2207   1.810   1.660   2.207 -0.0265 -1.5865 -3.9872
  552SOL     MW 2208   1.773   1.712   2.280  0.2334 -0.7761  0.0464
  553SOL     OW 2209   1.195   2.314   1.457  0.2647 -0.2376  0.4106
  553SOL    HW1 2210   1.259   2.249   1.483 -1.0409  2.5202 -0.5680
  553SOL    HW2 2211   1.240   2.390   1.419 -1.6595  0.3548  1.3800
  553SOL     MW 2212   1.210   2.316   1.455 -0.1614  0.2045  0.4094
  554SOL     OW 2213   0.539   2.912   2.641 -0.1997 -0.0322 -0.2125
  554SOL    HW1 2214   0.515   2.993   2.602  2.8793 -2.1890  2.6586
  554SOL    HW2 2215   0.605   2.877   2.583 -0.7312 -1.6459 -0.1339
  554SOL     MW 2216   0.544   2.918   2.628  0.1365 -0.5296  0.1767
  555SOL     OW 2217   0.645   2.506   2.527  0.7803 -0.1181 -0.3932
  555SOL    HW1 2218   0.587   2.432   2.525  1.0568  4.2666  1.6603
  555SOL    HW2 2219   0.722   2.479   2.475 -1.9426  0.6220 -0.8989
  555SOL     MW 2220   0.647   2.492   2.520  0.4576  0.5581 -0.1890
  556SOL     OW 2221   0.961   1.819   0.139 -0.3003  0.9245 -0.1900
  556SOL    HW1 2222   1.011   1.820   0.055  0.9416 -1.8917 -1.1284
  556SOL    HW2 2223   1.028   1.852   0.197  0.3567 -0.4025 -3.1796
  556SOL     MW 2224   0.977   1.823   0.135 -0.0498  0.3779 -0.7083
  557SOL     OW 2225   0.980   2.663   0.527  0.2214  0.0765 -0.1207
  557SOL    HW1 2226   1.025   2.622   0.453  0.0773 -2.0816  1.6574
  557SOL    HW2 2227   0.924   2.733   0.483 -0.9839 -0.4615 -1.4082
  557SOL     MW 2228   0.978   2.667   0.511  0.0433 -0.2793 -0.0560
  558SOL     OW 2229   0.267   2.253   3.030 -0.2198  0.8733  0.0935
  558SOL    HW1 2230   0.230   2.193   2.968 -0.2061  2.2576 -1.8426
  558SOL    HW2 2231   0.188   2.291   3.070 -1.8681  1.4087  1.7098
  558SOL     MW 2232   0.252   2.250   3.027 -0.4355  1.1266  0.0513
  559SOL     OW 2233   1.007   2.343   2.132 -0.2076  0.2613  0.3880
  559SOL    HW1 2234   1.029   2.436   2.151 -0.6173  0.1865  0.5460
  559SOL    HW2 2235   0.981   2.298   2.217 -1.1544  1.0319 -2.7614
  559SOL     MW 2236   1.006   2.350   2.146 -0.3866  0.3531 -0.0067
  560SOL     OW 2237   1.989   2.864   0.045  0.7963  0.6037  0.1983
  560SOL    HW1 2238   2.059   2.886  -0.015  0.6374 -1.7734  1.1553
  560SOL    HW2 2239   1.939   2.806  -0.009  0.1826  1.3130 -1.6350
  560SOL     MW 2240   1.992   2.859   0.030  0.6943  0.3837  0.0827
  561SOL     OW 2241   0.401   2.204   0.170 -0.3051  0.0235 -0.1398
  561SOL    HW1 2242   0.362   2.213   0.075 -2.3634 -1.2623 -2.4551
  561SOL    HW2 2243   0.451   2.284   0.178  2.9884  1.3737 -2.6015
  561SOL     MW 2244   0.402   2.216   0.158 -0.1421  0.0320 -0.7701
  562SOL     OW 2245   0.733   2.176   2.191 -0.3194 -0.4967 -0.5597
  562SOL    HW1 2246   0.722   2.271   2.202 -1.6649  0.8031 -0.3722
  562SOL    HW2 2247   0.820   2.150   2.227  0.9298 -0.6129  1.3922
  562SOL     MW 2248   0.743   2.185   2.197 -0.3321 -0.3406 -0.2774
  563SOL     OW 2249   1.190   0.305   0.560  0.3698 -0.1946  0.0862
  563SOL    HW1 2250   1.128   0.257   0.503  2.1683 -1.0524  1.0474
  563SOL    HW2 2251   1.220   0.230   0.609 -2.2869  1.2677  0.9320
  563SOL     MW 2252   1.185   0.289   0.559  0.2566 -0.1149  0.3246
  564SOL     OW 2253   1.051   2.590   2.249  0.2808 -0.8741  0.3850
  564SOL    HW1 2254   1.076   2.658   2.180 -1.4135 -1.5755  2.1922
  564SOL    HW2 2255   1.132   2.583   2.305  2.2779  1.0431  0.1723
  564SOL     MW 2256   1.065   2.598   2.247  0.3208 -0.7137  0.5954
  565SOL     OW 2257   2.876   2.737   2.668 -0.6011  0.2162 -0.2099
  565SOL    HW1 2258   2.928   2.819   2.660 -1.7704  1.5983 -0.1283
  565SOL    HW2 2259   2.815   2.726   2.590 -0.5372 -2.5535 -1.9369
  565SOL     MW 2260   2.875   2.746   2.657 -0.7469  0.0332 -0.4270
  566SOL     OW 2261   2.187   1.866   2.346  0.8063  0.0585 -0.8552
  566SOL    HW1 2262   2.209   1.837   2.258  1.4658 -1.0557 -0.5326
  566SOL    HW2 2263   2.209   1.964   2.341 -3.0840  0.0722 -0.6336
  566SOL     MW 2264   2.193   1.875   2.333  0.3800 -0.0867 -0.7834
  567SOL     OW 2265   1.201   2.897   2.927  0.5812 -0.0169  0.9377
  567SOL    HW1 2266   1.242   2.964   2.972 -0.8784 -1.9563 -0.8263
  567SOL    HW2 2267   1.241   2.811   2.920 -1.9794 -0.8897 -2.2568
  567SOL     MW 2268   1.212   2.894   2.932  0.0508 -0.3879  0.2835
  568SOL     OW 2269   1.609   2.148   2.876  0.0722 -0.4278  0.1481
  568SOL    HW1 2270   1.654   2.191   2.951  1.8486  0.3314 -2.8351
  568SOL    HW2 2271   1.666   2.083   2.839 -2.4601  2.4928 -0.9862
  568SOL     MW 2272   1.622   2.145   2.881 -0.0275  0.0577 -0.3952
  569SOL     OW 2273   0.194   2.256   2.471 -0.1742  0.5271 -0.3263
  569SOL    HW1 2274   0.140   2.271   2.395 -0.2445  1.3225 -3.6833
  569SOL    HW2 2275   0.188   2.339   2.521 -0.1405 -0.9004  2.7446
  569SOL     MW 2276   0.186   2.269   2.468 -0.1790  0.4437 -0.3640
  570SOL     OW 2277   1.455   0.379   0.496  0.6163 -0.4420  0.1637
  570SOL    HW1 2278   1.372   0.403   0.546 -2.1088 -0.5685  0.9475
  570SOL    HW2 2279   1.526   0.398   0.565 -1.3665  2.3993  0.6079
  570SOL     MW 2280   1.453   0.385   0.512 -0.0048 -0.0838  0.3257
  571SOL     OW 2281   1.510   2.449   2.007  0.1120  0.1679 -0.0840
  571SOL    HW1 2282   1.547   2.447   2.098 -1.2997  0.4785  1.1216
  571SOL    HW2 2283   1.530   2.365   1.975 -0.0139  0.4728 -2.1520
  571SOL     MW 2284   1.517   2.438   2.015 -0.0909  0.2491 -0.1978
  572SOL     OW 2285   0.988   2.661   0.067  0.3420 -0.6840  0.9220
  572SOL    HW1 2286   1.027   2.632  -0.016  2.9205  0.9787  0.7289
  572SOL    HW2 2287   0.895   2.657   0.055 -0.7479  1.0629 -1.3027
  572SOL     MW 2288   0.981   2.657   0.055  0.5384 -0.2342  0.6030
  573SOL     OW 2289   1.146   2.317   0.219 -0.1447  0.2990  0.3100
  573SOL    HW1 2290   1.236   2.308   0.196  1.4500  0.7560 -1.0239
  573SOL    HW2 2291   1.142   2.405   0.264  1.9054 -0.5479 -2.6361
  573SOL     MW 2292   1.157   2.328   0.222  0.3362  0.2475 -0.2547
  574SOL     OW 2293   1.114   2.580   0.296 -0.1444 -0.8833  0.6457
  574SOL    HW1 2294   1.195   2.621   0.289  0.8349  1.1169 -2.8801
  574SOL    HW2 2295   1.061   2.621   0.223 -1.4469 -1.0906 -2.0068
  574SOL     MW 2296   1.118   2.591   0.285 -0.1870 -0.6468 -0.1694
  575SOL     OW 2297   0.057   2.261   1.820 -0.0031 -0.8939  0.0696
  575SOL    HW1 2298   0.069   2.194   1.752  1.5293  0.7964 -2.3839
  575SOL    HW2 2299   0.097   2.333   1.767 -1.4084 -0.6016 -0.2803
  575SOL     MW 2300   0.064   2.262   1.804  0.0136 -0.6323 -0.3003
  576SOL     OW 2301   2.810   1.805   2.111 -0.1634  0.2561  0.0001
  576SOL    HW1 2302   2.839   1.878   2.061  0.1731 -1.9103  1.2687
  576SOL    HW2 2303   2.728   1.764   2.073 -0.8614  2.2005 -0.0943
  576SOL     MW 2304   2.803   1.809   2.099 -0.2111  0.2268  0.1550
  577SOL     OW 2305   2.083   0.201   0.106 -0.1729  0.1091 -0.1985
  577SOL    HW1 2306   2.010   0.221   0.051 -3.5467  1.2027  1.1752
  577SOL    HW2 2307   2.042   0.157   0.183 -0.0565  1.0996  0.9398
  577SOL     MW 2308   2.068   0.198   0.109 -0.6027  0.3841  0.1329
  578SOL     OW 2309   1.926   2.010   2.362  0.1203 -0.1208 -0.4683
  578SOL    HW1 2310   1.868   1.968   2.301 -2.1142 -1.2347  3.0879
  578SOL    HW2 2311   1.991   1.939   2.383 -1.7922 -3.2507 -1.1108
  578SOL     MW 2312   1.927   1.995   2.356 -0.4269 -0.6807 -0.0839
  579SOL     OW 2313   0.873   2.419   2.405  0.2594 -0.8685  0.2428
  579SOL    HW1 2314   0.908   2.355   2.471 -0.3217  2.2861 -0.3528
  579SOL    HW2 2315   0.955   2.467   2.377  0.5837  0.1518 -0.0397
  579SOL     MW 2316   0.889   2.417   2.410  0.2255 -0.3177  0.1270
  580SOL     OW 2317   0.951   2.929   3.056  0.0231  0.3544 -0.1826
  580SOL    HW1 2318   1.037   2.888   3.050 -1.3438  1.8220  0.9309
  580SOL    HW2 2319   0.901   2.873   2.993 -0.7033 -1.8657 -0.1964
  580SOL     MW 2320   0.956   2.916   3.047 -0.2531  0.2551 -0.0375
  581SOL     OW 2321   1.129   2.467   1.685 -1.1194 -0.4829 -0.1379
  581SOL    HW1 2322   1.190   2.503   1.751  4.3680  1.6171 -0.3107
  581SOL    HW2 2323   1.185   2.428   1.615  1.5158  0.2044 -1.1030
  581SOL     MW 2324   1.145   2.466   1.684 -0.0477 -0.1152 -0.2881
  582SOL     OW 2325   0.015   2.849   2.565 -0.1224 -0.5496 -0.3204
  582SOL    HW1 2326  -0.003   2.936   2.606 -1.4711 -0.8607 -1.8606
  582SOL    HW2 2327   0.108   2.858   2.546 -1.0673 -1.2508  4.4377
  582SOL     MW 2328   0.025   2.862   2.568 -0.4250 -0.6831  0.1042
  583SOL     OW 2329   2.002   2.407   2.663 -0.1379  0.3406 -0.6108
  583SOL    HW1 2330   2.072   2.408   2.595 -0.0497  1.6245 -2.5109
  583SOL    HW2 2331   1.969   2.310   2.658 -0.3018 -0.3608 -1.6254
  583SOL     MW 2332   2.007   2.394   2.653 -0.1479  0.4175 -0.9954
  584SOL     OW 2333   0.223   1.853   2.223 -0.3904  0.0231  0.0055
  584SOL    HW1 2334   0.295   1.847   2.158 -2.3930  0.7970 -0.8641
  584SOL    HW2 2335   0.228   1.941   2.259  0.5905  0.2296  0.9201
  584SOL     MW 2336   0.233   1.864   2.219 -0.5252  0.1525  0.0114
  585SOL     OW 2337   1.523   2.661   0.192 -0.2601 -0.2109  0.5771
  585SOL    HW1 2338   1.487   2.624   0.114 -0.2173  2.3951  0.5960
  585SOL    HW2 2339   1.450   2.672   0.253 -2.5281  1.2984  1.1600
  585SOL     MW 2340   1.509   2.657   0.190 -0.5537  0.3321  0.6565
  586SOL     OW 2341   1.342   2.849   2.535 -0.0119  0.1167  0.4544
  586SOL    HW1 2342   1.422   2.808   2.485  2.9606  1.8693 -1.9142
  586SOL    HW2 2343   1.353   2.942   2.537 -2.7529 -1.7863  1.3996
  586SOL     MW 2344   1.354   2.856   2.529  0.0187  0.0968  0.2666
  587SOL     OW 2345   1.315   1.568   2.174 -0.2297  0.1478 -0.6275
  587SOL    HW1 2346   1.304   1.495   2.239  2.7088 -0.5877 -0.4765
  587SOL    HW2 2347   1.303   1.531   2.089  0.3726 -0.1035 -0.6071
  587SOL     MW 2348   1.312   1.554   2.171  0.2375  0.0176 -0.6049
  588SOL     OW 2349   1.330   2.080   2.748  0.1278 -0.6766 -0.6849
  588SOL    HW1 2350   1.420   2.075   2.783  1.6352 -1.3166  2.2799
  588SOL    HW2 2351   1.274   2.125   2.819 -0.5042 -0.2136 -0.0176
  588SOL     MW 2352   1.335   2.085   2.762  0.2433 -0.7000 -0.2057
  589SOL     OW 2353   1.275   2.043   0.113  0.0036  0.2085  0.2005
  589SOL    HW1 2354   1.334   2.115   0.146  0.5647  0.2196 -1.5279
  589SOL    HW2 2355   1.242   1.995   0.190  2.0083  0.1653  0.5598
  589SOL     MW 2356   1.279   2.047   0.128  0.3421  0.2043  0.0199
  590SOL     OW 2357   0.454   2.787   2.206 -0.1731  0.0221 -0.3584
  590SOL    HW1 2358   0.446   2.723   2.140  0.5887  1.9744  1.5907
  590SOL    HW2 2359   0.547   2.805   2.219 -2.5610  1.8734 -2.2176
  590SOL     MW 2360   0.465   2.781   2.199 -0.3876  0.5239 -0.3465
  591SOL     OW 2361   2.255   0.648   0.017 -0.1848 -0.1105  0.1154
  591SOL    HW1 2362   2.197   0.711  -0.025 -0.1398  0.0493 -0.2778
  591SOL    HW2 2363   2.339   0.688  -0.023  4.5524  1.1948 -2.8250
  591SOL     MW 2364   2.258   0.662   0.006  0.4461  0.0828 -0.3244
  592SOL     OW 2365   1.784   2.955   0.829  0.4175 -0.0096 -0.0854
  592SOL    HW1 2366   1.772   3.032   0.763  1.2014  1.4819 -2.1585
  592SOL    HW2 2367   1.854   2.897   0.806 -0.2875 -0.2344 -0.7685
  592SOL     MW 2368   1.791   2.958   0.817  0.4279  0.1575 -0.4491
  593SOL     OW 2369   1.970   0.671   0.828 -0.2371  0.2591 -0.4030
  593SOL    HW1 2370   1.889   0.657   0.773 -2.1336 -0.3538 -0.3595
  593SOL    HW2 2371   2.000   0.584   0.855  3.1932  1.0625 -0.9415
  593SOL     MW 2372   1.963   0.658   0.824 -0.0348  0.2842 -0.4683
  594SOL     OW 2373   2.829   1.157   1.353 -0.5823  0.2332 -0.2681
  594SOL    HW1 2374   2.921   1.189   1.386  0.5732 -1.6521  0.7573
  594SOL    HW2 2375   2.835   1.072   1.313 -1.6488  2.0229  3.2037
  594SOL     MW 2376   2.842   1.150   1.352 -0.5705  0.2206  0.3252
  595SOL     OW 2377   0.406   1.018   0.834 -0.0400  0.3441 -0.3525
  595SOL    HW1 2378   0.422   1.093   0.776 -1.1948  0.2567  1.0918
  595SOL    HW2 2379   0.427   1.065   0.917  0.7853 -2.8035 -1.1930
  595SOL     MW 2380   0.411   1.034   0.837 -0.0834 -0.0827 -0.2728
  596SOL     OW 2381   2.456   1.310   0.574  0.0758  0.1675 -0.8878
  596SOL    HW1 2382   2.509   1.384   0.549  0.4179 -1.4383  0.1557
  596SOL    HW2 2383   2.508   1.279   0.650 -1.2321 -0.3432  2.1849
  596SOL     MW 2384   2.470   1.316   0.581 -0.0516 -0.1118 -0.3447
  597SOL     OW 2385   2.200   0.703   1.605 -0.2497  0.1372  0.0949
  597SOL    HW1 2386   2.210   0.638   1.677 -1.6145 -1.7062 -0.1458
  597SOL    HW2 2387   2.132   0.665   1.544 -1.5114  0.3610  0.1879
  597SOL     MW 2388   2.193   0.690   1.607 -0.5962 -0.0765  0.0754
  598SOL     OW 2389   2.595   1.003   2.852 -0.3811  0.0635 -0.3401
  598SOL    HW1 2390   2.608   0.957   2.768  1.2853  0.8396 -0.2259
  598SOL    HW2 2391   2.683   1.051   2.863  0.5764  1.4867 -0.9591
  598SOL     MW 2392   2.608   1.003   2.842 -0.0349  0.3537 -0.4067
  599SOL     OW 2393   2.947   0.414   2.084  0.0442  0.0201  0.2918
  599SOL    HW1 2394   2.992   0.414   2.172  0.4814  1.5810  0.0084
  599SOL    HW2 2395   2.957   0.501   2.041  0.5344  0.5905  1.0622
  599SOL     MW 2396   2.954   0.425   2.090  0.1665  0.3013  0.3560
  600SOL     OW 2397   1.856   1.597   0.830 -0.4438 -0.1506 -0.0053
  600SOL    HW1 2398   1.925   1.628   0.889 -0.6125 -0.4943  1.6555
  600SOL    HW2 2399   1.786   1.663   0.843  0.0271  2.7625 -0.8490
  600SOL     MW 2400   1.856   1.610   0.839 -0.4039  0.1884  0.1025
  601SOL     OW 2401   2.506   0.761   0.812  0.3570  0.2050 -0.3772
  601SOL    HW1 2402   2.490   0.788   0.911  0.5942  0.9175  2.3498
  601SOL    HW2 2403   2.435   0.704   0.787  1.5018 -1.4643 -1.7463
  601SOL     MW 2404   2.494   0.757   0.822  0.5393  0.0788 -0.1980
  602SOL     OW 2405   2.337   1.923   0.806 -0.6266 -0.5427 -0.4063
  602SOL    HW1 2406   2.294   1.837   0.794 -3.2625  0.2067  1.0699
  602SOL    HW2 2407   2.279   1.975   0.754 -0.5707 -0.5943  0.6732
  602SOL     MW 2408   2.323   1.919   0.797 -0.9670 -0.4506 -0.0691
  603SOL     OW 2409  -0.001   1.347   1.817  0.1858  0.0652  0.1655
  603SOL    HW1 2410   0.052   1.384   1.888  0.9560 -2.8230 -1.3344
  603SOL    HW2 2411  -0.002   1.256   1.847  3.0346 -1.0229 -0.6174
  603SOL     MW 2412   0.006   1.340   1.830  0.6633 -0.4594 -0.1357
  604SOL     OW 2413   2.161   1.544   0.462 -0.1548 -0.8991  0.4047
  604SOL    HW1 2414   2.151   1.451   0.492 -2.5416 -1.3712 -0.1028
  604SOL    HW2 2415   2.073   1.588   0.489 -3.0953 -0.5493  1.5289
  604SOL     MW 2416   2.148   1.538   0.469 -0.8577 -0.9152  0.4860
  605SOL     OW 2417   2.603   1.476   0.847 -0.3720 -0.6918  0.3265
  605SOL    HW1 2418   2.599   1.551   0.781  2.1018 -0.9543 -1.2342
  605SOL    HW2 2419   2.614   1.385   0.812 -0.7399  0.4048  0.6656
  605SOL     MW 2420   2.604   1.474   0.833 -0.0941 -0.5817  0.1653
  606SOL     OW 2421   2.581   1.694   2.010 -0.2555 -0.8913  0.3459
  606SOL    HW1 2422   2.490   1.703   1.991  1.0688 -0.3693 -0.9249
  606SOL    HW2 2423   2.615   1.648   1.933  0.9296 -2.4397 -0.2608
  606SOL     MW 2424   2.574   1.689   1.997  0.0756 -1.0267  0.0982
  607SOL     OW 2425   2.399   1.120   3.038  0.4087 -0.0685 -0.7130
  607SOL    HW1 2426   2.469   1.098   2.975  0.2702 -2.2180 -0.9854
  607SOL    HW2 2427   2.426   1.077   3.119  0.6935 -2.0953  0.9647
  607SOL     MW 2428   2.412   1.111   3.041  0.4280 -0.6195 -0.5276
  608SOL     OW 2429   1.860   0.275   0.611  0.1234  0.2081 -0.2536
  608SOL    HW1 2430   1.852   0.324   0.529  2.5603 -1.3967  0.3042
  608SOL    HW2 2431   1.836   0.185   0.590  0.9557  0.5693 -3.1222
  608SOL     MW 2432   1.856   0.269   0.597  0.5547  0.0440 -0.5585
  609SOL     OW 2433   2.051   1.990   3.021  0.3891  0.0027 -0.0551
  609SOL    HW1 2434   1.983   1.925   3.012 -0.7192 -2.3403  0.8651
  609SOL    HW2 2435   2.087   1.958   3.109 -1.5612 -3.1113  2.2040
  609SOL     MW 2436   2.047   1.977   3.031 -0.0145 -0.7173  0.3644
  610SOL     OW 2437   1.781   0.993   1.294 -0.5200  0.0173 -0.2113
  610SOL    HW1 2438   1.816   0.912   1.257  2.1706  2.5271  4.0405
  610SOL    HW2 2439   1.692   0.996   1.261 -0.6142 -0.3200 -1.2392
  610SOL     MW 2440   1.774   0.983   1.285 -0.1774  0.3039  0.2141
  611SOL     OW 2441   2.536   1.712   0.684  0.0472 -0.4327 -0.0325
  611SOL    HW1 2442   2.542   1.792   0.742 -2.5022 -0.6291  0.2888
  611SOL    HW2 2443   2.443   1.696   0.687  1.0637  2.2543 -0.8385
  611SOL     MW 2444   2.524   1.720   0.692 -0.1550 -0.1041 -0.0965
  612SOL     OW 2445   2.822   2.837   0.406  0.4937  0.5190 -0.4180
  612SOL    HW1 2446   2.846   2.887   0.488  0.2630 -0.5688 -0.2038
  612SOL    HW2 2447   2.911   2.796   0.379  0.8839  0.5163  0.0857
  612SOL     MW 2448   2.837   2.838   0.413  0.5148  0.3751 -0.3233
  613SOL     OW 2449   1.475   1.018   0.901 -0.2139 -0.2594 -0.5266
  613SOL    HW1 2450   1.464   1.114   0.910  1.5123  0.3681  1.1888
  613SOL    HW2 2451   1.532   0.996   0.969 -1.0350  2.3101 -1.2581
  613SOL     MW 2452   1.481   1.028   0.912 -0.0945  0.1624 -0.3968
  614SOL     OW 2453   2.018   0.571   1.461 -0.9207 -0.0188  0.0442
  614SOL    HW1 2454   1.998   0.492   1.519  1.2777 -2.8647  0.3447
  614SOL    HW2 2455   1.963   0.565   1.378  4.0403  3.3240 -0.4912
  614SOL     MW 2456   2.008   0.560   1.458  0.0239  0.0467  0.0132
  615SOL     OW 2457   2.382   0.746   0.230  0.1967  0.2548 -0.2018
  615SOL    HW1 2458   2.452   0.681   0.247  1.2527  0.6530 -2.3667
  615SOL    HW2 2459   2.339   0.699   0.152 -2.3617 -4.6491 -1.4643
  615SOL     MW 2460   2.385   0.731   0.222 -0.0016 -0.3396 -0.6540
  616SOL     OW 2461   2.540   0.413   1.653 -0.3003  0.3598  0.0512
  616SOL    HW1 2462   2.490   0.354   1.598  0.1199 -2.3233 -1.0057
  616SOL    HW2 2463   2.564   0.477   1.587  0.6482 -1.2923  0.1458
  616SOL     MW 2464   2.537   0.413   1.637 -0.1197 -0.2122 -0.0757
  617SOL     OW 2465   2.805   0.638   1.719 -0.0084 -0.7763 -0.8220
  617SOL    HW1 2466   2.746   0.638   1.790 -1.3332  0.4870 -1.5644
  617SOL    HW2 2467   2.808   0.546   1.701 -1.2588 -1.0148  3.9828
  617SOL     MW 2468   2.798   0.626   1.726 -0.3482 -0.6411 -0.2860
  618SOL     OW 2469   2.736   0.349   1.932 -0.4034 -0.0799 -0.0991
  618SOL    HW1 2470   2.701   0.433   1.961  0.6784 -1.0652 -2.0814
  618SOL    HW2 2471   2.826   0.354   1.973 -0.6750 -1.5256  2.7712
  618SOL     MW 2472   2.744   0.361   1.942 -0.2965 -0.4007  0.0180
  619SOL     OW 2473   2.652   0.689   0.084 -0.6827 -0.0129 -0.3110
  619SOL    HW1 2474   2.701   0.769   0.117  0.9111  1.0601  1.0313
  619SOL    HW2 2475   2.628   0.625   0.152  2.7973 -0.2312  0.2341
  619SOL     MW 2476   2.656   0.691   0.097 -0.0132  0.0999 -0.0620
  620SOL     OW 2477   2.207   1.056   0.945  0.0380 -0.3090 -0.8031
  620SOL    HW1 2478   2.285   1.058   0.891 -1.9214  3.8031  0.3979
  620SOL    HW2 2479   2.148   1.003   0.894 -0.0471  0.4434 -2.8237
  620SOL     MW 2480   2.209   1.049   0.931 -0.2318  0.3329 -0.9112
  621SOL     OW 2481   1.548   2.185   1.895 -0.1735  0.1193  0.0493
  621SOL    HW1 2482   1.502   2.148   1.974 -0.6625  1.3912 -2.4797
  621SOL    HW2 2483   1.633   2.157   1.900 -0.2048  1.6639 -0.2367
  621SOL     MW 2484   1.553   2.176   1.906 -0.2421  0.4909 -0.3221
  622SOL     OW 2485   2.628   0.176   0.227  0.2255  0.1250 -0.0452
  622SOL    HW1 2486   2.719   0.205   0.220  0.0261 -0.5421 -0.9323
  622SOL    HW2 2487   2.633   0.088   0.267  1.4118  0.6256 -0.9100
  622SOL     MW 2488   2.640   0.168   0.231  0.3557  0.1030 -0.2763
  623SOL     OW 2489   2.392   2.781   0.836  0.6803  0.1161 -0.1389
  623SOL    HW1 2490   2.465   2.848   0.846 -0.9860  1.4523  0.3127
  623SOL    HW2 2491   2.326   2.801   0.902 -2.6629  2.6004 -4.8050
  623SOL     MW 2492   2.393   2.793   0.846  0.0193  0.6202 -0.6949
  624SOL     OW 2493   2.152   1.695   2.985 -0.0564 -0.3160  0.3540
  624SOL    HW1 2494   2.110   1.619   3.016 -1.4217 -0.5321  0.0041
  624SOL    HW2 2495   2.090   1.753   2.954  0.0719  0.1597 -1.4810
  624SOL     MW 2496   2.138   1.693   2.985 -0.2196 -0.2817  0.0657
  625SOL     OW 2497   2.202   1.909   1.052  0.0131  0.3376 -0.5609
  625SOL    HW1 2498   2.268   1.866   1.111 -2.5229 -0.0940 -1.9956
  625SOL    HW2 2499   2.250   1.934   0.973 -0.3375  0.3685 -0.4196
  625SOL     MW 2500   2.217   1.907   1.050 -0.3678  0.2847 -0.7315
  626SOL     OW 2501   0.312   1.627   2.379  0.1411  1.4913  0.2338
  626SOL    HW1 2502   0.275   1.543   2.416 -1.4903 -0.7318  1.1028
  626SOL    HW2 2503   0.240   1.675   2.341 -2.7593 -0.5443  0.4482
  626SOL     MW 2504   0.297   1.622   2.379 -0.4569  0.9294  0.3767
  627SOL     OW 2505   2.440   0.710   2.559  0.0618  0.0934 -0.5580
  627SOL    HW1 2506   2.422   0.804   2.577  1.5954 -1.0160 -1.4003
  627SOL    HW2 2507   2.413   0.705   2.469 -1.2336  2.2237  0.3395
  627SOL     MW 2508   2.434   0.722   2.550  0.0933  0.2281 -0.5507
  628SOL     OW 2509   2.346   1.433   1.336  0.2096 -0.0181 -0.3646
  628SOL    HW1 2510   2.323   1.353   1.285  0.6646  1.4280 -0.6855
  628SOL    HW2 2511   2.430   1.456   1.308 -2.7014  2.1380  0.2294
  628SOL     MW 2512   2.354   1.426   1.325 -0.1144  0.4572 -0.3286
  629SOL     OW 2513   1.866   0.536   1.230 -0.0601  0.5174 -0.4027
  629SOL    HW1 2514   1.872   0.614   1.175  1.5321  0.3591 -1.8586
  629SOL    HW2 2515   1.769   0.536   1.252 -2.6718  0.1587 -1.6545
  629SOL     MW 2516   1.854   0.546   1.226 -0.1946  0.4492 -0.7599
  630SOL     OW 2517   2.398   1.808   3.048 -0.5557  0.2692  0.4296
  630SOL    HW1 2518   2.418   1.892   3.009  0.2964 -3.3975  0.0840
  630SOL    HW2 2519   2.310   1.777   3.012 -2.8842  0.4746  0.0261
  630SOL     MW 2520   2.389   1.815   3.038 -0.7505 -0.1875  0.3307
  631SOL     OW 2521   2.031   1.830   1.576  0.6560  0.0933 -0.8341
  631SOL    HW1 2522   2.048   1.747   1.620 -3.9956  0.8628 -2.1692
  631SOL    HW2 2523   1.997   1.800   1.493 -1.1563 -1.4423  3.4220
  631SOL     MW 2524   2.029   1.815   1.571 -0.1969 -0.0077 -0.4487
  632SOL     OW 2525   0.181   1.945   1.386  0.2810  0.4219 -0.4466
  632SOL    HW1 2526   0.172   1.938   1.487  1.9251  0.1975  0.1316
  632SOL    HW2 2527   0.213   1.864   1.360  0.7980  2.7199  1.6499
  632SOL     MW 2528   0.184   1.934   1.396  0.5662  0.6955 -0.0937
  633SOL     OW 2529   2.552   0.522   0.304 -0.2283  1.1979 -0.0823
  633SOL    HW1 2530   2.586   0.526   0.397  0.1540 -1.7049 -0.5399
  633SOL    HW2 2531   2.530   0.428   0.300  1.0759 -0.3443 -0.9297
  633SOL     MW 2532   2.553   0.510   0.316 -0.0058  0.6114 -0.2545
  634SOL     OW 2533   2.652   0.046   0.648  0.4121 -0.0930 -0.2528
  634SOL    HW1 2534   2.717   0.109   0.676 -0.2214 -0.6759 -0.0155
  634SOL    HW2 2535   2.628   0.059   0.555 -2.7525 -1.1837 -0.2839
  634SOL     MW 2536   2.657   0.056   0.640 -0.0890 -0.3138 -0.2256
  635SOL     OW 2537   2.598   0.118   1.844 -0.0506  0.4558 -0.4066
  635SOL    HW1 2538   2.665   0.089   1.787 -0.1005 -0.0206  4.1412
  635SOL    HW2 2539   2.637   0.197   1.874  1.3603  0.2066 -2.3103
  635SOL     MW 2540   2.612   0.124   1.840  0.1290  0.3601 -0.0577
  636SOL     OW 2541   2.818   1.595   0.994  0.1631  0.1772 -0.9471
  636SOL    HW1 2542   2.728   1.621   1.008  0.8505 -0.8339 -2.2488
  636SOL    HW2 2543   2.876   1.669   1.014 -3.5502 -1.5959  2.7514
  636SOL     MW 2544   2.814   1.608   0.998 -0.2361 -0.1901 -0.6308
  637SOL     OW 2545   2.871   1.452   0.744 -0.2175 -0.3060 -0.4293
  637SOL    HW1 2546   2.885   1.524   0.683  2.1908  0.0634  1.8926
  637SOL    HW2 2547   2.836   1.497   0.823  2.5186 -1.9484 -0.0837
  637SOL     MW 2548   2.868   1.468   0.746  0.4612 -0.4739 -0.0774
  638SOL     OW 2549   2.693   0.516   0.581 -0.2313 -0.0797 -0.1141
  638SOL    HW1 2550   2.783   0.485   0.568 -1.7918  1.5352 -1.5081
  638SOL    HW2 2551   2.697   0.566   0.661 -0.6094  0.4731 -1.5174
  638SOL     MW 2552   2.705   0.519   0.590 -0.4871  0.2063 -0.4832
  639SOL     OW 2553   1.722   0.030   0.580 -0.5912  0.3099 -0.0838
  639SOL    HW1 2554   1.639   0.055   0.549  1.7720 -2.4648  1.0235
  639SOL    HW2 2555   1.734  -0.057   0.549 -0.2490 -0.2527  0.5921
  639SOL     MW 2556   1.713   0.022   0.572 -0.2342 -0.1304  0.1515
  640SOL     OW 2557   0.317   1.297   0.125 -0.3746  0.4478  0.1725
  640SOL    HW1 2558   0.342   1.304   0.027  0.0160 -3.1296 -1.5411
  640SOL    HW2 2559   0.299   1.199   0.143  1.7606 -2.5331  1.1641
  640SOL     MW 2560   0.318   1.285   0.114 -0.0414 -0.4175  0.0772
  641SOL     OW 2561   2.176   0.396   0.404  0.0892  0.3660  0.3499
  641SOL    HW1 2562   2.229   0.394   0.318  0.0073 -0.6929  2.0413
  641SOL    HW2 2563   2.231   0.363   0.474  1.4456 -0.3871  1.7013
  641SOL     MW 2564   2.190   0.392   0.402  0.2574  0.1269  0.7514
  642SOL     OW 2565   0.052   3.089   0.563  0.0539 -0.0625 -0.0161
  642SOL    HW1 2566  -0.011   3.143   0.504 -1.8924  0.0052 -0.3784
  642SOL    HW2 2567  -0.013   3.032   0.603  0.2708  0.8247 -1.6742
  642SOL     MW 2568   0.035   3.088   0.560 -0.1743  0.0635 -0.2827
  643SOL     OW 2569   1.987   0.364   1.629  0.0258  0.6065  0.6209
  643SOL    HW1 2570   1.900   0.355   1.675  1.2195  0.4899  0.2867
  643SOL    HW2 2571   1.984   0.302   1.551  0.7055  2.5406 -1.5191
  643SOL     MW 2572   1.976   0.355   1.625  0.2730  0.8463  0.2945
  644SOL     OW 2573   2.760   1.979   1.068 -0.3980 -0.6788  0.3830
  644SOL    HW1 2574   2.716   1.897   1.082  1.4621 -0.7672 -0.4779
  644SOL    HW2 2575   2.684   2.035   1.035  0.4942  0.9069 -0.7852
  644SOL     MW 2576   2.744   1.976   1.065 -0.0349 -0.4813  0.1153
  645SOL     OW 2577   2.834   0.835   0.643 -0.5508 -0.2449  0.6540
  645SOL    HW1 2578   2.923   0.805   0.643 -1.1458  1.2382 -1.5806
  645SOL    HW2 2579   2.792   0.779   0.714  1.6644 -1.6044 -0.2577
  645SOL     MW 2580   2.840   0.824   0.652 -0.3370 -0.2286  0.2389
  646SOL     OW 2581   0.092   2.286   0.843 -0.2167  0.4291  0.0322
  646SOL    HW1 2582   0.120   2.190   0.838 -1.2851 -0.3608 -0.9071
  646SOL    HW2 2583   0.009   2.298   0.801  0.1979 -3.9476 -1.6362
  646SOL     MW 2584   0.085   2.275   0.837 -0.3030 -0.2526 -0.3118
  647SOL     OW 2585   2.683   0.470   2.900  0.0146  0.0486  0.3235
  647SOL    HW1 2586   2.694   0.464   2.995  0.2959 -0.3083  1.8525
  647SOL    HW2 2587   2.588   0.457   2.891 -0.0797  2.6262 -4.0842
  647SOL     MW 2588   2.672   0.468   2.911  0.0393  0.3416 -0.0563
  648SOL     OW 2589   2.116   0.738   1.182  0.5541  0.1658 -0.2414
  648SOL    HW1 2590   2.130   0.650   1.225  0.6198 -2.8491  0.9564
  648SOL    HW2 2591   2.188   0.794   1.213 -1.8261 -1.4478  1.6584
  648SOL     MW 2592   2.127   0.734   1.192  0.2488 -0.4449  0.1673
  649SOL     OW 2593   2.383   2.655   1.282  0.0245 -0.1538  0.2678
  649SOL    HW1 2594   2.469   2.696   1.296  1.4782  0.5651  1.6919
  649SOL    HW2 2595   2.382   2.561   1.303 -2.7232 -2.5668  1.4186
  649SOL     MW 2596   2.394   2.648   1.286 -0.1463 -0.3773  0.6075
  650SOL     OW 2597   2.853   0.235   0.631 -0.0981  0.4704  0.7037
  650SOL    HW1 2598   2.890   0.317   0.663 -0.7427  0.4944  2.3466
  650SOL    HW2 2599   2.905   0.214   0.545  1.8861 -1.6657 -1.9737
  650SOL     MW 2600   2.865   0.243   0.624  0.0786  0.1917  0.5672
  651SOL     OW 2601   3.065   0.428   0.953 -0.0350 -0.3481  0.5723
  651SOL    HW1 2602   3.128   0.488   0.904  3.0845 -0.0230  0.3934
  651SOL    HW2 2603   3.021   0.483   1.019  1.0571  2.8836 -0.2320
  651SOL     MW 2604   3.067   0.443   0.955  0.5207  0.1212  0.4426
  652SOL     OW 2605   2.431   1.547   3.036 -0.5127  0.2705  0.1502
  652SOL    HW1 2606   2.481   1.565   2.957 -1.3658 -1.4596  1.8562
  652SOL    HW2 2607   2.400   1.633   3.056  1.5752 -3.0606  2.3619
  652SOL     MW 2608   2.434   1.561   3.028 -0.3498 -0.3973  0.6671
  653SOL     OW 2609   1.812   0.444   0.392  0.5305  0.5628 -0.4313
  653SOL    HW1 2610   1.752   0.417   0.317 -1.1914 -0.0078 -0.3931
  653SOL    HW2 2611   1.893   0.449   0.344  0.5905 -0.2440  3.2794
  653SOL     MW 2612   1.815   0.441   0.376  0.3112  0.3811  0.0633
  654SOL     OW 2613   2.423   1.032   0.772  0.0439 -0.6947 -0.1047
  654SOL    HW1 2614   2.359   1.032   0.697 -1.4580  3.0446  2.0804
  654SOL    HW2 2615   2.460   0.939   0.786 -1.0246  0.5792 -2.2252
  654SOL     MW 2616   2.420   1.020   0.764 -0.2952 -0.0333 -0.0961
  655SOL     OW 2617   2.945   0.827   0.366  0.2608 -0.4993 -0.0469
  655SOL    HW1 2618   2.901   0.864   0.442 -1.4629 -0.3645 -0.6185
  655SOL    HW2 2619   2.956   0.734   0.392  1.5255 -2.5454  1.3656
  655SOL     MW 2620   2.940   0.820   0.379  0.2003 -0.7515  0.0641
  656SOL     OW 2621   1.881   2.706   1.350 -0.2796 -1.0208  0.1108
  656SOL    HW1 2622   1.896   2.795   1.364 -0.8583 -1.7849  1.1083
  656SOL    HW2 2623   1.921   2.656   1.426  0.7620 -2.9010  3.0894
  656SOL     MW 2624   1.889   2.711   1.362 -0.2185 -1.3697  0.6354
  657SOL     OW 2625   0.121   1.772   1.184 -0.2319 -0.1837 -0.0989
  657SOL    HW1 2626   0.191   1.816   1.141 -0.8901  2.2125  1.2322
  657SOL    HW2 2627   0.151   1.677   1.174  1.9979 -0.4579  1.5293
  657SOL     MW 2628   0.134   1.766   1.177 -0.0245  0.0963  0.2915
  658SOL     OW 2629   2.679   1.354   0.253 -0.1333  0.0262 -0.3034
  658SOL    HW1 2630   2.656   1.284   0.319 -0.3532 -2.0338  2.3242
  658SOL    HW2 2631   2.696   1.423   0.318  0.3107  0.4023  2.0622
  658SOL     MW 2632   2.678   1.354   0.271 -0.1037 -0.1960  0.3554
  659SOL     OW 2633   2.270   1.538   1.017 -0.2542 -0.3851 -0.4588
  659SOL    HW1 2634   2.365   1.516   1.036 -0.5991  0.3568  0.4026
  659SOL    HW2 2635   2.248   1.592   1.090 -0.0358 -0.0216  2.4213
  659SOL     MW 2636   2.279   1.542   1.029 -0.2709 -0.2392  0.0348
  660SOL     OW 2637   2.058   1.574   1.670  0.3278 -0.0348 -0.0203
  660SOL    HW1 2638   2.078   1.560   1.767 -0.9434 -1.0404  0.6843
  660SOL    HW2 2639   1.966   1.539   1.665 -0.5518 -1.0390  1.4237
  660SOL     MW 2640   2.048   1.568   1.682  0.0440 -0.2999  0.2632
  661SOL     OW 2641   2.454   1.009   0.182  0.1945 -0.5078  0.1362
  661SOL    HW1 2642   2.513   1.046   0.251 -2.3019  0.3742  1.4181
  661SOL    HW2 2643   2.453   0.916   0.200 -0.9328  1.1952  1.1825
  661SOL     MW 2644   2.462   1.002   0.194 -0.2836 -0.1667  0.4434
  662SOL     OW 2645   2.552   2.982   0.904 -0.2275  0.4858  0.2924
  662SOL    HW1 2646   2.507   3.057   0.946  1.3594  0.4455 -0.9710
  662SOL    HW2 2647   2.593   3.032   0.832  0.3045 -1.5705  0.5203
  662SOL     MW 2648   2.552   2.998   0.900  0.0521  0.2092  0.1558
  663SOL     OW 2649   2.643   1.498   0.504  0.0213 -0.2960 -0.1359
  663SOL    HW1 2650   2.650   1.592   0.473  1.3175  2.9780 -0.1184
  663SOL    HW2 2651   2.720   1.493   0.558  1.7532  2.0959 -1.4115
  663SOL     MW 2652   2.655   1.510   0.507  0.4208  0.4516 -0.3019
  664SOL     OW 2653   2.545   1.526   1.555  0.0835  0.4879  0.4093
  664SOL    HW1 2654   2.518   1.618   1.561  3.4904  1.7899 -1.3699
  664SOL    HW2 2655   2.464   1.474   1.546 -0.3662 -0.7042 -0.4056
  664SOL     MW 2656   2.531   1.531   1.555  0.4737  0.5024  0.0670
  665SOL     OW 2657   2.854   0.863   2.010  0.0765 -0.1449  0.2521
  665SOL    HW1 2658   2.807   0.867   1.930  0.6717 -0.4938 -0.0996
  665SOL    HW2 2659   2.915   0.796   1.990 -1.3024  0.2420 -0.7526
  665SOL     MW 2660   2.856   0.855   1.997 -0.0269 -0.1399  0.0732
  666SOL     OW 2661   2.792   3.048   1.724 -0.2983  0.0338 -0.3298
  666SOL    HW1 2662   2.760   3.063   1.634 -0.3344 -1.2184 -0.7927
  666SOL    HW2 2663   2.748   2.970   1.755  1.5352 -0.5209  3.2961
  666SOL     MW 2664   2.782   3.040   1.716 -0.0611 -0.2046  0.0875
  667SOL     OW 2665   1.942   2.667   1.801 -0.4570 -0.1758  0.2366
  667SOL    HW1 2666   1.973   2.658   1.894 -0.0364 -1.6201 -0.1311
  667SOL    HW2 2667   2.019   2.694   1.752  0.0811 -0.6061  0.8366
  667SOL     MW 2668   1.956   2.669   1.807 -0.3305 -0.4231  0.2673
  668SOL     OW 2669   2.739   0.650   0.831 -0.4310 -0.2315  0.0152
  668SOL    HW1 2670   2.791   0.670   0.918 -1.2875  1.0421 -2.5950
  668SOL    HW2 2671   2.656   0.702   0.841  3.1167 -0.7652  0.5787
  668SOL     MW 2672   2.735   0.660   0.844 -0.0759 -0.1339 -0.2549
  669SOL     OW 2673   0.205   0.923   0.679 -0.1618 -0.3105  0.2581
  669SOL    HW1 2674   0.153   0.992   0.711 -2.6790  0.0793  0.2065
  669SOL    HW2 2675   0.286   0.936   0.721 -2.2752  0.1760  3.1638
  669SOL     MW 2676   0.209   0.934   0.688 -0.7727 -0.1949  0.6347
  670SOL     OW 2677   2.888   0.267   0.197 -0.3325  1.0684 -0.4447
  670SOL    HW1 2678   2.887   0.214   0.118 -2.8861 -0.0837 -0.7724
  670SOL    HW2 2679   2.925   0.346   0.162  0.9986  2.2700  1.6489
  670SOL     MW 2680   2.892   0.271   0.182 -0.4938  1.0749 -0.2117
  671SOL     OW 2681   2.060   3.033   1.527  0.1274  0.1152  0.2494
  671SOL    HW1 2682   1.998   3.009   1.455  0.7602 -0.4316 -2.3872
  671SOL    HW2 2683   2.009   3.064   1.604 -1.2179  0.6030  1.4115
  671SOL     MW 2684   2.045   3.034   1.528  0.0334  0.1074  0.0549
  672SOL     OW 2685   1.904   1.733   1.320 -0.2300  0.2315 -0.2017
  672SOL    HW1 2686   1.814   1.748   1.344 -1.1147 -0.4487  2.3253
  672SOL    HW2 2687   1.905   1.748   1.230 -1.0704  1.0828  0.6271
  672SOL     MW 2688   1.892   1.737   1.312 -0.4576  0.2541  0.2411
  673SOL     OW 2689   2.775   1.111   0.601  0.0641  0.2524 -0.0046
  673SOL    HW1 2690   2.785   1.018   0.623  1.3458  2.4737 -1.1071
  673SOL    HW2 2691   2.859   1.150   0.613 -2.0611  1.8008  2.2497
  673SOL     MW 2692   2.788   1.104   0.606 -0.0472  0.7497  0.1474
  674SOL     OW 2693   2.440   3.063   1.314 -0.0439 -0.4097  0.0481
  674SOL    HW1 2694   2.431   3.082   1.221 -0.2225  0.2292  1.8368
  674SOL    HW2 2695   2.414   2.972   1.324 -0.9218  0.1784  2.7386
  674SOL     MW 2696   2.435   3.053   1.303 -0.1833 -0.2478  0.6391
  675SOL     OW 2697   3.072   0.901   1.062 -0.1222 -0.6868  0.3268
  675SOL    HW1 2698   3.137   0.896   1.127 -1.4639  3.6133 -1.1657
  675SOL    HW2 2699   3.106   0.948   0.984 -1.2358  0.3767  1.6343
  675SOL     MW 2700   3.085   0.907   1.060 -0.4462  0.0209  0.3024
  676SOL     OW 2701   2.912   1.494   1.684  0.3006 -0.3338  0.1685
  676SOL    HW1 2702   2.885   1.412   1.637  2.4211 -0.3522  2.6834
  676SOL    HW2 2703   2.983   1.452   1.729  0.4316  1.7540  0.6146
  676SOL     MW 2704   2.918   1.477   1.684  0.5977 -0.0607  0.5592
  677SOL     OW 2705   2.366   0.599   2.014 -0.5248  0.4825  0.5059
  677SOL    HW1 2706   2.326   0.555   1.936 -1.1542  2.4198  0.6110
  677SOL    HW2 2707   2.326   0.683   2.011 -0.6489  0.7834 -0.7120
  677SOL     MW 2708   2.356   0.604   2.003 -0.6242  0.7778  0.3591
  678SOL     OW 2709   2.548   1.682   0.280 -0.2499  0.8742  0.3048
  678SOL    HW1 2710   2.494   1.689   0.363  0.6288 -1.5992  0.1126
  678SOL    HW2 2711   2.508   1.603   0.242 -2.5783  0.8284 -2.2871
  678SOL     MW 2712   2.535   1.672   0.286 -0.4412  0.5418 -0.0625
  679SOL     OW 2713   2.212   0.456   1.300  0.2009 -0.2646  0.1739
  679SOL    HW1 2714   2.184   0.383   1.245 -0.1142  0.0369  0.5633
  679SOL    HW2 2715   2.170   0.434   1.383  0.2222 -2.6260 -0.4847
  679SOL     MW 2716   2.203   0.444   1.304  0.1621 -0.5364  0.1384
  680SOL     OW 2717   2.362   0.170   1.484 -0.3322  0.2464 -0.5199
  680SOL    HW1 2718   2.284   0.203   1.442  3.8571 -2.6960 -0.7085
  680SOL    HW2 2719   2.393   0.086   1.433  2.2065 -2.7703  0.0651
  680SOL     MW 2720   2.356   0.163   1.471  0.5555 -0.5399 -0.4676
  681SOL     OW 2721   0.290   0.501   1.530 -0.4688 -0.3360 -0.1771
  681SOL    HW1 2722   0.278   0.451   1.606  1.8473  0.0088 -1.1422
  681SOL    HW2 2723   0.373   0.534   1.543 -1.8357  0.1656 -1.5207
  681SOL     MW 2724   0.299   0.499   1.542 -0.3435 -0.2243 -0.4817
  682SOL     OW 2725   0.108   2.880   1.493  0.4804  0.1158  0.1759
  682SOL    HW1 2726   0.155   2.915   1.570  2.6818 -0.9006 -0.1889
  682SOL    HW2 2727   0.017   2.896   1.507  1.0625 -1.0244 -1.5901
  682SOL     MW 2728   0.102   2.887   1.505  0.8477 -0.1687 -0.1052
  683SOL     OW 2729   2.082   0.806   2.979 -0.4303 -0.3719  0.1544
  683SOL    HW1 2730   1.987   0.785   2.970 -0.0117 -1.5720  0.7698
  683SOL    HW2 2731   2.095   0.899   2.998 -0.3463 -1.2080 -0.9563
  683SOL     MW 2732   2.071   0.816   2.980 -0.3640 -0.6405  0.0891
  684SOL     OW 2733   2.227   1.676   0.776  0.3143  0.3871 -1.1119
  684SOL    HW1 2734   2.205   1.601   0.716  1.4834  0.7851 -2.4301
  684SOL    HW2 2735   2.258   1.633   0.858  1.1597 -1.1153 -0.6569
  684SOL     MW 2736   2.228   1.660   0.779  0.5801  0.2414 -1.2258
  685SOL     OW 2737   2.616   1.730   1.231  0.1830 -0.7141  0.0584
  685SOL    HW1 2738   2.699   1.726   1.285  0.4143 -0.5655  0.3810
  685SOL    HW2 2739   2.593   1.642   1.208  0.8159  0.7386 -2.6248
  685SOL     MW 2740   2.624   1.718   1.235  0.2970 -0.5028 -0.2531
  686SOL     OW 2741   2.894   0.800   1.525 -0.0546 -0.6417  0.1340
  686SOL    HW1 2742   2.882   0.739   1.600  4.3126 -1.5393  0.6077
  686SOL    HW2 2743   2.981   0.837   1.533 -1.0909  0.1174  1.8380
  686SOL     MW 2744   2.904   0.797   1.536  0.3849 -0.6600  0.4213
  687SOL     OW 2745   2.152   0.188   1.167 -0.3817  0.2482 -0.1855
  687SOL    HW1 2746   2.225   0.127   1.137  2.4105  0.2479 -3.2990
  687SOL    HW2 2747   2.074   0.184   1.107  0.0707 -2.7949 -1.2573
  687SOL     MW 2748   2.151   0.179   1.155  0.0464 -0.1534 -0.7377
  688SOL     OW 2749   2.393   0.580   1.452  0.5589  0.0160 -0.2855
  688SOL    HW1 2750   2.327   0.528   1.393 -2.5089 -3.6313  1.0993
  688SOL    HW2 2751   2.340   0.614   1.527  0.9272  2.0795  3.8977
  688SOL     MW 2752   2.377   0.578   1.454  0.2027 -0.1929  0.4491
  689SOL     OW 2753   2.467   0.767   2.983 -0.4952 -0.1821  0.2074
  689SOL    HW1 2754   2.480   0.850   2.931 -2.0498 -0.3772 -4.0598
  689SOL    HW2 2755   2.542   0.761   3.050 -0.5314 -2.1275 -0.2836
  689SOL     MW 2756   2.478   0.777   2.985 -0.7051 -0.4645 -0.4204
  690SOL     OW 2757   2.042   0.898   1.869 -0.1787 -0.8792 -1.1348
  690SOL    HW1 2758   2.002   0.814   1.852 -1.9912 -1.2798 -1.9831
  690SOL    HW2 2759   2.035   0.936   1.782  0.8192 -1.0838  0.2925
  690SOL     MW 2760   2.036   0.892   1.855 -0.2861 -0.9591 -1.0584
  691SOL     OW 2761   2.393   0.322   0.908 -0.1413  0.2031 -0.2610
  691SOL    HW1 2762   2.469   0.372   0.932  1.2925  1.7790 -0.0280
  691SOL    HW2 2763   2.314   0.372   0.926  0.5170  0.4409  0.7190
  691SOL     MW 2764   2.393   0.335   0.914  0.1347  0.4424 -0.1010
  692SOL     OW 2765   2.833   1.714   1.377 -0.5106 -0.0595 -0.0348
  692SOL    HW1 2766   2.816   1.660   1.451  1.5136 -0.1734  0.0081
  692SOL    HW2 2767   2.877   1.793   1.417 -0.8709  3.8524  0.2327
  692SOL     MW 2768   2.837   1.717   1.392 -0.2911  0.4416  0.0062
  693SOL     OW 2769   2.263   0.409   0.142 -0.4885 -0.6068  0.2301
  693SOL    HW1 2770   2.190   0.350   0.135  0.8434  2.5026  0.2501
  693SOL    HW2 2771   2.236   0.491   0.099  0.2328  2.1462 -2.4423
  693SOL     MW 2772   2.250   0.412   0.135 -0.2176  0.1667 -0.1199
  694SOL     OW 2773   1.925   1.209   1.203  0.4282 -0.3522 -0.1403
  694SOL    HW1 2774   2.021   1.191   1.202  1.7775 -0.4251 -2.6768
  694SOL    HW2 2775   1.873   1.136   1.239 -0.0216  1.2060  0.8160
  694SOL     MW 2776   1.931   1.197   1.208  0.5469 -0.1562 -0.3488
  695SOL     OW 2777   3.032   1.515   1.321 -0.3565  0.4446 -1.1687
  695SOL    HW1 2778   2.998   1.453   1.253 -1.8880  2.1365 -1.9175
  695SOL    HW2 2779   2.966   1.582   1.308  1.1246 -0.8670  2.3254
  695SOL     MW 2780   3.019   1.516   1.310 -0.3631  0.4948 -0.8065
  696SOL     OW 2781   2.127   1.316   0.838 -0.2698  0.5469 -0.3845
  696SOL    HW1 2782   2.172   1.384   0.898  0.8572 -1.4712 -0.8834
  696SOL    HW2 2783   2.082   1.246   0.887  0.2090 -0.8223  1.5959
  696SOL     MW 2784   2.127   1.316   0.853 -0.0579  0.1000 -0.1890
  697SOL     OW 2785   2.912   1.036   2.215 -0.4270  0.1142 -0.1279
  697SOL    HW1 2786   2.832   1.090   2.219  2.5135  0.1450  2.3990
  697SOL    HW2 2787   2.901   0.973   2.146 -2.8026  1.7239 -0.5030
  697SOL     MW 2788   2.900   1.034   2.206 -0.3524  0.3307  0.1560
  698SOL     OW 2789   2.555   0.327   0.004  0.4215  0.5349 -0.1700
  698SOL    HW1 2790   2.472   0.360   0.034  0.4427 -1.9339 -0.6453
  698SOL    HW2 2791   2.579   0.267   0.075 -3.5414  2.6971  0.3015
  698SOL     MW 2792   2.547   0.323   0.017 -0.0986  0.4945 -0.1705
  699SOL     OW 2793   1.789   1.583   2.058 -0.1488 -0.5604  0.8072
  699SOL    HW1 2794   1.763   1.486   2.067 -1.3488 -0.1796  0.7906
  699SOL    HW2 2795   1.878   1.565   2.013  0.6032  1.4767 -0.3284
  699SOL     MW 2796   1.797   1.568   2.053 -0.2079 -0.2414  0.6552
  700SOL     OW 2797   2.672   0.951   1.488 -0.2508 -0.4504 -0.2364
  700SOL    HW1 2798   2.705   1.027   1.441 -0.3335  1.2820 -0.4130
  700SOL    HW2 2799   2.748   0.887   1.492  2.8137  0.1998 -0.9042
  700SOL     MW 2800   2.686   0.953   1.482  0.1426 -0.1361 -0.3478
  701SOL     OW 2801   1.643   1.186   2.443  0.1719  0.4233  0.5100
  701SOL    HW1 2802   1.734   1.213   2.427 -0.5645 -1.9010  0.5789
  701SOL    HW2 2803   1.624   1.206   2.535  1.6947 -1.6449 -0.9889
  701SOL     MW 2804   1.652   1.192   2.453  0.2757 -0.1562  0.3213
  702SOL     OW 2805   2.123   0.431   0.846 -0.1215 -1.0141  0.1076
  702SOL    HW1 2806   2.128   0.357   0.779  2.4070  1.9617 -0.6375
  702SOL    HW2 2807   2.153   0.513   0.808  1.9077 -1.2160  0.2369
  702SOL     MW 2808   2.128   0.432   0.832  0.4798 -0.6481  0.0263
  703SOL     OW 2809   2.733   1.221   1.040  0.0836 -0.0658  0.9372
  703SOL    HW1 2810   2.687   1.207   0.949 -1.7341  0.3122 -2.1307
  703SOL    HW2 2811   2.725   1.142   1.087 -0.3578 -0.2217 -1.9923
  703SOL     MW 2812   2.726   1.209   1.034 -0.2145 -0.0365  0.1459
  704SOL     OW 2813   3.019   1.182   0.091  0.2690 -0.1408 -0.4399
  704SOL    HW1 2814   2.924   1.181   0.055 -2.0904 -1.1157 -0.6144
  704SOL    HW2 2815   3.014   1.146   0.173 -2.0145 -0.6406 -0.6663
  704SOL     MW 2816   3.006   1.177   0.097 -0.3436 -0.3354 -0.4928
  705SOL     OW 2817   2.194   1.629   1.274  0.6595 -0.4596 -0.6158
  705SOL    HW1 2818   2.095   1.626   1.288 -2.4011 -0.4487 -0.2815
  705SOL    HW2 2819   2.223   1.534   1.283  0.2964  0.5268  1.8690
  705SOL     MW 2820   2.184   1.616   1.277  0.2078 -0.3280 -0.2438
  706SOL     OW 2821   3.016   1.217   0.664  0.1601  0.6032 -0.4017
  706SOL    HW1 2822   3.069   1.229   0.580  1.6641  1.5733 -2.0601
  706SOL    HW2 2823   2.973   1.298   0.686 -1.3770 -2.8053  0.6781
  706SOL     MW 2824   3.017   1.229   0.656  0.1557  0.2815 -0.4781
  707SOL     OW 2825   2.373   0.067   1.017 -0.2236 -0.2587  0.4479
  707SOL    HW1 2826   2.390   0.159   1.000 -1.2566  1.9104  1.6661
  707SOL    HW2 2827   2.293   0.044   0.960 -0.9915  0.6676  0.1414
  707SOL     MW 2828   2.365   0.076   1.007 -0.4612  0.1497  0.5682
  708SOL     OW 2829   2.425   1.448   0.201 -0.4919 -0.5203 -0.0669
  708SOL    HW1 2830   2.504   1.404   0.222  1.2795 -0.0026 -0.9264
  708SOL    HW2 2831   2.455   1.473   0.113  0.0001  0.0716  0.0190
  708SOL     MW 2832   2.439   1.446   0.192 -0.1933 -0.3739 -0.1690
  709SOL     OW 2833   1.776   1.637   0.231 -0.1564 -0.6426 -0.5113
  709SOL    HW1 2834   1.742   1.651   0.147 -0.2337 -0.2367  1.8685
  709SOL    HW2 2835   1.707   1.672   0.291 -1.1059 -1.3530  0.3016
  709SOL     MW 2836   1.762   1.643   0.228 -0.2919 -0.6828 -0.0900
  710SOL     OW 2837   2.217   1.219   1.200 -0.3213 -0.3421 -0.6112
  710SOL    HW1 2838   2.204   1.191   1.107 -0.1972 -1.5312  0.8931
  710SOL    HW2 2839   2.237   1.135   1.248  0.5049 -1.2281  1.3232
  710SOL     MW 2840   2.218   1.204   1.194 -0.1959 -0.6159 -0.1575
  711SOL     OW 2841   2.334   0.134   1.768  0.0290  0.4146 -0.7281
  711SOL    HW1 2842   2.431   0.133   1.785  0.6003 -2.5015 -0.7171
  711SOL    HW2 2843   2.323   0.145   1.670  0.5344 -1.3099  0.3334
  711SOL     MW 2844   2.346   0.135   1.757  0.1711 -0.1976 -0.5866
  712SOL     OW 2845   1.913   0.504   0.118 -0.0692 -0.0847  0.5308
  712SOL    HW1 2846   1.823   0.529   0.086 -1.1422  1.9495 -1.7277
  712SOL    HW2 2847   1.936   0.587   0.164 -1.9544 -1.1509  0.5227
  712SOL     MW 2848   1.904   0.518   0.119 -0.4595  0.0430  0.2317
  713SOL     OW 2849   2.563   0.856   1.083  0.2454  0.2596  0.0456
  713SOL    HW1 2850   2.534   0.768   1.110  1.3898  2.5369 -0.9676
  713SOL    HW2 2851   2.520   0.902   1.153 -5.1214 -0.7212  0.0514
  713SOL     MW 2852   2.553   0.851   1.096 -0.3117  0.4306 -0.0873
  714SOL     OW 2853   2.233   0.233   2.021 -0.1408  0.3788  0.3899
  714SOL    HW1 2854   2.284   0.211   2.094 -0.6424 -1.9065  1.0601
  714SOL    HW2 2855   2.275   0.194   1.945 -3.6878 -1.3688 -2.5136
  714SOL     MW 2856   2.245   0.225   2.020 -0.6750 -0.1533  0.0952
  715SOL     OW 2857   1.755   1.877   1.650 -0.2752 -0.6056  0.3812
  715SOL    HW1 2858   1.851   1.859   1.637  1.3003  1.0735  0.8678
  715SOL    HW2 2859   1.741   1.861   1.742 -0.1272  0.3990 -1.5281
  715SOL     MW 2860   1.766   1.873   1.660 -0.0478 -0.2515  0.1935
  716SOL     OW 2861   2.301   0.597   0.683  0.2438 -0.5383  0.7232
  716SOL    HW1 2862   2.352   0.516   0.659 -0.4317  0.2666  0.5044
  716SOL    HW2 2863   2.266   0.633   0.599  0.2011 -1.5120  0.5105
  716SOL     MW 2864   2.303   0.591   0.669  0.1490 -0.5606  0.6662
  717SOL     OW 2865   2.866   1.575   2.903  0.0361  0.4532 -0.4331
  717SOL    HW1 2866   2.963   1.560   2.906 -1.3079 -0.5538 -0.8058
  717SOL    HW2 2867   2.838   1.642   2.967  1.1789  3.0727 -3.2245
  717SOL     MW 2868   2.875   1.582   2.912  0.0096  0.6660 -0.8506
  718SOL     OW 2869   2.685   1.395   1.316 -0.0572  0.1230  0.3062
  718SOL    HW1 2870   2.659   1.418   1.407  1.3773 -0.9336 -0.0501
  718SOL    HW2 2871   2.733   1.316   1.324 -2.4335  0.8929 -0.2173
  718SOL     MW 2872   2.688   1.388   1.329 -0.1815  0.0852  0.1901
  719SOL     OW 2873   2.186   1.301   0.562  0.2866  0.2981  0.2319
  719SOL    HW1 2874   2.279   1.314   0.566 -2.0486 -0.3054 -0.0033
  719SOL    HW2 2875   2.165   1.291   0.656 -0.5462 -1.5899 -1.8753
  719SOL     MW 2876   2.196   1.302   0.575 -0.1314 -0.0307 -0.0772
  720SOL     OW 2877   2.750   1.213   0.028  0.0143 -0.1670 -0.0712
  720SOL    HW1 2878   2.682   1.149   0.027  1.6053  0.0554 -0.0711
  720SOL    HW2 2879   2.719   1.252   0.112  0.4100  0.5427  2.7166
  720SOL     MW 2880   2.737   1.209   0.039  0.2764 -0.0440  0.2966
  721SOL     OW 2881   2.429   0.848   1.363  0.2964  0.0404  0.1047
  721SOL    HW1 2882   2.419   0.757   1.399 -0.6578 -2.3303 -0.7495
  721SOL    HW2 2883   2.505   0.884   1.412 -0.8029 -1.6220 -0.1579
  721SOL     MW 2884   2.438   0.841   1.374  0.0255 -0.4917 -0.0426
  722SOL     OW 2885   2.584   1.150   0.418 -0.0008 -0.0548  0.8657
  722SOL    HW1 2886   2.531   1.216   0.465  2.9340 -0.0942  1.3567
  722SOL    HW2 2887   2.660   1.135   0.481 -0.4189 -2.4446 -1.5946
  722SOL     MW 2888   2.587   1.157   0.432  0.3312 -0.3753  0.6059
  723SOL     OW 2889   2.278   1.374   1.590  1.2217 -0.2699 -0.5633
  723SOL    HW1 2890   2.285   1.397   1.498  0.3900 -3.2752  0.5281
  723SOL    HW2 2891   2.214   1.445   1.623 -0.1341  1.8607 -1.4580
  723SOL     MW 2892   2.270   1.386   1.582  0.9331 -0.3853 -0.5373
  724SOL     OW 2893   2.456   0.383   0.623  0.0678  0.1643 -0.4452
  724SOL    HW1 2894   2.463   0.359   0.720 -2.0782 -1.1744  1.1308
  724SOL    HW2 2895   2.540   0.423   0.600 -0.6883  1.0307  0.2546
  724SOL     MW 2896   2.468   0.385   0.633 -0.3151  0.1020 -0.1449
  725SOL     OW 2897   2.536   0.582   1.188  0.0904 -0.6166  0.0250
  725SOL    HW1 2898   2.618   0.571   1.233  1.3850 -1.7896 -0.4283
  725SOL    HW2 2899   2.473   0.601   1.254  2.5255  0.1480 -0.9008
  725SOL     MW 2900   2.538   0.583   1.203  0.5825 -0.6705 -0.1570
  726SOL     OW 2901   2.596   2.454   0.551 -0.7124 -0.5350  0.1927
  726SOL    HW1 2902   2.553   2.511   0.487 -0.3151  0.2741  0.8867
  726SOL    HW2 2903   2.548   2.456   0.640 -3.4738 -0.1470 -1.7649
  726SOL     MW 2904   2.584   2.462   0.555 -1.0243 -0.3771  0.0260
  727SOL     OW 2905   2.891   0.368   1.676  0.6141  0.8410  0.5377
  727SOL    HW1 2906   2.847   0.346   1.589  0.5592  2.0408  1.4817
  727SOL    HW2 2907   2.818   0.361   1.740 -1.3431 -0.2883 -0.4811
  727SOL     MW 2908   2.876   0.364   1.673  0.3486  0.8503  0.5279
  728SOL     OW 2909   2.832   1.179   2.849 -0.3922  0.2289  0.1241
  728SOL    HW1 2910   2.840   1.244   2.782  3.0875  0.9559 -0.3643
  728SOL    HW2 2911   2.814   1.226   2.931  0.8970 -1.7539 -0.7168
  728SOL     MW 2912   2.831   1.194   2.851  0.2370  0.0633 -0.0513
  729SOL     OW 2913   2.528   1.491   1.125 -0.7304  0.1548  0.4631
  729SOL    HW1 2914   2.589   1.435   1.182  0.8387 -0.4256  2.9492
  729SOL    HW2 2915   2.558   1.462   1.037  0.5611  2.4567 -2.9574
  729SOL     MW 2916   2.540   1.480   1.121 -0.3530  0.3819  0.3398
  730SOL     OW 2917   2.211   1.174   0.179  0.9046  0.0672 -0.4368
  730SOL    HW1 2918   2.296   1.138   0.201 -2.0797 -0.4478 -2.0653
  730SOL    HW2 2919   2.233   1.268   0.167  1.5513  1.5028  0.3261
  730SOL     MW 2920   2.225   1.182   0.180  0.5962  0.1887 -0.5510
  731SOL     OW 2921   2.764   1.907   2.852 -0.6735 -0.4032 -0.1521
  731SOL    HW1 2922   2.692   1.925   2.789  0.6863  0.8298  0.5104
  731SOL    HW2 2923   2.835   1.949   2.799  2.2081  0.9610 -1.2026
  731SOL     MW 2924   2.764   1.915   2.837 -0.1139 -0.0605 -0.2033
  732SOL     OW 2925   2.211   1.003   1.370 -0.0275 -0.0854  0.2693
  732SOL    HW1 2926   2.173   1.006   1.457  0.4366 -0.4202 -0.4529
  732SOL    HW2 2927   2.285   0.946   1.371  1.8929  1.8287  0.4364
  732SOL     MW 2928   2.215   0.996   1.381  0.2871  0.1230  0.1960
  733SOL     OW 2929   2.363   2.753   3.023 -0.2220  0.3369 -0.0894
  733SOL    HW1 2930   2.278   2.805   3.019 -1.4586  0.5086  1.7075
  733SOL    HW2 2931   2.331   2.667   2.997  1.4732 -1.8079  0.9613
  733SOL     MW 2932   2.348   2.748   3.019 -0.1615  0.0766  0.2863
  734SOL     OW 2933   1.452   0.357   2.454 -0.2004  0.2943  0.3045
  734SOL    HW1 2934   1.454   0.306   2.535 -2.4655 -1.0349 -2.0085
  734SOL    HW2 2935   1.499   0.300   2.389  0.3624 -0.7440 -0.2197
  734SOL     MW 2936   1.459   0.343   2.456 -0.4250 -0.0180 -0.0698
  735SOL     OW 2937   2.922   0.885   2.620  0.4136 -0.2568  0.2829
  735SOL    HW1 2938   2.944   0.791   2.603  0.6657 -1.0406  1.2996
  735SOL    HW2 2939   2.932   0.895   2.718 -3.5456  0.4074 -0.0513
  735SOL     MW 2940   2.926   0.874   2.631 -0.0756 -0.2726  0.3729
  736SOL     OW 2941   0.082   0.572   2.481 -0.6445  0.0534 -0.2961
  736SOL    HW1 2942   0.141   0.640   2.463 -1.4276 -0.4580 -0.2950
  736SOL    HW2 2943   0.079   0.510   2.409 -1.7542  0.1658 -0.5955
  736SOL     MW 2944   0.089   0.573   2.469 -0.8942  0.0008 -0.3354
  737SOL     OW 2945   2.931   0.626   2.547  0.5109  0.0286  0.0466
  737SOL    HW1 2946   2.868   0.597   2.479  0.2620  3.3480  1.7341
  737SOL    HW2 2947   3.022   0.620   2.514 -2.2730  1.0797 -0.7994
  737SOL     MW 2948   2.935   0.621   2.533  0.1108  0.6053  0.1576
  738SOL     OW 2949   0.190   0.619   1.881 -0.9076  0.7136  0.4207
  738SOL    HW1 2950   0.277   0.655   1.883  0.0178  2.0032  0.4590
  738SOL    HW2 2951   0.199   0.529   1.841 -1.1448  0.4109  0.7378
  738SOL     MW 2952   0.202   0.612   1.876 -0.8168  0.8438  0.4676
  739SOL     OW 2953   2.443   1.027   2.056  0.1053 -0.3940 -0.2566
  739SOL    HW1 2954   2.382   0.967   2.011  1.6633 -1.6381  0.4712
  739SOL    HW2 2955   2.469   1.081   1.981  2.4300  0.3392  0.9574
  739SOL     MW 2956   2.439   1.026   2.040  0.6176 -0.4614 -0.0004
  740SOL     OW 2957   0.285   1.755   2.962  0.1205 -0.2061 -0.6649
  740SOL    HW1 2958   0.221   1.687   2.955 -0.1980  0.1999 -1.7599
  740SOL    HW2 2959   0.368   1.724   3.006 -0.1394 -0.9149 -0.5653
  740SOL     MW 2960   0.288   1.742   2.967  0.0442 -0.2461 -0.7962
  741SOL     OW 2961   2.254   1.184   2.743 -0.1248 -0.5852  0.0356
  741SOL    HW1 2962   2.165   1.204   2.703 -1.7414  3.1365 -0.2005
  741SOL    HW2 2963   2.241   1.221   2.832  0.0913 -2.3418  3.0893
  741SOL     MW 2964   2.240   1.191   2.749 -0.3096 -0.3259  0.4074
  742SOL     OW 2965   1.513   1.240   2.221  0.0777 -0.6373 -0.3151
  742SOL    HW1 2966   1.485   1.153   2.194 -0.5995  0.1386  1.6691
  742SOL    HW2 2967   1.554   1.223   2.307 -0.1086  0.6077 -1.3850
  742SOL     MW 2968   1.515   1.227   2.229 -0.0362 -0.3707 -0.1945
  743SOL     OW 2969   2.525   1.282   2.731 -0.4049  0.5822 -0.4386
  743SOL    HW1 2970   2.431   1.252   2.728  0.3624  2.4255  2.4366
  743SOL    HW2 2971   2.568   1.204   2.742 -1.8139 -0.5195 -2.6230
  743SOL     MW 2972   2.519   1.268   2.732 -0.4896  0.6801 -0.3475
  744SOL     OW 2973   2.753   0.957   1.770  0.0924  0.2680  0.0644
  744SOL    HW1 2974   2.676   1.016   1.778  1.3487 -1.2552 -3.3534
  744SOL    HW2 2975   2.739   0.905   1.691  0.0807 -1.2575  2.3242
  744SOL     MW 2976   2.741   0.958   1.761  0.2566 -0.1343 -0.0884
  745SOL     OW 2977   1.733   0.460   2.504 -0.7705 -0.2780 -0.2871
  745SOL    HW1 2978   1.749   0.444   2.414  0.7263  2.6801  0.3989
  745SOL    HW2 2979   1.639   0.469   2.500 -0.5172  2.5385 -1.5513
  745SOL     MW 2980   1.722   0.459   2.492 -0.5396  0.4839 -0.3634
  746SOL     OW 2981   1.557   1.433   1.606 -0.0253  0.1993 -0.3692
  746SOL    HW1 2982   1.653   1.430   1.617  2.5045 -1.1792  0.9976
  746SOL    HW2 2983   1.520   1.395   1.688  1.0670 -0.1698  0.9435
  746SOL     MW 2984   1.565   1.428   1.618  0.4526 -0.0313 -0.0156
  747SOL     OW 2985   2.555   1.144   1.794 -0.3877  0.9680  0.0860
  747SOL    HW1 2986   2.473   1.134   1.750 -0.4601 -0.0129 -1.9446
  747SOL    HW2 2987   2.555   1.218   1.858  0.7124  0.0962  0.8472
  747SOL     MW 2988   2.544   1.153   1.797 -0.2521  0.7236 -0.0815
  748SOL     OW 2989   0.139   0.052   1.796  0.1345 -0.2040 -0.0201
  748SOL    HW1 2990   0.181  -0.028   1.819 -0.6504 -1.3045 -1.2091
  748SOL    HW2 2991   0.102   0.090   1.875  1.8393 -0.3357 -1.5038
  748SOL     MW 2992   0.140   0.047   1.810  0.2559 -0.3666 -0.3727
  749SOL     OW 2993   2.447   0.558   2.803  0.0904 -0.4702  0.3216
  749SOL    HW1 2994   2.446   0.607   2.717 -2.1843 -3.1457  0.4840
  749SOL    HW2 2995   2.445   0.626   2.881  0.1068  0.0741 -1.5930
  749SOL     MW 2996   2.447   0.574   2.802 -0.2075 -0.7514  0.0904
  750SOL     OW 2997   2.049   3.095   1.964  0.1582 -0.2209  0.0229
  750SOL    HW1 2998   2.099   3.168   1.993 -0.4425 -1.2051  2.3852
  750SOL    HW2 2999   2.110   3.019   1.970 -3.0367 -0.2399  1.5000
  750SOL     MW 3000   2.064   3.095   1.969 -0.3426 -0.3533  0.5295
  751SOL     OW 3001   0.034   0.394   2.284  0.1664  0.1518  0.1398
  751SOL    HW1 3002  -0.009   0.312   2.320  1.6210  1.0683  0.3637
  751SOL    HW2 3003   0.113   0.352   2.248  2.2545  0.1121  1.8110
  751SOL     MW 3004   0.039   0.378   2.284  0.6338  0.2675  0.3899
  752SOL     OW 3005   2.115   0.806   2.701  0.2476  0.3798 -0.8753
  752SOL    HW1 3006   2.197   0.853   2.686 -0.3397 -0.3591 -1.8518
  752SOL    HW2 3007   2.092   0.827   2.790  2.7723 -2.3624 -1.3744
  752SOL     MW 3008   2.122   0.815   2.711  0.5032 -0.0795 -1.0700
  753SOL     OW 3009   2.919   0.242   2.377  0.3699 -0.3817  0.5219
  753SOL    HW1 3010   2.863   0.187   2.324 -0.5487  0.0690  0.8664
  753SOL    HW2 3011   2.869   0.321   2.374  1.5521  0.9202  1.0519
  753SOL     MW 3012   2.905   0.245   2.369  0.4047 -0.1505  0.6373
  754SOL     OW 3013   2.258   2.992   2.652  0.1623  0.0880 -0.3485
  754SOL    HW1 3014   2.272   2.987   2.553  1.5149  0.1149 -1.8256
  754SOL    HW2 3015   2.311   2.920   2.694  2.3454 -0.7873 -0.3199
  754SOL     MW 3016   2.266   2.982   2.645  0.6288 -0.0239 -0.5396
  755SOL     OW 3017   2.721   1.596   2.469  0.1112  0.0480  0.2894
  755SOL    HW1 3018   2.694   1.550   2.546  0.6005 -0.5866  1.7267
  755SOL    HW2 3019   2.802   1.639   2.508  1.4584 -0.9126  3.9903
  755SOL     MW 3020   2.728   1.596   2.484  0.3535 -0.1625  0.9673
  756SOL     OW 3021   2.255   1.343   2.954  0.0733  0.1239 -0.8893
  756SOL    HW1 3022   2.325   1.409   2.976  1.5084  1.3520 -0.7192
  756SOL    HW2 3023   2.291   1.266   3.001  0.9271  0.2433 -0.6410
  756SOL     MW 3024   2.269   1.342   2.963  0.3753  0.3016 -0.8341
  757SOL     OW 3025   2.094   0.980   1.597  0.0303 -0.5352  0.8796
  757SOL    HW1 3026   2.126   0.890   1.595 -0.0147 -0.0143  0.0038
  757SOL    HW2 3027   2.004   0.974   1.559  2.1953 -1.3124  2.1560
  757SOL     MW 3028   2.086   0.967   1.592  0.3100 -0.5690  0.9324
  758SOL     OW 3029   2.189   1.800   2.611  0.2550 -0.4352  0.1154
  758SOL    HW1 3030   2.184   1.829   2.517 -2.4605 -0.7956  0.0767
  758SOL    HW2 3031   2.279   1.771   2.613 -1.0923  2.6309 -1.3562
  758SOL     MW 3032   2.200   1.800   2.599 -0.2810 -0.0782 -0.0839
  759SOL     OW 3033   1.581   1.349   2.725  0.7925  0.2220  0.0977
  759SOL    HW1 3034   1.574   1.439   2.687  0.2718  0.3439  1.1267
  759SOL    HW2 3035   1.633   1.360   2.801 -2.7367 -0.6018 -1.1127
  759SOL     MW 3036   1.587   1.363   2.730  0.2581  0.1294  0.0738
  760SOL     OW 3037   2.549   1.965   2.708 -0.2499  0.0486 -0.7189
  760SOL    HW1 3038   2.524   1.882   2.689  1.2299  3.6561  1.4084
  760SOL    HW2 3039   2.578   2.018   2.630  1.7746  1.6289 -1.7191
  760SOL     MW 3040   2.549   1.961   2.695  0.2125  0.7331 -0.5702
  761SOL     OW 3041   2.097   0.425   2.474  0.9839  0.2949  0.0120
  761SOL    HW1 3042   2.022   0.365   2.460 -0.3139 -2.2182 -0.9970
  761SOL    HW2 3043   2.115   0.413   2.565  1.1254  0.2532  1.1930
  761SOL     MW 3044   2.090   0.415   2.484  0.8313 -0.0422  0.0347
  762SOL     OW 3045   3.077   0.154   1.997 -0.1051 -0.7781 -0.5469
  762SOL    HW1 3046   3.060   0.094   2.065  0.4481  1.3634  2.4233
  762SOL    HW2 3047   3.032   0.235   2.018  1.8097  1.2395  1.3619
  762SOL     MW 3048   3.069   0.157   2.009  0.2205 -0.2294  0.0968
  763SOL     OW 3049   2.420   1.058   2.339 -0.0168  0.3558  0.2545
  763SOL    HW1 3050   2.457   1.038   2.247 -0.5937  0.0534 -0.9383
  763SOL    HW2 3051   2.477   1.133   2.366  1.6119  0.5712 -2.2267
  763SOL     MW 3052   2.432   1.066   2.331  0.1219  0.3443 -0.2302
  764SOL     OW 3053   0.419   0.229   2.776  0.6971  0.1247  0.0720
  764SOL    HW1 3054   0.321   0.218   2.777  0.5912 -2.3253 -0.3856
  764SOL    HW2 3055   0.434   0.309   2.825  1.0722 -3.2094  2.2566
  764SOL     MW 3056   0.408   0.238   2.782  0.7326 -0.6384  0.2999
  765SOL     OW 3057   2.719   0.083   2.275  0.2795  0.0722  0.2604
  765SOL    HW1 3058   2.660   0.055   2.200  0.1244 -0.0316  0.5623
  765SOL    HW2 3059   2.762  -0.004   2.303  2.2675  0.0262 -1.2836
  765SOL     MW 3060   2.717   0.068   2.269  0.5214  0.0524  0.0965
  766SOL     OW 3061   1.864   3.040   2.166  0.3154  0.1509  0.7160
  766SOL    HW1 3062   1.922   3.088   2.104 -0.4075 -2.6140 -0.3460
  766SOL    HW2 3063   1.820   2.968   2.116 -1.5384  0.6386  1.5303
  766SOL     MW 3064   1.866   3.037   2.151 -0.0246 -0.1495  0.6833
  767SOL     OW 3065   2.646   0.645   1.952  0.0903 -0.3450 -0.0747
  767SOL    HW1 3066   2.672   0.718   2.006  1.5042 -0.5548  1.4826
  767SOL    HW2 3067   2.555   0.630   1.980 -1.2106  0.2226  0.7328
  767SOL     MW 3068   2.637   0.653   1.963  0.1052 -0.2978  0.2373
  768SOL     OW 3069   0.034   1.558   2.975 -0.8262  0.3733  0.4926
  768SOL    HW1 3070   0.039   1.506   3.057  0.1648 -0.5314 -0.9674
  768SOL    HW2 3071   0.067   1.507   2.898  1.7603 -1.9059  0.2094
  768SOL     MW 3072   0.039   1.544   2.976 -0.3542 -0.0468  0.2626
  769SOL     OW 3073   2.349   0.697   2.283  0.2064 -0.1260 -0.4542
  769SOL    HW1 3074   2.272   0.643   2.298 -1.3054  1.6439  2.0045
  769SOL    HW2 3075   2.383   0.656   2.203 -1.6899  1.9333 -0.7159
  769SOL     MW 3076   2.343   0.684   2.275 -0.2433  0.3792 -0.1643
  770SOL     OW 3077   0.092   1.673   2.614  0.3173 -0.7631  0.1471
  770SOL    HW1 3078  -0.003   1.700   2.627 -0.8937  0.3413  1.7464
  770SOL    HW2 3079   0.090   1.587   2.659 -0.6232 -3.0938  2.8459
  770SOL     MW 3080   0.079   1.665   2.621  0.0334 -0.9249  0.7142
  771SOL     OW 3081   3.010   0.637   1.947 -0.3692  0.0577 -0.0286
  771SOL    HW1 3082   2.991   0.604   1.854 -0.3650 -1.5155 -1.1388
  771SOL    HW2 3083   3.104   0.638   1.948  0.6883 -1.9026  0.6993
  771SOL     MW 3084   3.020   0.633   1.935 -0.2291 -0.4085 -0.0791
  772SOL     OW 3085   3.076   0.014   2.247 -0.0074 -0.1777  0.1144
  772SOL    HW1 3086   2.994  -0.021   2.282  1.3686  2.4722 -3.0100
  772SOL    HW2 3087   3.134  -0.055   2.222 -1.3452 -1.0249  1.8863
  772SOL     MW 3088   3.073   0.000   2.249 -0.0024  0.0602 -0.0641
  773SOL     OW 3089   2.420   2.811   2.759  0.0249  0.2289 -0.8671
  773SOL    HW1 3090   2.434   2.723   2.716  0.2704  1.7480  0.4072
  773SOL    HW2 3091   2.404   2.788   2.855  3.1487  0.9264  1.2973
  773SOL     MW 3092   2.419   2.796   2.766  0.4695  0.5214 -0.4134
  774SOL     OW 3093   2.270   1.160   1.756 -0.0605 -0.7369 -0.6375
  774SOL    HW1 3094   2.275   1.230   1.690  0.4848  1.7596  2.4485
  774SOL    HW2 3095   2.234   1.083   1.720  0.1324  1.7539  1.3220
  774SOL     MW 3096   2.266   1.159   1.743  0.0369 -0.0789  0.0282
  775SOL     OW 3097   2.262   2.958   2.395  0.6593 -0.1501 -0.0694
  775SOL    HW1 3098   2.261   3.036   2.344 -1.6310 -2.7532  0.0858
  775SOL    HW2 3099   2.342   2.920   2.371 -2.1181 -1.7667  0.5147
  775SOL     MW 3100   2.272   2.963   2.385 -0.0093 -0.7068  0.0281
  776SOL     OW 3101   0.077   1.430   0.170 -0.3433 -0.1726 -0.2132
  776SOL    HW1 3102   0.164   1.405   0.167 -2.8988 -2.5428 -0.8448
  776SOL    HW2 3103   0.021   1.356   0.158 -1.4472 -0.7192 -1.3043
  776SOL     MW 3104   0.081   1.417   0.168 -0.8261 -0.5574 -0.4405
  777SOL     OW 3105   3.001   1.104   1.696  0.5150 -0.0433  0.4192
  777SOL    HW1 3106   2.981   1.191   1.665 -0.8318  1.0774  0.4062
  777SOL    HW2 3107   2.926   1.070   1.745 -0.9633 -0.7191  2.0347
  777SOL     MW 3108   2.989   1.111   1.698  0.1423  0.0154  0.6306
  778SOL     OW 3109   2.912   0.436   2.746  0.2392  0.0302  0.4726
  778SOL    HW1 3110   2.832   0.463   2.798 -0.8284  0.3345 -0.9931
  778SOL    HW2 3111   2.934   0.513   2.689  2.7471  2.7362 -2.0849
  778SOL     MW 3112   2.904   0.450   2.745  0.4293  0.4274 -0.0582
  779SOL     OW 3113   2.102   0.600   2.263  0.0004 -0.1503  0.3134
  779SOL    HW1 3114   2.029   0.659   2.305 -0.9871 -0.4047 -0.6252
  779SOL    HW2 3115   2.119   0.533   2.340  0.3861  2.9782 -0.6968
  779SOL     MW 3116   2.095   0.599   2.279 -0.0790  0.2289  0.0563
  780SOL     OW 3117   0.124   0.185   2.759  0.4093 -0.0664  0.0930
  780SOL    HW1 3118   0.087   0.196   2.847  0.7100  1.2659 -0.4125
  780SOL    HW2 3119   0.055   0.175   2.696  0.9110  1.0134 -0.4404
  780SOL     MW 3120   0.110   0.185   2.762  0.5152  0.2519 -0.0441
  781SOL     OW 3121   3.048   1.317   2.530  0.1663  0.2774 -0.6157
  781SOL    HW1 3122   3.039   1.361   2.447 -1.0208  0.9578 -0.5121
  781SOL    HW2 3123   3.061   1.221   2.513 -1.6338 -2.8610  1.1269
  781SOL     MW 3124   3.048   1.310   2.517 -0.2278 -0.0469 -0.3721
  782SOL     OW 3125   0.761   1.491   3.072 -0.3870  0.2160 -0.6016
  782SOL    HW1 3126   0.673   1.541   3.060 -0.5010  3.7802  0.0406
  782SOL    HW2 3127   0.800   1.525   3.153 -0.0938 -0.7949  0.4841
  782SOL     MW 3128   0.754   1.502   3.081 -0.3633  0.5529 -0.3736
  783SOL     OW 3129   2.761   0.473   2.393 -0.1996  0.0516  0.2338
  783SOL    HW1 3130   2.690   0.491   2.332  1.6104  1.4278 -1.0408
  783SOL    HW2 3131   2.715   0.454   2.476  0.4027 -1.1322 -0.7628
  783SOL     MW 3132   2.745   0.473   2.396  0.1187  0.0770 -0.0659
  784SOL     OW 3133   0.206   0.823   2.882  0.1554  0.4960  0.2774
  784SOL    HW1 3134   0.164   0.873   2.956  1.4750  0.0082 -0.3419
  784SOL    HW2 3135   0.219   0.880   2.812 -1.8649 -2.4927 -2.2566
  784SOL     MW 3136   0.203   0.837   2.882  0.0629  0.0373 -0.1386
  785SOL     OW 3137   0.410   0.487   2.194  0.2649 -0.0776  0.6922
  785SOL    HW1 3138   0.427   0.547   2.121 -1.9189  1.0247 -0.6997
  785SOL    HW2 3139   0.340   0.420   2.172 -1.2845 -2.5065  0.3259
  785SOL     MW 3140   0.403   0.486   2.182 -0.2277 -0.2526  0.4602
  786SOL     OW 3141   2.000   0.406   2.935 -0.6031  0.4056  0.1310
  786SOL    HW1 3142   2.044   0.454   3.014  1.0091 -0.1952  2.9637
  786SOL    HW2 3143   2.056   0.430   2.861  1.8802  0.1899 -1.0011
  786SOL     MW 3144   2.013   0.415   2.936 -0.0627  0.2979  0.3554
  787SOL     OW 3145   2.438   0.176   2.887  0.5992 -0.7576  0.1220
  787SOL    HW1 3146   2.481   0.102   2.842 -3.6217  2.1606  0.7638
  787SOL    HW2 3147   2.496   0.217   2.954  0.2189 -0.1414  0.7070
  787SOL     MW 3148   2.451   0.171   2.890 -0.0079 -0.2912  0.2839
  788SOL     OW 3149   2.855   2.989   2.374  0.3069  0.2377  0.5038
  788SOL    HW1 3150   2.870   3.024   2.458 -1.1830  0.3633  2.7701
  788SOL    HW2 3151   2.903   2.902   2.365 -2.5607 -3.6419 -0.0298
  788SOL     MW 3152   2.863   2.982   2.384 -0.2680 -0.2576  0.7325
  789SOL     OW 3153   0.036   0.279   3.013  0.5896  0.1722 -0.4236
  789SOL    HW1 3154  -0.039   0.224   3.033  3.8427 -0.3142  1.4975
  789SOL    HW2 3155   0.006   0.368   2.993 -0.3971  3.0818 -2.3704
  789SOL     MW 3156   0.022   0.284   3.013  0.8886  0.4919 -0.4270
  790SOL     OW 3157   3.064   1.054   2.465  0.1782 -0.1647  0.0525
  790SOL    HW1 3158   3.001   1.007   2.532  0.7447  0.4804  0.1331
  790SOL    HW2 3159   3.021   1.049   2.375  1.0009 -1.2299 -2.4050
  790SOL     MW 3160   3.050   1.047   2.462  0.3615 -0.2202 -0.2611
  791SOL     OW 3161   2.634   0.387   2.624  0.0607  0.0534 -0.1546
  791SOL    HW1 3162   2.574   0.450   2.660 -0.7576 -0.8881  1.8602
  791SOL    HW2 3163   2.701   0.374   2.694 -1.5229  0.5190  0.5663
  791SOL     MW 3164   2.635   0.393   2.638 -0.2562 -0.0094  0.2064
  792SOL     OW 3165   2.336   0.302   2.378  0.2408 -0.0225  0.1152
  792SOL    HW1 3166   2.246   0.332   2.380  0.3695  0.0654  1.4831
  792SOL    HW2 3167   2.343   0.259   2.467 -0.8308 -0.9141  2.4295
  792SOL     MW 3168   2.325   0.300   2.390  0.1164 -0.1286  0.6010
  793SOL     OW 3169   1.816   1.019   1.972  0.3786  0.1430  0.3238
  793SOL    HW1 3170   1.817   1.080   1.903  1.4040 -0.2970 -0.4691
  793SOL    HW2 3171   1.898   0.964   1.959  2.9488 -3.9966  1.9165
  793SOL     MW 3172   1.827   1.020   1.961  0.8530 -0.4613  0.4293
  794SOL     OW 3173   1.409   2.278   0.185 -0.5349 -0.0812  0.5660
  794SOL    HW1 3174   1.420   2.353   0.121 -0.7849 -0.4578  0.5477
  794SOL    HW2 3175   1.484   2.286   0.242  1.2036 -0.6105 -0.7752
  794SOL     MW 3176   1.421   2.289   0.184 -0.3385 -0.2008  0.3866
  795SOL     OW 3177   2.352   0.964   2.630 -0.1533  0.4275 -0.2543
  795SOL    HW1 3178   2.310   1.038   2.674  0.9291 -1.5624 -0.3532
  795SOL    HW2 3179   2.345   0.989   2.535  0.9973  0.7697 -1.5071
  795SOL     MW 3180   2.346   0.977   2.623  0.1413  0.2101 -0.4326
  796SOL     OW 3181   0.273   0.585   2.754 -0.6942  0.3939 -0.2570
  796SOL    HW1 3182   0.238   0.664   2.789 -0.7493 -0.8062 -0.3055
  796SOL    HW2 3183   0.221   0.569   2.679  0.6618  3.0426  0.7909
  796SOL     MW 3184   0.262   0.593   2.748 -0.5225  0.5850 -0.1252
  797SOL     OW 3185   2.585   0.113   2.506 -0.1517 -0.6207 -0.6713
  797SOL    HW1 3186   2.585   0.212   2.527  0.0660  3.5283 -0.3076
  797SOL    HW2 3187   2.637   0.115   2.422 -1.2318 -0.1273  3.9348
  797SOL     MW 3188   2.592   0.127   2.498 -0.2655 -0.0082 -0.0156
  798SOL     OW 3189   2.306   0.079   2.234 -0.1698  0.2099 -0.0366
  798SOL    HW1 3190   2.318   0.154   2.297 -1.8060 -1.7013  0.5132
  798SOL    HW2 3191   2.388   0.057   2.181 -2.5034 -0.6465 -1.5867
  798SOL     MW 3192   2.319   0.086   2.235 -0.6936 -0.1552 -0.1685
  799SOL     OW 3193   2.497   2.967   0.050 -0.3018 -0.3182  0.6740
  799SOL    HW1 3194   2.464   2.895   0.000  0.7927  0.1273  1.1269
  799SOL    HW2 3195   2.428   3.037   0.048 -3.5645 -1.4294 -0.6215
  799SOL     MW 3196   2.483   2.967   0.043 -0.5879 -0.4060  0.5628
  800SOL     OW 3197   1.886   0.025   1.743 -0.0549  0.2248  0.1707
  800SOL    HW1 3198   1.848  -0.059   1.768 -0.2129  0.9537  1.7037
  800SOL    HW2 3199   1.962   0.024   1.800  0.1652  1.5635  1.4946
  800SOL     MW 3200   1.891   0.013   1.754 -0.0467  0.4976  0.5476
  801SOL     OW 3201   2.761   1.280   2.565  0.0285  0.1649  0.1958
  801SOL    HW1 3202   2.742   1.183   2.562 -1.3413 -2.3687  0.5568
  801SOL    HW2 3203   2.855   1.301   2.550 -1.5376 -1.5605 -0.1881
  801SOL     MW 3204   2.771   1.270   2.563 -0.3589 -0.3970  0.1928
  802SOL     OW 3205   2.611   1.552   2.768 -0.4468 -0.0973 -0.0855
  802SOL    HW1 3206   2.611   1.453   2.776  0.1726  0.2044  0.2030
  802SOL    HW2 3207   2.697   1.581   2.791  0.3613  0.8261  1.0824
  802SOL     MW 3208   2.622   1.543   2.772 -0.2585  0.0643  0.1067
  803SOL     OW 3209   2.268   1.402   2.011  0.5901  0.2223  0.1231
  803SOL    HW1 3210   2.257   1.390   2.106  0.5347  2.1996 -1.9418
  803SOL    HW2 3211   2.267   1.311   1.978  2.0481  1.1424  2.5476
  803SOL     MW 3212   2.266   1.388   2.019  0.7752  0.6046  0.1706
  804SOL     OW 3213   2.283   0.071   3.095 -0.2205 -0.0594  0.3992
  804SOL    HW1 3214   2.206   0.128   3.121  0.0800  0.4397  2.3691
  804SOL    HW2 3215   2.324   0.108   3.020  0.5199 -1.6951  2.0655
  804SOL     MW 3216   2.278   0.083   3.089 -0.0832 -0.2094  0.8789
  805SOL     OW 3217   2.697   1.014   2.560  0.0044 -0.2726 -0.3261
  805SOL    HW1 3218   2.656   0.968   2.490 -2.2384 -1.0127  1.3913
  805SOL    HW2 3219   2.780   0.960   2.571 -0.0993 -0.2080 -1.0699
  805SOL     MW 3220   2.703   1.001   2.552 -0.3052 -0.3618 -0.1977
  806SOL     OW 3221   2.527   0.468   2.269  0.0261 -0.6101  0.3370
  806SOL    HW1 3222   2.470   0.411   2.321  1.2084 -1.7402 -1.7888
  806SOL    HW2 3223   2.532   0.422   2.187 -1.5173 -0.6958 -0.7058
  806SOL     MW 3224   2.520   0.454   2.265 -0.0216 -0.7705 -0.0810
  807SOL     OW 3225   0.080   1.140   2.076  0.4131  0.0685  0.1635
  807SOL    HW1 3226   0.093   1.054   2.041 -1.9998 -1.6443  0.2211
  807SOL    HW2 3227  -0.003   1.116   2.122  0.9642  2.0040  0.7958
  807SOL     MW 3228   0.070   1.126   2.077  0.1675  0.0979  0.2545
  808SOL     OW 3229   2.531   3.065   2.755 -0.5448  0.1506 -0.2973
  808SOL    HW1 3230   2.470   2.989   2.753  0.2138  0.8833 -2.2060
  808SOL    HW2 3231   2.545   3.091   2.664 -0.3064 -1.2888  0.4286
  808SOL     MW 3232   2.525   3.058   2.743 -0.4133  0.0573 -0.4534
  809SOL     OW 3233   2.525   1.317   2.408  0.4203 -0.5495 -0.0947
  809SOL    HW1 3234   2.565   1.313   2.498 -2.8312  0.0100 -0.5128
  809SOL    HW2 3235   2.597   1.326   2.346  0.3542 -1.2493 -1.5371
  809SOL     MW 3236   2.540   1.318   2.412 -0.0174 -0.5680 -0.3401
  810SOL     OW 3237   2.233   1.277   2.236  0.6825 -0.2710  0.0740
  810SOL    HW1 3238   2.298   1.212   2.259 -0.3482 -1.3316 -0.4314
  810SOL    HW2 3239   2.147   1.232   2.234 -1.9875 -2.7178  1.3441
  810SOL     MW 3240   2.230   1.262   2.239  0.1943 -0.7337  0.1749
  811SOL     OW 3241   1.558   0.161   2.300  0.4198 -0.5388 -0.3807
  811SOL    HW1 3242   1.627   0.107   2.355  2.2162 -0.9194  1.1089
  811SOL    HW2 3243   1.551   0.113   2.214 -0.4979 -0.6395 -2.6655
  811SOL     MW 3244   1.566   0.148   2.296  0.5357 -0.6023 -0.4856
  812SOL     OW 3245   1.491   2.861   2.125 -0.1931 -0.2645 -0.2062
  812SOL    HW1 3246   1.590   2.863   2.104  2.8967  0.3138  0.9123
  812SOL    HW2 3247   1.483   2.830   2.219 -0.6279 -0.2427  1.9623
  812SOL     MW 3248   1.503   2.857   2.135  0.1572 -0.1854  0.2275
  813SOL     OW 3249   1.830   0.739   2.167 -0.4889 -0.0573 -0.0720
  813SOL    HW1 3250   1.799   0.653   2.202  0.1563  0.5266 -0.2901
  813SOL    HW2 3251   1.838   0.797   2.246  0.0035 -2.4722  1.4404
  813SOL     MW 3252   1.827   0.736   2.182 -0.3388 -0.2989  0.0988
  814SOL     OW 3253   2.762   1.267   1.612 -0.0820 -0.1448  0.1213
  814SOL    HW1 3254   2.752   1.192   1.671 -0.7872  1.2288 -0.9127
  814SOL    HW2 3255   2.788   1.230   1.530 -1.2968 -0.2427  3.6807
  814SOL     MW 3256   2.764   1.252   1.609 -0.3353  0.0235  0.4545
  815SOL     OW 3257   2.472   1.667   2.374 -0.0916  0.5398  0.6670
  815SOL    HW1 3258   2.415   1.597   2.399 -1.1685  1.7277 -1.1658
  815SOL    HW2 3259   2.567   1.629   2.374  3.0895  0.3559 -0.6494
  815SOL     MW 3260   2.477   1.653   2.377  0.1861  0.6723  0.2515
  816SOL     OW 3261   0.780   0.695   2.730  0.1300  0.1213 -0.2488
  816SOL    HW1 3262   0.803   0.619   2.788 -1.0864  0.8467  1.4920
  816SOL    HW2 3263   0.689   0.712   2.742  0.2084  1.0462  2.0646
  816SOL     MW 3264   0.771   0.687   2.740 -0.0201  0.3390  0.2861
  817SOL     OW 3265   3.028   1.291   1.475  0.2465  0.2499 -0.0554
  817SOL    HW1 3266   3.117   1.254   1.466 -0.4898 -1.3507 -0.1288
  817SOL    HW2 3267   3.023   1.377   1.431  2.7273  1.9928  0.7643
  817SOL     MW 3268   3.039   1.298   1.468  0.4767  0.2687  0.0431
  818SOL     OW 3269   1.938   1.067   2.678  0.2575  0.2184  0.2709
  818SOL    HW1 3270   1.931   1.141   2.622 -0.7850 -0.1352  0.4885
  818SOL    HW2 3271   1.992   1.005   2.632 -0.9943 -0.5016 -0.2073
  818SOL     MW 3272   1.944   1.068   2.665 -0.0452  0.0768  0.2365
  819SOL     OW 3273   1.874   0.230   2.460 -0.6215 -0.1632 -0.2275
  819SOL    HW1 3274   1.825   0.306   2.496  0.5921 -0.8075 -2.7613
  819SOL    HW2 3275   1.915   0.193   2.534  1.2551 -2.0448 -3.2963
  819SOL     MW 3276   1.873   0.235   2.474 -0.2138 -0.4965 -0.9667
  820SOL     OW 3277   2.457   1.728   2.630  0.6573 -0.3390  0.5320
  820SOL    HW1 3278   2.491   1.664   2.691 -1.7644  0.5054 -1.0679
  820SOL    HW2 3279   2.488   1.711   2.538 -3.7526  0.7909  0.0454
  820SOL     MW 3280   2.466   1.717   2.626 -0.2441 -0.0785  0.2567
  821SOL     OW 3281   2.594   1.353   1.973 -0.4644  0.0949 -0.0862
  821SOL    HW1 3282   2.653   1.420   1.939  0.4670 -2.4591  3.5784
  821SOL    HW2 3283   2.526   1.411   1.997  2.6909  1.5181  2.0943
  821SOL     MW 3284   2.593   1.370   1.971  0.0748 -0.0543  0.6850
  822SOL     OW 3285   2.783   2.598   1.496  0.2722 -0.6179 -0.2792
  822SOL    HW1 3286   2.834   2.638   1.570  1.3611 -0.4684  1.9335
  822SOL    HW2 3287   2.745   2.665   1.443  1.9408 -2.7230  0.1252
  822SOL     MW 3288   2.784   2.612   1.499  0.6361 -0.8759  0.0661
  823SOL     OW 3289   2.247   0.469   1.757  0.2061 -0.8539 -0.1124
  823SOL    HW1 3290   2.339   0.444   1.746 -0.8569 -0.2142 -1.9107
  823SOL    HW2 3291   2.188   0.395   1.742 -2.9876 -0.3971 -1.0832
  823SOL     MW 3292   2.251   0.456   1.754 -0.3555 -0.7093 -0.4778
  824SOL     OW 3293   2.078   1.362   2.598 -0.2137 -0.6704  0.1603
  824SOL    HW1 3294   2.160   1.370   2.549  2.4830  0.6672  3.2551
  824SOL    HW2 3295   2.064   1.447   2.632 -2.1854 -2.9230  1.9090
  824SOL     MW 3296   2.087   1.374   2.596 -0.1180 -0.7911  0.7994
  825SOL     OW 3297   2.035   2.569   0.303  0.2069 -0.3644  0.7822
  825SOL    HW1 3298   1.999   2.514   0.374 -1.8107 -1.9328  0.2271
  825SOL    HW2 3299   2.100   2.508   0.270 -0.3505 -0.1819 -1.5963
  825SOL     MW 3300   2.039   2.554   0.308 -0.1329 -0.5472  0.3951
  826SOL     OW 3301   1.912   2.443   0.511  0.5837 -0.1392 -0.4400
  826SOL    HW1 3302   1.876   2.362   0.555  0.7943 -2.7736  1.1652
  826SOL    HW2 3303   1.861   2.510   0.554  1.0938 -0.8664  0.2589
  826SOL     MW 3304   1.900   2.441   0.522  0.6788 -0.5827 -0.1360
  827SOL     OW 3305   1.958   2.215   0.912  0.4666  0.4414 -0.6539
  827SOL    HW1 3306   1.906   2.284   0.872 -0.7268 -0.9459  2.3982
  827SOL    HW2 3307   1.881   2.152   0.919  0.2632  2.0681  0.5358
  827SOL     MW 3308   1.941   2.216   0.908  0.2823  0.4730 -0.0942
  828SOL     OW 3309   0.036   2.698   0.619  0.0530  0.3092  0.5166
  828SOL    HW1 3310   0.131   2.683   0.627 -0.0722  1.1073  2.7106
  828SOL    HW2 3311   0.009   2.698   0.526  0.3378 -0.9783  0.4906
  828SOL     MW 3312   0.045   2.696   0.608  0.0741  0.2446  0.8026
  829SOL     OW 3313   2.959   2.926   1.267  0.0944 -0.3798 -0.0819
  829SOL    HW1 3314   2.884   2.925   1.206  1.8092  0.2314 -0.9156
  829SOL    HW2 3315   3.007   2.854   1.226  3.1326 -0.0117  2.6834
  829SOL     MW 3316   2.955   2.917   1.254  0.7215 -0.2506  0.1730
  830SOL     OW 3317   2.502   2.849   2.016 -0.3306  0.0970 -0.4266
  830SOL    HW1 3318   2.415   2.871   1.978  1.9571  0.1304 -2.3855
  830SOL    HW2 3319   2.562   2.845   1.941 -2.8601  0.2029 -0.1049
  830SOL     MW 3320   2.498   2.851   2.001 -0.3625  0.1154 -0.6426
  831SOL     OW 3321   2.426   2.384   1.295  0.1294  0.1064 -0.6780
  831SOL    HW1 3322   2.387   2.329   1.366 -1.5512  0.7288  0.5461
  831SOL    HW2 3323   2.510   2.342   1.266 -2.1408 -0.7552 -1.4090
  831SOL     MW 3324   2.432   2.371   1.300 -0.3919  0.0748 -0.6129
  832SOL     OW 3325   2.426   2.215   1.910  0.5207  0.3516 -0.0973
  832SOL    HW1 3326   2.428   2.303   1.964 -0.5068  0.3245  2.1140
  832SOL    HW2 3327   2.521   2.191   1.900  0.1768 -0.1160  3.1257
  832SOL     MW 3328   2.439   2.223   1.916  0.3397  0.2863  0.6197
  833SOL     OW 3329   1.788   2.423   0.881 -0.0679 -0.4267 -0.0718
  833SOL    HW1 3330   1.701   2.378   0.880 -3.1707  1.1946  1.3285
  833SOL    HW2 3331   1.788   2.492   0.958 -2.2955  2.2183  3.1447
  833SOL     MW 3332   1.776   2.426   0.891 -0.7712  0.1362  0.5373
  834SOL     OW 3333   2.234   2.487   0.563 -0.3781 -0.0273 -0.3155
  834SOL    HW1 3334   2.227   2.417   0.625  0.8106  1.6204 -0.7374
  834SOL    HW2 3335   2.272   2.457   0.475  0.7763 -1.9641 -4.0722
  834SOL     MW 3336   2.238   2.474   0.560 -0.0689 -0.0654 -0.8668
  835SOL     OW 3337   1.764   2.611   0.681  0.2194  0.2595  0.4118
  835SOL    HW1 3338   1.755   2.539   0.736 -0.2845  0.0195  0.8555
  835SOL    HW2 3339   1.833   2.677   0.718  1.0758  0.4979  2.7593
  835SOL     MW 3340   1.772   2.611   0.693  0.2659  0.2593  0.7801
  836SOL     OW 3341   1.979   2.145   1.621  0.0797 -0.7689 -0.1065
  836SOL    HW1 3342   2.061   2.166   1.667  0.7178  0.2819  0.5862
  836SOL    HW2 3343   1.935   2.226   1.596  0.3463  0.4958  0.2149
  836SOL     MW 3344   1.984   2.159   1.624  0.1991 -0.4634  0.0273
  837SOL     OW 3345   2.114   0.186   0.716 -0.3504 -0.0047  0.1905
  837SOL    HW1 3346   2.030   0.220   0.683  0.3386 -0.7040 -2.0005
  837SOL    HW2 3347   2.136   0.133   0.641 -2.9113  2.2467 -0.7821
  837SOL     MW 3348   2.106   0.183   0.701 -0.5974  0.2001 -0.2269
  838SOL     OW 3349   2.950   2.103   0.892  0.0900 -0.5644  0.2250
  838SOL    HW1 3350   2.904   2.055   0.962 -0.3297 -0.3829 -2.4792
  838SOL    HW2 3351   2.985   2.033   0.839 -1.4653 -1.9980 -0.6240
  838SOL     MW 3352   2.949   2.088   0.894 -0.1706 -0.7296 -0.2438
  839SOL     OW 3353   1.530   2.362   0.918 -0.4803 -0.1237 -0.1388
  839SOL    HW1 3354   1.515   2.454   0.934  1.6286  0.6373 -1.9775
  839SOL    HW2 3355   1.556   2.311   0.997 -0.7579 -0.5541  1.2803
  839SOL     MW 3356   1.532   2.367   0.931 -0.2387 -0.0801 -0.1941
  840SOL     OW 3357   2.310   2.111   2.413  0.2150 -0.3169  0.3025
  840SOL    HW1 3358   2.280   2.177   2.344  1.2173 -0.8311 -0.2742
  840SOL    HW2 3359   2.394   2.137   2.441 -2.0230 -1.8536 -1.5260
  840SOL     MW 3360   2.317   2.123   2.407  0.0520 -0.5875 -0.0148
  841SOL     OW 3361   2.195   2.415   0.132  0.5988 -0.0537 -0.2759
  841SOL    HW1 3362   2.260   2.425   0.058 -0.5938 -0.8638 -1.5957
  841SOL    HW2 3363   2.121   2.370   0.093 -1.0122 -2.7634  2.5071
  841SOL     MW 3364   2.194   2.410   0.117  0.2289 -0.5181 -0.0828
  842SOL     OW 3365   2.667   2.005   1.581 -0.4730  0.0090 -0.3980
  842SOL    HW1 3366   2.641   1.909   1.584  0.1153  1.2283  2.0193
  842SOL    HW2 3367   2.608   2.039   1.521  2.5979  0.1142  2.8867
  842SOL     MW 3368   2.656   1.996   1.573  0.0098  0.1837  0.3543
  843SOL     OW 3369   2.660   2.821   1.812  0.0519  0.6788 -0.1362
  843SOL    HW1 3370   2.727   2.754   1.827 -1.7826  0.9282 -1.0103
  843SOL    HW2 3371   2.599   2.779   1.757 -0.4622  2.5324  0.7999
  843SOL     MW 3372   2.661   2.807   1.807 -0.2579  0.9563 -0.1280
  844SOL     OW 3373   2.660   2.277   1.215  0.5624  0.8223 -0.0503
  844SOL    HW1 3374   2.680   2.341   1.146  0.0405  0.7810 -0.2279
  844SOL    HW2 3375   2.720   2.302   1.278 -2.0319 -0.9238 -1.0238
  844SOL     MW 3376   2.670   2.289   1.214  0.1512  0.5865 -0.2022
  845SOL     OW 3377   2.855   2.462   0.283 -0.5396 -0.0677 -0.4665
  845SOL    HW1 3378   2.813   2.376   0.264 -0.6639 -0.5866  0.0893
  845SOL    HW2 3379   2.881   2.481   0.374 -0.9680 -0.0184  0.3208
  845SOL     MW 3380   2.853   2.453   0.292 -0.6126 -0.1296 -0.2893
  846SOL     OW 3381   1.506   2.849   0.795  0.0117  0.0165  0.6412
  846SOL    HW1 3382   1.587   2.892   0.828  0.5906 -0.5351  2.1661
  846SOL    HW2 3383   1.432   2.904   0.820  1.4376 -0.2854 -0.9033
  846SOL     MW 3384   1.507   2.862   0.803  0.2762 -0.0961  0.6386
  847SOL     OW 3385   2.501   1.936   0.168  0.0859 -0.1516  0.3069
  847SOL    HW1 3386   2.554   1.863   0.204  3.0067 -0.8088  0.8485
  847SOL    HW2 3387   2.455   1.894   0.098  4.2215  1.8241  2.2033
  847SOL     MW 3388   2.502   1.921   0.163  1.0169  0.0224  0.6286
  848SOL     OW 3389   2.518   2.060   1.345  0.2603  0.6115 -0.2552
  848SOL    HW1 3390   2.553   2.114   1.271 -2.1839 -0.6284 -0.4508
  848SOL    HW2 3391   2.487   1.983   1.303  0.8543 -0.0619  2.3718
  848SOL     MW 3392   2.519   2.057   1.330  0.0162  0.3591  0.0656
  849SOL     OW 3393   1.985   2.731   0.751  0.3797  0.0467  0.3195
  849SOL    HW1 3394   2.007   2.681   0.829 -0.5208 -0.5482 -0.6529
  849SOL    HW2 3395   2.064   2.732   0.699 -2.5665  1.5714 -1.2673
  849SOL     MW 3396   1.998   2.724   0.755 -0.1278  0.1694 -0.0182
  850SOL     OW 3397   2.267   1.922   1.716  1.1484  0.0835  0.8342
  850SOL    HW1 3398   2.201   1.892   1.646  0.0039  0.3152 -2.2303
  850SOL    HW2 3399   2.235   2.012   1.730 -0.7187 -0.5148  0.2917
  850SOL     MW 3400   2.254   1.930   1.708  0.7511  0.0351  0.3583
  851SOL     OW 3401   2.343   2.373   0.357  0.5253  0.2857 -0.3731
  851SOL    HW1 3402   2.300   2.383   0.271  1.1575 -1.1373 -0.9345
  851SOL    HW2 3403   2.430   2.419   0.347 -0.6304  0.9465  0.4958
  851SOL     MW 3404   2.349   2.381   0.344  0.4563  0.1851 -0.3325
  852SOL     OW 3405   2.336   2.106   0.295  0.1426  0.0462  0.1929
  852SOL    HW1 3406   2.372   2.192   0.316 -1.8658 -0.0066  3.6724
  852SOL    HW2 3407   2.396   2.046   0.241  1.3894 -2.6692  2.9613
  852SOL     MW 3408   2.349   2.109   0.290  0.0421 -0.3190  1.0173
  853SOL     OW 3409   2.487   2.479   1.977 -0.5823  0.4347 -0.1359
  853SOL    HW1 3410   2.486   2.524   1.895 -1.3366  0.2018  2.2334
  853SOL    HW2 3411   2.576   2.471   2.016 -2.2221  1.3349  0.6021
  853SOL     MW 3412   2.499   2.484   1.971 -0.8982  0.5228  0.2741
  854SOL     OW 3413   2.840   2.325   0.787  0.6660 -0.1303  0.6244
  854SOL    HW1 3414   2.776   2.281   0.733  0.2619 -1.6590  0.0651
  854SOL    HW2 3415   2.878   2.241   0.824 -0.9606 -0.4062 -1.0505
  854SOL     MW 3416   2.837   2.308   0.785  0.3981 -0.3684  0.3296
  855SOL     OW 3417   2.665   2.251   0.371  0.0992  0.7049 -0.0673
  855SOL    HW1 3418   2.640   2.298   0.445 -0.4885 -1.7485 -0.7817
  855SOL    HW2 3419   2.738   2.199   0.399 -2.4281  0.3030 -1.0464
  855SOL     MW 3420   2.672   2.250   0.385 -0.3118  0.3282 -0.2907
  856SOL     OW 3421   2.136   1.897   0.170 -0.3820 -0.6407 -0.0822
  856SOL    HW1 3422   2.056   1.899   0.220  0.5875 -1.0039 -2.0529
  856SOL    HW2 3423   2.182   1.968   0.216 -0.2518  1.8016 -1.2957
  856SOL     MW 3424   2.131   1.906   0.183 -0.2369 -0.3664 -0.5023
  857SOL     OW 3425   2.496   1.993   0.520 -0.1537 -0.5779  0.0986
  857SOL    HW1 3426   2.450   2.045   0.462  0.1553  2.3521 -2.4551
  857SOL    HW2 3427   2.456   1.903   0.527 -2.2942  0.5014 -0.8742
  857SOL     MW 3428   2.485   1.988   0.513 -0.3953 -0.0489 -0.3667
  858SOL     OW 3429   2.887   2.633   1.753 -0.1807 -0.0935  0.2884
  858SOL    HW1 3430   2.979   2.653   1.764  0.7336 -0.9867  0.5733
  858SOL    HW2 3431   2.881   2.539   1.782 -1.6132  0.6337  0.5078
  858SOL     MW 3432   2.898   2.623   1.758 -0.2491 -0.1154  0.3550
  859SOL     OW 3433   2.087   2.586   0.957  0.2155  0.4521 -0.2179
  859SOL    HW1 3434   2.073   2.534   1.037  1.7168 -1.3746  0.7532
  859SOL    HW2 3435   2.147   2.540   0.898  1.0168 -0.0825 -2.3692
  859SOL     MW 3436   2.093   2.573   0.960  0.5193  0.1406 -0.3736
  860SOL     OW 3437   2.674   2.591   0.120  0.2009 -0.5643 -0.2109
  860SOL    HW1 3438   2.717   2.543   0.192 -1.5666  1.2146  0.3569
  860SOL    HW2 3439   2.707   2.681   0.095  1.6320  1.3301 -1.5387
  860SOL     MW 3440   2.684   2.597   0.126  0.1565 -0.0796 -0.3112
  861SOL     OW 3441   1.610   2.131   1.129 -0.2670  0.2553 -0.1495
  861SOL    HW1 3442   1.632   2.217   1.159 -0.1542  0.2105 -0.8791
  861SOL    HW2 3443   1.540   2.097   1.183  0.4035  0.3682  1.0708
  861SOL     MW 3444   1.604   2.138   1.140 -0.1636  0.2643 -0.0848
  862SOL     OW 3445   2.463   1.792   1.574 -0.1616 -0.2075  0.2000
  862SOL    HW1 3446   2.422   1.824   1.652 -0.2157 -1.4185 -1.3385
  862SOL    HW2 3447   2.416   1.832   1.501 -0.1726  2.4112  2.7157
  862SOL     MW 3448   2.452   1.802   1.574 -0.1702 -0.0217  0.3290
  863SOL     OW 3449   3.018   1.818   1.029  0.7245 -0.1834 -0.4387
  863SOL    HW1 3450   3.097   1.813   1.086 -2.4641 -0.5701  0.7415
  863SOL    HW2 3451   2.964   1.870   1.088  0.8796  0.8033 -3.2566
  863SOL     MW 3452   3.021   1.824   1.044  0.3243 -0.1042 -0.6548
  864SOL     OW 3453   3.056   1.847   0.764  0.0704  0.1862  0.1739
  864SOL    HW1 3454   3.027   1.818   0.854  0.0636 -0.1787  0.2116
  864SOL    HW2 3455   3.017   1.775   0.706 -1.0956 -2.8076 -2.3803
  864SOL     MW 3456   3.047   1.833   0.768 -0.0844 -0.2569 -0.1582
  865SOL     OW 3457   2.542   2.193   0.009 -0.7965  0.2911 -0.2745
  865SOL    HW1 3458   2.570   2.137   0.078 -2.3309  0.5568 -1.4704
  865SOL    HW2 3459   2.493   2.142  -0.053  0.0846  1.8767 -0.3138
  865SOL     MW 3460   2.539   2.179   0.010 -0.8827  0.5354 -0.4375
  866SOL     OW 3461   2.670   2.378   1.681 -0.1342  0.1473  0.3285
  866SOL    HW1 3462   2.648   2.286   1.684 -2.7317  0.9093  0.8377
  866SOL    HW2 3463   2.703   2.393   1.592  1.5105 -2.9733 -2.1765
  866SOL     MW 3464   2.671   2.368   1.670 -0.2599 -0.1639  0.0652
  867SOL     OW 3465   0.036   2.746   1.816 -0.2551  0.2684  0.3530
  867SOL    HW1 3466   0.037   2.737   1.917 -1.3011  1.7000 -1.6298
  867SOL    HW2 3467  -0.011   2.827   1.791  1.2712 -1.9701 -1.9758
  867SOL     MW 3468   0.030   2.756   1.826 -0.1917  0.1619 -0.2159
  868SOL     OW 3469   2.820   2.601   0.530  0.3074  0.1625  0.1851
  868SOL    HW1 3470   2.735   2.558   0.547  0.4053 -0.0701  0.8622
  868SOL    HW2 3471   2.807   2.677   0.471 -0.1304 -0.9452 -1.1955
  868SOL     MW 3472   2.807   2.605   0.524  0.2625 -0.0143  0.0923
  869SOL     OW 3473   2.076   2.336   1.119 -0.6206 -0.2960 -0.5491
  869SOL    HW1 3474   2.168   2.331   1.093 -1.8183 -0.0421 -1.2854
  869SOL    HW2 3475   2.042   2.295   1.037 -2.1783 -3.1642  0.7167
  869SOL     MW 3476   2.084   2.330   1.105 -0.9841 -0.6409 -0.4793
  870SOL     OW 3477   2.163   0.037   0.462 -0.5074  0.1850  0.0900
  870SOL    HW1 3478   2.228   0.084   0.403 -2.6106 -0.5305  1.7423
  870SOL    HW2 3479   2.172  -0.054   0.428  1.1185  0.6482 -2.9235
  870SOL     MW 3480   2.173   0.031   0.449 -0.5704  0.1517 -0.0896
  871SOL     OW 3481   2.511   2.088   0.959  0.1939 -0.0383  0.5634
  871SOL    HW1 3482   2.469   2.023   0.905  0.3856  0.4653 -3.4024
  871SOL    HW2 3483   2.447   2.150   0.988 -0.7809 -0.3318 -0.0401
  871SOL     MW 3484   2.497   2.088   0.956  0.0906 -0.0106 -0.0395
  872SOL     OW 3485   1.998   2.540   1.540  0.5932  0.1727  0.0733
  872SOL    HW1 3486   1.938   2.555   1.614 -0.3090  0.1737  1.3173
  872SOL    HW2 3487   1.975   2.452   1.508 -0.6456  1.8585  1.0097
  872SOL     MW 3488   1.987   2.530   1.545  0.3107  0.3952  0.3610
  873SOL     OW 3489   2.924   2.023   1.943 -0.1508 -0.2983  0.5022
  873SOL    HW1 3490   2.920   2.082   2.020 -2.8494  2.4129 -0.6858
  873SOL    HW2 3491   3.018   2.010   1.916  1.3732 -2.1269 -1.2357
  873SOL     MW 3492   2.936   2.029   1.949 -0.3058 -0.1819  0.1161
  874SOL     OW 3493   2.299   1.443   2.452  0.2415 -0.5093  0.4109
  874SOL    HW1 3494   2.251   1.423   2.365 -2.8380 -1.6894 -1.2173
  874SOL    HW2 3495   2.391   1.426   2.434  0.4617 -2.8531  1.1858
  874SOL     MW 3496   2.305   1.438   2.438 -0.1358 -0.9742  0.2983
  875SOL     OW 3497   2.330   2.306   1.049  0.1508 -0.6871  0.3318
  875SOL    HW1 3498   2.364   2.374   0.992  2.4214 -2.3736 -0.0570
  875SOL    HW2 3499   2.369   2.338   1.132  2.0815 -0.8837  0.7794
  875SOL     MW 3500   2.340   2.319   1.053  0.7051 -0.9355  0.3396
  876SOL     OW 3501   3.043   2.267   1.290 -0.4237  0.3026 -0.1187
  876SOL    HW1 3502   3.089   2.312   1.219  2.9525 -0.7643 -0.8261
  876SOL    HW2 3503   3.099   2.306   1.357  0.2051 -1.1223 -0.5748
  876SOL     MW 3504   3.056   2.278   1.289  0.1047 -0.0261 -0.2722
  877SOL     OW 3505   3.058   2.716   0.344  0.8105  0.6446 -0.5347
  877SOL    HW1 3506   3.101   2.802   0.345  1.3294 -0.6169 -0.4565
  877SOL    HW2 3507   3.068   2.691   0.253  0.1669  0.9411  0.8832
  877SOL     MW 3508   3.065   2.724   0.332  0.7940  0.5173 -0.3373
  878SOL     OW 3509   2.367   1.827   1.296 -0.1654 -0.6365  0.4295
  878SOL    HW1 3510   2.303   1.748   1.298 -4.5378  1.4428  0.8941
  878SOL    HW2 3511   2.461   1.798   1.274  2.3529  0.9942 -1.1102
  878SOL     MW 3512   2.371   1.813   1.293 -0.4101 -0.1470  0.2876
  879SOL     OW 3513   2.686   2.435   0.976  0.0911  0.2900 -0.5177
  879SOL    HW1 3514   2.728   2.519   0.997 -0.1963 -0.2404 -0.1500
  879SOL    HW2 3515   2.747   2.383   0.928  1.5817 -1.3827  0.4941
  879SOL     MW 3516   2.700   2.439   0.972  0.2499 -0.0007 -0.3357
  880SOL     OW 3517   2.633   2.175   0.702 -0.4189 -0.2160  0.8547
  880SOL    HW1 3518   2.583   2.172   0.781  0.0458  1.4264 -1.6654
  880SOL    HW2 3519   2.574   2.134   0.639  2.1941 -0.4905 -3.6578
  880SOL     MW 3520   2.619   2.169   0.704 -0.0128 -0.0355 -0.0732
  881SOL     OW 3521   2.908   2.731   0.771 -0.1911 -0.0781  0.1023
  881SOL    HW1 3522   2.866   2.683   0.693  1.2424  0.1771 -3.6659
  881SOL    HW2 3523   3.001   2.710   0.743  1.2883  0.3586 -0.8072
  881SOL     MW 3524   2.915   2.722   0.757  0.1932  0.0132 -0.5149
  882SOL     OW 3525   2.242   2.892   1.948  0.2133  0.2565 -0.0454
  882SOL    HW1 3526   2.230   2.881   1.851  2.2410  0.3823  3.2173
  882SOL    HW2 3527   2.179   2.844   2.001 -2.5902  1.6219  0.4911
  882SOL     MW 3528   2.232   2.884   1.942  0.1109  0.4533  0.4559
  883SOL     OW 3529   2.305   2.190   1.449  0.3913  0.3715 -0.1484
  883SOL    HW1 3530   2.375   2.146   1.399 -0.8044  0.4817  0.1907
  883SOL    HW2 3531   2.230   2.152   1.400  0.9960  0.4629 -1.5949
  883SOL     MW 3532   2.304   2.179   1.436  0.3133  0.3981 -0.2945
  884SOL     OW 3533   1.952   1.780   1.048 -0.0496 -0.6428  0.1928
  884SOL    HW1 3534   1.896   1.852   1.029 -0.6379 -3.7207  0.9958
  884SOL    HW2 3535   2.045   1.823   1.052  1.8505 -0.7200 -1.9475
  884SOL     MW 3536   1.957   1.795   1.046  0.1235 -1.0590  0.0164
  885SOL     OW 3537   2.899   2.384   1.853  0.2015  0.1527 -0.4605
  885SOL    HW1 3538   2.989   2.356   1.845 -1.8546 -1.2627  0.5998
  885SOL    HW2 3539   2.856   2.340   1.783 -0.9079  0.2913  3.0096
  885SOL     MW 3540   2.905   2.374   1.843 -0.2161 -0.0157  0.1373
  886SOL     OW 3541   2.831   2.330   1.439  0.3671  0.0482  0.1380
  886SOL    HW1 3542   2.908   2.319   1.378 -0.2011 -0.7650  1.5430
  886SOL    HW2 3543   2.840   2.423   1.462  1.9038  0.0072 -0.3652
  886SOL     MW 3544   2.842   2.341   1.434  0.4949 -0.0645  0.2569
  887SOL     OW 3545   2.267   2.624   1.534  0.5808 -0.4335  0.6748
  887SOL    HW1 3546   2.296   2.645   1.444 -0.2903  1.2992 -0.7137
  887SOL    HW2 3547   2.179   2.582   1.526  0.4643  0.3927 -1.2015
  887SOL     MW 3548   2.259   2.621   1.521  0.4505 -0.0959  0.2440
  888SOL     OW 3549   1.883   2.055   1.371 -0.5701  0.3521  0.0398
  888SOL    HW1 3550   1.960   2.080   1.317  1.1393 -1.6730  2.7512
  888SOL    HW2 3551   1.918   2.046   1.459 -1.7813 -0.1501  1.4008
  888SOL     MW 3552   1.898   2.057   1.376 -0.5044  0.0186  0.5771
  889SOL     OW 3553   2.306   2.037   2.071 -0.3338  0.6060 -0.1210
  889SOL    HW1 3554   2.372   1.993   2.123  0.3130 -0.3607 -4.9258
  889SOL    HW2 3555   2.349   2.112   2.029 -0.0991  0.0457 -1.8409
  889SOL     MW 3556   2.320   2.041   2.072 -0.2175  0.4045 -0.9818
  890SOL     OW 3557   0.071   2.348   0.113  0.0714  0.5583 -0.0598
  890SOL    HW1 3558   0.016   2.424   0.124 -0.4405  0.8101  0.3352
  890SOL    HW2 3559   0.077   2.317   0.205 -0.8964  0.9057  0.0275
  890SOL     MW 3560   0.065   2.354   0.127 -0.1238  0.6373  0.0039
  891SOL     OW 3561   3.031   1.985   1.278  0.2625  0.3144 -0.2315
  891SOL    HW1 3562   3.119   1.966   1.318 -2.5075  0.1903  1.7723
  891SOL    HW2 3563   3.011   2.083   1.266 -1.4186 -0.3372  2.9573
  891SOL     MW 3564   3.040   1.996   1.282 -0.3248  0.2120  0.4536
  892SOL     OW 3565   2.427   2.324   2.740  0.0812  0.0395 -0.0534
  892SOL    HW1 3566   2.417   2.234   2.781 -1.3201 -1.0831 -2.5926
  892SOL    HW2 3567   2.526   2.340   2.762 -0.7272  0.3343  1.8585
  892SOL     MW 3568   2.439   2.314   2.748 -0.2103 -0.0697 -0.1362
  893SOL     OW 3569   1.626   2.364   1.253 -0.2277 -0.0098 -0.5570
  893SOL    HW1 3570   1.558   2.420   1.279 -1.6661  1.6766 -1.7210
  893SOL    HW2 3571   1.707   2.376   1.304  0.2738 -2.2430 -1.0460
  893SOL     MW 3572   1.628   2.373   1.263 -0.3513 -0.0819 -0.7751
  894SOL     OW 3573   2.788   1.872   0.479 -0.3361  0.7027 -0.7804
  894SOL    HW1 3574   2.688   1.883   0.477 -2.6649 -1.9495 -0.1810
  894SOL    HW2 3575   2.808   1.826   0.391 -1.3907  0.6805 -0.2570
  894SOL     MW 3576   2.777   1.867   0.467 -0.7825  0.3498 -0.6323
  895SOL     OW 3577   2.115   2.101   1.260  0.1086 -0.8385 -0.8238
  895SOL    HW1 3578   2.115   2.187   1.208  0.7162  0.0485 -3.8791
  895SOL    HW2 3579   2.151   2.033   1.199 -0.2570  1.4490  0.4362
  895SOL     MW 3580   2.120   2.103   1.245  0.1405 -0.4197 -1.0607
  896SOL     OW 3581   2.226   2.780   1.070  0.4821  0.1794  0.3740
  896SOL    HW1 3582   2.304   2.751   1.121 -0.4961 -0.3548 -1.1595
  896SOL    HW2 3583   2.173   2.705   1.033 -1.1310 -3.4377 -3.5021
  896SOL     MW 3584   2.229   2.766   1.072  0.1402 -0.3683 -0.3397
  897SOL     OW 3585   2.981   2.927   0.079  0.3105  0.2375 -0.7129
  897SOL    HW1 3586   3.044   2.877   0.040  0.1702  1.4835 -0.5367
  897SOL    HW2 3587   2.901   2.906   0.032 -1.2515  2.3697  0.2705
  897SOL     MW 3588   2.979   2.917   0.067  0.0859  0.6832 -0.5599
  898SOL     OW 3589   2.083   0.203   1.424  0.1554  0.5793  0.3548
  898SOL    HW1 3590   2.074   0.113   1.463  1.0170 -0.2614  0.9051
  898SOL    HW2 3591   2.097   0.182   1.327  3.1544  0.5228 -0.3682
  898SOL     MW 3592   2.083   0.188   1.417  0.6648  0.4609  0.3320
  899SOL     OW 3593   2.916   2.980   0.637  0.1529  0.4717  0.1875
  899SOL    HW1 3594   2.894   2.918   0.709 -1.6013  0.5934  0.4127
  899SOL    HW2 3595   2.840   3.042   0.640 -2.7132 -2.2070  0.5765
  899SOL     MW 3596   2.903   2.980   0.647 -0.4567  0.1343  0.2686
  900SOL     OW 3597   0.109   2.397   1.099 -0.0868 -0.0089  0.5532
  900SOL    HW1 3598   0.062   2.473   1.061 -0.4873  1.7495 -1.3057
  900SOL    HW2 3599   0.094   2.325   1.034  0.0313 -1.1192  2.5011
  900SOL     MW 3600   0.101   2.398   1.086 -0.1241  0.0766  0.5649
  901SOL     OW 3601   1.748   2.869   1.765 -0.0132 -1.1434  0.2125
  901SOL    HW1 3602   1.813   2.795   1.753  0.0015  1.0049  1.8493
  901SOL    HW2 3603   1.677   2.852   1.703  1.2833 -5.3280 -0.2494
  901SOL     MW 3604   1.747   2.857   1.755  0.1598 -1.4121  0.3675
  902SOL     OW 3605   2.690   2.105   1.827  0.0678  0.3480  0.0891
  902SOL    HW1 3606   2.687   2.062   1.745  0.6082 -0.9362  2.2813
  902SOL    HW2 3607   2.764   2.065   1.868  0.5806  0.1099  0.4552
  902SOL     MW 3608   2.699   2.094   1.821  0.2067  0.1472  0.4266
  903SOL     OW 3609   1.589   2.782   0.553  0.4223 -0.6056  0.1078
  903SOL    HW1 3610   1.657   2.716   0.591  1.6646 -0.8302  1.4897
  903SOL    HW2 3611   1.547   2.833   0.624  2.0888 -0.6979 -0.9658
  903SOL     MW 3612   1.592   2.780   0.567  0.8061 -0.6474  0.1485
  904SOL     OW 3613   2.475   2.629   1.721  0.4695  0.6470 -0.2859
  904SOL    HW1 3614   2.391   2.618   1.684 -0.2228  2.2184 -0.0902
  904SOL    HW2 3615   2.528   2.569   1.666 -3.2290 -0.0458 -0.2497
  904SOL     MW 3616   2.471   2.620   1.709 -0.1098  0.7629 -0.2553
  905SOL     OW 3617   2.305   2.565   2.180 -0.2242 -0.3272 -0.4177
  905SOL    HW1 3618   2.364   2.549   2.103  0.6727 -1.3501  1.1615
  905SOL    HW2 3619   2.258   2.480   2.189 -1.1860 -0.1044  2.2987
  905SOL     MW 3620   2.307   2.552   2.171 -0.2327 -0.4327  0.1491
  906SOL     OW 3621   2.449   2.499   0.887  0.6757 -0.4565  0.0782
  906SOL    HW1 3622   2.537   2.474   0.913 -0.0265  1.1900 -4.4422
  906SOL    HW2 3623   2.454   2.601   0.862  0.0780  0.8002  0.1093
  906SOL     MW 3624   2.461   2.509   0.887  0.5042 -0.0735 -0.5141
  907SOL     OW 3625   2.640   2.783   1.329 -0.1522 -0.0688  0.1368
  907SOL    HW1 3626   2.647   2.851   1.394 -0.8819 -0.6721  0.6575
  907SOL    HW2 3627   2.644   2.834   1.245 -0.3685  1.3306 -0.8283
  907SOL     MW 3628   2.642   2.799   1.326 -0.2770  0.0363  0.0782
  908SOL     OW 3629   2.741   2.363  -0.002  0.0292 -0.1141  0.3190
  908SOL    HW1 3630   2.672   2.301   0.010  0.6380 -1.1904 -1.5820
  908SOL    HW2 3631   2.709   2.450   0.021  1.2406  0.9039 -1.4611
  908SOL     MW 3632   2.727   2.366   0.003  0.2693 -0.1218 -0.1667
  909SOL     OW 3633   1.701   0.119   1.140  0.0702 -0.2535  0.7265
  909SOL    HW1 3634   1.694   0.186   1.072  0.9107 -0.5995 -1.7647
  909SOL    HW2 3635   1.748   0.156   1.219 -0.7382 -1.6259  0.5446
  909SOL     MW 3636   1.707   0.132   1.142  0.0744 -0.4803  0.3738
  910SOL     OW 3637   2.347   1.763   0.468 -0.3474 -0.0349  0.1909
  910SOL    HW1 3638   2.300   1.681   0.462  0.9990 -0.7744 -1.4304
  910SOL    HW2 3639   2.323   1.810   0.387 -2.1127  0.5619  0.5788
  910SOL     MW 3640   2.337   1.758   0.457 -0.4027 -0.0537  0.0281
  911SOL     OW 3641   2.231   2.219   1.729 -0.1777 -0.4453 -0.1690
  911SOL    HW1 3642   2.310   2.209   1.784 -0.8377 -1.6254  1.1800
  911SOL    HW2 3643   2.255   2.201   1.637  0.2634 -1.6257 -0.0942
  911SOL     MW 3644   2.244   2.215   1.724 -0.2066 -0.7567  0.0189
  912SOL     OW 3645   2.934   1.931   1.536  0.4352 -0.1124  0.3980
  912SOL    HW1 3646   2.962   1.965   1.456  0.0808 -0.6869 -0.5451
  912SOL    HW2 3647   2.845   1.969   1.549 -0.4958 -0.5089  2.4744
  912SOL     MW 3648   2.926   1.940   1.527  0.2656 -0.2405  0.5475
  913SOL     OW 3649   2.626   3.041   0.363  0.3136 -0.0211  0.1170
  913SOL    HW1 3650   2.703   2.990   0.379 -1.0448  2.2945  0.9891
  913SOL    HW2 3651   2.549   2.989   0.340 -2.4184 -0.6831 -0.9392
  913SOL     MW 3652   2.626   3.027   0.362 -0.2261  0.1971  0.0927
  914SOL     OW 3653   2.690   1.756   3.064  0.2873 -0.1234  0.5481
  914SOL    HW1 3654   2.715   1.822   2.992 -0.6787  2.5776  0.7133
  914SOL    HW2 3655   2.603   1.781   3.082  4.2135  1.2451  0.5562
  914SOL     MW 3656   2.682   1.768   3.057  0.6779  0.4135  0.5710
  915SOL     OW 3657   1.680   0.238   0.235 -0.5230 -0.0706  0.2874
  915SOL    HW1 3658   1.737   0.178   0.281 -1.3708 -0.1924  1.6440
  915SOL    HW2 3659   1.612   0.177   0.203 -0.8352  3.5782  0.7594
  915SOL     MW 3660   1.678   0.222   0.237 -0.6761  0.3948  0.5286
  916SOL     OW 3661   1.814   2.098   1.915  0.2544 -0.0827 -0.3368
  916SOL    HW1 3662   1.833   2.192   1.927  0.0096 -0.6238 -1.8051
  916SOL    HW2 3663   1.849   2.087   1.827 -1.3475 -0.3247 -0.5115
  916SOL     MW 3664   1.821   2.109   1.905  0.0108 -0.1860 -0.5536
  917SOL     OW 3665   2.558   2.193   2.526 -0.0356 -0.0627 -0.3036
  917SOL    HW1 3666   2.512   2.260   2.572  0.6899 -1.9203  0.1927
  917SOL    HW2 3667   2.627   2.241   2.484 -0.0842  1.2654 -1.3747
  917SOL     MW 3668   2.561   2.208   2.527  0.0537 -0.1326 -0.3794
  918SOL     OW 3669   2.003   1.598   2.712 -0.2427  0.2038 -0.4125
  918SOL    HW1 3670   1.924   1.612   2.657  1.8116 -0.7047 -0.9776
  918SOL    HW2 3671   2.067   1.648   2.662  0.3363 -1.4689  0.7515
  918SOL     MW 3672   2.001   1.606   2.698  0.1048 -0.1368 -0.3335
  919SOL     OW 3673   3.096   2.311   2.268 -0.2479  0.5261  0.3357
  919SOL    HW1 3674   3.025   2.253   2.236  0.7742 -2.2219  1.1366
  919SOL    HW2 3675   3.147   2.328   2.190  0.1764  0.7254 -0.6983
  919SOL     MW 3676   3.093   2.306   2.254 -0.0570  0.1899  0.3050
  920SOL     OW 3677   2.747   2.858   3.078  0.1487  0.3787  0.4441
  920SOL    HW1 3678   2.688   2.900   3.140 -1.7461 -0.0076  0.0117
  920SOL    HW2 3679   2.693   2.805   3.015 -0.2842  0.3800 -0.3684
  920SOL     MW 3680   2.732   2.857   3.078 -0.1584  0.3279  0.2799
  921SOL     OW 3681   2.447   2.578   2.624 -0.1874  0.3382 -0.0826
  921SOL    HW1 3682   2.537   2.582   2.585  4.9865  0.9263  3.9217
  921SOL    HW2 3683   2.447   2.494   2.681  2.5489  0.4794  3.5005
  921SOL     MW 3684   2.459   2.568   2.627  0.8563  0.4345  0.9185
  922SOL     OW 3685   2.046   2.854   0.311 -0.0260  0.5917 -0.4410
  922SOL    HW1 3686   2.010   2.865   0.224  2.6858 -1.9871 -1.1752
  922SOL    HW2 3687   2.031   2.759   0.322  0.6976  3.4084  2.1328
  922SOL     MW 3688   2.039   2.843   0.301  0.4273  0.6231 -0.1983
  923SOL     OW 3689   2.160   2.826   1.688 -0.1876 -0.1056  0.2622
  923SOL    HW1 3690   2.195   2.756   1.632  0.8990  1.8635  1.1599
  923SOL    HW2 3691   2.140   2.897   1.630  2.0135 -0.3852  1.9087
  923SOL     MW 3692   2.162   2.826   1.673  0.2462  0.1173  0.5979
  924SOL     OW 3693   1.184   2.617   2.491 -0.3456  0.1040  0.1399
  924SOL    HW1 3694   1.257   2.674   2.495  0.8108 -3.7648  0.3867
  924SOL    HW2 3695   1.191   2.558   2.566 -1.2469  3.7365  1.2307
  924SOL     MW 3696   1.195   2.617   2.502 -0.3119  0.0728  0.3164
  925SOL     OW 3697   2.970   0.191   2.646  0.2326 -0.5389 -0.1399
  925SOL    HW1 3698   2.936   0.190   2.549  0.3610 -0.0200  0.0833
  925SOL    HW2 3699   2.964   0.277   2.678  2.7276  0.2067 -0.7359
  925SOL     MW 3700   2.965   0.202   2.637  0.5787 -0.3721 -0.1891
  926SOL     OW 3701   2.728   2.390   2.089 -0.0665 -0.1581  0.1498
  926SOL    HW1 3702   2.782   2.448   2.147  0.6305 -0.3527 -1.0682
  926SOL    HW2 3703   2.797   2.370   2.029 -0.0101 -0.1648 -2.6535
  926SOL     MW 3704   2.744   2.395   2.088  0.0329 -0.1846 -0.3807
  927SOL     OW 3705   2.351   0.150   0.275 -0.5897 -0.0398 -0.5008
  927SOL    HW1 3706   2.452   0.156   0.266  2.4027  0.2399 -1.6709
  927SOL    HW2 3707   2.320   0.136   0.188  0.2814  0.9018 -0.2088
  927SOL     MW 3708   2.360   0.149   0.262 -0.0799  0.1214 -0.6166
  928SOL     OW 3709   2.152   2.431   1.918  0.5392 -0.0001 -0.7519
  928SOL    HW1 3710   2.182   2.520   1.887  1.9979 -0.3823  1.0530
  928SOL    HW2 3711   2.207   2.370   1.868  0.3893 -0.5283 -1.3588
  928SOL     MW 3712   2.163   2.435   1.907  0.7118 -0.1202 -0.5938
  929SOL     OW 3713   2.738   2.389   2.443  0.4499  0.0195  0.0287
  929SOL    HW1 3714   2.795   2.417   2.378 -0.2882  2.5713  1.7416
  929SOL    HW2 3715   2.798   2.345   2.503  3.0712  3.1653 -0.9027
  929SOL     MW 3716   2.753   2.387   2.443  0.6983  0.7712  0.1318
  930SOL     OW 3717   2.019   2.852   2.688 -0.3603  0.2726 -0.2335
  930SOL    HW1 3718   2.034   2.786   2.755  2.1305 -0.7616  0.9748
  930SOL    HW2 3719   2.109   2.887   2.661  1.2714  0.7016 -2.4271
  930SOL     MW 3720   2.033   2.848   2.693  0.1836  0.1928 -0.3635
  931SOL     OW 3721   3.015   2.772   2.326  0.1185 -0.5263  0.4313
  931SOL    HW1 3722   3.066   2.789   2.407  0.5329  0.8426  2.6477
  931SOL    HW2 3723   3.081   2.764   2.263  2.2107  1.4343  5.2982
  931SOL     MW 3724   3.030   2.773   2.328  0.4492 -0.0870  1.3659
  932SOL     OW 3725   2.851   1.965   2.579  0.2834 -0.6363  0.1344
  932SOL    HW1 3726   2.940   1.987   2.539 -0.6604 -1.0133 -1.7904
  932SOL    HW2 3727   2.792   1.970   2.504  0.8211  0.7485 -0.2001
  932SOL     MW 3728   2.855   1.969   2.564  0.2298 -0.5034 -0.1637
  933SOL     OW 3729   2.029   2.881   2.302  0.2517  0.1608 -0.7843
  933SOL    HW1 3730   2.118   2.908   2.329  0.1495 -2.6624  0.4258
  933SOL    HW2 3731   1.984   2.952   2.253 -0.3517  0.2845 -1.7293
  933SOL     MW 3732   2.035   2.894   2.299  0.1586 -0.1954 -0.7493
  934SOL     OW 3733   2.017   2.682   2.480  0.1663  0.5078  0.5951
  934SOL    HW1 3734   2.027   2.741   2.559  1.6114 -0.4592  2.2422
  934SOL    HW2 3735   2.013   2.742   2.403 -1.4891 -0.8417  1.3106
  934SOL     MW 3736   2.018   2.698   2.481  0.1386  0.2022  0.9068
  935SOL     OW 3737   2.680   1.542   1.793 -0.0527 -0.5704 -0.7151
  935SOL    HW1 3738   2.779   1.525   1.773  1.5260 -0.9955 -3.4129
  935SOL    HW2 3739   2.629   1.531   1.713  0.6220 -1.3791 -0.6010
  935SOL     MW 3740   2.686   1.539   1.780  0.2446 -0.7332 -1.0560
  936SOL     OW 3741   2.988   2.219   3.056  0.0189  0.0776 -0.3805
  936SOL    HW1 3742   3.046   2.253   3.126  0.3190  0.2788 -0.3920
  936SOL    HW2 3743   2.904   2.256   3.087 -2.9160  1.0042  0.4397
  936SOL     MW 3744   2.985   2.228   3.069 -0.3288  0.2264 -0.2738
  937SOL     OW 3745   1.928   2.130   2.614 -0.3302  0.0404  0.2594
  937SOL    HW1 3746   2.011   2.093   2.643 -1.1279 -0.4240 -0.6238
  937SOL    HW2 3747   1.916   2.105   2.525 -0.6104 -1.4029  0.5296
  937SOL     MW 3748   1.937   2.122   2.606 -0.4724 -0.2113  0.1786
  938SOL     OW 3749   2.260   1.796   1.956  0.1847 -0.0640 -0.0455
  938SOL    HW1 3750   2.257   1.814   1.861  1.5997 -1.2438 -0.8367
  938SOL    HW2 3751   2.267   1.884   1.988  2.4612 -0.7255 -1.6476
  938SOL     MW 3752   2.260   1.810   1.948  0.6718 -0.3070 -0.3613
  939SOL     OW 3753   2.725   1.972   2.323  0.1121  0.3801  0.5647
  939SOL    HW1 3754   2.754   1.894   2.273 -2.7420  1.0673 -0.0339
  939SOL    HW2 3755   2.628   1.963   2.301 -2.7250 -2.3703 -0.7872
  939SOL     MW 3756   2.716   1.961   2.313 -0.6388  0.1078  0.3074
  940SOL     OW 3757   2.291   0.163   2.638 -0.2042  0.0002 -0.2116
  940SOL    HW1 3758   2.298   0.064   2.633 -2.0841 -1.7764 -0.1817
  940SOL    HW2 3759   2.321   0.171   2.723  0.9617 -3.0027 -1.9648
  940SOL     MW 3760   2.296   0.151   2.649 -0.2984 -0.6304 -0.4390
  941SOL     OW 3761   0.139   2.411   2.045 -0.6473  0.7993  0.2388
  941SOL    HW1 3762   0.233   2.431   2.028  2.6452  0.7509  0.1501
  941SOL    HW2 3763   0.131   2.334   1.983 -0.0293  2.2589  3.8856
  941SOL     MW 3764   0.150   2.403   2.034 -0.1313  0.9855  0.7082
  942SOL     OW 3765   2.879   2.160   2.186 -0.6965 -0.0722  0.0499
  942SOL    HW1 3766   2.814   2.230   2.168 -2.2591 -1.9303 -1.4307
  942SOL    HW2 3767   2.830   2.099   2.235  2.3939 -0.8149 -1.2696
  942SOL     MW 3768   2.864   2.161   2.190 -0.4949 -0.4154 -0.3196
  943SOL     OW 3769   0.289   2.108   2.279  0.0620  0.1769  0.1539
  943SOL    HW1 3770   0.261   2.153   2.361  0.2341  2.0994 -1.9343
  943SOL    HW2 3771   0.383   2.089   2.301  0.3090  0.5849 -0.3596
  943SOL     MW 3772   0.298   2.112   2.293  0.1173  0.4844 -0.1894
  944SOL     OW 3773   2.077   2.692   2.099  0.0703  0.0804 -0.0535
  944SOL    HW1 3774   2.165   2.648   2.120  0.7013 -1.6668 -0.1677
  944SOL    HW2 3775   2.039   2.751   2.177  0.1437  0.3156 -3.0141
  944SOL     MW 3776   2.083   2.694   2.112  0.1633 -0.1191 -0.4592
  945SOL     OW 3777   2.638   2.707   2.887  0.0767 -0.1575 -0.2326
  945SOL    HW1 3778   2.642   2.618   2.864  1.8586  0.3175  0.6819
  945SOL    HW2 3779   2.598   2.756   2.814  0.5337 -1.6476  0.4777
  945SOL     MW 3780   2.634   2.702   2.874  0.3721 -0.2914 -0.0182
  946SOL     OW 3781   2.479   2.766   2.285  0.3440 -0.9843  0.5883
  946SOL    HW1 3782   2.498   2.816   2.199 -0.7126 -1.8723  1.1744
  946SOL    HW2 3783   2.429   2.692   2.264  4.0271 -2.8620 -1.6899
  946SOL     MW 3784   2.475   2.763   2.271  0.6905 -1.3492  0.3650
  947SOL     OW 3785   1.906   0.066   0.323 -0.0405 -0.0052  0.1283
  947SOL    HW1 3786   1.870  -0.027   0.337  1.2033 -4.7171 -2.0674
  947SOL    HW2 3787   1.984   0.079   0.379 -0.5596  3.5349 -2.7291
  947SOL     MW 3788   1.911   0.055   0.332  0.0551 -0.1598 -0.5384
  948SOL     OW 3789   1.836   3.076   2.675  0.0390  0.1886  0.4421
  948SOL    HW1 3790   1.876   2.989   2.666  0.9637 -0.1276 -0.1070
  948SOL    HW2 3791   1.784   3.090   2.593 -0.0937  1.1503 -0.5259
  948SOL     MW 3792   1.835   3.067   2.663  0.1435  0.2738  0.2420
  949SOL     OW 3793   2.468   1.920   2.262  0.1127 -0.3787  0.4170
  949SOL    HW1 3794   2.471   1.828   2.298  1.9025  1.7987 -0.5628
  949SOL    HW2 3795   2.428   1.979   2.328  1.4969 -0.8200  2.9398
  949SOL     MW 3796   2.463   1.916   2.275  0.5314 -0.1496  0.6206
  950SOL     OW 3797   2.270   2.459   2.954 -0.0539 -0.7326 -0.0174
  950SOL    HW1 3798   2.331   2.440   2.886  1.3639  0.2598  2.0875
  950SOL    HW2 3799   2.196   2.498   2.909 -0.7063  2.1364 -1.3994
  950SOL     MW 3800   2.268   2.462   2.939  0.0471 -0.2231  0.0779
  951SOL     OW 3801   3.001   2.093   2.813  0.2972 -0.2834 -0.4396
  951SOL    HW1 3802   2.994   2.137   2.899 -1.9375 -0.6785  2.0939
  951SOL    HW2 3803   3.089   2.053   2.804  0.1994  0.0446 -0.6636
  951SOL     MW 3804   3.012   2.093   2.823 -0.0106 -0.2922 -0.1349
  952SOL     OW 3805   3.006   1.651   2.144  0.0233 -0.1479 -0.0131
  952SOL    HW1 3806   2.923   1.705   2.126 -0.2776  0.1007 -1.5210
  952SOL    HW2 3807   3.056   1.709   2.203  1.3757  0.2304 -1.0528
  952SOL     MW 3808   3.002   1.666   2.149  0.1621 -0.0652 -0.3492
  953SOL     OW 3809   1.895   1.781   2.924 -0.8332 -0.0436 -0.2652
  953SOL    HW1 3810   1.830   1.742   2.983  1.3517  0.8676 -2.2610
  953SOL    HW2 3811   1.924   1.709   2.859 -0.8231 -1.8351  1.7850
  953SOL     MW 3812   1.890   1.766   2.923 -0.5436 -0.1598 -0.2580
  954SOL     OW 3813   2.392   2.081   2.896 -0.6073  0.0313  0.3653
  954SOL    HW1 3814   2.309   2.059   2.866  1.4569  0.6732 -0.8584
  954SOL    HW2 3815   2.462   2.048   2.835  0.8794 -0.2757  2.3795
  954SOL     MW 3816   2.390   2.074   2.884 -0.1388  0.0755  0.4696
  955SOL     OW 3817   1.535   1.583   2.584  0.9098  0.2829 -0.1449
  955SOL    HW1 3818   1.510   1.591   2.490 -1.2271  0.5224 -2.4540
  955SOL    HW2 3819   1.620   1.624   2.578 -0.6956 -2.1167 -0.5445
  955SOL     MW 3820   1.543   1.589   2.571  0.4161 -0.0021 -0.5023
  956SOL     OW 3821   2.675   2.425   2.831 -0.1556  0.1798  0.0054
  956SOL    HW1 3822   2.716   2.410   2.915 -1.9051 -0.6186 -0.9466
  956SOL    HW2 3823   2.744   2.403   2.769  2.0163  1.9704 -0.4904
  956SOL     MW 3824   2.689   2.420   2.834 -0.0999  0.3107 -0.1856
  957SOL     OW 3825   2.330   2.835   0.361 -0.7400 -0.2511  0.1971
  957SOL    HW1 3826   2.260   2.845   0.293  1.1547  1.5579  0.2377
  957SOL    HW2 3827   2.287   2.805   0.445  2.4657 -0.8752  0.8702
  957SOL     MW 3828   2.315   2.833   0.363 -0.0670 -0.0947  0.2913
  958SOL     OW 3829   2.073   2.622   2.821  1.0252  0.2437  0.0843
  958SOL    HW1 3830   2.054   2.540   2.769 -0.6183  0.0119  1.0905
  958SOL    HW2 3831   1.994   2.618   2.871  2.8066  0.5397 -0.8712
  958SOL     MW 3832   2.060   2.611   2.821  1.0434  0.2522  0.0910
  959SOL     OW 3833   2.497   2.602   0.337 -0.0361  0.0956  0.0549
  959SOL    HW1 3834   2.537   2.606   0.256  1.3676 -1.1669 -0.3239
  959SOL    HW2 3835   2.443   2.685   0.337 -0.5205  3.2414 -0.5053
  959SOL     MW 3836   2.495   2.614   0.327  0.0852  0.3441 -0.0690
  960SOL     OW 3837   1.910   2.259   2.238  0.1509  0.5282  0.1331
  960SOL    HW1 3838   1.930   2.165   2.240 -2.6181 -2.1580 -0.0852
  960SOL    HW2 3839   1.870   2.273   2.328  2.1799  1.1748  1.2902
  960SOL     MW 3840   1.907   2.249   2.250  0.0533  0.2591  0.2570
  961SOL     OW 3841   2.204   2.319   2.272 -0.2137 -0.1005 -0.4172
  961SOL    HW1 3842   2.118   2.304   2.227  0.7594  0.8436 -0.8078
  961SOL    HW2 3843   2.179   2.391   2.342  0.5872  1.2708  2.8742
  961SOL     MW 3844   2.189   2.327   2.275  0.0203  0.2050 -0.0345
  962SOL     OW 3845   2.132   2.021   2.745  0.3369  0.1208 -0.1095
  962SOL    HW1 3846   2.105   2.004   2.830 -2.3318  0.0983 -3.8660
  962SOL    HW2 3847   2.161   1.937   2.697  1.1950 -0.9280 -2.3943
  962SOL     MW 3848   2.133   2.008   2.750  0.0980 -0.0205 -0.9066
  963SOL     OW 3849   1.835   2.551   2.061 -0.1550  0.2106  0.5414
  963SOL    HW1 3850   1.919   2.537   2.104 -3.4830 -1.1369  1.8944
  963SOL    HW2 3851   1.828   2.473   2.002 -1.4647 -0.1161  0.1941
  963SOL     MW 3852   1.846   2.539   2.059 -0.7669 -0.0103  0.6741
  964SOL     OW 3853   1.765   1.952   2.735 -0.2596  0.6873  0.4158
  964SOL    HW1 3854   1.831   2.004   2.691  2.7579 -0.1038 -0.5936
  964SOL    HW2 3855   1.821   1.892   2.782 -1.1446  0.9350 -0.9622
  964SOL     MW 3856   1.781   1.951   2.735  0.0218  0.6156  0.1008
  965SOL     OW 3857   2.213   2.751   0.588  0.2393 -0.3335 -0.1158
  965SOL    HW1 3858   2.227   2.659   0.566  1.5509  1.5662 -0.6639
  965SOL    HW2 3859   2.289   2.775   0.644  0.7276 -0.6357  0.1549
  965SOL     MW 3860   2.225   2.742   0.593  0.4768 -0.1227 -0.1524
  966SOL     OW 3861   2.683   2.669   2.464 -0.3345 -0.1981 -0.0485
  966SOL    HW1 3862   2.644   2.733   2.404  0.8318  1.1849  0.2874
  966SOL    HW2 3863   2.704   2.592   2.412  0.2148 -0.5831 -0.1863
  966SOL     MW 3864   2.681   2.667   2.449 -0.1081 -0.0664 -0.0224
  967SOL     OW 3865   2.762   3.042   2.878 -0.1457 -0.1278 -0.2538
  967SOL    HW1 3866   2.761   2.987   2.960  1.6598 -0.8228 -0.5290
  967SOL    HW2 3867   2.665   3.051   2.864 -2.2228 -0.0051 -0.5094
  967SOL     MW 3868   2.749   3.036   2.887 -0.1815 -0.2033 -0.3238
  968SOL     OW 3869   2.983   2.617   2.887 -0.5048  0.0968  0.0001
  968SOL    HW1 3870   2.916   2.654   2.829  0.6770 -3.3719  2.5276
  968SOL    HW2 3871   3.018   2.539   2.849 -0.9815  0.9454 -0.0086
  968SOL     MW 3872   2.979   2.611   2.875 -0.4118 -0.2489  0.3324
  969SOL     OW 3873   1.619   2.130   1.640  0.2195  0.3608  0.2113
  969SOL    HW1 3874   1.676   2.057   1.657  0.0341  3.5133 -1.5301
  969SOL    HW2 3875   1.569   2.135   1.721  1.0012  1.8953 -0.2125
  969SOL     MW 3876   1.620   2.121   1.653  0.2982  0.9792 -0.0744
  970SOL     OW 3877   1.685   1.802   1.910 -0.0758  0.5814  1.1084
  970SOL    HW1 3878   1.733   1.729   1.947 -1.2214 -2.9768  0.8221
  970SOL    HW2 3879   1.600   1.755   1.906 -0.8845 -2.3287  1.2554
  970SOL     MW 3880   1.680   1.786   1.915 -0.3337 -0.2720  1.0900
  971SOL     OW 3881   1.743   0.003   2.418 -0.5069  1.0344 -0.4703
  971SOL    HW1 3882   1.787  -0.038   2.349  0.0722  0.6590  1.2129
  971SOL    HW2 3883   1.789   0.086   2.425 -0.5195 -1.1189  0.9330
  971SOL     MW 3884   1.755   0.008   2.409 -0.4322  0.7008 -0.0631
  972SOL     OW 3885   0.266   2.839   2.489  0.2180  0.3156 -0.4751
  972SOL    HW1 3886   0.328   2.763   2.486  1.9932  1.6145 -0.2419
  972SOL    HW2 3887   0.316   2.919   2.514  0.9206  0.2814  0.8513
  972SOL     MW 3888   0.281   2.840   2.492  0.5450  0.4825 -0.2693
  973SOL     OW 3889   2.542   3.102   2.082  0.0447 -0.2432  0.3302
  973SOL    HW1 3890   2.526   3.010   2.062  3.3903 -2.3154  1.0763
  973SOL    HW2 3891   2.568   3.134   1.991  0.1965 -1.6515  0.3154
  973SOL     MW 3892   2.543   3.094   2.068  0.5061 -0.7024  0.4267
  974SOL     OW 3893   2.023   0.202   2.689 -0.3425  0.2032  0.2352
  974SOL    HW1 3894   2.114   0.176   2.673 -1.8548 -0.9423  2.8419
  974SOL    HW2 3895   2.012   0.170   2.775 -0.7978  0.2507 -1.1309
  974SOL     MW 3896   2.034   0.195   2.698 -0.6021  0.0583  0.3989
  975SOL     OW 3897   2.207   2.490   2.479 -0.1377  0.0903  0.5259
  975SOL    HW1 3898   2.297   2.514   2.510  1.1538 -2.2438 -0.6738
  975SOL    HW2 3899   2.157   2.574   2.487  1.0843  1.5813  1.8030
  975SOL     MW 3900   2.212   2.505   2.484  0.1939 -0.0210  0.5361
  976SOL     OW 3901   0.224   0.359   1.735  0.2033  0.1043 -0.0888
  976SOL    HW1 3902   0.290   0.286   1.760  0.2959 -1.3091  0.5592
  976SOL    HW2 3903   0.146   0.309   1.687 -2.3806 -1.7168  0.3909
  976SOL     MW 3904   0.222   0.342   1.732 -0.1254 -0.3225  0.0600
  977SOL     OW 3905   1.760   2.639   2.523 -0.0141  0.2212  0.0859
  977SOL    HW1 3906   1.738   2.546   2.503 -1.4979 -1.0943  1.6788
  977SOL    HW2 3907   1.847   2.662   2.501 -1.8298  0.2874 -0.1470
  977SOL     MW 3908   1.768   2.630   2.518 -0.4494  0.0564  0.2653
   3.10000   3.10000   3.10000
