977 TIP4P/2005f water molecules t=   0.13000 step= 130
 3908
    1SOL     OW    1   0.211   0.748   0.031  0.7031 -0.4231  0.5551
    1SOL    HW1    2   0.204   0.782  -0.060  2.3331 -2.5917  0.2451
    1SOL    HW2    3   0.219   0.650   0.016  0.9302 -0.9798 -2.0818
    1SOL     MW    4   0.211   0.740   0.017  0.9481 -0.7826  0.1663
    2SOL     OW    5   0.353   3.035   1.136  0.9956 -0.2209  0.3931
    2SOL    HW1    6   0.405   3.103   1.095  1.2857 -2.3778 -2.5279
    2SOL    HW2    7   0.264   3.071   1.146 -0.9111 -1.1297  0.8602
    2SOL     MW    8   0.348   3.048   1.132  0.7823 -0.6254  0.0694
    3SOL     OW    9   2.748   0.385   0.870 -0.4100 -0.1039  0.2215
    3SOL    HW1   10   2.748   0.479   0.836 -1.1350  2.1200  1.4652
    3SOL    HW2   11   2.741   0.397   0.970 -0.4497  1.2085 -1.4586
    3SOL     MW   12   2.747   0.399   0.879 -0.5109  0.3627  0.1639
    4SOL     OW   13   0.006   1.723   0.678  0.1383  1.0683 -0.6282
    4SOL    HW1   14  -0.050   1.783   0.625  1.2455 -0.3869  0.7741
    4SOL    HW2   15   0.046   1.667   0.615  0.2729  0.8655  0.7698
    4SOL     MW   16   0.004   1.724   0.663  0.3022  0.8495 -0.2587
    5SOL     OW   17   1.671   1.449   0.510  0.0005  0.4472  0.1969
    5SOL    HW1   18   1.744   1.425   0.571  1.4265  0.1830 -0.7002
    5SOL    HW2   19   1.589   1.418   0.547  1.0290  0.8416 -2.8769
    5SOL     MW   20   1.669   1.442   0.523  0.3244  0.4644 -0.3270
    6SOL     OW   21   0.845   1.352   0.573 -0.2542  0.6295 -0.0104
    6SOL    HW1   22   0.773   1.358   0.635  0.1574  0.9526  2.3140
    6SOL    HW2   23   0.894   1.269   0.603  1.6123  0.3603  0.6934
    6SOL     MW   24   0.842   1.342   0.585  0.0464  0.6366  0.3891
    7SOL     OW   25   1.951   1.054   3.072 -0.2885 -0.1742  0.5039
    7SOL    HW1   26   1.991   1.089   2.994  0.3609  2.9368  1.6534
    7SOL    HW2   27   2.003   1.108   3.130 -0.2284  1.1029 -0.6832
    7SOL     MW   28   1.963   1.066   3.070 -0.1949  0.4048  0.4990
    8SOL     OW   29   1.004   1.306   1.071 -0.7581 -0.2382 -0.0685
    8SOL    HW1   30   1.093   1.284   1.106  4.0303  0.7914  1.3205
    8SOL    HW2   31   0.960   1.220   1.060 -0.3031 -0.1266  0.7889
    8SOL     MW   32   1.010   1.292   1.074 -0.0663 -0.0876  0.2279
    9SOL     OW   33   0.996   0.506   1.424  0.1343  0.0036 -0.2463
    9SOL    HW1   34   0.955   0.421   1.425  0.6523  1.9102 -1.3386
    9SOL    HW2   35   1.063   0.502   1.491 -0.4329 -1.7405  0.2668
    9SOL     MW   36   1.000   0.494   1.433  0.1278  0.0250 -0.3227
   10SOL     OW   37   0.304   0.872   0.449 -0.2016  0.2466  0.9310
   10SOL    HW1   38   0.394   0.904   0.416  0.5954 -1.4695 -1.2655
   10SOL    HW2   39   0.278   0.930   0.519 -1.7341  0.8784 -0.0259
   10SOL     MW   40   0.312   0.884   0.454 -0.2986  0.1035  0.5149
   11SOL     OW   41   0.921   1.087   1.539 -0.0209  0.0304 -0.3291
   11SOL    HW1   42   0.924   1.073   1.633 -1.5688 -2.0384 -1.6502
   11SOL    HW2   43   0.848   1.028   1.502  0.0708  1.0343 -0.7067
   11SOL     MW   44   0.911   1.077   1.546 -0.2131 -0.1101 -0.5532
   12SOL     OW   45   3.063   1.087   0.843 -0.0752  0.7467 -0.1428
   12SOL    HW1   46   3.118   1.134   0.901  0.5786 -0.5701 -1.5104
   12SOL    HW2   47   3.021   1.157   0.783  0.3006  3.3062 -2.6538
   12SOL     MW   48   3.064   1.102   0.843  0.0606  0.9107 -0.6545
   13SOL     OW   49   1.909   1.421   1.440 -0.0954  0.4988  0.0609
   13SOL    HW1   50   1.915   1.375   1.357  0.2460  0.6452 -1.1265
   13SOL    HW2   51   1.882   1.508   1.419 -0.5590  0.5780 -0.4393
   13SOL     MW   52   1.906   1.426   1.426 -0.1115  0.5286 -0.1618
   14SOL     OW   53   0.593   0.371   1.762 -0.2495 -0.6739  0.2283
   14SOL    HW1   54   0.604   0.288   1.706  0.4348 -0.1177 -1.9230
   14SOL    HW2   55   0.673   0.378   1.809 -1.0154 -0.2363  0.0524
   14SOL     MW   56   0.605   0.361   1.760 -0.2603 -0.5428 -0.0787
   15SOL     OW   57   2.002   0.562   0.917 -0.4251 -0.0732 -0.1003
   15SOL    HW1   58   2.037   0.546   1.005 -0.7146 -0.7714 -0.4196
   15SOL    HW2   59   2.070   0.542   0.853 -0.2998  3.5318 -0.7323
   15SOL     MW   60   2.016   0.557   0.920 -0.4468  0.3103 -0.2258
   16SOL     OW   61   0.170   1.781   0.266  0.6651  0.4310  0.2991
   16SOL    HW1   62   0.253   1.738   0.300  2.6161  1.3439 -0.6009
   16SOL    HW2   63   0.182   1.869   0.285 -0.1069 -0.0989 -0.0201
   16SOL     MW   64   0.183   1.787   0.273  0.8206  0.4816  0.1382
   17SOL     OW   65   1.147   0.785   1.479 -0.8773  0.3721  0.2124
   17SOL    HW1   66   1.172   0.811   1.572 -0.4785 -0.2864  1.2653
   17SOL    HW2   67   1.064   0.740   1.479  0.4173  0.1663  0.3595
   17SOL     MW   68   1.139   0.783   1.491 -0.6539  0.2581  0.3708
   18SOL     OW   69   3.097   1.560   0.374  0.1879  0.1707 -0.0108
   18SOL    HW1   70   3.123   1.638   0.323 -0.2468 -0.1683  0.2682
   18SOL    HW2   71   3.099   1.487   0.317 -0.8653 -1.7944  1.3624
   18SOL     MW   72   3.101   1.560   0.360 -0.0084 -0.1333  0.2072
   19SOL     OW   73   0.071   1.242   1.029 -0.2310  0.3749  0.0620
   19SOL    HW1   74   0.119   1.317   0.982  3.1618 -0.8353  0.4796
   19SOL    HW2   75  -0.012   1.285   1.062  2.0084 -0.3302  0.9272
   19SOL     MW   76   0.066   1.257   1.027  0.5121  0.1222  0.2312
   20SOL     OW   77   0.499   2.206   1.311  0.3967 -0.1693 -0.0126
   20SOL    HW1   78   0.456   2.138   1.249 -1.1345  0.3446 -0.2905
   20SOL    HW2   79   0.427   2.245   1.368 -0.0439  0.8079  0.1429
   20SOL     MW   80   0.484   2.202   1.310  0.1366  0.0274 -0.0287
   21SOL     OW   81   0.564   0.905   0.349  0.1566  0.3853 -0.2547
   21SOL    HW1   82   0.616   0.838   0.402  1.7035 -2.2321  1.4837
   21SOL    HW2   83   0.527   0.864   0.269 -1.9652 -0.5096 -1.6187
   21SOL     MW   84   0.566   0.891   0.345  0.0808 -0.0781 -0.2053
   22SOL     OW   85   1.579   0.612   1.147 -0.3654 -0.0956 -0.5417
   22SOL    HW1   86   1.613   0.591   1.056  1.0101  0.7561  0.3680
   22SOL    HW2   87   1.492   0.650   1.134  1.5968 -1.1727 -0.5982
   22SOL     MW   88   1.572   0.614   1.133  0.0750 -0.1253 -0.4291
   23SOL     OW   89   3.057   0.723   0.710 -0.1808  0.8254  0.2708
   23SOL    HW1   90   3.122   0.654   0.723 -0.1764  0.5315  0.3895
   23SOL    HW2   91   3.116   0.799   0.705 -1.0234 -3.6345  1.2143
   23SOL     MW   92   3.073   0.724   0.711 -0.2914  0.1982  0.4110
   24SOL     OW   93   2.090   2.225   0.011  0.1471 -0.8625  0.4055
   24SOL    HW1   94   2.075   2.205   0.104 -2.2932 -1.5721  0.0330
   24SOL    HW2   95   2.111   2.140  -0.029 -1.6392  0.3526  2.0626
   24SOL     MW   96   2.091   2.211   0.018 -0.4106 -0.7958  0.5750
   25SOL     OW   97   0.181   1.452   0.589  0.1522 -0.5024 -0.1756
   25SOL    HW1   98   0.122   1.489   0.527 -2.2942 -3.0017  1.7058
   25SOL    HW2   99   0.258   1.437   0.541  1.9920  1.1795  0.2625
   25SOL     MW  100   0.183   1.455   0.575  0.0722 -0.6103  0.1304
   26SOL     OW  101   2.025   1.013   0.408  0.5759 -0.4598  0.2639
   26SOL    HW1  102   1.944   1.034   0.455  3.4092  1.6217  0.3945
   26SOL    HW2  103   2.044   1.082   0.335 -0.4251 -0.5883 -1.5489
   26SOL     MW  104   2.017   1.025   0.405  0.8177 -0.2021  0.0420
   27SOL     OW  105   1.988   1.462   0.243 -0.5284  0.1809  0.0111
   27SOL    HW1  106   1.900   1.428   0.265 -1.9059  0.3291  0.5474
   27SOL    HW2  107   2.027   1.479   0.332 -0.9614 -0.9548  0.3395
   27SOL     MW  108   1.982   1.460   0.257 -0.7672  0.0506  0.1252
   28SOL     OW  109   0.342   0.953   1.922  0.4930 -0.0550 -0.2645
   28SOL    HW1  110   0.297   0.899   1.992  0.2728 -2.1582  2.6549
   28SOL    HW2  111   0.386   0.898   1.862  2.1990  0.2718 -0.3131
   28SOL     MW  112   0.342   0.939   1.924  0.6890 -0.2894  0.1143
   29SOL     OW  113   0.220   1.423   0.899 -0.4529  0.3953 -0.1895
   29SOL    HW1  114   0.214   1.514   0.935 -1.7718 -0.4762 -3.4674
   29SOL    HW2  115   0.187   1.423   0.813  0.0880 -0.7119 -1.0159
   29SOL     MW  116   0.215   1.435   0.893 -0.5555  0.1342 -0.7310
   30SOL     OW  117   0.917   1.011   1.152  0.4194  0.1279  0.5127
   30SOL    HW1  118   0.844   1.061   1.192 -0.0006  1.2108 -2.6632
   30SOL    HW2  119   0.996   1.016   1.208  0.5768  0.9917 -0.4509
   30SOL     MW  120   0.918   1.019   1.164  0.3848  0.3847 -0.0334
   31SOL     OW  121   0.484   0.250   0.205 -0.4208  0.3502  0.4608
   31SOL    HW1  122   0.493   0.172   0.268 -0.3757  2.4500  0.9873
   31SOL    HW2  123   0.478   0.221   0.111  0.1457 -1.2688  0.7151
   31SOL     MW  124   0.484   0.236   0.201 -0.3401  0.4136  0.5638
   32SOL     OW  125   2.683   1.038   1.115 -0.1504  0.4620 -0.6602
   32SOL    HW1  126   2.636   0.956   1.110  2.4373  0.2053  1.2641
   32SOL    HW2  127   2.772   1.012   1.087  0.7997 -2.1010  0.9440
   32SOL     MW  128   2.689   1.024   1.111  0.3164  0.0899 -0.1946
   33SOL     OW  129   1.792   1.276   0.346 -0.0687 -0.2940  0.0855
   33SOL    HW1  130   1.773   1.181   0.373  0.8009 -1.0238 -0.1117
   33SOL    HW2  131   1.741   1.335   0.404  1.0398 -1.4524 -0.5797
   33SOL     MW  132   1.783   1.271   0.357  0.1923 -0.5431 -0.0283
   34SOL     OW  133   1.274   1.843   1.128 -0.0607  0.0169  0.2322
   34SOL    HW1  134   1.192   1.895   1.126 -3.8973 -3.1362  0.5945
   34SOL    HW2  135   1.339   1.870   1.193  1.0213  0.1162 -1.2485
   34SOL     MW  136   1.272   1.853   1.136 -0.4241 -0.3860  0.0846
   35SOL     OW  137   0.364   0.042   1.878  0.1004 -0.4190 -0.4155
   35SOL    HW1  138   0.427   0.008   1.946 -1.4861 -3.0710 -2.1558
   35SOL    HW2  139   0.388   0.004   1.794  2.4223 -0.3802  1.0512
   35SOL     MW  140   0.375   0.032   1.876  0.1975 -0.7638 -0.4516
   36SOL     OW  141   1.861   1.918   0.505  0.4727  0.3692  0.2688
   36SOL    HW1  142   1.892   1.906   0.411  1.7454  1.3684  2.2248
   36SOL    HW2  143   1.826   1.836   0.539  1.5794  1.2671  0.3921
   36SOL     MW  144   1.860   1.906   0.497  0.7866  0.6195  0.5431
   37SOL     OW  145   1.803   1.989   0.960 -0.7088  0.2593  0.4742
   37SOL    HW1  146   1.746   1.969   0.882 -2.1405 -2.2287 -2.8447
   37SOL    HW2  147   1.739   2.011   1.037  2.0054  1.4976 -0.2141
   37SOL     MW  148   1.787   1.990   0.960 -0.5396  0.0944 -0.0545
   38SOL     OW  149   2.847   0.911   0.222  0.3262 -0.0668 -0.0760
   38SOL    HW1  150   2.865   0.881   0.311  1.7114 -3.2454  1.1356
   38SOL    HW2  151   2.924   0.879   0.166  0.6319 -0.0269 -0.6517
   38SOL     MW  152   2.859   0.903   0.226  0.5493 -0.4809  0.0079
   39SOL     OW  153   1.457   0.677   0.825 -0.1428  0.1895  1.0699
   39SOL    HW1  154   1.421   0.586   0.811  0.5070 -1.2691 -0.2971
   39SOL    HW2  155   1.413   0.714   0.902 -0.1638  2.6510  0.8994
   39SOL     MW  156   1.447   0.670   0.833 -0.0599  0.3218  0.8671
   40SOL     OW  157   1.300   1.894   0.243  0.0437 -0.2528  0.2680
   40SOL    HW1  158   1.299   1.805   0.279  1.5925  1.4297 -1.3409
   40SOL    HW2  159   1.294   1.953   0.319 -0.9099 -0.8014  1.2744
   40SOL     MW  160   1.299   1.890   0.258  0.1222 -0.1032  0.1885
   41SOL     OW  161   0.617   0.549   1.555  0.1038  0.5363  0.4302
   41SOL    HW1  162   0.705   0.601   1.544  0.4688  0.4325  2.0483
   41SOL    HW2  163   0.619   0.510   1.638  0.7044 -0.7373 -2.5565
   41SOL     MW  164   0.629   0.550   1.564  0.2312  0.3546  0.2496
   42SOL     OW  165   1.397   3.072   1.958  0.0786  0.1420 -0.3037
   42SOL    HW1  166   1.305   3.048   1.976 -2.1616 -1.4975  0.2557
   42SOL    HW2  167   1.448   2.995   1.977 -0.8390  3.1948  0.0264
   42SOL     MW  168   1.391   3.059   1.963 -0.3380  0.3285 -0.1863
   43SOL     OW  169   1.586   0.174   1.570  0.1068  0.5436 -0.0019
   43SOL    HW1  170   1.619   0.115   1.505  0.8546  1.4736 -2.3802
   43SOL    HW2  171   1.510   0.131   1.616 -0.8099  0.1785 -0.1190
   43SOL     MW  172   1.580   0.161   1.568  0.0845  0.6181 -0.3312
   44SOL     OW  173   1.319   0.741   1.062 -0.1702  0.4031 -0.6069
   44SOL    HW1  174   1.348   0.834   1.050  2.6706 -0.6778 -0.7555
   44SOL    HW2  175   1.313   0.728   1.156 -1.8374  1.6505  0.1379
   44SOL     MW  176   1.322   0.752   1.073 -0.0153  0.4251 -0.5283
   45SOL     OW  177   1.029   0.798   0.798  0.4188 -0.5116  0.4511
   45SOL    HW1  178   1.040   0.730   0.864 -1.6840  1.1071 -1.0622
   45SOL    HW2  179   1.026   0.756   0.717  1.6040 -1.5742 -2.7821
   45SOL     MW  180   1.030   0.784   0.796  0.2978 -0.4383 -0.1752
   46SOL     OW  181   0.602   1.130   0.605 -0.2212 -0.1475 -0.0945
   46SOL    HW1  182   0.624   1.146   0.512 -1.6577 -0.0966  0.5719
   46SOL    HW2  183   0.677   1.081   0.637  1.2175 -1.3098  1.2964
   46SOL     MW  184   0.615   1.125   0.597 -0.2209 -0.2941  0.1770
   47SOL     OW  185   0.095   1.886   1.826 -0.0364  0.7837  0.3330
   47SOL    HW1  186   0.173   1.844   1.798 -1.4877  1.7211  0.0521
   47SOL    HW2  187   0.080   1.871   1.916  0.7546  1.4862  0.0027
   47SOL     MW  188   0.103   1.879   1.834 -0.1235  1.0001  0.2523
   48SOL     OW  189   1.056   0.642   1.045  0.4264  0.3477  0.0597
   48SOL    HW1  190   0.986   0.685   1.099 -0.0011  2.4097 -1.5316
   48SOL    HW2  191   1.146   0.687   1.048 -1.6344 -1.2317  1.5149
   48SOL     MW  192   1.059   0.653   1.052  0.0981  0.4113  0.0417
   49SOL     OW  193   1.850   0.762   1.588  0.0985  0.5582 -0.2338
   49SOL    HW1  194   1.782   0.738   1.653 -3.2094 -1.0887 -0.1778
   49SOL    HW2  195   1.896   0.677   1.577 -1.3512  2.9884  0.4564
   49SOL     MW  196   1.847   0.747   1.595 -0.5292  0.6616 -0.1353
   50SOL     OW  197   1.289   1.010   0.593  0.5050  0.1800  0.3289
   50SOL    HW1  198   1.271   1.041   0.677  2.2863 -2.9904 -1.3815
   50SOL    HW2  199   1.349   0.928   0.591  1.4021  0.0355 -1.3040
   50SOL     MW  200   1.295   1.003   0.604  0.8584 -0.2574 -0.1122
   51SOL     OW  201   0.296   2.888   0.914  0.1469  0.1054  0.6422
   51SOL    HW1  202   0.377   2.829   0.897 -1.2295  0.4485  0.4807
   51SOL    HW2  203   0.327   2.938   0.992  0.5755  2.0823 -0.1610
   51SOL     MW  204   0.311   2.887   0.922  0.0219  0.4115  0.5149
   52SOL     OW  205   0.820   1.900   0.433 -0.0759 -0.2562 -0.6435
   52SOL    HW1  206   0.750   1.938   0.483  0.3064 -1.7767 -0.0749
   52SOL    HW2  207   0.779   1.889   0.347  0.6480  3.2316  0.1917
   52SOL     MW  208   0.806   1.903   0.428  0.0700  0.0034 -0.4583
   53SOL     OW  209   0.348   2.025   0.600 -0.4671  0.4198  0.1297
   53SOL    HW1  210   0.299   2.019   0.519  1.0949 -0.0729  0.8064
   53SOL    HW2  211   0.366   2.126   0.613 -1.0614 -2.1565  0.4503
   53SOL     MW  212   0.344   2.037   0.591 -0.3394  0.0148  0.2613
   54SOL     OW  213   2.196   0.852   0.832  0.3037 -0.0119  0.3909
   54SOL    HW1  214   2.216   0.823   0.742  0.9501 -0.8359 -0.0660
   54SOL    HW2  215   2.101   0.851   0.836 -0.4112 -1.7992  0.1685
   54SOL     MW  216   2.186   0.848   0.821  0.2946 -0.3565  0.3013
   55SOL     OW  217   0.511   1.435   1.533 -0.3087  0.2907 -0.5260
   55SOL    HW1  218   0.490   1.472   1.450  0.9257 -0.2329 -0.2194
   55SOL    HW2  219   0.594   1.381   1.523  1.9002 -0.9468 -0.0379
   55SOL     MW  220   0.519   1.433   1.521  0.1456  0.0584 -0.4212
   56SOL     OW  221   0.467   0.814   0.113 -0.1081 -0.1925 -0.0913
   56SOL    HW1  222   0.497   0.864   0.041 -1.7726 -1.6946 -2.5235
   56SOL    HW2  223   0.377   0.791   0.087 -0.5596  0.4833  1.0394
   56SOL     MW  224   0.459   0.818   0.100 -0.3873 -0.3015 -0.2630
   57SOL     OW  225   1.260   1.224   1.146  0.2862  0.4368 -0.2957
   57SOL    HW1  226   1.355   1.244   1.155 -0.3208 -0.3420 -0.7924
   57SOL    HW2  227   1.235   1.167   1.226  0.2723 -0.9599 -1.2352
   57SOL     MW  228   1.269   1.219   1.158  0.2043  0.1498 -0.4852
   58SOL     OW  229   0.686   1.083   1.257  0.3502  0.1389 -0.0707
   58SOL    HW1  230   0.636   1.167   1.263  2.0781 -0.7560 -2.1597
   58SOL    HW2  231   0.664   1.029   1.335 -1.3380  2.1002  0.8985
   58SOL     MW  232   0.676   1.087   1.268  0.3554  0.2796 -0.2184
   59SOL     OW  233   1.553   1.583   0.277 -0.4297  0.0967 -0.5785
   59SOL    HW1  234   1.604   1.539   0.342  1.9047 -0.6608  0.4602
   59SOL    HW2  235   1.496   1.651   0.311 -1.6888 -0.2260  0.9697
   59SOL     MW  236   1.553   1.586   0.290 -0.2879 -0.0459 -0.2372
   60SOL     OW  237   0.016   0.155   1.709  0.0254  0.0908 -0.2402
   60SOL    HW1  238  -0.055   0.219   1.714 -1.6974 -0.4955  1.4778
   60SOL    HW2  239  -0.030   0.070   1.701  0.4748 -0.5911 -0.1658
   60SOL     MW  240   0.001   0.152   1.709 -0.1426 -0.0766 -0.0037
   61SOL     OW  241   2.015   1.471   3.059  0.0741 -0.1951  0.0619
   61SOL    HW1  242   2.005   1.465   3.153  0.4329 -0.5165 -2.4404
   61SOL    HW2  243   2.064   1.388   3.028  1.4139 -0.7113 -4.5493
   61SOL     MW  244   2.020   1.459   3.067  0.2982 -0.3056 -0.8766
   62SOL     OW  245   0.595   1.642   0.572  0.4090  0.6065 -0.4714
   62SOL    HW1  246   0.671   1.644   0.518 -1.6211  1.5113  0.5673
   62SOL    HW2  247   0.592   1.547   0.589 -1.3680 -1.8148  0.6648
   62SOL     MW  248   0.604   1.630   0.567 -0.0933  0.4064 -0.1844
   63SOL     OW  249   1.723   0.766   0.734 -0.1151 -0.2380  0.2027
   63SOL    HW1  250   1.719   0.795   0.646  0.1082 -1.0798 -0.0682
   63SOL    HW2  251   1.634   0.743   0.748  0.5699 -0.3726 -0.4207
   63SOL     MW  252   1.711   0.766   0.725  0.0047 -0.3669  0.0847
   64SOL     OW  253   0.297   1.699   0.971  0.1937 -0.1394  0.9115
   64SOL    HW1  254   0.348   1.723   0.888 -0.1195  2.0844 -2.0622
   64SOL    HW2  255   0.267   1.787   0.992 -1.6676 -1.8805  1.0562
   64SOL     MW  256   0.300   1.714   0.963 -0.0932 -0.0757  0.5383
   65SOL     OW  257   1.526   2.215   0.322 -0.4152  0.0899 -0.1856
   65SOL    HW1  258   1.576   2.194   0.237  0.3355 -3.1032 -0.8300
   65SOL    HW2  259   1.593   2.262   0.358  1.1825  0.4963 -0.7652
   65SOL     MW  260   1.542   2.218   0.315 -0.1053 -0.2778 -0.3471
   66SOL     OW  261   0.291   0.586   0.519  0.6090 -0.2658 -0.5978
   66SOL    HW1  262   0.362   0.555   0.465  0.1625  0.8986  2.5846
   66SOL    HW2  263   0.296   0.678   0.499 -2.1137 -0.9375  1.7050
   66SOL     MW  264   0.301   0.594   0.509  0.1908 -0.2008  0.1259
   67SOL     OW  265   1.557   0.211   1.998 -0.2115 -0.4740  0.1821
   67SOL    HW1  266   1.557   0.263   1.917 -2.8880  2.2373 -0.4230
   67SOL    HW2  267   1.517   0.125   1.984 -0.4818 -2.0855  0.1298
   67SOL     MW  268   1.552   0.206   1.985 -0.6003 -0.3289  0.0954
   68SOL     OW  269   0.707   0.087   2.972 -0.5918  0.3031  0.5994
   68SOL    HW1  270   0.693   0.097   2.877  0.0554 -1.3060 -1.8107
   68SOL    HW2  271   0.719   0.181   2.998 -1.7884  2.7014  1.9284
   68SOL     MW  272   0.707   0.101   2.963 -0.6643  0.4072  0.4568
   69SOL     OW  273   1.011   0.152   1.959 -0.2796  0.5654  0.0121
   69SOL    HW1  274   1.096   0.189   1.978 -1.1397 -1.2683  0.7068
   69SOL    HW2  275   1.029   0.053   1.967  1.6471 -0.3698  0.9133
   69SOL     MW  276   1.025   0.144   1.963 -0.1388  0.2001  0.2227
   70SOL     OW  277   0.576   1.798   1.156 -0.3414 -0.2163 -0.4146
   70SOL    HW1  278   0.582   1.705   1.180 -1.4140 -0.1740 -0.3429
   70SOL    HW2  279   0.671   1.815   1.120 -0.4864  0.5476 -0.5928
   70SOL     MW  280   0.589   1.788   1.155 -0.5020 -0.1099 -0.4286
   71SOL     OW  281   1.792   0.695   1.312 -0.1598  0.0764 -0.5194
   71SOL    HW1  282   1.776   0.725   1.403 -0.3918  2.3072 -0.9790
   71SOL    HW2  283   1.713   0.653   1.285 -1.1514  0.5460  1.0215
   71SOL     MW  284   1.779   0.693   1.320 -0.3213  0.4327 -0.3767
   72SOL     OW  285   0.832   1.841   1.035 -0.2487  0.0152 -0.3627
   72SOL    HW1  286   0.821   1.896   0.957  0.1558  1.0965 -2.4423
   72SOL    HW2  287   0.864   1.761   1.000 -0.7756  1.7897 -0.4939
   72SOL     MW  288   0.835   1.838   1.020 -0.2648  0.3920 -0.6544
   73SOL     OW  289   1.328   0.651   1.322 -0.3454  0.4303 -0.4686
   73SOL    HW1  290   1.288   0.566   1.313  0.6483  0.5069  1.0194
   73SOL    HW2  291   1.265   0.703   1.378 -0.1983 -0.9330  0.7809
   73SOL     MW  292   1.314   0.647   1.328 -0.1949  0.2606 -0.1074
   74SOL     OW  293   2.780   0.104   1.013 -0.3885 -0.1814 -0.1142
   74SOL    HW1  294   2.728   0.038   0.968  1.5017  0.2400  0.7715
   74SOL    HW2  295   2.798   0.172   0.944 -1.0758  0.7979 -1.2866
   74SOL     MW  296   2.776   0.104   0.998 -0.2298  0.0034 -0.1520
   75SOL     OW  297   1.661   1.277   0.098  0.2077  0.7792 -0.0609
   75SOL    HW1  298   1.701   1.274   0.191  0.9396  1.9012  0.6236
   75SOL    HW2  299   1.682   1.189   0.056  1.8496 -1.8395 -1.5574
   75SOL     MW  300   1.669   1.265   0.105  0.5209  0.5817 -0.1680
   76SOL     OW  301   2.945   0.630   0.466  0.1623  0.1002  0.4001
   76SOL    HW1  302   2.977   0.668   0.552 -1.3743 -1.5428  0.3134
   76SOL    HW2  303   3.028   0.627   0.411 -0.2192 -0.2236 -1.9417
   76SOL     MW  304   2.960   0.635   0.470 -0.0908 -0.1593  0.0797
   77SOL     OW  305   0.901   0.441   0.527 -0.5415 -0.5431 -0.0531
   77SOL    HW1  306   0.866   0.522   0.496  1.0732 -0.3063  0.3792
   77SOL    HW2  307   0.827   0.378   0.541  0.1781 -1.3870 -0.0253
   77SOL     MW  308   0.887   0.443   0.525 -0.2335 -0.6232  0.0076
   78SOL     OW  309   0.856   0.756   1.223 -0.6537  0.3005  0.3901
   78SOL    HW1  310   0.772   0.721   1.185 -0.5194 -1.8984 -0.5749
   78SOL    HW2  311   0.860   0.849   1.194 -0.8183 -1.2329 -2.6037
   78SOL     MW  312   0.845   0.764   1.214 -0.6577 -0.1919 -0.1323
   79SOL     OW  313   1.831   1.666   0.598 -0.4792  0.0336  0.0087
   79SOL    HW1  314   1.749   1.624   0.586  0.6763 -0.8808 -0.0751
   79SOL    HW2  315   1.838   1.649   0.693  0.9682  0.2554 -0.7093
   79SOL     MW  316   1.821   1.659   0.609 -0.1358 -0.0578 -0.0971
   80SOL     OW  317   0.154   1.030   0.259  0.1379 -0.6641 -0.4329
   80SOL    HW1  318   0.066   1.002   0.289 -2.4267 -2.5609  0.3380
   80SOL    HW2  319   0.205   0.966   0.315  3.0705  0.8860  2.6749
   80SOL     MW  320   0.150   1.018   0.270  0.1865 -0.7099  0.0789
   81SOL     OW  321   1.923   1.906   0.227  0.5548 -0.0754  0.5577
   81SOL    HW1  322   1.876   1.852   0.162  1.8391 -0.0241 -0.9672
   81SOL    HW2  323   1.903   2.005   0.213 -3.5417  0.7852  1.2000
   81SOL     MW  324   1.914   1.912   0.217  0.1837  0.0449  0.4413
   82SOL     OW  325   0.868   0.915   0.552 -0.3502  0.2555 -0.0943
   82SOL    HW1  326   0.945   0.918   0.488  0.4963 -0.7469 -0.3178
   82SOL    HW2  327   0.804   0.846   0.533  3.1022 -0.5399  1.1872
   82SOL     MW  328   0.870   0.906   0.541  0.2170  0.0183  0.0453
   83SOL     OW  329   0.087   0.627   1.388  0.1774  0.8928 -0.0147
   83SOL    HW1  330   0.095   0.709   1.344  1.0688 -1.6221 -1.7649
   83SOL    HW2  331   0.155   0.606   1.452  0.3084 -0.4430  1.7493
   83SOL     MW  332   0.097   0.635   1.391  0.3123  0.3847 -0.0129
   84SOL     OW  333   0.042   0.297   1.079  0.0329  0.0752  0.0475
   84SOL    HW1  334  -0.006   0.299   0.994 -0.6436 -2.2697  0.2127
   84SOL    HW2  335   0.056   0.202   1.101  0.2703 -1.6513 -0.0669
   84SOL     MW  336   0.038   0.284   1.070 -0.0250 -0.4620  0.0542
   85SOL     OW  337   0.446   0.411   0.722 -0.3155  0.3192  0.0851
   85SOL    HW1  338   0.402   0.468   0.670  0.1811  0.9088  0.5563
   85SOL    HW2  339   0.383   0.341   0.754 -3.7945 -1.4980 -2.3529
   85SOL     MW  340   0.432   0.409   0.720 -0.7090  0.1572 -0.1744
   86SOL     OW  341   1.143   0.406   1.197  0.0998 -0.2793 -0.0354
   86SOL    HW1  342   1.114   0.484   1.138  1.7248  0.4870 -1.8850
   86SOL    HW2  343   1.086   0.417   1.273 -1.9947 -1.1555 -2.2084
   86SOL     MW  344   1.132   0.417   1.199  0.0379 -0.2938 -0.5661
   87SOL     OW  345   1.265   1.411   1.365 -0.2309  0.4512 -0.2053
   87SOL    HW1  346   1.272   1.478   1.298  2.5161 -0.1795  0.6085
   87SOL    HW2  347   1.275   1.333   1.313 -1.2158 -1.4206  1.6469
   87SOL     MW  348   1.267   1.410   1.349  0.0016  0.1210  0.1465
   88SOL     OW  349   1.369   1.011   1.004 -0.2605 -0.5937 -0.4179
   88SOL    HW1  350   1.457   1.013   1.035 -2.8829  0.0429  0.9269
   88SOL    HW2  351   1.321   1.058   1.067  0.8430  0.2252 -2.7691
   88SOL     MW  352   1.374   1.018   1.016 -0.4609 -0.4016 -0.5507
   89SOL     OW  353   1.800   0.569   0.286 -0.8516  0.3738 -0.3019
   89SOL    HW1  354   1.846   0.489   0.318 -1.8386  0.1138  2.1549
   89SOL    HW2  355   1.854   0.626   0.224 -0.8469  0.5319 -0.0962
   89SOL     MW  356   1.813   0.566   0.282 -0.9812  0.3604  0.0494
   90SOL     OW  357   0.747   1.248   2.831 -0.5862  0.5055  0.0624
   90SOL    HW1  358   0.782   1.164   2.855 -0.5756 -1.5615 -3.4045
   90SOL    HW2  359   0.712   1.279   2.917  0.8208 -3.4325 -1.1236
   90SOL     MW  360   0.747   1.241   2.846 -0.3992 -0.2868 -0.5515
   91SOL     OW  361   1.971   0.734   0.464  0.6356 -0.1512 -0.1246
   91SOL    HW1  362   1.989   0.828   0.439  1.0048 -2.2340 -0.4531
   91SOL    HW2  363   1.917   0.700   0.396  0.4755 -1.0962  3.9707
   91SOL     MW  364   1.966   0.742   0.452  0.6632 -0.5507  0.3724
   92SOL     OW  365   1.662   0.739   0.463 -0.0481  0.0477 -0.6381
   92SOL    HW1  366   1.574   0.717   0.492  0.2660 -1.4615  1.8256
   92SOL    HW2  367   1.686   0.666   0.400  0.9503 -1.1713  1.1379
   92SOL     MW  368   1.653   0.727   0.458  0.1251 -0.3123 -0.0788
   93SOL     OW  369   1.024   0.208   0.390  0.5294  0.2544 -0.0607
   93SOL    HW1  370   0.959   0.271   0.428  0.6766  0.9159 -1.8390
   93SOL    HW2  371   0.980   0.190   0.307  0.9549  1.1276 -1.9065
   93SOL     MW  372   1.010   0.214   0.384  0.6050  0.4569 -0.5389
   94SOL     OW  373   1.970   1.273   1.699 -0.0317 -0.0931 -0.0898
   94SOL    HW1  374   1.956   1.321   1.620  0.2542  1.6430  0.7347
   94SOL    HW2  375   1.924   1.186   1.705 -0.5863 -2.3380  0.3700
   94SOL     MW  376   1.962   1.268   1.690 -0.0671 -0.1602  0.0797
   95SOL     OW  377   0.924   1.557   1.009  0.4309 -0.3559  0.2828
   95SOL    HW1  378   0.948   1.466   1.016 -1.6754  0.3564 -1.0135
   95SOL    HW2  379   0.919   1.575   1.101 -1.5954 -2.7160 -3.1340
   95SOL     MW  380   0.927   1.547   1.022 -0.1144 -0.5733 -0.3390
   96SOL     OW  381   1.238   1.785   1.679  0.2747 -0.3053 -0.7505
   96SOL    HW1  382   1.154   1.750   1.715  0.9981  5.3621 -1.2350
   96SOL    HW2  383   1.288   1.712   1.637 -0.6491 -0.6778  1.3812
   96SOL     MW  384   1.234   1.770   1.678  0.2482  0.3933 -0.5331
   97SOL     OW  385   1.266   1.447   0.835  0.5864 -0.1084 -0.7548
   97SOL    HW1  386   1.271   1.482   0.925  2.0278  1.6664  0.9108
   97SOL    HW2  387   1.179   1.480   0.800  1.5477  0.2472 -0.5791
   97SOL     MW  388   1.256   1.456   0.842  0.9034  0.1727 -0.5118
   98SOL     OW  389   1.527   1.278   1.156 -0.5923  0.0395  0.3685
   98SOL    HW1  390   1.551   1.362   1.199  1.9151 -1.0223  0.6179
   98SOL    HW2  391   1.560   1.289   1.066 -0.8538  1.2077  0.3891
   98SOL     MW  392   1.535   1.290   1.150 -0.2959  0.0535  0.4041
   99SOL     OW  393   1.487   0.364   1.238  0.5643 -0.9014  1.0784
   99SOL    HW1  394   1.528   0.446   1.196 -0.5547  1.5136 -2.1360
   99SOL    HW2  395   1.461   0.383   1.324  0.6239  1.1944 -0.9874
   99SOL     MW  396   1.489   0.378   1.244  0.4245 -0.3063  0.3818
  100SOL     OW  397   1.138   1.070   1.334  0.3313 -0.0045  0.0804
  100SOL    HW1  398   1.085   1.094   1.414  0.1886 -0.9535 -1.6741
  100SOL    HW2  399   1.168   0.978   1.359 -2.1965 -1.5509  0.9510
  100SOL     MW  400   1.135   1.061   1.348 -0.0210 -0.3338 -0.0362
  101SOL     OW  401   0.633   1.164   0.329 -0.2648 -0.2514  0.0746
  101SOL    HW1  402   0.619   1.062   0.320 -2.5353  0.1314 -0.3520
  101SOL    HW2  403   0.651   1.194   0.241 -0.9644  2.1780 -0.1385
  101SOL     MW  404   0.634   1.154   0.316 -0.6566  0.1197 -0.0098
  102SOL     OW  405   2.939   0.598   0.918  0.5060 -0.4006  0.0805
  102SOL    HW1  406   2.974   0.653   0.840  0.5157 -1.2365  1.9404
  102SOL    HW2  407   2.985   0.625   0.997  0.1674  0.3790  1.4576
  102SOL     MW  408   2.950   0.609   0.919  0.4626 -0.4080  0.5076
  103SOL     OW  409   1.626   0.351   1.782 -0.2250  0.5806  0.3636
  103SOL    HW1  410   1.628   0.275   1.726  0.5633 -1.8682  0.8963
  103SOL    HW2  411   1.706   0.356   1.843 -0.0225 -0.7906 -0.3599
  103SOL     MW  412   1.637   0.342   1.782 -0.0943  0.0766  0.3385
  104SOL     OW  413   0.087   1.835   1.516  0.0491  0.1833  0.2488
  104SOL    HW1  414   0.170   1.797   1.494 -1.7423 -2.6769 -1.0777
  104SOL    HW2  415   0.065   1.778   1.592  0.4853  1.2532 -2.7168
  104SOL     MW  416   0.095   1.823   1.523 -0.1297 -0.0529 -0.3175
  105SOL     OW  417   0.160   1.165   0.540  0.0862 -0.1522 -0.4715
  105SOL    HW1  418   0.172   1.177   0.445 -0.9859  2.9333  0.4966
  105SOL    HW2  419   0.214   1.234   0.574  1.5246  0.3547  0.1449
  105SOL     MW  420   0.169   1.176   0.532  0.1345  0.3218 -0.2625
  106SOL     OW  421   0.851   0.353   0.936  0.4525 -0.0219 -0.1274
  106SOL    HW1  422   0.787   0.426   0.905 -0.2980 -0.9596 -1.4908
  106SOL    HW2  423   0.924   0.356   0.882 -0.9269  1.4485 -1.5611
  106SOL     MW  424   0.852   0.363   0.925  0.1715  0.0484 -0.4964
  107SOL     OW  425   0.789   2.211   3.059  0.2245 -0.0140 -0.1210
  107SOL    HW1  426   0.755   2.130   3.028  1.4748  2.4612 -1.0780
  107SOL    HW2  427   0.873   2.184   3.101  0.8862 -0.7007 -0.8776
  107SOL     MW  428   0.796   2.197   3.060  0.4768  0.2220 -0.3471
  108SOL     OW  429   1.406   1.591   1.538  0.0236  0.0306 -0.5205
  108SOL    HW1  430   1.364   1.522   1.478  0.2214 -3.3275 -2.6703
  108SOL    HW2  431   1.465   1.543   1.595  0.0018 -0.2040  3.0690
  108SOL     MW  432   1.409   1.576   1.537  0.0468 -0.4434 -0.3305
  109SOL     OW  433   1.952   0.755   0.163 -0.0774 -0.3231 -0.3412
  109SOL    HW1  434   1.949   0.777   0.074 -0.4952 -2.8621 -0.2761
  109SOL    HW2  435   2.045   0.756   0.192  0.2774  0.4071  2.0730
  109SOL     MW  436   1.964   0.758   0.155 -0.0857 -0.5618 -0.0141
  110SOL     OW  437   0.419   1.770   0.738 -0.1269 -0.0088 -0.3285
  110SOL    HW1  438   0.490   1.719   0.691 -1.9174  0.2615 -1.4320
  110SOL    HW2  439   0.416   1.852   0.682 -1.6433  0.7953 -0.4421
  110SOL     MW  440   0.428   1.774   0.724 -0.5632  0.1330 -0.4891
  111SOL     OW  441   0.691   0.938   1.517  0.4170  0.4195  0.4687
  111SOL    HW1  442   0.731   0.846   1.522 -0.3920 -1.0795 -1.3403
  111SOL    HW2  443   0.599   0.924   1.548 -1.5853 -1.7907 -1.4725
  111SOL     MW  444   0.684   0.924   1.522  0.0461 -0.0699 -0.0261
  112SOL     OW  445   1.294   1.134   1.603 -0.0225 -0.4304 -0.1707
  112SOL    HW1  446   1.242   1.211   1.649  0.0730  0.0321  2.2926
  112SOL    HW2  447   1.255   1.058   1.641 -0.6421  0.6774  0.4475
  112SOL     MW  448   1.282   1.134   1.614 -0.0916 -0.2232  0.2359
  113SOL     OW  449   1.354   0.056   1.711 -0.1425  0.3648 -0.2363
  113SOL    HW1  450   1.362   0.009   1.790 -2.2956  1.3555 -1.1959
  113SOL    HW2  451   1.350  -0.012   1.645 -1.1574 -1.8824 -3.4473
  113SOL     MW  452   1.355   0.041   1.713 -0.5605  0.1990 -0.7866
  114SOL     OW  453   0.457   2.809   1.856 -0.1388  0.0092  0.3429
  114SOL    HW1  454   0.448   2.858   1.942  0.9383 -0.0222  2.4088
  114SOL    HW2  455   0.452   2.866   1.776 -1.3534 -0.1053 -1.4658
  114SOL     MW  456   0.455   2.823   1.857 -0.1569 -0.0100  0.3768
  115SOL     OW  457   0.389   0.852   1.051  0.1801  0.1201  0.0162
  115SOL    HW1  458   0.441   0.768   1.048  0.2577 -0.6329 -1.5850
  115SOL    HW2  459   0.359   0.858   1.142  2.6831 -1.4900 -1.0420
  115SOL     MW  460   0.392   0.841   1.062  0.5206 -0.1917 -0.3346
  116SOL     OW  461   0.776   0.972   0.906  0.6005  0.3186 -0.1787
  116SOL    HW1  462   0.846   0.998   0.850 -0.8456  0.5484 -0.5970
  116SOL    HW2  463   0.800   0.981   1.001  1.0070  1.6645 -0.6587
  116SOL     MW  464   0.788   0.976   0.911  0.4633  0.5265 -0.2972
  117SOL     OW  465   1.208   1.158   0.821  0.3900 -0.9237  0.6031
  117SOL    HW1  466   1.246   1.103   0.894 -2.9615 -1.6556 -0.4514
  117SOL    HW2  467   1.214   1.251   0.840  0.3843  0.4967  0.8601
  117SOL     MW  468   1.214   1.163   0.833 -0.0530 -0.8329  0.4979
  118SOL     OW  469   3.095   2.968   1.725 -0.1337  0.2552 -0.0856
  118SOL    HW1  470   3.122   2.992   1.811 -2.5188  0.8499 -0.2215
  118SOL    HW2  471   3.003   2.984   1.727  0.7646 -0.0269 -0.5540
  118SOL     MW  472   3.086   2.974   1.737 -0.3299  0.2964 -0.1653
  119SOL     OW  473   0.506   1.317   1.238  0.5154  0.2535 -0.0731
  119SOL    HW1  474   0.518   1.347   1.145 -1.7695  0.1246 -0.1598
  119SOL    HW2  475   0.406   1.309   1.247  1.4702  1.6037  1.5684
  119SOL     MW  476   0.494   1.320   1.227  0.3399  0.4146  0.1320
  120SOL     OW  477   0.178   0.600   0.951 -0.1734  0.0373 -0.1445
  120SOL    HW1  478   0.218   0.547   1.016  1.1484  0.4195 -0.3460
  120SOL    HW2  479   0.209   0.688   0.974  3.5870  0.5949  0.6476
  120SOL     MW  480   0.188   0.605   0.962  0.4971  0.1613 -0.0666
  121SOL     OW  481   1.795   1.053   1.743 -0.2781  0.2233 -0.3881
  121SOL    HW1  482   1.724   1.028   1.676 -0.3266 -1.0547  0.8027
  121SOL    HW2  483   1.852   0.982   1.758 -2.3610  0.0202 -3.3804
  121SOL     MW  484   1.794   1.040   1.736 -0.5593  0.0279 -0.6258
  122SOL     OW  485   0.093   0.485   0.712  0.0468  0.6028 -0.1191
  122SOL    HW1  486   0.168   0.502   0.657 -1.6582 -1.2985 -0.1041
  122SOL    HW2  487   0.123   0.512   0.804  2.9182 -1.1892 -0.5534
  122SOL     MW  488   0.107   0.491   0.717  0.2007  0.1155 -0.1744
  123SOL     OW  489   1.741   1.031   0.481  0.3107 -0.0497 -0.1123
  123SOL    HW1  490   1.707   0.942   0.490  0.9559 -1.0983  2.7488
  123SOL    HW2  491   1.763   1.051   0.570  2.1317  0.1509 -2.3394
  123SOL     MW  492   1.740   1.022   0.494  0.6361 -0.1616 -0.0286
  124SOL     OW  493   0.665   0.520   0.855  0.1651 -0.2108 -0.4552
  124SOL    HW1  494   0.592   0.478   0.810  0.4711 -1.8374  0.7733
  124SOL    HW2  495   0.666   0.613   0.830 -0.8412 -1.0856 -0.0826
  124SOL     MW  496   0.655   0.527   0.846  0.0727 -0.5408 -0.2440
  125SOL     OW  497   0.632   1.673   1.665  0.5951  0.6051 -0.0069
  125SOL    HW1  498   0.565   1.611   1.639 -2.4707 -1.8560 -1.2973
  125SOL    HW2  499   0.599   1.763   1.659  1.7637 -0.1520 -0.5930
  125SOL     MW  500   0.619   1.676   1.661  0.3448  0.1805 -0.2545
  126SOL     OW  501   2.125   1.607   2.012  0.0641 -0.2378  0.1497
  126SOL    HW1  502   2.157   1.694   2.025 -2.2266 -0.9235  1.5123
  126SOL    HW2  503   2.200   1.542   2.016 -0.4502 -0.2561 -0.4507
  126SOL     MW  504   2.139   1.610   2.014 -0.3060 -0.3306  0.2503
  127SOL     OW  505   0.605   0.697   1.884 -0.1034  0.0323  0.3388
  127SOL    HW1  506   0.677   0.638   1.919 -1.1973 -3.0280 -0.3182
  127SOL    HW2  507   0.621   0.784   1.919  0.9587  1.6542 -0.4270
  127SOL     MW  508   0.617   0.701   1.893 -0.1076 -0.1575  0.1510
  128SOL     OW  509   1.710   0.755   2.864  0.4828  0.3814  0.2653
  128SOL    HW1  510   1.758   0.719   2.790 -1.1138  1.3044  1.7112
  128SOL    HW2  511   1.694   0.853   2.850 -0.9513  0.7714  0.1991
  128SOL     MW  512   1.714   0.763   2.853  0.0829  0.5546  0.4473
  129SOL     OW  513   1.541   0.893   0.212 -0.5091  0.6420  0.1441
  129SOL    HW1  514   1.468   0.830   0.209 -4.2326  0.2700 -0.2652
  129SOL    HW2  515   1.579   0.874   0.295 -2.2908  3.5538  1.0579
  129SOL     MW  516   1.536   0.882   0.223 -1.2355  0.9771  0.2106
  130SOL     OW  517   0.770   1.522   0.346 -0.1027 -0.4410  0.5296
  130SOL    HW1  518   0.800   1.462   0.409 -0.2740  0.0327 -0.0294
  130SOL    HW2  519   0.854   1.570   0.314  0.3719  1.1024  1.0607
  130SOL     MW  520   0.785   1.520   0.350 -0.0627 -0.1749  0.5259
  131SOL     OW  521   3.040   0.815   0.070  0.4057  0.2469 -0.5236
  131SOL    HW1  522   3.046   0.879  -0.012  1.7833  1.4569  1.5434
  131SOL    HW2  523   3.128   0.778   0.079  0.7001 -1.0114 -0.4452
  131SOL     MW  524   3.053   0.818   0.060  0.6263  0.2405 -0.2406
  132SOL     OW  525   2.686   0.114   1.274 -0.3170  0.9340 -0.4431
  132SOL    HW1  526   2.713   0.118   1.179 -0.8192  0.4074 -0.4948
  132SOL    HW2  527   2.600   0.074   1.270  0.8040  0.9433 -0.1891
  132SOL     MW  528   2.678   0.109   1.261 -0.2354  0.8657 -0.4164
  133SOL     OW  529   1.133   0.214   1.702  0.4933 -0.5753  0.2395
  133SOL    HW1  530   1.203   0.151   1.691  2.8372  0.6172 -2.3027
  133SOL    HW2  531   1.072   0.187   1.769  0.0453  1.2565  1.3968
  133SOL     MW  532   1.134   0.202   1.710  0.7434 -0.1763  0.0567
  134SOL     OW  533   1.380   2.514   1.414 -0.1313  0.2738 -0.4029
  134SOL    HW1  534   1.336   2.595   1.412 -0.0204 -2.6614 -2.5492
  134SOL    HW2  535   1.439   2.527   1.489  0.8888  0.9470 -2.7637
  134SOL     MW  536   1.382   2.526   1.424  0.0179 -0.0246 -0.9976
  135SOL     OW  537   3.037   1.012   2.969  0.1119 -0.0719 -0.0827
  135SOL    HW1  538   3.098   1.086   2.954  1.0520 -0.2558  0.0609
  135SOL    HW2  539   2.949   1.040   2.989  3.0244 -1.9049 -0.1979
  135SOL     MW  540   3.033   1.025   2.970  0.6202 -0.3380 -0.0789
  136SOL     OW  541   0.245   2.067   0.858  0.5111 -0.6981 -0.4898
  136SOL    HW1  542   0.186   1.991   0.878  1.0422  0.8298  1.3605
  136SOL    HW2  543   0.283   2.046   0.778 -1.3722  2.1147 -0.7614
  136SOL     MW  544   0.242   2.054   0.850  0.3327 -0.1254 -0.2815
  137SOL     OW  545   0.673   2.071   0.596 -0.3641 -0.1966 -0.3553
  137SOL    HW1  546   0.711   2.049   0.683  1.3803  0.5097 -0.3192
  137SOL    HW2  547   0.579   2.066   0.591  2.7253 -1.0903 -2.5743
  137SOL     MW  548   0.665   2.068   0.607  0.2736 -0.2213 -0.6433
  138SOL     OW  549   0.534   0.609   1.078  0.9872 -0.1722 -0.0293
  138SOL    HW1  550   0.475   0.541   1.103  1.0902 -1.0377 -1.6986
  138SOL    HW2  551   0.587   0.573   1.006 -3.8623  0.4406 -0.9135
  138SOL     MW  552   0.533   0.595   1.072  0.3609 -0.2056 -0.3662
  139SOL     OW  553   2.722   0.555   1.415  0.4012 -0.1657  0.3265
  139SOL    HW1  554   2.733   0.466   1.451  1.6674  1.4649  0.2966
  139SOL    HW2  555   2.803   0.605   1.451  0.2330  2.4355  2.6900
  139SOL     MW  556   2.734   0.550   1.424  0.5461  0.3927  0.6344
  140SOL     OW  557   0.854   0.304   2.174 -0.4527  0.1845 -0.8867
  140SOL    HW1  558   0.884   0.238   2.099  0.6265 -3.5073  1.3409
  140SOL    HW2  559   0.920   0.280   2.235 -0.5734 -2.1001  2.8883
  140SOL     MW  560   0.867   0.292   2.172 -0.3263 -0.6040 -0.0947
  141SOL     OW  561   1.016   0.668   1.768 -0.2828 -0.1779  0.1202
  141SOL    HW1  562   1.070   0.593   1.736 -0.6622 -0.9427 -1.5627
  141SOL    HW2  563   1.063   0.746   1.786 -1.8626 -0.5048 -1.4629
  141SOL     MW  564   1.030   0.668   1.766 -0.5413 -0.3220 -0.3107
  142SOL     OW  565   0.970   1.114   0.688 -0.1537 -0.2422 -0.0312
  142SOL    HW1  566   0.936   1.040   0.638 -0.7114  3.1727  1.5932
  142SOL    HW2  567   1.059   1.102   0.728 -0.2600 -0.2756 -0.0002
  142SOL     MW  568   0.977   1.103   0.687 -0.2413  0.2039  0.1872
  143SOL     OW  569   1.902   0.909   1.179 -0.0341  0.4512 -0.5601
  143SOL    HW1  570   1.921   0.874   1.090 -0.3885  0.4155 -0.6801
  143SOL    HW2  571   1.873   0.829   1.229  1.6300 -0.4424  2.0173
  143SOL     MW  572   1.901   0.894   1.174  0.1387  0.3286 -0.2359
  144SOL     OW  573   0.182   1.220   1.535  0.5357 -0.5761  0.4724
  144SOL    HW1  574   0.266   1.169   1.531 -0.3173 -2.2982  0.4317
  144SOL    HW2  575   0.179   1.238   1.631 -1.5477 -1.3822  0.9015
  144SOL     MW  576   0.193   1.215   1.547  0.1483 -0.9097  0.5236
  145SOL     OW  577   0.264   0.424   1.160 -0.3764  0.4180 -0.1085
  145SOL    HW1  578   0.309   0.387   1.240  1.7307  0.2851  0.0337
  145SOL    HW2  579   0.184   0.375   1.148  1.1174  1.4563  2.7606
  145SOL     MW  580   0.259   0.413   1.169  0.0987  0.5374  0.2888
  146SOL     OW  581   0.864   1.941   1.388  0.1708  0.0395  0.2924
  146SOL    HW1  582   0.931   1.956   1.315 -0.1114  1.7603 -1.2369
  146SOL    HW2  583   0.780   1.962   1.339 -0.9582 -1.6126 -0.1770
  146SOL     MW  584   0.861   1.946   1.372 -0.0154  0.0486  0.0287
  147SOL     OW  585   0.410   0.429   2.846 -0.5272 -0.3490 -0.4030
  147SOL    HW1  586   0.357   0.435   2.921  0.1426 -2.7447  1.7940
  147SOL    HW2  587   0.385   0.507   2.792 -0.1733 -1.1805 -2.6368
  147SOL     MW  588   0.400   0.440   2.849 -0.3922 -0.7748 -0.4079
  148SOL     OW  589   0.048   0.880   1.286 -0.5333  0.0502  0.1912
  148SOL    HW1  590   0.085   0.965   1.296 -2.1615 -0.2001 -2.3243
  148SOL    HW2  591  -0.014   0.880   1.357  0.7250 -0.3491 -1.0584
  148SOL     MW  592   0.044   0.892   1.296 -0.5821 -0.0355 -0.3056
  149SOL     OW  593   1.431   1.101   1.366  0.1762  0.0181  0.0482
  149SOL    HW1  594   1.370   1.130   1.442  0.2597 -1.6478 -0.1044
  149SOL    HW2  595   1.478   1.174   1.324 -0.7279  0.6327  1.3547
  149SOL     MW  596   1.429   1.114   1.371  0.0680 -0.1206  0.2004
  150SOL     OW  597   1.837   1.361   0.723 -0.9408 -0.0311  0.5332
  150SOL    HW1  598   1.870   1.271   0.710  0.4340 -1.4154 -1.1261
  150SOL    HW2  599   1.900   1.389   0.788 -1.0195  1.7144 -0.6219
  150SOL     MW  600   1.850   1.353   0.730 -0.7698  0.0166  0.1619
  151SOL     OW  601   1.626   1.790   0.813 -0.0328 -0.1107 -0.2638
  151SOL    HW1  602   1.576   1.782   0.736  1.4069  0.1612  1.7321
  151SOL    HW2  603   1.590   1.737   0.886 -0.1529 -1.8715 -0.4707
  151SOL     MW  604   1.614   1.782   0.812  0.1413 -0.3072 -0.0278
  152SOL     OW  605   0.770   1.327   1.495 -0.2519  0.0681  0.5781
  152SOL    HW1  606   0.816   1.248   1.529  0.6452 -1.4135  1.1174
  152SOL    HW2  607   0.842   1.394   1.482 -0.1160 -3.2451 -1.3522
  152SOL     MW  608   0.786   1.325   1.498 -0.1156 -0.5645  0.3946
  153SOL     OW  609   2.657   1.206   0.717 -0.1229 -0.6307  0.2882
  153SOL    HW1  610   2.708   1.201   0.632  0.8690 -1.9033 -1.2255
  153SOL    HW2  611   2.609   1.128   0.720  2.1322 -1.7369 -0.7920
  153SOL     MW  612   2.657   1.195   0.706  0.3055 -0.9446 -0.0540
  154SOL     OW  613   0.306   1.750   1.702 -0.2445  0.4756 -0.0100
  154SOL    HW1  614   0.342   1.734   1.614  2.7955 -0.2924 -2.3936
  154SOL    HW2  615   0.349   1.680   1.753  0.5799  0.4923  1.1169
  154SOL     MW  616   0.316   1.739   1.697  0.2654  0.3765 -0.1758
  155SOL     OW  617   1.105   0.718   0.241  0.3257  0.4476 -0.3166
  155SOL    HW1  618   1.111   0.650   0.306 -0.4430  1.7139 -1.3069
  155SOL    HW2  619   1.097   0.799   0.297  2.1129  0.8578 -0.6759
  155SOL     MW  620   1.105   0.720   0.257  0.4601  0.6688 -0.4947
  156SOL     OW  621   1.583   3.030   0.980 -0.0947  0.4000  0.2194
  156SOL    HW1  622   1.638   3.102   1.007 -1.3638 -0.4641 -0.2968
  156SOL    HW2  623   1.594   2.958   1.038 -1.5728 -0.5254 -0.3129
  156SOL     MW  624   1.592   3.030   0.991 -0.4571  0.1639  0.0811
  157SOL     OW  625   1.407   1.189   0.080  0.0415 -0.3433  0.6399
  157SOL    HW1  626   1.387   1.165   0.168 -1.8454  0.0687 -1.6522
  157SOL    HW2  627   1.499   1.223   0.077  1.0579  0.4850 -1.9690
  157SOL     MW  628   1.416   1.190   0.091 -0.0734 -0.1797 -0.0067
  158SOL     OW  629   0.382   1.650   2.284  0.0012  0.2888  0.6246
  158SOL    HW1  630   0.385   1.698   2.202 -1.7894  2.3280  2.1829
  158SOL    HW2  631   0.283   1.644   2.304 -0.2320 -0.2041 -2.0334
  158SOL     MW  632   0.369   1.656   2.276 -0.2658  0.4928  0.4795
  159SOL     OW  633   1.252   1.657   0.407  0.2435 -0.3285  0.1465
  159SOL    HW1  634   1.238   1.567   0.378  0.9393  2.1427  1.2765
  159SOL    HW2  635   1.173   1.691   0.456 -1.8645 -0.7425  1.6685
  159SOL     MW  636   1.240   1.650   0.410  0.0572 -0.0571  0.4964
  160SOL     OW  637   0.417   1.061   1.581 -0.2550 -0.1831 -0.0917
  160SOL    HW1  638   0.408   0.979   1.631  0.9162  0.2989  0.6898
  160SOL    HW2  639   0.452   1.121   1.648 -1.2473 -0.9849  1.1317
  160SOL     MW  640   0.420   1.058   1.596 -0.2314 -0.2253  0.1728
  161SOL     OW  641   0.580   2.144   2.664  0.3877 -0.3402  0.5729
  161SOL    HW1  642   0.491   2.144   2.702  2.2752 -0.9722  0.6716
  161SOL    HW2  643   0.575   2.074   2.595 -1.4876 -3.0546 -1.8508
  161SOL     MW  644   0.567   2.135   2.660  0.3893 -0.7817  0.2661
  162SOL     OW  645   1.014   1.705   1.841  0.0533 -0.2803  0.0774
  162SOL    HW1  646   1.000   1.799   1.846 -5.2674  1.4298  0.5725
  162SOL    HW2  647   0.926   1.680   1.854  1.9483 -2.9357 -0.6338
  162SOL     MW  648   1.000   1.714   1.843 -0.3987 -0.4050  0.0489
  163SOL     OW  649   2.169   0.149   1.008  0.5700 -0.0313  0.1872
  163SOL    HW1  650   2.167   0.173   0.912  0.6761 -0.6050 -0.4184
  163SOL    HW2  651   2.126   0.069   1.012 -0.0607 -0.7088  1.0514
  163SOL     MW  652   2.163   0.142   0.996  0.5008 -0.1964  0.2213
  164SOL     OW  653   0.301   0.193   0.848 -0.0404 -0.5889  0.1694
  164SOL    HW1  654   0.222   0.196   0.898  3.7433  2.8568  0.3072
  164SOL    HW2  655   0.298   0.117   0.789 -2.7352 -1.7313 -0.5278
  164SOL     MW  656   0.290   0.183   0.847  0.1032 -0.2850  0.0956
  165SOL     OW  657   1.383   1.190   0.395 -0.1411 -0.2224  0.3013
  165SOL    HW1  658   1.336   1.131   0.451 -0.1071  0.7907  1.9119
  165SOL    HW2  659   1.470   1.162   0.398 -1.8910  1.4571  1.0370
  165SOL     MW  660   1.388   1.179   0.403 -0.3675  0.1328  0.6109
  166SOL     OW  661   0.539   1.097   0.981  0.1243 -0.1268  0.1965
  166SOL    HW1  662   0.505   1.037   1.050 -2.8005  0.4692 -0.3371
  166SOL    HW2  663   0.625   1.055   0.952  0.9586 -2.2413 -1.4888
  166SOL     MW  664   0.545   1.083   0.986 -0.1515 -0.3271 -0.0963
  167SOL     OW  665   0.951   1.171   0.345 -0.2464  0.0627 -0.2781
  167SOL    HW1  666   0.851   1.164   0.352  1.7434  0.6220 -0.9444
  167SOL    HW2  667   0.968   1.210   0.255 -1.0276 -1.2617 -0.7115
  167SOL     MW  668   0.940   1.175   0.334 -0.0870 -0.0382 -0.4232
  168SOL     OW  669   1.693   1.776   2.910 -0.2687  0.5920  0.0516
  168SOL    HW1  670   1.652   1.852   2.956  0.3325 -0.1394 -0.9824
  168SOL    HW2  671   1.654   1.693   2.950 -2.4876 -0.7185 -2.0406
  168SOL     MW  672   1.682   1.775   2.921 -0.4821  0.3226 -0.3609
  169SOL     OW  673   0.328   0.972   1.306 -0.2138 -0.2687  0.4794
  169SOL    HW1  674   0.376   0.978   1.393  1.4257  0.7269  2.9305
  169SOL    HW2  675   0.311   1.063   1.272  0.3062  2.2612  2.0989
  169SOL     MW  676   0.332   0.985   1.313  0.0711  0.1965  1.0165
  170SOL     OW  677   1.013   1.445   1.505 -0.0230  0.2651 -0.2227
  170SOL    HW1  678   1.013   1.534   1.477  1.0571  0.3539 -0.3181
  170SOL    HW2  679   1.096   1.413   1.464  1.8637  0.2793 -1.9720
  170SOL     MW  680   1.024   1.452   1.496  0.3685  0.2787 -0.4661
  171SOL     OW  681   0.570   1.387   0.689  0.2199 -0.1506  0.4131
  171SOL    HW1  682   0.531   1.387   0.774  0.9758  1.6126  0.5124
  171SOL    HW2  683   0.579   1.288   0.666  1.6677 -0.1467 -0.8897
  171SOL     MW  684   0.566   1.374   0.697  0.5107  0.0826  0.2543
  172SOL     OW  685   0.849   0.313   1.205  0.0820  0.2485  0.3411
  172SOL    HW1  686   0.849   0.335   1.115 -1.0364  0.4912  1.4648
  172SOL    HW2  687   0.770   0.350   1.241  0.7416 -0.6436  2.0310
  172SOL     MW  688   0.839   0.320   1.198  0.0215  0.1628  0.7123
  173SOL     OW  689   0.412   1.668   0.348  0.1546  0.5656 -0.1266
  173SOL    HW1  690   0.413   1.571   0.332 -0.2486 -1.9435  0.3129
  173SOL    HW2  691   0.440   1.668   0.440 -0.3963  2.3434  0.9851
  173SOL     MW  692   0.416   1.655   0.358  0.0287  0.4691  0.0781
  174SOL     OW  693   2.019   0.963   1.520  0.0143  0.0929  0.0829
  174SOL    HW1  694   1.959   0.886   1.539 -0.8822  0.7489  1.1538
  174SOL    HW2  695   1.967   1.032   1.482 -0.9785  1.9755 -1.8385
  174SOL     MW  696   2.004   0.962   1.517 -0.2349  0.4278 -0.0293
  175SOL     OW  697   0.374   1.353   0.376  0.5319 -0.3967 -0.3342
  175SOL    HW1  698   0.370   1.335   0.283 -1.3869  0.2223 -0.0464
  175SOL    HW2  699   0.447   1.301   0.408 -1.9693  1.4272  1.9005
  175SOL     MW  700   0.383   1.343   0.368 -0.0513 -0.0744 -0.0014
  176SOL     OW  701   0.214   1.224   1.253  0.6619 -0.4655 -0.3172
  176SOL    HW1  702   0.170   1.242   1.172 -0.3973  1.4117  1.5472
  176SOL    HW2  703   0.158   1.263   1.330 -2.9586 -0.4194  1.2420
  176SOL     MW  704   0.201   1.232   1.253  0.0444 -0.2117  0.1345
  177SOL     OW  705   0.596   0.430   1.308 -0.7800 -0.0520 -0.6880
  177SOL    HW1  706   0.601   0.507   1.258 -0.5721 -1.0711 -0.7417
  177SOL    HW2  707   0.618   0.467   1.395  1.2730 -1.1613 -0.3106
  177SOL     MW  708   0.600   0.445   1.313 -0.4817 -0.3328 -0.6453
  178SOL     OW  709   0.011   0.409   3.014 -0.3491  0.4575 -0.5345
  178SOL    HW1  710  -0.040   0.448   3.088  1.0835  0.0665 -2.7331
  178SOL    HW2  711  -0.027   0.444   2.936  0.5515  1.3350 -3.3063
  178SOL     MW  712  -0.001   0.419   3.014 -0.0413  0.5217 -1.1903
  179SOL     OW  713   1.651   1.327   1.455  0.2021  0.0063 -0.3603
  179SOL    HW1  714   1.615   1.303   1.544  1.2113 -2.0369 -1.0973
  179SOL    HW2  715   1.744   1.314   1.456  0.1343  0.9434 -0.1549
  179SOL     MW  716   1.659   1.322   1.467  0.3263 -0.1396 -0.4305
  180SOL     OW  717   2.993   0.298   0.495  0.2939 -0.0657 -0.0333
  180SOL    HW1  718   2.952   0.282   0.405 -1.5749  1.0794  2.1135
  180SOL    HW2  719   3.032   0.389   0.486  0.7936 -1.1961  0.6847
  180SOL     MW  720   2.992   0.308   0.482  0.1133 -0.0637  0.3447
  181SOL     OW  721   1.156   1.378   3.041  0.1005  0.0726  0.2499
  181SOL    HW1  722   1.230   1.408   3.096  0.0580  1.0851  2.7012
  181SOL    HW2  723   1.200   1.360   2.958  3.9706  2.9632 -0.2431
  181SOL     MW  724   1.171   1.379   3.037  0.6055  0.5876  0.5083
  182SOL     OW  725   0.469   0.810   1.679 -0.2436 -0.2765 -0.3578
  182SOL    HW1  726   0.383   0.769   1.670  3.1335 -1.6980 -4.9775
  182SOL    HW2  727   0.525   0.756   1.727  1.4871  0.4230 -2.2514
  182SOL     MW  728   0.465   0.798   1.684  0.4303 -0.3717 -1.2172
  183SOL     OW  729   1.580   1.527   1.296 -0.0446  0.2121  0.0825
  183SOL    HW1  730   1.518   1.589   1.342  1.9313  1.3547  1.3050
  183SOL    HW2  731   1.616   1.472   1.374  0.8225 -1.7300  0.2045
  183SOL     MW  732   1.577   1.528   1.312  0.3305  0.1066  0.2599
  184SOL     OW  733   0.781   0.510   1.975 -0.2072  0.6714  0.1839
  184SOL    HW1  734   0.866   0.555   1.951  0.1713  0.7159 -0.8747
  184SOL    HW2  735   0.810   0.445   2.047 -1.3472 -1.9648  4.7666
  184SOL     MW  736   0.796   0.507   1.982 -0.3077  0.3294  0.6488
  185SOL     OW  737   1.135   0.929   1.961  0.1896  0.7935  0.3081
  185SOL    HW1  738   1.121   0.844   2.001 -0.4295  1.4972 -1.3085
  185SOL    HW2  739   1.165   0.985   2.040 -0.1433 -0.6493 -0.8064
  185SOL     MW  740   1.137   0.925   1.977  0.0640  0.6960 -0.0522
  186SOL     OW  741   0.351   1.739   1.442 -0.2519 -0.7722 -0.8118
  186SOL    HW1  742   0.409   1.807   1.407  1.2937  1.9619  0.7337
  186SOL    HW2  743   0.320   1.678   1.376 -2.0075 -2.3173 -1.2778
  186SOL     MW  744   0.355   1.740   1.429 -0.2796 -0.6153 -0.6694
  187SOL     OW  745   1.539   0.692   1.502  0.4926 -0.4370  0.0514
  187SOL    HW1  746   1.490   0.710   1.583  0.3171  0.2716 -0.9503
  187SOL    HW2  747   1.477   0.669   1.435  1.9116  0.1074  1.1318
  187SOL     MW  748   1.525   0.691   1.504  0.6567 -0.2717  0.0618
  188SOL     OW  749   1.919   1.085   0.694  0.0328  0.4441  0.0738
  188SOL    HW1  750   1.911   1.055   0.785 -0.2033 -2.1121  1.2834
  188SOL    HW2  751   2.015   1.084   0.686  1.6510 -0.9969 -1.0877
  188SOL     MW  752   1.931   1.081   0.705  0.2152 -0.0833  0.0802
  189SOL     OW  753   0.618   0.773   0.765 -0.0775  0.2316 -0.0641
  189SOL    HW1  754   0.534   0.812   0.736 -3.5169 -1.1733  0.0637
  189SOL    HW2  755   0.650   0.859   0.795 -1.8470  1.2916 -1.0024
  189SOL     MW  756   0.611   0.789   0.765 -0.7648  0.1861 -0.1710
  190SOL     OW  757   1.859   0.380   1.974 -0.7343  0.3139 -0.0256
  190SOL    HW1  758   1.906   0.296   1.985 -1.1353  2.0227 -1.0712
  190SOL    HW2  759   1.922   0.445   1.937  0.4842  0.6779  2.9005
  190SOL     MW  760   1.874   0.377   1.970 -0.6264  0.5874  0.2225
  191SOL     OW  761   1.642   0.960   1.524  0.2009 -0.1643  0.2063
  191SOL    HW1  762   1.577   1.005   1.470  2.5548 -0.7198  1.2372
  191SOL    HW2  763   1.617   0.868   1.523  2.5343  0.2227 -0.3538
  191SOL     MW  764   1.630   0.954   1.517  0.8193 -0.1865  0.2684
  192SOL     OW  765   0.693   2.026   2.883  0.4924 -0.1258  0.3628
  192SOL    HW1  766   0.657   2.090   2.818  0.1572 -0.0719 -1.0670
  192SOL    HW2  767   0.642   1.946   2.860  1.4359 -1.1715 -1.7055
  192SOL     MW  768   0.681   2.024   2.872  0.5727 -0.2567 -0.0987
  193SOL     OW  769   0.981   1.539   0.710 -0.0630 -0.2203 -0.5901
  193SOL    HW1  770   0.948   1.549   0.799  0.1404  2.2353  1.7073
  193SOL    HW2  771   0.940   1.465   0.663  1.7007  0.5125  1.7164
  193SOL     MW  772   0.971   1.531   0.716  0.1965  0.2003  0.0173
  194SOL     OW  773   0.507   1.375   0.971 -0.0289  0.1518 -0.1389
  194SOL    HW1  774   0.519   1.283   0.964  0.2368  4.0505  0.9381
  194SOL    HW2  775   0.418   1.400   0.947 -0.5961  1.1380  1.5251
  194SOL     MW  776   0.497   1.366   0.967 -0.0687  0.7963  0.2228
  195SOL     OW  777   1.324   1.145   2.937 -0.0176  0.2759 -0.0790
  195SOL    HW1  778   1.349   1.149   3.032  2.7872  0.6752 -0.4593
  195SOL    HW2  779   1.237   1.100   2.939 -1.4195  0.0060  1.6076
  195SOL     MW  780   1.316   1.140   2.950  0.1675  0.2929  0.0934
  196SOL     OW  781   2.216   1.036   0.603 -0.0332 -0.3545 -0.2136
  196SOL    HW1  782   2.144   1.020   0.538  0.1358 -0.1942  3.2622
  196SOL    HW2  783   2.229   1.130   0.595 -0.6658 -1.5118  0.3292
  196SOL     MW  784   2.208   1.047   0.594 -0.0944 -0.4861  0.3166
  197SOL     OW  785   0.551   1.216   1.992  0.1930  0.5324  1.1099
  197SOL    HW1  786   0.547   1.127   1.978  2.3567  0.6053  2.5863
  197SOL    HW2  787   0.543   1.243   1.902  2.8127  2.0490 -1.1246
  197SOL     MW  788   0.550   1.208   1.978  0.8242  0.7422  1.0099
  198SOL     OW  789   2.947   1.378   1.075  0.8970 -0.2108  0.0476
  198SOL    HW1  790   2.931   1.464   1.030  2.0012  0.3749 -1.7559
  198SOL    HW2  791   2.869   1.327   1.063 -0.6614 -3.8404 -0.0555
  198SOL     MW  792   2.935   1.383   1.068  0.8371 -0.6124 -0.2040
  199SOL     OW  793   0.434   1.281   1.748  0.7673 -0.2016  0.6442
  199SOL    HW1  794   0.336   1.263   1.765 -0.5134 -1.5982  2.0363
  199SOL    HW2  795   0.442   1.320   1.655  0.3161 -0.3384 -3.0753
  199SOL     MW  796   0.422   1.284   1.738  0.5388 -0.4039  0.3371
  200SOL     OW  797   1.948   3.031   1.295  0.1854  0.4576  0.2634
  200SOL    HW1  798   1.953   3.010   1.201  0.4087 -0.5581 -0.7570
  200SOL    HW2  799   1.860   3.062   1.319 -0.0980  2.5297  2.1407
  200SOL     MW  800   1.937   3.032   1.286  0.1775  0.5970  0.3764
  201SOL     OW  801   1.076   0.308   0.768  0.7763  0.2455  0.3116
  201SOL    HW1  802   1.070   0.210   0.746 -1.5920 -0.0339  0.8060
  201SOL    HW2  803   1.083   0.346   0.684 -1.7931 -1.4353  1.2191
  201SOL     MW  804   1.076   0.300   0.754  0.1248 -0.0131  0.4965
  202SOL     OW  805   1.595   1.571   1.013  0.1653 -0.3108  0.0005
  202SOL    HW1  806   1.611   1.486   0.973  0.5574  1.9345 -1.7059
  202SOL    HW2  807   1.637   1.577   1.098  0.1440 -0.0860  0.1286
  202SOL     MW  808   1.603   1.561   1.019  0.2142  0.0151 -0.2078
  203SOL     OW  809   3.004   0.487   1.217 -0.1848  0.2500  0.0174
  203SOL    HW1  810   3.063   0.441   1.151  0.6947  1.4894  0.6792
  203SOL    HW2  811   3.065   0.545   1.267  3.6458  2.6701  3.5237
  203SOL     MW  812   3.020   0.489   1.215  0.4367  0.7328  0.5674
  204SOL     OW  813   1.055   1.766   0.586  0.0359 -0.2048 -0.1235
  204SOL    HW1  814   1.032   1.681   0.637 -1.0648  0.3878  0.1707
  204SOL    HW2  815   0.972   1.791   0.543  0.7974  0.2415  0.2016
  204SOL     MW  816   1.041   1.758   0.587 -0.0088 -0.0677 -0.0418
  205SOL     OW  817   1.411   0.046   1.240 -0.5964 -0.4490  0.6414
  205SOL    HW1  818   1.365   0.004   1.167 -1.5352 -1.2177  0.1341
  205SOL    HW2  819   1.425   0.133   1.201  1.5944 -0.2204  2.1010
  205SOL     MW  820   1.407   0.052   1.225 -0.4312 -0.5202  0.7670
  206SOL     OW  821   0.500   3.097   1.346  0.2350 -0.4611 -0.4256
  206SOL    HW1  822   0.454   3.070   1.267  0.7372 -1.1996 -1.1356
  206SOL    HW2  823   0.571   3.029   1.359  0.2578  1.3960 -2.0833
  206SOL     MW  824   0.503   3.085   1.338  0.3043 -0.3135 -0.7380
  207SOL     OW  825   0.993   1.599   0.227 -0.2423 -0.3307 -0.2443
  207SOL    HW1  826   1.006   1.685   0.181  1.4707 -2.4967  0.4919
  207SOL    HW2  827   1.075   1.542   0.216  1.4549  0.4686 -1.0643
  207SOL     MW  828   1.005   1.602   0.220  0.2077 -0.5111 -0.2553
  208SOL     OW  829   0.623   1.562   1.283  0.5492 -0.0603 -0.1814
  208SOL    HW1  830   0.677   1.566   1.364  0.2921 -1.4028  1.1770
  208SOL    HW2  831   0.596   1.473   1.267 -1.8980 -2.2331  0.4221
  208SOL     MW  832   0.627   1.551   1.292  0.1924 -0.5241  0.0775
  209SOL     OW  833   1.498   0.533   2.803 -0.5771 -0.6006  0.2972
  209SOL    HW1  834   1.541   0.613   2.829 -0.3407 -0.5532 -1.8622
  209SOL    HW2  835   1.568   0.474   2.786  0.5220  0.5715 -0.6664
  209SOL     MW  836   1.513   0.536   2.804 -0.4009 -0.4397 -0.1149
  210SOL     OW  837   1.636   1.320   0.912  0.1527 -0.2181  0.1484
  210SOL    HW1  838   1.720   1.323   0.872 -0.1177  0.5506  0.2670
  210SOL    HW2  839   1.579   1.312   0.834  0.2863  0.7139 -0.4452
  210SOL     MW  840   1.639   1.319   0.897  0.1346  0.0063  0.0858
  211SOL     OW  841   1.710   0.491   0.929 -0.0249 -0.1716 -0.5679
  211SOL    HW1  842   1.696   0.464   0.837  0.6396 -0.7481  2.9469
  211SOL    HW2  843   1.805   0.515   0.927 -0.9501 -1.1964 -1.4711
  211SOL     MW  844   1.721   0.491   0.916 -0.0593 -0.3828 -0.2233
  212SOL     OW  845   0.289   1.111   0.027 -1.1774 -0.0144  0.2283
  212SOL    HW1  846   0.242   1.055   0.093 -1.9092  1.9515 -2.6277
  212SOL    HW2  847   0.363   1.059  -0.021 -0.3761  0.5679 -0.2798
  212SOL     MW  848   0.293   1.097   0.029 -1.1682  0.3218 -0.2156
  213SOL     OW  849   0.515   1.690   3.074  0.2727 -0.4782 -0.1770
  213SOL    HW1  850   0.554   1.750   3.145  0.2621  1.1724  1.0353
  213SOL    HW2  851   0.543   1.731   2.989 -0.0570  0.3501 -1.0869
  213SOL     MW  852   0.524   1.703   3.072  0.2278 -0.1511 -0.1371
  214SOL     OW  853   0.609   0.243   2.265  0.2073  0.6528 -0.2582
  214SOL    HW1  854   0.548   0.304   2.213 -1.1407  0.5346 -2.3005
  214SOL    HW2  855   0.699   0.272   2.236  2.2517  1.5850 -3.4095
  214SOL     MW  856   0.613   0.255   2.255  0.2992  0.7602 -0.9435
  215SOL     OW  857   0.509   0.669   2.610 -0.2155 -0.0616  0.4475
  215SOL    HW1  858   0.517   0.640   2.519  1.1670 -0.5108  0.4746
  215SOL    HW2  859   0.415   0.657   2.630  1.9083  0.0135 -0.5835
  215SOL     MW  860   0.498   0.664   2.600  0.2471 -0.1109  0.3150
  216SOL     OW  861   3.072   0.003   2.811 -0.2476 -0.0506 -0.5899
  216SOL    HW1  862   2.999  -0.008   2.870  2.3694  2.8531 -1.4671
  216SOL    HW2  863   3.054   0.085   2.775  0.3122 -1.0392  0.7277
  216SOL     MW  864   3.060   0.013   2.814  0.1715  0.2021 -0.5318
  217SOL     OW  865   0.975   1.160   0.062 -0.0054  0.1755 -0.3272
  217SOL    HW1  866   1.002   1.066   0.050  0.9582 -2.4842  0.0971
  217SOL    HW2  867   1.018   1.213  -0.013 -0.6865  2.0360 -2.7220
  217SOL     MW  868   0.984   1.154   0.050  0.0319  0.0701 -0.5872
  218SOL     OW  869   0.927   1.326   2.467 -0.1590  0.1443 -0.0366
  218SOL    HW1  870   0.914   1.240   2.504  0.2899  0.9767 -1.5756
  218SOL    HW2  871   1.003   1.364   2.526 -0.1068 -1.1532  1.8027
  218SOL     MW  872   0.935   1.320   2.480 -0.0929  0.0829  0.0030
  219SOL     OW  873   1.034   0.404   2.571 -0.0682  0.2547 -0.2527
  219SOL    HW1  874   1.030   0.482   2.522 -1.3037 -0.4810  0.2159
  219SOL    HW2  875   0.956   0.399   2.623 -1.0760  2.2095  0.9268
  219SOL     MW  876   1.023   0.413   2.572 -0.3642  0.4155 -0.0352
  220SOL     OW  877   1.735   0.546   2.169  0.0577 -0.2255  0.1204
  220SOL    HW1  878   1.662   0.599   2.147 -3.1606 -1.2793  1.3879
  220SOL    HW2  879   1.721   0.456   2.135 -2.2399 -0.3342  0.8758
  220SOL     MW  880   1.723   0.541   2.161 -0.6701 -0.3789  0.3873
  221SOL     OW  881   0.392   1.444   2.936  0.3104 -0.0035  0.1986
  221SOL    HW1  882   0.373   1.360   2.885 -2.0215  0.1108 -3.7466
  221SOL    HW2  883   0.426   1.493   2.860  0.4368 -1.1974 -2.5127
  221SOL     MW  884   0.394   1.440   2.919  0.0194 -0.1459 -0.6796
  222SOL     OW  885   0.404   0.951   2.669 -0.3118  0.1716 -0.3066
  222SOL    HW1  886   0.338   0.960   2.591 -2.7725  0.2659  0.2868
  222SOL    HW2  887   0.458   0.878   2.644 -0.5305 -0.0953  2.9459
  222SOL     MW  888   0.403   0.942   2.655 -0.6653  0.1488  0.2008
  223SOL     OW  889   3.067   2.018   2.666  0.3663  0.2145  0.0943
  223SOL    HW1  890   3.139   1.956   2.667  3.0613 -0.1814 -2.4409
  223SOL    HW2  891   3.100   2.085   2.610 -2.0411 -0.8301  1.2345
  223SOL     MW  892   3.081   2.019   2.659  0.4042  0.0244 -0.0897
  224SOL     OW  893   1.543   0.789   2.598 -0.2487  0.4321  0.3851
  224SOL    HW1  894   1.478   0.831   2.660  2.1276  0.2031 -0.0019
  224SOL    HW2  895   1.589   0.861   2.555  3.0774  0.7539 -0.7538
  224SOL     MW  896   1.541   0.804   2.601  0.5037  0.4443  0.1838
  225SOL     OW  897   2.987   1.458   2.272 -0.2192 -0.4602 -0.4102
  225SOL    HW1  898   3.013   1.518   2.201  3.0230 -0.7816  0.4532
  225SOL    HW2  899   2.941   1.514   2.331  2.3504  0.9090  0.9281
  225SOL     MW  900   2.984   1.473   2.271  0.5476 -0.3220 -0.1197
  226SOL     OW  901   0.441   1.513   2.670  0.0952 -0.3309 -0.0014
  226SOL    HW1  902   0.509   1.456   2.638  2.7981 -1.6973 -0.8966
  226SOL    HW2  903   0.462   1.598   2.629  0.5169  0.7700 -1.5373
  226SOL     MW  904   0.453   1.517   2.661  0.5074 -0.3659 -0.3222
  227SOL     OW  905   0.418   1.165   2.827 -0.7768  0.1658 -0.0956
  227SOL    HW1  906   0.490   1.192   2.771  1.8932  1.2331  3.1080
  227SOL    HW2  907   0.389   1.088   2.765  0.0264  0.8498  2.0928
  227SOL     MW  908   0.424   1.158   2.811 -0.3185  0.3968  0.6158
  228SOL     OW  909   0.677   0.937   1.997  0.1844  0.7155  0.3107
  228SOL    HW1  910   0.759   0.977   1.969 -1.8835 -0.9801  0.0264
  228SOL    HW2  911   0.691   0.875   2.074  1.0194 -0.9246  0.8766
  228SOL     MW  912   0.690   0.934   2.003  0.0217  0.2754  0.3478
  229SOL     OW  913   0.262   0.500   3.058 -0.3149  0.9741  0.2043
  229SOL    HW1  914   0.169   0.474   3.021 -3.1057 -3.1873 -0.9152
  229SOL    HW2  915   0.259   0.464   3.151 -0.3413  2.5686  2.3522
  229SOL     MW  916   0.249   0.492   3.066 -0.6866  0.6354  0.3400
  230SOL     OW  917   1.741   1.379   2.111  0.7728 -0.3579 -0.0041
  230SOL    HW1  918   1.697   1.398   2.191  2.4167 -0.4257  0.6662
  230SOL    HW2  919   1.758   1.284   2.107 -0.9809  2.1897  0.1619
  230SOL     MW  920   1.738   1.369   2.121  0.7583 -0.0307  0.1062
  231SOL     OW  921   2.814   1.235   2.226 -0.0755 -0.4075  0.3055
  231SOL    HW1  922   2.892   1.290   2.250 -4.7513 -0.7075 -2.2709
  231SOL    HW2  923   2.779   1.296   2.157  2.1306  1.7657  2.2000
  231SOL     MW  924   2.819   1.251   2.220 -0.4013 -0.1604  0.2156
  232SOL     OW  925   2.300   1.012   2.100 -0.0728 -0.6359  0.3487
  232SOL    HW1  926   2.227   1.028   2.045 -0.9912  1.3787 -2.3593
  232SOL    HW2  927   2.259   0.987   2.178 -1.1688  1.7040 -2.5172
  232SOL     MW  928   2.285   1.010   2.103 -0.3386 -0.0614 -0.3867
  233SOL     OW  929   2.039   0.576   1.904  0.6913 -0.2346  0.4166
  233SOL    HW1  930   2.082   0.610   1.827  0.9735 -3.6209  0.0393
  233SOL    HW2  931   2.108   0.522   1.952  0.9291 -0.3850  0.5287
  233SOL     MW  932   2.054   0.573   1.900  0.7599 -0.7012  0.3816
  234SOL     OW  933   0.215   0.972   2.476 -0.0758 -0.6115 -0.2370
  234SOL    HW1  934   0.116   0.987   2.476 -1.3505  0.0337  1.1374
  234SOL    HW2  935   0.263   1.055   2.440  0.8294  1.9912  2.1382
  234SOL     MW  936   0.208   0.985   2.471 -0.1245 -0.1830  0.2577
  235SOL     OW  937   1.008   3.028   2.813  0.3836 -0.5888  0.4037
  235SOL    HW1  938   1.059   2.964   2.865 -0.4967 -0.5756  1.4921
  235SOL    HW2  939   0.999   3.115   2.854  1.7908 -1.1263 -0.5682
  235SOL     MW  940   1.013   3.031   2.825  0.4531 -0.6579  0.4191
  236SOL     OW  941   2.925   0.531   0.099 -0.0568 -0.7676 -0.2294
  236SOL    HW1  942   2.846   0.543   0.042 -0.3140  0.8419  1.6400
  236SOL    HW2  943   2.952   0.616   0.120 -0.5222  2.6450 -0.0185
  236SOL     MW  944   2.918   0.544   0.094 -0.1522 -0.1050  0.0451
  237SOL     OW  945   1.758   0.888   2.179 -0.2624  0.0378 -0.1206
  237SOL    HW1  946   1.770   0.982   2.161  1.0836 -1.0021  2.7134
  237SOL    HW2  947   1.798   0.872   2.268  1.1118  1.9073  2.0925
  237SOL     MW  948   1.765   0.899   2.189  0.0965  0.1473  0.5453
  238SOL     OW  949   1.083   1.773   2.968  1.2560  0.1676  0.1104
  238SOL    HW1  950   1.042   1.687   2.978 -1.1301  1.6377  1.8480
  238SOL    HW2  951   1.178   1.757   2.956  3.1501 -1.2035  0.1007
  238SOL     MW  952   1.090   1.759   2.968  1.1911  0.1807  0.3384
  239SOL     OW  953   1.253   1.411   2.325 -0.1150 -0.5111 -0.3363
  239SOL    HW1  954   1.200   1.403   2.407 -3.1007  1.9767  1.1245
  239SOL    HW2  955   1.339   1.403   2.360  0.8149 -2.2798  1.0973
  239SOL     MW  956   1.257   1.409   2.340 -0.3862 -0.4162  0.0456
  240SOL     OW  957   0.619   0.805   2.248  0.0652 -0.2797  0.4316
  240SOL    HW1  958   0.602   0.892   2.285 -0.7467  1.2334 -0.9966
  240SOL    HW2  959   0.716   0.789   2.265  1.5584  0.2372 -1.4022
  240SOL     MW  960   0.630   0.814   2.255  0.1551 -0.0118  0.0012
  241SOL     OW  961   0.681   0.353   3.017 -0.0058  0.5432  0.0801
  241SOL    HW1  962   0.667   0.413   3.088  3.1505  0.5847 -0.9172
  241SOL    HW2  963   0.598   0.339   2.966  0.1462  1.3193 -1.4572
  241SOL     MW  964   0.668   0.359   3.019  0.4307  0.6511 -0.2543
  242SOL     OW  965   1.431   1.693   2.338  0.0752  0.3209  0.9606
  242SOL    HW1  966   1.404   1.779   2.356  3.2348  0.3547 -1.8823
  242SOL    HW2  967   1.359   1.654   2.286 -0.3454 -1.9344  1.3703
  242SOL     MW  968   1.418   1.700   2.333  0.4366  0.0278  0.6396
  243SOL     OW  969   1.065   0.208   2.343 -0.2460  0.2213  0.0890
  243SOL    HW1  970   1.152   0.172   2.327 -0.4967 -0.2389 -2.4487
  243SOL    HW2  971   1.081   0.272   2.410  1.9139  2.1315 -2.4337
  243SOL     MW  972   1.079   0.212   2.349  0.0059  0.4126 -0.5787
  244SOL     OW  973   0.222   0.761   2.310 -0.0054 -0.1443 -0.6117
  244SOL    HW1  974   0.221   0.846   2.354 -0.3362  0.9429  0.8059
  244SOL    HW2  975   0.304   0.716   2.320 -3.4478 -0.3525 -2.1931
  244SOL     MW  976   0.233   0.766   2.317 -0.5032 -0.0283 -0.6333
  245SOL     OW  977   1.335   0.150   2.307  0.2407 -0.0927 -0.1709
  245SOL    HW1  978   1.322   0.058   2.332 -0.6990 -1.0121  0.6413
  245SOL    HW2  979   1.425   0.157   2.272  0.7931 -0.3167  0.8502
  245SOL     MW  980   1.345   0.139   2.305  0.1896 -0.2436  0.0710
  246SOL     OW  981   1.165   1.126   2.139 -0.2111 -0.2261 -0.8430
  246SOL    HW1  982   1.096   1.105   2.208  2.6521 -2.4766 -2.1761
  246SOL    HW2  983   1.251   1.149   2.188 -0.2837 -0.2057 -0.4459
  246SOL     MW  984   1.167   1.127   2.154  0.1571 -0.5203 -0.9665
  247SOL     OW  985   0.656   0.545   0.120  0.1981 -0.6572  0.1806
  247SOL    HW1  986   0.601   0.611   0.073  0.9387 -1.1066 -3.5960
  247SOL    HW2  987   0.750   0.570   0.111 -0.2870  0.1998  2.8999
  247SOL     MW  988   0.661   0.557   0.113  0.2318 -0.6034  0.0411
  248SOL     OW  989   0.370   1.203   2.406  0.9425  0.1335 -0.4533
  248SOL    HW1  990   0.391   1.251   2.325 -0.3818  1.4025 -1.8291
  248SOL    HW2  991   0.288   1.237   2.438 -1.3227  1.6863 -0.6182
  248SOL     MW  992   0.362   1.214   2.399  0.4689  0.5058 -0.6566
  249SOL     OW  993   0.154   1.810   2.723 -0.3902 -0.3167  0.1578
  249SOL    HW1  994   0.102   1.733   2.707  0.9499 -1.8550 -1.6413
  249SOL    HW2  995   0.189   1.779   2.807  0.1441  0.5426 -0.6528
  249SOL     MW  996   0.152   1.796   2.732 -0.1429 -0.4063 -0.1865
  250SOL     OW  997   2.146   0.914   2.325 -0.0254  0.7739  0.1990
  250SOL    HW1  998   2.200   0.842   2.287 -0.8463 -1.7404  0.9269
  250SOL    HW2  999   2.202   0.965   2.387  1.8924  0.2071  0.0639
  250SOL     MW 1000   2.161   0.911   2.328  0.1193  0.3674  0.2772
  251SOL     OW 1001   0.115   0.827   2.047  0.7130  0.5088 -0.3358
  251SOL    HW1 1002   0.160   0.797   2.121  2.2617  0.0968 -3.1097
  251SOL    HW2 1003   0.074   0.749   2.012 -0.5122 -2.0066  2.4872
  251SOL     MW 1004   0.116   0.813   2.052  0.7557  0.1225 -0.3293
  252SOL     OW 1005   1.698   1.016   2.794 -0.0067  0.3684  0.3513
  252SOL    HW1 1006   1.741   1.074   2.856  0.9316  0.7300 -0.0229
  252SOL    HW2 1007   1.719   1.044   2.707 -0.5133  1.2137 -1.2246
  252SOL     MW 1008   1.706   1.028   2.791  0.0503  0.5276  0.0940
  253SOL     OW 1009   1.152   1.752   2.570  0.3460 -0.3330 -0.4672
  253SOL    HW1 1010   1.144   1.761   2.474 -1.5797  0.7274 -0.2094
  253SOL    HW2 1011   1.062   1.780   2.604 -1.4624 -1.8634  1.9916
  253SOL     MW 1012   1.140   1.757   2.562 -0.1467 -0.3950 -0.1088
  254SOL     OW 1013   0.969   1.056   2.309  0.1734 -0.3238 -0.4076
  254SOL    HW1 1014   0.950   0.962   2.315  0.2462  1.0981  1.9581
  254SOL    HW2 1015   0.901   1.100   2.258  2.5629 -1.7790  1.6653
  254SOL     MW 1016   0.958   1.050   2.303  0.4983 -0.3282  0.1780
  255SOL     OW 1017   0.740   2.363   2.273  0.3660  1.0608  0.0807
  255SOL    HW1 1018   0.655   2.324   2.277  0.1937  0.3994 -0.7517
  255SOL    HW2 1019   0.754   2.389   2.364 -0.7721 -1.4369 -0.3099
  255SOL     MW 1020   0.730   2.361   2.286  0.1931  0.6440 -0.0807
  256SOL     OW 1021   1.193   2.864   2.941  0.0808  0.0700 -0.8140
  256SOL    HW1 1022   1.227   2.771   2.944 -4.0550 -0.4318  1.3527
  256SOL    HW2 1023   1.259   2.915   2.895 -1.3936 -1.0124 -2.1378
  256SOL     MW 1024   1.206   2.859   2.935 -0.6594 -0.1390 -0.7028
  257SOL     OW 1025   0.112   1.872   0.004 -0.6764  0.1309  0.0890
  257SOL    HW1 1026   0.134   1.834   0.087  1.1588  0.7716 -0.7195
  257SOL    HW2 1027   0.151   1.821  -0.066 -1.3792  1.8521 -1.6082
  257SOL     MW 1028   0.120   1.860   0.006 -0.5270  0.4426 -0.2416
  258SOL     OW 1029   0.584   1.043   2.404  0.3913 -0.0065 -0.1204
  258SOL    HW1 1030   0.638   1.081   2.334  1.2571  1.3860  0.2337
  258SOL    HW2 1031   0.513   1.109   2.410  1.6803 -3.2499 -0.9479
  258SOL     MW 1032   0.582   1.057   2.395  0.6756 -0.2507 -0.1829
  259SOL     OW 1033   0.598   0.371   2.496  0.0668  0.3489 -0.5125
  259SOL    HW1 1034   0.522   0.423   2.491 -2.8475  2.2435  0.0105
  259SOL    HW2 1035   0.600   0.322   2.410 -1.0602 -0.8179 -1.4762
  259SOL     MW 1036   0.588   0.371   2.484 -0.4664  0.4449 -0.5706
  260SOL     OW 1037   0.595   0.159   1.591  0.3536  0.2368  0.1710
  260SOL    HW1 1038   0.531   0.168   1.520 -2.3945  0.7108  0.1693
  260SOL    HW2 1039   0.671   0.150   1.543  0.0839 -1.2533  0.5919
  260SOL     MW 1040   0.597   0.159   1.576 -0.0446  0.1027  0.2263
  261SOL     OW 1041   1.073   0.690   2.088  0.5237  0.0236  0.4440
  261SOL    HW1 1042   1.110   0.686   2.178  0.0701  0.7484  2.0384
  261SOL    HW2 1043   1.124   0.627   2.040  3.3177 -0.3402  2.7052
  261SOL     MW 1044   1.085   0.681   2.093  0.8325  0.0712  0.9527
  262SOL     OW 1045   1.138   0.383   0.124 -0.1076 -0.3779 -0.3967
  262SOL    HW1 1046   1.156   0.297   0.154 -0.3715 -0.0094  1.1519
  262SOL    HW2 1047   1.199   0.391   0.055 -1.3346 -0.7080 -1.1482
  262SOL     MW 1048   1.148   0.373   0.119 -0.3043 -0.3728 -0.2915
  263SOL     OW 1049   0.432   2.986   2.510  0.0375  0.0885  0.3364
  263SOL    HW1 1050   0.376   3.064   2.500 -2.9987  0.7196  1.9353
  263SOL    HW2 1051   0.495   2.990   2.443  2.1149 -1.1123  2.3890
  263SOL     MW 1052   0.433   2.997   2.500 -0.0890  0.0133  0.8182
  264SOL     OW 1053   1.497   1.334   1.979  0.6375  0.3481  0.2864
  264SOL    HW1 1054   1.419   1.323   2.035 -0.0175  1.9402 -1.2909
  264SOL    HW2 1055   1.580   1.337   2.031  0.3468  0.6539 -1.4084
  264SOL     MW 1056   1.498   1.333   1.994  0.5127  0.5985 -0.1454
  265SOL     OW 1057   0.734   2.736   2.212 -0.4689 -0.1555  0.2621
  265SOL    HW1 1058   0.769   2.656   2.181  1.4382  3.1732 -0.3323
  265SOL    HW2 1059   0.721   2.719   2.308  1.0276 -0.5503  0.7937
  265SOL     MW 1060   0.737   2.723   2.220 -0.0198  0.2316  0.2538
  266SOL     OW 1061   0.881   0.804   2.277  0.3367 -0.3229  0.3372
  266SOL    HW1 1062   0.922   0.749   2.208  0.5772  0.1089 -5.0777
  266SOL    HW2 1063   0.900   0.763   2.362  1.7996 -1.2252  0.7266
  266SOL     MW 1064   0.889   0.791   2.279  0.5615 -0.3850 -0.3259
  267SOL     OW 1065   1.399   1.809   2.671  0.2638 -0.3032  0.0578
  267SOL    HW1 1066   1.459   1.724   2.656  2.5869  0.5112 -0.8300
  267SOL    HW2 1067   1.316   1.787   2.632  2.7566  0.6589  2.1438
  267SOL     MW 1068   1.396   1.795   2.664  0.8992 -0.0688  0.2159
  268SOL     OW 1069   0.211   0.749   1.653  0.2760 -0.2968  0.1312
  268SOL    HW1 1070   0.148   0.819   1.607 -2.1299 -1.3100 -1.9246
  268SOL    HW2 1071   0.183   0.666   1.626 -0.3899 -0.0144  1.8250
  268SOL     MW 1072   0.199   0.747   1.644 -0.1293 -0.3932  0.0834
  269SOL     OW 1073   1.410   1.947   2.436  0.1920 -0.2449 -0.0996
  269SOL    HW1 1074   1.403   1.913   2.529 -1.1930  1.2720 -2.0761
  269SOL    HW2 1075   1.333   2.002   2.436  0.6385  0.4757  0.6010
  269SOL     MW 1076   1.399   1.950   2.449  0.0682  0.0503 -0.2679
  270SOL     OW 1077   1.177   0.469   1.623 -0.2281 -0.1254 -0.3885
  270SOL    HW1 1078   1.169   0.382   1.661  0.9421 -1.2013 -0.8896
  270SOL    HW2 1079   1.274   0.477   1.597 -2.1374  0.9791 -0.9331
  270SOL     MW 1080   1.189   0.458   1.625 -0.3256 -0.1217 -0.5264
  271SOL     OW 1081   0.883   3.101   2.456 -0.5296 -0.3370 -0.2431
  271SOL    HW1 1082   0.928   3.025   2.491  0.1238  0.5585 -4.0511
  271SOL    HW2 1083   0.951   3.157   2.416 -1.5856 -2.0123  0.0652
  271SOL     MW 1084   0.898   3.098   2.455 -0.5827 -0.4399 -0.7048
  272SOL     OW 1085   1.369   3.000   2.769  0.1522 -0.0756 -0.3877
  272SOL    HW1 1086   1.314   3.011   2.696  0.2313  1.1061  2.4807
  272SOL    HW2 1087   1.365   3.086   2.824 -1.1795  3.3147  0.6726
  272SOL     MW 1088   1.361   3.013   2.767 -0.0131  0.5276  0.1307
  273SOL     OW 1089   1.422   0.930   2.814  0.1233 -0.0513  0.3479
  273SOL    HW1 1090   1.514   0.956   2.797  0.0425  0.7440 -0.2848
  273SOL    HW2 1091   1.390   1.003   2.869 -2.0224 -2.5026  1.4350
  273SOL     MW 1092   1.430   0.943   2.819 -0.1705 -0.2698  0.4079
  274SOL     OW 1093   1.338   0.706   0.122 -0.5871 -0.1850 -0.2576
  274SOL    HW1 1094   1.380   0.627   0.152  0.8906 -0.2106  0.0568
  274SOL    HW2 1095   1.251   0.718   0.169  2.7092  0.5528 -2.3041
  274SOL     MW 1096   1.332   0.697   0.132  0.0428 -0.0910 -0.4862
  275SOL     OW 1097   1.686   0.653   1.760  0.4359 -0.3378  0.4675
  275SOL    HW1 1098   1.735   0.676   1.845 -1.3938  0.3289  2.0078
  275SOL    HW2 1099   1.681   0.554   1.763 -0.2729  0.1899  2.4039
  275SOL     MW 1100   1.692   0.643   1.771  0.1010 -0.1802  0.9262
  276SOL     OW 1101   0.193   1.175   1.817 -0.0656 -0.0497 -0.1466
  276SOL    HW1 1102   0.235   1.095   1.857 -0.8216 -1.3544  1.5745
  276SOL    HW2 1103   0.104   1.164   1.847 -1.9443 -0.8429  1.0638
  276SOL     MW 1104   0.187   1.163   1.827 -0.4132 -0.3265  0.2401
  277SOL     OW 1105   1.918   1.376   2.731  0.5595 -0.0419 -0.0199
  277SOL    HW1 1106   1.919   1.472   2.703 -0.3274  0.3106 -2.3834
  277SOL    HW2 1107   2.002   1.348   2.681  0.5832  1.2228 -2.2906
  277SOL     MW 1108   1.929   1.385   2.720  0.4456  0.1715 -0.6314
  278SOL     OW 1109   1.426   0.727   1.764 -0.2898 -0.3613  0.2058
  278SOL    HW1 1110   1.381   0.674   1.836 -0.6341 -2.3664  1.0049
  278SOL    HW2 1111   1.518   0.693   1.769  0.5206 -3.5723  2.8281
  278SOL     MW 1112   1.432   0.715   1.774 -0.2283 -1.0495  0.6572
  279SOL     OW 1113   0.585   3.078   2.261  0.3045 -0.1352  0.0916
  279SOL    HW1 1114   0.672   3.039   2.247  0.8605  4.0920 -3.4321
  279SOL    HW2 1115   0.600   3.172   2.284 -3.1407 -0.6257  0.0137
  279SOL     MW 1116   0.598   3.085   2.262 -0.0767  0.3579 -0.3836
  280SOL     OW 1117   1.429   1.158   2.243  0.2313 -0.2794 -0.3258
  280SOL    HW1 1118   1.460   1.078   2.192 -0.6413  0.5193  0.5914
  280SOL    HW2 1119   1.451   1.125   2.337  0.1957  0.4894  0.1576
  280SOL     MW 1120   1.436   1.143   2.249  0.1114 -0.0726 -0.1410
  281SOL     OW 1121   1.322   1.402   2.810 -0.3685  0.0882  0.8709
  281SOL    HW1 1122   1.398   1.459   2.817 -0.6977  1.8528 -0.2786
  281SOL    HW2 1123   1.346   1.308   2.825 -0.1370  0.7481  0.3955
  281SOL     MW 1124   1.335   1.397   2.813 -0.3814  0.4081  0.6565
  282SOL     OW 1125   1.116   1.291   1.746 -0.9669 -0.3994 -0.1269
  282SOL    HW1 1126   1.054   1.331   1.680  0.9244 -2.0501 -1.4523
  282SOL    HW2 1127   1.069   1.227   1.800  2.4699 -1.2277  1.5189
  282SOL     MW 1128   1.102   1.288   1.745 -0.2639 -0.7264 -0.0846
  283SOL     OW 1129   0.696   1.197   0.024  0.0590  0.2155 -0.9312
  283SOL    HW1 1130   0.789   1.170   0.033  0.9995  1.7321 -0.8979
  283SOL    HW2 1131   0.680   1.290   0.040 -2.1061  1.4348 -1.8351
  283SOL     MW 1132   0.706   1.206   0.027 -0.1025  0.5764 -1.0461
  284SOL     OW 1133   0.475   0.616   2.342  0.1688  0.4944 -0.6276
  284SOL    HW1 1134   0.534   0.691   2.302  1.6949 -0.1451 -0.4659
  284SOL    HW2 1135   0.478   0.554   2.268  0.6140 -1.4700  1.2279
  284SOL     MW 1136   0.483   0.618   2.327  0.4289  0.1508 -0.3614
  285SOL     OW 1137   0.901   0.906   2.778  0.9652 -0.0078  0.2767
  285SOL    HW1 1138   0.849   0.955   2.712  0.9603  3.5816 -0.4841
  285SOL    HW2 1139   0.838   0.833   2.810  1.9569  1.4014  0.9838
  285SOL     MW 1140   0.886   0.903   2.773  1.0954  0.6517  0.2696
  286SOL     OW 1141   1.158   1.464   2.597  0.1176  0.1733 -0.0720
  286SOL    HW1 1142   1.212   1.423   2.664  0.3796 -0.4405  1.5756
  286SOL    HW2 1143   1.156   1.556   2.603  0.9482 -0.7676  0.1263
  286SOL     MW 1144   1.165   1.470   2.607  0.2617 -0.0318  0.1715
  287SOL     OW 1145   1.089   0.942   0.411 -0.5687 -0.2972  0.3035
  287SOL    HW1 1146   1.147   0.952   0.488 -2.1461  1.7640 -0.5469
  287SOL    HW2 1147   1.060   1.033   0.383 -1.3728  1.3519 -1.2711
  287SOL     MW 1148   1.093   0.956   0.417 -0.8829  0.1923 -0.0165
  288SOL     OW 1149   1.496   0.694   2.165  0.4059 -0.3498 -0.4756
  288SOL    HW1 1150   1.485   0.682   2.263  0.4009 -0.7349  1.5451
  288SOL    HW2 1151   1.486   0.786   2.140 -0.1886 -0.7452  2.5240
  288SOL     MW 1152   1.493   0.704   2.175  0.3268 -0.4528  0.1868
  289SOL     OW 1153   0.811   1.060   2.571  0.7225  1.3044  0.8147
  289SOL    HW1 1154   0.852   1.031   2.492 -0.6832  1.7636 -1.0825
  289SOL    HW2 1155   0.732   1.058   2.525  0.8727  0.6275  2.1284
  289SOL     MW 1156   0.806   1.056   2.554  0.5568  1.2757  0.7377
  290SOL     OW 1157   0.846   0.694   1.546  0.3128 -0.2926 -0.1733
  290SOL    HW1 1158   0.880   0.625   1.482 -0.6330 -1.1282 -2.0979
  290SOL    HW2 1159   0.885   0.676   1.636 -0.2352 -0.8205  2.3415
  290SOL     MW 1160   0.856   0.682   1.550  0.1157 -0.4725 -0.0954
  291SOL     OW 1161   0.244   0.377   0.205 -0.4250 -0.2134  0.1322
  291SOL    HW1 1162   0.328   0.332   0.219 -1.7164  1.3353  0.4057
  291SOL    HW2 1163   0.192   0.305   0.166  1.4478 -0.5954 -0.1552
  291SOL     MW 1164   0.248   0.361   0.202 -0.3483 -0.0594  0.1304
  292SOL     OW 1165   0.931   0.572   0.095 -0.1767  0.2195 -0.4769
  292SOL    HW1 1166   0.973   0.649   0.131  1.7057 -0.6172 -0.7489
  292SOL    HW2 1167   0.997   0.501   0.105 -1.2828 -1.0653 -1.2873
  292SOL     MW 1168   0.945   0.573   0.101 -0.0743 -0.0604 -0.6197
  293SOL     OW 1169   0.242   0.101   2.490 -0.1761  0.0959  0.6768
  293SOL    HW1 1170   0.148   0.096   2.474  0.1052  0.8196 -0.7086
  293SOL    HW2 1171   0.246   0.171   2.560 -1.3290  1.9162  0.8080
  293SOL     MW 1172   0.230   0.109   2.497 -0.2911  0.4316  0.5113
  294SOL     OW 1173   1.428   0.633   2.426  0.1537  0.0883  0.4618
  294SOL    HW1 1174   1.483   0.676   2.493  0.5639  2.2476  0.2290
  294SOL    HW2 1175   1.424   0.539   2.443 -3.7016  0.4239 -0.7557
  294SOL     MW 1176   1.435   0.626   2.437 -0.3008  0.4175  0.2704
  295SOL     OW 1177   0.770   0.603   2.506  0.3624  0.6892  0.1762
  295SOL    HW1 1178   0.713   0.526   2.482 -3.5889  2.5077 -0.7255
  295SOL    HW2 1179   0.738   0.633   2.601 -2.6842 -0.9714  2.5388
  295SOL     MW 1180   0.759   0.597   2.515 -0.5609  0.7100  0.3690
  296SOL     OW 1181   1.258   0.290   2.071  0.1450  0.1297  0.1667
  296SOL    HW1 1182   1.349   0.276   2.040  1.3773  2.4053 -3.9575
  296SOL    HW2 1183   1.269   0.241   2.156  0.5481  0.7131 -0.5127
  296SOL     MW 1184   1.271   0.282   2.078  0.3608  0.5069 -0.4671
  297SOL     OW 1185   1.453   0.419   1.512 -0.0777 -0.7758 -0.4326
  297SOL    HW1 1186   1.508   0.495   1.526  0.2589 -0.0351 -3.3226
  297SOL    HW2 1187   1.514   0.351   1.530  1.5741 -2.0096  0.1726
  297SOL     MW 1188   1.468   0.420   1.516  0.1847 -0.8409 -0.7341
  298SOL     OW 1189   1.485   0.946   2.080 -0.3070  0.2834 -0.5661
  298SOL    HW1 1190   1.458   0.981   1.995 -0.1333 -0.5055 -0.9326
  298SOL    HW2 1191   1.583   0.944   2.078 -0.5010  2.0428 -0.8070
  298SOL     MW 1192   1.495   0.951   2.069 -0.3097  0.4114 -0.6463
  299SOL     OW 1193   0.515   0.997   3.023  0.2124  0.0444  0.2039
  299SOL    HW1 1194   0.572   1.060   3.076 -3.9538  0.8450 -0.2035
  299SOL    HW2 1195   0.504   1.042   2.940  4.2793 -0.1804  1.6407
  299SOL     MW 1196   0.521   1.011   3.019  0.1993  0.1204  0.3397
  300SOL     OW 1197   1.181   1.083   2.550  0.4402  0.8207  0.0403
  300SOL    HW1 1198   1.143   1.141   2.480 -2.5109  0.4249 -3.0119
  300SOL    HW2 1199   1.143   1.001   2.524 -0.6053 -1.1063  0.8508
  300SOL     MW 1200   1.171   1.080   2.538 -0.0871  0.5142 -0.2554
  301SOL     OW 1201   1.401   0.740   0.543 -0.1309  0.1513 -0.0452
  301SOL    HW1 1202   1.405   0.700   0.631  2.1233 -0.6308  1.1512
  301SOL    HW2 1203   1.328   0.699   0.505  0.5306  2.1034  1.2664
  301SOL     MW 1204   1.392   0.729   0.550  0.2538  0.3057  0.2857
  302SOL     OW 1205   0.135   1.501   1.948 -0.4635 -0.4733 -0.3671
  302SOL    HW1 1206   0.145   1.442   2.021  2.2856  0.3603 -0.9885
  302SOL    HW2 1207   0.060   1.557   1.971  0.9192 -1.0603  1.2113
  302SOL     MW 1208   0.127   1.501   1.961  0.0817 -0.4408 -0.2408
  303SOL     OW 1209   0.412   1.819   2.644  0.3125 -0.1943 -0.6687
  303SOL    HW1 1210   0.440   1.863   2.566 -1.7701  0.8502 -0.2535
  303SOL    HW2 1211   0.320   1.824   2.664  1.1627 -2.7759 -0.8890
  303SOL     MW 1212   0.404   1.825   2.636  0.1499 -0.3971 -0.6430
  304SOL     OW 1213   0.520   2.000   2.438 -0.3219  0.6050  0.6577
  304SOL    HW1 1214   0.516   2.074   2.377 -1.1555  1.6408 -0.5054
  304SOL    HW2 1215   0.570   1.941   2.385 -0.1289  3.2284 -1.6981
  304SOL     MW 1216   0.526   2.002   2.423 -0.4064  1.0878  0.1935
  305SOL     OW 1217   1.184   0.569   0.453  0.3606  0.1069  0.3300
  305SOL    HW1 1218   1.099   0.539   0.494 -3.0858 -1.5578  0.4934
  305SOL    HW2 1219   1.230   0.496   0.420 -1.8154  1.2150  1.3083
  305SOL     MW 1220   1.178   0.555   0.454 -0.3812  0.0334  0.4806
  306SOL     OW 1221   1.215   1.415   0.289  0.1831 -0.3635  0.3098
  306SOL    HW1 1222   1.260   1.333   0.301 -1.5394  0.5471 -1.4276
  306SOL    HW2 1223   1.279   1.470   0.234 -0.7325  1.1712  0.3764
  306SOL     MW 1224   1.229   1.411   0.283 -0.1649 -0.0409  0.0893
  307SOL     OW 1225   1.313   0.579   1.973 -0.0547  0.5789  0.2971
  307SOL    HW1 1226   1.320   0.492   2.008 -0.9031  0.1549  0.6755
  307SOL    HW2 1227   1.373   0.631   2.031  1.9158  4.3930  0.6022
  307SOL     MW 1228   1.322   0.574   1.985  0.0934  1.0262  0.3873
  308SOL     OW 1229   2.133   0.558   2.747  0.3191  0.6659 -0.0888
  308SOL    HW1 1230   2.136   0.455   2.737  0.0984 -3.3320  0.7232
  308SOL    HW2 1231   2.223   0.580   2.748  0.0329  0.6553 -0.5245
  308SOL     MW 1232   2.145   0.548   2.745  0.2522  0.1370 -0.0392
  309SOL     OW 1233   0.500   0.507   0.380  0.2218 -0.2950  0.0185
  309SOL    HW1 1234   0.515   0.422   0.419  0.0800  1.7951  1.0791
  309SOL    HW2 1235   0.529   0.499   0.292 -2.2172  0.0722  0.2238
  309SOL     MW 1236   0.506   0.495   0.373 -0.1187  0.0292  0.1855
  310SOL     OW 1237   0.417   0.515   1.911  0.1520 -0.2293  0.2198
  310SOL    HW1 1238   0.453   0.444   1.851 -0.3139 -2.3627 -1.5645
  310SOL    HW2 1239   0.484   0.588   1.912  0.9209  2.7556  0.7419
  310SOL     MW 1240   0.431   0.515   1.903  0.1919 -0.1169  0.0533
  311SOL     OW 1241   1.845   0.767   1.943  0.8992 -0.1387 -0.1541
  311SOL    HW1 1242   1.793   0.784   2.023  0.3246  0.3555 -2.3952
  311SOL    HW2 1243   1.904   0.697   1.962 -2.8646  2.4094 -1.5132
  311SOL     MW 1244   1.846   0.760   1.956  0.3268  0.2627 -0.6291
  312SOL     OW 1245   1.726   2.619   3.068 -0.3650 -0.5651 -0.0804
  312SOL    HW1 1246   1.744   2.616   3.163  0.5112  0.6499 -0.6418
  312SOL    HW2 1247   1.631   2.603   3.060 -3.1745  0.1436 -1.4472
  312SOL     MW 1248   1.716   2.617   3.080 -0.6201 -0.3113 -0.3348
  313SOL     OW 1249   0.133   1.203   2.928  0.0185  0.1430  0.1349
  313SOL    HW1 1250   0.187   1.154   2.989 -2.2575 -0.8238 -1.3935
  313SOL    HW2 1251   0.189   1.201   2.849 -2.2472  2.5625  1.0978
  313SOL     MW 1252   0.147   1.197   2.926 -0.5807  0.3347  0.0603
  314SOL     OW 1253   2.156   3.036   2.983  0.3406 -0.4062 -0.5079
  314SOL    HW1 1254   2.090   3.070   2.922  1.4267 -2.1217  1.3603
  314SOL    HW2 1255   2.192   3.108   3.030 -1.1004  1.0557  0.8702
  314SOL     MW 1256   2.152   3.050   2.981  0.2938 -0.4397 -0.0796
  315SOL     OW 1257   1.575   1.985   3.019  0.3094  0.0331  0.1294
  315SOL    HW1 1258   1.488   2.032   3.037  0.2173  0.0993  0.3083
  315SOL    HW2 1259   1.602   2.032   2.937 -1.0635 -2.2927  0.5928
  315SOL     MW 1260   1.567   1.997   3.011  0.1161 -0.2651  0.2142
  316SOL     OW 1261   1.229   0.643   2.694  0.5922  0.4779  0.0923
  316SOL    HW1 1262   1.281   0.566   2.681 -1.1421 -0.9949 -1.7319
  316SOL    HW2 1263   1.241   0.680   2.786 -0.3772 -0.2599  0.6552
  316SOL     MW 1264   1.237   0.638   2.704  0.2355  0.1863 -0.0741
  317SOL     OW 1265   0.660   1.365   2.593 -0.0967  0.3004  0.1408
  317SOL    HW1 1266   0.685   1.313   2.666  1.0829  0.8680  1.2481
  317SOL    HW2 1267   0.730   1.365   2.527 -2.3933  0.7716  1.3150
  317SOL     MW 1268   0.672   1.358   2.594 -0.2441  0.4375  0.4418
  318SOL     OW 1269   1.273   0.404   2.936 -0.0678 -0.7756 -0.3801
  318SOL    HW1 1270   1.181   0.438   2.915 -2.1575  0.9846  1.4350
  318SOL    HW2 1271   1.338   0.452   2.882 -1.1185 -1.4882  1.4189
  318SOL     MW 1272   1.269   0.415   2.926 -0.4822 -0.6374  0.0967
  319SOL     OW 1273   0.760   0.398   2.736  0.2399 -0.3044 -0.1234
  319SOL    HW1 1274   0.710   0.371   2.661 -0.8693 -1.9344  0.3935
  319SOL    HW2 1275   0.734   0.349   2.813 -0.4085  1.3732  0.1799
  319SOL     MW 1276   0.750   0.388   2.736  0.0080 -0.2981 -0.0152
  320SOL     OW 1277   1.017   1.311   2.014  0.3484  0.0304 -0.0810
  320SOL    HW1 1278   1.075   1.248   2.056  1.5908  0.1816 -1.7589
  320SOL    HW2 1279   1.072   1.386   2.003  1.4972 -2.0351 -0.1275
  320SOL     MW 1280   1.032   1.312   2.018  0.6639 -0.2221 -0.3085
  321SOL     OW 1281   1.099   0.981   2.969 -0.1445 -0.1844 -0.6696
  321SOL    HW1 1282   1.043   0.953   2.895  0.1001  0.0533  4.7687
  321SOL    HW2 1283   1.156   0.901   2.976  3.1982 -1.6051  1.2894
  321SOL     MW 1284   1.099   0.967   2.961  0.3288 -0.3405  0.3064
  322SOL     OW 1285   1.225   0.886   1.709 -0.3841 -0.0924  0.0683
  322SOL    HW1 1286   1.307   0.833   1.718  1.5324  0.9617 -1.1049
  322SOL    HW2 1287   1.211   0.912   1.799 -1.8969 -0.9499  1.4241
  322SOL     MW 1288   1.234   0.883   1.722 -0.3308 -0.0664  0.0924
  323SOL     OW 1289   1.197   1.512   1.909  0.0648 -0.3209 -0.4809
  323SOL    HW1 1290   1.182   1.447   1.837 -1.0540  1.3116  2.0338
  323SOL    HW2 1291   1.125   1.571   1.891  0.7100 -1.0291  2.4996
  323SOL     MW 1292   1.186   1.512   1.897  0.0023 -0.1989  0.2441
  324SOL     OW 1293   1.495   1.092   2.483  0.4273  0.3800 -0.3262
  324SOL    HW1 1294   1.408   1.086   2.518 -3.4435 -0.8488 -4.0483
  324SOL    HW2 1295   1.552   1.158   2.523  0.2680 -0.8365 -2.6109
  324SOL     MW 1296   1.491   1.100   2.493 -0.1044  0.0573 -1.1188
  325SOL     OW 1297   0.990   0.456   2.920 -0.0509  0.7909  0.3990
  325SOL    HW1 1298   0.965   0.518   2.992  1.1441 -2.6383 -1.5668
  325SOL    HW2 1299   0.921   0.468   2.853  1.3796 -1.4761 -0.5404
  325SOL     MW 1300   0.978   0.466   2.921  0.2955  0.0393  0.0157
  326SOL     OW 1301   0.387   1.341   2.169  0.3099  0.4453 -0.1225
  326SOL    HW1 1302   0.446   1.306   2.102 -1.8092 -1.7908  0.8970
  326SOL    HW2 1303   0.410   1.436   2.185 -1.1870  0.2472  0.5813
  326SOL     MW 1304   0.398   1.349   2.162 -0.1672  0.1242  0.1049
  327SOL     OW 1305   1.909   0.849   2.410  0.2798 -0.1470 -0.1486
  327SOL    HW1 1306   1.917   0.804   2.496 -1.7184 -3.2788 -0.7531
  327SOL    HW2 1307   1.995   0.890   2.383 -1.2654 -0.7018  2.4698
  327SOL     MW 1308   1.922   0.848   2.418 -0.1877 -0.6334  0.1171
  328SOL     OW 1309   0.131   1.270   2.187 -0.2692  0.8891 -0.0049
  328SOL    HW1 1310   0.122   1.187   2.144  0.6357  0.8215  1.9599
  328SOL    HW2 1311   0.224   1.290   2.175 -2.2910 -0.5104 -0.9295
  328SOL     MW 1312   0.142   1.262   2.180 -0.4166  0.6955  0.1324
  329SOL     OW 1313   0.134   0.166   1.406  0.3817  0.1407 -0.2718
  329SOL    HW1 1314   0.054   0.211   1.406  0.7024 -1.7489 -2.9590
  329SOL    HW2 1315   0.206   0.228   1.416  1.7682  0.8385 -0.3521
  329SOL     MW 1316   0.133   0.180   1.407  0.6070 -0.0166 -0.6369
  330SOL     OW 1317   0.403   2.951   2.082 -0.0945 -0.2542  0.4827
  330SOL    HW1 1318   0.468   2.987   2.147 -1.5257 -0.2169  1.0111
  330SOL    HW2 1319   0.323   2.933   2.127 -1.6297 -0.6071 -0.7182
  330SOL     MW 1320   0.401   2.954   2.096 -0.4859 -0.2959  0.3939
  331SOL     OW 1321   0.722   1.187   2.219 -0.2195  0.2699 -0.1163
  331SOL    HW1 1322   0.679   1.200   2.137  0.1873  2.7010  1.6314
  331SOL    HW2 1323   0.722   1.270   2.269 -1.8724  1.8930 -3.0744
  331SOL     MW 1324   0.716   1.200   2.215 -0.3839  0.8048 -0.2760
  332SOL     OW 1325   1.353   1.743   2.933  0.0427 -0.1738 -0.1682
  332SOL    HW1 1326   1.386   1.763   2.838 -0.0660 -0.2349 -2.1123
  332SOL    HW2 1327   1.375   1.818   2.987 -2.4035  0.2096  0.8176
  332SOL     MW 1328   1.360   1.756   2.928 -0.2944 -0.1313 -0.2947
  333SOL     OW 1329   1.740   1.507   3.034 -0.0454 -0.2205 -0.1109
  333SOL    HW1 1330   1.829   1.489   2.998  1.0527 -1.2407  1.1142
  333SOL    HW2 1331   1.722   1.423   3.081  2.3343 -2.1687  0.6465
  333SOL     MW 1332   1.750   1.493   3.036  0.4135 -0.6122  0.1506
  334SOL     OW 1333   1.165   3.079   2.589  0.2493 -0.5446  0.0065
  334SOL    HW1 1334   1.095   3.063   2.661 -2.3807  0.2233 -0.2019
  334SOL    HW2 1335   1.199   3.168   2.600  1.5007 -1.5268  1.4180
  334SOL     MW 1336   1.161   3.088   2.600  0.0674 -0.5729  0.1652
  335SOL     OW 1337   1.261   0.756   2.947 -0.0211 -0.7757  0.3289
  335SOL    HW1 1338   1.278   0.745   3.038 -1.1299  0.9716  0.7499
  335SOL    HW2 1339   1.323   0.818   2.908  1.6492  0.7263  0.3408
  335SOL     MW 1340   1.272   0.763   2.954  0.0530 -0.3470  0.3860
  336SOL     OW 1341   0.943   1.080   1.852 -0.1283 -0.6066 -0.1589
  336SOL    HW1 1342   0.943   1.156   1.913 -0.1296  1.9689  0.7220
  336SOL    HW2 1343   1.005   1.017   1.889  0.5027 -3.3641 -1.5380
  336SOL     MW 1344   0.951   1.082   1.865 -0.0452 -0.6306 -0.2247
  337SOL     OW 1345   0.625   1.774   2.828 -0.9155  0.0160 -0.0659
  337SOL    HW1 1346   0.562   1.775   2.755 -0.5117  2.7658 -0.9549
  337SOL    HW2 1347   0.682   1.699   2.816 -0.9284 -5.2942 -0.5608
  337SOL     MW 1348   0.624   1.764   2.816 -0.8639 -0.3218 -0.2485
  338SOL     OW 1349   1.036   0.795   2.557 -0.1189 -0.1460 -1.1018
  338SOL    HW1 1350   1.022   0.849   2.639  2.1208 -1.8216  0.2315
  338SOL    HW2 1351   1.075   0.717   2.597  2.0124 -1.7426  0.5933
  338SOL     MW 1352   1.039   0.792   2.573  0.4578 -0.5777 -0.7023
  339SOL     OW 1353   1.417   1.098   1.843  0.5521 -0.5330 -0.2683
  339SOL    HW1 1354   1.422   1.090   1.748  0.0426  0.9420 -1.3532
  339SOL    HW2 1355   1.447   1.183   1.877 -0.4558  1.9320  2.5945
  339SOL     MW 1356   1.422   1.108   1.835  0.3519 -0.0132 -0.0337
  340SOL     OW 1357   1.363   1.551   0.083 -0.4482  0.4817 -0.0460
  340SOL    HW1 1358   1.375   1.593  -0.006  0.0262  0.1230 -1.9127
  340SOL    HW2 1359   1.447   1.543   0.123 -0.3122  1.5172 -0.3455
  340SOL     MW 1360   1.376   1.555   0.076 -0.3677  0.5710 -0.3318
  341SOL     OW 1361   0.182   1.263   2.650 -1.1527  0.1670  0.1525
  341SOL    HW1 1362   0.200   1.359   2.650  0.3307 -0.2640  0.0445
  341SOL    HW2 1363   0.107   1.253   2.595 -2.0545 -1.1213 -0.2967
  341SOL     MW 1364   0.174   1.275   2.643 -1.0760 -0.0599  0.0790
  342SOL     OW 1365   1.406   0.269   0.081  0.2783  0.1510 -0.2369
  342SOL    HW1 1366   1.422   0.353   0.120  0.4234 -0.6138  4.3603
  342SOL    HW2 1367   1.376   0.272  -0.010 -1.4261  0.5357 -0.0811
  342SOL     MW 1368   1.404   0.280   0.074  0.0725  0.1009  0.3902
  343SOL     OW 1369   0.207   0.308   2.275 -0.4612 -0.2176  0.3209
  343SOL    HW1 1370   0.220   0.238   2.335 -0.8708  0.4143  2.2285
  343SOL    HW2 1371   0.145   0.268   2.211 -1.3736 -1.7436  2.0741
  343SOL     MW 1372   0.201   0.294   2.275 -0.6357 -0.3356  0.8039
  344SOL     OW 1373   1.682   2.175   0.097 -0.1167 -0.1370  0.4534
  344SOL    HW1 1374   1.731   2.224   0.036 -0.5793 -1.6222 -2.3913
  344SOL    HW2 1375   1.650   2.096   0.043  1.2135 -1.3922 -1.5966
  344SOL     MW 1376   1.684   2.171   0.082 -0.0022 -0.4985 -0.1924
  345SOL     OW 1377   0.670   1.586   2.364  0.0828  0.2784  0.0689
  345SOL    HW1 1378   0.578   1.581   2.329  1.9761  0.7552 -1.9422
  345SOL    HW2 1379   0.732   1.548   2.293  0.0703 -0.6639 -0.0808
  345SOL     MW 1380   0.666   1.581   2.350  0.3310  0.2170 -0.2162
  346SOL     OW 1381   1.688   1.028   0.003  0.1421 -0.2157 -0.2083
  346SOL    HW1 1382   1.779   1.010   0.026 -1.1290  1.9588  1.9080
  346SOL    HW2 1383   1.638   0.994   0.074 -0.0410 -0.4411 -0.8348
  346SOL     MW 1384   1.693   1.021   0.016 -0.0497  0.0415 -0.0117
  347SOL     OW 1385   1.175   0.657   2.346 -0.4951  0.2317 -0.1468
  347SOL    HW1 1386   1.272   0.648   2.369  1.6425  0.3035  0.9206
  347SOL    HW2 1387   1.148   0.723   2.409 -0.4275 -1.8948 -2.2132
  347SOL     MW 1388   1.184   0.664   2.357 -0.2041 -0.0394 -0.2786
  348SOL     OW 1389   1.316   2.669   1.886  0.4320 -0.3362  0.0110
  348SOL    HW1 1390   1.344   2.588   1.922  0.5002  1.4483 -0.8232
  348SOL    HW2 1391   1.352   2.733   1.946  2.2454 -0.3353  1.6498
  348SOL     MW 1392   1.324   2.666   1.898  0.6803 -0.1006  0.1171
  349SOL     OW 1393   1.337   0.208   2.685  0.2567 -0.4816 -0.1123
  349SOL    HW1 1394   1.294   0.254   2.756  1.8673 -0.2625  1.0027
  349SOL    HW2 1395   1.420   0.170   2.718  1.8529 -0.4929 -0.3953
  349SOL     MW 1396   1.343   0.209   2.699  0.6798 -0.4542 -0.0025
  350SOL     OW 1397   1.898   0.651   2.641 -0.5249 -0.3875  0.1061
  350SOL    HW1 1398   1.841   0.580   2.610  1.5737 -2.6813 -0.8664
  350SOL    HW2 1399   1.981   0.612   2.680  0.3840 -1.5785  0.3030
  350SOL     MW 1400   1.902   0.637   2.642 -0.1281 -0.8472  0.0038
  351SOL     OW 1401   0.046   0.969   1.565 -0.5739 -0.1622  0.3309
  351SOL    HW1 1402  -0.026   1.006   1.618 -1.8411 -2.6641 -1.1906
  351SOL    HW2 1403   0.106   1.041   1.551 -0.6129 -2.0129 -0.5601
  351SOL     MW 1404   0.044   0.983   1.570 -0.7463 -0.7365  0.0126
  352SOL     OW 1405   0.815   1.565   2.717 -0.1444 -0.3298 -0.0430
  352SOL    HW1 1406   0.868   1.518   2.775 -2.3234  0.3059 -1.7174
  352SOL    HW2 1407   0.752   1.501   2.675 -2.1152 -0.4186  0.3582
  352SOL     MW 1408   0.814   1.550   2.719 -0.6919 -0.2576 -0.2110
  353SOL     OW 1409   3.083   2.431   2.772 -0.0756 -0.3463 -0.3958
  353SOL    HW1 1410   3.173   2.407   2.749 -1.5066  4.2489 -0.2835
  353SOL    HW2 1411   3.067   2.506   2.720 -1.0006 -1.3153  1.3997
  353SOL     MW 1412   3.093   2.438   2.762 -0.3864  0.1321 -0.1441
  354SOL     OW 1413   0.350   2.462   0.897  0.4884 -0.1380  0.3931
  354SOL    HW1 1414   0.380   2.427   0.989  0.7955 -2.9900 -1.7608
  354SOL    HW2 1415   0.271   2.408   0.879 -0.2605 -0.5009  0.2396
  354SOL     MW 1416   0.344   2.450   0.907  0.4301 -0.5622  0.0887
  355SOL     OW 1417   0.083   2.264   0.374  0.2943 -0.0685 -0.4930
  355SOL    HW1 1418  -0.001   2.214   0.378  0.0344 -2.6543  2.0128
  355SOL    HW2 1419   0.080   2.306   0.459 -0.4468 -0.9063  0.5139
  355SOL     MW 1420   0.072   2.263   0.386  0.1622 -0.5202 -0.0296
  356SOL     OW 1421   0.707   2.936   0.976 -0.0247 -0.0302 -0.0371
  356SOL    HW1 1422   0.791   2.915   0.936 -0.5038  1.2123  1.8776
  356SOL    HW2 1423   0.639   2.867   0.948 -0.0341  1.2292 -0.3652
  356SOL     MW 1424   0.709   2.924   0.967 -0.0891  0.2999  0.1722
  357SOL     OW 1425   1.784   2.974   0.367 -0.2761 -0.4591 -0.1051
  357SOL    HW1 1426   1.742   2.941   0.448 -0.7230 -0.5713  2.1359
  357SOL    HW2 1427   1.875   2.929   0.354  0.5708  0.1154 -0.4030
  357SOL     MW 1428   1.791   2.964   0.376 -0.2233 -0.3981  0.1513
  358SOL     OW 1429   0.504   0.144   1.038 -1.0001  0.2958  0.7615
  358SOL    HW1 1430   0.585   0.140   0.982  1.2084 -0.5464 -1.2206
  358SOL    HW2 1431   0.442   0.175   0.973 -0.2129 -1.2428 -0.8679
  358SOL     MW 1432   0.506   0.147   1.022 -0.6048 -0.0183  0.2850
  359SOL     OW 1433   0.898   2.728   1.917 -0.6062  0.1439  0.2913
  359SOL    HW1 1434   0.866   2.664   1.981  1.0025  3.0756 -2.1053
  359SOL    HW2 1435   0.951   2.679   1.851 -0.9669  2.4321 -2.8706
  359SOL     MW 1436   0.901   2.713   1.916 -0.4416  0.8326 -0.4421
  360SOL     OW 1437   0.521   2.726   0.920  0.7677 -0.0035  0.1196
  360SOL    HW1 1438   0.530   2.657   0.854 -2.8264  1.7679  0.6151
  360SOL    HW2 1439   0.538   2.694   1.010  1.3088  0.7218 -1.7516
  360SOL     MW 1440   0.524   2.712   0.923  0.3649  0.3259 -0.0619
  361SOL     OW 1441   0.177   2.746   1.378  0.0740  0.3049 -0.0446
  361SOL    HW1 1442   0.148   2.825   1.407 -0.3475 -3.9142  0.2286
  361SOL    HW2 1443   0.270   2.750   1.371 -0.8188  0.1841 -1.0416
  361SOL     MW 1444   0.186   2.757   1.381 -0.0994 -0.2677 -0.1401
  362SOL     OW 1445   1.486   2.406   0.618  0.5797  0.0403 -0.5192
  362SOL    HW1 1446   1.484   2.325   0.668 -0.8023  1.8643  0.1636
  362SOL    HW2 1447   1.474   2.470   0.687  1.3579 -0.4371  1.0482
  362SOL     MW 1448   1.484   2.404   0.634  0.5000  0.2180 -0.2223
  363SOL     OW 1449   0.281   3.066   0.680 -0.3096 -0.2921 -0.0321
  363SOL    HW1 1450   0.306   3.014   0.752 -0.1086 -2.0224  1.3417
  363SOL    HW2 1451   0.189   3.065   0.667 -1.9883  0.8653  0.8985
  363SOL     MW 1452   0.272   3.059   0.688 -0.5045 -0.3677  0.2720
  364SOL     OW 1453   0.745   0.155   0.238  0.0177 -0.0520 -0.1837
  364SOL    HW1 1454   0.706   0.068   0.250  1.1974  0.5686 -1.0453
  364SOL    HW2 1455   0.669   0.209   0.210 -0.3694  1.9846 -2.4712
  364SOL     MW 1456   0.730   0.151   0.236  0.1223  0.2986 -0.5992
  365SOL     OW 1457   1.030   1.982   1.133  0.1575 -0.2652  0.3587
  365SOL    HW1 1458   1.003   2.070   1.095 -1.8585  0.5224 -1.3184
  365SOL    HW2 1459   0.970   1.915   1.113  1.4979  0.1700  0.9279
  365SOL     MW 1460   1.019   1.985   1.126  0.0683 -0.1039  0.2126
  366SOL     OW 1461   2.872   2.636   0.997 -0.0004 -0.0889  0.4720
  366SOL    HW1 1462   2.940   2.644   1.058  0.5762  2.0854 -0.0957
  366SOL    HW2 1463   2.908   2.661   0.909 -1.3269  2.1842 -1.1356
  366SOL     MW 1464   2.885   2.640   0.994 -0.0993  0.4979  0.1850
  367SOL     OW 1465   1.276   2.951   0.862  0.2232 -0.1479  0.2993
  367SOL    HW1 1466   1.188   2.974   0.886  2.6992  0.1343 -1.9321
  367SOL    HW2 1467   1.269   2.900   0.788  1.6200  1.3415  0.7070
  367SOL     MW 1468   1.263   2.947   0.855  0.7342  0.0859  0.0587
  368SOL     OW 1469   1.705   0.445   0.661  0.2098 -0.1865  0.1470
  368SOL    HW1 1470   1.778   0.382   0.642  2.2380 -0.3050  0.5877
  368SOL    HW2 1471   1.735   0.539   0.643 -2.4653 -1.7591  2.7144
  368SOL     MW 1472   1.719   0.449   0.657  0.1244 -0.4096  0.5439
  369SOL     OW 1473   0.155   2.460   1.742 -0.4046  0.3482 -0.1334
  369SOL    HW1 1474   0.237   2.420   1.775  0.6504  0.6478 -0.8107
  369SOL    HW2 1475   0.143   2.536   1.796 -2.1351 -3.0941 -1.6815
  369SOL     MW 1476   0.165   2.464   1.754 -0.4937 -0.0664 -0.4271
  370SOL     OW 1477   0.706   0.092   0.868 -0.3201 -0.0156 -0.0695
  370SOL    HW1 1478   0.777   0.149   0.898  0.2656  0.1484  1.0078
  370SOL    HW2 1479   0.709   0.009   0.926 -1.4714  2.3775  0.3953
  370SOL     MW 1480   0.716   0.089   0.879 -0.3948  0.3218  0.1340
  371SOL     OW 1481   1.371   2.995   1.486 -0.1534  0.2420  0.8336
  371SOL    HW1 1482   1.337   2.904   1.464 -1.7278 -3.0744  1.6714
  371SOL    HW2 1483   1.381   3.037   1.403 -4.0020  1.6171  0.4261
  371SOL     MW 1484   1.368   2.989   1.472 -0.8689 -0.0141  0.8904
  372SOL     OW 1485   0.778   2.290   0.468 -0.0588 -0.4133  0.0369
  372SOL    HW1 1486   0.730   2.214   0.499 -0.2523 -3.2038  1.4601
  372SOL    HW2 1487   0.771   2.289   0.375  3.1845 -2.5128  0.0887
  372SOL     MW 1488   0.771   2.280   0.460  0.3436 -1.0585  0.2315
  373SOL     OW 1489   2.786   2.987   1.386 -0.2616 -0.3071  0.3655
  373SOL    HW1 1490   2.863   2.967   1.328  0.4739 -0.3030 -1.6215
  373SOL    HW2 1491   2.756   3.074   1.360  0.4960 -1.1131  0.3374
  373SOL     MW 1492   2.792   2.996   1.375 -0.0646 -0.4129  0.0997
  374SOL     OW 1493   1.477   0.510   0.238 -0.4040  0.5545  0.0365
  374SOL    HW1 1494   1.561   0.555   0.206  0.1165 -0.7494 -1.2661
  374SOL    HW2 1495   1.501   0.459   0.316  2.1591 -0.9209  1.5956
  374SOL     MW 1496   1.491   0.510   0.244  0.0029  0.1878  0.0703
  375SOL     OW 1497   1.122   2.117   2.256  0.0013 -0.0306  0.0839
  375SOL    HW1 1498   1.150   2.139   2.344 -0.3978 -1.4646  0.7210
  375SOL    HW2 1499   1.095   2.023   2.276  0.6735 -2.7612  0.1598
  375SOL     MW 1500   1.122   2.107   2.270  0.0373 -0.5801  0.1780
  376SOL     OW 1501   0.681   2.549   0.157  0.6688 -0.5536 -0.0038
  376SOL    HW1 1502   0.754   2.510   0.209  2.9711 -2.1746  0.6800
  376SOL    HW2 1503   0.637   2.471   0.115 -0.7771 -0.6762 -0.3644
  376SOL     MW 1504   0.685   2.533   0.158  0.7818 -0.7837  0.0388
  377SOL     OW 1505   1.311   2.097   0.904  0.0133  0.3899 -0.1408
  377SOL    HW1 1506   1.250   2.055   0.841  1.3313  1.1927  0.9698
  377SOL    HW2 1507   1.338   2.029   0.969  0.8092 -0.0914  3.6596
  377SOL     MW 1508   1.307   2.082   0.904  0.2922  0.4323  0.5071
  378SOL     OW 1509   0.983   2.835   1.501 -0.5029 -0.2073  0.1164
  378SOL    HW1 1510   0.954   2.744   1.523 -0.1486 -0.4824 -0.9687
  378SOL    HW2 1511   0.937   2.853   1.419 -0.2302 -1.9772  0.6602
  378SOL     MW 1512   0.973   2.825   1.493 -0.4202 -0.4771  0.0450
  379SOL     OW 1513   1.037   1.829   2.279 -0.1910  0.0232  0.3714
  379SOL    HW1 1514   0.953   1.824   2.319  0.4637  1.0370  0.3465
  379SOL    HW2 1515   1.068   1.746   2.242 -1.8386  1.1319  2.7934
  379SOL     MW 1516   1.030   1.818   2.279 -0.3220  0.3033  0.6877
  380SOL     OW 1517   0.912   0.236   1.512 -0.1493  0.3184  1.0683
  380SOL    HW1 1518   0.933   0.180   1.439 -1.2625 -2.1323 -1.8539
  380SOL    HW2 1519   0.988   0.222   1.569  0.3635 -1.4049  0.9794
  380SOL     MW 1520   0.925   0.227   1.510 -0.2285 -0.2323  0.6710
  381SOL     OW 1521   0.833   2.010   0.813  0.1892  0.2075  0.5744
  381SOL    HW1 1522   0.924   2.000   0.779 -2.2771  0.7896  1.0001
  381SOL    HW2 1523   0.836   2.096   0.865  0.4490  2.7853 -0.6102
  381SOL     MW 1524   0.846   2.020   0.815 -0.1019  0.6244  0.4742
  382SOL     OW 1525   0.668   0.020   0.597  0.3373 -0.2341 -0.0668
  382SOL    HW1 1526   0.656   0.045   0.685  0.9602 -0.3403  0.2855
  382SOL    HW2 1527   0.697  -0.074   0.602 -0.0557 -0.5476 -2.2968
  382SOL     MW 1528   0.670   0.011   0.609  0.3676 -0.2895 -0.3145
  383SOL     OW 1529   0.509   0.029   0.353 -0.5842 -0.9165  0.5267
  383SOL    HW1 1530   0.559  -0.002   0.435 -3.4727 -5.0653  0.4890
  383SOL    HW2 1531   0.422  -0.002   0.364  2.7160  2.3554 -1.9821
  383SOL     MW 1532   0.504   0.021   0.365 -0.5299 -1.0322  0.1908
  384SOL     OW 1533   0.632   2.855   0.577  0.2245  0.3551  0.4074
  384SOL    HW1 1534   0.626   2.774   0.633 -0.0760 -0.3255  0.7028
  384SOL    HW2 1535   0.537   2.877   0.544  0.4794  0.8527  0.5026
  384SOL     MW 1536   0.618   2.847   0.580  0.2185  0.3310  0.4589
  385SOL     OW 1537   1.329   2.036   1.533 -0.4373 -0.1835 -0.2386
  385SOL    HW1 1538   1.398   2.061   1.598 -1.0281 -1.9418 -0.7364
  385SOL    HW2 1539   1.299   1.953   1.569  2.1135  1.9446 -0.2197
  385SOL     MW 1540   1.334   2.028   1.546 -0.1787 -0.1347 -0.3018
  386SOL     OW 1541   1.293   0.439   0.936  0.7257 -0.0415 -0.3683
  386SOL    HW1 1542   1.218   0.423   0.886  2.1355  1.5741 -0.0993
  386SOL    HW2 1543   1.272   0.423   1.027  0.1648  0.6661 -0.4685
  386SOL     MW 1544   1.280   0.435   0.941  0.8377  0.2650 -0.3460
  387SOL     OW 1545   0.860   2.205   1.433  0.3882 -0.3786 -0.3812
  387SOL    HW1 1546   0.944   2.246   1.393 -1.0202  0.3032 -1.2615
  387SOL    HW2 1547   0.875   2.110   1.430  0.9922 -2.2935  1.2178
  387SOL     MW 1548   0.873   2.198   1.428  0.2821 -0.5413 -0.2864
  388SOL     OW 1549   1.584   2.861   1.226  0.1378  0.0245 -0.1301
  388SOL    HW1 1550   1.504   2.818   1.184 -0.2759 -1.9586  0.9346
  388SOL    HW2 1551   1.659   2.813   1.180  1.8101  1.9242 -2.9327
  388SOL     MW 1552   1.583   2.849   1.214  0.3038  0.0135 -0.3594
  389SOL     OW 1553   0.445   0.085   3.076 -0.2151  0.7190 -0.0826
  389SOL    HW1 1554   0.537   0.054   3.062 -0.2005  0.4502  0.8004
  389SOL    HW2 1555   0.379   0.011   3.075 -2.6624 -0.8680  0.8182
  389SOL     MW 1556   0.448   0.071   3.074 -0.5360  0.4741  0.1527
  390SOL     OW 1557   1.370   0.084   0.649  0.4224 -0.7860 -0.2459
  390SOL    HW1 1558   1.459   0.077   0.614  0.8401 -2.9501 -1.5358
  390SOL    HW2 1559   1.389   0.113   0.739  1.3793  0.5129 -0.8304
  390SOL     MW 1560   1.384   0.087   0.656  0.6038 -0.9002 -0.4932
  391SOL     OW 1561   0.278   2.294   1.432 -0.5622  0.6213 -0.3922
  391SOL    HW1 1562   0.248   2.208   1.470 -3.1460  1.8037 -1.3838
  391SOL    HW2 1563   0.199   2.354   1.433  2.2902 -2.7427  1.0948
  391SOL     MW 1564   0.263   2.291   1.437 -0.5268  0.3334 -0.3269
  392SOL     OW 1565   2.007   2.170   0.278 -0.6580  0.1588  0.4258
  392SOL    HW1 1566   1.948   2.231   0.317 -0.5033  0.4780 -2.9776
  392SOL    HW2 1567   2.055   2.131   0.354  0.5448 -3.0038  1.8912
  392SOL     MW 1568   2.005   2.173   0.293 -0.4789 -0.2164  0.1701
  393SOL     OW 1569   0.217   2.996   2.947  0.2091  0.0691  0.3051
  393SOL    HW1 1570   0.278   3.028   2.883 -2.3816  0.3426  2.1882
  393SOL    HW2 1571   0.136   3.038   2.921  1.7299 -3.7194 -0.7849
  393SOL     MW 1572   0.214   3.006   2.935  0.0680 -0.3947  0.4097
  394SOL     OW 1573   0.811   1.670   1.463  0.0826 -0.2843 -0.8033
  394SOL    HW1 1574   0.754   1.667   1.549 -3.0619  2.2724 -0.2001
  394SOL    HW2 1575   0.822   1.756   1.441 -1.9023 -2.2108 -0.9658
  394SOL     MW 1576   0.805   1.681   1.471 -0.5942 -0.2012 -0.7451
  395SOL     OW 1577   0.917   2.844   2.612 -0.1410  0.1125 -0.1509
  395SOL    HW1 1578   0.936   2.916   2.681  3.6607  1.4927  0.3754
  395SOL    HW2 1579   0.999   2.807   2.563 -1.3657 -0.5673 -1.6449
  395SOL     MW 1580   0.930   2.849   2.614  0.1990  0.2049 -0.2786
  396SOL     OW 1581   0.743   1.840   2.367  0.0509  0.3840 -0.4380
  396SOL    HW1 1582   0.796   1.834   2.448  1.2038  0.6340  1.2387
  396SOL    HW2 1583   0.705   1.751   2.350  0.3679  1.8862 -0.3785
  396SOL     MW 1584   0.745   1.827   2.376  0.2448  0.6152 -0.2089
  397SOL     OW 1585   1.044   2.343   1.288  0.0670  0.0922  0.5937
  397SOL    HW1 1586   1.057   2.383   1.202 -0.1454 -1.5118 -3.1938
  397SOL    HW2 1587   1.109   2.385   1.347 -2.0134  0.5259 -0.1067
  397SOL     MW 1588   1.054   2.353   1.285 -0.2355 -0.0622  0.0015
  398SOL     OW 1589   0.576   2.605   0.680 -0.0773 -0.2230 -0.3275
  398SOL    HW1 1590   0.501   2.604   0.625 -1.7302  1.9510  1.6525
  398SOL    HW2 1591   0.654   2.556   0.641  1.6156  0.5739 -1.2855
  398SOL     MW 1592   0.576   2.598   0.667 -0.0720  0.1689 -0.1927
  399SOL     OW 1593   0.256   2.039   0.350  0.0433  0.0786 -0.0707
  399SOL    HW1 1594   0.212   2.117   0.368  1.2103  1.0873 -0.0250
  399SOL    HW2 1595   0.331   2.058   0.295  1.4698  1.2334 -1.8268
  399SOL     MW 1596   0.260   2.052   0.345  0.3855  0.3641 -0.2964
  400SOL     OW 1597   0.593   1.832   0.205  0.6607  0.1521  0.0173
  400SOL    HW1 1598   0.539   1.914   0.195  1.2080 -0.3002  0.2122
  400SOL    HW2 1599   0.540   1.777   0.263 -1.0114  2.3872  1.6208
  400SOL     MW 1600   0.579   1.836   0.211  0.5123  0.3873  0.2546
  401SOL     OW 1601   1.011   2.102   0.075  0.0759 -0.3415 -0.5411
  401SOL    HW1 1602   1.011   2.016   0.110  0.1183  1.1112 -0.7279
  401SOL    HW2 1603   1.054   2.159   0.136 -1.2613  2.1938  0.4061
  401SOL     MW 1604   1.016   2.098   0.088 -0.0950  0.1847 -0.4408
  402SOL     OW 1605   0.678   2.711   1.730  0.3805  0.8171  0.1216
  402SOL    HW1 1606   0.606   2.754   1.770  0.5221 -2.7735  2.2621
  402SOL    HW2 1607   0.750   2.726   1.789 -0.1498  1.1155 -3.0358
  402SOL     MW 1608   0.678   2.719   1.743  0.3293  0.3827 -0.0126
  403SOL     OW 1609   0.077   0.576   0.353  0.1974 -0.1974 -0.2079
  403SOL    HW1 1610   0.149   0.586   0.419 -2.8113 -2.5124  3.2449
  403SOL    HW2 1611   0.109   0.511   0.298  0.1554  4.0148 -0.6361
  403SOL     MW 1612   0.091   0.568   0.354 -0.2051  0.0529  0.1911
  404SOL     OW 1613   0.978   2.908   0.879  0.0526  0.0003 -0.2368
  404SOL    HW1 1614   1.039   2.851   0.840  0.6479 -1.5947  0.2100
  404SOL    HW2 1615   0.963   2.978   0.814 -0.5224 -0.5163  0.8455
  404SOL     MW 1616   0.984   2.909   0.866  0.0553 -0.2783 -0.0351
  405SOL     OW 1617   0.451   2.457   1.584  0.2323  0.3833 -0.2794
  405SOL    HW1 1618   0.468   2.533   1.535  0.1590 -4.3703  1.1013
  405SOL    HW2 1619   0.395   2.401   1.529 -0.2984 -2.8576  0.8413
  405SOL     MW 1620   0.446   2.459   1.570  0.1526 -0.6715  0.0506
  406SOL     OW 1621   0.401   2.407   1.161 -0.3759  0.0919  0.0838
  406SOL    HW1 1622   0.308   2.389   1.178  1.4376 -1.0652  1.1932
  406SOL    HW2 1623   0.444   2.338   1.208 -1.1088  0.9955 -2.7221
  406SOL     MW 1624   0.394   2.395   1.169 -0.2333  0.0585 -0.1400
  407SOL     OW 1625   3.086   2.711   1.175  0.5890 -0.4971  0.2728
  407SOL    HW1 1626   3.132   2.707   1.261  0.1626 -1.3900 -1.5036
  407SOL    HW2 1627   3.150   2.688   1.111 -0.2449 -2.1802  2.4808
  407SOL     MW 1628   3.100   2.708   1.178  0.4227 -0.8370  0.3298
  408SOL     OW 1629   2.073   2.068   0.544  0.1332  0.2098 -0.4631
  408SOL    HW1 1630   2.059   2.109   0.629 -0.1268  0.7724  1.6380
  408SOL    HW2 1631   2.001   1.996   0.543 -2.9850 -0.2246  1.5296
  408SOL     MW 1632   2.062   2.064   0.555 -0.3125  0.2267  0.0770
  409SOL     OW 1633   1.419   0.162   0.904 -0.3518  0.2433 -0.1010
  409SOL    HW1 1634   1.417   0.259   0.910 -0.6533  0.4648 -1.5019
  409SOL    HW2 1635   1.513   0.148   0.911 -1.6357  0.2638 -1.1671
  409SOL     MW 1636   1.431   0.173   0.906 -0.5610  0.2753 -0.4265
  410SOL     OW 1637   1.074   2.508   1.050 -0.0932  0.1423  0.3847
  410SOL    HW1 1638   1.011   2.517   0.980  1.6832 -1.9693  2.4038
  410SOL    HW2 1639   1.124   2.441   1.003 -0.1723 -1.2317  0.0226
  410SOL     MW 1640   1.072   2.500   1.034  0.1308 -0.3176  0.6033
  411SOL     OW 1641   1.951   0.098   2.874  0.0710  0.4456  0.2085
  411SOL    HW1 1642   1.917   0.072   2.786  3.6939 -0.3351 -0.0237
  411SOL    HW2 1643   1.882   0.115   2.935  1.3561 -1.9212  0.8822
  411SOL     MW 1644   1.938   0.097   2.871  0.7186  0.0303  0.2668
  412SOL     OW 1645   1.031   2.217   0.566  0.2214 -0.5235 -0.1600
  412SOL    HW1 1646   1.098   2.287   0.595  0.3695 -0.6200 -1.8952
  412SOL    HW2 1647   0.945   2.262   0.535  1.0636  0.5951 -0.4953
  412SOL     MW 1648   1.028   2.232   0.565  0.3521 -0.3887 -0.4332
  413SOL     OW 1649   0.541   2.773   0.111 -0.6428 -0.0755  0.2483
  413SOL    HW1 1650   0.581   2.686   0.118 -0.4379 -1.8033  0.8080
  413SOL    HW2 1651   0.544   2.814   0.022 -2.9756 -0.6388  1.7574
  413SOL     MW 1652   0.546   2.767   0.100 -0.9236 -0.3778  0.5213
  414SOL     OW 1653   1.999   3.019   1.011 -0.2963 -0.1833  0.1517
  414SOL    HW1 1654   1.917   2.994   0.977  1.7484  0.8242 -0.2675
  414SOL    HW2 1655   2.065   2.970   0.967 -0.5176  3.2513  0.5095
  414SOL     MW 1656   1.997   3.009   1.001 -0.0557  0.4028  0.1436
  415SOL     OW 1657   1.741   2.684   1.103  0.3947  0.6059 -0.4265
  415SOL    HW1 1658   1.692   2.623   1.158 -0.4092 -0.8307  1.3438
  415SOL    HW2 1659   1.832   2.697   1.147  1.7428  0.7959 -0.5386
  415SOL     MW 1660   1.746   2.678   1.116  0.4665  0.4414 -0.2077
  416SOL     OW 1661   0.567   1.947   1.379  0.0790  0.3221  0.0107
  416SOL    HW1 1662   0.553   2.036   1.345  0.8428 -1.2841 -0.2687
  416SOL    HW2 1663   0.549   1.891   1.301 -1.5796  2.0211 -1.8602
  416SOL     MW 1664   0.563   1.952   1.364 -0.0391  0.3344 -0.2730
  417SOL     OW 1665   1.081   2.992   1.993  0.6186 -0.2507 -0.6189
  417SOL    HW1 1666   1.019   2.997   2.068 -0.2094  1.2976 -2.7480
  417SOL    HW2 1667   1.037   2.928   1.936 -1.1874  1.3207 -0.5457
  417SOL     MW 1668   1.067   2.984   1.996  0.2710  0.1609 -0.8902
  418SOL     OW 1669   0.722   2.967   0.175  0.4340  0.6373  0.2286
  418SOL    HW1 1670   0.763   2.932   0.089  0.5884  2.0372 -1.1403
  418SOL    HW2 1671   0.633   2.938   0.161 -0.3853  0.7781  1.1560
  418SOL     MW 1672   0.716   2.958   0.162  0.3463  0.8406  0.1704
  419SOL     OW 1673   0.463   2.674   1.405  0.0899 -0.1290  0.1832
  419SOL    HW1 1674   0.507   2.755   1.438  1.8579  2.3867 -1.4752
  419SOL    HW2 1675   0.505   2.668   1.321 -2.6219  0.1063 -0.4030
  419SOL     MW 1676   0.475   2.684   1.398 -0.0346  0.2339 -0.1129
  420SOL     OW 1677   0.906   2.221   0.997 -0.4761  0.1333  0.4485
  420SOL    HW1 1678   0.837   2.203   1.065 -1.7852 -2.8920  1.9693
  420SOL    HW2 1679   0.906   2.318   0.978  4.0145  1.0933  0.0635
  420SOL     MW 1680   0.897   2.231   1.003 -0.0563 -0.1392  0.5984
  421SOL     OW 1681   2.945   0.098   0.067  0.3709  0.0555 -0.6700
  421SOL    HW1 1682   2.906   0.073  -0.017 -2.0161 -0.4847 -2.9214
  421SOL    HW2 1683   2.947   0.017   0.113  2.8191  2.2777 -0.8988
  421SOL     MW 1684   2.940   0.084   0.062  0.3790  0.2774 -0.9972
  422SOL     OW 1685   0.847   2.498   0.885  0.4481 -0.4014 -0.5151
  422SOL    HW1 1686   0.774   2.548   0.923 -0.1869 -0.2048  0.4465
  422SOL    HW2 1687   0.841   2.511   0.781  1.2892  1.4507 -0.3283
  422SOL     MW 1688   0.837   2.506   0.876  0.4753 -0.1311 -0.3636
  423SOL     OW 1689   1.618   0.095   0.529  0.0833  0.2421 -0.1660
  423SOL    HW1 1690   1.621   0.044   0.448 -3.0828 -0.2826 -0.6697
  423SOL    HW2 1691   1.611   0.181   0.493 -0.9232 -1.1990 -0.1719
  423SOL     MW 1692   1.617   0.099   0.514 -0.4673 -0.0173 -0.2332
  424SOL     OW 1693   0.750   2.182   1.204 -0.0020  0.0071  0.6684
  424SOL    HW1 1694   0.661   2.212   1.230  4.0512  1.8908  0.6387
  424SOL    HW2 1695   0.796   2.195   1.288 -1.0848  1.7556 -1.6440
  424SOL     MW 1696   0.744   2.187   1.218  0.3899  0.4863  0.3594
  425SOL     OW 1697   1.749   2.789   2.069  0.1450 -0.2133  0.0185
  425SOL    HW1 1698   1.747   2.813   1.976  0.4512 -0.6115 -0.3289
  425SOL    HW2 1699   1.734   2.692   2.072  0.5938 -0.0267  0.5349
  425SOL     MW 1700   1.746   2.779   2.057  0.2446 -0.2412  0.0408
  426SOL     OW 1701   0.773   1.622   1.914  0.2125 -0.8494 -0.2819
  426SOL    HW1 1702   0.733   1.644   1.826 -1.6780  0.3504  2.5974
  426SOL    HW2 1703   0.750   1.696   1.976 -1.6843 -0.9908  0.9527
  426SOL     MW 1704   0.765   1.634   1.911 -0.2872 -0.7097  0.2609
  427SOL     OW 1705   0.408   1.533   1.849  0.3754 -0.4482 -0.3647
  427SOL    HW1 1706   0.442   1.450   1.832 -1.4395 -3.1821 -1.1561
  427SOL    HW2 1707   0.314   1.525   1.864 -0.0568  2.0054  0.4950
  427SOL     MW 1708   0.400   1.521   1.849  0.0789 -0.4852 -0.3557
  428SOL     OW 1709   0.593   2.615   1.160 -0.4455  0.5090 -0.5826
  428SOL    HW1 1710   0.675   2.584   1.207  0.6702  3.0157  1.4302
  428SOL    HW2 1711   0.521   2.546   1.178  0.9524  0.7000  0.3364
  428SOL     MW 1712   0.594   2.602   1.169 -0.1138  0.8650 -0.1958
  429SOL     OW 1713   1.362   2.767   1.042 -0.3627 -0.8220 -0.0530
  429SOL    HW1 1714   1.267   2.754   1.072 -0.6878 -3.5541 -0.5387
  429SOL    HW2 1715   1.338   2.832   0.975 -1.5570 -0.6773 -1.4388
  429SOL     MW 1716   1.346   2.774   1.037 -0.5632 -1.1634 -0.2999
  430SOL     OW 1717   1.141   2.725   0.686  0.3019  0.2734 -0.0054
  430SOL    HW1 1718   1.149   2.629   0.692  0.4735 -1.0694 -1.0322
  430SOL    HW2 1719   1.076   2.735   0.616 -0.8453  2.2038 -1.6183
  430SOL     MW 1720   1.134   2.713   0.677  0.1732  0.3509 -0.3537
  431SOL     OW 1721   0.396   2.008   1.140 -0.1186 -0.6209  0.2957
  431SOL    HW1 1722   0.451   1.935   1.106 -0.8865  3.0031 -0.1621
  431SOL    HW2 1723   0.365   2.046   1.062  1.3929 -1.6275  1.7686
  431SOL     MW 1724   0.399   2.003   1.125 -0.0205 -0.2755  0.4296
  432SOL     OW 1725   0.100   0.039   1.152  0.1029  0.2705 -0.4753
  432SOL    HW1 1726   0.100   0.072   1.246 -0.1348  1.7569  3.2054
  432SOL    HW2 1727   0.023  -0.022   1.157 -1.4185  2.0884 -0.9037
  432SOL     MW 1728   0.090   0.035   1.165 -0.1292  0.7065 -0.0462
  433SOL     OW 1729   0.665   2.884   1.451 -0.4450 -0.2973 -0.0282
  433SOL    HW1 1730   0.723   2.884   1.532  1.5135 -2.2911 -1.3606
  433SOL    HW2 1731   0.730   2.892   1.379 -0.0378 -0.1137  1.2951
  433SOL     MW 1732   0.681   2.885   1.452 -0.1329 -0.5361 -0.0294
  434SOL     OW 1733   1.606   2.851   1.515 -0.3829  0.0333 -0.3881
  434SOL    HW1 1734   1.525   2.901   1.522 -1.7692 -1.6825 -1.8078
  434SOL    HW2 1735   1.618   2.824   1.426  0.9019  1.5534  1.8184
  434SOL     MW 1736   1.597   2.854   1.504 -0.3963  0.0075 -0.2843
  435SOL     OW 1737   2.844   1.800   0.247 -0.1069 -0.1035 -0.3878
  435SOL    HW1 1738   2.899   1.864   0.199  1.0363 -0.7811 -1.9172
  435SOL    HW2 1739   2.812   1.740   0.184  1.8902 -0.0877  0.2129
  435SOL     MW 1740   2.847   1.801   0.233  0.3074 -0.1908 -0.5103
  436SOL     OW 1741   1.482   2.804   0.319  0.2130 -0.0320  0.0513
  436SOL    HW1 1742   1.548   2.779   0.392  0.1892 -0.2823 -1.3437
  436SOL    HW2 1743   1.432   2.882   0.354  1.9417  1.0639  1.1418
  436SOL     MW 1744   1.484   2.811   0.334  0.4379  0.0795  0.0111
  437SOL     OW 1745   0.832   2.936   1.239 -0.1983  0.1456  0.2385
  437SOL    HW1 1746   0.872   3.020   1.254 -1.0552  0.0886 -1.1498
  437SOL    HW2 1747   0.770   2.933   1.162 -2.4045  1.5870 -1.0210
  437SOL     MW 1748   0.829   2.947   1.230 -0.6024  0.3283 -0.1109
  438SOL     OW 1749   0.809   2.515   2.071  0.2426  0.2560 -0.1882
  438SOL    HW1 1750   0.802   2.456   2.146  0.8014  3.7195 -1.1733
  438SOL    HW2 1751   0.745   2.470   2.013 -0.5989  1.3333  1.9495
  438SOL     MW 1752   0.799   2.501   2.073  0.2053  0.8551 -0.0362
  439SOL     OW 1753   1.139   2.180   0.329  0.3323 -0.4928 -0.3597
  439SOL    HW1 1754   1.072   2.196   0.405 -0.7891 -2.4599 -0.1267
  439SOL    HW2 1755   1.160   2.271   0.299 -1.2990  2.5754  1.3645
  439SOL     MW 1756   1.133   2.194   0.335 -0.0309 -0.3475 -0.1014
  440SOL     OW 1757   1.609   3.039   2.994 -0.1250  0.0955  0.1806
  440SOL    HW1 1758   1.612   3.005   3.082 -1.0923  0.2453 -2.6468
  440SOL    HW2 1759   1.679   2.990   2.953 -0.5416  0.9722 -0.1421
  440SOL     MW 1760   1.618   3.028   3.000 -0.3076  0.2310 -0.2350
  441SOL     OW 1761   0.326   2.632   0.538 -0.8452 -0.1735  0.4565
  441SOL    HW1 1762   0.321   2.606   0.447  2.5913 -1.6344  3.2958
  441SOL    HW2 1763   0.326   2.730   0.531  0.8924  1.6370  1.2901
  441SOL     MW 1764   0.325   2.642   0.525 -0.1625 -0.1273  0.9411
  442SOL     OW 1765   3.102   2.360   0.638 -0.1681 -0.6074  0.9097
  442SOL    HW1 1766   3.097   2.455   0.615 -0.9127  2.1399  0.5508
  442SOL    HW2 1767   3.009   2.335   0.643  0.1608 -0.7735  1.9404
  442SOL     MW 1768   3.089   2.369   0.635 -0.2230 -0.2668  0.9983
  443SOL     OW 1769   1.413   1.725   1.913 -0.2297  0.8165 -0.4698
  443SOL    HW1 1770   1.362   1.761   1.846  0.9609 -3.0211  0.1831
  443SOL    HW2 1771   1.372   1.635   1.928 -2.3883  2.4074 -2.0265
  443SOL     MW 1772   1.401   1.718   1.906 -0.3574  0.5201 -0.5891
  444SOL     OW 1773   0.866   2.601   1.571 -0.6456  0.1702  0.4421
  444SOL    HW1 1774   0.939   2.596   1.637  2.7502 -0.8518  1.4148
  444SOL    HW2 1775   0.789   2.650   1.612  2.9341 -0.8817 -1.2287
  444SOL     MW 1776   0.865   2.607   1.585  0.2748 -0.1034  0.3500
  445SOL     OW 1777   0.971   0.085   1.266  0.1222  0.7091  0.8015
  445SOL    HW1 1778   0.928   0.171   1.255 -1.2220  1.4322 -0.3426
  445SOL    HW2 1779   1.046   0.082   1.206  1.9740  0.5619 -1.0933
  445SOL     MW 1780   0.976   0.096   1.257  0.1892  0.7851  0.4005
  446SOL     OW 1781   2.719   2.867   1.039  0.0132  0.3778 -0.3221
  446SOL    HW1 1782   2.664   2.897   0.967 -0.0858  0.1978  2.0092
  446SOL    HW2 1783   2.755   2.777   1.016 -0.6221  1.7269  0.3454
  446SOL     MW 1784   2.716   2.859   1.026 -0.0837  0.5320  0.0736
  447SOL     OW 1785   3.025   2.038   1.688  0.1410 -0.4159  0.3091
  447SOL    HW1 1786   3.075   1.973   1.745  1.2134 -0.2763 -0.1801
  447SOL    HW2 1787   2.965   1.989   1.629 -1.9617 -1.5745 -0.7134
  447SOL     MW 1788   3.024   2.023   1.688  0.0051 -0.5503  0.1097
  448SOL     OW 1789   1.683   2.395   1.683 -0.1259 -0.2213  0.2189
  448SOL    HW1 1790   1.608   2.338   1.688 -1.2152  2.4110 -0.6977
  448SOL    HW2 1791   1.645   2.484   1.657  2.9238 -0.4036 -0.6755
  448SOL     MW 1792   1.668   2.399   1.680  0.1328  0.1020 -0.0200
  449SOL     OW 1793   0.843   2.889   0.402 -0.1071 -0.1343  0.4752
  449SOL    HW1 1794   0.789   2.889   0.319  2.4870 -2.1865 -0.2120
  449SOL    HW2 1795   0.776   2.871   0.465 -0.6069  1.5097 -0.0001
  449SOL     MW 1796   0.827   2.887   0.399  0.1692 -0.1881  0.3218
  450SOL     OW 1797   1.192   2.431   0.637  0.0562  0.0732  0.4687
  450SOL    HW1 1798   1.230   2.432   0.728  4.0339  0.6227  1.4067
  450SOL    HW2 1799   1.279   2.425   0.593  0.1163 -1.6727  0.3991
  450SOL     MW 1800   1.209   2.430   0.643  0.5890 -0.0847  0.5833
  451SOL     OW 1801   0.631   1.955   1.654  0.2069  0.1989  0.1222
  451SOL    HW1 1802   0.687   2.026   1.676 -0.0308  1.3889  0.9140
  451SOL    HW2 1803   0.655   1.943   1.560 -1.4955 -0.3270 -1.6936
  451SOL     MW 1804   0.641   1.963   1.645 -0.0491  0.2866 -0.0129
  452SOL     OW 1805   0.310   2.676   0.014 -0.0888  0.4478  0.3665
  452SOL    HW1 1806   0.396   2.703   0.049  0.2684  1.0361  2.3721
  452SOL    HW2 1807   0.313   2.679  -0.080  0.0230 -0.3576  0.2247
  452SOL     MW 1808   0.322   2.680   0.006 -0.0269  0.4192  0.6124
  453SOL     OW 1809   0.421   3.004   1.631  0.2180  0.1899 -0.4161
  453SOL    HW1 1810   0.486   3.063   1.597 -2.5997 -2.0708 -0.1367
  453SOL    HW2 1811   0.352   3.009   1.563  0.5010  1.9284 -0.6250
  453SOL     MW 1812   0.420   3.012   1.617 -0.1164  0.1210 -0.4068
  454SOL     OW 1813   1.118   2.746   1.180 -0.5262 -0.2877  0.4465
  454SOL    HW1 1814   1.101   2.657   1.141 -3.6304 -0.4276 -0.0096
  454SOL    HW2 1815   1.032   2.791   1.176 -1.6630  0.9065  2.0587
  454SOL     MW 1816   1.105   2.740   1.174 -1.0857 -0.1486  0.5990
  455SOL     OW 1817   1.642   2.938   0.150  0.2718 -0.0920  0.3584
  455SOL    HW1 1818   1.709   2.961   0.217  0.8109 -1.5523 -1.6733
  455SOL    HW2 1819   1.585   2.877   0.196  0.3829 -0.5206  1.6560
  455SOL     MW 1820   1.643   2.933   0.165  0.3576 -0.3413  0.2616
  456SOL     OW 1821   2.873   0.304   1.388  0.3547  0.0145  0.0479
  456SOL    HW1 1822   2.818   0.238   1.342  0.4156 -1.8988 -2.6399
  456SOL    HW2 1823   2.913   0.354   1.314  1.8639 -4.1575 -0.8432
  456SOL     MW 1824   2.871   0.302   1.372  0.5619 -0.7884 -0.4243
  457SOL     OW 1825   0.941   1.535   2.977  0.1342 -0.0874  0.2956
  457SOL    HW1 1826   0.870   1.520   3.045 -0.5268  2.1673  1.8787
  457SOL    HW2 1827   1.014   1.480   2.999 -0.7773  1.9605 -2.2702
  457SOL     MW 1828   0.941   1.526   2.989 -0.0733  0.4803  0.1660
  458SOL     OW 1829   1.452   1.371   0.627 -0.1023  0.4847 -0.2146
  458SOL    HW1 1830   1.385   1.403   0.688  4.3797  1.0384 -0.0369
  458SOL    HW2 1831   1.415   1.292   0.586  1.5100  1.4405  0.5831
  458SOL     MW 1832   1.438   1.365   0.630  0.7018  0.6839 -0.0859
  459SOL     OW 1833   1.610   0.109   0.220 -0.5043  0.1840  0.2991
  459SOL    HW1 1834   1.610   0.018   0.197 -3.7593  1.2425  3.9373
  459SOL    HW2 1835   1.541   0.145   0.161  0.6672 -0.0618  0.5344
  459SOL     MW 1836   1.601   0.102   0.209 -0.7792  0.2912  0.8102
  460SOL     OW 1837   1.727   2.155   0.609 -0.2296 -0.7956 -0.2512
  460SOL    HW1 1838   1.630   2.149   0.629  2.3347 -2.1396 -1.3940
  460SOL    HW2 1839   1.726   2.083   0.540 -2.0635  1.3625  0.5453
  460SOL     MW 1840   1.714   2.145   0.602 -0.1332 -0.6882 -0.2969
  461SOL     OW 1841   0.368   2.314   0.656  0.0339 -0.2637 -0.2984
  461SOL    HW1 1842   0.299   2.368   0.609  0.9863 -0.7441 -0.7658
  461SOL    HW2 1843   0.407   2.385   0.710  0.7276 -0.3709  1.6448
  461SOL     MW 1844   0.364   2.331   0.657  0.2511 -0.3413 -0.1036
  462SOL     OW 1845   0.399   0.264   1.354 -0.1760  0.5047 -0.3093
  462SOL    HW1 1846   0.433   0.175   1.337 -1.9928  0.5991  1.4803
  462SOL    HW2 1847   0.479   0.330   1.336  0.8841  1.7534 -0.1389
  462SOL     MW 1848   0.414   0.261   1.350 -0.2758  0.6819 -0.0507
  463SOL     OW 1849   0.931   3.094   0.679 -0.4675  0.4009  0.1376
  463SOL    HW1 1850   0.981   3.073   0.597 -2.0479 -0.2714  1.2811
  463SOL    HW2 1851   0.847   3.125   0.655  1.3801 -1.0120  0.0179
  463SOL     MW 1852   0.927   3.095   0.665 -0.4322  0.1258  0.2727
  464SOL     OW 1853   0.862   2.987   2.183 -0.1111 -0.0042 -0.4448
  464SOL    HW1 1854   0.824   2.899   2.185 -1.8220 -1.4589 -2.4181
  464SOL    HW2 1855   0.890   3.021   2.266 -1.6812  1.2994 -0.6671
  464SOL     MW 1856   0.861   2.980   2.194 -0.5440 -0.0241 -0.7345
  465SOL     OW 1857   0.694   0.273   0.487 -0.2557 -0.1948  0.1664
  465SOL    HW1 1858   0.680   0.187   0.531  1.6892 -0.6992 -3.2544
  465SOL    HW2 1859   0.714   0.240   0.397  1.1776  1.7663 -0.0136
  465SOL     MW 1860   0.695   0.257   0.481  0.1900 -0.0026 -0.3087
  466SOL     OW 1861   1.105   1.995   0.718 -0.0139 -0.1907 -0.6443
  466SOL    HW1 1862   1.096   1.908   0.673  0.5186  0.8027  0.8140
  466SOL    HW2 1863   1.068   2.066   0.663  0.6681  1.0393  0.7985
  466SOL     MW 1864   1.099   1.993   0.705  0.1463  0.1027 -0.2615
  467SOL     OW 1865   1.264   2.370   0.923  0.5741  0.1851  0.1411
  467SOL    HW1 1866   1.344   2.361   0.973  1.1962  2.9802 -0.0963
  467SOL    HW2 1867   1.257   2.282   0.877 -2.9398 -2.6178 -1.9425
  467SOL     MW 1868   1.274   2.357   0.924  0.1926  0.1841 -0.1651
  468SOL     OW 1869   0.322   2.624   1.995 -0.1615 -0.0809 -0.5326
  468SOL    HW1 1870   0.350   2.538   1.967 -0.2627 -0.8496  2.4515
  468SOL    HW2 1871   0.378   2.686   1.939  1.7990  2.2072  1.3410
  468SOL     MW 1872   0.333   2.621   1.984  0.0838  0.1195  0.1083
  469SOL     OW 1873   0.418   2.073   1.767 -0.4909 -0.1145  0.1734
  469SOL    HW1 1874   0.367   2.035   1.693 -0.4856  0.3432 -0.7336
  469SOL    HW2 1875   0.513   2.049   1.755  0.9236  2.1563  1.5903
  469SOL     MW 1876   0.424   2.065   1.756 -0.3036  0.2455  0.2407
  470SOL     OW 1877   3.074   2.600   0.194 -0.3540 -0.9134 -0.5278
  470SOL    HW1 1878   3.024   2.542   0.252 -2.6073 -0.3657 -0.6255
  470SOL    HW2 1879   3.070   2.569   0.104 -0.9172 -0.9279 -1.3960
  470SOL     MW 1880   3.067   2.589   0.190 -0.7256 -0.8431 -0.6553
  471SOL     OW 1881   1.238   2.739   1.426  0.3060  0.2549 -0.4814
  471SOL    HW1 1882   1.157   2.750   1.472  0.0301 -0.7105 -0.9927
  471SOL    HW2 1883   1.213   2.738   1.337  0.9527 -1.4586 -1.2938
  471SOL     MW 1884   1.224   2.741   1.420  0.3549 -0.0985 -0.6560
  472SOL     OW 1885   2.952   2.103   0.398 -0.0145 -0.2244 -0.5264
  472SOL    HW1 1886   2.958   2.045   0.328  0.9450  2.4647  2.7324
  472SOL    HW2 1887   2.961   2.032   0.462  0.3836  0.7659 -0.2223
  472SOL     MW 1888   2.954   2.086   0.398  0.1647  0.2611 -0.0563
  473SOL     OW 1889   0.799   2.522   1.328  0.0657 -0.2356  0.2411
  473SOL    HW1 1890   0.843   2.437   1.325 -1.0657  0.3739  0.6822
  473SOL    HW2 1891   0.807   2.544   1.424  1.4924  0.5396  1.2910
  473SOL     MW 1892   0.806   2.514   1.340  0.1046 -0.0529  0.4378
  474SOL     OW 1893   0.822   2.132   1.727 -0.6569  0.3784  0.3206
  474SOL    HW1 1894   0.917   2.127   1.749  3.8198  1.2739 -1.4301
  474SOL    HW2 1895   0.817   2.205   1.670  0.9442 -1.4527 -1.3702
  474SOL     MW 1896   0.834   2.141   1.722  0.1450  0.2550 -0.1335
  475SOL     OW 1897   1.676   3.094   1.386  0.0349 -0.2426  1.0754
  475SOL    HW1 1898   1.618   3.078   1.310  1.3925 -0.8981  0.9130
  475SOL    HW2 1899   1.666   3.009   1.432 -0.4610 -1.0098 -0.7951
  475SOL     MW 1900   1.667   3.080   1.382  0.1486 -0.4303  0.8072
  476SOL     OW 1901   1.465   2.612   0.806  0.1852  0.0637 -0.0723
  476SOL    HW1 1902   1.428   2.612   0.896  0.0883  0.0797 -2.7228
  476SOL    HW2 1903   1.466   2.709   0.793 -0.7654 -0.2079 -1.3591
  476SOL     MW 1904   1.460   2.625   0.816  0.0470  0.0300 -0.5918
  477SOL     OW 1905   0.823   2.511   0.615  0.2139 -0.0636  0.2857
  477SOL    HW1 1906   0.899   2.561   0.584  2.7990  4.3213  0.7681
  477SOL    HW2 1907   0.805   2.438   0.550 -1.4915 -1.0447 -0.2538
  477SOL     MW 1908   0.831   2.508   0.603  0.3300  0.3855  0.2782
  478SOL     OW 1909   0.182   2.648   1.001  0.4661 -0.4894  0.0871
  478SOL    HW1 1910   0.207   2.735   0.973  1.7649 -0.4879  0.1225
  478SOL    HW2 1911   0.238   2.591   0.951  0.0143 -2.3908  2.0035
  478SOL     MW 1912   0.193   2.652   0.991  0.5779 -0.7401  0.3446
  479SOL     OW 1913   1.440   1.917   1.321 -0.4201 -0.3735  0.3624
  479SOL    HW1 1914   1.396   1.964   1.395 -0.0806 -0.3268 -0.8767
  479SOL    HW2 1915   1.517   1.875   1.365 -1.3773  2.4016  0.6111
  479SOL     MW 1916   1.444   1.918   1.337 -0.5016 -0.0012  0.2317
  480SOL     OW 1917   1.838   2.416   1.354  0.4825 -0.3185  0.5960
  480SOL    HW1 1918   1.833   2.354   1.427  1.3884 -2.0797 -3.8162
  480SOL    HW2 1919   1.866   2.369   1.277  0.0312 -0.6373  1.2349
  480SOL     MW 1920   1.841   2.402   1.353  0.5425 -0.5929  0.0982
  481SOL     OW 1921   1.155   0.153   1.082  0.1684  0.1834 -0.2608
  481SOL    HW1 1922   1.234   0.164   1.026  0.8980 -2.5124 -0.0920
  481SOL    HW2 1923   1.127   0.242   1.108  0.8634 -0.2451 -0.3276
  481SOL     MW 1924   1.162   0.166   1.078  0.3564 -0.2288 -0.2473
  482SOL     OW 1925   1.065   3.047   0.428 -0.3723 -0.1790  0.1043
  482SOL    HW1 1926   0.987   2.992   0.412 -0.8286  0.8373 -1.6633
  482SOL    HW2 1927   1.041   3.134   0.395 -0.7885 -1.9586 -1.0633
  482SOL     MW 1928   1.051   3.051   0.422 -0.4874 -0.2797 -0.2830
  483SOL     OW 1929   0.370   2.907   0.493 -0.6569 -0.4337 -0.3459
  483SOL    HW1 1930   0.303   2.918   0.420  1.3989 -0.2351  1.6054
  483SOL    HW2 1931   0.344   2.977   0.558  2.4102 -1.3244  1.7272
  483SOL     MW 1932   0.358   2.918   0.492  0.0190 -0.5250  0.1851
  484SOL     OW 1933   1.678   1.843   1.449 -0.0130  0.1304 -0.0930
  484SOL    HW1 1934   1.721   1.929   1.428  0.1486  1.0565 -0.3397
  484SOL    HW2 1935   1.692   1.835   1.540  0.5009  1.7312 -0.2971
  484SOL     MW 1936   1.685   1.853   1.458  0.0761  0.4638 -0.1525
  485SOL     OW 1937   0.477   2.299   0.314  0.8992 -0.0507  0.1493
  485SOL    HW1 1938   0.488   2.315   0.407  3.1062  0.4428  0.5833
  485SOL    HW2 1939   0.434   2.378   0.293 -0.2563  0.0580 -1.9310
  485SOL     MW 1940   0.473   2.312   0.324  1.0379  0.0288 -0.0679
  486SOL     OW 1941   0.101   2.505   1.485 -0.3313  0.3141  0.1224
  486SOL    HW1 1942   0.143   2.578   1.442  1.1329 -1.8925 -1.2749
  486SOL    HW2 1943   0.127   2.505   1.582  3.2970  0.1544  2.8508
  486SOL     MW 1944   0.110   2.514   1.492  0.3406  0.0019  0.2981
  487SOL     OW 1945   1.325   1.578   1.119  0.4122  0.5806 -0.2010
  487SOL    HW1 1946   1.306   1.671   1.103  0.6087  1.3827 -0.3087
  487SOL    HW2 1947   1.424   1.572   1.104  0.2549 -1.4439  2.1425
  487SOL     MW 1948   1.336   1.590   1.115  0.4174  0.4193  0.0940
  488SOL     OW 1949   1.422   1.809   0.578  0.3378  0.5431 -0.0124
  488SOL    HW1 1950   1.387   1.899   0.576 -1.7391 -0.7200 -0.9978
  488SOL    HW2 1951   1.359   1.756   0.528 -2.9412  0.1822 -0.0230
  488SOL     MW 1952   1.409   1.814   0.571 -0.3689  0.3288 -0.1438
  489SOL     OW 1953   0.699   0.680   0.509 -0.1831  0.5929  0.6894
  489SOL    HW1 1954   0.641   0.615   0.465 -0.3853 -0.6153  1.8699
  489SOL    HW2 1955   0.658   0.698   0.592 -0.5249 -0.5288 -0.0657
  489SOL     MW 1956   0.686   0.674   0.514 -0.2549  0.2855  0.7455
  490SOL     OW 1957   1.334   2.072   0.494 -0.6176 -0.4828  0.7019
  490SOL    HW1 1958   1.406   2.107   0.439  1.5236 -1.1656  2.5365
  490SOL    HW2 1959   1.254   2.110   0.455  0.6021 -1.0602  0.4158
  490SOL     MW 1960   1.333   2.082   0.482 -0.1742 -0.6490  0.9062
  491SOL     OW 1961   1.328   3.004   0.411  0.3499 -0.0608  0.2188
  491SOL    HW1 1962   1.350   3.043   0.495 -0.5513  2.6138  0.3043
  491SOL    HW2 1963   1.231   3.011   0.388  1.6375  3.5779 -1.6826
  491SOL     MW 1964   1.318   3.010   0.419  0.4009  0.7722 -0.0208
  492SOL     OW 1965   1.490   2.135   0.702 -0.1782 -0.3369  0.4620
  492SOL    HW1 1966   1.422   2.119   0.635  0.8668  0.8621  1.3398
  492SOL    HW2 1967   1.447   2.115   0.781  1.7608 -2.1885 -2.9188
  492SOL     MW 1968   1.475   2.130   0.703  0.2155 -0.4230  0.1318
  493SOL     OW 1969   0.203   3.054   0.325  0.3760  0.1472 -0.1200
  493SOL    HW1 1970   0.131   3.065   0.383 -1.4187  2.9285 -0.9121
  493SOL    HW2 1971   0.172   2.998   0.255 -2.0271 -0.2633  0.7078
  493SOL     MW 1972   0.189   3.048   0.324 -0.1778  0.4600 -0.1153
  494SOL     OW 1973   0.385   2.334   1.810  0.5020  0.0200 -0.3593
  494SOL    HW1 1974   0.397   2.235   1.802  0.4505 -1.1835  1.4213
  494SOL    HW2 1975   0.395   2.372   1.724 -1.7094 -0.6459  2.3677
  494SOL     MW 1976   0.388   2.326   1.798  0.2034 -0.2266  0.2354
  495SOL     OW 1977   2.792   1.601   2.662 -0.0438 -0.5903  0.1927
  495SOL    HW1 1978   2.806   1.674   2.720  1.5829 -0.5648 -1.3739
  495SOL    HW2 1979   2.734   1.543   2.712 -0.5410  0.0349  1.9237
  495SOL     MW 1980   2.786   1.603   2.676  0.1052 -0.5044  0.2144
  496SOL     OW 1981   2.834   2.281   2.725  0.4000 -0.4137 -0.2803
  496SOL    HW1 1982   2.834   2.218   2.794 -0.5956  2.4422 -1.1808
  496SOL    HW2 1983   2.920   2.321   2.715 -1.6718 -0.1734 -0.8324
  496SOL     MW 1984   2.845   2.278   2.733 -0.0047 -0.0052 -0.4720
  497SOL     OW 1985   1.490   2.407   2.563  0.5860  0.0304  0.2365
  497SOL    HW1 1986   1.513   2.330   2.507 -1.7996  1.4305  0.9460
  497SOL    HW2 1987   1.464   2.363   2.646 -0.0616  1.8566  2.5474
  497SOL     MW 1988   1.490   2.391   2.566  0.1858  0.4561  0.6350
  498SOL     OW 1989   1.463   2.743   2.328 -0.2088  0.0586  0.2208
  498SOL    HW1 1990   1.465   2.646   2.326 -2.3526 -1.2445  3.5513
  498SOL    HW2 1991   1.549   2.775   2.356  1.6657 -1.9297 -0.4636
  498SOL     MW 1992   1.475   2.734   2.331 -0.2443 -0.3757  0.5699
  499SOL     OW 1993   0.982   0.066   0.101  0.2350 -0.2536 -0.1570
  499SOL    HW1 1994   0.894   0.095   0.114  2.0598  1.0164 -3.2218
  499SOL    HW2 1995   0.966  -0.025   0.079 -0.0510  1.4432  0.0911
  499SOL     MW 1996   0.968   0.058   0.100  0.4380  0.1378 -0.5286
  500SOL     OW 1997   1.034   2.535   2.713  0.0819 -0.2985 -0.0597
  500SOL    HW1 1998   1.099   2.511   2.780 -0.8902  1.9877 -0.8832
  500SOL    HW2 1999   0.967   2.576   2.768  0.3784  0.6138 -2.0379
  500SOL     MW 2000   1.034   2.537   2.729 -0.0072  0.1235 -0.4294
  501SOL     OW 2001   1.822   2.296   2.934  0.6449  0.1037  0.4267
  501SOL    HW1 2002   1.839   2.385   2.962 -0.0154 -0.0523  1.5001
  501SOL    HW2 2003   1.901   2.246   2.940 -0.8998 -0.4001 -1.8248
  501SOL     MW 2004   1.835   2.301   2.939  0.3539  0.0167  0.2713
  502SOL     OW 2005   0.316   2.765   2.858  0.1768  0.4416 -0.4982
  502SOL    HW1 2006   0.391   2.804   2.818 -1.8833  0.0101 -0.4512
  502SOL    HW2 2007   0.273   2.841   2.903  1.4142 -0.1625 -0.7997
  502SOL     MW 2008   0.320   2.780   2.858  0.0682  0.3050 -0.5318
  503SOL     OW 2009   1.119   2.503   2.072  0.3154  0.6430 -0.2732
  503SOL    HW1 2010   1.158   2.568   2.013  1.0490 -2.0485 -0.0786
  503SOL    HW2 2011   1.019   2.488   2.064 -0.5391 -3.6202 -0.7375
  503SOL     MW 2012   1.111   2.509   2.063  0.2995 -0.2746 -0.3088
  504SOL     OW 2013   0.054   2.647   2.210 -0.0140  0.0068  0.2699
  504SOL    HW1 2014   0.031   2.612   2.124  0.3361  1.8485 -0.8710
  504SOL    HW2 2015   0.046   2.568   2.263  0.5344  2.6171 -2.5096
  504SOL     MW 2016   0.050   2.632   2.205  0.1045  0.5942 -0.2474
  505SOL     OW 2017   1.570   2.817   2.726  0.1961 -0.1421 -0.1209
  505SOL    HW1 2018   1.616   2.808   2.635  0.8409  0.4094 -0.0793
  505SOL    HW2 2019   1.507   2.894   2.725 -1.0822 -0.9084 -1.8704
  505SOL     MW 2020   1.568   2.826   2.714  0.1125 -0.1704 -0.3462
  506SOL     OW 2021   1.600   0.132   2.744  0.8777 -0.3170 -0.3371
  506SOL    HW1 2022   1.594   0.086   2.833 -0.5523 -1.8137  0.9488
  506SOL    HW2 2023   1.670   0.090   2.704 -1.6335 -2.1217  1.5846
  506SOL     MW 2024   1.609   0.121   2.750  0.3577 -0.7526  0.0861
  507SOL     OW 2025   0.828   2.672   2.835  0.5469 -0.0940 -0.0880
  507SOL    HW1 2026   0.836   2.730   2.760  0.6881  0.1622  0.5871
  507SOL    HW2 2027   0.737   2.641   2.836  1.1541 -0.8935 -1.5065
  507SOL     MW 2028   0.817   2.676   2.825  0.6457 -0.1657 -0.1861
  508SOL     OW 2029   1.212   2.140   2.516  0.1838 -0.3350 -0.6821
  508SOL    HW1 2030   1.273   2.198   2.569  1.0324  1.6550  2.0289
  508SOL    HW2 2031   1.164   2.093   2.584 -0.1548 -3.4028 -0.1382
  508SOL     MW 2032   1.214   2.141   2.532  0.2511 -0.4772 -0.2526
  509SOL     OW 2033   0.586   2.554   2.853  0.2643  0.1825 -0.1059
  509SOL    HW1 2034   0.605   2.497   2.771  1.8998 -1.4962 -1.2538
  509SOL    HW2 2035   0.496   2.569   2.848 -0.2447 -2.0557  0.7034
  509SOL     MW 2036   0.577   2.548   2.842  0.4129 -0.3343 -0.1506
  510SOL     OW 2037   1.527   2.617   1.640 -0.1282 -0.8334  0.0788
  510SOL    HW1 2038   1.564   2.694   1.598 -1.5019 -1.9039 -0.7546
  510SOL    HW2 2039   1.479   2.654   1.713  0.1693 -1.1153  0.3550
  510SOL     MW 2040   1.525   2.632   1.644 -0.2702 -1.0118  0.0053
  511SOL     OW 2041   0.383   2.552   2.508 -1.0886 -0.2511 -0.1392
  511SOL    HW1 2042   0.447   2.488   2.541  1.3252 -1.8904 -0.4026
  511SOL    HW2 2043   0.407   2.573   2.416 -1.6679  1.0371 -1.0791
  511SOL     MW 2044   0.395   2.546   2.501 -0.8465 -0.2974 -0.2980
  512SOL     OW 2045   0.959   1.961   2.825  0.3756 -0.2073  0.2760
  512SOL    HW1 2046   0.874   1.982   2.861 -0.2386  2.8924  1.9000
  512SOL    HW2 2047   1.004   1.891   2.877  0.5672  1.0578  0.9332
  512SOL     MW 2048   0.954   1.954   2.837  0.3198  0.3686  0.5770
  513SOL     OW 2049   1.504   2.435   2.275 -0.3368  0.9798  0.1343
  513SOL    HW1 2050   1.592   2.440   2.233  0.8548 -0.8875  1.1819
  513SOL    HW2 2051   1.491   2.343   2.295  0.9826  0.2287  0.5461
  513SOL     MW 2052   1.514   2.424   2.272 -0.0055  0.6343  0.3269
  514SOL     OW 2053   0.230   2.378   2.694  0.6167 -0.3247  0.2034
  514SOL    HW1 2054   0.273   2.453   2.656  1.3305 -2.0027 -0.3981
  514SOL    HW2 2055   0.282   2.339   2.766 -1.2197  2.2059  0.1535
  514SOL     MW 2056   0.243   2.383   2.699  0.4686 -0.2122  0.1175
  515SOL     OW 2057   1.075   2.007   1.878  0.1244  0.1689 -0.3753
  515SOL    HW1 2058   1.080   2.104   1.858 -1.0124 -1.3236  0.5165
  515SOL    HW2 2059   1.124   1.989   1.954  1.3356 -1.7286 -0.5731
  515SOL     MW 2060   1.082   2.018   1.885  0.1342 -0.2784 -0.2837
  516SOL     OW 2061   1.317   2.625   2.896 -1.0781  0.1512  0.3304
  516SOL    HW1 2062   1.325   2.635   2.798  1.8102 -1.1518  0.3553
  516SOL    HW2 2063   1.256   2.551   2.916  3.0271  0.2319 -0.6332
  516SOL     MW 2064   1.310   2.617   2.886 -0.1554 -0.0101  0.2065
  517SOL     OW 2065   0.475   2.268   2.314  0.6941 -0.0681 -0.5784
  517SOL    HW1 2066   0.462   2.362   2.301  1.8387 -2.3613 -1.8215
  517SOL    HW2 2067   0.412   2.233   2.245  0.6870  0.4667 -0.4006
  517SOL     MW 2068   0.465   2.276   2.303  0.8442 -0.3001 -0.7189
  518SOL     OW 2069   1.722   0.199   3.047  0.0768  0.0277 -0.1027
  518SOL    HW1 2070   1.751   0.183   3.135 -0.4074 -2.0650 -2.1668
  518SOL    HW2 2071   1.676   0.118   3.045  0.1323 -0.7370  0.9535
  518SOL     MW 2072   1.720   0.187   3.058  0.0203 -0.3493 -0.2357
  519SOL     OW 2073   0.608   2.361   1.985 -0.2021 -0.1445 -0.3868
  519SOL    HW1 2074   0.644   2.273   1.971  2.4766 -1.2389  1.0275
  519SOL    HW2 2075   0.527   2.366   1.932 -0.0049 -0.5483  3.1659
  519SOL     MW 2076   0.602   2.350   1.976  0.1774 -0.3422  0.2685
  520SOL     OW 2077   1.175   2.127   2.887 -0.0887  0.2004 -0.0236
  520SOL    HW1 2078   1.099   2.085   2.849  1.9429  0.2650 -0.0301
  520SOL    HW2 2079   1.188   2.087   2.971  0.3204 -1.5287 -1.9935
  520SOL     MW 2080   1.167   2.116   2.893  0.2333 -0.0192 -0.2843
  521SOL     OW 2081   1.720   2.058   2.199  1.0376 -0.0023 -0.5137
  521SOL    HW1 2082   1.780   2.074   2.124 -2.0311 -0.0291 -1.8148
  521SOL    HW2 2083   1.718   1.954   2.202  3.4727 -1.9735  1.5031
  521SOL     MW 2084   1.727   2.046   2.189  0.9540 -0.2660 -0.4193
  522SOL     OW 2085   2.830   2.564   2.164 -0.2959  0.0021  0.6015
  522SOL    HW1 2086   2.906   2.523   2.202  1.2485  2.8996 -0.4757
  522SOL    HW2 2087   2.867   2.649   2.145  2.4422  1.5887 -3.6667
  522SOL     MW 2088   2.845   2.569   2.166  0.2691  0.5937 -0.1038
  523SOL     OW 2089   0.814   1.465   2.159 -0.1694 -0.2916  0.2780
  523SOL    HW1 2090   0.777   1.496   2.071 -2.8796  0.1708  0.0177
  523SOL    HW2 2091   0.870   1.398   2.130 -2.0983 -0.4863 -0.5451
  523SOL     MW 2092   0.816   1.460   2.144 -0.7814 -0.2563  0.1351
  524SOL     OW 2093   0.556   2.357   3.058 -0.1800 -0.1968  0.3713
  524SOL    HW1 2094   0.578   2.427   2.986  2.3504  0.4739  1.0584
  524SOL    HW2 2095   0.629   2.288   3.049 -2.2862  2.2615  1.1663
  524SOL     MW 2096   0.569   2.357   3.048 -0.1240  0.2160  0.5669
  525SOL     OW 2097   0.302   2.166   2.104 -0.1961 -0.2845  0.4060
  525SOL    HW1 2098   0.245   2.116   2.169  1.6365  1.0038 -0.6324
  525SOL    HW2 2099   0.327   2.103   2.036 -0.4451  0.5100  0.2866
  525SOL     MW 2100   0.298   2.151   2.104  0.0128 -0.0097  0.2532
  526SOL     OW 2101   0.694   2.074   1.959  0.5248  0.2303  0.2423
  526SOL    HW1 2102   0.740   2.110   1.885  2.1280  2.0371 -2.2779
  526SOL    HW2 2103   0.752   2.088   2.041 -1.6265  0.6471 -2.2072
  526SOL     MW 2104   0.708   2.080   1.960  0.4525  0.5237 -0.4134
  527SOL     OW 2105   1.283   1.913   2.062 -0.0767 -0.2829 -0.3312
  527SOL    HW1 2106   1.269   1.872   2.145  0.8554  0.4171  2.7482
  527SOL    HW2 2107   1.344   1.863   2.010  1.2738 -0.1084 -1.0002
  527SOL     MW 2108   1.289   1.901   2.066  0.2245 -0.1675 -0.0132
  528SOL     OW 2109   0.587   2.904   2.961 -0.2204 -0.3995  0.2833
  528SOL    HW1 2110   0.622   2.988   2.980 -3.7952 -0.3380  0.2491
  528SOL    HW2 2111   0.590   2.884   2.870 -1.1088 -1.7097  1.6787
  528SOL     MW 2112   0.592   2.912   2.952 -0.8093 -0.5642  0.4629
  529SOL     OW 2113   1.111   2.289   1.800 -0.1828 -0.2600 -0.0846
  529SOL    HW1 2114   1.176   2.277   1.872  0.6192 -0.1902 -0.0222
  529SOL    HW2 2115   1.157   2.254   1.722  2.6664 -1.0981  1.1296
  529SOL     MW 2116   1.125   2.283   1.799  0.2990 -0.3613  0.0839
  530SOL     OW 2117   1.168   2.424   2.945  0.3277 -0.1048 -0.0086
  530SOL    HW1 2118   1.097   2.448   3.005 -0.3521 -0.2686  1.2368
  530SOL    HW2 2119   1.160   2.328   2.940 -1.3781  2.3363  0.0502
  530SOL     MW 2120   1.158   2.414   2.953  0.0129  0.1956  0.1635
  531SOL     OW 2121   0.887   1.811   2.615  0.0641 -0.3297  0.1928
  531SOL    HW1 2122   0.893   1.871   2.685 -3.0664  0.7513 -1.4267
  531SOL    HW2 2123   0.855   1.725   2.643 -0.5585 -1.0221  1.3968
  531SOL     MW 2124   0.884   1.808   2.628 -0.4311 -0.2784  0.1380
  532SOL     OW 2125   1.746   0.361   2.811  0.3233 -0.1008  0.0100
  532SOL    HW1 2126   1.700   0.280   2.782 -1.3087 -1.4805  1.2115
  532SOL    HW2 2127   1.743   0.353   2.908  0.6355 -0.1703  1.8890
  532SOL     MW 2128   1.740   0.349   2.820  0.1492 -0.2920  0.4165
  533SOL     OW 2129   1.782   2.827   2.910 -0.1287 -0.5331  0.2210
  533SOL    HW1 2130   1.766   2.760   2.984 -1.3410 -1.5452  0.6789
  533SOL    HW2 2131   1.717   2.804   2.842 -1.1793  1.5992  1.3185
  533SOL     MW 2132   1.771   2.815   2.911 -0.4273 -0.3853  0.4262
  534SOL     OW 2133   1.757   2.526   2.509 -0.7922 -0.5717 -0.2806
  534SOL    HW1 2134   1.671   2.488   2.515  2.6197  2.8418  2.7523
  534SOL    HW2 2135   1.804   2.524   2.590 -1.4479 -1.7735 -4.0336
  534SOL     MW 2136   1.752   2.521   2.521 -0.4285 -0.2799 -0.3756
  535SOL     OW 2137   1.802   2.387   1.932 -0.7096 -0.1590 -0.0022
  535SOL    HW1 2138   1.736   2.393   1.868 -0.1465  1.1261  0.4666
  535SOL    HW2 2139   1.887   2.416   1.896  0.9560 -1.2709  0.6554
  535SOL     MW 2140   1.805   2.391   1.919 -0.4155 -0.1362  0.1464
  536SOL     OW 2141   0.402   1.896   1.985  0.4149 -0.4895  0.4644
  536SOL    HW1 2142   0.417   1.934   1.893 -0.9260 -0.9250 -1.7777
  536SOL    HW2 2143   0.488   1.871   2.013 -0.5445 -0.3467  1.5078
  536SOL     MW 2144   0.415   1.897   1.976  0.1114 -0.5281  0.3063
  537SOL     OW 2145   1.023   0.188   2.951  0.4761  0.4309 -0.0899
  537SOL    HW1 2146   1.002   0.161   3.039 -2.6652 -0.8907 -1.6006
  537SOL    HW2 2147   1.016   0.284   2.947  0.4303 -1.9886 -0.6592
  537SOL     MW 2148   1.019   0.197   2.962  0.0556 -0.0627 -0.3643
  538SOL     OW 2149   1.263   0.078   2.978 -0.8405  0.0558  0.2191
  538SOL    HW1 2150   1.179   0.123   2.963 -1.5149  1.3235  1.0729
  538SOL    HW2 2151   1.275   0.083   3.075 -0.4616 -0.2232  5.2170
  538SOL     MW 2152   1.254   0.085   2.989 -0.8795  0.1863  0.9912
  539SOL     OW 2153   0.684   2.738   2.478  1.0632 -0.5680 -0.1059
  539SOL    HW1 2154   0.745   2.799   2.519 -1.2099 -1.0634  2.2813
  539SOL    HW2 2155   0.723   2.655   2.510 -0.3491 -1.0486 -0.7779
  539SOL     MW 2156   0.697   2.735   2.487  0.5769 -0.6968  0.1204
  540SOL     OW 2157   0.398   2.238   2.876  0.2208 -0.4361 -0.3023
  540SOL    HW1 2158   0.463   2.278   2.945 -0.9238  1.9726  2.1351
  540SOL    HW2 2159   0.339   2.192   2.930  0.4181  0.6039 -1.2154
  540SOL     MW 2160   0.398   2.237   2.892  0.0958  0.0189 -0.1012
  541SOL     OW 2161   0.188   2.903   2.257  0.5097  0.4532  0.3823
  541SOL    HW1 2162   0.178   2.810   2.232  0.0018  0.0289  1.0244
  541SOL    HW2 2163   0.216   2.901   2.352  0.9241 -0.5031  1.3427
  541SOL     MW 2164   0.190   2.890   2.266  0.4974  0.2710  0.5937
  542SOL     OW 2165   0.841   2.351   2.756  0.1502  0.1351 -0.5307
  542SOL    HW1 2166   0.873   2.265   2.798 -0.1851 -0.7373  0.9366
  542SOL    HW2 2167   0.915   2.406   2.752 -1.3067  0.1764  0.3328
  542SOL     MW 2168   0.855   2.347   2.761 -0.0862  0.0254 -0.2231
  543SOL     OW 2169   1.366   2.681   2.649  0.0648 -0.2203 -0.5413
  543SOL    HW1 2170   1.403   2.600   2.613 -1.0207 -2.7035  0.6916
  543SOL    HW2 2171   1.439   2.742   2.664 -0.8114 -1.2867  0.1890
  543SOL     MW 2172   1.381   2.678   2.647 -0.1940 -0.6886 -0.2823
  544SOL     OW 2173   0.700   0.119   2.689  0.1073 -0.0763 -0.6374
  544SOL    HW1 2174   0.606   0.101   2.669  0.7459  0.9225 -2.1893
  544SOL    HW2 2175   0.743   0.118   2.604  1.4156  3.0847 -3.8425
  544SOL     MW 2176   0.693   0.117   2.675  0.3642  0.4725 -1.2650
  545SOL     OW 2177   1.532   2.183   2.401  0.0494  0.1271 -0.2370
  545SOL    HW1 2178   1.483   2.098   2.401 -1.5438 -1.1785  0.1603
  545SOL    HW2 2179   1.614   2.159   2.362  4.0173 -0.4202 -0.7852
  545SOL     MW 2180   1.537   2.169   2.396  0.3627 -0.1174 -0.2570
  546SOL     OW 2181   3.004   1.982   0.145  0.3238  0.2908  0.1239
  546SOL    HW1 2182   2.982   2.069   0.101 -0.0412  0.3592 -3.2231
  546SOL    HW2 2183   3.078   1.944   0.095  2.5012 -1.5978 -0.5588
  546SOL     MW 2184   3.011   1.988   0.133  0.5629  0.0506 -0.4078
  547SOL     OW 2185   0.165   2.895   0.100 -0.3873  0.5944  0.3955
  547SOL    HW1 2186   0.201   2.940   0.023  0.1468 -1.0660 -0.0137
  547SOL    HW2 2187   0.190   2.800   0.086  1.8324  0.3811  0.6615
  547SOL     MW 2188   0.173   2.889   0.088 -0.0240  0.3471  0.3766
  548SOL     OW 2189   0.264   2.543   0.277 -0.1910 -0.5951  0.3938
  548SOL    HW1 2190   0.283   2.575   0.186  1.3982  1.7997 -1.4211
  548SOL    HW2 2191   0.173   2.529   0.272 -1.1482  0.4815  0.1878
  548SOL     MW 2192   0.255   2.546   0.264 -0.1076 -0.1371  0.1272
  549SOL     OW 2193   0.705   1.839   2.075 -0.3126 -0.1354 -0.5782
  549SOL    HW1 2194   0.705   1.928   2.022  2.9714  1.1703  3.8123
  549SOL    HW2 2195   0.753   1.874   2.152 -1.7340  2.7873  0.0766
  549SOL     MW 2196   0.712   1.855   2.078 -0.0669  0.4225  0.0875
  550SOL     OW 2197   1.782   1.773   2.490  0.2720 -1.2444  0.2440
  550SOL    HW1 2198   1.768   1.777   2.391 -2.0463  0.2021 -1.8897
  550SOL    HW2 2199   1.784   1.871   2.513 -1.0139  2.5690 -0.1570
  550SOL     MW 2200   1.781   1.787   2.480 -0.2035 -0.5504 -0.0904
  551SOL     OW 2201   0.852   2.351   0.213 -0.4661  0.0619  0.2881
  551SOL    HW1 2202   0.944   2.360   0.188  0.7797  0.2314 -2.0808
  551SOL    HW2 2203   0.808   2.312   0.135 -0.1547 -2.3733 -1.6568
  551SOL     MW 2204   0.858   2.347   0.199 -0.2607 -0.2370 -0.2810
  552SOL     OW 2205   1.675   1.765   2.241  0.0054 -0.9664  0.5227
  552SOL    HW1 2206   1.588   1.720   2.249 -1.7030 -1.2015 -1.5471
  552SOL    HW2 2207   1.733   1.699   2.194  1.4874 -1.7395 -2.9530
  552SOL     MW 2208   1.671   1.750   2.236 -0.0245 -1.0994 -0.2090
  553SOL     OW 2209   1.198   2.302   1.533 -0.5962 -0.3208 -0.1401
  553SOL    HW1 2210   1.231   2.211   1.531 -1.6593 -0.8697 -0.8489
  553SOL    HW2 2211   1.267   2.355   1.492 -2.3876  1.0362  1.3733
  553SOL     MW 2212   1.212   2.297   1.527 -0.9728 -0.2142 -0.0339
  554SOL     OW 2213   0.549   2.843   2.699 -0.4902 -0.3620  0.6674
  554SOL    HW1 2214   0.502   2.905   2.637  1.0016 -0.0895  1.6556
  554SOL    HW2 2215   0.583   2.772   2.638  0.5173 -2.8056  1.3513
  554SOL     MW 2216   0.547   2.841   2.683 -0.1604 -0.6485  0.8880
  555SOL     OW 2217   0.576   2.396   2.617 -0.3464 -0.6187 -0.7000
  555SOL    HW1 2218   0.584   2.300   2.643  4.3808  2.4182  2.3296
  555SOL    HW2 2219   0.662   2.426   2.597 -0.8519  0.4099  2.9645
  555SOL     MW 2220   0.588   2.387   2.618  0.2106 -0.0823  0.1832
  556SOL     OW 2221   1.054   1.839   0.127  0.0609  0.3948 -0.0248
  556SOL    HW1 2222   1.077   1.822   0.034 -0.1015 -1.5081 -0.1632
  556SOL    HW2 2223   1.133   1.871   0.175  0.0853 -2.3929 -0.2242
  556SOL     MW 2224   1.067   1.841   0.121  0.0427 -0.2241 -0.0694
  557SOL     OW 2225   1.028   2.662   0.428  0.3412  0.8847  0.2310
  557SOL    HW1 2226   1.114   2.671   0.395  0.2716 -2.1593 -2.3307
  557SOL    HW2 2227   0.975   2.735   0.392  0.3469  1.7775  0.9706
  557SOL     MW 2228   1.033   2.673   0.419  0.3328  0.6009 -0.0094
  558SOL     OW 2229   0.250   2.089   3.072 -0.0817 -0.4858  0.1521
  558SOL    HW1 2230   0.196   2.011   3.077  1.4915  1.0640  1.2736
  558SOL    HW2 2231   0.197   2.164   3.087 -2.2439  0.5415  1.3962
  558SOL     MW 2232   0.236   2.089   3.074 -0.1594 -0.1457  0.4642
  559SOL     OW 2233   1.253   2.237   2.033  0.3221  0.0364  0.2929
  559SOL    HW1 2234   1.230   2.327   2.065  0.1245  1.1902 -1.8924
  559SOL    HW2 2235   1.208   2.179   2.093 -2.8782  1.2493  0.9674
  559SOL     MW 2236   1.244   2.241   2.045 -0.1262  0.3487  0.0936
  560SOL     OW 2237   1.940   2.973   0.036  0.0575  0.1685  0.2366
  560SOL    HW1 2238   2.015   2.996  -0.012  1.3884 -0.3162  1.8417
  560SOL    HW2 2239   1.883   2.946  -0.032  2.2159  0.2746  1.0312
  560SOL     MW 2240   1.942   2.972   0.021  0.5179  0.1185  0.5532
  561SOL     OW 2241   0.464   2.076   0.171  0.3083  0.2475  0.0589
  561SOL    HW1 2242   0.442   2.083   0.079 -0.3897 -0.3044 -4.9857
  561SOL    HW2 2243   0.480   2.168   0.201 -1.7916 -2.1190 -2.8655
  561SOL     MW 2244   0.463   2.089   0.163 -0.0608 -0.1375 -0.9925
  562SOL     OW 2245   0.847   2.130   2.179  0.5581  0.2166  0.7253
  562SOL    HW1 2246   0.806   2.213   2.213 -4.1619 -0.5569  0.8113
  562SOL    HW2 2247   0.940   2.124   2.214 -2.1118  0.0663  3.1096
  562SOL     MW 2248   0.854   2.140   2.188 -0.4169  0.0947  1.0512
  563SOL     OW 2249   1.278   0.286   0.479 -0.2731  0.0131 -0.1082
  563SOL    HW1 2250   1.201   0.254   0.432  1.9521  0.0146  2.7594
  563SOL    HW2 2251   1.291   0.221   0.553 -3.3282 -0.6579 -1.2121
  563SOL     MW 2252   1.269   0.273   0.483 -0.3826 -0.0752  0.1245
  564SOL     OW 2253   1.004   2.559   2.310 -0.0958  0.4841  0.3497
  564SOL    HW1 2254   1.077   2.519   2.256 -2.0135 -1.8258 -1.3084
  564SOL    HW2 2255   1.041   2.631   2.359 -1.5444  1.3207  0.3001
  564SOL     MW 2256   1.018   2.563   2.310 -0.5400  0.2897  0.1244
  565SOL     OW 2257   2.918   2.681   2.713 -0.2568 -0.1588  0.3181
  565SOL    HW1 2258   2.971   2.756   2.686 -1.6865 -0.6886  0.3223
  565SOL    HW2 2259   2.868   2.666   2.628 -0.0933 -0.6428 -0.6041
  565SOL     MW 2260   2.918   2.689   2.698 -0.4239 -0.2926  0.1970
  566SOL     OW 2261   2.169   2.038   2.369  0.2340 -0.4379  0.1145
  566SOL    HW1 2262   2.200   2.046   2.279  0.3652  0.5060  0.0883
  566SOL    HW2 2263   2.210   2.115   2.408  2.3097 -1.6986  1.8230
  566SOL     MW 2264   2.179   2.049   2.362  0.5251 -0.4797  0.3365
  567SOL     OW 2265   1.155   2.876   0.117  0.3605  0.1894 -0.1137
  567SOL    HW1 2266   1.203   2.947   0.153  1.4816 -2.8080 -0.9134
  567SOL    HW2 2267   1.159   2.879   0.023 -0.4300  0.0594 -1.2965
  567SOL     MW 2268   1.162   2.886   0.110  0.4041 -0.2233 -0.3753
  568SOL     OW 2269   1.640   2.123   2.798 -0.2252 -0.3883  0.0982
  568SOL    HW1 2270   1.695   2.201   2.810  0.3178 -3.0273 -0.0439
  568SOL    HW2 2271   1.687   2.072   2.726  0.0433  0.0082 -0.1843
  568SOL     MW 2272   1.653   2.127   2.790 -0.1181 -0.6842  0.0422
  569SOL     OW 2273   0.033   2.225   2.494  0.4819 -0.4956 -0.2049
  569SOL    HW1 2274  -0.020   2.273   2.430 -0.7818  1.4092 -1.8006
  569SOL    HW2 2275   0.100   2.289   2.516  2.8719  1.6873 -0.8970
  569SOL     MW 2276   0.035   2.240   2.488  0.6305  0.0438 -0.5067
  570SOL     OW 2277   1.547   0.363   0.455 -0.3845 -0.0085  0.0423
  570SOL    HW1 2278   1.457   0.344   0.483 -0.8155 -1.9147 -2.4545
  570SOL    HW2 2279   1.594   0.393   0.530 -1.7762  0.4191  1.2421
  570SOL     MW 2280   1.542   0.364   0.469 -0.6250 -0.2036 -0.1288
  571SOL     OW 2281   1.442   2.456   2.000 -0.0111  0.3929  0.5611
  571SOL    HW1 2282   1.481   2.461   2.083 -0.6113 -1.8192 -2.0166
  571SOL    HW2 2283   1.435   2.361   1.995  0.9119  1.9823  2.2924
  571SOL     MW 2284   1.446   2.444   2.011  0.0315  0.3108  0.4494
  572SOL     OW 2285   0.905   2.523   3.062 -0.1294  0.2406  0.0664
  572SOL    HW1 2286   0.858   2.578   3.003 -0.2576 -2.5092  2.3182
  572SOL    HW2 2287   0.843   2.514   3.134  1.4902 -1.3614  2.0332
  572SOL     MW 2288   0.891   2.529   3.063  0.0674 -0.3336  0.6230
  573SOL     OW 2289   1.128   2.420   0.193 -0.4703  0.0889 -0.3733
  573SOL    HW1 2290   1.211   2.405   0.146 -2.9078  0.5431  0.9086
  573SOL    HW2 2291   1.142   2.502   0.243 -0.4961  2.0167 -1.4515
  573SOL     MW 2292   1.141   2.429   0.193 -0.7953  0.4032 -0.3464
  574SOL     OW 2293   1.254   2.671   0.246 -0.1253  0.4189 -0.6226
  574SOL    HW1 2294   1.335   2.693   0.290  0.2658 -2.9558 -0.1159
  574SOL    HW2 2295   1.232   2.750   0.200  0.4670 -1.1920  1.3707
  574SOL     MW 2296   1.262   2.684   0.246  0.0045 -0.2389 -0.2927
  575SOL     OW 2297   3.059   2.263   1.818  0.5995  0.5841  0.3776
  575SOL    HW1 2298   3.053   2.196   1.749 -0.3699  0.9552 -3.4768
  575SOL    HW2 2299   3.125   2.336   1.797  1.2624  0.2844  3.1942
  575SOL     MW 2300   3.067   2.264   1.806  0.5590  0.5935  0.2407
  576SOL     OW 2301   2.829   1.816   2.072  0.2812  0.1657  0.2699
  576SOL    HW1 2302   2.834   1.870   1.993 -1.9440 -0.9966  0.8948
  576SOL    HW2 2303   2.747   1.769   2.067  1.4778 -0.8180 -2.3299
  576SOL     MW 2304   2.819   1.817   2.061  0.1455 -0.1175  0.0093
  577SOL     OW 2305   2.068   0.321   0.070  0.0215 -0.3861 -0.2618
  577SOL    HW1 2306   2.011   0.361   0.007 -1.5307 -0.7111 -1.5358
  577SOL    HW2 2307   2.001   0.297   0.139 -0.3307  1.0273 -0.6556
  577SOL     MW 2308   2.052   0.323   0.070 -0.2298 -0.2425 -0.4818
  578SOL     OW 2309   1.911   2.194   2.343 -0.1150 -0.2254 -0.0673
  578SOL    HW1 2310   1.833   2.140   2.306 -1.2589  0.1125  0.6026
  578SOL    HW2 2311   1.990   2.135   2.359  1.4586 -1.6875 -0.7611
  578SOL     MW 2312   1.911   2.179   2.340 -0.0583 -0.3738 -0.0705
  579SOL     OW 2313   0.823   2.490   2.503  0.0567  0.0589 -0.1804
  579SOL    HW1 2314   0.851   2.439   2.583  0.5447 -1.5728  1.9706
  579SOL    HW2 2315   0.904   2.500   2.452  2.4331  0.6714  0.0077
  579SOL     MW 2316   0.837   2.484   2.507  0.4347 -0.0756  0.1283
  580SOL     OW 2317   0.870   2.858   3.077  0.0717 -0.1278  0.3668
  580SOL    HW1 2318   0.936   2.789   3.062  3.3442 -0.0008 -0.3713
  580SOL    HW2 2319   0.807   2.834   3.016  2.4145 -0.1798  0.7737
  580SOL     MW 2320   0.871   2.846   3.067  0.8126 -0.1179  0.3231
  581SOL     OW 2321   1.094   2.594   1.751  0.6316 -0.1257 -0.5419
  581SOL    HW1 2322   1.174   2.630   1.791  1.2228 -0.6938 -2.5976
  581SOL    HW2 2323   1.108   2.492   1.753 -0.7111 -1.0165 -1.3301
  581SOL     MW 2324   1.106   2.585   1.756  0.5325 -0.3182 -0.9171
  582SOL     OW 2325   3.080   2.880   2.625  0.0326 -0.0791 -0.3092
  582SOL    HW1 2326   3.104   2.956   2.681 -0.4472  0.0886 -0.2598
  582SOL    HW2 2327   3.162   2.858   2.576 -1.5345  4.7514 -0.4009
  582SOL     MW 2328   3.094   2.887   2.626 -0.2375  0.5804 -0.3148
  583SOL     OW 2329   1.954   2.523   2.707  0.1561 -0.4999 -0.2781
  583SOL    HW1 2330   2.017   2.573   2.641 -0.7170  0.5766 -1.3855
  583SOL    HW2 2331   1.968   2.428   2.704  1.0408  0.0074 -0.3237
  583SOL     MW 2332   1.964   2.517   2.698  0.1576 -0.2909 -0.4303
  584SOL     OW 2333   0.167   1.846   2.102  0.0754  0.3307 -0.2395
  584SOL    HW1 2334   0.261   1.849   2.069  0.5900 -1.6429  1.4650
  584SOL    HW2 2335   0.161   1.897   2.186 -1.8070 -0.7312  0.5296
  584SOL     MW 2336   0.179   1.853   2.109 -0.1050 -0.0698  0.0868
  585SOL     OW 2337   1.441   2.567   0.043  0.3854  0.7011 -0.0550
  585SOL    HW1 2338   1.387   2.590  -0.037  1.4451 -2.5305  1.3450
  585SOL    HW2 2339   1.399   2.613   0.109 -0.1854 -3.5727  0.1983
  585SOL     MW 2340   1.429   2.576   0.041  0.4499 -0.2892  0.1631
  586SOL     OW 2341   1.284   2.972   2.360  0.3985  0.3617  0.5266
  586SOL    HW1 2342   1.351   2.900   2.352 -0.7684 -3.5776  1.6616
  586SOL    HW2 2343   1.259   2.973   2.451  1.0792 -0.2721 -0.1193
  586SOL     MW 2344   1.290   2.962   2.371  0.3343 -0.2417  0.5911
  587SOL     OW 2345   1.194   1.628   2.168 -0.4422  0.3257  0.2768
  587SOL    HW1 2346   1.197   1.550   2.225  2.6512  2.3577  1.0536
  587SOL    HW2 2347   1.191   1.590   2.073 -0.2415  0.3473 -1.0302
  587SOL     MW 2348   1.194   1.613   2.163 -0.0076  0.5967  0.2068
  588SOL     OW 2349   1.372   2.242   2.738  0.3534  0.5350 -0.8933
  588SOL    HW1 2350   1.453   2.208   2.769  0.0204  2.0303  1.0863
  588SOL    HW2 2351   1.292   2.208   2.796 -1.1969 -0.4550  1.7245
  588SOL     MW 2352   1.372   2.233   2.750  0.1049  0.6017 -0.2867
  589SOL     OW 2353   1.332   2.063   0.005  0.2767 -0.1953  0.2882
  589SOL    HW1 2354   1.349   2.148   0.046  0.1325 -0.9586  0.9786
  589SOL    HW2 2355   1.323   2.011   0.084  1.4771  0.8502  3.0571
  589SOL     MW 2356   1.333   2.067   0.021  0.4160 -0.1580  0.7446
  590SOL     OW 2357   0.486   2.545   2.251  0.2260  0.1504 -0.1436
  590SOL    HW1 2358   0.446   2.578   2.170  0.7031 -0.7267  0.5188
  590SOL    HW2 2359   0.578   2.565   2.233 -0.0370  0.5487 -1.0216
  590SOL     MW 2360   0.493   2.552   2.238  0.2543  0.0872 -0.1720
  591SOL     OW 2361   2.201   0.690   3.034 -0.3521 -0.5184  0.2042
  591SOL    HW1 2362   2.104   0.713   3.033  0.9148 -0.0040  1.3605
  591SOL    HW2 2363   2.209   0.669   2.939  1.0299  2.6615 -0.7633
  591SOL     MW 2364   2.189   0.690   3.021 -0.0026 -0.0310  0.2291
  592SOL     OW 2365   1.812   2.897   0.841  0.3331  0.1028  0.6434
  592SOL    HW1 2366   1.847   2.961   0.775  1.3640 -0.9635 -0.0558
  592SOL    HW2 2367   1.869   2.815   0.833 -1.8601 -2.1807  0.2977
  592SOL     MW 2368   1.824   2.895   0.831  0.1798 -0.3392  0.5055
  593SOL     OW 2369   1.921   0.819   0.917  0.1722 -0.6226 -0.0162
  593SOL    HW1 2370   1.835   0.811   0.881  1.1838 -0.7370 -2.8082
  593SOL    HW2 2371   1.964   0.732   0.898 -0.9080 -1.1170 -0.9173
  593SOL     MW 2372   1.915   0.806   0.910  0.1631 -0.7029 -0.5035
  594SOL     OW 2373   2.754   1.127   1.407 -0.6626 -0.0250  0.0699
  594SOL    HW1 2374   2.840   1.159   1.432  1.9551 -2.2841  0.3107
  594SOL    HW2 2375   2.761   1.108   1.313 -0.9546 -1.3156 -0.9702
  594SOL     MW 2376   2.766   1.129   1.398 -0.3558 -0.4933 -0.0356
  595SOL     OW 2377   0.430   0.979   0.758  0.1292 -0.7263  0.4912
  595SOL    HW1 2378   0.478   1.035   0.684  0.1107  2.7944 -3.8578
  595SOL    HW2 2379   0.461   1.002   0.846 -0.5820 -0.1128 -0.7191
  595SOL     MW 2380   0.440   0.989   0.760  0.0329 -0.1808 -0.2423
  596SOL     OW 2381   2.421   1.325   0.594  0.7454 -0.3246 -0.4155
  596SOL    HW1 2382   2.432   1.418   0.568 -2.3541  2.0095 -2.1804
  596SOL    HW2 2383   2.505   1.303   0.638  0.5398 -0.8460 -1.1592
  596SOL     MW 2384   2.434   1.334   0.596  0.3093 -0.0854 -0.7465
  597SOL     OW 2385   2.252   0.681   1.738 -0.7047 -0.2901  0.1108
  597SOL    HW1 2386   2.282   0.618   1.796  0.0947  0.3540 -0.6688
  597SOL    HW2 2387   2.253   0.631   1.659  1.0388 -1.2022  1.9443
  597SOL     MW 2388   2.256   0.666   1.735 -0.3692 -0.3255  0.2498
  598SOL     OW 2389   2.628   1.013   2.854 -0.3739 -0.1711  0.2046
  598SOL    HW1 2390   2.675   0.985   2.776 -0.0403  3.0586  2.0113
  598SOL    HW2 2391   2.683   1.061   2.914 -1.5729  3.5509 -1.1364
  598SOL     MW 2392   2.641   1.015   2.852 -0.4881  0.7461  0.2661
  599SOL     OW 2393   2.915   0.346   2.054  0.7715 -0.2137 -0.2622
  599SOL    HW1 2394   2.899   0.341   2.149 -2.8718 -1.7091 -1.3189
  599SOL    HW2 2395   2.958   0.431   2.049 -0.8277  0.0436  0.7160
  599SOL     MW 2396   2.919   0.356   2.066  0.0798 -0.3771 -0.2725
  600SOL     OW 2397   1.847   1.649   0.893  0.4086  0.5434  0.4330
  600SOL    HW1 2398   1.888   1.703   0.958 -2.8550  1.9379  1.2763
  600SOL    HW2 2399   1.766   1.702   0.868 -0.7687  0.0078 -2.1167
  600SOL     MW 2400   1.842   1.663   0.898 -0.1773  0.6568  0.2079
  601SOL     OW 2401   2.478   0.753   0.891  0.8076  0.4368  0.1396
  601SOL    HW1 2402   2.494   0.750   0.985 -0.7062 -1.6182 -2.0422
  601SOL    HW2 2403   2.383   0.747   0.885 -1.8582  0.4871 -0.9960
  601SOL     MW 2404   2.468   0.752   0.903  0.2562  0.1723 -0.2981
  602SOL     OW 2405   2.271   1.933   0.696  0.0449 -0.0731 -0.0171
  602SOL    HW1 2406   2.213   1.860   0.721 -0.3013  0.2369 -0.7329
  602SOL    HW2 2407   2.214   1.979   0.629  0.9626  1.6458 -0.8593
  602SOL     MW 2408   2.255   1.930   0.691  0.1203  0.1946 -0.2226
  603SOL     OW 2409   2.994   1.369   1.846 -0.0386  0.9885  0.0732
  603SOL    HW1 2410   3.087   1.385   1.857 -1.0660 -1.4467  1.1732
  603SOL    HW2 2411   2.988   1.282   1.818  0.0117  0.2836 -0.9871
  603SOL     MW 2412   3.005   1.360   1.844 -0.1675  0.5742  0.0785
  604SOL     OW 2413   2.046   1.508   0.494  0.3239  0.6533  0.1503
  604SOL    HW1 2414   2.075   1.457   0.566 -2.2222  1.1185 -0.5170
  604SOL    HW2 2415   1.965   1.541   0.522 -2.1705  0.0760 -0.7531
  604SOL     MW 2416   2.039   1.506   0.507 -0.3411  0.6385 -0.0569
  605SOL     OW 2417   2.654   1.539   0.799 -0.0605 -0.0277  0.2900
  605SOL    HW1 2418   2.607   1.611   0.763  0.8278 -0.7214  2.8922
  605SOL    HW2 2419   2.591   1.526   0.869  2.2727  0.3548 -0.4096
  605SOL     MW 2420   2.640   1.547   0.804  0.3645 -0.0687  0.5410
  606SOL     OW 2421   2.540   1.822   1.907  0.2580  0.5756  0.5185
  606SOL    HW1 2422   2.443   1.802   1.920  0.4626 -1.2414 -0.0888
  606SOL    HW2 2423   2.569   1.735   1.869 -2.7038 -1.2160 -0.9415
  606SOL     MW 2424   2.531   1.808   1.904 -0.1058  0.0994  0.2457
  607SOL     OW 2425   2.348   1.019   2.957 -0.1927 -0.0849 -0.0623
  607SOL    HW1 2426   2.426   1.010   2.906  0.0003 -0.2731 -2.1735
  607SOL    HW2 2427   2.377   1.056   3.036 -0.0511  0.0238 -1.7833
  607SOL     MW 2428   2.362   1.023   2.961 -0.1486 -0.0954 -0.5680
  608SOL     OW 2429   1.895   0.246   0.641 -0.6416  0.4040 -0.0386
  608SOL    HW1 2430   1.934   0.278   0.558  3.3867 -1.2956 -1.0634
  608SOL    HW2 2431   1.889   0.152   0.624  0.1317  0.1578 -2.9481
  608SOL     MW 2432   1.900   0.238   0.628 -0.0081  0.1473 -0.5577
  609SOL     OW 2433   2.118   1.923   3.015  0.3096 -0.3811  0.4275
  609SOL    HW1 2434   2.027   1.897   3.006 -1.2262  0.0355 -1.6345
  609SOL    HW2 2435   2.149   1.915   3.106 -1.6818 -1.9448  2.3769
  609SOL     MW 2436   2.110   1.918   3.026 -0.1558 -0.5324  0.4126
  610SOL     OW 2437   1.824   1.081   1.353 -0.6726 -0.4064  0.2150
  610SOL    HW1 2438   1.858   1.014   1.289 -1.4163  1.2045  0.2800
  610SOL    HW2 2439   1.768   1.023   1.415 -1.0473  0.7534 -0.7868
  610SOL     MW 2440   1.821   1.064   1.353 -0.8201 -0.0408  0.0914
  611SOL     OW 2441   2.503   1.757   0.716 -0.4394 -0.5763 -0.2848
  611SOL    HW1 2442   2.420   1.811   0.714  2.7885  0.7009  0.9342
  611SOL    HW2 2443   2.485   1.712   0.636 -0.2678  2.1520  1.2600
  611SOL     MW 2444   2.490   1.758   0.705  0.0091 -0.0479  0.0798
  612SOL     OW 2445   2.782   2.767   0.426 -0.0727  0.0344  0.0119
  612SOL    HW1 2446   2.815   2.855   0.462  0.5570  1.0381  0.3530
  612SOL    HW2 2447   2.861   2.730   0.386 -0.8799  0.5598 -1.4695
  612SOL     MW 2448   2.797   2.774   0.426 -0.0961  0.2361 -0.1386
  613SOL     OW 2449   1.616   1.011   1.105  0.3926 -0.3595  0.0255
  613SOL    HW1 2450   1.636   1.101   1.140 -1.9148  2.6408 -0.0329
  613SOL    HW2 2451   1.697   0.970   1.079  0.4350  1.3991 -0.2777
  613SOL     MW 2452   1.629   1.018   1.106  0.0938  0.2684 -0.0222
  614SOL     OW 2453   1.975   0.539   1.542 -0.0008  0.1062 -0.0985
  614SOL    HW1 2454   1.967   0.445   1.573 -1.4381  1.4570  2.6043
  614SOL    HW2 2455   2.038   0.529   1.471 -1.3780  1.2812  0.4838
  614SOL     MW 2456   1.983   0.525   1.536 -0.3721  0.4395  0.3350
  615SOL     OW 2457   2.239   0.817   0.165 -0.0314  0.6272  0.1908
  615SOL    HW1 2458   2.305   0.772   0.224  0.9398  0.7095  0.6676
  615SOL    HW2 2459   2.262   0.792   0.075 -0.9466  0.9182  1.0294
  615SOL     MW 2460   2.250   0.808   0.161 -0.0240  0.6765  0.3643
  616SOL     OW 2461   2.622   0.374   1.631  0.0190  0.6903 -0.1353
  616SOL    HW1 2462   2.562   0.331   1.566 -0.6789  1.3866 -1.2176
  616SOL    HW2 2463   2.594   0.463   1.635  0.9502  0.0494  0.8779
  616SOL     MW 2464   2.610   0.380   1.623  0.0498  0.6976 -0.1444
  617SOL     OW 2465   2.918   0.557   1.766 -0.2180  0.0519 -0.0264
  617SOL    HW1 2466   2.824   0.576   1.802 -1.5881 -1.7921 -2.4771
  617SOL    HW2 2467   2.912   0.467   1.730 -0.5943 -1.2478  2.5181
  617SOL     MW 2468   2.905   0.547   1.766 -0.4484 -0.3628 -0.0140
  618SOL     OW 2469   2.660   0.361   1.938 -0.6623 -0.0387  0.2702
  618SOL    HW1 2470   2.666   0.455   1.914 -0.0371 -0.2450  0.5962
  618SOL    HW2 2471   2.742   0.340   1.982  0.1573  0.9816 -2.9220
  618SOL     MW 2472   2.672   0.371   1.940 -0.4717  0.0687 -0.1080
  619SOL     OW 2473   2.588   0.865   0.134  0.0755  0.6508 -0.3446
  619SOL    HW1 2474   2.679   0.880   0.158 -1.0993  0.0744 -0.4656
  619SOL    HW2 2475   2.549   0.825   0.213  0.0730  2.8627 -0.3754
  619SOL     MW 2476   2.595   0.862   0.148 -0.0798  0.8666 -0.3647
  620SOL     OW 2477   2.296   1.125   0.926 -0.0841 -0.4766 -0.3760
  620SOL    HW1 2478   2.371   1.141   0.874 -0.5113 -1.2363  0.7917
  620SOL    HW2 2479   2.260   1.046   0.886  2.8407 -0.5868  3.4984
  620SOL     MW 2480   2.301   1.117   0.914  0.2454 -0.5914  0.2892
  621SOL     OW 2481   1.518   2.136   1.997 -0.0598 -0.1264 -0.3245
  621SOL    HW1 2482   1.425   2.134   2.025 -1.5683 -3.2598 -1.3017
  621SOL    HW2 2483   1.571   2.111   2.071 -2.0008  2.5911  2.3920
  621SOL     MW 2484   1.513   2.132   2.010 -0.5149 -0.1813 -0.0950
  622SOL     OW 2485   2.626   0.213   0.137 -0.3996 -0.2724  0.5795
  622SOL    HW1 2486   2.704   0.210   0.198  0.5426 -0.7464 -1.4122
  622SOL    HW2 2487   2.622   0.121   0.112  1.4137 -2.1479  2.6403
  622SOL     MW 2488   2.636   0.200   0.141 -0.0361 -0.5824  0.5886
  623SOL     OW 2489   2.390   2.766   0.830 -0.2404  0.0102  0.6933
  623SOL    HW1 2490   2.437   2.852   0.836 -2.7540  1.3330  0.5567
  623SOL    HW2 2491   2.306   2.774   0.875  1.5923 -1.4984 -0.8037
  623SOL     MW 2492   2.385   2.778   0.837 -0.3302 -0.0143  0.4778
  624SOL     OW 2493   2.201   1.624   2.939  0.0687 -0.1036  0.7084
  624SOL    HW1 2494   2.131   1.584   2.993  2.2860  0.5207  1.5639
  624SOL    HW2 2495   2.169   1.714   2.933 -1.2637  0.5680 -0.8460
  624SOL     MW 2496   2.188   1.631   2.946  0.1854  0.0673  0.6162
  625SOL     OW 2497   2.197   1.921   1.071  0.3097  0.0086 -0.3475
  625SOL    HW1 2498   2.266   1.891   1.127  0.2442 -0.6348  0.3649
  625SOL    HW2 2499   2.238   1.946   0.991 -0.7944 -2.7117  0.5385
  625SOL     MW 2500   2.211   1.920   1.068  0.1554 -0.4352 -0.1366
  626SOL     OW 2501   0.139   1.584   2.394  0.3553 -0.0095 -0.1815
  626SOL    HW1 2502   0.087   1.508   2.368  0.8368 -2.1490  0.6846
  626SOL    HW2 2503   0.117   1.606   2.479  1.8010  0.2260 -1.9654
  626SOL     MW 2504   0.129   1.577   2.402  0.6096 -0.2607 -0.3026
  627SOL     OW 2505   2.445   0.834   2.577 -0.6709 -0.0649 -0.6170
  627SOL    HW1 2506   2.379   0.909   2.573  0.3984  0.2336  0.0509
  627SOL    HW2 2507   2.431   0.780   2.497 -1.2368 -1.0280  0.0126
  627SOL     MW 2508   2.435   0.837   2.566 -0.6045 -0.1526 -0.4458
  628SOL     OW 2509   2.338   1.364   1.386  0.1707  0.2655  0.2945
  628SOL    HW1 2510   2.314   1.303   1.309 -1.1025 -1.1345  1.3267
  628SOL    HW2 2511   2.426   1.391   1.364 -1.0232  1.6811  0.6106
  628SOL     MW 2512   2.347   1.360   1.373 -0.1548  0.2676  0.4724
  629SOL     OW 2513   2.032   0.568   1.207 -0.4986  0.2112 -0.0936
  629SOL    HW1 2514   2.095   0.633   1.175 -2.7259 -1.7832 -1.2482
  629SOL    HW2 2515   1.963   0.612   1.258 -0.9707  0.4391 -0.1144
  629SOL     MW 2516   2.032   0.582   1.209 -0.8548 -0.0218 -0.2487
  630SOL     OW 2517   2.487   1.808   3.087  0.2302 -0.2272  0.3527
  630SOL    HW1 2518   2.437   1.865   3.025  0.2657  2.4195  1.7435
  630SOL    HW2 2519   2.421   1.759   3.130  1.7262  2.2377 -2.7572
  630SOL     MW 2520   2.472   1.809   3.084  0.4323  0.4472  0.1258
  631SOL     OW 2521   1.978   1.774   1.611  0.2207  0.6614  0.0891
  631SOL    HW1 2522   1.961   1.693   1.670 -2.3763 -0.1375  2.1639
  631SOL    HW2 2523   1.960   1.755   1.520 -0.0298  1.6855 -2.8635
  631SOL     MW 2524   1.973   1.761   1.607 -0.1550  0.6911 -0.0267
  632SOL     OW 2525   0.207   2.082   1.573  0.3893 -0.1410 -0.0972
  632SOL    HW1 2526   0.158   2.101   1.649  3.5034  0.0372 -1.3364
  632SOL    HW2 2527   0.172   1.991   1.554  2.1483  1.4166  1.2924
  632SOL     MW 2528   0.196   2.072   1.580  1.0322  0.0881 -0.0773
  633SOL     OW 2529   2.422   0.713   0.363  0.0741  0.1818  0.2760
  633SOL    HW1 2530   2.506   0.704   0.413  0.6683  1.2167  1.2243
  633SOL    HW2 2531   2.401   0.616   0.355  0.1665 -3.0930 -0.2242
  633SOL     MW 2532   2.430   0.699   0.369  0.1647 -0.1137  0.3351
  634SOL     OW 2533   2.635   3.078   0.599 -0.1184 -0.0780 -0.0823
  634SOL    HW1 2534   2.673   3.165   0.584 -2.2326  0.6049 -1.0176
  634SOL    HW2 2535   2.602   3.049   0.514 -1.5381 -1.6945  3.2790
  634SOL     MW 2536   2.636   3.086   0.586 -0.5847 -0.2012  0.2378
  635SOL     OW 2537   2.603   0.118   1.840 -0.7850 -0.1004 -0.2691
  635SOL    HW1 2538   2.671   0.067   1.796  0.8289  0.2179  1.8750
  635SOL    HW2 2539   2.632   0.203   1.872 -0.0780  1.4128 -0.6992
  635SOL     MW 2540   2.616   0.122   1.838 -0.4788  0.1413 -0.0429
  636SOL     OW 2541   2.917   1.652   1.032 -0.1712 -0.3207 -0.2923
  636SOL    HW1 2542   2.859   1.703   0.978  1.4158 -1.4692 -1.5835
  636SOL    HW2 2543   2.959   1.720   1.089  0.1425 -2.0718 -0.5621
  636SOL     MW 2544   2.915   1.668   1.033  0.0796 -0.7033 -0.4983
  637SOL     OW 2545   2.908   1.491   0.700 -0.3546  0.0296 -0.0661
  637SOL    HW1 2546   2.963   1.565   0.711 -2.2320  1.7238 -2.1268
  637SOL    HW2 2547   2.827   1.502   0.750 -0.1916  0.7884  0.5359
  637SOL     MW 2548   2.904   1.502   0.708 -0.5808  0.3532 -0.2585
  638SOL     OW 2549   2.662   0.678   0.511 -0.3502  0.2202  0.5771
  638SOL    HW1 2550   2.745   0.638   0.484  1.0621 -0.9977  0.3925
  638SOL    HW2 2551   2.648   0.644   0.602 -2.8684  1.3770  0.4685
  638SOL     MW 2552   2.671   0.668   0.520 -0.4961  0.2121  0.5384
  639SOL     OW 2553   1.862   3.069   0.620 -0.7765 -0.1806 -0.0145
  639SOL    HW1 2554   1.773   3.106   0.611 -3.2132  0.6754  0.7968
  639SOL    HW2 2555   1.905   3.074   0.532 -1.8069  2.3809 -4.1970
  639SOL     MW 2556   1.856   3.075   0.607 -1.2339  0.2703 -0.4593
  640SOL     OW 2557   0.387   1.371   0.098 -0.0709  0.0332 -0.1713
  640SOL    HW1 2558   0.416   1.422   0.021 -2.1185  1.4912  0.6756
  640SOL    HW2 2559   0.366   1.283   0.056  1.5701 -0.9689 -0.9765
  640SOL     MW 2560   0.388   1.366   0.082 -0.1245  0.0934 -0.1658
  641SOL     OW 2561   2.318   0.438   0.377 -0.1898 -0.0935 -0.0050
  641SOL    HW1 2562   2.327   0.360   0.318 -0.5493 -2.9624  0.8309
  641SOL    HW2 2563   2.396   0.419   0.437  0.3521 -0.0390  2.7137
  641SOL     MW 2564   2.330   0.425   0.377 -0.1657 -0.4649  0.4640
  642SOL     OW 2565   3.085   0.013   0.491 -0.0716 -0.2187  0.3217
  642SOL    HW1 2566   3.051   0.101   0.496  0.6058 -0.5528  0.4356
  642SOL    HW2 2567   3.019  -0.045   0.528  1.5659 -0.8446  2.0395
  642SOL     MW 2568   3.072   0.017   0.496  0.2338 -0.3454  0.5634
  643SOL     OW 2569   2.046   0.292   1.625 -0.3746 -0.0766  0.0785
  643SOL    HW1 2570   2.122   0.289   1.682 -1.3245  2.1288  0.8403
  643SOL    HW2 2571   2.056   0.231   1.555 -0.1228  2.0520  0.3291
  643SOL     MW 2572   2.058   0.283   1.623 -0.4667  0.4952  0.2121
  644SOL     OW 2573   2.711   1.859   0.927 -0.1092  0.2118  0.6281
  644SOL    HW1 2574   2.665   1.809   0.999  1.6862 -1.5951 -1.4893
  644SOL    HW2 2575   2.660   1.840   0.848 -1.9760  2.7800 -0.5310
  644SOL     MW 2576   2.698   1.850   0.926 -0.1186  0.3122  0.1958
  645SOL     OW 2577   2.748   0.918   0.629 -0.1436 -0.2027  0.0213
  645SOL    HW1 2578   2.811   0.892   0.699  0.3029 -1.4915 -0.3597
  645SOL    HW2 2579   2.718   0.836   0.593  0.2956  0.3785  1.5733
  645SOL     MW 2580   2.753   0.904   0.634 -0.0267 -0.2961  0.1758
  646SOL     OW 2581   0.132   2.309   0.877  0.3331 -0.1551 -0.5849
  646SOL    HW1 2582   0.146   2.215   0.865  1.0330 -2.4561  3.3055
  646SOL    HW2 2583   0.084   2.318   0.795  3.6712 -0.2662  1.1213
  646SOL     MW 2584   0.127   2.298   0.864  0.8659 -0.4733  0.1535
  647SOL     OW 2585   2.742   0.569   3.005 -0.2334 -0.3477 -0.1808
  647SOL    HW1 2586   2.694   0.494   3.003  2.9563 -0.6394 -1.8986
  647SOL    HW2 2587   2.664   0.632   3.006 -2.0464 -1.3598  1.8966
  647SOL     MW 2588   2.725   0.567   3.005 -0.0517 -0.5197 -0.1334
  648SOL     OW 2589   2.219   0.736   1.097  0.0064  0.1773  0.0288
  648SOL    HW1 2590   2.190   0.793   1.027 -0.9859  1.0376 -2.9657
  648SOL    HW2 2591   2.247   0.801   1.164  1.1624 -0.0479 -0.1915
  648SOL     MW 2592   2.219   0.752   1.097  0.0280  0.2611 -0.3953
  649SOL     OW 2593   2.369   2.682   1.198  0.1882  0.0034  0.0154
  649SOL    HW1 2594   2.443   2.735   1.230  0.8999 -0.2531  1.2739
  649SOL    HW2 2595   2.390   2.587   1.201  1.6036 -0.0259 -0.6260
  649SOL     MW 2596   2.381   2.676   1.202  0.4689 -0.0343  0.0968
  650SOL     OW 2597   2.767   0.248   0.622  0.2576  0.1021 -0.3671
  650SOL    HW1 2598   2.766   0.287   0.709  1.2185 -1.4407 -1.7591
  650SOL    HW2 2599   2.851   0.273   0.585 -0.9518 -0.4997 -1.0824
  650SOL     MW 2600   2.778   0.256   0.629  0.2248 -0.1809 -0.6451
  651SOL     OW 2601   3.008   0.300   0.832 -1.0934  0.1727  0.3585
  651SOL    HW1 2602   3.055   0.346   0.759  1.7272 -1.3784 -1.6621
  651SOL    HW2 2603   2.947   0.365   0.862  0.4372  0.2390 -0.6257
  651SOL     MW 2604   3.006   0.314   0.826 -0.5193 -0.0232 -0.0380
  652SOL     OW 2605   2.395   1.426   2.988  0.0899 -0.0596 -0.1470
  652SOL    HW1 2606   2.455   1.424   2.915 -1.9786 -0.6625 -3.5741
  652SOL    HW2 2607   2.345   1.508   2.986 -0.5448  0.6001  1.2430
  652SOL     MW 2608   2.396   1.436   2.978 -0.2667 -0.0521 -0.4158
  653SOL     OW 2609   1.973   0.367   0.405 -0.0291 -0.3223 -0.6813
  653SOL    HW1 2610   1.956   0.292   0.346 -0.8186 -0.2078  2.1820
  653SOL    HW2 2611   2.063   0.398   0.379  1.1472  1.1490 -2.2341
  653SOL     MW 2612   1.983   0.361   0.393  0.0219 -0.1130 -0.5084
  654SOL     OW 2613   2.465   1.008   0.710  0.3154  0.8095 -0.3807
  654SOL    HW1 2614   2.375   1.008   0.677  0.2478  0.5671  0.3332
  654SOL    HW2 2615   2.473   0.935   0.768 -1.7402  3.5840  0.7228
  654SOL     MW 2616   2.454   0.998   0.713  0.0353  1.1436 -0.1409
  655SOL     OW 2617   3.074   0.913   0.441 -0.3592  0.1498 -0.0359
  655SOL    HW1 2618   3.123   0.976   0.496  1.5625 -0.6421  1.1844
  655SOL    HW2 2619   3.083   0.829   0.480  0.5322 -1.2534 -0.2323
  655SOL     MW 2620   3.082   0.910   0.453  0.0120 -0.1398  0.0992
  656SOL     OW 2621   1.974   2.734   1.212  0.2234  0.4340 -0.1994
  656SOL    HW1 2622   1.978   2.815   1.260 -2.7785  2.9984 -0.6707
  656SOL    HW2 2623   2.020   2.673   1.270  0.9658 -2.3575  0.0282
  656SOL     MW 2624   1.981   2.736   1.226 -0.0747  0.4040 -0.2316
  657SOL     OW 2625   0.198   1.587   1.262  0.1405 -0.3719 -0.1868
  657SOL    HW1 2626   0.117   1.577   1.311  1.5545 -0.5456 -0.0280
  657SOL    HW2 2627   0.177   1.610   1.170  1.0515 -0.3287  0.3789
  657SOL     MW 2628   0.185   1.589   1.256  0.4473 -0.3891 -0.0912
  658SOL     OW 2629   2.688   1.361   0.240 -0.1665  0.6159 -0.0644
  658SOL    HW1 2630   2.636   1.291   0.282  1.3747 -1.9947 -0.1029
  658SOL    HW2 2631   2.714   1.414   0.316 -0.0379 -2.3477 -0.5457
  658SOL     MW 2632   2.685   1.359   0.255  0.0538 -0.1196 -0.1330
  659SOL     OW 2633   2.203   1.565   1.013 -0.0366 -0.2879  0.5680
  659SOL    HW1 2634   2.290   1.542   0.987  2.3870 -0.5690 -0.8401
  659SOL    HW2 2635   2.204   1.586   1.112 -1.0488 -1.0686  0.0596
  659SOL     MW 2636   2.214   1.565   1.023  0.1497 -0.4280  0.3152
  660SOL     OW 2637   2.022   1.529   1.775 -0.2852 -0.9160 -0.7830
  660SOL    HW1 2638   2.061   1.555   1.862 -0.0193  0.2726 -1.9096
  660SOL    HW2 2639   1.994   1.446   1.764 -0.2989  3.1084 -1.1912
  660SOL     MW 2640   2.023   1.521   1.785 -0.2519 -0.2282 -0.9855
  661SOL     OW 2641   2.339   1.061   0.138  0.0692  0.2399  0.0508
  661SOL    HW1 2642   2.408   1.051   0.207  0.4901 -0.8276  3.4210
  661SOL    HW2 2643   2.294   0.978   0.140  0.8743 -0.4827  0.6430
  661SOL     MW 2644   2.342   1.049   0.147  0.2310  0.0037  0.5736
  662SOL     OW 2645   2.541   2.992   0.867 -0.2712  0.2308 -0.3586
  662SOL    HW1 2646   2.518   3.077   0.911 -0.3925  0.7505  3.8276
  662SOL    HW2 2647   2.586   3.009   0.784 -0.2884  1.2016  0.5563
  662SOL     MW 2648   2.544   3.005   0.862 -0.2895  0.4274  0.3144
  663SOL     OW 2649   2.816   1.544   0.449 -0.1559  0.3197  0.7623
  663SOL    HW1 2650   2.898   1.566   0.402  3.4237  0.5954 -1.6249
  663SOL    HW2 2651   2.850   1.512   0.534  0.3475 -1.2117  1.9625
  663SOL     MW 2652   2.831   1.543   0.454  0.3828  0.1540  0.6057
  664SOL     OW 2653   2.457   1.591   1.621  0.1198 -0.2916 -0.4462
  664SOL    HW1 2654   2.436   1.684   1.604  0.7535  1.2428 -2.1533
  664SOL    HW2 2655   2.378   1.553   1.650 -0.3488 -2.9090 -0.1358
  664SOL     MW 2656   2.444   1.598   1.622  0.1416 -0.4345 -0.6305
  665SOL     OW 2657   2.861   0.820   2.017  0.4558  0.0931 -0.3375
  665SOL    HW1 2658   2.833   0.840   1.926  1.5805 -0.6834 -0.8918
  665SOL    HW2 2659   2.942   0.774   2.022 -1.5156 -2.2143  0.3315
  665SOL     MW 2660   2.868   0.817   2.006  0.3441 -0.3138 -0.3223
  666SOL     OW 2661   2.814   3.006   1.694  0.2668 -0.6332  0.0062
  666SOL    HW1 2662   2.804   2.982   1.599 -0.3976 -1.7202  0.8995
  666SOL    HW2 2663   2.760   2.932   1.730  1.1977  0.5118  2.3437
  666SOL     MW 2664   2.805   2.993   1.686  0.3020 -0.6256  0.4325
  667SOL     OW 2665   1.931   2.667   1.675  0.4042 -0.0855 -1.1341
  667SOL    HW1 2666   1.971   2.592   1.715 -0.1658  2.5235  1.0481
  667SOL    HW2 2667   1.999   2.732   1.653 -0.3837 -1.6546 -2.2476
  667SOL     MW 2668   1.945   2.666   1.677  0.2250  0.0517 -0.9931
  668SOL     OW 2669   2.699   0.647   0.784  0.2200  0.6014  0.3037
  668SOL    HW1 2670   2.766   0.638   0.850 -3.2231 -0.2675  0.1347
  668SOL    HW2 2671   2.625   0.681   0.834  1.2520 -2.3683 -1.3322
  668SOL     MW 2672   2.698   0.650   0.799 -0.0981  0.0949  0.0656
  669SOL     OW 2673   0.153   0.939   0.722  0.3477 -0.3027 -0.5002
  669SOL    HW1 2674   0.076   0.996   0.752 -0.6274  1.0905  0.0303
  669SOL    HW2 2675   0.223   0.977   0.769 -0.3519  1.4208  1.5812
  669SOL     MW 2676   0.152   0.952   0.732  0.1268  0.1085 -0.1556
  670SOL     OW 2677   2.855   0.297   0.250 -0.5191 -0.1307  0.1679
  670SOL    HW1 2678   2.915   0.258   0.186 -2.3898 -3.1192  1.8119
  670SOL    HW2 2679   2.856   0.389   0.226  0.0910 -1.2383 -0.7864
  670SOL     MW 2680   2.863   0.304   0.238 -0.6854 -0.6711  0.2589
  671SOL     OW 2681   2.161   3.084   1.605  0.3454  0.5858 -0.0480
  671SOL    HW1 2682   2.132   3.089   1.512  2.1743  0.0745  0.4405
  671SOL    HW2 2683   2.072   3.086   1.652  3.4879  0.0797  4.0943
  671SOL     MW 2684   2.145   3.085   1.599  1.0013  0.4516  0.5630
  672SOL     OW 2685   1.908   1.698   1.352 -0.1871  0.2443  0.0175
  672SOL    HW1 2686   1.818   1.720   1.371  0.1886 -0.4262  1.3542
  672SOL    HW2 2687   1.918   1.722   1.257 -1.3940  2.2431 -2.3576
  672SOL     MW 2688   1.897   1.704   1.342 -0.2967  0.4195 -0.1195
  673SOL     OW 2689   2.771   1.137   0.486 -0.2402 -0.3688  0.2036
  673SOL    HW1 2690   2.755   1.053   0.532 -0.0644 -2.7477 -0.7819
  673SOL    HW2 2691   2.848   1.186   0.512  1.4316  1.1070 -2.8393
  673SOL     MW 2692   2.779   1.132   0.495  0.0036 -0.4880 -0.3279
  674SOL     OW 2693   2.400   0.034   1.289  0.1191 -0.6102 -0.0309
  674SOL    HW1 2694   2.414   0.069   1.201  0.6570  0.7195  0.7452
  674SOL    HW2 2695   2.437  -0.058   1.287  0.9389 -0.4487 -1.8520
  674SOL     MW 2696   2.407   0.027   1.277  0.2982 -0.4135 -0.1688
  675SOL     OW 2697   2.957   0.996   1.101  0.3202  0.6264  0.2862
  675SOL    HW1 2698   3.010   0.929   1.139 -1.0492 -1.0791 -0.4045
  675SOL    HW2 2699   2.997   1.028   1.019  0.9443  2.7218 -3.0724
  675SOL     MW 2700   2.969   0.991   1.095  0.2219  0.6778 -0.2481
  676SOL     OW 2701   2.854   1.516   1.650 -0.4987 -0.4511 -0.7383
  676SOL    HW1 2702   2.803   1.438   1.645  2.5947 -1.7029  1.6193
  676SOL    HW2 2703   2.918   1.493   1.715  0.5804 -1.4217  0.9886
  676SOL     MW 2704   2.856   1.503   1.658  0.0518 -0.7443 -0.1994
  677SOL     OW 2705   2.475   0.853   1.828 -0.0170  0.1489  0.2063
  677SOL    HW1 2706   2.410   0.827   1.770 -2.4064  0.7087  2.8108
  677SOL    HW2 2707   2.448   0.842   1.918  1.4286 -1.2330 -2.4333
  677SOL     MW 2708   2.463   0.848   1.832 -0.1415  0.0404  0.2016
  678SOL     OW 2709   2.513   1.586   0.509 -0.2938  0.5261 -0.6760
  678SOL    HW1 2710   2.449   1.599   0.440  2.2739 -0.1072 -2.1511
  678SOL    HW2 2711   2.601   1.584   0.470 -2.1203 -1.8913 -1.6283
  678SOL     MW 2712   2.516   1.588   0.494 -0.1960  0.1236 -0.9963
  679SOL     OW 2713   2.399   0.517   1.189  0.1343 -0.5608 -0.4345
  679SOL    HW1 2714   2.329   0.449   1.181  0.1435 -1.0634  0.2639
  679SOL    HW2 2715   2.353   0.597   1.170 -1.4088 -1.0209  0.3806
  679SOL     MW 2716   2.384   0.519   1.186 -0.0681 -0.6878 -0.2348
  680SOL     OW 2717   2.426   0.246   1.494 -0.1960  0.1236 -0.5788
  680SOL    HW1 2718   2.401   0.187   1.561  0.9404  2.4895 -0.6739
  680SOL    HW2 2719   2.423   0.198   1.412 -1.3463  1.9629  2.2256
  680SOL     MW 2720   2.423   0.232   1.492 -0.1979  0.6785 -0.2213
  681SOL     OW 2721   0.275   0.494   1.548 -0.3200 -0.2027  0.3899
  681SOL    HW1 2722   0.276   0.409   1.602 -0.6577  0.4043  0.1232
  681SOL    HW2 2723   0.369   0.522   1.542  0.5204  0.6758  1.6290
  681SOL     MW 2724   0.287   0.487   1.554 -0.2537 -0.0067  0.5182
  682SOL     OW 2725   0.131   2.997   1.485 -0.9389  0.4310 -0.2208
  682SOL    HW1 2726   0.162   3.094   1.469 -2.3383 -1.1056 -1.4122
  682SOL    HW2 2727   0.070   2.996   1.558  1.9013  1.5902  0.6077
  682SOL     MW 2728   0.127   3.010   1.493 -0.7488  0.3812 -0.2687
  683SOL     OW 2729   1.957   0.797   2.974  0.5392  0.2111 -0.5221
  683SOL    HW1 2730   1.863   0.774   2.945 -0.1563  2.0574  0.6168
  683SOL    HW2 2731   1.948   0.893   3.000  1.6647  2.6432 -1.1608
  683SOL     MW 2732   1.944   0.807   2.974  0.5959  0.7756 -0.4561
  684SOL     OW 2733   2.109   1.734   0.797  0.0378  0.3568 -0.6302
  684SOL    HW1 2734   2.020   1.708   0.802  1.8260  0.2475  0.1868
  684SOL    HW2 2735   2.142   1.680   0.870 -0.8867  0.0624  0.3633
  684SOL     MW 2736   2.102   1.723   0.807  0.1518  0.3035 -0.3913
  685SOL     OW 2737   2.642   1.727   1.189 -0.0138 -0.0284  0.0736
  685SOL    HW1 2738   2.720   1.730   1.249 -0.5757 -0.8243 -0.1008
  685SOL    HW2 2739   2.615   1.633   1.202 -1.2663  0.1980 -0.4257
  685SOL     MW 2740   2.649   1.715   1.199 -0.2532 -0.1035 -0.0153
  686SOL     OW 2741   2.966   0.709   1.507  0.2861  0.1429  0.0484
  686SOL    HW1 2742   2.970   0.677   1.596 -3.0172  0.3790 -1.9830
  686SOL    HW2 2743   3.043   0.682   1.457  1.0002  1.4063  2.6641
  686SOL     MW 2744   2.976   0.701   1.512 -0.0555  0.3407  0.1255
  687SOL     OW 2745   2.183   0.328   1.222 -0.0918  0.3504 -0.5563
  687SOL    HW1 2746   2.165   0.277   1.143 -1.7578 -1.6395 -1.1209
  687SOL    HW2 2747   2.114   0.390   1.230  1.6114 -0.0793 -1.4987
  687SOL     MW 2748   2.172   0.330   1.213 -0.0869  0.0312 -0.7551
  688SOL     OW 2749   2.359   0.523   1.485  0.0210  0.1224 -0.1299
  688SOL    HW1 2750   2.391   0.445   1.528 -2.2882 -0.1595 -2.6489
  688SOL    HW2 2751   2.366   0.495   1.395  0.6003  1.6503  1.3245
  688SOL     MW 2752   2.364   0.509   1.479 -0.2073  0.2868 -0.2704
  689SOL     OW 2753   2.565   0.772   2.978 -0.1926 -0.5685  0.3452
  689SOL    HW1 2754   2.602   0.832   2.909 -0.3025 -0.0619  2.8838
  689SOL    HW2 2755   2.580   0.814   3.063  0.8306 -0.1456  0.3920
  689SOL     MW 2756   2.572   0.786   2.980 -0.0721 -0.4458  0.6863
  690SOL     OW 2757   2.059   1.026   1.966 -0.0061 -0.1691  0.6184
  690SOL    HW1 2758   2.008   0.951   1.990 -0.4165 -0.0265  1.0948
  690SOL    HW2 2759   2.105   1.006   1.885  0.4091  0.7656  3.5891
  690SOL     MW 2760   2.058   1.014   1.959 -0.0054 -0.0270  1.0732
  691SOL     OW 2761   2.441   0.357   0.858 -0.2830 -0.4590 -0.0475
  691SOL    HW1 2762   2.522   0.410   0.833 -0.1889  1.4129  1.1511
  691SOL    HW2 2763   2.362   0.402   0.833  0.1363 -0.8786 -2.3893
  691SOL     MW 2764   2.442   0.370   0.851 -0.2152 -0.2674 -0.1983
  692SOL     OW 2765   2.810   1.658   1.419 -0.8930  0.2737  0.5010
  692SOL    HW1 2766   2.812   1.613   1.504  2.3040 -2.2130  3.3882
  692SOL    HW2 2767   2.836   1.750   1.447 -1.0796 -3.3748  0.1078
  692SOL     MW 2768   2.814   1.664   1.434 -0.4958 -0.5358  0.8301
  693SOL     OW 2769   2.319   0.451   0.086 -0.4216 -0.1047 -0.2563
  693SOL    HW1 2770   2.247   0.397   0.080  0.7198  1.0686 -0.3066
  693SOL    HW2 2771   2.271   0.529   0.055 -1.3289 -1.3991  0.1758
  693SOL     MW 2772   2.303   0.454   0.081 -0.3907 -0.1207 -0.2059
  694SOL     OW 2773   1.974   1.283   1.206  0.3226  0.6012 -0.3007
  694SOL    HW1 2774   2.063   1.254   1.210 -0.6225  1.5582  3.5751
  694SOL    HW2 2775   1.925   1.221   1.261 -1.0905  1.7775  0.7248
  694SOL     MW 2776   1.979   1.271   1.213  0.0114  0.8826  0.3459
  695SOL     OW 2777   3.047   1.533   1.339  0.1799  0.1902 -0.7481
  695SOL    HW1 2778   3.015   1.482   1.262 -1.7355 -2.4654 -0.0807
  695SOL    HW2 2779   2.966   1.574   1.370  0.0566 -2.4843  2.0845
  695SOL     MW 2780   3.032   1.532   1.333 -0.0891 -0.5131 -0.2863
  696SOL     OW 2781   2.016   1.367   0.947 -0.0586  0.3552 -0.2257
  696SOL    HW1 2782   2.090   1.426   0.971 -0.4226  0.3836  3.7933
  696SOL    HW2 2783   1.985   1.337   1.032  1.2864 -0.6744 -0.2221
  696SOL     MW 2784   2.021   1.371   0.961  0.0709  0.2231  0.3050
  697SOL     OW 2785   2.868   0.968   2.255  0.3201 -1.2443 -0.1140
  697SOL    HW1 2786   2.843   1.057   2.240 -0.9949 -0.2445  2.5244
  697SOL    HW2 2787   2.911   0.940   2.171 -0.3012  0.6661 -0.2099
  697SOL     MW 2788   2.871   0.976   2.242  0.0646 -0.8604  0.2214
  698SOL     OW 2789   2.546   0.406   3.054 -0.0353 -0.5937  0.4478
  698SOL    HW1 2790   2.465   0.431   3.101  3.0229 -1.6479  1.5521
  698SOL    HW2 2791   2.579   0.341   3.115  1.6958  1.0121  2.3305
  698SOL     MW 2792   2.540   0.400   3.068  0.5966 -0.5210  0.8419
  699SOL     OW 2793   1.837   1.620   2.057  0.1659 -0.2318  0.5853
  699SOL    HW1 2794   1.802   1.529   2.057  1.4604  0.8499 -0.1188
  699SOL    HW2 2795   1.931   1.600   2.047 -0.1070 -0.5231  0.1834
  699SOL     MW 2796   1.845   1.606   2.056  0.3007 -0.1275  0.4393
  700SOL     OW 2797   2.723   0.885   1.550  0.3355 -0.1238 -0.3053
  700SOL    HW1 2798   2.735   0.965   1.492  0.8217  1.8594  1.1181
  700SOL    HW2 2799   2.802   0.835   1.528  1.4560  1.3544 -2.1213
  700SOL     MW 2800   2.735   0.889   1.539  0.5475  0.3329 -0.3571
  701SOL     OW 2801   1.672   1.287   2.618 -0.1664 -0.4158  0.5903
  701SOL    HW1 2802   1.758   1.271   2.655  0.1335 -1.0387 -0.6573
  701SOL    HW2 2803   1.632   1.353   2.683 -0.5176  0.3471  1.3615
  701SOL     MW 2804   1.678   1.294   2.631 -0.1732 -0.3973  0.5275
  702SOL     OW 2805   2.217   0.491   0.748 -0.0607 -0.4269  0.2440
  702SOL    HW1 2806   2.214   0.410   0.709 -0.7679  2.2488  1.4434
  702SOL    HW2 2807   2.240   0.555   0.680  0.4139 -1.7680 -1.6387
  702SOL     MW 2808   2.220   0.489   0.734 -0.0914 -0.2508  0.1539
  703SOL     OW 2809   2.676   1.273   0.994 -0.4242 -0.5570 -0.2196
  703SOL    HW1 2810   2.674   1.242   0.899 -1.7059  2.8427 -2.5442
  703SOL    HW2 2811   2.663   1.194   1.050 -0.8893  0.3699  1.2575
  703SOL     MW 2812   2.674   1.259   0.989 -0.6546  0.0138 -0.3314
  704SOL     OW 2813   0.012   1.303   0.246  0.0417  0.1071  0.4741
  704SOL    HW1 2814  -0.067   1.262   0.216 -0.1782 -0.3112 -0.0210
  704SOL    HW2 2815   0.087   1.238   0.243  2.0040 -2.7861  0.4892
  704SOL     MW 2816   0.011   1.289   0.242  0.2716 -0.3299  0.4108
  705SOL     OW 2817   2.225   1.617   1.326 -0.2733 -0.7528 -0.0328
  705SOL    HW1 2818   2.139   1.622   1.372 -1.0155 -0.4810  1.0582
  705SOL    HW2 2819   2.245   1.530   1.341 -1.7389  1.6351 -0.4808
  705SOL     MW 2820   2.217   1.606   1.334 -0.5646 -0.4019  0.0520
  706SOL     OW 2821   2.994   1.232   0.641  0.0805 -0.3485 -0.2705
  706SOL    HW1 2822   3.083   1.226   0.616  0.5854  0.0816  1.8398
  706SOL    HW2 2823   3.000   1.327   0.649  2.3946  1.3590  0.4038
  706SOL     MW 2824   3.007   1.243   0.638  0.4524 -0.0664  0.0969
  707SOL     OW 2825   2.459   0.117   1.018 -0.2706  0.2073  0.4523
  707SOL    HW1 2826   2.489   0.209   0.997 -2.1224  0.7226 -2.0612
  707SOL    HW2 2827   2.365   0.128   1.016 -0.6154 -0.5930 -2.5680
  707SOL     MW 2828   2.451   0.131   1.015 -0.5604  0.1697 -0.2778
  708SOL     OW 2829   2.549   1.529   0.085 -0.2304 -0.2560 -0.3845
  708SOL    HW1 2830   2.587   1.448   0.121 -1.6935 -1.4490  0.2154
  708SOL    HW2 2831   2.491   1.492   0.010 -3.7207  0.2378 -2.9605
  708SOL     MW 2832   2.547   1.513   0.080 -0.8840 -0.3483 -0.6452
  709SOL     OW 2833   1.773   1.699   0.138 -0.1525  0.5034  0.3835
  709SOL    HW1 2834   1.768   1.630   0.063 -1.9276  1.9994 -5.1653
  709SOL    HW2 2835   1.722   1.667   0.210  0.6071  0.4426 -0.3749
  709SOL     MW 2836   1.765   1.686   0.138 -0.2864  0.6928 -0.4486
  710SOL     OW 2837   2.235   1.190   1.197  0.1918  0.2258 -0.9157
  710SOL    HW1 2838   2.261   1.200   1.109 -0.7828  0.4990  1.7153
  710SOL    HW2 2839   2.236   1.098   1.223 -1.1578 -2.2529  0.1530
  710SOL     MW 2840   2.238   1.179   1.189 -0.1149 -0.0652 -0.4276
  711SOL     OW 2841   2.338   0.149   1.745  0.4653  0.0580 -0.4842
  711SOL    HW1 2842   2.427   0.132   1.771 -0.8200  2.9515 -0.2649
  711SOL    HW2 2843   2.292   0.076   1.719  1.5694  1.4865  1.2261
  711SOL     MW 2844   2.344   0.137   1.745  0.4414  0.6282 -0.2296
  712SOL     OW 2845   1.598   0.637   3.076 -0.2076 -0.3519  0.4272
  712SOL    HW1 2846   1.637   0.699   3.013  3.1289 -0.9067 -0.1358
  712SOL    HW2 2847   1.504   0.667   3.081 -2.2946 -1.4948 -1.0994
  712SOL     MW 2848   1.590   0.649   3.068 -0.0427 -0.5759  0.1515
  713SOL     OW 2849   2.593   0.782   1.154 -0.0766 -0.0572  0.0286
  713SOL    HW1 2850   2.631   0.685   1.145  3.7060  0.4052 -2.3781
  713SOL    HW2 2851   2.569   0.780   1.249 -0.6587  2.1216 -1.3374
  713SOL     MW 2852   2.595   0.769   1.166  0.3457  0.2913 -0.4692
  714SOL     OW 2853   2.259   0.165   2.015  0.4552  0.5433 -0.2760
  714SOL    HW1 2854   2.330   0.139   2.074 -1.4578 -0.1836  1.8565
  714SOL    HW2 2855   2.286   0.162   1.918  0.1051  0.3904  0.3848
  714SOL     MW 2856   2.272   0.161   2.010  0.1566  0.4272  0.0925
  715SOL     OW 2857   1.763   1.944   1.734  0.3777  0.0896  0.1696
  715SOL    HW1 2858   1.844   1.925   1.682  0.6533  1.7689  0.9856
  715SOL    HW2 2859   1.742   1.852   1.764  1.7069 -2.1337  3.3346
  715SOL     MW 2860   1.771   1.930   1.731  0.5894  0.0178  0.6949
  716SOL     OW 2861   2.237   0.708   0.603  0.7560 -0.0722  0.0702
  716SOL    HW1 2862   2.305   0.742   0.546  3.7945  0.4674  0.5459
  716SOL    HW2 2863   2.154   0.689   0.550 -0.1686  1.7557 -0.0580
  716SOL     MW 2864   2.235   0.710   0.589  1.0349  0.2402  0.1160
  717SOL     OW 2865   2.876   1.426   2.950 -0.3260 -0.4453 -0.3827
  717SOL    HW1 2866   2.967   1.448   2.949  0.5649  1.8355 -2.2131
  717SOL    HW2 2867   2.833   1.497   3.000  0.1210  1.4278  0.5836
  717SOL     MW 2868   2.882   1.438   2.957 -0.1495  0.1028 -0.4967
  718SOL     OW 2869   2.571   1.482   1.293  0.4119 -0.4892  0.6402
  718SOL    HW1 2870   2.575   1.538   1.368  0.1866  0.2444 -2.6615
  718SOL    HW2 2871   2.639   1.417   1.307 -1.2731  1.4456 -1.1861
  718SOL     MW 2872   2.581   1.481   1.304  0.1599 -0.1372 -0.0364
  719SOL     OW 2873   2.139   1.323   0.689 -0.1738 -0.3591  0.2616
  719SOL    HW1 2874   2.231   1.302   0.688  0.5237 -1.1590 -3.2826
  719SOL    HW2 2875   2.124   1.362   0.777 -0.3808  0.3180  2.0764
  719SOL     MW 2876   2.149   1.326   0.701 -0.1091 -0.3753  0.0334
  720SOL     OW 2877   2.859   1.185   0.151  0.5872  0.0920  0.6272
  720SOL    HW1 2878   2.856   1.107   0.208  0.6694  0.6112 -4.8179
  720SOL    HW2 2879   2.804   1.260   0.181  1.4104  2.3709 -0.0330
  720SOL     MW 2880   2.851   1.185   0.162  0.7066  0.4612 -0.1783
  721SOL     OW 2881   2.472   0.778   1.394  0.3341  0.1292 -0.0430
  721SOL    HW1 2882   2.464   0.685   1.411  1.0552  1.7745 -1.4471
  721SOL    HW2 2883   2.522   0.824   1.457 -0.4298 -3.0231 -0.6062
  721SOL     MW 2884   2.478   0.772   1.405  0.3284 -0.0696 -0.3025
  722SOL     OW 2885   2.514   1.180   0.359  0.5878  0.5910  0.2901
  722SOL    HW1 2886   2.470   1.217   0.438  0.0685  1.0826  0.2421
  722SOL    HW2 2887   2.593   1.143   0.405  0.7489 -1.1546  2.6637
  722SOL     MW 2888   2.519   1.180   0.376  0.5405  0.4256  0.5970
  723SOL     OW 2889   2.253   1.390   1.630  0.2015  0.4309  0.3603
  723SOL    HW1 2890   2.284   1.383   1.537 -0.5250 -2.4439 -1.0647
  723SOL    HW2 2891   2.162   1.417   1.627 -0.5656 -0.3831  0.0167
  723SOL     MW 2892   2.245   1.392   1.618  0.0044 -0.0558  0.1270
  724SOL     OW 2893   2.496   0.367   0.561  0.0971  0.1411 -0.7481
  724SOL    HW1 2894   2.479   0.331   0.646  0.1597 -0.0599  1.2285
  724SOL    HW2 2895   2.586   0.346   0.544  1.6742  1.2864  2.1706
  724SOL     MW 2896   2.505   0.360   0.570  0.3134  0.2657 -0.1022
  725SOL     OW 2897   2.662   0.511   1.128  0.6435  0.1680 -0.2851
  725SOL    HW1 2898   2.722   0.514   1.208  0.0960  3.0032  0.4013
  725SOL    HW2 2899   2.575   0.489   1.161 -0.2979 -1.6932  0.5132
  725SOL     MW 2900   2.658   0.508   1.143  0.4471  0.2965 -0.0892
  726SOL     OW 2901   2.566   2.392   0.552 -0.4874 -0.1142 -0.0393
  726SOL    HW1 2902   2.505   2.446   0.509  0.9899  1.7169  1.3456
  726SOL    HW2 2903   2.555   2.401   0.645  3.5930 -3.9128 -0.8010
  726SOL     MW 2904   2.557   2.400   0.559  0.2459 -0.3738  0.0430
  727SOL     OW 2905   2.891   0.291   1.665 -0.5179  0.4157  0.2565
  727SOL    HW1 2906   2.911   0.262   1.572  2.3881  1.8454 -1.8683
  727SOL    HW2 2907   2.800   0.312   1.654  1.5387 -0.7172 -0.0517
  727SOL     MW 2908   2.882   0.290   1.651  0.1369  0.4549 -0.0645
  728SOL     OW 2909   2.805   1.154   2.996  1.1922  0.0210 -0.1884
  728SOL    HW1 2910   2.834   1.243   2.988 -2.0143  1.6769 -1.5972
  728SOL    HW2 2911   2.805   1.145   3.094  1.1343  0.4504 -3.2972
  728SOL     MW 2912   2.809   1.165   3.008  0.7615  0.2962 -0.7845
  729SOL     OW 2913   2.469   1.462   1.018  0.0045  0.0716  0.6130
  729SOL    HW1 2914   2.501   1.485   1.110  0.4097  0.4479  1.7623
  729SOL    HW2 2915   2.520   1.390   0.991  1.5511  1.1955  0.7489
  729SOL     MW 2916   2.480   1.456   1.026  0.2621  0.2695  0.7826
  730SOL     OW 2917   2.074   1.187   0.184 -0.0169 -0.0362  0.2915
  730SOL    HW1 2918   2.170   1.182   0.184  0.9131  0.5686  2.1188
  730SOL    HW2 2919   2.044   1.277   0.198  1.8644  2.2000 -0.3917
  730SOL     MW 2920   2.082   1.198   0.186  0.3540  0.3387  0.4425
  731SOL     OW 2921   2.791   1.799   2.881 -0.4265 -0.6424  0.3316
  731SOL    HW1 2922   2.703   1.817   2.847  0.4267 -0.9551 -1.2248
  731SOL    HW2 2923   2.835   1.884   2.898 -0.5473  1.0937 -1.6012
  731SOL     MW 2924   2.785   1.812   2.879 -0.3299 -0.4546 -0.1288
  732SOL     OW 2925   2.223   0.931   1.296 -0.0283  0.1800  0.6630
  732SOL    HW1 2926   2.149   0.938   1.353 -1.9837  2.4278  0.2105
  732SOL    HW2 2927   2.299   0.918   1.362 -0.9830 -6.2696 -1.4557
  732SOL     MW 2928   2.223   0.930   1.313 -0.4123 -0.3744  0.3237
  733SOL     OW 2929   2.374   2.853   3.000 -0.1592  0.6722 -0.7359
  733SOL    HW1 2930   2.284   2.894   2.986 -2.1356  0.1077  0.2114
  733SOL    HW2 2931   2.352   2.762   3.021  0.2955 -1.3140 -1.8841
  733SOL     MW 2932   2.359   2.846   3.001 -0.3599  0.3357 -0.7624
  734SOL     OW 2933   1.508   0.382   2.534  0.2656 -0.1869 -0.2837
  734SOL    HW1 2934   1.438   0.328   2.583 -2.1032  0.1675 -0.7005
  734SOL    HW2 2935   1.558   0.316   2.494 -2.8798 -2.0013  1.3945
  734SOL     MW 2936   1.506   0.366   2.535 -0.4620 -0.3795 -0.1172
  735SOL     OW 2937   2.969   0.871   2.725 -0.3149 -0.1046 -0.5457
  735SOL    HW1 2938   2.874   0.852   2.718  0.9301 -2.2016 -1.1375
  735SOL    HW2 2939   2.987   0.913   2.809  1.8171 -4.2288 -0.9145
  735SOL     MW 2940   2.959   0.874   2.736  0.1306 -0.9254 -0.6725
  736SOL     OW 2941   0.045   0.636   2.470  0.2976 -0.5610 -0.1907
  736SOL    HW1 2942   0.101   0.680   2.402  1.2698  0.0569  0.6264
  736SOL    HW2 2943   0.042   0.538   2.455 -2.3071 -1.3414  0.2376
  736SOL     MW 2944   0.052   0.629   2.459  0.0822 -0.5824 -0.0264
  737SOL     OW 2945   2.888   0.620   2.557  0.0604 -0.2519 -0.0649
  737SOL    HW1 2946   2.839   0.567   2.496  0.8965  1.9187  0.8887
  737SOL    HW2 2947   2.979   0.636   2.520  0.8318 -0.0070  0.5052
  737SOL     MW 2948   2.893   0.615   2.544  0.2725  0.0668  0.1362
  738SOL     OW 2949   0.167   0.420   1.913  0.0177  0.4548  0.4457
  738SOL    HW1 2950   0.246   0.467   1.914 -2.3460  3.7176  0.2773
  738SOL    HW2 2951   0.173   0.353   1.848 -0.7992  2.1935 -0.5492
  738SOL     MW 2952   0.178   0.417   1.905 -0.4019  1.1147  0.2922
  739SOL     OW 2953   2.556   1.031   2.206 -0.2537  0.0213 -0.0557
  739SOL    HW1 2954   2.477   1.008   2.162  0.4086 -1.4246 -1.2926
  739SOL    HW2 2955   2.614   1.035   2.129  1.1771  0.0110  0.9321
  739SOL     MW 2956   2.553   1.028   2.190  0.0225 -0.1708 -0.0886
  740SOL     OW 2957   0.261   1.704   2.948 -0.2679 -0.0209  0.5235
  740SOL    HW1 2958   0.257   1.611   2.928 -1.5577 -1.4194  2.3662
  740SOL    HW2 2959   0.336   1.712   3.011 -0.6245  0.3638  0.6492
  740SOL     MW 2960   0.270   1.693   2.953 -0.4851 -0.1546  0.7832
  741SOL     OW 2961   2.223   1.278   2.691  0.0027  0.4012  0.9110
  741SOL    HW1 2962   2.256   1.355   2.642  0.9808 -0.4189  1.8301
  741SOL    HW2 2963   2.182   1.298   2.781 -0.1981 -1.1477  2.6336
  741SOL     MW 2964   2.222   1.291   2.696  0.1053  0.0886  1.2595
  742SOL     OW 2965   1.588   1.371   2.335  0.3022 -0.1103  0.2387
  742SOL    HW1 2966   1.540   1.290   2.323  0.9268  2.5107 -0.7009
  742SOL    HW2 2967   1.633   1.375   2.423  0.4855  1.5109 -1.0676
  742SOL     MW 2968   1.588   1.361   2.345  0.4088  0.4494 -0.0576
  743SOL     OW 2969   2.487   1.209   2.700 -0.1651  0.3050  0.2135
  743SOL    HW1 2970   2.398   1.218   2.730  2.2161 -0.9688 -0.7010
  743SOL    HW2 2971   2.524   1.130   2.739  3.4017 -0.1763  1.3278
  743SOL     MW 2972   2.480   1.199   2.709  0.6197  0.0734  0.2398
  744SOL     OW 2973   2.773   0.942   1.807  0.3991 -1.1308  0.1761
  744SOL    HW1 2974   2.723   1.016   1.849 -2.4621  0.2012 -1.2505
  744SOL    HW2 2975   2.730   0.914   1.723  0.8166 -0.4854 -0.1605
  744SOL     MW 2976   2.761   0.948   1.801  0.0767 -0.8699 -0.0565
  745SOL     OW 2977   1.756   0.487   2.457 -0.8494  0.4727 -0.6557
  745SOL    HW1 2978   1.760   0.534   2.369  1.8857 -2.0939  2.7485
  745SOL    HW2 2979   1.662   0.489   2.491  0.1361 -1.2470  0.9205
  745SOL     MW 2980   1.744   0.494   2.450 -0.3585 -0.0929  0.0014
  746SOL     OW 2981   1.582   1.442   1.717 -0.2813  0.4631 -0.3404
  746SOL    HW1 2982   1.634   1.514   1.748  1.9730  1.0192 -0.0326
  746SOL    HW2 2983   1.532   1.409   1.790 -2.4527 -1.9046  0.2132
  746SOL     MW 2984   1.582   1.447   1.731 -0.2703  0.2241 -0.2267
  747SOL     OW 2985   2.607   1.132   1.909 -0.4798  0.2212 -0.1481
  747SOL    HW1 2986   2.523   1.127   1.857 -1.2179 -2.2486 -2.2202
  747SOL    HW2 2987   2.605   1.225   1.947  0.6899  1.8594 -0.1206
  747SOL     MW 2988   2.596   1.144   1.907 -0.4229  0.1115 -0.4179
  748SOL     OW 2989   0.116   3.070   1.968 -0.7411  1.1171 -0.1380
  748SOL    HW1 2990   0.210   3.093   1.943  1.2944  3.9266 -0.1297
  748SOL    HW2 2991   0.101   3.150   2.018  2.1107  3.1905  0.4759
  748SOL     MW 2992   0.127   3.084   1.971 -0.0963  1.7614 -0.0559
  749SOL     OW 2993   2.422   0.650   2.771  0.1089  0.4976 -0.6022
  749SOL    HW1 2994   2.425   0.722   2.708  2.1300 -2.4098  1.2121
  749SOL    HW2 2995   2.476   0.687   2.851 -0.7253 -0.5843 -1.6319
  749SOL     MW 2996   2.429   0.665   2.774  0.2655 -0.0287 -0.4987
  750SOL     OW 2997   2.108   3.018   1.974  0.8715 -1.1010 -1.1904
  750SOL    HW1 2998   2.168   3.094   1.999  0.5750  0.0591 -0.4103
  750SOL    HW2 2999   2.171   2.957   1.939 -0.0598 -0.0521  0.1749
  750SOL     MW 3000   2.124   3.020   1.972  0.7095 -0.8095 -0.9073
  751SOL     OW 3001   0.010   0.367   2.437 -0.6185  0.1121 -0.2137
  751SOL    HW1 3002  -0.082   0.341   2.399 -2.2204 -2.5876  1.6869
  751SOL    HW2 3003   0.074   0.346   2.368  0.6107 -0.0918  3.2039
  751SOL     MW 3004   0.006   0.361   2.423 -0.6677 -0.2710  0.4880
  752SOL     OW 3005   2.147   0.952   2.808 -0.5438 -0.5680  0.3523
  752SOL    HW1 3006   2.212   0.970   2.878  1.4516 -2.3318  0.9325
  752SOL    HW2 3007   2.103   0.869   2.829 -0.2310 -1.2316 -1.2343
  752SOL     MW 3008   2.150   0.943   2.820 -0.2393 -0.8883  0.2195
  753SOL     OW 3009   2.870   0.301   2.327  0.2357  0.1268 -0.1875
  753SOL    HW1 3010   2.824   0.213   2.310  2.0533  0.0829 -0.8330
  753SOL    HW2 3011   2.804   0.368   2.339  2.0681 -1.7409 -0.0967
  753SOL     MW 3012   2.855   0.298   2.326  0.7173 -0.1254 -0.2607
  754SOL     OW 3013   2.260   3.007   2.614 -0.0390 -0.3184  0.0035
  754SOL    HW1 3014   2.259   2.954   2.535  2.0777 -0.4361  0.8257
  754SOL    HW2 3015   2.345   2.975   2.652 -0.1742  1.3056  1.6935
  754SOL     MW 3016   2.271   2.996   2.609  0.2225 -0.1197  0.3349
  755SOL     OW 3017   2.760   1.615   2.393  0.2071  0.1735  0.5073
  755SOL    HW1 3018   2.716   1.527   2.407 -0.7659 -1.1901  0.9760
  755SOL    HW2 3019   2.798   1.633   2.480  0.6726  0.5033 -2.7846
  755SOL     MW 3020   2.760   1.605   2.406  0.1402  0.0371  0.1348
  756SOL     OW 3021   2.180   1.246   2.962 -0.5187  0.3354 -0.1542
  756SOL    HW1 3022   2.254   1.305   2.973  0.3024 -1.2722  0.3910
  756SOL    HW2 3023   2.224   1.160   2.958 -1.5905  1.3466  0.4064
  756SOL     MW 3024   2.196   1.243   2.963 -0.5518  0.2567 -0.0083
  757SOL     OW 3025   2.190   0.952   1.741  0.0936 -0.4910  0.4739
  757SOL    HW1 3026   2.211   0.858   1.725  1.0810 -0.9769  1.2594
  757SOL    HW2 3027   2.141   0.993   1.663  1.8421  2.0357  0.3401
  757SOL     MW 3028   2.186   0.945   1.728  0.4546 -0.2218  0.5599
  758SOL     OW 3029   2.194   1.835   2.550  0.5513 -0.1258  0.7990
  758SOL    HW1 3030   2.194   1.889   2.464 -0.5459 -0.5159  0.9703
  758SOL    HW2 3031   2.278   1.791   2.566 -1.0686  0.1217  2.6622
  758SOL     MW 3032   2.205   1.836   2.541  0.1928 -0.1446  1.0674
  759SOL     OW 3033   1.583   1.461   2.801 -0.1021 -0.1437 -0.2290
  759SOL    HW1 3034   1.584   1.536   2.730 -0.0198  2.2033 -0.6463
  759SOL    HW2 3035   1.641   1.475   2.877  1.7332  0.8390  1.2239
  759SOL     MW 3036   1.591   1.472   2.802  0.1509  0.2956 -0.0924
  760SOL     OW 3037   2.587   1.926   2.712  0.5609  0.0264 -0.2238
  760SOL    HW1 3038   2.548   1.847   2.679  0.8285 -0.3495  0.1075
  760SOL    HW2 3039   2.665   1.940   2.662  1.1472 -1.9343  2.2420
  760SOL     MW 3040   2.592   1.917   2.701  0.6736 -0.2819  0.1452
  761SOL     OW 3041   2.298   0.443   2.409 -0.5924  0.2267  0.7855
  761SOL    HW1 3042   2.200   0.433   2.410  0.3377  0.3617 -2.9383
  761SOL    HW2 3043   2.329   0.458   2.498  0.7729 -0.1436 -1.1866
  761SOL     MW 3044   2.289   0.444   2.421 -0.2896  0.1956  0.0340
  762SOL     OW 3045   0.025   0.181   2.115  0.1619 -0.3732 -0.6049
  762SOL    HW1 3046  -0.013   0.149   2.199  0.6555 -0.5556 -1.0662
  762SOL    HW2 3047  -0.048   0.216   2.063 -1.0541 -0.2167 -0.3101
  762SOL     MW 3048   0.011   0.182   2.119  0.0666 -0.3766 -0.6269
  763SOL     OW 3049   2.453   1.218   2.375  0.3486 -0.0304 -0.4788
  763SOL    HW1 3050   2.485   1.143   2.322 -2.8052 -0.5698 -0.2416
  763SOL    HW2 3051   2.523   1.266   2.409  1.4378 -1.7389 -0.4783
  763SOL     MW 3052   2.466   1.214   2.373  0.0762 -0.3270 -0.4474
  764SOL     OW 3053   0.388   0.055   2.805  0.2740  0.8480  0.3173
  764SOL    HW1 3054   0.322   0.114   2.784 -2.8522 -1.4426  2.0468
  764SOL    HW2 3055   0.412   0.072   2.898  0.3107  0.7918 -0.3574
  764SOL     MW 3056   0.382   0.065   2.815 -0.1337  0.5384  0.4564
  765SOL     OW 3057   2.764   0.016   2.324 -0.2270  0.4429 -0.4148
  765SOL    HW1 3058   2.713  -0.015   2.253 -2.0303  1.6684 -0.8554
  765SOL    HW2 3059   2.815  -0.060   2.353 -3.1362 -0.7488  0.3468
  765SOL     MW 3060   2.764   0.002   2.318 -0.8488  0.4474 -0.3724
  766SOL     OW 3061   1.910   2.977   2.174 -0.5191  0.2988 -0.7455
  766SOL    HW1 3062   1.966   2.999   2.106  0.3459 -2.8904  0.7259
  766SOL    HW2 3063   1.837   2.925   2.132 -0.4000 -3.1298  3.0362
  766SOL     MW 3064   1.908   2.973   2.159 -0.3892 -0.5744 -0.0524
  767SOL     OW 3065   2.665   0.640   1.881  0.6301  0.3231 -0.3171
  767SOL    HW1 3066   2.696   0.687   1.962 -0.4620  2.0899  1.4015
  767SOL    HW2 3067   2.593   0.689   1.845  1.4829 -0.0977 -1.3646
  767SOL     MW 3068   2.660   0.653   1.887  0.5986  0.5007 -0.2285
  768SOL     OW 3069   0.070   1.466   2.917  0.0665 -0.2523  0.9787
  768SOL    HW1 3070   0.058   1.498   3.009 -5.0560  1.6361  2.9714
  768SOL    HW2 3071   0.091   1.374   2.930 -1.0444  1.3076  2.0322
  768SOL     MW 3072   0.072   1.458   2.931 -0.7559  0.2027  1.3807
  769SOL     OW 3073   2.393   0.707   2.326  0.0858  0.1835 -0.2173
  769SOL    HW1 3074   2.376   0.624   2.375 -0.8330  1.6376 -2.1781
  769SOL    HW2 3075   2.455   0.678   2.253 -1.2937 -0.7877  1.0417
  769SOL     MW 3076   2.399   0.692   2.323 -0.2174  0.2472 -0.3099
  770SOL     OW 3077   3.100   1.577   2.669  0.2796  0.1000 -0.2486
  770SOL    HW1 3078   3.006   1.588   2.674 -0.9735 -0.3422  0.1359
  770SOL    HW2 3079   3.114   1.534   2.755  0.6138 -2.3915 -2.6669
  770SOL     MW 3080   3.089   1.573   2.681  0.1584 -0.2871 -0.5170
  771SOL     OW 3081   3.077   0.592   1.988  0.1849  0.3911 -0.2850
  771SOL    HW1 3082   3.024   0.571   1.906  0.5463 -3.4345  1.4440
  771SOL    HW2 3083   3.163   0.540   1.962 -0.7952  1.4657  0.3168
  771SOL     MW 3084   3.081   0.583   1.974  0.1033  0.0281  0.0226
  772SOL     OW 3085   3.099   0.017   2.342  0.7724  0.0035 -0.3461
  772SOL    HW1 3086   3.032  -0.051   2.359 -0.8803 -1.6183  2.7825
  772SOL    HW2 3087   3.155  -0.031   2.280 -0.4357  1.0164  1.0194
  772SOL     MW 3088   3.097   0.002   2.336  0.3950 -0.0768  0.2468
  773SOL     OW 3089   2.466   2.931   2.756 -0.0900  0.3923  0.1484
  773SOL    HW1 3090   2.497   2.841   2.734 -1.6652 -0.9786 -1.1993
  773SOL    HW2 3091   2.425   2.928   2.846  0.2826  1.5456  0.8552
  773SOL     MW 3092   2.465   2.919   2.765 -0.2487  0.3636  0.0639
  774SOL     OW 3093   2.377   1.156   1.744 -0.1430 -0.3263 -0.3479
  774SOL    HW1 3094   2.329   1.230   1.700  1.5309  2.2300 -2.5628
  774SOL    HW2 3095   2.339   1.073   1.732  1.1117  0.7819  2.4243
  774SOL     MW 3096   2.366   1.155   1.736  0.2434  0.1572 -0.2744
  775SOL     OW 3097   2.331   2.871   2.384  0.1452 -0.4625 -0.1651
  775SOL    HW1 3098   2.349   2.962   2.358  0.7197 -0.5721  0.5225
  775SOL    HW2 3099   2.402   2.813   2.350  1.7578 -2.4875 -1.3613
  775SOL     MW 3100   2.343   2.875   2.376  0.4337 -0.7441 -0.2322
  776SOL     OW 3101   0.141   1.496   0.089  0.1026 -0.2318  0.3482
  776SOL    HW1 3102   0.232   1.466   0.083 -0.2383 -2.9409 -0.9376
  776SOL    HW2 3103   0.103   1.432   0.149 -0.4042 -0.3869 -1.8649
  776SOL     MW 3104   0.148   1.484   0.096 -0.0093 -0.6097 -0.1135
  777SOL     OW 3105   2.955   1.117   1.708 -0.1007 -0.2107  0.3980
  777SOL    HW1 3106   2.893   1.173   1.660 -2.5524  2.4185 -3.8869
  777SOL    HW2 3107   2.897   1.048   1.733 -0.8953  3.2241  0.7374
  777SOL     MW 3108   2.939   1.115   1.705 -0.5290  0.5894 -0.1226
  778SOL     OW 3109   2.931   0.497   2.804  0.2370 -0.3920 -0.9902
  778SOL    HW1 3110   2.868   0.525   2.872  2.8935  2.4282  0.1825
  778SOL    HW2 3111   2.906   0.546   2.722 -1.4326 -0.2327 -1.4121
  778SOL     MW 3112   2.919   0.507   2.802  0.3672  0.0011 -0.8911
  779SOL     OW 3113   2.222   0.511   2.114  0.0125 -0.6537  0.1006
  779SOL    HW1 3114   2.145   0.565   2.148 -0.5377  0.1599 -1.2515
  779SOL    HW2 3115   2.239   0.452   2.191  1.7569 -3.3438  1.6607
  779SOL     MW 3116   2.214   0.510   2.128  0.1701 -0.9013  0.1281
  780SOL     OW 3117   0.211   0.258   2.700  0.2985 -0.1578 -0.2822
  780SOL    HW1 3118   0.129   0.310   2.709 -2.2159  2.5070  0.8014
  780SOL    HW2 3119   0.274   0.316   2.750  1.9857 -0.1252 -0.7717
  780SOL     MW 3120   0.209   0.272   2.708  0.1893  0.1981 -0.2038
  781SOL     OW 3121   0.020   1.229   2.427  0.2697  0.7949  0.7618
  781SOL    HW1 3122   0.040   1.247   2.331 -0.5770 -0.9756 -0.7046
  781SOL    HW2 3123  -0.011   1.141   2.436 -0.2335  0.4681  2.1948
  781SOL     MW 3124   0.019   1.220   2.416  0.0916  0.5182  0.7574
  782SOL     OW 3125   0.718   1.497   0.046 -0.5637 -0.0528  0.0159
  782SOL    HW1 3126   0.655   1.565   0.002 -1.9067  1.2916 -0.8583
  782SOL    HW2 3127   0.709   1.501   0.142 -0.6102 -1.1334 -0.4539
  782SOL     MW 3128   0.708   1.507   0.053 -0.7470 -0.0180 -0.1614
  783SOL     OW 3129   2.692   0.506   2.369 -0.0303 -0.2274  0.1381
  783SOL    HW1 3130   2.676   0.573   2.306  1.5396 -1.2846  1.7559
  783SOL    HW2 3131   2.632   0.519   2.444  0.9786 -0.3444 -1.3310
  783SOL     MW 3132   2.682   0.517   2.371  0.3099 -0.3823  0.1577
  784SOL     OW 3133   0.170   0.811   2.815  0.3791  0.7077  0.1224
  784SOL    HW1 3134   0.081   0.808   2.783 -1.0493 -0.3890  0.3259
  784SOL    HW2 3135   0.210   0.894   2.796  1.3551 -0.3280 -0.1952
  784SOL     MW 3136   0.163   0.821   2.808  0.3194  0.4263  0.1073
  785SOL     OW 3137   0.431   0.414   2.161 -0.3710 -0.7448 -0.1186
  785SOL    HW1 3138   0.429   0.439   2.067  1.5350 -1.0926  0.2218
  785SOL    HW2 3139   0.343   0.375   2.182 -1.5010  0.0129  1.0050
  785SOL     MW 3140   0.419   0.412   2.152 -0.2686 -0.6907  0.0746
  786SOL     OW 3141   1.877   0.495   3.053  0.1175 -0.0926  0.8509
  786SOL    HW1 3142   1.888   0.546   3.128 -2.0246 -2.5583 -0.3290
  786SOL    HW2 3143   1.783   0.496   3.032  1.7731 -1.2583  1.3602
  786SOL     MW 3144   1.866   0.502   3.060  0.0533 -0.5717  0.7624
  787SOL     OW 3145   2.399   0.194   2.922  0.3317  0.0594  0.3483
  787SOL    HW1 3146   2.473   0.150   2.874  2.3381 -0.1499 -2.1237
  787SOL    HW2 3147   2.445   0.273   2.957  2.2120  1.3979  0.2808
  787SOL     MW 3148   2.415   0.199   2.920  0.8445  0.2084  0.0133
  788SOL     OW 3149   2.913   2.901   2.406 -0.0624  0.2899  0.4467
  788SOL    HW1 3150   2.981   2.871   2.472 -0.3676  2.3414  2.7801
  788SOL    HW2 3151   2.939   2.863   2.320 -0.0239 -0.2933  2.3465
  788SOL     MW 3152   2.925   2.892   2.403 -0.0976  0.4836  1.0052
  789SOL     OW 3153   0.105   0.199   0.046  0.0493 -0.5360 -0.0989
  789SOL    HW1 3154   0.017   0.157   0.070  0.6827 -0.3119 -1.7860
  789SOL    HW2 3155   0.069   0.261  -0.021 -2.5135 -1.5761  1.3998
  789SOL     MW 3156   0.088   0.202   0.040 -0.2053 -0.6437 -0.1238
  790SOL     OW 3157   3.033   0.967   2.471 -0.1819  0.3073 -0.1674
  790SOL    HW1 3158   3.009   0.912   2.538  1.5640  2.6755 -0.7643
  790SOL    HW2 3159   2.963   0.949   2.402 -0.1197  0.2457  1.0020
  790SOL     MW 3160   3.021   0.958   2.471  0.0567  0.6116 -0.0919
  791SOL     OW 3161   2.536   0.491   2.581  0.3031 -0.4958  0.3651
  791SOL    HW1 3162   2.508   0.539   2.665 -2.0760  0.7916 -0.5993
  791SOL    HW2 3163   2.599   0.427   2.607  1.1309 -1.0732 -1.6761
  791SOL     MW 3164   2.540   0.489   2.595  0.0985 -0.4021 -0.0315
  792SOL     OW 3165   2.471   0.210   2.454 -0.3553 -0.4382  0.1901
  792SOL    HW1 3166   2.416   0.280   2.416  1.2002 -1.1745 -1.6141
  792SOL    HW2 3167   2.415   0.196   2.533 -2.3395  2.0119  1.3422
  792SOL     MW 3168   2.457   0.217   2.459 -0.4119 -0.2121  0.1041
  793SOL     OW 3169   1.803   1.119   2.038 -0.6627 -0.1487 -0.4875
  793SOL    HW1 3170   1.761   1.100   1.956 -1.1393 -1.3484 -0.9190
  793SOL    HW2 3171   1.892   1.140   2.007 -2.1482 -0.2495  0.2770
  793SOL     MW 3172   1.809   1.119   2.023 -0.9216 -0.3203 -0.4436
  794SOL     OW 3173   1.375   2.311   0.108  0.0114  0.0928 -0.3321
  794SOL    HW1 3174   1.410   2.408   0.097  2.0104 -0.9917  0.5753
  794SOL    HW2 3175   1.414   2.285   0.191  1.5865  2.7925  3.6444
  794SOL     MW 3176   1.385   2.321   0.118  0.4830  0.3059  0.3123
  795SOL     OW 3177   2.282   1.057   2.514 -0.0882  0.3320  0.2966
  795SOL    HW1 3178   2.240   1.101   2.585 -0.6346  1.4550 -0.7816
  795SOL    HW2 3179   2.340   1.126   2.485  1.5053  2.5526 -1.2192
  795SOL     MW 3180   2.284   1.072   2.519  0.0499  0.7732 -0.0457
  796SOL     OW 3181   0.248   0.594   2.680  0.2883 -0.0664 -0.2938
  796SOL    HW1 3182   0.214   0.664   2.734 -0.4221 -2.1332  0.6837
  796SOL    HW2 3183   0.206   0.615   2.594 -1.2380  0.6148 -0.7023
  796SOL     MW 3184   0.238   0.606   2.676 -0.0068 -0.2492 -0.2188
  797SOL     OW 3185   2.740   0.215   2.638 -0.6300 -0.1689 -0.6548
  797SOL    HW1 3186   2.737   0.197   2.549  2.0641  0.7454  1.5088
  797SOL    HW2 3187   2.833   0.229   2.649 -2.0992  2.5254 -1.7865
  797SOL     MW 3188   2.752   0.215   2.627 -0.4684  0.3072 -0.5186
  798SOL     OW 3189   2.425   0.012   2.275  0.5842  0.5197 -0.2676
  798SOL    HW1 3190   2.455   0.084   2.340 -1.3465  0.1024 -0.0040
  798SOL    HW2 3191   2.492   0.011   2.205  1.4835 -1.3908 -1.0226
  798SOL     MW 3192   2.438   0.021   2.274  0.4481  0.2125 -0.3324
  799SOL     OW 3193   2.565   3.045   0.087 -0.2156  0.1232  0.3344
  799SOL    HW1 3194   2.485   3.019   0.035 -1.5221  1.0102 -2.3245
  799SOL    HW2 3195   2.555   2.998   0.175 -0.0748  0.6347  0.7275
  799SOL     MW 3196   2.553   3.035   0.091 -0.3694  0.3077  0.0354
  800SOL     OW 3197   1.947   2.993   1.746 -0.5609 -0.1132  0.6139
  800SOL    HW1 3198   1.874   2.933   1.763 -2.1377  0.0810 -0.2246
  800SOL    HW2 3199   1.987   2.998   1.835  3.7394 -0.5533  1.4835
  800SOL     MW 3200   1.942   2.986   1.760 -0.2016 -0.1457  0.6180
  801SOL     OW 3201   2.896   1.233   2.602 -0.0174 -0.4822  0.1601
  801SOL    HW1 3202   2.925   1.148   2.640 -0.4256 -0.4468  0.7413
  801SOL    HW2 3203   2.969   1.279   2.561  0.7040 -0.1691  1.1015
  801SOL     MW 3204   2.909   1.228   2.601  0.0239 -0.4362  0.3610
  802SOL     OW 3205   2.637   1.428   2.813 -0.7325  0.1495 -0.5987
  802SOL    HW1 3206   2.597   1.350   2.759  1.3690  1.4581 -0.4345
  802SOL    HW2 3207   2.712   1.391   2.873  1.8959  2.4227  3.4000
  802SOL     MW 3208   2.642   1.413   2.814 -0.1084  0.6221 -0.0494
  803SOL     OW 3209   2.325   1.421   2.000 -0.4201  0.0618  0.1284
  803SOL    HW1 3210   2.289   1.364   2.063  0.3947  1.8285  0.6741
  803SOL    HW2 3211   2.286   1.402   1.915 -0.4881 -0.7977  0.9521
  803SOL     MW 3212   2.315   1.411   1.997 -0.3216  0.1815  0.3091
  804SOL     OW 3213   2.264   0.135   0.044  0.5365  0.2544 -0.3605
  804SOL    HW1 3214   2.196   0.200   0.053  0.2993  0.9626  2.5126
  804SOL    HW2 3215   2.323   0.156  -0.031 -0.9346 -1.4371  1.7687
  804SOL     MW 3216   2.263   0.147   0.035  0.3111  0.1247  0.2995
  805SOL     OW 3217   2.714   0.828   2.648  0.3217  0.8171  0.0156
  805SOL    HW1 3218   2.622   0.830   2.616 -0.4393  0.9065  1.2292
  805SOL    HW2 3219   2.769   0.763   2.604  0.1578 -3.1048  1.6899
  805SOL     MW 3220   2.709   0.820   2.638  0.1996  0.3115  0.3966
  806SOL     OW 3221   2.676   0.729   2.201 -0.3050 -0.3604  0.5510
  806SOL    HW1 3222   2.761   0.758   2.168 -0.0052  0.6152 -0.3407
  806SOL    HW2 3223   2.635   0.807   2.233  1.4688 -0.0506  1.4243
  806SOL     MW 3224   2.682   0.743   2.201 -0.0314 -0.1908  0.5486
  807SOL     OW 3225   3.101   1.093   2.043  0.7243 -0.0339 -0.1082
  807SOL    HW1 3226   3.144   1.004   2.044  1.8033 -0.1529  0.7680
  807SOL    HW2 3227   3.024   1.091   1.985  4.5280  3.3053  1.0332
  807SOL     MW 3228   3.096   1.081   2.036  1.3685  0.3910  0.1580
  808SOL     OW 3229   2.605   0.051   2.823 -0.5279 -0.2092 -0.0924
  808SOL    HW1 3230   2.591  -0.039   2.790  1.3698  0.5990 -1.1459
  808SOL    HW2 3231   2.654   0.096   2.759 -2.3793 -3.4056  3.2261
  808SOL     MW 3232   2.610   0.045   2.810 -0.5217 -0.5243  0.2065
  809SOL     OW 3233   2.679   1.355   2.424 -0.0198 -0.3009 -0.1129
  809SOL    HW1 3234   2.727   1.320   2.499 -2.3530  0.8275 -1.4688
  809SOL    HW2 3235   2.715   1.293   2.358  0.5221  1.8267 -0.5554
  809SOL     MW 3236   2.690   1.342   2.425 -0.2561  0.1287 -0.3502
  810SOL     OW 3237   2.241   1.300   2.244 -0.1506  0.2375  0.2111
  810SOL    HW1 3238   2.319   1.272   2.294 -1.7854 -0.5679  1.6030
  810SOL    HW2 3239   2.177   1.229   2.253  0.5449  0.0774  1.8792
  810SOL     MW 3240   2.243   1.287   2.252 -0.2745  0.1101  0.6148
  811SOL     OW 3241   1.625   0.183   2.277 -0.2573 -0.4351  0.4669
  811SOL    HW1 3242   1.707   0.131   2.301 -2.4619 -1.4309  1.6904
  811SOL    HW2 3243   1.638   0.204   2.179  2.0304  1.5870 -1.2916
  811SOL     MW 3244   1.638   0.179   2.267 -0.2463 -0.2997  0.3963
  812SOL     OW 3245   1.484   2.816   2.045 -0.1596  0.8476 -0.0748
  812SOL    HW1 3246   1.579   2.811   2.048 -1.2927 -2.9903 -1.3009
  812SOL    HW2 3247   1.454   2.785   2.132 -1.0090  2.7840  0.3254
  812SOL     MW 3248   1.492   2.811   2.057 -0.4211  0.5967 -0.1838
  813SOL     OW 3249   2.022   0.629   2.250  0.2398  0.0814 -0.0035
  813SOL    HW1 3250   1.932   0.602   2.210 -0.4328  1.1718  0.4129
  813SOL    HW2 3251   2.001   0.681   2.323  2.9367 -1.6338 -0.0907
  813SOL     MW 3252   2.007   0.632   2.254  0.5069 -0.0010  0.0399
  814SOL     OW 3253   2.709   1.287   1.638  0.2436  0.1385  0.0897
  814SOL    HW1 3254   2.652   1.290   1.718 -3.3129 -1.5905 -0.2315
  814SOL    HW2 3255   2.652   1.272   1.564  0.1080  0.2433 -0.4387
  814SOL     MW 3256   2.694   1.285   1.639 -0.2436 -0.0758 -0.0224
  815SOL     OW 3257   2.532   1.764   2.395 -0.3609  0.1930  0.6093
  815SOL    HW1 3258   2.473   1.695   2.354 -2.2267 -1.9557  0.6157
  815SOL    HW2 3259   2.622   1.728   2.387  0.5500  1.6071 -1.1549
  815SOL     MW 3260   2.536   1.750   2.389 -0.4869  0.0961  0.3773
  816SOL     OW 3261   0.724   0.684   2.803  0.3099 -0.1623  0.2025
  816SOL    HW1 3262   0.731   0.593   2.815 -3.0395  0.2835 -2.4300
  816SOL    HW2 3263   0.636   0.683   2.771  2.5988 -2.6206  3.3324
  816SOL     MW 3264   0.713   0.672   2.800  0.1700 -0.4278  0.2682
  817SOL     OW 3265   2.995   1.264   1.438  0.0605 -0.1966 -0.2450
  817SOL    HW1 3266   3.054   1.217   1.497 -1.6924  1.6255  1.4133
  817SOL    HW2 3267   3.003   1.355   1.462 -1.6025  1.9099  2.7590
  817SOL     MW 3268   3.004   1.270   1.449 -0.3902  0.3218  0.3701
  818SOL     OW 3269   1.943   1.040   2.644 -0.0042 -0.1852 -0.3494
  818SOL    HW1 3270   1.958   1.021   2.551  2.1062 -0.9947  4.1617
  818SOL    HW2 3271   2.010   0.987   2.682 -1.7248  2.3938  1.9525
  818SOL     MW 3272   1.954   1.031   2.637  0.0472  0.0483  0.5495
  819SOL     OW 3273   2.015   0.349   2.436 -0.6703  0.3016  0.3261
  819SOL    HW1 3274   1.927   0.385   2.450  0.5142  1.5308  0.9848
  819SOL    HW2 3275   2.042   0.346   2.523 -1.7765  2.0448 -1.5063
  819SOL     MW 3276   2.007   0.353   2.449 -0.6599  0.6938  0.1712
  820SOL     OW 3277   2.483   1.684   2.665 -0.2107 -0.1229  0.5352
  820SOL    HW1 3278   2.555   1.631   2.700  0.4527  1.4576  0.2736
  820SOL    HW2 3279   2.510   1.705   2.577 -0.8295 -0.8408  0.8131
  820SOL     MW 3280   2.496   1.679   2.658 -0.2048 -0.0091  0.5374
  821SOL     OW 3281   2.614   1.387   2.003 -0.3559  0.1396 -0.6301
  821SOL    HW1 3282   2.639   1.448   1.934  1.8950 -1.4574 -2.8339
  821SOL    HW2 3283   2.516   1.412   2.014 -0.8656  0.3638 -1.2639
  821SOL     MW 3284   2.604   1.399   1.995 -0.1262 -0.0415 -1.0045
  822SOL     OW 3285   2.946   2.720   1.514 -0.1114  0.5040  0.1070
  822SOL    HW1 3286   2.948   2.702   1.612  0.7244 -0.3196 -2.4489
  822SOL    HW2 3287   2.921   2.813   1.501  0.0679  0.8648  0.7712
  822SOL     MW 3288   2.943   2.730   1.525  0.0226  0.4429 -0.1426
  823SOL     OW 3289   2.370   0.467   1.862 -0.2661  0.1356 -0.4832
  823SOL    HW1 3290   2.444   0.405   1.859 -2.4152  2.3014  0.3104
  823SOL    HW2 3291   2.344   0.465   1.956  0.3892 -1.3737  1.4937
  823SOL     MW 3292   2.376   0.458   1.874 -0.4632  0.2222 -0.1177
  824SOL     OW 3293   2.277   1.501   2.548  0.2430 -0.7798  1.2175
  824SOL    HW1 3294   2.333   1.559   2.596 -0.9343 -0.0355  0.0567
  824SOL    HW2 3295   2.193   1.536   2.564  1.3345  0.8948  0.1748
  824SOL     MW 3296   2.273   1.513   2.556  0.2317 -0.4607  0.9268
  825SOL     OW 3297   1.887   2.621   0.228 -0.7305 -0.2954 -0.1311
  825SOL    HW1 3298   1.885   2.575   0.312  3.3798 -2.3964  2.5297
  825SOL    HW2 3299   1.964   2.584   0.188 -2.1295  2.2560  2.8271
  825SOL     MW 3300   1.897   2.610   0.234 -0.3728 -0.2360  0.6103
  826SOL     OW 3301   1.838   2.318   0.442  0.0300 -0.0358  0.2965
  826SOL    HW1 3302   1.789   2.249   0.490  1.7188  0.7253 -0.7961
  826SOL    HW2 3303   1.878   2.382   0.506 -1.5738  2.6605  2.2544
  826SOL     MW 3304   1.837   2.317   0.457  0.0412  0.4204  0.4106
  827SOL     OW 3305   1.971   2.196   0.751 -0.4603  0.4596  0.9726
  827SOL    HW1 3306   1.903   2.204   0.679  0.3697  2.4104 -2.6516
  827SOL    HW2 3307   1.950   2.114   0.790  0.8961  2.7696  0.1378
  827SOL     MW 3308   1.959   2.187   0.747 -0.1718  1.0218  0.3843
  828SOL     OW 3309   0.046   2.622   0.607  0.2889  0.0350 -0.3088
  828SOL    HW1 3310   0.140   2.631   0.620  1.6161 -1.2306 -1.2115
  828SOL    HW2 3311   0.029   2.684   0.535  0.1626  2.6928  1.9847
  828SOL     MW 3312   0.056   2.631   0.599  0.4474  0.2187 -0.1253
  829SOL     OW 3313   2.989   2.971   1.177  0.3881 -0.5787 -0.1171
  829SOL    HW1 3314   2.928   2.982   1.108 -3.0124  0.7239 -0.5903
  829SOL    HW2 3315   3.024   2.888   1.164  1.9168 -0.3549 -1.2572
  829SOL     MW 3316   2.986   2.962   1.166  0.1411 -0.3773 -0.3299
  830SOL     OW 3317   2.535   2.831   2.010 -0.0188  0.0035  0.2786
  830SOL    HW1 3318   2.448   2.840   1.970  0.2141 -3.0875 -2.1132
  830SOL    HW2 3319   2.581   2.805   1.926  1.6411  0.3098  0.8488
  830SOL     MW 3320   2.529   2.828   1.994  0.2309 -0.3639  0.0382
  831SOL     OW 3321   2.413   2.410   1.227  0.0677  0.2665 -0.4748
  831SOL    HW1 3322   2.360   2.346   1.272  1.3351 -0.6149  2.0789
  831SOL    HW2 3323   2.501   2.384   1.240 -1.4826 -0.0748  0.6558
  831SOL     MW 3324   2.418   2.398   1.235  0.0304  0.1052  0.0113
  832SOL     OW 3325   2.319   2.187   1.826  0.6638  0.2317 -0.0133
  832SOL    HW1 3326   2.352   2.279   1.854  2.3530  1.2771 -0.7708
  832SOL    HW2 3327   2.400   2.131   1.825  3.1237  1.4047  2.2316
  832SOL     MW 3328   2.334   2.192   1.829  1.2113  0.5244  0.1830
  833SOL     OW 3329   1.725   2.508   0.889  0.3521  0.3379  0.0369
  833SOL    HW1 3330   1.633   2.517   0.864 -0.9427 -2.6945 -2.1302
  833SOL    HW2 3331   1.738   2.584   0.945 -1.1567 -2.4395 -3.9338
  833SOL     MW 3332   1.714   2.519   0.893 -0.0178 -0.4287 -0.7729
  834SOL     OW 3333   2.116   2.445   0.557 -0.3388 -0.0573  0.0158
  834SOL    HW1 3334   2.116   2.374   0.617 -0.4370 -1.4492 -0.5442
  834SOL    HW2 3335   2.161   2.413   0.475  1.6841 -0.5400 -0.6034
  834SOL     MW 3336   2.122   2.431   0.554 -0.0848 -0.3047 -0.1398
  835SOL     OW 3337   1.812   2.586   0.612 -0.2453  0.0639 -0.3294
  835SOL    HW1 3338   1.769   2.535   0.676 -1.0404 -0.6698  0.8419
  835SOL    HW2 3339   1.894   2.622   0.651 -3.2166  0.7646 -1.1523
  835SOL     MW 3340   1.817   2.584   0.625 -0.7422  0.0595 -0.2834
  836SOL     OW 3341   1.885   2.246   1.560 -0.7648  0.2413  0.0258
  836SOL    HW1 3342   1.974   2.243   1.589  0.1641 -0.2832 -0.5943
  836SOL    HW2 3343   1.830   2.291   1.621 -0.0564 -1.2909 -0.7279
  836SOL     MW 3344   1.890   2.252   1.572 -0.5487 -0.0301 -0.1554
  837SOL     OW 3345   2.170   0.226   0.729  0.0363 -0.4665 -0.0698
  837SOL    HW1 3346   2.080   0.225   0.701 -1.7133  0.5246  0.4081
  837SOL    HW2 3347   2.212   0.189   0.648 -0.6658 -0.4753  0.9780
  837SOL     MW 3348   2.164   0.221   0.714 -0.2871 -0.3369  0.1315
  838SOL     OW 3349   2.930   2.069   0.944 -0.4055 -0.6747 -0.1742
  838SOL    HW1 3350   2.846   2.029   0.945 -0.5086  1.8543  1.1123
  838SOL    HW2 3351   2.992   2.000   0.951  0.0336  1.6477 -0.3439
  838SOL     MW 3352   2.927   2.055   0.945 -0.3611 -0.0346 -0.0269
  839SOL     OW 3353   1.509   2.362   1.041 -0.3637 -0.3204 -0.1746
  839SOL    HW1 3354   1.554   2.426   1.094 -2.2690  0.3598  1.2178
  839SOL    HW2 3355   1.530   2.287   1.092 -1.0774  1.9601 -1.5836
  839SOL     MW 3356   1.517   2.361   1.055 -0.7093  0.0703 -0.1768
  840SOL     OW 3357   2.378   2.250   2.421 -0.5763  0.0152  0.3043
  840SOL    HW1 3358   2.341   2.326   2.383  1.5730 -3.2479 -1.1749
  840SOL    HW2 3359   2.367   2.257   2.521  0.3326 -0.5394  2.2554
  840SOL     MW 3360   2.372   2.261   2.429 -0.1728 -0.4885  0.3665
  841SOL     OW 3361   2.071   2.470   0.086 -0.2686 -0.3644  0.2040
  841SOL    HW1 3362   2.135   2.521   0.029 -2.0012 -1.0596 -1.1875
  841SOL    HW2 3363   2.069   2.375   0.059  1.4536  0.7349 -1.2714
  841SOL     MW 3364   2.079   2.464   0.075 -0.2700 -0.3111 -0.1743
  842SOL     OW 3365   2.656   2.075   1.541 -0.0482 -0.2997 -0.2224
  842SOL    HW1 3366   2.593   2.046   1.609  0.2658 -0.4455 -1.6300
  842SOL    HW2 3367   2.614   2.107   1.464  0.9248 -0.1167 -0.3182
  842SOL     MW 3368   2.642   2.076   1.540  0.1216 -0.2948 -0.4208
  843SOL     OW 3369   2.673   2.769   1.766 -0.1117  0.0408 -0.0919
  843SOL    HW1 3370   2.759   2.742   1.794 -0.3810  0.8292  1.2782
  843SOL    HW2 3371   2.628   2.687   1.755  2.9063  3.0622  0.3029
  843SOL     MW 3372   2.678   2.754   1.768  0.2510  0.5435  0.1410
  844SOL     OW 3373   2.699   2.340   1.227 -0.7351  0.1444 -0.0850
  844SOL    HW1 3374   2.704   2.348   1.130 -3.6432  0.8729 -1.7085
  844SOL    HW2 3375   2.763   2.416   1.247  1.2528  1.1493  0.3358
  844SOL     MW 3376   2.708   2.351   1.217 -0.8565  0.3731 -0.2437
  845SOL     OW 3377   2.859   2.481   0.342  0.0539  0.4417 -0.2898
  845SOL    HW1 3378   2.808   2.397   0.323 -0.7757 -0.1227  0.5552
  845SOL    HW2 3379   2.840   2.487   0.437  1.9116 -0.3805 -1.8218
  845SOL     MW 3380   2.850   2.470   0.352  0.1896  0.2588 -0.3805
  846SOL     OW 3381   1.531   2.882   0.744  0.1325  0.1993 -0.4168
  846SOL    HW1 3382   1.626   2.889   0.774  1.7566 -3.4958 -0.8156
  846SOL    HW2 3383   1.479   2.955   0.768  2.4696  0.4383  2.5882
  846SOL     MW 3384   1.537   2.893   0.751  0.6551 -0.2567 -0.0729
  847SOL     OW 3385   2.619   1.996   0.182 -0.2163 -0.0018 -0.1858
  847SOL    HW1 3386   2.684   1.952   0.235 -1.0138 -0.5141 -0.3526
  847SOL    HW2 3387   2.574   1.924   0.142 -1.0445 -3.4022 -1.3496
  847SOL     MW 3388   2.622   1.981   0.184 -0.4308 -0.5180 -0.3614
  848SOL     OW 3389   2.536   2.118   1.304  0.3127  0.6549  0.4275
  848SOL    HW1 3390   2.586   2.198   1.271  1.7196  0.8152  1.2368
  848SOL    HW2 3391   2.537   2.048   1.243  0.0120  3.4312  0.5456
  848SOL     MW 3392   2.543   2.120   1.291  0.4586  1.0423  0.5499
  849SOL     OW 3393   2.016   2.682   0.788 -0.6183  0.0196  0.3568
  849SOL    HW1 3394   2.023   2.597   0.828  2.7979  3.4594 -0.1290
  849SOL    HW2 3395   2.097   2.692   0.732  0.4150 -0.9920  3.1339
  849SOL     MW 3396   2.028   2.672   0.786 -0.0312  0.3400  0.6591
  850SOL     OW 3397   2.197   1.918   1.705 -0.6417  0.0965 -0.4606
  850SOL    HW1 3398   2.124   1.869   1.663  0.9532 -0.2345 -1.5910
  850SOL    HW2 3399   2.178   2.011   1.687  1.1728  2.0118 -0.0492
  850SOL     MW 3400   2.185   1.924   1.697 -0.1919  0.3055 -0.5555
  851SOL     OW 3401   2.259   2.377   0.324 -0.5099 -0.2511  0.3686
  851SOL    HW1 3402   2.203   2.410   0.252 -2.5068  0.1799 -0.4376
  851SOL    HW2 3403   2.339   2.431   0.332 -1.4952 -0.3911 -3.2647
  851SOL     MW 3404   2.262   2.389   0.315 -0.9034 -0.2127 -0.2171
  852SOL     OW 3405   2.354   2.098   0.294 -0.1341  0.0750  0.1496
  852SOL    HW1 3406   2.302   2.175   0.319 -1.0754 -3.1734  0.3379
  852SOL    HW2 3407   2.402   2.127   0.215 -1.7177  2.0106 -0.4080
  852SOL     MW 3408   2.354   2.112   0.287 -0.4673 -0.0982  0.1009
  853SOL     OW 3409   2.438   2.417   1.899 -0.1076 -0.4784  0.6796
  853SOL    HW1 3410   2.459   2.472   1.820  3.5624 -0.9851 -0.9205
  853SOL    HW2 3411   2.528   2.403   1.935 -1.1907  1.5653  0.4591
  853SOL     MW 3412   2.453   2.423   1.893  0.2337 -0.2756  0.4394
  854SOL     OW 3413   2.847   2.237   0.733  0.7826 -0.2278 -0.2603
  854SOL    HW1 3414   2.788   2.173   0.690  0.0673  0.3039  0.0959
  854SOL    HW2 3415   2.882   2.187   0.811 -2.0206  1.2173  1.7222
  854SOL     MW 3416   2.844   2.222   0.737  0.3184  0.0330  0.0482
  855SOL     OW 3417   2.716   2.249   0.350 -0.0004 -0.2772 -0.5672
  855SOL    HW1 3418   2.657   2.235   0.418  1.5500  1.8390  0.0937
  855SOL    HW2 3419   2.794   2.190   0.366 -0.0063 -0.0099  0.1267
  855SOL     MW 3420   2.718   2.239   0.361  0.2034  0.0373 -0.3884
  856SOL     OW 3421   2.204   1.890   0.173  0.1546  0.3133 -0.2455
  856SOL    HW1 3422   2.112   1.886   0.206  0.5239 -2.0725 -2.1240
  856SOL    HW2 3423   2.254   1.961   0.221 -0.3555  2.8033 -0.8078
  856SOL     MW 3424   2.199   1.899   0.184  0.1361  0.3271 -0.5676
  857SOL     OW 3425   2.476   1.900   0.449  0.6294  0.0520  0.4736
  857SOL    HW1 3426   2.443   1.977   0.391 -0.9261  1.6548  0.1831
  857SOL    HW2 3427   2.401   1.850   0.469  0.3492 -0.8632  1.5564
  857SOL     MW 3428   2.462   1.904   0.444  0.3872  0.1427  0.5782
  858SOL     OW 3429   2.926   2.667   1.776  0.0121 -0.5136 -0.1156
  858SOL    HW1 3430   3.016   2.695   1.810 -2.3578  0.6336  1.2502
  858SOL    HW2 3431   2.913   2.572   1.783 -0.5219 -1.6684 -0.4849
  858SOL     MW 3432   2.936   2.658   1.781 -0.3710 -0.5146  0.0159
  859SOL     OW 3433   2.077   2.419   0.894  0.3641  0.2626  0.1507
  859SOL    HW1 3434   2.050   2.341   0.842 -2.4795  0.2574  0.3721
  859SOL    HW2 3435   2.172   2.417   0.905 -2.5088  0.2378  1.1374
  859SOL     MW 3436   2.086   2.408   0.889 -0.3902  0.2586  0.3101
  860SOL     OW 3437   2.673   2.592   0.181  0.0486  0.5553  0.3413
  860SOL    HW1 3438   2.736   2.563   0.242 -1.0206  1.3485 -0.8204
  860SOL    HW2 3439   2.712   2.664   0.133  0.3649 -1.9618  1.1709
  860SOL     MW 3440   2.687   2.597   0.183 -0.0508  0.3278  0.2975
  861SOL     OW 3441   1.629   2.077   1.166 -0.1703 -0.3383 -0.6118
  861SOL    HW1 3442   1.719   2.074   1.211  0.7279 -0.0716 -0.3165
  861SOL    HW2 3443   1.565   2.026   1.224 -1.9127 -0.0983 -1.8620
  861SOL     MW 3444   1.632   2.070   1.179 -0.2817 -0.2715 -0.7378
  862SOL     OW 3445   2.439   1.853   1.575 -0.5022  0.3342  0.2839
  862SOL    HW1 3446   2.357   1.868   1.626 -0.2923  1.2480 -1.5419
  862SOL    HW2 3447   2.414   1.876   1.483 -0.5189  0.0058  0.5285
  862SOL     MW 3448   2.425   1.858   1.570 -0.4767  0.4115  0.0753
  863SOL     OW 3449   3.015   1.793   1.233  0.6610 -0.4011 -0.2914
  863SOL    HW1 3450   3.076   1.737   1.279  0.2509  0.1307  0.6423
  863SOL    HW2 3451   3.009   1.878   1.269 -1.2310  0.5141 -1.6907
  863SOL     MW 3452   3.022   1.797   1.244  0.3573 -0.2102 -0.3528
  864SOL     OW 3453   0.065   1.876   0.919 -0.0941  0.0093 -0.0904
  864SOL    HW1 3454   0.047   1.819   0.997  1.4494 -0.6548  0.3622
  864SOL    HW2 3455   0.040   1.834   0.840 -2.8083  0.4633 -0.5526
  864SOL     MW 3456   0.059   1.863   0.919 -0.2485 -0.0184 -0.0916
  865SOL     OW 3457   2.479   2.176   0.039  0.2195 -0.5367 -0.1776
  865SOL    HW1 3458   2.548   2.128   0.080 -0.7399  0.3019 -3.1455
  865SOL    HW2 3459   2.469   2.117  -0.034  2.6521  1.9548  1.8394
  865SOL     MW 3460   2.487   2.162   0.035  0.4139 -0.0973 -0.3030
  866SOL     OW 3461   2.732   2.350   1.573  0.0751 -0.2545  0.7858
  866SOL    HW1 3462   2.717   2.256   1.555 -0.7350  1.2703 -1.6019
  866SOL    HW2 3463   2.786   2.385   1.505  0.8233  0.5227  0.4312
  866SOL     MW 3464   2.737   2.342   1.562  0.0669  0.0492  0.4240
  867SOL     OW 3465   0.099   2.714   1.856  0.2103 -0.1854  0.0623
  867SOL    HW1 3466   0.173   2.700   1.918 -0.1206  2.3384  2.5730
  867SOL    HW2 3467   0.118   2.788   1.798 -2.0623  2.5021 -0.0647
  867SOL     MW 3468   0.112   2.722   1.857 -0.1332  0.5022  0.3768
  868SOL     OW 3469   2.786   2.557   0.580  0.2242 -0.3083 -0.2890
  868SOL    HW1 3470   2.703   2.513   0.586  2.6619 -2.0805 -1.1996
  868SOL    HW2 3471   2.776   2.639   0.533  2.5112 -1.7732  0.6520
  868SOL     MW 3472   2.774   2.562   0.575  0.8476 -0.7354 -0.2850
  869SOL     OW 3473   1.894   2.330   1.103 -0.1890  0.4164 -0.1607
  869SOL    HW1 3474   1.962   2.358   1.043 -0.5502 -2.7296 -2.5376
  869SOL    HW2 3475   1.819   2.344   1.043  2.4310  2.0122  1.9637
  869SOL     MW 3476   1.893   2.336   1.087  0.1090  0.2119 -0.1940
  870SOL     OW 3477   2.318   0.107   0.539 -0.4453 -0.5669 -0.0144
  870SOL    HW1 3478   2.351   0.134   0.451  2.3323 -1.2894 -0.0778
  870SOL    HW2 3479   2.378   0.034   0.551  0.5674 -0.6214 -0.6916
  870SOL     MW 3480   2.330   0.101   0.529  0.0548 -0.6694 -0.1121
  871SOL     OW 3481   2.462   2.136   0.801  0.2794 -0.7821  0.2983
  871SOL    HW1 3482   2.393   2.093   0.741 -0.7339 -1.3483  1.3822
  871SOL    HW2 3483   2.421   2.215   0.839 -0.6551  1.8473 -0.8720
  871SOL     MW 3484   2.447   2.141   0.798  0.0224 -0.5099  0.2869
  872SOL     OW 3485   2.021   2.597   1.442 -0.6015 -0.3139 -0.6918
  872SOL    HW1 3486   1.987   2.608   1.534 -1.3042  0.3114 -0.8965
  872SOL    HW2 3487   1.966   2.523   1.408 -1.8440 -0.7877 -0.5346
  872SOL     MW 3488   2.009   2.589   1.450 -0.8582 -0.2939 -0.6981
  873SOL     OW 3489   2.838   2.050   1.891 -0.0217  0.0011 -0.1804
  873SOL    HW1 3490   2.879   2.109   1.962  2.0770  0.4128  0.4767
  873SOL    HW2 3491   2.906   2.037   1.824 -1.1288  0.1371 -0.7332
  873SOL     MW 3492   2.852   2.056   1.891  0.1092  0.0733 -0.1666
  874SOL     OW 3493   2.447   1.521   2.275  0.1821 -0.3792  0.1002
  874SOL    HW1 3494   2.363   1.485   2.293 -1.5377 -0.8037  0.4178
  874SOL    HW2 3495   2.519   1.458   2.286  0.8159 -2.6376  0.0467
  874SOL     MW 3496   2.445   1.508   2.279  0.0388 -0.7332  0.1350
  875SOL     OW 3497   2.339   2.383   0.933 -0.0498 -0.6725 -0.2071
  875SOL    HW1 3498   2.397   2.443   0.877  0.5779  2.0815 -0.8254
  875SOL    HW2 3499   2.381   2.395   1.020 -1.6410  0.3174  1.3619
  875SOL     MW 3500   2.352   2.392   0.937 -0.1769 -0.1785 -0.0817
  876SOL     OW 3501   3.050   2.325   1.328 -0.4905  0.8808  0.7591
  876SOL    HW1 3502   3.110   2.331   1.251  0.9026  2.1111 -2.2144
  876SOL    HW2 3503   3.089   2.386   1.392 -0.9304  0.8941  0.6347
  876SOL     MW 3504   3.063   2.334   1.326 -0.3647  1.0449  0.3504
  877SOL     OW 3505   3.077   2.791   0.384 -0.5073  0.0469 -0.4248
  877SOL    HW1 3506   3.063   2.880   0.345  1.8595  2.2944  0.5625
  877SOL    HW2 3507   3.072   2.740   0.302  2.1546  1.9612 -1.2141
  877SOL     MW 3508   3.075   2.796   0.368  0.1562  0.5960 -0.3987
  878SOL     OW 3509   2.385   1.829   1.273 -0.2558  0.2940  0.4888
  878SOL    HW1 3510   2.328   1.756   1.304 -4.7233  1.2605  1.5397
  878SOL    HW2 3511   2.459   1.784   1.242 -0.8278  0.1942  0.3662
  878SOL     MW 3512   2.387   1.813   1.273 -0.9207  0.4083  0.6112
  879SOL     OW 3513   2.706   2.393   0.954  0.6464 -0.1163 -0.5384
  879SOL    HW1 3514   2.767   2.468   0.954 -1.2165 -1.8251 -0.1358
  879SOL    HW2 3515   2.750   2.330   0.897  3.0054  0.5997  0.7442
  879SOL     MW 3516   2.720   2.395   0.946  0.7119 -0.2473 -0.3160
  880SOL     OW 3517   2.661   2.000   0.638 -0.9137 -0.2280  0.4780
  880SOL    HW1 3518   2.604   2.043   0.699 -1.8707 -0.5375  0.1321
  880SOL    HW2 3519   2.600   1.956   0.574  1.1082  0.8701 -1.9248
  880SOL     MW 3520   2.645   2.000   0.638 -0.7732 -0.1240  0.1153
  881SOL     OW 3521   2.927   2.715   0.736  0.4054 -0.2664  0.0125
  881SOL    HW1 3522   2.873   2.642   0.695 -1.3781 -3.0622 -0.9231
  881SOL    HW2 3523   3.017   2.697   0.702 -0.8452 -2.0439 -0.4151
  881SOL     MW 3524   2.932   2.703   0.726  0.0051 -0.8698 -0.1673
  882SOL     OW 3525   2.275   2.827   1.868 -0.2337  0.0583 -0.1598
  882SOL    HW1 3526   2.247   2.839   1.777 -1.1060  1.4295  0.0454
  882SOL    HW2 3527   2.233   2.752   1.904 -0.7185  0.0509 -0.6931
  882SOL     MW 3528   2.266   2.819   1.860 -0.4127  0.2383 -0.2031
  883SOL     OW 3529   2.287   2.219   1.367  0.4788  0.0534 -0.2145
  883SOL    HW1 3530   2.373   2.176   1.354 -0.1553  3.0283  0.0479
  883SOL    HW2 3531   2.229   2.179   1.305  0.1298  0.3271 -2.5251
  883SOL     MW 3532   2.291   2.208   1.357  0.3491  0.4820 -0.4848
  884SOL     OW 3533   1.939   1.799   1.092 -0.6889  0.4696  0.0068
  884SOL    HW1 3534   1.901   1.879   1.053 -0.6865 -2.9551  1.0334
  884SOL    HW2 3535   2.033   1.817   1.079 -0.4291 -2.2348 -0.8617
  884SOL     MW 3536   1.946   1.812   1.085 -0.6543 -0.3391  0.0276
  885SOL     OW 3537   2.826   2.416   1.811 -0.6325  0.5765  0.5376
  885SOL    HW1 3538   2.913   2.363   1.814 -2.3841  0.5453  0.4577
  885SOL    HW2 3539   2.777   2.380   1.735  0.7853  0.9917  1.9308
  885SOL     MW 3540   2.831   2.404   1.801 -0.6766  0.6272  0.7109
  886SOL     OW 3541   2.846   2.536   1.332  0.0072 -0.7690 -0.1708
  886SOL    HW1 3542   2.929   2.507   1.297  0.1148  2.5474 -2.5022
  886SOL    HW2 3543   2.867   2.614   1.381  0.1117 -1.8386 -1.2463
  886SOL     MW 3544   2.860   2.542   1.334  0.0352 -0.4726 -0.6203
  887SOL     OW 3545   2.293   2.619   1.453 -0.1186 -0.0219  0.1142
  887SOL    HW1 3546   2.318   2.641   1.366 -0.1902  0.9918  2.2780
  887SOL    HW2 3547   2.195   2.613   1.459 -0.4577 -2.0512 -2.6212
  887SOL     MW 3548   2.283   2.621   1.442 -0.1728 -0.1559  0.0388
  888SOL     OW 3549   1.835   2.047   1.350 -0.1416  0.2443  0.1298
  888SOL    HW1 3550   1.921   2.062   1.303 -1.4020 -0.2535 -0.1392
  888SOL    HW2 3551   1.830   2.125   1.412 -0.5173  0.5694  0.8914
  888SOL     MW 3552   1.846   2.059   1.352 -0.3575  0.2215  0.1948
  889SOL     OW 3553   2.284   2.083   2.098  0.4868 -0.1828  0.1098
  889SOL    HW1 3554   2.376   2.075   2.126 -0.3097  1.7932 -0.0723
  889SOL    HW2 3555   2.297   2.136   2.019 -0.9184  1.8890  0.3141
  889SOL     MW 3556   2.298   2.089   2.091  0.1963  0.3512  0.1127
  890SOL     OW 3557   0.099   2.311   0.073 -0.2115 -0.1287 -0.0341
  890SOL    HW1 3558   0.039   2.381   0.050  2.0996 -0.2273  0.0291
  890SOL    HW2 3559   0.099   2.292   0.167  0.3932 -0.2439  0.9889
  890SOL     MW 3560   0.091   2.317   0.083  0.1732 -0.1569  0.1092
  891SOL     OW 3561   3.039   2.062   1.345  0.2499  0.1454 -0.4581
  891SOL    HW1 3562   3.130   2.062   1.373 -1.9078  0.7152  1.3481
  891SOL    HW2 3563   3.010   2.161   1.344 -1.4884  0.5721  1.3808
  891SOL     MW 3564   3.047   2.075   1.349 -0.2641  0.2769  0.0228
  892SOL     OW 3565   2.341   2.364   2.942 -0.0134  0.0809  0.2503
  892SOL    HW1 3566   2.358   2.282   2.991  0.7410 -0.5516  1.4261
  892SOL    HW2 3567   2.426   2.385   2.907 -0.7193 -0.5348 -0.2190
  892SOL     MW 3568   2.354   2.356   2.944 -0.0070 -0.0838  0.3435
  893SOL     OW 3569   1.603   2.503   1.256 -0.2667  0.3660 -0.4963
  893SOL    HW1 3570   1.528   2.487   1.312 -1.3102 -1.0353  2.8414
  893SOL    HW2 3571   1.681   2.476   1.302  0.6336 -1.0323 -1.0410
  893SOL     MW 3572   1.604   2.498   1.269 -0.2856 -0.0034 -0.1278
  894SOL     OW 3573   2.900   1.856   0.535  0.0807  0.5613 -0.8204
  894SOL    HW1 3574   2.823   1.894   0.589 -3.2330  1.3070  4.4733
  894SOL    HW2 3575   2.869   1.797   0.472  1.9668  2.0440  3.1945
  894SOL     MW 3576   2.886   1.853   0.534 -0.1077  0.8553  0.4078
  895SOL     OW 3577   2.045   2.120   1.217 -0.0543 -0.2002 -0.3432
  895SOL    HW1 3578   1.997   2.186   1.165  2.4918 -0.4610 -0.1782
  895SOL    HW2 3579   2.073   2.051   1.155 -1.7365 -0.0566 -0.6579
  895SOL     MW 3580   2.042   2.120   1.202  0.0597 -0.2156 -0.3629
  896SOL     OW 3581   2.201   2.803   1.011  0.1638  0.1204 -0.1067
  896SOL    HW1 3582   2.260   2.773   1.080 -1.2631 -0.4978 -0.7734
  896SOL    HW2 3583   2.118   2.757   1.038 -2.6748  0.2327  3.1463
  896SOL     MW 3584   2.198   2.793   1.023 -0.3990  0.0537  0.2345
  897SOL     OW 3585   2.991   2.956   0.181 -0.1342  0.0686 -0.2394
  897SOL    HW1 3586   3.075   2.926   0.151 -0.0793  1.1229 -2.9625
  897SOL    HW2 3587   2.917   2.900   0.140  1.7158 -2.0024 -0.8116
  897SOL     MW 3588   2.992   2.944   0.171  0.1171 -0.0656 -0.6742
  898SOL     OW 3589   2.083   0.151   1.396 -0.3485 -0.1547  0.0081
  898SOL    HW1 3590   2.019   0.106   1.341 -2.7385  2.1708 -0.4116
  898SOL    HW2 3591   2.135   0.206   1.335 -0.2658 -0.1117 -1.6860
  898SOL     MW 3592   2.082   0.153   1.381 -0.6530  0.1578 -0.2708
  899SOL     OW 3593   2.891   2.958   0.596  0.8584  0.2639  0.4531
  899SOL    HW1 3594   2.894   2.877   0.650 -2.1385 -0.7107 -1.7402
  899SOL    HW2 3595   2.804   2.999   0.605  1.1113  1.3628  0.6005
  899SOL     MW 3596   2.880   2.953   0.605  0.4963  0.2803  0.1831
  900SOL     OW 3597   0.127   2.398   1.140  0.6056 -0.6901 -0.3785
  900SOL    HW1 3598   0.130   2.487   1.103 -0.1371 -0.3541 -1.3564
  900SOL    HW2 3599   0.130   2.344   1.059  1.3502  0.9269 -0.5910
  900SOL     MW 3600   0.128   2.402   1.124  0.6059 -0.4324 -0.5355
  901SOL     OW 3601   1.731   2.831   1.793 -0.0572  0.1838  0.2303
  901SOL    HW1 3602   1.791   2.759   1.761  0.3028 -0.8173 -0.5586
  901SOL    HW2 3603   1.684   2.876   1.716 -0.1369 -0.1500  0.0966
  901SOL     MW 3604   1.733   2.828   1.778 -0.0202  0.0077  0.1086
  902SOL     OW 3605   2.572   2.071   1.816 -0.3164 -0.7711 -0.3710
  902SOL    HW1 3606   2.539   1.979   1.841  0.9950 -1.4142  3.1197
  902SOL    HW2 3607   2.661   2.082   1.849 -1.0503 -0.7007  0.1030
  902SOL     MW 3608   2.579   2.061   1.824 -0.2402 -0.8467  0.1521
  903SOL     OW 3609   1.656   2.788   0.528 -0.3800  0.0510  0.0037
  903SOL    HW1 3610   1.695   2.701   0.556 -0.0958  4.5721 -0.5006
  903SOL    HW2 3611   1.617   2.820   0.611 -1.0772 -1.0841  0.8117
  903SOL     MW 3612   1.656   2.780   0.543 -0.4345  0.4977  0.0438
  904SOL     OW 3613   2.506   2.532   1.633 -0.0254 -0.2859  0.0962
  904SOL    HW1 3614   2.438   2.530   1.562 -3.6640  1.6351 -0.0947
  904SOL    HW2 3615   2.585   2.478   1.607  0.7878 -0.7668  0.9686
  904SOL     MW 3616   2.508   2.524   1.620 -0.3982 -0.0959  0.1861
  905SOL     OW 3617   2.375   2.572   2.118 -0.4180  0.1412 -0.0543
  905SOL    HW1 3618   2.405   2.507   2.055  1.2445  1.2755  0.1674
  905SOL    HW2 3619   2.321   2.513   2.178  2.0711 -1.9996  1.5430
  905SOL     MW 3620   2.372   2.555   2.118  0.1298  0.0084  0.1857
  906SOL     OW 3621   2.517   2.522   0.802 -0.2598  0.3026  0.7054
  906SOL    HW1 3622   2.579   2.505   0.874  0.9119  1.9808 -0.8883
  906SOL    HW2 3623   2.489   2.619   0.806 -0.5241  2.5420 -0.9292
  906SOL     MW 3624   2.522   2.533   0.812 -0.1401  0.8195  0.2795
  907SOL     OW 3625   2.563   2.862   1.280  0.0509 -0.5427  0.1984
  907SOL    HW1 3626   2.624   2.909   1.340  0.8764 -0.7038 -0.7965
  907SOL    HW2 3627   2.616   2.867   1.202 -0.8296 -0.6516  0.5953
  907SOL     MW 3628   2.578   2.869   1.277  0.0436 -0.5783  0.1195
  908SOL     OW 3629   2.670   2.360   0.013  0.1270  0.1771 -0.0506
  908SOL    HW1 3630   2.591   2.320   0.037 -0.4317 -0.0673 -0.2104
  908SOL    HW2 3631   2.679   2.444   0.065  0.9886  3.6963  0.7609
  908SOL     MW 3632   2.661   2.366   0.023  0.1669  0.6092  0.0354
  909SOL     OW 3633   1.714   0.207   1.030 -0.7421  0.6741 -0.1777
  909SOL    HW1 3634   1.712   0.300   0.997  2.3101  0.1641 -0.4338
  909SOL    HW2 3635   1.724   0.223   1.124 -1.9127  0.4123  0.2627
  909SOL     MW 3636   1.715   0.221   1.038 -0.4938  0.5722 -0.1534
  910SOL     OW 3637   2.271   1.695   0.410 -0.6000  0.2275 -0.0844
  910SOL    HW1 3638   2.188   1.648   0.437 -0.8024  0.1146 -0.7808
  910SOL    HW2 3639   2.255   1.726   0.320  1.2487 -2.3477 -1.7830
  910SOL     MW 3640   2.258   1.693   0.402 -0.3828 -0.1272 -0.4004
  911SOL     OW 3641   2.154   2.185   1.602  0.3313  0.4871 -0.0241
  911SOL    HW1 3642   2.211   2.190   1.678 -0.7907 -0.7893  1.1112
  911SOL    HW2 3643   2.210   2.200   1.528 -1.9402 -1.0191 -0.1085
  911SOL     MW 3644   2.169   2.188   1.602 -0.1164  0.1200  0.1145
  912SOL     OW 3645   2.872   1.909   1.486 -0.0626  0.0848  0.0050
  912SOL    HW1 3646   2.931   1.968   1.436  1.5387 -0.1135 -1.3322
  912SOL    HW2 3647   2.792   1.961   1.519 -1.8401 -1.8388  0.1374
  912SOL     MW 3648   2.869   1.923   1.483 -0.0859 -0.1952 -0.1539
  913SOL     OW 3649   2.556   2.947   0.366  0.4232  0.2727  0.2585
  913SOL    HW1 3650   2.618   2.877   0.378 -1.4048 -0.8987  0.3778
  913SOL    HW2 3651   2.471   2.908   0.390  1.3429  1.0157  1.6122
  913SOL     MW 3652   2.553   2.933   0.370  0.3034  0.2162  0.4529
  914SOL     OW 3653   2.785   1.627   0.034  0.3498  0.3662 -0.3545
  914SOL    HW1 3654   2.773   1.685  -0.034 -0.2167 -0.2900  1.5195
  914SOL    HW2 3655   2.699   1.602   0.058  1.2041 -0.7570 -0.8232
  914SOL     MW 3656   2.772   1.631   0.029  0.3878  0.1314 -0.1691
  915SOL     OW 3657   1.871   0.171   0.217  0.1337  0.1526  0.3031
  915SOL    HW1 3658   1.896   0.089   0.256  0.0248 -0.4950 -1.0914
  915SOL    HW2 3659   1.776   0.176   0.242 -0.2778  0.8217 -0.5942
  915SOL     MW 3660   1.862   0.161   0.225  0.0651  0.1554  0.0007
  916SOL     OW 3661   1.821   2.124   1.951 -0.5536  0.0259 -0.0418
  916SOL    HW1 3662   1.818   2.222   1.935  0.3531  3.1386  1.3647
  916SOL    HW2 3663   1.820   2.084   1.866 -2.1243 -0.4585 -0.1842
  916SOL     MW 3664   1.821   2.132   1.938 -0.6412  0.3727  0.1250
  917SOL     OW 3665   2.257   2.338   2.675  0.7479 -0.0730 -0.3561
  917SOL    HW1 3666   2.276   2.310   2.768 -3.2290  1.8019  1.2099
  917SOL    HW2 3667   2.281   2.433   2.666  1.3051  0.5454  2.5742
  917SOL     MW 3668   2.262   2.347   2.686  0.2967  0.2559  0.2372
  918SOL     OW 3669   2.004   1.654   2.615  0.8256 -0.0504  0.5941
  918SOL    HW1 3670   1.917   1.678   2.577  0.3924  0.2303 -2.0104
  918SOL    HW2 3671   2.065   1.718   2.580 -0.7618 -1.2474 -0.2115
  918SOL     MW 3672   2.001   1.666   2.605  0.5590 -0.1713  0.1442
  919SOL     OW 3673   3.027   2.388   2.275  0.1221 -0.1666 -0.1906
  919SOL    HW1 3674   2.957   2.326   2.272  3.3330  3.8909  1.4559
  919SOL    HW2 3675   3.085   2.372   2.188 -0.3724  0.0130  0.4785
  919SOL     MW 3676   3.025   2.377   2.263  0.4805  0.3925  0.1149
  920SOL     OW 3677   2.769   2.826   0.026  0.0208  0.2941 -0.4612
  920SOL    HW1 3678   2.701   2.895   0.027 -0.9329  1.0247 -0.4002
  920SOL    HW2 3679   2.757   2.770  -0.053  0.3574  0.5848 -1.6227
  920SOL     MW 3680   2.758   2.828   0.016 -0.0606  0.4289 -0.6064
  921SOL     OW 3681   2.543   2.671   2.688 -0.5223  0.4163 -0.0650
  921SOL    HW1 3682   2.607   2.650   2.621  0.3921 -3.9616  3.2535
  921SOL    HW2 3683   2.536   2.593   2.743 -1.0516 -2.9079  1.7226
  921SOL     MW 3684   2.551   2.658   2.686 -0.4715 -0.6000  0.6087
  922SOL     OW 3685   2.006   2.869   0.301  0.1136  0.3286 -0.3395
  922SOL    HW1 3686   2.001   2.894   0.212  2.3434  0.1909  1.2748
  922SOL    HW2 3687   1.962   2.786   0.303 -1.9772 -0.1046 -2.9386
  922SOL     MW 3688   1.999   2.862   0.290  0.1320  0.2533 -0.4694
  923SOL     OW 3689   2.174   2.818   1.600  0.2329 -0.0455  0.1517
  923SOL    HW1 3690   2.220   2.790   1.522 -1.1379  2.4119  1.0996
  923SOL    HW2 3691   2.182   2.918   1.605 -1.8031  1.5897  1.3131
  923SOL     MW 3692   2.181   2.827   1.590 -0.2166  0.4945  0.4300
  924SOL     OW 3693   1.163   2.742   2.458  0.1659 -0.0982  0.0197
  924SOL    HW1 3694   1.211   2.796   2.398 -1.6004 -0.6346  0.1482
  924SOL    HW2 3695   1.226   2.718   2.526  0.4222 -0.7070 -0.6181
  924SOL     MW 3696   1.178   2.746   2.459 -0.0333 -0.2493 -0.0475
  925SOL     OW 3697   3.022   0.269   2.700 -0.7103 -0.1139  0.4724
  925SOL    HW1 3698   3.050   0.307   2.621  0.5637 -1.7748  3.7431
  925SOL    HW2 3699   2.989   0.350   2.742 -0.6591  0.2291 -1.1594
  925SOL     MW 3700   3.021   0.284   2.695 -0.5354 -0.2878  0.6887
  926SOL     OW 3701   2.674   2.398   2.022 -0.2392 -0.2863  0.2780
  926SOL    HW1 3702   2.712   2.465   2.080  1.4917 -0.1570  1.0135
  926SOL    HW2 3703   2.735   2.415   1.942 -3.1451 -0.5034 -0.8004
  926SOL     MW 3704   2.688   2.409   2.019 -0.3942 -0.2978  0.2328
  927SOL     OW 3705   2.409   0.157   0.281  0.4590  0.0229 -0.1843
  927SOL    HW1 3706   2.489   0.183   0.231  2.0431 -0.5989  1.4117
  927SOL    HW2 3707   2.350   0.131   0.203  1.3316  1.6013  2.8965
  927SOL     MW 3708   2.412   0.157   0.264  0.7831  0.1491  0.4327
  928SOL     OW 3709   2.042   2.455   1.838 -0.2887  0.9277 -0.2791
  928SOL    HW1 3710   2.123   2.403   1.829  1.6413 -2.7589 -2.2470
  928SOL    HW2 3711   2.068   2.517   1.911  0.0681  0.4160  2.4588
  928SOL     MW 3712   2.056   2.456   1.847  0.0130  0.3738 -0.1775
  929SOL     OW 3713   2.727   2.322   2.473 -0.0144  0.2855 -0.4993
  929SOL    HW1 3714   2.654   2.265   2.463  2.8845 -1.1152  0.2619
  929SOL    HW2 3715   2.764   2.291   2.552 -1.3040  3.3735 -2.1536
  929SOL     MW 3716   2.722   2.310   2.482  0.1979  0.5081 -0.6172
  930SOL     OW 3717   2.010   2.877   2.678 -0.2349 -0.2661 -0.6997
  930SOL    HW1 3718   1.997   2.815   2.748  0.7875  0.1001 -2.6240
  930SOL    HW2 3719   2.088   2.937   2.693  0.6022  1.0852  1.9546
  930SOL     MW 3720   2.019   2.876   2.689  0.0104 -0.0395 -0.6034
  931SOL     OW 3721   2.938   2.826   2.150 -0.6078  0.2875  0.5911
  931SOL    HW1 3722   3.031   2.796   2.144  0.4023 -1.0154  1.7299
  931SOL    HW2 3723   2.922   2.873   2.069  1.2190  1.6359 -1.2595
  931SOL     MW 3724   2.948   2.828   2.139 -0.2335  0.2935  0.4972
  932SOL     OW 3725   2.805   1.915   2.550 -0.3680  0.0276 -0.3173
  932SOL    HW1 3726   2.886   1.961   2.578  0.6389 -2.0821  1.3106
  932SOL    HW2 3727   2.787   1.932   2.457  1.3136 -1.0336  0.7648
  932SOL     MW 3728   2.813   1.923   2.542 -0.0133 -0.3908  0.0402
  933SOL     OW 3729   2.089   2.800   2.269 -0.1544 -0.2175 -0.0484
  933SOL    HW1 3730   2.176   2.836   2.296 -1.9741 -0.2833 -1.1125
  933SOL    HW2 3731   2.048   2.875   2.229 -1.9082 -1.7784  1.8399
  933SOL     MW 3732   2.095   2.815   2.268 -0.6259 -0.4321  0.0604
  934SOL     OW 3733   2.047   2.667   2.502 -1.0457 -0.2142 -0.2916
  934SOL    HW1 3734   2.038   2.755   2.542 -2.1498  1.2163 -1.6859
  934SOL    HW2 3735   2.053   2.683   2.403 -2.1919  1.4684 -3.7028
  934SOL     MW 3736   2.047   2.681   2.494 -1.3426  0.1965 -0.9257
  935SOL     OW 3737   2.637   1.585   1.823 -0.4236 -0.0206  0.1979
  935SOL    HW1 3738   2.713   1.571   1.768  1.0740 -1.9340 -0.0958
  935SOL    HW2 3739   2.571   1.601   1.754 -2.1516  2.1390 -1.4624
  935SOL     MW 3740   2.639   1.586   1.806 -0.4540  0.0119 -0.0599
  936SOL     OW 3741   2.914   2.208   0.002  0.8078  0.6250 -0.0870
  936SOL    HW1 3742   2.980   2.274   0.012  1.8237  1.1146 -0.1208
  936SOL    HW2 3743   2.825   2.238   0.025  1.5694 -2.7576  0.6176
  936SOL     MW 3744   2.911   2.220   0.007  1.0423  0.2433  0.0015
  937SOL     OW 3745   1.975   2.257   2.623 -0.0839  0.1712 -0.2713
  937SOL    HW1 3746   2.068   2.256   2.646  2.0327 -0.8154  1.5986
  937SOL    HW2 3747   1.963   2.263   2.529 -1.1819  1.0696  0.8116
  937SOL     MW 3748   1.985   2.258   2.614  0.0505  0.1596  0.1183
  938SOL     OW 3749   2.257   1.841   1.969 -0.1254  0.1779 -0.6649
  938SOL    HW1 3750   2.228   1.882   1.890 -0.5527 -1.1011  1.8311
  938SOL    HW2 3751   2.288   1.921   2.019 -1.6413  0.3690 -2.6602
  938SOL     MW 3752   2.258   1.857   1.965 -0.3818  0.0343 -0.5989
  939SOL     OW 3753   2.784   2.028   2.253  0.5090 -0.8775  0.0183
  939SOL    HW1 3754   2.797   1.952   2.199 -0.1088  0.8533 -1.1580
  939SOL    HW2 3755   2.687   2.037   2.259 -2.2994 -1.8154  0.2162
  939SOL     MW 3756   2.773   2.019   2.246  0.0570 -0.7729 -0.1108
  940SOL     OW 3757   2.291   0.178   2.659 -0.4359  0.0751  0.1307
  940SOL    HW1 3758   2.284   0.081   2.636  0.8567  2.6946  0.4450
  940SOL    HW2 3759   2.329   0.180   2.751  0.3531  0.5026  1.3217
  940SOL     MW 3760   2.295   0.165   2.668 -0.1613  0.4771  0.3293
  941SOL     OW 3761   0.085   2.350   2.044  0.2014 -0.0478 -0.7212
  941SOL    HW1 3762   0.156   2.296   2.033 -0.4088  2.9764  1.1774
  941SOL    HW2 3763   0.015   2.310   1.991  2.3184  0.3458 -0.1366
  941SOL     MW 3764   0.085   2.337   2.036  0.4002  0.4031 -0.3936
  942SOL     OW 3765   2.877   2.221   2.093 -0.1172  0.7109  0.4035
  942SOL    HW1 3766   2.803   2.276   2.078 -2.2735 -0.7349 -0.5387
  942SOL    HW2 3767   2.843   2.145   2.144  0.5162 -0.0761 -1.0652
  942SOL     MW 3768   2.863   2.218   2.098 -0.3181  0.4163  0.0854
  943SOL     OW 3769   0.217   2.017   2.320  0.4530 -0.2630 -0.4653
  943SOL    HW1 3770   0.159   2.066   2.382 -1.5020  0.4655  1.1234
  943SOL    HW2 3771   0.299   2.006   2.367 -0.2837  3.6841 -0.2869
  943SOL     MW 3772   0.220   2.022   2.334  0.0979  0.3539 -0.2322
  944SOL     OW 3773   2.141   2.658   2.040 -0.6094  0.1477 -0.1081
  944SOL    HW1 3774   2.232   2.622   2.062 -0.0411  0.8783  1.8582
  944SOL    HW2 3775   2.121   2.706   2.121  1.3638 -1.3798 -0.2456
  944SOL     MW 3776   2.150   2.659   2.054 -0.2740  0.0425  0.1332
  945SOL     OW 3777   2.772   2.631   2.930 -0.0150 -0.0728 -0.3291
  945SOL    HW1 3778   2.726   2.565   2.884  0.6093  1.8434  0.0022
  945SOL    HW2 3779   2.825   2.666   2.856  0.0320 -0.3087  3.7260
  945SOL     MW 3780   2.773   2.627   2.914  0.0736  0.1489  0.2496
  946SOL     OW 3781   2.539   2.704   2.290 -0.4072  0.1412 -0.2253
  946SOL    HW1 3782   2.580   2.749   2.213  0.7150  0.5249  2.8706
  946SOL    HW2 3783   2.482   2.642   2.244  2.1682  0.7362  1.3126
  946SOL     MW 3784   2.537   2.702   2.274  0.0807  0.2703  0.3860
  947SOL     OW 3785   2.063   0.046   0.414  0.1489  0.1964 -0.3303
  947SOL    HW1 3786   2.070  -0.033   0.367 -1.7627  2.8944  0.6968
  947SOL    HW2 3787   2.139   0.058   0.462 -3.0525  1.4161 -0.7610
  947SOL     MW 3788   2.074   0.037   0.414 -0.5257  0.7133 -0.2516
  948SOL     OW 3789   1.819   3.101   2.648 -0.1562  0.2158 -0.2584
  948SOL    HW1 3790   1.855   3.015   2.647  0.1307 -1.2082 -0.5197
  948SOL    HW2 3791   1.827   3.146   2.566 -0.6395  1.0926  0.4789
  948SOL     MW 3792   1.825   3.095   2.637 -0.1821  0.1436 -0.1956
  949SOL     OW 3793   2.513   2.057   2.276  0.2885  0.4667 -0.0658
  949SOL    HW1 3794   2.509   1.976   2.325  1.5872 -1.8279  1.5033
  949SOL    HW2 3795   2.466   2.126   2.323  3.5613  0.9214  1.0969
  949SOL     MW 3796   2.506   2.056   2.289  0.8916  0.2240  0.2946
  950SOL     OW 3797   2.250   2.607   3.045 -0.0194  0.2353  0.5912
  950SOL    HW1 3798   2.291   2.525   3.013  0.7117  0.8341  1.7538
  950SOL    HW2 3799   2.183   2.646   2.979 -1.1191  0.0365 -0.3390
  950SOL     MW 3800   2.246   2.601   3.032 -0.0680  0.2881  0.6219
  951SOL     OW 3801   2.862   2.055   2.884 -0.0665  0.1604 -0.0537
  951SOL    HW1 3802   2.882   2.105   2.965 -0.4684 -1.4117 -2.8882
  951SOL    HW2 3803   2.943   2.045   2.827 -0.2380 -0.2265  0.2028
  951SOL     MW 3804   2.875   2.061   2.887 -0.1421 -0.0981 -0.3939
  952SOL     OW 3805   3.037   1.660   2.053  0.3593 -0.6425 -0.1634
  952SOL    HW1 3806   2.955   1.712   2.071 -0.0973 -0.3592  2.0234
  952SOL    HW2 3807   3.104   1.717   2.097 -1.0332 -0.4463  0.0147
  952SOL     MW 3808   3.035   1.674   2.061  0.1153 -0.5792  0.1486
  953SOL     OW 3809   1.926   1.847   2.830  0.0400  0.1199  0.1232
  953SOL    HW1 3810   1.836   1.819   2.859  0.8873  1.1675  2.0113
  953SOL    HW2 3811   1.964   1.779   2.778  2.1636  0.4044 -1.0858
  953SOL     MW 3812   1.919   1.834   2.827  0.4320  0.2957  0.2128
  954SOL     OW 3813   2.425   2.025   2.919  0.2784 -0.0610  0.6393
  954SOL    HW1 3814   2.340   2.031   2.867  0.1947  2.2968  3.1957
  954SOL    HW2 3815   2.496   1.997   2.851 -0.0775 -0.6120  0.0418
  954SOL     MW 3816   2.423   2.022   2.903  0.2204  0.1774  0.8978
  955SOL     OW 3817   1.573   1.628   2.590 -0.2073  0.5833  0.1793
  955SOL    HW1 3818   1.528   1.624   2.505 -0.1506  1.7034 -0.1874
  955SOL    HW2 3819   1.641   1.695   2.578 -1.2340 -0.4173  2.4386
  955SOL     MW 3820   1.576   1.636   2.578 -0.3353  0.5991  0.4291
  956SOL     OW 3821   2.592   2.392   2.853 -0.1230  0.2645  0.0437
  956SOL    HW1 3822   2.633   2.364   2.935  1.7899 -0.9720  2.7769
  956SOL    HW2 3823   2.651   2.361   2.782 -0.6151 -0.5366 -0.0568
  956SOL     MW 3824   2.606   2.384   2.854  0.0645 -0.0044  0.3911
  957SOL     OW 3825   2.286   2.836   0.388 -0.7690  0.0945  0.1178
  957SOL    HW1 3826   2.219   2.853   0.318  1.7020 -0.0134  0.5398
  957SOL    HW2 3827   2.245   2.782   0.460 -1.1434 -1.1053 -0.8331
  957SOL     MW 3828   2.272   2.831   0.388 -0.4924 -0.0780  0.0480
  958SOL     OW 3829   2.039   2.688   2.896  0.0641  0.2149 -0.5406
  958SOL    HW1 3830   1.993   2.617   2.851 -0.3916 -0.3236 -0.3910
  958SOL    HW2 3831   1.982   2.731   2.962 -0.0096 -0.3241  0.0700
  958SOL     MW 3832   2.025   2.684   2.899 -0.0057  0.0728 -0.4403
  959SOL     OW 3833   2.450   2.589   0.359 -0.6673  0.0519  0.2840
  959SOL    HW1 3834   2.523   2.588   0.296  0.4633  0.9426 -0.2095
  959SOL    HW2 3835   2.405   2.678   0.352  1.4867  0.7251 -1.0599
  959SOL     MW 3836   2.453   2.601   0.350 -0.2339  0.2582  0.0416
  960SOL     OW 3837   1.966   2.471   2.280  0.1867  0.0739 -0.0395
  960SOL    HW1 3838   1.967   2.378   2.276 -0.2558  2.0833  0.2892
  960SOL    HW2 3839   1.911   2.489   2.354  2.0046 -1.2280 -1.2555
  960SOL     MW 3840   1.959   2.461   2.290  0.3682  0.1672 -0.1566
  961SOL     OW 3841   2.248   2.456   2.324 -0.3532  0.1315  0.2739
  961SOL    HW1 3842   2.155   2.473   2.302 -2.2363 -0.4860 -0.5002
  961SOL    HW2 3843   2.254   2.510   2.404  0.8586  0.2261 -0.5776
  961SOL     MW 3844   2.236   2.465   2.332 -0.4418  0.0625  0.0594
  962SOL     OW 3845   2.199   2.052   2.764 -0.2677  0.4968  0.1654
  962SOL    HW1 3846   2.159   1.992   2.829 -0.5526 -1.7574  0.2921
  962SOL    HW2 3847   2.210   1.999   2.685  1.7995 -2.0160 -0.7659
  962SOL     MW 3848   2.196   2.037   2.762 -0.0326 -0.1321  0.0593
  963SOL     OW 3849   1.742   2.520   2.151  0.0563  0.6437 -0.5569
  963SOL    HW1 3850   1.823   2.508   2.198  2.9084 -2.2849  1.3187
  963SOL    HW2 3851   1.761   2.461   2.074  0.3616  1.1437 -4.6746
  963SOL     MW 3852   1.755   2.511   2.147  0.4729  0.3233 -0.8527
  964SOL     OW 3853   1.817   2.011   2.616 -0.4199 -0.0714 -0.0653
  964SOL    HW1 3854   1.872   2.090   2.603  2.5424 -1.8355  1.3040
  964SOL    HW2 3855   1.870   1.956   2.675 -3.1680  0.6726 -3.2219
  964SOL     MW 3856   1.831   2.014   2.622 -0.3916 -0.2060 -0.3011
  965SOL     OW 3857   2.236   2.684   0.611 -0.4853 -0.2024  0.0102
  965SOL    HW1 3858   2.243   2.587   0.596 -1.2781 -2.5337 -0.2038
  965SOL    HW2 3859   2.317   2.714   0.649 -2.4746 -1.0708 -0.9003
  965SOL     MW 3860   2.247   2.675   0.614 -0.8524 -0.6246 -0.1382
  966SOL     OW 3861   2.731   2.597   2.519  0.5158 -0.0211  0.5258
  966SOL    HW1 3862   2.698   2.632   2.437 -1.8864  1.5607  3.4917
  966SOL    HW2 3863   2.742   2.504   2.510  0.5184  0.6208 -0.5221
  966SOL     MW 3864   2.728   2.589   2.507  0.1992  0.2723  0.7789
  967SOL     OW 3865   2.838   3.051   2.953  1.0464 -0.4931 -0.1437
  967SOL    HW1 3866   2.809   2.975   3.005 -1.3647 -2.1362 -2.6293
  967SOL    HW2 3867   2.766   3.110   2.933  3.5134 -0.7121 -1.7031
  967SOL     MW 3868   2.824   3.049   2.957  1.0538 -0.7388 -0.6774
  968SOL     OW 3869   3.028   2.508   3.036 -0.0470  0.6523 -0.1869
  968SOL    HW1 3870   2.941   2.541   3.016 -3.1697 -0.8697 -0.5653
  968SOL    HW2 3871   3.072   2.495   2.946  0.7015  2.5426  0.8626
  968SOL     MW 3872   3.022   2.511   3.022 -0.3603  0.7009 -0.0984
  969SOL     OW 3873   1.547   2.132   1.719  0.4386  0.0655  0.4071
  969SOL    HW1 3874   1.628   2.076   1.701  3.5730 -0.0717 -0.5044
  969SOL    HW2 3875   1.528   2.125   1.812 -2.7203  0.8274  0.9079
  969SOL     MW 3876   1.555   2.123   1.729  0.4354  0.1479  0.3529
  970SOL     OW 3877   1.694   1.688   1.821  0.2038  0.4147  0.1226
  970SOL    HW1 3878   1.758   1.663   1.887  0.9691  0.6931 -0.7457
  970SOL    HW2 3879   1.620   1.719   1.870 -0.4627 -0.3147 -2.0926
  970SOL     MW 3880   1.693   1.688   1.836  0.2168  0.3552 -0.2842
  971SOL     OW 3881   1.873   0.086   2.376 -0.6333  0.0291  0.6118
  971SOL    HW1 3882   1.903   0.012   2.316  3.2006 -1.1848 -1.3672
  971SOL    HW2 3883   1.947   0.145   2.390  0.8439  2.7327 -0.1405
  971SOL     MW 3884   1.887   0.084   2.370  0.0675  0.2256  0.2514
  972SOL     OW 3885   0.236   2.774   2.535  0.0698 -0.4851 -0.2338
  972SOL    HW1 3886   0.285   2.694   2.556  0.2661  3.2703 -1.1456
  972SOL    HW2 3887   0.313   2.831   2.539 -0.4634  2.2437 -1.7429
  972SOL     MW 3888   0.253   2.771   2.538  0.0254  0.3704 -0.5532
  973SOL     OW 3889   2.613   3.089   2.070 -0.6007  0.6583 -0.0126
  973SOL    HW1 3890   2.603   2.997   2.062 -0.5761  1.6847 -1.1184
  973SOL    HW2 3891   2.613   3.135   1.983  0.0991 -2.2755 -1.5512
  973SOL     MW 3892   2.612   3.083   2.058 -0.5052  0.4066 -0.3615
  974SOL     OW 3893   2.040   0.314   2.710  0.4277 -0.2244  0.3122
  974SOL    HW1 3894   2.097   0.242   2.729 -0.0100  0.5499  0.3666
  974SOL    HW2 3895   1.967   0.314   2.768  0.2505 -0.0431  1.8815
  974SOL     MW 3896   2.038   0.305   2.720  0.3466 -0.0983  0.5264
  975SOL     OW 3897   2.317   2.583   2.571  0.3948 -0.2583 -0.1258
  975SOL    HW1 3898   2.396   2.634   2.596 -1.0003 -2.1009  1.4228
  975SOL    HW2 3899   2.248   2.650   2.572 -0.4240 -1.6638 -1.4598
  975SOL     MW 3900   2.318   2.599   2.574  0.1027 -0.6868 -0.0975
  976SOL     OW 3901   0.271   0.257   1.683 -0.3746 -0.0408 -0.1855
  976SOL    HW1 3902   0.315   0.218   1.763 -0.2262 -0.5875  1.8003
  976SOL    HW2 3903   0.181   0.221   1.687 -1.2119 -0.9135 -0.7214
  976SOL     MW 3904   0.265   0.247   1.694 -0.4655 -0.2281  0.0058
  977SOL     OW 3905   1.687   2.788   2.497 -0.7470 -0.3554  0.2147
  977SOL    HW1 3906   1.707   2.692   2.494 -0.0129  2.5864  0.6312
  977SOL    HW2 3907   1.748   2.841   2.444 -0.2170 -0.2358  0.3370
  977SOL     MW 3908   1.698   2.782   2.490 -0.5802  0.0485  0.2858
   3.10000   3.10000   3.10000
