977 TIP4P/2005f water molecules t=   1.29000 step= 1290
 3908
    1SOL     OW    1   0.371   0.831   0.038 -0.5758  0.8850  0.3989
    1SOL    HW1    2   0.329   0.854  -0.046 -1.5427  0.7744 -0.7956
    1SOL    HW2    3   0.324   0.747   0.063 -1.8949 -0.6543  0.1887
    1SOL     MW    4   0.359   0.823   0.030 -0.8774  0.6674  0.2136
    2SOL     OW    5   0.345   3.046   1.183 -0.1105  0.1919 -0.3971
    2SOL    HW1    6   0.384   3.110   1.123 -1.7695  0.5810 -0.2444
    2SOL    HW2    7   0.253   3.080   1.189  1.8085  0.8996 -0.6591
    2SOL     MW    8   0.338   3.059   1.176 -0.0762  0.3366 -0.4115
    3SOL     OW    9   2.601   0.328   0.972  0.4332  0.1534  0.2571
    3SOL    HW1   10   2.627   0.390   0.911  1.6371 -0.8899  0.2653
    3SOL    HW2   11   2.562   0.385   1.057 -0.6300 -0.2266  0.3962
    3SOL     MW   12   2.599   0.344   0.975  0.4517 -0.0344  0.2765
    4SOL     OW   13   3.062   1.744   0.564  0.0316  0.2975  0.3586
    4SOL    HW1   14   3.031   1.823   0.527 -1.5046 -0.5549 -0.6760
    4SOL    HW2   15   3.088   1.682   0.495  0.3476 -1.0888  0.4522
    4SOL     MW   16   3.062   1.746   0.550 -0.1294  0.0021  0.2345
    5SOL     OW   17   1.651   1.513   0.563 -0.0014  0.1639 -0.0152
    5SOL    HW1   18   1.668   1.459   0.645 -3.3854 -1.4537 -1.6155
    5SOL    HW2   19   1.547   1.510   0.566 -2.6886  1.2219  2.7779
    5SOL     MW   20   1.639   1.505   0.575 -0.8025  0.0901  0.1422
    6SOL     OW   21   0.843   1.375   0.568 -0.0212  0.0472  0.0333
    6SOL    HW1   22   0.751   1.388   0.564  0.8432 -2.7567  1.7003
    6SOL    HW2   23   0.838   1.296   0.621  2.4507  0.4814 -0.3801
    6SOL     MW   24   0.830   1.366   0.574  0.4190 -0.2655  0.1987
    7SOL     OW   25   2.040   1.068   0.012 -0.9387  0.3248 -0.0190
    7SOL    HW1   26   2.108   1.127  -0.015 -0.1247 -2.8417 -1.6652
    7SOL    HW2   27   2.049   1.059   0.107  1.3534 -0.1416  2.2154
    7SOL     MW   28   2.051   1.075   0.021 -0.5289 -0.1545  0.0586
    8SOL     OW   29   0.855   1.536   1.196 -0.6616  0.4437 -0.2718
    8SOL    HW1   30   0.947   1.536   1.171 -2.3194 -0.5757  2.4157
    8SOL    HW2   31   0.845   1.443   1.216  1.3200  2.1185 -0.4960
    8SOL     MW   32   0.866   1.524   1.195 -0.6189  0.5301  0.0532
    9SOL     OW   33   1.019   0.519   1.356 -0.2492  0.2011 -0.8414
    9SOL    HW1   34   0.968   0.443   1.321  2.2026  0.1181 -0.4105
    9SOL    HW2   35   1.058   0.490   1.441  4.5944 -2.2093 -1.1853
    9SOL     MW   36   1.017   0.505   1.363  0.7134 -0.1279 -0.8299
   10SOL     OW   37   0.257   0.796   0.522  0.3873 -0.4629  0.1333
   10SOL    HW1   38   0.346   0.832   0.499  0.3791 -1.9399  0.2853
   10SOL    HW2   39   0.236   0.835   0.604 -0.1099 -0.2553  0.4050
   10SOL     MW   40   0.266   0.806   0.530  0.3206 -0.6304  0.1892
   11SOL     OW   41   0.751   1.117   1.603 -0.5547  0.5962 -0.1055
   11SOL    HW1   42   0.773   1.089   1.693 -0.5060 -1.2816 -1.9012
   11SOL    HW2   43   0.776   1.033   1.559  1.3120 -0.7767 -1.0020
   11SOL     MW   44   0.758   1.103   1.609 -0.3020  0.1673 -0.4607
   12SOL     OW   45   3.070   1.104   0.879 -0.5346  0.9533  0.4395
   12SOL    HW1   46   3.123   1.173   0.925  1.5901  0.6998  1.5823
   12SOL    HW2   47   3.019   1.153   0.817  1.5220 -0.7079  1.2373
   12SOL     MW   48   3.070   1.119   0.877  0.0171  0.7007  0.6956
   13SOL     OW   49   1.860   1.415   1.333  0.3670 -0.1347  0.1654
   13SOL    HW1   50   1.879   1.356   1.253  0.1526 -0.0946 -1.2059
   13SOL    HW2   51   1.861   1.506   1.304 -2.4992  0.4704  0.9960
   13SOL     MW   52   1.863   1.420   1.319 -0.0395 -0.0496  0.0940
   14SOL     OW   53   0.549   0.316   1.878 -0.4237 -0.1990  0.3575
   14SOL    HW1   54   0.492   0.245   1.861  1.7205  2.1149 -0.9743
   14SOL    HW2   55   0.597   0.318   1.795  0.4559  1.8238  0.5322
   14SOL     MW   56   0.548   0.307   1.865 -0.0248  0.3732  0.2048
   15SOL     OW   57   1.981   0.344   1.053  0.1401  0.4820 -0.0712
   15SOL    HW1   58   1.974   0.405   1.132  1.3565 -1.9884  2.0593
   15SOL    HW2   59   2.053   0.370   0.996  1.3654 -0.8811 -1.3317
   15SOL     MW   60   1.989   0.356   1.056  0.4622 -0.0238  0.0436
   16SOL     OW   61   0.220   1.837   0.313  0.0665  0.0122 -0.1140
   16SOL    HW1   62   0.306   1.823   0.273  0.8645  1.4449 -0.9959
   16SOL    HW2   63   0.205   1.935   0.316 -2.5595 -1.0923  0.5983
   16SOL     MW   64   0.230   1.848   0.308 -0.1747  0.0555 -0.1364
   17SOL     OW   65   1.032   0.903   1.416  0.4456 -0.4598 -0.2776
   17SOL    HW1   66   1.072   0.892   1.507  2.1042 -2.7619 -0.7053
   17SOL    HW2   67   0.936   0.894   1.426  0.7244 -2.7004 -1.3880
   17SOL     MW   68   1.025   0.901   1.429  0.7012 -1.0592 -0.4806
   18SOL     OW   69   0.085   1.591   0.359  0.4054 -0.2803 -0.1751
   18SOL    HW1   70   0.130   1.680   0.359 -1.3279  1.2911  0.6467
   18SOL    HW2   71   0.085   1.559   0.270 -1.6221 -0.7862  1.8899
   18SOL     MW   72   0.091   1.599   0.347 -0.0908 -0.1398  0.2058
   19SOL     OW   73   0.087   1.330   0.976 -0.0442  0.2741 -0.4141
   19SOL    HW1   74   0.131   1.360   0.898  0.9865 -0.8351  2.2850
   19SOL    HW2   75  -0.005   1.362   0.966  1.6459  2.5187 -1.4104
   19SOL     MW   76   0.080   1.338   0.965  0.3148  0.4239 -0.1894
   20SOL     OW   77   0.420   2.176   1.184 -0.1885 -0.1387  0.4852
   20SOL    HW1   78   0.373   2.105   1.143 -2.6586  1.7115  0.7112
   20SOL    HW2   79   0.397   2.177   1.283 -0.4818 -0.4899  1.0443
   20SOL     MW   80   0.411   2.167   1.192 -0.5531  0.0591  0.5888
   21SOL     OW   81   0.503   0.850   0.410 -0.5450  0.1583 -0.2649
   21SOL    HW1   82   0.574   0.809   0.462 -0.3757  0.2335  0.3206
   21SOL    HW2   83   0.537   0.832   0.318 -0.4611  1.8839 -0.8066
   21SOL     MW   84   0.517   0.842   0.405 -0.5116  0.3959 -0.2591
   22SOL     OW   85   1.535   0.713   0.983 -0.0736 -0.1653 -0.5878
   22SOL    HW1   86   1.531   0.681   0.897  2.6463 -0.6337  1.0894
   22SOL    HW2   87   1.441   0.718   1.008 -1.3564  2.0379 -0.8274
   22SOL     MW   88   1.522   0.710   0.975  0.1160  0.0636 -0.3981
   23SOL     OW   89   3.084   0.663   0.692 -0.1562  0.4813 -0.4942
   23SOL    HW1   90   3.151   0.598   0.715  0.1928 -0.8201 -0.4440
   23SOL    HW2   91   3.126   0.739   0.726  0.4544 -0.2914  1.3414
   23SOL     MW   92   3.098   0.664   0.700 -0.0296  0.2076 -0.2454
   24SOL     OW   93   2.051   2.225   0.048  0.2309  0.1449 -0.3703
   24SOL    HW1   94   2.061   2.235   0.148 -1.5242 -0.6822  1.8911
   24SOL    HW2   95   2.073   2.138   0.021  1.8290  1.7957 -0.9615
   24SOL     MW   96   2.056   2.215   0.058  0.2102  0.2536 -0.1499
   25SOL     OW   97   0.218   1.373   0.493  0.4521 -0.5833 -0.8081
   25SOL    HW1   98   0.192   1.446   0.434  2.6157  1.7918 -2.7384
   25SOL    HW2   99   0.313   1.359   0.465  1.0542 -1.3634 -0.5678
   25SOL     MW  100   0.227   1.381   0.482  0.8170 -0.3729 -1.0311
   26SOL     OW  101   2.051   1.045   0.281 -0.1444 -0.6896  0.3398
   26SOL    HW1  102   1.980   1.081   0.338 -0.8175 -2.6500 -0.8685
   26SOL    HW2  103   2.129   1.112   0.281  2.3729  0.2404 -0.6629
   26SOL     MW  104   2.052   1.059   0.288  0.0989 -0.8256  0.0481
   27SOL     OW  105   1.963   1.460   0.221 -0.0479 -0.0495  0.4779
   27SOL    HW1  106   1.891   1.523   0.243 -0.5092  0.0866  1.4855
   27SOL    HW2  107   2.010   1.451   0.306  0.6062 -4.0016  0.4529
   27SOL     MW  108   1.960   1.467   0.235 -0.0225 -0.5530  0.6076
   28SOL     OW  109   0.446   1.006   1.985 -0.0177 -0.1772  0.2964
   28SOL    HW1  110   0.481   0.985   2.068 -0.2432 -0.9197  1.7097
   28SOL    HW2  111   0.349   0.978   1.988  0.1615  1.7873 -1.2996
   28SOL     MW  112   0.438   1.000   1.996 -0.0238 -0.0160  0.2723
   29SOL     OW  113   0.254   1.429   0.767  0.1178  0.2288 -0.7420
   29SOL    HW1  114   0.253   1.528   0.766 -1.2579 -0.1278 -1.1032
   29SOL    HW2  115   0.248   1.403   0.676  0.0632 -0.8573  2.7522
   29SOL     MW  116   0.253   1.438   0.755 -0.0709  0.0384 -0.3286
   30SOL     OW  117   0.833   1.255   1.245  0.3025  0.3969 -0.0300
   30SOL    HW1  118   0.766   1.228   1.313  0.1724 -1.3690  0.3348
   30SOL    HW2  119   0.925   1.230   1.277  0.9044 -0.7778  0.3047
   30SOL     MW  120   0.837   1.248   1.258  0.3647  0.0089  0.0623
   31SOL     OW  121   0.412   0.253   0.195  0.1414 -0.5425  0.1051
   31SOL    HW1  122   0.433   0.175   0.249  0.0028  1.0835 -0.3149
   31SOL    HW2  123   0.417   0.226   0.102  1.7309  1.3390  0.7945
   31SOL     MW  124   0.416   0.239   0.190  0.3328 -0.0797  0.1406
   32SOL     OW  125   2.720   0.975   1.157 -1.0082  0.0193 -0.4639
   32SOL    HW1  126   2.654   0.905   1.147  0.5599  2.6045  1.8566
   32SOL    HW2  127   2.811   0.942   1.135 -0.7112  0.2142 -2.1910
   32SOL     MW  128   2.723   0.962   1.153 -0.7622  0.3861 -0.3856
   33SOL     OW  129   1.632   1.324   0.372 -0.3844  0.6136  0.5258
   33SOL    HW1  130   1.705   1.264   0.392  0.4889 -0.1294  1.9256
   33SOL    HW2  131   1.632   1.391   0.441  0.0159 -0.0069 -0.2423
   33SOL     MW  132   1.642   1.325   0.384 -0.2164  0.4337  0.6091
   34SOL     OW  133   1.240   1.913   1.093  0.2330  0.6056 -0.4079
   34SOL    HW1  134   1.163   1.948   1.132 -0.3415 -1.0037 -1.8117
   34SOL    HW2  135   1.315   1.926   1.146 -1.7423  2.8623  0.1614
   34SOL     MW  136   1.240   1.919   1.105 -0.1034  0.6910 -0.5180
   35SOL     OW  137   0.365   0.113   1.825  0.4268  0.2788 -0.5628
   35SOL    HW1  138   0.383   0.042   1.889  1.1530  0.9052 -1.1209
   35SOL    HW2  139   0.374   0.077   1.735 -0.9870 -1.1142 -1.8045
   35SOL     MW  140   0.368   0.099   1.822  0.3361  0.1777 -0.8003
   36SOL     OW  141   1.966   1.906   0.575 -0.5544 -0.4099  0.0607
   36SOL    HW1  142   1.950   1.913   0.479 -1.8636 -2.0531 -0.2985
   36SOL    HW2  143   1.949   1.816   0.601 -0.5097 -0.7961  0.1459
   36SOL     MW  144   1.962   1.895   0.566 -0.7212 -0.6777  0.0246
   37SOL     OW  145   1.789   2.000   0.965  0.1686 -0.1995  0.2995
   37SOL    HW1  146   1.732   1.966   0.901 -0.7177 -1.3019  0.4186
   37SOL    HW2  147   1.736   2.062   1.009  0.7738  2.5224 -2.0632
   37SOL     MW  148   1.775   2.004   0.962  0.1315  0.0141  0.0035
   38SOL     OW  149   2.827   0.958   0.131  0.1223 -0.0272 -0.1103
   38SOL    HW1  150   2.849   0.930   0.224 -1.9316 -1.4238 -0.6976
   38SOL    HW2  151   2.903   0.935   0.075 -2.5581  1.8194 -0.3837
   38SOL     MW  152   2.840   0.951   0.136 -0.5024  0.0321 -0.2239
   39SOL     OW  153   1.448   0.570   0.758 -0.1702  0.0009 -0.3367
   39SOL    HW1  154   1.397   0.495   0.789 -1.0151 -0.5802  0.0361
   39SOL    HW2  155   1.377   0.632   0.735 -1.7071  0.7164  0.2648
   39SOL     MW  156   1.432   0.568   0.759 -0.4844  0.0186 -0.2082
   40SOL     OW  157   1.194   1.883   0.236  0.6281 -0.1051 -0.3545
   40SOL    HW1  158   1.231   1.841   0.311 -2.2532 -2.3032 -1.5433
   40SOL    HW2  159   1.189   1.972   0.270  1.5598  0.3506 -0.6563
   40SOL     MW  160   1.199   1.889   0.250  0.3709 -0.3350 -0.5512
   41SOL     OW  161   0.563   0.466   1.586 -0.1977  0.0269  0.5354
   41SOL    HW1  162   0.645   0.506   1.559 -0.8549  1.8881  0.0959
   41SOL    HW2  163   0.504   0.533   1.588  1.2535 -5.0049  0.8952
   41SOL     MW  164   0.566   0.480   1.583 -0.0930 -0.3914  0.5249
   42SOL     OW  165   1.314   2.998   1.991 -0.0349  0.0983 -0.4502
   42SOL    HW1  166   1.232   2.999   2.043  0.7214  1.1066 -1.0568
   42SOL    HW2  167   1.372   2.919   2.004 -1.9158 -2.6787 -0.1937
   42SOL     MW  168   1.311   2.988   1.999 -0.1833 -0.1350 -0.4964
   43SOL     OW  169   1.485   0.149   1.628  0.1199 -0.4393 -0.0102
   43SOL    HW1  170   1.535   0.100   1.562 -1.7033 -2.2041 -3.7653
   43SOL    HW2  171   1.403   0.094   1.623 -1.2218  0.5851  0.2751
   43SOL     MW  172   1.481   0.135   1.618 -0.2976 -0.5370 -0.4680
   44SOL     OW  173   1.235   0.749   1.036  0.8252 -0.2595  0.7300
   44SOL    HW1  174   1.222   0.844   1.019  1.2000 -0.0631 -1.0630
   44SOL    HW2  175   1.248   0.750   1.135 -0.2107 -0.4034  0.2497
   44SOL     MW  176   1.235   0.762   1.047  0.7380 -0.2525  0.4300
   45SOL     OW  177   1.237   0.756   0.724  0.7036 -0.0234  0.4423
   45SOL    HW1  178   1.199   0.763   0.811  1.6114 -1.6143  1.4218
   45SOL    HW2  179   1.187   0.705   0.661  2.8794 -0.2038  1.1930
   45SOL     MW  180   1.225   0.750   0.727  1.1104 -0.2571  0.6706
   46SOL     OW  181   0.570   1.085   0.581  0.7483 -0.2143  0.2276
   46SOL    HW1  182   0.529   1.040   0.504 -2.4363  0.1632 -1.0818
   46SOL    HW2  183   0.665   1.069   0.582  1.7872 -0.8057 -0.7843
   46SOL     MW  184   0.577   1.077   0.571  0.4652 -0.2425 -0.0787
   47SOL     OW  185   0.222   1.936   1.968  0.0241  0.0543 -0.5866
   47SOL    HW1  186   0.307   1.901   2.003  0.8767 -1.7819  1.9937
   47SOL    HW2  187   0.161   1.930   2.041  1.4574 -1.2092 -1.7276
   47SOL     MW  188   0.225   1.931   1.982  0.3257 -0.3547 -0.3967
   48SOL     OW  189   1.084   0.521   1.033  0.3423  0.1112 -0.1481
   48SOL    HW1  190   0.992   0.510   1.017  1.1153 -2.3942 -0.4328
   48SOL    HW2  191   1.101   0.615   1.060  2.0231 -0.5783 -1.7066
   48SOL     MW  192   1.074   0.532   1.034  0.6660 -0.3103 -0.3913
   49SOL     OW  193   1.728   0.650   1.515 -0.6264  0.1932  0.0518
   49SOL    HW1  194   1.724   0.617   1.605  0.4079  0.8123  1.0137
   49SOL    HW2  195   1.812   0.622   1.483 -0.1694  0.4425 -0.2270
   49SOL     MW  196   1.738   0.642   1.523 -0.4297  0.3078  0.1419
   50SOL     OW  197   1.239   1.142   0.560 -0.4325  0.2426  0.2028
   50SOL    HW1  198   1.199   1.180   0.637  2.5580  0.6417 -0.4884
   50SOL    HW2  199   1.324   1.106   0.593  0.3142 -1.3741  1.4546
   50SOL     MW  200   1.245   1.142   0.574  0.0606  0.0819  0.2768
   51SOL     OW  201   0.327   2.929   0.913 -0.2902 -0.0954  0.0240
   51SOL    HW1  202   0.418   2.893   0.903 -0.9956  1.3656 -1.0180
   51SOL    HW2  203   0.336   2.945   1.005 -0.8167  0.1021 -0.4320
   51SOL     MW  204   0.340   2.927   0.924 -0.4527  0.1234 -0.1736
   52SOL     OW  205   0.798   1.787   0.461 -0.0363 -0.1981  0.2657
   52SOL    HW1  206   0.779   1.882   0.470  0.9310  0.5601  0.8415
   52SOL    HW2  207   0.811   1.767   0.368  3.3882  2.1632  0.5341
   52SOL     MW  208   0.797   1.797   0.449  0.5432  0.2135  0.3771
   53SOL     OW  209   0.440   2.132   0.473 -0.3459 -0.4257  0.2285
   53SOL    HW1  210   0.361   2.138   0.425 -1.4740  0.1539  1.9700
   53SOL    HW2  211   0.443   2.221   0.508 -0.2996 -0.3505  1.4122
   53SOL     MW  212   0.430   2.144   0.472 -0.4887 -0.3393  0.6145
   54SOL     OW  213   2.070   0.933   0.771  0.3446  0.1053 -0.2475
   54SOL    HW1  214   2.112   0.925   0.683  1.4745 -0.3864  1.1186
   54SOL    HW2  215   2.038   0.847   0.788 -0.2484  0.4566 -1.3118
   54SOL     MW  216   2.071   0.921   0.762  0.4154  0.0868 -0.2077
   55SOL     OW  217   0.523   1.585   1.649  0.0536  0.1336  0.7837
   55SOL    HW1  218   0.476   1.603   1.565  0.4193  0.6641 -3.0881
   55SOL    HW2  219   0.602   1.529   1.632  1.4200  0.2107 -4.0891
   55SOL     MW  220   0.527   1.580   1.636  0.2821  0.2138 -0.3701
   56SOL     OW  221   0.632   0.855   0.167  0.0821  0.3946 -0.4228
   56SOL    HW1  222   0.676   0.940   0.164 -0.2017 -1.3743 -0.0383
   56SOL    HW2  223   0.562   0.862   0.107  0.0353 -0.8077  0.6020
   56SOL     MW  224   0.629   0.867   0.159  0.0385  0.0026 -0.2369
   57SOL     OW  225   1.210   1.231   1.167 -0.0281 -0.6704  0.0893
   57SOL    HW1  226   1.304   1.235   1.174 -0.0764 -1.1635  0.7723
   57SOL    HW2  227   1.170   1.209   1.257  0.1470 -0.5641  2.8224
   57SOL     MW  228   1.217   1.229   1.180 -0.0114 -0.7214  0.5400
   58SOL     OW  229   0.524   1.209   1.289 -0.1892 -0.3827  0.2053
   58SOL    HW1  230   0.505   1.300   1.269 -0.6161 -0.1482 -0.8068
   58SOL    HW2  231   0.522   1.210   1.387  2.4151 -0.6282 -0.3609
   58SOL     MW  232   0.521   1.221   1.299  0.0981 -0.3842 -0.0030
   59SOL     OW  233   1.513   1.696   0.315 -0.2050 -0.2168 -0.2057
   59SOL    HW1  234   1.538   1.760   0.380  1.3505 -0.2122 -1.5099
   59SOL    HW2  235   1.425   1.673   0.342  1.6677 -2.9501 -1.2280
   59SOL     MW  236   1.505   1.701   0.327  0.2473 -0.5768 -0.5127
   60SOL     OW  237   3.091   0.219   1.668  0.0136  0.3909 -0.2707
   60SOL    HW1  238   3.003   0.266   1.708 -1.9719 -1.0473 -0.6566
   60SOL    HW2  239   3.123   0.149   1.727 -1.6360 -2.1518 -0.3884
   60SOL     MW  240   3.084   0.216   1.681 -0.4660 -0.1344 -0.3371
   61SOL     OW  241   1.991   1.361   3.058 -0.8273  0.1416 -0.0092
   61SOL    HW1  242   1.978   1.390   3.147  0.2142 -1.4558 -2.8780
   61SOL    HW2  243   2.083   1.330   3.063  1.3779 -1.5109  3.1350
   61SOL     MW  244   2.001   1.361   3.070 -0.3989 -0.2872  0.0271
   62SOL     OW  245   0.548   1.693   0.516 -0.6133 -0.1602  0.4753
   62SOL    HW1  246   0.646   1.722   0.507  3.0938  4.2764 -1.6044
   62SOL    HW2  247   0.544   1.601   0.526 -0.4786  3.3481 -0.1880
   62SOL     MW  248   0.560   1.685   0.516 -0.1064  0.8880  0.1134
   63SOL     OW  249   1.724   0.627   0.714 -0.2509  0.5289 -0.2828
   63SOL    HW1  250   1.755   0.711   0.677 -0.1062 -0.1057 -1.0830
   63SOL    HW2  251   1.629   0.627   0.709  0.2855 -1.0888  0.5456
   63SOL     MW  252   1.716   0.638   0.709 -0.1611  0.2317 -0.2791
   64SOL     OW  253   0.299   1.693   0.800  0.4410 -0.1105 -0.8742
   64SOL    HW1  254   0.337   1.746   0.729 -0.8796  1.6003 -1.5244
   64SOL    HW2  255   0.213   1.735   0.801  2.0733  0.4269  2.3586
   64SOL     MW  256   0.293   1.705   0.791  0.4821  0.1861 -0.5335
   65SOL     OW  257   1.580   2.306   0.425  0.1496  0.8096 -0.5046
   65SOL    HW1  258   1.642   2.378   0.419 -0.4454  0.7276 -3.9603
   65SOL    HW2  259   1.526   2.320   0.507 -0.1616 -1.1229  0.5413
   65SOL     MW  260   1.581   2.318   0.435  0.0301  0.5438 -0.8226
   66SOL     OW  261   0.326   0.542   0.462  0.1738  0.0737 -0.1923
   66SOL    HW1  262   0.360   0.532   0.374 -1.2237 -2.5540 -0.0903
   66SOL    HW2  263   0.300   0.637   0.480 -1.1986 -1.2523  2.1054
   66SOL     MW  264   0.327   0.553   0.452 -0.1917 -0.4480  0.1243
   67SOL     OW  265   1.464   0.126   1.995  0.1371  0.2032 -0.1934
   67SOL    HW1  266   1.482   0.151   1.903  0.9783  1.0190  1.3554
   67SOL    HW2  267   1.403   0.051   1.986 -1.6891  2.0637  1.8115
   67SOL     MW  268   1.458   0.120   1.982  0.0072  0.5563  0.2755
   68SOL     OW  269   0.749   0.055   2.947  0.8196 -0.3533 -0.3593
   68SOL    HW1  270   0.762   0.125   2.887  1.0344 -0.7963 -0.7886
   68SOL    HW2  271   0.795   0.080   3.020 -0.7531 -0.6757  0.8360
   68SOL     MW  272   0.757   0.067   2.949  0.6405 -0.4543 -0.2583
   69SOL     OW  273   0.948   0.192   1.969 -0.0224  0.0628 -0.8738
   69SOL    HW1  274   1.021   0.236   2.016 -1.9540  0.6126  0.1106
   69SOL    HW2  275   0.953   0.106   2.003  1.9495  1.2529  1.3106
   69SOL     MW  276   0.958   0.186   1.980 -0.0171  0.2923 -0.4557
   70SOL     OW  277   0.542   1.726   1.129 -0.1242 -0.3445  0.2399
   70SOL    HW1  278   0.597   1.734   1.210 -1.0062  2.4509 -1.0578
   70SOL    HW2  279   0.602   1.692   1.062 -3.2820 -2.5700 -1.2031
   70SOL     MW  280   0.557   1.723   1.131 -0.6572 -0.2693 -0.1217
   71SOL     OW  281   1.557   0.514   1.191 -0.6909 -0.2230 -0.2422
   71SOL    HW1  282   1.551   0.597   1.234 -0.8392 -0.6887  0.3482
   71SOL    HW2  283   1.573   0.528   1.101  0.3802  1.4807  1.4120
   71SOL     MW  284   1.559   0.527   1.185 -0.5692 -0.0596  0.0540
   72SOL     OW  285   0.811   1.847   1.015 -0.4598  0.0096 -0.4767
   72SOL    HW1  286   0.799   1.935   0.977  1.3202  0.9231 -1.9574
   72SOL    HW2  287   0.790   1.788   0.945 -1.4582  1.7950 -0.1699
   72SOL     MW  288   0.807   1.851   1.001 -0.3567  0.3657 -0.6316
   73SOL     OW  289   1.192   0.726   1.309 -0.0466 -0.1856  0.3707
   73SOL    HW1  290   1.133   0.653   1.311  3.1348 -0.9000  1.7686
   73SOL    HW2  291   1.129   0.794   1.337 -0.1550  2.1746 -0.9446
   73SOL     MW  292   1.176   0.725   1.313  0.3589  0.0315  0.3816
   74SOL     OW  293   2.821   0.274   1.125  0.6522  0.2209 -0.4946
   74SOL    HW1  294   2.883   0.318   1.076  0.5463  0.0432  1.5274
   74SOL    HW2  295   2.739   0.288   1.076  2.2280  2.3141 -1.2443
   74SOL     MW  296   2.818   0.282   1.112  0.8461  0.4736 -0.3267
   75SOL     OW  297   1.594   1.381   0.105  0.1549 -0.5506 -0.2590
   75SOL    HW1  298   1.664   1.321   0.076 -0.9368 -0.9145  1.2067
   75SOL    HW2  299   1.600   1.366   0.202  0.5711 -0.7743 -1.3583
   75SOL     MW  300   1.604   1.371   0.114  0.0658 -0.6281 -0.2107
   76SOL     OW  301   2.965   0.584   0.440 -0.1127  0.4072 -0.1238
   76SOL    HW1  302   2.998   0.588   0.532  0.1288  0.8887  0.1627
   76SOL    HW2  303   3.032   0.530   0.396 -0.5230  0.7997 -2.6851
   76SOL     MW  304   2.978   0.577   0.446 -0.1349  0.5225 -0.4239
   77SOL     OW  305   0.822   0.540   0.472  0.3566  0.2148 -0.0547
   77SOL    HW1  306   0.804   0.571   0.381 -0.9192  0.0839 -0.2042
   77SOL    HW2  307   0.830   0.440   0.477  2.3906  0.1093  1.7705
   77SOL     MW  308   0.821   0.531   0.461  0.4566  0.1836  0.1664
   78SOL     OW  309   0.734   0.839   1.174 -0.3911  0.0407  0.0234
   78SOL    HW1  310   0.746   0.925   1.133 -0.3371 -2.9562  0.9613
   78SOL    HW2  311   0.638   0.819   1.165 -0.8713 -2.5761 -1.5552
   78SOL     MW  312   0.723   0.848   1.168 -0.4473 -0.7000 -0.0611
   79SOL     OW  313   1.905   1.642   0.635 -0.1718 -0.1230 -0.1080
   79SOL    HW1  314   1.825   1.633   0.579  1.1641 -2.4081 -0.6259
   79SOL    HW2  315   1.881   1.648   0.729 -2.5560 -0.3539  1.4785
   79SOL     MW  316   1.891   1.641   0.640 -0.3101 -0.4550  0.0330
   80SOL     OW  317   0.069   0.928   0.361 -0.0482  0.3113 -0.1341
   80SOL    HW1  318  -0.022   0.905   0.367  0.1846 -3.1269  1.8996
   80SOL    HW2  319   0.121   0.885   0.430  1.5553  1.2818 -2.6630
   80SOL     MW  320   0.064   0.920   0.371  0.1941 -0.0143 -0.1994
   81SOL     OW  321   1.873   1.908   0.307 -0.3420  0.5606 -0.0932
   81SOL    HW1  322   1.830   1.819   0.278  0.3579 -0.8693  0.0515
   81SOL    HW2  323   1.821   1.977   0.275  1.1485 -1.3546  1.1340
   81SOL     MW  324   1.860   1.905   0.299 -0.0530  0.1192  0.0878
   82SOL     OW  325   0.820   1.018   0.501 -0.3353  0.4717 -0.3245
   82SOL    HW1  326   0.815   1.034   0.407 -0.5205 -1.1619  0.8681
   82SOL    HW2  327   0.784   0.925   0.501 -2.5208 -0.9666 -0.9689
   82SOL     MW  328   0.814   1.008   0.489 -0.6481  0.0664 -0.2522
   83SOL     OW  329   0.043   0.741   1.485  0.0201  0.1448  0.0519
   83SOL    HW1  330   0.059   0.812   1.421 -2.8474 -1.2182 -1.1739
   83SOL    HW2  331   0.127   0.708   1.511 -0.9730 -0.4558  1.6744
   83SOL     MW  332   0.056   0.746   1.480 -0.4892 -0.1143  0.1042
   84SOL     OW  333   0.042   0.182   0.905 -0.3574  0.1657 -0.2762
   84SOL    HW1  334  -0.014   0.245   0.950  0.8812 -0.3257 -3.4008
   84SOL    HW2  335   0.065   0.120   0.972 -1.9045  1.7212  1.2613
   84SOL     MW  336   0.037   0.183   0.920 -0.3981  0.3061 -0.4856
   85SOL     OW  337   0.438   0.457   0.719 -0.2384  0.1476 -0.4933
   85SOL    HW1  338   0.426   0.476   0.630  0.3053  0.9820  0.6667
   85SOL    HW2  339   0.414   0.362   0.730 -2.8468 -1.7924 -0.8968
   85SOL     MW  340   0.433   0.447   0.708 -0.5108  0.0017 -0.3935
   86SOL     OW  341   1.208   0.249   1.128  0.3944 -0.2993  0.2625
   86SOL    HW1  342   1.171   0.335   1.153  1.8842 -0.2375 -1.6291
   86SOL    HW2  343   1.299   0.232   1.156  0.9916  1.3898 -0.8092
   86SOL     MW  344   1.215   0.258   1.135  0.6698 -0.0683 -0.1284
   87SOL     OW  345   1.147   1.496   1.218 -0.3889 -0.6443 -0.1288
   87SOL    HW1  346   1.166   1.557   1.143  0.1446 -0.1175 -1.7538
   87SOL    HW2  347   1.171   1.408   1.191 -2.4435  2.2665  1.2006
   87SOL     MW  348   1.153   1.492   1.204 -0.5896 -0.1907 -0.1678
   88SOL     OW  349   1.181   1.035   0.973  0.0483 -0.1415  0.6145
   88SOL    HW1  350   1.273   1.038   0.953 -1.4495  3.0004 -0.3656
   88SOL    HW2  351   1.182   1.111   1.037  2.7085 -0.6513 -0.9117
   88SOL     MW  352   1.193   1.046   0.979  0.2017  0.2058  0.2838
   89SOL     OW  353   1.736   0.748   0.338 -0.7813 -0.3146 -0.2828
   89SOL    HW1  354   1.724   0.655   0.355  0.7638 -0.6524 -0.8406
   89SOL    HW2  355   1.833   0.760   0.323  1.1013  1.1101 -2.4295
   89SOL     MW  356   1.747   0.737   0.339 -0.3290 -0.1712 -0.6396
   90SOL     OW  357   0.829   1.161   2.839 -0.3200 -0.5822  0.9331
   90SOL    HW1  358   0.861   1.072   2.853  1.7588  0.9658  0.9902
   90SOL    HW2  359   0.850   1.214   2.922 -0.8936  2.8315 -0.1180
   90SOL     MW  360   0.836   1.157   2.852 -0.1214  0.0725  0.8020
   91SOL     OW  361   2.163   0.692   0.520  0.2198 -0.1336  0.4424
   91SOL    HW1  362   2.210   0.761   0.480 -0.0894  0.7943  1.3548
   91SOL    HW2  363   2.201   0.608   0.474  1.0686 -2.2874 -0.3143
   91SOL     MW  364   2.174   0.690   0.509  0.2910 -0.2953  0.4629
   92SOL     OW  365   1.746   0.888   0.571 -0.3535  0.0252  0.4891
   92SOL    HW1  366   1.655   0.909   0.585  0.1615  1.3400  1.9165
   92SOL    HW2  367   1.750   0.833   0.488 -2.2855  0.8203 -1.1962
   92SOL     MW  368   1.735   0.884   0.562 -0.5405  0.3035  0.4551
   93SOL     OW  369   1.114   0.178   0.422  1.1181 -0.3639 -0.2707
   93SOL    HW1  370   1.031   0.222   0.413  0.8294 -1.1304 -0.8602
   93SOL    HW2  371   1.161   0.222   0.351  0.3707  0.0629 -0.2037
   93SOL     MW  372   1.109   0.190   0.411  0.9814 -0.4087 -0.3396
   94SOL     OW  373   1.860   1.376   1.617  0.7263  0.2747 -1.1033
   94SOL    HW1  374   1.877   1.380   1.524  0.1831  1.7955  2.3370
   94SOL    HW2  375   1.834   1.284   1.638  1.0080 -0.6979 -0.6728
   94SOL     MW  376   1.859   1.364   1.608  0.6918  0.3470 -0.5926
   95SOL     OW  377   0.716   1.582   0.943 -0.7858 -0.1790 -0.4503
   95SOL    HW1  378   0.748   1.543   1.023 -1.0565  0.0323 -1.3906
   95SOL    HW2  379   0.631   1.537   0.932 -0.7348  1.2504 -0.5963
   95SOL     MW  380   0.709   1.571   0.952 -0.8148  0.0375 -0.5937
   96SOL     OW  381   1.334   1.901   1.719  0.2139 -0.0122  0.0484
   96SOL    HW1  382   1.261   1.910   1.773  0.1652  0.7355 -0.2286
   96SOL    HW2  383   1.337   1.808   1.688  0.5496  2.0242  0.4509
   96SOL     MW  384   1.325   1.890   1.722  0.2517  0.3551  0.0650
   97SOL     OW  385   1.132   1.455   0.873 -0.7353  0.2367 -0.5738
   97SOL    HW1  386   1.179   1.520   0.927 -1.2941  0.2683  0.3198
   97SOL    HW2  387   1.049   1.494   0.853  3.3128  0.2904  1.0385
   97SOL     MW  388   1.127   1.469   0.878 -0.2749  0.2479 -0.2432
   98SOL     OW  389   1.461   1.284   1.141 -0.1757  0.4503  0.6649
   98SOL    HW1  390   1.499   1.342   1.210  1.3848 -1.3040  0.3700
   98SOL    HW2  391   1.456   1.333   1.055  0.0469  0.2082  3.4574
   98SOL     MW  392   1.465   1.298   1.138  0.0595  0.1869  0.9944
   99SOL     OW  393   1.449   0.283   1.261  0.4360  0.6405 -0.5315
   99SOL    HW1  394   1.500   0.359   1.226 -0.3591  1.5129 -1.4992
   99SOL    HW2  395   1.405   0.321   1.331 -1.0236 -0.7005 -1.4395
   99SOL     MW  396   1.450   0.298   1.266  0.1385  0.5787 -0.7790
  100SOL     OW  397   1.056   1.170   1.389  0.1936 -0.3673  0.1771
  100SOL    HW1  398   1.059   1.203   1.479 -0.4596  0.1963  1.1025
  100SOL    HW2  399   1.059   1.073   1.386  1.0768 -1.3164  0.0480
  100SOL     MW  400   1.057   1.162   1.401  0.2240 -0.4182  0.2821
  101SOL     OW  401   0.467   1.224   0.331 -0.0201  0.6751 -0.2969
  101SOL    HW1  402   0.418   1.150   0.293  1.7566 -2.3537 -2.4661
  101SOL    HW2  403   0.537   1.246   0.268 -0.8363  0.7808  2.5230
  101SOL     MW  404   0.470   1.217   0.317  0.1067  0.2895 -0.2110
  102SOL     OW  405   2.890   0.617   0.985  0.0263 -0.1674 -0.2753
  102SOL    HW1  406   2.923   0.704   0.987 -2.3712 -2.1398 -0.3261
  102SOL    HW2  407   2.874   0.605   1.084  2.9458  1.3790  1.2442
  102SOL     MW  408   2.893   0.627   0.998  0.0952 -0.2236 -0.0815
  103SOL     OW  409   1.783   0.279   1.879  1.1320  0.2535  0.2863
  103SOL    HW1  410   1.788   0.189   1.840 -0.2844  1.9363  0.6061
  103SOL    HW2  411   1.808   0.267   1.967 -0.0797  0.4857 -3.1843
  103SOL     MW  412   1.787   0.265   1.885  0.7852  0.5062 -0.1294
  104SOL     OW  413   0.118   1.511   1.569 -0.7022 -0.0814  0.3626
  104SOL    HW1  414   0.172   1.457   1.619  0.3198  0.6717 -1.1251
  104SOL    HW2  415   0.028   1.486   1.593  0.4528 -0.3213 -0.7445
  104SOL     MW  416   0.113   1.500   1.579 -0.4149 -0.0137  0.0202
  105SOL     OW  417   0.017   1.203   0.417 -0.5799  0.4654 -0.0243
  105SOL    HW1  418   0.059   1.116   0.394  3.7067 -3.2062  1.0423
  105SOL    HW2  419   0.087   1.258   0.456 -1.9449  0.6991  0.3638
  105SOL     MW  420   0.032   1.199   0.419 -0.1944  0.0118  0.1676
  106SOL     OW  421   0.829   0.413   0.990 -0.8521  0.2144 -1.1557
  106SOL    HW1  422   0.745   0.450   0.962 -0.6197  0.2568  0.8236
  106SOL    HW2  423   0.877   0.403   0.904  0.1303  5.5553 -1.5742
  106SOL     MW  424   0.825   0.417   0.975 -0.6918  0.9247 -0.9498
  107SOL     OW  425   0.810   2.138   2.915  0.1585 -0.1848  0.0262
  107SOL    HW1  426   0.731   2.112   2.871  1.5987  1.5167 -1.4312
  107SOL    HW2  427   0.792   2.122   3.010  0.4004  4.0021 -0.2664
  107SOL     MW  428   0.798   2.132   2.921  0.3805  0.5921 -0.2047
  108SOL     OW  429   1.333   1.625   1.633  0.6765 -0.0696  0.1818
  108SOL    HW1  430   1.248   1.598   1.581 -2.4235 -2.7493 -3.3042
  108SOL    HW2  431   1.409   1.579   1.588  0.1593 -3.3153  0.6129
  108SOL     MW  432   1.332   1.615   1.620  0.1993 -0.8514 -0.2212
  109SOL     OW  433   2.012   0.775   0.266 -0.3067  0.6242 -0.0466
  109SOL    HW1  434   2.034   0.868   0.267 -1.6372  0.2620 -0.1945
  109SOL    HW2  435   2.089   0.731   0.299 -0.4183 -1.3842 -0.3005
  109SOL     MW  436   2.025   0.781   0.270 -0.4970  0.3114 -0.0996
  110SOL     OW  437   0.416   1.912   0.639  0.5306 -0.4096  0.1038
  110SOL    HW1  438   0.478   1.841   0.612 -4.0338 -0.5857 -0.2138
  110SOL    HW2  439   0.422   1.983   0.577 -1.1741 -0.4726  1.5231
  110SOL     MW  440   0.425   1.912   0.627 -0.2965 -0.4411  0.2492
  111SOL     OW  441   0.762   0.868   1.444  0.2270 -0.1898 -0.3900
  111SOL    HW1  442   0.759   0.859   1.348 -0.1902 -1.3315  1.3730
  111SOL    HW2  443   0.758   0.784   1.485 -0.7027 -0.2444  0.5283
  111SOL     MW  444   0.761   0.856   1.437  0.0493 -0.3477 -0.0362
  112SOL     OW  445   1.344   1.073   1.620  0.6091 -0.2270 -0.1631
  112SOL    HW1  446   1.279   1.140   1.628 -0.9649 -3.1064  1.7567
  112SOL    HW2  447   1.296   0.989   1.616 -0.6840 -0.2285  1.3224
  112SOL     MW  448   1.329   1.071   1.620  0.2308 -0.6071  0.2862
  113SOL     OW  449   1.237   3.047   1.708 -0.0709  0.1728 -0.5564
  113SOL    HW1  450   1.274   3.021   1.795  1.2339 -2.1530  0.8337
  113SOL    HW2  451   1.241   2.970   1.648 -1.9401  0.0048 -0.3440
  113SOL     MW  452   1.243   3.034   1.712 -0.1453 -0.1562 -0.3449
  114SOL     OW  453   0.254   2.881   1.884  0.3254  0.0292  0.1545
  114SOL    HW1  454   0.300   2.920   1.953  0.0386 -2.2220  1.2041
  114SOL    HW2  455   0.198   2.956   1.842 -0.6096  2.5996 -0.8282
  114SOL     MW  456   0.253   2.896   1.888  0.1642  0.0713  0.1634
  115SOL     OW  457   0.468   0.835   1.141  0.1929 -1.0022  0.3170
  115SOL    HW1  458   0.472   0.745   1.168  1.2286  3.9141  1.0141
  115SOL    HW2  459   0.422   0.890   1.211  1.8996 -2.2528  2.3451
  115SOL     MW  460   0.462   0.830   1.154  0.5547 -0.5186  0.6765
  116SOL     OW  461   0.792   1.041   1.008  0.5183 -0.2251 -0.2404
  116SOL    HW1  462   0.822   1.068   0.922 -0.7994  1.6959 -0.9629
  116SOL    HW2  463   0.835   1.111   1.065  0.7383  1.0399  1.5338
  116SOL     MW  464   0.802   1.054   1.004  0.3735  0.1953 -0.1016
  117SOL     OW  465   1.118   1.207   0.782 -0.8125 -0.0178  0.3557
  117SOL    HW1  466   1.154   1.148   0.854 -0.0702  1.6768 -2.0479
  117SOL    HW2  467   1.129   1.296   0.809 -0.0329 -2.1623  0.9023
  117SOL     MW  468   1.124   1.211   0.795 -0.6117 -0.0771  0.1107
  118SOL     OW  469   3.064   2.953   1.654  0.1359 -0.1281  0.3716
  118SOL    HW1  470   3.116   3.028   1.671  1.5245 -1.8414  0.0612
  118SOL    HW2  471   2.992   2.962   1.713  1.6567  0.0443 -1.8500
  118SOL     MW  472   3.061   2.964   1.664  0.5197 -0.3314  0.0376
  119SOL     OW  473   0.447   1.477   1.241  0.1608  0.5155  0.3748
  119SOL    HW1  474   0.479   1.540   1.172  0.2291  0.4130  1.6136
  119SOL    HW2  475   0.357   1.464   1.216  0.8714  0.2929  2.0415
  119SOL     MW  476   0.439   1.483   1.228  0.2635  0.4726  0.7581
  120SOL     OW  477   0.260   0.733   1.022 -0.3567  0.5269  0.4794
  120SOL    HW1  478   0.243   0.663   1.082 -2.0737 -0.8128 -2.0050
  120SOL    HW2  479   0.338   0.786   1.058 -1.6800 -1.4556  3.0619
  120SOL     MW  480   0.268   0.731   1.035 -0.7578  0.0885  0.4924
  121SOL     OW  481   1.750   1.103   1.685 -0.8364 -0.4122  0.1428
  121SOL    HW1  482   1.653   1.108   1.712  0.0848 -3.9856  0.7496
  121SOL    HW2  483   1.753   1.039   1.618 -0.6913  0.3452 -1.3563
  121SOL     MW  484   1.738   1.095   1.680 -0.6957 -0.7837  0.0250
  122SOL     OW  485   0.183   0.527   0.815  0.3840  0.1140  0.2561
  122SOL    HW1  486   0.263   0.494   0.777  1.1268  0.2782 -0.0101
  122SOL    HW2  487   0.210   0.608   0.858 -2.6416 -0.6948 -2.7115
  122SOL     MW  488   0.197   0.534   0.816  0.0828  0.0289 -0.1706
  123SOL     OW  489   1.850   1.143   0.458 -0.0836 -0.7121 -0.2451
  123SOL    HW1  490   1.801   1.067   0.500 -0.6122  1.4939 -0.3221
  123SOL    HW2  491   1.905   1.187   0.523  2.4983  0.0613 -0.4112
  123SOL     MW  492   1.851   1.139   0.472  0.1873 -0.3190 -0.2771
  124SOL     OW  493   0.597   0.547   0.934 -0.5466 -0.1468  0.1207
  124SOL    HW1  494   0.544   0.501   0.869  0.5425 -0.5961 -2.3239
  124SOL    HW2  495   0.637   0.624   0.889 -0.7019 -1.2741 -0.1017
  124SOL     MW  496   0.595   0.551   0.919 -0.4234 -0.3548 -0.2312
  125SOL     OW  497   0.719   1.788   1.746  0.2094 -0.0896 -0.0686
  125SOL    HW1  498   0.654   1.720   1.725  1.8982  0.3681 -2.3668
  125SOL    HW2  499   0.671   1.865   1.722 -3.3516  1.0989  1.5029
  125SOL     MW  500   0.705   1.789   1.740 -0.0376  0.1276 -0.1645
  126SOL     OW  501   2.155   1.562   1.988  0.4995 -0.7058 -0.0806
  126SOL    HW1  502   2.208   1.638   1.955 -1.7686 -1.5747 -2.1563
  126SOL    HW2  503   2.212   1.482   1.980  2.0375 -1.7245 -0.0237
  126SOL     MW  504   2.170   1.561   1.982  0.4032 -0.9548 -0.3469
  127SOL     OW  505   0.562   0.810   1.820  0.1315  0.4957 -0.0513
  127SOL    HW1  506   0.649   0.781   1.857 -0.5837 -0.6797  0.5390
  127SOL    HW2  507   0.519   0.873   1.885 -3.4084  1.1320 -1.0729
  127SOL     MW  508   0.568   0.815   1.833 -0.4300  0.4246 -0.1082
  128SOL     OW  509   1.719   0.707   2.918 -0.5565  0.1980  0.0687
  128SOL    HW1  510   1.766   0.704   2.834 -1.0576 -1.9865  0.2790
  128SOL    HW2  511   1.702   0.801   2.936 -1.3517  0.1540  0.0086
  128SOL     MW  512   1.723   0.719   2.909 -0.7275 -0.0960  0.0885
  129SOL     OW  513   1.647   0.918   0.142 -0.1000 -0.2231  0.4686
  129SOL    HW1  514   1.561   0.887   0.134  1.2364  0.2150 -0.1243
  129SOL    HW2  515   1.670   0.861   0.214  0.7167 -1.0557  1.2842
  129SOL     MW  516   1.639   0.906   0.150  0.1840 -0.2752  0.4980
  130SOL     OW  517   0.809   1.373   0.283  0.0287 -0.0012  0.2623
  130SOL    HW1  518   0.840   1.394   0.374  0.0902  0.3680  0.8344
  130SOL    HW2  519   0.827   1.451   0.237  0.3054  0.2623  1.6781
  130SOL     MW  520   0.816   1.386   0.289  0.0733  0.0823  0.5246
  131SOL     OW  521   3.032   0.842   3.097 -0.1585 -0.3657  0.2637
  131SOL    HW1  522   3.033   0.883   3.009 -1.4972  0.8469 -1.7782
  131SOL    HW2  523   3.128   0.823   3.107  3.8900  1.4950 -2.2030
  131SOL     MW  524   3.045   0.845   3.087  0.1991  0.0398 -0.3312
  132SOL     OW  525   2.705   0.134   1.338 -0.2237 -0.3341 -0.6895
  132SOL    HW1  526   2.745   0.168   1.259  1.1820  0.9238  1.0158
  132SOL    HW2  527   2.615   0.098   1.321  1.9238  0.5670 -2.0272
  132SOL     MW  528   2.699   0.134   1.325  0.2451 -0.0492 -0.6410
  133SOL     OW  529   1.043   0.146   1.711 -0.2577 -0.4266  0.3849
  133SOL    HW1  530   1.118   0.082   1.719  1.5752  1.5404  1.0012
  133SOL    HW2  531   1.003   0.162   1.798 -0.3937 -0.0757  0.3902
  133SOL     MW  532   1.047   0.140   1.724 -0.0338 -0.1208  0.4669
  134SOL     OW  533   1.412   2.515   1.413  0.0924 -0.0939  0.3043
  134SOL    HW1  534   1.335   2.565   1.392  0.9258 -2.7864  1.6834
  134SOL    HW2  535   1.436   2.523   1.507  1.0740 -0.4760  2.9545
  134SOL     MW  536   1.405   2.523   1.423  0.3319 -0.4996  0.8360
  135SOL     OW  537   3.020   0.959   2.847  0.5712 -0.0191 -0.6386
  135SOL    HW1  538   3.085   1.030   2.884 -2.0467  0.8431  0.8261
  135SOL    HW2  539   2.934   0.993   2.859  1.5564 -0.2084  0.1365
  135SOL     MW  540   3.018   0.973   2.853  0.3558  0.0697 -0.3431
  136SOL     OW  541   0.210   2.053   0.797  0.0632  0.5473  0.5122
  136SOL    HW1  542   0.142   1.981   0.789 -2.0408  2.2943  0.6112
  136SOL    HW2  543   0.291   2.016   0.746  1.9877  0.7555 -1.4508
  136SOL     MW  544   0.211   2.039   0.789  0.0395  0.8053  0.2662
  137SOL     OW  545   0.691   2.041   0.510 -0.0930  0.3632  0.5142
  137SOL    HW1  546   0.691   2.048   0.608  0.9949 -0.5251  1.2535
  137SOL    HW2  547   0.604   2.078   0.490  0.2306 -0.4550  2.9094
  137SOL     MW  548   0.680   2.047   0.520  0.0933  0.1381  0.9278
  138SOL     OW  549   0.498   0.574   1.190  0.3792 -0.3282  0.1911
  138SOL    HW1  550   0.414   0.524   1.197 -0.0201 -0.6750 -0.0273
  138SOL    HW2  551   0.538   0.566   1.103  2.1863  2.1426  0.1394
  138SOL     MW  552   0.492   0.567   1.180  0.5650 -0.0480  0.1555
  139SOL     OW  553   2.877   0.537   1.234  0.5526 -0.3983  0.4406
  139SOL    HW1  554   2.939   0.488   1.287 -2.7017 -1.1626 -0.9242
  139SOL    HW2  555   2.855   0.605   1.302 -0.4957 -1.8262  2.3760
  139SOL     MW  556   2.882   0.540   1.250 -0.0151 -0.6875  0.5159
  140SOL     OW  557   0.969   0.502   2.019 -0.2209 -0.3126  0.1227
  140SOL    HW1  558   0.969   0.426   1.966  0.5219 -0.9476 -1.9507
  140SOL    HW2  559   0.914   0.479   2.101 -4.0374 -0.2406 -0.3563
  140SOL     MW  560   0.962   0.489   2.023 -0.6264 -0.3868 -0.2140
  141SOL     OW  561   1.001   0.644   1.701 -0.1043  0.0456  0.1270
  141SOL    HW1  562   1.058   0.566   1.682  1.5050  0.3815  0.6849
  141SOL    HW2  563   1.052   0.718   1.682  0.0045 -0.0567 -0.1387
  141SOL     MW  564   1.015   0.643   1.696  0.1224  0.0764  0.1655
  142SOL     OW  565   0.865   1.145   0.740 -0.3069  0.6904 -0.3150
  142SOL    HW1  566   0.857   1.082   0.661  0.2137  1.9328 -1.5274
  142SOL    HW2  567   0.961   1.155   0.763  1.9015 -0.4852 -0.1759
  142SOL     MW  568   0.877   1.138   0.733  0.0532  0.6992 -0.4566
  143SOL     OW  569   1.804   0.697   1.103  0.0956 -0.4729  0.3754
  143SOL    HW1  570   1.857   0.706   1.021 -0.5679 -4.0930 -1.0960
  143SOL    HW2  571   1.718   0.722   1.070  0.8038  0.7110 -2.4973
  143SOL     MW  572   1.800   0.701   1.088  0.1015 -0.7944 -0.1978
  144SOL     OW  573   0.284   1.337   1.708  0.4392  0.3408  0.2006
  144SOL    HW1  574   0.365   1.320   1.657 -0.4171  2.7675 -2.5723
  144SOL    HW2  575   0.317   1.324   1.803  0.1237  0.4143  0.9208
  144SOL     MW  576   0.299   1.333   1.713  0.2846  0.6707 -0.0702
  145SOL     OW  577   0.230   0.502   1.200 -0.7041 -0.7317  0.6163
  145SOL    HW1  578   0.273   0.416   1.218  2.0080  1.4376  0.2486
  145SOL    HW2  579   0.154   0.487   1.153 -0.7627  1.8604  1.9070
  145SOL     MW  580   0.226   0.488   1.196 -0.3540 -0.1035  0.7381
  146SOL     OW  581   0.841   1.984   1.407 -0.4794 -0.4559  0.1262
  146SOL    HW1  582   0.889   1.976   1.329 -0.2169  0.4224 -1.0624
  146SOL    HW2  583   0.751   1.979   1.379  0.1652  0.8637 -0.0768
  146SOL     MW  584   0.835   1.982   1.393 -0.3597 -0.1659 -0.0574
  147SOL     OW  585   0.383   0.507   2.977  0.4384  0.3598 -0.2765
  147SOL    HW1  586   0.311   0.474   3.034 -1.7071  1.3988  0.7089
  147SOL    HW2  587   0.346   0.583   2.930  1.4885 -0.3914 -0.4518
  147SOL     MW  588   0.369   0.513   2.978  0.2939  0.3978 -0.1696
  148SOL     OW  589   0.076   0.945   1.294 -0.2251 -1.0092 -0.6802
  148SOL    HW1  590   0.166   0.949   1.327  3.8674 -3.6373  2.0080
  148SOL    HW2  591   0.049   1.039   1.297 -0.1541 -2.1093 -1.9984
  148SOL     MW  592   0.084   0.957   1.299  0.3243 -1.5011 -0.4994
  149SOL     OW  593   1.493   1.121   1.408  0.9130  0.5362 -0.1680
  149SOL    HW1  594   1.425   1.110   1.478  0.4159  2.7480  1.4217
  149SOL    HW2  595   1.503   1.214   1.396 -0.6160  1.6535  1.3052
  149SOL     MW  596   1.485   1.132   1.415  0.6456  0.9755  0.2361
  150SOL     OW  597   1.723   1.389   0.793  0.0621  0.0055  0.8654
  150SOL    HW1  598   1.769   1.307   0.794  1.1148  1.8354  2.0669
  150SOL    HW2  599   1.770   1.439   0.858  2.6966  0.5602  0.6411
  150SOL     MW  600   1.735   1.385   0.802  0.5486  0.3201  0.9943
  151SOL     OW  601   1.667   1.832   0.791  0.2233  0.0947 -0.1977
  151SOL    HW1  602   1.648   1.855   0.696  0.4888 -1.2364 -0.3504
  151SOL    HW2  603   1.586   1.830   0.836 -0.3458  0.1837  1.7242
  151SOL     MW  604   1.653   1.835   0.784  0.1832 -0.0692  0.0358
  152SOL     OW  605   0.782   1.438   1.654 -0.5503 -0.3017  0.4367
  152SOL    HW1  606   0.854   1.434   1.715  0.4635 -0.9471 -1.6304
  152SOL    HW2  607   0.766   1.349   1.635  3.3076  0.4125 -0.5537
  152SOL     MW  608   0.789   1.426   1.659  0.0925 -0.2927  0.0333
  153SOL     OW  609   2.580   1.219   0.779 -0.5643  0.0384 -0.5018
  153SOL    HW1  610   2.668   1.190   0.750  0.9031  2.4942  1.3667
  153SOL    HW2  611   2.523   1.139   0.773 -0.9474 -0.9762  1.3093
  153SOL     MW  612   2.584   1.204   0.774 -0.4213  0.2286 -0.0163
  154SOL     OW  613   0.141   1.748   1.713 -0.4749  0.1538 -0.0546
  154SOL    HW1  614   0.147   1.667   1.665  1.9374 -2.5253 -0.2541
  154SOL    HW2  615   0.221   1.752   1.765 -1.0225 -0.3109 -2.1955
  154SOL     MW  616   0.152   1.738   1.714 -0.2288 -0.2610 -0.3634
  155SOL     OW  617   1.168   0.720   0.291  0.3493  1.1761  0.5037
  155SOL    HW1  618   1.133   0.687   0.373 -0.9532  1.3901  3.2132
  155SOL    HW2  619   1.177   0.818   0.307  1.7205  0.5649  1.0090
  155SOL     MW  620   1.165   0.729   0.304  0.3583  1.1237  0.9279
  156SOL     OW  621   1.561   3.000   1.054  0.0848  0.2772 -0.1293
  156SOL    HW1  622   1.642   3.046   1.076  0.5592  1.9437 -0.8672
  156SOL    HW2  623   1.556   2.916   1.099  1.1320 -1.1088  0.6932
  156SOL     MW  624   1.571   2.995   1.063  0.2856  0.3142 -0.1182
  157SOL     OW  625   1.396   1.150   0.110 -0.5256  0.0218  0.1202
  157SOL    HW1  626   1.401   1.053   0.143  0.2672 -3.9778  3.1574
  157SOL    HW2  627   1.488   1.188   0.103  1.7148 -2.9964 -1.1424
  157SOL     MW  628   1.409   1.142   0.113 -0.1254 -0.9041  0.3543
  158SOL     OW  629   0.383   1.645   2.280 -0.3038  0.5672  0.4208
  158SOL    HW1  630   0.422   1.712   2.222  1.9163 -0.8703  0.2888
  158SOL    HW2  631   0.324   1.691   2.338  0.1080  1.3843 -2.4107
  158SOL     MW  632   0.380   1.660   2.280  0.0434  0.4854  0.0298
  159SOL     OW  633   1.246   1.709   0.480 -0.4906 -0.0243 -0.0698
  159SOL    HW1  634   1.207   1.652   0.415 -1.3387 -0.4737  1.7941
  159SOL    HW2  635   1.174   1.755   0.526  0.3560 -1.1568 -1.7050
  159SOL     MW  636   1.232   1.708   0.477 -0.4908 -0.2330 -0.0396
  160SOL     OW  637   0.496   1.207   1.562 -0.5789  0.9977 -0.0700
  160SOL    HW1  638   0.451   1.122   1.582 -0.1147  0.9128  0.8092
  160SOL    HW2  639   0.588   1.184   1.564  0.9552  1.6486 -1.5048
  160SOL     MW  640   0.502   1.193   1.565 -0.3153  1.0724 -0.1433
  161SOL     OW  641   0.469   2.225   2.532 -0.4641 -0.3926  0.5180
  161SOL    HW1  642   0.377   2.252   2.535  2.9620 -0.1830  1.0083
  161SOL    HW2  643   0.477   2.163   2.465 -0.8652 -0.2307 -0.3440
  161SOL     MW  644   0.458   2.221   2.524 -0.0650 -0.3436  0.4689
  162SOL     OW  645   1.072   1.777   1.848  0.1266  0.1420 -0.1848
  162SOL    HW1  646   1.093   1.858   1.902  0.9833  1.6931 -0.4193
  162SOL    HW2  647   0.992   1.730   1.876  0.0850  0.9726  0.2578
  162SOL     MW  648   1.064   1.781   1.859  0.2342  0.4563 -0.1574
  163SOL     OW  649   2.050   3.057   0.896 -0.3806  0.7586 -0.1236
  163SOL    HW1  650   2.027   3.126   0.840 -2.2318 -1.8212  1.0971
  163SOL    HW2  651   2.056   2.979   0.837 -0.8008 -0.9401 -1.5193
  163SOL     MW  652   2.048   3.056   0.881 -0.6803  0.1941 -0.1467
  164SOL     OW  653   0.305   0.203   0.810  0.2311 -0.0655 -0.2111
  164SOL    HW1  654   0.207   0.216   0.839 -0.1309 -1.6526 -0.5253
  164SOL    HW2  655   0.299   0.138   0.740 -1.2035  0.6513  2.1093
  164SOL     MW  656   0.291   0.196   0.805 -0.0059 -0.1803  0.0536
  165SOL     OW  657   1.264   1.313   0.332 -0.7642  0.3064 -0.2068
  165SOL    HW1  658   1.272   1.253   0.415  0.9828  0.3698  1.8334
  165SOL    HW2  659   1.286   1.254   0.260 -1.1289  0.8108 -0.8603
  165SOL     MW  660   1.268   1.297   0.334 -0.5818  0.3813 -0.0238
  166SOL     OW  661   0.539   1.177   1.019 -0.2170 -0.6574  0.1753
  166SOL    HW1  662   0.478   1.171   1.088 -1.0922  0.0636  2.0105
  166SOL    HW2  663   0.610   1.115   1.041  1.6158 -1.1946 -1.3524
  166SOL     MW  664   0.540   1.168   1.031 -0.0907 -0.6332  0.2159
  167SOL     OW  665   0.815   1.102   0.250 -0.1268  0.2140 -0.0269
  167SOL    HW1  666   0.812   1.200   0.266  0.8680 -2.6707  0.5241
  167SOL    HW2  667   0.898   1.109   0.195  0.7304 -2.0185  0.9447
  167SOL     MW  668   0.825   1.116   0.245  0.1176 -0.4612  0.1740
  168SOL     OW  669   1.728   1.650   3.040  0.0745  0.1697  0.6777
  168SOL    HW1  670   1.647   1.691   3.012  3.4067 -3.0985  0.6704
  168SOL    HW2  671   1.713   1.554   3.011 -2.1109  0.6504 -1.2126
  168SOL     MW  672   1.715   1.643   3.032  0.2258 -0.1980  0.4273
  169SOL     OW  673   0.353   0.991   1.314 -0.3464  0.0636 -0.4847
  169SOL    HW1  674   0.396   0.968   1.398  0.3563  0.9012 -1.1783
  169SOL    HW2  675   0.396   1.073   1.289 -0.7774  0.7052  1.3173
  169SOL     MW  676   0.364   0.999   1.322 -0.3106  0.2587 -0.3384
  170SOL     OW  677   1.111   1.549   1.500  0.3967 -0.3251 -0.0108
  170SOL    HW1  678   1.055   1.625   1.512 -2.2491  0.9419  0.0547
  170SOL    HW2  679   1.085   1.514   1.411  0.2246  0.6692 -2.8188
  170SOL     MW  680   1.100   1.555   1.490  0.0249 -0.0267 -0.3726
  171SOL     OW  681   0.554   1.413   0.560 -0.2520  0.7314 -0.7508
  171SOL    HW1  682   0.536   1.434   0.656 -0.1305 -2.0483 -0.4629
  171SOL    HW2  683   0.550   1.318   0.569  0.6094  2.4038 -0.7498
  171SOL     MW  684   0.551   1.403   0.574 -0.1224  0.5853 -0.7127
  172SOL     OW  685   0.865   0.302   1.272  0.2144 -0.2051  0.5219
  172SOL    HW1  686   0.795   0.300   1.207 -0.2880 -2.3277 -0.7462
  172SOL    HW2  687   0.841   0.230   1.327  1.6278  3.2509 -0.5985
  172SOL     MW  688   0.853   0.292   1.271  0.3346 -0.0292  0.2068
  173SOL     OW  689   0.493   1.782   0.245  0.1706  0.0493  0.3743
  173SOL    HW1  690   0.488   1.683   0.241  0.3693 -0.8603 -1.7797
  173SOL    HW2  691   0.500   1.793   0.344  2.7825  0.0638  0.4629
  173SOL     MW  692   0.494   1.770   0.258  0.5414 -0.0688  0.1018
  174SOL     OW  693   1.857   0.890   1.505  0.4836 -0.1224  0.5482
  174SOL    HW1  694   1.807   0.809   1.512 -0.2762  1.0343  2.0943
  174SOL    HW2  695   1.873   0.910   1.414  0.3859 -1.0881  0.5295
  174SOL     MW  696   1.852   0.882   1.494  0.3705 -0.0972  0.7497
  175SOL     OW  697   0.481   1.487   0.248  0.3592 -0.5458  0.7833
  175SOL    HW1  698   0.427   1.424   0.197  1.7044  0.7147  0.1905
  175SOL    HW2  699   0.509   1.439   0.321 -1.5755  1.1102 -1.6643
  175SOL     MW  700   0.478   1.472   0.251  0.2814 -0.1610  0.3822
  176SOL     OW  701   0.167   1.474   1.199 -0.6282  0.1721 -0.0997
  176SOL    HW1  702   0.144   1.424   1.127 -4.2068  0.3400 -0.5971
  176SOL    HW2  703   0.089   1.457   1.249 -0.3121 -0.8440 -1.0462
  176SOL     MW  704   0.154   1.465   1.196 -1.0586  0.0602 -0.2902
  177SOL     OW  705   0.566   0.358   1.349 -0.3389  0.1952  0.2523
  177SOL    HW1  706   0.554   0.439   1.301 -1.1769 -3.5984  0.6775
  177SOL    HW2  707   0.572   0.389   1.445  0.1378  3.6110  0.1111
  177SOL     MW  708   0.565   0.373   1.355 -0.3865  0.1453  0.2897
  178SOL     OW  709   3.077   0.524   2.971  0.6218  0.1484 -0.1927
  178SOL    HW1  710   3.024   0.524   3.048  2.3589 -1.4074 -2.2029
  178SOL    HW2  711   3.009   0.499   2.901 -4.2235  1.4630  0.4554
  178SOL     MW  712   3.061   0.521   2.972  0.2117  0.1165 -0.3724
  179SOL     OW  713   1.561   1.428   1.355 -0.4948  0.3347  0.9894
  179SOL    HW1  714   1.529   1.463   1.432 -0.6872  2.4701 -0.5736
  179SOL    HW2  715   1.655   1.421   1.367 -0.2432  0.0356 -2.6875
  179SOL     MW  716   1.569   1.432   1.367 -0.4870  0.5770  0.2981
  180SOL     OW  717   2.993   0.221   0.475  0.3805  0.5722  0.2402
  180SOL    HW1  718   2.964   0.204   0.383  1.9235 -3.4112  2.8082
  180SOL    HW2  719   3.057   0.294   0.464  0.3436 -1.9694  1.8914
  180SOL     MW  720   2.997   0.229   0.461  0.5792 -0.2887  0.7969
  181SOL     OW  721   1.122   1.348   3.063  0.1397  0.1585  0.2180
  181SOL    HW1  722   1.192   1.410   3.087  2.3139 -0.0163 -0.4767
  181SOL    HW2  723   1.167   1.295   2.999  1.2489  0.1265 -1.0174
  181SOL     MW  724   1.137   1.349   3.058  0.5729  0.1312 -0.0366
  182SOL     OW  725   0.423   0.920   1.581 -0.5739  0.6272  0.0464
  182SOL    HW1  726   0.338   0.915   1.627  1.9497 -0.1674  4.3115
  182SOL    HW2  727   0.490   0.876   1.631 -1.0663  2.5161 -1.3144
  182SOL     MW  728   0.421   0.914   1.593 -0.3059  0.7716  0.4296
  183SOL     OW  729   1.588   1.731   1.227 -0.8881  0.0868 -0.3162
  183SOL    HW1  730   1.684   1.725   1.235  0.2838 -1.3613  0.2416
  183SOL    HW2  731   1.565   1.669   1.296  3.6170 -1.4838  1.3863
  183SOL     MW  732   1.598   1.722   1.237 -0.1391 -0.3115 -0.0180
  184SOL     OW  733   0.814   0.729   1.911  0.2794  0.0409 -0.6246
  184SOL    HW1  734   0.868   0.759   1.841 -0.5583 -1.3475  1.5183
  184SOL    HW2  735   0.856   0.650   1.942 -0.5325 -1.7588 -3.3243
  184SOL     MW  736   0.827   0.723   1.906  0.0617 -0.3797 -0.6980
  185SOL     OW  737   1.114   0.957   1.922 -0.1640 -0.5838  0.1233
  185SOL    HW1  738   1.124   0.875   1.975 -0.6016 -1.6987  0.4975
  185SOL    HW2  739   1.129   1.021   1.985  0.9991 -1.3926 -0.1172
  185SOL     MW  740   1.117   0.955   1.937 -0.0683 -0.8376  0.1410
  186SOL     OW  741   0.373   1.683   1.455 -0.0604  0.3066 -0.2514
  186SOL    HW1  742   0.404   1.639   1.373 -0.0684  1.6598 -2.2670
  186SOL    HW2  743   0.289   1.642   1.482  2.6543  3.1235  1.3818
  186SOL     MW  744   0.366   1.672   1.448  0.2968  0.8568 -0.3019
  187SOL     OW  745   1.510   0.717   1.350 -0.3767 -0.3879  0.0038
  187SOL    HW1  746   1.561   0.703   1.429  2.1363  0.5791 -1.0135
  187SOL    HW2  747   1.426   0.685   1.382  2.7674 -2.4909  0.2618
  187SOL     MW  748   1.505   0.711   1.365  0.3697 -0.5378 -0.0964
  188SOL     OW  749   1.908   1.163   0.826  0.0819 -0.0908 -0.4266
  188SOL    HW1  750   1.926   1.166   0.917  1.2881 -1.5615 -3.8312
  188SOL    HW2  751   1.937   1.079   0.791  0.4275 -0.2124 -2.7226
  188SOL     MW  752   1.914   1.152   0.833  0.2866 -0.3009 -1.1787
  189SOL     OW  753   0.697   0.802   0.844  0.3424 -0.3533 -0.0125
  189SOL    HW1  754   0.615   0.856   0.852 -5.6152 -1.9068 -0.9222
  189SOL    HW2  755   0.741   0.854   0.913 -0.3839  0.8250  0.5869
  189SOL     MW  756   0.692   0.816   0.854 -0.5395 -0.4028 -0.0534
  190SOL     OW  757   1.856   0.262   2.191 -0.2362  1.0712 -0.3206
  190SOL    HW1  758   1.876   0.204   2.265 -2.0875 -0.7154 -1.2499
  190SOL    HW2  759   1.935   0.297   2.156 -0.6295 -1.3704  2.6971
  190SOL     MW  760   1.869   0.259   2.196 -0.5324  0.5134 -0.0450
  191SOL     OW  761   1.547   0.944   1.179 -0.2689  0.3056  0.0531
  191SOL    HW1  762   1.530   1.021   1.228 -0.3442 -1.8041  0.6966
  191SOL    HW2  763   1.534   0.875   1.241  0.7094  1.9308 -0.4071
  191SOL     MW  764   1.543   0.945   1.194 -0.1498  0.2417  0.0773
  192SOL     OW  765   0.561   2.119   2.778 -0.2012 -0.2481  0.3238
  192SOL    HW1  766   0.511   2.139   2.698 -0.1154 -1.3506 -0.1778
  192SOL    HW2  767   0.590   2.025   2.769  1.3494  1.1294 -0.5982
  192SOL     MW  768   0.558   2.109   2.766  0.0147 -0.2118  0.1360
  193SOL     OW  769   0.905   1.593   0.753 -0.1208 -0.0608 -0.2693
  193SOL    HW1  770   0.831   1.598   0.818  2.1313  0.1647 -1.6134
  193SOL    HW2  771   0.897   1.515   0.684  1.0840 -0.2521 -0.1960
  193SOL     MW  772   0.894   1.584   0.753  0.3353 -0.0563 -0.4369
  194SOL     OW  773   0.492   1.443   0.892  0.4118 -0.0869 -0.2083
  194SOL    HW1  774   0.508   1.348   0.902 -0.6667 -2.8133 -0.0325
  194SOL    HW2  775   0.398   1.455   0.885  0.8241 -2.6036 -0.1607
  194SOL     MW  776   0.482   1.432   0.893  0.3239 -0.7787 -0.1788
  195SOL     OW  777   1.288   1.141   2.945 -0.4632 -0.5647  0.3528
  195SOL    HW1  778   1.338   1.149   3.029  1.0975 -0.6246 -0.4338
  195SOL    HW2  779   1.259   1.055   2.932  0.7491  2.0326 -0.7898
  195SOL     MW  780   1.290   1.131   2.954 -0.0973 -0.2299  0.0982
  196SOL     OW  781   2.197   1.006   0.524 -0.3723  0.0804 -0.0771
  196SOL    HW1  782   2.180   1.012   0.435  1.0016  1.3235 -0.7728
  196SOL    HW2  783   2.203   1.103   0.544  0.8202 -0.5057 -1.4921
  196SOL     MW  784   2.195   1.020   0.515 -0.0337  0.1671 -0.3556
  197SOL     OW  785   0.620   1.350   2.170 -0.5759 -0.0765  0.4014
  197SOL    HW1  786   0.659   1.261   2.141 -0.2111 -4.5683  0.3287
  197SOL    HW2  787   0.641   1.403   2.091  0.3337  0.9660 -0.4801
  197SOL     MW  788   0.628   1.345   2.156 -0.4077 -0.5316  0.2755
  198SOL     OW  789   2.935   1.403   1.006  0.0078  0.1300 -0.3955
  198SOL    HW1  790   2.890   1.477   0.961 -0.8461  0.7127 -2.3861
  198SOL    HW2  791   2.865   1.347   1.030  0.9243  0.4953 -0.8512
  198SOL     MW  792   2.920   1.405   1.004  0.0161  0.2551 -0.7183
  199SOL     OW  793   0.656   1.377   1.881  1.5333 -0.2964  0.6838
  199SOL    HW1  794   0.562   1.346   1.885  1.1198 -0.4858 -2.1208
  199SOL    HW2  795   0.670   1.402   1.788  2.9414 -0.8508  1.6391
  199SOL     MW  796   0.646   1.376   1.870  1.6645 -0.3945  0.4398
  200SOL     OW  797   1.869   2.921   1.378 -0.0575 -0.6461  0.2169
  200SOL    HW1  798   1.922   2.945   1.299 -0.4047  1.6318  0.1534
  200SOL    HW2  799   1.785   2.975   1.383 -0.3906  3.1768 -1.0946
  200SOL     MW  800   1.865   2.932   1.368 -0.1473  0.1588  0.0355
  201SOL     OW  801   0.980   0.349   0.754 -0.0292 -0.5702 -0.6768
  201SOL    HW1  802   0.998   0.260   0.728  0.0675  1.6216  1.2156
  201SOL    HW2  803   1.063   0.378   0.800  1.8893  0.7306  1.8223
  201SOL     MW  804   0.993   0.341   0.756  0.2367 -0.1094 -0.0974
  202SOL     OW  805   1.475   1.673   0.932 -0.4892  1.4469  0.6920
  202SOL    HW1  806   1.499   1.587   0.903  0.4996 -0.1433  1.7243
  202SOL    HW2  807   1.502   1.685   1.021 -1.1106  2.0841  0.4517
  202SOL     MW  808   1.482   1.663   0.940 -0.4407  1.3211  0.7965
  203SOL     OW  809   3.025   0.445   1.456 -0.3548 -0.3275  0.4736
  203SOL    HW1  810   3.063   0.362   1.423  0.3557  2.6342 -1.2685
  203SOL    HW2  811   3.086   0.501   1.505  0.9986 -1.2103  1.4131
  203SOL     MW  812   3.038   0.442   1.458 -0.0825 -0.0532  0.3677
  204SOL     OW  813   1.028   1.799   0.612  0.0368  0.0054 -0.0258
  204SOL    HW1  814   0.996   1.731   0.677 -2.6947  0.5255  1.9785
  204SOL    HW2  815   0.950   1.803   0.553 -0.5990 -0.2199  0.4721
  204SOL     MW  816   1.014   1.791   0.613 -0.4075  0.0443  0.3044
  205SOL     OW  817   1.414   3.092   1.307 -0.0343 -0.1264  0.2599
  205SOL    HW1  818   1.453   3.078   1.219 -0.7443 -1.7636  0.4614
  205SOL    HW2  819   1.348   3.158   1.294 -0.4077 -0.8803  0.3497
  205SOL     MW  820   1.411   3.099   1.293 -0.1772 -0.4419  0.2984
  206SOL     OW  821   0.506   3.093   1.409  0.0557 -0.3027 -0.6667
  206SOL    HW1  822   0.454   3.087   1.328 -1.4234 -1.0356  1.6411
  206SOL    HW2  823   0.584   3.041   1.391  0.7372 -0.1389 -0.6469
  206SOL     MW  824   0.509   3.086   1.396 -0.0495 -0.3778 -0.3596
  207SOL     OW  825   0.906   1.633   0.228 -0.0546  0.1632  0.1558
  207SOL    HW1  826   0.904   1.698   0.161 -0.2164  0.4568 -1.6514
  207SOL    HW2  827   0.997   1.634   0.261 -0.8230  2.0869  0.9038
  207SOL     MW  828   0.917   1.642   0.224 -0.1773  0.4557  0.0160
  208SOL     OW  829   0.684   1.702   1.367 -0.9683  0.2404  0.2944
  208SOL    HW1  830   0.755   1.719   1.434 -0.1144 -2.2108 -0.2262
  208SOL    HW2  831   0.725   1.648   1.305 -3.1139  2.4608  1.7757
  208SOL     MW  832   0.699   1.697   1.367 -1.1387  0.2100  0.4212
  209SOL     OW  833   1.544   0.538   2.805 -0.4969  0.2599 -0.7946
  209SOL    HW1  834   1.561   0.624   2.844 -0.4836 -1.5577 -1.1524
  209SOL    HW2  835   1.617   0.480   2.827 -0.7313  0.9484 -0.6039
  209SOL     MW  836   1.556   0.541   2.813 -0.5261  0.1109 -0.8166
  210SOL     OW  837   1.462   1.382   0.878  0.0283  0.6751  0.8514
  210SOL    HW1  838   1.556   1.392   0.842 -1.3144  1.9850  0.1878
  210SOL    HW2  839   1.401   1.402   0.802 -1.0173 -0.9953  0.4029
  210SOL     MW  840   1.466   1.386   0.863 -0.2868  0.6275  0.7047
  211SOL     OW  841   1.709   0.277   1.012 -0.2231  0.2907 -0.0259
  211SOL    HW1  842   1.696   0.288   0.917 -1.8199 -2.5066 -1.6448
  211SOL    HW2  843   1.802   0.297   1.015  0.3684  0.8356  0.4588
  211SOL     MW  844   1.720   0.281   1.000 -0.3557 -0.0065 -0.1755
  212SOL     OW  845   0.306   1.053   0.172  0.5696  0.2980 -0.1063
  212SOL    HW1  846   0.231   1.004   0.202 -0.4095 -0.6959 -0.8170
  212SOL    HW2  847   0.360   0.987   0.123 -0.8087 -3.1886  0.8573
  212SOL     MW  848   0.303   1.037   0.169  0.2586 -0.2932 -0.0729
  213SOL     OW  849   0.484   1.744   2.983 -0.1639  0.1252 -0.5473
  213SOL    HW1  850   0.502   1.819   3.039 -1.1023  0.3012 -0.0001
  213SOL    HW2  851   0.533   1.767   2.906 -2.8302  2.2099  1.1574
  213SOL     MW  852   0.492   1.757   2.980 -0.6395  0.4235 -0.2502
  214SOL     OW  853   0.640   0.364   2.150 -0.4015 -0.0854 -0.6307
  214SOL    HW1  854   0.582   0.434   2.178  3.8494  1.5268 -1.2474
  214SOL    HW2  855   0.599   0.348   2.065 -0.5935 -1.4786 -3.5153
  214SOL     MW  856   0.627   0.371   2.142  0.1340 -0.0565 -1.0926
  215SOL     OW  857   0.484   0.662   2.636 -0.5618 -0.5843  0.0361
  215SOL    HW1  858   0.462   0.690   2.549  2.5117  0.9916 -0.0555
  215SOL    HW2  859   0.402   0.634   2.674  0.7199 -0.0738  2.1078
  215SOL     MW  860   0.470   0.662   2.630  0.0128 -0.3090  0.2974
  216SOL     OW  861   2.990   3.034   2.747 -0.0183  0.8482 -0.1912
  216SOL    HW1  862   2.907   3.051   2.789 -1.2058  0.3315  2.0192
  216SOL    HW2  863   3.006   3.115   2.708 -2.1431  0.6126  0.6488
  216SOL     MW  864   2.981   3.047   2.747 -0.4554  0.7489  0.2113
  217SOL     OW  865   1.045   1.124   0.098 -0.0108 -0.1757 -0.4435
  217SOL    HW1  866   1.089   1.068   0.036 -0.1407  0.3314 -1.7952
  217SOL    HW2  867   1.081   1.209   0.062  1.7657  0.2783 -1.5964
  217SOL     MW  868   1.055   1.128   0.085  0.2064 -0.0489 -0.7739
  218SOL     OW  869   0.881   1.354   2.658 -0.4497  0.6699 -0.0996
  218SOL    HW1  870   0.863   1.284   2.724 -0.6429 -0.8297  0.0745
  218SOL    HW2  871   0.975   1.368   2.649 -0.4721  1.8269  2.3291
  218SOL     MW  872   0.891   1.347   2.665 -0.4782  0.6247  0.2438
  219SOL     OW  873   1.131   0.341   2.607 -0.2154 -0.0631 -0.0335
  219SOL    HW1  874   1.213   0.394   2.639  1.0989 -0.9224 -0.2425
  219SOL    HW2  875   1.084   0.408   2.564  3.6133 -1.5086  0.0691
  219SOL     MW  876   1.136   0.357   2.606  0.4631 -0.3672 -0.0475
  220SOL     OW  877   1.668   0.457   2.226 -0.6028 -0.1284  0.3814
  220SOL    HW1  878   1.618   0.488   2.152  0.5654 -2.0495  0.9937
  220SOL    HW2  879   1.712   0.376   2.199  1.4193 -0.0250  2.2478
  220SOL     MW  880   1.667   0.451   2.213 -0.1819 -0.3682  0.7084
  221SOL     OW  881   0.338   1.315   2.916 -0.2203 -0.8951 -0.3449
  221SOL    HW1  882   0.411   1.261   2.888  0.6295 -0.6839  0.0162
  221SOL    HW2  883   0.364   1.401   2.882  2.2479  2.3883  3.1526
  221SOL     MW  884   0.351   1.319   2.908  0.2175 -0.4340  0.1642
  222SOL     OW  885   0.471   0.951   2.627  0.2741 -0.2340  0.0684
  222SOL    HW1  886   0.390   0.977   2.584  0.7816 -0.6424  1.3858
  222SOL    HW2  887   0.490   0.860   2.622 -3.2168  1.3143 -3.4047
  222SOL     MW  888   0.463   0.942   2.620 -0.1195 -0.0836 -0.2161
  223SOL     OW  889   0.095   1.999   2.521  0.3412  0.0352 -0.0107
  223SOL    HW1  890   0.098   1.975   2.615  1.3058 -1.2764 -1.5586
  223SOL    HW2  891   0.120   2.092   2.522  0.7444 -3.3346  0.0314
  223SOL     MW  892   0.099   2.008   2.534  0.5217 -0.5824 -0.2094
  224SOL     OW  893   1.536   0.750   2.517 -0.5630  0.7439 -0.0726
  224SOL    HW1  894   1.569   0.737   2.608  0.7259 -0.9970 -0.1125
  224SOL    HW2  895   1.548   0.843   2.503 -0.2237 -0.3486 -0.9413
  224SOL     MW  896   1.542   0.761   2.527 -0.3482  0.3701 -0.1925
  225SOL     OW  897   2.914   1.462   2.276  0.1185 -0.5645 -0.7329
  225SOL    HW1  898   2.963   1.510   2.211  0.4369 -0.9833 -0.8903
  225SOL    HW2  899   2.848   1.521   2.317 -1.7961 -0.0628 -2.4124
  225SOL     MW  900   2.912   1.476   2.273 -0.0921 -0.5536 -0.9752
  226SOL     OW  901   0.413   1.509   2.730 -0.0953 -0.3316 -0.8234
  226SOL    HW1  902   0.508   1.490   2.701  1.4607  2.8798 -1.4785
  226SOL    HW2  903   0.395   1.599   2.707  1.2744 -1.0880 -1.2812
  226SOL     MW  904   0.423   1.519   2.723  0.2907 -0.0077 -0.9702
  227SOL     OW  905   0.543   1.130   2.833  0.2238  0.1658 -0.0955
  227SOL    HW1  906   0.638   1.116   2.848 -1.7638 -0.7465  3.6016
  227SOL    HW2  907   0.517   1.092   2.752 -0.5360 -1.9465  0.8679
  227SOL     MW  908   0.552   1.123   2.825 -0.1387 -0.2333  0.5194
  228SOL     OW  909   0.756   1.124   2.069  0.2285 -0.0930 -0.1593
  228SOL    HW1  910   0.765   1.170   1.987  0.8295  0.7618 -0.5534
  228SOL    HW2  911   0.832   1.153   2.124 -1.5419  1.6429  1.8106
  228SOL     MW  912   0.767   1.134   2.066  0.0742  0.2488  0.0486
  229SOL     OW  913   0.150   0.669   0.038  0.2402 -0.0601 -0.6388
  229SOL    HW1  914   0.107   0.643  -0.044 -0.8789  0.3475 -0.6055
  229SOL    HW2  915   0.154   0.593   0.091 -1.0827  1.5325 -0.5074
  229SOL     MW  916   0.145   0.656   0.034 -0.0820  0.2038 -0.6170
  230SOL     OW  917   1.792   1.339   2.017  0.2700  0.1633  0.3493
  230SOL    HW1  918   1.733   1.331   2.088  0.1570 -0.5791 -1.9510
  230SOL    HW2  919   1.832   1.254   1.994 -1.3044  0.6359 -0.0541
  230SOL     MW  920   1.789   1.326   2.023  0.0474  0.1277 -0.0074
  231SOL     OW  921   2.745   1.265   2.188 -0.2784 -0.0817  0.2895
  231SOL    HW1  922   2.789   1.346   2.206 -0.5092  1.5901 -2.5372
  231SOL    HW2  923   2.703   1.291   2.106  0.1949  3.1673  2.4206
  231SOL     MW  924   2.746   1.279   2.180 -0.2464  0.5676  0.1977
  232SOL     OW  925   2.248   0.840   2.007  0.1605 -0.4440 -1.1027
  232SOL    HW1  926   2.186   0.870   1.942  1.3985  2.2989 -0.3010
  232SOL    HW2  927   2.213   0.854   2.097  0.7213  3.2305  1.7264
  232SOL     MW  928   2.235   0.846   2.010  0.3978  0.4027 -0.6237
  233SOL     OW  929   2.058   0.403   2.058 -0.4373  0.5464  0.4000
  233SOL    HW1  930   2.127   0.357   2.006  1.2736 -2.2524 -1.0333
  233SOL    HW2  931   2.110   0.464   2.110 -0.7684 -1.3432  0.0135
  233SOL     MW  932   2.074   0.405   2.058 -0.2552 -0.0722  0.1599
  234SOL     OW  933   0.203   1.053   2.554  0.8656  0.3258  0.8842
  234SOL    HW1  934   0.115   1.052   2.511  1.1775 -2.0510  2.0284
  234SOL    HW2  935   0.240   1.145   2.543 -0.2638  1.3414  1.8230
  234SOL     MW  936   0.196   1.065   2.547  0.7577  0.1462  1.1590
  235SOL     OW  937   1.106   3.050   2.792 -0.9702  0.6596 -0.0185
  235SOL    HW1  938   1.123   3.000   2.868  0.3629 -1.4948 -2.0235
  235SOL    HW2  939   1.117   3.143   2.822  0.7575 -0.8816 -1.9834
  235SOL     MW  940   1.110   3.056   2.806 -0.5664  0.1720 -0.5423
  236SOL     OW  941   2.943   0.597   0.111  0.5790  0.2084  1.1291
  236SOL    HW1  942   2.853   0.638   0.107 -0.1907 -0.5033 -2.1194
  236SOL    HW2  943   3.001   0.673   0.087 -0.0021  3.2409 -0.3601
  236SOL     MW  944   2.939   0.612   0.107  0.4008  0.5146  0.5040
  237SOL     OW  945   1.985   1.142   2.209 -0.3181 -0.1320 -0.5499
  237SOL    HW1  946   1.921   1.113   2.141 -0.6218  0.0419 -2.2121
  237SOL    HW2  947   2.035   1.060   2.222 -2.8869  0.9520 -2.1578
  237SOL     MW  948   1.983   1.128   2.202 -0.6971  0.0339 -0.9814
  238SOL     OW  949   1.078   1.767   2.937 -0.0552  0.0064 -0.1781
  238SOL    HW1  950   1.012   1.704   2.964  1.3315 -1.4249 -1.7157
  238SOL    HW2  951   1.158   1.716   2.936  0.0767  0.4668 -1.0985
  238SOL     MW  952   1.080   1.752   2.941  0.1452 -0.1217 -0.5024
  239SOL     OW  953   1.232   1.411   2.370 -0.3863 -0.4808 -0.4814
  239SOL    HW1  954   1.189   1.421   2.459  1.7830 -0.3091  1.0103
  239SOL    HW2  955   1.230   1.316   2.365 -0.2671 -2.8025 -3.8687
  239SOL     MW  956   1.226   1.400   2.381 -0.0844 -0.7645 -0.7315
  240SOL     OW  957   0.633   0.925   2.306 -0.0097 -0.0677 -0.3130
  240SOL    HW1  958   0.688   0.963   2.381  0.6437  1.2584  3.4176
  240SOL    HW2  959   0.703   0.873   2.268  2.5953  3.0918  0.9060
  240SOL     MW  960   0.650   0.923   2.311  0.4202  0.5241  0.3400
  241SOL     OW  961   0.673   0.409   0.021 -0.3996 -0.0098  0.3855
  241SOL    HW1  962   0.712   0.470   0.089  1.7059  1.4173 -1.0857
  241SOL    HW2  963   0.623   0.467  -0.040 -1.3621  2.1867 -2.1223
  241SOL     MW  964   0.672   0.424   0.022 -0.2488  0.4683 -0.1395
  242SOL     OW  965   1.492   1.717   2.301  0.2496  0.0111  0.0921
  242SOL    HW1  966   1.434   1.786   2.271  0.0728 -0.2036 -1.3801
  242SOL    HW2  967   1.445   1.642   2.261 -2.1428 -0.6605 -1.5577
  242SOL     MW  968   1.478   1.716   2.292 -0.0894 -0.1058 -0.3198
  243SOL     OW  969   0.984   0.186   2.410  1.1168  1.1268 -0.8075
  243SOL    HW1  970   1.071   0.185   2.370  1.2162  0.2847 -2.7945
  243SOL    HW2  971   1.007   0.226   2.495 -2.2259 -0.6559 -0.3107
  243SOL     MW  972   0.998   0.191   2.416  0.6889  0.7805 -1.0041
  244SOL     OW  973   0.150   0.809   2.346 -0.4957 -0.3028  0.2658
  244SOL    HW1  974   0.128   0.900   2.340  1.1548 -2.1360 -1.7193
  244SOL    HW2  975   0.247   0.808   2.363  0.4376  0.1699  1.3027
  244SOL     MW  976   0.160   0.821   2.348 -0.1548 -0.4823  0.1407
  245SOL     OW  977   1.227   0.198   2.307 -0.2183  0.2417 -0.0914
  245SOL    HW1  978   1.293   0.128   2.301  1.5584 -1.8106  2.5543
  245SOL    HW2  979   1.281   0.263   2.356  1.9117  2.0288 -1.5001
  245SOL     MW  980   1.243   0.197   2.313  0.2971  0.2067  0.0718
  246SOL     OW  981   1.194   1.151   2.116 -0.5405 -0.3667  0.0005
  246SOL    HW1  982   1.127   1.121   2.183  0.9264  1.4660  1.5419
  246SOL    HW2  983   1.280   1.102   2.125  2.0891 -0.3243 -0.2407
  246SOL     MW  984   1.197   1.141   2.126 -0.0000 -0.1193  0.1721
  247SOL     OW  985   0.753   0.618   0.212 -0.4598  0.3164  0.0767
  247SOL    HW1  986   0.708   0.698   0.195  1.9733  0.2820 -2.2381
  247SOL    HW2  987   0.835   0.631   0.161  2.3537 -0.4038  1.0839
  247SOL     MW  988   0.758   0.630   0.203  0.2324  0.2169 -0.0958
  248SOL     OW  989   0.323   1.294   2.575  0.3875  0.5319 -0.1915
  248SOL    HW1  990   0.351   1.337   2.491 -0.4887 -1.2825  0.1212
  248SOL    HW2  991   0.331   1.363   2.638 -1.2614 -1.3304 -1.1279
  248SOL     MW  992   0.328   1.309   2.572  0.0543  0.0468 -0.2738
  249SOL     OW  993   0.039   1.873   2.761 -0.9243  0.6247  0.4982
  249SOL    HW1  994  -0.001   1.792   2.731 -2.7467 -0.5140  1.7883
  249SOL    HW2  995   0.115   1.845   2.812  0.9799 -3.1542 -1.1104
  249SOL     MW  996   0.043   1.859   2.764 -0.9135 -0.0241  0.4562
  250SOL     OW  997   2.133   0.899   2.267  0.0535  0.5174  0.1698
  250SOL    HW1  998   2.131   0.802   2.263  0.6739 -0.5290  0.7300
  250SOL    HW2  999   2.215   0.935   2.303 -0.0824 -0.9631  0.7934
  250SOL     MW 1000   2.144   0.891   2.272  0.1174  0.1840  0.3260
  251SOL     OW 1001   0.169   0.890   1.947  0.4130  0.4532 -0.2360
  251SOL    HW1 1002   0.164   0.795   1.965  3.1739 -2.0757  0.1116
  251SOL    HW2 1003   0.172   0.893   1.853  0.5180  0.8421  2.1234
  251SOL     MW 1004   0.169   0.878   1.937  0.7911  0.1708  0.1212
  252SOL     OW 1005   1.695   0.983   2.919 -0.4387  0.5866 -0.3672
  252SOL    HW1 1006   1.714   1.037   2.993  0.3888 -1.0627 -0.0811
  252SOL    HW2 1007   1.774   0.995   2.867 -1.6793  1.0141 -1.9467
  252SOL     MW 1008   1.708   0.991   2.922 -0.4932  0.4254 -0.5379
  253SOL     OW 1009   1.124   1.729   2.482 -0.0223 -0.2679 -0.2237
  253SOL    HW1 1010   1.114   1.713   2.379  0.3680  1.5272 -2.2980
  253SOL    HW2 1011   1.068   1.813   2.484  0.5161  0.5761 -0.6147
  253SOL     MW 1012   1.115   1.738   2.469  0.1002  0.0803 -0.5490
  254SOL     OW 1013   0.951   1.104   2.241 -0.5881 -0.1244 -0.0870
  254SOL    HW1 1014   0.911   1.016   2.257  3.1238 -1.4664 -0.2622
  254SOL    HW2 1015   0.909   1.168   2.304 -0.1696 -3.1125 -0.5480
  254SOL     MW 1016   0.940   1.101   2.252 -0.0431 -0.6957 -0.1709
  255SOL     OW 1017   0.845   2.504   2.173  0.4140  0.0622  0.6917
  255SOL    HW1 1018   0.759   2.453   2.169 -0.9308 -3.2027  0.2980
  255SOL    HW2 1019   0.905   2.434   2.197 -1.5595 -1.5738  3.3017
  255SOL     MW 1020   0.841   2.488   2.175 -0.0239 -0.5844  0.9842
  256SOL     OW 1021   1.260   2.731   2.968 -0.5948  0.2455  0.2267
  256SOL    HW1 1022   1.210   2.681   2.908 -1.0121 -1.6871  0.6104
  256SOL    HW2 1023   1.336   2.764   2.919  1.0050 -1.6386 -1.8893
  256SOL     MW 1024   1.263   2.729   2.954 -0.4388 -0.2581 -0.0018
  257SOL     OW 1025   0.095   1.931   0.008 -1.0842 -0.6005 -0.1785
  257SOL    HW1 1026   0.165   1.949   0.078 -1.7198  1.7067 -0.8952
  257SOL    HW2 1027   0.127   1.853  -0.039  0.8691 -3.2072  0.2222
  257SOL     MW 1028   0.108   1.923   0.011 -0.9103 -0.6400 -0.2202
  258SOL     OW 1029   0.791   0.996   2.506 -0.5482 -0.4386 -0.4921
  258SOL    HW1 1030   0.805   1.091   2.475  1.2682  0.4076  3.3925
  258SOL    HW2 1031   0.748   0.999   2.594 -0.8803 -0.1903  3.7991
  258SOL     MW 1032   0.787   1.009   2.514 -0.3524 -0.2942  0.5866
  259SOL     OW 1033   0.879   0.410   2.279 -0.2171  0.2785 -0.0826
  259SOL    HW1 1034   0.793   0.380   2.241  0.8377 -0.9099 -0.7631
  259SOL    HW2 1035   0.924   0.336   2.325 -1.7001  0.4862 -0.1408
  259SOL     MW 1036   0.873   0.397   2.280 -0.2736  0.1491 -0.1800
  260SOL     OW 1037   0.635   0.130   1.619  0.4883 -0.4103  0.2564
  260SOL    HW1 1038   0.585   0.127   1.542  0.3742 -0.7130  1.5660
  260SOL    HW2 1039   0.720   0.128   1.573  1.8964 -0.4346  0.6463
  260SOL     MW 1040   0.640   0.129   1.603  0.6590 -0.4535  0.4807
  261SOL     OW 1041   1.138   0.718   2.036 -0.4911  0.1887  0.1535
  261SOL    HW1 1042   1.145   0.712   2.139 -0.2458  1.5243 -0.0199
  261SOL    HW2 1043   1.080   0.648   2.011 -0.2888 -0.1930 -0.2332
  261SOL     MW 1044   1.131   0.708   2.046 -0.4321  0.3146  0.0796
  262SOL     OW 1045   1.070   0.329   0.193  0.2628  0.4868  0.1208
  262SOL    HW1 1046   1.159   0.347   0.164 -0.6824 -3.4850  1.1051
  262SOL    HW2 1047   1.026   0.270   0.134  1.1037 -0.4971  1.6213
  262SOL     MW 1048   1.076   0.324   0.181  0.2491 -0.1671  0.4486
  263SOL     OW 1049   0.436   0.039   2.479 -0.8010  0.1429  0.1459
  263SOL    HW1 1050   0.356   0.088   2.476 -1.4814 -0.8133  1.2532
  263SOL    HW2 1051   0.483   0.062   2.398 -1.0925 -0.2888 -0.7117
  263SOL     MW 1052   0.432   0.049   2.468 -0.9292 -0.0402  0.1788
  264SOL     OW 1053   1.550   1.333   1.881  0.1967  0.0498  0.3360
  264SOL    HW1 1054   1.535   1.243   1.853  0.2704  0.1713 -0.9952
  264SOL    HW2 1055   1.637   1.334   1.919  1.8431  2.0713  0.6145
  264SOL     MW 1056   1.559   1.321   1.882  0.4237  0.3326  0.1971
  265SOL     OW 1057   0.774   2.762   2.234 -0.2073 -0.6153 -0.1200
  265SOL    HW1 1058   0.813   2.673   2.225  1.5371  0.0012  2.7404
  265SOL    HW2 1059   0.759   2.764   2.328 -0.0748 -3.1454  1.2101
  265SOL     MW 1060   0.777   2.751   2.245  0.0403 -0.8678  0.4329
  266SOL     OW 1061   0.878   0.830   2.199  0.7084  0.4313 -0.4634
  266SOL    HW1 1062   0.880   0.807   2.103  0.4465  2.2871 -0.4257
  266SOL    HW2 1063   0.967   0.805   2.231  0.9169  1.1374  1.1578
  266SOL     MW 1064   0.890   0.823   2.191  0.7014  0.7693 -0.2445
  267SOL     OW 1065   1.338   1.767   2.653 -0.1856 -0.3374 -0.1371
  267SOL    HW1 1066   1.400   1.725   2.593 -0.7574  1.5817 -0.9931
  267SOL    HW2 1067   1.259   1.759   2.598  2.5767 -2.2668  2.0748
  267SOL     MW 1068   1.336   1.761   2.638  0.1034 -0.3388  0.0418
  268SOL     OW 1069   0.176   0.920   1.686 -0.7330  0.5541  0.6765
  268SOL    HW1 1070   0.144   0.998   1.634  0.8054  0.1196  0.0166
  268SOL    HW2 1071   0.103   0.862   1.662  2.1385  0.8689  0.2029
  268SOL     MW 1072   0.162   0.923   1.676 -0.1512  0.5383  0.5269
  269SOL     OW 1073   1.331   1.984   2.323  0.2664 -0.3376 -0.0603
  269SOL    HW1 1074   1.409   2.018   2.360  0.7402 -1.1469 -0.4502
  269SOL    HW2 1075   1.262   2.016   2.382 -1.7675  1.5258  2.1557
  269SOL     MW 1076   1.332   1.993   2.336  0.0606 -0.1985  0.1806
  270SOL     OW 1077   1.161   0.416   1.590 -0.1717  0.3953  0.3482
  270SOL    HW1 1078   1.136   0.344   1.644  2.7568 -0.5776 -0.7969
  270SOL    HW2 1079   1.259   0.410   1.594 -0.2811  1.1592  0.6829
  270SOL     MW 1080   1.170   0.405   1.598  0.2002  0.3677  0.2413
  271SOL     OW 1081   0.780   0.058   2.506  0.0269 -0.1750 -0.0679
  271SOL    HW1 1082   0.826  -0.015   2.541 -0.8656  1.8491 -0.2603
  271SOL    HW2 1083   0.841   0.110   2.454 -1.1196  2.8467 -3.6349
  271SOL     MW 1084   0.794   0.055   2.504 -0.2421  0.4907 -0.5639
  272SOL     OW 1085   1.492   2.822   2.842  0.0067  0.3571  0.0220
  272SOL    HW1 1086   1.475   2.802   2.747 -2.7258 -0.1607  1.7817
  272SOL    HW2 1087   1.499   2.915   2.857  1.3633  0.9252  1.9079
  272SOL     MW 1088   1.491   2.831   2.832 -0.1748  0.3638  0.5030
  273SOL     OW 1089   1.465   0.905   2.804 -0.4580 -0.1561 -0.1830
  273SOL    HW1 1090   1.545   0.947   2.832 -2.1316 -0.8503  0.6738
  273SOL    HW2 1091   1.440   0.977   2.747  1.0864 -0.0066  0.4272
  273SOL     MW 1092   1.472   0.920   2.800 -0.4750 -0.2280  0.0106
  274SOL     OW 1093   1.401   0.757   0.129 -0.2707  0.2793  0.1273
  274SOL    HW1 1094   1.455   0.684   0.162  1.7540  1.9536 -0.2776
  274SOL    HW2 1095   1.321   0.747   0.181 -2.5812  0.0113  0.0260
  274SOL     MW 1096   1.398   0.746   0.140 -0.3084  0.4648  0.0605
  275SOL     OW 1097   1.698   0.521   1.761  0.1070 -0.3143 -0.3957
  275SOL    HW1 1098   1.759   0.564   1.822  0.0965 -0.2263  0.3683
  275SOL    HW2 1099   1.702   0.429   1.796 -0.8024 -0.9727  0.7081
  275SOL     MW 1100   1.707   0.514   1.773 -0.0144 -0.3896 -0.1492
  276SOL     OW 1101   0.404   1.302   1.944  0.2976  0.0362 -0.1513
  276SOL    HW1 1102   0.415   1.207   1.961  0.6023  0.4315  2.0130
  276SOL    HW2 1103   0.344   1.309   2.016  1.4442 -2.2701 -0.1331
  276SOL     MW 1104   0.397   1.290   1.956  0.4891 -0.2160  0.1367
  277SOL     OW 1105   1.965   1.162   2.487  0.3337  0.4417 -0.0690
  277SOL    HW1 1106   1.989   1.257   2.504  1.2112  1.0072  1.8641
  277SOL    HW2 1107   1.961   1.152   2.390  2.8938 -0.4317  0.8523
  277SOL     MW 1108   1.967   1.173   2.476  0.7873  0.4010  0.3076
  278SOL     OW 1109   1.361   0.674   1.673 -0.0738  0.3616  0.4591
  278SOL    HW1 1110   1.329   0.592   1.710 -3.3001 -1.4097 -0.3081
  278SOL    HW2 1111   1.441   0.695   1.720  2.0559 -0.2124  2.9001
  278SOL     MW 1112   1.367   0.666   1.684 -0.2185  0.0522  0.6799
  279SOL     OW 1113   0.533   0.109   2.204 -0.4524 -0.6432 -0.3459
  279SOL    HW1 1114   0.614   0.060   2.218 -1.6107 -0.8738  0.6321
  279SOL    HW2 1115   0.551   0.204   2.205 -0.0840 -0.7466  1.7774
  279SOL     MW 1116   0.546   0.115   2.206 -0.5566 -0.6872  0.0633
  280SOL     OW 1117   1.421   0.993   2.159  0.2662  0.2837  0.0249
  280SOL    HW1 1118   1.486   0.936   2.112 -0.5030  3.5929 -1.1355
  280SOL    HW2 1119   1.433   0.994   2.259 -3.4487  1.5992  0.3778
  280SOL     MW 1120   1.431   0.986   2.166 -0.3255  0.8939 -0.0816
  281SOL     OW 1121   1.369   1.225   2.696  0.3920 -0.9000 -0.3194
  281SOL    HW1 1122   1.447   1.287   2.694 -0.2293  0.2684  1.3628
  281SOL    HW2 1123   1.344   1.213   2.791  0.2830  1.1039 -0.8940
  281SOL     MW 1124   1.376   1.231   2.709  0.2957 -0.4815 -0.1733
  282SOL     OW 1125   1.122   1.252   1.637 -0.2930  0.2769 -0.0712
  282SOL    HW1 1126   1.125   1.345   1.621  2.6145  1.6677  1.4837
  282SOL    HW2 1127   1.055   1.246   1.706  1.0742 -0.9935 -0.3807
  282SOL     MW 1128   1.113   1.263   1.644  0.2710  0.2928  0.0931
  283SOL     OW 1129   0.828   1.300   3.080 -0.1013  0.9600  0.6261
  283SOL    HW1 1130   0.913   1.290   3.132 -0.2976 -0.0773  1.6166
  283SOL    HW2 1131   0.834   1.394   3.060  1.7184  0.1121 -2.5446
  283SOL     MW 1132   0.840   1.311   3.084  0.1129  0.7113  0.3385
  284SOL     OW 1133   0.425   0.761   2.383  0.0328  0.1178  0.2310
  284SOL    HW1 1134   0.489   0.835   2.361 -0.4448  0.5448  0.3905
  284SOL    HW2 1135   0.446   0.700   2.307 -2.9124  1.5687 -0.5903
  284SOL     MW 1136   0.436   0.762   2.370 -0.4188  0.3656  0.1437
  285SOL     OW 1137   0.891   0.887   2.810 -0.2480  0.1168 -0.3796
  285SOL    HW1 1138   0.949   0.891   2.737 -2.0263  2.6586  0.6759
  285SOL    HW2 1139   0.844   0.805   2.803  0.6462  2.3355  0.4502
  285SOL     MW 1140   0.893   0.876   2.799 -0.3647  0.7449 -0.1308
  286SOL     OW 1141   1.117   1.462   2.610 -0.4010 -0.0415 -0.1092
  286SOL    HW1 1142   1.172   1.461   2.691  0.2497 -0.5405  0.5858
  286SOL    HW2 1143   1.101   1.552   2.586  0.5228 -1.0145  0.6768
  286SOL     MW 1144   1.122   1.474   2.617 -0.1933 -0.2357  0.0862
  287SOL     OW 1145   1.196   0.978   0.332  0.2216 -0.3864 -0.1662
  287SOL    HW1 1146   1.220   1.013   0.422  0.2957  0.3448  0.0984
  287SOL    HW2 1147   1.122   1.028   0.299  3.5826 -1.7410  0.3612
  287SOL     MW 1148   1.189   0.989   0.340  0.6749 -0.4687 -0.0617
  288SOL     OW 1149   1.493   0.589   2.054  0.1119  0.6430  0.1525
  288SOL    HW1 1150   1.440   0.587   2.134  0.7374  0.0485  0.7153
  288SOL    HW2 1151   1.523   0.668   2.020 -1.2220 -2.9792  0.1545
  288SOL     MW 1152   1.490   0.599   2.060  0.0184  0.0866  0.2270
  289SOL     OW 1153   1.064   0.983   2.553 -1.0429  0.1608 -0.0214
  289SOL    HW1 1154   1.123   0.903   2.552  0.9347  0.2816  0.7330
  289SOL    HW2 1155   0.983   0.962   2.513  0.3668 -1.6887  0.2201
  289SOL     MW 1156   1.061   0.970   2.548 -0.5960 -0.0673  0.1100
  290SOL     OW 1157   0.796   0.604   1.524  0.2789  0.1329 -0.6719
  290SOL    HW1 1158   0.843   0.573   1.445 -0.6032  1.6563 -2.6165
  290SOL    HW2 1159   0.862   0.585   1.590  0.1752 -1.4411 -1.2262
  290SOL     MW 1160   0.811   0.598   1.522  0.1489  0.1262 -1.0016
  291SOL     OW 1161   0.170   0.405   0.141  0.4021 -0.2285 -0.0843
  291SOL    HW1 1162   0.241   0.349   0.183  2.0900  0.3870  1.4220
  291SOL    HW2 1163   0.112   0.351   0.090 -1.8142  2.6241 -0.2967
  291SOL     MW 1164   0.172   0.390   0.140  0.3324  0.2291  0.0864
  292SOL     OW 1165   1.020   0.591   0.084  0.3691  0.1377 -0.4245
  292SOL    HW1 1166   1.061   0.664   0.130  3.0012 -0.1979  3.8931
  292SOL    HW2 1167   1.033   0.515   0.136  0.4791  1.3953 -1.3951
  292SOL     MW 1168   1.027   0.591   0.097  0.7309  0.2593  0.0171
  293SOL     OW 1169   0.138   0.166   2.474 -0.2548  0.8579  0.6455
  293SOL    HW1 1170   0.100   0.088   2.430  0.7166 -1.4292 -0.3630
  293SOL    HW2 1171   0.078   0.187   2.545 -1.1961 -0.5329 -1.1975
  293SOL     MW 1172   0.125   0.158   2.478 -0.2508  0.3727  0.2693
  294SOL     OW 1173   1.401   0.557   2.329 -0.3780 -0.2740 -0.3760
  294SOL    HW1 1174   1.448   0.612   2.394 -0.5439  2.0386 -1.1125
  294SOL    HW2 1175   1.441   0.474   2.342 -0.0249 -1.0863 -0.3754
  294SOL     MW 1176   1.412   0.553   2.339 -0.3533 -0.0761 -0.4731
  295SOL     OW 1177   0.956   0.530   2.539 -0.1379  0.0507  0.5272
  295SOL    HW1 1178   0.918   0.513   2.451  1.8081  2.5569 -1.8351
  295SOL    HW2 1179   0.880   0.558   2.599 -1.0931 -0.3757 -0.5755
  295SOL     MW 1180   0.941   0.531   2.536 -0.0072  0.3251  0.0700
  296SOL     OW 1181   1.218   0.266   2.049 -0.2514 -0.4011  0.2825
  296SOL    HW1 1182   1.303   0.222   2.035  0.0349 -0.5226  1.0975
  296SOL    HW2 1183   1.207   0.255   2.141  0.3332 -0.8828 -2.6948
  296SOL     MW 1184   1.228   0.259   2.059 -0.1365 -0.4807 -0.0028
  297SOL     OW 1185   1.434   0.407   1.556 -0.4667  0.1145 -0.1136
  297SOL    HW1 1186   1.486   0.476   1.605  2.2811 -0.5968  0.9800
  297SOL    HW2 1187   1.471   0.322   1.564 -0.6106 -0.2690  0.3850
  297SOL     MW 1188   1.445   0.405   1.563 -0.1231 -0.0300  0.0965
  298SOL     OW 1189   1.628   0.850   2.031 -0.7133  0.1396  0.4448
  298SOL    HW1 1190   1.691   0.901   1.979 -1.0255 -0.1506 -0.2270
  298SOL    HW2 1191   1.682   0.822   2.101  2.2500 -1.4283  0.6194
  298SOL     MW 1192   1.643   0.853   2.033 -0.3635 -0.1056  0.3792
  299SOL     OW 1193   0.620   1.109   0.028 -0.1232 -0.0780 -0.1267
  299SOL    HW1 1194   0.601   1.095  -0.062  2.0172  1.5728 -1.5604
  299SOL    HW2 1195   0.689   1.175   0.027  2.4817 -0.6831 -3.2366
  299SOL     MW 1196   0.626   1.116   0.016  0.5029  0.0600 -0.7262
  300SOL     OW 1197   1.233   1.167   2.473  0.1921 -0.6337 -0.3949
  300SOL    HW1 1198   1.177   1.092   2.501  1.1319  0.5364  0.4746
  300SOL    HW2 1199   1.272   1.182   2.561 -2.0279 -3.4087  0.3402
  300SOL     MW 1200   1.230   1.159   2.489  0.0232 -0.8454 -0.1831
  301SOL     OW 1201   1.445   0.965   0.661 -0.4948 -0.5621  0.0163
  301SOL    HW1 1202   1.468   1.003   0.744 -0.7815 -1.1274  0.3101
  301SOL    HW2 1203   1.399   0.887   0.670  1.8567  1.2812  0.4772
  301SOL     MW 1204   1.442   0.960   0.673 -0.2224 -0.3935  0.1159
  302SOL     OW 1205   0.199   1.550   2.019  0.5632 -0.5736  0.7090
  302SOL    HW1 1206   0.209   1.486   2.090 -1.0742 -0.2151  1.5582
  302SOL    HW2 1207   0.142   1.615   2.058  1.4517 -1.2012  0.7280
  302SOL     MW 1208   0.193   1.550   2.033  0.4644 -0.6091  0.8235
  303SOL     OW 1209   0.377   1.802   2.699 -0.2509  0.1904 -0.1012
  303SOL    HW1 1210   0.321   1.801   2.618 -4.3607 -0.3523  1.7852
  303SOL    HW2 1211   0.325   1.799   2.778 -2.2375  0.2507  0.1408
  303SOL     MW 1212   0.363   1.801   2.699 -1.0553  0.1267  0.1796
  304SOL     OW 1213   0.494   2.042   2.334 -0.0317 -0.2050 -0.5703
  304SOL    HW1 1214   0.575   2.092   2.301  3.1186 -1.9268 -0.9496
  304SOL    HW2 1215   0.548   1.970   2.363 -1.6847  1.1446  1.3982
  304SOL     MW 1216   0.512   2.039   2.333  0.1659 -0.2541 -0.3606
  305SOL     OW 1217   1.089   0.591   0.543  0.1104  0.4693  0.5037
  305SOL    HW1 1218   0.997   0.585   0.520  2.0833  1.1067 -1.8339
  305SOL    HW2 1219   1.122   0.503   0.565  0.4978  1.9340  1.5746
  305SOL     MW 1220   1.081   0.578   0.543  0.4218  0.7466  0.3366
  306SOL     OW 1221   1.190   1.560   0.256 -0.1618  0.0710 -0.4672
  306SOL    HW1 1222   1.225   1.475   0.299 -0.5119  0.8074 -1.0845
  306SOL    HW2 1223   1.245   1.560   0.176 -1.1037 -2.4379 -2.9924
  306SOL     MW 1224   1.202   1.549   0.251 -0.3323 -0.1629 -0.8818
  307SOL     OW 1225   1.337   0.452   1.866 -0.2259 -0.6165  0.0100
  307SOL    HW1 1226   1.302   0.386   1.928 -0.7390  2.1559  2.0699
  307SOL    HW2 1227   1.382   0.517   1.916 -0.7490  1.6963  0.7617
  307SOL     MW 1228   1.338   0.452   1.880 -0.3626  0.0545  0.3809
  308SOL     OW 1229   2.210   0.519   2.696  0.5633  0.1316 -0.6274
  308SOL    HW1 1230   2.307   0.521   2.715 -0.7807  0.0045 -0.6064
  308SOL    HW2 1231   2.174   0.609   2.672 -0.8719 -0.2579 -0.3139
  308SOL     MW 1232   2.218   0.531   2.695  0.1966  0.0635 -0.5833
  309SOL     OW 1233   0.471   0.531   0.231  0.1380  0.6896 -0.1118
  309SOL    HW1 1234   0.548   0.558   0.279  1.0650  1.4487 -3.6181
  309SOL    HW2 1235   0.472   0.434   0.224 -0.2476  0.4462  1.1636
  309SOL     MW 1236   0.481   0.522   0.237  0.2095  0.7577 -0.4062
  310SOL     OW 1237   0.446   0.580   1.893  0.8058 -0.6228 -0.2681
  310SOL    HW1 1238   0.480   0.496   1.875 -0.3748  3.0410 -0.0207
  310SOL    HW2 1239   0.496   0.640   1.834  0.0383  3.3091 -0.0878
  310SOL     MW 1240   0.457   0.577   1.883  0.5488  0.3794 -0.2117
  311SOL     OW 1241   1.887   0.642   1.942  0.0550  0.5039  0.6489
  311SOL    HW1 1242   1.850   0.658   2.028 -0.9105 -2.6382 -0.3842
  311SOL    HW2 1243   1.923   0.552   1.956 -1.5468  1.0009  1.9374
  311SOL     MW 1244   1.887   0.633   1.955 -0.2838  0.1549  0.6826
  312SOL     OW 1245   1.823   2.468   0.208 -0.0895 -0.4019  0.0622
  312SOL    HW1 1246   1.905   2.499   0.250  0.2487 -0.0446 -0.7702
  312SOL    HW2 1247   1.744   2.494   0.253 -0.9300 -1.3910 -2.3632
  312SOL     MW 1248   1.824   2.476   0.220 -0.1558 -0.4853 -0.3676
  313SOL     OW 1249   0.120   1.102   2.981 -0.3294 -0.5085  0.7836
  313SOL    HW1 1250   0.095   1.132   3.072 -0.8485 -1.5176 -0.7045
  313SOL    HW2 1251   0.192   1.166   2.962 -0.5503  2.3579 -1.3568
  313SOL     MW 1252   0.126   1.114   2.990 -0.4270 -0.2635  0.3048
  314SOL     OW 1253   2.151   3.005   2.961 -0.2431 -0.1615  0.2553
  314SOL    HW1 1254   2.076   3.039   2.908  0.7279 -2.1453  1.1746
  314SOL    HW2 1255   2.199   3.072   3.017 -1.9881 -1.7013  0.8887
  314SOL     MW 1256   2.148   3.019   2.961 -0.3453 -0.6264  0.4601
  315SOL     OW 1257   1.533   1.840   3.013  0.1326  0.1210  0.2144
  315SOL    HW1 1258   1.470   1.854   3.089 -1.4989  1.0870  0.4128
  315SOL    HW2 1259   1.563   1.930   2.981  2.3751 -2.0438  0.6274
  315SOL     MW 1260   1.529   1.853   3.019  0.2132 -0.0372  0.2950
  316SOL     OW 1261   1.280   0.546   2.718 -1.1100  0.2863 -0.0090
  316SOL    HW1 1262   1.371   0.563   2.745  2.2307 -0.4831 -0.7156
  316SOL    HW2 1263   1.215   0.559   2.792  0.7811  1.6538 -0.5253
  316SOL     MW 1264   1.283   0.550   2.731 -0.4197  0.3652 -0.1704
  317SOL     OW 1265   0.684   1.514   2.647 -0.1016  0.3952  0.1240
  317SOL    HW1 1266   0.758   1.441   2.655  1.0823 -2.9537  1.1029
  317SOL    HW2 1267   0.697   1.525   2.550  2.8702 -0.4743  0.8397
  317SOL     MW 1268   0.696   1.506   2.635  0.4467 -0.1614  0.3476
  318SOL     OW 1269   1.362   0.326   2.959 -0.1440 -0.2929 -0.3309
  318SOL    HW1 1270   1.267   0.344   2.936  1.7261  2.1472 -0.9452
  318SOL    HW2 1271   1.411   0.403   2.918 -1.0739  1.7171 -3.1312
  318SOL     MW 1272   1.356   0.339   2.951 -0.0199  0.2943 -0.7815
  319SOL     OW 1273   0.860   0.375   2.920 -0.3072 -0.9035  0.0954
  319SOL    HW1 1274   0.825   0.328   2.843  4.9224 -0.2188  0.2973
  319SOL    HW2 1275   0.796   0.372   2.990 -1.1715 -1.1230 -0.1664
  319SOL     MW 1276   0.847   0.369   2.919  0.2688 -0.8421  0.0875
  320SOL     OW 1277   1.065   1.364   1.987 -0.3083  0.6150  0.4940
  320SOL    HW1 1278   1.133   1.299   2.021  0.0627 -0.2215  1.1265
  320SOL    HW2 1279   1.126   1.436   1.962  0.7818  1.1846 -3.2846
  320SOL     MW 1280   1.082   1.365   1.988 -0.1156  0.5798  0.0789
  321SOL     OW 1281   1.130   0.916   3.022 -0.4548 -0.0972 -0.1012
  321SOL    HW1 1282   1.069   0.884   2.956  3.0950 -0.5238 -0.4708
  321SOL    HW2 1283   1.198   0.847   3.002  1.3102 -0.2301 -1.9933
  321SOL     MW 1284   1.131   0.903   3.011  0.2465 -0.1710 -0.3996
  322SOL     OW 1285   1.164   0.860   1.672 -0.4794 -0.2756 -0.3901
  322SOL    HW1 1286   1.239   0.792   1.683  2.0020 -1.2612 -0.3732
  322SOL    HW2 1287   1.165   0.903   1.761  1.4991 -1.0216  0.8358
  322SOL     MW 1288   1.174   0.857   1.685  0.1090 -0.5041 -0.2262
  323SOL     OW 1289   1.234   1.564   1.886 -0.3259  0.7559  0.1166
  323SOL    HW1 1290   1.271   1.570   1.794 -0.9657  2.0156 -0.3230
  323SOL    HW2 1291   1.186   1.652   1.896  2.2428  0.2222 -0.5849
  323SOL     MW 1292   1.232   1.576   1.875 -0.0714  0.8517 -0.0340
  324SOL     OW 1293   1.484   1.030   2.416 -0.0791  0.0634 -0.0132
  324SOL    HW1 1294   1.412   1.089   2.445 -3.3792  2.0745  0.6956
  324SOL    HW2 1295   1.563   1.079   2.437 -2.4947  3.0655  2.1525
  324SOL     MW 1296   1.485   1.044   2.423 -0.8332  0.7249  0.3660
  325SOL     OW 1297   1.113   0.513   2.938  0.1668  0.0149  0.2751
  325SOL    HW1 1298   1.100   0.566   3.013 -0.9666 -2.0894  0.4859
  325SOL    HW2 1299   1.030   0.467   2.926 -1.6427 -1.0787 -1.1533
  325SOL     MW 1300   1.100   0.514   2.946 -0.2215 -0.4070  0.1144
  326SOL     OW 1301   0.403   1.366   2.306 -0.9071 -0.1292 -0.2845
  326SOL    HW1 1302   0.496   1.355   2.271  1.8058  0.4647  1.6665
  326SOL    HW2 1303   0.386   1.460   2.282  0.6010 -1.8926  4.4176
  326SOL     MW 1304   0.413   1.377   2.298 -0.3501 -0.2835  0.5933
  327SOL     OW 1305   1.923   0.782   2.438  0.1486  0.0884  0.2462
  327SOL    HW1 1306   1.893   0.738   2.521 -0.0845  2.2296  0.8771
  327SOL    HW2 1307   1.994   0.841   2.453 -1.3107 -0.8666 -0.8272
  327SOL     MW 1308   1.929   0.784   2.451 -0.0747  0.2449  0.1878
  328SOL     OW 1309   0.201   1.319   2.150  0.4175 -0.4897 -0.2636
  328SOL    HW1 1310   0.149   1.240   2.153 -0.1891  0.3096 -0.7552
  328SOL    HW2 1311   0.280   1.308   2.205  2.4484 -0.5948 -1.2629
  328SOL     MW 1312   0.205   1.307   2.158  0.6055 -0.3981 -0.4603
  329SOL     OW 1313   0.024   0.200   1.408 -0.6117 -0.3938 -0.0688
  329SOL    HW1 1314   0.002   0.185   1.506 -1.3172 -1.4844  1.9129
  329SOL    HW2 1315   0.117   0.187   1.417  1.3893 -0.6952 -2.4372
  329SOL     MW 1316   0.034   0.196   1.423 -0.4408 -0.5775 -0.1199
  330SOL     OW 1317   0.384   3.039   2.042  0.6098  0.1341  0.1954
  330SOL    HW1 1318   0.442   3.104   2.082  0.8689  0.5934 -0.1087
  330SOL    HW2 1319   0.328   3.003   2.115 -1.8393 -0.5037 -3.2506
  330SOL     MW 1320   0.384   3.043   2.057  0.3208  0.1106 -0.2994
  331SOL     OW 1321   0.825   1.245   2.427 -0.4205  0.4337  0.2965
  331SOL    HW1 1322   0.757   1.298   2.390 -0.0574  0.9763 -0.2337
  331SOL    HW2 1323   0.854   1.291   2.507  0.8556  0.4342  1.5014
  331SOL     MW 1324   0.820   1.258   2.433 -0.2042  0.5053  0.3855
  332SOL     OW 1325   1.352   1.648   2.895 -0.0740 -0.2682 -0.4521
  332SOL    HW1 1326   1.351   1.689   2.806 -2.3758 -0.4723  0.2819
  332SOL    HW2 1327   1.407   1.712   2.942  0.3799 -1.5640 -2.0063
  332SOL     MW 1328   1.359   1.661   2.889 -0.3178 -0.4661 -0.5603
  333SOL     OW 1329   1.746   1.381   2.930  0.3035  0.0626 -0.2201
  333SOL    HW1 1330   1.846   1.374   2.938  3.3790 -1.7956 -2.0412
  333SOL    HW2 1331   1.720   1.293   2.966 -1.5027  0.9627  2.0046
  333SOL     MW 1332   1.756   1.369   2.936  0.4709 -0.0638 -0.1668
  334SOL     OW 1333   1.263   3.072   2.552 -0.0566 -0.4229 -0.1504
  334SOL    HW1 1334   1.231   3.062   2.642  0.8885 -0.0521  1.8635
  334SOL    HW2 1335   1.295   3.157   2.551 -2.7404 -0.6443  1.2133
  334SOL     MW 1336   1.263   3.082   2.564 -0.2860 -0.4032  0.2952
  335SOL     OW 1337   1.315   0.743   2.954 -0.1716 -0.1215  0.3443
  335SOL    HW1 1338   1.371   0.738   3.033  2.9909  1.0952 -1.1235
  335SOL    HW2 1339   1.367   0.810   2.893  1.2174  0.5661  1.2713
  335SOL     MW 1340   1.329   0.751   2.957  0.4289  0.1298  0.2729
  336SOL     OW 1341   0.957   1.168   1.837  0.0086 -0.4279 -0.2208
  336SOL    HW1 1342   0.984   1.247   1.897  2.0310  1.2690 -0.2982
  336SOL    HW2 1343   0.993   1.087   1.875  0.6107 -1.0446 -1.9115
  336SOL     MW 1344   0.965   1.168   1.850  0.3549 -0.2854 -0.4541
  337SOL     OW 1345   0.647   1.829   2.763 -0.6415  0.3666  0.1514
  337SOL    HW1 1346   0.585   1.809   2.691 -2.5962 -2.0910  1.0040
  337SOL    HW2 1347   0.726   1.772   2.759  1.0421  1.0960  1.3828
  337SOL     MW 1348   0.649   1.819   2.753 -0.6773  0.1386  0.4264
  338SOL     OW 1349   1.143   0.719   2.571 -0.0338  0.0010 -0.1346
  338SOL    HW1 1350   1.074   0.651   2.554  1.3775 -1.6077  0.4968
  338SOL    HW2 1351   1.200   0.671   2.629 -0.4106  1.7514 -2.4355
  338SOL     MW 1352   1.142   0.704   2.576  0.1027  0.0197 -0.3549
  339SOL     OW 1353   1.514   1.063   1.825  0.5239  0.2020 -0.1030
  339SOL    HW1 1354   1.451   1.052   1.751 -0.4327  0.8200 -0.3989
  339SOL    HW2 1355   1.464   1.047   1.904 -1.4937 -0.8510 -2.0026
  339SOL     MW 1356   1.499   1.059   1.825  0.1315  0.1446 -0.3927
  340SOL     OW 1357   1.333   1.519   0.033  0.4179 -0.4381  0.0766
  340SOL    HW1 1358   1.352   1.558  -0.050 -0.9203  0.6182  0.3797
  340SOL    HW2 1359   1.411   1.475   0.063 -2.3428  1.7485  0.4990
  340SOL     MW 1360   1.346   1.519   0.026 -0.1229 -0.0102  0.1723
  341SOL     OW 1361   0.097   1.357   2.737  0.4947 -0.2128 -0.0662
  341SOL    HW1 1362   0.191   1.331   2.748  0.1130  0.5452 -2.0965
  341SOL    HW2 1363   0.064   1.301   2.661  1.6644 -1.6692  0.5949
  341SOL     MW 1364   0.105   1.346   2.729  0.5987 -0.3050 -0.2468
  342SOL     OW 1365   1.355   0.360   0.150  0.4547  0.1358  0.2866
  342SOL    HW1 1366   1.392   0.437   0.192  1.2913  3.6193  1.6179
  342SOL    HW2 1367   1.379   0.353   0.055 -0.7544 -1.7419 -1.0318
  342SOL     MW 1368   1.363   0.369   0.143  0.4055  0.3477  0.2883
  343SOL     OW 1369   0.283   0.303   2.187  0.3838 -0.2026  1.0113
  343SOL    HW1 1370   0.302   0.265   2.269 -0.2847  2.9291  0.6808
  343SOL    HW2 1371   0.213   0.243   2.157 -2.0441  2.6230 -1.1125
  343SOL     MW 1372   0.276   0.290   2.193 -0.0247  0.5834  0.6875
  344SOL     OW 1373   1.655   2.058   0.189 -0.1117 -0.3130  0.1085
  344SOL    HW1 1374   1.672   2.102   0.107 -0.1530 -0.9721 -0.0806
  344SOL    HW2 1375   1.565   2.019   0.175  1.2813 -0.1437  4.1889
  344SOL     MW 1376   1.646   2.059   0.177  0.0667 -0.3776  0.6219
  345SOL     OW 1377   0.709   1.555   2.388 -0.2966 -0.3678  0.0920
  345SOL    HW1 1378   0.625   1.530   2.348  1.7298  2.9758 -1.5256
  345SOL    HW2 1379   0.781   1.557   2.321 -0.0773 -0.3165  0.0477
  345SOL     MW 1380   0.707   1.552   2.374 -0.0003  0.0801 -0.1273
  346SOL     OW 1381   1.748   1.154   0.040  0.1000  0.2808 -0.3877
  346SOL    HW1 1382   1.836   1.200   0.040 -0.3759  0.6322 -0.7649
  346SOL    HW2 1383   1.756   1.090   0.114  0.4906 -0.2432 -0.4249
  346SOL     MW 1384   1.761   1.152   0.050  0.0887  0.2581 -0.4424
  347SOL     OW 1385   1.143   0.690   2.305 -0.1929  0.8482 -0.4984
  347SOL    HW1 1386   1.216   0.637   2.282 -0.8261 -0.5759 -1.3353
  347SOL    HW2 1387   1.171   0.712   2.388 -1.0586  1.1937 -0.5381
  347SOL     MW 1388   1.157   0.686   2.313 -0.3907  0.7059 -0.6140
  348SOL     OW 1389   1.299   2.615   1.879  0.1611 -0.3307  0.0769
  348SOL    HW1 1390   1.305   2.531   1.928  1.0589 -1.8608 -0.7441
  348SOL    HW2 1391   1.345   2.679   1.941  0.2272  1.7342  0.0954
  348SOL     MW 1392   1.306   2.612   1.893  0.2883 -0.2601 -0.0290
  349SOL     OW 1393   1.419   0.210   2.700 -0.4376 -0.4398  0.0982
  349SOL    HW1 1394   1.379   0.254   2.776 -0.1681 -0.3203  2.7042
  349SOL    HW2 1395   1.469   0.136   2.742  0.6371 -1.3496  1.6916
  349SOL     MW 1396   1.420   0.206   2.716 -0.2602 -0.5441  0.6523
  350SOL     OW 1397   1.817   0.629   2.667 -0.0351  0.0934  0.1112
  350SOL    HW1 1398   1.780   0.565   2.599  1.0625 -2.6481 -0.3021
  350SOL    HW2 1399   1.848   0.562   2.738 -4.1415  1.2670 -1.9598
  350SOL     MW 1400   1.817   0.612   2.667 -0.4321 -0.1134 -0.2166
  351SOL     OW 1401   0.073   1.160   1.605 -0.3243  0.2171  0.1888
  351SOL    HW1 1402   0.028   1.131   1.685  5.0991 -0.7728 -1.6728
  351SOL    HW2 1403   0.135   1.227   1.649  0.2021  2.5767 -0.5491
  351SOL     MW 1404   0.075   1.165   1.621  0.4607  0.3978 -0.1542
  352SOL     OW 1405   0.870   1.668   2.752 -0.0153  0.4674  0.1777
  352SOL    HW1 1406   0.870   1.617   2.839  0.6323  0.2143  2.6451
  352SOL    HW2 1407   0.825   1.605   2.695 -1.5631 -0.1043  2.1374
  352SOL     MW 1408   0.864   1.653   2.756 -0.1341  0.3586  0.7618
  353SOL     OW 1409   0.038   2.514   2.741  0.1848  0.2946 -0.1946
  353SOL    HW1 1410   0.133   2.505   2.748  2.4583 -1.9738  1.5647
  353SOL    HW2 1411   0.037   2.606   2.712  1.5283 -0.0090  2.2275
  353SOL     MW 1412   0.050   2.525   2.738  0.6620 -0.0447  0.3571
  354SOL     OW 1413   0.297   2.458   0.802  0.0095 -0.4493  0.1261
  354SOL    HW1 1414   0.351   2.435   0.879  1.0774 -0.4606  1.1709
  354SOL    HW2 1415   0.229   2.396   0.794  3.2429  0.6258  2.1749
  354SOL     MW 1416   0.295   2.447   0.811  0.5770 -0.3089  0.5343
  355SOL     OW 1417   3.086   2.234   0.348 -0.3754 -0.0522 -0.7580
  355SOL    HW1 1418   3.018   2.163   0.339  1.4244 -3.2345 -2.4622
  355SOL    HW2 1419   3.072   2.282   0.430  1.8905  0.8376 -2.6801
  355SOL     MW 1420   3.075   2.231   0.357  0.1610 -0.3547 -1.2364
  356SOL     OW 1421   0.842   2.790   0.960  0.1931 -0.2682 -0.6668
  356SOL    HW1 1422   0.867   2.854   0.895 -1.9364  0.0707 -0.4511
  356SOL    HW2 1423   0.742   2.786   0.947 -2.0184 -1.0644 -2.0189
  356SOL     MW 1424   0.832   2.798   0.950 -0.3796 -0.3285 -0.8168
  357SOL     OW 1425   1.782   2.871   0.403 -0.1224 -0.2044  0.4665
  357SOL    HW1 1426   1.790   2.819   0.483  0.0011 -2.0891  0.5129
  357SOL    HW2 1427   1.843   2.825   0.346 -0.2557  1.5449 -2.2311
  357SOL     MW 1428   1.791   2.858   0.406 -0.1237 -0.2222  0.1167
  358SOL     OW 1429   0.460   0.138   1.025 -0.1153 -0.0768  0.1071
  358SOL    HW1 1430   0.546   0.127   0.992 -2.2649 -0.6289 -1.6887
  358SOL    HW2 1431   0.412   0.142   0.941  1.2666 -3.1742  0.8833
  358SOL     MW 1432   0.465   0.137   1.010 -0.2166 -0.5583 -0.0274
  359SOL     OW 1433   0.811   2.869   1.880 -0.3761  0.2964  0.1210
  359SOL    HW1 1434   0.801   2.777   1.900 -0.1528 -0.0332  0.4527
  359SOL    HW2 1435   0.850   2.872   1.792 -0.4642  3.7750 -0.6827
  359SOL     MW 1436   0.815   2.857   1.871 -0.3583  0.7119  0.0587
  360SOL     OW 1437   0.570   2.809   0.897  0.0390  0.0820 -0.1207
  360SOL    HW1 1438   0.577   2.777   0.804 -0.1247 -1.1928  0.3908
  360SOL    HW2 1439   0.542   2.733   0.953 -1.8297  2.4964  0.7112
  360SOL     MW 1440   0.567   2.795   0.892 -0.2292  0.2323  0.0566
  361SOL     OW 1441   0.212   2.620   1.339  0.6916 -0.0823  0.2156
  361SOL    HW1 1442   0.188   2.690   1.398  0.6477 -1.0143  1.1553
  361SOL    HW2 1443   0.309   2.629   1.332 -1.9798  1.9504 -1.0322
  361SOL     MW 1444   0.221   2.630   1.346  0.3333  0.0629  0.1749
  362SOL     OW 1445   1.445   2.397   0.662  0.0035 -0.0937 -0.4499
  362SOL    HW1 1446   1.474   2.371   0.756  0.5978  1.4199 -1.0471
  362SOL    HW2 1447   1.495   2.483   0.656 -0.1106 -1.7333 -1.1514
  362SOL     MW 1448   1.455   2.405   0.674  0.0668 -0.1104 -0.6213
  363SOL     OW 1449   0.302   3.103   0.637 -0.5149  0.2846  0.4503
  363SOL    HW1 1450   0.303   3.043   0.706 -0.0897  0.9703  0.2016
  363SOL    HW2 1451   0.210   3.104   0.599 -1.2588 -0.9428  2.4977
  363SOL     MW 1452   0.290   3.095   0.641 -0.5569  0.2131  0.6876
  364SOL     OW 1453   0.725   0.229   0.222 -0.1209  0.4989 -0.3862
  364SOL    HW1 1454   0.659   0.160   0.246 -0.6475  0.1675  3.1128
  364SOL    HW2 1455   0.680   0.272   0.148 -0.7403  1.9394 -0.4398
  364SOL     MW 1456   0.710   0.226   0.215 -0.2721  0.6452  0.0684
  365SOL     OW 1457   0.987   1.977   1.168  0.4566  0.1263 -0.0408
  365SOL    HW1 1458   0.945   2.063   1.138 -0.7720  0.0353 -2.7860
  365SOL    HW2 1459   0.934   1.905   1.124  1.2067  0.4759 -1.0461
  365SOL     MW 1460   0.974   1.979   1.158  0.3934  0.1604 -0.5356
  366SOL     OW 1461   2.943   2.667   0.972  0.9461  0.3945 -0.5578
  366SOL    HW1 1462   3.007   2.670   1.039  0.0365  1.2079 -1.5780
  366SOL    HW2 1463   2.991   2.683   0.890  2.0203 -0.9276  1.9893
  366SOL     MW 1464   2.958   2.669   0.970  0.9678  0.3274 -0.3563
  367SOL     OW 1465   1.250   2.921   0.857  0.0585 -0.4430  0.4387
  367SOL    HW1 1466   1.283   2.997   0.808 -1.1714  0.0939 -0.2460
  367SOL    HW2 1467   1.216   2.862   0.792  0.1439 -0.5628 -1.8013
  367SOL     MW 1468   1.250   2.924   0.842 -0.0925 -0.3880  0.0528
  368SOL     OW 1469   1.664   0.348   0.743  0.1677 -0.3877  0.1958
  368SOL    HW1 1470   1.720   0.305   0.678  0.7103 -1.0985  2.0651
  368SOL    HW2 1471   1.703   0.435   0.748  2.1037 -0.9148 -3.3432
  368SOL     MW 1472   1.676   0.354   0.735  0.4948 -0.5510 -0.0245
  369SOL     OW 1473   0.133   2.411   1.785 -0.0003 -0.5622 -0.2573
  369SOL    HW1 1474   0.233   2.412   1.774  2.6684  0.4848 -0.2307
  369SOL    HW2 1475   0.121   2.509   1.791 -0.8535  0.5707  1.8591
  369SOL     MW 1476   0.145   2.424   1.784  0.2392 -0.2746  0.0254
  370SOL     OW 1477   0.753   0.161   0.908  0.2838 -0.1120 -0.4861
  370SOL    HW1 1478   0.758   0.250   0.942 -0.3548  0.5934  0.8092
  370SOL    HW2 1479   0.835   0.123   0.926 -3.4789  0.4002 -1.7000
  370SOL     MW 1480   0.765   0.168   0.915 -0.2969  0.0486 -0.4753
  371SOL     OW 1481   1.302   2.865   1.517 -0.7975  0.1350 -0.3192
  371SOL    HW1 1482   1.273   2.793   1.459 -0.7583  2.1924  0.0733
  371SOL    HW2 1483   1.327   2.937   1.458  2.2815  0.5867 -1.3263
  371SOL     MW 1484   1.301   2.865   1.501 -0.3861  0.4660 -0.4003
  372SOL     OW 1485   0.802   2.291   0.465  0.0541  0.4982 -0.1201
  372SOL    HW1 1486   0.743   2.215   0.478  0.1880  0.4299 -5.2981
  372SOL    HW2 1487   0.826   2.263   0.368  1.6685  0.5498 -1.7269
  372SOL     MW 1488   0.797   2.277   0.454  0.2848  0.4960 -1.0153
  373SOL     OW 1489   2.822   3.027   1.458 -0.0578  0.2640  0.1876
  373SOL    HW1 1490   2.911   3.003   1.425 -1.6725 -0.5307 -0.8243
  373SOL    HW2 1491   2.783   3.093   1.391  0.4237 -1.6590 -0.8302
  373SOL     MW 1492   2.829   3.033   1.444 -0.2073 -0.0946 -0.0802
  374SOL     OW 1493   1.499   0.549   0.301  0.1599  0.1152  0.1889
  374SOL    HW1 1494   1.571   0.490   0.282  0.3525  2.7247  0.0625
  374SOL    HW2 1495   1.455   0.512   0.376  0.8469  1.1410 -0.3175
  374SOL     MW 1496   1.502   0.536   0.309  0.2759  0.5948  0.1054
  375SOL     OW 1497   0.983   2.099   2.244  0.2802  0.2313  0.4189
  375SOL    HW1 1498   1.040   2.095   2.322  0.1989  0.5477 -1.2588
  375SOL    HW2 1499   0.993   2.030   2.175 -0.8031  1.3451  0.9119
  375SOL     MW 1500   0.991   2.090   2.245  0.1265  0.4200  0.2626
  376SOL     OW 1501   0.752   2.540   0.046 -0.6492 -0.4083  0.2081
  376SOL    HW1 1502   0.751   2.488   0.123 -1.3458  0.4313 -3.6762
  376SOL    HW2 1503   0.736   2.467  -0.012 -0.9538 -1.5955  2.1790
  376SOL     MW 1504   0.750   2.524   0.049 -0.7813 -0.4541 -0.0444
  377SOL     OW 1505   1.251   2.035   0.855 -0.6330  0.5243  0.4783
  377SOL    HW1 1506   1.156   2.029   0.827  1.6879  0.3871  2.4938
  377SOL    HW2 1507   1.253   1.970   0.931  0.6172 -0.0366  2.0090
  377SOL     MW 1508   1.239   2.026   0.861 -0.1618  0.4322  0.9462
  378SOL     OW 1509   0.909   2.842   1.591  0.2513  0.0606  0.4050
  378SOL    HW1 1510   0.902   2.747   1.580 -0.7588 -0.6508  0.3025
  378SOL    HW2 1511   0.908   2.887   1.502  1.0228  0.3680 -0.5022
  378SOL     MW 1512   0.908   2.836   1.578  0.2199  0.0073  0.2718
  379SOL     OW 1513   1.114   1.701   2.207  0.4023 -0.0080 -0.9511
  379SOL    HW1 1514   1.051   1.630   2.211 -1.3089  0.0624  0.2013
  379SOL    HW2 1515   1.186   1.655   2.170  0.4012  0.4839  1.0032
  379SOL     MW 1516   1.115   1.686   2.203  0.1764  0.0662 -0.5412
  380SOL     OW 1517   0.880   0.124   1.491 -0.0488  0.3176 -0.6887
  380SOL    HW1 1518   0.879   0.028   1.463 -0.1830 -0.5510  0.9606
  380SOL    HW2 1519   0.927   0.130   1.577  3.6411  0.6838  1.5399
  380SOL     MW 1520   0.886   0.112   1.499  0.4204  0.2513 -0.1770
  381SOL     OW 1521   0.732   2.050   0.843 -0.5563  0.5834  0.2593
  381SOL    HW1 1522   0.819   2.033   0.808 -0.3911 -0.3321 -0.3018
  381SOL    HW2 1523   0.742   2.114   0.912 -1.2863 -2.7869 -1.3153
  381SOL     MW 1524   0.745   2.057   0.847 -0.6308  0.0180 -0.0225
  382SOL     OW 1525   0.707   0.116   0.645 -0.0425  0.6851  0.1792
  382SOL    HW1 1526   0.700   0.135   0.742 -0.8665 -0.6534  0.5556
  382SOL    HW2 1527   0.683   0.021   0.622 -0.4689  2.1244  0.2648
  382SOL     MW 1528   0.703   0.106   0.655 -0.2075  0.6984  0.2401
  383SOL     OW 1529   0.562   0.026   0.281 -0.1606 -0.4724  0.0477
  383SOL    HW1 1530   0.616  -0.050   0.248  0.4443 -1.3953 -1.6224
  383SOL    HW2 1531   0.518  -0.022   0.357  1.5158 -0.7905  1.3790
  383SOL     MW 1532   0.564   0.009   0.287  0.1404 -0.6361  0.0030
  384SOL     OW 1533   0.727   2.948   0.569  0.3644  0.4659 -0.4572
  384SOL    HW1 1534   0.799   2.948   0.637  2.4434  0.6022  1.2257
  384SOL    HW2 1535   0.675   2.861   0.580  0.0610 -0.5978  0.7677
  384SOL     MW 1536   0.730   2.936   0.579  0.5987  0.3435 -0.0735
  385SOL     OW 1537   1.403   2.060   1.518 -0.0618 -0.3349  0.3209
  385SOL    HW1 1538   1.475   2.087   1.576  1.1916 -0.7883  0.3941
  385SOL    HW2 1539   1.368   1.992   1.584 -0.4968  0.6807  2.5912
  385SOL     MW 1540   1.408   2.055   1.534  0.0462 -0.2607  0.6301
  386SOL     OW 1541   1.245   0.390   0.852  0.4337 -0.1152 -0.1847
  386SOL    HW1 1542   1.203   0.450   0.920 -1.3665  0.5861 -2.2155
  386SOL    HW2 1543   1.288   0.326   0.909 -1.4412 -0.0382 -0.6869
  386SOL     MW 1544   1.245   0.389   0.868 -0.0512 -0.0125 -0.5189
  387SOL     OW 1545   0.818   2.225   1.529  0.2639 -0.0095 -0.6018
  387SOL    HW1 1546   0.892   2.286   1.502 -2.7428 -0.5745 -0.7300
  387SOL    HW2 1547   0.848   2.135   1.508  0.4437 -0.6476  0.8397
  387SOL     MW 1548   0.832   2.221   1.523 -0.1091 -0.1682 -0.4285
  388SOL     OW 1549   1.484   2.806   1.265 -0.2108 -0.3951 -0.0828
  388SOL    HW1 1550   1.393   2.803   1.264  1.6541  2.7925  2.1397
  388SOL    HW2 1551   1.509   2.731   1.214  0.3316  1.6403  0.6499
  388SOL     MW 1552   1.475   2.796   1.258  0.1068  0.2940  0.3071
  389SOL     OW 1553   0.471   0.168   3.025  0.4681  0.5584  0.1291
  389SOL    HW1 1554   0.550   0.120   3.005 -0.2418  0.3208 -2.8659
  389SOL    HW2 1555   0.462   0.221   2.951  4.3467  1.2195 -1.2200
  389SOL     MW 1556   0.480   0.168   3.012  0.8862  0.6143 -0.4440
  390SOL     OW 1557   1.341   0.040   0.738 -0.1119  0.0221 -0.3452
  390SOL    HW1 1558   1.405   0.054   0.672 -0.3938 -1.1699 -2.2464
  390SOL    HW2 1559   1.375   0.089   0.815 -1.9236 -0.8849  0.2028
  390SOL     MW 1560   1.354   0.048   0.739 -0.3881 -0.2549 -0.5238
  391SOL     OW 1561   0.370   2.199   1.452  0.0229 -0.5662  0.2861
  391SOL    HW1 1562   0.324   2.115   1.457 -0.2906  0.3387 -2.3296
  391SOL    HW2 1563   0.300   2.269   1.462  0.4130  2.1654  1.7023
  391SOL     MW 1564   0.354   2.197   1.454  0.0330 -0.0864  0.1279
  392SOL     OW 1565   2.060   2.217   0.298  0.6357 -0.1886 -0.5828
  392SOL    HW1 1566   2.139   2.180   0.334  2.9390  1.5696 -0.0769
  392SOL    HW2 1567   2.017   2.264   0.374 -1.4108  1.5247  0.1559
  392SOL     MW 1568   2.065   2.218   0.313  0.6696  0.2694 -0.4186
  393SOL     OW 1569   0.284   2.918   2.771 -0.0726  0.2256  0.1297
  393SOL    HW1 1570   0.368   2.924   2.728 -2.1061 -3.6816 -1.4903
  393SOL    HW2 1571   0.273   3.008   2.803 -0.3032 -0.2136 -2.4445
  393SOL     MW 1572   0.294   2.931   2.769 -0.3713 -0.3479 -0.4237
  394SOL     OW 1573   0.916   1.742   1.529  0.5632  0.0077  0.2606
  394SOL    HW1 1574   0.885   1.721   1.620 -0.1787 -0.0938 -0.8681
  394SOL    HW2 1575   0.888   1.834   1.510  2.4411 -0.0353 -0.2937
  394SOL     MW 1576   0.908   1.752   1.538  0.7131 -0.0113  0.0385
  395SOL     OW 1577   0.947   2.942   2.579 -0.3988  0.7275 -0.5880
  395SOL    HW1 1578   0.990   2.985   2.652  1.2810  0.4896 -1.3886
  395SOL    HW2 1579   1.016   2.884   2.551 -0.3252 -1.3835  0.1281
  395SOL     MW 1580   0.962   2.940   2.585 -0.1674  0.4176 -0.5991
  396SOL     OW 1581   0.685   1.853   2.403  0.1895 -0.0986  0.4451
  396SOL    HW1 1582   0.764   1.880   2.457  0.2119 -3.4593 -0.0460
  396SOL    HW2 1583   0.695   1.762   2.393 -1.2725 -0.9563 -0.4082
  396SOL     MW 1584   0.697   1.845   2.409 -0.0004 -0.6552  0.2677
  397SOL     OW 1585   1.041   2.366   1.426 -0.2239 -0.3268  0.4910
  397SOL    HW1 1586   1.081   2.388   1.339  2.0497  0.2329 -0.1174
  397SOL    HW2 1587   1.119   2.330   1.470  0.4942 -1.8710  0.0461
  397SOL     MW 1588   1.057   2.364   1.420  0.1708 -0.4567  0.3520
  398SOL     OW 1589   0.613   2.696   0.647  0.2215 -0.5920 -0.7234
  398SOL    HW1 1590   0.538   2.681   0.593  2.4314  1.6036 -0.1561
  398SOL    HW2 1591   0.657   2.615   0.657  1.6043  0.0459  1.8238
  398SOL     MW 1592   0.609   2.684   0.641  0.6956 -0.2181 -0.3125
  399SOL     OW 1593   0.218   2.111   0.296  0.2127  0.1702  0.4938
  399SOL    HW1 1594   0.137   2.162   0.307  0.4677 -2.4380 -0.2342
  399SOL    HW2 1595   0.239   2.125   0.208 -1.9938  2.2382  1.0892
  399SOL     MW 1596   0.210   2.120   0.286 -0.0448  0.0989  0.4763
  400SOL     OW 1597   0.560   1.960   0.053  0.3220  0.4625 -0.6054
  400SOL    HW1 1598   0.485   2.013   0.050  0.8729 -1.8194 -0.6960
  400SOL    HW2 1599   0.545   1.887   0.110  0.2721  0.4389 -3.0371
  400SOL     MW 1600   0.548   1.957   0.060  0.3881  0.1583 -0.9382
  401SOL     OW 1601   0.798   2.075   0.085  0.4572  0.5837  0.1642
  401SOL    HW1 1602   0.846   1.991   0.094 -3.5054  0.3472  2.7103
  401SOL    HW2 1603   0.705   2.049   0.082 -0.0127 -0.7343  0.7621
  401SOL     MW 1604   0.792   2.060   0.086 -0.1276  0.3786  0.5790
  402SOL     OW 1605   0.564   2.983   1.752  0.0204  0.5340 -0.2706
  402SOL    HW1 1606   0.647   2.945   1.791  1.7560 -1.7740  0.4945
  402SOL    HW2 1607   0.590   3.067   1.718  0.2169 -0.1767  1.8509
  402SOL     MW 1608   0.578   2.989   1.753  0.2753  0.1357  0.1102
  403SOL     OW 1609   0.101   0.410   0.395  0.3329 -0.2253  0.4781
  403SOL    HW1 1610   0.177   0.458   0.425 -0.6363 -0.3006  0.3020
  403SOL    HW2 1611   0.109   0.418   0.296 -1.0491 -2.7267 -1.3116
  403SOL     MW 1612   0.112   0.417   0.386  0.0227 -0.5653  0.2187
  404SOL     OW 1613   0.947   2.936   0.731 -0.3542  0.3975  0.3167
  404SOL    HW1 1614   1.006   2.876   0.681  0.3071  0.5610  1.3323
  404SOL    HW2 1615   0.967   3.031   0.704  1.9412  1.1817  0.6573
  404SOL     MW 1616   0.957   2.940   0.721  0.0359  0.5225  0.4956
  405SOL     OW 1617   0.533   2.399   1.525 -0.7803  0.1170  0.1462
  405SOL    HW1 1618   0.545   2.448   1.444  1.3441  1.7465  2.5027
  405SOL    HW2 1619   0.478   2.320   1.511  0.9553 -3.5626 -2.2462
  405SOL     MW 1620   0.527   2.395   1.512 -0.2710 -0.1535  0.1415
  406SOL     OW 1621   0.343   2.408   1.086 -0.0473  0.0998 -0.2526
  406SOL    HW1 1622   0.254   2.431   1.119 -0.5036  0.7000 -1.7067
  406SOL    HW2 1623   0.368   2.326   1.132 -0.8058  0.5286  2.3129
  406SOL     MW 1624   0.335   2.401   1.096 -0.2076  0.2356 -0.1060
  407SOL     OW 1625   0.040   2.700   1.157 -0.3170 -0.1412 -0.4184
  407SOL    HW1 1626   0.104   2.659   1.223 -0.9410 -1.8809  4.1415
  407SOL    HW2 1627   0.090   2.707   1.075  0.3162  0.1864  1.3649
  407SOL     MW 1628   0.055   2.696   1.155 -0.3158 -0.3275  0.4185
  408SOL     OW 1629   2.135   2.125   0.597  0.0053 -0.2035  0.5363
  408SOL    HW1 1630   2.143   2.176   0.679  2.3476  0.0490  0.3734
  408SOL    HW2 1631   2.067   2.054   0.594 -0.9410 -0.3476 -1.0429
  408SOL     MW 1632   2.127   2.123   0.607  0.1895 -0.1892  0.3065
  409SOL     OW 1633   1.450   0.148   0.964 -0.1645 -0.0007  0.1968
  409SOL    HW1 1634   1.532   0.200   0.987  2.2504 -1.8407  1.6324
  409SOL    HW2 1635   1.475   0.056   0.989 -1.0411  1.2367  3.6966
  409SOL     MW 1636   1.464   0.143   0.970  0.0385 -0.0802  0.8480
  410SOL     OW 1637   1.100   2.422   1.153 -0.3596 -0.2547  0.1857
  410SOL    HW1 1638   1.026   2.433   1.101  2.2534  1.4677 -1.1128
  410SOL    HW2 1639   1.161   2.366   1.108  0.8239  0.5049  1.3318
  410SOL     MW 1640   1.098   2.416   1.140  0.1413  0.0728  0.1656
  411SOL     OW 1641   1.921   0.016   2.889  0.1310 -0.0095  0.0454
  411SOL    HW1 1642   1.855  -0.028   2.833  0.1299 -2.3506  1.6960
  411SOL    HW2 1643   1.878   0.067   2.958  0.0527  0.5521  0.5027
  411SOL     MW 1644   1.906   0.017   2.891  0.1205 -0.2443  0.3235
  412SOL     OW 1645   1.067   2.235   0.588 -0.4213  0.4221  0.8684
  412SOL    HW1 1646   1.103   2.312   0.643 -0.3559 -1.4353  1.4737
  412SOL    HW2 1647   0.986   2.271   0.562  2.0220 -1.9888  1.5870
  412SOL     MW 1648   1.061   2.250   0.592 -0.0903 -0.1411  1.0431
  413SOL     OW 1649   0.543   2.723   0.014  0.5157 -0.2705  0.8088
  413SOL    HW1 1650   0.609   2.652   0.011 -3.3308  1.8511  0.1577
  413SOL    HW2 1651   0.561   2.793  -0.042 -1.1686 -1.6011  2.0994
  413SOL     MW 1652   0.554   2.723   0.007 -0.2140 -0.1661  0.8932
  414SOL     OW 1653   1.998   3.017   1.157  0.7601 -0.0943  0.1519
  414SOL    HW1 1654   1.911   3.072   1.162 -1.8903  2.2916  1.0727
  414SOL    HW2 1655   2.021   3.014   1.063  0.3689  0.5641 -0.1018
  414SOL     MW 1656   1.989   3.024   1.146  0.3588  0.3073  0.2399
  415SOL     OW 1657   1.791   2.763   1.092 -0.2598  0.7359 -0.3806
  415SOL    HW1 1658   1.781   2.742   1.184 -0.6538  1.0951  0.8343
  415SOL    HW2 1659   1.818   2.852   1.082 -1.5184 -0.0807 -0.9895
  415SOL     MW 1660   1.793   2.772   1.103 -0.4778  0.6755 -0.3006
  416SOL     OW 1661   0.564   1.969   1.342  0.8678 -0.9373  0.4176
  416SOL    HW1 1662   0.546   2.010   1.255  1.1341 -1.5686  0.3571
  416SOL    HW2 1663   0.543   1.876   1.327  0.4755  2.0936  0.0009
  416SOL     MW 1664   0.559   1.962   1.329  0.8512 -0.6207  0.3546
  417SOL     OW 1665   1.003   2.995   2.053 -0.0278 -0.2060  0.1874
  417SOL    HW1 1666   0.942   2.978   2.118  1.6880 -1.4311 -2.7537
  417SOL    HW2 1667   0.942   2.973   1.983  0.4328  1.0831 -1.7114
  417SOL     MW 1668   0.987   2.990   2.053  0.2593 -0.1975 -0.4512
  418SOL     OW 1669   0.685   2.918   0.157 -0.0674  0.0005  0.1418
  418SOL    HW1 1670   0.767   2.899   0.108  2.1091 -0.7670  2.0708
  418SOL    HW2 1671   0.636   2.838   0.134  2.0816 -0.7878  1.0031
  418SOL     MW 1672   0.689   2.905   0.148  0.5033 -0.2048  0.5099
  419SOL     OW 1673   0.506   2.633   1.309 -0.0315 -0.3081  0.0670
  419SOL    HW1 1674   0.532   2.714   1.359  2.2634  2.5138 -0.4186
  419SOL    HW2 1675   0.575   2.611   1.245  1.5965  2.1285  0.3389
  419SOL     MW 1676   0.518   2.641   1.307  0.4861  0.3857  0.0388
  420SOL     OW 1677   0.800   2.218   1.052 -0.3530 -0.1317  0.1670
  420SOL    HW1 1678   0.738   2.206   1.124  1.1063 -0.2401  1.2398
  420SOL    HW2 1679   0.815   2.314   1.041  0.8794  2.4716 -1.7172
  420SOL     MW 1680   0.794   2.229   1.060  0.0021  0.1975  0.0600
  421SOL     OW 1681   2.979   0.203   3.072 -0.5159  0.1044  0.6810
  421SOL    HW1 1682   2.905   0.196   3.015  2.6903  2.2607  0.6580
  421SOL    HW2 1683   3.007   0.111   3.085 -2.6855  0.4014 -0.3747
  421SOL     MW 1684   2.973   0.190   3.066 -0.3791  0.4281  0.5387
  422SOL     OW 1685   0.860   2.469   0.963 -0.7328 -0.1299  0.4103
  422SOL    HW1 1686   0.865   2.565   0.973  1.1862 -2.3851 -1.8412
  422SOL    HW2 1687   0.848   2.455   0.871  1.7629 -0.1854 -0.6237
  422SOL     MW 1688   0.859   2.480   0.953 -0.1503 -0.4348 -0.0232
  423SOL     OW 1689   1.474   0.068   0.491  0.6555  0.2656  0.1903
  423SOL    HW1 1690   1.472   0.055   0.395 -3.6316  1.9241  1.3377
  423SOL    HW2 1691   1.485   0.160   0.494 -0.5602 -2.8711 -0.8263
  423SOL     MW 1692   1.475   0.079   0.479 -0.0705  0.0706  0.2076
  424SOL     OW 1693   0.665   2.281   1.285 -0.1208 -0.2972  0.4482
  424SOL    HW1 1694   0.589   2.235   1.264  2.5860 -0.9464  2.3491
  424SOL    HW2 1695   0.696   2.246   1.369  0.6442  0.4781  0.1557
  424SOL     MW 1696   0.659   2.270   1.293  0.3373 -0.2805  0.6604
  425SOL     OW 1697   1.713   2.757   2.073  0.3074 -0.3704 -0.1312
  425SOL    HW1 1698   1.728   2.775   1.976 -0.5383 -0.5385  0.6196
  425SOL    HW2 1699   1.747   2.662   2.090 -0.8566 -1.8036  1.8992
  425SOL     MW 1700   1.720   2.747   2.063  0.0423 -0.5817  0.2357
  426SOL     OW 1701   0.854   1.690   1.947 -0.1683  0.2111 -0.5761
  426SOL    HW1 1702   0.798   1.716   1.870  0.7980 -0.6002  2.8606
  426SOL    HW2 1703   0.834   1.773   2.000 -2.6530 -0.5800 -1.4417
  426SOL     MW 1704   0.844   1.704   1.944 -0.3686 -0.0003 -0.2369
  427SOL     OW 1705   0.370   1.712   1.863  0.0547  0.6325 -0.0143
  427SOL    HW1 1706   0.420   1.669   1.799  0.2154  2.0307  0.7204
  427SOL    HW2 1707   0.313   1.643   1.901  0.2258 -2.2684  0.8319
  427SOL     MW 1708   0.369   1.697   1.860  0.0985  0.4342  0.1943
  428SOL     OW 1709   0.545   2.564   1.022  0.2314  0.1958  0.3640
  428SOL    HW1 1710   0.604   2.504   0.969  1.4265  0.5584 -1.8270
  428SOL    HW2 1711   0.469   2.511   1.065  0.0492 -1.5759  1.6612
  428SOL     MW 1712   0.543   2.549   1.020  0.3650  0.0099  0.2461
  429SOL     OW 1713   1.239   2.822   1.137 -0.2708  0.0782 -0.3099
  429SOL    HW1 1714   1.146   2.812   1.162 -1.5243  2.3262 -0.0321
  429SOL    HW2 1715   1.230   2.862   1.051  2.4585  0.6886 -0.2339
  429SOL     MW 1716   1.225   2.826   1.129 -0.0761  0.4553 -0.2632
  430SOL     OW 1717   1.150   2.723   0.686 -0.2927 -0.3509 -0.6701
  430SOL    HW1 1718   1.177   2.635   0.720 -0.1268 -1.6724 -1.8069
  430SOL    HW2 1719   1.087   2.680   0.621 -0.6061 -2.6847 -3.1834
  430SOL     MW 1720   1.145   2.705   0.682 -0.3122 -0.8332 -1.1517
  431SOL     OW 1721   0.309   1.967   1.047  0.0304 -0.3220  0.1376
  431SOL    HW1 1722   0.400   1.928   1.045  1.4281  1.2039  0.0171
  431SOL    HW2 1723   0.284   1.997   0.958 -1.6944  0.5200  3.1470
  431SOL     MW 1724   0.318   1.966   1.035 -0.0127 -0.0096  0.5188
  432SOL     OW 1725   0.095   0.047   1.178  0.3744 -0.2561 -0.7345
  432SOL    HW1 1726   0.052   0.118   1.224 -1.0066 -2.9768  1.4081
  432SOL    HW2 1727   0.034  -0.024   1.193  1.2323  1.3713 -0.2230
  432SOL     MW 1728   0.082   0.047   1.186  0.3054 -0.4003 -0.3843
  433SOL     OW 1729   0.616   2.844   1.475  0.1643  0.3693 -0.2693
  433SOL    HW1 1730   0.568   2.865   1.554 -0.9095  1.7655  1.5567
  433SOL    HW2 1731   0.677   2.782   1.501 -1.1664  2.1939 -0.3898
  433SOL     MW 1732   0.618   2.839   1.489 -0.1530  0.7943 -0.0443
  434SOL     OW 1733   1.572   2.762   1.549  0.2019  0.3229  0.7085
  434SOL    HW1 1734   1.484   2.798   1.533  1.1378  1.8303  1.9686
  434SOL    HW2 1735   1.610   2.746   1.464 -0.4156 -0.3624  0.9424
  434SOL     MW 1736   1.566   2.765   1.536  0.2439  0.4314  0.9056
  435SOL     OW 1737   2.800   1.795   0.188 -0.8138 -0.6036 -0.4193
  435SOL    HW1 1738   2.859   1.873   0.169 -0.1465 -1.1920 -0.7792
  435SOL    HW2 1739   2.766   1.770   0.107  2.1845  1.2900  2.9191
  435SOL     MW 1740   2.804   1.802   0.175 -0.3302 -0.4314 -0.0263
  436SOL     OW 1741   1.399   2.660   0.420  0.5852  0.3647  0.0142
  436SOL    HW1 1742   1.452   2.656   0.504  1.4837  1.2176 -1.5178
  436SOL    HW2 1743   1.373   2.752   0.407  3.1614 -2.9880  1.4902
  436SOL     MW 1744   1.403   2.672   0.429  1.0436  0.0349  0.0068
  437SOL     OW 1745   0.900   2.993   1.341  0.1846 -0.0929  0.3919
  437SOL    HW1 1746   0.966   3.056   1.315 -1.6119  0.6274  0.2642
  437SOL    HW2 1747   0.936   2.926   1.286  0.1183 -0.1964  2.5753
  437SOL     MW 1748   0.913   2.992   1.330 -0.0612 -0.0115  0.6631
  438SOL     OW 1749   0.804   2.598   1.908 -0.2533  0.2243 -0.1713
  438SOL    HW1 1750   0.828   2.567   2.000  1.6110  0.9549  0.6112
  438SOL    HW2 1751   0.755   2.529   1.868  1.7540  1.7024 -0.6445
  438SOL     MW 1752   0.801   2.585   1.915  0.2575  0.5157 -0.1305
  439SOL     OW 1753   1.219   2.107   0.392 -0.3313 -0.2118 -0.4804
  439SOL    HW1 1754   1.182   2.128   0.481  0.8088 -2.3334 -1.0750
  439SOL    HW2 1755   1.202   2.188   0.339 -0.7006  0.6741 -2.2151
  439SOL     MW 1756   1.212   2.121   0.397 -0.2296 -0.3748 -0.7877
  440SOL     OW 1757   1.720   2.984   3.058 -0.6619 -0.3029  0.0911
  440SOL    HW1 1758   1.686   2.950   3.144  1.5935  0.5573  1.5665
  440SOL    HW2 1759   1.812   2.964   3.068  0.2076 -1.4445 -0.3832
  440SOL     MW 1760   1.728   2.977   3.070 -0.2496 -0.3400  0.2231
  441SOL     OW 1761   0.377   2.694   0.494  0.2843  0.6612 -0.1882
  441SOL    HW1 1762   0.345   2.645   0.415  0.2845 -0.2306 -1.3557
  441SOL    HW2 1763   0.400   2.778   0.458 -2.6648  0.8154  0.0344
  441SOL     MW 1764   0.376   2.699   0.479 -0.1048  0.5639 -0.3129
  442SOL     OW 1765   3.054   2.355   0.583 -0.1385  0.1500  0.3333
  442SOL    HW1 1766   3.051   2.452   0.575  0.3926 -3.0353  0.6678
  442SOL    HW2 1767   2.979   2.333   0.640 -1.4286  0.4922 -0.1324
  442SOL     MW 1768   3.044   2.365   0.589 -0.2387 -0.2251  0.3160
  443SOL     OW 1769   1.480   1.767   1.955  0.1800  0.1191  0.0972
  443SOL    HW1 1770   1.402   1.719   1.935  0.4572 -0.9267  1.0679
  443SOL    HW2 1771   1.505   1.703   2.024  0.9839  3.1885  2.0600
  443SOL     MW 1772   1.473   1.752   1.961  0.3227  0.3861  0.4842
  444SOL     OW 1773   0.880   2.574   1.573 -0.2017  0.0894 -0.2225
  444SOL    HW1 1774   0.961   2.526   1.557  0.7566 -1.3400 -1.6447
  444SOL    HW2 1775   0.838   2.529   1.647 -2.4865  2.0098  0.3573
  444SOL     MW 1776   0.886   2.562   1.581 -0.3767  0.1542 -0.3336
  445SOL     OW 1777   1.121   0.086   1.334  0.1777  0.6356  0.5164
  445SOL    HW1 1778   1.064   0.113   1.405  1.3052  0.5608 -0.5042
  445SOL    HW2 1779   1.158   0.158   1.282  0.2382  2.7985 -0.0609
  445SOL     MW 1780   1.118   0.099   1.337  0.3344  0.9111  0.3056
  446SOL     OW 1781   2.776   2.863   1.071  0.1354 -0.3557 -0.6276
  446SOL    HW1 1782   2.706   2.896   1.016  0.1525  0.9991 -0.6182
  446SOL    HW2 1783   2.819   2.792   1.022  0.8444 -0.6862 -0.7149
  446SOL     MW 1784   2.772   2.858   1.057  0.2312 -0.2205 -0.6379
  447SOL     OW 1785   0.047   1.992   1.648  0.4510  0.0827  0.0761
  447SOL    HW1 1786   0.089   1.909   1.680 -1.1049 -1.0574  0.8138
  447SOL    HW2 1787  -0.025   1.966   1.583  0.2250  0.0817 -0.8915
  447SOL     MW 1788   0.043   1.978   1.643  0.2159 -0.0678  0.0458
  448SOL     OW 1789   1.748   2.416   1.669  0.1705  0.3174 -0.4921
  448SOL    HW1 1790   1.716   2.325   1.657 -0.5192  0.9901  2.5871
  448SOL    HW2 1791   1.668   2.462   1.686 -3.3977 -1.8828  0.1618
  448SOL     MW 1792   1.733   2.410   1.669 -0.3913  0.1158  0.0005
  449SOL     OW 1793   0.884   2.873   0.345  0.5369 -0.8325  0.4946
  449SOL    HW1 1794   0.825   2.864   0.266 -0.4098  0.6265 -0.1111
  449SOL    HW2 1795   0.835   2.895   0.423  0.6528 -0.6287 -2.4386
  449SOL     MW 1796   0.870   2.874   0.345  0.4273 -0.6131  0.0277
  450SOL     OW 1797   1.171   2.444   0.709  0.0298  0.3478  0.2574
  450SOL    HW1 1798   1.180   2.399   0.796 -0.4180 -0.2242  0.0209
  450SOL    HW2 1799   1.254   2.421   0.665  1.6710 -2.0729 -1.0303
  450SOL     MW 1800   1.183   2.435   0.714  0.1873 -0.0471  0.0563
  451SOL     OW 1801   0.571   1.993   1.658  0.2632 -0.2454  0.2312
  451SOL    HW1 1802   0.636   2.052   1.622  1.2701  1.1724  1.5711
  451SOL    HW2 1803   0.504   1.987   1.594 -0.6246 -1.4181 -1.0155
  451SOL     MW 1804   0.570   2.000   1.645  0.2789 -0.2131  0.2435
  452SOL     OW 1805   0.274   2.665   0.052  0.2325 -0.2194  0.0860
  452SOL    HW1 1806   0.361   2.699   0.056  0.7454  0.3015  1.9512
  452SOL    HW2 1807   0.231   2.724  -0.016 -1.2244  2.0639 -0.0017
  452SOL     MW 1808   0.280   2.677   0.044  0.1080  0.1506  0.3205
  453SOL     OW 1809   0.333   3.008   1.616 -0.3267  0.3962  0.1591
  453SOL    HW1 1810   0.403   2.977   1.673 -1.4294  2.3995 -0.7327
  453SOL    HW2 1811   0.391   3.031   1.537  0.6369  0.1598  0.8896
  453SOL     MW 1812   0.350   3.007   1.613 -0.3450  0.6293  0.1378
  454SOL     OW 1813   0.982   2.763   1.203 -0.5022 -1.3936 -0.0990
  454SOL    HW1 1814   0.914   2.703   1.227  1.1717 -2.4518 -2.4649
  454SOL    HW2 1815   0.936   2.801   1.129  0.5377  3.1709 -0.1288
  454SOL     MW 1816   0.967   2.760   1.197 -0.1441 -0.9310 -0.4151
  455SOL     OW 1817   1.600   2.850   0.190  0.1286 -0.2737  0.7510
  455SOL    HW1 1818   1.654   2.869   0.269 -1.6512 -0.0936  0.8984
  455SOL    HW2 1819   1.579   2.756   0.181 -0.4582 -1.1660  1.2457
  455SOL     MW 1820   1.604   2.840   0.199 -0.1836 -0.3677  0.8357
  456SOL     OW 1821   2.734   0.310   1.537  0.0713 -0.3997  0.3811
  456SOL    HW1 1822   2.699   0.245   1.477 -1.9726 -0.7741 -0.4898
  456SOL    HW2 1823   2.798   0.369   1.489  2.5478  1.7426 -0.9481
  456SOL     MW 1824   2.738   0.309   1.523  0.1284 -0.1665  0.0908
  457SOL     OW 1825   0.891   1.593   3.055 -0.6471 -0.0566  0.1206
  457SOL    HW1 1826   0.799   1.580   3.080  0.6894 -1.0276  1.0845
  457SOL    HW2 1827   0.946   1.585   3.135 -0.2599 -0.0151  1.4552
  457SOL     MW 1828   0.886   1.590   3.069 -0.4197 -0.1792  0.4239
  458SOL     OW 1829   1.393   1.450   0.583  0.3661 -0.3307  0.2949
  458SOL    HW1 1830   1.322   1.511   0.583 -0.1893 -1.9393 -0.4496
  458SOL    HW2 1831   1.383   1.398   0.503  0.4287 -0.9288  1.6626
  458SOL     MW 1832   1.382   1.451   0.572  0.3011 -0.6218  0.3771
  459SOL     OW 1833   1.507   0.028   0.221  0.7958  0.0431 -0.4306
  459SOL    HW1 1834   1.490  -0.065   0.234 -0.0044  1.4961  1.5837
  459SOL    HW2 1835   1.435   0.053   0.161 -2.4740 -0.1846  0.8373
  459SOL     MW 1836   1.496   0.019   0.215  0.2588  0.2048  0.0025
  460SOL     OW 1837   1.782   2.152   0.630 -0.5060  0.1168  0.4831
  460SOL    HW1 1838   1.697   2.129   0.673 -0.7476 -1.4437 -1.9306
  460SOL    HW2 1839   1.833   2.073   0.616  2.5845  1.8648 -0.0796
  460SOL     MW 1840   1.777   2.138   0.634 -0.1301  0.1416  0.0904
  461SOL     OW 1841   0.422   2.397   0.562  0.6267 -0.1133 -0.0709
  461SOL    HW1 1842   0.403   2.453   0.482 -0.6732  1.6946  1.4496
  461SOL    HW2 1843   0.380   2.435   0.644  0.5655 -0.0247  1.5069
  461SOL     MW 1844   0.414   2.409   0.563  0.4471  0.1369  0.3379
  462SOL     OW 1845   0.324   0.259   1.252 -0.0737  0.2325 -0.5024
  462SOL    HW1 1846   0.356   0.203   1.182  2.8434 -0.5839 -1.4492
  462SOL    HW2 1847   0.407   0.278   1.305 -0.7448  1.7919  0.8066
  462SOL     MW 1848   0.339   0.254   1.250  0.2226  0.3305 -0.4546
  463SOL     OW 1849   0.979   0.099   0.683 -0.0003 -0.2843  0.1162
  463SOL    HW1 1850   1.018   0.121   0.595  0.9530  0.5528 -0.0630
  463SOL    HW2 1851   0.878   0.111   0.665 -0.0705  1.6990 -0.2541
  463SOL     MW 1852   0.971   0.103   0.669  0.1162  0.0878  0.0437
  464SOL     OW 1853   0.770   3.041   2.234  0.0087 -0.2887 -0.7288
  464SOL    HW1 1854   0.770   2.948   2.248 -1.1332  0.1642  0.3478
  464SOL    HW2 1855   0.775   3.076   2.322  0.7224 -2.8481 -1.0547
  464SOL     MW 1856   0.770   3.033   2.248 -0.0478 -0.5666 -0.6297
  465SOL     OW 1857   0.843   0.274   0.469 -0.2631 -0.1481 -0.4016
  465SOL    HW1 1858   0.780   0.238   0.537 -0.4399 -0.4398 -2.1427
  465SOL    HW2 1859   0.811   0.250   0.379 -0.1422 -1.9022 -0.8142
  465SOL     MW 1860   0.830   0.266   0.466 -0.2705 -0.4180 -0.6857
  466SOL     OW 1861   0.995   2.017   0.758  0.0896 -0.0002  0.8561
  466SOL    HW1 1862   1.014   1.940   0.707  1.4331  0.4486  1.8078
  466SOL    HW2 1863   1.003   2.090   0.692  1.6003 -1.0357  1.2007
  466SOL     MW 1864   0.998   2.017   0.743  0.4662 -0.0776  1.0271
  467SOL     OW 1865   1.244   2.288   0.955  0.2068 -0.0428  0.2698
  467SOL    HW1 1866   1.340   2.294   0.950  0.9052  0.1129 -2.6578
  467SOL    HW2 1867   1.223   2.200   0.910 -1.5439  1.2041 -2.2214
  467SOL     MW 1868   1.254   2.277   0.948  0.0679  0.1423 -0.4451
  468SOL     OW 1869   0.435   2.645   1.968  0.7573  0.1889 -0.6112
  468SOL    HW1 1870   0.394   2.574   1.919  0.4322  0.3215 -1.8683
  468SOL    HW2 1871   0.414   2.726   1.916 -2.1845  0.0036 -1.2294
  468SOL     MW 1872   0.427   2.646   1.955  0.3263  0.1819 -0.8586
  469SOL     OW 1873   0.373   2.127   1.856  0.0029 -0.4905 -0.3186
  469SOL    HW1 1874   0.310   2.056   1.882 -1.1641 -0.2428 -0.7114
  469SOL    HW2 1875   0.439   2.089   1.804  1.5232 -1.6303  0.3291
  469SOL     MW 1876   0.373   2.113   1.853  0.0495 -0.6082 -0.2850
  470SOL     OW 1877   3.027   2.596   0.153  0.0600  0.0073  0.6500
  470SOL    HW1 1878   2.947   2.569   0.209  0.1481 -0.5624  0.9543
  470SOL    HW2 1879   3.003   2.614   0.062  1.2509 -0.0957  0.5627
  470SOL     MW 1880   3.013   2.595   0.149  0.2288 -0.0814  0.6786
  471SOL     OW 1881   1.169   2.647   1.425 -0.4773 -0.0757 -0.1537
  471SOL    HW1 1882   1.155   2.616   1.515  0.6207 -0.5760  1.4261
  471SOL    HW2 1883   1.093   2.680   1.381  1.9986 -0.3284 -3.7402
  471SOL     MW 1884   1.157   2.648   1.431 -0.0057 -0.1751 -0.4184
  472SOL     OW 1885   2.829   2.104   0.341  0.4321 -0.3472  0.0484
  472SOL    HW1 1886   2.865   2.076   0.256 -1.7326 -2.5115  2.1236
  472SOL    HW2 1887   2.779   2.025   0.378 -0.1714 -2.9691  0.4720
  472SOL     MW 1888   2.827   2.090   0.335  0.0669 -0.9787  0.3781
  473SOL     OW 1889   0.807   2.546   1.303 -0.1565  0.8161  0.6373
  473SOL    HW1 1890   0.797   2.453   1.288 -1.5087 -0.5837  1.8922
  473SOL    HW2 1891   0.836   2.559   1.394  2.8508  0.8219 -1.1662
  473SOL     MW 1892   0.809   2.535   1.313  0.0619  0.6322  0.5649
  474SOL     OW 1893   0.841   2.101   1.806 -0.1238  0.9476 -0.3717
  474SOL    HW1 1894   0.912   2.148   1.857  0.4463  0.1777  2.4940
  474SOL    HW2 1895   0.867   2.114   1.715 -1.2721  0.6962 -1.2419
  474SOL     MW 1896   0.854   2.109   1.801 -0.2001  0.8128 -0.1084
  475SOL     OW 1897   1.619   3.071   1.464 -0.5940 -0.0773  0.3700
  475SOL    HW1 1898   1.545   3.074   1.405  0.3246 -1.7378  0.6155
  475SOL    HW2 1899   1.595   3.012   1.534  0.4678 -0.3797 -0.7564
  475SOL     MW 1900   1.606   3.063   1.465 -0.3327 -0.3363  0.2538
  476SOL     OW 1901   1.413   2.627   1.022 -0.4270  0.1347 -0.2197
  476SOL    HW1 1902   1.334   2.662   1.057  0.7785 -1.0696  2.7054
  476SOL    HW2 1903   1.445   2.689   0.958  0.8550 -1.1023 -0.8160
  476SOL     MW 1904   1.407   2.640   1.018 -0.0988 -0.1874  0.0875
  477SOL     OW 1905   0.797   2.483   0.661 -0.1973  0.1511  0.1677
  477SOL    HW1 1906   0.865   2.530   0.608 -0.7664  0.6074 -2.2416
  477SOL    HW2 1907   0.771   2.406   0.610  1.5732 -0.2491 -1.2603
  477SOL     MW 1908   0.803   2.479   0.647 -0.0388  0.1585 -0.3386
  478SOL     OW 1909   0.167   2.683   0.923 -0.0976  0.2567 -0.3534
  478SOL    HW1 1910   0.209   2.768   0.896  3.1805  4.1059  0.5390
  478SOL    HW2 1911   0.206   2.606   0.888 -1.9497  0.1419  1.5379
  478SOL     MW 1912   0.178   2.684   0.915  0.0906  0.7494  0.0139
  479SOL     OW 1913   1.480   1.977   1.248  0.1610  0.1362 -0.0404
  479SOL    HW1 1914   1.468   1.996   1.342  0.1934  1.7098  1.4504
  479SOL    HW2 1915   1.523   1.888   1.250  0.2773  2.1061  3.0676
  479SOL     MW 1916   1.484   1.968   1.261  0.1806  0.6037  0.5663
  480SOL     OW 1917   1.938   2.409   1.271  0.4408  0.4384  0.1659
  480SOL    HW1 1918   1.913   2.353   1.347  1.5723  0.3994  1.9749
  480SOL    HW2 1919   1.961   2.343   1.206  0.6243  1.8017  0.3288
  480SOL     MW 1920   1.938   2.393   1.272  0.6143  0.6131  0.4261
  481SOL     OW 1921   1.035  -0.002   1.036  0.3272 -0.0963  0.5965
  481SOL    HW1 1922   1.097  -0.018   0.967 -1.0057 -0.9398  0.9409
  481SOL    HW2 1923   1.087   0.056   1.095  0.9057 -0.0273  0.7024
  481SOL     MW 1924   1.050   0.004   1.034  0.2277 -0.1985  0.6559
  482SOL     OW 1925   1.078   3.022   0.275  0.0610  0.1827 -0.3396
  482SOL    HW1 1926   1.008   2.974   0.317 -0.4771 -1.3697 -0.7389
  482SOL    HW2 1927   1.094   3.103   0.327  3.4038 -0.5679  2.0531
  482SOL     MW 1928   1.071   3.026   0.287  0.4310 -0.1212 -0.0766
  483SOL     OW 1929   0.424   2.949   0.447  0.5741 -0.7213 -0.3184
  483SOL    HW1 1930   0.367   2.960   0.369  0.1378  1.4033 -0.9967
  483SOL    HW2 1931   0.385   2.996   0.523  0.1908  0.1059  0.4924
  483SOL     MW 1932   0.412   2.957   0.447  0.4660 -0.3319 -0.3009
  484SOL     OW 1933   1.803   1.895   1.458  0.7263 -0.1348 -0.3376
  484SOL    HW1 1934   1.808   1.990   1.434  0.6121  0.6098  0.5400
  484SOL    HW2 1935   1.792   1.899   1.553 -1.4922  2.4086 -0.0036
  484SOL     MW 1936   1.802   1.908   1.467  0.4185  0.2990 -0.1778
  485SOL     OW 1937   0.470   2.289   0.234  0.0601  0.4848 -0.9013
  485SOL    HW1 1938   0.461   2.257   0.328  0.0465  1.5188  1.3503
  485SOL    HW2 1939   0.427   2.375   0.231 -0.8816  0.9904 -0.0438
  485SOL     MW 1940   0.463   2.296   0.246 -0.0659  0.6880 -0.4911
  486SOL     OW 1941   0.206   2.403   1.484  0.2119 -0.5267 -0.4786
  486SOL    HW1 1942   0.212   2.486   1.439  0.1697  0.3107  2.1740
  486SOL    HW2 1943   0.167   2.424   1.570 -0.1946 -0.8433 -2.6329
  486SOL     MW 1944   0.202   2.417   1.490  0.1527 -0.4580 -0.4129
  487SOL     OW 1945   1.224   1.665   1.008  0.1507 -0.0538 -0.5426
  487SOL    HW1 1946   1.215   1.752   1.043 -0.3016  0.1616  2.0826
  487SOL    HW2 1947   1.321   1.658   0.973  2.3737  0.3189  1.5264
  487SOL     MW 1948   1.236   1.676   1.008  0.3843  0.0238  0.0767
  488SOL     OW 1949   1.658   1.870   0.518 -0.0647  0.3395  0.7445
  488SOL    HW1 1950   1.738   1.906   0.469  1.9796  1.5109 -0.3662
  488SOL    HW2 1951   1.589   1.944   0.514  0.6547  1.7841  0.1952
  488SOL     MW 1952   1.659   1.885   0.511  0.3000  0.6847  0.5255
  489SOL     OW 1953   0.699   0.780   0.571  1.2054 -0.1164 -0.1069
  489SOL    HW1 1954   0.726   0.689   0.539 -0.9006 -0.5378 -2.3591
  489SOL    HW2 1955   0.680   0.782   0.663 -0.6635  0.9507 -1.0404
  489SOL     MW 1956   0.700   0.769   0.579  0.6810 -0.0312 -0.5272
  490SOL     OW 1957   1.487   2.059   0.463 -0.4710 -0.4546  0.1529
  490SOL    HW1 1958   1.534   2.138   0.431  1.3897  2.0353  0.3045
  490SOL    HW2 1959   1.394   2.073   0.434  0.1577 -1.9084  1.8285
  490SOL     MW 1960   1.481   2.071   0.455 -0.1426 -0.3179  0.3940
  491SOL     OW 1961   1.330   2.943   0.358  0.4417  0.1337 -0.1881
  491SOL    HW1 1962   1.334   3.013   0.426  1.3167 -0.2791 -1.1723
  491SOL    HW2 1963   1.237   2.939   0.322  0.4468 -3.1036 -2.3543
  491SOL     MW 1964   1.318   2.952   0.362  0.5578 -0.3479 -0.6038
  492SOL     OW 1965   1.504   2.079   0.749 -0.0123  0.3202 -0.0003
  492SOL    HW1 1966   1.480   2.082   0.654  2.6671 -0.4536  0.6093
  492SOL    HW2 1967   1.421   2.064   0.788 -0.0646 -0.7919 -0.9061
  492SOL     MW 1968   1.490   2.077   0.742  0.3343  0.0714 -0.0394
  493SOL     OW 1969   0.208   3.007   0.273 -0.3568  0.0264 -0.0974
  493SOL    HW1 1970   0.163   3.057   0.341  1.0707 -0.5622  1.8571
  493SOL    HW2 1971   0.201   3.053   0.191 -0.8400 -0.5181 -1.0589
  493SOL     MW 1972   0.201   3.019   0.271 -0.2322 -0.1231  0.0336
  494SOL     OW 1973   0.404   2.433   1.777  0.2228 -0.4935 -0.6416
  494SOL    HW1 1974   0.426   2.341   1.801 -1.0777  0.4003 -0.2072
  494SOL    HW2 1975   0.444   2.450   1.692 -1.9183 -1.2230  1.7329
  494SOL     MW 1976   0.412   2.423   1.769 -0.2313 -0.4718 -0.2710
  495SOL     OW 1977   2.946   1.658   2.610 -0.0322 -0.3942  0.7166
  495SOL    HW1 1978   2.939   1.749   2.576  0.1507  1.2864 -1.5211
  495SOL    HW2 1979   2.913   1.657   2.697  3.0905 -1.0328 -0.0367
  495SOL     MW 1980   2.941   1.670   2.617  0.4039 -0.2567  0.3220
  496SOL     OW 1981   2.935   2.316   2.687  0.1947  0.0957  0.0881
  496SOL    HW1 1982   2.989   2.257   2.733  1.5504  0.3495  0.6240
  496SOL    HW2 1983   2.990   2.388   2.653  3.3156  3.6522  1.5183
  496SOL     MW 1984   2.950   2.318   2.688  0.7853  0.5984  0.3475
  497SOL     OW 1985   1.518   2.287   2.647  0.4812  0.5465  0.0466
  497SOL    HW1 1986   1.517   2.249   2.561  1.2735  1.3395 -0.3932
  497SOL    HW2 1987   1.467   2.219   2.688 -0.3632  0.9731 -0.0549
  497SOL     MW 1988   1.511   2.273   2.641  0.4743  0.7074 -0.0248
  498SOL     OW 1989   1.519   2.748   2.352 -0.3831  0.1445 -0.4454
  498SOL    HW1 1990   1.478   2.658   2.350 -4.2138 -1.9062  2.0187
  498SOL    HW2 1991   1.606   2.736   2.389 -1.2367 -0.9151 -0.9301
  498SOL     MW 1992   1.525   2.734   2.356 -1.0012 -0.2659 -0.1843
  499SOL     OW 1993   0.926   0.087   0.087 -0.1061  0.0673  0.2218
  499SOL    HW1 1994   0.869   0.119   0.158  3.2003  2.4136 -1.5389
  499SOL    HW2 1995   0.964   0.014   0.139 -1.9366 -1.6135 -0.7713
  499SOL     MW 1996   0.924   0.082   0.103  0.0886  0.1551 -0.1416
  500SOL     OW 1997   1.102   2.553   2.806 -0.3146 -0.4842  0.9850
  500SOL    HW1 1998   1.129   2.488   2.871 -0.0804  0.0902 -0.4449
  500SOL    HW2 1999   1.028   2.587   2.851 -0.4238  0.2265 -1.4248
  500SOL     MW 2000   1.096   2.549   2.821 -0.2981 -0.3147  0.4784
  501SOL     OW 2001   1.759   2.262  -0.002  0.4737 -0.5353 -0.1545
  501SOL    HW1 2002   1.718   2.338   0.034 -0.4690  3.4734 -0.8125
  501SOL    HW2 2003   1.853   2.269   0.027  1.2721  1.3667  0.2218
  501SOL     MW 2004   1.766   2.273   0.007  0.4546  0.2445 -0.1917
  502SOL     OW 2005   0.121   2.825   2.999  0.2172 -0.5312  0.3146
  502SOL    HW1 2006   0.052   2.754   2.982  3.8261 -1.6464 -0.0334
  502SOL    HW2 2007   0.166   2.835   2.916  1.3894 -0.0614  1.8552
  502SOL     MW 2008   0.118   2.817   2.986  0.8480 -0.6164  0.4719
  503SOL     OW 2009   1.135   2.733   2.134  0.0080  0.7419  0.0346
  503SOL    HW1 2010   1.098   2.666   2.075 -0.4661 -2.6077  1.1037
  503SOL    HW2 2011   1.102   2.814   2.094 -1.8650 -1.3802  1.0168
  503SOL     MW 2012   1.126   2.735   2.121 -0.3017  0.0200  0.3053
  504SOL     OW 2013   0.065   2.704   2.113  0.6847 -0.0595  0.1382
  504SOL    HW1 2014   0.114   2.626   2.091  1.1638  1.1453 -0.0399
  504SOL    HW2 2015  -0.021   2.698   2.073 -1.1644  1.5346 -0.2562
  504SOL     MW 2016   0.060   2.693   2.105  0.5040  0.3098  0.0627
  505SOL     OW 2017   1.753   2.713   2.831 -0.4577  0.4699 -0.2919
  505SOL    HW1 2018   1.796   2.746   2.752 -2.9921  1.2374 -0.9369
  505SOL    HW2 2019   1.659   2.753   2.838 -1.9962  0.8869 -0.6589
  505SOL     MW 2020   1.746   2.723   2.821 -0.9951  0.6262 -0.4255
  506SOL     OW 2021   1.577   3.079   2.850 -0.3446  0.3105  0.0964
  506SOL    HW1 2022   1.613   3.046   2.934 -0.8214 -1.1230 -1.5503
  506SOL    HW2 2023   1.633   3.038   2.780 -2.0877 -2.5420  0.1692
  506SOL     MW 2024   1.589   3.069   2.852 -0.6375 -0.2550 -0.1112
  507SOL     OW 2025   0.909   2.768   2.865  0.0051  0.3667  0.6670
  507SOL    HW1 2026   0.919   2.858   2.828  0.4998 -3.0126  0.3812
  507SOL    HW2 2027   0.853   2.735   2.803  3.7862  0.7107 -0.4684
  507SOL     MW 2028   0.903   2.776   2.852  0.5692 -0.0338  0.4795
  508SOL     OW 2029   1.151   2.100   2.493 -0.0542  0.2562  0.1858
  508SOL    HW1 2030   1.219   2.090   2.561 -1.5647 -1.0484  2.2436
  508SOL    HW2 2031   1.113   2.176   2.517  2.2061 -2.8078  0.4233
  508SOL     MW 2032   1.155   2.109   2.506  0.0447 -0.3202  0.4886
  509SOL     OW 2033   0.698   2.569   2.719 -0.2900 -0.3793  0.1335
  509SOL    HW1 2034   0.658   2.530   2.642  1.3413 -0.6986 -1.5519
  509SOL    HW2 2035   0.621   2.593   2.773 -0.2703  2.7283 -2.2476
  509SOL     MW 2036   0.683   2.567   2.716 -0.0722 -0.0114 -0.4030
  510SOL     OW 2037   1.480   2.533   1.676  0.0598 -0.3555 -0.1345
  510SOL    HW1 2038   1.511   2.612   1.639 -1.4428  0.8410  1.2901
  510SOL    HW2 2039   1.420   2.569   1.743 -1.9452  1.2240  1.5001
  510SOL     MW 2040   1.476   2.548   1.680 -0.4030  0.0108  0.2691
  511SOL     OW 2041   0.416   2.655   2.439 -0.3757  0.0596 -0.3946
  511SOL    HW1 2042   0.475   2.574   2.433 -0.2212  1.6622  0.2751
  511SOL    HW2 2043   0.456   2.708   2.362  2.4740  2.7497 -2.0034
  511SOL     MW 2044   0.429   2.651   2.428  0.0207  0.6260 -0.5185
  512SOL     OW 2045   1.054   2.029   2.828 -0.4051  0.1714 -0.1302
  512SOL    HW1 2046   0.978   2.073   2.867  0.4904  0.3627  0.0258
  512SOL    HW2 2047   1.053   1.939   2.862  1.6737  0.7877  1.6081
  512SOL     MW 2048   1.044   2.023   2.837 -0.0127  0.2779  0.1197
  513SOL     OW 2049   1.547   2.466   2.305 -0.6285 -0.4582 -0.0489
  513SOL    HW1 2050   1.614   2.486   2.239 -0.6179 -0.3336 -1.6915
  513SOL    HW2 2051   1.610   2.453   2.373 -0.1442 -0.9615  0.6885
  513SOL     MW 2052   1.564   2.467   2.305 -0.5632 -0.5082 -0.1683
  514SOL     OW 2053   0.292   2.460   2.650  0.1620  0.6126  0.0872
  514SOL    HW1 2054   0.327   2.532   2.602  0.0969  0.9857 -0.7461
  514SOL    HW2 2055   0.340   2.473   2.738 -2.3982  0.8490  2.5162
  514SOL     MW 2056   0.303   2.471   2.656 -0.1844  0.6930  0.2978
  515SOL     OW 2057   1.128   2.060   1.953  0.2496  0.1604 -0.7997
  515SOL    HW1 2058   1.109   2.143   1.910 -1.9838  1.2274  0.4023
  515SOL    HW2 2059   1.219   2.069   1.980 -0.4755  1.0933 -2.6985
  515SOL     MW 2060   1.138   2.072   1.951 -0.1407  0.4243 -0.8917
  516SOL     OW 2061   1.449   2.496   3.078  0.2071 -0.0911 -0.6919
  516SOL    HW1 2062   1.504   2.487   3.000 -2.2936  1.6750  0.8710
  516SOL    HW2 2063   1.368   2.528   3.040 -2.1221 -1.0129 -2.1960
  516SOL     MW 2064   1.446   2.499   3.063 -0.4302  0.0203 -0.6841
  517SOL     OW 2065   0.575   2.442   2.123 -0.1458  0.5039 -0.0674
  517SOL    HW1 2066   0.546   2.529   2.088 -1.9770  0.0457  0.0837
  517SOL    HW2 2067   0.490   2.384   2.109  0.9457  2.6053  2.9274
  517SOL     MW 2068   0.560   2.446   2.116 -0.2434  0.7207  0.3477
  518SOL     OW 2069   1.801   0.229   3.076  0.4202  0.3060 -0.0498
  518SOL    HW1 2070   1.763   0.245   2.992 -0.6720  1.2822 -0.2509
  518SOL    HW2 2071   1.737   0.218   3.146  3.0359 -3.1795 -0.1055
  518SOL     MW 2072   1.788   0.230   3.074  0.6212 -0.0251 -0.0837
  519SOL     OW 2073   0.707   2.390   1.756 -0.4673  0.5791 -0.3817
  519SOL    HW1 2074   0.752   2.316   1.718  0.2659 -0.2238 -0.6807
  519SOL    HW2 2075   0.661   2.406   1.673  0.0270  0.6138 -0.2568
  519SOL     MW 2076   0.707   2.382   1.740 -0.3053  0.4777 -0.4046
  520SOL     OW 2077   1.273   2.115   2.944  0.1784  0.5454  0.3636
  520SOL    HW1 2078   1.184   2.079   2.910 -0.4360  1.5829 -0.7328
  520SOL    HW2 2079   1.319   2.060   3.009 -1.9724  0.7627 -0.7886
  520SOL     MW 2080   1.267   2.103   2.948 -0.1864  0.7110  0.0669
  521SOL     OW 2081   1.716   2.017   2.205 -0.0893  0.8817 -0.1845
  521SOL    HW1 2082   1.756   2.047   2.124 -0.9130  5.7160  2.4376
  521SOL    HW2 2083   1.739   1.923   2.222  0.9062  0.9117  0.5448
  521SOL     MW 2084   1.724   2.009   2.197 -0.0666  1.5235  0.2577
  522SOL     OW 2085   2.871   2.573   2.231 -0.5175  0.1970  0.0986
  522SOL    HW1 2086   2.963   2.558   2.257  0.1172 -0.7989  1.0853
  522SOL    HW2 2087   2.819   2.593   2.307  0.4567  0.1147 -2.9065
  522SOL     MW 2088   2.876   2.574   2.244 -0.3052  0.0547 -0.1677
  523SOL     OW 2089   0.896   1.506   2.160 -0.6760 -0.9803 -0.2259
  523SOL    HW1 2090   0.877   1.576   2.096 -0.7123 -1.3603  0.6775
  523SOL    HW2 2091   0.945   1.448   2.108  0.0881  2.0806 -1.0663
  523SOL     MW 2092   0.900   1.508   2.145 -0.5800 -0.6265 -0.2176
  524SOL     OW 2093   0.682   2.387   2.929  0.5229 -0.6246 -0.6296
  524SOL    HW1 2094   0.684   2.403   2.840  1.5132 -2.1192 -0.1119
  524SOL    HW2 2095   0.732   2.306   2.936 -1.9229 -0.7348 -1.7223
  524SOL     MW 2096   0.689   2.378   2.918  0.3308 -0.8363 -0.7054
  525SOL     OW 2097   0.356   2.294   2.080  0.3814 -0.2056  0.3570
  525SOL    HW1 2098   0.308   2.230   2.134 -0.2952  2.0082 -0.5361
  525SOL    HW2 2099   0.363   2.252   1.994  0.2732  2.1546  2.9697
  525SOL     MW 2100   0.350   2.280   2.076  0.2778  0.3979  0.5839
  526SOL     OW 2101   0.670   2.097   2.016  0.0451 -0.2724  0.4556
  526SOL    HW1 2102   0.726   2.112   1.942  0.2324 -2.8053  1.2429
  526SOL    HW2 2103   0.678   2.167   2.083 -0.5754  1.2403  1.8134
  526SOL     MW 2104   0.679   2.108   2.015 -0.0120 -0.4070  0.7386
  527SOL     OW 2105   1.431   2.025   2.049 -0.4531 -0.2287 -0.5896
  527SOL    HW1 2106   1.384   2.003   2.126 -1.0862 -2.4126 -2.2503
  527SOL    HW2 2107   1.462   1.940   2.014  0.1260  0.1860 -0.0318
  527SOL     MW 2108   1.429   2.011   2.054 -0.4602 -0.4622 -0.7351
  528SOL     OW 2109   0.636   2.919   2.896 -0.0252  0.2587  0.1776
  528SOL    HW1 2110   0.690   2.996   2.909 -3.1849  0.0083 -0.4012
  528SOL    HW2 2111   0.595   2.939   2.812  0.0529 -0.3344 -0.8113
  528SOL     MW 2112   0.638   2.932   2.886 -0.4318  0.1474 -0.0292
  529SOL     OW 2113   1.051   2.314   1.847 -0.5996  0.7982 -0.1408
  529SOL    HW1 2114   1.064   2.345   1.938  2.4680 -0.8436  2.2109
  529SOL    HW2 2115   1.058   2.382   1.777  0.5280 -2.6165  1.1695
  529SOL     MW 2116   1.053   2.327   1.850 -0.0461  0.1310  0.3423
  530SOL     OW 2117   1.194   2.405   3.002 -0.1290 -0.1923 -0.7221
  530SOL    HW1 2118   1.169   2.420   3.089  1.9531  0.0111 -1.2244
  530SOL    HW2 2119   1.224   2.313   2.997  2.0815  0.3808  0.9245
  530SOL     MW 2120   1.195   2.395   3.013  0.4374 -0.0898 -0.5711
  531SOL     OW 2121   0.915   1.875   2.574  0.3423  0.1568 -0.0863
  531SOL    HW1 2122   0.950   1.950   2.633  1.5282  3.3398  0.7810
  531SOL    HW2 2123   0.895   1.801   2.636 -0.0319  0.8014  1.5781
  531SOL     MW 2124   0.917   1.875   2.590  0.4494  0.6618  0.2477
  532SOL     OW 2125   1.751   0.296   2.814  0.5293 -0.2390  0.0104
  532SOL    HW1 2126   1.766   0.226   2.753 -0.4259  2.2252 -1.9659
  532SOL    HW2 2127   1.839   0.333   2.829  0.3636 -0.2861  2.6872
  532SOL     MW 2128   1.765   0.291   2.808  0.3814  0.0799  0.1028
  533SOL     OW 2129   1.883   2.635   3.070  0.1359  0.5073  0.0437
  533SOL    HW1 2130   1.840   2.591   3.152  0.6057 -0.8971 -0.0431
  533SOL    HW2 2131   1.817   2.665   3.010  0.5622  1.2328  2.2599
  533SOL     MW 2132   1.869   2.633   3.073  0.2541  0.4178  0.3246
  534SOL     OW 2133   1.728   2.401   2.550  0.2233  0.0463 -0.1586
  534SOL    HW1 2134   1.661   2.350   2.601  0.7021 -0.8406  1.0365
  534SOL    HW2 2135   1.812   2.396   2.601 -0.5495  2.9620  0.5086
  534SOL     MW 2136   1.730   2.394   2.564  0.1845  0.3140  0.0871
  535SOL     OW 2137   1.916   2.375   1.884  0.3690 -0.9159  0.8731
  535SOL    HW1 2138   1.852   2.404   1.817  1.3175 -0.2680 -1.6683
  535SOL    HW2 2139   1.999   2.417   1.860  1.5695 -2.8478 -0.3182
  535SOL     MW 2140   1.918   2.385   1.872  0.6525 -1.0853  0.3806
  536SOL     OW 2141   0.433   1.832   2.095  0.0473 -0.0242 -0.1261
  536SOL    HW1 2142   0.420   1.778   2.009  0.4131 -3.2037 -0.3989
  536SOL    HW2 2143   0.497   1.899   2.081 -0.0147 -1.9964 -0.4788
  536SOL     MW 2144   0.440   1.834   2.082  0.0874 -0.7039 -0.2086
  537SOL     OW 2145   1.098   0.219   2.842 -0.0408 -0.4259  0.0847
  537SOL    HW1 2146   1.027   0.255   2.891  1.3510 -2.1101 -2.1843
  537SOL    HW2 2147   1.099   0.246   2.752  2.5480 -0.2510  0.8450
  537SOL     MW 2148   1.089   0.227   2.836  0.4844 -0.6251 -0.1143
  538SOL     OW 2149   1.346   0.061   3.086  0.6205 -0.5921 -0.0053
  538SOL    HW1 2150   1.321   0.144   3.038 -0.3157  1.4859 -0.9861
  538SOL    HW2 2151   1.426   0.034   3.043 -1.1679 -1.3839  0.9608
  538SOL     MW 2152   1.353   0.068   3.074  0.2610 -0.4224 -0.0072
  539SOL     OW 2153   0.726   2.772   2.516  0.9696 -0.2969  0.9856
  539SOL    HW1 2154   0.806   2.814   2.551  0.3756 -1.0864 -1.4194
  539SOL    HW2 2155   0.716   2.691   2.566  3.1745  0.5324  1.9714
  539SOL     MW 2156   0.735   2.767   2.527  1.1821 -0.2916  0.7983
  540SOL     OW 2157   0.396   2.496   2.887 -0.1023 -0.0495 -0.0712
  540SOL    HW1 2158   0.445   2.528   2.962 -2.2479 -0.3256  0.6937
  540SOL    HW2 2159   0.340   2.435   2.933  0.4025  1.6202 -2.1057
  540SOL     MW 2160   0.395   2.492   2.903 -0.3188  0.1344 -0.2387
  541SOL     OW 2161   0.192   2.929   2.216 -0.1573  0.2231  0.6877
  541SOL    HW1 2162   0.150   2.854   2.187  0.0814  1.6272  1.4899
  541SOL    HW2 2163   0.232   2.918   2.299  0.2288  1.2778  0.9669
  541SOL     MW 2164   0.191   2.918   2.223 -0.0749  0.5475  0.8304
  542SOL     OW 2165   1.053   2.311   2.660  0.3378  0.2878  0.0481
  542SOL    HW1 2166   1.040   2.238   2.717 -0.1129  0.4741  0.0408
  542SOL    HW2 2167   1.087   2.385   2.716  0.4814 -0.4284  0.4810
  542SOL     MW 2168   1.056   2.311   2.675  0.2973  0.2179  0.1043
  543SOL     OW 2169   1.626   2.439   2.899  0.5319  0.0594 -0.2226
  543SOL    HW1 2170   1.581   2.408   2.817  0.9403  0.4672 -1.8250
  543SOL    HW2 2171   1.680   2.514   2.887  0.8468  0.2258 -2.3123
  543SOL     MW 2172   1.627   2.445   2.887  0.6273  0.1351 -0.7097
  544SOL     OW 2173   0.705   0.233   2.718 -0.0198  0.3187  0.0993
  544SOL    HW1 2174   0.613   0.266   2.722 -2.2214 -1.5154 -0.0404
  544SOL    HW2 2175   0.722   0.172   2.645 -2.2474 -2.0087 -0.3401
  544SOL     MW 2176   0.695   0.229   2.709 -0.6042 -0.2303  0.0229
  545SOL     OW 2177   1.538   2.166   2.358 -0.4032  0.1928 -0.0790
  545SOL    HW1 2178   1.505   2.241   2.313 -0.8812 -1.4738  1.8630
  545SOL    HW2 2179   1.615   2.123   2.306 -2.4673 -3.4888  1.6283
  545SOL     MW 2180   1.543   2.170   2.345 -0.7386 -0.5129  0.4025
  546SOL     OW 2181   2.964   1.999   0.120 -0.6662  0.3650 -0.0838
  546SOL    HW1 2182   2.952   2.063   0.044  0.2967  0.5041 -1.3995
  546SOL    HW2 2183   3.049   1.962   0.094 -1.2832 -0.9438 -0.5599
  546SOL     MW 2184   2.974   2.003   0.106 -0.6206  0.2107 -0.3202
  547SOL     OW 2185   0.199   0.059   0.047 -1.1622  0.5656 -0.1679
  547SOL    HW1 2186   0.296   0.073   0.018  0.7823  0.2126  0.1504
  547SOL    HW2 2187   0.145   0.016  -0.022  0.3026  0.5955 -0.2752
  547SOL     MW 2188   0.205   0.055   0.034 -0.7124  0.5230 -0.1400
  548SOL     OW 2189   0.306   2.525   0.285  0.0429  0.6498  0.0721
  548SOL    HW1 2190   0.284   2.592   0.220  0.1541 -1.7057  4.5194
  548SOL    HW2 2191   0.232   2.463   0.296  1.4005 -0.6951  1.2470
  548SOL     MW 2192   0.293   2.526   0.278  0.2367  0.1616  0.8139
  549SOL     OW 2193   0.792   1.885   2.123 -0.1308  0.5182  0.3153
  549SOL    HW1 2194   0.767   1.973   2.079 -0.5305  1.4279 -1.0758
  549SOL    HW2 2195   0.738   1.888   2.202 -1.2860  0.7731 -0.3714
  549SOL     MW 2196   0.782   1.897   2.128 -0.3360  0.6719  0.0411
  550SOL     OW 2197   1.788   1.744   2.542  0.4105  0.3365 -0.1806
  550SOL    HW1 2198   1.786   1.761   2.447 -2.0476  3.2025  0.5302
  550SOL    HW2 2199   1.790   1.828   2.594  0.1691  0.1070 -0.9248
  550SOL     MW 2200   1.788   1.757   2.537  0.0543  0.6844 -0.1850
  551SOL     OW 2201   0.915   2.287   0.229  0.4721  0.0430  0.3637
  551SOL    HW1 2202   1.012   2.282   0.233  1.0629  0.9921  0.5047
  551SOL    HW2 2203   0.877   2.233   0.156  0.2955  4.3396 -0.3561
  551SOL     MW 2204   0.923   2.279   0.220  0.5268  0.7351  0.2873
  552SOL     OW 2205   1.761   1.759   2.261  0.2510 -0.1819 -0.1740
  552SOL    HW1 2206   1.682   1.703   2.273 -2.8912 -2.1706  1.1060
  552SOL    HW2 2207   1.800   1.739   2.174  0.5307  1.3834  2.6460
  552SOL     MW 2208   1.756   1.749   2.251 -0.1267 -0.2378  0.3670
  553SOL     OW 2209   1.276   2.314   1.573  0.0177 -0.3711  0.5149
  553SOL    HW1 2210   1.312   2.229   1.566 -1.5184 -0.7461 -1.7896
  553SOL    HW2 2211   1.341   2.376   1.542 -1.5331 -2.2542 -1.4616
  553SOL     MW 2212   1.290   2.311   1.568 -0.3896 -0.6690 -0.0499
  554SOL     OW 2213   0.538   2.943   2.648 -0.0364  0.3385  0.4133
  554SOL    HW1 2214   0.531   3.027   2.590  0.0788 -0.9762 -1.4920
  554SOL    HW2 2215   0.599   2.881   2.610  0.8983  2.8092  0.3362
  554SOL     MW 2216   0.545   2.946   2.636  0.1022  0.4910  0.1517
  555SOL     OW 2217   0.616   2.449   2.491  0.5601 -0.1014  0.6496
  555SOL    HW1 2218   0.557   2.371   2.499 -0.6667 -1.6000 -0.5446
  555SOL    HW2 2219   0.694   2.415   2.466 -2.7843 -0.5804 -2.2949
  555SOL     MW 2220   0.618   2.434   2.489 -0.0430 -0.3623  0.1035
  556SOL     OW 2221   0.967   1.844   0.090  0.1801  0.0407  0.3572
  556SOL    HW1 2222   0.985   1.837  -0.001  1.0409  1.1021 -0.7573
  556SOL    HW2 2223   1.045   1.869   0.133  0.5737  0.2380 -1.1822
  556SOL     MW 2224   0.979   1.846   0.084  0.3456  0.2068  0.0070
  557SOL     OW 2225   0.985   2.666   0.489  0.5433  0.7044 -0.1231
  557SOL    HW1 2226   1.044   2.627   0.427 -2.8950 -0.3105  1.6923
  557SOL    HW2 2227   0.941   2.728   0.438 -0.0118 -4.5493 -0.5234
  557SOL     MW 2228   0.987   2.669   0.474  0.0164 -0.1227  0.0636
  558SOL     OW 2229   0.215   2.324   3.009  0.3910 -0.2840  0.0297
  558SOL    HW1 2230   0.153   2.297   2.943 -2.1352  0.7588  1.7073
  558SOL    HW2 2231   0.172   2.347   3.090 -3.0060  0.2994 -0.9715
  558SOL     MW 2232   0.201   2.323   3.011 -0.3905 -0.0695  0.1189
  559SOL     OW 2233   1.070   2.324   2.130 -0.3025 -0.1463  0.2384
  559SOL    HW1 2234   1.145   2.381   2.158  2.2563 -1.4989 -1.0935
  559SOL    HW2 2235   1.059   2.247   2.185  0.3479 -0.7469 -0.4253
  559SOL     MW 2236   1.079   2.321   2.141  0.1209 -0.4040 -0.0249
  560SOL     OW 2237   1.973   2.884   0.019 -0.1921 -0.1386  0.3609
  560SOL    HW1 2238   2.034   2.915  -0.044 -3.0703 -0.1765  0.8888
  560SOL    HW2 2239   1.933   2.800  -0.012  1.2636 -2.2825 -1.2622
  560SOL     MW 2240   1.975   2.877   0.007 -0.3798 -0.4265  0.2164
  561SOL     OW 2241   0.346   2.127   0.050 -0.4444  0.1020  0.2939
  561SOL    HW1 2242   0.304   2.176  -0.022 -1.9151  1.3662  0.5919
  561SOL    HW2 2243   0.404   2.189   0.100  2.2977 -1.9403  1.0399
  561SOL     MW 2244   0.348   2.141   0.047 -0.2767 -0.0006  0.4317
  562SOL     OW 2245   0.702   2.237   2.292  0.3241 -0.0035  0.6597
  562SOL    HW1 2246   0.666   2.327   2.281 -0.8705  0.3440 -1.8145
  562SOL    HW2 2247   0.783   2.244   2.334 -2.7654 -0.1878  0.9184
  562SOL     MW 2248   0.708   2.250   2.296 -0.2412  0.0180  0.3674
  563SOL     OW 2249   1.243   0.350   0.586 -0.4941  0.7862  0.6387
  563SOL    HW1 2250   1.188   0.285   0.539  0.4988  1.0707 -0.2308
  563SOL    HW2 2251   1.253   0.324   0.675  1.5385  3.3866 -1.3391
  563SOL     MW 2252   1.237   0.338   0.591 -0.0949  1.1668  0.2630
  564SOL     OW 2253   1.161   2.586   2.363 -0.1642  0.6035  0.0840
  564SOL    HW1 2254   1.151   2.648   2.294 -0.6189 -1.1132  2.1701
  564SOL    HW2 2255   1.151   2.639   2.437 -0.0609  0.6891  0.0262
  564SOL     MW 2256   1.159   2.601   2.364 -0.2105  0.3883  0.3516
  565SOL     OW 2257   2.782   2.759   2.650 -0.6322 -0.3741 -0.1094
  565SOL    HW1 2258   2.757   2.849   2.627 -1.6783  0.1633 -0.0410
  565SOL    HW2 2259   2.735   2.701   2.584 -0.8244 -0.6173 -1.5904
  565SOL     MW 2260   2.773   2.763   2.638 -0.7956 -0.3353 -0.2958
  566SOL     OW 2261   2.128   1.824   2.424  0.1950  0.2465  0.3983
  566SOL    HW1 2262   2.153   1.797   2.337 -0.1416  1.3693  0.3612
  566SOL    HW2 2263   2.175   1.914   2.429 -1.2671  1.2125 -1.3979
  566SOL     MW 2264   2.137   1.832   2.413 -0.0423  0.5221  0.1564
  567SOL     OW 2265   1.116   2.975   3.066 -0.3380  0.5529  0.5912
  567SOL    HW1 2266   1.186   3.034   3.099 -0.2209  1.0757 -2.2135
  567SOL    HW2 2267   1.163   2.895   3.048  3.3127  0.1997 -1.0609
  567SOL     MW 2268   1.131   2.972   3.068  0.1591  0.5753  0.0032
  568SOL     OW 2269   1.620   2.073   2.871 -0.1319  0.0828  0.3374
  568SOL    HW1 2270   1.659   2.142   2.925 -1.4759 -0.8472 -0.8190
  568SOL    HW2 2271   1.686   2.045   2.814 -2.0210  0.4258 -1.8754
  568SOL     MW 2272   1.634   2.079   2.871 -0.5585  0.0053 -0.1072
  569SOL     OW 2273   0.162   2.279   2.494 -0.1323 -0.5550  0.3378
  569SOL    HW1 2274   0.106   2.334   2.439  0.1326 -1.0252  0.0927
  569SOL    HW2 2275   0.202   2.336   2.559 -0.1117 -0.5933  1.2145
  569SOL     MW 2276   0.160   2.293   2.495 -0.0946 -0.6221  0.4212
  570SOL     OW 2277   1.501   0.348   0.508  0.1819 -0.7562  0.2595
  570SOL    HW1 2278   1.403   0.353   0.535 -0.9142  1.1099  3.4047
  570SOL    HW2 2279   1.553   0.389   0.580 -0.0368  0.8047 -0.0439
  570SOL     MW 2280   1.495   0.354   0.521  0.0084 -0.3040  0.6344
  571SOL     OW 2281   1.369   2.410   2.042 -0.8252 -0.2016  0.8105
  571SOL    HW1 2282   1.418   2.432   2.119 -0.6791 -0.3916  1.3464
  571SOL    HW2 2283   1.436   2.355   1.996  1.9981 -1.3020 -0.7835
  571SOL     MW 2284   1.384   2.406   2.046 -0.4334 -0.3718  0.6709
  572SOL     OW 2285   1.059   2.605   0.106  0.0478  0.2408 -0.1659
  572SOL    HW1 2286   1.057   2.693   0.069  0.4360  1.7135  0.0938
  572SOL    HW2 2287   0.962   2.577   0.104 -2.0369 -2.3025 -1.0196
  572SOL     MW 2288   1.046   2.613   0.101 -0.1761  0.0996 -0.2443
  573SOL     OW 2289   1.181   2.295   0.221 -0.2031  0.3264  0.3496
  573SOL    HW1 2290   1.273   2.291   0.196 -0.2180 -0.7067 -1.2449
  573SOL    HW2 2291   1.176   2.369   0.282  0.4428  0.3909  1.8033
  573SOL     MW 2292   1.192   2.304   0.226 -0.1198  0.1986  0.3310
  574SOL     OW 2293   1.169   2.532   0.341 -0.1902 -0.1706 -0.6913
  574SOL    HW1 2294   1.252   2.581   0.364 -1.6627 -1.1113  2.6403
  574SOL    HW2 2295   1.143   2.561   0.255 -1.3751  2.4853 -0.7812
  574SOL     MW 2296   1.176   2.542   0.333 -0.5408  0.0557 -0.2636
  575SOL     OW 2297   3.042   2.210   1.800  0.2798  0.7342 -0.6340
  575SOL    HW1 2298   3.065   2.141   1.736 -0.2056 -0.7173 -1.7742
  575SOL    HW2 2299   3.118   2.266   1.814 -3.6878  2.4274 -2.7934
  575SOL     MW 2300   3.055   2.208   1.794 -0.3077  0.7661 -1.0694
  576SOL     OW 2301   2.808   1.817   2.033  0.1722  0.2348 -0.1927
  576SOL    HW1 2302   2.836   1.900   1.992  0.2927  1.4498 -1.3415
  576SOL    HW2 2303   2.707   1.805   2.027  0.3731  2.2503 -2.2846
  576SOL     MW 2304   2.799   1.826   2.027  0.2146  0.6610 -0.6203
  577SOL     OW 2305   2.048   0.199   0.080 -0.1175  0.3962  0.6349
  577SOL    HW1 2306   1.958   0.212   0.035 -0.7028  2.5994  1.0080
  577SOL    HW2 2307   2.009   0.151   0.159 -0.6330  0.0658  2.2988
  577SOL     MW 2308   2.031   0.194   0.085 -0.2628  0.6433  0.9036
  578SOL     OW 2309   1.925   2.048   2.359 -0.3275  0.3910  0.7205
  578SOL    HW1 2310   1.838   2.017   2.320  0.9938 -0.2054  2.8361
  578SOL    HW2 2311   1.970   1.961   2.384  1.0051  0.5726 -1.3268
  578SOL     MW 2312   1.919   2.032   2.357  0.0226  0.3363  0.7295
  579SOL     OW 2313   0.948   2.437   2.440  0.5027  0.2509  0.0955
  579SOL    HW1 2314   0.984   2.391   2.514  0.5512 -0.2856  3.2845
  579SOL    HW2 2315   1.015   2.499   2.415 -3.8403  1.3501  0.2316
  579SOL     MW 2316   0.962   2.439   2.446 -0.0639  0.3251  0.5342
  580SOL     OW 2317   0.904   2.820   0.031 -0.3732 -0.3803  0.0137
  580SOL    HW1 2318   0.964   2.895   0.021  1.0745 -1.3004  0.5891
  580SOL    HW2 2319   0.881   2.798  -0.060  0.5804 -0.3253 -2.2024
  580SOL     MW 2320   0.909   2.827   0.018 -0.0564 -0.4944 -0.2028
  581SOL     OW 2321   1.142   2.522   1.679  0.3103 -0.2199  0.0396
  581SOL    HW1 2322   1.173   2.564   1.757  1.6219 -0.9906 -3.8538
  581SOL    HW2 2323   1.189   2.434   1.676  0.7975 -4.9036  1.2753
  581SOL     MW 2324   1.152   2.516   1.689  0.5476 -0.9396 -0.3111
  582SOL     OW 2325   0.045   2.776   2.685 -0.0359 -0.3421  0.6770
  582SOL    HW1 2326  -0.032   2.834   2.694 -0.0697  3.2880  0.9975
  582SOL    HW2 2327   0.120   2.836   2.679  0.8997 -2.7455  0.5242
  582SOL     MW 2328   0.045   2.792   2.685  0.0831 -0.1802  0.6991
  583SOL     OW 2329   1.988   2.421   2.661  0.0309  0.4057  0.1231
  583SOL    HW1 2330   2.063   2.426   2.606  0.3931  0.6302  1.6990
  583SOL    HW2 2331   1.986   2.330   2.681 -1.6161  2.4499 -1.7535
  583SOL     MW 2332   1.998   2.410   2.656 -0.1386  0.7050  0.0834
  584SOL     OW 2333   0.109   1.906   2.206 -0.7873  0.0576  0.0096
  584SOL    HW1 2334   0.121   1.860   2.291 -0.1063 -0.1053 -2.5138
  584SOL    HW2 2335   0.157   1.990   2.222  1.7312 -0.9473  0.8271
  584SOL     MW 2336   0.116   1.911   2.220 -0.3652 -0.0965 -0.2155
  585SOL     OW 2337   1.571   2.553   0.233 -0.2299  0.1472  0.3373
  585SOL    HW1 2338   1.527   2.544   0.145 -1.3211  1.3216 -2.7735
  585SOL    HW2 2339   1.507   2.596   0.299  0.7920  0.2140  2.5314
  585SOL     MW 2340   1.557   2.558   0.230 -0.2391  0.3109  0.2163
  586SOL     OW 2341   1.402   2.848   2.583  0.4854 -0.8634  0.1796
  586SOL    HW1 2342   1.438   2.826   2.498  4.8268  0.2060  2.0302
  586SOL    HW2 2343   1.362   2.934   2.571 -0.4481  1.4256 -1.1374
  586SOL     MW 2344   1.401   2.856   2.570  0.9351 -0.4203  0.2500
  587SOL     OW 2345   1.369   1.519   2.152  0.3062 -0.3601 -0.1108
  587SOL    HW1 2346   1.338   1.461   2.228 -1.1258 -1.2508  0.0199
  587SOL    HW2 2347   1.376   1.464   2.073  0.3993  0.5509 -0.3254
  587SOL     MW 2348   1.366   1.504   2.152  0.1295 -0.3574 -0.1219
  588SOL     OW 2349   1.351   2.053   2.689  0.2627 -0.2993  0.0454
  588SOL    HW1 2350   1.359   1.958   2.671  0.0805  1.0577  2.7094
  588SOL    HW2 2351   1.348   2.062   2.784 -1.8386  0.3553 -0.8334
  588SOL     MW 2352   1.352   2.042   2.699 -0.0386 -0.0339  0.2809
  589SOL     OW 2353   1.399   2.020   0.085  0.0843 -0.1801 -1.0378
  589SOL    HW1 2354   1.435   2.099   0.118  1.0692 -0.6469 -1.8905
  589SOL    HW2 2355   1.342   1.977   0.146  1.9088  0.3990 -1.0034
  589SOL     MW 2356   1.396   2.025   0.097  0.4550 -0.1653 -1.1458
  590SOL     OW 2357   0.516   2.781   2.212 -0.0013 -0.1788 -0.1146
  590SOL    HW1 2358   0.475   2.772   2.128 -1.1109  0.7734  2.4488
  590SOL    HW2 2359   0.613   2.770   2.204 -0.9021 -0.6966  3.0339
  590SOL     MW 2360   0.523   2.778   2.200 -0.2666 -0.1215  0.6390
  591SOL     OW 2361   2.251   0.686   0.031  0.6408  0.0433  0.0593
  591SOL    HW1 2362   2.189   0.749  -0.016  3.8290 -0.2435  0.1435
  591SOL    HW2 2363   2.334   0.711  -0.013 -2.2053  2.4916  1.5032
  591SOL     MW 2364   2.254   0.698   0.019  0.6860  0.3285  0.2609
  592SOL     OW 2365   1.738   2.937   0.774  0.3110  0.2634 -0.4084
  592SOL    HW1 2366   1.738   3.007   0.709 -1.6793 -2.5156  0.5477
  592SOL    HW2 2367   1.826   2.904   0.791  0.3918  0.2757  1.2119
  592SOL     MW 2368   1.749   2.942   0.768  0.0590 -0.1016 -0.0685
  593SOL     OW 2369   1.953   0.640   0.853 -0.0972  0.4374 -0.1374
  593SOL    HW1 2370   1.870   0.616   0.813 -0.5361  2.2891 -0.5611
  593SOL    HW2 2371   1.998   0.555   0.857 -0.0241  0.3333  0.8888
  593SOL     MW 2372   1.948   0.625   0.849 -0.1454  0.6680 -0.0579
  594SOL     OW 2373   2.783   1.139   1.373 -0.0166 -0.4812  0.2005
  594SOL    HW1 2374   2.879   1.143   1.351  3.4284  0.9719 -1.1989
  594SOL    HW2 2375   2.741   1.088   1.304 -1.4719 -2.4963  1.5996
  594SOL     MW 2376   2.790   1.133   1.361  0.2459 -0.5553  0.2004
  595SOL     OW 2377   0.484   0.972   0.818 -0.0651 -0.4509  0.5812
  595SOL    HW1 2378   0.496   0.994   0.722 -0.0992 -3.1281 -0.9961
  595SOL    HW2 2379   0.475   1.054   0.868  1.2492  3.8648 -0.5302
  595SOL     MW 2380   0.485   0.986   0.812  0.1038 -0.2347  0.2264
  596SOL     OW 2381   2.445   1.328   0.566 -0.5802  0.2312 -0.0457
  596SOL    HW1 2382   2.514   1.387   0.534 -2.1452 -0.6776 -0.6356
  596SOL    HW2 2383   2.476   1.308   0.655 -1.2587 -0.1830 -3.9825
  596SOL     MW 2384   2.459   1.333   0.573 -0.8762  0.0566 -0.6429
  597SOL     OW 2385   2.186   0.676   1.631  0.1413  0.0448 -0.0634
  597SOL    HW1 2386   2.210   0.606   1.691 -2.3185  0.3011 -1.7902
  597SOL    HW2 2387   2.123   0.628   1.573 -1.8872 -2.6730  0.9413
  597SOL     MW 2388   2.181   0.660   1.632 -0.4509 -0.2800 -0.1587
  598SOL     OW 2389   2.552   1.027   2.814  0.2776  0.1519  0.9610
  598SOL    HW1 2390   2.568   0.986   2.728 -1.4924 -1.9668  0.1597
  598SOL    HW2 2391   2.635   1.070   2.835  2.4586  0.3513 -2.1566
  598SOL     MW 2392   2.565   1.027   2.806  0.3318 -0.1013  0.4439
  599SOL     OW 2393   2.981   0.404   2.083 -0.1580 -0.3027 -0.0811
  599SOL    HW1 2394   3.029   0.440   2.160  0.9168 -2.0711 -0.8010
  599SOL    HW2 2395   2.975   0.479   2.019  1.5635  2.2931  3.4034
  599SOL     MW 2396   2.987   0.418   2.085  0.2109 -0.1935  0.2837
  600SOL     OW 2397   1.828   1.638   0.904 -0.4382 -0.0149 -0.1573
  600SOL    HW1 2398   1.879   1.700   0.959  1.1361  0.4398 -0.7402
  600SOL    HW2 2399   1.765   1.703   0.864  0.9130  1.6854 -1.7796
  600SOL     MW 2400   1.826   1.655   0.906 -0.0522  0.2695 -0.4483
  601SOL     OW 2401   2.539   0.768   0.818  0.4975 -0.5738 -0.1777
  601SOL    HW1 2402   2.537   0.780   0.915 -1.1671 -1.0529 -1.7648
  601SOL    HW2 2403   2.463   0.709   0.809 -1.2148 -1.2834  1.8806
  601SOL     MW 2404   2.528   0.762   0.830  0.0520 -0.7307 -0.1155
  602SOL     OW 2405   2.290   1.940   0.745  0.3711 -0.5136 -0.0152
  602SOL    HW1 2406   2.243   1.853   0.733  0.8631 -1.2537  1.3278
  602SOL    HW2 2407   2.238   2.006   0.699 -0.7231 -1.0870  0.1065
  602SOL     MW 2408   2.277   1.937   0.737  0.2916 -0.6869  0.1781
  603SOL     OW 2409   3.061   1.399   1.954 -1.2159 -0.0805  0.2445
  603SOL    HW1 2410   3.151   1.439   1.964  0.1818  0.7034  1.1706
  603SOL    HW2 2411   3.066   1.308   1.991  1.7898 -0.5370 -0.6371
  603SOL     MW 2412   3.073   1.392   1.960 -0.6349 -0.0373  0.2504
  604SOL     OW 2413   2.071   1.481   0.465 -0.6981  0.7954 -0.6283
  604SOL    HW1 2414   2.107   1.389   0.487  1.8690 -0.4306  0.2544
  604SOL    HW2 2415   2.038   1.513   0.547  0.6312 -3.0364 -2.5952
  604SOL     MW 2416   2.072   1.473   0.478 -0.1840  0.1281 -0.7714
  605SOL     OW 2417   2.534   1.483   0.898  0.0104 -0.4507 -0.1339
  605SOL    HW1 2418   2.514   1.532   0.820  4.4716 -3.1453  0.3459
  605SOL    HW2 2419   2.538   1.391   0.876 -0.4211  1.6847 -0.3990
  605SOL     MW 2420   2.532   1.477   0.885  0.5421 -0.5244 -0.1056
  606SOL     OW 2421   2.538   1.762   2.030 -0.1737  0.5268 -0.5102
  606SOL    HW1 2422   2.465   1.764   1.970  0.5269  0.0188 -0.6688
  606SOL    HW2 2423   2.588   1.693   1.991 -0.9981  0.5031  1.6108
  606SOL     MW 2424   2.535   1.753   2.017 -0.1900  0.4567 -0.2512
  607SOL     OW 2425   2.395   1.009   3.034  0.4090 -1.3541  0.3692
  607SOL    HW1 2426   2.458   1.018   2.964 -0.7815  0.5626 -1.0569
  607SOL    HW2 2427   2.448   0.993   3.117 -1.9260 -0.9133  2.3439
  607SOL     MW 2428   2.410   1.008   3.036 -0.0561 -1.0431  0.4416
  608SOL     OW 2429   1.854   0.281   0.561  0.1626 -0.0625 -0.0813
  608SOL    HW1 2430   1.825   0.339   0.489 -2.6220 -0.8804  2.9395
  608SOL    HW2 2431   1.828   0.188   0.538  1.1639 -4.3383 -2.1607
  608SOL     MW 2432   1.847   0.276   0.549 -0.0727 -0.7346  0.0429
  609SOL     OW 2433   2.119   1.948   3.056  0.3386 -0.5765 -0.9152
  609SOL    HW1 2434   2.063   1.875   3.020 -1.8335 -1.9649 -2.3288
  609SOL    HW2 2435   2.123   1.940   3.153  1.4809  0.3563  0.2297
  609SOL     MW 2436   2.112   1.938   3.064  0.2027 -0.6366 -0.9506
  610SOL     OW 2437   1.829   0.936   1.228 -0.3855 -0.1539 -0.0524
  610SOL    HW1 2438   1.845   0.854   1.186 -0.8531 -0.0708  1.6274
  610SOL    HW2 2439   1.732   0.940   1.225  1.2965  2.7158 -0.1851
  610SOL     MW 2440   1.818   0.926   1.222 -0.2252  0.2357  0.1517
  611SOL     OW 2441   2.506   1.651   0.680 -0.1365  0.0089  0.0505
  611SOL    HW1 2442   2.525   1.733   0.630 -1.6027  0.4559 -1.2330
  611SOL    HW2 2443   2.412   1.646   0.674  0.1606  0.9108  3.6348
  611SOL     MW 2444   2.496   1.661   0.673 -0.2907  0.1869  0.3541
  612SOL     OW 2445   2.827   2.906   0.376  0.0348  0.7307 -0.1019
  612SOL    HW1 2446   2.866   2.902   0.465  0.3893 -1.1239  2.0074
  612SOL    HW2 2447   2.904   2.863   0.332  1.5730 -1.1958  0.1377
  612SOL     MW 2448   2.843   2.900   0.382  0.2845  0.2318  0.2080
  613SOL     OW 2449   1.452   1.054   0.928  0.4494 -0.2185  0.1750
  613SOL    HW1 2450   1.465   1.142   0.966  1.6241 -0.1101  1.1652
  613SOL    HW2 2451   1.483   0.995   0.999 -2.8148 -1.4981 -2.3602
  613SOL     MW 2452   1.458   1.058   0.942  0.1737 -0.3731 -0.0289
  614SOL     OW 2453   1.992   0.496   1.498  0.3169 -0.7496  0.0724
  614SOL    HW1 2454   1.995   0.452   1.587  1.9298  2.3418 -2.2133
  614SOL    HW2 2455   1.937   0.442   1.437  0.1011 -2.3854 -0.6389
  614SOL     MW 2456   1.985   0.483   1.502  0.5012 -0.5575 -0.3230
  615SOL     OW 2457   2.336   0.735   0.285  0.5579 -0.3720  0.0608
  615SOL    HW1 2458   2.406   0.673   0.306 -1.0291 -1.5563  1.5939
  615SOL    HW2 2459   2.300   0.709   0.193  1.0261 -0.7408 -3.1650
  615SOL     MW 2460   2.340   0.724   0.276  0.4103 -0.5769 -0.1625
  616SOL     OW 2461   2.513   0.452   1.665 -0.3661  0.0524 -0.3198
  616SOL    HW1 2462   2.535   0.371   1.622 -0.2642  2.4514 -0.6112
  616SOL    HW2 2463   2.509   0.511   1.588  0.0750 -0.1661  1.2505
  616SOL     MW 2464   2.515   0.449   1.649 -0.2945  0.3401 -0.1510
  617SOL     OW 2465   2.848   0.603   1.694  0.2796  0.0532  0.4002
  617SOL    HW1 2466   2.767   0.595   1.739  1.1865 -1.3409  1.6119
  617SOL    HW2 2467   2.878   0.514   1.702 -2.2075  2.4352 -1.5587
  617SOL     MW 2468   2.841   0.590   1.701  0.0711  0.1835  0.3016
  618SOL     OW 2469   2.715   0.386   1.993  0.6176  0.1303  0.2670
  618SOL    HW1 2470   2.705   0.476   1.974 -1.5764 -1.5396 -1.9329
  618SOL    HW2 2471   2.794   0.389   2.046  0.7094  2.2090  1.7472
  618SOL     MW 2472   2.724   0.398   1.998  0.3402  0.1843  0.1721
  619SOL     OW 2473   2.679   0.713   0.051 -0.5574  0.0518  0.0206
  619SOL    HW1 2474   2.716   0.793   0.082 -0.8026 -1.2169  1.9859
  619SOL    HW2 2475   2.623   0.672   0.121 -1.1959 -0.0287  0.8344
  619SOL     MW 2476   2.677   0.718   0.064 -0.6740 -0.1263  0.3873
  620SOL     OW 2477   2.251   1.075   0.927 -0.2605  0.1817  0.7375
  620SOL    HW1 2478   2.319   1.056   0.863  1.3326  3.2868  2.7715
  620SOL    HW2 2479   2.171   1.029   0.902  1.4981  0.9267 -0.5198
  620SOL     MW 2480   2.250   1.067   0.915  0.1817  0.6897  0.8400
  621SOL     OW 2481   1.559   2.234   1.934 -0.2007  0.0016  0.0693
  621SOL    HW1 2482   1.524   2.159   1.984  0.6756 -3.0989 -0.7773
  621SOL    HW2 2483   1.654   2.243   1.953  0.6638  2.3782 -0.3430
  621SOL     MW 2484   1.567   2.225   1.944  0.0290 -0.0939 -0.0968
  622SOL     OW 2485   2.654   0.230   0.253 -0.1238  0.3454  0.0824
  622SOL    HW1 2486   2.748   0.257   0.227  0.0427  1.0444 -2.1193
  622SOL    HW2 2487   2.654   0.138   0.273 -0.2290  0.1658 -0.2359
  622SOL     MW 2488   2.666   0.221   0.252 -0.1157  0.4139 -0.2501
  623SOL     OW 2489   2.431   2.739   0.865  0.0085  0.0873 -0.0724
  623SOL    HW1 2490   2.499   2.801   0.859 -2.2680  0.4278  0.8553
  623SOL    HW2 2491   2.376   2.752   0.946 -0.5428  2.6649 -3.4631
  623SOL     MW 2492   2.433   2.749   0.875 -0.3646  0.4723 -0.3974
  624SOL     OW 2493   2.143   1.607   3.030  0.8677 -0.1351 -0.2107
  624SOL    HW1 2494   2.071   1.559   3.080  0.8712 -1.8957  0.3751
  624SOL    HW2 2495   2.096   1.657   2.973  0.5958  0.0547  3.5632
  624SOL     MW 2496   2.127   1.607   3.029  0.8323 -0.3423  0.3645
  625SOL     OW 2497   2.208   1.936   1.099 -0.3636  0.6219  0.3415
  625SOL    HW1 2498   2.276   1.876   1.130 -0.8624 -0.9572  1.5022
  625SOL    HW2 2499   2.243   1.958   1.015  1.4790  0.9562  1.2527
  625SOL     MW 2500   2.222   1.931   1.092 -0.1863  0.4577  0.6149
  626SOL     OW 2501   0.238   1.782   2.458 -0.3135  0.7611  0.8514
  626SOL    HW1 2502   0.182   1.716   2.502 -1.3170 -0.8703 -0.9566
  626SOL    HW2 2503   0.197   1.866   2.480  0.6782 -0.4838 -0.8448
  626SOL     MW 2504   0.225   1.784   2.467 -0.3151  0.3816  0.3890
  627SOL     OW 2505   2.537   0.767   2.559  0.2804  0.4184  0.1833
  627SOL    HW1 2506   2.468   0.834   2.558  0.7899  0.7160  1.7027
  627SOL    HW2 2507   2.511   0.720   2.480 -1.1334  1.3267  2.0332
  627SOL     MW 2508   2.524   0.770   2.549  0.1611  0.5775  0.6278
  628SOL     OW 2509   2.236   1.349   1.312 -0.2089 -0.7424  0.0588
  628SOL    HW1 2510   2.201   1.263   1.289  0.9173 -1.4653 -1.7381
  628SOL    HW2 2511   2.313   1.359   1.248  1.5236  1.8148 -2.6423
  628SOL     MW 2512   2.241   1.339   1.301  0.1683 -0.5004 -0.5346
  629SOL     OW 2513   1.861   0.480   1.254 -0.4485 -0.5628  0.3035
  629SOL    HW1 2514   1.843   0.567   1.209  1.1161  1.8023 -1.6028
  629SOL    HW2 2515   1.783   0.428   1.249  0.1898  0.0510  1.4918
  629SOL     MW 2516   1.849   0.485   1.247 -0.1578 -0.1698  0.2088
  630SOL     OW 2517   2.402   1.865   3.015  0.4035 -0.2637 -0.2318
  630SOL    HW1 2518   2.421   1.947   2.976 -2.0667 -1.0182 -1.2844
  630SOL    HW2 2519   2.308   1.859   3.026 -1.4625  0.6883 -0.8701
  630SOL     MW 2520   2.392   1.875   3.011 -0.1686 -0.2377 -0.4549
  631SOL     OW 2521   2.004   1.680   1.555  0.1090 -0.0077 -0.3289
  631SOL    HW1 2522   1.998   1.599   1.610 -0.1477 -2.4748  3.0668
  631SOL    HW2 2523   1.922   1.694   1.513  2.6848  0.0700  1.9259
  631SOL     MW 2524   1.993   1.671   1.557  0.4150 -0.3230  0.4167
  632SOL     OW 2525   0.261   1.951   1.453  0.1217 -0.1165  0.8253
  632SOL    HW1 2526   0.201   1.943   1.532  1.2196 -0.8164 -2.4398
  632SOL    HW2 2527   0.267   1.861   1.431 -2.0730  2.2450 -2.3983
  632SOL     MW 2528   0.254   1.938   1.460 -0.0230  0.1027 -0.0308
  633SOL     OW 2529   2.538   0.537   0.289  0.7370 -0.2465  0.1375
  633SOL    HW1 2530   2.601   0.503   0.357 -0.4515 -1.9331  0.5632
  633SOL    HW2 2531   2.514   0.469   0.229  3.3841 -0.1601  1.8560
  633SOL     MW 2532   2.543   0.524   0.290  0.9294 -0.4577  0.4204
  634SOL     OW 2533   2.708   3.077   0.645  0.5098 -0.4716 -0.5377
  634SOL    HW1 2534   2.723   3.168   0.656 -1.8315 -0.9777  1.2683
  634SOL    HW2 2535   2.660   3.074   0.564 -0.1305 -1.0265 -0.8118
  634SOL     MW 2536   2.703   3.088   0.636  0.1164 -0.6116 -0.3356
  635SOL     OW 2537   2.583   0.142   1.827  0.0949 -0.4867  0.4521
  635SOL    HW1 2538   2.641   0.077   1.783  1.3180 -0.5448 -1.2282
  635SOL    HW2 2539   2.628   0.231   1.839 -1.2002 -0.4956  0.0058
  635SOL     MW 2540   2.597   0.145   1.823  0.0854 -0.4955  0.1715
  636SOL     OW 2541   2.782   1.583   0.863  0.1957  0.2505  0.1570
  636SOL    HW1 2542   2.685   1.563   0.862  0.9924 -1.5693 -1.5624
  636SOL    HW2 2543   2.789   1.672   0.895 -0.9836 -0.4225 -2.9360
  636SOL     MW 2544   2.770   1.592   0.867  0.1452 -0.0784 -0.4780
  637SOL     OW 2545   2.891   1.519   0.612 -0.2264  0.2895  0.6884
  637SOL    HW1 2546   2.969   1.573   0.621  1.2589 -0.0180  2.0100
  637SOL    HW2 2547   2.846   1.538   0.695 -1.2607  0.1013 -1.7652
  637SOL     MW 2548   2.895   1.529   0.624 -0.1669  0.2241  0.5391
  638SOL     OW 2549   2.715   0.524   0.517 -0.0449 -0.0754  0.2095
  638SOL    HW1 2550   2.809   0.540   0.493 -0.1199 -0.4409  0.5070
  638SOL    HW2 2551   2.709   0.507   0.613 -2.3603  0.5600  2.4184
  638SOL     MW 2552   2.726   0.524   0.527 -0.3603 -0.0398  0.5402
  639SOL     OW 2553   1.732   0.030   0.511  0.2234 -0.1116 -0.0244
  639SOL    HW1 2554   1.636   0.027   0.499  3.3557 -1.7496 -1.3052
  639SOL    HW2 2555   1.761  -0.049   0.459 -0.9095 -2.3672 -0.0974
  639SOL     MW 2556   1.723   0.019   0.503  0.4872 -0.6253 -0.2030
  640SOL     OW 2557   0.309   1.335   0.081 -0.0208 -0.5617  0.0143
  640SOL    HW1 2558   0.306   1.344  -0.018  1.6514  5.4669 -0.2878
  640SOL    HW2 2559   0.297   1.240   0.090  1.2251 -0.6945 -1.4426
  640SOL     MW 2560   0.307   1.324   0.069  0.3642  0.2162 -0.2178
  641SOL     OW 2561   2.221   0.436   0.411  0.0484 -0.5192 -0.3539
  641SOL    HW1 2562   2.211   0.397   0.321 -1.1576 -0.0142  1.4039
  641SOL    HW2 2563   2.305   0.387   0.431  0.1714 -1.4892 -0.9239
  641SOL     MW 2564   2.231   0.424   0.402 -0.0945 -0.5806 -0.1972
  642SOL     OW 2565   0.079   0.001   0.487  0.1948  0.3947 -0.0581
  642SOL    HW1 2566   0.031   0.091   0.494 -1.2028 -0.7787  4.9006
  642SOL    HW2 2567   0.010  -0.044   0.532  0.1250 -1.1284  0.8535
  642SOL     MW 2568   0.063   0.007   0.494  0.0012  0.0389  0.7164
  643SOL     OW 2569   2.000   0.332   1.731 -0.0480 -0.2362 -0.4555
  643SOL    HW1 2570   1.918   0.311   1.779  1.0867  1.0127 -3.0551
  643SOL    HW2 2571   2.006   0.267   1.659  2.8492 -0.3829  0.3225
  643SOL     MW 2572   1.990   0.321   1.728  0.4840 -0.0908 -0.6959
  644SOL     OW 2573   2.681   1.854   0.999  0.0739 -0.0711 -0.1905
  644SOL    HW1 2574   2.688   1.790   1.073  3.2635  1.0224 -0.5812
  644SOL    HW2 2575   2.588   1.849   0.980 -1.3297 -1.1795 -0.7335
  644SOL     MW 2576   2.670   1.845   1.006  0.3095 -0.0731 -0.3137
  645SOL     OW 2577   2.818   0.830   0.730  0.3883  0.1832  0.2670
  645SOL    HW1 2578   2.899   0.773   0.738  0.5807  0.3350  0.3970
  645SOL    HW2 2579   2.747   0.788   0.772 -0.7421  3.2940  0.3875
  645SOL     MW 2580   2.819   0.817   0.737  0.2645  0.6137  0.3000
  646SOL     OW 2581   0.083   2.291   0.873 -0.1470  0.2700  0.1230
  646SOL    HW1 2582   0.117   2.205   0.840 -1.4159 -0.4007  1.0830
  646SOL    HW2 2583   0.027   2.334   0.809  0.8252  2.1431 -3.1752
  646SOL     MW 2584   0.080   2.285   0.860 -0.1861  0.4286 -0.1855
  647SOL     OW 2585   2.720   0.484   2.983 -0.1075  0.1783  0.1297
  647SOL    HW1 2586   2.656   0.423   3.015 -0.1789  0.5682 -3.6095
  647SOL    HW2 2587   2.696   0.563   3.030 -2.8600 -1.2378  1.3501
  647SOL     MW 2588   2.709   0.486   2.993 -0.4801  0.0429 -0.2026
  648SOL     OW 2589   2.258   0.738   1.099  0.7907  0.1165  0.3901
  648SOL    HW1 2590   2.186   0.674   1.085  0.1685  1.5830  0.0357
  648SOL    HW2 2591   2.237   0.792   1.172  2.6059 -2.3625  0.8283
  648SOL     MW 2592   2.246   0.736   1.106  0.9481 -0.0171  0.4011
  649SOL     OW 2593   2.411   2.709   1.317 -0.4424 -0.0480 -0.4024
  649SOL    HW1 2594   2.504   2.744   1.315 -1.2712  0.7080  0.4715
  649SOL    HW2 2595   2.409   2.618   1.275 -2.1766  0.3967  1.7858
  649SOL     MW 2596   2.423   2.701   1.311 -0.7805  0.1104  0.0016
  650SOL     OW 2597   2.780   0.231   0.670 -0.2620 -0.3257 -0.5949
  650SOL    HW1 2598   2.823   0.198   0.747  1.9856  0.4407 -1.2784
  650SOL    HW2 2599   2.844   0.225   0.601 -0.8542  0.2357 -2.1868
  650SOL     MW 2600   2.794   0.226   0.671 -0.0436 -0.1505 -0.8951
  651SOL     OW 2601   0.005   0.445   1.037 -0.2640  0.4080 -0.2001
  651SOL    HW1 2602   0.060   0.477   0.963 -0.1262 -0.4970 -1.0137
  651SOL    HW2 2603  -0.060   0.512   1.034 -0.0316 -1.2021 -2.1597
  651SOL     MW 2604   0.004   0.458   1.027 -0.2152  0.0762 -0.5660
  652SOL     OW 2605   2.380   1.493   3.017 -0.3122  0.3498 -0.1486
  652SOL    HW1 2606   2.444   1.526   2.950 -2.6652 -1.8698 -0.7193
  652SOL    HW2 2607   2.307   1.544   2.996 -1.1035 -1.0343  0.8506
  652SOL     MW 2608   2.379   1.504   3.006 -0.7271 -0.1257 -0.0920
  653SOL     OW 2609   1.834   0.456   0.328 -0.0615  0.0230 -0.1062
  653SOL    HW1 2610   1.814   0.389   0.266  1.3780 -1.5590 -0.0182
  653SOL    HW2 2611   1.921   0.487   0.309  0.2309 -4.3591 -0.9853
  653SOL     MW 2612   1.843   0.451   0.318  0.1670 -0.7639 -0.2106
  654SOL     OW 2613   2.427   1.005   0.732  0.5088 -0.0321  0.1318
  654SOL    HW1 2614   2.382   0.972   0.655  1.3075 -0.6908  2.3704
  654SOL    HW2 2615   2.488   0.921   0.761 -1.8404  0.2968 -0.0044
  654SOL     MW 2616   2.429   0.989   0.725  0.3042 -0.0756  0.4092
  655SOL     OW 2617   2.883   0.852   0.370 -0.1050 -0.1009  0.3841
  655SOL    HW1 2618   2.885   0.901   0.450 -2.1437  1.6331  0.0335
  655SOL    HW2 2619   2.901   0.761   0.392  2.0929  1.9770 -1.5619
  655SOL     MW 2620   2.885   0.847   0.383 -0.0840  0.4021  0.0811
  656SOL     OW 2621   1.782   2.644   1.362  0.1820  0.2557  0.5102
  656SOL    HW1 2622   1.823   2.715   1.406  0.9193 -2.4106  1.3583
  656SOL    HW2 2623   1.855   2.599   1.317 -0.1444  1.6998  0.0789
  656SOL     MW 2624   1.797   2.648   1.362  0.2362  0.0945  0.5652
  657SOL     OW 2625   0.143   1.773   1.138 -0.3145 -0.3674 -0.2202
  657SOL    HW1 2626   0.202   1.832   1.082  3.1299 -0.3077 -0.0068
  657SOL    HW2 2627   0.182   1.690   1.131 -1.3504 -0.6983  0.9043
  657SOL     MW 2628   0.156   1.770   1.130  0.0033 -0.4032 -0.0437
  658SOL     OW 2629   2.636   1.307   0.244  0.1299 -0.3524  0.2938
  658SOL    HW1 2630   2.610   1.235   0.306  0.7164  2.4115 -0.0397
  658SOL    HW2 2631   2.656   1.373   0.314  1.6178  1.0653 -0.0280
  658SOL     MW 2632   2.635   1.307   0.262  0.4036  0.1993  0.2073
  659SOL     OW 2633   2.206   1.557   0.977  0.2097  0.5950 -0.0650
  659SOL    HW1 2634   2.300   1.542   0.985 -0.7352 -1.3479  3.3954
  659SOL    HW2 2635   2.176   1.581   1.067 -2.7749 -3.5005  4.3176
  659SOL     MW 2636   2.215   1.558   0.990 -0.3087 -0.2017  0.9698
  660SOL     OW 2637   2.097   1.458   1.726  0.1405 -0.1621 -0.1546
  660SOL    HW1 2638   2.099   1.493   1.813 -0.3065 -3.2259  0.7689
  660SOL    HW2 2639   2.007   1.421   1.708 -1.2764  0.8642 -0.1297
  660SOL     MW 2640   2.086   1.458   1.735 -0.1054 -0.4309 -0.0295
  661SOL     OW 2641   2.492   0.970   0.187  0.0555  0.6052 -0.7087
  661SOL    HW1 2642   2.553   0.988   0.264 -0.5621  0.6307  3.4862
  661SOL    HW2 2643   2.428   0.910   0.215  1.7768 -0.0070  1.5237
  661SOL     MW 2644   2.492   0.965   0.201  0.2011  0.5278  0.1394
  662SOL     OW 2645   2.595   2.976   0.893 -0.0614 -0.3203  0.0284
  662SOL    HW1 2646   2.522   3.033   0.911  2.0312 -0.5661 -2.4053
  662SOL    HW2 2647   2.634   3.013   0.811 -0.8873  1.3092 -0.2300
  662SOL     MW 2648   2.591   2.988   0.884  0.1058 -0.1377 -0.3268
  663SOL     OW 2649   2.656   1.479   0.450  0.0688 -0.3777 -0.1000
  663SOL    HW1 2650   2.616   1.561   0.423  2.3969 -0.0549  3.1917
  663SOL    HW2 2651   2.741   1.502   0.490  3.0007  1.5525 -2.0286
  663SOL     MW 2652   2.662   1.493   0.451  0.7628 -0.0804  0.0798
  664SOL     OW 2653   2.598   1.519   1.600 -0.2345 -1.0356  0.3290
  664SOL    HW1 2654   2.588   1.614   1.571 -1.6031 -0.1524 -2.7179
  664SOL    HW2 2655   2.514   1.491   1.618  2.5481  0.0272  1.2971
  664SOL     MW 2656   2.585   1.528   1.599 -0.0479 -0.7789  0.0547
  665SOL     OW 2657   2.777   0.767   2.101  0.1165 -0.0332  0.4042
  665SOL    HW1 2658   2.797   0.813   2.017 -2.3411 -1.7654 -1.2012
  665SOL    HW2 2659   2.852   0.710   2.118 -0.6030 -2.4184 -0.6738
  665SOL     MW 2660   2.790   0.765   2.092 -0.3027 -0.5764  0.0501
  666SOL     OW 2661   2.751   3.050   1.736 -0.0283  0.2623 -0.0033
  666SOL    HW1 2662   2.786   3.065   1.643  0.6049 -1.1952  0.4120
  666SOL    HW2 2663   2.699   2.966   1.728  0.0131 -0.4930 -1.8648
  666SOL     MW 2664   2.749   3.041   1.722  0.0607 -0.0296 -0.1941
  667SOL     OW 2665   1.983   2.705   1.704  0.1712  0.0371 -0.1766
  667SOL    HW1 2666   1.999   2.685   1.795 -0.2832  0.1275 -0.0932
  667SOL    HW2 2667   2.049   2.773   1.685  1.5410  2.3465 -1.2907
  667SOL     MW 2668   1.994   2.711   1.714  0.2920  0.3537 -0.3126
  668SOL     OW 2669   2.696   0.530   0.812  0.3568  0.4065 -0.1239
  668SOL    HW1 2670   2.777   0.528   0.868  0.5717 -0.1946  2.8007
  668SOL    HW2 2671   2.651   0.611   0.839  1.2993  0.1241 -3.6707
  668SOL     MW 2672   2.701   0.541   0.823  0.5095  0.2899 -0.2060
  669SOL     OW 2673   0.119   0.905   0.763  0.2819 -0.1424  0.0705
  669SOL    HW1 2674   0.074   0.984   0.788  1.2802 -1.7308 -1.0057
  669SOL    HW2 2675   0.185   0.878   0.827 -0.4532  2.2468  3.6714
  669SOL     MW 2676   0.121   0.912   0.775  0.3166 -0.0367  0.4036
  670SOL     OW 2677   2.908   0.324   0.210 -0.3564 -0.4231 -0.0965
  670SOL    HW1 2678   2.934   0.287   0.120  0.0316 -1.3468  1.3869
  670SOL    HW2 2679   2.930   0.418   0.203  0.2412 -1.8973 -0.2894
  670SOL     MW 2680   2.914   0.332   0.197 -0.2263 -0.7394  0.0738
  671SOL     OW 2681   1.994   3.039   1.579  0.2381  0.1082 -0.1436
  671SOL    HW1 2682   1.959   2.984   1.507  0.0084 -0.7835 -0.9808
  671SOL    HW2 2683   1.922   3.062   1.643  0.5721 -0.5410 -0.1751
  671SOL     MW 2684   1.980   3.035   1.578  0.2519 -0.0951 -0.2582
  672SOL     OW 2685   1.841   1.697   1.294 -0.2565  0.7332  0.2184
  672SOL    HW1 2686   1.830   1.774   1.351  1.0625 -0.8398 -2.0185
  672SOL    HW2 2687   1.878   1.743   1.219 -1.2090  0.0421 -2.3984
  672SOL     MW 2688   1.844   1.713   1.291 -0.2082  0.4345 -0.4220
  673SOL     OW 2689   2.769   1.081   0.648  0.0131 -0.6505  0.5400
  673SOL    HW1 2690   2.801   1.009   0.701 -0.8753 -2.8908  2.5550
  673SOL    HW2 2691   2.843   1.134   0.627  0.7049 -1.0818  0.5626
  673SOL     MW 2692   2.783   1.078   0.652 -0.0128 -1.0030  0.8088
  674SOL     OW 2693   2.472   0.008   1.283  0.4564 -0.1992  0.4248
  674SOL    HW1 2694   2.413  -0.005   1.214  0.9409  0.6079  2.9812
  674SOL    HW2 2695   2.493  -0.079   1.314 -0.2945  1.4658  2.0337
  674SOL     MW 2696   2.467  -0.005   1.278  0.4213  0.1270  0.9744
  675SOL     OW 2697   2.978   0.909   1.054 -0.5368  0.2182 -0.6214
  675SOL    HW1 2698   3.036   0.887   1.122  0.7647 -0.5143 -1.4034
  675SOL    HW2 2699   3.029   0.975   0.999  1.1566  1.1241 -3.2683
  675SOL     MW 2700   2.992   0.915   1.056 -0.1417  0.2411 -1.0738
  676SOL     OW 2701   2.967   1.440   1.690 -0.1689 -0.3987 -0.0434
  676SOL    HW1 2702   2.903   1.364   1.680 -2.4343 -1.6426 -1.8712
  676SOL    HW2 2703   3.025   1.419   1.760 -1.1274  3.9599 -2.2679
  676SOL     MW 2704   2.966   1.427   1.698 -0.5943  0.0123 -0.5780
  677SOL     OW 2705   2.357   0.588   2.043  0.3734 -0.2464  0.3931
  677SOL    HW1 2706   2.295   0.561   1.972 -2.0066 -1.4619 -2.3201
  677SOL    HW2 2707   2.351   0.682   2.042 -2.6889 -2.8252  2.9363
  677SOL     MW 2708   2.348   0.597   2.034 -0.3446 -0.7470  0.3706
  678SOL     OW 2709   2.477   1.676   0.347  0.0755 -0.3397 -0.4190
  678SOL    HW1 2710   2.394   1.707   0.380 -0.9820 -3.4368 -2.2695
  678SOL    HW2 2711   2.448   1.599   0.306 -1.2318 -1.2268  0.8697
  678SOL     MW 2712   2.462   1.670   0.346 -0.2365 -0.8654 -0.4932
  679SOL     OW 2713   2.186   0.453   1.311  0.2505 -0.0606 -0.2576
  679SOL    HW1 2714   2.182   0.370   1.259  0.0631  0.5282 -1.1210
  679SOL    HW2 2715   2.106   0.456   1.364 -0.4447  1.3638 -3.8826
  679SOL     MW 2716   2.175   0.442   1.311  0.1340  0.2050 -0.8498
  680SOL     OW 2717   2.349   0.173   1.497 -0.4495 -0.0851 -0.0550
  680SOL    HW1 2718   2.260   0.201   1.497 -2.0120 -1.2777  1.9467
  680SOL    HW2 2719   2.369   0.099   1.432 -1.6929  0.2081  0.2125
  680SOL     MW 2720   2.340   0.167   1.488 -0.8197 -0.2038  0.2444
  681SOL     OW 2721   0.274   0.612   1.577 -0.4285 -0.4205 -0.0189
  681SOL    HW1 2722   0.259   0.567   1.667  1.5906  0.6990  0.3420
  681SOL    HW2 2723   0.308   0.542   1.520  0.0732 -0.0699 -0.6469
  681SOL     MW 2724   0.277   0.597   1.582 -0.0959 -0.2265 -0.0541
  682SOL     OW 2725   0.142   2.811   1.521  0.1768  0.0477  0.0857
  682SOL    HW1 2726   0.202   2.869   1.569  0.5802  1.6189 -2.7653
  682SOL    HW2 2727   0.054   2.839   1.553 -2.2260 -1.3824  1.1855
  682SOL     MW 2728   0.138   2.823   1.532 -0.0870  0.0663 -0.1454
  683SOL     OW 2729   2.059   0.820   2.964  0.1407 -0.3089  0.1647
  683SOL    HW1 2730   2.006   0.757   3.018 -1.1250 -0.0797 -2.3093
  683SOL    HW2 2731   2.055   0.911   3.012  0.0587  2.2921  3.0616
  683SOL     MW 2732   2.051   0.823   2.977 -0.0371  0.0645  0.2205
  684SOL     OW 2733   2.236   1.670   0.690 -0.7982  0.7443 -0.4877
  684SOL    HW1 2734   2.217   1.690   0.595  1.3376 -1.8480  0.9861
  684SOL    HW2 2735   2.159   1.627   0.724 -0.3475 -2.1884 -0.6825
  684SOL     MW 2736   2.223   1.667   0.681 -0.4569  0.0154 -0.3189
  685SOL     OW 2737   2.687   1.683   1.241  0.0811 -0.4938 -0.7661
  685SOL    HW1 2738   2.740   1.727   1.309  0.2304  0.3291  1.4542
  685SOL    HW2 2739   2.680   1.593   1.272 -2.0728  2.3686 -1.0417
  685SOL     MW 2740   2.693   1.677   1.254 -0.1834 -0.0076 -0.5095
  686SOL     OW 2741   2.863   0.714   1.435  0.0555  0.0375  0.2356
  686SOL    HW1 2742   2.854   0.669   1.525  1.2066  0.1307  1.3458
  686SOL    HW2 2743   2.947   0.752   1.428 -2.9205 -1.2385 -1.9923
  686SOL     MW 2744   2.873   0.713   1.446 -0.1853 -0.1186  0.0881
  687SOL     OW 2745   2.148   0.207   1.223  0.1390 -0.3579  0.4302
  687SOL    HW1 2746   2.208   0.152   1.169 -0.8647 -3.3659 -0.2117
  687SOL    HW2 2747   2.076   0.231   1.156 -1.4533 -1.3288  1.4258
  687SOL     MW 2748   2.147   0.203   1.207 -0.2035 -0.8829  0.4768
  688SOL     OW 2749   2.393   0.608   1.474 -0.0654  0.3516  0.1663
  688SOL    HW1 2750   2.328   0.563   1.415  2.6398  2.6807 -2.9008
  688SOL    HW2 2751   2.333   0.649   1.537 -0.8555  0.4737 -3.1925
  688SOL     MW 2752   2.377   0.608   1.475  0.1873  0.6750 -0.6816
  689SOL     OW 2753   2.428   0.713   2.901 -0.2594  0.0296  0.2719
  689SOL    HW1 2754   2.376   0.788   2.881 -0.0191 -1.0701  0.0785
  689SOL    HW2 2755   2.520   0.749   2.899  1.7004  2.1452  0.1323
  689SOL     MW 2756   2.433   0.728   2.898  0.0309  0.1636  0.2280
  690SOL     OW 2757   2.031   0.892   1.867  0.7957  0.7869 -0.4245
  690SOL    HW1 2758   2.007   0.798   1.881 -0.3461  1.3342 -0.7990
  690SOL    HW2 2759   2.032   0.904   1.771  0.2740 -0.9498 -2.3898
  690SOL     MW 2760   2.028   0.881   1.856  0.5762  0.6300 -0.7332
  691SOL     OW 2761   2.366   0.240   0.836 -0.1772 -0.3506  0.0150
  691SOL    HW1 2762   2.442   0.273   0.883 -1.3484 -0.3494 -1.2947
  691SOL    HW2 2763   2.291   0.304   0.849  1.3924  2.6054  1.5750
  691SOL     MW 2764   2.366   0.253   0.844 -0.1246  0.0396  0.0481
  692SOL     OW 2765   2.894   1.639   1.499  0.8302 -0.2073  0.8243
  692SOL    HW1 2766   2.933   1.596   1.579  1.0775 -0.9450 -1.5929
  692SOL    HW2 2767   2.927   1.730   1.495  0.6822  1.5543  0.5785
  692SOL     MW 2768   2.903   1.645   1.509  0.8433 -0.0722  0.4729
  693SOL     OW 2769   2.272   0.397   0.072 -0.5649 -0.0567  0.0380
  693SOL    HW1 2770   2.192   0.355   0.043  0.9182  0.2186 -1.4569
  693SOL    HW2 2771   2.262   0.490   0.062 -0.2275 -0.6412 -0.1949
  693SOL     MW 2772   2.260   0.404   0.067 -0.3247 -0.0975 -0.1900
  694SOL     OW 2773   1.928   1.183   1.085  0.2213 -0.1024 -0.8414
  694SOL    HW1 2774   2.022   1.165   1.114  2.2786 -1.4597 -2.3504
  694SOL    HW2 2775   1.884   1.096   1.104  2.7345 -1.4063  2.1112
  694SOL     MW 2776   1.935   1.169   1.091  0.8243 -0.4535 -0.6509
  695SOL     OW 2777   3.016   1.437   1.322 -0.5404 -0.2716  0.0380
  695SOL    HW1 2778   2.986   1.470   1.238 -0.1852 -1.7773  0.1084
  695SOL    HW2 2779   2.978   1.502   1.390  1.4745 -0.0230  0.3297
  695SOL     MW 2780   3.007   1.450   1.320 -0.2277 -0.4375  0.0858
  696SOL     OW 2781   2.086   1.356   0.779  0.2947  0.4171 -0.3684
  696SOL    HW1 2782   2.120   1.418   0.846 -2.0307  0.2625 -1.3674
  696SOL    HW2 2783   2.021   1.293   0.817 -1.9107 -3.3864  1.0548
  696SOL     MW 2784   2.082   1.356   0.793 -0.3031 -0.1052 -0.3125
  697SOL     OW 2785   2.871   1.004   2.214 -0.1461 -0.3224 -0.1263
  697SOL    HW1 2786   2.824   1.082   2.217  1.7547 -0.2038  2.3122
  697SOL    HW2 2787   2.811   0.936   2.184 -1.4135  4.1190 -2.3108
  697SOL     MW 2788   2.857   1.005   2.211 -0.0625  0.2792 -0.0928
  698SOL     OW 2789   2.527   0.341   0.037  0.2207 -0.4307  0.0137
  698SOL    HW1 2790   2.433   0.363   0.065 -1.0836 -0.1688 -1.4057
  698SOL    HW2 2791   2.559   0.312   0.119  0.4066 -1.8766 -0.7513
  698SOL     MW 2792   2.519   0.340   0.052  0.0731 -0.5869 -0.2745
  699SOL     OW 2793   1.867   1.596   2.045  0.1856  0.7084 -0.0517
  699SOL    HW1 2794   1.842   1.501   2.039  1.2763  2.4246 -0.2693
  699SOL    HW2 2795   1.963   1.573   2.056  1.4116  2.2560 -1.1526
  699SOL     MW 2796   1.877   1.581   2.046  0.4913  1.1391 -0.2257
  700SOL     OW 2797   2.737   0.916   1.578 -0.2388  0.1951  0.9741
  700SOL    HW1 2798   2.765   0.989   1.516  1.0229  0.2940  0.9283
  700SOL    HW2 2799   2.783   0.845   1.535 -1.0595  1.1824 -1.5201
  700SOL     MW 2800   2.747   0.916   1.564 -0.1806  0.3384  0.6389
  701SOL     OW 2801   1.700   1.173   2.480 -0.0317 -0.1604  0.1290
  701SOL    HW1 2802   1.794   1.174   2.490  1.0039 -1.2648 -0.2967
  701SOL    HW2 2803   1.678   1.241   2.554  0.0684 -2.1212  0.8876
  701SOL     MW 2804   1.709   1.182   2.492  0.1181 -0.5648  0.1729
  702SOL     OW 2805   2.147   0.389   0.822 -0.0792 -0.4497 -0.1123
  702SOL    HW1 2806   2.114   0.315   0.774  0.3507 -0.3105 -1.3075
  702SOL    HW2 2807   2.206   0.441   0.761  1.9287 -0.1752 -0.1523
  702SOL     MW 2808   2.150   0.386   0.808  0.2424 -0.3951 -0.2753
  703SOL     OW 2809   2.684   1.259   1.042 -0.1647 -0.0367  0.1237
  703SOL    HW1 2810   2.659   1.233   0.952  2.7248  0.4333 -0.3599
  703SOL    HW2 2811   2.707   1.179   1.083 -1.0144 -2.2241  0.1949
  703SOL     MW 2812   2.684   1.245   1.036  0.1045 -0.2633  0.0693
  704SOL     OW 2813   3.097   1.209   0.150 -0.3513  0.2804  0.1860
  704SOL    HW1 2814   3.009   1.220   0.109  0.2445  1.0676  0.4672
  704SOL    HW2 2815   3.092   1.199   0.244  2.3564  0.3670  2.0271
  704SOL     MW 2816   3.085   1.209   0.157  0.0846  0.3957  0.4660
  705SOL     OW 2817   2.192   1.645   1.275  0.0015  0.2491  0.2427
  705SOL    HW1 2818   2.138   1.653   1.353  1.8190  0.3186 -0.2854
  705SOL    HW2 2819   2.219   1.551   1.276  1.6283  0.2267  3.4465
  705SOL     MW 2820   2.189   1.634   1.285  0.4559  0.2553  0.5958
  706SOL     OW 2821   2.980   1.253   0.644 -1.0210  0.3483 -0.1406
  706SOL    HW1 2822   3.033   1.234   0.565  0.9089 -2.6691 -3.2355
  706SOL    HW2 2823   2.949   1.347   0.636 -1.0913  1.9268 -0.5818
  706SOL     MW 2824   2.983   1.263   0.632 -0.7756  0.1585 -0.6072
  707SOL     OW 2825   2.302   0.040   1.031  0.3830  0.1794 -0.4152
  707SOL    HW1 2826   2.338   0.100   0.962  2.4401 -3.9135  0.1321
  707SOL    HW2 2827   2.225  -0.002   0.993  1.8200  0.9237  0.8883
  707SOL     MW 2828   2.297   0.043   1.016  0.8440 -0.2624 -0.1710
  708SOL     OW 2829   2.403   1.451   0.197  0.1259 -0.2285 -0.0798
  708SOL    HW1 2830   2.496   1.424   0.189  0.8565  3.2377 -1.0463
  708SOL    HW2 2831   2.384   1.499   0.115  0.8912  0.9147 -0.6490
  708SOL     MW 2832   2.413   1.453   0.185  0.3233  0.3797 -0.2824
  709SOL     OW 2833   1.771   1.650   0.233 -0.0879 -0.2283 -0.8302
  709SOL    HW1 2834   1.767   1.652   0.136  0.3738 -0.6325 -1.2924
  709SOL    HW2 2835   1.683   1.636   0.270 -1.3653 -0.8156 -2.1012
  709SOL     MW 2836   1.759   1.648   0.225 -0.1955 -0.3591 -1.0589
  710SOL     OW 2837   2.161   1.096   1.184  0.0636  0.4896 -0.0895
  710SOL    HW1 2838   2.214   1.088   1.099  0.9802  3.4767  1.9662
  710SOL    HW2 2839   2.177   1.017   1.232 -0.6653  1.2368 -1.1489
  710SOL     MW 2840   2.170   1.085   1.179  0.0883  0.9823  0.0419
  711SOL     OW 2841   2.317   0.106   1.750  0.0273 -0.2965  0.2150
  711SOL    HW1 2842   2.411   0.123   1.781  1.0801 -0.4333  0.9303
  711SOL    HW2 2843   2.319   0.133   1.655 -2.1341 -0.4899  1.8463
  711SOL     MW 2844   2.330   0.112   1.742 -0.1189 -0.3400  0.5246
  712SOL     OW 2845   1.900   0.642  -0.002  0.5790  0.1112 -0.2328
  712SOL    HW1 2846   1.825   0.675  -0.057 -2.3961  1.0957  1.0562
  712SOL    HW2 2847   1.883   0.666   0.091  1.2452 -3.0037 -0.2832
  712SOL     MW 2848   1.888   0.649   0.003  0.2744 -0.1699 -0.0694
  713SOL     OW 2849   2.532   0.751   1.096 -0.4647 -0.2863  0.0142
  713SOL    HW1 2850   2.572   0.678   1.138  2.4029 -0.1333 -0.7846
  713SOL    HW2 2851   2.431   0.746   1.094 -4.7119 -0.9358  1.6141
  713SOL     MW 2852   2.524   0.741   1.101 -0.6467 -0.3518  0.1199
  714SOL     OW 2853   2.179   0.162   1.992  0.6156 -0.5246 -0.2819
  714SOL    HW1 2854   2.258   0.127   2.044  1.7501  2.6629  0.3513
  714SOL    HW2 2855   2.201   0.159   1.897  3.4374 -0.3201  2.7377
  714SOL     MW 2856   2.192   0.157   1.986  1.1376 -0.0771  0.2001
  715SOL     OW 2857   1.824   1.999   1.723  0.6037  0.8784  0.5690
  715SOL    HW1 2858   1.911   2.046   1.696  1.3991  1.2588  1.1446
  715SOL    HW2 2859   1.845   1.933   1.792  1.3969 -1.4052 -1.3755
  715SOL     MW 2860   1.839   1.997   1.728  0.8133  0.6273  0.3883
  716SOL     OW 2861   2.309   0.563   0.705  0.3824 -0.1667 -0.6454
  716SOL    HW1 2862   2.370   0.522   0.644  2.0648 -1.4333 -0.9574
  716SOL    HW2 2863   2.251   0.624   0.652 -1.6519  0.6706  0.3419
  716SOL     MW 2864   2.309   0.566   0.690  0.3360 -0.2233 -0.5563
  717SOL     OW 2865   2.840   1.587   2.878  0.3920  0.5676  0.1307
  717SOL    HW1 2866   2.923   1.562   2.924 -2.2500 -0.8342  0.3860
  717SOL    HW2 2867   2.808   1.655   2.938  2.1574 -0.2991  2.6497
  717SOL     MW 2868   2.847   1.592   2.892  0.2764  0.2683  0.4967
  718SOL     OW 2869   2.675   1.420   1.373 -0.5536  0.5233 -0.4457
  718SOL    HW1 2870   2.696   1.441   1.464  0.9173  0.9137 -0.1365
  718SOL    HW2 2871   2.709   1.328   1.361  1.0568  0.1499 -1.2294
  718SOL     MW 2872   2.682   1.410   1.384 -0.1471  0.5256 -0.5083
  719SOL     OW 2873   2.195   1.260   0.552  0.5127 -0.4596 -0.3323
  719SOL    HW1 2874   2.288   1.289   0.535 -1.0587 -1.2628  0.1192
  719SOL    HW2 2875   2.166   1.298   0.639 -0.0933 -2.0797 -0.5834
  719SOL     MW 2876   2.204   1.269   0.562  0.2254 -0.7793 -0.3059
  720SOL     OW 2877   2.837   1.218   0.039 -0.6340  0.1182  0.0339
  720SOL    HW1 2878   2.824   1.132   0.080 -0.0010 -3.0049 -1.8748
  720SOL    HW2 2879   2.775   1.270   0.089 -2.9671 -0.5073  0.3235
  720SOL     MW 2880   2.827   1.214   0.051 -0.8583 -0.3764 -0.1797
  721SOL     OW 2881   2.490   0.894   1.396 -0.4802  0.2000 -0.0721
  721SOL    HW1 2882   2.497   0.796   1.389 -1.8511  0.3917 -2.2687
  721SOL    HW2 2883   2.532   0.920   1.479  1.9981 -3.4912  2.2585
  721SOL     MW 2884   2.497   0.884   1.406 -0.3341 -0.2617 -0.0544
  722SOL     OW 2885   2.586   1.087   0.434  0.2280  0.0164 -1.1016
  722SOL    HW1 2886   2.529   1.145   0.486 -2.9581  4.1390  1.1036
  722SOL    HW2 2887   2.651   1.062   0.501  2.5488  1.2283 -1.0278
  722SOL     MW 2888   2.587   1.091   0.450  0.1138  0.7202 -0.8009
  723SOL     OW 2889   2.315   1.394   1.566 -0.0125  0.0893  0.0135
  723SOL    HW1 2890   2.293   1.388   1.470 -1.1442 -1.6935 -1.4335
  723SOL    HW2 2891   2.238   1.427   1.623  0.7053  2.4520  1.9123
  723SOL     MW 2892   2.302   1.398   1.561 -0.0671  0.1658  0.0731
  724SOL     OW 2893   2.465   0.369   0.562 -0.1913  0.3294 -0.2014
  724SOL    HW1 2894   2.458   0.327   0.646 -1.7413  0.0822  0.2729
  724SOL    HW2 2895   2.558   0.390   0.557  2.1944 -1.5938  0.1871
  724SOL     MW 2896   2.477   0.366   0.573 -0.0810  0.0430 -0.0876
  725SOL     OW 2897   2.600   0.512   1.185 -0.6563 -0.9265 -0.0759
  725SOL    HW1 2898   2.690   0.491   1.213 -1.6412 -1.4542  2.0417
  725SOL    HW2 2899   2.549   0.522   1.263  0.9779 -1.4724  0.8954
  725SOL     MW 2900   2.605   0.511   1.199 -0.5706 -1.0682  0.3316
  726SOL     OW 2901   2.580   2.509   0.546 -0.2462  0.7249 -0.4839
  726SOL    HW1 2902   2.512   2.559   0.497 -0.1391 -1.2365 -0.4184
  726SOL    HW2 2903   2.555   2.497   0.636  3.0329 -0.3797 -0.7440
  726SOL     MW 2904   2.568   2.514   0.551  0.2005  0.3204 -0.5095
  727SOL     OW 2905   2.872   0.330   1.764 -0.3747  0.4863  0.6501
  727SOL    HW1 2906   2.812   0.293   1.695  2.2383  0.8234  1.9514
  727SOL    HW2 2907   2.814   0.336   1.843 -2.1254 -0.7145 -0.3122
  727SOL     MW 2908   2.856   0.326   1.765 -0.2609  0.3723  0.6948
  728SOL     OW 2909   2.800   1.131   2.878  0.2742  0.1300  0.0137
  728SOL    HW1 2910   2.792   1.201   2.811 -1.6132 -0.8579 -0.7382
  728SOL    HW2 2911   2.813   1.171   2.961 -0.2423 -1.6402  0.4242
  728SOL     MW 2912   2.801   1.146   2.880 -0.0430 -0.2339 -0.0314
  729SOL     OW 2913   2.494   1.449   1.185 -0.4715  0.0128  0.4618
  729SOL    HW1 2914   2.564   1.440   1.254 -0.2878 -0.7137 -1.2224
  729SOL    HW2 2915   2.534   1.415   1.104  0.0009  0.4144  0.8917
  729SOL     MW 2916   2.509   1.443   1.183 -0.3850 -0.0301  0.2963
  730SOL     OW 2917   2.300   1.168   0.238  0.0723  0.4597  0.6807
  730SOL    HW1 2918   2.377   1.114   0.228 -5.4195 -3.4673  0.8334
  730SOL    HW2 2919   2.338   1.255   0.227  1.6596 -1.2455  1.6340
  730SOL     MW 2920   2.316   1.173   0.236 -0.4429 -0.2834  0.8266
  731SOL     OW 2921   2.797   2.045   2.917  0.3195  0.4247  0.0905
  731SOL    HW1 2922   2.761   2.024   2.834  0.6491 -0.7269  0.5729
  731SOL    HW2 2923   2.886   2.067   2.897 -0.8886 -0.3528  2.9064
  731SOL     MW 2924   2.804   2.045   2.903  0.2036  0.1702  0.5257
  732SOL     OW 2925   2.213   0.883   1.343  0.0384 -0.1746  0.2609
  732SOL    HW1 2926   2.160   0.921   1.413 -0.6176 -0.6195 -1.0616
  732SOL    HW2 2927   2.311   0.885   1.368 -0.9721 -1.6803 -1.1516
  732SOL     MW 2928   2.219   0.888   1.356 -0.1815 -0.4319 -0.1000
  733SOL     OW 2929   2.374   2.820   3.019  0.4540  0.1039  0.0501
  733SOL    HW1 2930   2.296   2.874   3.004  1.6123  1.1980 -0.4431
  733SOL    HW2 2931   2.341   2.736   2.984  0.1600  0.0197  1.7032
  733SOL     MW 2932   2.359   2.816   3.012  0.5680  0.2371  0.2031
  734SOL     OW 2933   1.439   0.310   2.446  0.2700 -0.4938 -0.0094
  734SOL    HW1 2934   1.434   0.268   2.532  0.5963 -0.2488 -0.4783
  734SOL    HW2 2935   1.483   0.252   2.382  0.7943 -1.8375  0.3938
  734SOL     MW 2936   1.444   0.297   2.449  0.3822 -0.6388 -0.0181
  735SOL     OW 2937   2.922   0.869   2.611 -0.1329  0.0873  0.1090
  735SOL    HW1 2938   2.892   0.777   2.613 -1.0463  0.8494  5.0007
  735SOL    HW2 2939   2.966   0.879   2.691 -2.1215  0.3881  0.9696
  735SOL     MW 2940   2.924   0.858   2.622 -0.5158  0.2275  0.8680
  736SOL     OW 2941   0.094   0.629   2.539  0.2301  0.5649  0.1079
  736SOL    HW1 2942   0.100   0.709   2.488 -0.1454  1.3288  1.2393
  736SOL    HW2 2943   0.105   0.561   2.469 -1.3772 -0.1660  2.4280
  736SOL     MW 2944   0.097   0.631   2.523 -0.0315  0.5692  0.5633
  737SOL     OW 2945   2.915   0.598   2.613  0.3762  0.1937  0.5612
  737SOL    HW1 2946   2.846   0.579   2.548  0.3912 -1.1126 -0.2332
  737SOL    HW2 2947   2.998   0.599   2.567  1.2281 -2.6320  1.5485
  737SOL     MW 2948   2.917   0.596   2.598  0.4906 -0.3514  0.5867
  738SOL     OW 2949   0.188   0.621   1.969  0.6148 -0.5272  0.0343
  738SOL    HW1 2950   0.276   0.635   1.939 -1.1046  1.3719 -1.7479
  738SOL    HW2 2951   0.179   0.533   1.934  0.6119 -1.0402 -0.2878
  738SOL     MW 2952   0.198   0.612   1.961  0.3876 -0.3443 -0.2433
  739SOL     OW 2953   2.499   0.983   2.036  0.2624  0.1577  0.1272
  739SOL    HW1 2954   2.424   0.942   2.000 -0.6099 -0.7155  1.4063
  739SOL    HW2 2955   2.511   1.069   1.992  2.4878 -1.4390 -0.8168
  739SOL     MW 2956   2.490   0.989   2.025  0.4409 -0.1682  0.1714
  740SOL     OW 2957   0.220   1.746   2.947  0.1991 -0.0815 -0.0041
  740SOL    HW1 2958   0.175   1.664   2.937  0.4801  0.7003  1.6167
  740SOL    HW2 2959   0.316   1.730   2.967  0.9161 -0.2740  0.7264
  740SOL     MW 2960   0.227   1.733   2.949  0.3308 -0.0037  0.3062
  741SOL     OW 2961   2.212   1.161   2.720  0.1453  0.3162 -0.9650
  741SOL    HW1 2962   2.126   1.122   2.706  0.0161 -0.6790 -1.3660
  741SOL    HW2 2963   2.223   1.181   2.814 -0.0041  4.2147 -0.4423
  741SOL     MW 2964   2.202   1.159   2.731  0.1085  0.6992 -0.9490
  742SOL     OW 2965   1.598   1.242   2.202  0.5378  0.1900  0.0852
  742SOL    HW1 2966   1.538   1.171   2.192  0.5593  2.4408 -2.2727
  742SOL    HW2 2967   1.634   1.222   2.289  1.3162 -0.6928  0.7938
  742SOL     MW 2968   1.595   1.230   2.212  0.6434  0.3705 -0.1324
  743SOL     OW 2969   2.466   1.323   2.718 -0.5720  0.1071  0.1613
  743SOL    HW1 2970   2.376   1.318   2.708 -0.0619  0.0229  1.0660
  743SOL    HW2 2971   2.481   1.247   2.783 -0.3244  0.0616 -0.4517
  743SOL     MW 2972   2.456   1.313   2.725 -0.4720  0.0900  0.1998
  744SOL     OW 2973   2.755   0.932   1.864 -0.4839 -0.2324  0.5330
  744SOL    HW1 2974   2.684   0.990   1.895 -0.4609  3.3351  2.4296
  744SOL    HW2 2975   2.735   0.918   1.770  0.0183 -4.0403  0.1440
  744SOL     MW 2976   2.743   0.938   1.856 -0.4146 -0.2641  0.7319
  745SOL     OW 2977   1.725   0.425   2.500  0.4155 -0.0537 -0.2046
  745SOL    HW1 2978   1.701   0.456   2.410  2.0585  2.2414  0.9935
  745SOL    HW2 2979   1.642   0.424   2.546  1.2735 -0.0282  0.6154
  745SOL     MW 2980   1.711   0.429   2.494  0.7455  0.2525  0.0617
  746SOL     OW 2981   1.593   1.498   1.637 -0.5553  0.1663 -0.0821
  746SOL    HW1 2982   1.685   1.461   1.635 -0.9287  1.3077  0.9283
  746SOL    HW2 2983   1.564   1.492   1.728  1.2244  0.8698  0.3670
  746SOL     MW 2984   1.602   1.493   1.649 -0.3698  0.4097  0.1104
  747SOL     OW 2985   2.563   1.142   1.823 -0.3917  0.2523 -0.2674
  747SOL    HW1 2986   2.474   1.131   1.791 -0.5931  1.5986 -0.7222
  747SOL    HW2 2987   2.574   1.233   1.863  0.4836  0.7003 -0.6349
  747SOL     MW 2988   2.553   1.153   1.824 -0.3028  0.4891 -0.3759
  748SOL     OW 2989   0.095   0.038   1.837 -0.1383  0.0983  0.4591
  748SOL    HW1 2990   0.187   0.069   1.845  1.9519 -2.9386 -0.0852
  748SOL    HW2 2991   0.056   0.072   1.919 -0.1404  1.3086  1.9832
  748SOL     MW 2992   0.102   0.047   1.849  0.1372 -0.1427  0.5884
  749SOL     OW 2993   2.510   0.518   2.704 -0.2184  0.6239  0.3125
  749SOL    HW1 2994   2.551   0.586   2.653 -0.9767  0.5789 -0.5199
  749SOL    HW2 2995   2.484   0.575   2.779 -0.2129  2.2681  1.3580
  749SOL     MW 2996   2.512   0.534   2.707 -0.3177  0.8349  0.3406
  750SOL     OW 2997   2.016   3.037   1.998  0.3271 -0.5156 -0.1108
  750SOL    HW1 2998   2.069   3.122   1.995  0.2066 -1.5127 -1.2047
  750SOL    HW2 2999   2.085   2.973   1.996 -0.1826 -1.7261 -0.2719
  750SOL     MW 3000   2.032   3.039   1.997  0.2439 -0.8069 -0.2764
  751SOL     OW 3001   0.082   0.422   2.329  0.2117 -0.6639  0.1402
  751SOL    HW1 3002   0.082   0.340   2.373  1.0826  2.1927 -0.9370
  751SOL    HW2 3003   0.148   0.414   2.258  1.3988  1.2170 -1.4723
  751SOL     MW 3004   0.091   0.410   2.325  0.4832 -0.0389 -0.2147
  752SOL     OW 3005   2.146   0.785   2.692 -0.0831 -0.5442  0.3212
  752SOL    HW1 3006   2.220   0.840   2.670 -0.8119 -1.2365 -0.1627
  752SOL    HW2 3007   2.133   0.779   2.788  0.4248 -1.2370  0.2953
  752SOL     MW 3008   2.154   0.792   2.702 -0.1123 -0.7269  0.2539
  753SOL     OW 3009   2.922   0.272   2.427  0.1998 -0.3643  0.4905
  753SOL    HW1 3010   2.864   0.205   2.398 -0.8248 -0.4062 -2.8559
  753SOL    HW2 3011   2.895   0.361   2.407 -1.1546 -0.0346  1.0097
  753SOL     MW 3012   2.911   0.275   2.421 -0.1141 -0.3263  0.1175
  754SOL     OW 3013   2.256   2.953   2.604  0.0767 -0.3196 -0.5272
  754SOL    HW1 3014   2.278   2.944   2.512  3.5031 -0.8686  2.1190
  754SOL    HW2 3015   2.334   2.928   2.657  3.1643 -1.8289 -1.1435
  754SOL     MW 3016   2.269   2.949   2.599  0.9361 -0.5912 -0.2593
  755SOL     OW 3017   2.727   1.504   2.488 -0.2068 -0.3335  0.5555
  755SOL    HW1 3018   2.746   1.422   2.536 -0.8919  1.4823 -0.6282
  755SOL    HW2 3019   2.786   1.570   2.524  0.0782  0.9198 -0.5420
  755SOL     MW 3020   2.737   1.502   2.499 -0.2596  0.0714  0.2545
  756SOL     OW 3021   2.238   1.235   3.011 -0.8200  0.0469 -0.1469
  756SOL    HW1 3022   2.299   1.310   3.024  0.9578 -1.3445  4.1979
  756SOL    HW2 3023   2.291   1.156   3.032 -0.6072 -1.3032  1.4642
  756SOL     MW 3024   2.253   1.234   3.015 -0.5574 -0.3148  0.6389
  757SOL     OW 3025   2.099   0.932   1.610 -0.3081  0.0430 -0.2911
  757SOL    HW1 3026   2.132   0.841   1.617  0.0647  0.4539 -0.7152
  757SOL    HW2 3027   2.007   0.921   1.578 -0.0112 -1.9711  0.1287
  757SOL     MW 3028   2.091   0.918   1.607 -0.2197 -0.1685 -0.2917
  758SOL     OW 3029   2.191   1.709   2.662  0.4418 -0.3832  0.0155
  758SOL    HW1 3030   2.156   1.740   2.577 -2.0438  0.5688 -2.3912
  758SOL    HW2 3031   2.286   1.718   2.668  0.3384  1.1555  1.4603
  758SOL     MW 3032   2.199   1.715   2.651  0.1002 -0.0545 -0.1114
  759SOL     OW 3033   1.631   1.372   2.653 -0.0563  0.8323 -0.4832
  759SOL    HW1 3034   1.587   1.452   2.626  1.3127  0.4346 -1.9618
  759SOL    HW2 3035   1.668   1.392   2.738 -0.3689  1.0704 -1.2521
  759SOL     MW 3036   1.630   1.385   2.661  0.0830  0.8113 -0.7797
  760SOL     OW 3037   2.626   1.993   2.702  0.0015  0.0272  0.5694
  760SOL    HW1 3038   2.583   1.912   2.675  0.0126  1.4730 -2.8439
  760SOL    HW2 3039   2.601   2.061   2.633 -1.4959  0.6038 -2.8220
  760SOL     MW 3040   2.617   1.991   2.689 -0.1946  0.2940 -0.3284
  761SOL     OW 3041   2.194   0.397   2.447  0.2786 -0.0804  0.0359
  761SOL    HW1 3042   2.126   0.335   2.468 -1.3985 -0.9059 -2.4167
  761SOL    HW2 3043   2.218   0.424   2.537  0.8978 -0.6876  2.4290
  761SOL     MW 3044   2.189   0.393   2.462  0.1390 -0.2695  0.0280
  762SOL     OW 3045   0.031   0.163   2.084 -0.2776  0.2217  0.4398
  762SOL    HW1 3046   0.017   0.096   2.151 -1.5816  1.7990  3.1993
  762SOL    HW2 3047  -0.030   0.234   2.094 -0.5105  2.2326  2.4146
  762SOL     MW 3048   0.021   0.163   2.094 -0.4803  0.6952  1.0645
  763SOL     OW 3049   2.382   1.066   2.301 -0.5315  0.4103  0.1923
  763SOL    HW1 3050   2.424   1.011   2.233  0.3246 -0.9781 -1.3385
  763SOL    HW2 3051   2.450   1.138   2.311 -0.1890 -1.0139 -0.6317
  763SOL     MW 3052   2.396   1.068   2.293 -0.3734  0.0392 -0.1184
  764SOL     OW 3053   0.437   0.307   2.796 -0.0313 -0.8488 -0.1751
  764SOL    HW1 3054   0.366   0.251   2.764  1.6491  3.1871 -0.2341
  764SOL    HW2 3055   0.396   0.385   2.839  0.3444 -0.5017  0.4374
  764SOL     MW 3056   0.422   0.310   2.797  0.2399 -0.2705 -0.1021
  765SOL     OW 3057   2.765   0.095   2.316  0.3446 -0.3516  0.1536
  765SOL    HW1 3058   2.717   0.087   2.232 -0.6388  1.3139 -0.4123
  765SOL    HW2 3059   2.803   0.011   2.341  1.1583  1.3090 -0.5561
  765SOL     MW 3060   2.764   0.083   2.308  0.3222  0.0873 -0.0147
  766SOL     OW 3061   1.820   2.981   2.179 -0.8160 -0.1826 -0.2617
  766SOL    HW1 3062   1.877   3.000   2.102 -0.0963 -0.8434  1.2651
  766SOL    HW2 3063   1.754   2.909   2.147  1.1602 -2.1146 -0.9091
  766SOL     MW 3064   1.819   2.974   2.165 -0.4603 -0.5247 -0.1456
  767SOL     OW 3065   2.645   0.640   1.897  0.3718  0.2339  0.4727
  767SOL    HW1 3066   2.658   0.701   1.967 -1.0614 -0.1278 -1.2484
  767SOL    HW2 3067   2.552   0.628   1.886  1.1783 -1.0177 -1.3887
  767SOL     MW 3068   2.634   0.647   1.905  0.2891  0.0210  0.0000
  768SOL     OW 3069   0.007   1.538   2.932 -0.8129  0.3636  0.1894
  768SOL    HW1 3070   0.030   1.510   3.028 -0.9310  0.1151  3.1477
  768SOL    HW2 3071   0.053   1.466   2.875  1.5721  1.9250 -0.8633
  768SOL     MW 3072   0.016   1.525   2.937 -0.5138  0.5368  0.4408
  769SOL     OW 3073   2.411   0.670   2.341  0.4998 -0.4084 -0.2472
  769SOL    HW1 3074   2.319   0.637   2.362 -0.0891 -1.5338  0.3443
  769SOL    HW2 3075   2.436   0.644   2.249 -0.2712  0.8615  0.6142
  769SOL     MW 3076   2.402   0.662   2.332  0.3204 -0.3893 -0.0555
  770SOL     OW 3077   0.099   1.587   2.612 -0.1256  0.0125 -0.1338
  770SOL    HW1 3078  -0.001   1.606   2.618  0.1150  1.1304  2.0936
  770SOL    HW2 3079   0.095   1.494   2.647  0.7755  0.9981  1.0402
  770SOL     MW 3080   0.085   1.577   2.617  0.0250  0.2900  0.3150
  771SOL     OW 3081   2.963   0.622   1.928  0.2489  0.0723  0.2762
  771SOL    HW1 3082   2.913   0.644   1.843  2.3983  1.0991 -0.3255
  771SOL    HW2 3083   3.041   0.677   1.918  2.4660 -0.9021 -0.2839
  771SOL     MW 3084   2.966   0.633   1.915  0.8251  0.0792  0.1229
  772SOL     OW 3085   0.007   3.093   2.296 -0.0812 -0.0700 -0.2039
  772SOL    HW1 3086  -0.073   3.048   2.320  0.0093 -0.0117  2.8864
  772SOL    HW2 3087   0.066   3.020   2.270  0.1016 -1.2172 -0.4273
  772SOL     MW 3088   0.004   3.077   2.296 -0.0452 -0.2137  0.1744
  773SOL     OW 3089   2.469   2.851   2.729 -0.4093  0.0621 -0.0778
  773SOL    HW1 3090   2.483   2.775   2.668  0.2887  0.2648 -1.1330
  773SOL    HW2 3091   2.456   2.815   2.816 -0.8134  0.5372 -0.3781
  773SOL     MW 3092   2.469   2.837   2.732 -0.3705  0.1515 -0.2567
  774SOL     OW 3093   2.274   1.130   1.701  0.5593 -0.7409 -0.0420
  774SOL    HW1 3094   2.262   1.217   1.662  1.9156  0.4143  2.8086
  774SOL    HW2 3095   2.202   1.067   1.668 -2.1571 -1.8743 -0.5348
  774SOL     MW 3096   2.263   1.133   1.692  0.3798 -0.7381  0.2691
  775SOL     OW 3097   2.288   2.915   2.326 -0.2424  0.3584  0.3605
  775SOL    HW1 3098   2.323   2.973   2.257 -2.4448  1.1012 -2.0844
  775SOL    HW2 3099   2.345   2.835   2.323 -1.1761 -3.7434  2.6559
  775SOL     MW 3100   2.300   2.912   2.317 -0.6562 -0.0848  0.3408
  776SOL     OW 3101   0.070   1.479   0.106  0.8351  0.4711 -0.4655
  776SOL    HW1 3102   0.157   1.445   0.094 -0.1497  2.7660 -0.0039
  776SOL    HW2 3103   0.041   1.391   0.135 -1.9679  0.3584  2.8843
  776SOL     MW 3104   0.078   1.463   0.109  0.3353  0.7590  0.0374
  777SOL     OW 3105   2.968   1.073   1.768 -0.5015 -0.0318  0.2474
  777SOL    HW1 3106   2.913   1.111   1.701  0.0856 -0.5729 -0.2645
  777SOL    HW2 3107   2.903   1.026   1.821  1.9864  1.3005 -1.3889
  777SOL     MW 3108   2.952   1.072   1.766 -0.0958  0.0726 -0.0361
  778SOL     OW 3109   2.902   0.413   2.802  0.3000 -0.3243  0.4374
  778SOL    HW1 3110   2.832   0.434   2.871 -1.7193 -0.6163  1.2950
  778SOL    HW2 3111   2.897   0.490   2.742 -0.1709 -3.0135 -1.9779
  778SOL     MW 3112   2.892   0.426   2.803 -0.0286 -0.7176  0.2319
  779SOL     OW 3113   2.127   0.638   2.316  0.5091 -0.5206  0.0855
  779SOL    HW1 3114   2.057   0.688   2.379 -2.3527 -1.2543  2.2074
  779SOL    HW2 3115   2.157   0.573   2.377  1.4621  1.5226  4.7017
  779SOL     MW 3116   2.122   0.636   2.332  0.2572 -0.3478  0.9745
  780SOL     OW 3117   0.233   0.086   2.803  0.1687  0.0790 -0.0574
  780SOL    HW1 3118   0.221   0.158   2.865  1.0815  0.5198  0.5530
  780SOL    HW2 3119   0.143   0.070   2.771 -0.6371 -2.8099 -0.8203
  780SOL     MW 3120   0.219   0.094   2.807  0.1828 -0.2440 -0.0775
  781SOL     OW 3121   3.004   1.301   2.494 -0.0264  0.2689 -0.1067
  781SOL    HW1 3122   2.982   1.365   2.430  1.0813 -2.1270 -0.9706
  781SOL    HW2 3123   3.030   1.223   2.453 -2.1712  0.8266  1.8513
  781SOL     MW 3124   3.004   1.299   2.480 -0.1632  0.0264  0.0376
  782SOL     OW 3125   0.615   1.516   3.078 -0.3037 -0.6426 -0.5210
  782SOL    HW1 3126   0.570   1.589   3.045 -0.2820  1.1401  0.7502
  782SOL    HW2 3127   0.569   1.496   3.166 -2.3192 -0.8417  1.2169
  782SOL     MW 3128   0.603   1.523   3.086 -0.5668 -0.4336 -0.1239
  783SOL     OW 3129   2.712   0.507   2.461  0.0560 -0.1587 -0.0037
  783SOL    HW1 3130   2.672   0.478   2.374 -1.5379  0.8761 -0.1053
  783SOL    HW2 3131   2.707   0.432   2.525 -1.1612  0.1771 -0.3750
  783SOL     MW 3132   2.706   0.493   2.458 -0.3149  0.0222 -0.0661
  784SOL     OW 3133   0.266   0.905   2.881  0.2332  0.5289 -0.0312
  784SOL    HW1 3134   0.214   0.984   2.912  1.8988 -1.7004  1.4237
  784SOL    HW2 3135   0.292   0.926   2.799  0.0402 -0.4635  2.5443
  784SOL     MW 3136   0.263   0.918   2.874  0.4275  0.1039  0.5005
  785SOL     OW 3137   0.445   0.557   2.172 -0.1931 -0.1166 -0.2126
  785SOL    HW1 3138   0.463   0.600   2.086  1.7167  2.4353  0.2179
  785SOL    HW2 3139   0.377   0.490   2.166 -0.6852 -0.7251  2.7347
  785SOL     MW 3140   0.439   0.554   2.160 -0.0061  0.1398  0.2331
  786SOL     OW 3141   1.942   0.480   2.848  0.4197 -0.3594 -0.8642
  786SOL    HW1 3142   1.958   0.484   2.942  1.8305 -0.4632  2.5589
  786SOL    HW2 3143   2.023   0.460   2.814 -4.2828 -0.0564 -1.3404
  786SOL     MW 3144   1.955   0.478   2.856 -0.0146 -0.3331 -0.4754
  787SOL     OW 3145   2.426   0.143   2.977 -0.2360  0.3189  0.1979
  787SOL    HW1 3146   2.493   0.097   2.926  1.8743  1.5746  2.1479
  787SOL    HW2 3147   2.469   0.213   3.024  1.9663 -0.3848 -3.1485
  787SOL     MW 3148   2.440   0.146   2.976  0.3330  0.3917  0.0137
  788SOL     OW 3149   2.851   2.934   2.389 -0.2919 -0.0856 -0.0368
  788SOL    HW1 3150   2.800   2.898   2.324  2.1197 -0.3698  0.5475
  788SOL    HW2 3151   2.915   2.870   2.419  2.1146 -2.3297 -1.2044
  788SOL     MW 3152   2.853   2.921   2.384  0.3438 -0.4192 -0.1138
  789SOL     OW 3153   0.117   0.299   2.949  0.3305 -0.9525 -0.2680
  789SOL    HW1 3154   0.058   0.253   3.012  0.9049 -1.1017 -0.7391
  789SOL    HW2 3155   0.077   0.390   2.955 -1.3251  1.1781  0.3631
  789SOL     MW 3156   0.104   0.305   2.958  0.1878 -0.6911 -0.2469
  790SOL     OW 3157   3.066   1.016   2.430  0.0171  0.0501 -0.4860
  790SOL    HW1 3158   3.007   0.962   2.485  1.1151 -2.0691  1.9057
  790SOL    HW2 3159   3.028   1.012   2.340  2.7138 -0.4019  1.2443
  790SOL     MW 3160   3.053   1.008   2.425  0.5178 -0.2892  0.0579
  791SOL     OW 3161   2.696   0.317   2.653  0.5359  0.2421 -0.0554
  791SOL    HW1 3162   2.615   0.364   2.694 -0.7442  0.3236  1.4667
  791SOL    HW2 3163   2.773   0.345   2.707  1.7135  0.8565  0.2189
  791SOL     MW 3164   2.696   0.327   2.666  0.5224  0.3339  0.1816
  792SOL     OW 3165   2.396   0.225   2.364  0.1959  0.0271 -0.2636
  792SOL    HW1 3166   2.333   0.285   2.405 -1.0227  0.1708 -2.3968
  792SOL    HW2 3167   2.443   0.186   2.435 -0.0684  1.0614  2.2644
  792SOL     MW 3168   2.394   0.228   2.379  0.0003  0.1825 -0.2115
  793SOL     OW 3169   1.854   1.082   1.953  0.5604 -0.8046 -0.1183
  793SOL    HW1 3170   1.820   1.092   1.866 -6.5609 -2.5167  2.2874
  793SOL    HW2 3171   1.924   1.020   1.946 -1.8112  1.3975 -3.1175
  793SOL     MW 3172   1.859   1.075   1.940 -0.6921 -0.7399 -0.1966
  794SOL     OW 3173   1.453   2.281   0.172  0.5622 -0.4303  0.6657
  794SOL    HW1 3174   1.461   2.343   0.098 -0.4307 -0.8815 -2.5084
  794SOL    HW2 3175   1.507   2.303   0.250  0.0216 -1.0087  1.3707
  794SOL     MW 3176   1.461   2.292   0.173  0.3599 -0.5662  0.3400
  795SOL     OW 3177   2.336   0.966   2.569 -0.2764  0.0336  0.6644
  795SOL    HW1 3178   2.297   1.021   2.635 -1.3575  2.2206 -0.2236
  795SOL    HW2 3179   2.372   1.023   2.500 -4.5841 -2.5787 -0.4939
  795SOL     MW 3180   2.336   0.981   2.568 -0.9874 -0.0225  0.3944
  796SOL     OW 3181   0.231   0.661   2.791  0.1871 -0.1717 -0.4359
  796SOL    HW1 3182   0.246   0.752   2.807 -0.1374 -0.8419 -0.5708
  796SOL    HW2 3183   0.182   0.654   2.709  1.4922  2.6081 -2.5692
  796SOL     MW 3184   0.226   0.672   2.782  0.3165  0.1067 -0.7352
  797SOL     OW 3185   2.574   0.111   2.518 -0.0640 -0.2093  0.6412
  797SOL    HW1 3186   2.620   0.194   2.565  2.4728  2.8345  0.9884
  797SOL    HW2 3187   2.626   0.095   2.434  0.7931 -0.8201 -0.4632
  797SOL     MW 3188   2.587   0.120   2.513  0.3838  0.1117  0.5413
  798SOL     OW 3189   2.357   0.030   2.158 -0.0234 -0.1591  0.0878
  798SOL    HW1 3190   2.369   0.094   2.235 -0.7393  1.2765 -0.3882
  798SOL    HW2 3191   2.446   0.021   2.130  1.1117 -1.1835  0.4006
  798SOL     MW 3192   2.370   0.037   2.164  0.0319 -0.1048  0.0663
  799SOL     OW 3193   2.453   2.914   0.148 -0.0242  0.2258  0.4456
  799SOL    HW1 3194   2.422   2.864   0.071  0.3581  1.1382  1.1931
  799SOL    HW2 3195   2.399   2.992   0.152  2.7501 -0.1360 -0.2402
  799SOL     MW 3196   2.442   2.918   0.139  0.3923  0.2985  0.4538
  800SOL     OW 3197   1.840   3.084   1.788 -0.1959 -0.5494 -0.4752
  800SOL    HW1 3198   1.785   3.008   1.810 -0.1538  0.9822  0.5053
  800SOL    HW2 3199   1.920   3.066   1.843  0.2595  0.4838 -0.8599
  800SOL     MW 3200   1.844   3.071   1.798 -0.1303 -0.2110 -0.3966
  801SOL     OW 3201   2.781   1.293   2.659  0.4556  0.5196 -0.2243
  801SOL    HW1 3202   2.751   1.208   2.614  0.6925  0.2912 -2.0097
  801SOL    HW2 3203   2.871   1.304   2.634 -3.2715 -1.6245 -0.6858
  801SOL     MW 3204   2.789   1.284   2.650 -0.0049  0.2066 -0.5207
  802SOL     OW 3205   2.564   1.565   2.826 -0.5524 -0.2786 -0.2073
  802SOL    HW1 3206   2.542   1.480   2.777 -1.1456 -1.2506 -0.2359
  802SOL    HW2 3207   2.657   1.543   2.857  2.8674 -2.6021  0.3865
  802SOL     MW 3208   2.573   1.551   2.824 -0.1794 -0.7134 -0.1327
  803SOL     OW 3209   2.311   1.351   1.964 -0.1132  0.3919 -0.3212
  803SOL    HW1 3210   2.311   1.335   2.055  0.0015  1.3529 -0.0485
  803SOL    HW2 3211   2.286   1.267   1.929  0.8364 -1.4150  1.2713
  803SOL     MW 3212   2.307   1.338   1.971  0.0272  0.2803 -0.0751
  804SOL     OW 3213   2.276   0.048   0.072  0.9170 -0.2962  0.0124
  804SOL    HW1 3214   2.193   0.100   0.060  2.0433  1.4529 -0.2902
  804SOL    HW2 3215   2.339   0.072   0.002 -1.0866 -0.0870 -0.3776
  804SOL     MW 3216   2.273   0.058   0.061  0.8012 -0.0378 -0.0790
  805SOL     OW 3217   2.712   1.025   2.518 -0.3075 -0.3342  0.2048
  805SOL    HW1 3218   2.709   0.993   2.428 -0.1938  0.6496 -0.2160
  805SOL    HW2 3219   2.774   0.971   2.566  2.5436  1.1587  1.6426
  805SOL     MW 3220   2.719   1.013   2.513  0.0836 -0.0074  0.3390
  806SOL     OW 3221   2.586   0.408   2.255 -0.2125  0.0871  0.0125
  806SOL    HW1 3222   2.537   0.324   2.284  0.3096 -2.2537 -0.7280
  806SOL    HW2 3223   2.583   0.409   2.161  1.2442 -0.2962  0.6364
  806SOL     MW 3224   2.579   0.397   2.246  0.0486 -0.2724 -0.0029
  807SOL     OW 3225   0.008   1.121   2.038 -0.3248 -0.2784  0.7262
  807SOL    HW1 3226   0.040   1.042   1.981 -2.6773  0.2739 -0.3115
  807SOL    HW2 3227  -0.082   1.092   2.073 -3.7733 -1.0149  0.3840
  807SOL     MW 3228   0.000   1.107   2.035 -1.0902 -0.3027  0.5441
  808SOL     OW 3229   2.581   0.006   2.769  0.4595  0.1807  0.0727
  808SOL    HW1 3230   2.542  -0.080   2.754  1.3459  0.7796  0.1496
  808SOL    HW2 3231   2.560   0.050   2.681 -1.3488  2.5152 -1.8159
  808SOL     MW 3232   2.573   0.000   2.756  0.3378  0.5677 -0.1663
  809SOL     OW 3233   2.573   1.254   2.382  0.0571 -0.1283 -0.3856
  809SOL    HW1 3234   2.640   1.223   2.449 -0.4300 -0.0162 -0.6407
  809SOL    HW2 3235   2.635   1.265   2.306 -0.6272 -2.0142 -2.8343
  809SOL     MW 3236   2.590   1.252   2.381 -0.0974 -0.3623 -0.7423
  810SOL     OW 3237   2.227   1.285   2.223 -0.5532 -1.0842  0.3319
  810SOL    HW1 3238   2.267   1.200   2.238 -1.1318  0.3281 -0.3520
  810SOL    HW2 3239   2.130   1.265   2.224  0.2450 -0.7323  2.0336
  810SOL     MW 3240   2.220   1.271   2.225 -0.5242 -0.8514  0.4662
  811SOL     OW 3241   1.542   0.083   2.279 -0.2594  0.0586  0.2183
  811SOL    HW1 3242   1.620   0.076   2.330 -5.1342  2.8830  1.2115
  811SOL    HW2 3243   1.558   0.062   2.193 -1.9328  1.0703  1.7670
  811SOL     MW 3244   1.554   0.080   2.275 -1.1233  0.5647  0.5537
  812SOL     OW 3245   1.448   2.775   2.042  0.6587 -0.2643 -0.3530
  812SOL    HW1 3246   1.537   2.766   2.080 -0.5635  0.4230  1.0658
  812SOL    HW2 3247   1.386   2.764   2.117 -2.1837  3.0133 -0.5832
  812SOL     MW 3248   1.452   2.773   2.057  0.1224  0.2588 -0.1962
  813SOL     OW 3249   1.786   0.709   2.194  0.4457  0.0696 -0.1426
  813SOL    HW1 3250   1.744   0.623   2.208  2.1072 -0.3435 -3.2150
  813SOL    HW2 3251   1.803   0.741   2.283  0.3258 -0.3806 -1.4706
  813SOL     MW 3252   1.783   0.702   2.207  0.6491 -0.0443 -0.7232
  814SOL     OW 3253   2.781   1.233   1.652 -0.2349  0.6041 -0.2133
  814SOL    HW1 3254   2.698   1.216   1.698 -2.0411 -0.5635 -0.0242
  814SOL    HW2 3255   2.761   1.204   1.562 -0.2635 -1.7843 -0.1150
  814SOL     MW 3256   2.767   1.227   1.646 -0.4770  0.1349 -0.1754
  815SOL     OW 3257   2.512   1.636   2.397 -0.3684  0.2334 -0.1498
  815SOL    HW1 3258   2.445   1.564   2.410 -0.4789  1.0460 -1.4706
  815SOL    HW2 3259   2.599   1.601   2.409  1.9239 -1.8010 -2.4466
  815SOL     MW 3260   2.515   1.622   2.400 -0.0805  0.0722 -0.6271
  816SOL     OW 3261   0.751   0.627   2.771  0.0640  0.3859 -0.1706
  816SOL    HW1 3262   0.760   0.554   2.832 -1.8361 -0.7065  1.1460
  816SOL    HW2 3263   0.660   0.623   2.747  1.5310  0.4019  2.7777
  816SOL     MW 3264   0.740   0.616   2.776  0.0069  0.2439  0.3921
  817SOL     OW 3265   3.058   1.170   1.368 -0.0485  0.1750  0.4087
  817SOL    HW1 3266   3.101   1.173   1.454  1.4756  1.3481 -1.2289
  817SOL    HW2 3267   3.065   1.262   1.336  2.3250 -1.1760 -0.1976
  817SOL     MW 3268   3.064   1.183   1.375  0.4658  0.1515  0.1126
  818SOL     OW 3269   1.912   0.996   2.772 -0.3186  0.3309 -0.5682
  818SOL    HW1 3270   1.916   1.028   2.680  3.1562  0.8094 -0.2624
  818SOL    HW2 3271   1.965   0.921   2.775  0.4052  1.2323  2.4027
  818SOL     MW 3272   1.919   0.991   2.760  0.2354  0.5130 -0.1359
  819SOL     OW 3273   1.939   0.250   2.485 -0.2655 -0.5839 -0.1521
  819SOL    HW1 3274   1.872   0.317   2.483  1.4034 -2.7376 -2.1024
  819SOL    HW2 3275   1.960   0.238   2.576 -0.0799 -0.7340  0.0059
  819SOL     MW 3276   1.933   0.257   2.497 -0.0208 -0.8878 -0.3886
  820SOL     OW 3277   2.481   1.763   2.651 -0.1361 -0.1971 -0.1220
  820SOL    HW1 3278   2.518   1.701   2.721  1.2957 -3.4162 -1.8743
  820SOL    HW2 3279   2.486   1.718   2.569  1.5519  1.4229  2.5522
  820SOL     MW 3280   2.486   1.749   2.650  0.2755 -0.4081 -0.0003
  821SOL     OW 3281   2.576   1.360   1.988  0.2897 -0.3367 -0.2801
  821SOL    HW1 3282   2.622   1.436   1.944 -0.9155 -0.3693 -1.8877
  821SOL    HW2 3283   2.485   1.375   1.961  1.6105 -0.0058  1.7376
  821SOL     MW 3284   2.570   1.372   1.979  0.3050 -0.2973 -0.2260
  822SOL     OW 3285   2.831   2.678   1.475  0.2452  0.1818 -0.0994
  822SOL    HW1 3286   2.793   2.689   1.562  2.2167  2.8640  2.1857
  822SOL    HW2 3287   2.771   2.729   1.415 -1.1289  0.2102 -0.9271
  822SOL     MW 3288   2.818   2.686   1.478  0.3240  0.5394  0.0929
  823SOL     OW 3289   2.238   0.465   1.765  0.0784 -0.3392 -0.2770
  823SOL    HW1 3290   2.318   0.420   1.738  1.2175  1.1414  0.5308
  823SOL    HW2 3291   2.156   0.409   1.749 -1.7515  0.4531 -1.0321
  823SOL     MW 3292   2.238   0.452   1.759 -0.0127 -0.0393 -0.2700
  824SOL     OW 3293   2.065   1.413   2.504  0.0593 -0.8908 -0.2790
  824SOL    HW1 3294   2.153   1.401   2.514 -1.5460  0.4598 -0.8977
  824SOL    HW2 3295   2.035   1.450   2.585  3.4072  4.1637 -2.5336
  824SOL     MW 3296   2.073   1.416   2.516  0.2892 -0.0457 -0.6581
  825SOL     OW 3297   2.058   2.540   0.317 -0.0081  0.3183  0.8453
  825SOL    HW1 3298   2.058   2.482   0.397  1.9109 -1.5708  0.2262
  825SOL    HW2 3299   2.116   2.489   0.261 -3.0566  2.0611  2.0122
  825SOL     MW 3300   2.066   2.526   0.320 -0.1571  0.2990  0.9175
  826SOL     OW 3301   1.908   2.358   0.509 -0.4963  0.5088 -0.3724
  826SOL    HW1 3302   1.869   2.289   0.561  2.0656 -0.9854 -1.9896
  826SOL    HW2 3303   1.929   2.440   0.561 -0.8706 -1.0007 -1.8381
  826SOL     MW 3304   1.906   2.359   0.522 -0.2076  0.1125 -0.7792
  827SOL     OW 3305   1.961   2.195   0.824 -0.2101 -0.1861  0.4004
  827SOL    HW1 3306   1.901   2.210   0.748  0.3970  0.0440 -0.9855
  827SOL    HW2 3307   1.916   2.124   0.876  0.0522 -1.3152 -1.8925
  827SOL     MW 3308   1.947   2.187   0.821 -0.0954 -0.3047 -0.0849
  828SOL     OW 3309   0.064   2.615   0.500 -0.3823  0.0430  0.0279
  828SOL    HW1 3310   0.152   2.635   0.541  0.6293 -0.4165  1.0618
  828SOL    HW2 3311   0.050   2.693   0.445 -0.9280 -0.4288 -0.3466
  828SOL     MW 3312   0.074   2.628   0.498 -0.3208 -0.0799  0.1149
  829SOL     OW 3313   3.000   2.952   1.213 -0.0827 -0.1497 -0.0997
  829SOL    HW1 3314   2.918   2.931   1.170  1.8338  1.3768 -1.4794
  829SOL    HW2 3315   3.047   2.870   1.206  0.8415 -2.6822 -0.7866
  829SOL     MW 3316   2.995   2.939   1.207  0.2921 -0.2824 -0.3724
  830SOL     OW 3317   2.531   2.864   2.036 -0.2100 -0.4199  0.1697
  830SOL    HW1 3318   2.437   2.895   2.019 -0.0626  0.5880 -1.6070
  830SOL    HW2 3319   2.559   2.846   1.947 -0.8444  0.5394  2.4155
  830SOL     MW 3320   2.522   2.865   2.022 -0.2742 -0.1604  0.2316
  831SOL     OW 3321   2.385   2.447   1.235  0.6564  0.0762  0.2789
  831SOL    HW1 3322   2.362   2.366   1.287  1.3983 -0.7143 -3.1601
  831SOL    HW2 3323   2.482   2.426   1.226  1.2068 -0.8739  0.2769
  831SOL     MW 3324   2.394   2.433   1.241  0.8269 -0.1535 -0.1751
  832SOL     OW 3325   2.389   2.141   1.834 -0.4820 -0.6091 -0.3215
  832SOL    HW1 3326   2.402   2.229   1.866 -0.5575 -0.5049  0.3258
  832SOL    HW2 3327   2.474   2.095   1.828  1.8484  0.4392  0.7356
  832SOL     MW 3328   2.402   2.147   1.838 -0.1845 -0.4570 -0.0966
  833SOL     OW 3329   1.803   2.485   0.919 -0.4712  0.2224  0.3265
  833SOL    HW1 3330   1.709   2.456   0.897  0.0821 -2.4707 -2.5235
  833SOL    HW2 3331   1.807   2.548   0.998  3.3774 -0.8999 -1.4422
  833SOL     MW 3332   1.791   2.489   0.927  0.1096 -0.2810 -0.2829
  834SOL     OW 3333   2.234   2.445   0.543 -0.0580 -0.1626  0.9358
  834SOL    HW1 3334   2.292   2.382   0.580  0.7167  1.1995  2.1775
  834SOL    HW2 3335   2.285   2.471   0.462  0.2332  2.9959 -2.3904
  834SOL     MW 3336   2.248   2.440   0.537  0.0826  0.4339  0.6608
  835SOL     OW 3337   1.872   2.597   0.674 -0.3725 -0.3786  0.0801
  835SOL    HW1 3338   1.835   2.540   0.742 -1.3883  2.1633 -1.1562
  835SOL    HW2 3339   1.924   2.664   0.723 -0.8120  1.4434  1.3731
  835SOL     MW 3340   1.874   2.598   0.689 -0.5645  0.1972  0.0876
  836SOL     OW 3341   2.009   2.176   1.641  0.3158  0.3505  0.1401
  836SOL    HW1 3342   2.094   2.136   1.613 -0.3671 -1.4671  0.6923
  836SOL    HW2 3343   2.033   2.252   1.694 -0.8001  1.7495 -3.3187
  836SOL     MW 3344   2.024   2.181   1.644  0.0784  0.2953 -0.2434
  837SOL     OW 3345   2.049   0.168   0.711 -0.2015 -0.0497  0.5209
  837SOL    HW1 3346   1.974   0.212   0.657 -1.6788 -1.0749 -0.9250
  837SOL    HW2 3347   2.114   0.151   0.644 -1.5943 -1.4174  2.3568
  837SOL     MW 3348   2.047   0.171   0.695 -0.5802 -0.3654  0.5724
  838SOL     OW 3349   2.862   2.054   0.917 -0.2466  0.0737  0.2621
  838SOL    HW1 3350   2.818   1.967   0.920  0.3752  1.3206  0.4751
  838SOL    HW2 3351   2.929   2.055   0.982  0.4744  0.9598  0.6826
  838SOL     MW 3352   2.865   2.043   0.926 -0.0694  0.3551  0.3457
  839SOL     OW 3353   1.506   2.368   0.931  0.5929  1.0244  0.7861
  839SOL    HW1 3354   1.497   2.442   0.990 -2.9702 -1.0857  2.5696
  839SOL    HW2 3355   1.547   2.298   0.986 -0.4773 -0.0826 -1.0359
  839SOL     MW 3356   1.510   2.368   0.946 -0.0184  0.5999  0.7810
  840SOL     OW 3357   2.272   2.065   2.402 -0.7072  0.1204  0.5217
  840SOL    HW1 3358   2.264   2.115   2.326 -0.0255  1.8704 -2.2802
  840SOL    HW2 3359   2.345   2.104   2.452  0.4753 -0.6140  1.3227
  840SOL     MW 3360   2.280   2.077   2.398 -0.4613  0.2544  0.2577
  841SOL     OW 3361   2.227   2.431   0.056  0.2117 -0.4463 -0.5510
  841SOL    HW1 3362   2.255   2.479  -0.026  2.2561  0.2486  3.1190
  841SOL    HW2 3363   2.149   2.377   0.037 -1.8801  2.9882 -2.2245
  841SOL     MW 3364   2.220   2.431   0.043  0.2054  0.0985 -0.2875
  842SOL     OW 3365   2.660   2.006   1.498 -0.0954  0.6171 -1.0260
  842SOL    HW1 3366   2.617   1.927   1.491  2.8150 -0.6449  1.6722
  842SOL    HW2 3367   2.628   2.055   1.416 -0.7556 -0.8969  1.2684
  842SOL     MW 3368   2.650   2.002   1.487  0.2015  0.2508 -0.3673
  843SOL     OW 3369   2.643   2.809   1.787 -0.0665 -0.2526 -0.0876
  843SOL    HW1 3370   2.727   2.783   1.827  0.9845 -1.5757 -1.4990
  843SOL    HW2 3371   2.618   2.733   1.740  0.7701  1.1058  0.5362
  843SOL     MW 3372   2.651   2.795   1.786  0.1826 -0.2480 -0.1915
  844SOL     OW 3373   2.640   2.356   1.199  0.0685 -0.3514  0.2909
  844SOL    HW1 3374   2.684   2.366   1.114  0.6161  1.5088  1.3342
  844SOL    HW2 3375   2.705   2.374   1.272 -3.3880  2.7846  1.3789
  844SOL     MW 3376   2.654   2.360   1.197 -0.3153  0.3078  0.5721
  845SOL     OW 3377   2.834   2.546   0.356  0.4849  0.2638 -0.0380
  845SOL    HW1 3378   2.774   2.469   0.356 -2.7408 -1.5580 -0.8078
  845SOL    HW2 3379   2.797   2.607   0.423  0.2579 -0.7818 -0.5876
  845SOL     MW 3380   2.821   2.544   0.365  0.0293 -0.1145 -0.2121
  846SOL     OW 3381   1.494   2.796   0.843 -0.2108 -0.1066  0.0572
  846SOL    HW1 3382   1.565   2.861   0.853  2.7587 -0.3436 -0.0897
  846SOL    HW2 3383   1.411   2.847   0.844 -2.3182 -1.5107 -1.8162
  846SOL     MW 3384   1.492   2.812   0.844 -0.0970 -0.3231 -0.2094
  847SOL     OW 3385   2.467   1.913   0.172  0.0478 -0.3119  0.0142
  847SOL    HW1 3386   2.481   1.835   0.233 -0.5821 -1.7504  2.2266
  847SOL    HW2 3387   2.439   1.882   0.084 -0.3448  0.3158 -1.6253
  847SOL     MW 3388   2.465   1.898   0.168 -0.0871 -0.4189  0.0898
  848SOL     OW 3389   2.583   2.090   1.264 -0.0784  0.2592 -0.6770
  848SOL    HW1 3390   2.610   2.172   1.231 -1.0143  0.8841 -2.0922
  848SOL    HW2 3391   2.615   2.028   1.196 -2.3652 -0.6475 -0.4868
  848SOL     MW 3392   2.591   2.092   1.250 -0.5036  0.2220 -0.8386
  849SOL     OW 3393   2.072   2.774   0.782  0.1530  0.2040  0.6003
  849SOL    HW1 3394   2.075   2.721   0.863 -1.3957  1.9816 -1.2837
  849SOL    HW2 3395   2.142   2.730   0.728 -0.6540 -0.7891 -1.4897
  849SOL     MW 3396   2.082   2.761   0.785 -0.1578  0.3075  0.0759
  850SOL     OW 3397   2.266   1.807   1.645 -0.2671 -0.3763  0.1430
  850SOL    HW1 3398   2.193   1.753   1.626  1.7897 -1.1234  1.1561
  850SOL    HW2 3399   2.244   1.901   1.618  0.7559  2.4210  2.1055
  850SOL     MW 3400   2.254   1.812   1.639  0.1392 -0.1058  0.5356
  851SOL     OW 3401   2.402   2.371   0.300  0.4777 -0.7596  0.1292
  851SOL    HW1 3402   2.372   2.379   0.209 -0.3109  0.3202  0.9863
  851SOL    HW2 3403   2.501   2.366   0.297  1.7345  1.6281 -0.6691
  851SOL     MW 3404   2.411   2.372   0.288  0.5395 -0.3021  0.1369
  852SOL     OW 3405   2.329   2.102   0.350 -0.4391  0.1429 -0.0892
  852SOL    HW1 3406   2.354   2.198   0.340  1.3161  1.9756  0.4870
  852SOL    HW2 3407   2.388   2.070   0.281  0.2962  0.8241 -0.1258
  852SOL     MW 3408   2.340   2.110   0.340 -0.1105  0.4746 -0.0180
  853SOL     OW 3409   2.449   2.421   1.900  0.1305 -0.1652 -0.3016
  853SOL    HW1 3410   2.471   2.481   1.830 -1.1653 -2.3097 -0.4617
  853SOL    HW2 3411   2.541   2.407   1.933  1.7615  1.7743 -1.4692
  853SOL     MW 3412   2.464   2.427   1.895  0.1747 -0.1922 -0.4768
  854SOL     OW 3413   2.851   2.272   0.761  0.3964 -0.4721  0.0158
  854SOL    HW1 3414   2.763   2.234   0.728 -1.4174  1.9366  1.7746
  854SOL    HW2 3415   2.879   2.203   0.827  0.9699 -0.2754 -2.5783
  854SOL     MW 3416   2.843   2.258   0.765  0.2328 -0.1283 -0.0944
  855SOL     OW 3417   2.660   2.342   0.326  0.1654  1.0956  0.1997
  855SOL    HW1 3418   2.638   2.378   0.418 -0.9190 -0.9071  3.3175
  855SOL    HW2 3419   2.717   2.262   0.343  0.8896  0.7076  0.1905
  855SOL     MW 3420   2.665   2.336   0.341  0.1179  0.7802  0.6099
  856SOL     OW 3421   2.128   1.922   0.226  0.4397  0.2811  0.4666
  856SOL    HW1 3422   2.031   1.925   0.240 -0.2017  1.5874  0.7805
  856SOL    HW2 3423   2.180   1.986   0.275  1.6083 -3.8636  1.2148
  856SOL     MW 3424   2.122   1.931   0.234  0.5093 -0.0934  0.6067
  857SOL     OW 3425   2.468   1.972   0.551  0.2042  0.0623  0.0042
  857SOL    HW1 3426   2.412   2.019   0.479  0.5205  2.0987  0.3624
  857SOL    HW2 3427   2.400   1.927   0.616  1.7845 -1.7437  0.8086
  857SOL     MW 3428   2.452   1.972   0.550  0.4544  0.0927  0.1576
  858SOL     OW 3429   2.879   2.697   1.772 -0.1396 -0.1495  0.2826
  858SOL    HW1 3430   2.968   2.720   1.750  2.0169  1.8769  0.7974
  858SOL    HW2 3431   2.879   2.603   1.794 -0.6864 -0.5307 -0.8014
  858SOL     MW 3432   2.891   2.688   1.772  0.0728  0.0676  0.2075
  859SOL     OW 3433   2.118   2.617   0.984 -0.5999  0.6607  0.9242
  859SOL    HW1 3434   2.071   2.540   1.015  0.1242  2.8152  1.9412
  859SOL    HW2 3435   2.181   2.638   1.051  0.2714 -2.3456  1.3204
  859SOL     MW 3436   2.120   2.609   0.997 -0.3894  0.5483  1.1107
  860SOL     OW 3437   2.701   2.621   0.133 -0.1803 -0.0579 -0.2920
  860SOL    HW1 3438   2.741   2.629   0.223 -0.0578  0.7984  4.4032
  860SOL    HW2 3439   2.706   2.715   0.090 -1.7247  2.3265 -1.4664
  860SOL     MW 3440   2.707   2.635   0.139 -0.3679  0.3697  0.1726
  861SOL     OW 3441   1.621   2.190   1.100  0.2929 -0.2316 -0.1227
  861SOL    HW1 3442   1.638   2.261   1.163  1.5791 -1.6155  0.2254
  861SOL    HW2 3443   1.570   2.126   1.149  0.4099 -1.5090  0.0873
  861SOL     MW 3444   1.616   2.191   1.115  0.4781 -0.5827 -0.0491
  862SOL     OW 3445   2.503   1.767   1.512  0.2770 -0.1758 -0.2915
  862SOL    HW1 3446   2.431   1.783   1.569 -0.3263  0.2758 -1.5763
  862SOL    HW2 3447   2.467   1.790   1.427  0.0795  1.9228  0.6846
  862SOL     MW 3448   2.489   1.772   1.508  0.1713  0.1607 -0.3322
  863SOL     OW 3449   2.971   1.777   1.051 -0.1897  0.0259 -0.1601
  863SOL    HW1 3450   3.058   1.748   1.071 -1.1149  0.9417 -2.0640
  863SOL    HW2 3451   2.922   1.782   1.128  1.0075  0.7846 -0.0845
  863SOL     MW 3452   2.976   1.774   1.064 -0.1538  0.2468 -0.4013
  864SOL     OW 3453   0.052   1.836   0.825  0.3830 -0.1628  0.4004
  864SOL    HW1 3454  -0.022   1.831   0.889  0.2629  0.1300 -1.3064
  864SOL    HW2 3455   0.030   1.821   0.731  2.6664 -2.0534  1.5372
  864SOL     MW 3456   0.039   1.834   0.821  0.6684 -0.3736  0.3252
  865SOL     OW 3457   2.529   2.166   0.049  0.9233 -0.2489 -0.5271
  865SOL    HW1 3458   2.546   2.081   0.092 -3.5699 -0.9855 -0.4207
  865SOL    HW2 3459   2.484   2.155  -0.033 -2.0157 -2.6308 -0.1866
  865SOL     MW 3460   2.525   2.154   0.044 -0.0573 -0.6603 -0.4681
  866SOL     OW 3461   2.664   2.354   1.607  0.2082 -0.2933 -0.6068
  866SOL    HW1 3462   2.676   2.261   1.627  0.1009  0.4599  0.8607
  866SOL    HW2 3463   2.706   2.359   1.518  2.3164  1.1168  0.2490
  866SOL     MW 3464   2.671   2.342   1.598  0.4722 -0.0079 -0.3003
  867SOL     OW 3465   0.096   2.676   1.792  0.2054  0.4527 -0.3426
  867SOL    HW1 3466   0.167   2.737   1.831 -0.3676 -0.1802  1.4339
  867SOL    HW2 3467   0.095   2.713   1.703 -2.6085  2.7826 -0.9326
  867SOL     MW 3468   0.105   2.689   1.786 -0.2415  0.6766 -0.1861
  868SOL     OW 3469   2.747   2.709   0.573 -0.2259 -0.7023  0.4347
  868SOL    HW1 3470   2.688   2.626   0.577 -1.3505 -2.2820  0.0057
  868SOL    HW2 3471   2.685   2.773   0.530 -0.0205 -0.0142 -1.1365
  868SOL     MW 3472   2.731   2.706   0.568 -0.3472 -0.8200  0.1708
  869SOL     OW 3473   2.076   2.329   1.019  0.2961  0.2609  0.1889
  869SOL    HW1 3474   2.171   2.331   0.995  1.4070 -1.7342 -3.1884
  869SOL    HW2 3475   2.040   2.269   0.948 -1.8389  1.6498 -1.3769
  869SOL     MW 3476   2.084   2.322   1.006  0.1610  0.1809 -0.4633
  870SOL     OW 3477   2.143   0.034   0.489  0.0455  0.5901 -0.0966
  870SOL    HW1 3478   2.214   0.081   0.437  1.6699 -0.6912 -2.4420
  870SOL    HW2 3479   2.168  -0.055   0.483 -1.1922  1.7890 -1.7955
  870SOL     MW 3480   2.156   0.028   0.481  0.0965  0.5792 -0.6302
  871SOL     OW 3481   2.457   2.088   0.933  0.2929 -0.0811 -0.0319
  871SOL    HW1 3482   2.422   2.069   0.847 -1.1302 -0.5902 -0.6400
  871SOL    HW2 3483   2.440   2.182   0.958 -0.7197 -0.5612  0.7136
  871SOL     MW 3484   2.450   2.098   0.925 -0.0285 -0.2116 -0.0138
  872SOL     OW 3485   2.048   2.496   1.504  0.1066  0.2711 -0.1814
  872SOL    HW1 3486   1.981   2.550   1.552  0.9634  0.7084 -1.6906
  872SOL    HW2 3487   2.029   2.486   1.409  1.3862 -1.7812  1.2112
  872SOL     MW 3488   2.037   2.502   1.498  0.3885  0.0580 -0.1968
  873SOL     OW 3489   2.883   2.079   1.976 -0.6889  0.1510  0.5157
  873SOL    HW1 3490   2.900   2.135   2.053 -1.9977  0.0397 -0.0461
  873SOL    HW2 3491   2.951   2.118   1.919 -3.5608  1.4479 -2.1733
  873SOL     MW 3492   2.894   2.092   1.978 -1.2405  0.3074  0.0868
  874SOL     OW 3493   2.342   1.438   2.426  0.1353 -0.0018 -0.4371
  874SOL    HW1 3494   2.290   1.410   2.351  1.6787  0.5095 -2.2746
  874SOL    HW2 3495   2.412   1.380   2.419 -1.0018  0.8321  0.7019
  874SOL     MW 3496   2.344   1.426   2.415  0.1889  0.1757 -0.5292
  875SOL     OW 3497   2.345   2.338   0.987 -0.0366  0.0901 -0.1133
  875SOL    HW1 3498   2.393   2.382   0.921 -0.2456 -0.8637  0.4028
  875SOL    HW2 3499   2.359   2.385   1.069 -1.3668  1.2842  0.7896
  875SOL     MW 3500   2.353   2.350   0.989 -0.2397  0.1218  0.0739
  876SOL     OW 3501   3.061   2.277   1.362 -0.1301  0.1599 -0.0829
  876SOL    HW1 3502   3.064   2.311   1.272  3.3229  0.8537  1.0851
  876SOL    HW2 3503   3.145   2.298   1.404 -0.1094  0.9070 -2.2991
  876SOL     MW 3504   3.073   2.284   1.356  0.3282  0.3500 -0.2212
  877SOL     OW 3505   3.083   2.829   0.310  0.0810 -0.7263 -0.2988
  877SOL    HW1 3506   3.150   2.889   0.282 -0.4755 -2.2810  0.2961
  877SOL    HW2 3507   3.083   2.759   0.245  1.2808 -4.1522  1.5218
  877SOL     MW 3508   3.092   2.828   0.298  0.1659 -1.3834  0.0199
  878SOL     OW 3509   2.430   1.782   1.231  0.1434 -0.3530 -0.2102
  878SOL    HW1 3510   2.362   1.719   1.246  1.1305  0.0496 -2.8268
  878SOL    HW2 3511   2.507   1.721   1.216 -1.2718 -3.2416  0.2857
  878SOL     MW 3512   2.431   1.765   1.231  0.0869 -0.6810 -0.4900
  879SOL     OW 3513   2.778   2.427   0.962  0.0463 -0.4240 -0.1668
  879SOL    HW1 3514   2.847   2.490   0.958 -0.1145 -0.5913 -0.7490
  879SOL    HW2 3515   2.800   2.365   0.885  2.1877  0.2160 -4.2877
  879SOL     MW 3516   2.790   2.427   0.951  0.3076 -0.3616 -0.7873
  880SOL     OW 3517   2.602   2.157   0.694 -0.3919  0.0234 -0.8182
  880SOL    HW1 3518   2.569   2.127   0.780 -1.1236 -0.5100 -1.5460
  880SOL    HW2 3519   2.581   2.085   0.638 -0.8810 -2.1328 -3.2277
  880SOL     MW 3520   2.595   2.143   0.698 -0.5530 -0.3314 -1.2321
  881SOL     OW 3521   2.989   2.726   0.697  0.0678  0.0718 -0.2410
  881SOL    HW1 3522   2.906   2.707   0.656  1.0733  0.5541  3.4066
  881SOL    HW2 3523   3.053   2.692   0.627 -1.3068 -2.8563 -2.0152
  881SOL     MW 3524   2.987   2.719   0.683  0.0191 -0.2509  0.0061
  882SOL     OW 3525   2.250   2.877   1.945  0.0226 -0.5445 -0.0787
  882SOL    HW1 3526   2.248   2.903   1.849  1.8870 -0.7863  1.8178
  882SOL    HW2 3527   2.187   2.800   1.954 -0.1254 -0.0493  0.6543
  882SOL     MW 3528   2.241   2.870   1.934  0.2491 -0.5111  0.2683
  883SOL     OW 3529   2.348   2.204   1.359  0.3635 -0.0744 -0.1404
  883SOL    HW1 3530   2.418   2.156   1.315 -3.3896 -0.1883  1.7292
  883SOL    HW2 3531   2.270   2.188   1.313  1.0575 -1.5018  0.8344
  883SOL     MW 3532   2.347   2.195   1.347 -0.0401 -0.2778  0.2349
  884SOL     OW 3533   1.963   1.818   1.073  0.1859 -0.2423 -0.1078
  884SOL    HW1 3534   1.894   1.887   1.052 -1.7237  2.6079  1.9568
  884SOL    HW2 3535   2.048   1.868   1.067 -0.0235 -0.2916  0.3561
  884SOL     MW 3536   1.965   1.834   1.069 -0.0937  0.1273  0.2258
  885SOL     OW 3537   2.847   2.427   1.796 -0.3480 -0.5992 -0.2688
  885SOL    HW1 3538   2.902   2.346   1.804  0.2913 -1.0419  1.2383
  885SOL    HW2 3539   2.788   2.419   1.724  2.3498 -0.0234  0.4708
  885SOL     MW 3540   2.846   2.415   1.787  0.0923 -0.5817  0.0276
  886SOL     OW 3541   2.832   2.393   1.389 -0.2698  0.1534  0.0736
  886SOL    HW1 3542   2.909   2.344   1.401  0.2749 -0.1177  0.8671
  886SOL    HW2 3543   2.856   2.482   1.388  1.3614 -1.3845 -2.3996
  886SOL     MW 3544   2.845   2.399   1.391  0.0173 -0.0853 -0.1480
  887SOL     OW 3545   2.264   2.662   1.540 -0.1459  0.2877 -0.0964
  887SOL    HW1 3546   2.298   2.684   1.450  0.8919 -3.8255 -2.2317
  887SOL    HW2 3547   2.199   2.598   1.515  0.9232 -1.6728  0.7852
  887SOL     MW 3548   2.260   2.656   1.525  0.1321 -0.5137 -0.2618
  888SOL     OW 3549   1.876   2.157   1.390 -0.0460 -0.2518  0.4021
  888SOL    HW1 3550   1.955   2.158   1.332 -2.0157  0.3447 -2.0616
  888SOL    HW2 3551   1.908   2.172   1.483 -0.3675 -0.1142  0.9148
  888SOL     MW 3552   1.891   2.159   1.394 -0.3483 -0.1549  0.1447
  889SOL     OW 3553   2.356   2.024   2.078  0.0149 -0.2673 -0.0159
  889SOL    HW1 3554   2.431   1.963   2.086  0.7278  1.0983 -2.7659
  889SOL    HW2 3555   2.375   2.081   2.005 -2.2619  0.0636 -1.3174
  889SOL     MW 3556   2.368   2.023   2.069 -0.1915 -0.0434 -0.5505
  890SOL     OW 3557   0.072   2.375   0.146  0.0825 -0.0029  0.4701
  890SOL    HW1 3558   0.037   2.462   0.137  3.4675 -2.1545 -0.3543
  890SOL    HW2 3559   0.029   2.337   0.227  1.1789  0.3162 -0.9535
  890SOL     MW 3560   0.061   2.382   0.155  0.6737 -0.2447  0.1735
  891SOL     OW 3561   3.075   1.979   1.262 -0.3581 -0.0943 -0.2009
  891SOL    HW1 3562   3.146   1.918   1.224 -0.8205 -2.7177 -1.7986
  891SOL    HW2 3563   3.111   2.061   1.298 -2.6003  0.9509  0.3004
  891SOL     MW 3564   3.089   1.982   1.262 -0.7149 -0.3025 -0.3456
  892SOL     OW 3565   2.459   2.381   2.764 -0.3662  0.5349 -0.0841
  892SOL    HW1 3566   2.443   2.297   2.817  0.7943  1.4895 -1.2160
  892SOL    HW2 3567   2.560   2.395   2.786  2.2947  2.9348 -0.6823
  892SOL     MW 3568   2.470   2.372   2.774  0.1380  0.9775 -0.3124
  893SOL     OW 3569   1.611   2.449   1.210  0.6530 -0.4023  0.0664
  893SOL    HW1 3570   1.551   2.467   1.280 -0.0732  0.1137  0.8242
  893SOL    HW2 3571   1.694   2.478   1.246 -0.4847  1.6592 -0.6058
  893SOL     MW 3572   1.614   2.455   1.224  0.4071 -0.0623  0.0777
  894SOL     OW 3573   2.723   1.889   0.447 -0.0259  0.1942  0.2853
  894SOL    HW1 3574   2.636   1.916   0.469  0.0575  2.9632  2.8400
  894SOL    HW2 3575   2.717   1.855   0.355 -0.5349 -0.4582  1.4672
  894SOL     MW 3576   2.711   1.888   0.438 -0.0821  0.4735  0.7783
  895SOL     OW 3577   2.098   2.154   1.249  0.7897  0.2123 -0.8577
  895SOL    HW1 3578   2.080   2.192   1.162 -1.4346 -1.2775 -0.4123
  895SOL    HW2 3579   2.117   2.061   1.219  0.3563 -0.9027 -0.0227
  895SOL     MW 3580   2.098   2.147   1.233  0.4390 -0.1314 -0.6887
  896SOL     OW 3581   2.310   2.811   1.099 -0.6215  0.1214  0.4550
  896SOL    HW1 3582   2.372   2.781   1.165  0.4695 -1.0443 -4.2284
  896SOL    HW2 3583   2.255   2.886   1.141 -2.4090  2.1411  2.0611
  896SOL     MW 3584   2.311   2.817   1.113 -0.7134  0.2340  0.0490
  897SOL     OW 3585   3.066   3.045   3.052  0.8291 -0.2514  0.0319
  897SOL    HW1 3586   3.119   2.960   3.060 -2.6695  1.8448  1.3813
  897SOL    HW2 3587   2.990   3.043   2.999 -0.7136 -1.1869  1.4054
  897SOL     MW 3588   3.063   3.033   3.046  0.1640 -0.0982  0.3912
  898SOL     OW 3589   2.067   0.183   1.487 -0.5286 -0.1072  0.0624
  898SOL    HW1 3590   2.045   0.096   1.525  0.1476  1.3345  0.1932
  898SOL    HW2 3591   2.076   0.168   1.395  0.2128  0.9223  1.7670
  898SOL     MW 3592   2.065   0.169   1.480 -0.3416  0.2188  0.3046
  899SOL     OW 3593   2.983   2.987   0.616  0.2359  0.3138 -0.1523
  899SOL    HW1 3594   2.992   2.901   0.669 -0.4967  1.1731 -1.4123
  899SOL    HW2 3595   2.894   3.018   0.638  0.7183  1.2496  0.9872
  899SOL     MW 3596   2.972   2.980   0.626  0.2029  0.5506 -0.1682
  900SOL     OW 3597   0.026   2.396   1.144 -0.4397  0.2242 -0.2973
  900SOL    HW1 3598   0.004   2.482   1.117  0.1648 -1.8993 -1.5177
  900SOL    HW2 3599   0.044   2.351   1.059  1.1505  0.0061 -0.9931
  900SOL     MW 3600   0.025   2.401   1.129 -0.1501 -0.0847 -0.5501
  901SOL     OW 3601   1.760   2.830   1.787 -0.0877 -0.2721  0.3022
  901SOL    HW1 3602   1.834   2.779   1.745  4.0131 -1.7676  0.2533
  901SOL    HW2 3603   1.679   2.811   1.742 -0.0371 -2.2676 -0.2037
  901SOL     MW 3604   1.759   2.821   1.776  0.4601 -0.7327  0.2290
  902SOL     OW 3605   2.649   2.074   1.797  0.2099  0.0565 -0.7557
  902SOL    HW1 3606   2.665   2.054   1.711  0.6440 -1.6294 -0.5250
  902SOL    HW2 3607   2.734   2.065   1.840  0.7237 -0.5797  0.0481
  902SOL     MW 3608   2.662   2.070   1.791  0.3350 -0.2499 -0.6192
  903SOL     OW 3609   1.564   2.651   0.635 -0.9615 -0.5618 -0.7732
  903SOL    HW1 3610   1.657   2.667   0.635 -3.2674  1.1456 -0.6704
  903SOL    HW2 3611   1.547   2.708   0.717 -0.8894  0.3901  0.8986
  903SOL     MW 3612   1.574   2.660   0.646 -1.2563 -0.2109 -0.5391
  904SOL     OW 3613   2.519   2.576   1.667 -0.6322 -0.2215  0.4021
  904SOL    HW1 3614   2.447   2.575   1.605 -0.3655  0.4591 -1.7220
  904SOL    HW2 3615   2.570   2.493   1.639 -1.5161 -0.7700  1.0218
  904SOL     MW 3616   2.516   2.565   1.655 -0.7136 -0.2041  0.2036
  905SOL     OW 3617   2.309   2.498   2.120  1.0244 -0.0230 -0.0301
  905SOL    HW1 3618   2.356   2.463   2.050 -2.7861 -0.8478 -0.9870
  905SOL    HW2 3619   2.260   2.427   2.169 -1.3173  0.0726  0.1079
  905SOL     MW 3620   2.309   2.484   2.117  0.2126 -0.1192 -0.1382
  906SOL     OW 3621   2.515   2.490   0.806  0.4169 -0.0442 -0.3186
  906SOL    HW1 3622   2.604   2.462   0.836 -0.3384 -3.0078 -2.4977
  906SOL    HW2 3623   2.510   2.587   0.825 -0.4665 -2.7778  0.2755
  906SOL     MW 3624   2.526   2.499   0.813  0.2007 -0.7959 -0.5277
  907SOL     OW 3625   2.641   2.853   1.307  0.5031  0.6662 -0.5741
  907SOL    HW1 3626   2.705   2.905   1.360 -0.4228 -0.0706  1.0462
  907SOL    HW2 3627   2.686   2.842   1.217  0.7598  1.0478  0.8535
  907SOL     MW 3628   2.656   2.859   1.302  0.4148  0.6194 -0.1719
  908SOL     OW 3629   2.725   2.373   0.014  0.6442  0.6723 -0.4927
  908SOL    HW1 3630   2.656   2.316   0.045 -1.4071  1.2348  0.7676
  908SOL    HW2 3631   2.719   2.461   0.064  2.4646 -0.1791  2.3216
  908SOL     MW 3632   2.715   2.377   0.025  0.6137  0.6342  0.0449
  909SOL     OW 3633   1.786   0.061   1.181  0.4095  0.5160 -0.1945
  909SOL    HW1 3634   1.763   0.133   1.119  0.0482  0.5444 -2.5139
  909SOL    HW2 3635   1.733   0.083   1.251  1.8942  0.2817 -0.1563
  909SOL     MW 3636   1.776   0.073   1.182  0.5577  0.4889 -0.4955
  910SOL     OW 3637   2.212   1.726   0.410 -0.4634 -1.0355  0.6265
  910SOL    HW1 3638   2.177   1.639   0.397 -0.4647  1.2390  1.2104
  910SOL    HW2 3639   2.175   1.780   0.337  0.4481 -1.5050 -0.1744
  910SOL     MW 3640   2.203   1.722   0.398 -0.3433 -0.7973  0.5979
  911SOL     OW 3641   2.250   2.075   1.585 -0.0304 -0.2145 -1.0289
  911SOL    HW1 3642   2.297   2.105   1.661  0.4382  0.2897  0.5959
  911SOL    HW2 3643   2.299   2.111   1.514 -0.6394 -0.9371  0.1786
  911SOL     MW 3644   2.263   2.084   1.585 -0.0489 -0.2433 -0.6552
  912SOL     OW 3645   2.929   1.902   1.476 -0.4510 -0.4015 -0.5352
  912SOL    HW1 3646   2.951   1.946   1.388  0.0107 -1.3515  3.6761
  912SOL    HW2 3647   2.856   1.951   1.521  0.1791 -0.9772  2.0752
  912SOL     MW 3648   2.922   1.914   1.470 -0.3070 -0.6028  0.3648
  913SOL     OW 3649   2.607   3.064   0.353 -0.5221  0.7470  0.0520
  913SOL    HW1 3650   2.688   3.005   0.358  0.7485 -1.5351  2.3314
  913SOL    HW2 3651   2.537   3.014   0.323 -1.9618  0.7854 -0.5916
  913SOL     MW 3652   2.608   3.050   0.349 -0.5444  0.4510  0.2678
  914SOL     OW 3653   2.700   1.801   3.014 -0.1673  0.9229  0.0433
  914SOL    HW1 3654   2.740   1.876   2.974  0.3032 -0.5876 -1.4939
  914SOL    HW2 3655   2.602   1.811   3.002 -2.2966 -0.4495 -1.8884
  914SOL     MW 3656   2.692   1.812   3.007 -0.3862  0.5425 -0.4144
  915SOL     OW 3657   1.720   0.206   0.235  0.4803 -0.2688 -0.1752
  915SOL    HW1 3658   1.807   0.156   0.245 -0.2969  1.8831 -0.6700
  915SOL    HW2 3659   1.648   0.140   0.233  0.7008 -2.2349 -1.2423
  915SOL     MW 3660   1.722   0.191   0.236  0.4068 -0.2442 -0.3812
  916SOL     OW 3661   1.823   2.136   1.977 -0.4988  0.3026  0.1058
  916SOL    HW1 3662   1.889   2.205   1.955  0.5926 -0.4928 -0.1183
  916SOL    HW2 3663   1.808   2.094   1.891 -0.5575  0.2799 -1.2590
  916SOL     MW 3664   1.830   2.139   1.963 -0.3625  0.1947 -0.1038
  917SOL     OW 3665   2.485   2.179   2.561  0.2608  0.1430  0.4251
  917SOL    HW1 3666   2.491   2.247   2.626  0.2213 -0.8155 -0.3691
  917SOL    HW2 3667   2.550   2.203   2.498  0.6879 -1.5643  0.9301
  917SOL     MW 3668   2.494   2.191   2.561  0.3120 -0.2087  0.3869
  918SOL     OW 3669   1.957   1.582   2.687 -0.1969 -0.4998  0.6002
  918SOL    HW1 3670   1.900   1.645   2.635  0.4654 -0.9454 -2.2204
  918SOL    HW2 3671   2.053   1.604   2.662  0.7021  0.8905 -3.1016
  918SOL     MW 3672   1.962   1.594   2.677  0.0091 -0.3751 -0.2603
  919SOL     OW 3673   3.077   2.368   2.315  0.0660  0.2804  0.7464
  919SOL    HW1 3674   2.999   2.322   2.284 -3.3684  1.2612 -0.0084
  919SOL    HW2 3675   3.127   2.393   2.236  1.6301  4.0048 -1.8936
  919SOL     MW 3676   3.073   2.365   2.300 -0.1807  0.9012  0.2985
  920SOL     OW 3677   2.712   2.876   3.088 -0.1164  0.0540  0.1206
  920SOL    HW1 3678   2.620   2.898   3.116 -1.1503 -0.7607 -1.2035
  920SOL    HW2 3679   2.707   2.815   3.011  1.7545  0.4244 -1.9502
  920SOL     MW 3680   2.699   2.871   3.081 -0.0060 -0.0046 -0.3273
  921SOL     OW 3681   2.433   2.610   2.591  0.7105 -0.8294 -0.3885
  921SOL    HW1 3682   2.504   2.596   2.530 -0.4238 -0.0041 -0.9532
  921SOL    HW2 3683   2.444   2.547   2.660 -0.0453  1.9202 -2.2446
  921SOL     MW 3684   2.444   2.600   2.592  0.4611 -0.3577 -0.7079
  922SOL     OW 3685   2.026   2.816   0.280 -0.3749 -0.4115  0.0440
  922SOL    HW1 3686   2.034   2.853   0.189  0.0376 -1.3181 -0.7952
  922SOL    HW2 3687   2.052   2.720   0.266  4.0999  0.0387  0.7035
  922SOL     MW 3688   2.030   2.808   0.266  0.2700 -0.4717  0.0203
  923SOL     OW 3689   2.195   2.897   1.686  0.0744  0.3250 -0.0977
  923SOL    HW1 3690   2.257   2.851   1.627 -1.7116 -2.3787  0.1503
  923SOL    HW2 3691   2.143   2.963   1.637 -0.8031 -2.4891 -1.5241
  923SOL     MW 3692   2.196   2.900   1.672 -0.2770 -0.4030 -0.2532
  924SOL     OW 3693   1.148   2.735   2.576 -0.0322  0.2225  0.5390
  924SOL    HW1 3694   1.235   2.783   2.586  2.9700  1.5203  0.4618
  924SOL    HW2 3695   1.141   2.692   2.662  1.3798  0.0803  0.7004
  924SOL     MW 3696   1.159   2.736   2.589  0.5502  0.3750  0.5501
  925SOL     OW 3697   3.037   0.194   2.661 -0.2281 -0.1144  0.5867
  925SOL    HW1 3698   2.981   0.230   2.592 -0.9245  0.1748  2.0748
  925SOL    HW2 3699   3.031   0.264   2.728 -0.3765  2.4053  0.6722
  925SOL     MW 3700   3.029   0.208   2.661 -0.3396  0.2562  0.7944
  926SOL     OW 3701   2.706   2.406   2.033  0.0940 -0.8175 -0.2380
  926SOL    HW1 3702   2.747   2.475   2.087  2.2019  3.1284 -0.9102
  926SOL    HW2 3703   2.762   2.411   1.949 -1.0791 -0.6470 -0.0313
  926SOL     MW 3704   2.719   2.415   2.029  0.2174 -0.2744 -0.2994
  927SOL     OW 3705   2.345   0.160   0.336  0.1583  0.4506 -0.2569
  927SOL    HW1 3706   2.434   0.125   0.357  2.6835 -0.4185  1.4446
  927SOL    HW2 3707   2.323   0.136   0.247  0.7291  1.1800 -2.1023
  927SOL     MW 3708   2.354   0.152   0.327  0.5668  0.4322 -0.2759
  928SOL     OW 3709   2.164   2.416   1.744 -0.7525  0.8126 -0.6254
  928SOL    HW1 3710   2.136   2.450   1.657  1.6825  2.2639  2.2499
  928SOL    HW2 3711   2.249   2.456   1.754  0.6414 -1.2032  0.6056
  928SOL     MW 3712   2.172   2.426   1.734 -0.2473  0.7381 -0.0836
  929SOL     OW 3713   2.727   2.313   2.460 -0.4998  0.7036  0.6385
  929SOL    HW1 3714   2.769   2.289   2.372  0.7336 -0.8489 -1.1092
  929SOL    HW2 3715   2.798   2.298   2.520  2.2410 -0.0556 -2.3405
  929SOL     MW 3716   2.742   2.308   2.456  0.0246  0.3986  0.0149
  930SOL     OW 3717   2.011   2.840   2.684  0.0184 -0.2793 -1.1506
  930SOL    HW1 3718   2.022   2.770   2.758 -1.4406  0.0033  0.1845
  930SOL    HW2 3719   2.101   2.872   2.670  0.4534  0.2337  0.8635
  930SOL     MW 3720   2.025   2.835   2.692 -0.1167 -0.1743 -0.7087
  931SOL     OW 3721   3.026   2.717   2.431  0.1829  0.3489  0.3085
  931SOL    HW1 3722   3.078   2.733   2.509  0.5196  2.4031  1.1767
  931SOL    HW2 3723   3.091   2.695   2.361 -1.4028 -2.9281  3.8123
  931SOL     MW 3724   3.041   2.716   2.432  0.0181  0.1875  0.8853
  932SOL     OW 3725   2.945   1.899   2.485 -0.3127 -0.5046  0.0327
  932SOL    HW1 3726   3.027   1.948   2.474 -0.9378  1.0152 -0.7922
  932SOL    HW2 3727   2.889   1.927   2.416 -0.3141 -2.9923 -1.1063
  932SOL     MW 3728   2.948   1.909   2.475 -0.3954 -0.6323 -0.2264
  933SOL     OW 3729   2.060   2.794   2.211 -0.0950  0.3489 -0.0844
  933SOL    HW1 3730   2.123   2.856   2.239  0.3246 -1.0327  0.2744
  933SOL    HW2 3731   1.977   2.836   2.204  1.7028 -2.8321 -0.2593
  933SOL     MW 3732   2.057   2.808   2.214  0.1975 -0.2531 -0.0601
  934SOL     OW 3733   1.999   2.704   2.452 -0.3550 -0.1122 -0.0911
  934SOL    HW1 3734   2.014   2.769   2.529 -0.0818  0.0735  0.0017
  934SOL    HW2 3735   2.010   2.747   2.367 -0.3817 -3.1790 -0.8542
  934SOL     MW 3736   2.002   2.718   2.451 -0.3225 -0.4923 -0.1795
  935SOL     OW 3737   2.673   1.572   1.862 -0.1356  0.3849 -0.0693
  935SOL    HW1 3738   2.771   1.578   1.870  1.0676  1.4083  4.8041
  935SOL    HW2 3739   2.659   1.549   1.769 -0.9933  0.6667 -3.9573
  935SOL     MW 3740   2.684   1.570   1.851 -0.0900  0.5571  0.0607
  936SOL     OW 3741   2.989   2.264  -0.001 -0.4691  0.4890 -0.2721
  936SOL    HW1 3742   3.054   2.313   0.059 -1.2791  3.4381  0.7756
  936SOL    HW2 3743   2.908   2.314  -0.000 -0.9503 -1.3775 -1.8423
  936SOL     MW 3744   2.987   2.277   0.007 -0.6395  0.6318 -0.3411
  937SOL     OW 3745   1.978   2.143   2.647  0.6848 -0.0622 -0.0918
  937SOL    HW1 3746   2.050   2.088   2.665 -0.5474  0.8073 -0.4522
  937SOL    HW2 3747   1.959   2.127   2.552 -0.0233  1.6926 -4.4136
  937SOL     MW 3748   1.985   2.134   2.637  0.4288  0.2841 -0.7096
  938SOL     OW 3749   2.284   1.794   1.917  0.1133 -0.2401 -0.2826
  938SOL    HW1 3750   2.255   1.812   1.830  0.6105 -0.7867  0.6714
  938SOL    HW2 3751   2.270   1.874   1.966  0.3959 -0.7345 -0.6726
  938SOL     MW 3752   2.278   1.807   1.912  0.2162 -0.3774 -0.2082
  939SOL     OW 3753   2.772   1.966   2.272  0.5279 -0.2020 -0.1627
  939SOL    HW1 3754   2.782   1.915   2.194  0.8967  0.7995 -1.6665
  939SOL    HW2 3755   2.682   1.951   2.291  0.6988 -3.3165  0.3815
  939SOL     MW 3756   2.761   1.958   2.264  0.5991 -0.4808 -0.2893
  940SOL     OW 3757   2.314   0.157   2.693  0.0978  0.0916  0.4121
  940SOL    HW1 3758   2.306   0.073   2.651  0.4886 -2.2500  1.0206
  940SOL    HW2 3759   2.349   0.132   2.782 -0.1423 -0.5979  0.6704
  940SOL     MW 3760   2.317   0.142   2.699  0.1177 -0.3083  0.5264
  941SOL     OW 3761   0.123   2.438   2.090  0.9076 -0.5477 -0.1709
  941SOL    HW1 3762   0.212   2.406   2.098 -3.1813  1.4276  0.7942
  941SOL    HW2 3763   0.103   2.431   1.998  0.1485 -0.9851  1.5209
  941SOL     MW 3764   0.132   2.433   2.079  0.2679 -0.3448  0.1797
  942SOL     OW 3765   2.835   2.228   2.203 -0.2039  0.1755 -0.3458
  942SOL    HW1 3766   2.770   2.261   2.144 -0.4602  1.6690 -1.6768
  942SOL    HW2 3767   2.795   2.143   2.231 -0.1559 -0.4902 -1.1067
  942SOL     MW 3768   2.821   2.221   2.199 -0.2314  0.2847 -0.6218
  943SOL     OW 3769   0.243   2.136   2.249 -0.3057  0.6582 -0.6567
  943SOL    HW1 3770   0.210   2.203   2.317 -0.2717  1.8258  0.0742
  943SOL    HW2 3771   0.331   2.097   2.278 -0.4214  0.1669  1.7901
  943SOL     MW 3772   0.250   2.140   2.262 -0.3165  0.7475 -0.2374
  944SOL     OW 3773   2.078   2.634   1.983  0.2440  0.3507  0.0107
  944SOL    HW1 3774   2.162   2.592   2.002  1.1337 -2.5717  1.1524
  944SOL    HW2 3775   2.059   2.678   2.063 -1.8577 -3.6651 -0.6670
  944SOL     MW 3776   2.087   2.634   1.996  0.0841 -0.5647  0.0719
  945SOL     OW 3777   2.738   2.662   2.892  0.5622  0.0881  0.1150
  945SOL    HW1 3778   2.740   2.564   2.893 -0.5332  1.5258  0.1640
  945SOL    HW2 3779   2.745   2.688   2.798  0.4093 -0.1034 -2.4605
  945SOL     MW 3780   2.739   2.653   2.880  0.3975  0.2525 -0.2183
  946SOL     OW 3781   2.458   2.696   2.248 -0.3197  0.0729 -0.0036
  946SOL    HW1 3782   2.498   2.733   2.169  2.2695  1.0096 -0.4235
  946SOL    HW2 3783   2.395   2.624   2.200 -1.9330 -1.6898 -2.4474
  946SOL     MW 3784   2.455   2.692   2.231 -0.1910 -0.0361 -0.3814
  947SOL     OW 3785   1.959   0.050   0.288  0.3184  0.0879 -0.6659
  947SOL    HW1 3786   1.932  -0.048   0.301  2.2467 -2.5333  1.3029
  947SOL    HW2 3787   2.025   0.058   0.362  2.1487 -0.3073 -2.6322
  947SOL     MW 3788   1.964   0.038   0.299  0.8143 -0.3101 -0.6656
  948SOL     OW 3789   1.798   3.005   2.672  0.1289 -0.3266 -0.3013
  948SOL    HW1 3790   1.866   2.943   2.687 -0.0710  0.0616 -3.5076
  948SOL    HW2 3791   1.797   3.033   2.576  1.7287 -0.1653  0.0363
  948SOL     MW 3792   1.807   3.001   2.661  0.3136 -0.2541 -0.6798
  949SOL     OW 3793   2.517   1.929   2.331 -0.0638  0.2030  0.2931
  949SOL    HW1 3794   2.505   1.836   2.338  1.6210 -0.7959  1.9147
  949SOL    HW2 3795   2.436   1.973   2.352 -1.2939 -2.9595 -0.8621
  949SOL     MW 3796   2.505   1.923   2.334 -0.0038 -0.3461  0.3546
  950SOL     OW 3797   2.337   2.567   2.909 -0.2817 -0.1142 -0.1752
  950SOL    HW1 3798   2.387   2.497   2.865 -1.1841 -0.9151 -0.9430
  950SOL    HW2 3799   2.258   2.570   2.861 -0.2996  2.9678  0.6212
  950SOL     MW 3800   2.333   2.558   2.897 -0.4032  0.1868 -0.1714
  951SOL     OW 3801   3.055   2.137   2.869 -0.1695  0.5212  0.0761
  951SOL    HW1 3802   3.057   2.182   2.953  0.2986  1.0259 -2.1323
  951SOL    HW2 3803   3.091   2.052   2.882 -0.4946  0.4908  0.0752
  951SOL     MW 3804   3.060   2.132   2.882 -0.1506  0.5838 -0.2154
  952SOL     OW 3805   3.042   1.677   2.131  0.6940 -0.4729 -0.3454
  952SOL    HW1 3806   2.967   1.718   2.092  1.4919 -1.2080 -0.0387
  952SOL    HW2 3807   3.094   1.745   2.170 -3.8973  2.7340  0.4720
  952SOL     MW 3808   3.039   1.691   2.131  0.1935 -0.1467 -0.1971
  953SOL     OW 3809   1.939   1.747   2.892  0.3524  0.0519  0.4339
  953SOL    HW1 3810   1.863   1.715   2.956 -0.4065  0.0182  2.4454
  953SOL    HW2 3811   1.955   1.677   2.822  0.5621 -0.7248 -2.0365
  953SOL     MW 3812   1.931   1.734   2.891  0.2800 -0.0550  0.3734
  954SOL     OW 3813   2.433   2.122   2.857  0.9027  0.2764  0.4183
  954SOL    HW1 3814   2.356   2.079   2.809  3.7105  3.1745  0.0235
  954SOL    HW2 3815   2.503   2.085   2.804  0.2734 -2.2208 -0.4959
  954SOL     MW 3816   2.432   2.111   2.844  1.1901  0.3293  0.2456
  955SOL     OW 3817   1.552   1.611   2.557 -0.4361 -1.0076 -0.0964
  955SOL    HW1 3818   1.503   1.643   2.475  0.0565  4.6246  1.7157
  955SOL    HW2 3819   1.641   1.660   2.550  3.7590 -1.0915 -2.5797
  955SOL     MW 3820   1.558   1.622   2.545  0.1824 -0.2756 -0.1850
  956SOL     OW 3821   2.712   2.387   2.844 -0.1472  0.1538  0.3284
  956SOL    HW1 3822   2.699   2.361   2.935  1.3956 -2.9004 -1.5444
  956SOL    HW2 3823   2.796   2.358   2.799  0.7434 -3.0659  0.6041
  956SOL     MW 3824   2.721   2.380   2.850  0.1739 -0.6740  0.1177
  957SOL     OW 3825   2.232   2.866   0.457 -0.4026  0.1523  0.0202
  957SOL    HW1 3826   2.170   2.834   0.399  1.3579  2.2321  2.0214
  957SOL    HW2 3827   2.243   2.797   0.519 -0.0057  3.9248  1.8167
  957SOL     MW 3828   2.225   2.853   0.458 -0.1179  0.9244  0.5212
  958SOL     OW 3829   2.065   2.615   2.853 -0.3530  0.5303  0.4669
  958SOL    HW1 3830   2.035   2.541   2.811  1.8185  1.1584  0.2903
  958SOL    HW2 3831   2.032   2.599   2.943  0.0305  0.6430 -0.5615
  958SOL     MW 3832   2.057   2.603   2.859 -0.0159  0.6280  0.3079
  959SOL     OW 3833   2.474   2.744   0.393  0.4793  0.5476 -0.0485
  959SOL    HW1 3834   2.487   2.747   0.292 -0.6717 -2.7121 -0.6877
  959SOL    HW2 3835   2.389   2.788   0.414  1.1919  0.0258  1.8980
  959SOL     MW 3836   2.464   2.750   0.382  0.4215  0.0487  0.1240
  960SOL     OW 3837   1.879   2.321   2.311 -0.1905 -0.2560 -0.0233
  960SOL    HW1 3838   1.909   2.227   2.314  3.7586  0.6699 -0.7781
  960SOL    HW2 3839   1.830   2.348   2.386  1.1956 -1.4611  0.5660
  960SOL     MW 3840   1.877   2.312   2.321  0.5134 -0.2928 -0.0451
  961SOL     OW 3841   2.164   2.325   2.297 -0.0061 -0.0579 -0.6045
  961SOL    HW1 3842   2.070   2.321   2.275 -1.4067 -1.6695 -0.8645
  961SOL    HW2 3843   2.170   2.373   2.381  0.1452  0.8367 -3.5308
  961SOL     MW 3844   2.153   2.331   2.305 -0.1710 -0.1525 -1.0249
  962SOL     OW 3845   2.178   2.005   2.770  0.3377  0.5445  0.2605
  962SOL    HW1 3846   2.162   2.013   2.866 -0.3108  0.7278 -0.6535
  962SOL    HW2 3847   2.202   1.910   2.755  0.3253 -2.7470 -0.0451
  962SOL     MW 3848   2.179   1.993   2.780  0.2505  0.1344  0.0996
  963SOL     OW 3849   1.795   2.492   2.092  0.1426  0.3774  0.7351
  963SOL    HW1 3850   1.821   2.427   2.157  0.8851  0.2937 -1.7900
  963SOL    HW2 3851   1.860   2.472   2.021 -1.0362  0.8526 -2.5690
  963SOL     MW 3852   1.807   2.481   2.091  0.0851  0.4291 -0.0340
  964SOL     OW 3853   1.813   1.946   2.718 -0.2429 -0.2073 -0.5635
  964SOL    HW1 3854   1.887   2.011   2.705 -0.4927 -2.2857  0.6250
  964SOL    HW2 3855   1.860   1.888   2.784  1.3152 -0.2017  1.4487
  964SOL     MW 3856   1.829   1.947   2.725 -0.0703 -0.4808 -0.1412
  965SOL     OW 3857   2.279   2.673   0.655  0.2910 -0.2670 -0.3070
  965SOL    HW1 3858   2.243   2.583   0.640 -0.4866 -0.3969  0.8924
  965SOL    HW2 3859   2.338   2.689   0.730  1.0205  1.1883 -0.7063
  965SOL     MW 3860   2.282   2.663   0.663  0.2847 -0.0922 -0.2014
  966SOL     OW 3861   2.654   2.599   2.419 -0.0325 -0.0166 -0.2820
  966SOL    HW1 3862   2.592   2.607   2.336  0.4412 -1.2963  0.1198
  966SOL    HW2 3863   2.684   2.504   2.434 -2.5629 -0.7921  1.5940
  966SOL     MW 3864   2.650   2.587   2.410 -0.3039 -0.2878  0.0186
  967SOL     OW 3865   2.792   3.082   2.935  0.5302  0.0280 -0.7999
  967SOL    HW1 3866   2.759   3.008   2.991 -0.5406  1.1725 -0.9441
  967SOL    HW2 3867   2.716   3.106   2.888 -1.7479 -4.5814  0.7824
  967SOL     MW 3868   2.778   3.076   2.937  0.0883 -0.4291 -0.6102
  968SOL     OW 3869   3.036   2.636   2.969  0.3004  0.2125  0.6061
  968SOL    HW1 3870   2.947   2.667   2.949  0.3963  0.2099 -0.2701
  968SOL    HW2 3871   3.071   2.578   2.891  1.0087  0.1689 -1.8262
  968SOL     MW 3872   3.029   2.633   2.956  0.4065  0.2064  0.1696
  969SOL     OW 3873   1.613   2.156   1.671  0.1461 -0.0851  0.1632
  969SOL    HW1 3874   1.686   2.095   1.686  0.3131  1.3848 -0.2471
  969SOL    HW2 3875   1.573   2.172   1.760 -1.4510  0.1449  2.3461
  969SOL     MW 3876   1.618   2.150   1.685 -0.0426  0.1392  0.3971
  970SOL     OW 3877   1.749   1.820   1.919  0.3260 -0.0771  0.1787
  970SOL    HW1 3878   1.797   1.750   1.950  0.4907  3.5016 -1.8182
  970SOL    HW2 3879   1.661   1.794   1.901  3.0234  2.1481 -2.7676
  970SOL     MW 3880   1.743   1.808   1.921  0.7036  0.6887 -0.4735
  971SOL     OW 3881   1.798   0.041   2.409  0.3849 -0.3751  0.1213
  971SOL    HW1 3882   1.830  -0.002   2.329  1.1234 -0.9115 -0.9542
  971SOL    HW2 3883   1.853   0.121   2.437 -1.6451  0.2844  0.1948
  971SOL     MW 3884   1.810   0.046   2.402  0.2145 -0.3588 -0.0109
  972SOL     OW 3885   0.253   2.902   2.472 -0.3703  0.0795 -0.1191
  972SOL    HW1 3886   0.300   2.816   2.488  2.1237 -0.2416 -0.0274
  972SOL    HW2 3887   0.294   2.968   2.524  0.1891  1.4256  0.4023
  972SOL     MW 3888   0.265   2.900   2.481  0.0326  0.2147 -0.0382
  973SOL     OW 3889   2.630   0.017   2.090 -0.1417 -0.2867 -0.4366
  973SOL    HW1 3890   2.605  -0.075   2.067  0.0460  2.4655 -1.4110
  973SOL    HW2 3891   2.623   0.062   2.008 -0.6295  0.2564  1.2043
  973SOL     MW 3892   2.626   0.011   2.077 -0.1813  0.1481 -0.3487
  974SOL     OW 3893   2.044   0.216   2.741 -0.0912 -1.2104  0.0069
  974SOL    HW1 3894   2.133   0.185   2.728 -0.6508 -0.1911  1.2216
  974SOL    HW2 3895   2.004   0.158   2.802 -0.7591 -0.4175  1.9107
  974SOL     MW 3896   2.050   0.204   2.747 -0.2531 -0.9713  0.4183
  975SOL     OW 3897   2.202   2.519   2.499  0.4715 -0.2206  0.4648
  975SOL    HW1 3898   2.286   2.555   2.529  1.0994  0.0068  1.1035
  975SOL    HW2 3899   2.130   2.584   2.493 -1.0722 -2.4799 -1.0604
  975SOL     MW 3900   2.204   2.532   2.502  0.3507 -0.4887  0.3478
  976SOL     OW 3901   0.215   0.380   1.784 -0.7868  0.0624 -0.4153
  976SOL    HW1 3902   0.289   0.330   1.770 -1.8068  0.5396 -0.0583
  976SOL    HW2 3903   0.133   0.332   1.748 -2.4397 -0.3944 -0.6605
  976SOL     MW 3904   0.214   0.367   1.777 -1.1395  0.0651 -0.4005
  977SOL     OW 3905   1.744   2.691   2.524 -0.4271  0.3931 -0.1613
  977SOL    HW1 3906   1.734   2.600   2.552  2.9967 -2.0132  1.8864
  977SOL    HW2 3907   1.833   2.689   2.484  0.6918  0.3331 -0.7770
  977SOL     MW 3908   1.754   2.678   2.522  0.1723  0.0677  0.0276
   3.10000   3.10000   3.10000
