977 TIP4P/2005f water molecules t=   0.86000 step= 860
 3908
    1SOL     OW    1   0.326   0.826   3.051  0.8014 -0.5698  0.3531
    1SOL    HW1    2   0.303   0.845   2.957 -1.7868 -1.0077 -1.2982
    1SOL    HW2    3   0.283   0.748   3.079  2.5608  1.9956  0.9765
    1SOL     MW    4   0.318   0.818   3.042  0.6920 -0.2891  0.2175
    2SOL     OW    5   0.311   2.991   1.179  0.4179 -0.2272 -0.2772
    2SOL    HW1    6   0.373   3.057   1.149 -0.3686  1.3998  0.7655
    2SOL    HW2    7   0.216   3.015   1.165 -0.0896  1.9465 -0.8860
    2SOL     MW    8   0.306   3.003   1.173  0.2472  0.2743 -0.2199
    3SOL     OW    9   2.638   0.425   0.960  0.5164  0.2351 -0.4753
    3SOL    HW1   10   2.679   0.508   0.918  1.0666 -0.9908 -0.4600
    3SOL    HW2   11   2.616   0.448   1.056 -4.0116 -1.3754  3.4091
    3SOL     MW   12   2.640   0.439   0.967 -0.0084 -0.1391  0.0392
    4SOL     OW   13   2.996   1.700   0.627  0.1858 -0.7910  0.0640
    4SOL    HW1   14   2.942   1.770   0.580  1.0934  1.9287 -1.9681
    4SOL    HW2   15   3.053   1.677   0.557  0.2997  0.5582 -1.8103
    4SOL     MW   16   2.996   1.706   0.612  0.3205 -0.2541 -0.4515
    5SOL     OW   17   1.748   1.505   0.516 -0.4346 -0.1958 -0.2438
    5SOL    HW1   18   1.785   1.467   0.599  1.9897 -0.7022  1.1287
    5SOL    HW2   19   1.654   1.499   0.536  1.8942  1.3268 -1.8427
    5SOL     MW   20   1.740   1.499   0.530  0.1925 -0.0618 -0.2736
    6SOL     OW   21   0.834   1.460   0.605 -0.3648  0.1474 -0.1401
    6SOL    HW1   22   0.741   1.475   0.628 -1.2791 -2.4239 -0.7230
    6SOL    HW2   23   0.841   1.374   0.647 -0.6335 -2.4434  1.7080
    6SOL     MW   24   0.822   1.451   0.614 -0.5209 -0.5337  0.0268
    7SOL     OW   25   2.045   1.154   3.066  0.3077 -0.2423 -0.0890
    7SOL    HW1   26   2.105   1.214   3.022  1.7869 -0.3632 -2.5568
    7SOL    HW2   27   2.075   1.153   3.161  1.1817  0.9536 -0.9980
    7SOL     MW   28   2.057   1.162   3.073  0.6182 -0.1005 -0.5346
    8SOL     OW   29   0.919   1.383   1.029 -0.2410  0.7149 -0.1156
    8SOL    HW1   30   1.009   1.389   1.040  0.0974 -0.8986  1.9256
    8SOL    HW2   31   0.894   1.339   1.107 -0.4953  1.1608  0.7516
    8SOL     MW   32   0.927   1.378   1.041 -0.2299  0.5609  0.2682
    9SOL     OW   33   1.021   0.521   1.393 -0.1718 -0.0622 -0.1630
    9SOL    HW1   34   0.946   0.466   1.369 -1.1036 -0.8999  0.3273
    9SOL    HW2   35   1.069   0.460   1.455 -0.0568 -1.7410  2.9742
    9SOL     MW   36   1.018   0.506   1.398 -0.2795 -0.3942  0.3156
   10SOL     OW   37   0.283   0.790   0.471 -0.3021 -0.5551 -0.2656
   10SOL    HW1   38   0.369   0.804   0.422 -0.4192 -3.0767 -1.3610
   10SOL    HW2   39   0.278   0.857   0.540 -2.1088 -2.3243  1.0553
   10SOL     MW   40   0.294   0.800   0.474 -0.5559 -1.1212 -0.2359
   11SOL     OW   41   0.803   1.131   1.729 -0.0139  0.0575  0.0833
   11SOL    HW1   42   0.847   1.072   1.793  2.0406 -1.8168  0.2627
   11SOL    HW2   43   0.804   1.055   1.658  1.0974  1.7273 -3.0344
   11SOL     MW   44   0.809   1.113   1.728  0.4038  0.0305 -0.3044
   12SOL     OW   45   0.028   1.075   0.879  0.5929  0.7926 -0.0847
   12SOL    HW1   46   0.074   1.163   0.915  0.7512  2.3017  1.6596
   12SOL    HW2   47  -0.032   1.109   0.808 -1.5912 -1.2725  0.3507
   12SOL     MW   48   0.026   1.091   0.875  0.3256  0.7193  0.2029
   13SOL     OW   49   1.834   1.419   1.369 -0.4409  0.6793  0.1237
   13SOL    HW1   50   1.873   1.355   1.310  1.9740  1.3535 -1.9833
   13SOL    HW2   51   1.866   1.501   1.331 -0.0490  0.0491  0.3842
   13SOL     MW   52   1.843   1.422   1.356 -0.0706  0.6851 -0.1199
   14SOL     OW   53   0.657   0.400   1.865 -0.4057 -0.2910  0.1527
   14SOL    HW1   54   0.592   0.334   1.879  1.7055 -2.6287  1.1514
   14SOL    HW2   55   0.721   0.393   1.939 -0.1466  1.0520  1.2646
   14SOL     MW   56   0.657   0.391   1.877 -0.0930 -0.4222  0.4312
   15SOL     OW   57   1.944   0.406   1.004  0.7670 -0.7510  0.6243
   15SOL    HW1   58   1.943   0.456   1.090 -2.5911 -0.1425 -0.5613
   15SOL    HW2   59   2.025   0.430   0.954  0.3752  1.2476  0.4656
   15SOL     MW   60   1.955   0.416   1.009  0.2722 -0.4070  0.4469
   16SOL     OW   61   0.166   1.825   0.331 -0.3763 -0.1340  0.1629
   16SOL    HW1   62   0.252   1.798   0.366 -0.2148 -0.0036 -2.1422
   16SOL    HW2   63   0.164   1.922   0.349  0.3868  0.1037 -0.4360
   16SOL     MW   64   0.177   1.834   0.338 -0.2543 -0.0855 -0.2203
   17SOL     OW   65   1.112   0.908   1.505 -0.0343 -0.1939 -0.4114
   17SOL    HW1   66   1.149   0.877   1.588 -0.6778 -1.3340 -3.3700
   17SOL    HW2   67   1.018   0.914   1.528  2.6766  0.2903 -1.6140
   17SOL     MW   68   1.105   0.905   1.519  0.2384 -0.2804 -0.9604
   18SOL     OW   69   0.073   1.575   0.385 -0.1445 -0.4401  0.5319
   18SOL    HW1   70   0.104   1.669   0.371  1.4348  0.0629 -1.0935
   18SOL    HW2   71   0.068   1.532   0.303 -0.8275  0.9266  2.2888
   18SOL     MW   72   0.076   1.582   0.372 -0.0262 -0.1934  0.5492
   19SOL     OW   73   0.131   1.307   0.994  0.2206  0.2037 -0.1596
   19SOL    HW1   74   0.153   1.361   0.921  4.4151  0.5546 -0.7190
   19SOL    HW2   75   0.038   1.314   1.017 -0.6451 -2.7854  2.6973
   19SOL     MW   76   0.122   1.315   0.987  0.6598 -0.1444  0.1436
   20SOL     OW   77   0.444   2.141   1.155  0.5591  0.4381  0.1420
   20SOL    HW1   78   0.372   2.085   1.114 -1.1297  1.7708 -2.0700
   20SOL    HW2   79   0.409   2.174   1.233 -1.3605 -2.3772  1.0254
   20SOL     MW   80   0.430   2.138   1.160  0.0830  0.2425 -0.0333
   21SOL     OW   81   0.535   0.819   0.344 -0.2813  0.0635  0.1249
   21SOL    HW1   82   0.609   0.812   0.401  0.8450  1.0778 -2.5157
   21SOL    HW2   83   0.569   0.796   0.257 -0.2714  1.1720  1.1175
   21SOL     MW   84   0.549   0.815   0.340 -0.1314  0.3436 -0.0926
   22SOL     OW   85   1.518   0.696   1.062  0.3541  0.7021  0.2737
   22SOL    HW1   86   1.478   0.689   0.972 -1.0945  3.8158 -3.7039
   22SOL    HW2   87   1.466   0.764   1.101  1.6715  0.8217 -0.1349
   22SOL     MW   88   1.506   0.704   1.055  0.3368  1.1287 -0.3050
   23SOL     OW   89   0.034   0.761   0.667 -0.5501  0.2202 -0.3758
   23SOL    HW1   90   0.068   0.685   0.717  2.4120  1.6013 -1.8531
   23SOL    HW2   91   0.104   0.832   0.670 -0.4465 -2.0022  1.5046
   23SOL     MW   92   0.048   0.760   0.674 -0.1456  0.1092 -0.3226
   24SOL     OW   93   1.974   2.230   0.111  0.3344  0.0012 -0.3781
   24SOL    HW1   94   1.982   2.206   0.209 -0.0526  0.3182  2.9577
   24SOL    HW2   95   1.972   2.148   0.060  0.8492 -1.0919 -0.8014
   24SOL     MW   96   1.975   2.216   0.117  0.3512 -0.1012  0.0062
   25SOL     OW   97   0.239   1.402   0.493  0.2513  0.7713  0.1314
   25SOL    HW1   98   0.179   1.469   0.460 -1.2123 -1.4494  0.1761
   25SOL    HW2   99   0.331   1.436   0.465  0.9329  0.1851 -1.6851
   25SOL     MW  100   0.243   1.415   0.485  0.1481  0.4010 -0.1024
   26SOL     OW  101   2.031   0.977   0.356 -0.0329 -0.0095  0.1143
   26SOL    HW1  102   1.973   1.022   0.413 -0.8220  0.7148 -1.8106
   26SOL    HW2  103   2.060   1.044   0.294  1.5865  1.2757 -2.6218
   26SOL     MW  104   2.027   0.991   0.355  0.0766  0.2556 -0.5007
   27SOL     OW  105   2.033   1.437   0.265  0.1278 -0.2599  0.0960
   27SOL    HW1  106   1.976   1.391   0.327  1.7337 -1.2464  0.7357
   27SOL    HW2  107   2.101   1.475   0.328  2.3681 -1.4480 -1.2166
   27SOL     MW  108   2.035   1.436   0.282  0.6353 -0.5468  0.0072
   28SOL     OW  109   0.381   0.993   1.998  0.2689 -1.0686 -0.1441
   28SOL    HW1  110   0.453   0.939   2.012 -0.7276  1.4259  2.5151
   28SOL    HW2  111   0.297   0.948   1.976  3.2016  2.8315 -3.2627
   28SOL     MW  112   0.380   0.980   1.997  0.5244 -0.2249 -0.2047
   29SOL     OW  113   0.239   1.448   0.789  0.1711 -0.2736  0.8060
   29SOL    HW1  114   0.218   1.543   0.784 -0.5207 -0.4643 -0.7725
   29SOL    HW2  115   0.250   1.420   0.699  1.0788 -0.8021  2.9376
   29SOL     MW  116   0.238   1.457   0.777  0.1996 -0.3685  0.8790
   30SOL     OW  117   0.822   1.170   1.214  0.6065  0.2192  0.1613
   30SOL    HW1  118   0.729   1.166   1.255 -2.3910 -1.0036 -2.5209
   30SOL    HW2  119   0.887   1.178   1.288  2.2333 -0.7429  0.9159
   30SOL     MW  120   0.818   1.170   1.229  0.4257 -0.0691 -0.0930
   31SOL     OW  121   0.410   0.157   0.204 -0.5039 -0.2365 -0.0635
   31SOL    HW1  122   0.432   0.116   0.287 -1.1213  1.6606 -1.5528
   31SOL    HW2  123   0.413   0.095   0.130  3.1441  2.5805  1.6698
   31SOL     MW  124   0.413   0.143   0.205 -0.1040  0.3855 -0.0313
   32SOL     OW  125   2.793   0.985   1.119  0.0177 -0.3854 -0.2774
   32SOL    HW1  126   2.723   0.923   1.105  0.1479  2.3050  1.1560
   32SOL    HW2  127   2.866   0.944   1.080  0.4380  2.5783 -0.4127
   32SOL     MW  128   2.793   0.971   1.112  0.0903  0.3606 -0.1061
   33SOL     OW  129   1.786   1.308   0.339 -0.9056 -0.0074 -0.3272
   33SOL    HW1  130   1.807   1.263   0.418 -0.4678  1.8659  0.3712
   33SOL    HW2  131   1.785   1.398   0.372 -0.7633  1.4841 -1.4146
   33SOL     MW  132   1.789   1.314   0.354 -0.8291  0.4366 -0.3785
   34SOL     OW  133   1.236   1.859   1.071  0.1063 -0.1734  0.0025
   34SOL    HW1  134   1.148   1.868   1.095 -0.0095  1.6587 -0.6754
   34SOL    HW2  135   1.279   1.902   1.147 -1.6993  1.7348 -2.2268
   34SOL     MW  136   1.230   1.866   1.084 -0.1472  0.3201 -0.3811
   35SOL     OW  137   0.458   0.213   1.851  0.3097  0.9957 -0.4189
   35SOL    HW1  138   0.456   0.133   1.904  1.0793 -1.6522 -2.4452
   35SOL    HW2  139   0.468   0.178   1.757 -0.2355 -0.8839 -2.6435
   35SOL     MW  140   0.459   0.198   1.846  0.3393  0.3984 -0.9797
   36SOL     OW  141   1.934   1.950   0.543  0.3826  0.3504 -0.3684
   36SOL    HW1  142   1.945   1.952   0.443  1.1039  2.4757  0.7143
   36SOL    HW2  143   1.955   1.853   0.560  0.8462 -0.1748 -2.0609
   36SOL     MW  144   1.938   1.938   0.532  0.5389  0.5616 -0.4488
   37SOL     OW  145   1.747   1.986   1.004  0.1524  0.3675 -0.3342
   37SOL    HW1  146   1.689   1.933   0.955  1.1340 -2.2512 -1.0759
   37SOL    HW2  147   1.700   2.046   1.058  0.2629 -0.6568 -0.0675
   37SOL     MW  148   1.733   1.987   1.005  0.2965 -0.1131 -0.3969
   38SOL     OW  149   2.786   0.923   0.114  0.5370 -0.1806 -0.0608
   38SOL    HW1  150   2.816   0.902   0.200 -2.0355 -1.3245  0.2104
   38SOL    HW2  151   2.866   0.887   0.067  2.3474 -1.2172  0.3821
   38SOL     MW  152   2.800   0.916   0.119  0.4364 -0.4683  0.0334
   39SOL     OW  153   1.434   0.608   0.808  0.7941  0.1905 -0.3511
   39SOL    HW1  154   1.399   0.518   0.818  0.2116 -0.5531 -0.3431
   39SOL    HW2  155   1.356   0.653   0.777 -0.9170  1.2574 -0.6421
   39SOL     MW  156   1.419   0.602   0.806  0.4915  0.2331 -0.3884
   40SOL     OW  157   1.146   1.888   0.270  0.3551  0.6178  0.4759
   40SOL    HW1  158   1.210   1.825   0.307 -1.6393 -3.5737  1.7936
   40SOL    HW2  159   1.140   1.965   0.323 -1.5614 -1.4444 -0.0204
   40SOL     MW  160   1.154   1.890   0.282 -0.1609 -0.2073  0.5843
   41SOL     OW  161   0.584   0.547   1.609 -0.2991  0.2606 -0.0523
   41SOL    HW1  162   0.671   0.583   1.595 -0.0539 -0.1573  0.7569
   41SOL    HW2  163   0.610   0.461   1.653  0.9734 -0.8220 -0.7103
   41SOL     MW  164   0.599   0.540   1.613 -0.0989  0.0626 -0.0323
   42SOL     OW  165   1.294   3.019   1.968 -0.2722 -0.2533  0.5906
   42SOL    HW1  166   1.210   3.022   2.023  1.6152 -2.6799  2.2992
   42SOL    HW2  167   1.347   2.954   2.006  0.5755  0.9894 -2.2267
   42SOL     MW  168   1.290   3.011   1.980  0.0887 -0.4095  0.4443
   43SOL     OW  169   1.584   0.101   1.717  0.2783 -0.0456 -0.4893
   43SOL    HW1  170   1.609   0.070   1.630 -0.0162  0.9319  1.0539
   43SOL    HW2  171   1.489   0.076   1.727 -0.7679 -0.0069 -0.9158
   43SOL     MW  172   1.575   0.094   1.707  0.1014  0.0885 -0.3419
   44SOL     OW  173   1.064   0.761   1.021 -0.9030  0.8379 -0.2762
   44SOL    HW1  174   1.065   0.853   1.004  0.6026 -0.0032 -1.3943
   44SOL    HW2  175   1.073   0.751   1.114  2.8118 -0.0228 -2.1410
   44SOL     MW  176   1.065   0.772   1.031 -0.2142  0.6134 -0.6698
   45SOL     OW  177   1.240   0.743   0.690 -0.0348  0.4557 -0.8622
   45SOL    HW1  178   1.174   0.744   0.761  0.5562  2.1374  1.3189
   45SOL    HW2  179   1.201   0.691   0.619  2.5116 -1.3431 -2.5931
   45SOL     MW  180   1.226   0.737   0.690  0.3792  0.4402 -0.8028
   46SOL     OW  181   0.564   1.164   0.592 -0.5922 -0.3107  1.2502
   46SOL    HW1  182   0.537   1.156   0.500  0.8461  3.1929  1.3037
   46SOL    HW2  183   0.661   1.163   0.566  0.5609  0.6943 -0.5939
   46SOL     MW  184   0.573   1.163   0.577 -0.2503  0.2842  1.0139
   47SOL     OW  185   0.161   2.002   1.921 -0.2438 -0.0828  0.4580
   47SOL    HW1  186   0.210   1.933   1.870 -0.8047 -1.4260  1.2039
   47SOL    HW2  187   0.190   1.974   2.007  1.4482  0.0875  1.6328
   47SOL     MW  188   0.172   1.989   1.926 -0.0946 -0.2375  0.7114
   48SOL     OW  189   1.098   0.496   0.955  0.2655 -0.0912  0.0337
   48SOL    HW1  190   1.014   0.455   0.967 -0.7337 -0.6984 -1.4895
   48SOL    HW2  191   1.079   0.584   0.987  1.3537 -2.8331 -1.4737
   48SOL     MW  192   1.084   0.502   0.961  0.2772 -0.5330 -0.3662
   49SOL     OW  193   1.835   0.732   1.582 -0.2611 -0.0634 -0.5522
   49SOL    HW1  194   1.802   0.687   1.664  0.2498  1.3067  2.9010
   49SOL    HW2  195   1.883   0.664   1.542  1.5916  0.9670  1.6742
   49SOL     MW  196   1.837   0.717   1.588  0.0507  0.2534  0.1971
   50SOL     OW  197   1.230   1.083   0.513  0.7104 -0.4174 -0.0318
   50SOL    HW1  198   1.179   1.104   0.591 -2.4721  0.3246  1.3193
   50SOL    HW2  199   1.288   1.013   0.538  0.5735 -0.1699 -1.1043
   50SOL     MW  200   1.231   1.077   0.526  0.2724 -0.2869  0.0049
   51SOL     OW  201   0.288   2.902   0.920 -0.0431  0.4191 -0.0497
   51SOL    HW1  202   0.387   2.875   0.921  0.0207 -0.0913 -1.5939
   51SOL    HW2  203   0.284   2.937   1.011  0.2730  1.1677 -2.4140
   51SOL     MW  204   0.301   2.903   0.932  0.0071  0.4505 -0.5654
   52SOL     OW  205   0.814   1.810   0.451 -0.4011 -0.2354  0.6604
   52SOL    HW1  206   0.799   1.902   0.479 -1.1916 -1.6239 -0.8382
   52SOL    HW2  207   0.804   1.806   0.358  3.2184 -0.2964  0.0899
   52SOL     MW  208   0.811   1.822   0.443 -0.0279 -0.4266  0.3874
   53SOL     OW  209   0.427   2.121   0.589  0.6624 -0.1152  0.1352
   53SOL    HW1  210   0.364   2.115   0.516  0.6211  1.3859 -1.5770
   53SOL    HW2  211   0.442   2.214   0.583 -2.3076  0.8274  0.8669
   53SOL     MW  212   0.421   2.133   0.579  0.2651  0.2072  0.0058
   54SOL     OW  213   2.078   0.950   0.827 -0.4697  0.1394 -0.0257
   54SOL    HW1  214   2.109   0.975   0.737  1.5715  2.4018  1.5593
   54SOL    HW2  215   2.048   0.858   0.832 -0.5486  0.4196 -2.3762
   54SOL     MW  216   2.078   0.941   0.816 -0.2108  0.4749 -0.1267
   55SOL     OW  217   0.567   1.535   1.664 -0.7218 -0.1974 -0.0583
   55SOL    HW1  218   0.502   1.577   1.609  0.4927  0.0609 -1.8852
   55SOL    HW2  219   0.620   1.486   1.600 -1.4222  0.3610  2.1494
   55SOL     MW  220   0.566   1.534   1.649 -0.6540 -0.0897 -0.0080
   56SOL     OW  221   0.605   0.790   0.076 -0.4290  0.0398  0.6601
   56SOL    HW1  222   0.617   0.886   0.074  2.2340 -1.5378  0.5031
   56SOL    HW2  223   0.530   0.784   0.020 -1.0554  1.6340 -1.8287
   56SOL     MW  224   0.597   0.802   0.069 -0.1603  0.0420  0.3110
   57SOL     OW  225   1.189   1.228   1.133 -0.5753  0.4076 -0.4653
   57SOL    HW1  226   1.271   1.251   1.084 -0.0139 -0.7888 -1.5917
   57SOL    HW2  227   1.233   1.183   1.211 -2.4908  0.8792 -0.1092
   57SOL     MW  228   1.206   1.225   1.137 -0.7540  0.3120 -0.5670
   58SOL     OW  229   0.532   1.177   1.334  0.4852 -0.4870  0.3945
   58SOL    HW1  230   0.504   1.265   1.313 -3.0896  0.4308  0.7965
   58SOL    HW2  231   0.555   1.186   1.425 -0.4632 -0.4494  1.4694
   58SOL     MW  232   0.532   1.189   1.344 -0.1116 -0.3610  0.5894
   59SOL     OW  233   1.551   1.699   0.336  0.0217  0.2120  0.5368
   59SOL    HW1  234   1.610   1.747   0.390 -0.2048  2.3117 -2.3092
   59SOL    HW2  235   1.460   1.727   0.369 -0.7281  0.4274 -1.2036
   59SOL     MW  236   1.547   1.709   0.348 -0.1071  0.5175 -0.0683
   60SOL     OW  237   0.009   0.191   1.579 -0.0302  0.5361 -0.2184
   60SOL    HW1  238  -0.079   0.224   1.592  3.4881 -1.1090  2.6822
   60SOL    HW2  239   0.031   0.133   1.648 -0.7968 -0.2432 -3.1188
   60SOL     MW  240  -0.000   0.187   1.590  0.3328  0.2162 -0.2184
   61SOL     OW  241   2.023   1.511   3.095 -0.1375 -0.0111 -0.2164
   61SOL    HW1  242   2.002   1.504   3.190  1.4266  2.9287  1.6182
   61SOL    HW2  243   2.084   1.439   3.081  2.9211  0.7486  1.5966
   61SOL     MW  244   2.028   1.501   3.106  0.4724  0.4770  0.2649
   62SOL     OW  245   0.586   1.730   0.644 -0.0526  0.4172  0.0019
   62SOL    HW1  246   0.663   1.743   0.581  3.7679 -0.0299 -1.5864
   62SOL    HW2  247   0.584   1.636   0.670 -0.1962  0.9917  0.3579
   62SOL     MW  248   0.596   1.719   0.639  0.4326  0.4340 -0.1607
   63SOL     OW  249   1.686   0.672   0.736  0.4098  0.0700  0.1497
   63SOL    HW1  250   1.685   0.739   0.667  1.4551 -0.5613  0.4487
   63SOL    HW2  251   1.595   0.672   0.768 -0.9966  0.4558 -1.5878
   63SOL     MW  252   1.674   0.681   0.731  0.3622  0.0376 -0.0401
   64SOL     OW  253   0.182   1.706   0.787 -0.3745 -0.6687  0.5435
   64SOL    HW1  254   0.254   1.761   0.814  0.0181  2.1107 -1.4472
   64SOL    HW2  255   0.100   1.763   0.781 -2.7572  1.8809 -0.0367
   64SOL     MW  256   0.181   1.721   0.790 -0.6371  0.0344  0.2043
   65SOL     OW  257   1.573   2.310   0.388  0.3902 -0.8001  0.0122
   65SOL    HW1  258   1.667   2.320   0.405  1.5738  0.8171 -1.5938
   65SOL    HW2  259   1.536   2.371   0.449 -1.7167  0.4618 -0.1703
   65SOL     MW  260   1.581   2.320   0.398  0.2684 -0.4202 -0.2238
   66SOL     OW  261   0.292   0.536   0.551  0.1213 -0.4442 -0.1292
   66SOL    HW1  262   0.337   0.487   0.482 -2.0269 -0.9917  1.0049
   66SOL    HW2  263   0.313   0.633   0.525  1.5685  3.1132  0.4297
   66SOL     MW  264   0.300   0.542   0.538  0.0288 -0.0471  0.0942
   67SOL     OW  265   1.550   0.061   2.055  0.1328 -0.0303 -0.0755
   67SOL    HW1  266   1.616   0.067   1.990 -0.0394 -1.6084 -1.7030
   67SOL    HW2  267   1.549  -0.030   2.083  1.9117 -0.4453  0.6652
   67SOL     MW  268   1.558   0.050   2.050  0.3448 -0.2933 -0.1925
   68SOL     OW  269   0.698   0.113   2.941  0.4623 -0.9624 -0.0393
   68SOL    HW1  270   0.681   0.158   2.860  0.7028 -3.5072  0.0890
   68SOL    HW2  271   0.774   0.156   2.984 -1.4777 -1.8154 -0.4429
   68SOL     MW  272   0.706   0.125   2.936  0.2380 -1.4107 -0.0756
   69SOL     OW  273   1.029   0.226   2.003  0.2429  1.1367 -0.0595
   69SOL    HW1  274   1.124   0.245   2.014 -1.5603 -0.1115 -0.0518
   69SOL    HW2  275   1.021   0.136   2.035  1.9253 -1.5431 -0.9978
   69SOL     MW  276   1.041   0.217   2.008  0.2270  0.6184 -0.1822
   70SOL     OW  277   0.534   1.728   1.130 -0.3847  0.1353  0.1652
   70SOL    HW1  278   0.599   1.696   1.190  1.3352  1.1107 -1.4260
   70SOL    HW2  279   0.593   1.783   1.075  0.2094 -1.5950 -1.2784
   70SOL     MW  280   0.550   1.731   1.131 -0.0794  0.0357 -0.2352
   71SOL     OW  281   1.574   0.521   1.261 -0.3987 -0.3362 -0.2764
   71SOL    HW1  282   1.522   0.580   1.316  3.2323  1.7919  0.2419
   71SOL    HW2  283   1.558   0.561   1.173 -0.4700 -0.5119  0.0828
   71SOL     MW  284   1.565   0.534   1.257  0.0710 -0.0786 -0.1606
   72SOL     OW  285   0.752   1.849   0.964  0.2192  0.6438  0.2438
   72SOL    HW1  286   0.763   1.912   0.889 -0.7623 -1.9116 -3.2977
   72SOL    HW2  287   0.765   1.769   0.919  1.9497  0.6648 -0.5053
   72SOL     MW  288   0.755   1.846   0.948  0.3180  0.3094 -0.3223
   73SOL     OW  289   1.162   0.728   1.300  0.0975 -0.3436 -0.2504
   73SOL    HW1  290   1.108   0.651   1.334 -0.8121 -0.0332 -1.9375
   73SOL    HW2  291   1.144   0.803   1.361  2.3926  1.8609 -0.6245
   73SOL     MW  292   1.152   0.728   1.312  0.2803 -0.0118 -0.5224
   74SOL     OW  293   2.731   0.147   0.970 -0.5256 -0.5036  0.6861
   74SOL    HW1  294   2.812   0.142   0.915 -0.1046 -1.8936 -0.9394
   74SOL    HW2  295   2.700   0.240   0.964 -0.4897 -0.3383 -1.6927
   74SOL     MW  296   2.738   0.158   0.962 -0.4653 -0.6652  0.1578
   75SOL     OW  297   1.637   1.379   0.125 -0.5610 -0.6410  0.1643
   75SOL    HW1  298   1.684   1.462   0.129 -0.6904  0.0480  2.6723
   75SOL    HW2  299   1.686   1.328   0.191  0.3070 -0.4873 -2.9913
   75SOL     MW  300   1.650   1.383   0.134 -0.4636 -0.5298  0.0788
   76SOL     OW  301   3.011   0.604   0.472 -0.2674  0.0106  0.4877
   76SOL    HW1  302   3.055   0.640   0.550  0.8521 -2.7610 -0.0422
   76SOL    HW2  303   3.084   0.573   0.419  1.6336  0.1711 -0.7963
   76SOL     MW  304   3.026   0.605   0.475  0.1311 -0.3339  0.2484
   77SOL     OW  305   0.831   0.526   0.449 -0.3446 -0.5792  0.3547
   77SOL    HW1  306   0.800   0.551   0.360 -2.3287  2.1328 -0.4250
   77SOL    HW2  307   0.767   0.461   0.481  1.2662  0.1420  0.0442
   77SOL     MW  308   0.818   0.521   0.442 -0.3939 -0.1262  0.2109
   78SOL     OW  309   0.722   0.926   1.314 -0.3900 -0.5902  0.1028
   78SOL    HW1  310   0.765   0.991   1.258 -0.3432 -1.0508  1.4439
   78SOL    HW2  311   0.672   0.875   1.257  3.4393  0.5012 -0.1761
   78SOL     MW  312   0.721   0.928   1.299  0.1214 -0.5070  0.2430
   79SOL     OW  313   1.936   1.686   0.584  0.2496  0.1491  0.1764
   79SOL    HW1  314   1.856   1.646   0.541  1.0655  0.9643  1.3497
   79SOL    HW2  315   1.920   1.706   0.680  0.3265  1.6566  0.2203
   79SOL     MW  316   1.923   1.683   0.591  0.3674  0.4555  0.3370
   80SOL     OW  317   0.069   0.940   0.341  0.1113 -0.0400 -0.2965
   80SOL    HW1  318  -0.012   0.884   0.353 -1.5438 -1.0049  2.3978
   80SOL    HW2  319   0.142   0.890   0.378 -1.4443  1.9169  2.5428
   80SOL     MW  320   0.068   0.926   0.347 -0.3124  0.0909  0.4336
   81SOL     OW  321   1.924   1.916   0.240  0.3123 -0.2137  0.8828
   81SOL    HW1  322   1.895   1.825   0.235  0.1921 -0.2987 -2.5836
   81SOL    HW2  323   1.855   1.972   0.206 -1.2909 -1.9700  0.0730
   81SOL     MW  324   1.911   1.911   0.235  0.0849 -0.4567  0.3186
   82SOL     OW  325   0.810   1.021   0.526 -0.2106 -0.0789  0.4535
   82SOL    HW1  326   0.791   1.028   0.426 -1.0649 -0.2051  0.3859
   82SOL    HW2  327   0.764   0.940   0.552  2.3060  1.0708 -0.2958
   82SOL     MW  328   0.801   1.012   0.516  0.0087  0.0561  0.3457
   83SOL     OW  329   0.042   0.665   1.462  0.7338 -0.2960  0.4634
   83SOL    HW1  330   0.078   0.744   1.412 -0.6074 -1.4111 -0.4991
   83SOL    HW2  331   0.118   0.618   1.492  0.8751 -1.4047  0.4727
   83SOL     MW  332   0.057   0.669   1.460  0.5755 -0.5894  0.3376
   84SOL     OW  333   0.122   0.282   0.976  0.7140 -0.1902  1.0477
   84SOL    HW1  334   0.026   0.303   0.950  1.3479 -0.4918 -0.8581
   84SOL    HW2  335   0.115   0.198   1.026 -1.4748 -0.1725  0.2456
   84SOL     MW  336   0.108   0.273   0.979  0.5088 -0.2276  0.6904
   85SOL     OW  337   0.471   0.425   0.731 -0.3819  0.7550 -0.7521
   85SOL    HW1  338   0.411   0.460   0.666 -0.9503  1.4881 -1.9160
   85SOL    HW2  339   0.435   0.345   0.763 -1.0792  0.1849  0.1711
   85SOL     MW  340   0.459   0.419   0.727 -0.5489  0.7765 -0.7839
   86SOL     OW  341   1.167   0.286   1.125 -0.3602 -0.3854 -0.2025
   86SOL    HW1  342   1.135   0.367   1.091 -0.9830 -2.5330  0.1490
   86SOL    HW2  343   1.207   0.318   1.205  1.9424  0.0818 -0.8790
   86SOL     MW  344   1.168   0.301   1.132 -0.1385 -0.6071 -0.2454
   87SOL     OW  345   1.228   1.468   1.359  0.7453  0.1992 -0.0864
   87SOL    HW1  346   1.253   1.496   1.270 -0.6986 -2.9767 -1.5518
   87SOL    HW2  347   1.227   1.375   1.348  0.0604  0.0377 -0.9404
   87SOL     MW  348   1.231   1.460   1.345  0.4644 -0.2412 -0.3924
   88SOL     OW  349   1.209   1.010   0.947 -0.3076  0.6346  0.7176
   88SOL    HW1  350   1.305   0.998   0.947 -0.1286 -0.2232  0.4681
   88SOL    HW2  351   1.197   1.070   1.017 -1.7750 -2.0072  0.3778
   88SOL     MW  352   1.220   1.017   0.956 -0.4776  0.1728  0.6399
   89SOL     OW  353   1.777   0.687   0.373 -0.4301  0.4829  0.0994
   89SOL    HW1  354   1.809   0.605   0.407  1.1504 -1.2808  0.1761
   89SOL    HW2  355   1.841   0.704   0.304 -1.0562 -1.6661  0.1668
   89SOL     MW  356   1.790   0.679   0.368 -0.3041 -0.0333  0.1184
   90SOL     OW  357   0.708   1.142   2.726  0.4521  0.2979  0.3689
   90SOL    HW1  358   0.754   1.064   2.765  0.1326  0.7576  0.5764
   90SOL    HW2  359   0.746   1.200   2.793  0.9509  3.5686  4.4605
   90SOL     MW  360   0.719   1.139   2.740  0.4758  0.7901  0.9361
   91SOL     OW  361   2.176   0.663   0.444  0.1130 -0.2250 -0.4932
   91SOL    HW1  362   2.207   0.709   0.367 -0.9733  1.5153  0.6657
   91SOL    HW2  363   2.154   0.574   0.418  0.2861  1.1526 -0.6877
   91SOL     MW  364   2.177   0.657   0.430 -0.0075  0.1864 -0.3660
   92SOL     OW  365   1.700   0.894   0.534  0.7439  0.1409 -0.0631
   92SOL    HW1  366   1.601   0.897   0.551 -0.3550  4.4926 -0.8013
   92SOL    HW2  367   1.721   0.825   0.474  1.2116  0.4862  0.6348
   92SOL     MW  368   1.690   0.885   0.529  0.6606  0.7606 -0.0684
   93SOL     OW  369   0.929   0.251   0.417  0.5536 -0.5171 -0.3412
   93SOL    HW1  370   0.871   0.324   0.435  2.5283 -0.0646  0.4426
   93SOL    HW2  371   0.964   0.281   0.333 -1.8093  2.5240 -0.6051
   93SOL     MW  372   0.926   0.265   0.408  0.5024 -0.0561 -0.2726
   94SOL     OW  373   1.789   1.471   1.623  0.1166 -0.7318  0.0335
   94SOL    HW1  374   1.812   1.452   1.536  2.8432  0.2820  2.1211
   94SOL    HW2  375   1.803   1.384   1.671  2.3710 -1.2203  2.0191
   94SOL     MW  376   1.794   1.457   1.618  0.7738 -0.6625  0.5709
   95SOL     OW  377   0.737   1.562   0.906 -0.1518 -0.2121 -0.2751
   95SOL    HW1  378   0.783   1.494   0.953 -0.3418  0.2133  1.0306
   95SOL    HW2  379   0.652   1.533   0.931 -0.2200 -0.5723  0.0604
   95SOL     MW  380   0.732   1.550   0.915 -0.1859 -0.2035 -0.0586
   96SOL     OW  381   1.272   1.854   1.689  0.8228  0.1460  0.4171
   96SOL    HW1  382   1.197   1.844   1.757 -4.7415  1.0998  2.1590
   96SOL    HW2  383   1.286   1.770   1.647 -1.1036  3.4738  3.7936
   96SOL     MW  384   1.264   1.841   1.692 -0.1655  0.7109  1.0924
   97SOL     OW  385   1.264   1.435   0.731  0.3385 -0.4981 -0.2496
   97SOL    HW1  386   1.316   1.483   0.796 -1.0956 -0.2881 -1.7010
   97SOL    HW2  387   1.180   1.479   0.744 -0.4298  1.1222 -0.9713
   97SOL     MW  388   1.260   1.447   0.741  0.0479 -0.2566 -0.5363
   98SOL     OW  389   1.443   1.298   1.044  0.0371  0.0384  0.1344
   98SOL    HW1  390   1.458   1.379   1.093  1.5953  2.4058  1.2999
   98SOL    HW2  391   1.516   1.295   0.982  1.0350 -1.3123 -1.2287
   98SOL     MW  392   1.454   1.308   1.042  0.3743  0.1726  0.1083
   99SOL     OW  393   1.371   0.355   1.331 -0.1048 -0.0670  0.2487
   99SOL    HW1  394   1.439   0.396   1.276 -2.0756  1.1011  0.6333
   99SOL    HW2  395   1.405   0.349   1.423 -1.8232 -0.6719 -0.3532
   99SOL     MW  396   1.385   0.360   1.336 -0.5916  0.0073  0.2200
  100SOL     OW  397   1.013   1.183   1.416 -0.4459  0.1442  0.7355
  100SOL    HW1  398   1.030   1.242   1.491 -0.1054  2.3218  0.5265
  100SOL    HW2  399   1.055   1.101   1.445  2.6260 -0.4402  1.0720
  100SOL     MW  400   1.021   1.180   1.429  0.0043  0.3544  0.7523
  101SOL     OW  401   0.495   1.095   0.332 -0.3389  0.2259 -0.1412
  101SOL    HW1  402   0.502   1.000   0.335 -0.6045 -3.3927 -1.1872
  101SOL    HW2  403   0.454   1.117   0.249 -0.9055 -0.3999  2.4763
  101SOL     MW  404   0.490   1.085   0.322 -0.4487 -0.3341  0.0661
  102SOL     OW  405   2.920   0.631   1.059  0.4183  0.4701  0.7419
  102SOL    HW1  406   2.963   0.718   1.055 -1.5864 -1.6552 -1.2934
  102SOL    HW2  407   2.950   0.596   1.145  1.1594 -0.2968  0.9807
  102SOL     MW  408   2.929   0.638   1.069  0.2516  0.0885  0.5048
  103SOL     OW  409   1.790   0.280   1.822  0.8033 -0.5676 -0.3510
  103SOL    HW1  410   1.709   0.228   1.794 -1.4608 -2.5046 -1.9135
  103SOL    HW2  411   1.786   0.279   1.927  0.4594 -3.9518 -0.6751
  103SOL     MW  412   1.779   0.273   1.832  0.4592 -1.2697 -0.5999
  104SOL     OW  413   0.073   1.671   1.499  0.7119 -1.1223 -0.2532
  104SOL    HW1  414   0.009   1.681   1.560 -0.7638  1.7644  0.3238
  104SOL    HW2  415   0.031   1.628   1.431 -1.0185  2.2210  2.6737
  104SOL     MW  416   0.059   1.667   1.498  0.2889 -0.3003  0.2091
  105SOL     OW  417   0.016   1.193   0.434 -0.4833  0.3478 -0.2855
  105SOL    HW1  418   0.037   1.095   0.413  1.4174 -0.7267 -0.3367
  105SOL    HW2  419   0.101   1.243   0.449  2.8005  1.5690 -0.2378
  105SOL     MW  420   0.030   1.186   0.433  0.2007  0.3672 -0.2860
  106SOL     OW  421   0.852   0.379   1.013 -0.0510 -0.4188 -0.1571
  106SOL    HW1  422   0.793   0.437   0.959 -1.3448 -0.5890  0.8809
  106SOL    HW2  423   0.880   0.304   0.954  1.1751  0.1358  0.6086
  106SOL     MW  424   0.848   0.377   0.998 -0.0599 -0.3681  0.0809
  107SOL     OW  425   0.781   2.151   2.976  0.2295  0.0638 -0.2026
  107SOL    HW1  426   0.713   2.113   2.917 -0.6812 -1.4414  3.1010
  107SOL    HW2  427   0.795   2.083   3.044  0.2243 -0.1689  0.4568
  107SOL     MW  428   0.774   2.137   2.977  0.1086 -0.1655  0.3203
  108SOL     OW  429   1.288   1.564   1.611  0.6895  0.0431  0.5084
  108SOL    HW1  430   1.250   1.524   1.532 -0.1358 -2.9945 -2.4426
  108SOL    HW2  431   1.379   1.526   1.629  1.1970  0.4036  1.5256
  108SOL     MW  432   1.295   1.554   1.603  0.6476 -0.3101  0.2533
  109SOL     OW  433   1.960   0.770   0.172  0.1473 -0.1014 -0.3670
  109SOL    HW1  434   2.018   0.775   0.100 -1.0683 -2.5726 -0.5938
  109SOL    HW2  435   1.961   0.863   0.193 -0.1430 -0.0193  1.7762
  109SOL     MW  436   1.968   0.783   0.165 -0.0514 -0.4166 -0.1142
  110SOL     OW  437   0.417   1.900   0.771 -0.5493 -0.0947 -0.8575
  110SOL    HW1  438   0.476   1.843   0.722  0.4246  1.7364 -0.9874
  110SOL    HW2  439   0.432   1.990   0.734 -0.1266  0.6184 -2.5713
  110SOL     MW  440   0.427   1.905   0.760 -0.3650  0.2410 -1.1008
  111SOL     OW  441   0.857   0.934   1.553  0.5602  0.3518 -0.3108
  111SOL    HW1  442   0.828   0.943   1.459  0.3178  2.2738 -2.1256
  111SOL    HW2  443   0.849   0.837   1.575 -0.4155  0.5888  2.0615
  111SOL     MW  444   0.852   0.922   1.544  0.3994  0.6366 -0.2373
  112SOL     OW  445   1.336   1.096   1.613 -0.0431 -0.0134  0.2214
  112SOL    HW1  446   1.265   1.159   1.625  0.4640  2.9132  1.6883
  112SOL    HW2  447   1.295   1.014   1.641  0.1650 -0.1636 -0.1125
  112SOL     MW  448   1.321   1.093   1.618  0.0513  0.3529  0.3709
  113SOL     OW  449   1.295   0.048   1.735 -0.2201 -0.2470 -0.0217
  113SOL    HW1  450   1.315  -0.007   1.812  2.0092 -2.9324 -1.0616
  113SOL    HW2  451   1.291  -0.017   1.669 -2.5890  0.7719  0.2618
  113SOL     MW  452   1.297   0.032   1.737 -0.2385 -0.4669 -0.1215
  114SOL     OW  453   0.263   2.861   1.928 -0.3143  0.1883 -0.2231
  114SOL    HW1  454   0.296   2.942   1.965 -1.7052  0.2141  2.5685
  114SOL    HW2  455   0.299   2.873   1.836  1.0769 -1.4013  1.7693
  114SOL     MW  456   0.272   2.873   1.921 -0.3143 -0.0181  0.4081
  115SOL     OW  457   0.476   0.832   1.129  0.1194  0.5581 -0.3763
  115SOL    HW1  458   0.504   0.736   1.127  2.6141 -0.8571  1.4545
  115SOL    HW2  459   0.427   0.843   1.206 -1.4913 -2.4799 -2.6440
  115SOL     MW  460   0.473   0.821   1.139  0.2360 -0.0295 -0.4339
  116SOL     OW  461   0.790   1.060   0.952 -0.7057 -0.0345 -0.5156
  116SOL    HW1  462   0.803   1.121   0.878 -0.9068  2.5999  1.1205
  116SOL    HW2  463   0.830   1.108   1.021 -0.4538  2.4710 -0.5111
  116SOL     MW  464   0.797   1.074   0.951 -0.6990  0.6437 -0.2991
  117SOL     OW  465   1.134   1.185   0.753  0.9283  0.3656  0.2124
  117SOL    HW1  466   1.158   1.123   0.823  0.7320 -1.7753  0.2501
  117SOL    HW2  467   1.194   1.257   0.746  0.2096 -0.1750  0.4393
  117SOL     MW  468   1.145   1.186   0.762  0.8076  0.0118  0.2473
  118SOL     OW  469   3.026   2.972   1.756  0.5500  0.2325 -0.3363
  118SOL    HW1  470   3.056   3.060   1.782 -0.5131  1.4722  0.9632
  118SOL    HW2  471   2.931   2.979   1.745 -0.9093  1.9526  0.0154
  118SOL     MW  472   3.017   2.984   1.758  0.2172  0.6230 -0.1184
  119SOL     OW  473   0.474   1.443   1.241 -0.4124  0.7396  0.1351
  119SOL    HW1  474   0.496   1.456   1.148  3.7685  1.8824  0.9809
  119SOL    HW2  475   0.375   1.453   1.244 -1.9473 -2.7443  0.4641
  119SOL     MW  476   0.464   1.446   1.229 -0.0633  0.4307  0.2901
  120SOL     OW  477   0.261   0.709   0.983 -0.3820 -0.3463  0.2110
  120SOL    HW1  478   0.241   0.651   1.055  0.3356  0.5362  0.4282
  120SOL    HW2  479   0.324   0.769   1.017  0.9608 -1.0241 -2.0706
  120SOL     MW  480   0.267   0.710   0.997 -0.1102 -0.3193 -0.0614
  121SOL     OW  481   1.734   1.197   1.719 -0.0063  0.3761 -0.0099
  121SOL    HW1  482   1.656   1.164   1.760 -3.0009 -1.5942  0.8448
  121SOL    HW2  483   1.770   1.128   1.664  2.4469  1.5391  2.2469
  121SOL     MW  484   1.728   1.183   1.717 -0.0777  0.2696  0.4006
  122SOL     OW  485   0.113   0.537   0.791  0.3069  0.0586  0.4242
  122SOL    HW1  486   0.163   0.523   0.710  0.3922 -0.3372  0.5520
  122SOL    HW2  487   0.169   0.583   0.855 -0.1881 -2.0213 -1.8849
  122SOL     MW  488   0.127   0.541   0.789  0.2528 -0.2680  0.1364
  123SOL     OW  489   1.856   1.121   0.530  0.5585  0.3050 -0.2105
  123SOL    HW1  490   1.815   1.033   0.540 -0.8973 -2.0545 -2.1025
  123SOL    HW2  491   1.860   1.152   0.623 -0.0224  0.4666  1.0290
  123SOL     MW  492   1.851   1.113   0.544  0.2898  0.0150 -0.2966
  124SOL     OW  493   0.684   0.529   0.851 -0.1185  0.0563 -0.1820
  124SOL    HW1  494   0.604   0.500   0.795  1.8557  0.3725 -1.1420
  124SOL    HW2  495   0.682   0.626   0.841 -0.4314 -1.2713 -0.4443
  124SOL     MW  496   0.673   0.538   0.842  0.1007 -0.0771 -0.3433
  125SOL     OW  497   0.689   1.793   1.731 -0.1137  0.0981  0.0344
  125SOL    HW1  498   0.637   1.710   1.713  1.1284  0.9068  2.1695
  125SOL    HW2  499   0.622   1.855   1.723 -0.1123  0.5065  0.4566
  125SOL     MW  500   0.673   1.790   1.727  0.0504  0.2587  0.3718
  126SOL     OW  501   2.107   1.587   1.961 -0.4278 -0.4938 -0.6823
  126SOL    HW1  502   2.163   1.663   1.949 -1.1304 -0.3990  0.5718
  126SOL    HW2  503   2.167   1.516   1.946 -1.4339 -0.4776 -1.4627
  126SOL     MW  504   2.122   1.588   1.957 -0.6533 -0.4791 -0.6198
  127SOL     OW  505   0.718   0.781   1.848 -0.3755  0.0562 -0.2395
  127SOL    HW1  506   0.787   0.717   1.874  2.4948 -1.7110 -1.6045
  127SOL    HW2  507   0.729   0.851   1.918 -1.7861  0.9842  1.4105
  127SOL     MW  508   0.729   0.782   1.861 -0.1829 -0.0545 -0.2019
  128SOL     OW  509   1.779   0.733   2.939  0.6315  0.1802  0.2633
  128SOL    HW1  510   1.798   0.666   2.871 -2.0217 -1.3119  0.5538
  128SOL    HW2  511   1.754   0.814   2.887 -2.7549  2.2979  1.1856
  128SOL     MW  512   1.778   0.735   2.924 -0.1654  0.2628  0.4233
  129SOL     OW  513   1.629   0.953   0.214 -0.3250 -0.1448 -0.4319
  129SOL    HW1  514   1.603   0.869   0.191 -0.6727  0.8330  0.1874
  129SOL    HW2  515   1.664   0.949   0.302  0.9837 -2.6600  1.0191
  129SOL     MW  516   1.630   0.942   0.222 -0.1982 -0.3476 -0.1587
  130SOL     OW  517   0.746   1.338   0.366  0.2885  0.3321 -0.1548
  130SOL    HW1  518   0.788   1.404   0.422  0.5400  4.8704  1.1039
  130SOL    HW2  519   0.801   1.359   0.284  1.2121 -1.1684 -1.0015
  130SOL     MW  520   0.759   1.349   0.363  0.4435  0.7329 -0.1005
  131SOL     OW  521   3.037   0.805   3.082  0.2047  0.0793  0.1126
  131SOL    HW1  522   3.048   0.864   3.004 -1.7164  0.8367  0.9960
  131SOL    HW2  523   3.119   0.822   3.123  2.0530 -0.4988 -1.2203
  131SOL     MW  524   3.049   0.815   3.077  0.1951  0.1030  0.0533
  132SOL     OW  525   2.686   0.139   1.234  0.1162  0.0333  0.0033
  132SOL    HW1  526   2.692   0.130   1.136 -0.7511  1.4874  0.6153
  132SOL    HW2  527   2.588   0.129   1.248  1.1351 -1.4667 -2.2084
  132SOL     MW  528   2.674   0.136   1.223  0.1362  0.0272 -0.2077
  133SOL     OW  529   1.003   0.129   1.723 -0.3550 -0.2567 -0.0736
  133SOL    HW1  530   1.094   0.100   1.741  1.7274  3.0959 -1.4654
  133SOL    HW2  531   0.978   0.159   1.814  0.2211  0.5163  1.7559
  133SOL     MW  532   1.012   0.129   1.737 -0.0043  0.2877 -0.0158
  134SOL     OW  533   1.380   2.513   1.443 -0.2297  0.2571  0.5261
  134SOL    HW1  534   1.362   2.592   1.393 -0.2291  0.1556 -0.8167
  134SOL    HW2  535   1.419   2.560   1.521  2.4830 -0.6813  1.0818
  134SOL     MW  536   1.383   2.530   1.446  0.1283  0.1199  0.4223
  135SOL     OW  537   3.021   0.977   2.852 -0.0527  0.0859  0.6789
  135SOL    HW1  538   3.093   1.033   2.861 -0.8314 -5.6292 -2.3468
  135SOL    HW2  539   2.946   1.037   2.861  0.5804 -1.2167  0.7598
  135SOL     MW  540   3.020   0.992   2.855 -0.0719 -0.8400  0.2903
  136SOL     OW  541   0.193   2.041   0.873 -0.0120 -0.5400 -0.1229
  136SOL    HW1  542   0.107   1.998   0.849 -1.0748 -1.5811 -0.0268
  136SOL    HW2  543   0.255   2.000   0.813 -0.0425  2.9818  0.0002
  136SOL     MW  544   0.190   2.030   0.862 -0.1562 -0.2127 -0.0940
  137SOL     OW  545   0.696   2.064   0.537  0.1813 -0.1100  0.2457
  137SOL    HW1  546   0.734   2.075   0.623  0.7041 -1.3953  0.7857
  137SOL    HW2  547   0.612   2.093   0.557  4.7169 -0.4331 -0.6252
  137SOL     MW  548   0.690   2.069   0.551  0.8487 -0.3222  0.2021
  138SOL     OW  549   0.558   0.572   1.115  0.1110 -0.1667  0.6907
  138SOL    HW1  550   0.480   0.527   1.077 -0.7297 -0.5925 -1.5283
  138SOL    HW2  551   0.617   0.569   1.035  1.1153 -1.0870  1.0261
  138SOL     MW  552   0.555   0.566   1.099  0.1326 -0.3443  0.4422
  139SOL     OW  553   2.799   0.581   1.356 -0.1022  0.1011 -0.1351
  139SOL    HW1  554   2.839   0.496   1.377  1.3830 -0.3671  3.6134
  139SOL    HW2  555   2.827   0.647   1.423 -0.7061  0.1536 -1.9635
  139SOL     MW  556   2.808   0.579   1.368  0.0140  0.0463  0.1182
  140SOL     OW  557   0.821   0.394   2.098  0.3574 -0.0419 -0.2688
  140SOL    HW1  558   0.879   0.321   2.081 -2.2583  1.6104  0.0157
  140SOL    HW2  559   0.806   0.397   2.197  1.7841 -2.8874 -0.1236
  140SOL     MW  560   0.827   0.385   2.109  0.2005 -0.1993 -0.2121
  141SOL     OW  561   1.072   0.658   1.741 -0.3932  0.2974 -0.3339
  141SOL    HW1  562   1.113   0.580   1.704 -0.8653 -0.4724  0.8962
  141SOL    HW2  563   1.142   0.729   1.753  0.5783  1.3725 -0.8889
  141SOL     MW  564   1.087   0.657   1.738 -0.3273  0.3377 -0.2448
  142SOL     OW  565   0.868   1.192   0.723  0.4008  0.3348 -0.2080
  142SOL    HW1  566   0.845   1.136   0.644 -0.2420  2.0956 -0.9541
  142SOL    HW2  567   0.963   1.177   0.743  0.2337 -1.9268 -2.0995
  142SOL     MW  568   0.877   1.183   0.716  0.2939  0.2687 -0.5560
  143SOL     OW  569   1.780   0.756   1.109  1.1518 -0.1641 -0.6212
  143SOL    HW1  570   1.831   0.760   1.028 -0.0622  1.7426 -0.3214
  143SOL    HW2  571   1.702   0.708   1.086  1.6062  3.0332 -2.1706
  143SOL     MW  572   1.776   0.750   1.095  1.0515  0.5094 -0.7861
  144SOL     OW  573   0.221   1.162   1.582  0.2273  0.1805 -0.1756
  144SOL    HW1  574   0.297   1.222   1.575  1.8985 -1.2143 -0.2201
  144SOL    HW2  575   0.214   1.156   1.676 -2.4774 -0.2226  0.5812
  144SOL     MW  576   0.230   1.169   1.593  0.0910 -0.0567 -0.0816
  145SOL     OW  577   0.247   0.474   1.128 -0.5932  0.0312 -0.0692
  145SOL    HW1  578   0.289   0.419   1.185 -4.2444  2.3102 -0.7943
  145SOL    HW2  579   0.190   0.403   1.080  1.6609  1.2787 -0.2991
  145SOL     MW  580   0.245   0.457   1.129 -0.7775  0.4965 -0.1952
  146SOL     OW  581   0.834   1.927   1.328  0.6065 -0.1225 -0.2569
  146SOL    HW1  582   0.881   1.925   1.243  1.1746  0.7131  0.4480
  146SOL    HW2  583   0.740   1.925   1.324  0.2141  0.6437  2.9989
  146SOL     MW  584   0.827   1.927   1.316  0.6297  0.0889  0.2657
  147SOL     OW  585   0.368   0.412   2.980  1.1548  0.3136 -0.1620
  147SOL    HW1  586   0.319   0.409   3.062 -0.3022 -1.2566 -1.8800
  147SOL    HW2  587   0.321   0.476   2.925  0.5276  0.8154 -1.7859
  147SOL     MW  588   0.355   0.420   2.983  0.8798  0.1726 -0.6030
  148SOL     OW  589   0.147   0.838   1.268 -0.1358 -0.3254 -0.1173
  148SOL    HW1  590   0.237   0.858   1.277 -3.0011 -0.6131  1.1170
  148SOL    HW2  591   0.104   0.898   1.329  0.9266  0.4399 -2.1768
  148SOL     MW  592   0.153   0.848   1.277 -0.3737 -0.2624 -0.2262
  149SOL     OW  593   1.380   1.147   1.336 -0.2895 -0.9057 -0.1456
  149SOL    HW1  594   1.384   1.103   1.422 -2.2490 -1.3759  0.8006
  149SOL    HW2  595   1.438   1.224   1.340 -0.3058 -1.9130 -2.1934
  149SOL     MW  596   1.388   1.151   1.348 -0.5502 -1.1007 -0.2909
  150SOL     OW  597   1.848   1.407   0.745 -0.1454 -0.5984 -0.1085
  150SOL    HW1  598   1.895   1.341   0.792 -1.8131  0.0090  1.3130
  150SOL    HW2  599   1.876   1.487   0.799 -0.9375  0.0292 -1.5269
  150SOL     MW  600   1.858   1.409   0.759 -0.4699 -0.4355 -0.1081
  151SOL     OW  601   1.689   1.763   0.822  0.5479  0.3270 -0.4478
  151SOL    HW1  602   1.657   1.784   0.733 -2.2638 -1.4673  0.6814
  151SOL    HW2  603   1.613   1.707   0.848 -2.8224 -2.3582 -0.3701
  151SOL     MW  604   1.675   1.758   0.814 -0.2678 -0.2640 -0.2886
  152SOL     OW  605   0.745   1.425   1.495  0.2085 -0.3867 -0.3745
  152SOL    HW1  606   0.733   1.352   1.556 -0.6807  2.2815  3.4385
  152SOL    HW2  607   0.840   1.431   1.481 -0.4649 -3.5544 -0.8682
  152SOL     MW  608   0.756   1.416   1.501  0.0024 -0.4526  0.0634
  153SOL     OW  609   2.592   1.197   0.775  0.2865 -0.2467  0.4241
  153SOL    HW1  610   2.667   1.163   0.718 -0.1239  2.2093  1.2377
  153SOL    HW2  611   2.517   1.133   0.764 -1.3151 -0.1132 -1.6456
  153SOL     MW  612   2.592   1.184   0.766  0.0211  0.0949  0.2584
  154SOL     OW  613   0.304   1.813   1.717 -0.5890  0.2622 -0.5978
  154SOL    HW1  614   0.312   1.798   1.626 -2.1397  0.6814  1.1261
  154SOL    HW2  615   0.319   1.729   1.767 -2.0534 -2.5919 -0.2103
  154SOL     MW  616   0.307   1.800   1.712 -0.9868 -0.0591 -0.3192
  155SOL     OW  617   1.233   0.720   0.255  0.4644 -0.6246 -0.1704
  155SOL    HW1  618   1.219   0.676   0.335  3.3445 -0.2402  0.0135
  155SOL    HW2  619   1.189   0.810   0.271  0.9010  0.3467 -1.7869
  155SOL     MW  620   1.225   0.726   0.268  0.9020 -0.4457 -0.3594
  156SOL     OW  621   1.521   3.069   1.125 -0.2615  0.4966  0.5240
  156SOL    HW1  622   1.594   3.135   1.145 -1.3600  3.2695  0.0929
  156SOL    HW2  623   1.541   2.981   1.153 -1.8261 -0.2851  2.7510
  156SOL     MW  624   1.533   3.066   1.131 -0.6129  0.7593  0.7609
  157SOL     OW  625   1.440   1.146   0.099 -0.1602  0.8282 -0.1738
  157SOL    HW1  626   1.491   1.068   0.140  1.0178 -1.9612  0.8933
  157SOL    HW2  627   1.513   1.208   0.084  0.6639  1.1567  0.6966
  157SOL     MW  628   1.456   1.144   0.103  0.1040  0.5035  0.0818
  158SOL     OW  629   0.532   1.659   2.199  0.7515 -0.0112  0.4486
  158SOL    HW1  630   0.528   1.710   2.117  1.6734  1.6716 -0.2515
  158SOL    HW2  631   0.465   1.681   2.260  2.0320  0.7762 -1.3777
  158SOL     MW  632   0.522   1.668   2.196  1.0421  0.3147  0.1153
  159SOL     OW  633   1.286   1.693   0.422 -0.0856 -0.4737 -0.2302
  159SOL    HW1  634   1.248   1.611   0.385  0.7475 -0.6640 -1.7576
  159SOL    HW2  635   1.226   1.711   0.491 -1.8270 -1.2052 -0.8127
  159SOL     MW  636   1.273   1.684   0.426 -0.2054 -0.5953 -0.5086
  160SOL     OW  637   0.558   1.171   1.595  0.2025  0.0392 -0.0615
  160SOL    HW1  638   0.502   1.097   1.625 -2.4455 -0.2622 -1.6631
  160SOL    HW2  639   0.634   1.157   1.645  0.2740 -1.8586 -0.0471
  160SOL     MW  640   0.561   1.159   1.606 -0.1374 -0.2510 -0.2709
  161SOL     OW  641   0.464   2.191   2.575  0.0430  0.6420 -0.1122
  161SOL    HW1  642   0.374   2.224   2.553 -2.0919  1.2911  0.9933
  161SOL    HW2  643   0.499   2.146   2.501  1.5806 -2.3482  1.3692
  161SOL     MW  644   0.457   2.189   2.562 -0.0358  0.3331  0.2291
  162SOL     OW  645   1.070   1.789   1.852  0.1140  0.0884 -0.5461
  162SOL    HW1  646   1.069   1.873   1.900 -0.1493 -3.0640  0.5819
  162SOL    HW2  647   0.986   1.744   1.883  1.8648  1.2505  1.2250
  162SOL     MW  648   1.058   1.794   1.863  0.3102 -0.1742 -0.1636
  163SOL     OW  649   2.169   0.009   0.934  0.2896 -0.7059  0.1166
  163SOL    HW1  650   2.176   0.023   0.840  1.1901 -0.6071  1.5111
  163SOL    HW2  651   2.086  -0.037   0.962 -1.3847  1.2955 -2.3820
  163SOL     MW  652   2.159   0.005   0.925  0.1875 -0.4288 -0.0291
  164SOL     OW  653   0.366   0.203   0.883 -0.4070 -0.5687  0.0008
  164SOL    HW1  654   0.278   0.227   0.894 -0.6795 -0.0936  0.4377
  164SOL    HW2  655   0.367   0.134   0.817  1.3108  1.1917  0.5658
  164SOL     MW  656   0.354   0.197   0.876 -0.2163 -0.2738  0.1330
  165SOL     OW  657   1.345   1.255   0.345 -0.1290  0.5485 -0.7446
  165SOL    HW1  658   1.316   1.188   0.408  0.1861 -0.7418 -0.8938
  165SOL    HW2  659   1.380   1.199   0.271 -0.1116 -2.8284  2.1584
  165SOL     MW  660   1.346   1.239   0.344 -0.0852 -0.0673 -0.3812
  166SOL     OW  661   0.543   1.146   1.020  0.1718  0.5614  0.3703
  166SOL    HW1  662   0.535   1.123   1.116  0.1176 -2.3123  1.2324
  166SOL    HW2  663   0.634   1.118   1.008  1.4253  0.0537  3.4984
  166SOL     MW  664   0.554   1.139   1.031  0.3301  0.1153  0.8967
  167SOL     OW  665   0.768   1.011   0.259  0.5753 -0.1385  0.0200
  167SOL    HW1  666   0.683   1.062   0.275  3.1903  0.9106  0.8258
  167SOL    HW2  667   0.830   1.061   0.210 -2.5459 -2.8523 -1.1147
  167SOL     MW  668   0.765   1.025   0.255  0.5085 -0.3581 -0.0234
  168SOL     OW  669   1.703   1.667   3.000  0.7366  0.2911  0.3754
  168SOL    HW1  670   1.611   1.688   3.001  0.0972 -1.5287  3.4917
  168SOL    HW2  671   1.715   1.572   2.989  2.6565 -3.8950 -1.2631
  168SOL     MW  672   1.693   1.657   2.999  0.9055 -0.5013  0.5704
  169SOL     OW  673   0.401   0.898   1.383  0.3817  0.3915 -0.5227
  169SOL    HW1  674   0.401   0.859   1.475  0.5267 -1.2900  0.0054
  169SOL    HW2  675   0.448   0.981   1.401 -0.3984  0.3642  1.2980
  169SOL     MW  676   0.407   0.904   1.398  0.2979  0.1660 -0.2128
  170SOL     OW  677   1.004   1.487   1.500  0.0954  0.7163 -0.0095
  170SOL    HW1  678   0.985   1.577   1.536 -0.6768  1.8577 -1.1525
  170SOL    HW2  679   1.053   1.504   1.416 -3.4001  3.5015  0.6935
  170SOL     MW  680   1.008   1.501   1.494 -0.4677  1.2343 -0.0676
  171SOL     OW  681   0.556   1.446   0.697 -0.4753  0.2531 -0.4522
  171SOL    HW1  682   0.519   1.449   0.780  3.0511  1.5052 -0.0180
  171SOL    HW2  683   0.534   1.362   0.652  0.1764 -0.6222  0.5075
  171SOL     MW  684   0.548   1.435   0.702  0.0760  0.3028 -0.2683
  172SOL     OW  685   0.850   0.342   1.287  0.4519  0.2706  0.1071
  172SOL    HW1  686   0.848   0.363   1.193  0.9000 -1.4650 -1.6000
  172SOL    HW2  687   0.767   0.389   1.322  0.6055 -0.2987 -0.1820
  172SOL     MW  688   0.839   0.351   1.279  0.5312 -0.0335 -0.1563
  173SOL     OW  689   0.455   1.725   0.369  0.3937 -0.0836 -0.1252
  173SOL    HW1  690   0.500   1.646   0.343 -1.6152 -1.8004  0.0052
  173SOL    HW2  691   0.477   1.740   0.458 -2.8876 -1.2640 -0.8561
  173SOL     MW  692   0.464   1.717   0.377 -0.3043 -0.4658 -0.2044
  174SOL     OW  693   1.844   1.001   1.569 -0.8417  0.0605 -0.1334
  174SOL    HW1  694   1.816   0.907   1.587 -1.7992 -1.4001  1.0892
  174SOL    HW2  695   1.797   1.020   1.490 -1.5196 -1.4550  1.3600
  174SOL     MW  696   1.834   0.991   1.561 -1.0575 -0.3321  0.2250
  175SOL     OW  697   0.507   1.468   0.289  0.4280  0.6327 -0.4291
  175SOL    HW1  698   0.453   1.394   0.242  0.7688  0.3612 -1.8785
  175SOL    HW2  699   0.587   1.428   0.318  0.2984  0.8492 -0.3689
  175SOL     MW  700   0.510   1.453   0.287  0.4559  0.6254 -0.6124
  176SOL     OW  701   0.185   1.464   1.213 -0.3776  0.0689 -0.0515
  176SOL    HW1  702   0.170   1.402   1.138 -2.5597  1.3593 -2.7600
  176SOL    HW2  703   0.112   1.463   1.271 -2.3846 -2.2418  0.7609
  176SOL     MW  704   0.173   1.456   1.211 -0.9303 -0.0657 -0.3017
  177SOL     OW  705   0.608   0.439   1.361  0.1213  0.6687  0.3205
  177SOL    HW1  706   0.614   0.506   1.289 -0.7938  0.1774  3.9324
  177SOL    HW2  707   0.595   0.492   1.445  2.9532  0.5148  1.6828
  177SOL     MW  708   0.607   0.455   1.362  0.3742  0.5836  0.9768
  178SOL     OW  709   3.102   0.448   2.947 -0.8356  0.7498 -0.4183
  178SOL    HW1  710   3.033   0.469   3.011  1.1844  0.6402  2.3029
  178SOL    HW2  711   3.063   0.426   2.864  0.0038 -2.8736  0.0201
  178SOL     MW  712   3.087   0.448   2.944 -0.4583  0.2573 -0.0014
  179SOL     OW  713   1.574   1.324   1.384  0.9691  0.4624 -0.7153
  179SOL    HW1  714   1.545   1.345   1.478  0.3547  2.7198 -0.3604
  179SOL    HW2  715   1.665   1.358   1.381 -0.3087  0.6569 -1.8339
  179SOL     MW  716   1.582   1.331   1.396  0.7195  0.7859 -0.8160
  180SOL     OW  717   3.071   0.183   0.441  0.3981 -0.1457  0.1669
  180SOL    HW1  718   3.003   0.198   0.373  1.5059  1.5473 -3.5116
  180SOL    HW2  719   3.119   0.264   0.421 -1.0241 -0.1345 -0.4838
  180SOL     MW  720   3.068   0.195   0.429  0.3566  0.0792 -0.4043
  181SOL     OW  721   1.114   1.360   3.087 -0.0330 -0.6853  0.0328
  181SOL    HW1  722   1.175   1.427   3.127  2.3361  1.9057  1.3069
  181SOL    HW2  723   1.183   1.295   3.060  3.1231  0.7941  1.2894
  181SOL     MW  724   1.131   1.361   3.089  0.6960 -0.1482  0.3667
  182SOL     OW  725   0.463   0.868   1.656 -0.5483 -0.2381  0.2740
  182SOL    HW1  726   0.387   0.875   1.714  0.5291  2.2926  0.8868
  182SOL    HW2  727   0.524   0.793   1.677 -0.0247  0.1923 -0.7969
  182SOL     MW  728   0.461   0.859   1.666 -0.3370  0.1526  0.2136
  183SOL     OW  729   1.572   1.519   1.176  0.1317 -0.7782 -0.2713
  183SOL    HW1  730   1.588   1.597   1.229  0.8097  0.0283 -0.6505
  183SOL    HW2  731   1.568   1.449   1.240 -0.0069  2.8222 -1.6254
  183SOL     MW  732   1.574   1.520   1.191  0.2029 -0.1968 -0.5000
  184SOL     OW  733   0.925   0.638   1.964  0.1230  0.0139 -0.1682
  184SOL    HW1  734   0.991   0.642   1.895 -0.7198 -2.5414  1.0217
  184SOL    HW2  735   0.919   0.551   2.000  2.3316  1.5410  1.7031
  184SOL     MW  736   0.933   0.627   1.960  0.3032 -0.1218  0.2357
  185SOL     OW  737   1.262   1.032   1.898  0.0123 -0.0705  0.1910
  185SOL    HW1  738   1.286   0.965   1.969  0.8199 -2.2387 -0.1872
  185SOL    HW2  739   1.249   1.116   1.950  0.9778  3.4590  0.7089
  185SOL     MW  740   1.264   1.034   1.914  0.2463  0.1091  0.2094
  186SOL     OW  741   0.368   1.673   1.429  0.4896  0.6965 -0.1097
  186SOL    HW1  742   0.418   1.630   1.360 -2.9158 -2.2915  1.2118
  186SOL    HW2  743   0.276   1.644   1.418  0.2168  0.0724  0.5890
  186SOL     MW  744   0.363   1.663   1.419  0.0043  0.2200  0.1569
  187SOL     OW  745   1.441   0.715   1.406  0.1870 -0.4627 -0.1540
  187SOL    HW1  746   1.449   0.707   1.500 -0.5888  0.4805 -0.0493
  187SOL    HW2  747   1.354   0.688   1.386  1.3652 -0.6841  0.8533
  187SOL     MW  748   1.431   0.711   1.415  0.2401 -0.3675 -0.0073
  188SOL     OW  749   1.912   1.155   0.860 -0.3896 -0.0445  0.7515
  188SOL    HW1  750   1.930   1.162   0.959 -0.3090 -1.4862 -0.1471
  188SOL    HW2  751   1.959   1.070   0.842  2.8713  1.1489  0.2380
  188SOL     MW  752   1.920   1.144   0.871  0.0513 -0.0773  0.5652
  189SOL     OW  753   0.677   0.802   0.861 -0.3681  0.4408  0.0103
  189SOL    HW1  754   0.591   0.849   0.866  0.0421  3.5547  1.9554
  189SOL    HW2  755   0.740   0.856   0.903 -1.9236  2.3076 -0.6064
  189SOL     MW  756   0.674   0.815   0.867 -0.5192  1.0980  0.1856
  190SOL     OW  757   1.847   0.269   2.078  0.0248 -0.2320  0.4957
  190SOL    HW1  758   1.878   0.179   2.091  0.6756 -0.4739  4.7157
  190SOL    HW2  759   1.925   0.318   2.047  0.1043 -0.3386  0.7203
  190SOL     MW  760   1.861   0.263   2.075  0.1212 -0.2780  1.0821
  191SOL     OW  761   1.496   0.910   1.231  0.3182  0.4966  0.0037
  191SOL    HW1  762   1.459   0.983   1.279  0.7925 -1.1823  0.7763
  191SOL    HW2  763   1.477   0.837   1.294 -0.2746  1.9880  1.9232
  191SOL     MW  764   1.489   0.910   1.245  0.3026  0.4719  0.3589
  192SOL     OW  765   0.598   2.084   2.794  0.6682  0.4900  0.7296
  192SOL    HW1  766   0.556   2.130   2.717 -1.3441  2.5292  0.0093
  192SOL    HW2  767   0.583   1.991   2.784  1.5349 -0.8411 -1.2534
  192SOL     MW  768   0.591   2.078   2.783  0.5171  0.5834  0.3730
  193SOL     OW  769   1.014   1.565   0.772 -0.8706  0.1196 -0.1784
  193SOL    HW1  770   0.971   1.574   0.852  0.6876  1.0518 -4.2493
  193SOL    HW2  771   0.944   1.520   0.720 -1.9182  1.0885 -0.0146
  193SOL     MW  772   0.999   1.561   0.776 -0.8032  0.3705 -0.6939
  194SOL     OW  773   0.487   1.403   0.947  0.5837  0.5026 -0.2676
  194SOL    HW1  774   0.507   1.310   0.969  3.7783  0.1474  0.0725
  194SOL    HW2  775   0.390   1.404   0.929 -2.4083 -2.1954  0.7812
  194SOL     MW  776   0.476   1.391   0.947  0.6104  0.0998 -0.0844
  195SOL     OW  777   1.260   1.124   2.988  0.6029  0.3777 -0.4429
  195SOL    HW1  778   1.322   1.113   3.066 -1.4080 -0.4871 -1.7973
  195SOL    HW2  779   1.191   1.045   2.988 -2.3551 -0.7699 -0.5159
  195SOL     MW  780   1.259   1.112   2.999 -0.0527  0.1122 -0.6312
  196SOL     OW  781   2.192   1.017   0.583  0.3022 -0.1490  0.0403
  196SOL    HW1  782   2.148   0.986   0.501 -0.5348  0.9716 -2.8564
  196SOL    HW2  783   2.177   1.113   0.581 -0.1309  0.7448 -3.2763
  196SOL     MW  784   2.184   1.025   0.572  0.1346  0.1168 -0.7795
  197SOL     OW  785   0.706   1.245   2.059 -0.3867 -0.8333  0.4747
  197SOL    HW1  786   0.668   1.157   2.046  0.8596 -0.1037 -0.8596
  197SOL    HW2  787   0.670   1.287   1.985  0.2454  1.5043 -1.8708
  197SOL     MW  788   0.696   1.239   2.047 -0.1389 -0.4286 -0.0108
  198SOL     OW  789   2.980   1.352   1.110 -0.7626  0.0764  0.4951
  198SOL    HW1  790   2.968   1.446   1.085  0.9512  3.1574 -0.4771
  198SOL    HW2  791   2.911   1.299   1.065  0.8271 -0.0769  1.9390
  198SOL     MW  792   2.969   1.357   1.100 -0.3267  0.4627  0.5574
  199SOL     OW  793   0.515   1.362   1.881  0.4554  0.3461  0.1100
  199SOL    HW1  794   0.440   1.301   1.867  0.6426  1.6180  3.2955
  199SOL    HW2  795   0.545   1.395   1.797 -1.7496 -2.1355  1.4310
  199SOL     MW  796   0.509   1.358   1.868  0.1891  0.1865  0.7046
  200SOL     OW  797   1.858   3.053   1.286 -0.0256 -0.2660  0.1851
  200SOL    HW1  798   1.862   3.017   1.193  1.5525  1.7463  0.5734
  200SOL    HW2  799   1.767   3.091   1.303 -0.4678 -2.5216  1.5848
  200SOL     MW  800   1.847   3.054   1.276  0.1243 -0.2981  0.4210
  201SOL     OW  801   0.995   0.206   0.860  0.3984 -0.1788  0.1131
  201SOL    HW1  802   0.974   0.146   0.783  0.4502 -0.6350 -0.8997
  201SOL    HW2  803   1.069   0.264   0.829  2.3970  1.8951 -0.6818
  201SOL     MW  804   1.002   0.206   0.846  0.6689  0.0347 -0.1254
  202SOL     OW  805   1.520   1.562   0.907 -0.1915 -0.0889 -0.2285
  202SOL    HW1  806   1.537   1.471   0.874  2.0824 -2.1247 -1.7578
  202SOL    HW2  807   1.551   1.548   0.997  0.1139 -2.8980 -0.6267
  202SOL     MW  808   1.527   1.548   0.915  0.1488 -0.7281 -0.4828
  203SOL     OW  809   3.055   0.489   1.269  0.2376 -0.3651  0.5359
  203SOL    HW1  810   3.145   0.489   1.236 -3.7029 -0.7291  0.3217
  203SOL    HW2  811   3.058   0.533   1.355 -2.7669  0.1339 -0.6983
  203SOL     MW  812   3.067   0.495   1.276 -0.6787 -0.3473  0.3448
  204SOL     OW  813   1.061   1.751   0.582  0.0194  0.0692 -0.4199
  204SOL    HW1  814   1.045   1.692   0.659 -0.4579  1.1154 -4.5115
  204SOL    HW2  815   1.009   1.723   0.507 -0.1045 -0.2964 -0.6728
  204SOL     MW  816   1.052   1.739   0.582 -0.0599  0.1590 -0.9931
  205SOL     OW  817   1.363   0.092   1.352 -0.0235 -0.7802  0.1553
  205SOL    HW1  818   1.328   0.047   1.276 -1.4635 -1.7499  2.4759
  205SOL    HW2  819   1.367   0.184   1.329  1.9016  0.0359 -0.5656
  205SOL     MW  820   1.359   0.098   1.339  0.0405 -0.8004  0.3663
  206SOL     OW  821   0.395   3.013   1.428  0.7605 -0.2438  0.7084
  206SOL    HW1  822   0.360   3.030   1.333 -1.0662  1.6245 -1.0860
  206SOL    HW2  823   0.467   2.959   1.412 -0.9503  2.4139 -1.9460
  206SOL     MW  824   0.399   3.008   1.414  0.2937  0.3534  0.1214
  207SOL     OW  825   0.913   1.511   0.185  0.0110  0.5862  0.0234
  207SOL    HW1  826   0.916   1.611   0.183  1.4231  2.4011 -0.5450
  207SOL    HW2  827   0.999   1.481   0.207 -1.2760  0.4503  2.9690
  207SOL     MW  828   0.925   1.520   0.188  0.0275  0.8078  0.3370
  208SOL     OW  829   0.697   1.647   1.347  0.0565  0.2375  0.5865
  208SOL    HW1  830   0.785   1.676   1.365 -0.2365 -0.0606  1.0418
  208SOL    HW2  831   0.699   1.561   1.395 -0.4112  1.0561  0.5780
  208SOL     MW  832   0.709   1.639   1.356 -0.0439  0.3062  0.6454
  209SOL     OW  833   1.561   0.517   2.986 -0.6087 -0.3373  0.3836
  209SOL    HW1  834   1.614   0.593   2.984 -0.2859 -2.5975  2.3046
  209SOL    HW2  835   1.620   0.449   2.962 -0.6874 -0.7307  0.9765
  209SOL     MW  836   1.576   0.518   2.983 -0.5765 -0.6874  0.7153
  210SOL     OW  837   1.597   1.321   0.782 -0.1012 -0.1001  0.0507
  210SOL    HW1  838   1.696   1.335   0.772  1.2091 -2.0175 -0.4516
  210SOL    HW2  839   1.556   1.341   0.696 -0.7634 -1.1553  1.5112
  210SOL     MW  840   1.605   1.325   0.770 -0.0157 -0.4923  0.1771
  211SOL     OW  841   1.651   0.369   0.971 -0.3047 -0.2240 -0.0821
  211SOL    HW1  842   1.630   0.388   0.880 -0.0988  0.8111 -2.0476
  211SOL    HW2  843   1.748   0.371   0.979 -1.1279  0.7957 -1.3671
  211SOL     MW  844   1.661   0.372   0.960 -0.3861  0.0471 -0.5110
  212SOL     OW  845   0.231   1.050   0.111  0.1843 -0.5813 -0.0070
  212SOL    HW1  846   0.165   1.040   0.182 -0.6455  0.0314  0.7798
  212SOL    HW2  847   0.255   0.966   0.077  2.2874  2.1067  1.0368
  212SOL     MW  848   0.225   1.038   0.116  0.3523 -0.1458  0.2345
  213SOL     OW  849   0.509   1.742   3.033  0.6108 -0.5624 -0.1388
  213SOL    HW1  850   0.515   1.790   3.115 -0.6226  3.0699  0.4382
  213SOL    HW2  851   0.542   1.801   2.960  0.9873  1.0842  1.1056
  213SOL     MW  852   0.514   1.756   3.034  0.4977  0.1341  0.1015
  214SOL     OW  853   0.553   0.278   2.261 -0.0791  0.2717 -0.1622
  214SOL    HW1  854   0.492   0.358   2.255 -0.4564 -0.0505 -1.6322
  214SOL    HW2  855   0.613   0.296   2.188  3.3060 -0.2103 -0.3508
  214SOL     MW  856   0.553   0.291   2.250  0.3178  0.1656 -0.3810
  215SOL     OW  857   0.530   0.688   2.653 -0.1645  0.0955 -0.1802
  215SOL    HW1  858   0.531   0.657   2.565 -1.4518  1.7114 -1.0388
  215SOL    HW2  859   0.445   0.647   2.674 -0.4569  2.4496  0.2603
  215SOL     MW  860   0.519   0.679   2.644 -0.3729  0.6193 -0.2353
  216SOL     OW  861   2.898   3.068   2.634  0.0243  0.1619 -0.0859
  216SOL    HW1  862   2.832   3.048   2.709 -1.5987 -0.0671 -1.2353
  216SOL    HW2  863   2.916   3.163   2.631 -2.3268 -2.4723  1.5323
  216SOL     MW  864   2.891   3.078   2.643 -0.5000 -0.2159 -0.0240
  217SOL     OW  865   0.946   1.115   0.053  0.0348 -0.5886  0.1370
  217SOL    HW1  866   1.001   1.041   0.016  1.0006 -0.7064  0.1007
  217SOL    HW2  867   1.000   1.190   0.074 -1.2257  0.2755  1.9546
  217SOL     MW  868   0.960   1.115   0.051 -0.0041 -0.4901  0.3720
  218SOL     OW  869   0.954   1.343   2.514 -0.1983 -0.5031  0.5857
  218SOL    HW1  870   0.971   1.255   2.546  2.8970 -0.5616 -3.2554
  218SOL    HW2  871   1.014   1.403   2.557  0.8543 -1.5070 -1.1428
  218SOL     MW  872   0.964   1.339   2.524  0.3490 -0.6433 -0.1491
  219SOL     OW  873   1.104   0.466   2.644  0.0583 -0.2909 -0.0773
  219SOL    HW1  874   1.150   0.540   2.676  1.5156 -0.5778 -1.1447
  219SOL    HW2  875   1.027   0.514   2.617 -2.4850 -1.6492  1.7366
  219SOL     MW  876   1.100   0.482   2.645 -0.0850 -0.5079  0.0212
  220SOL     OW  877   1.762   0.497   2.240 -0.1076  0.4363  0.0574
  220SOL    HW1  878   1.685   0.543   2.193  0.2894  1.4335 -2.4164
  220SOL    HW2  879   1.776   0.411   2.188 -1.4702 -0.6875 -1.2424
  220SOL     MW  880   1.753   0.492   2.227 -0.2350  0.4196 -0.4405
  221SOL     OW  881   0.393   1.360   2.951  0.6174  0.1871 -0.6206
  221SOL    HW1  882   0.435   1.280   2.919 -3.8736  1.6963  0.3109
  221SOL    HW2  883   0.415   1.431   2.892 -1.1734 -0.7276 -0.1051
  221SOL     MW  884   0.401   1.359   2.939 -0.2114  0.2655 -0.4297
  222SOL     OW  885   0.391   0.945   2.659 -0.4145 -0.2799 -0.4997
  222SOL    HW1  886   0.344   0.996   2.584  0.3868  0.3680  0.9537
  222SOL    HW2  887   0.452   0.885   2.624 -0.2884 -0.7234 -1.2811
  222SOL     MW  888   0.393   0.944   2.644 -0.2922 -0.2529 -0.4110
  223SOL     OW  889   0.006   2.036   2.560 -0.2867  0.0003 -0.4800
  223SOL    HW1  890   0.057   1.975   2.619  1.2475  0.5915 -0.0289
  223SOL    HW2  891   0.070   2.109   2.542  1.2426 -0.3810 -0.7134
  223SOL     MW  892   0.021   2.038   2.565  0.1175  0.0280 -0.4513
  224SOL     OW  893   1.523   0.811   2.618 -0.5497 -0.1480  0.5730
  224SOL    HW1  894   1.480   0.860   2.689  0.9079  0.0871 -1.2627
  224SOL    HW2  895   1.557   0.882   2.566  0.1396  2.2192 -0.5525
  224SOL     MW  896   1.522   0.826   2.621 -0.2664  0.1953  0.1823
  225SOL     OW  897   2.942   1.448   2.308 -0.7255 -0.2273 -0.0893
  225SOL    HW1  898   3.011   1.516   2.277  0.5222 -1.6348 -1.4623
  225SOL    HW2  899   2.879   1.506   2.350 -2.1989  0.2387  1.4474
  225SOL     MW  900   2.943   1.465   2.310 -0.7553 -0.3515 -0.0677
  226SOL     OW  901   0.477   1.452   2.697  0.3458  0.1523  0.4286
  226SOL    HW1  902   0.562   1.459   2.646 -2.2757 -1.3578 -1.3388
  226SOL    HW2  903   0.442   1.541   2.685  1.0537 -0.6978 -1.6842
  226SOL     MW  904   0.483   1.465   2.689  0.0933 -0.1591 -0.0834
  227SOL     OW  905   0.472   1.104   2.868  0.3033  0.3490 -0.2728
  227SOL    HW1  906   0.547   1.120   2.810  0.8842 -0.2167 -2.8123
  227SOL    HW2  907   0.423   1.040   2.816  1.3716 -0.5964 -2.0424
  227SOL     MW  908   0.476   1.098   2.854  0.5209  0.1496 -0.8413
  228SOL     OW  909   0.705   0.957   2.059 -0.0267  0.0978 -0.3171
  228SOL    HW1  910   0.793   0.998   2.046 -2.2642  1.7955  0.3265
  228SOL    HW2  911   0.700   0.911   2.151  0.0792  0.2614  1.9031
  228SOL     MW  912   0.716   0.956   2.070 -0.3079  0.3434  0.0608
  229SOL     OW  913   0.184   0.591   0.031  0.2195  0.6226 -0.0613
  229SOL    HW1  914   0.110   0.569  -0.031 -0.7500 -1.4339  2.3410
  229SOL    HW2  915   0.193   0.513   0.087 -0.7236  1.0846  0.6480
  229SOL     MW  916   0.175   0.578   0.030 -0.0328  0.4122  0.3493
  230SOL     OW  917   1.746   1.365   2.030 -0.3704 -0.5033 -0.1877
  230SOL    HW1  918   1.691   1.346   2.105 -0.7828  0.7210 -1.2146
  230SOL    HW2  919   1.776   1.278   1.994  0.7044 -0.3536 -0.9805
  230SOL     MW  920   1.743   1.351   2.035 -0.2830 -0.3220 -0.4278
  231SOL     OW  921   2.740   1.278   2.199 -0.0415 -0.5024  0.1117
  231SOL    HW1  922   2.809   1.337   2.220  1.9847 -2.0198 -1.3361
  231SOL    HW2  923   2.718   1.309   2.115 -0.1203 -4.6673  2.2304
  231SOL     MW  924   2.747   1.290   2.190  0.2154 -1.2521  0.2002
  232SOL     OW  925   2.291   0.825   2.043  0.2094 -0.3456 -0.3019
  232SOL    HW1  926   2.210   0.852   1.999  3.6701  1.6478 -0.2431
  232SOL    HW2  927   2.257   0.804   2.133 -1.0530 -0.9748 -1.2029
  232SOL     MW  928   2.276   0.826   2.049  0.4994 -0.1656 -0.4130
  233SOL     OW  929   2.071   0.465   1.985  0.1729 -0.0347  1.0793
  233SOL    HW1  930   2.131   0.388   1.979  1.6898 -1.3782  1.8744
  233SOL    HW2  931   2.080   0.512   2.072 -2.7854 -0.1432  2.4218
  233SOL     MW  932   2.080   0.461   1.996 -0.0173 -0.2263  1.3613
  234SOL     OW  933   0.280   1.064   2.437  0.3825  0.5608 -0.1187
  234SOL    HW1  934   0.184   1.066   2.416 -1.6389  0.6512  0.6536
  234SOL    HW2  935   0.318   1.153   2.444 -0.3032 -0.7582 -1.2781
  234SOL     MW  936   0.272   1.076   2.436  0.0253  0.3987 -0.1697
  235SOL     OW  937   1.124   3.058   2.713 -0.5615  0.6129  0.0655
  235SOL    HW1  938   1.142   3.002   2.788 -0.5957 -0.3469 -2.4252
  235SOL    HW2  939   1.095   3.138   2.760 -2.9599  0.3142 -2.6060
  235SOL     MW  940   1.122   3.061   2.729 -0.8825  0.4469 -0.6156
  236SOL     OW  941   2.917   0.561   0.014  0.1619  0.4638  0.4278
  236SOL    HW1  942   2.827   0.581   0.046 -2.1862 -1.8809  1.7284
  236SOL    HW2  943   2.968   0.641   0.014 -1.5007 -0.1311 -2.3342
  236SOL     MW  944   2.912   0.574   0.018 -0.3673  0.0759  0.2350
  237SOL     OW  945   2.012   1.099   2.189  0.1199 -0.0636 -0.4924
  237SOL    HW1  946   1.943   1.151   2.140 -0.9547 -2.6567 -0.1652
  237SOL    HW2  947   2.013   1.011   2.153 -0.7019 -0.3046  0.9706
  237SOL     MW  948   2.003   1.095   2.177 -0.1303 -0.4375 -0.2562
  238SOL     OW  949   1.062   1.810   2.995 -0.0648  0.1439 -0.6371
  238SOL    HW1  950   1.028   1.730   2.958  0.4298 -1.5744 -0.5290
  238SOL    HW2  951   1.150   1.798   3.033 -2.6005  0.8306 -2.1366
  238SOL     MW  952   1.069   1.798   2.995 -0.3341  0.0078 -0.8207
  239SOL     OW  953   1.244   1.355   2.357  0.0718  0.0957  0.1226
  239SOL    HW1  954   1.195   1.408   2.417  1.1614  2.2958 -0.8371
  239SOL    HW2  955   1.275   1.277   2.412 -0.3875 -0.7580  2.5619
  239SOL     MW  956   1.242   1.352   2.372  0.1550  0.2733  0.3178
  240SOL     OW  957   0.723   0.808   2.284 -0.1627  0.4557 -0.2839
  240SOL    HW1  958   0.722   0.853   2.365  1.1190 -0.1101 -1.7252
  240SOL    HW2  959   0.811   0.770   2.272  0.2071  2.7540  1.2642
  240SOL     MW  960   0.735   0.809   2.293  0.0552  0.6843 -0.2698
  241SOL     OW  961   0.641   0.372   3.094  0.0896  0.3000  0.0543
  241SOL    HW1  962   0.680   0.436   3.157 -1.4643 -2.8207  3.3716
  241SOL    HW2  963   0.557   0.404   3.064 -0.8637  1.3263 -0.9069
  241SOL     MW  964   0.635   0.385   3.098 -0.2412  0.0237  0.3652
  242SOL     OW  965   1.507   1.679   2.343  0.5351 -0.4154 -0.2459
  242SOL    HW1  966   1.478   1.771   2.354 -1.8882  3.0094 -0.0789
  242SOL    HW2  967   1.440   1.636   2.297 -1.4950  0.0424  3.4228
  242SOL     MW  968   1.495   1.686   2.338 -0.0524  0.0969  0.2602
  243SOL     OW  969   1.034   0.239   2.488 -0.2943 -0.2112  0.0427
  243SOL    HW1  970   1.109   0.240   2.421  0.1632 -0.0058 -0.9098
  243SOL    HW2  971   1.069   0.308   2.550 -0.2789  1.0010  0.6999
  243SOL     MW  972   1.049   0.248   2.487 -0.2319 -0.0242  0.0037
  244SOL     OW  973   0.269   0.767   2.395  0.7443  0.0964  0.5694
  244SOL    HW1  974   0.276   0.863   2.388 -0.5716  1.6913  0.6333
  244SOL    HW2  975   0.358   0.739   2.396  1.1417  1.8042  1.8126
  244SOL     MW  976   0.281   0.776   2.395  0.6231  0.5322  0.7419
  245SOL     OW  977   1.279   0.229   2.323 -0.1974  0.4867  0.4373
  245SOL    HW1  978   1.317   0.143   2.333  0.3777 -0.6264 -2.9923
  245SOL    HW2  979   1.325   0.301   2.373 -1.4794 -2.0333 -0.5275
  245SOL     MW  980   1.290   0.227   2.331 -0.2907  0.0074 -0.1425
  246SOL     OW  981   1.206   1.190   2.142  0.1457  0.0925 -0.0381
  246SOL    HW1  982   1.171   1.101   2.169 -1.3653  2.0327 -2.0278
  246SOL    HW2  983   1.205   1.245   2.215  2.2030  1.9465  0.6760
  246SOL     MW  984   1.201   1.186   2.155  0.2178  0.5931 -0.2064
  247SOL     OW  985   0.744   0.560   0.181 -0.1778 -0.2353  0.2139
  247SOL    HW1  986   0.693   0.628   0.145  2.2949 -0.3669  3.4682
  247SOL    HW2  987   0.834   0.592   0.157  0.6940  1.3905  1.2737
  247SOL     MW  988   0.750   0.573   0.173  0.2635 -0.0382  0.7831
  248SOL     OW  989   0.419   1.296   2.473 -1.0197  0.5982 -0.1165
  248SOL    HW1  990   0.442   1.327   2.383  1.1369  0.7489  0.6423
  248SOL    HW2  991   0.437   1.362   2.541 -3.1699  3.6118 -0.6073
  248SOL     MW  992   0.424   1.309   2.470 -1.0188  1.0157 -0.0811
  249SOL     OW  993   0.167   1.885   2.724  0.4760  0.3034  0.6105
  249SOL    HW1  994   0.119   1.812   2.678 -0.0573 -1.6332  0.7221
  249SOL    HW2  995   0.188   1.845   2.819  2.0693  1.3035  2.4023
  249SOL     MW  996   0.164   1.870   2.730  0.6159  0.1798  0.8616
  250SOL     OW  997   2.190   0.912   2.313 -0.2500  0.0586 -0.4634
  250SOL    HW1  998   2.247   0.843   2.358  0.9347  0.0922 -1.4310
  250SOL    HW2  999   2.227   0.993   2.351  0.0251 -1.8937 -0.8746
  250SOL     MW 1000   2.203   0.914   2.324 -0.0574 -0.1946 -0.6453
  251SOL     OW 1001   0.159   0.865   1.971  0.6693  0.3880 -0.8428
  251SOL    HW1 1002   0.099   0.796   1.982  0.6038 -0.6442  0.2682
  251SOL    HW2 1003   0.155   0.857   1.870 -2.2605  2.9805 -0.9597
  251SOL     MW 1004   0.151   0.855   1.959  0.2741  0.5939 -0.7116
  252SOL     OW 1005   1.721   0.975   2.848  0.1510  0.0693 -0.2587
  252SOL    HW1 1006   1.735   1.025   2.937  0.6208  1.4828 -0.0071
  252SOL    HW2 1007   1.793   1.004   2.787  0.2099  1.8903 -0.3750
  252SOL     MW 1008   1.732   0.986   2.852  0.2207  0.4961 -0.2409
  253SOL     OW 1009   1.248   1.781   2.549 -0.2538  0.0357 -0.0199
  253SOL    HW1 1010   1.208   1.755   2.466  4.4366 -4.2577  0.1999
  253SOL    HW2 1011   1.180   1.840   2.589  1.5494  0.8510  0.1177
  253SOL     MW 1012   1.234   1.786   2.543  0.6029 -0.4232  0.0272
  254SOL     OW 1013   1.059   1.002   2.267  0.2181 -0.0255 -0.4958
  254SOL    HW1 1014   1.013   0.920   2.251 -2.6261  1.4676  3.1557
  254SOL    HW2 1015   0.992   1.066   2.271  2.6509  0.1682  0.3376
  254SOL     MW 1016   1.044   1.000   2.266  0.1638  0.1971  0.0960
  255SOL     OW 1017   0.752   2.573   2.160  0.0763  0.1874 -0.3099
  255SOL    HW1 1018   0.681   2.515   2.192 -2.3431  0.4677  0.8654
  255SOL    HW2 1019   0.825   2.537   2.201 -1.9068  0.9598  0.7066
  255SOL     MW 1020   0.752   2.561   2.170 -0.5046  0.3263 -0.0207
  256SOL     OW 1021   1.299   2.707   2.906  0.6715 -1.0664  0.6281
  256SOL    HW1 1022   1.284   2.624   2.870 -2.8886 -3.0920  1.6323
  256SOL    HW2 1023   1.374   2.757   2.869 -0.1833 -0.3204 -0.1120
  256SOL     MW 1024   1.307   2.703   2.897  0.0890 -1.2352  0.6630
  257SOL     OW 1025   0.125   1.932   0.068  0.3295 -0.0716 -0.2647
  257SOL    HW1 1026   0.146   1.884   0.146 -2.3560 -2.3832  0.7485
  257SOL    HW2 1027   0.167   1.889  -0.009 -1.6153  1.0086 -1.2421
  257SOL     MW 1028   0.133   1.920   0.068 -0.2814 -0.2341 -0.2600
  258SOL     OW 1029   0.716   1.033   2.465  0.8276 -0.4202  0.0778
  258SOL    HW1 1030   0.759   1.094   2.395 -0.1698  1.1676 -2.8032
  258SOL    HW2 1031   0.685   1.073   2.545 -1.0115 -2.5784 -1.8241
  258SOL     MW 1032   0.717   1.046   2.466  0.4534 -0.4955 -0.5533
  259SOL     OW 1033   0.813   0.390   2.373  0.7502 -0.9024 -0.0416
  259SOL    HW1 1034   0.721   0.361   2.351  1.8313 -2.6943  0.0391
  259SOL    HW2 1035   0.854   0.313   2.410  3.8146  0.0200 -0.8674
  259SOL     MW 1036   0.806   0.376   2.375  1.2971 -1.0171 -0.1399
  260SOL     OW 1037   0.483   0.139   1.592  0.0929 -0.2854 -0.2313
  260SOL    HW1 1038   0.417   0.074   1.562 -1.9079 -1.3462  0.3963
  260SOL    HW2 1039   0.568   0.096   1.579 -1.9110  1.6060 -2.6984
  260SOL     MW 1040   0.485   0.124   1.586 -0.4355 -0.1758 -0.4740
  261SOL     OW 1041   1.298   0.774   2.012 -0.8265 -0.2317 -0.0170
  261SOL    HW1 1042   1.287   0.777   2.106 -0.8890  0.4211 -0.9308
  261SOL    HW2 1043   1.316   0.680   1.987 -1.9141  0.4687  3.3243
  261SOL     MW 1044   1.299   0.762   2.021 -0.9783 -0.0531  0.3033
  262SOL     OW 1045   1.031   0.340   0.172  0.1015  0.0080 -0.2243
  262SOL    HW1 1046   1.126   0.347   0.152 -0.4529 -1.4670  2.1275
  262SOL    HW2 1047   0.999   0.266   0.115 -1.5313 -1.4570 -0.0488
  262SOL     MW 1048   1.039   0.331   0.162 -0.1870 -0.3799  0.1092
  263SOL     OW 1049   0.417   0.007   2.516 -0.2482 -0.3181 -0.5851
  263SOL    HW1 1050   0.340   0.062   2.491 -0.6861 -0.9012 -1.8353
  263SOL    HW2 1051   0.471   0.005   2.432 -1.7537  3.3031 -2.3527
  263SOL     MW 1052   0.414   0.014   2.502 -0.5046  0.0828 -0.9833
  264SOL     OW 1053   1.478   1.331   1.885 -0.1977  0.2894 -0.3005
  264SOL    HW1 1054   1.427   1.290   1.950 -1.0754  0.5668 -0.6466
  264SOL    HW2 1055   1.547   1.368   1.933 -1.9991  1.8885  0.7078
  264SOL     MW 1056   1.480   1.330   1.900 -0.5511  0.5369 -0.2131
  265SOL     OW 1057   0.686   2.809   2.294  0.2918 -0.3864 -0.0590
  265SOL    HW1 1058   0.721   2.730   2.245  0.9965 -0.6650 -0.1274
  265SOL    HW2 1059   0.701   2.784   2.384  0.0419  1.6488 -0.5216
  265SOL     MW 1060   0.693   2.796   2.299  0.3518 -0.1546 -0.1291
  266SOL     OW 1061   0.962   0.717   2.213 -0.2250 -0.2021 -0.1747
  266SOL    HW1 1062   0.943   0.690   2.119 -1.2010 -0.9144  1.8508
  266SOL    HW2 1063   1.058   0.720   2.223  1.8454  1.7134 -0.1533
  266SOL     MW 1064   0.972   0.714   2.202 -0.0806 -0.0434  0.0954
  267SOL     OW 1065   1.431   1.755   2.790  0.3900  0.4290  0.1446
  267SOL    HW1 1066   1.505   1.713   2.739 -0.6586  0.7815 -0.9767
  267SOL    HW2 1067   1.366   1.783   2.725 -0.7392  1.2319 -1.9147
  267SOL     MW 1068   1.432   1.753   2.774  0.1027  0.5814 -0.2750
  268SOL     OW 1069   0.191   0.831   1.721 -0.1617 -0.2835  0.5598
  268SOL    HW1 1070   0.145   0.854   1.641  2.1662 -1.2040  1.1310
  268SOL    HW2 1071   0.222   0.745   1.699 -1.5171  1.8774  0.7985
  268SOL     MW 1072   0.189   0.823   1.707 -0.0334 -0.1198  0.6667
  269SOL     OW 1073   1.430   1.950   2.354 -0.3918  0.0792  0.3887
  269SOL    HW1 1074   1.491   2.026   2.354  2.2971  0.9768  0.2332
  269SOL    HW2 1075   1.360   1.962   2.419  2.3389 -1.3494 -1.0532
  269SOL     MW 1076   1.429   1.961   2.362  0.3233  0.0092  0.1779
  270SOL     OW 1077   1.111   0.390   1.627 -0.3801  0.3697  0.0437
  270SOL    HW1 1078   1.063   0.312   1.643 -0.6704  1.8071 -0.6719
  270SOL    HW2 1079   1.200   0.359   1.645  1.7754  2.4345  2.2570
  270SOL     MW 1080   1.116   0.376   1.631 -0.1340  0.8318  0.2413
  271SOL     OW 1081   0.884   0.008   2.538 -0.0764  0.0854  0.1790
  271SOL    HW1 1082   0.949  -0.031   2.598  1.7563 -1.7091  1.1051
  271SOL    HW2 1083   0.932   0.096   2.509  0.8607  0.1507 -1.4065
  271SOL     MW 1084   0.899   0.014   2.542  0.2891 -0.1428  0.0920
  272SOL     OW 1085   1.479   2.881   2.819  0.4464  0.1910  0.8056
  272SOL    HW1 1086   1.418   2.892   2.743 -2.5748 -0.1814  0.7048
  272SOL    HW2 1087   1.497   2.968   2.842 -0.3949 -1.5460 -1.4116
  272SOL     MW 1088   1.473   2.894   2.812 -0.0632 -0.0873  0.4998
  273SOL     OW 1089   1.442   0.990   2.837 -0.0393  0.2872 -0.4532
  273SOL    HW1 1090   1.534   1.009   2.852  0.5274  1.4516 -0.4424
  273SOL    HW2 1091   1.389   1.042   2.895  1.0550  0.1276 -0.2745
  273SOL     MW 1092   1.447   1.000   2.847  0.1798  0.4198 -0.4282
  274SOL     OW 1093   1.483   0.732   0.125 -0.2227  0.1455 -0.2780
  274SOL    HW1 1094   1.498   0.639   0.106 -0.6921 -0.3643 -0.4539
  274SOL    HW2 1095   1.409   0.723   0.177  0.6738  0.5534 -3.3552
  274SOL     MW 1096   1.475   0.718   0.130 -0.1663  0.1320 -0.7072
  275SOL     OW 1097   1.720   0.571   1.780  0.0679 -0.1578 -0.8076
  275SOL    HW1 1098   1.794   0.608   1.831 -0.2050 -0.6173  0.9197
  275SOL    HW2 1099   1.729   0.479   1.785 -0.0176  1.1653  1.2738
  275SOL     MW 1100   1.731   0.564   1.787  0.0206 -0.0438 -0.3051
  276SOL     OW 1101   0.290   1.213   1.864  0.1740  0.1396  0.8399
  276SOL    HW1 1102   0.329   1.137   1.915  2.6233  0.7427 -0.3241
  276SOL    HW2 1103   0.211   1.240   1.911  1.9609  2.1708 -0.5613
  276SOL     MW 1104   0.285   1.206   1.877  0.7329  0.4872  0.5015
  277SOL     OW 1105   1.880   1.299   2.433  0.2259  0.0842 -0.2701
  277SOL    HW1 1106   1.942   1.306   2.502  1.5265 -1.4946  1.4953
  277SOL    HW2 1107   1.902   1.225   2.376 -1.4746  0.2332 -1.9578
  277SOL     MW 1108   1.891   1.290   2.434  0.1731 -0.1044 -0.2598
  278SOL     OW 1109   1.459   0.624   1.723 -0.6281  0.3836  0.3563
  278SOL    HW1 1110   1.423   0.588   1.803  0.8147 -0.2659 -2.0198
  278SOL    HW2 1111   1.551   0.615   1.739  0.4403 -2.9839 -0.4819
  278SOL     MW 1112   1.466   0.618   1.736 -0.2968 -0.1464 -0.0678
  279SOL     OW 1113   0.562  -0.001   2.277 -0.2640  0.1980  0.6568
  279SOL    HW1 1114   0.656  -0.002   2.276 -2.3910  2.7823 -2.1891
  279SOL    HW2 1115   0.545   0.092   2.268 -0.0228  1.3339  1.1108
  279SOL     MW 1116   0.573   0.011   2.275 -0.5128  0.6889  0.3412
  280SOL     OW 1117   1.447   0.986   2.125 -0.4308 -0.7600 -0.5356
  280SOL    HW1 1118   1.519   0.930   2.088  1.2378 -1.9079  0.1555
  280SOL    HW2 1119   1.451   0.983   2.223  0.9059 -1.6380 -0.8055
  280SOL     MW 1120   1.457   0.978   2.133 -0.0343 -1.0273 -0.4800
  281SOL     OW 1121   1.294   1.307   2.770  0.3101 -0.0221  0.3808
  281SOL    HW1 1122   1.383   1.326   2.753 -1.0970  0.4158 -1.1462
  281SOL    HW2 1123   1.302   1.232   2.826 -0.3680 -1.2079  0.0746
  281SOL     MW 1124   1.306   1.299   2.775  0.0350 -0.1208  0.1390
  282SOL     OW 1125   1.124   1.272   1.648 -0.6196 -0.2247  0.7101
  282SOL    HW1 1126   1.121   1.366   1.609 -0.3333  3.8221  0.9036
  282SOL    HW2 1127   1.094   1.278   1.741 -0.0256  0.2433  0.4519
  282SOL     MW 1128   1.119   1.285   1.655 -0.5035  0.3710  0.7016
  283SOL     OW 1129   0.762   1.215   2.981 -0.0697 -0.7775 -0.0893
  283SOL    HW1 1130   0.846   1.194   3.021  3.0332  0.1231 -0.5162
  283SOL    HW2 1131   0.745   1.311   3.005  0.6890  0.6489  1.0824
  283SOL     MW 1132   0.771   1.225   2.989  0.4398 -0.4705  0.0090
  284SOL     OW 1133   0.517   0.641   2.393 -0.6613 -0.2182  0.0147
  284SOL    HW1 1134   0.592   0.690   2.351 -0.7160  0.9366  3.1087
  284SOL    HW2 1135   0.474   0.596   2.323 -0.8557  1.1193  1.2826
  284SOL     MW 1136   0.521   0.641   2.378 -0.6941  0.1106  0.5902
  285SOL     OW 1137   0.898   0.919   2.799  0.9197  0.3351  0.4138
  285SOL    HW1 1138   0.940   0.963   2.720  2.5007  1.4792  0.7539
  285SOL    HW2 1139   0.864   0.837   2.770 -0.0380  0.2171 -3.7112
  285SOL     MW 1140   0.899   0.914   2.785  1.0020  0.4705 -0.0856
  286SOL     OW 1141   1.182   1.519   2.595  0.1100  0.1078 -0.1076
  286SOL    HW1 1142   1.223   1.485   2.671  0.7254 -1.5003  0.2237
  286SOL    HW2 1143   1.229   1.602   2.593 -1.3072 -0.2136  0.2308
  286SOL     MW 1144   1.193   1.526   2.605  0.0042 -0.1467 -0.0192
  287SOL     OW 1145   1.103   0.947   0.292 -0.3339  0.0668 -0.1785
  287SOL    HW1 1146   1.099   0.993   0.378  0.5619 -1.0122  3.0820
  287SOL    HW2 1147   1.043   0.984   0.228  1.1437  0.3870 -2.0970
  287SOL     MW 1148   1.095   0.958   0.295 -0.0207 -0.0333 -0.0014
  288SOL     OW 1149   1.533   0.598   2.101 -0.1236 -0.5292 -0.0219
  288SOL    HW1 1150   1.508   0.622   2.190 -1.4612 -1.1327  0.7089
  288SOL    HW2 1151   1.555   0.687   2.061  2.4625 -2.1971  1.0996
  288SOL     MW 1152   1.533   0.613   2.107  0.0411 -0.8289  0.2225
  289SOL     OW 1153   0.982   1.034   2.570 -0.4634  0.1743  0.0404
  289SOL    HW1 1154   1.012   0.949   2.541 -1.0630  1.3431 -1.2717
  289SOL    HW2 1155   0.889   1.032   2.543 -0.4518  0.7014  1.5508
  289SOL     MW 1156   0.974   1.023   2.562 -0.5410  0.3981  0.0666
  290SOL     OW 1157   0.866   0.641   1.575 -0.8471 -0.0613  0.9592
  290SOL    HW1 1158   0.924   0.616   1.498 -1.2774 -1.6240 -0.3292
  290SOL    HW2 1159   0.928   0.648   1.650 -0.6626  0.2993 -0.7562
  290SOL     MW 1160   0.882   0.639   1.575 -0.8795 -0.2199  0.5629
  291SOL     OW 1161   0.214   0.324   0.144  0.1029 -0.0255 -0.4095
  291SOL    HW1 1162   0.290   0.277   0.188  2.4270 -1.4606 -0.9081
  291SOL    HW2 1163   0.172   0.256   0.081 -0.2631 -3.2093 -1.7081
  291SOL     MW 1164   0.218   0.309   0.142  0.3612 -0.6349 -0.6467
  292SOL     OW 1165   1.009   0.593   0.097  0.0242  0.3848  0.0706
  292SOL    HW1 1166   1.080   0.638   0.139 -0.6533 -0.8083 -1.6855
  292SOL    HW2 1167   1.009   0.494   0.116  0.7318  0.3088  0.1761
  292SOL     MW 1168   1.019   0.586   0.105  0.0282  0.2173 -0.1472
  293SOL     OW 1169   0.176   0.129   2.443  0.3490 -0.1270 -0.2682
  293SOL    HW1 1170   0.128   0.111   2.362  0.7493 -1.6698 -0.8813
  293SOL    HW2 1171   0.105   0.133   2.502 -0.1920  0.6004  0.9060
  293SOL     MW 1172   0.160   0.127   2.440  0.3304 -0.2346 -0.1942
  294SOL     OW 1173   1.527   0.650   2.374 -0.4216  0.0511  0.1215
  294SOL    HW1 1174   1.536   0.714   2.449 -0.3316  2.6787 -5.6213
  294SOL    HW2 1175   1.512   0.566   2.408 -1.8210 -0.7511 -1.2866
  294SOL     MW 1176   1.526   0.647   2.389 -0.5943  0.2920 -0.8220
  295SOL     OW 1177   0.922   0.611   2.525  0.8384 -0.2984 -0.3127
  295SOL    HW1 1178   0.878   0.547   2.467 -2.2498  2.4159  2.3946
  295SOL    HW2 1179   0.869   0.641   2.605 -1.7189 -0.9460  0.9935
  295SOL     MW 1180   0.909   0.607   2.528  0.0936 -0.0257  0.2169
  296SOL     OW 1181   1.299   0.230   2.052 -0.0661  0.2347  0.1974
  296SOL    HW1 1182   1.359   0.155   2.037  2.0604  0.7317  0.2809
  296SOL    HW2 1183   1.315   0.245   2.147 -1.1579 -1.9903  0.7850
  296SOL     MW 1184   1.309   0.222   2.062  0.0704  0.0067  0.2859
  297SOL     OW 1185   1.413   0.362   1.622 -0.1368 -0.0574  0.4250
  297SOL    HW1 1186   1.418   0.452   1.650 -1.3905  1.0934  0.7381
  297SOL    HW2 1187   1.488   0.318   1.654 -0.0166 -0.7485 -1.1727
  297SOL     MW 1188   1.423   0.368   1.630 -0.2864  0.0032  0.2555
  298SOL     OW 1189   1.624   0.834   1.989  0.4382 -0.3646  0.1159
  298SOL    HW1 1190   1.618   0.895   1.910  1.2686 -0.8927 -0.3756
  298SOL    HW2 1191   1.710   0.843   2.029  1.2757 -0.4555 -1.3408
  298SOL     MW 1192   1.634   0.843   1.984  0.6583 -0.4463 -0.1411
  299SOL     OW 1193   0.571   1.078   0.049  0.7963  0.7116  0.0461
  299SOL    HW1 1194   0.648   1.119   0.005 -1.7982 -0.0931  0.1507
  299SOL    HW2 1195   0.504   1.087  -0.019  1.5335  1.0791 -0.2742
  299SOL     MW 1196   0.572   1.084   0.034  0.5512  0.6539  0.0177
  300SOL     OW 1197   1.257   1.150   2.563  0.6840  0.2906  0.3254
  300SOL    HW1 1198   1.201   1.069   2.580  1.5492 -1.2184 -0.1769
  300SOL    HW2 1199   1.262   1.208   2.638  2.3934  2.1450 -0.8755
  300SOL     MW 1200   1.251   1.147   2.575  1.0236  0.3362  0.1007
  301SOL     OW 1201   1.436   0.937   0.660 -0.3516 -0.7730 -0.1083
  301SOL    HW1 1202   1.457   0.967   0.749 -0.9693  0.0384  2.1672
  301SOL    HW2 1203   1.361   0.883   0.679  2.7926 -0.7261 -0.9505
  301SOL     MW 1204   1.429   0.934   0.674 -0.0182 -0.6598  0.0808
  302SOL     OW 1205   0.147   1.484   2.013  0.1864 -0.3312  0.2011
  302SOL    HW1 1206   0.143   1.425   2.086 -2.0921 -2.2343 -0.6997
  302SOL    HW2 1207   0.114   1.568   2.058 -0.8319  3.2086  0.5213
  302SOL     MW 1208   0.142   1.487   2.028 -0.2486 -0.1152  0.1245
  303SOL     OW 1209   0.374   1.707   2.645  0.1043  0.8003  0.2793
  303SOL    HW1 1210   0.315   1.689   2.577  1.7529 -1.5060  2.1255
  303SOL    HW2 1211   0.339   1.781   2.689  0.5569  0.2620  0.2165
  303SOL     MW 1212   0.361   1.714   2.642  0.3816  0.4250  0.5146
  304SOL     OW 1213   0.592   2.085   2.354  0.1474 -0.1731 -0.1295
  304SOL    HW1 1214   0.655   2.143   2.301 -1.6877 -0.0722 -1.1393
  304SOL    HW2 1215   0.637   2.000   2.354  0.0668 -0.1989 -2.3429
  304SOL     MW 1216   0.606   2.082   2.347 -0.1054 -0.1632 -0.5548
  305SOL     OW 1217   1.096   0.595   0.503  0.5163  0.4388 -0.0398
  305SOL    HW1 1218   1.001   0.596   0.493  1.2534 -2.1120  1.2121
  305SOL    HW2 1219   1.109   0.505   0.540  2.1814 -3.0466  0.1306
  305SOL     MW 1220   1.085   0.583   0.506  0.8332 -0.3576  0.1479
  306SOL     OW 1221   1.191   1.471   0.272 -0.1335  0.1828  0.4570
  306SOL    HW1 1222   1.228   1.382   0.297  1.1599 -0.8770 -1.3035
  306SOL    HW2 1223   1.262   1.495   0.223 -1.8037 -0.3409 -2.7759
  306SOL     MW 1224   1.205   1.462   0.269 -0.1832 -0.0262 -0.2018
  307SOL     OW 1225   1.330   0.495   1.936 -0.3203  0.2929  0.3604
  307SOL    HW1 1226   1.284   0.417   1.947  1.1270  2.0812 -2.1120
  307SOL    HW2 1227   1.412   0.496   1.985 -0.6927  1.9541 -0.8596
  307SOL     MW 1228   1.334   0.485   1.944 -0.1785  0.7480 -0.1268
  308SOL     OW 1229   2.148   0.572   2.717 -0.0074 -0.4684  0.4087
  308SOL    HW1 1230   2.243   0.561   2.745 -1.6750 -0.1245 -0.5640
  308SOL    HW2 1231   2.129   0.662   2.701 -1.3661 -0.5528  1.5657
  308SOL     MW 1232   2.158   0.582   2.718 -0.4067 -0.4342  0.4330
  309SOL     OW 1233   0.444   0.363   0.365  0.3284  0.3913  0.0481
  309SOL    HW1 1234   0.522   0.338   0.418  1.8234  2.2401 -2.1046
  309SOL    HW2 1235   0.460   0.310   0.287 -2.4573  1.1876  0.0476
  309SOL     MW 1236   0.457   0.353   0.362  0.1581  0.7403 -0.2360
  310SOL     OW 1237   0.505   0.629   1.943  0.3012  0.2188 -0.1102
  310SOL    HW1 1238   0.537   0.538   1.916  0.3217  0.9393  2.0254
  310SOL    HW2 1239   0.568   0.681   1.900 -3.5624  0.0751 -0.0119
  310SOL     MW 1240   0.518   0.624   1.934 -0.2059  0.2949  0.1845
  311SOL     OW 1241   1.943   0.693   1.899 -0.2327  0.3049 -0.2452
  311SOL    HW1 1242   1.926   0.701   1.991 -0.6859 -0.5753 -0.0434
  311SOL    HW2 1243   2.000   0.613   1.904  1.5219 -1.8744 -1.3287
  311SOL     MW 1244   1.949   0.683   1.911 -0.0610 -0.0988 -0.3615
  312SOL     OW 1245   1.720   2.547   0.119  1.4698  0.4688 -0.2265
  312SOL    HW1 1246   1.788   2.563   0.189  0.6419  1.8526  1.5383
  312SOL    HW2 1247   1.642   2.596   0.152 -1.2806  0.8877  1.9964
  312SOL     MW 1248   1.718   2.556   0.133  0.9977  0.7066  0.2997
  313SOL     OW 1249   0.087   1.182   2.977 -0.1006 -0.8220  0.3653
  313SOL    HW1 1250   0.090   1.193   3.072  1.6720  1.1172  0.0945
  313SOL    HW2 1251   0.167   1.226   2.949 -2.3365 -1.2834  0.0009
  313SOL     MW 1252   0.098   1.190   2.985 -0.1617 -0.6270  0.2815
  314SOL     OW 1253   2.124   2.951   3.000  0.5300 -0.1152 -0.4809
  314SOL    HW1 1254   2.064   2.994   2.936  0.4460  0.5647 -0.9649
  314SOL    HW2 1255   2.192   3.011   3.038  2.2415 -1.1370  0.9917
  314SOL     MW 1256   2.125   2.965   2.997  0.7447 -0.1603 -0.3505
  315SOL     OW 1257   1.514   1.974   3.089  0.1382  0.2286 -0.4599
  315SOL    HW1 1258   1.432   2.013   3.120  2.0054 -0.4057  1.2202
  315SOL    HW2 1259   1.557   2.030   3.027 -2.5281 -1.0452  0.4173
  315SOL     MW 1260   1.509   1.987   3.084  0.0328 -0.0232 -0.1225
  316SOL     OW 1261   1.278   0.679   2.711  0.3254 -0.0358  0.1526
  316SOL    HW1 1262   1.370   0.674   2.684  0.9267  3.7974 -1.2435
  316SOL    HW2 1263   1.289   0.685   2.804 -2.7454 -1.5851  0.2657
  316SOL     MW 1264   1.292   0.679   2.720 -0.0004  0.2656 -0.0167
  317SOL     OW 1265   0.736   1.479   2.598 -0.0695 -0.5771 -0.1718
  317SOL    HW1 1266   0.816   1.425   2.580  0.3837  0.3717 -2.2970
  317SOL    HW2 1267   0.737   1.522   2.511  0.7564  0.0551 -0.4448
  317SOL     MW 1268   0.747   1.478   2.584  0.0992 -0.3685 -0.4882
  318SOL     OW 1269   1.360   0.366   2.896 -0.2251 -0.1728 -0.0034
  318SOL    HW1 1270   1.279   0.427   2.895  0.2600 -0.8381 -0.1084
  318SOL    HW2 1271   1.427   0.427   2.933 -2.8062  1.1473 -0.6872
  318SOL     MW 1272   1.358   0.382   2.901 -0.5017 -0.0864 -0.1075
  319SOL     OW 1273   0.777   0.408   2.859 -0.3962  0.0029  0.0612
  319SOL    HW1 1274   0.744   0.369   2.778  1.2000  2.1137  1.0784
  319SOL    HW2 1275   0.711   0.390   2.932  0.4951 -0.8501 -1.4436
  319SOL     MW 1276   0.764   0.401   2.858 -0.0680  0.1688 -0.0032
  320SOL     OW 1277   1.082   1.339   1.944  0.2475  0.1969 -0.3610
  320SOL    HW1 1278   1.124   1.303   2.021 -1.7849 -0.0604  1.3717
  320SOL    HW2 1279   1.128   1.421   1.930  2.5468  0.0680  2.5668
  320SOL     MW 1280   1.094   1.345   1.953  0.2827  0.1459  0.2539
  321SOL     OW 1281   1.101   0.926   3.018  0.3459 -0.5914  0.0429
  321SOL    HW1 1282   1.040   0.913   2.945 -0.7787  0.5514  1.2570
  321SOL    HW2 1283   1.178   0.867   3.011  1.3300  0.2280 -1.8922
  321SOL     MW 1284   1.103   0.917   3.008  0.3274 -0.3325 -0.0522
  322SOL     OW 1285   1.286   0.826   1.711  0.5349  0.1244 -0.4227
  322SOL    HW1 1286   1.356   0.758   1.711 -0.3090  0.6195 -0.6366
  322SOL    HW2 1287   1.290   0.888   1.786 -0.7263  0.3363  0.0982
  322SOL     MW 1288   1.295   0.826   1.721  0.2572  0.2177 -0.3822
  323SOL     OW 1289   1.256   1.573   1.895  0.2437 -0.7400  0.7039
  323SOL    HW1 1290   1.246   1.558   1.798 -1.6287 -0.8574 -1.3315
  323SOL    HW2 1291   1.181   1.635   1.910  1.4041  0.9054  0.6955
  323SOL     MW 1292   1.245   1.579   1.884  0.1497 -0.5384  0.4343
  324SOL     OW 1293   1.498   0.971   2.393 -0.0534 -0.6099  0.6216
  324SOL    HW1 1294   1.410   0.983   2.444  2.9038  0.5801 -1.9377
  324SOL    HW2 1295   1.555   1.047   2.408 -0.4595 -1.5458 -2.2621
  324SOL     MW 1296   1.494   0.982   2.402  0.2832 -0.5764 -0.0966
  325SOL     OW 1297   1.066   0.437   2.938  0.5726 -0.6847  0.2709
  325SOL    HW1 1298   1.062   0.507   3.005  0.4974  0.5234 -0.1224
  325SOL    HW2 1299   0.978   0.419   2.908 -3.1042  0.3526  0.6275
  325SOL     MW 1300   1.054   0.444   2.943  0.0775 -0.3884  0.2661
  326SOL     OW 1301   0.445   1.363   2.209  0.1653 -0.0697  0.5255
  326SOL    HW1 1302   0.500   1.307   2.159  0.8752  0.1720  1.5273
  326SOL    HW2 1303   0.456   1.447   2.164  0.5497  3.0697  0.9114
  326SOL     MW 1304   0.454   1.367   2.197  0.3097  0.3764  0.7086
  327SOL     OW 1305   1.928   0.802   2.432  0.0223 -0.2997 -0.1387
  327SOL    HW1 1306   1.911   0.751   2.515 -1.0007  1.3868  0.1947
  327SOL    HW2 1307   2.019   0.829   2.436  1.2219  1.1753 -0.1037
  327SOL     MW 1308   1.938   0.798   2.443  0.0456  0.1174 -0.0901
  328SOL     OW 1309   0.164   1.268   2.215 -0.2650  0.4899 -0.2713
  328SOL    HW1 1310   0.122   1.205   2.155  0.2131 -0.2059  1.4158
  328SOL    HW2 1311   0.260   1.242   2.219 -0.8169 -0.1765  0.5400
  328SOL     MW 1312   0.171   1.256   2.208 -0.2748  0.3102  0.0583
  329SOL     OW 1313   0.124   0.137   1.333  0.5928  0.7851 -0.9875
  329SOL    HW1 1314   0.088   0.157   1.419  2.2552 -0.4501  0.3229
  329SOL    HW2 1315   0.206   0.174   1.347 -2.4259 -1.1928 -1.9000
  329SOL     MW 1316   0.130   0.145   1.346  0.4138  0.3612 -0.9350
  330SOL     OW 1317   0.343   3.085   2.046  0.5230 -0.3388 -0.4932
  330SOL    HW1 1318   0.411   3.063   2.107  3.1182  2.5604  1.7153
  330SOL    HW2 1319   0.267   3.058   2.099 -1.6637  0.7516  3.8834
  330SOL     MW 1320   0.342   3.078   2.061  0.5769  0.1876  0.3756
  331SOL     OW 1321   0.866   1.184   2.296  0.4258  0.2351 -0.1564
  331SOL    HW1 1322   0.795   1.225   2.247  0.0517  2.4929 -2.4798
  331SOL    HW2 1323   0.906   1.254   2.343 -1.6504  2.8671  0.3447
  331SOL     MW 1324   0.862   1.199   2.295  0.1025  0.8803 -0.3968
  332SOL     OW 1325   1.325   1.766   3.054 -0.0562  0.3065 -0.2068
  332SOL    HW1 1326   1.344   1.752   2.962 -0.0423  0.8863 -1.4759
  332SOL    HW2 1327   1.362   1.850   3.078  0.4937  2.5222  2.7256
  332SOL     MW 1328   1.332   1.775   3.045  0.0182  0.6754  0.0127
  333SOL     OW 1329   1.738   1.397   2.922 -0.0947 -0.3587  0.5667
  333SOL    HW1 1330   1.832   1.425   2.927  3.5101  1.5359  1.8757
  333SOL    HW2 1331   1.723   1.350   3.002 -2.1872  0.0928 -2.0351
  333SOL     MW 1332   1.748   1.394   2.933  0.1048 -0.0491  0.3961
  334SOL     OW 1333   1.389  -0.004   2.635 -0.0082  0.0603 -0.1706
  334SOL    HW1 1334   1.302   0.029   2.660  2.0626 -0.8488  0.9817
  334SOL    HW2 1335   1.447   0.067   2.663  1.1105 -1.8825 -0.6564
  334SOL     MW 1336   1.385   0.010   2.642  0.4126 -0.3160 -0.0827
  335SOL     OW 1337   1.330   0.785   2.981  0.8500 -0.0435  0.4119
  335SOL    HW1 1338   1.355   0.770   3.072 -1.4983 -1.3502  0.4246
  335SOL    HW2 1339   1.392   0.843   2.945  1.8517 -1.6878  0.3874
  335SOL     MW 1340   1.342   0.791   2.988  0.6723 -0.4329  0.4104
  336SOL     OW 1341   0.950   1.053   1.975  0.3828  0.1919  0.3474
  336SOL    HW1 1342   0.977   1.145   1.989 -1.8691 -1.4272  1.3867
  336SOL    HW2 1343   1.024   1.004   1.946 -0.3603 -1.3004  2.1015
  336SOL     MW 1344   0.963   1.058   1.973 -0.0123 -0.2186  0.7160
  337SOL     OW 1345   0.590   1.816   2.771  0.1025 -0.5101 -0.3552
  337SOL    HW1 1346   0.521   1.753   2.733  0.7951 -0.9839 -1.5273
  337SOL    HW2 1347   0.675   1.777   2.785  2.4743  1.6921  1.9471
  337SOL     MW 1348   0.592   1.802   2.768  0.5068 -0.2821 -0.2061
  338SOL     OW 1349   1.118   0.804   2.517 -0.0677 -0.4188 -0.3618
  338SOL    HW1 1350   1.054   0.727   2.505 -1.0969 -0.0354 -0.9893
  338SOL    HW2 1351   1.172   0.780   2.599  1.9646  0.8869  1.2713
  338SOL     MW 1352   1.117   0.790   2.527  0.0646 -0.1960 -0.2291
  339SOL     OW 1353   1.544   1.014   1.807 -0.0966  0.0740  0.0947
  339SOL    HW1 1354   1.503   1.036   1.722 -1.9477 -1.4237  1.6288
  339SOL    HW2 1355   1.471   1.024   1.869 -0.2609  1.6236  2.1276
  339SOL     MW 1356   1.529   1.018   1.804 -0.3625  0.0809  0.5653
  340SOL     OW 1357   1.371   1.480   0.049 -0.1430  0.4792  0.4670
  340SOL    HW1 1358   1.393   1.551  -0.006  0.2103 -1.7823  2.2963
  340SOL    HW2 1359   1.452   1.441   0.076 -1.7097 -0.6723 -1.2302
  340SOL     MW 1360   1.385   1.485   0.045 -0.3031  0.0289  0.4844
  341SOL     OW 1361   0.151   1.445   2.698 -0.0611 -0.3487  0.3645
  341SOL    HW1 1362   0.235   1.402   2.692 -0.1974 -3.5614 -0.6168
  341SOL    HW2 1363   0.091   1.392   2.645 -0.2049 -1.6996  0.8587
  341SOL     MW 1364   0.154   1.432   2.690 -0.0981 -0.9508  0.3002
  342SOL     OW 1365   1.299   0.330   0.083 -0.2190  0.5361  0.0877
  342SOL    HW1 1366   1.376   0.355   0.130 -2.5420  0.9277  2.0265
  342SOL    HW2 1367   1.329   0.313  -0.006  0.0306 -0.0872  0.2555
  342SOL     MW 1368   1.313   0.331   0.077 -0.4926  0.5056  0.3657
  343SOL     OW 1369   0.223   0.321   2.146  0.4256 -0.2688  0.2074
  343SOL    HW1 1370   0.287   0.250   2.146 -0.3132  1.5797 -1.8051
  343SOL    HW2 1371   0.149   0.285   2.096 -0.6764 -1.0956 -0.5940
  343SOL     MW 1372   0.221   0.307   2.140  0.1828 -0.1340 -0.1639
  344SOL     OW 1373   1.700   2.068   0.192  0.0178  0.2696  0.1898
  344SOL    HW1 1374   1.732   2.129   0.125  1.9002  1.4985  0.1728
  344SOL    HW2 1375   1.616   2.033   0.151 -0.6158 -1.7874 -0.9931
  344SOL     MW 1376   1.693   2.071   0.177  0.1826  0.1603  0.0315
  345SOL     OW 1377   0.753   1.589   2.336 -0.2719  0.0731  0.5809
  345SOL    HW1 1378   0.672   1.602   2.285 -2.6634 -2.4789  0.5548
  345SOL    HW2 1379   0.799   1.548   2.261  0.5852  1.9139  0.9808
  345SOL     MW 1380   0.749   1.585   2.319 -0.4744 -0.0208  0.6302
  346SOL     OW 1381   1.775   1.077   3.086 -0.2868 -0.5671  0.0674
  346SOL    HW1 1382   1.871   1.097   3.079  1.0526 -3.9517  0.1226
  346SOL    HW2 1383   1.760   1.025   3.164  1.5399  1.8956  0.3810
  346SOL     MW 1384   1.786   1.072   3.095  0.1310 -0.6887  0.1160
  347SOL     OW 1385   1.280   0.752   2.294  0.1139 -0.5036  0.2497
  347SOL    HW1 1386   1.363   0.730   2.330  1.0809 -0.9053  0.4432
  347SOL    HW2 1387   1.237   0.801   2.368 -1.1945 -0.0523  0.7912
  347SOL     MW 1388   1.285   0.756   2.308  0.0688 -0.4971  0.3467
  348SOL     OW 1389   1.431   2.660   1.881  0.0100  0.2909  0.2535
  348SOL    HW1 1390   1.434   2.574   1.919 -1.5662  0.9285  2.1386
  348SOL    HW2 1391   1.456   2.720   1.948  2.2384 -0.0307  0.4969
  348SOL     MW 1392   1.434   2.657   1.895  0.0960  0.3326  0.5343
  349SOL     OW 1393   1.509   0.277   2.695 -0.2564  0.2189 -0.1062
  349SOL    HW1 1394   1.454   0.317   2.762  2.5589  0.6046 -0.5985
  349SOL    HW2 1395   1.594   0.286   2.732 -3.1852  1.3778  0.7131
  349SOL     MW 1396   1.513   0.283   2.709 -0.2714  0.4227 -0.0631
  350SOL     OW 1397   1.883   0.615   2.668  0.4935  0.3951  0.5774
  350SOL    HW1 1398   1.839   0.543   2.629  1.7782 -0.8524 -1.2726
  350SOL    HW2 1399   1.959   0.576   2.713 -0.2085 -0.5414 -2.3586
  350SOL     MW 1400   1.887   0.601   2.669  0.5704  0.1069 -0.0541
  351SOL     OW 1401   0.054   0.945   1.494 -0.3341  0.8812 -0.3423
  351SOL    HW1 1402  -0.004   0.960   1.572  1.1166 -0.1853  0.3457
  351SOL    HW2 1403   0.117   1.018   1.501 -3.4045 -0.7315  2.5239
  351SOL     MW 1404   0.055   0.957   1.505 -0.5478  0.5277  0.1267
  352SOL     OW 1405   0.838   1.688   2.721 -0.7972 -0.0268 -0.0730
  352SOL    HW1 1406   0.884   1.639   2.792  0.1326  0.0544  2.6292
  352SOL    HW2 1407   0.790   1.612   2.686  1.8051  1.7589 -0.7169
  352SOL     MW 1408   0.838   1.672   2.726 -0.3312  0.2195  0.1986
  353SOL     OW 1409   3.078   2.486   2.659 -0.2095  0.5089 -0.7460
  353SOL    HW1 1410   3.168   2.505   2.631 -0.0943 -0.2414  2.6671
  353SOL    HW2 1411   3.018   2.560   2.652 -1.6226  1.5380  0.2780
  353SOL     MW 1412   3.082   2.499   2.654 -0.3808  0.5457 -0.1606
  354SOL     OW 1413   0.323   2.536   0.835 -0.8996  0.2418 -0.2615
  354SOL    HW1 1414   0.369   2.519   0.915 -0.1131 -0.1318 -2.2073
  354SOL    HW2 1415   0.277   2.453   0.824  0.8789 -0.9994 -1.9437
  354SOL     MW 1416   0.323   2.523   0.844 -0.5612  0.0287 -0.7402
  355SOL     OW 1417   0.035   2.278   0.373  0.2334  0.0996  0.5157
  355SOL    HW1 1418  -0.032   2.209   0.395  2.2048 -0.5941  0.7673
  355SOL    HW2 1419   0.020   2.338   0.447  1.2813 -0.9798  3.3277
  355SOL     MW 1420   0.024   2.277   0.385  0.6318 -0.1343  0.9199
  356SOL     OW 1421   0.805   2.857   0.986 -0.1996 -0.7272 -0.0734
  356SOL    HW1 1422   0.833   2.850   0.894  1.3625 -1.2470 -0.3100
  356SOL    HW2 1423   0.709   2.835   0.981  1.5519  0.0041 -0.5629
  356SOL     MW 1424   0.796   2.853   0.973  0.2376 -0.6993 -0.1692
  357SOL     OW 1425   1.796   2.941   0.428 -0.2251 -0.5098  0.1434
  357SOL    HW1 1426   1.726   2.887   0.473 -2.1214  1.1990 -1.5237
  357SOL    HW2 1427   1.877   2.890   0.417  4.0243  1.6053 -1.6986
  357SOL     MW 1428   1.797   2.927   0.432  0.0853 -0.0052 -0.3196
  358SOL     OW 1429   0.509   0.109   1.098 -0.5058  0.6823  0.2309
  358SOL    HW1 1430   0.592   0.123   1.057 -1.0132  0.0932  1.7316
  358SOL    HW2 1431   0.453   0.151   1.028  1.1273 -2.4109 -0.1074
  358SOL     MW 1432   0.512   0.116   1.083 -0.3573  0.1964  0.3842
  359SOL     OW 1433   0.890   2.926   1.854 -0.0018  0.7561 -0.2372
  359SOL    HW1 1434   0.864   2.841   1.899 -0.6977  0.3514 -0.0993
  359SOL    HW2 1435   0.950   2.907   1.778 -0.6151  1.2090  1.5657
  359SOL     MW 1436   0.895   2.913   1.850 -0.1745  0.7625  0.0188
  360SOL     OW 1437   0.540   2.745   0.999 -0.4541 -0.2040 -0.3933
  360SOL    HW1 1438   0.542   2.710   0.906  0.0366  1.3338 -3.5996
  360SOL    HW2 1439   0.545   2.670   1.059  0.7581 -1.6990  0.0597
  360SOL     MW 1440   0.541   2.730   0.995 -0.2294 -0.1983 -0.7566
  361SOL     OW 1441   0.181   2.691   1.326 -0.6119  0.2953 -0.1074
  361SOL    HW1 1442   0.146   2.754   1.390  0.7963 -0.1604  0.0779
  361SOL    HW2 1443   0.275   2.685   1.358 -1.1523 -2.3082 -0.3230
  361SOL     MW 1444   0.189   2.698   1.339 -0.4974 -0.1083 -0.1114
  362SOL     OW 1445   1.481   2.439   0.621 -0.0058  0.1582 -0.0196
  362SOL    HW1 1446   1.500   2.356   0.668  0.6345 -0.5868  0.1251
  362SOL    HW2 1447   1.465   2.509   0.683  1.3706  3.9825 -1.7129
  362SOL     MW 1448   1.481   2.437   0.635  0.2603  0.5645 -0.2239
  363SOL     OW 1449   0.305   3.073   0.718  0.0461 -0.2738 -0.1069
  363SOL    HW1 1450   0.289   3.015   0.797  0.5486  0.4492  0.6411
  363SOL    HW2 1451   0.220   3.084   0.680 -0.1570  0.7240 -1.3711
  363SOL     MW 1452   0.291   3.067   0.723  0.0856 -0.0468 -0.1750
  364SOL     OW 1453   0.699   0.178   0.226 -0.5917 -0.1940 -0.2079
  364SOL    HW1 1454   0.659   0.093   0.254 -2.3753 -3.0419 -0.0589
  364SOL    HW2 1455   0.628   0.212   0.168 -0.6062  0.2575 -0.6851
  364SOL     MW 1456   0.684   0.171   0.222 -0.8289 -0.5102 -0.2512
  365SOL     OW 1457   0.982   1.967   1.064 -0.2214  0.3897  0.1641
  365SOL    HW1 1458   0.961   2.058   1.051 -0.0006 -3.0546  0.8723
  365SOL    HW2 1459   0.904   1.920   1.027 -0.6468 -0.5388 -0.2971
  365SOL     MW 1460   0.969   1.973   1.058 -0.2484 -0.1872  0.1967
  366SOL     OW 1461   2.821   2.624   1.016  0.5531  0.1836  0.0553
  366SOL    HW1 1462   2.896   2.653   1.078  3.4154  0.7117 -0.2256
  366SOL    HW2 1463   2.838   2.641   0.926 -1.9439 -1.6412  0.3039
  366SOL     MW 1464   2.833   2.630   1.012  0.6013  0.0125  0.0510
  367SOL     OW 1465   1.252   2.932   0.913 -0.0458  0.0837 -0.5248
  367SOL    HW1 1466   1.267   3.000   0.846  0.5847  2.8164 -1.3102
  367SOL    HW2 1467   1.182   2.874   0.877 -0.5818  1.6012 -2.3718
  367SOL     MW 1468   1.245   2.933   0.900 -0.0334  0.6445 -0.8721
  368SOL     OW 1469   1.631   0.403   0.682  0.2240  0.2047 -0.1083
  368SOL    HW1 1470   1.702   0.338   0.677 -0.6700 -1.8859  2.7905
  368SOL    HW2 1471   1.675   0.494   0.690 -0.3268 -1.6189 -0.3157
  368SOL     MW 1472   1.646   0.407   0.682  0.0334 -0.3117  0.2468
  369SOL     OW 1473   0.146   2.529   1.654 -0.5524  0.4549 -0.0973
  369SOL    HW1 1474   0.229   2.518   1.702 -0.0750 -0.7360  2.2643
  369SOL    HW2 1475   0.112   2.601   1.695  2.5841 -1.9113 -2.3923
  369SOL     MW 1476   0.152   2.537   1.665 -0.0756 -0.0145 -0.0885
  370SOL     OW 1477   0.747   0.040   0.921 -0.0660  0.7399  0.2095
  370SOL    HW1 1478   0.831   0.087   0.910 -0.9428  3.1711  0.3324
  370SOL    HW2 1479   0.777  -0.034   0.972  1.7474 -0.7320 -0.0520
  370SOL     MW 1480   0.762   0.036   0.926  0.0576  0.8664  0.1912
  371SOL     OW 1481   1.342   2.937   1.509 -0.5794 -0.0782 -0.2811
  371SOL    HW1 1482   1.275   2.873   1.482 -0.2587  0.0968 -0.1468
  371SOL    HW2 1483   1.334   3.019   1.449  1.1104  0.1458 -3.8032
  371SOL     MW 1484   1.332   2.940   1.497 -0.3142 -0.0255 -0.7281
  372SOL     OW 1485   0.775   2.337   0.458  0.0390 -0.2870  0.1795
  372SOL    HW1 1486   0.736   2.252   0.477 -0.4332  0.8174 -0.4748
  372SOL    HW2 1487   0.810   2.322   0.365  0.9212  2.4786 -3.0306
  372SOL     MW 1488   0.774   2.324   0.448  0.0931  0.2236 -0.3304
  373SOL     OW 1489   2.753   3.050   1.434 -0.2048 -0.2047  0.4730
  373SOL    HW1 1490   2.821   3.004   1.390 -2.1118  0.0619  1.5350
  373SOL    HW2 1491   2.747   3.128   1.378  0.2888 -0.3386  1.1694
  373SOL     MW 1492   2.761   3.054   1.421 -0.3913 -0.1872  0.7050
  374SOL     OW 1493   1.527   0.443   0.217 -0.5821  0.2587 -0.0172
  374SOL    HW1 1494   1.605   0.384   0.227 -0.4802 -0.8449 -2.9009
  374SOL    HW2 1495   1.501   0.442   0.310 -2.2107 -2.2964  0.8576
  374SOL     MW 1496   1.534   0.435   0.231 -0.7835 -0.2240 -0.2823
  375SOL     OW 1497   1.054   2.078   2.276 -0.3447 -0.0506  0.8863
  375SOL    HW1 1498   1.111   2.054   2.347 -3.1414  0.6332 -1.6496
  375SOL    HW2 1499   1.069   2.011   2.210  0.6385  3.1032 -1.0099
  375SOL     MW 1500   1.063   2.066   2.277 -0.5840  0.4558  0.3015
  376SOL     OW 1501   0.615   2.568   0.067  0.3590  0.4626 -0.6451
  376SOL    HW1 1502   0.600   2.516   0.160 -3.6546 -0.1196 -0.2750
  376SOL    HW2 1503   0.600   2.496   0.012  0.5884  0.3343 -0.3749
  376SOL     MW 1504   0.611   2.552   0.072 -0.1403  0.3689 -0.5606
  377SOL     OW 1505   1.313   2.007   0.829 -0.4117  0.0011  0.2887
  377SOL    HW1 1506   1.249   2.005   0.756 -1.0033  1.2937  1.0543
  377SOL    HW2 1507   1.268   1.953   0.896 -0.5574  0.4518  2.3171
  377SOL     MW 1508   1.299   2.000   0.828 -0.5090  0.2311  0.6573
  378SOL     OW 1509   1.028   2.810   1.637 -0.6782 -0.1370 -0.2031
  378SOL    HW1 1510   0.995   2.719   1.658  0.1779 -0.7561  2.4422
  378SOL    HW2 1511   0.982   2.829   1.553 -1.4669  0.6170 -1.2032
  378SOL     MW 1512   1.017   2.801   1.628 -0.6693 -0.1192  0.0139
  379SOL     OW 1513   1.148   1.782   2.263  0.1545 -0.0005 -0.1491
  379SOL    HW1 1514   1.060   1.750   2.270 -0.0237  1.8166  1.2891
  379SOL    HW2 1515   1.194   1.706   2.220 -1.7556 -2.9980  0.6597
  379SOL     MW 1516   1.142   1.768   2.258 -0.1210 -0.1563  0.1474
  380SOL     OW 1517   0.787   0.059   1.569 -0.8248 -0.2801 -0.1136
  380SOL    HW1 1518   0.845   0.030   1.504 -0.0222 -1.2205  2.7623
  380SOL    HW2 1519   0.850   0.097   1.632  0.7536 -2.0518  1.8449
  380SOL     MW 1520   0.803   0.060   1.569 -0.5107 -0.6379  0.5243
  381SOL     OW 1521   0.826   2.036   0.773 -0.0054  1.0293 -0.6334
  381SOL    HW1 1522   0.917   1.996   0.761 -1.1217 -0.7392  0.7983
  381SOL    HW2 1523   0.847   2.100   0.840 -0.6791  1.8055 -0.1579
  381SOL     MW 1524   0.841   2.039   0.780 -0.2416  0.8984 -0.3818
  382SOL     OW 1525   0.613   0.108   0.688 -0.0275 -0.3550 -0.0972
  382SOL    HW1 1526   0.644   0.075   0.780 -0.3280 -1.8673  2.1913
  382SOL    HW2 1527   0.581   0.022   0.654  1.4945  1.6621 -0.3247
  382SOL     MW 1528   0.613   0.092   0.696  0.1336 -0.2884  0.1747
  383SOL     OW 1529   0.562   3.058   0.349 -0.2918 -0.2551 -0.0996
  383SOL    HW1 1530   0.597   2.997   0.286 -0.1931  0.3701  1.6053
  383SOL    HW2 1531   0.494   3.018   0.402  3.9345 -0.4168  1.0467
  383SOL     MW 1532   0.558   3.044   0.348  0.2788 -0.1939  0.2766
  384SOL     OW 1533   0.608   2.951   0.637  0.3618  0.3906 -0.2422
  384SOL    HW1 1534   0.677   2.899   0.670 -2.0839 -1.0973  1.6509
  384SOL    HW2 1535   0.538   2.898   0.666  0.8332  1.3359  0.1852
  384SOL     MW 1536   0.608   2.937   0.645  0.1013  0.3190  0.0640
  385SOL     OW 1537   1.326   2.073   1.502  0.3436  0.6049  0.2538
  385SOL    HW1 1538   1.402   2.115   1.547  2.9218 -0.6400  0.5349
  385SOL    HW2 1539   1.304   2.004   1.567 -2.9767  0.2227 -3.0885
  385SOL     MW 1540   1.333   2.070   1.516  0.2457  0.3902 -0.1501
  386SOL     OW 1541   1.299   0.368   0.823 -0.2095 -0.1508  0.5945
  386SOL    HW1 1542   1.231   0.390   0.888 -3.7956 -0.4390  1.1594
  386SOL    HW2 1543   1.318   0.280   0.842 -0.8845 -0.4547 -1.4204
  386SOL     MW 1544   1.293   0.359   0.834 -0.7718 -0.2289  0.4032
  387SOL     OW 1545   0.886   2.157   1.480 -0.4222  0.2507  0.2835
  387SOL    HW1 1546   0.902   2.231   1.422  2.5941  1.1184  0.9560
  387SOL    HW2 1547   0.861   2.086   1.421  0.0517  2.8888  0.3800
  387SOL     MW 1548   0.885   2.157   1.464  0.0383  0.7133  0.3849
  388SOL     OW 1549   1.572   2.814   1.204 -0.2196 -0.2282  0.5373
  388SOL    HW1 1550   1.486   2.776   1.187  0.8002  0.3782  2.4930
  388SOL    HW2 1551   1.635   2.770   1.153 -0.9260  1.5388  0.3328
  388SOL     MW 1552   1.569   2.803   1.195 -0.1783  0.0849  0.7684
  389SOL     OW 1553   0.453   0.043   3.032  0.5768  0.1178  0.0258
  389SOL    HW1 1554   0.543   0.088   3.031 -0.0361  1.0842  0.5852
  389SOL    HW2 1555   0.432   0.067   2.945  1.3361 -2.1044 -0.9366
  389SOL     MW 1556   0.462   0.052   3.021  0.5961 -0.0479 -0.0273
  390SOL     OW 1557   1.290   0.101   0.647 -0.4671 -0.2585 -0.1457
  390SOL    HW1 1558   1.362   0.097   0.586 -0.5110  2.8762  1.6511
  390SOL    HW2 1559   1.332   0.105   0.736 -0.6508  1.0026 -0.8210
  390SOL     MW 1560   1.305   0.101   0.651 -0.4971  0.3215  0.0023
  391SOL     OW 1561   0.308   2.205   1.377  0.2816 -0.6458  0.3073
  391SOL    HW1 1562   0.253   2.125   1.415 -1.3612 -0.6807  0.8971
  391SOL    HW2 1563   0.257   2.288   1.382 -0.1518  0.3279  0.2810
  391SOL     MW 1564   0.294   2.205   1.383  0.0076 -0.5219  0.3817
  392SOL     OW 1565   2.040   2.192   0.374  0.4693  0.0188 -0.3275
  392SOL    HW1 1566   2.097   2.139   0.425 -1.3571 -0.6123  0.4658
  392SOL    HW2 1567   2.015   2.261   0.433  0.4324 -3.2889  0.7391
  392SOL     MW 1568   2.044   2.194   0.388  0.2234 -0.5009 -0.0821
  393SOL     OW 1569   0.148   3.059   2.746 -0.0188 -0.1193 -0.0817
  393SOL    HW1 1570   0.238   3.072   2.742 -1.9371  3.9856  1.2003
  393SOL    HW2 1571   0.118   3.151   2.735  0.2696 -0.9193  1.5413
  393SOL     MW 1572   0.156   3.073   2.744 -0.2339  0.3167  0.3016
  394SOL     OW 1573   0.918   1.745   1.523 -0.1178 -0.6098  0.2716
  394SOL    HW1 1574   0.870   1.771   1.605  1.6483 -1.2586  0.7948
  394SOL    HW2 1575   0.914   1.816   1.463  0.7940 -1.2138  0.7016
  394SOL     MW 1576   0.911   1.758   1.526  0.2355 -0.7751  0.3973
  395SOL     OW 1577   1.041   2.798   2.587 -0.2089  0.2854  0.3426
  395SOL    HW1 1578   1.084   2.877   2.565 -0.8017 -3.5536 -3.5733
  395SOL    HW2 1579   1.098   2.726   2.566 -2.3765  0.7394 -0.5119
  395SOL     MW 1580   1.054   2.799   2.582 -0.5731 -0.1612 -0.2868
  396SOL     OW 1581   0.776   1.869   2.398 -0.7830 -0.0921 -0.1737
  396SOL    HW1 1582   0.850   1.888   2.461 -0.3842  0.7895 -0.1331
  396SOL    HW2 1583   0.761   1.772   2.397 -3.5649 -2.6042 -1.9806
  396SOL     MW 1584   0.784   1.859   2.406 -1.0974 -0.3072 -0.4067
  397SOL     OW 1585   1.008   2.324   1.251 -0.3574 -0.0745 -0.2875
  397SOL    HW1 1586   1.056   2.371   1.174  1.0021 -0.8896  1.1867
  397SOL    HW2 1587   1.076   2.328   1.323 -0.5475 -1.7668  0.4573
  397SOL     MW 1588   1.023   2.331   1.250 -0.2031 -0.4053  0.0053
  398SOL     OW 1589   0.538   2.689   0.723 -0.0435 -0.4000 -0.0135
  398SOL    HW1 1590   0.450   2.643   0.705 -1.1920  0.0041 -1.3328
  398SOL    HW2 1591   0.606   2.629   0.683 -1.1363 -2.8908 -0.3254
  398SOL     MW 1592   0.535   2.675   0.716 -0.3393 -0.6753 -0.2287
  399SOL     OW 1593   0.240   2.089   0.387  0.0341  0.1204 -0.3936
  399SOL    HW1 1594   0.196   2.170   0.402 -0.3926 -0.2804  3.1084
  399SOL    HW2 1595   0.315   2.108   0.327  2.0372 -1.5360 -3.5280
  399SOL     MW 1596   0.244   2.102   0.381  0.2421 -0.1511 -0.3451
  400SOL     OW 1597   0.541   1.896   0.168  0.4322 -0.0979  0.0553
  400SOL    HW1 1598   0.505   1.986   0.158  4.4142  3.2613  1.2923
  400SOL    HW2 1599   0.516   1.851   0.253  2.1904  0.5448  1.7299
  400SOL     MW 1600   0.533   1.902   0.178  1.1896  0.4301  0.4395
  401SOL     OW 1601   0.786   2.023   0.117 -1.4766 -0.6706 -0.0200
  401SOL    HW1 1602   0.842   1.955   0.153  1.8709 -2.3492 -0.7321
  401SOL    HW2 1603   0.691   1.991   0.131 -1.3479  0.6300  2.7791
  401SOL     MW 1604   0.781   2.010   0.123 -1.0179 -0.7205  0.2554
  402SOL     OW 1605   0.620   3.020   1.738  0.1637  0.2480  0.1404
  402SOL    HW1 1606   0.678   2.958   1.786 -1.3740  0.6894 -0.4111
  402SOL    HW2 1607   0.688   3.064   1.679 -0.3318  2.6830  2.1932
  402SOL     MW 1608   0.637   3.017   1.737 -0.1045  0.6275  0.3385
  403SOL     OW 1609   0.097   0.417   0.369  0.3014  0.0994 -0.0536
  403SOL    HW1 1610   0.162   0.449   0.426  0.6243 -2.3029  0.7214
  403SOL    HW2 1611   0.144   0.367   0.299  1.6767 -0.7739  1.6398
  403SOL     MW 1612   0.112   0.415   0.367  0.5255 -0.3328  0.2721
  404SOL     OW 1613   0.873   2.852   0.718  0.2894  0.5236 -0.6370
  404SOL    HW1 1614   0.928   2.785   0.676  1.0076  1.0434 -0.4191
  404SOL    HW2 1615   0.891   2.930   0.666 -0.4109 -1.0166 -2.0079
  404SOL     MW 1616   0.882   2.853   0.706  0.2917  0.3889 -0.7891
  405SOL     OW 1617   0.505   2.386   1.478  0.3715 -0.3356 -0.4876
  405SOL    HW1 1618   0.491   2.481   1.455 -0.7930 -1.0029  1.4900
  405SOL    HW2 1619   0.426   2.339   1.460  1.8615  2.5857  1.0039
  405SOL     MW 1620   0.493   2.392   1.472  0.4144 -0.0382 -0.0298
  406SOL     OW 1621   0.385   2.392   1.077  0.2292 -0.7363 -0.3425
  406SOL    HW1 1622   0.291   2.394   1.104  1.2297 -1.3031 -0.2083
  406SOL    HW2 1623   0.408   2.300   1.078  0.6182 -2.1329  1.6626
  406SOL     MW 1624   0.376   2.380   1.081  0.4125 -0.9953 -0.0602
  407SOL     OW 1625   3.044   2.709   1.145 -0.3784  0.1027 -0.4550
  407SOL    HW1 1626   3.122   2.701   1.207 -0.6780  0.8163 -0.0439
  407SOL    HW2 1627   3.088   2.736   1.062  0.1077 -1.5671  1.4181
  407SOL     MW 1628   3.060   2.711   1.142 -0.3538 -0.0235 -0.1536
  408SOL     OW 1629   2.119   2.074   0.790  0.2731  0.2263 -0.1218
  408SOL    HW1 1630   2.060   2.111   0.854  0.3785  1.6457 -1.6596
  408SOL    HW2 1631   2.076   1.995   0.763 -2.0497 -1.2525  1.4072
  408SOL     MW 1632   2.106   2.068   0.795 -0.0194  0.2185 -0.1230
  409SOL     OW 1633   1.415   0.116   0.897  0.5093  0.4177 -0.4023
  409SOL    HW1 1634   1.499   0.156   0.904 -0.6004 -0.1456 -0.2499
  409SOL    HW2 1635   1.411   0.079   0.984  0.0305  1.9508 -1.3256
  409SOL     MW 1636   1.426   0.116   0.909  0.2997  0.5457 -0.5040
  410SOL     OW 1637   1.130   2.463   1.032 -0.4297 -0.2194  0.2482
  410SOL    HW1 1638   1.057   2.471   0.973  0.8220  1.9246 -2.1885
  410SOL    HW2 1639   1.203   2.417   0.983  1.9035  1.4941  1.0032
  410SOL     MW 1640   1.130   2.458   1.018  0.0433  0.2896  0.0263
  411SOL     OW 1641   1.969   0.025   2.860 -0.0865  0.3138  0.4852
  411SOL    HW1 1642   1.889   0.012   2.809  2.0350 -2.4226  2.3015
  411SOL    HW2 1643   1.949   0.088   2.930  1.7710  1.7777 -1.2595
  411SOL     MW 1644   1.956   0.032   2.862  0.4385  0.1459  0.4946
  412SOL     OW 1645   0.981   2.268   0.641  0.0333 -0.1383 -0.5008
  412SOL    HW1 1646   1.055   2.328   0.658  3.1886 -3.6224  3.8742
  412SOL    HW2 1647   0.932   2.317   0.566  0.0921  0.2893  0.0101
  412SOL     MW 1648   0.984   2.282   0.634  0.4574 -0.5416  0.1439
  413SOL     OW 1649   0.517   2.793   3.060  0.3259  0.4947 -0.0631
  413SOL    HW1 1650   0.565   2.710   3.096 -1.5554 -1.8892  1.8446
  413SOL    HW2 1651   0.581   2.839   3.014  0.3984 -0.7156  0.1284
  413SOL     MW 1652   0.532   2.788   3.059  0.0872  0.0205  0.2138
  414SOL     OW 1653   1.919   2.912   1.073  0.1788 -1.1821 -0.8551
  414SOL    HW1 1654   1.878   2.911   0.987  1.8522 -1.8278  0.4681
  414SOL    HW2 1655   2.004   2.856   1.070  0.0439 -0.9876 -0.7761
  414SOL     MW 1656   1.925   2.904   1.061  0.3818 -1.2416 -0.6701
  415SOL     OW 1657   1.724   2.615   1.115  0.5895  0.4391 -0.6151
  415SOL    HW1 1658   1.679   2.557   1.184  3.0586 -1.0540  0.1803
  415SOL    HW2 1659   1.799   2.632   1.167 -0.2179  0.3300 -1.7082
  415SOL     MW 1660   1.728   2.610   1.131  0.8087  0.2277 -0.6544
  416SOL     OW 1661   0.517   1.949   1.363 -0.3453  0.1685 -0.1192
  416SOL    HW1 1662   0.460   1.995   1.297 -1.0258 -2.0943 -2.0208
  416SOL    HW2 1663   0.495   1.862   1.349 -1.3599  0.3286 -1.7318
  416SOL     MW 1664   0.507   1.944   1.352 -0.5690 -0.1090 -0.5828
  417SOL     OW 1665   1.026   3.063   2.048  0.8175  0.2031  0.7219
  417SOL    HW1 1666   0.961   3.056   2.125  2.6666  1.7692 -2.6976
  417SOL    HW2 1667   0.989   3.004   1.972 -3.0342 -0.1494 -1.4679
  417SOL     MW 1668   1.012   3.054   2.048  0.5533  0.3632 -0.0182
  418SOL     OW 1669   0.689   2.885   0.148  0.5150 -0.3793 -0.1652
  418SOL    HW1 1670   0.765   2.908   0.095 -0.5513 -0.2144 -1.1670
  418SOL    HW2 1671   0.616   2.864   0.083  1.0510 -0.2099 -1.0992
  418SOL     MW 1672   0.689   2.885   0.132  0.4451 -0.3352 -0.4206
  419SOL     OW 1673   0.451   2.644   1.408 -0.1217  0.2969 -0.0267
  419SOL    HW1 1674   0.522   2.705   1.437  1.7284  0.4656  1.1424
  419SOL    HW2 1675   0.484   2.632   1.315  0.0173  3.8973  3.1701
  419SOL     MW 1676   0.465   2.650   1.400  0.1408  0.7942  0.5493
  420SOL     OW 1677   0.872   2.209   0.972  0.4118  0.2289 -0.7100
  420SOL    HW1 1678   0.803   2.228   1.038 -2.5996  2.9174 -2.1867
  420SOL    HW2 1679   0.941   2.268   0.992 -1.2792 -2.3081 -0.8847
  420SOL     MW 1680   0.872   2.219   0.983 -0.2086  0.2489 -0.9279
  421SOL     OW 1681   2.947   0.036   0.023  0.1486 -0.0603  0.5508
  421SOL    HW1 1682   2.890   0.019  -0.052  1.7150 -1.1790 -0.7574
  421SOL    HW2 1683   2.982  -0.044   0.053 -0.2653  1.1585 -0.4734
  421SOL     MW 1684   2.944   0.023   0.017  0.3007 -0.0471  0.2431
  422SOL     OW 1685   0.901   2.522   0.890 -0.1024  0.6194  0.0723
  422SOL    HW1 1686   0.857   2.603   0.919 -0.7965  1.4306 -0.9080
  422SOL    HW2 1687   0.892   2.528   0.792 -0.9103  0.5282 -2.5054
  422SOL     MW 1688   0.894   2.533   0.881 -0.3006  0.7144 -0.3972
  423SOL     OW 1689   1.540   0.131   0.509  0.1249 -0.7103 -0.2661
  423SOL    HW1 1690   1.504   0.124   0.417 -0.4431  2.2212 -1.5083
  423SOL    HW2 1691   1.534   0.231   0.519 -0.3509  1.9469  3.8648
  423SOL     MW 1692   1.535   0.143   0.498 -0.0128  0.0271  0.1150
  424SOL     OW 1693   0.689   2.265   1.166 -0.0977  0.0278  0.3266
  424SOL    HW1 1694   0.614   2.210   1.167  1.6206  1.2475 -0.0371
  424SOL    HW2 1695   0.687   2.319   1.247 -1.5814 -1.6594 -0.7132
  424SOL     MW 1696   0.679   2.265   1.177 -0.0667 -0.0338  0.1414
  425SOL     OW 1697   1.721   2.836   1.970  0.0143 -0.2298  0.2261
  425SOL    HW1 1698   1.739   2.846   1.874 -1.6804  0.1674  0.5476
  425SOL    HW2 1699   1.774   2.761   1.990  0.5665  0.1582 -1.0070
  425SOL     MW 1700   1.731   2.827   1.960 -0.1364 -0.1262  0.1058
  426SOL     OW 1701   0.825   1.687   1.947 -0.8948  0.1567  0.0006
  426SOL    HW1 1702   0.763   1.721   1.876 -0.8033 -2.5227 -0.4475
  426SOL    HW2 1703   0.822   1.757   2.007  1.0871 -2.4959 -1.9832
  426SOL     MW 1704   0.816   1.701   1.946 -0.6213 -0.5468 -0.3203
  427SOL     OW 1705   0.370   1.612   1.892  0.1523  0.0653  0.1685
  427SOL    HW1 1706   0.401   1.532   1.855 -1.6184  0.4411 -0.0548
  427SOL    HW2 1707   0.310   1.579   1.960  3.5412 -2.1705  2.0147
  427SOL     MW 1708   0.366   1.597   1.896  0.3658 -0.1801  0.3826
  428SOL     OW 1709   0.587   2.539   1.194  0.4237 -0.3737 -0.1925
  428SOL    HW1 1710   0.678   2.530   1.235  0.3732  1.3257  3.4737
  428SOL    HW2 1711   0.559   2.463   1.137 -1.2869  2.9225 -1.1318
  428SOL     MW 1712   0.596   2.528   1.192  0.1913  0.2854  0.1673
  429SOL     OW 1713   1.334   2.718   1.107  0.2386  0.4185  0.3785
  429SOL    HW1 1714   1.253   2.672   1.119 -2.0608  2.0968 -0.1098
  429SOL    HW2 1715   1.302   2.791   1.057  1.8275  0.5289  1.0345
  429SOL     MW 1716   1.319   2.722   1.102  0.1448  0.6545  0.4006
  430SOL     OW 1717   1.166   2.702   0.718 -0.4147 -0.0807  0.2805
  430SOL    HW1 1718   1.166   2.606   0.715 -0.3068 -0.3267 -2.1713
  430SOL    HW2 1719   1.126   2.720   0.637  1.1286  0.7234  2.4811
  430SOL     MW 1720   1.160   2.692   0.707 -0.1968 -0.0070  0.2473
  431SOL     OW 1721   0.300   1.916   1.079  0.4320  0.3867 -0.1380
  431SOL    HW1 1722   0.371   1.880   1.027  0.9268  0.5265  0.9112
  431SOL    HW2 1723   0.243   1.967   1.011 -1.3388  0.5163 -1.6741
  431SOL     MW 1724   0.302   1.918   1.063  0.2636  0.4223 -0.2022
  432SOL     OW 1725   0.055   3.089   1.120 -0.2172 -0.0102  0.9693
  432SOL    HW1 1726   0.075   3.133   1.204 -1.5305 -1.5390  2.3819
  432SOL    HW2 1727  -0.036   3.056   1.122  0.6057  0.3157  1.9700
  432SOL     MW 1728   0.045   3.090   1.131 -0.2819 -0.1689  1.2877
  433SOL     OW 1729   0.623   2.838   1.512 -0.5875  0.1214  0.6689
  433SOL    HW1 1730   0.608   2.881   1.602  1.0193  2.3345  0.3188
  433SOL    HW2 1731   0.716   2.845   1.487 -1.1835  0.3208  0.5959
  433SOL     MW 1732   0.634   2.845   1.520 -0.4542  0.4397  0.6130
  434SOL     OW 1733   1.600   2.821   1.490  0.4697  0.5559  0.0397
  434SOL    HW1 1734   1.516   2.867   1.482  1.3028  0.4336 -1.0335
  434SOL    HW2 1735   1.613   2.805   1.394  2.7362  1.4108 -3.1407
  434SOL     MW 1736   1.591   2.825   1.476  0.8787  0.6526 -0.5215
  435SOL     OW 1737   2.793   1.818   0.219  0.0979  0.0727  0.0401
  435SOL    HW1 1738   2.846   1.893   0.179  3.3527 -0.3910 -0.8944
  435SOL    HW2 1739   2.790   1.753   0.154  0.4544 -1.9226  1.1600
  435SOL     MW 1740   2.800   1.819   0.205  0.5743 -0.2517  0.0646
  436SOL     OW 1741   1.317   2.799   0.345  0.4507 -0.4065  0.5354
  436SOL    HW1 1742   1.389   2.771   0.406  1.9451 -0.0476 -0.0073
  436SOL    HW2 1743   1.278   2.884   0.385  0.2844 -1.1957 -1.2291
  436SOL     MW 1744   1.321   2.806   0.358  0.6259 -0.4633  0.2310
  437SOL     OW 1745   0.896   2.868   1.414  0.3062  0.0678 -0.2978
  437SOL    HW1 1746   0.876   2.960   1.397 -0.1718  0.8044  2.4669
  437SOL    HW2 1747   0.908   2.830   1.326 -1.1815 -0.2780 -0.5389
  437SOL     MW 1748   0.895   2.875   1.400  0.0468  0.1194  0.0352
  438SOL     OW 1749   0.858   2.653   1.896  0.0891 -0.1016  0.0290
  438SOL    HW1 1750   0.848   2.631   1.983 -3.1612 -0.0561 -1.7355
  438SOL    HW2 1751   0.787   2.605   1.853 -1.7671  0.6284  2.0792
  438SOL     MW 1752   0.847   2.644   1.901 -0.5846  0.0007  0.0667
  439SOL     OW 1753   1.133   2.141   0.421  0.2123  0.0243  0.3952
  439SOL    HW1 1754   1.082   2.187   0.494  2.1564  1.3102  1.1498
  439SOL    HW2 1755   1.135   2.211   0.356 -0.5246 -1.7691  0.8720
  439SOL     MW 1756   1.127   2.156   0.422  0.3716 -0.0426  0.5576
  440SOL     OW 1757   1.714   2.988   0.006  0.3223 -0.1236  0.5071
  440SOL    HW1 1758   1.665   2.951   0.073  0.7195 -1.0885 -4.1036
  440SOL    HW2 1759   1.798   2.934   0.013  1.3481 -1.3695 -0.0417
  440SOL     MW 1760   1.718   2.976   0.016  0.5100 -0.4153 -0.1736
  441SOL     OW 1761   0.331   2.663   0.497 -0.8081  0.0042  0.3038
  441SOL    HW1 1762   0.313   2.646   0.408 -2.8006  1.0562 -0.9703
  441SOL    HW2 1763   0.352   2.762   0.504  0.9244  0.0218  0.0533
  441SOL     MW 1764   0.332   2.674   0.486 -0.8424  0.1453  0.1026
  442SOL     OW 1765   3.060   2.370   0.615 -0.1749  0.0475 -0.3407
  442SOL    HW1 1766   3.095   2.468   0.598  2.4914  4.2165 -0.1959
  442SOL    HW2 1767   2.973   2.380   0.649  0.6068  1.8436 -2.1830
  442SOL     MW 1768   3.053   2.384   0.617  0.2800  0.8346 -0.5646
  443SOL     OW 1769   1.414   1.807   1.907 -0.3150  0.0957 -0.4793
  443SOL    HW1 1770   1.371   1.837   1.822 -0.1396  0.8693 -2.5557
  443SOL    HW2 1771   1.375   1.721   1.925  2.5527  1.9874  0.8179
  443SOL     MW 1772   1.403   1.799   1.898  0.0865  0.4473 -0.5821
  444SOL     OW 1773   0.887   2.561   1.602 -0.1063 -0.1017 -0.0121
  444SOL    HW1 1774   0.947   2.491   1.618  0.3041  0.1369 -0.4306
  444SOL    HW2 1775   0.809   2.536   1.648 -1.2534 -1.1491  2.0013
  444SOL     MW 1776   0.885   2.549   1.610 -0.2035 -0.2084  0.1983
  445SOL     OW 1777   0.907   0.029   1.301  0.0436  0.8208  0.5172
  445SOL    HW1 1778   0.847   0.104   1.299 -0.2068  0.9761  0.4984
  445SOL    HW2 1779   0.985   0.038   1.240  0.4830 -1.3737  0.2117
  445SOL     MW 1780   0.909   0.040   1.293  0.0685  0.5517  0.4744
  446SOL     OW 1781   2.707   2.865   1.068  0.1395  0.7350 -0.2436
  446SOL    HW1 1782   2.680   2.900   0.981  1.8283  0.5063  1.2586
  446SOL    HW2 1783   2.737   2.773   1.048  1.2001  1.2488 -0.7106
  446SOL     MW 1784   2.708   2.857   1.054  0.5022  0.7726 -0.1070
  447SOL     OW 1785   0.019   2.053   1.692  0.0668 -0.1078 -0.4306
  447SOL    HW1 1786   0.062   2.008   1.764  0.0174  0.9019  3.5652
  447SOL    HW2 1787  -0.042   1.991   1.649  0.0966 -0.9129 -2.0385
  447SOL     MW 1788   0.017   2.039   1.696  0.0642 -0.0808 -0.1156
  448SOL     OW 1789   1.722   2.367   1.686 -0.4400 -0.5914  0.0553
  448SOL    HW1 1790   1.651   2.308   1.679  0.3727 -1.3568  1.1815
  448SOL    HW2 1791   1.683   2.446   1.654 -0.8790 -0.5506 -1.1125
  448SOL     MW 1792   1.708   2.370   1.681 -0.3907 -0.6870  0.0498
  449SOL     OW 1793   0.764   2.838   0.400 -0.0380 -0.2201  0.2666
  449SOL    HW1 1794   0.749   2.844   0.305  0.8519  0.1090  0.4648
  449SOL    HW2 1795   0.687   2.866   0.449  0.6707  0.4871  0.0582
  449SOL     MW 1796   0.752   2.842   0.394  0.1729 -0.0833  0.2653
  450SOL     OW 1797   1.191   2.431   0.658  0.1087  0.3609  0.1372
  450SOL    HW1 1798   1.219   2.409   0.744 -1.3137 -0.4041 -2.0686
  450SOL    HW2 1799   1.280   2.428   0.621  2.0633  1.0815 -1.7225
  450SOL     MW 1800   1.206   2.427   0.664  0.1790  0.3551 -0.3992
  451SOL     OW 1801   0.528   2.004   1.626  0.0855  0.3143  0.0068
  451SOL    HW1 1802   0.589   2.071   1.618 -2.1270 -1.4310 -1.5350
  451SOL    HW2 1803   0.495   1.995   1.533 -0.1039  0.7828 -0.9789
  451SOL     MW 1804   0.532   2.011   1.612 -0.2314  0.1458 -0.3267
  452SOL     OW 1805   0.254   2.716   0.015 -0.3089 -0.2635  0.0401
  452SOL    HW1 1806   0.337   2.751  -0.011 -0.7169  0.0742  0.8216
  452SOL    HW2 1807   0.193   2.756  -0.054 -0.5874 -1.8589  0.0489
  452SOL     MW 1808   0.257   2.726   0.002 -0.3994 -0.4295  0.1444
  453SOL     OW 1809   0.357   2.916   1.694  0.0160 -0.6343 -0.2915
  453SOL    HW1 1810   0.436   2.965   1.681 -0.4493  1.8085  0.4230
  453SOL    HW2 1811   0.330   2.914   1.600 -0.7451 -0.6226  0.6741
  453SOL     MW 1812   0.364   2.922   1.680 -0.1458 -0.3105 -0.0698
  454SOL     OW 1813   0.983   2.759   1.178  0.3240  0.1426  0.4721
  454SOL    HW1 1814   0.975   2.666   1.176  2.4357  1.2174 -1.3987
  454SOL    HW2 1815   0.932   2.794   1.101 -0.3884  1.6348 -0.6859
  454SOL     MW 1816   0.975   2.751   1.167  0.5086  0.4813  0.0725
  455SOL     OW 1817   1.578   2.915   0.217  0.4987 -0.0671  0.3101
  455SOL    HW1 1818   1.652   2.903   0.280 -0.9412  1.7602  0.3517
  455SOL    HW2 1819   1.526   2.832   0.217 -0.4628 -0.3677  0.0425
  455SOL     MW 1820   1.581   2.902   0.225  0.1819  0.1343  0.2803
  456SOL     OW 1821   2.850   0.321   1.358 -0.6646 -0.1911 -0.2034
  456SOL    HW1 1822   2.789   0.258   1.312  0.0164  3.8541 -0.1092
  456SOL    HW2 1823   2.916   0.329   1.289 -0.1832  0.0274 -1.0022
  456SOL     MW 1824   2.851   0.314   1.343 -0.5112  0.3715 -0.2963
  457SOL     OW 1825   0.962   1.538   2.920 -0.6213  0.8201 -0.2590
  457SOL    HW1 1826   0.878   1.504   2.952 -2.2573 -0.9392 -1.5312
  457SOL    HW2 1827   1.035   1.489   2.964  2.3072  1.6390 -0.8148
  457SOL     MW 1828   0.961   1.527   2.930 -0.4508  0.6960 -0.5002
  458SOL     OW 1829   1.458   1.386   0.555  0.5757  0.2714  0.4286
  458SOL    HW1 1830   1.369   1.411   0.590 -0.9480 -0.1207 -0.4689
  458SOL    HW2 1831   1.438   1.335   0.479  0.6722  2.9148 -1.1862
  458SOL     MW 1832   1.443   1.383   0.549  0.3874  0.5684  0.0971
  459SOL     OW 1833   1.485   0.075   0.226  0.1709 -0.3837  0.4794
  459SOL    HW1 1834   1.508  -0.019   0.223 -0.2601  0.3594  0.0774
  459SOL    HW2 1835   1.427   0.099   0.152  0.2970 -1.9848 -1.0385
  459SOL     MW 1836   1.481   0.066   0.216  0.1307 -0.4969  0.2261
  460SOL     OW 1837   1.805   2.184   0.614 -0.3303  0.4189 -0.2567
  460SOL    HW1 1838   1.722   2.150   0.648 -0.2325  0.7597 -0.9159
  460SOL    HW2 1839   1.851   2.109   0.571  2.4850  1.2389 -1.5121
  460SOL     MW 1840   1.800   2.170   0.613  0.0541  0.5720 -0.5093
  461SOL     OW 1841   0.428   2.404   0.599 -0.5343 -0.8000 -0.2727
  461SOL    HW1 1842   0.375   2.478   0.568  0.3656 -0.4116 -2.2864
  461SOL    HW2 1843   0.432   2.422   0.693  0.4370 -1.5219 -2.2350
  461SOL     MW 1844   0.422   2.416   0.607 -0.2874 -0.8440 -0.7973
  462SOL     OW 1845   0.393   0.267   1.303  0.1132  0.0063  0.3293
  462SOL    HW1 1846   0.444   0.211   1.250 -2.7134 -0.5289  2.2641
  462SOL    HW2 1847   0.463   0.335   1.323  1.7004  0.9389 -0.2356
  462SOL     MW 1848   0.409   0.269   1.298 -0.0503  0.0588  0.5101
  463SOL     OW 1849   0.894   0.031   0.661  0.3402  0.3868 -0.6219
  463SOL    HW1 1850   0.920   0.021   0.565  1.2737 -0.2712 -1.8011
  463SOL    HW2 1851   0.802   0.061   0.653  1.5053  2.3298 -3.4002
  463SOL     MW 1852   0.886   0.033   0.647  0.6171  0.5563 -1.1441
  464SOL     OW 1853   0.852   3.053   2.270  0.5175 -0.0364 -0.0120
  464SOL    HW1 1854   0.796   2.974   2.256  0.8836  0.0957 -0.4521
  464SOL    HW2 1855   0.866   3.046   2.364 -0.9499 -3.7488  2.1583
  464SOL     MW 1856   0.847   3.041   2.280  0.3722 -0.5088  0.2163
  465SOL     OW 1857   0.673   0.301   0.496  0.1080  0.1902  0.5213
  465SOL    HW1 1858   0.648   0.241   0.569 -2.3698  0.2239 -0.2878
  465SOL    HW2 1859   0.713   0.238   0.438 -1.8386  1.7870 -1.6596
  465SOL     MW 1860   0.675   0.284   0.498 -0.4758  0.4054  0.1268
  466SOL     OW 1861   1.076   1.987   0.695 -0.0773 -0.1761 -0.0963
  466SOL    HW1 1862   1.069   1.906   0.643 -0.6708 -0.4363 -1.3101
  466SOL    HW2 1863   1.046   2.054   0.639 -0.5215 -2.8672 -0.4931
  466SOL     MW 1864   1.071   1.985   0.681 -0.2142 -0.5655 -0.3088
  467SOL     OW 1865   1.289   2.294   0.891  0.3115  0.1258  0.4781
  467SOL    HW1 1866   1.382   2.293   0.902  0.3744  0.2286 -2.7469
  467SOL    HW2 1867   1.266   2.202   0.875 -3.2432  0.7097  1.7780
  467SOL     MW 1868   1.298   2.282   0.890 -0.1492  0.2164  0.2241
  468SOL     OW 1869   0.372   2.599   1.959  0.3909  0.0729  0.1606
  468SOL    HW1 1870   0.394   2.530   1.894 -0.2404  0.6153 -0.3575
  468SOL    HW2 1871   0.334   2.680   1.927 -0.5162 -0.4409 -0.3852
  468SOL     MW 1872   0.370   2.601   1.946  0.1879  0.0767  0.0202
  469SOL     OW 1873   0.369   2.154   1.803  0.3311  0.5653  0.0056
  469SOL    HW1 1874   0.298   2.103   1.847 -0.8150 -1.5926  1.7915
  469SOL    HW2 1875   0.411   2.089   1.744  1.1437  1.5180 -1.1446
  469SOL     MW 1876   0.365   2.139   1.801  0.2871  0.4063  0.0895
  470SOL     OW 1877   3.026   2.533   0.107  0.3141  0.1743 -0.0323
  470SOL    HW1 1878   2.935   2.515   0.136  0.5999  1.5118  0.2054
  470SOL    HW2 1879   3.016   2.561   0.016 -1.7293  0.9832  0.9739
  470SOL     MW 1880   3.013   2.535   0.099  0.0822  0.4575  0.1318
  471SOL     OW 1881   1.176   2.742   1.417 -0.0859  0.0926  0.0760
  471SOL    HW1 1882   1.129   2.755   1.501  1.3765  1.6058  1.0678
  471SOL    HW2 1883   1.130   2.792   1.345 -3.9125 -1.2460 -0.7419
  471SOL     MW 1884   1.163   2.750   1.419 -0.3979  0.1156  0.0990
  472SOL     OW 1885   2.944   2.094   0.414  0.0358  0.7732  0.2712
  472SOL    HW1 1886   2.954   2.063   0.320  1.1837 -1.8756 -0.0854
  472SOL    HW2 1887   2.902   2.018   0.459 -1.0357 -0.5150 -0.5562
  472SOL     MW 1888   2.940   2.080   0.407  0.0459  0.2537  0.1150
  473SOL     OW 1889   0.826   2.518   1.297  0.1006  0.1221 -0.3002
  473SOL    HW1 1890   0.885   2.446   1.269 -0.7546  1.8759  0.3551
  473SOL    HW2 1891   0.855   2.551   1.386  1.9618 -0.4003  0.7675
  473SOL     MW 1892   0.837   2.513   1.305  0.2333  0.2845 -0.0729
  474SOL     OW 1893   0.780   2.181   1.742  0.9720 -0.3152 -0.1039
  474SOL    HW1 1894   0.873   2.209   1.768  3.4336 -1.5546  0.3299
  474SOL    HW2 1895   0.806   2.157   1.652 -2.8260 -1.1085  2.2455
  474SOL     MW 1896   0.796   2.182   1.733  0.7957 -0.5834  0.2633
  475SOL     OW 1897   1.609   0.005   1.450 -0.1109 -0.5454  0.3818
  475SOL    HW1 1898   1.535   0.032   1.397 -0.0602 -0.4245  3.5135
  475SOL    HW2 1899   1.618  -0.087   1.451 -1.2538  0.8960 -1.4009
  475SOL     MW 1900   1.600  -0.004   1.444 -0.2550 -0.3393  0.5598
  476SOL     OW 1901   1.479   2.602   0.876 -0.1894  0.1575 -0.1640
  476SOL    HW1 1902   1.446   2.643   0.952 -3.6612 -1.4324  0.1539
  476SOL    HW2 1903   1.532   2.673   0.832  1.4479  0.6937 -0.7212
  476SOL     MW 1904   1.481   2.617   0.880 -0.4315  0.0185 -0.1956
  477SOL     OW 1905   0.757   2.549   0.638 -0.3049 -0.3730 -0.0525
  477SOL    HW1 1906   0.831   2.599   0.599 -1.9860 -2.4627 -0.5168
  477SOL    HW2 1907   0.765   2.471   0.584  1.7822 -0.8374 -0.5465
  477SOL     MW 1908   0.768   2.546   0.625 -0.2513 -0.7100 -0.1789
  478SOL     OW 1909   0.092   2.693   0.908 -0.0419  0.0526  0.0977
  478SOL    HW1 1910   0.152   2.760   0.929 -0.5499 -1.2393  5.3837
  478SOL    HW2 1911   0.150   2.621   0.859 -0.2333 -1.9458 -0.3938
  478SOL     MW 1912   0.108   2.692   0.905 -0.1342 -0.3815  0.7303
  479SOL     OW 1913   1.407   1.932   1.288 -0.1900  0.5719  0.4109
  479SOL    HW1 1914   1.378   1.975   1.370  0.7470 -2.0651 -1.1853
  479SOL    HW2 1915   1.487   1.892   1.310 -0.2471  0.2735  0.3930
  479SOL     MW 1916   1.414   1.933   1.302 -0.0739  0.1846  0.1979
  480SOL     OW 1917   1.892   2.346   1.369  0.0580 -0.4099  0.0446
  480SOL    HW1 1918   1.925   2.278   1.429  2.1044 -1.1116 -1.4224
  480SOL    HW2 1919   1.963   2.374   1.309  1.2330  1.0933 -2.3648
  480SOL     MW 1920   1.906   2.341   1.369  0.4830 -0.3041 -0.4669
  481SOL     OW 1921   1.214   0.011   1.147 -0.1226 -0.5465 -0.4745
  481SOL    HW1 1922   1.231  -0.053   1.079 -2.7758 -0.5735 -0.5218
  481SOL    HW2 1923   1.181   0.096   1.105 -4.7645 -0.4420  1.6711
  481SOL     MW 1924   1.212   0.013   1.132 -1.0851 -0.5363 -0.1977
  482SOL     OW 1925   0.927   3.057   0.411 -0.1335  0.0955 -0.2200
  482SOL    HW1 1926   0.866   2.991   0.371 -1.1651 -1.5525 -0.6676
  482SOL    HW2 1927   0.901   3.145   0.382 -0.7553  0.7636 -0.6297
  482SOL     MW 1928   0.916   3.060   0.402 -0.3516 -0.0338 -0.3331
  483SOL     OW 1929   0.369   2.932   0.476 -0.0140 -0.0347 -0.9313
  483SOL    HW1 1930   0.295   2.941   0.415  2.4313 -1.1942  0.1986
  483SOL    HW2 1931   0.348   2.976   0.561  0.6560  1.1727 -0.3038
  483SOL     MW 1932   0.357   2.939   0.479  0.3970 -0.0284 -0.6995
  484SOL     OW 1933   1.670   1.825   1.376  0.5198 -0.3416 -0.0244
  484SOL    HW1 1934   1.719   1.910   1.366 -0.9574  1.5830  4.2287
  484SOL    HW2 1935   1.643   1.823   1.467 -0.2693 -2.1994  0.8795
  484SOL     MW 1936   1.673   1.836   1.387  0.2208 -0.3328  0.6560
  485SOL     OW 1937   0.533   2.414   0.295  0.3210  0.5281  0.5284
  485SOL    HW1 1938   0.586   2.420   0.368 -3.4760 -1.8213  0.0266
  485SOL    HW2 1939   0.441   2.417   0.323 -0.6630  0.9071  1.2311
  485SOL     MW 1940   0.528   2.415   0.309 -0.3098  0.2681  0.5549
  486SOL     OW 1941   0.134   2.418   1.383 -0.1432 -0.2279  0.0955
  486SOL    HW1 1942   0.155   2.509   1.368 -1.9749 -1.0084  1.2291
  486SOL    HW2 1943   0.104   2.439   1.474 -1.5188  0.0879 -0.5019
  486SOL     MW 1944   0.133   2.433   1.393 -0.5664 -0.2892  0.1663
  487SOL     OW 1945   1.277   1.578   1.072  0.2064 -0.3669 -0.3121
  487SOL    HW1 1946   1.262   1.676   1.085 -1.4915  1.4768 -0.3590
  487SOL    HW2 1947   1.332   1.572   1.001 -2.7038  1.9622  0.8277
  487SOL     MW 1948   1.282   1.591   1.064 -0.4016  0.1837 -0.1679
  488SOL     OW 1949   1.658   1.860   0.542  0.2974  0.0812  0.1237
  488SOL    HW1 1950   1.739   1.914   0.560  1.3373  0.5528  0.3848
  488SOL    HW2 1951   1.597   1.917   0.500  1.1662 -1.4898 -0.9716
  488SOL     MW 1952   1.661   1.874   0.539  0.5492 -0.0639  0.0137
  489SOL     OW 1953   0.696   0.773   0.593 -0.2781 -0.4263  0.3295
  489SOL    HW1 1954   0.740   0.691   0.598 -1.4183  0.1303 -2.1740
  489SOL    HW2 1955   0.674   0.786   0.686 -2.7518  0.5887 -1.0645
  489SOL     MW 1956   0.699   0.764   0.606 -0.7549 -0.2189 -0.1847
  490SOL     OW 1957   1.386   2.096   0.451  0.7311 -0.0771 -0.0454
  490SOL    HW1 1958   1.447   2.162   0.427  1.3766 -0.3167 -0.0914
  490SOL    HW2 1959   1.292   2.129   0.446  0.5586  1.3089 -1.2520
  490SOL     MW 1960   1.382   2.109   0.447  0.7935  0.0741 -0.2106
  491SOL     OW 1961   1.197   3.005   0.472 -0.0842  0.1666  0.2449
  491SOL    HW1 1962   1.201   3.050   0.557 -0.0138 -3.6025 -0.0899
  491SOL    HW2 1963   1.111   3.039   0.437  1.5665  1.5257  1.6428
  491SOL     MW 1964   1.186   3.015   0.479  0.1429 -0.1514  0.3851
  492SOL     OW 1965   1.520   2.119   0.687  0.1231 -0.5489 -0.9484
  492SOL    HW1 1966   1.464   2.104   0.612 -4.0841 -3.3382  0.1281
  492SOL    HW2 1967   1.484   2.064   0.754  1.0592 -1.2903 -1.6252
  492SOL     MW 1968   1.508   2.110   0.686 -0.3085 -1.0148 -0.8957
  493SOL     OW 1969   0.116   2.914   0.357  0.2050  0.3704 -0.1502
  493SOL    HW1 1970   0.088   2.968   0.432 -1.8773  0.4051 -1.7929
  493SOL    HW2 1971   0.146   2.968   0.287  1.1803 -1.2447  1.3102
  493SOL     MW 1972   0.116   2.928   0.358  0.0590  0.1619 -0.1742
  494SOL     OW 1973   0.395   2.429   1.739 -0.4217  0.6352  0.2807
  494SOL    HW1 1974   0.353   2.341   1.765 -1.2845 -1.1607 -1.0457
  494SOL    HW2 1975   0.439   2.407   1.660  0.2259 -0.7703 -0.0499
  494SOL     MW 1976   0.396   2.414   1.732 -0.4501  0.2128  0.0621
  495SOL     OW 1977   2.902   1.691   2.714  0.1769  0.3693  0.0265
  495SOL    HW1 1978   2.867   1.778   2.743  0.1059  1.1253 -0.2033
  495SOL    HW2 1979   2.909   1.631   2.794  2.5516 -1.2658  0.9105
  495SOL     MW 1980   2.898   1.694   2.728  0.4809  0.2533  0.1128
  496SOL     OW 1981   2.876   2.299   2.642 -0.2450  0.6956  0.2497
  496SOL    HW1 1982   2.914   2.230   2.700  1.3258  0.1198 -0.8164
  496SOL    HW2 1983   2.959   2.347   2.646 -1.0054 -1.0878  3.9779
  496SOL     MW 1984   2.892   2.296   2.650 -0.1381  0.3843  0.6010
  497SOL     OW 1985   1.554   2.277   2.582  0.1010  0.3821  0.5902
  497SOL    HW1 1986   1.534   2.254   2.489  2.1846  0.5939  0.4612
  497SOL    HW2 1987   1.491   2.237   2.638  0.6177 -3.0604 -0.2664
  497SOL     MW 1988   1.543   2.269   2.577  0.4441 -0.0442  0.4601
  498SOL     OW 1989   1.553   2.709   2.316 -0.3053  0.6774  0.4967
  498SOL    HW1 1990   1.564   2.627   2.260  2.7103 -0.8285 -0.7676
  498SOL    HW2 1991   1.629   2.687   2.372  2.5134 -3.1768  0.7436
  498SOL     MW 1992   1.565   2.695   2.316  0.4645 -0.0298  0.3624
  499SOL     OW 1993   0.895   0.161   0.031  0.1729 -0.2619  0.0413
  499SOL    HW1 1994   0.828   0.184   0.096 -2.9072 -1.5640 -0.4775
  499SOL    HW2 1995   0.901   0.060   0.029  1.2211  1.0323 -0.4666
  499SOL     MW 1996   0.887   0.150   0.040 -0.0952 -0.2630 -0.0942
  500SOL     OW 1997   1.033   2.433   2.791  0.6518  0.0656 -0.1720
  500SOL    HW1 1998   1.087   2.419   2.869  0.9542 -1.6881 -1.1157
  500SOL    HW2 1999   0.986   2.521   2.800 -0.6660 -1.3026 -0.1676
  500SOL     MW 2000   1.034   2.443   2.803  0.5178 -0.3463 -0.2959
  501SOL     OW 2001   1.747   2.286   3.082 -0.6258  0.6854  0.3673
  501SOL    HW1 2002   1.707   2.369   3.104 -0.0829 -0.9256 -1.1622
  501SOL    HW2 2003   1.822   2.272   3.141 -0.8836 -0.0064 -2.3441
  501SOL     MW 2004   1.751   2.295   3.093 -0.5882  0.3816 -0.1922
  502SOL     OW 2005   0.063   2.878   2.995  0.1291 -0.1441 -0.1604
  502SOL    HW1 2006   0.023   2.796   2.954  0.1850 -0.6811  0.7689
  502SOL    HW2 2007   0.076   2.936   2.922 -1.6311 -0.5204 -1.2904
  502SOL     MW 2008   0.059   2.875   2.980 -0.0957 -0.2646 -0.1869
  503SOL     OW 2009   1.177   2.604   2.002  0.1308  0.2185 -0.9027
  503SOL    HW1 2010   1.252   2.631   1.950 -0.3495 -0.0433  3.2508
  503SOL    HW2 2011   1.109   2.613   1.934 -1.3387  1.6950  0.7174
  503SOL     MW 2012   1.178   2.609   1.986 -0.1264  0.3788 -0.1410
  504SOL     OW 2013   0.102   2.611   2.069 -0.1983 -0.2342  0.3245
  504SOL    HW1 2014   0.167   2.560   2.020  0.5370 -0.5760 -1.6567
  504SOL    HW2 2015   0.026   2.556   2.083 -1.0527 -2.6715 -1.3060
  504SOL     MW 2016   0.101   2.597   2.065 -0.2140 -0.6009 -0.1521
  505SOL     OW 2017   1.652   2.671   2.750 -0.0349 -0.4796  0.2387
  505SOL    HW1 2018   1.696   2.653   2.668 -0.2003  0.3628  0.3728
  505SOL    HW2 2019   1.616   2.761   2.743  0.5419  0.5137  1.8437
  505SOL     MW 2020   1.653   2.681   2.738  0.0194 -0.2374  0.4681
  506SOL     OW 2021   1.624   0.016   2.871  0.0281 -0.3469  0.3948
  506SOL    HW1 2022   1.658  -0.025   2.953  0.6337  1.7481 -0.6961
  506SOL    HW2 2023   1.672  -0.033   2.794  2.2023 -1.8755  0.1592
  506SOL     MW 2024   1.635   0.004   2.872  0.3949 -0.2722  0.2198
  507SOL     OW 2025   0.948   2.690   2.840 -0.1666  0.4589 -0.3495
  507SOL    HW1 2026   0.969   2.754   2.774  1.9414 -0.5593  1.6033
  507SOL    HW2 2027   0.853   2.692   2.846  0.3057  4.3134  2.3969
  507SOL     MW 2028   0.938   2.699   2.832  0.1739  0.8331  0.2705
  508SOL     OW 2029   1.245   2.111   2.519  0.0604  0.2734 -0.2218
  508SOL    HW1 2030   1.303   2.115   2.602  2.4789  0.5099 -0.9321
  508SOL    HW2 2031   1.190   2.189   2.526  1.8849 -3.2600  0.4056
  508SOL     MW 2032   1.245   2.122   2.531  0.6202 -0.1616 -0.2328
  509SOL     OW 2033   0.677   2.605   2.801  0.0004  0.0869  0.2687
  509SOL    HW1 2034   0.678   2.538   2.735 -2.2973 -1.0378 -1.5512
  509SOL    HW2 2035   0.603   2.664   2.772 -2.9188 -2.6950 -3.5077
  509SOL     MW 2036   0.668   2.604   2.788 -0.6879 -0.4285 -0.4697
  510SOL     OW 2037   1.568   2.601   1.642 -0.9616 -0.1325  0.3422
  510SOL    HW1 2038   1.564   2.685   1.589 -0.8027  2.4454 -1.3594
  510SOL    HW2 2039   1.529   2.622   1.733  2.0784  1.1267 -2.5845
  510SOL     MW 2040   1.562   2.615   1.647 -0.5396  0.3738 -0.2684
  511SOL     OW 2041   0.426   2.608   2.468 -0.2629  0.2086 -0.1870
  511SOL    HW1 2042   0.510   2.569   2.496  2.6121 -1.0251  3.6982
  511SOL    HW2 2043   0.429   2.643   2.376 -0.3213  2.0864  2.2922
  511SOL     MW 2044   0.438   2.607   2.459  0.1087  0.2936  0.6527
  512SOL     OW 2045   0.981   2.040   2.833  0.3612  0.2282  0.0892
  512SOL    HW1 2046   0.900   2.081   2.876  0.8409 -0.5979 -1.6669
  512SOL    HW2 2047   1.014   1.968   2.887 -2.8479 -0.0655 -0.2836
  512SOL     MW 2048   0.974   2.036   2.846  0.0011  0.0805 -0.1917
  513SOL     OW 2049   1.633   2.445   2.203  0.2289  0.2453 -0.0598
  513SOL    HW1 2050   1.690   2.503   2.157 -0.7174  0.2528  0.9866
  513SOL    HW2 2051   1.675   2.402   2.281  1.2184  0.0870  0.3737
  513SOL     MW 2052   1.646   2.447   2.207  0.2346  0.2254  0.1354
  514SOL     OW 2053   0.245   2.474   2.626 -0.4068  0.4548 -0.1044
  514SOL    HW1 2054   0.318   2.525   2.601  0.3373 -1.5864 -1.1641
  514SOL    HW2 2055   0.273   2.444   2.712 -1.1148  0.6978 -3.9075
  514SOL     MW 2056   0.258   2.477   2.634 -0.4021  0.2175 -0.7460
  515SOL     OW 2057   1.101   2.015   1.976  0.3550 -0.3934  0.2149
  515SOL    HW1 2058   1.107   2.087   1.914 -0.5467 -0.1389 -0.3464
  515SOL    HW2 2059   1.173   2.029   2.031  0.7300 -0.5471 -1.0551
  515SOL     MW 2060   1.111   2.027   1.975  0.2855 -0.3801 -0.0267
  516SOL     OW 2061   1.449   2.445   3.050 -0.4799  0.0204  0.3127
  516SOL    HW1 2062   1.476   2.430   2.957  1.0860  1.3490 -0.5905
  516SOL    HW2 2063   1.354   2.459   3.052 -1.1776  1.2913  0.0618
  516SOL     MW 2064   1.440   2.445   3.038 -0.3654  0.3634  0.1604
  517SOL     OW 2065   0.554   2.412   2.250 -0.4572 -0.2259 -0.4023
  517SOL    HW1 2066   0.486   2.464   2.284  2.5033  0.8975  0.4103
  517SOL    HW2 2067   0.525   2.345   2.177  1.4764  0.7533 -3.3186
  517SOL     MW 2068   0.541   2.410   2.245  0.1885  0.0515 -0.6799
  518SOL     OW 2069   1.842   0.119   0.016 -1.0004  0.4107 -0.8282
  518SOL    HW1 2070   1.791   0.185   0.065 -0.4508  0.4789 -0.9758
  518SOL    HW2 2071   1.791   0.037   0.023 -1.2858  0.2740 -1.8920
  518SOL     MW 2072   1.828   0.117   0.023 -0.9655  0.4016 -0.9880
  519SOL     OW 2073   0.680   2.486   1.779  0.2924 -0.8576  0.1788
  519SOL    HW1 2074   0.685   2.388   1.772 -1.2527 -0.6034  1.1942
  519SOL    HW2 2075   0.584   2.501   1.766 -0.3288  0.8709 -3.5989
  519SOL     MW 2076   0.668   2.475   1.777  0.0066 -0.5960 -0.1857
  520SOL     OW 2077   1.174   2.169   2.960 -0.7231 -0.4924  0.2142
  520SOL    HW1 2078   1.095   2.126   2.920 -2.5561  1.6577  0.9900
  520SOL    HW2 2079   1.201   2.116   3.036 -0.4294  0.2225 -0.6227
  520SOL     MW 2080   1.167   2.156   2.965 -0.9262 -0.1144  0.2061
  521SOL     OW 2081   1.749   1.996   2.186  0.0506 -0.4198 -0.2597
  521SOL    HW1 2082   1.762   1.997   2.095 -1.9302  3.1926 -0.1394
  521SOL    HW2 2083   1.754   1.904   2.218  0.9418 -0.8639  0.3230
  521SOL     MW 2084   1.751   1.984   2.178 -0.0931 -0.0018 -0.1670
  522SOL     OW 2085   2.945   2.508   2.264  0.5088 -0.2983 -0.0128
  522SOL    HW1 2086   3.031   2.458   2.267  2.4202  1.0199  0.8447
  522SOL    HW2 2087   2.980   2.591   2.294 -0.5581 -3.3666 -0.7035
  522SOL     MW 2088   2.961   2.512   2.268  0.6202 -0.5292  0.0092
  523SOL     OW 2089   0.910   1.502   2.118  0.2654  0.2688 -0.0374
  523SOL    HW1 2090   0.848   1.553   2.067  1.1970 -1.4027  2.0359
  523SOL    HW2 2091   0.937   1.438   2.057  1.4806  1.3785  0.4257
  523SOL     MW 2092   0.905   1.501   2.103  0.5487  0.1946  0.2973
  524SOL     OW 2093   0.594   2.390   2.982  0.0133  0.1425  0.2013
  524SOL    HW1 2094   0.634   2.453   2.927  1.0976 -1.0200  1.2041
  524SOL    HW2 2095   0.647   2.310   2.997  1.2985 -1.0334  2.4795
  524SOL     MW 2096   0.606   2.388   2.977  0.3260 -0.1660  0.6342
  525SOL     OW 2097   0.444   2.243   2.088 -0.2599  0.4599  0.0255
  525SOL    HW1 2098   0.379   2.188   2.143  1.5358  0.9680 -0.2178
  525SOL    HW2 2099   0.478   2.192   2.022 -2.0938 -0.0227  1.3195
  525SOL     MW 2100   0.440   2.229   2.086 -0.2649  0.4633  0.1641
  526SOL     OW 2101   0.679   2.101   2.000 -0.2839 -0.4632  0.0447
  526SOL    HW1 2102   0.724   2.131   1.914 -2.3511 -2.1576  1.0383
  526SOL    HW2 2103   0.729   2.141   2.072  0.9066  0.0955  1.5325
  526SOL     MW 2104   0.691   2.111   1.998 -0.3995 -0.6131  0.3721
  527SOL     OW 2105   1.346   2.020   2.101  0.8538 -0.0210 -0.0228
  527SOL    HW1 2106   1.359   1.981   2.186 -1.4706 -1.3513  1.2987
  527SOL    HW2 2107   1.356   1.946   2.036 -2.8775  0.4388 -1.3487
  527SOL     MW 2108   1.349   2.005   2.103  0.0548 -0.1358 -0.0234
  528SOL     OW 2109   0.712   2.931   2.899  0.5473 -0.1298 -0.4387
  528SOL    HW1 2110   0.715   3.027   2.924 -1.3240  2.2639  1.5775
  528SOL    HW2 2111   0.663   2.920   2.813  1.3677 -0.8558 -2.7902
  528SOL     MW 2112   0.706   2.942   2.891  0.4086  0.0902 -0.4829
  529SOL     OW 2113   1.034   2.287   1.848 -0.0761 -0.0845 -0.2830
  529SOL    HW1 2114   1.056   2.300   1.945  4.5205  1.8341 -0.1468
  529SOL    HW2 2115   1.084   2.350   1.805 -0.8218 -2.9663  1.7856
  529SOL     MW 2116   1.043   2.297   1.855  0.4320 -0.2116  0.0079
  530SOL     OW 2117   1.185   2.438   3.054  0.7831  0.0621  0.5298
  530SOL    HW1 2118   1.105   2.439   3.103  0.4004 -1.7121 -2.9056
  530SOL    HW2 2119   1.176   2.349   3.019  2.3377 -1.5636 -2.0663
  530SOL     MW 2120   1.173   2.427   3.056  0.9377 -0.3865 -0.2660
  531SOL     OW 2121   0.996   1.885   2.604 -0.2639 -0.3579 -0.2925
  531SOL    HW1 2122   0.974   1.951   2.667 -1.0127 -2.7693 -1.9606
  531SOL    HW2 2123   0.953   1.805   2.639  2.0311  0.0560  1.1433
  531SOL     MW 2124   0.987   1.883   2.617 -0.0599 -0.6214 -0.3231
  532SOL     OW 2125   1.720   0.332   2.891 -0.0688 -0.1070  0.6030
  532SOL    HW1 2126   1.712   0.238   2.927  0.7241 -3.5333  0.0909
  532SOL    HW2 2127   1.821   0.350   2.893  4.8539  1.7821 -0.2235
  532SOL     MW 2128   1.732   0.322   2.896  0.6853 -0.3098  0.4264
  533SOL     OW 2129   1.814   2.673   2.979 -0.5170 -0.1438  0.2524
  533SOL    HW1 2130   1.764   2.629   3.049 -2.8019 -2.0329 -0.8729
  533SOL    HW2 2131   1.757   2.677   2.892 -1.4510 -4.7678 -1.7918
  533SOL     MW 2132   1.800   2.667   2.977 -0.9417 -1.0031 -0.1658
  534SOL     OW 2133   1.795   2.344   2.455  0.1175  0.2982  0.0143
  534SOL    HW1 2134   1.727   2.309   2.519 -1.1477  0.1524  2.2137
  534SOL    HW2 2135   1.872   2.302   2.479 -0.2592 -0.3839  0.5066
  534SOL     MW 2136   1.796   2.334   2.467 -0.0991  0.1890  0.3694
  535SOL     OW 2137   1.824   2.355   1.940  0.0940 -0.1965 -0.9683
  535SOL    HW1 2138   1.792   2.371   1.851  1.1595 -1.8341  0.2926
  535SOL    HW2 2139   1.916   2.381   1.941 -2.5814  0.3591 -3.9030
  535SOL     MW 2140   1.832   2.360   1.929 -0.1184 -0.3392 -1.1891
  536SOL     OW 2141   0.443   1.872   2.020  0.0024  0.8388 -0.0570
  536SOL    HW1 2142   0.430   1.812   1.947 -0.7421 -1.7746  2.5437
  536SOL    HW2 2143   0.509   1.927   1.986  1.1180  0.0273 -0.4436
  536SOL     MW 2144   0.450   1.871   2.006  0.0514  0.3869  0.2351
  537SOL     OW 2145   1.062   0.150   2.874 -0.4753 -0.1333 -0.0549
  537SOL    HW1 2146   1.023   0.095   2.938 -1.1938 -0.3257  2.3862
  537SOL    HW2 2147   1.056   0.241   2.899  2.0124 -1.0167 -0.8198
  537SOL     MW 2148   1.056   0.155   2.885 -0.2419 -0.2752  0.1663
  538SOL     OW 2149   1.372   0.061   2.964  0.1733  0.5853  0.1429
  538SOL    HW1 2150   1.307   0.119   2.926 -0.3806 -0.0304 -1.5143
  538SOL    HW2 2151   1.454   0.079   2.911  0.8223 -2.0711 -0.6220
  538SOL     MW 2152   1.375   0.071   2.952  0.1859  0.1536 -0.1767
  539SOL     OW 2153   0.765   2.769   2.563 -0.0083  0.1502  0.0836
  539SOL    HW1 2154   0.865   2.795   2.568  0.7106  1.6379 -0.2842
  539SOL    HW2 2155   0.773   2.674   2.566 -0.3130  1.9951 -0.0707
  539SOL     MW 2156   0.780   2.760   2.564  0.0463  0.5899  0.0147
  540SOL     OW 2157   0.338   2.363   2.861  0.4425  0.7326 -0.6145
  540SOL    HW1 2158   0.418   2.359   2.921  0.4798  0.0007  1.7146
  540SOL    HW2 2159   0.308   2.272   2.862 -3.1257  0.7799 -1.1139
  540SOL     MW 2160   0.345   2.350   2.869 -0.0233  0.6423 -0.3731
  541SOL     OW 2161   0.172   2.931   2.200  0.2099 -0.0501  0.3520
  541SOL    HW1 2162   0.220   2.871   2.144  1.1226  1.5289  0.6879
  541SOL    HW2 2163   0.196   2.896   2.285  0.1652 -0.6766 -0.2928
  541SOL     MW 2164   0.182   2.918   2.204  0.3244  0.0756  0.3112
  542SOL     OW 2165   1.028   2.275   2.573 -0.4613 -0.4486  0.0751
  542SOL    HW1 2166   0.962   2.222   2.607 -2.6752 -0.4320  0.0443
  542SOL    HW2 2167   1.046   2.341   2.646  2.8410 -0.9486 -0.0387
  542SOL     MW 2168   1.022   2.277   2.587 -0.3177 -0.5124  0.0560
  543SOL     OW 2169   1.449   2.488   2.747  0.6354 -0.0886 -0.1112
  543SOL    HW1 2170   1.494   2.419   2.701 -1.0039  0.5177  1.0982
  543SOL    HW2 2171   1.509   2.566   2.752  0.7046  2.3797  1.6143
  543SOL     MW 2172   1.463   2.489   2.742  0.4283  0.3171  0.2760
  544SOL     OW 2173   0.632   0.245   2.675  0.8523  0.1227 -0.0165
  544SOL    HW1 2174   0.536   0.260   2.686  4.3484 -0.2087 -0.8201
  544SOL    HW2 2175   0.638   0.166   2.620  1.6116  2.0283 -0.9113
  544SOL     MW 2176   0.620   0.237   2.669  1.4138  0.3304 -0.2406
  545SOL     OW 2177   1.550   2.186   2.331  0.5974 -0.6968  0.0127
  545SOL    HW1 2178   1.497   2.243   2.274  1.5097  0.3989 -0.4844
  545SOL    HW2 2179   1.617   2.153   2.269 -1.1164 -1.2383  0.0940
  545SOL     MW 2180   1.552   2.189   2.315  0.4917 -0.6237 -0.0422
  546SOL     OW 2181   2.951   2.033   0.134  0.0626 -0.4171 -0.1571
  546SOL    HW1 2182   2.947   2.119   0.076 -0.5189 -2.1098 -0.2971
  546SOL    HW2 2183   3.026   1.976   0.108  0.9438 -1.0977 -0.7707
  546SOL     MW 2184   2.960   2.037   0.123  0.1022 -0.7303 -0.2565
  547SOL     OW 2185   0.268   2.971   0.142  0.3026  0.4681  0.4804
  547SOL    HW1 2186   0.269   3.004   0.045 -0.0202  0.8137  0.5338
  547SOL    HW2 2187   0.241   2.880   0.131 -1.1643 -2.1774  1.4004
  547SOL     MW 2188   0.264   2.964   0.128  0.0664  0.1647  0.6088
  548SOL     OW 2189   0.277   2.561   0.243  0.1520  0.1159 -0.4562
  548SOL    HW1 2190   0.262   2.612   0.163 -1.9878 -0.9542 -0.9819
  548SOL    HW2 2191   0.209   2.491   0.232 -0.7261  1.8277  1.9905
  548SOL     MW 2192   0.266   2.558   0.231 -0.2462  0.2006 -0.2028
  549SOL     OW 2193   0.810   1.906   2.121  0.4991  0.1569  0.6657
  549SOL    HW1 2194   0.770   1.976   2.075  0.8078 -1.1729 -4.4812
  549SOL    HW2 2195   0.812   1.926   2.213 -1.9272 -0.7015 -0.4580
  549SOL     MW 2196   0.805   1.918   2.127  0.2197 -0.1318 -0.1617
  550SOL     OW 2197   1.789   1.713   2.529  0.0084 -0.5328  0.4722
  550SOL    HW1 2198   1.793   1.737   2.433 -3.0325 -0.3197 -1.8700
  550SOL    HW2 2199   1.782   1.805   2.560 -1.0212  1.5634 -1.8152
  550SOL     MW 2200   1.789   1.728   2.520 -0.5286 -0.2281 -0.1386
  551SOL     OW 2201   0.874   2.288   0.229 -0.2619 -0.7575  0.1911
  551SOL    HW1 2202   0.967   2.304   0.228  0.4803 -0.7924  0.3351
  551SOL    HW2 2203   0.863   2.210   0.178 -0.0944  0.8853 -0.8867
  551SOL     MW 2204   0.885   2.280   0.222 -0.1418 -0.5454  0.0679
  552SOL     OW 2205   1.755   1.744   2.255 -0.0168  0.1835  0.0298
  552SOL    HW1 2206   1.675   1.708   2.272  2.3291  1.2769 -2.1344
  552SOL    HW2 2207   1.787   1.694   2.174  1.3437  0.5106  0.4718
  552SOL     MW 2208   1.749   1.732   2.246  0.4722  0.3709 -0.1974
  553SOL     OW 2209   1.186   2.319   1.468 -0.1154 -0.1656 -0.1468
  553SOL    HW1 2210   1.227   2.233   1.462  0.2926  1.8300 -1.5887
  553SOL    HW2 2211   1.264   2.368   1.460  0.7900 -1.6361  0.6922
  553SOL     MW 2212   1.202   2.314   1.466  0.0579 -0.0963 -0.2264
  554SOL     OW 2213   0.551   2.912   2.671  0.1598  0.1481 -0.1498
  554SOL    HW1 2214   0.524   2.992   2.620 -1.5392  0.9662  0.0918
  554SOL    HW2 2215   0.614   2.851   2.628 -1.4960  0.7352  0.4743
  554SOL     MW 2216   0.556   2.915   2.659 -0.2828  0.3335 -0.0356
  555SOL     OW 2217   0.626   2.445   2.571  0.0767  0.1865  0.2231
  555SOL    HW1 2218   0.591   2.356   2.576  1.0805  0.5574 -2.1273
  555SOL    HW2 2219   0.706   2.447   2.510 -0.8582  0.6325  0.2806
  555SOL     MW 2220   0.632   2.433   2.563  0.0858  0.2943 -0.0794
  556SOL     OW 2221   0.943   1.775   0.154 -0.0746  0.1632  0.5395
  556SOL    HW1 2222   0.966   1.791   0.064 -0.7377  1.3168  1.8264
  556SOL    HW2 2223   1.019   1.811   0.202 -0.3300  0.5847 -0.6143
  556SOL     MW 2224   0.956   1.782   0.148 -0.1958  0.3710  0.5571
  557SOL     OW 2225   0.969   2.689   0.497  0.2066 -0.3855  0.3258
  557SOL    HW1 2226   1.020   2.658   0.424 -0.7325  2.4255 -1.9272
  557SOL    HW2 2227   0.903   2.740   0.448  2.0159 -0.1650  1.0525
  557SOL     MW 2228   0.967   2.692   0.481  0.3214  0.0145  0.1244
  558SOL     OW 2229   0.260   2.142   0.003 -0.2629  0.2192 -0.6654
  558SOL    HW1 2230   0.199   2.067   0.016 -1.4090 -0.6601 -0.7949
  558SOL    HW2 2231   0.213   2.221   0.031 -1.4865  1.4865 -1.0648
  558SOL     MW 2232   0.246   2.142   0.009 -0.5756  0.2704 -0.7352
  559SOL     OW 2233   1.061   2.309   2.122 -0.8679 -0.4176  0.3478
  559SOL    HW1 2234   1.106   2.371   2.176 -0.8135  3.4885 -2.5177
  559SOL    HW2 2235   1.084   2.225   2.156  0.6858 -1.9342  2.2536
  559SOL     MW 2236   1.070   2.306   2.133 -0.6557 -0.1024  0.2211
  560SOL     OW 2237   1.917   2.849   0.063 -0.0116  0.5079  0.4031
  560SOL    HW1 2238   1.998   2.888   0.032  1.2718  0.7977  0.4470
  560SOL    HW2 2239   1.896   2.775   0.010  0.7354 -0.0155  0.3911
  560SOL     MW 2240   1.925   2.845   0.052  0.2562  0.4771  0.4073
  561SOL     OW 2241   0.441   2.155   0.215 -0.6641  0.2920  0.2766
  561SOL    HW1 2242   0.393   2.190   0.146  2.1625  5.1478 -0.4399
  561SOL    HW2 2243   0.495   2.235   0.239 -2.0279  1.7014 -0.4806
  561SOL     MW 2244   0.442   2.170   0.209 -0.4711  1.1186  0.0822
  562SOL     OW 2245   0.802   2.193   2.229 -0.5688  0.5024 -0.1710
  562SOL    HW1 2246   0.820   2.278   2.195  0.3109  1.6231  0.2333
  562SOL    HW2 2247   0.887   2.162   2.253 -2.8512 -0.1741  0.4789
  562SOL     MW 2248   0.815   2.200   2.227 -0.7539  0.5610 -0.0319
  563SOL     OW 2249   1.132   0.320   0.584  0.5262  0.4020 -0.3268
  563SOL    HW1 2250   1.069   0.278   0.521 -3.1833  0.8137  2.5022
  563SOL    HW2 2251   1.186   0.244   0.616  0.5955  0.2051  1.9275
  563SOL     MW 2252   1.131   0.304   0.580  0.0459  0.4303  0.3439
  564SOL     OW 2253   1.027   2.608   2.257 -0.1037  0.5531 -0.8830
  564SOL    HW1 2254   1.083   2.632   2.180  0.1396 -1.1114  2.0545
  564SOL    HW2 2255   1.079   2.639   2.334 -1.2194  0.7634 -0.2760
  564SOL     MW 2256   1.041   2.615   2.257 -0.2188  0.3612 -0.4153
  565SOL     OW 2257   2.908   2.687   2.651  0.1084 -0.2661  0.1205
  565SOL    HW1 2258   2.974   2.754   2.626  1.9233  1.3098  2.5223
  565SOL    HW2 2259   2.829   2.686   2.595  0.6290  3.0335  1.1139
  565SOL     MW 2260   2.906   2.695   2.640  0.4166  0.3772  0.5685
  566SOL     OW 2261   2.145   1.869   2.400  0.2916  0.3496 -0.7608
  566SOL    HW1 2262   2.204   1.812   2.352  1.5144  3.0606 -2.0654
  566SOL    HW2 2263   2.186   1.956   2.392 -1.8829 -2.1587  0.6627
  566SOL     MW 2264   2.158   1.873   2.393  0.1660  0.3764 -0.7451
  567SOL     OW 2265   1.174   2.949   2.963 -0.4500 -0.8447  0.1289
  567SOL    HW1 2266   1.253   3.006   2.988  1.9656  2.4894 -0.2062
  567SOL    HW2 2267   1.215   2.862   2.953 -2.2014 -4.4805  0.2205
  567SOL     MW 2268   1.190   2.945   2.965 -0.3624 -0.8845  0.0968
  568SOL     OW 2269   1.630   2.115   2.887 -0.4317  0.4130  0.1352
  568SOL    HW1 2270   1.697   2.164   2.932 -0.5366 -0.9132  0.4794
  568SOL    HW2 2271   1.674   2.031   2.850  0.4167 -0.8145  1.1024
  568SOL     MW 2272   1.644   2.111   2.888 -0.3336  0.0761  0.3082
  569SOL     OW 2273   0.194   2.240   2.475 -0.6697 -0.3021 -0.0101
  569SOL    HW1 2274   0.138   2.255   2.391  0.5867  2.5791 -0.7394
  569SOL    HW2 2275   0.200   2.327   2.519 -0.5003 -0.0689  2.0130
  569SOL     MW 2276   0.188   2.253   2.470 -0.4816  0.1088  0.1606
  570SOL     OW 2277   1.461   0.389   0.471 -0.5921 -0.3538  0.3328
  570SOL    HW1 2278   1.371   0.365   0.483  0.7706 -0.9858 -3.1206
  570SOL    HW2 2279   1.510   0.413   0.553  0.4846  3.0578  0.4670
  570SOL     MW 2280   1.456   0.389   0.484 -0.2703  0.0129 -0.1051
  571SOL     OW 2281   1.474   2.410   1.980 -0.1692  0.1655 -0.2325
  571SOL    HW1 2282   1.521   2.417   2.061  0.6247  1.3059  1.3148
  571SOL    HW2 2283   1.486   2.318   1.941  1.8728 -1.0087 -0.7405
  571SOL     MW 2284   1.482   2.399   1.985  0.2050  0.1611 -0.0954
  572SOL     OW 2285   0.918   2.605   0.034  0.3264  0.8182  0.0744
  572SOL    HW1 2286   0.936   2.637  -0.057 -1.3980  1.6788 -0.3782
  572SOL    HW2 2287   0.821   2.597   0.040 -0.9029 -2.8076  0.3719
  572SOL     MW 2288   0.907   2.608   0.023 -0.0633  0.4534  0.0539
  573SOL     OW 2289   1.182   2.365   0.266 -0.0577 -0.4767 -0.2186
  573SOL    HW1 2290   1.271   2.353   0.234 -3.2904  2.1008  1.8429
  573SOL    HW2 2291   1.167   2.465   0.269 -0.9227  1.6060 -0.3839
  573SOL     MW 2292   1.192   2.376   0.262 -0.5983  0.1382  0.0316
  574SOL     OW 2293   1.134   2.628   0.250  0.4387 -0.1900  0.0322
  574SOL    HW1 2294   1.195   2.699   0.265 -0.4073 -2.8490  1.9778
  574SOL    HW2 2295   1.072   2.651   0.188  1.7148 -2.9215  0.8257
  574SOL     MW 2296   1.134   2.640   0.244  0.4954 -0.9012  0.3936
  575SOL     OW 2297   0.029   2.293   1.797 -0.0947 -0.4579 -0.1856
  575SOL    HW1 2298   0.028   2.204   1.758  0.6002  0.2569  0.5880
  575SOL    HW2 2299   0.067   2.349   1.734 -0.7210  0.9496  0.5697
  575SOL     MW 2300   0.034   2.288   1.784 -0.0856 -0.1778  0.0162
  576SOL     OW 2301   2.859   1.807   2.056 -0.5820  0.2695  0.2623
  576SOL    HW1 2302   2.864   1.886   1.996  1.6314  1.4941  1.4013
  576SOL    HW2 2303   2.768   1.784   2.043 -0.3688  1.0548 -1.0533
  576SOL     MW 2304   2.848   1.815   2.047 -0.2618  0.5347  0.2390
  577SOL     OW 2305   2.105   0.211   0.068  0.2660 -0.2446  0.3106
  577SOL    HW1 2306   2.023   0.205   0.011 -2.0078 -0.8352  0.0413
  577SOL    HW2 2307   2.081   0.167   0.151  0.7836  0.7618 -2.3455
  577SOL     MW 2308   2.091   0.205   0.071  0.0343 -0.1898 -0.0754
  578SOL     OW 2309   1.902   2.037   2.419 -0.0537  0.0554 -0.6607
  578SOL    HW1 2310   1.836   2.003   2.356 -2.2562  0.5897  0.0971
  578SOL    HW2 2311   1.971   1.971   2.407 -1.3277 -2.1082 -1.5366
  578SOL     MW 2312   1.902   2.024   2.409 -0.5124 -0.1596 -0.6763
  579SOL     OW 2313   0.886   2.477   2.461 -0.0301 -0.2473 -0.5972
  579SOL    HW1 2314   0.933   2.392   2.493 -0.8108 -2.3764 -0.2080
  579SOL    HW2 2315   0.936   2.519   2.388  1.1922 -0.8101 -0.1413
  579SOL     MW 2316   0.899   2.471   2.455  0.0281 -0.6025 -0.4857
  580SOL     OW 2317   0.926   2.987   3.061  0.4239 -0.6458 -0.9713
  580SOL    HW1 2318   1.014   2.962   3.024 -0.3210 -0.4321 -1.8190
  580SOL    HW2 2319   0.862   2.933   3.007 -2.1766  1.1352  1.5889
  580SOL     MW 2320   0.929   2.977   3.049 -0.0175 -0.3826 -0.7453
  581SOL     OW 2321   1.199   2.470   1.702  0.4105  0.2809 -0.3517
  581SOL    HW1 2322   1.241   2.546   1.674 -1.6566  2.4771  1.2293
  581SOL    HW2 2323   1.174   2.413   1.627  0.3952 -0.8184  2.8750
  581SOL     MW 2324   1.201   2.473   1.688  0.1358  0.4256  0.2827
  582SOL     OW 2325   3.088   2.870   2.530 -0.0729 -0.2263 -0.4192
  582SOL    HW1 2326   3.059   2.941   2.583  2.7023 -0.8907 -0.4443
  582SOL    HW2 2327   3.183   2.874   2.518  1.8530 -1.9005  1.8195
  582SOL     MW 2328   3.097   2.880   2.535  0.5474 -0.5349 -0.1271
  583SOL     OW 2329   2.032   2.360   2.698  0.3685 -0.1870 -0.4392
  583SOL    HW1 2330   2.102   2.369   2.629 -0.2796  0.3865 -1.5265
  583SOL    HW2 2331   2.000   2.267   2.703  1.3440 -1.3353  1.1664
  583SOL     MW 2332   2.037   2.349   2.690  0.4117 -0.2628 -0.3708
  584SOL     OW 2333   0.215   1.831   2.186  0.4453 -0.5333  0.6152
  584SOL    HW1 2334   0.294   1.818   2.140 -0.4841  1.0665 -0.4860
  584SOL    HW2 2335   0.225   1.923   2.219  2.4369 -0.9634  2.5594
  584SOL     MW 2336   0.227   1.841   2.184  0.5854 -0.3790  0.7264
  585SOL     OW 2337   1.454   2.650   0.151  0.6262  0.1739  0.2120
  585SOL    HW1 2338   1.415   2.613   0.069  1.1291  0.1411  1.0288
  585SOL    HW2 2339   1.373   2.690   0.192 -0.8067  2.7278  0.1043
  585SOL     MW 2340   1.438   2.651   0.145  0.5035  0.5065  0.3055
  586SOL     OW 2341   1.384   2.831   2.517 -0.6050  0.6243  0.3599
  586SOL    HW1 2342   1.440   2.812   2.444  1.5437 -2.1182  0.4137
  586SOL    HW2 2343   1.382   2.931   2.517  0.7927  2.1213 -2.3470
  586SOL     MW 2344   1.391   2.841   2.507 -0.1371  0.4600  0.0098
  587SOL     OW 2345   1.309   1.561   2.173  0.2862 -0.0244 -0.0681
  587SOL    HW1 2346   1.287   1.482   2.225  1.3719 -0.6149  0.4109
  587SOL    HW2 2347   1.339   1.532   2.084 -3.7928 -1.8807 -2.5710
  587SOL     MW 2348   1.310   1.547   2.168 -0.1087 -0.3472 -0.3351
  588SOL     OW 2349   1.374   2.129   2.768  0.2580 -0.5421 -0.3763
  588SOL    HW1 2350   1.461   2.108   2.818 -2.1703  2.3280 -0.8763
  588SOL    HW2 2351   1.304   2.117   2.835 -2.8520  1.7039 -0.4893
  588SOL     MW 2352   1.376   2.124   2.784 -0.4727  0.1330 -0.4572
  589SOL     OW 2353   1.267   2.050   0.079 -0.2008 -0.2598  0.7703
  589SOL    HW1 2354   1.308   2.134   0.108 -1.5249  0.2148  1.8733
  589SOL    HW2 2355   1.247   2.006   0.161 -3.1659  1.4958 -0.0148
  589SOL     MW 2356   1.270   2.055   0.094 -0.7667  0.0344  0.8122
  590SOL     OW 2357   0.417   2.739   2.216  0.1324  0.8623 -0.6712
  590SOL    HW1 2358   0.421   2.707   2.128 -1.0700  1.4593  1.8097
  590SOL    HW2 2359   0.508   2.768   2.224 -0.5384 -1.1044  2.6255
  590SOL     MW 2360   0.429   2.738   2.205 -0.1147  0.6816  0.0911
  591SOL     OW 2361   2.290   0.700   0.013  0.0176 -0.4568 -0.1266
  591SOL    HW1 2362   2.229   0.753  -0.041 -2.2800  2.5652  1.0118
  591SOL    HW2 2363   2.387   0.713  -0.033  1.5301  1.5443 -2.3791
  591SOL     MW 2364   2.295   0.708  -0.000 -0.0860  0.2059 -0.2736
  592SOL     OW 2365   1.800   2.961   0.844  0.1723 -0.7532 -0.2297
  592SOL    HW1 2366   1.795   3.040   0.789 -0.0054  2.7386  0.4489
  592SOL    HW2 2367   1.833   2.893   0.781 -1.3176 -1.6456  0.1466
  592SOL     MW 2368   1.804   2.962   0.829 -0.0477 -0.4102 -0.0905
  593SOL     OW 2369   1.940   0.706   0.877 -0.3675  0.1682  0.0393
  593SOL    HW1 2370   1.855   0.680   0.839 -0.6197 -0.3912 -2.4548
  593SOL    HW2 2371   1.981   0.629   0.916 -2.7104 -1.6211  0.2636
  593SOL     MW 2372   1.934   0.693   0.877 -0.7099 -0.1417 -0.2602
  594SOL     OW 2373   2.825   1.150   1.339 -0.2348 -0.3275 -0.0252
  594SOL    HW1 2374   2.919   1.160   1.356  0.4021  0.9410  0.7506
  594SOL    HW2 2375   2.838   1.091   1.263  0.8121 -0.1911  0.0002
  594SOL     MW 2376   2.839   1.143   1.332 -0.0127 -0.1421  0.0805
  595SOL     OW 2377   0.469   0.987   0.806 -0.2763  0.2452 -0.3642
  595SOL    HW1 2378   0.472   1.047   0.727 -0.3197  2.2302 -2.6135
  595SOL    HW2 2379   0.467   1.035   0.888  1.8517  0.1796  3.9642
  595SOL     MW 2380   0.469   1.001   0.806 -0.0013  0.4985 -0.0899
  596SOL     OW 2381   2.455   1.336   0.568 -0.4521 -0.2470  0.4960
  596SOL    HW1 2382   2.511   1.405   0.529 -0.2980  2.9613  1.2924
  596SOL    HW2 2383   2.487   1.309   0.653 -0.5589  1.4684  1.5636
  596SOL     MW 2384   2.467   1.341   0.574 -0.4459  0.4027  0.7419
  597SOL     OW 2385   2.175   0.719   1.598  0.0410  0.5648  0.2568
  597SOL    HW1 2386   2.223   0.662   1.661  0.0680 -0.5555  0.0513
  597SOL    HW2 2387   2.098   0.664   1.563 -0.8523  0.0435 -0.0966
  597SOL     MW 2388   2.171   0.704   1.602 -0.0733  0.3482  0.1831
  598SOL     OW 2389   2.591   1.005   2.862  0.0705  0.1838  0.1906
  598SOL    HW1 2390   2.580   0.994   2.767 -1.8036  1.0322  2.0411
  598SOL    HW2 2391   2.673   1.053   2.872  0.1094  0.9238  1.0380
  598SOL     MW 2392   2.600   1.010   2.850 -0.1716  0.3934  0.5465
  599SOL     OW 2393   2.972   0.446   2.044  0.0983 -0.1487 -0.1818
  599SOL    HW1 2394   2.978   0.446   2.138  1.6210 -0.5644  0.4357
  599SOL    HW2 2395   3.016   0.532   2.019  1.2525 -1.2334 -0.2246
  599SOL     MW 2396   2.979   0.457   2.053  0.4515 -0.3466 -0.1060
  600SOL     OW 2397   1.913   1.621   0.861 -0.6346 -0.3947  0.0080
  600SOL    HW1 2398   1.937   1.645   0.953  1.1120 -0.7947 -0.2014
  600SOL    HW2 2399   1.825   1.666   0.865  0.5986  0.3508 -0.0885
  600SOL     MW 2400   1.904   1.630   0.874 -0.2414 -0.3491 -0.0324
  601SOL     OW 2401   2.530   0.788   0.829 -0.7037 -0.5609 -0.3265
  601SOL    HW1 2402   2.509   0.818   0.915 -0.9527 -0.5883  3.7985
  601SOL    HW2 2403   2.461   0.732   0.796 -1.9081  0.8182  2.2231
  601SOL     MW 2404   2.518   0.785   0.836 -0.8954 -0.3826  0.5542
  602SOL     OW 2405   2.358   1.906   0.868 -0.2054 -0.3669  0.2581
  602SOL    HW1 2406   2.324   1.815   0.851 -1.0225  0.2810 -0.5557
  602SOL    HW2 2407   2.300   1.959   0.815  0.9612  1.4939  0.3406
  602SOL     MW 2408   2.346   1.901   0.859 -0.1592 -0.0359  0.1616
  603SOL     OW 2409   3.073   1.387   1.800  0.3523 -0.4012 -0.1608
  603SOL    HW1 2410   3.135   1.430   1.862 -1.3665  0.6890  1.3501
  603SOL    HW2 2411   3.067   1.292   1.807 -0.7858 -1.6601  0.8778
  603SOL     MW 2412   3.080   1.380   1.809 -0.0247 -0.4235  0.1756
  604SOL     OW 2413   2.175   1.576   0.463 -0.1367  0.2187 -0.2314
  604SOL    HW1 2414   2.188   1.493   0.511  1.8811  0.0262 -1.1991
  604SOL    HW2 2415   2.088   1.616   0.499 -1.0595 -1.0347 -0.4400
  604SOL     MW 2416   2.165   1.571   0.474  0.0077  0.0279 -0.3866
  605SOL     OW 2417   2.618   1.531   0.829  0.1012 -0.5926 -0.0866
  605SOL    HW1 2418   2.588   1.625   0.812 -0.1009  2.7046  0.6258
  605SOL    HW2 2419   2.558   1.482   0.773  1.1553  0.1434  0.1220
  605SOL     MW 2420   2.606   1.537   0.819  0.2136 -0.0605  0.0349
  606SOL     OW 2421   2.525   1.818   1.962 -0.1333 -0.8314  0.8649
  606SOL    HW1 2422   2.434   1.821   1.938  0.3135  1.2564  0.5388
  606SOL    HW2 2423   2.571   1.762   1.899  0.8675  2.6451 -0.4907
  606SOL     MW 2424   2.519   1.811   1.950  0.0577 -0.0972  0.6430
  607SOL     OW 2425   2.398   1.078   3.040 -0.0209  0.8561 -0.3055
  607SOL    HW1 2426   2.463   1.032   2.986  2.0927  0.7055  1.1233
  607SOL    HW2 2427   2.416   1.057   3.136  0.2732  0.3028  1.1057
  607SOL     MW 2428   2.409   1.069   3.046  0.2968  0.7633  0.0692
  608SOL     OW 2429   1.877   0.278   0.625 -0.3366 -0.2041 -0.3219
  608SOL    HW1 2430   1.859   0.327   0.540 -0.9766 -0.8711  2.3807
  608SOL    HW2 2431   1.835   0.189   0.611  0.6296 -1.6024 -1.1769
  608SOL     MW 2432   1.869   0.273   0.612 -0.2936 -0.4766 -0.0781
  609SOL     OW 2433   2.031   2.016   3.041 -0.0849 -0.6162  0.2964
  609SOL    HW1 2434   1.976   1.942   3.011  1.9788  0.4719 -2.7106
  609SOL    HW2 2435   2.095   1.969   3.096 -0.8068  2.0011 -2.2697
  609SOL     MW 2436   2.032   2.000   3.044  0.0921 -0.1273 -0.4389
  610SOL     OW 2437   1.769   1.009   1.300 -0.3693 -0.0228  0.2177
  610SOL    HW1 2438   1.810   0.926   1.280 -0.9283  2.4374  1.4333
  610SOL    HW2 2439   1.679   1.001   1.270  1.8155  1.4763 -0.1874
  610SOL     MW 2440   1.763   0.997   1.293 -0.1548  0.4996  0.3246
  611SOL     OW 2441   2.510   1.776   0.681  0.1904 -0.3113  0.0079
  611SOL    HW1 2442   2.474   1.820   0.758  0.4949 -2.9781  1.4664
  611SOL    HW2 2443   2.544   1.828   0.606 -1.9729 -0.9500  0.6000
  611SOL     MW 2444   2.510   1.788   0.681 -0.0548 -0.7475  0.2785
  612SOL     OW 2445   2.796   2.818   0.415  0.0979 -0.0393  0.2009
  612SOL    HW1 2446   2.830   2.886   0.474 -2.7102  2.3640 -3.7129
  612SOL    HW2 2447   2.876   2.789   0.365  0.8746 -1.7309  1.4197
  612SOL     MW 2448   2.811   2.823   0.416 -0.1702  0.0546 -0.1547
  613SOL     OW 2449   1.480   0.978   0.964 -0.2772 -0.1306  0.0048
  613SOL    HW1 2450   1.517   1.062   0.937  1.8360 -0.0189 -3.8621
  613SOL    HW2 2451   1.511   0.950   1.050 -0.0923 -2.1489 -0.0423
  613SOL     MW 2452   1.489   0.986   0.972  0.0260 -0.3822 -0.5116
  614SOL     OW 2453   2.006   0.561   1.462  0.2641 -0.2026  0.4699
  614SOL    HW1 2454   1.988   0.476   1.505 -1.6331  0.3716  0.3307
  614SOL    HW2 2455   1.976   0.570   1.372  0.3237 -1.2707  2.1129
  614SOL     MW 2456   2.000   0.551   1.456  0.0217 -0.2678  0.6683
  615SOL     OW 2457   2.400   0.726   0.258  0.1322  0.1497 -0.4081
  615SOL    HW1 2458   2.454   0.651   0.280 -0.6255  1.3805  2.2985
  615SOL    HW2 2459   2.351   0.710   0.178 -0.4347  1.1539 -1.0979
  615SOL     MW 2460   2.401   0.714   0.250 -0.0426  0.4446 -0.1420
  616SOL     OW 2461   2.480   0.398   1.618  0.2137  0.5519  1.1042
  616SOL    HW1 2462   2.435   0.318   1.584 -0.8586  0.8889 -2.6824
  616SOL    HW2 2463   2.457   0.462   1.548  1.1645 -0.0215  1.0114
  616SOL     MW 2464   2.471   0.396   1.605  0.1977  0.5207  0.5924
  617SOL     OW 2465   2.890   0.611   1.727 -0.6814  1.1777 -0.3911
  617SOL    HW1 2466   2.814   0.647   1.768  0.2455 -0.4476  1.1157
  617SOL    HW2 2467   2.900   0.520   1.753 -0.5231  0.3373  1.6789
  617SOL     MW 2468   2.881   0.603   1.735 -0.5382  0.8523  0.0809
  618SOL     OW 2469   2.742   0.386   1.877 -0.9868  0.5600  0.5256
  618SOL    HW1 2470   2.682   0.456   1.894 -1.9708  0.2208 -0.5284
  618SOL    HW2 2471   2.813   0.391   1.940 -1.9230 -2.1691  2.5897
  618SOL     MW 2472   2.744   0.396   1.887 -1.2401  0.1551  0.6588
  619SOL     OW 2473   2.650   0.640   0.121  0.0681 -0.2334 -0.5799
  619SOL    HW1 2474   2.700   0.713   0.158  1.1239 -1.2535  1.1712
  619SOL    HW2 2475   2.638   0.589   0.202 -0.7504 -1.5705 -0.2830
  619SOL     MW 2476   2.655   0.643   0.136  0.0994 -0.5444 -0.3097
  620SOL     OW 2477   2.265   1.044   1.011 -0.6698  0.0381 -0.6345
  620SOL    HW1 2478   2.336   1.059   0.946  0.8260 -0.3644  0.2220
  620SOL    HW2 2479   2.201   0.994   0.950  1.6116 -2.6017 -1.8862
  620SOL     MW 2480   2.266   1.039   0.994 -0.1714 -0.3633 -0.6866
  621SOL     OW 2481   1.531   2.134   1.936  0.2209  0.7635 -0.7410
  621SOL    HW1 2482   1.474   2.073   1.994  2.3525 -1.3938  0.6906
  621SOL    HW2 2483   1.618   2.099   1.943 -1.5425 -1.5497  0.6783
  621SOL     MW 2484   1.535   2.121   1.944  0.2695  0.1737 -0.3648
  622SOL     OW 2485   2.630   0.158   0.253 -0.1408  0.2679 -0.2260
  622SOL    HW1 2486   2.725   0.164   0.250 -0.5258 -2.9369 -1.2085
  622SOL    HW2 2487   2.617   0.066   0.276 -0.7078 -0.1535  0.5065
  622SOL     MW 2488   2.641   0.147   0.255 -0.2664 -0.2105 -0.2590
  623SOL     OW 2489   2.337   2.830   0.858  0.7796 -0.0364  0.1868
  623SOL    HW1 2490   2.411   2.887   0.873 -3.8761  0.8962  1.1397
  623SOL    HW2 2491   2.279   2.850   0.935  1.3768  0.7045 -2.8532
  623SOL     MW 2492   2.339   2.840   0.870  0.2441  0.1844 -0.0885
  624SOL     OW 2493   2.189   1.724   3.002  0.0592 -0.0697  0.0296
  624SOL    HW1 2494   2.148   1.651   3.053 -0.0472 -0.5912 -0.9682
  624SOL    HW2 2495   2.108   1.733   2.951 -3.4777  1.6074 -2.1956
  624SOL     MW 2496   2.173   1.716   3.002 -0.4215  0.0828 -0.3957
  625SOL     OW 2497   2.190   1.947   1.071  0.0193 -0.3371 -0.6479
  625SOL    HW1 2498   2.243   1.896   1.137 -0.3668  1.3298 -1.8066
  625SOL    HW2 2499   2.240   1.943   0.986 -0.0080  0.3285 -0.2323
  625SOL     MW 2500   2.204   1.940   1.068 -0.0353 -0.0294 -0.7459
  626SOL     OW 2501   0.304   1.617   2.358 -0.0887 -0.1687 -0.3135
  626SOL    HW1 2502   0.286   1.520   2.367  0.1399 -2.6123 -0.8458
  626SOL    HW2 2503   0.215   1.654   2.354  0.3934  1.0578 -3.7731
  626SOL     MW 2504   0.290   1.609   2.359  0.0051 -0.3293 -0.8402
  627SOL     OW 2505   2.470   0.722   2.606 -0.2771 -0.2892 -0.6892
  627SOL    HW1 2506   2.487   0.816   2.615  1.3325 -1.1031 -1.1848
  627SOL    HW2 2507   2.446   0.702   2.516 -0.5877 -0.5268  0.1038
  627SOL     MW 2508   2.469   0.732   2.595 -0.1057 -0.4279 -0.6500
  628SOL     OW 2509   2.339   1.418   1.366 -0.2474 -0.1691  0.0108
  628SOL    HW1 2510   2.341   1.353   1.297  0.5031  3.1532 -0.9598
  628SOL    HW2 2511   2.426   1.436   1.389 -2.0107  1.3150  0.1050
  628SOL     MW 2512   2.351   1.412   1.360 -0.3810  0.4651 -0.1048
  629SOL     OW 2513   1.858   0.529   1.222  0.4472 -0.6181 -0.0288
  629SOL    HW1 2514   1.856   0.615   1.175 -1.1917 -0.8350 -0.7881
  629SOL    HW2 2515   1.764   0.511   1.237 -3.1880 -0.4913 -2.7477
  629SOL     MW 2516   1.845   0.538   1.217 -0.2487 -0.6300 -0.4877
  630SOL     OW 2517   2.454   1.825   2.974 -0.1730  0.7537 -0.1921
  630SOL    HW1 2518   2.466   1.917   2.935 -0.9010  1.5867 -1.2613
  630SOL    HW2 2519   2.360   1.805   2.969 -0.6080  0.6859 -0.0550
  630SOL     MW 2520   2.443   1.834   2.968 -0.3265  0.8546 -0.3151
  631SOL     OW 2521   1.980   1.819   1.559 -0.0030 -0.2077 -0.1966
  631SOL    HW1 2522   2.002   1.729   1.588  0.1080 -1.6102  3.6176
  631SOL    HW2 2523   1.979   1.813   1.467  0.6064  0.7301  0.4306
  631SOL     MW 2524   1.983   1.807   1.551  0.0921 -0.2690  0.3894
  632SOL     OW 2525   0.162   1.964   1.444  0.3702 -0.0251 -0.2476
  632SOL    HW1 2526   0.096   1.961   1.515  1.0669 -0.2441  0.1489
  632SOL    HW2 2527   0.189   1.877   1.429  2.8154 -1.9362  0.0840
  632SOL     MW 2528   0.157   1.952   1.451  0.7848 -0.3062 -0.1515
  633SOL     OW 2529   2.578   0.504   0.333 -0.4520 -0.1758 -0.3589
  633SOL    HW1 2530   2.635   0.511   0.410 -0.7578 -0.0239 -1.3118
  633SOL    HW2 2531   2.567   0.415   0.307  2.0433 -0.5623  1.1096
  633SOL     MW 2532   2.584   0.493   0.340 -0.1631 -0.2068 -0.2909
  634SOL     OW 2533   2.674   3.084   0.619 -0.2095  0.5632  0.5871
  634SOL    HW1 2534   2.724   3.165   0.631 -1.1277  1.8935  0.7173
  634SOL    HW2 2535   2.624   3.100   0.539  2.3045 -0.9150  0.2115
  634SOL     MW 2536   2.674   3.097   0.610  0.0010  0.5437  0.5548
  635SOL     OW 2537   2.624   0.135   1.819 -0.3462  0.1593  0.4623
  635SOL    HW1 2538   2.689   0.063   1.806 -3.7401 -2.0532 -1.5767
  635SOL    HW2 2539   2.664   0.218   1.836  2.1775  2.3638 -0.4667
  635SOL     MW 2540   2.638   0.136   1.820 -0.4610  0.1582  0.0707
  636SOL     OW 2541   2.858   1.614   1.095 -0.5448 -0.1339 -0.2729
  636SOL    HW1 2542   2.800   1.660   1.159 -1.9953  0.2542 -1.5260
  636SOL    HW2 2543   2.900   1.693   1.050 -0.6926 -1.1240 -1.8852
  636SOL     MW 2544   2.856   1.630   1.098 -0.7557 -0.2133 -0.6510
  637SOL     OW 2545   2.878   1.461   0.748 -0.3923 -0.7809  0.6388
  637SOL    HW1 2546   2.924   1.548   0.740  0.6094 -0.9801 -2.5524
  637SOL    HW2 2547   2.789   1.482   0.768 -0.4873  0.3842 -1.1325
  637SOL     MW 2548   2.873   1.475   0.750 -0.2727 -0.6535 -0.0160
  638SOL     OW 2549   2.751   0.503   0.563 -0.7570  0.2491  0.1875
  638SOL    HW1 2550   2.843   0.521   0.544  0.5198  1.0002  0.2150
  638SOL    HW2 2551   2.736   0.561   0.643 -0.4332  1.0867  1.7653
  638SOL     MW 2552   2.761   0.513   0.571 -0.5458  0.4587  0.3993
  639SOL     OW 2553   1.752   0.032   0.619 -0.2481  0.4171 -0.2254
  639SOL    HW1 2554   1.664   0.061   0.598 -0.2109 -2.0553  1.0290
  639SOL    HW2 2555   1.767  -0.034   0.545 -0.1247 -0.6201 -2.2248
  639SOL     MW 2556   1.742   0.027   0.606 -0.2269 -0.0459 -0.3237
  640SOL     OW 2557   0.357   1.304   0.118 -0.3171 -0.3744  0.5104
  640SOL    HW1 2558   0.380   1.343   0.031  1.6553  1.2684  1.0470
  640SOL    HW2 2559   0.317   1.219   0.096  0.5104 -2.1261  0.5965
  640SOL     MW 2560   0.355   1.298   0.104  0.0523 -0.3888  0.5925
  641SOL     OW 2561   2.164   0.409   0.353 -0.0030 -0.2561  0.4678
  641SOL    HW1 2562   2.214   0.411   0.267  2.5062 -0.2995 -1.2625
  641SOL    HW2 2563   2.208   0.350   0.407 -0.4880  0.8232  2.6990
  641SOL     MW 2564   2.176   0.402   0.349  0.2641 -0.1194  0.5339
  642SOL     OW 2565   0.066   3.068   0.575  0.8757  0.1324 -0.4006
  642SOL    HW1 2566   0.031   3.152   0.533  1.4994  1.5621  0.8045
  642SOL    HW2 2567  -0.012   3.018   0.613  1.7922 -2.8313  1.5972
  642SOL     MW 2568   0.051   3.073   0.575  1.0789 -0.0700  0.0220
  643SOL     OW 2569   2.013   0.337   1.623 -0.7540  0.3137 -0.2669
  643SOL    HW1 2570   1.944   0.327   1.686 -0.0184 -2.6702 -1.1336
  643SOL    HW2 2571   2.014   0.242   1.590 -1.4426 -1.6489 -0.8104
  643SOL     MW 2572   2.004   0.323   1.627 -0.7478 -0.3389 -0.4530
  644SOL     OW 2573   2.746   2.035   1.046  0.1831  0.0514  0.1163
  644SOL    HW1 2574   2.735   1.940   1.060  0.3119 -0.7775 -0.4239
  644SOL    HW2 2575   2.659   2.071   1.038 -1.9443 -2.0846  0.2103
  644SOL     MW 2576   2.733   2.027   1.047 -0.0806 -0.3398  0.0575
  645SOL     OW 2577   2.853   0.837   0.654 -0.1919 -0.3201 -0.1969
  645SOL    HW1 2578   2.946   0.832   0.665  0.7129  1.6774  0.2923
  645SOL    HW2 2579   2.820   0.773   0.711 -0.5492 -1.9057 -0.4322
  645SOL     MW 2580   2.861   0.828   0.663 -0.1197 -0.2658 -0.1634
  646SOL     OW 2581   0.163   2.298   0.817 -0.4823  0.3962  0.0127
  646SOL    HW1 2582   0.166   2.198   0.835  1.8940 -0.9158 -1.6960
  646SOL    HW2 2583   0.073   2.313   0.780  1.7021  0.4036  1.1466
  646SOL     MW 2584   0.152   2.287   0.814  0.1194  0.2241 -0.0631
  647SOL     OW 2585   2.664   0.471   2.962 -0.0356  0.0789 -0.2730
  647SOL    HW1 2586   2.618   0.418   3.028 -2.2622  0.8565 -1.1445
  647SOL    HW2 2587   2.663   0.555   3.007 -0.0778 -0.7180 -0.7616
  647SOL     MW 2588   2.658   0.475   2.976 -0.3350  0.0764 -0.4525
  648SOL     OW 2589   2.093   0.743   1.211 -0.3932  0.1739 -0.3168
  648SOL    HW1 2590   2.166   0.745   1.157 -1.1933 -1.8991  1.5435
  648SOL    HW2 2591   2.103   0.810   1.276 -2.0227 -1.5616 -3.8913
  648SOL     MW 2592   2.104   0.752   1.212 -0.7137 -0.3286 -0.5430
  649SOL     OW 2593   2.373   2.679   1.264  0.3487 -0.3180  0.0308
  649SOL    HW1 2594   2.462   2.704   1.275  3.2746  0.4258  1.5572
  649SOL    HW2 2595   2.378   2.589   1.292  0.3073 -2.4219  0.5033
  649SOL     MW 2596   2.385   2.670   1.269  0.7293 -0.4975  0.2945
  650SOL     OW 2597   2.838   0.212   0.633  0.4210 -0.2487  0.1901
  650SOL    HW1 2598   2.804   0.294   0.600  0.8774 -1.9667 -2.9144
  650SOL    HW2 2599   2.923   0.218   0.596 -2.3343  4.0671 -0.4152
  650SOL     MW 2600   2.845   0.224   0.624  0.1177  0.0941 -0.2994
  651SOL     OW 2601   2.980   0.418   0.891  0.3476  0.3339  0.4369
  651SOL    HW1 2602   3.053   0.472   0.864 -1.4732 -1.2383 -1.8928
  651SOL    HW2 2603   2.928   0.476   0.942  1.8996 -0.5184  0.9041
  651SOL     MW 2604   2.983   0.432   0.894  0.3122  0.0140  0.1911
  652SOL     OW 2605   2.454   1.504   2.984 -0.0183 -0.9876  0.4077
  652SOL    HW1 2606   2.514   1.487   2.907  2.2323  4.0814 -1.1490
  652SOL    HW2 2607   2.429   1.590   2.967  3.4186 -0.4989 -1.7737
  652SOL     MW 2608   2.459   1.513   2.972  0.7321 -0.2543 -0.0855
  653SOL     OW 2609   1.838   0.416   0.400 -0.8994 -0.1850  0.3129
  653SOL    HW1 2610   1.772   0.377   0.345  0.3310 -2.3357  2.7638
  653SOL    HW2 2611   1.916   0.381   0.364 -1.8745  0.9777 -1.3466
  653SOL     MW 2612   1.840   0.406   0.388 -0.8657 -0.3154  0.4173
  654SOL     OW 2613   2.392   1.033   0.767  0.1712  0.1052  0.7715
  654SOL    HW1 2614   2.325   1.017   0.697 -1.2327  0.2159  1.1932
  654SOL    HW2 2615   2.422   0.945   0.775 -2.6123  2.0084 -0.0225
  654SOL     MW 2616   2.387   1.019   0.758 -0.3813  0.3709  0.7224
  655SOL     OW 2617   2.907   0.817   0.353  0.2977  0.2733 -0.2065
  655SOL    HW1 2618   2.847   0.842   0.421  1.6624 -1.1918  1.5367
  655SOL    HW2 2619   2.939   0.726   0.378 -0.4321  1.7536  0.0254
  655SOL     MW 2620   2.903   0.808   0.365  0.3814  0.2753  0.0541
  656SOL     OW 2621   1.869   2.718   1.341  0.6487 -0.3455  0.4994
  656SOL    HW1 2622   1.903   2.804   1.366  1.4837  0.3141  0.9233
  656SOL    HW2 2623   1.924   2.658   1.381 -2.3043  1.4334 -1.6973
  656SOL     MW 2624   1.881   2.722   1.349  0.3692 -0.0238  0.2655
  657SOL     OW 2625   0.129   1.720   1.192 -0.4344  0.9216 -1.1476
  657SOL    HW1 2626   0.202   1.780   1.170  0.6065 -1.7486 -3.1913
  657SOL    HW2 2627   0.151   1.628   1.176 -0.1968  1.8808  1.9090
  657SOL     MW 2628   0.142   1.716   1.187 -0.2657  0.6958 -1.0140
  658SOL     OW 2629   2.710   1.352   0.233 -0.4919  0.4175  0.4766
  658SOL    HW1 2630   2.673   1.277   0.289  0.9376  2.8280 -2.0024
  658SOL    HW2 2631   2.743   1.422   0.292 -2.2948  1.1009  0.3476
  658SOL     MW 2632   2.710   1.351   0.248 -0.5411  0.8257  0.1325
  659SOL     OW 2633   2.281   1.521   1.069  0.2026  0.2997  0.2641
  659SOL    HW1 2634   2.377   1.507   1.048  1.4660 -0.5896 -1.5540
  659SOL    HW2 2635   2.270   1.572   1.155  0.2760 -0.4729  2.7681
  659SOL     MW 2636   2.292   1.525   1.077  0.3790  0.0805  0.3546
  660SOL     OW 2637   2.025   1.577   1.692 -0.6789 -0.1194  0.2989
  660SOL    HW1 2638   2.058   1.578   1.782  2.4896 -1.5733 -1.3060
  660SOL    HW2 2639   1.931   1.550   1.694  0.9896  0.6514  0.9447
  660SOL     MW 2640   2.017   1.573   1.704 -0.0407 -0.2096  0.1724
  661SOL     OW 2641   2.424   0.998   0.200  0.2548  0.2881 -0.4245
  661SOL    HW1 2642   2.456   1.040   0.282  1.6138  0.2191 -0.3667
  661SOL    HW2 2643   2.404   0.902   0.225  1.4459 -2.2624  0.6667
  661SOL     MW 2644   2.426   0.991   0.214  0.5913 -0.0575 -0.2729
  662SOL     OW 2645   2.578   2.959   0.852 -0.6106 -0.2238  0.2726
  662SOL    HW1 2646   2.544   3.026   0.912 -1.9410 -1.7086  0.4408
  662SOL    HW2 2647   2.598   2.997   0.766 -1.6874 -1.3129  0.2321
  662SOL     MW 2648   2.576   2.973   0.849 -0.9282 -0.5634  0.2894
  663SOL     OW 2649   2.685   1.491   0.500 -0.4460 -0.0409  0.2755
  663SOL    HW1 2650   2.655   1.564   0.447  2.1642 -0.8374  0.9595
  663SOL    HW2 2651   2.746   1.515   0.566 -1.8941  0.2872  0.0073
  663SOL     MW 2652   2.689   1.504   0.501 -0.2927 -0.1027  0.3303
  664SOL     OW 2653   2.522   1.524   1.578  0.6324  0.2685 -0.1611
  664SOL    HW1 2654   2.508   1.615   1.555 -0.4881 -2.1879 -0.6533
  664SOL    HW2 2655   2.436   1.500   1.614  0.3864  0.4825  0.9603
  664SOL     MW 2656   2.509   1.533   1.580  0.4521 -0.0274 -0.0781
  665SOL     OW 2657   2.854   0.852   2.021  0.1356  0.0204  0.2150
  665SOL    HW1 2658   2.851   0.894   1.930  0.7439 -1.4142  0.7641
  665SOL    HW2 2659   2.930   0.792   2.028  1.4616  3.5184  2.6427
  665SOL     MW 2660   2.863   0.850   2.010  0.3908  0.2926  0.6078
  666SOL     OW 2661   2.757   2.998   1.711  0.0694  0.3078 -0.3189
  666SOL    HW1 2662   2.750   3.028   1.623 -2.6190 -2.5070 -1.7833
  666SOL    HW2 2663   2.692   2.928   1.718  2.4974  1.3968  1.7039
  666SOL     MW 2664   2.748   2.993   1.701  0.0350  0.0801 -0.2452
  667SOL     OW 2665   1.942   2.705   1.752 -0.5998  0.5910  0.1396
  667SOL    HW1 2666   1.944   2.654   1.836 -2.5778  1.5983  1.4615
  667SOL    HW2 2667   2.029   2.750   1.742  1.5110 -1.2272 -0.5797
  667SOL     MW 2668   1.954   2.704   1.762 -0.5823  0.4840  0.2191
  668SOL     OW 2669   2.745   0.654   0.839  0.0886  0.1880 -0.0535
  668SOL    HW1 2670   2.804   0.668   0.913 -0.7818  0.9636  1.2425
  668SOL    HW2 2671   2.669   0.709   0.838  1.7071 -0.4682 -1.8763
  668SOL     MW 2672   2.743   0.663   0.848  0.1873  0.2038 -0.1230
  669SOL     OW 2673   0.235   0.968   0.679  0.0130  0.0366  0.0046
  669SOL    HW1 2674   0.178   1.028   0.722 -2.5644 -0.8790  0.2148
  669SOL    HW2 2675   0.317   0.950   0.737 -1.9721  1.0251  0.5868
  669SOL     MW 2676   0.238   0.973   0.692 -0.5890  0.0462  0.1091
  670SOL     OW 2677   2.905   0.230   0.221 -0.1473 -0.3416 -0.6148
  670SOL    HW1 2678   2.912   0.155   0.157  0.8927  2.4668 -0.7242
  670SOL    HW2 2679   2.917   0.312   0.177 -2.0933 -1.0298 -2.2680
  670SOL     MW 2680   2.908   0.231   0.207 -0.2668 -0.0619 -0.8474
  671SOL     OW 2681   2.012   2.976   1.490  0.1453  0.1542  0.6787
  671SOL    HW1 2682   1.946   3.007   1.429  0.4665  2.8931  1.7059
  671SOL    HW2 2683   1.990   3.022   1.573  0.2145  1.2910 -0.9361
  671SOL     MW 2684   2.000   2.986   1.493  0.1968  0.6656  0.6012
  672SOL     OW 2685   1.911   1.671   1.308 -0.1257  0.2932 -0.1187
  672SOL    HW1 2686   1.826   1.713   1.324 -0.4625  1.4020  0.1549
  672SOL    HW2 2687   1.940   1.697   1.215 -0.4314 -0.3017 -2.0878
  672SOL     MW 2688   1.904   1.680   1.298 -0.2104  0.3610 -0.3424
  673SOL     OW 2689   2.775   1.082   0.583  0.3040  0.5788 -0.2025
  673SOL    HW1 2690   2.806   0.994   0.616 -1.9750  0.4818 -1.0631
  673SOL    HW2 2691   2.855   1.139   0.601  2.8003  2.1878 -0.7763
  673SOL     MW 2692   2.790   1.078   0.590  0.3326  0.7783 -0.3918
  674SOL     OW 2693   2.431   0.049   1.309  0.1305 -0.4140 -0.4964
  674SOL    HW1 2694   2.409   0.031   1.217 -0.1315 -1.2736  2.1356
  674SOL    HW2 2695   2.421  -0.038   1.345 -0.9966  0.8928 -0.1519
  674SOL     MW 2696   2.427   0.035   1.301 -0.0528 -0.3550 -0.1037
  675SOL     OW 2697   3.053   0.878   1.066  0.5151 -0.0361  0.4974
  675SOL    HW1 2698   3.125   0.854   1.125 -2.6827  1.6379  0.0095
  675SOL    HW2 2699   3.088   0.942   1.004 -0.9448 -0.9379  0.2875
  675SOL     MW 2700   3.067   0.883   1.066 -0.0994  0.0658  0.4053
  676SOL     OW 2701   2.871   1.514   1.641  0.4106  0.7031 -0.2943
  676SOL    HW1 2702   2.803   1.447   1.615 -1.2621 -2.1497 -0.7016
  676SOL    HW2 2703   2.947   1.485   1.692 -0.1474  1.9929  0.0645
  676SOL     MW 2704   2.872   1.502   1.645  0.1163  0.4969 -0.3007
  677SOL     OW 2705   2.402   0.581   1.981  0.1636 -0.3979  0.3245
  677SOL    HW1 2706   2.377   0.557   1.891  0.4974 -4.9695 -0.3345
  677SOL    HW2 2707   2.370   0.668   1.994  0.7787 -2.3517 -0.1298
  677SOL     MW 2708   2.394   0.589   1.971  0.2888 -1.2588  0.1776
  678SOL     OW 2709   2.562   1.653   0.324  1.1394  0.5586 -0.3647
  678SOL    HW1 2710   2.484   1.707   0.351 -1.5741  1.5999  0.7066
  678SOL    HW2 2711   2.535   1.590   0.253 -0.4738 -0.8184 -2.6246
  678SOL     MW 2712   2.548   1.652   0.318  0.5685  0.5143 -0.5215
  679SOL     OW 2713   2.250   0.485   1.232 -0.1287 -0.4079  0.2119
  679SOL    HW1 2714   2.221   0.402   1.197 -1.1493 -0.6936 -0.0011
  679SOL    HW2 2715   2.177   0.525   1.281  0.8899  1.1063  2.0304
  679SOL     MW 2716   2.236   0.479   1.234 -0.1289 -0.2458  0.4237
  680SOL     OW 2717   2.354   0.188   1.516 -0.7203 -0.4148 -0.2656
  680SOL    HW1 2718   2.266   0.198   1.491  3.5962 -2.9985  0.6885
  680SOL    HW2 2719   2.397   0.149   1.441 -0.4860  1.8636  2.3997
  680SOL     MW 2720   2.348   0.184   1.503 -0.1199 -0.4551  0.2120
  681SOL     OW 2721   0.289   0.565   1.564 -0.1475 -0.5492 -0.2587
  681SOL    HW1 2722   0.269   0.486   1.609  1.1993  3.1633 -1.0263
  681SOL    HW2 2723   0.382   0.555   1.550 -0.6804  0.0938 -2.3820
  681SOL     MW 2724   0.299   0.554   1.568 -0.0401  0.0255 -0.6401
  682SOL     OW 2725   0.074   2.889   1.490 -0.2137 -0.1789  0.0581
  682SOL    HW1 2726   0.084   2.981   1.474  3.5026  0.9265  0.3393
  682SOL    HW2 2727   0.051   2.893   1.582 -2.0857  0.4610  1.0370
  682SOL     MW 2728   0.072   2.901   1.500  0.0297  0.0513  0.2243
  683SOL     OW 2729   2.044   0.841   2.982 -0.3040 -0.5941  0.2352
  683SOL    HW1 2730   1.950   0.814   2.974 -1.7464 -0.2242 -2.8749
  683SOL    HW2 2731   2.040   0.935   2.980  0.2485 -1.7097  0.9537
  683SOL     MW 2732   2.031   0.850   2.981 -0.4214 -0.6925 -0.0804
  684SOL     OW 2733   2.216   1.674   0.860  0.1096  0.1636 -0.8337
  684SOL    HW1 2734   2.192   1.609   0.798 -0.5935  1.1263 -2.6777
  684SOL    HW2 2735   2.228   1.626   0.947 -0.3562 -0.5212 -0.3480
  684SOL     MW 2736   2.214   1.659   0.864 -0.0446  0.2003 -1.0129
  685SOL     OW 2737   2.648   1.753   1.209 -0.5438 -0.2252 -0.4458
  685SOL    HW1 2738   2.679   1.749   1.299 -0.1750  0.0246 -0.6723
  685SOL    HW2 2739   2.621   1.661   1.190 -1.3926 -0.9448  0.2969
  685SOL     MW 2740   2.648   1.740   1.218 -0.6072 -0.2872 -0.3777
  686SOL     OW 2741   2.899   0.774   1.509 -0.1271  0.0996  0.2697
  686SOL    HW1 2742   2.889   0.727   1.591 -0.0041  0.2783 -0.3798
  686SOL    HW2 2743   2.991   0.756   1.488 -2.3464  0.4788 -3.1562
  686SOL     MW 2744   2.910   0.766   1.517 -0.4037  0.1732 -0.2680
  687SOL     OW 2745   2.113   0.226   1.141  0.2954  0.3730 -0.0522
  687SOL    HW1 2746   2.141   0.162   1.074 -0.0035 -2.7717  0.4150
  687SOL    HW2 2747   2.062   0.296   1.102  1.4274  1.9273  1.8836
  687SOL     MW 2748   2.110   0.227   1.127  0.4053  0.1632  0.2648
  688SOL     OW 2749   2.387   0.589   1.434  0.3889 -0.7110  0.4200
  688SOL    HW1 2750   2.328   0.571   1.356 -4.2338  0.6084  0.9311
  688SOL    HW2 2751   2.326   0.624   1.498 -1.6396  0.5474 -0.8187
  688SOL     MW 2752   2.371   0.591   1.432 -0.4886 -0.3709  0.3240
  689SOL     OW 2753   2.532   0.742   2.979 -0.2588  0.3199  0.5600
  689SOL    HW1 2754   2.572   0.822   2.946 -2.3470  1.6945  2.0839
  689SOL    HW2 2755   2.571   0.743   3.064  0.2472 -2.7868 -4.3240
  689SOL     MW 2756   2.543   0.752   2.986 -0.4675  0.0913  0.1167
  690SOL     OW 2757   2.045   0.957   1.908 -0.1498 -0.2021 -0.6253
  690SOL    HW1 2758   1.995   0.876   1.877 -1.3972 -1.9339  0.8362
  690SOL    HW2 2759   2.081   1.000   1.827  0.4802  2.2416 -1.8900
  690SOL     MW 2760   2.043   0.952   1.893 -0.2313 -0.1082 -0.5994
  691SOL     OW 2761   2.400   0.276   0.893 -0.6977  0.1014  0.4299
  691SOL    HW1 2762   2.464   0.332   0.934  1.0826  0.3305 -1.8976
  691SOL    HW2 2763   2.316   0.317   0.910 -1.7315  0.1229 -0.4745
  691SOL     MW 2764   2.398   0.289   0.901 -0.5992  0.1344  0.0035
  692SOL     OW 2765   2.798   1.690   1.457  0.6178  0.0716 -0.3337
  692SOL    HW1 2766   2.826   1.636   1.534  1.0543 -0.3480  0.2600
  692SOL    HW2 2767   2.862   1.763   1.453  3.7595 -0.4264  3.6007
  692SOL     MW 2768   2.810   1.693   1.466  1.0899 -0.0495  0.2638
  693SOL     OW 2769   2.270   0.424   0.094  0.3345 -0.2334  0.2638
  693SOL    HW1 2770   2.219   0.341   0.073  1.1159 -1.7127 -1.8226
  693SOL    HW2 2771   2.246   0.503   0.047  0.2879 -2.4883  3.1031
  693SOL     MW 2772   2.260   0.423   0.085  0.4314 -0.7261  0.3632
  694SOL     OW 2773   1.929   1.205   1.128  0.5994 -0.6335  0.5209
  694SOL    HW1 2774   2.007   1.183   1.175 -1.4385  0.4693 -0.6117
  694SOL    HW2 2775   1.871   1.132   1.143  1.8346  0.7853  1.0774
  694SOL     MW 2776   1.932   1.192   1.137  0.4935 -0.3008  0.4449
  695SOL     OW 2777   3.015   1.485   1.350 -0.1123  0.0127 -0.4653
  695SOL    HW1 2778   2.991   1.428   1.277 -0.4359 -0.0852 -2.0207
  695SOL    HW2 2779   2.936   1.534   1.383  0.4923 -0.0315  0.3131
  695SOL     MW 2780   3.001   1.484   1.345 -0.0752 -0.0061 -0.5678
  696SOL     OW 2781   2.156   1.378   0.878  0.1423 -0.4117 -0.0191
  696SOL    HW1 2782   2.201   1.427   0.945 -0.4562 -2.0898 -4.9607
  696SOL    HW2 2783   2.128   1.302   0.926 -2.4579 -1.5761 -3.3165
  696SOL     MW 2784   2.158   1.375   0.893 -0.2797 -0.7867 -1.1061
  697SOL     OW 2785   2.926   1.060   2.183  0.2393 -0.4595 -0.1288
  697SOL    HW1 2786   2.867   1.139   2.166 -2.5184  1.8411  1.1658
  697SOL    HW2 2787   2.892   0.990   2.131 -0.8807  3.7954 -0.9162
  697SOL     MW 2788   2.914   1.061   2.174 -0.2723  0.4055 -0.0619
  698SOL     OW 2789   2.532   0.292   0.025 -0.3511 -0.0643 -0.1421
  698SOL    HW1 2790   2.472   0.351   0.072 -0.0931 -0.4391 -0.8219
  698SOL    HW2 2791   2.575   0.242   0.101 -1.4198  0.1062 -0.9737
  698SOL     MW 2792   2.529   0.293   0.041 -0.4581 -0.0913 -0.3415
  699SOL     OW 2793   1.822   1.624   2.007  0.1071  0.3431  0.2888
  699SOL    HW1 2794   1.784   1.535   1.985 -2.1019 -0.1485 -0.0581
  699SOL    HW2 2795   1.920   1.613   2.028  0.9350  3.7793  1.5256
  699SOL     MW 2796   1.830   1.611   2.007 -0.0751  0.7316  0.4062
  700SOL     OW 2797   2.695   0.941   1.490 -0.8055  0.5158 -0.1401
  700SOL    HW1 2798   2.698   1.024   1.442 -1.2547  0.5027  0.5123
  700SOL    HW2 2799   2.785   0.900   1.480  0.1378  0.2151  1.0157
  700SOL     MW 2800   2.707   0.946   1.483 -0.7403  0.4744  0.0985
  701SOL     OW 2801   1.621   1.201   2.488  0.3984  0.0070  0.0830
  701SOL    HW1 2802   1.704   1.246   2.476 -1.3702  0.1687  2.6469
  701SOL    HW2 2803   1.604   1.222   2.579 -1.7474 -2.4790  2.3528
  701SOL     MW 2804   1.629   1.210   2.499 -0.1181 -0.2997  0.7207
  702SOL     OW 2805   2.162   0.416   0.849 -0.0932  0.0422 -0.7789
  702SOL    HW1 2806   2.151   0.354   0.770  1.1845  0.1016 -0.0289
  702SOL    HW2 2807   2.195   0.490   0.798 -1.6625  0.4452 -0.3426
  702SOL     MW 2808   2.165   0.417   0.832 -0.1316  0.1032 -0.6224
  703SOL     OW 2809   2.747   1.244   1.003  0.0862 -0.0942  0.1944
  703SOL    HW1 2810   2.697   1.245   0.924  3.1019  0.6548 -0.3501
  703SOL    HW2 2811   2.758   1.147   1.023 -0.2426 -2.9294  1.0556
  703SOL     MW 2812   2.742   1.232   0.995  0.4407 -0.3694  0.2361
  704SOL     OW 2813   3.055   1.240   0.177 -0.2080 -0.1076 -0.8358
  704SOL    HW1 2814   2.961   1.249   0.163  1.6989 -2.2964 -0.4638
  704SOL    HW2 2815   3.081   1.232   0.270  3.0515 -2.9182  2.0020
  704SOL     MW 2816   3.046   1.240   0.187  0.4736 -0.7672 -0.4123
  705SOL     OW 2817   2.211   1.639   1.326 -0.4337  0.2805 -0.3513
  705SOL    HW1 2818   2.123   1.653   1.338  2.1007 -0.5196 -0.6976
  705SOL    HW2 2819   2.224   1.540   1.337 -0.8497 -3.9118  1.5261
  705SOL     MW 2820   2.201   1.628   1.329 -0.1542 -0.3782 -0.1493
  706SOL     OW 2821   2.994   1.205   0.687 -0.6186  0.4895 -0.0759
  706SOL    HW1 2822   3.027   1.203   0.591  1.6805 -1.7483 -1.6557
  706SOL    HW2 2823   2.966   1.294   0.707  0.5803 -0.6495 -1.4408
  706SOL     MW 2824   2.994   1.217   0.677 -0.1571  0.0440 -0.4644
  707SOL     OW 2825   2.429   0.028   1.003  0.1386  0.5503 -0.1162
  707SOL    HW1 2826   2.448   0.097   0.945 -1.0703 -0.7146  1.3500
  707SOL    HW2 2827   2.331   0.025   0.989 -1.8956  2.6935 -0.0222
  707SOL     MW 2828   2.419   0.037   0.993 -0.2893  0.6662  0.0897
  708SOL     OW 2829   2.473   1.458   0.157 -0.6472 -0.2570  0.3334
  708SOL    HW1 2830   2.559   1.416   0.174 -0.5987 -3.7201  0.1511
  708SOL    HW2 2831   2.458   1.468   0.059 -0.7465 -1.2992 -1.4565
  708SOL     MW 2832   2.483   1.454   0.146 -0.6539 -0.8514  0.0732
  709SOL     OW 2833   1.765   1.614   0.181  0.2438  0.2994  0.3957
  709SOL    HW1 2834   1.760   1.687   0.113  0.5148  2.3606 -1.1342
  709SOL    HW2 2835   1.694   1.620   0.245  0.8231 -0.5303  0.5784
  709SOL     MW 2836   1.755   1.624   0.181  0.3560  0.4619  0.2179
  710SOL     OW 2837   2.208   1.231   1.214 -0.1324  1.2236 -0.2016
  710SOL    HW1 2838   2.227   1.184   1.132  1.4205 -0.0052 -0.2169
  710SOL    HW2 2839   2.209   1.157   1.276 -0.9832 -0.1934  0.9268
  710SOL     MW 2840   2.210   1.215   1.211 -0.0398  0.8745 -0.0547
  711SOL     OW 2841   2.346   0.119   1.796  0.1436 -0.0276  0.0489
  711SOL    HW1 2842   2.439   0.136   1.804  1.7288 -1.4920 -2.0048
  711SOL    HW2 2843   2.345   0.119   1.704  2.0535  2.1754 -0.8726
  711SOL     MW 2844   2.358   0.121   1.785  0.6047  0.0699 -0.3436
  712SOL     OW 2845   1.943   0.518   0.050  0.1474 -0.1752  0.0340
  712SOL    HW1 2846   1.854   0.541   0.036 -1.5378 -0.8205 -1.1998
  712SOL    HW2 2847   1.971   0.567   0.131  0.2690  3.6255  2.6726
  712SOL     MW 2848   1.935   0.528   0.059 -0.0589  0.2412  0.2194
  713SOL     OW 2849   2.555   0.834   1.112  0.0215  0.6997 -0.4415
  713SOL    HW1 2850   2.595   0.745   1.128 -3.0514 -0.5921  2.4575
  713SOL    HW2 2851   2.481   0.844   1.171 -2.1715  2.2828 -0.3135
  713SOL     MW 2852   2.550   0.824   1.122 -0.6733  0.7381 -0.0421
  714SOL     OW 2853   2.216   0.232   2.003  0.2937  0.0564  0.5215
  714SOL    HW1 2854   2.246   0.209   2.089 -0.7799  1.1631 -1.9461
  714SOL    HW2 2855   2.251   0.170   1.936 -1.8571 -0.6508 -1.2440
  714SOL     MW 2856   2.224   0.221   2.005 -0.1317  0.1091 -0.0370
  715SOL     OW 2857   1.726   1.952   1.667  0.0229 -0.0284 -0.5101
  715SOL    HW1 2858   1.810   1.924   1.633  2.1629 -0.8604  1.6993
  715SOL    HW2 2859   1.704   1.869   1.720  0.2579 -2.4757 -0.8802
  715SOL     MW 2860   1.734   1.937   1.669  0.3362 -0.4611 -0.2674
  716SOL     OW 2861   2.320   0.637   0.679  0.2307 -0.3145  0.2635
  716SOL    HW1 2862   2.364   0.553   0.662  0.9490 -0.2451  0.5877
  716SOL    HW2 2863   2.283   0.652   0.590 -0.9407 -0.8017 -0.1609
  716SOL     MW 2864   2.321   0.628   0.665  0.1709 -0.3696  0.2503
  717SOL     OW 2865   2.878   1.537   2.934 -0.1486  0.1982 -0.1206
  717SOL    HW1 2866   2.965   1.530   2.971 -1.0808  1.1003  1.9308
  717SOL    HW2 2867   2.840   1.603   2.995  0.3101  1.9297 -2.0141
  717SOL     MW 2868   2.885   1.545   2.947 -0.2111  0.5457 -0.0998
  718SOL     OW 2869   2.664   1.397   1.325  0.6644 -0.1379  0.0683
  718SOL    HW1 2870   2.640   1.404   1.420  0.0002  1.3079 -0.0460
  718SOL    HW2 2871   2.722   1.316   1.312  2.0618 -2.0103  0.0778
  718SOL     MW 2872   2.669   1.387   1.336  0.7611 -0.1942  0.0544
  719SOL     OW 2873   2.184   1.285   0.602 -0.3587 -0.6358 -0.2280
  719SOL    HW1 2874   2.278   1.279   0.583  1.0817 -0.5360 -3.4011
  719SOL    HW2 2875   2.172   1.337   0.683 -0.2888  1.1742  0.1184
  719SOL     MW 2876   2.195   1.291   0.610 -0.1594 -0.3839 -0.6010
  720SOL     OW 2877   2.815   1.188   0.034 -0.8957  0.5850 -0.6570
  720SOL    HW1 2878   2.775   1.108   0.061  0.0679 -0.0270  0.3717
  720SOL    HW2 2879   2.777   1.259   0.084 -2.0263  1.0596  2.0715
  720SOL     MW 2880   2.805   1.187   0.044 -0.9178  0.5669 -0.1613
  721SOL     OW 2881   2.442   0.868   1.354  0.3984  0.1654 -0.0336
  721SOL    HW1 2882   2.439   0.777   1.392 -1.0946  0.7202  0.0546
  721SOL    HW2 2883   2.535   0.891   1.384  0.4970  0.3549  3.5934
  721SOL     MW 2884   2.453   0.859   1.363  0.2144  0.2636  0.4566
  722SOL     OW 2885   2.588   1.166   0.376  0.3862 -0.4100  0.4103
  722SOL    HW1 2886   2.537   1.241   0.405  0.1352  1.3064 -0.2724
  722SOL    HW2 2887   2.639   1.133   0.454  1.7465  0.3524 -4.0306
  722SOL     MW 2888   2.588   1.172   0.390  0.5326 -0.0829 -0.2657
  723SOL     OW 2889   2.252   1.408   1.630 -0.2333 -0.3744 -0.4575
  723SOL    HW1 2890   2.281   1.417   1.535  1.0498  2.6760 -0.5736
  723SOL    HW2 2891   2.161   1.436   1.637 -1.9081 -1.9295  0.0903
  723SOL     MW 2892   2.244   1.413   1.618 -0.2850 -0.1771 -0.4005
  724SOL     OW 2893   2.447   0.396   0.639 -0.2982 -0.0552  0.2558
  724SOL    HW1 2894   2.434   0.350   0.720  0.5410 -0.9259 -1.9376
  724SOL    HW2 2895   2.539   0.401   0.624  0.0317  1.6798  0.5029
  724SOL     MW 2896   2.457   0.391   0.648 -0.1439  0.0588 -0.0010
  725SOL     OW 2897   2.573   0.551   1.185 -0.0701  0.4284  0.7474
  725SOL    HW1 2898   2.666   0.560   1.229  2.9628 -1.1427  0.3260
  725SOL    HW2 2899   2.534   0.492   1.248 -0.5660  2.3120  0.2630
  725SOL     MW 2900   2.580   0.545   1.199  0.2646  0.4696  0.6279
  726SOL     OW 2901   2.604   2.439   0.543 -0.6727 -0.1849  0.1336
  726SOL    HW1 2902   2.568   2.499   0.478  1.8458  1.6326  0.8179
  726SOL    HW2 2903   2.526   2.405   0.599  1.2621  0.2722  3.2515
  726SOL     MW 2904   2.589   2.442   0.542 -0.0851  0.1152  0.6353
  727SOL     OW 2905   2.875   0.296   1.628  0.1158  0.0963 -0.1514
  727SOL    HW1 2906   2.849   0.326   1.543 -0.1936  1.2605  0.4040
  727SOL    HW2 2907   2.805   0.303   1.693  0.7569 -1.3674  1.2732
  727SOL     MW 2908   2.862   0.301   1.626  0.1595  0.0568  0.1098
  728SOL     OW 2909   2.820   1.158   2.856  0.0274 -0.0155 -0.3401
  728SOL    HW1 2910   2.835   1.244   2.814 -1.7658  1.5954 -1.0893
  728SOL    HW2 2911   2.833   1.187   2.952 -1.7195  1.6364 -2.5479
  728SOL     MW 2912   2.824   1.173   2.863 -0.4397  0.4150 -0.7302
  729SOL     OW 2913   2.553   1.517   1.108  0.1142  0.2976 -0.1182
  729SOL    HW1 2914   2.588   1.450   1.169  1.5880 -1.3907 -0.4121
  729SOL    HW2 2915   2.607   1.502   1.026 -0.9610 -0.1069  0.4714
  729SOL     MW 2916   2.564   1.506   1.105  0.1668  0.0215 -0.0792
  730SOL     OW 2917   2.145   1.179   0.203  0.4476  0.0605  0.1729
  730SOL    HW1 2918   2.229   1.175   0.161 -2.4722 -0.6475  0.4741
  730SOL    HW2 2919   2.118   1.270   0.212 -1.9727  0.9075 -1.9789
  730SOL     MW 2920   2.153   1.190   0.199 -0.2570  0.0788 -0.0712
  731SOL     OW 2921   2.831   1.913   2.864 -0.1764 -0.4404  0.2040
  731SOL    HW1 2922   2.745   1.929   2.818 -3.4890  0.1947 -0.2920
  731SOL    HW2 2923   2.890   1.989   2.850  0.8742  1.6922  0.6453
  731SOL     MW 2924   2.828   1.925   2.856 -0.4749 -0.0752  0.1968
  732SOL     OW 2925   2.188   0.960   1.352  0.7155  0.0999 -0.6585
  732SOL    HW1 2926   2.163   0.944   1.444 -0.2925  0.1437 -0.4847
  732SOL    HW2 2927   2.272   0.917   1.347  1.2927 -0.0760 -0.3599
  732SOL     MW 2928   2.196   0.952   1.363  0.6587  0.0825 -0.5962
  733SOL     OW 2929   2.339   2.769   3.062  0.8628  0.0536 -0.0100
  733SOL    HW1 2930   2.269   2.832   3.044 -1.6213  0.1275  2.0134
  733SOL    HW2 2931   2.296   2.682   3.047  0.3809  0.4201  0.8778
  733SOL     MW 2932   2.324   2.766   3.058  0.4714  0.1117  0.3741
  734SOL     OW 2933   1.462   0.373   2.444 -0.7432 -0.1739 -0.2485
  734SOL    HW1 2934   1.471   0.357   2.536 -0.5853  2.8291 -0.4090
  734SOL    HW2 2935   1.495   0.289   2.399 -1.2034 -2.1845  0.4633
  734SOL     MW 2936   1.468   0.360   2.450 -0.7831 -0.0429 -0.1758
  735SOL     OW 2937   2.924   0.923   2.598 -0.1213 -0.8413  0.1671
  735SOL    HW1 2938   2.923   0.829   2.575  0.6643  0.9045 -1.4577
  735SOL    HW2 2939   2.948   0.933   2.694 -2.7105 -1.5666  2.9065
  735SOL     MW 2940   2.927   0.912   2.607 -0.3593 -0.7066  0.3142
  736SOL     OW 2941   0.128   0.574   2.521 -0.4739 -0.2819 -0.1802
  736SOL    HW1 2942   0.170   0.641   2.471 -1.1109  0.6700 -1.7934
  736SOL    HW2 2943   0.100   0.508   2.458 -0.1219 -1.5984  1.0199
  736SOL     MW 2944   0.130   0.574   2.506 -0.5115 -0.3300 -0.2347
  737SOL     OW 2945   2.967   0.636   2.549  0.2181 -0.3947 -0.3475
  737SOL    HW1 2946   2.929   0.610   2.466 -0.8839 -0.0837 -0.2870
  737SOL    HW2 2947   3.058   0.608   2.531 -0.3510 -3.9575 -0.6535
  737SOL     MW 2948   2.974   0.629   2.536 -0.0024 -0.8238 -0.3799
  738SOL     OW 2949   0.228   0.573   1.885 -0.8520  0.2387 -0.0435
  738SOL    HW1 2950   0.319   0.605   1.871 -1.1736  1.8308 -1.1509
  738SOL    HW2 2951   0.219   0.504   1.818  0.0579  2.5601  0.4961
  738SOL     MW 2952   0.238   0.568   1.874 -0.7744  0.7550 -0.1184
  739SOL     OW 2953   2.423   1.071   2.105  0.3450  0.7037 -0.5611
  739SOL    HW1 2954   2.371   0.990   2.086 -0.1187 -1.2199  0.1857
  739SOL    HW2 2955   2.495   1.071   2.043  1.7037  0.0692  0.8169
  739SOL     MW 2956   2.426   1.060   2.095  0.4631  0.3662 -0.2808
  740SOL     OW 2957   0.247   1.776   2.957 -0.2365 -0.0789 -0.5857
  740SOL    HW1 2958   0.196   1.697   2.981  0.9568  0.2925  0.4081
  740SOL    HW2 2959   0.332   1.755   2.999  0.2337 -0.4803  0.1142
  740SOL     MW 2960   0.251   1.763   2.966 -0.0170 -0.0828 -0.3623
  741SOL     OW 2961   2.269   1.266   2.717  0.2372 -0.4534 -0.3673
  741SOL    HW1 2962   2.202   1.318   2.676 -1.5101 -0.9110  0.2769
  741SOL    HW2 2963   2.253   1.278   2.811  1.6730 -0.2797 -0.2497
  741SOL     MW 2964   2.258   1.274   2.724  0.1961 -0.4909 -0.2668
  742SOL     OW 2965   1.545   1.261   2.205 -0.4713  0.1849  0.2190
  742SOL    HW1 2966   1.482   1.193   2.184  0.2551 -1.2703 -0.4232
  742SOL    HW2 2967   1.552   1.260   2.302 -1.4761  1.9612  1.5027
  742SOL     MW 2968   1.537   1.252   2.215 -0.5080  0.2273  0.3036
  743SOL     OW 2969   2.528   1.263   2.793  0.1020  0.3622 -0.1517
  743SOL    HW1 2970   2.435   1.262   2.782 -0.4813 -1.0040 -1.4502
  743SOL    HW2 2971   2.555   1.174   2.847  1.5395 -1.0352  0.1208
  743SOL     MW 2972   2.520   1.252   2.799  0.2147 -0.0024 -0.2871
  744SOL     OW 2973   2.720   0.952   1.766 -0.1047  0.1376 -0.2937
  744SOL    HW1 2974   2.640   1.011   1.789  1.3433  1.9047 -0.2181
  744SOL    HW2 2975   2.693   0.920   1.678  0.4506 -1.0511 -1.7308
  744SOL     MW 2976   2.706   0.955   1.757  0.1596  0.2139 -0.4734
  745SOL     OW 2977   1.746   0.430   2.519 -0.5756  0.7027 -0.1159
  745SOL    HW1 2978   1.779   0.481   2.441  0.5644 -4.3470  0.1544
  745SOL    HW2 2979   1.661   0.403   2.491  0.0126 -1.5333 -1.6041
  745SOL     MW 2980   1.739   0.433   2.505 -0.3476 -0.2586 -0.2766
  746SOL     OW 2981   1.520   1.421   1.638  0.4361  0.2589 -0.1444
  746SOL    HW1 2982   1.605   1.467   1.650  2.9467 -0.2094 -1.9683
  746SOL    HW2 2983   1.514   1.380   1.728  1.4125 -0.5811  1.0620
  746SOL     MW 2984   1.530   1.422   1.651  0.8961  0.0863 -0.2259
  747SOL     OW 2985   2.530   1.118   1.843  0.3507 -0.7581  0.0473
  747SOL    HW1 2986   2.443   1.122   1.810  1.8772 -0.3534 -3.7201
  747SOL    HW2 2987   2.543   1.208   1.873 -1.8960 -0.5314 -3.7318
  747SOL     MW 2988   2.520   1.131   1.842  0.2556 -0.6748 -0.9484
  748SOL     OW 2989   0.122   0.072   1.817  0.2478 -0.2633  0.0457
  748SOL    HW1 2990   0.186   0.006   1.825  0.5124  2.3169  0.3490
  748SOL    HW2 2991   0.085   0.095   1.901 -1.8258 -0.0689  0.6951
  748SOL     MW 2992   0.125   0.066   1.829  0.0091  0.1027  0.1714
  749SOL     OW 2993   2.394   0.561   2.802  0.0652  0.1966  0.3626
  749SOL    HW1 2994   2.444   0.615   2.742 -0.2312  0.6779 -0.5075
  749SOL    HW2 2995   2.450   0.558   2.870 -0.5656  1.6367 -1.8699
  749SOL     MW 2996   2.408   0.568   2.803 -0.0571  0.4501 -0.0467
  750SOL     OW 2997   2.066   3.088   1.960 -0.1915  0.3342  0.1481
  750SOL    HW1 2998   2.099   3.169   1.992 -0.2584 -1.4549 -0.0849
  750SOL    HW2 2999   2.140   3.037   1.920  1.1264 -0.6792 -2.0954
  750SOL     MW 3000   2.080   3.092   1.959 -0.0265 -0.0356 -0.1787
  751SOL     OW 3001   0.022   0.433   2.323  0.0029  0.2099  0.2702
  751SOL    HW1 3002  -0.056   0.372   2.329 -0.2663 -1.4122  1.4078
  751SOL    HW2 3003   0.084   0.396   2.259 -0.7144  0.1118  1.3042
  751SOL     MW 3004   0.020   0.420   2.315 -0.1273 -0.0170  0.5567
  752SOL     OW 3005   2.113   0.849   2.715 -0.2928  0.0189  0.1105
  752SOL    HW1 3006   2.194   0.889   2.683 -0.0303  0.0449 -1.7131
  752SOL    HW2 3007   2.120   0.830   2.807 -1.9497  1.7151  0.1904
  752SOL     MW 3008   2.125   0.852   2.723 -0.4768  0.2461 -0.1196
  753SOL     OW 3009   2.880   0.284   2.333  0.0931 -0.7924  0.4106
  753SOL    HW1 3010   2.831   0.207   2.299  2.1395 -1.7457 -0.5626
  753SOL    HW2 3011   2.814   0.355   2.345 -0.4628  0.8879  0.1266
  753SOL     MW 3012   2.865   0.283   2.330  0.2898 -0.6965  0.2447
  754SOL     OW 3013   2.238   3.000   2.683 -0.0182 -0.0606 -0.2785
  754SOL    HW1 3014   2.237   3.011   2.582 -0.7894 -0.2658 -0.6543
  754SOL    HW2 3015   2.300   2.927   2.702  0.5490  1.7681 -0.6004
  754SOL     MW 3016   2.246   2.992   2.672 -0.0451  0.1536 -0.3706
  755SOL     OW 3017   2.725   1.581   2.479  0.1299  0.1531 -0.6185
  755SOL    HW1 3018   2.721   1.509   2.542 -1.1969 -0.7348 -0.0944
  755SOL    HW2 3019   2.713   1.669   2.520 -0.5124  0.9344  0.2301
  755SOL     MW 3020   2.723   1.583   2.493 -0.1299  0.1391 -0.4374
  756SOL     OW 3021   2.255   1.317   2.993  0.0811  0.5290  1.0636
  756SOL    HW1 3022   2.294   1.401   2.970 -0.9619  0.3222 -0.3972
  756SOL    HW2 3023   2.326   1.253   3.023 -1.2406 -0.3500  1.6358
  756SOL     MW 3024   2.270   1.320   2.994 -0.2309  0.3857  0.9463
  757SOL     OW 3025   2.105   0.992   1.641  0.2930  0.4535  0.5908
  757SOL    HW1 3026   2.118   0.899   1.656 -1.1900 -0.6388  2.3624
  757SOL    HW2 3027   2.015   1.004   1.605  1.6844  0.2340 -1.4843
  757SOL     MW 3028   2.095   0.981   1.638  0.2809  0.2804  0.5508
  758SOL     OW 3029   2.194   1.794   2.661 -0.1700  0.7284  0.3298
  758SOL    HW1 3030   2.172   1.816   2.569 -0.9772 -2.6451 -0.6560
  758SOL    HW2 3031   2.286   1.766   2.674 -1.6824 -0.2024 -0.5237
  758SOL     MW 3032   2.203   1.793   2.651 -0.4760  0.1605  0.0871
  759SOL     OW 3033   1.557   1.316   2.728 -0.7035 -0.2293 -0.3729
  759SOL    HW1 3034   1.562   1.403   2.685  2.5509 -0.2055  0.9504
  759SOL    HW2 3035   1.617   1.333   2.796  1.6826 -4.1316 -0.9570
  759SOL     MW 3036   1.566   1.330   2.731  0.0407 -0.7411 -0.2754
  760SOL     OW 3037   2.601   1.957   2.730 -1.0303  0.6065 -0.1031
  760SOL    HW1 3038   2.568   1.881   2.695 -1.8389 -2.2665  0.2755
  760SOL    HW2 3039   2.651   1.998   2.657  3.9645 -2.3031 -0.7927
  760SOL     MW 3040   2.603   1.953   2.716 -0.4780 -0.1565 -0.1441
  761SOL     OW 3041   2.085   0.430   2.474 -0.5094 -0.5394 -0.0258
  761SOL    HW1 3042   2.053   0.347   2.461  3.9367  0.6434  1.5397
  761SOL    HW2 3043   2.103   0.449   2.570 -1.1586 -2.4430  0.8511
  761SOL     MW 3044   2.083   0.421   2.485 -0.0084 -0.6345  0.2965
  762SOL     OW 3045   0.003   0.191   2.053 -0.4351 -0.1246 -0.3848
  762SOL    HW1 3046  -0.006   0.153   2.143  2.0703 -1.3787 -0.2520
  762SOL    HW2 3047  -0.039   0.279   2.064 -1.6684  0.0994  0.0285
  762SOL     MW 3048  -0.003   0.198   2.067 -0.2672 -0.2605 -0.3128
  763SOL     OW 3049   2.369   1.102   2.371  0.4107 -0.1604 -1.0459
  763SOL    HW1 3050   2.387   1.072   2.280  0.2049 -1.4606  1.3058
  763SOL    HW2 3051   2.430   1.172   2.390  0.2582 -1.5537  3.4072
  763SOL     MW 3052   2.379   1.107   2.361  0.3634 -0.5158 -0.1481
  764SOL     OW 3053   0.381   0.199   2.794 -0.1560  0.2933 -0.4154
  764SOL    HW1 3054   0.285   0.208   2.798  0.2964  2.5037 -0.6785
  764SOL    HW2 3055   0.402   0.271   2.858 -1.0130  2.5423 -0.9038
  764SOL     MW 3056   0.371   0.210   2.803 -0.2094  0.8817 -0.5146
  765SOL     OW 3057   2.662   0.083   2.278 -0.1064  0.1220 -0.0958
  765SOL    HW1 3058   2.616   0.057   2.194  0.6816 -0.7462 -0.0683
  765SOL    HW2 3059   2.715   0.012   2.310 -0.7813  1.6061  1.2906
  765SOL     MW 3060   2.663   0.070   2.271 -0.0915  0.2032  0.0908
  766SOL     OW 3061   1.862   3.036   2.117 -0.1318 -0.2841 -0.1541
  766SOL    HW1 3062   1.946   3.055   2.072 -0.9178  3.8626 -0.7220
  766SOL    HW2 3063   1.815   2.990   2.047 -4.3919  1.9718  0.9169
  766SOL     MW 3064   1.867   3.032   2.102 -0.7976  0.5607 -0.0877
  767SOL     OW 3065   2.687   0.654   1.930 -0.0877 -0.8037  0.2438
  767SOL    HW1 3066   2.723   0.730   1.981 -0.7345  1.8898  0.0872
  767SOL    HW2 3067   2.595   0.635   1.947 -2.5344 -1.6525  3.9778
  767SOL     MW 3068   2.680   0.661   1.939 -0.4959 -0.5603  0.7158
  768SOL     OW 3069   0.083   1.529   2.992  0.4795  0.1301  0.4308
  768SOL    HW1 3070   0.108   1.497   3.080  0.0751  0.5309  0.1983
  768SOL    HW2 3071   0.103   1.458   2.933 -1.2827 -1.5582 -1.8375
  768SOL     MW 3072   0.089   1.515   2.996  0.1936 -0.0397  0.1008
  769SOL     OW 3073   2.334   0.664   2.321 -0.2586  0.0277 -0.3934
  769SOL    HW1 3074   2.247   0.649   2.293 -1.1960  2.1771 -3.4030
  769SOL    HW2 3075   2.396   0.602   2.282 -1.7156 -2.1991  1.1189
  769SOL     MW 3076   2.331   0.654   2.312 -0.5745  0.0175 -0.5909
  770SOL     OW 3077   0.046   1.683   2.607  0.5683  0.6492 -0.2726
  770SOL    HW1 3078  -0.045   1.680   2.648 -2.1546 -1.0960 -1.0047
  770SOL    HW2 3079   0.096   1.603   2.644  1.2150  0.6299 -2.7485
  770SOL     MW 3080   0.040   1.672   2.617  0.2944  0.4164 -0.6959
  771SOL     OW 3081   3.067   0.686   1.949 -0.1438 -0.5062 -0.1891
  771SOL    HW1 3082   3.010   0.679   1.863 -0.3105 -0.9072 -2.2601
  771SOL    HW2 3083   3.142   0.636   1.929 -0.4348 -0.3925 -0.1413
  771SOL     MW 3084   3.070   0.679   1.935 -0.2042 -0.5441 -0.4560
  772SOL     OW 3085   3.094   0.018   2.270  0.0076  0.1643 -0.5239
  772SOL    HW1 3086   3.018  -0.037   2.290 -2.2949 -1.9939 -0.4908
  772SOL    HW2 3087   3.157  -0.054   2.255  1.1003  0.6194 -0.9156
  772SOL     MW 3088   3.093   0.001   2.270 -0.1520 -0.0604 -0.5712
  773SOL     OW 3089   2.414   2.817   2.755 -0.2761 -0.6469  0.0408
  773SOL    HW1 3090   2.413   2.745   2.689 -0.7993 -0.1649  1.8384
  773SOL    HW2 3091   2.420   2.786   2.846  1.8304 -0.1733  0.9543
  773SOL     MW 3092   2.414   2.804   2.758 -0.0672 -0.5208  0.3985
  774SOL     OW 3093   2.273   1.160   1.742 -0.4123  0.2368  0.6614
  774SOL    HW1 3094   2.265   1.241   1.692 -0.3222 -1.1743 -3.4725
  774SOL    HW2 3095   2.224   1.097   1.692 -1.4628 -1.0119 -1.6453
  774SOL     MW 3096   2.265   1.162   1.729 -0.5391 -0.1141 -0.1884
  775SOL     OW 3097   2.225   3.007   2.402 -0.0337 -0.6793  0.4818
  775SOL    HW1 3098   2.224   3.086   2.350  2.4621 -0.6308 -1.8515
  775SOL    HW2 3099   2.306   2.962   2.376 -0.7492  0.1784 -1.1784
  775SOL     MW 3100   2.236   3.011   2.392  0.2012 -0.5597 -0.0451
  776SOL     OW 3101   0.122   1.443   0.133 -0.7489 -0.4056 -0.1506
  776SOL    HW1 3102   0.217   1.411   0.150 -0.3155  1.8374  0.7124
  776SOL    HW2 3103   0.066   1.367   0.152 -0.6761  2.3500  3.2686
  776SOL     MW 3104   0.127   1.429   0.138 -0.6821  0.2539  0.4144
  777SOL     OW 3105   3.009   1.062   1.700 -0.3314 -0.3732 -0.4448
  777SOL    HW1 3106   3.016   1.136   1.635  1.7882  0.3050  0.6147
  777SOL    HW2 3107   2.914   1.050   1.698  1.5864  2.4826  0.1946
  777SOL     MW 3108   2.997   1.070   1.691  0.2013  0.0931 -0.2206
  778SOL     OW 3109   2.866   0.443   2.757  0.3945  0.3250  0.0315
  778SOL    HW1 3110   2.802   0.457   2.827  1.2727 -0.9887 -3.5715
  778SOL    HW2 3111   2.864   0.530   2.706  0.6217  1.0572  0.3542
  778SOL     MW 3112   2.857   0.457   2.759  0.5404  0.2483 -0.4013
  779SOL     OW 3113   2.095   0.570   2.227  0.2701  0.8122  0.0709
  779SOL    HW1 3114   2.023   0.626   2.229  0.7513  0.8066  2.5846
  779SOL    HW2 3115   2.083   0.519   2.303  1.3328 -2.9060 -1.9074
  779SOL     MW 3116   2.084   0.570   2.237  0.4738  0.3209  0.1415
  780SOL     OW 3117   0.087   0.211   2.769 -0.1490 -0.1028  0.5080
  780SOL    HW1 3118   0.063   0.189   2.861 -1.0284  0.4516  2.6855
  780SOL    HW2 3119   0.007   0.214   2.717  0.0657 -1.2055  1.3960
  780SOL     MW 3120   0.073   0.208   2.775 -0.2367 -0.1752  0.9125
  781SOL     OW 3121   3.053   1.317   2.541  0.5884  0.1542  0.9517
  781SOL    HW1 3122   3.012   1.370   2.471  1.0438 -0.9816 -0.9130
  781SOL    HW2 3123   3.071   1.234   2.498 -1.1809 -0.2957  2.3008
  781SOL     MW 3124   3.050   1.313   2.526  0.4150 -0.0550  0.8837
  782SOL     OW 3125   0.745   1.473   3.080  0.6686 -0.4113 -0.9320
  782SOL    HW1 3126   0.657   1.521   3.091  0.1867 -3.6401  2.0444
  782SOL    HW2 3127   0.801   1.493   3.163  1.3804 -0.5685  0.2340
  782SOL     MW 3128   0.740   1.482   3.093  0.6989 -0.8581 -0.3855
  783SOL     OW 3129   2.735   0.498   2.390  0.0383 -0.3995 -0.2378
  783SOL    HW1 3130   2.668   0.502   2.321  0.2145 -1.5862  0.4241
  783SOL    HW2 3131   2.686   0.489   2.473 -0.0593  1.7549 -1.2726
  783SOL     MW 3132   2.719   0.498   2.392  0.0486 -0.2718 -0.2870
  784SOL     OW 3133   0.174   0.836   2.814  0.1124 -0.3012  0.7402
  784SOL    HW1 3134   0.097   0.818   2.756  0.1055  2.0190 -0.2019
  784SOL    HW2 3135   0.236   0.897   2.758  3.2547  0.7450 -1.3599
  784SOL     MW 3136   0.172   0.842   2.799  0.5261  0.1430  0.3388
  785SOL     OW 3137   0.415   0.504   2.178  0.1255 -0.2771 -0.0103
  785SOL    HW1 3138   0.418   0.564   2.102  1.4415  2.4944  0.9363
  785SOL    HW2 3139   0.331   0.465   2.175  0.0995 -0.2195  1.9407
  785SOL     MW 3140   0.404   0.507   2.168  0.2957  0.0961  0.3720
  786SOL     OW 3141   1.980   0.358   2.953 -0.1125  1.1511  0.4946
  786SOL    HW1 3142   1.966   0.422   3.018  4.2218  0.9888  0.2057
  786SOL    HW2 3143   2.051   0.391   2.899  2.9751 -3.1175  1.4761
  786SOL     MW 3144   1.988   0.371   2.954  0.8668  0.5665  0.5860
  787SOL     OW 3145   2.419   0.206   2.881  0.1267  0.1688 -0.8802
  787SOL    HW1 3146   2.460   0.124   2.850  0.3018 -0.5868  0.4150
  787SOL    HW2 3147   2.477   0.240   2.950  2.3835  1.4847  2.6651
  787SOL     MW 3148   2.432   0.199   2.886  0.4475  0.2427 -0.2416
  788SOL     OW 3149   2.852   3.007   2.374 -0.0743  0.1120  0.4501
  788SOL    HW1 3150   2.871   3.030   2.462 -0.5328 -3.4921 -1.0976
  788SOL    HW2 3151   2.834   2.917   2.353 -1.9711 -1.0631  3.6968
  788SOL     MW 3152   2.852   2.998   2.383 -0.3850 -0.5186  0.6743
  789SOL     OW 3153   0.076   0.211   3.035 -0.3164  0.1618 -0.1192
  789SOL    HW1 3154  -0.002   0.173   3.083 -1.2568  0.4237 -0.0702
  789SOL    HW2 3155   0.048   0.293   2.991  0.8106  3.9163  2.6296
  789SOL     MW 3156   0.062   0.217   3.036 -0.2918  0.6917  0.2500
  790SOL     OW 3157   0.006   1.079   2.435  0.0256  0.2784 -0.1256
  790SOL    HW1 3158  -0.043   1.012   2.490 -3.6548 -2.3777  0.1277
  790SOL    HW2 3159  -0.039   1.066   2.352  0.0726 -0.9757  0.2750
  790SOL     MW 3160  -0.006   1.068   2.431 -0.4538 -0.2375 -0.0394
  791SOL     OW 3161   2.605   0.400   2.637  0.4493 -0.1187 -0.3343
  791SOL    HW1 3162   2.549   0.444   2.695 -0.2822 -1.1480  0.3753
  791SOL    HW2 3163   2.691   0.395   2.681 -0.8947 -4.0198 -1.3249
  791SOL     MW 3164   2.609   0.405   2.650  0.1754 -0.7692 -0.3714
  792SOL     OW 3165   2.348   0.354   2.393 -0.1740 -0.1600  0.0333
  792SOL    HW1 3166   2.296   0.434   2.393 -0.9297  0.2135  1.3613
  792SOL    HW2 3167   2.348   0.312   2.478 -0.1927 -4.4679 -0.1349
  792SOL     MW 3168   2.341   0.359   2.404 -0.2762 -0.6791  0.1863
  793SOL     OW 3169   1.838   1.114   1.962 -1.0605 -0.2487  0.0371
  793SOL    HW1 3170   1.813   1.138   1.868 -1.9380  0.8557 -0.0419
  793SOL    HW2 3171   1.906   1.049   1.947  0.4234 -2.8360  1.0049
  793SOL     MW 3172   1.844   1.109   1.947 -0.9805 -0.4443  0.1544
  794SOL     OW 3173   1.421   2.262   0.143 -0.0343 -0.7969  0.8175
  794SOL    HW1 3174   1.460   2.320   0.074  1.0006  1.6477 -0.3098
  794SOL    HW2 3175   1.484   2.255   0.212 -1.2690 -0.3818 -1.7152
  794SOL     MW 3176   1.435   2.269   0.143 -0.0607 -0.4196  0.3346
  795SOL     OW 3177   2.338   1.015   2.629  0.2091 -1.2003  0.2566
  795SOL    HW1 3178   2.319   1.105   2.669 -2.0106 -0.2882  0.0405
  795SOL    HW2 3179   2.352   1.029   2.531  0.0381  0.9734 -0.0711
  795SOL     MW 3180   2.337   1.029   2.621 -0.1063 -0.7932  0.1848
  796SOL     OW 3181   0.301   0.583   2.760 -0.6137 -0.1047 -0.4434
  796SOL    HW1 3182   0.249   0.656   2.792  0.6495 -2.0573  0.6479
  796SOL    HW2 3183   0.256   0.556   2.678  2.0937  1.0571 -4.7394
  796SOL     MW 3184   0.288   0.589   2.753 -0.0898 -0.2090 -0.8662
  797SOL     OW 3185   2.615   0.112   2.544 -0.1678  0.1111 -0.7713
  797SOL    HW1 3186   2.605   0.198   2.562 -0.2633 -0.2664 -0.4250
  797SOL    HW2 3187   2.611   0.089   2.445  1.5267 -2.7693  0.0606
  797SOL     MW 3188   2.613   0.120   2.533  0.0432 -0.3187 -0.6159
  798SOL     OW 3189   2.293   0.119   2.236 -0.1754 -0.1029 -0.3303
  798SOL    HW1 3190   2.309   0.189   2.306  1.8558 -1.8467  1.8723
  798SOL    HW2 3191   2.379   0.103   2.194  1.6183  0.6689  0.0379
  798SOL     MW 3192   2.306   0.126   2.240  0.3293 -0.2311  0.0089
  799SOL     OW 3193   2.531   2.960   3.080 -0.4071 -0.0067  0.2770
  799SOL    HW1 3194   2.465   2.886   3.082 -1.6507  1.0521  0.4375
  799SOL    HW2 3195   2.475   3.035   3.104 -1.4288 -2.5299 -1.8210
  799SOL     MW 3196   2.515   2.960   3.083 -0.7060 -0.2000  0.0214
  800SOL     OW 3197   1.941   0.013   1.704 -0.1806  0.8010  0.0879
  800SOL    HW1 3198   1.865  -0.046   1.709 -1.1936  1.2267  3.0449
  800SOL    HW2 3199   1.991  -0.002   1.781  0.9941  1.1760  1.5447
  800SOL     MW 3200   1.938   0.003   1.715 -0.1593  0.9066  0.6702
  801SOL     OW 3201   2.779   1.308   2.613 -0.2090  0.0956 -0.5919
  801SOL    HW1 3202   2.751   1.222   2.636  3.1607  1.7447  0.7467
  801SOL    HW2 3203   2.877   1.292   2.599 -0.1827  0.9195 -2.3430
  801SOL     MW 3204   2.788   1.294   2.614  0.2391  0.4219 -0.6463
  802SOL     OW 3205   2.625   1.515   2.748 -0.2950 -0.4042  0.3270
  802SOL    HW1 3206   2.610   1.416   2.752 -1.9011  0.4798  1.6355
  802SOL    HW2 3207   2.714   1.522   2.788  1.5811 -0.3273  0.4246
  802SOL     MW 3208   2.635   1.503   2.753 -0.2593 -0.2774  0.5125
  803SOL     OW 3209   2.260   1.352   1.978 -0.5829  0.6778 -0.8053
  803SOL    HW1 3210   2.233   1.350   2.073 -2.5600  1.5642  1.7899
  803SOL    HW2 3211   2.271   1.261   1.957 -0.3639  0.2246 -1.1741
  803SOL     MW 3212   2.258   1.339   1.988 -0.8149  0.7350 -0.5116
  804SOL     OW 3213   2.293   0.050   3.077 -0.2731 -0.2999 -0.2221
  804SOL    HW1 3214   2.218   0.110   3.109 -1.7907  1.5660  1.7645
  804SOL    HW2 3215   2.340   0.107   3.019  0.0625  1.1341  2.7029
  804SOL     MW 3216   2.289   0.065   3.074 -0.4291  0.1355  0.4260
  805SOL     OW 3217   2.670   1.035   2.582 -0.3105  0.4844 -0.1981
  805SOL    HW1 3218   2.618   1.037   2.502 -0.7938 -4.0007  0.1542
  805SOL    HW2 3219   2.756   0.987   2.566  0.0636 -0.7977 -0.9563
  805SOL     MW 3220   2.675   1.029   2.569 -0.3249 -0.2766 -0.2517
  806SOL     OW 3221   2.519   0.470   2.231 -0.3370  0.3586  0.0900
  806SOL    HW1 3222   2.466   0.397   2.267  1.0847 -2.1742  0.6103
  806SOL    HW2 3223   2.499   0.488   2.141  2.0224  1.9924  1.9820
  806SOL     MW 3224   2.509   0.462   2.224  0.1619  0.2400  0.4083
  807SOL     OW 3225   0.045   1.113   2.019  0.2875 -0.7484  0.6997
  807SOL    HW1 3226   0.095   1.032   2.027  0.9277  0.2562  3.2323
  807SOL    HW2 3227  -0.047   1.101   2.062 -2.9817  0.5209  1.5330
  807SOL     MW 3228   0.040   1.100   2.026 -0.0593 -0.4484  1.1438
  808SOL     OW 3229   2.544   3.101   2.786 -0.0240  0.2004 -0.3799
  808SOL    HW1 3230   2.493   3.020   2.776  0.2876  1.2446  1.2520
  808SOL    HW2 3231   2.559   3.137   2.696 -0.3312  2.0306 -1.4420
  808SOL     MW 3232   2.539   3.095   2.773 -0.0234  0.5797 -0.3047
  809SOL     OW 3233   2.573   1.290   2.400 -0.2859 -0.0503 -0.1661
  809SOL    HW1 3234   2.621   1.278   2.479  1.5546 -2.7490 -0.2104
  809SOL    HW2 3235   2.644   1.278   2.332 -1.5795 -0.2591 -1.7531
  809SOL     MW 3236   2.589   1.287   2.401 -0.2137 -0.4339 -0.3813
  810SOL     OW 3237   2.208   1.274   2.237  0.1664 -0.1204  0.6320
  810SOL    HW1 3238   2.277   1.209   2.266  1.8185 -0.9873  0.3900
  810SOL    HW2 3239   2.132   1.217   2.216  0.3480 -1.5518 -1.3953
  810SOL     MW 3240   2.207   1.258   2.238  0.4083 -0.4236  0.3326
  811SOL     OW 3241   1.546   0.149   2.316  0.0405  0.1643  0.1054
  811SOL    HW1 3242   1.606   0.081   2.340  1.7619 -1.6728 -1.2536
  811SOL    HW2 3243   1.539   0.145   2.217  1.2977 -1.8034 -0.3347
  811SOL     MW 3244   1.553   0.140   2.306  0.4335 -0.3377 -0.1320
  812SOL     OW 3245   1.496   2.880   2.108  0.6799 -0.1567  0.0421
  812SOL    HW1 3246   1.580   2.864   2.057 -2.7165 -0.5175  1.4836
  812SOL    HW2 3247   1.511   2.833   2.188 -0.3863  1.0479 -0.4021
  812SOL     MW 3248   1.509   2.871   2.112  0.0911 -0.0454  0.1737
  813SOL     OW 3249   1.875   0.713   2.167 -0.2610 -0.4597 -0.3541
  813SOL    HW1 3250   1.827   0.631   2.198  2.1991  3.2478 -0.0997
  813SOL    HW2 3251   1.862   0.771   2.244  0.2940  1.2842 -0.7592
  813SOL     MW 3252   1.867   0.710   2.181  0.1368  0.2596 -0.3740
  814SOL     OW 3253   2.729   1.274   1.600 -0.1689  0.2414  0.0682
  814SOL    HW1 3254   2.703   1.203   1.662  0.8902 -1.3268  0.8990
  814SOL    HW2 3255   2.788   1.230   1.533  1.9608 -2.5361 -2.8913
  814SOL     MW 3256   2.734   1.258   1.599  0.2518 -0.3320 -0.2126
  815SOL     OW 3257   2.487   1.668   2.322 -0.5234  0.0540 -0.3337
  815SOL    HW1 3258   2.414   1.620   2.269 -0.9636 -3.0834 -0.9222
  815SOL    HW2 3259   2.551   1.608   2.348 -3.5956  0.2916  2.7754
  815SOL     MW 3260   2.486   1.654   2.318 -0.9868 -0.3286 -0.0011
  816SOL     OW 3261   0.782   0.677   2.781 -0.0026  0.1147  0.2610
  816SOL    HW1 3262   0.780   0.586   2.808 -0.7509 -2.6301 -1.2431
  816SOL    HW2 3263   0.688   0.689   2.774  0.6273 -1.0893 -1.3292
  816SOL     MW 3264   0.769   0.666   2.783 -0.0182 -0.4063 -0.1473
  817SOL     OW 3265   3.078   1.258   1.501  0.0649  0.5771 -0.1585
  817SOL    HW1 3266   3.172   1.258   1.515  0.8664 -0.7315 -0.9597
  817SOL    HW2 3267   3.065   1.336   1.450  2.2685 -1.8999  2.0357
  817SOL     MW 3268   3.088   1.268   1.496  0.4614  0.0776  0.0253
  818SOL     OW 3269   1.918   1.044   2.671 -0.0558  0.0784  0.1979
  818SOL    HW1 3270   1.909   1.044   2.578  1.3015  0.2185  1.3941
  818SOL    HW2 3271   2.000   0.996   2.691  1.1413  0.3897  1.2503
  818SOL     MW 3272   1.927   1.038   2.661  0.2812  0.1380  0.4946
  819SOL     OW 3273   1.906   0.207   2.465 -0.1280 -0.3611 -0.1599
  819SOL    HW1 3274   1.839   0.278   2.494  4.0437  0.4284  1.2448
  819SOL    HW2 3275   1.955   0.198   2.552 -1.6527  1.4967 -0.1152
  819SOL     MW 3276   1.903   0.215   2.481  0.2212 -0.0118  0.0313
  820SOL     OW 3277   2.469   1.697   2.612 -0.0365  0.0786 -0.2032
  820SOL    HW1 3278   2.521   1.618   2.642 -2.4453 -0.5857 -1.2359
  820SOL    HW2 3279   2.466   1.684   2.517 -1.9799 -2.4848 -0.1879
  820SOL     MW 3280   2.475   1.685   2.604 -0.6107 -0.3472 -0.3375
  821SOL     OW 3281   2.566   1.386   1.963  0.4655 -0.4569  0.0223
  821SOL    HW1 3282   2.617   1.462   1.920 -0.2880 -0.2118 -2.1707
  821SOL    HW2 3283   2.489   1.420   2.006 -2.0164 -3.4336  0.4793
  821SOL     MW 3284   2.562   1.400   1.963  0.0386 -0.8173 -0.2068
  822SOL     OW 3285   2.743   2.621   1.481  0.2686 -0.5834  0.4031
  822SOL    HW1 3286   2.777   2.664   1.560 -0.0469 -1.0113 -1.9009
  822SOL    HW2 3287   2.715   2.689   1.426 -0.4446 -0.4317 -0.6061
  822SOL     MW 3288   2.744   2.635   1.484  0.1329 -0.6198 -0.0341
  823SOL     OW 3289   2.274   0.512   1.737  0.8973 -0.2174 -0.0237
  823SOL    HW1 3290   2.340   0.451   1.694 -0.2064 -1.6902  1.7402
  823SOL    HW2 3291   2.194   0.460   1.739 -1.3462  0.0274 -1.7073
  823SOL     MW 3292   2.272   0.497   1.732  0.4556 -0.3794 -0.0131
  824SOL     OW 3293   2.097   1.409   2.578 -0.4799  0.2241  0.2797
  824SOL    HW1 3294   2.148   1.451   2.506 -0.1109 -0.6863  0.3304
  824SOL    HW2 3295   2.048   1.477   2.623 -0.3357 -0.1513 -0.8531
  824SOL     MW 3296   2.097   1.423   2.574 -0.4122  0.0545  0.1369
  825SOL     OW 3297   1.979   2.561   0.281 -0.5655 -0.2968  0.2509
  825SOL    HW1 3298   1.949   2.486   0.334 -0.1644 -2.2167 -2.2245
  825SOL    HW2 3299   2.043   2.537   0.212  2.9286  0.4659  0.6020
  825SOL     MW 3300   1.983   2.548   0.279 -0.0516 -0.4495 -0.0293
  826SOL     OW 3301   1.903   2.388   0.491  0.4107  0.5274 -0.5019
  826SOL    HW1 3302   1.854   2.307   0.517 -2.5789 -0.0398  1.1427
  826SOL    HW2 3303   1.861   2.457   0.540 -0.4988  1.7009 -1.7915
  826SOL     MW 3304   1.891   2.387   0.500 -0.1037  0.6074 -0.4551
  827SOL     OW 3305   1.930   2.227   0.954  0.5321 -0.3293  0.6701
  827SOL    HW1 3306   1.887   2.305   0.913  0.6426  1.9634  2.6284
  827SOL    HW2 3307   1.883   2.145   0.949  1.0161 -2.8329  1.5733
  827SOL     MW 3308   1.918   2.227   0.948  0.6106 -0.3572  1.0477
  828SOL     OW 3309   0.057   2.615   0.566  0.3074  0.1423  0.1817
  828SOL    HW1 3310   0.141   2.646   0.535  1.6236  0.4280  0.8592
  828SOL    HW2 3311  -0.006   2.667   0.520  4.7953  1.5936 -0.2942
  828SOL     MW 3312   0.060   2.626   0.556  1.0732  0.3715  0.2083
  829SOL     OW 3313   2.920   2.939   1.232  0.6533 -0.0440  0.2179
  829SOL    HW1 3314   2.842   2.932   1.174  0.1236 -3.1180  0.3257
  829SOL    HW2 3315   2.974   2.862   1.209 -1.0570 -2.0837  0.5620
  829SOL     MW 3316   2.917   2.928   1.221  0.3577 -0.7187  0.2775
  830SOL     OW 3317   2.494   2.862   2.008 -0.2042  0.0787 -0.6251
  830SOL    HW1 3318   2.400   2.864   1.985  0.3183 -3.8890  1.2512
  830SOL    HW2 3319   2.536   2.817   1.932  1.3568  0.5320  2.4782
  830SOL     MW 3320   2.487   2.856   1.995  0.0707 -0.3850  0.0319
  831SOL     OW 3321   2.415   2.413   1.315  0.3092 -0.4414 -0.2794
  831SOL    HW1 3322   2.361   2.361   1.375  1.1533  0.1160 -1.5055
  831SOL    HW2 3323   2.489   2.348   1.291 -2.8458 -2.5103  0.5718
  831SOL     MW 3324   2.418   2.398   1.320  0.0043 -0.6408 -0.3288
  832SOL     OW 3325   2.417   2.190   1.914  0.0941  0.0740  0.0717
  832SOL    HW1 3326   2.439   2.286   1.928  0.1356 -1.3786 -0.8211
  832SOL    HW2 3327   2.503   2.146   1.905  1.6801  0.7682 -1.8030
  832SOL     MW 3328   2.431   2.197   1.914  0.3088 -0.0260 -0.2935
  833SOL     OW 3329   1.781   2.466   0.889 -0.4187  0.4935  0.1482
  833SOL    HW1 3330   1.703   2.406   0.896  3.3350  0.2704 -2.4825
  833SOL    HW2 3331   1.761   2.539   0.954  2.9900 -0.8963 -3.4535
  833SOL     MW 3332   1.768   2.468   0.899  0.5263  0.2807 -0.6741
  834SOL     OW 3333   2.230   2.488   0.601  0.2182 -0.0523  0.6581
  834SOL    HW1 3334   2.174   2.441   0.664 -0.0588 -0.7135  2.0615
  834SOL    HW2 3335   2.222   2.453   0.512  3.1723  0.9902 -3.1700
  834SOL     MW 3336   2.221   2.477   0.598  0.5714 -0.0020  0.3382
  835SOL     OW 3337   1.761   2.593   0.650 -0.7777  0.5791  0.5526
  835SOL    HW1 3338   1.761   2.546   0.733  1.8311  2.8508 -0.6219
  835SOL    HW2 3339   1.833   2.663   0.668 -0.0653  2.9453  0.0503
  835SOL     MW 3340   1.770   2.596   0.663 -0.3395  1.1910  0.3313
  836SOL     OW 3341   1.925   2.207   1.617  0.0809 -0.0277  0.2390
  836SOL    HW1 3342   2.007   2.216   1.668 -0.8117 -0.9569 -0.0735
  836SOL    HW2 3343   1.861   2.277   1.638  1.9380  1.9477 -1.1145
  836SOL     MW 3344   1.928   2.217   1.626  0.2082  0.1103  0.0192
  837SOL     OW 3345   2.148   0.198   0.678 -0.2519  0.0739 -0.0864
  837SOL    HW1 3346   2.061   0.224   0.664  1.5881  3.0607  0.6735
  837SOL    HW2 3347   2.165   0.142   0.598  0.0029 -1.0800 -1.5257
  837SOL     MW 3348   2.139   0.194   0.666  0.0245  0.3157 -0.1760
  838SOL     OW 3349   2.936   2.147   0.864 -0.0382 -0.0731  0.0659
  838SOL    HW1 3350   2.868   2.124   0.933 -2.1032  0.2794 -2.3992
  838SOL    HW2 3351   2.986   2.069   0.844  0.8850 -0.7056  2.1696
  838SOL     MW 3352   2.933   2.133   0.870 -0.1889 -0.1100  0.0182
  839SOL     OW 3353   1.548   2.343   0.933 -0.3514  0.3855 -0.1150
  839SOL    HW1 3354   1.527   2.439   0.932 -0.9281  1.4520 -0.9570
  839SOL    HW2 3355   1.556   2.316   1.026  0.5373 -1.3955 -1.9802
  839SOL     MW 3356   1.547   2.352   0.945 -0.3103  0.2912 -0.4722
  840SOL     OW 3357   2.295   2.111   2.394  0.3014 -0.4495 -0.1858
  840SOL    HW1 3358   2.292   2.188   2.332  1.2359  0.9281 -0.7969
  840SOL    HW2 3359   2.362   2.146   2.453  0.9914 -2.2231  1.5953
  840SOL     MW 3360   2.304   2.126   2.394  0.5158 -0.5018 -0.0314
  841SOL     OW 3361   2.163   2.440   0.102  0.6184 -0.0578 -0.1360
  841SOL    HW1 3362   2.221   2.458   0.031 -0.1937 -0.3331 -1.4063
  841SOL    HW2 3363   2.112   2.364   0.068 -0.7048 -1.3165  2.0075
  841SOL     MW 3364   2.164   2.432   0.088  0.3366 -0.2602 -0.0208
  842SOL     OW 3365   2.682   1.947   1.592  0.0180  0.6666  0.0054
  842SOL    HW1 3366   2.645   1.863   1.604 -1.9679  1.2274  0.9696
  842SOL    HW2 3367   2.630   1.983   1.525  1.1715  1.0890 -0.8287
  842SOL     MW 3368   2.670   1.941   1.585 -0.0918  0.7963  0.0226
  843SOL     OW 3369   2.635   2.765   1.789  0.3484  0.1781 -0.0139
  843SOL    HW1 3370   2.727   2.752   1.802 -1.2237  0.7261  3.9978
  843SOL    HW2 3371   2.587   2.682   1.764  2.6527 -0.2437 -0.4379
  843SOL     MW 3372   2.641   2.753   1.787  0.4450  0.1948  0.4595
  844SOL     OW 3373   2.615   2.266   1.219 -0.0453 -0.5023  0.3154
  844SOL    HW1 3374   2.626   2.317   1.129  0.4800  1.1897 -1.0741
  844SOL    HW2 3375   2.695   2.295   1.277 -0.0075 -0.6122  1.1497
  844SOL     MW 3376   2.627   2.277   1.215  0.0290 -0.2935  0.2422
  845SOL     OW 3377   2.849   2.444   0.315 -0.0809  0.4736 -0.3537
  845SOL    HW1 3378   2.800   2.367   0.345  2.1037 -0.5477 -0.8086
  845SOL    HW2 3379   2.874   2.484   0.396  1.5102 -0.6124  0.2392
  845SOL     MW 3380   2.846   2.439   0.330  0.4173  0.1956 -0.3355
  846SOL     OW 3381   1.523   2.861   0.763  0.0411 -0.2342  0.0631
  846SOL    HW1 3382   1.577   2.904   0.827  0.0270 -1.3492  0.8259
  846SOL    HW2 3383   1.428   2.873   0.785  0.7066 -1.7171 -0.3424
  846SOL     MW 3384   1.518   2.869   0.775  0.1270 -0.5770  0.1102
  847SOL     OW 3385   2.511   1.879   0.155 -0.3141 -0.1335  0.0195
  847SOL    HW1 3386   2.546   1.807   0.212 -1.2888  1.6227 -0.9935
  847SOL    HW2 3387   2.447   1.832   0.096  1.4719  0.8574 -0.6327
  847SOL     MW 3388   2.507   1.863   0.155 -0.2071  0.2289 -0.2002
  848SOL     OW 3389   2.530   2.056   1.394 -0.6272  0.2342 -0.6767
  848SOL    HW1 3390   2.576   2.132   1.350  2.1711 -0.1599 -0.4181
  848SOL    HW2 3391   2.488   2.003   1.323 -3.1280 -1.3012  1.3659
  848SOL     MW 3392   2.531   2.059   1.379 -0.5879 -0.0204 -0.3731
  849SOL     OW 3393   1.964   2.760   0.737 -1.1938  0.4560  0.2234
  849SOL    HW1 3394   1.989   2.679   0.790  0.9436  0.1060 -0.0643
  849SOL    HW2 3395   2.044   2.778   0.682 -2.7727  0.8236  1.5713
  849SOL     MW 3396   1.978   2.751   0.737 -1.1201  0.4583  0.3632
  850SOL     OW 3397   2.230   1.930   1.657  0.0338 -0.0332  1.1053
  850SOL    HW1 3398   2.151   1.906   1.608  0.2505 -2.2416 -0.7777
  850SOL    HW2 3399   2.233   2.025   1.675 -0.2089 -0.4400  1.8973
  850SOL     MW 3400   2.220   1.939   1.653  0.0304 -0.3783  0.9614
  851SOL     OW 3401   2.288   2.397   0.340  0.3361 -0.3548  0.2442
  851SOL    HW1 3402   2.232   2.412   0.260  2.4673 -2.2445 -0.8822
  851SOL    HW2 3403   2.359   2.474   0.336 -0.7742 -0.4547 -1.7927
  851SOL     MW 3404   2.290   2.410   0.329  0.4708 -0.6173 -0.1732
  852SOL     OW 3405   2.360   2.110   0.310 -0.3722 -0.4054 -0.0122
  852SOL    HW1 3406   2.367   2.206   0.301  1.1927 -1.6046 -1.4605
  852SOL    HW2 3407   2.432   2.081   0.266 -0.8215 -1.1078  2.5237
  852SOL     MW 3408   2.370   2.119   0.303 -0.2250 -0.6563  0.1313
  853SOL     OW 3409   2.497   2.441   1.996 -0.0032  0.3432  0.0409
  853SOL    HW1 3410   2.501   2.476   1.902  2.0168  1.0243  1.9636
  853SOL    HW2 3411   2.589   2.435   2.028 -1.9714 -1.8176 -3.1722
  853SOL     MW 3412   2.510   2.445   1.988  0.0037  0.1480 -0.1294
  854SOL     OW 3413   2.820   2.360   0.756  0.3879 -0.1127 -0.0733
  854SOL    HW1 3414   2.743   2.321   0.714 -1.5176  0.4936 -0.7953
  854SOL    HW2 3415   2.870   2.285   0.796 -0.3213  0.6750  2.2926
  854SOL     MW 3416   2.817   2.345   0.756  0.0429  0.0712  0.1436
  855SOL     OW 3417   2.717   2.234   0.380  0.3298  0.1086 -0.5148
  855SOL    HW1 3418   2.691   2.291   0.457  0.1277 -2.5653 -0.1605
  855SOL    HW2 3419   2.802   2.209   0.413  0.3068  0.2807  2.3505
  855SOL     MW 3420   2.724   2.239   0.395  0.3001 -0.2215 -0.0900
  856SOL     OW 3421   2.194   1.943   0.158 -0.2016  0.0807 -0.3241
  856SOL    HW1 3422   2.108   1.930   0.201 -1.1172 -1.4380 -1.0613
  856SOL    HW2 3423   2.244   2.017   0.197 -1.4615  0.8786  0.8660
  856SOL     MW 3424   2.189   1.951   0.169 -0.4886 -0.0144 -0.2644
  857SOL     OW 3425   2.585   1.992   0.490 -1.1195 -0.2108  0.0425
  857SOL    HW1 3426   2.642   2.069   0.457  0.2016 -0.1422  1.5729
  857SOL    HW2 3427   2.502   2.018   0.467  1.4393 -4.2884  2.3706
  857SOL     MW 3428   2.581   2.006   0.483 -0.6076 -0.7397  0.5516
  858SOL     OW 3429   2.887   2.643   1.713  0.4528 -0.2508  0.7270
  858SOL    HW1 3430   2.962   2.673   1.761 -0.0436 -3.2407  0.3018
  858SOL    HW2 3431   2.872   2.561   1.760  0.9690 -2.1033  1.2653
  858SOL     MW 3432   2.895   2.636   1.726  0.4554 -0.8897  0.7419
  859SOL     OW 3433   2.115   2.567   0.935 -0.6043 -0.1894  0.9287
  859SOL    HW1 3434   2.098   2.504   1.004 -2.6218  1.9007 -1.1259
  859SOL    HW2 3435   2.206   2.553   0.906  0.5385 -0.6426  0.6391
  859SOL     MW 3436   2.125   2.557   0.941 -0.7197  0.0266  0.6194
  860SOL     OW 3437   2.677   2.593   0.165  0.6278 -0.1567 -0.0410
  860SOL    HW1 3438   2.736   2.541   0.227 -2.5060  1.1843 -0.5209
  860SOL    HW2 3439   2.719   2.673   0.136 -1.2917  0.8018 -2.4436
  860SOL     MW 3440   2.690   2.597   0.169 -0.0390  0.1467 -0.4213
  861SOL     OW 3441   1.565   2.147   1.166  0.2770 -0.1832  0.3728
  861SOL    HW1 3442   1.579   2.214   1.231  0.7675 -1.1040  0.9974
  861SOL    HW2 3443   1.508   2.081   1.204  0.0927  0.4106  0.7675
  861SOL     MW 3444   1.559   2.147   1.180  0.3174 -0.2264  0.5073
  862SOL     OW 3445   2.444   1.771   1.545  0.5932 -0.0508 -0.2145
  862SOL    HW1 3446   2.378   1.829   1.593 -2.8183 -0.1611  1.1208
  862SOL    HW2 3447   2.437   1.803   1.451  2.5950 -2.4182 -3.1097
  862SOL     MW 3448   2.434   1.783   1.539  0.4072 -0.3777 -0.4203
  863SOL     OW 3449   3.027   1.815   1.062  0.3091 -0.3316  0.4800
  863SOL    HW1 3450   3.101   1.775   1.108  1.6889  2.3701  0.8994
  863SOL    HW2 3451   2.995   1.887   1.117 -0.6669 -0.2274  0.0523
  863SOL     MW 3452   3.033   1.819   1.075  0.3624  0.0386  0.4789
  864SOL     OW 3453   3.059   1.916   0.804 -0.2716 -0.8140  0.1010
  864SOL    HW1 3454   3.040   1.880   0.889  1.9111  2.1421  1.7599
  864SOL    HW2 3455   3.027   1.848   0.742  1.4270 -0.8494 -1.7264
  864SOL     MW 3456   3.052   1.903   0.807  0.2405 -0.4287  0.0788
  865SOL     OW 3457   2.615   2.152   0.008 -0.1544  0.1921  0.3523
  865SOL    HW1 3458   2.589   2.073   0.054 -2.7142  0.3477  0.9203
  865SOL    HW2 3459   2.561   2.150  -0.071  0.3443  0.1232  0.7167
  865SOL     MW 3460   2.605   2.142   0.004 -0.4264  0.2035  0.4754
  866SOL     OW 3461   2.688   2.329   1.655 -0.2819  0.4128  0.9238
  866SOL    HW1 3462   2.663   2.256   1.710 -0.1907  0.2436  1.3127
  866SOL    HW2 3463   2.741   2.292   1.582  2.8732  2.9304  2.5522
  866SOL     MW 3464   2.691   2.315   1.653  0.1464  0.7226  1.1900
  867SOL     OW 3465   0.034   2.721   1.809  0.3300  0.5965  0.2335
  867SOL    HW1 3466   0.071   2.708   1.898  0.7228  0.2970  2.4409
  867SOL    HW2 3467   0.012   2.813   1.806  1.2209 -1.0838  0.3332
  867SOL     MW 3468   0.036   2.731   1.820  0.4994  0.3353  0.5379
  868SOL     OW 3469   2.837   2.583   0.549  0.5694  0.3229 -0.1864
  868SOL    HW1 3470   2.759   2.533   0.574  0.9252 -0.9479  0.4711
  868SOL    HW2 3471   2.807   2.663   0.500  0.8250 -1.8775 -0.9212
  868SOL     MW 3472   2.823   2.587   0.546  0.6501 -0.1351 -0.1966
  869SOL     OW 3473   2.098   2.366   1.155 -0.3352 -0.2519 -0.6894
  869SOL    HW1 3474   2.187   2.344   1.113 -1.0792  0.5081 -2.0434
  869SOL    HW2 3475   2.034   2.323   1.100  1.3953 -1.2927 -0.1281
  869SOL     MW 3476   2.102   2.358   1.142 -0.2051 -0.2889 -0.7940
  870SOL     OW 3477   2.157   0.021   0.483  0.1098  0.3149  0.1234
  870SOL    HW1 3478   2.214   0.069   0.426  1.1828  1.0324  1.3738
  870SOL    HW2 3479   2.172  -0.070   0.484 -0.4902 -0.2435 -1.2318
  870SOL     MW 3480   2.166   0.015   0.475  0.1722  0.3359  0.1096
  871SOL     OW 3481   2.496   2.147   0.940  0.7447  0.1754 -0.2644
  871SOL    HW1 3482   2.450   2.073   0.903  1.3712  1.6531  0.9626
  871SOL    HW2 3483   2.424   2.196   0.989  0.8703  1.1935 -0.5277
  871SOL     MW 3484   2.480   2.144   0.942  0.8439  0.5047 -0.1373
  872SOL     OW 3485   1.986   2.560   1.519 -0.5515 -0.0426 -0.4508
  872SOL    HW1 3486   1.956   2.593   1.605  1.6322  0.1208  0.0528
  872SOL    HW2 3487   1.922   2.497   1.484 -2.1414  0.6530 -0.7565
  872SOL     MW 3488   1.974   2.556   1.525 -0.4732  0.0707 -0.4247
  873SOL     OW 3489   2.922   2.059   1.919 -0.2159 -0.4809  0.2215
  873SOL    HW1 3490   2.947   2.110   1.995  1.0666 -1.6165  1.2221
  873SOL    HW2 3491   3.001   2.053   1.860  3.4320 -0.5850  0.3688
  873SOL     MW 3492   2.936   2.065   1.921  0.4346 -0.6444  0.3730
  874SOL     OW 3493   2.273   1.497   2.396  0.1686  0.4791  0.3409
  874SOL    HW1 3494   2.231   1.420   2.341 -0.2769  0.0886  0.0740
  874SOL    HW2 3495   2.365   1.474   2.412  1.1663  1.8058  1.7244
  874SOL     MW 3496   2.280   1.483   2.391  0.2414  0.6026  0.4882
  875SOL     OW 3497   2.331   2.320   1.064  0.2155 -0.2339  0.2519
  875SOL    HW1 3498   2.369   2.383   0.997 -0.7029  1.5304  0.8695
  875SOL    HW2 3499   2.348   2.349   1.155  0.5383 -1.2103  0.1476
  875SOL     MW 3500   2.338   2.332   1.067  0.1369 -0.1299  0.3196
  876SOL     OW 3501   3.022   2.301   1.248  0.5512 -0.8438  0.3543
  876SOL    HW1 3502   3.051   2.305   1.153  2.1425 -0.6269  0.6796
  876SOL    HW2 3503   3.101   2.336   1.294 -0.5784  3.1150 -1.6621
  876SOL     MW 3504   3.036   2.306   1.242  0.6121 -0.2929  0.1312
  877SOL     OW 3505   3.028   2.713   0.335 -0.3598  0.4258 -0.5828
  877SOL    HW1 3506   3.089   2.785   0.320 -0.0354 -1.0505  0.3933
  877SOL    HW2 3507   3.046   2.645   0.271 -1.4059  1.2470 -3.6666
  877SOL     MW 3508   3.039   2.714   0.324 -0.4550  0.3394 -0.8609
  878SOL     OW 3509   2.402   1.831   1.273  0.0737  0.3011  0.4393
  878SOL    HW1 3510   2.346   1.758   1.295 -3.2605  0.1150  0.1027
  878SOL    HW2 3511   2.489   1.796   1.250  1.0163 -5.8320  0.7736
  878SOL     MW 3512   2.406   1.817   1.273 -0.2418 -0.5326  0.4390
  879SOL     OW 3513   2.674   2.410   0.976  0.1558 -0.4380  0.5679
  879SOL    HW1 3514   2.731   2.483   1.003  0.4596  0.3371  0.0139
  879SOL    HW2 3515   2.718   2.384   0.895 -1.9955 -1.7665  3.7319
  879SOL     MW 3516   2.688   2.416   0.969 -0.0880 -0.5110  0.9122
  880SOL     OW 3517   2.613   2.202   0.693  0.2968 -0.2121  0.1568
  880SOL    HW1 3518   2.572   2.182   0.789 -3.8401 -2.1134  0.9004
  880SOL    HW2 3519   2.613   2.123   0.640  1.1165  1.0857 -0.2097
  880SOL     MW 3520   2.608   2.189   0.699 -0.1409 -0.2918  0.2066
  881SOL     OW 3521   2.963   2.736   0.790 -0.2677 -0.0316  0.1433
  881SOL    HW1 3522   2.954   2.671   0.715 -1.8269  0.5602 -2.9171
  881SOL    HW2 3523   3.055   2.745   0.811 -2.2937  0.0381  1.3077
  881SOL     MW 3524   2.974   2.729   0.783 -0.7407  0.0557 -0.1069
  882SOL     OW 3525   2.243   2.896   1.924  0.0102 -0.4741  0.0475
  882SOL    HW1 3526   2.255   2.877   1.829  0.3604 -1.3305 -0.0961
  882SOL    HW2 3527   2.201   2.821   1.957  2.2256  1.6141 -1.2200
  882SOL     MW 3528   2.239   2.883   1.916  0.3487 -0.3115 -0.1387
  883SOL     OW 3529   2.305   2.211   1.478  0.3135 -0.8664  0.0629
  883SOL    HW1 3530   2.359   2.132   1.481 -0.9486  0.8817 -1.0283
  883SOL    HW2 3531   2.234   2.180   1.421  1.2621  0.2828  0.2508
  883SOL     MW 3532   2.303   2.196   1.471  0.2722 -0.4841 -0.0562
  884SOL     OW 3533   1.967   1.796   1.066 -0.0854 -0.3524 -0.1433
  884SOL    HW1 3534   1.887   1.848   1.042  0.7327 -0.8175 -0.8628
  884SOL    HW2 3535   2.054   1.849   1.048  2.3881 -1.1541 -3.0874
  884SOL     MW 3536   1.968   1.810   1.061  0.3489 -0.5195 -0.6267
  885SOL     OW 3537   2.880   2.399   1.838  0.4121  0.2134 -0.6954
  885SOL    HW1 3538   2.973   2.371   1.829 -0.0030  0.6927 -0.7437
  885SOL    HW2 3539   2.822   2.357   1.772 -0.0867 -1.0914  2.4538
  885SOL     MW 3540   2.885   2.390   1.828  0.2915  0.1045 -0.2863
  886SOL     OW 3541   2.804   2.349   1.397 -0.0272  0.3547  0.1486
  886SOL    HW1 3542   2.883   2.329   1.345 -0.3100 -1.8224 -1.2240
  886SOL    HW2 3543   2.794   2.445   1.411 -1.4281  1.7099 -0.6893
  886SOL     MW 3544   2.813   2.359   1.392 -0.2493  0.2462 -0.1431
  887SOL     OW 3545   2.252   2.632   1.506 -0.5051  0.4700 -0.0802
  887SOL    HW1 3546   2.282   2.669   1.425 -0.7190  0.8246 -0.6382
  887SOL    HW2 3547   2.158   2.612   1.485 -1.9403 -0.3955  1.0202
  887SOL     MW 3548   2.243   2.634   1.493 -0.7227  0.4026 -0.0086
  888SOL     OW 3549   1.898   2.038   1.394 -0.0475 -0.5615  0.2788
  888SOL    HW1 3550   1.985   2.041   1.357  0.6075 -2.2288 -0.1282
  888SOL    HW2 3551   1.903   2.097   1.472 -0.9173 -2.2641  1.0576
  888SOL     MW 3552   1.910   2.046   1.400 -0.0759 -1.0061  0.3279
  889SOL     OW 3553   2.296   2.028   2.093 -0.0049  0.1253 -0.5545
  889SOL    HW1 3554   2.356   1.988   2.156 -3.4565  0.2716 -0.0918
  889SOL    HW2 3555   2.339   2.087   2.032 -1.9477  1.5446  1.3916
  889SOL     MW 3556   2.309   2.031   2.093 -0.7167  0.3319 -0.2367
  890SOL     OW 3557   0.122   2.343   0.110 -0.1391  0.2466 -0.8285
  890SOL    HW1 3558   0.068   2.424   0.105 -0.3210  0.3199  2.1445
  890SOL    HW2 3559   0.105   2.300   0.196 -1.1957 -1.8388 -0.0856
  890SOL     MW 3560   0.113   2.348   0.121 -0.3025 -0.0188 -0.3382
  891SOL     OW 3561   3.023   2.002   1.276 -0.2080 -0.7112 -0.4475
  891SOL    HW1 3562   3.116   2.002   1.289 -0.6144  0.9688 -1.6816
  891SOL    HW2 3563   3.015   2.097   1.249  0.1646 -0.6020 -0.7999
  891SOL     MW 3564   3.034   2.015   1.274 -0.2124 -0.4751 -0.6568
  892SOL     OW 3565   2.423   2.368   2.795 -0.1442 -0.7041  0.2069
  892SOL    HW1 3566   2.386   2.286   2.827 -1.7222 -2.7551 -1.4440
  892SOL    HW2 3567   2.513   2.373   2.831  2.1314  2.4017  0.8873
  892SOL     MW 3568   2.430   2.358   2.804 -0.0522 -0.5650  0.0788
  893SOL     OW 3569   1.603   2.376   1.313  0.3003 -0.2526 -0.0620
  893SOL    HW1 3570   1.538   2.390   1.377  2.1641 -0.8026  0.8567
  893SOL    HW2 3571   1.684   2.375   1.361  1.0731 -0.5564 -0.8726
  893SOL     MW 3572   1.605   2.377   1.328  0.6482 -0.3653 -0.0477
  894SOL     OW 3573   2.827   1.865   0.491 -1.1673  1.0650  0.0756
  894SOL    HW1 3574   2.738   1.892   0.500  2.1872 -1.8623  0.7535
  894SOL    HW2 3575   2.824   1.848   0.400  0.8569 -0.2197 -1.0154
  894SOL     MW 3576   2.815   1.867   0.480 -0.4576  0.5093  0.0211
  895SOL     OW 3577   2.126   2.112   1.289  0.3349 -0.6198 -0.6781
  895SOL    HW1 3578   2.100   2.196   1.252  1.7854  2.4542  2.0447
  895SOL    HW2 3579   2.146   2.050   1.220 -1.9868  1.2435  2.2512
  895SOL     MW 3580   2.125   2.115   1.275  0.2199  0.0316  0.0676
  896SOL     OW 3581   2.179   2.785   1.088 -0.1769  0.0680 -0.4645
  896SOL    HW1 3582   2.236   2.749   1.156  3.6844 -1.0474 -0.0979
  896SOL    HW2 3583   2.156   2.698   1.038  0.6898  0.4262 -0.1674
  896SOL     MW 3584   2.184   2.769   1.090  0.4469 -0.0319 -0.3769
  897SOL     OW 3585   3.015   2.890   0.096 -0.2503  0.2035  0.3265
  897SOL    HW1 3586   3.086   2.893   0.016 -1.7895  3.1792 -1.8448
  897SOL    HW2 3587   2.927   2.863   0.062  2.4660  2.1607  4.0851
  897SOL     MW 3588   3.013   2.887   0.081 -0.0950  0.8543  0.5359
  898SOL     OW 3589   2.090   0.157   1.409  0.2667  0.2126  0.4744
  898SOL    HW1 3590   2.075   0.062   1.434 -1.2315  1.5453  1.2990
  898SOL    HW2 3591   2.080   0.160   1.315 -0.2018 -1.5699  1.5040
  898SOL     MW 3592   2.086   0.145   1.400  0.0072  0.1532  0.7190
  899SOL     OW 3593   2.913   2.971   0.630 -0.9921  0.2517 -0.0532
  899SOL    HW1 3594   2.913   2.899   0.692  1.7456 -0.1056 -1.9849
  899SOL    HW2 3595   2.830   3.015   0.625  0.6392  0.5005  1.4399
  899SOL     MW 3596   2.902   2.967   0.638 -0.4157  0.2374 -0.1111
  900SOL     OW 3597   0.100   2.419   1.069  0.0357 -0.5530  0.6169
  900SOL    HW1 3598   0.066   2.509   1.069  1.8774  1.8481  2.2803
  900SOL    HW2 3599   0.111   2.388   0.977 -2.5940  2.9698  0.8835
  900SOL     MW 3600   0.097   2.427   1.057 -0.0683  0.2286  0.8715
  901SOL     OW 3601   1.769   2.895   1.713 -0.1815 -0.6936  0.7286
  901SOL    HW1 3602   1.834   2.818   1.725  0.0580  0.0411  2.5848
  901SOL    HW2 3603   1.730   2.884   1.624  0.4740  0.2948  0.4637
  901SOL     MW 3604   1.773   2.883   1.703 -0.0634 -0.4663  0.9385
  902SOL     OW 3605   2.694   2.111   1.802 -0.0061  0.3798 -0.1418
  902SOL    HW1 3606   2.696   2.046   1.733 -0.2717 -1.3259 -0.5513
  902SOL    HW2 3607   2.778   2.090   1.846 -0.7498  1.3237  1.8203
  902SOL     MW 3608   2.705   2.100   1.799 -0.1392  0.2793  0.0630
  903SOL     OW 3609   1.590   2.778   0.506  0.1237  0.2815  0.2089
  903SOL    HW1 3610   1.633   2.695   0.549 -0.9304 -0.0825  1.1830
  903SOL    HW2 3611   1.561   2.820   0.591 -1.2448 -0.8807 -1.8220
  903SOL     MW 3612   1.592   2.773   0.523 -0.1959  0.0801  0.0694
  904SOL     OW 3613   2.491   2.523   1.726  0.0760  0.3124  0.0574
  904SOL    HW1 3614   2.422   2.538   1.662 -1.7405  2.6890 -0.9253
  904SOL    HW2 3615   2.566   2.488   1.681 -0.0725  0.1699 -0.5168
  904SOL     MW 3616   2.491   2.520   1.712 -0.1833  0.6071 -0.1480
  905SOL     OW 3617   2.325   2.570   2.179  0.3193  0.0240  0.2089
  905SOL    HW1 3618   2.396   2.544   2.121  0.4498 -3.5724 -0.0445
  905SOL    HW2 3619   2.281   2.488   2.204 -1.1083  0.1933  1.4146
  905SOL     MW 3620   2.329   2.556   2.174  0.1482 -0.4282  0.3346
  906SOL     OW 3621   2.428   2.516   0.888 -0.2226 -0.0108 -0.6861
  906SOL    HW1 3622   2.517   2.469   0.903  1.2522  0.0487 -0.8739
  906SOL    HW2 3623   2.450   2.613   0.878  0.1890  2.7886 -0.2865
  906SOL     MW 3624   2.443   2.522   0.888  0.0263  0.3664 -0.6582
  907SOL     OW 3625   2.597   2.846   1.339  0.2931 -0.5975  0.4837
  907SOL    HW1 3626   2.645   2.919   1.378 -0.2827  0.0495 -0.6918
  907SOL    HW2 3627   2.638   2.842   1.255  0.2751  0.0995  0.2725
  907SOL     MW 3628   2.609   2.855   1.333  0.2148 -0.4202  0.3007
  908SOL     OW 3629   2.727   2.394  -0.001  0.3255  0.1744 -0.0304
  908SOL    HW1 3630   2.677   2.306   0.023 -2.7871  0.9661 -1.2559
  908SOL    HW2 3631   2.693   2.459   0.068 -1.8692 -1.2274 -1.2784
  908SOL     MW 3632   2.716   2.391   0.011 -0.3748  0.0939 -0.3567
  909SOL     OW 3633   1.717   0.144   1.145 -0.0113 -0.5958 -0.1708
  909SOL    HW1 3634   1.697   0.233   1.112 -1.3184 -1.5513  1.2783
  909SOL    HW2 3635   1.814   0.137   1.139  3.3640  0.4254 -0.1009
  909SOL     MW 3636   1.727   0.155   1.140  0.2616 -0.5871  0.0296
  910SOL     OW 3637   2.332   1.815   0.390  0.2594  0.0558  0.6277
  910SOL    HW1 3638   2.273   1.738   0.407  1.0681 -0.9980 -1.7110
  910SOL    HW2 3639   2.296   1.866   0.320  1.9624  0.9451  1.0289
  910SOL     MW 3640   2.319   1.811   0.383  0.5908  0.0341  0.3721
  911SOL     OW 3641   2.205   2.234   1.744  0.4851  0.4461 -0.6176
  911SOL    HW1 3642   2.276   2.217   1.807 -2.8333  0.0229  1.2226
  911SOL    HW2 3643   2.253   2.254   1.665  4.7763  0.0327  2.6436
  911SOL     MW 3644   2.221   2.234   1.742  0.6135  0.3357  0.0555
  912SOL     OW 3645   2.950   1.920   1.523  0.2596  0.8494 -0.3467
  912SOL    HW1 3646   2.954   1.950   1.425 -1.7065 -0.8584  0.1958
  912SOL    HW2 3647   2.859   1.947   1.558 -1.3833 -1.5818  1.1496
  912SOL     MW 3648   2.939   1.927   1.514 -0.2166  0.3033 -0.0777
  913SOL     OW 3649   2.565   3.013   0.384 -0.0054  0.0780 -0.0559
  913SOL    HW1 3650   2.627   2.943   0.376 -0.3643  1.1416 -2.0899
  913SOL    HW2 3651   2.486   2.953   0.388 -0.0638  1.1955 -0.7607
  913SOL     MW 3652   2.563   2.996   0.383 -0.0605  0.3657 -0.4173
  914SOL     OW 3653   2.719   1.734   3.059 -0.9068  0.5151 -0.0626
  914SOL    HW1 3654   2.752   1.808   2.998  3.3328 -0.3116  0.3954
  914SOL    HW2 3655   2.628   1.737   3.067 -0.0863 -3.4921 -1.9231
  914SOL     MW 3656   2.711   1.744   3.052 -0.2392 -0.1227 -0.2476
  915SOL     OW 3657   1.716   0.222   0.228 -0.3704 -0.1671 -0.0368
  915SOL    HW1 3658   1.782   0.179   0.274 -2.2335 -1.2336 -2.5903
  915SOL    HW2 3659   1.640   0.165   0.234  1.1659  0.5799 -1.0321
  915SOL     MW 3660   1.715   0.209   0.235 -0.4135 -0.2093 -0.5050
  916SOL     OW 3661   1.820   2.065   1.928  0.0988  0.2934  0.3196
  916SOL    HW1 3662   1.824   2.164   1.933  0.7885  1.0123 -1.3050
  916SOL    HW2 3663   1.821   2.041   1.835  2.7220 -1.9718  0.7721
  916SOL     MW 3664   1.821   2.075   1.917  0.5359  0.0894  0.1649
  917SOL     OW 3665   2.502   2.215   2.560  0.7188 -0.8115 -0.1494
  917SOL    HW1 3666   2.467   2.252   2.639  1.1628 -1.8541  0.1687
  917SOL    HW2 3667   2.575   2.268   2.532 -1.2681 -1.0127  0.2942
  917SOL     MW 3668   2.507   2.227   2.567  0.5152 -0.9756 -0.0489
  918SOL     OW 3669   1.968   1.607   2.707  0.2123 -0.7205 -0.3985
  918SOL    HW1 3670   1.904   1.622   2.638 -0.6216  0.0861  1.6994
  918SOL    HW2 3671   2.040   1.656   2.678  0.5590 -2.1195  1.2462
  918SOL     MW 3672   1.970   1.615   2.694  0.1480 -0.7987  0.0953
  919SOL     OW 3673   0.032   2.316   2.260 -0.4315  0.3493 -0.0620
  919SOL    HW1 3674  -0.040   2.252   2.231  1.9440 -2.5448 -0.3003
  919SOL    HW2 3675   0.081   2.344   2.178 -0.2563 -0.1385  0.4890
  919SOL     MW 3676   0.029   2.311   2.246 -0.0950 -0.0969 -0.0207
  920SOL     OW 3677   2.766   2.811   3.093 -0.2465  0.4973  0.0610
  920SOL    HW1 3678   2.680   2.849   3.117 -0.0467 -0.3488  2.5245
  920SOL    HW2 3679   2.749   2.741   3.024 -1.9267  1.7484 -0.3533
  920SOL     MW 3680   2.752   2.807   3.087 -0.4418  0.5507  0.3314
  921SOL     OW 3681   2.429   2.574   2.607  0.7097  0.1683 -0.3372
  921SOL    HW1 3682   2.516   2.585   2.570 -1.6220  0.7062 -1.2330
  921SOL    HW2 3683   2.441   2.510   2.671 -1.9586 -0.7360 -1.7750
  921SOL     MW 3684   2.442   2.567   2.611  0.0500  0.1200 -0.6451
  922SOL     OW 3685   2.033   2.831   0.303 -0.5809  0.4640 -0.2242
  922SOL    HW1 3686   1.991   2.833   0.213  2.2041 -0.7665 -1.4086
  922SOL    HW2 3687   2.020   2.733   0.323  1.5107 -0.2415  1.9148
  922SOL     MW 3688   2.026   2.819   0.294  0.0625  0.2085 -0.0982
  923SOL     OW 3689   2.183   2.830   1.669 -0.0280  0.2883  0.0622
  923SOL    HW1 3690   2.223   2.760   1.615 -2.7272 -1.0213  0.3243
  923SOL    HW2 3691   2.141   2.885   1.606 -0.3548  1.0650  0.0230
  923SOL     MW 3692   2.183   2.828   1.653 -0.4273  0.2180  0.0916
  924SOL     OW 3693   1.221   2.598   2.497  0.2768 -0.2813 -0.1909
  924SOL    HW1 3694   1.286   2.668   2.496 -2.9350 -0.2854  1.7965
  924SOL    HW2 3695   1.269   2.522   2.532 -2.3012  0.9940  0.4282
  924SOL     MW 3696   1.236   2.597   2.502 -0.4871 -0.1136  0.1530
  925SOL     OW 3697   2.970   0.235   2.605  0.0936 -0.4108  0.0422
  925SOL    HW1 3698   2.931   0.218   2.512 -0.3263  0.5844  1.2852
  925SOL    HW2 3699   2.924   0.306   2.644  1.5514 -3.1734 -4.2484
  925SOL     MW 3700   2.959   0.242   2.598  0.2305 -0.6440 -0.3599
  926SOL     OW 3701   2.760   2.401   2.096  0.0414 -0.3158  0.2055
  926SOL    HW1 3702   2.812   2.471   2.139 -1.5384 -1.3120  0.7186
  926SOL    HW2 3703   2.795   2.398   2.005 -1.0535 -2.7669 -1.4875
  926SOL     MW 3704   2.772   2.410   2.090 -0.3115 -0.7707  0.0498
  927SOL     OW 3705   2.344   0.143   0.314  1.0677 -0.0178 -0.2431
  927SOL    HW1 3706   2.431   0.148   0.334 -0.2739  0.5000  1.3181
  927SOL    HW2 3707   2.337   0.110   0.225 -1.8739 -0.0491  1.1978
  927SOL     MW 3708   2.355   0.139   0.305  0.5025  0.0464  0.1530
  928SOL     OW 3709   2.108   2.446   1.922  0.3797  0.3255  0.2260
  928SOL    HW1 3710   2.124   2.354   1.891  0.3452 -1.1189  0.4945
  928SOL    HW2 3711   2.162   2.457   2.001 -4.0335 -2.0446  2.0443
  928SOL     MW 3712   2.117   2.435   1.928 -0.2071 -0.1778  0.5013
  929SOL     OW 3713   2.696   2.370   2.447  0.5200  0.1723  0.0993
  929SOL    HW1 3714   2.727   2.394   2.364 -1.2604 -1.7555  0.7236
  929SOL    HW2 3715   2.762   2.322   2.491  0.9880 -0.8975 -1.3061
  929SOL     MW 3716   2.708   2.367   2.442  0.3468 -0.2232 -0.0037
  930SOL     OW 3717   2.029   2.820   2.717 -0.2242 -0.2161 -0.2983
  930SOL    HW1 3718   2.038   2.745   2.776 -0.3825  0.1511 -0.7457
  930SOL    HW2 3719   2.112   2.880   2.726  1.4021 -0.4508  0.7934
  930SOL     MW 3720   2.041   2.818   2.726 -0.0305 -0.1986 -0.2133
  931SOL     OW 3721   3.017   2.769   2.289  0.0047  0.3031  0.5845
  931SOL    HW1 3722   3.060   2.799   2.365 -2.6163 -1.9940  1.6385
  931SOL    HW2 3723   3.089   2.756   2.223  2.5272 -0.3018 -0.4571
  931SOL     MW 3724   3.032   2.771   2.290 -0.0083 -0.0798  0.5861
  932SOL     OW 3725   2.824   2.011   2.563  0.2023 -0.1998 -0.1984
  932SOL    HW1 3726   2.918   2.021   2.580  0.2481  2.0708  1.3565
  932SOL    HW2 3727   2.816   2.008   2.465 -1.2325 -0.6222  0.1065
  932SOL     MW 3728   2.835   2.012   2.552  0.0191  0.0440  0.0470
  933SOL     OW 3729   2.032   2.875   2.281  0.0028 -0.0850  0.4029
  933SOL    HW1 3730   2.089   2.937   2.323 -1.5678  1.8951 -1.9333
  933SOL    HW2 3731   1.950   2.920   2.254  1.8375  2.2227  0.0050
  933SOL     MW 3732   2.029   2.889   2.283  0.0376  0.4807  0.0422
  934SOL     OW 3733   1.990   2.678   2.470 -0.1023 -0.1518  0.2977
  934SOL    HW1 3734   2.014   2.728   2.551  0.1874  0.8253  0.0974
  934SOL    HW2 3735   1.977   2.748   2.405 -2.1099  1.5391  0.7389
  934SOL     MW 3736   1.991   2.694   2.472 -0.3290  0.2002  0.3294
  935SOL     OW 3737   2.649   1.595   1.806 -0.0312 -0.1841 -0.3520
  935SOL    HW1 3738   2.736   1.564   1.782  3.4384 -2.7942 -1.3001
  935SOL    HW2 3739   2.602   1.573   1.721 -0.0929 -0.0984 -0.0973
  935SOL     MW 3740   2.655   1.588   1.792  0.4184 -0.5172 -0.4435
  936SOL     OW 3741   2.981   2.255   3.073 -0.2253 -0.6834 -0.3337
  936SOL    HW1 3742   3.058   2.288   3.124 -0.3128  0.3237  1.5554
  936SOL    HW2 3743   2.897   2.301   3.101 -1.0803  0.3923  0.9165
  936SOL     MW 3744   2.980   2.265   3.083 -0.3497 -0.4086  0.0805
  937SOL     OW 3745   1.952   2.108   2.677  0.3455  0.0191  0.0163
  937SOL    HW1 3746   2.030   2.069   2.719 -3.1645  0.9709 -1.3294
  937SOL    HW2 3747   1.954   2.084   2.580 -0.6065  0.8226 -0.5544
  937SOL     MW 3748   1.963   2.099   2.670 -0.2432  0.2507 -0.2366
  938SOL     OW 3749   2.267   1.822   1.907 -0.3146 -0.3674 -0.1023
  938SOL    HW1 3750   2.260   1.865   1.818  0.5672  3.9126 -0.4521
  938SOL    HW2 3751   2.268   1.894   1.970 -1.7744  0.1793  1.8578
  938SOL     MW 3752   2.267   1.837   1.904 -0.3909  0.2694  0.1102
  939SOL     OW 3753   2.789   1.980   2.265 -0.5581  0.0062  0.4777
  939SOL    HW1 3754   2.817   1.913   2.201 -0.3664  0.9920  2.4389
  939SOL    HW2 3755   2.692   1.982   2.254 -2.4729  2.1208  0.1844
  939SOL     MW 3756   2.780   1.971   2.255 -0.7854  0.4152  0.6977
  940SOL     OW 3757   2.323   0.189   2.628  0.4229  0.0873  0.0624
  940SOL    HW1 3758   2.307   0.098   2.636 -1.2297  1.9633 -3.0383
  940SOL    HW2 3759   2.357   0.210   2.716  0.8094  1.3282  3.6608
  940SOL     MW 3760   2.326   0.180   2.640  0.2558  0.4985  0.1281
  941SOL     OW 3761   0.174   2.341   2.027 -0.1250  1.2489  0.8984
  941SOL    HW1 3762   0.266   2.313   2.038  2.7054  0.4824  1.4552
  941SOL    HW2 3763   0.115   2.286   1.965 -1.4191 -1.2574 -0.1522
  941SOL     MW 3764   0.178   2.330   2.020  0.0777  0.8171  0.8333
  942SOL     OW 3765   2.934   2.184   2.165 -0.6312 -0.0997  0.1927
  942SOL    HW1 3766   2.876   2.264   2.156 -2.4429 -0.3405  3.8741
  942SOL    HW2 3767   2.884   2.115   2.208 -2.3773 -0.1153 -0.0135
  942SOL     MW 3768   2.920   2.186   2.169 -1.1006 -0.1335  0.6512
  943SOL     OW 3769   0.292   2.099   2.247  0.2875  0.5630 -0.4039
  943SOL    HW1 3770   0.256   2.138   2.324  0.4792  2.0794 -0.2285
  943SOL    HW2 3771   0.383   2.080   2.277 -1.4139  1.4279 -1.9845
  943SOL     MW 3772   0.300   2.101   2.261  0.0884  0.8772 -0.5893
  944SOL     OW 3773   2.090   2.693   2.084 -0.6700  0.2641  0.3865
  944SOL    HW1 3774   2.173   2.651   2.103 -1.0418  1.1440 -1.0061
  944SOL    HW2 3775   2.086   2.757   2.161  2.6297 -1.3945 -1.2233
  944SOL     MW 3776   2.100   2.696   2.097 -0.2837  0.1614 -0.0096
  945SOL     OW 3777   2.682   2.678   2.877 -0.3756 -0.5507 -0.2398
  945SOL    HW1 3778   2.690   2.582   2.867 -1.1615  1.9216 -0.0885
  945SOL    HW2 3779   2.699   2.713   2.790 -2.6441 -0.7731 -0.7853
  945SOL     MW 3780   2.685   2.670   2.864 -0.7786 -0.2539 -0.2918
  946SOL     OW 3781   2.455   2.770   2.317 -0.4956  0.2532 -0.1738
  946SOL    HW1 3782   2.494   2.800   2.240 -2.1176  2.6754  0.8089
  946SOL    HW2 3783   2.402   2.700   2.282  2.9927  1.1865  1.2612
  946SOL     MW 3784   2.453   2.765   2.302 -0.2493  0.6960  0.1452
  947SOL     OW 3785   1.968   0.118   0.299 -0.3747  0.0301  0.6152
  947SOL    HW1 3786   1.944   0.023   0.285 -0.3076 -2.8553  0.3417
  947SOL    HW2 3787   2.015   0.101   0.378 -0.6203 -1.7552 -0.0792
  947SOL     MW 3788   1.971   0.103   0.308 -0.3983 -0.5862  0.4875
  948SOL     OW 3789   1.777   2.972   2.682  0.6621  0.4897 -0.1507
  948SOL    HW1 3790   1.849   2.907   2.680  0.1849 -0.1378 -0.2524
  948SOL    HW2 3791   1.764   3.000   2.594  0.2281 -0.2546  1.8198
  948SOL     MW 3792   1.785   2.967   2.670  0.5418  0.3087  0.0959
  949SOL     OW 3793   2.515   1.954   2.283 -0.1067 -0.8174  0.3816
  949SOL    HW1 3794   2.490   1.863   2.313  0.3649  1.0311  0.5771
  949SOL    HW2 3795   2.454   2.014   2.316  1.3823 -2.1175  0.4462
  949SOL     MW 3796   2.503   1.950   2.291  0.1520 -0.7451  0.4159
  950SOL     OW 3797   2.264   2.509   2.962 -0.2599 -0.0820 -0.2547
  950SOL    HW1 3798   2.324   2.451   2.912  0.2942 -0.8454 -2.5268
  950SOL    HW2 3799   2.180   2.520   2.918  0.4343 -2.1355 -2.0256
  950SOL     MW 3800   2.261   2.503   2.950 -0.0952 -0.4536 -0.7881
  951SOL     OW 3801   3.014   2.126   2.815 -0.1710 -0.2668 -0.2015
  951SOL    HW1 3802   3.019   2.149   2.909  3.0979  3.1838  1.0170
  951SOL    HW2 3803   3.104   2.098   2.788  1.5944 -1.5945  2.0671
  951SOL     MW 3804   3.026   2.125   2.824  0.4932  0.0133  0.2586
  952SOL     OW 3805   3.089   1.670   2.165 -0.6248  0.0494 -0.0461
  952SOL    HW1 3806   3.012   1.700   2.114  0.7771  1.5648 -0.7200
  952SOL    HW2 3807   3.158   1.740   2.172  0.3345 -0.9285  0.7313
  952SOL     MW 3808   3.088   1.683   2.159 -0.3133  0.1203 -0.0324
  953SOL     OW 3809   1.922   1.797   2.902 -0.1798  0.2534  0.7067
  953SOL    HW1 3810   1.847   1.758   2.950 -1.3779 -1.5814  0.0039
  953SOL    HW2 3811   1.940   1.720   2.847 -2.0218  1.0900 -1.0841
  953SOL     MW 3812   1.915   1.782   2.901 -0.5809  0.1217  0.3777
  954SOL     OW 3813   2.442   2.104   2.883 -0.8312 -0.0810  0.1245
  954SOL    HW1 3814   2.351   2.085   2.852 -3.6194 -1.3425 -1.1941
  954SOL    HW2 3815   2.493   2.056   2.809 -2.1555  0.1856  0.2635
  954SOL     MW 3816   2.437   2.095   2.869 -1.3738 -0.2123 -0.0311
  955SOL     OW 3817   1.579   1.577   2.626 -0.8722  0.2974 -0.6593
  955SOL    HW1 3818   1.513   1.590   2.560  3.2507  2.1385  0.0435
  955SOL    HW2 3819   1.661   1.611   2.584  2.9354 -3.3179 -0.5409
  955SOL     MW 3820   1.581   1.583   2.611  0.1741  0.0633 -0.5510
  956SOL     OW 3821   2.686   2.398   2.835  0.1752  0.1699 -0.3693
  956SOL    HW1 3822   2.715   2.374   2.924  2.4512  1.2134  0.7366
  956SOL    HW2 3823   2.750   2.353   2.776  1.0667 -1.8478 -2.0825
  956SOL     MW 3824   2.698   2.389   2.839  0.5931  0.0413 -0.4494
  957SOL     OW 3825   2.348   2.853   0.398  0.6154 -0.1136 -0.4533
  957SOL    HW1 3826   2.282   2.849   0.325  1.0012 -0.0365 -0.9464
  957SOL    HW2 3827   2.284   2.836   0.473 -1.6861  0.3570  0.1672
  957SOL     MW 3828   2.331   2.850   0.399  0.3626 -0.0413 -0.4365
  958SOL     OW 3829   2.022   2.582   2.850  0.2336  0.2808 -0.1442
  958SOL    HW1 3830   1.990   2.493   2.815 -0.8154 -0.1464 -2.6343
  958SOL    HW2 3831   1.954   2.605   2.913  0.4025  1.0880 -0.9893
  958SOL     MW 3832   2.009   2.574   2.854  0.1175  0.3310 -0.5842
  959SOL     OW 3833   2.475   2.603   0.338  0.1398 -0.2242 -0.4966
  959SOL    HW1 3834   2.550   2.621   0.280  0.1219  2.1745  2.0193
  959SOL    HW2 3835   2.444   2.686   0.369  3.3027  0.0169  0.7950
  959SOL     MW 3836   2.481   2.617   0.335  0.5547  0.1241  0.0058
  960SOL     OW 3837   1.953   2.282   2.208 -0.1885 -0.1956 -0.0563
  960SOL    HW1 3838   1.938   2.187   2.219  0.8105 -1.9202  0.6970
  960SOL    HW2 3839   1.922   2.330   2.282 -0.1159 -2.4751  0.2650
  960SOL     MW 3840   1.947   2.276   2.219 -0.0471 -0.7239  0.0855
  961SOL     OW 3841   2.221   2.341   2.250 -0.5279  0.4451  0.3654
  961SOL    HW1 3842   2.129   2.324   2.222  0.1279 -1.7087 -2.3330
  961SOL    HW2 3843   2.215   2.372   2.342 -2.3652 -2.5142 -3.6793
  961SOL     MW 3844   2.208   2.343   2.259 -0.6838 -0.2295 -0.5243
  962SOL     OW 3845   2.173   2.026   2.811 -0.7930 -0.1286 -0.6602
  962SOL    HW1 3846   2.129   2.015   2.895  1.8026  3.9779  2.3992
  962SOL    HW2 3847   2.178   1.934   2.769 -1.3642 -2.1943 -0.4530
  962SOL     MW 3848   2.168   2.012   2.817 -0.5259  0.1407 -0.2292
  963SOL     OW 3849   1.835   2.594   2.070  0.0506  0.0891  0.3409
  963SOL    HW1 3850   1.934   2.612   2.069 -0.2582 -0.4180  1.0849
  963SOL    HW2 3851   1.824   2.510   2.025 -0.0148  0.8850  1.0887
  963SOL     MW 3852   1.847   2.585   2.064  0.0013  0.1272  0.5378
  964SOL     OW 3853   1.748   1.933   2.726  0.9429 -0.0201 -0.2310
  964SOL    HW1 3854   1.809   2.008   2.703 -0.4829  3.4256 -0.5590
  964SOL    HW2 3855   1.805   1.867   2.776 -0.9032 -1.6877  0.0384
  964SOL     MW 3856   1.763   1.934   2.730  0.5112  0.2145 -0.2387
  965SOL     OW 3857   2.214   2.763   0.606  0.4792 -0.1658 -0.2222
  965SOL    HW1 3858   2.221   2.668   0.586 -1.0237  2.6218  0.7887
  965SOL    HW2 3859   2.276   2.776   0.678  0.8468  3.6273 -0.0481
  965SOL     MW 3860   2.223   2.752   0.613  0.3294  0.7024 -0.0658
  966SOL     OW 3861   2.661   2.666   2.498  0.1591  0.3991 -0.1262
  966SOL    HW1 3862   2.594   2.714   2.452  0.5813 -2.4844 -0.9196
  966SOL    HW2 3863   2.648   2.573   2.478  0.8546  0.8660 -0.7715
  966SOL     MW 3864   2.650   2.660   2.489  0.3066  0.0802 -0.3160
  967SOL     OW 3865   2.793   3.014   2.906 -0.6195  0.2368 -0.0519
  967SOL    HW1 3866   2.793   2.937   2.963  0.5385 -0.8695 -2.5189
  967SOL    HW2 3867   2.698   3.035   2.901 -2.1645  0.7669 -0.5754
  967SOL     MW 3868   2.780   3.007   2.913 -0.6705  0.1608 -0.4465
  968SOL     OW 3869   3.046   2.652   2.910 -0.1025 -0.1787  0.1911
  968SOL    HW1 3870   2.947   2.643   2.878 -1.2494 -0.8640 -0.2550
  968SOL    HW2 3871   3.089   2.581   2.864  2.9680  0.5921 -0.0474
  968SOL     MW 3872   3.039   2.642   2.900  0.1513 -0.1674  0.1008
  969SOL     OW 3873   1.545   2.172   1.672  0.9604 -0.0388 -0.0720
  969SOL    HW1 3874   1.606   2.100   1.651 -0.0513  0.8868 -0.6341
  969SOL    HW2 3875   1.520   2.174   1.767 -0.2319  0.2953  0.5297
  969SOL     MW 3876   1.549   2.163   1.681  0.6696  0.1274 -0.0668
  970SOL     OW 3877   1.658   1.730   1.802  0.2941  0.4892  1.1539
  970SOL    HW1 3878   1.705   1.691   1.872 -2.4768  0.6378 -0.4840
  970SOL    HW2 3879   1.568   1.738   1.831 -2.2353  2.5187 -2.8594
  970SOL     MW 3880   1.653   1.726   1.815 -0.4053  0.7766  0.4083
  971SOL     OW 3881   1.745   3.064   2.396  0.0353  0.4492 -0.0201
  971SOL    HW1 3882   1.768   3.038   2.303  0.1922  1.1898 -1.2393
  971SOL    HW2 3883   1.808   3.129   2.416  0.6403 -0.5901  0.3121
  971SOL     MW 3884   1.756   3.069   2.386  0.1358  0.4098 -0.1372
  972SOL     OW 3885   0.258   2.880   2.458  0.2564  0.2569  0.0130
  972SOL    HW1 3886   0.296   2.798   2.488 -1.8824 -0.9728 -0.3482
  972SOL    HW2 3887   0.323   2.950   2.494  2.0179  1.6892  0.5189
  972SOL     MW 3888   0.272   2.879   2.466  0.2066  0.2836  0.0321
  973SOL     OW 3889   2.527   0.024   2.070  0.6636  0.0519  0.4257
  973SOL    HW1 3890   2.522  -0.062   2.028 -0.6825 -2.3198 -1.3652
  973SOL    HW2 3891   2.532   0.085   1.995 -0.8772  0.5992 -0.8965
  973SOL     MW 3892   2.527   0.021   2.055  0.2827 -0.1888  0.0149
  974SOL     OW 3893   2.057   0.222   2.686 -0.1243 -0.1255  0.0382
  974SOL    HW1 3894   2.150   0.221   2.669 -0.4506 -0.2584 -1.7624
  974SOL    HW2 3895   2.040   0.151   2.750 -1.2229  1.6520  0.3765
  974SOL     MW 3896   2.067   0.212   2.693 -0.3123  0.0915 -0.1547
  975SOL     OW 3897   2.196   2.454   2.484 -0.0118 -0.1312  0.3099
  975SOL    HW1 3898   2.270   2.455   2.542  1.8087 -1.5825 -1.3680
  975SOL    HW2 3899   2.174   2.548   2.465  0.0827  0.0590 -0.9413
  975SOL     MW 3900   2.203   2.466   2.489  0.2408 -0.2976 -0.0766
  976SOL     OW 3901   0.240   0.367   1.724 -0.7393  0.1546  0.0729
  976SOL    HW1 3902   0.312   0.312   1.754 -0.0355 -0.7078  0.4340
  976SOL    HW2 3903   0.174   0.306   1.681  1.9479  1.9901  1.7896
  976SOL     MW 3904   0.241   0.351   1.722 -0.2919  0.2830  0.3471
  977SOL     OW 3905   1.736   2.613   2.491 -0.0952 -0.0859  0.4318
  977SOL    HW1 3906   1.751   2.519   2.502  2.1314  0.3067 -0.9202
  977SOL    HW2 3907   1.826   2.644   2.487  0.2867 -1.7890 -0.8287
  977SOL     MW 3908   1.750   2.605   2.492  0.2489 -0.2588  0.0871
   3.10000   3.10000   3.10000
