977 TIP4P/2005f water molecules t=   1.80000 step= 1800
 3908
    1SOL     OW    1   0.385   0.768   0.094 -0.2177 -0.0396 -0.1996
    1SOL    HW1    2   0.325   0.713   0.043  0.1972 -1.1917  3.3998
    1SOL    HW2    3   0.397   0.716   0.171 -0.6114 -1.4764 -0.1139
    1SOL     MW    4   0.379   0.754   0.097 -0.2149 -0.3812  0.2866
    2SOL     OW    5   0.293   2.995   1.098 -0.5032 -0.5511 -0.0126
    2SOL    HW1    6   0.344   3.076   1.090  0.6481  0.0640 -0.1437
    2SOL    HW2    7   0.199   3.019   1.094  0.9442  0.7906 -1.2986
    2SOL     MW    8   0.287   3.009   1.096 -0.1603 -0.2929 -0.1996
    3SOL     OW    9   2.683   0.347   0.961  0.2850 -0.7263 -0.7475
    3SOL    HW1   10   2.725   0.427   0.910 -0.6000 -0.1932 -0.5786
    3SOL    HW2   11   2.671   0.381   1.061  0.3741  1.6658  2.7293
    3SOL     MW   12   2.687   0.362   0.968  0.1800 -0.3404 -0.2665
    4SOL     OW   13   2.931   1.695   0.538  0.3138  0.3844  0.0598
    4SOL    HW1   14   2.867   1.762   0.531 -0.1784 -0.6525  1.0338
    4SOL    HW2   15   2.988   1.714   0.465 -0.3645  2.2671 -0.7964
    4SOL     MW   16   2.930   1.706   0.528  0.1593  0.4960  0.0753
    5SOL     OW   17   1.608   1.420   0.612  0.0918  0.6922 -0.1087
    5SOL    HW1   18   1.640   1.417   0.703  0.4465 -0.2974  0.9677
    5SOL    HW2   19   1.519   1.450   0.621 -2.6264 -1.5622 -1.7772
    5SOL     MW   20   1.600   1.423   0.625 -0.2200  0.2642 -0.1868
    6SOL     OW   21   0.794   1.429   0.609 -0.4303 -0.0145 -0.3583
    6SOL    HW1   22   0.701   1.431   0.626  2.4875 -1.2254  0.5973
    6SOL    HW2   23   0.832   1.347   0.651 -0.2268 -1.7482  0.0023
    6SOL     MW   24   0.787   1.418   0.617 -0.0185 -0.4030 -0.1846
    7SOL     OW   25   1.951   1.029   0.023  0.1174  0.2449  0.1008
    7SOL    HW1   26   2.033   1.082   0.009 -0.3472 -0.3577  0.1845
    7SOL    HW2   27   1.951   1.019   0.119 -3.3169 -0.3147  4.2662
    7SOL     MW   28   1.961   1.035   0.034 -0.3970  0.0915  0.6614
    8SOL     OW   29   0.819   1.418   1.018  0.0701 -0.7105 -0.5593
    8SOL    HW1   30   0.870   1.498   1.043  2.0865  1.2627  1.3004
    8SOL    HW2   31   0.795   1.369   1.093  0.5764 -1.8468 -3.4165
    8SOL     MW   32   0.822   1.422   1.031  0.4029 -0.6001 -0.6909
    9SOL     OW   33   0.918   0.525   1.318 -0.6076  0.5382 -0.1754
    9SOL    HW1   34   0.863   0.451   1.283 -0.7986  0.6247  1.4508
    9SOL    HW2   35   0.984   0.495   1.382  0.9041 -0.5590 -1.0652
    9SOL     MW   36   0.919   0.511   1.322 -0.4333  0.4049 -0.0782
   10SOL     OW   37   0.312   0.821   0.490  0.1209 -0.0575  0.2078
   10SOL    HW1   38   0.404   0.858   0.480  1.4066 -0.6927  2.2713
   10SOL    HW2   39   0.263   0.860   0.570  0.7855 -0.3590  1.4114
   10SOL     MW   40   0.318   0.831   0.500  0.3782 -0.1811  0.6388
   11SOL     OW   41   0.767   1.118   1.468 -0.4657  0.0530  0.6905
   11SOL    HW1   42   0.813   1.112   1.551  1.6070  1.5161  0.7472
   11SOL    HW2   43   0.805   1.032   1.424 -1.6907 -2.5552 -1.0125
   11SOL     MW   44   0.778   1.106   1.473 -0.3539 -0.0981  0.4733
   12SOL     OW   45   0.066   1.079   0.918 -0.1126  0.1723  0.1056
   12SOL    HW1   46   0.108   1.162   0.932 -0.5653 -0.8964  0.5311
   12SOL    HW2   47  -0.008   1.108   0.851 -0.1117  1.6735 -0.9471
   12SOL     MW   48   0.062   1.094   0.911 -0.1722  0.2294  0.0228
   13SOL     OW   49   1.819   1.414   1.324  0.4485 -0.1663  0.4100
   13SOL    HW1   50   1.843   1.322   1.294  3.2975  1.4741  0.0131
   13SOL    HW2   51   1.900   1.461   1.300  0.7006 -0.6983  0.8852
   13SOL     MW   52   1.833   1.408   1.317  0.8577 -0.0201  0.4203
   14SOL     OW   53   0.583   0.292   1.824  0.0182 -0.5832 -0.2366
   14SOL    HW1   54   0.546   0.219   1.770  1.3267  0.6806 -2.2500
   14SOL    HW2   55   0.679   0.277   1.809  1.7510 -0.1400 -0.1247
   14SOL     MW   56   0.591   0.280   1.815  0.4195 -0.3580 -0.4875
   15SOL     OW   57   2.045   0.443   0.964  0.6226  0.1930 -0.5697
   15SOL    HW1   58   2.071   0.519   1.023 -1.2629 -2.7544  2.3163
   15SOL    HW2   59   2.068   0.462   0.874  1.0239  0.4034 -0.7186
   15SOL     MW   60   2.051   0.456   0.960  0.4267 -0.1681 -0.2086
   16SOL     OW   61   0.232   1.844   0.267 -1.1098 -0.0485 -0.3415
   16SOL    HW1   62   0.315   1.803   0.267 -3.2456  2.3469 -2.0008
   16SOL    HW2   63   0.252   1.935   0.304 -2.6246  0.6194  0.2053
   16SOL     MW   64   0.246   1.851   0.272 -1.5915  0.3557 -0.4882
   17SOL     OW   65   1.115   0.883   1.419  0.1253  0.4787 -0.0231
   17SOL    HW1   66   1.143   0.855   1.503  0.0878  0.8001 -0.7073
   17SOL    HW2   67   1.015   0.879   1.423  0.0055  2.0124 -1.1330
   17SOL     MW   68   1.105   0.879   1.430  0.1046  0.7235 -0.2598
   18SOL     OW   69   0.051   1.654   0.359  0.3952  0.1575  0.1665
   18SOL    HW1   70   0.108   1.724   0.322 -1.7533 -1.3324 -0.4565
   18SOL    HW2   71   0.034   1.611   0.274  0.7286  0.0569  0.8159
   18SOL     MW   72   0.056   1.658   0.343  0.1557 -0.0523  0.1700
   19SOL     OW   73   0.099   1.353   0.969 -0.3623  0.3037 -0.2448
   19SOL    HW1   74   0.107   1.391   0.882  0.2060 -1.5336 -2.5297
   19SOL    HW2   75   0.003   1.347   0.979 -1.7053 -1.5776  1.0810
   19SOL     MW   76   0.088   1.357   0.959 -0.4645 -0.1869 -0.3713
   20SOL     OW   77   0.449   2.119   1.263 -0.1457 -0.0598  0.2645
   20SOL    HW1   78   0.413   2.045   1.213  2.1982  0.0324 -2.3611
   20SOL    HW2   79   0.394   2.114   1.344  1.2827  0.3822  0.2541
   20SOL     MW   80   0.437   2.109   1.267  0.3520  0.0107 -0.0833
   21SOL     OW   81   0.556   0.909   0.437  0.0839  0.2931  0.3629
   21SOL    HW1   82   0.608   0.972   0.498 -0.6072 -0.6950 -0.0976
   21SOL    HW2   83   0.619   0.885   0.371  0.5748  1.2628 -0.5673
   21SOL     MW   84   0.571   0.914   0.436  0.0575  0.2906  0.1794
   22SOL     OW   85   1.545   0.716   1.017  0.0664 -0.0581 -0.5376
   22SOL    HW1   86   1.564   0.706   0.924  2.4929  0.8406 -0.1915
   22SOL    HW2   87   1.476   0.781   1.022 -2.5609  0.5547 -1.2272
   22SOL     MW   88   1.538   0.724   1.005  0.0399  0.1413 -0.5829
   23SOL     OW   89   3.062   0.816   0.693  0.2750 -0.0234 -0.6097
   23SOL    HW1   90   3.107   0.742   0.739  2.1435 -0.9185  0.2602
   23SOL    HW2   91   3.128   0.888   0.672  3.2742 -1.1722 -1.8328
   23SOL     MW   92   3.077   0.816   0.697  0.9172 -0.2930 -0.6563
   24SOL     OW   93   2.087   2.127   0.071  0.1356 -0.0343 -0.0174
   24SOL    HW1   94   2.032   2.111   0.151  0.1725  0.9317  0.2052
   24SOL    HW2   95   2.113   2.049   0.026 -2.5223  1.3287 -0.9370
   24SOL     MW   96   2.083   2.115   0.076 -0.2102  0.2730 -0.1094
   25SOL     OW   97   0.236   1.443   0.403  0.3091  0.3873 -0.3086
   25SOL    HW1   98   0.160   1.515   0.413  2.0136 -0.0219 -0.4058
   25SOL    HW2   99   0.266   1.461   0.308 -3.9539 -2.1895  0.2345
   25SOL     MW  100   0.230   1.455   0.392 -0.0285 -0.0067 -0.2497
   26SOL     OW  101   1.980   1.032   0.303 -0.1421 -0.5406  0.4616
   26SOL    HW1  102   1.945   1.066   0.388  0.2325  0.5832 -0.1548
   26SOL    HW2  103   2.044   1.099   0.276 -1.9497  1.3796  1.1225
   26SOL     MW  104   1.984   1.045   0.310 -0.3312 -0.1390  0.4675
   27SOL     OW  105   1.865   1.366   0.138 -0.2312  0.0381 -0.2647
   27SOL    HW1  106   1.813   1.445   0.150  0.2449 -0.1190 -2.2808
   27SOL    HW2  107   1.934   1.364   0.205 -0.8087 -0.2697 -1.3982
   27SOL     MW  108   1.867   1.376   0.148 -0.2446 -0.0233 -0.6803
   28SOL     OW  109   0.441   0.939   2.052 -0.0423 -0.0262 -0.2242
   28SOL    HW1  110   0.500   0.922   2.123  0.9376 -2.3433 -0.8354
   28SOL    HW2  111   0.353   0.903   2.063  0.6253  0.3569 -0.3765
   28SOL     MW  112   0.437   0.932   2.063  0.1750 -0.2814 -0.3249
   29SOL     OW  113   0.162   1.445   0.709  0.3450  0.1332 -0.3428
   29SOL    HW1  114   0.195   1.536   0.698 -1.7630  0.0316 -0.3779
   29SOL    HW2  115   0.185   1.413   0.623  1.3360 -1.0761  1.1179
   29SOL     MW  116   0.169   1.453   0.696  0.1976 -0.0398 -0.1547
   30SOL     OW  117   0.737   1.270   1.244 -0.4857 -0.0055 -0.1914
   30SOL    HW1  118   0.647   1.255   1.274  1.9322 -0.0136  2.0285
   30SOL    HW2  119   0.790   1.228   1.315  0.6309  0.5767 -2.6536
   30SOL     MW  120   0.732   1.262   1.258 -0.0193  0.0703 -0.2234
   31SOL     OW  121   0.500   0.232   0.212 -0.2555  0.3961 -0.5048
   31SOL    HW1  122   0.553   0.159   0.250 -3.5333  1.5630 -0.4176
   31SOL    HW2  123   0.492   0.207   0.119 -2.4084 -0.3556  0.9969
   31SOL     MW  124   0.506   0.219   0.205 -0.9720  0.4509 -0.2952
   32SOL     OW  125   2.731   0.982   1.071  0.5029  0.2796  0.4118
   32SOL    HW1  126   2.690   0.933   1.135  2.3330  1.6062 -1.9265
   32SOL    HW2  127   2.829   0.949   1.081  1.2027 -0.9867 -0.2725
   32SOL     MW  128   2.738   0.971   1.081  0.8367  0.2876  0.0130
   33SOL     OW  129   1.607   1.225   0.422  0.3748 -0.2216 -0.2883
   33SOL    HW1  130   1.702   1.228   0.420 -1.3857  0.4109  3.5064
   33SOL    HW2  131   1.593   1.274   0.501 -2.2739 -0.6928 -0.3727
   33SOL     MW  132   1.618   1.232   0.433 -0.2070 -0.2004  0.2013
   34SOL     OW  133   1.129   1.977   1.166  0.0105  0.5317  0.7303
   34SOL    HW1  134   1.070   2.034   1.213 -2.1553 -0.4288  3.1628
   34SOL    HW2  135   1.209   1.992   1.202  0.0754 -0.3086 -2.4137
   34SOL     MW  136   1.132   1.986   1.177 -0.2667  0.2941  0.6364
   35SOL     OW  137   0.327   0.140   1.680 -0.1336 -0.0440 -0.2719
   35SOL    HW1  138   0.306   0.086   1.756 -2.1091  0.6968 -0.8562
   35SOL    HW2  139   0.285   0.083   1.612 -2.1234  1.7340 -1.3508
   35SOL     MW  140   0.319   0.125   1.681 -0.6568  0.2883 -0.4914
   36SOL     OW  141   1.935   1.994   0.599  0.6394 -0.1284 -0.4150
   36SOL    HW1  142   1.933   1.994   0.510 -0.3788 -0.4301  1.3593
   36SOL    HW2  143   1.981   1.907   0.603 -0.4845 -0.2611 -1.0343
   36SOL     MW  144   1.941   1.982   0.588  0.3567 -0.1857 -0.2626
   37SOL     OW  145   1.750   2.072   0.950 -0.8921  0.1628 -0.1870
   37SOL    HW1  146   1.695   2.004   0.897  2.2009 -0.6408 -2.5560
   37SOL    HW2  147   1.700   2.092   1.028 -2.0416 -1.4015 -5.4413
   37SOL     MW  148   1.736   2.065   0.954 -0.6356 -0.1496 -1.1928
   38SOL     OW  149   2.799   0.970   0.023  0.0585  0.4056 -0.0011
   38SOL    HW1  150   2.832   0.946   0.110 -1.8917  1.0384 -0.4685
   38SOL    HW2  151   2.887   0.979  -0.030  2.2306  2.4332  2.1462
   38SOL     MW  152   2.815   0.968   0.027  0.0878  0.7566  0.2205
   39SOL     OW  153   1.532   0.667   0.731  0.6101 -0.1744 -0.0846
   39SOL    HW1  154   1.512   0.578   0.768  1.3769  0.3318 -0.8632
   39SOL    HW2  155   1.446   0.702   0.707  2.6763 -1.5514  0.4735
   39SOL     MW  156   1.518   0.660   0.732  0.9839 -0.2893 -0.1137
   40SOL     OW  157   1.276   1.869   0.250 -0.0873 -0.0741 -0.4250
   40SOL    HW1  158   1.339   1.798   0.273 -1.3631 -0.7893  0.1358
   40SOL    HW2  159   1.259   1.920   0.333  2.3602  1.7322 -1.3929
   40SOL     MW  160   1.282   1.866   0.264  0.0673  0.0699 -0.4787
   41SOL     OW  161   0.517   0.487   1.576 -0.1317 -0.1844  0.7578
   41SOL    HW1  162   0.585   0.541   1.530  1.8059  3.0044 -1.7745
   41SOL    HW2  163   0.447   0.536   1.541 -1.3477  0.8575  4.3012
   41SOL     MW  164   0.517   0.501   1.565 -0.0365  0.3738  0.8912
   42SOL     OW  165   1.234   2.890   2.000 -0.1861 -0.0963  0.0986
   42SOL    HW1  166   1.172   2.912   2.067  3.6482  1.1339 -1.6856
   42SOL    HW2  167   1.300   2.847   2.060  2.2834  1.3474  0.8301
   42SOL     MW  168   1.235   2.887   2.017  0.6456  0.2565 -0.0403
   43SOL     OW  169   1.396   0.120   1.698 -0.3836  0.1644  0.1450
   43SOL    HW1  170   1.467   0.068   1.655  1.2413 -0.4561 -0.4568
   43SOL    HW2  171   1.328   0.051   1.693 -2.4080  2.2409 -1.2908
   43SOL     MW  172   1.397   0.104   1.691 -0.4363  0.3565 -0.1238
   44SOL     OW  173   1.222   0.843   0.959 -0.5247 -0.0695 -0.0674
   44SOL    HW1  174   1.163   0.918   0.968  1.0929  0.7646  1.5454
   44SOL    HW2  175   1.187   0.768   1.005  1.1402 -0.0596 -0.9109
   44SOL     MW  176   1.209   0.843   0.967 -0.0916  0.0419  0.0341
   45SOL     OW  177   1.293   0.803   0.705  0.3282  0.0562 -0.4597
   45SOL    HW1  178   1.246   0.801   0.788 -2.6982 -1.2168 -1.5226
   45SOL    HW2  179   1.221   0.762   0.645 -2.1075  0.2321 -0.5681
   45SOL     MW  180   1.277   0.797   0.708 -0.3925 -0.0886 -0.6142
   46SOL     OW  181   0.422   1.124   0.675 -0.1738  0.1874 -0.1596
   46SOL    HW1  182   0.452   1.157   0.591  0.5357  0.4382  1.2503
   46SOL    HW2  183   0.426   1.196   0.741  1.5031  0.2058  1.6362
   46SOL     MW  184   0.427   1.138   0.672  0.1411  0.2229  0.2634
   47SOL     OW  185   0.089   1.972   1.959 -0.0498 -0.5736  0.1084
   47SOL    HW1  186   0.077   1.895   1.906  1.0903 -0.1400  2.5415
   47SOL    HW2  187   0.142   1.951   2.035  3.5063  2.2136  1.3065
   47SOL     MW  188   0.094   1.959   1.962  0.5698 -0.1487  0.5875
   48SOL     OW  189   1.244   0.495   1.016  0.6358 -0.0533  0.5676
   48SOL    HW1  190   1.186   0.448   0.955 -0.3251 -1.3956  0.9147
   48SOL    HW2  191   1.176   0.541   1.066  1.2205  1.2997  0.9225
   48SOL     MW  192   1.227   0.495   1.015  0.5862 -0.0519  0.6602
   49SOL     OW  193   1.705   0.729   1.545  0.6935  0.1338  0.0348
   49SOL    HW1  194   1.739   0.676   1.617  1.7219  2.5862 -0.4977
   49SOL    HW2  195   1.739   0.691   1.465 -1.8373  1.0344 -0.4869
   49SOL     MW  196   1.714   0.717   1.544  0.4953  0.5762 -0.1043
   50SOL     OW  197   1.322   1.199   0.644 -0.1048 -0.3360  0.2784
   50SOL    HW1  198   1.243   1.202   0.712 -1.7042 -0.4191  0.0900
   50SOL    HW2  199   1.373   1.125   0.669  0.0559  1.2772 -2.0481
   50SOL     MW  200   1.318   1.190   0.656 -0.2946 -0.1342 -0.0534
   51SOL     OW  201   0.349   2.877   0.854 -0.1763  0.4530  0.0900
   51SOL    HW1  202   0.432   2.851   0.898  1.9578 -2.0847 -0.4822
   51SOL    HW2  203   0.298   2.914   0.929 -3.3575 -2.6682 -0.5467
   51SOL     MW  204   0.353   2.878   0.870 -0.3145 -0.2936 -0.0695
   52SOL     OW  205   0.786   1.827   0.486  0.2874  0.2227  0.1414
   52SOL    HW1  206   0.751   1.916   0.498 -1.0559 -0.1696 -0.5154
   52SOL    HW2  207   0.779   1.815   0.393 -2.0815 -1.3051 -0.0362
   52SOL     MW  208   0.780   1.837   0.475 -0.2024 -0.0306  0.0313
   53SOL     OW  209   0.486   2.166   0.582  0.5582 -0.2470  0.0822
   53SOL    HW1  210   0.411   2.124   0.534 -2.2484  0.4936  1.3608
   53SOL    HW2  211   0.474   2.259   0.560  0.7791  1.8104  0.5678
   53SOL     MW  212   0.474   2.173   0.573  0.2171  0.1222  0.3150
   54SOL     OW  213   2.029   0.985   0.730  0.2326  0.3526 -0.1228
   54SOL    HW1  214   2.089   0.982   0.656  1.7369 -1.0662  1.1936
   54SOL    HW2  215   1.983   0.902   0.733 -1.7185  1.7722 -3.2308
   54SOL     MW  216   2.031   0.974   0.721  0.1737  0.3527 -0.3592
   55SOL     OW  217   0.421   1.527   1.726  0.4318 -0.1544  0.5637
   55SOL    HW1  218   0.365   1.563   1.653 -0.8120 -0.1443 -0.6429
   55SOL    HW2  219   0.508   1.519   1.693 -3.1008 -1.6581 -0.6871
   55SOL     MW  220   0.425   1.531   1.712 -0.1984 -0.3514  0.2395
   56SOL     OW  221   0.649   0.914   0.154  0.3786  0.2023  0.5513
   56SOL    HW1  222   0.650   1.005   0.123  2.2894  1.5493 -1.6223
   56SOL    HW2  223   0.563   0.888   0.119  1.5791 -0.6996  1.1544
   56SOL     MW  224   0.638   0.923   0.145  0.7891  0.2610  0.3441
   57SOL     OW  225   1.112   1.303   1.162  0.1473  0.6507  0.5738
   57SOL    HW1  226   1.204   1.333   1.170  0.6698 -3.2377 -0.5290
   57SOL    HW2  227   1.092   1.262   1.250 -0.5011  1.4423  2.1280
   57SOL     MW  228   1.122   1.302   1.174  0.1307  0.2421  0.6334
   58SOL     OW  229   0.422   1.264   1.292  0.1656 -0.8684 -0.0855
   58SOL    HW1  230   0.406   1.359   1.272  1.3883 -0.6024  1.0882
   58SOL    HW2  231   0.413   1.249   1.382 -1.0364  0.9758 -1.6969
   58SOL     MW  232   0.419   1.275   1.301  0.1683 -0.5900 -0.1433
   59SOL     OW  233   1.431   1.690   0.372  0.8141 -0.1869  0.0541
   59SOL    HW1  234   1.501   1.704   0.435  4.1049  0.7507  2.3627
   59SOL    HW2  235   1.356   1.692   0.439 -0.8785 -0.9455  1.9452
   59SOL     MW  236   1.430   1.692   0.389  1.0250 -0.1633  0.6082
   60SOL     OW  237   3.091   0.171   1.645 -0.2068 -0.1974 -0.2118
   60SOL    HW1  238   3.004   0.207   1.658  0.4153 -0.8038  0.8979
   60SOL    HW2  239   3.124   0.151   1.740  0.6986 -0.3671 -2.4269
   60SOL     MW  240   3.084   0.173   1.659 -0.0053 -0.2998 -0.3576
   61SOL     OW  241   1.984   1.353   2.972  0.3183 -0.1524  0.4113
   61SOL    HW1  242   1.951   1.358   3.066  0.4558  0.2556 -1.0798
   61SOL    HW2  243   2.060   1.292   2.970 -2.9218  0.9635  0.3370
   61SOL     MW  244   1.990   1.346   2.984 -0.0911  0.0487  0.2047
   62SOL     OW  245   0.579   1.737   0.638 -0.0720  0.5577 -0.8203
   62SOL    HW1  246   0.649   1.763   0.579  0.8428  0.0792 -0.7256
   62SOL    HW2  247   0.545   1.648   0.616  2.0341 -1.9835 -2.0065
   62SOL     MW  248   0.584   1.728   0.628  0.3265  0.1593 -0.9643
   63SOL     OW  249   1.743   0.710   0.547 -0.3334 -0.7504 -0.7591
   63SOL    HW1  250   1.705   0.794   0.513 -0.2544 -0.8546 -1.2972
   63SOL    HW2  251   1.672   0.682   0.611 -3.2916  1.2779  1.0060
   63SOL     MW  252   1.729   0.717   0.551 -0.7133 -0.4965 -0.5972
   64SOL     OW  253   0.247   1.691   0.665 -0.5877 -0.2369 -0.6666
   64SOL    HW1  254   0.307   1.760   0.683 -0.0758  0.5339 -1.1922
   64SOL    HW2  255   0.162   1.713   0.706 -0.4669  0.8525  4.9815
   64SOL     MW  256   0.244   1.703   0.672 -0.5042  0.0086  0.0093
   65SOL     OW  257   1.482   2.297   0.398  0.0616  0.2132 -0.1637
   65SOL    HW1  258   1.561   2.351   0.404  0.9227  1.1078  1.3200
   65SOL    HW2  259   1.422   2.352   0.459  1.2191  1.3751  1.1053
   65SOL     MW  260   1.484   2.311   0.407  0.3279  0.4846  0.1995
   66SOL     OW  261   0.394   0.537   0.534 -0.0291 -0.4371  0.2185
   66SOL    HW1  262   0.446   0.543   0.449 -2.4731 -0.1108 -0.1558
   66SOL    HW2  263   0.376   0.628   0.546 -0.2441 -2.6139 -2.6938
   66SOL     MW  264   0.398   0.550   0.524 -0.3799 -0.6812 -0.2151
   67SOL     OW  265   1.361   0.060   1.982 -0.7194 -0.1617  0.5342
   67SOL    HW1  266   1.373   0.072   1.884 -2.4474  0.8069 -1.2286
   67SOL    HW2  267   1.336  -0.032   1.989  1.5620  1.1461 -0.7600
   67SOL     MW  268   1.359   0.050   1.970 -0.6464  0.1386  0.1309
   68SOL     OW  269   0.763   0.100   2.891  0.3656 -0.2244 -0.3587
   68SOL    HW1  270   0.727   0.163   2.830 -1.1823  1.5832  0.6802
   68SOL    HW2  271   0.842   0.143   2.931 -2.1368  1.7793 -2.0923
   68SOL     MW  272   0.769   0.114   2.888 -0.1688  0.2785 -0.4503
   69SOL     OW  273   1.097   0.271   1.979  0.1809 -0.4566  0.1954
   69SOL    HW1  274   1.193   0.292   2.002  0.8957  0.7081 -2.3375
   69SOL    HW2  275   1.064   0.192   2.026  2.0642 -4.1653 -1.4808
   69SOL     MW  276   1.105   0.263   1.989  0.5237 -0.7923 -0.3599
   70SOL     OW  277   0.545   1.724   1.131  0.3929 -0.4612  0.6073
   70SOL    HW1  278   0.611   1.794   1.111 -2.3159  0.6903 -2.1548
   70SOL    HW2  279   0.558   1.657   1.062  1.5615  3.1666 -1.5703
   70SOL     MW  280   0.556   1.724   1.120  0.1897  0.1694 -0.0445
   71SOL     OW  281   1.564   0.578   1.254  0.1432 -0.3489 -1.0516
   71SOL    HW1  282   1.495   0.643   1.297 -0.1578 -0.6200  2.1005
   71SOL    HW2  283   1.567   0.628   1.168  0.3395  3.0165  0.6135
   71SOL     MW  284   1.556   0.593   1.248  0.1294  0.0593 -0.4160
   72SOL     OW  285   0.775   1.821   1.027  0.0067  0.3661  0.2845
   72SOL    HW1  286   0.798   1.908   0.996 -0.6990 -1.3424  2.1920
   72SOL    HW2  287   0.829   1.773   0.969 -0.1608 -0.0922  0.0470
   72SOL     MW  288   0.785   1.826   1.016 -0.1085  0.0802  0.5048
   73SOL     OW  289   1.086   0.695   1.162 -0.3876 -0.2000 -0.5878
   73SOL    HW1  290   1.010   0.664   1.209 -2.7318 -1.5825 -2.2156
   73SOL    HW2  291   1.121   0.765   1.229  1.4200  1.8697 -1.2338
   73SOL     MW  292   1.080   0.700   1.177 -0.4584 -0.1093 -0.8878
   74SOL     OW  293   2.803   0.069   0.966  0.4717  0.3636 -0.0751
   74SOL    HW1  294   2.891   0.060   0.933  1.3584 -1.8125  1.6242
   74SOL    HW2  295   2.766   0.153   0.943  0.3455  1.3211 -1.0957
   74SOL     MW  296   2.810   0.079   0.959  0.5720  0.2028  0.0145
   75SOL     OW  297   1.501   1.317   0.177 -0.3230  0.0513 -0.1340
   75SOL    HW1  298   1.544   1.264   0.109 -1.4449 -2.0138 -0.4039
   75SOL    HW2  299   1.540   1.281   0.261  0.4458  2.8434  1.1173
   75SOL     MW  300   1.512   1.305   0.179 -0.3696  0.1472 -0.0045
   76SOL     OW  301   3.066   0.704   0.454  0.4444 -0.0199 -0.3048
   76SOL    HW1  302   3.062   0.754   0.544 -0.2756 -1.1985 -0.2092
   76SOL    HW2  303   3.137   0.644   0.451  1.4432  1.3668  1.6837
   76SOL     MW  304   3.075   0.703   0.465  0.4812  0.0075 -0.0298
   77SOL     OW  305   0.874   0.628   0.450  0.5872 -0.0970  0.5809
   77SOL    HW1  306   0.861   0.644   0.353  2.2841 -1.8733 -1.6101
   77SOL    HW2  307   0.847   0.533   0.454  1.3838  0.6489 -1.2440
   77SOL     MW  308   0.869   0.618   0.437  0.9162 -0.2329  0.0511
   78SOL     OW  309   0.825   0.877   1.080  0.1649  0.0784  0.2490
   78SOL    HW1  310   0.854   0.957   1.028 -1.3531  0.4125 -0.8269
   78SOL    HW2  311   0.729   0.890   1.097  0.6975 -0.1130 -3.0790
   78SOL     MW  312   0.816   0.889   1.075  0.0349  0.0972 -0.3320
   79SOL     OW  313   1.868   1.510   0.533  0.4033  0.0615  0.0385
   79SOL    HW1  314   1.775   1.481   0.551 -0.5227  0.1302 -3.8844
   79SOL    HW2  315   1.917   1.486   0.608  0.1205 -1.9906 -1.5847
   79SOL     MW  316   1.862   1.503   0.545  0.2438 -0.2002 -0.6933
   80SOL     OW  317   0.212   0.994   0.285  0.4088  0.4950 -0.0274
   80SOL    HW1  318   0.183   0.938   0.210 -0.8339 -1.5097 -0.9045
   80SOL    HW2  319   0.249   0.933   0.348  0.2311  1.3584  0.1016
   80SOL     MW  320   0.213   0.979   0.284  0.2214  0.3444 -0.1261
   81SOL     OW  321   1.837   1.849   0.379 -0.3618 -0.9123  0.0969
   81SOL    HW1  322   1.816   1.767   0.338  0.6848 -2.5801 -2.3400
   81SOL    HW2  323   1.798   1.913   0.322  1.5344  1.2365 -2.0346
   81SOL     MW  324   1.829   1.846   0.366  0.0264 -0.8489 -0.5059
   82SOL     OW  325   0.971   1.020   0.567  0.0230 -0.3340  0.3033
   82SOL    HW1  326   0.930   1.080   0.506 -1.1858 -0.3557 -0.5228
   82SOL    HW2  327   0.906   0.951   0.571  3.7725 -2.6362  0.5840
   82SOL     MW  328   0.957   1.019   0.560  0.3582 -0.6407  0.2313
   83SOL     OW  329   3.089   0.738   1.570 -0.4462 -0.0449 -0.1275
   83SOL    HW1  330   3.078   0.789   1.481 -0.2383  1.4764 -0.8651
   83SOL    HW2  331   3.150   0.671   1.537  0.8596 -2.4773 -1.0329
   83SOL     MW  332   3.095   0.736   1.554 -0.2465 -0.1651 -0.3442
   84SOL     OW  333   3.094   0.177   0.906 -0.3845 -0.2913 -0.2190
   84SOL    HW1  334   3.096   0.263   0.957 -0.8355 -0.9119  1.5683
   84SOL    HW2  335   3.129   0.116   0.968 -1.8749  3.0092 -1.6460
   84SOL     MW  336   3.099   0.180   0.921 -0.6407  0.0623 -0.1714
   85SOL     OW  337   0.354   0.492   0.810  0.0562 -0.5390  0.1458
   85SOL    HW1  338   0.378   0.491   0.714  1.1299  0.1972  0.9125
   85SOL    HW2  339   0.312   0.407   0.832  1.5587  1.0052  0.8743
   85SOL     MW  340   0.352   0.481   0.800  0.3961 -0.2382  0.3431
   86SOL     OW  341   1.297   0.281   1.198 -0.2173 -0.3499  0.5423
   86SOL    HW1  342   1.292   0.364   1.156 -0.3053 -2.4062 -0.4160
   86SOL    HW2  343   1.388   0.278   1.233  0.9713  2.5426 -2.0483
   86SOL     MW  344   1.309   0.292   1.197 -0.0721 -0.2396  0.0740
   87SOL     OW  345   1.031   1.577   1.171  0.0706  0.4434  0.0379
   87SOL    HW1  346   1.099   1.631   1.126 -0.5897  2.7283 -0.3016
   87SOL    HW2  347   1.057   1.484   1.174 -0.6000 -2.3815 -0.0593
   87SOL     MW  348   1.044   1.572   1.165 -0.1050  0.3722 -0.0197
   88SOL     OW  349   1.148   1.108   0.968 -0.0794  0.2921  0.0309
   88SOL    HW1  350   1.244   1.116   0.966 -0.8289  1.8180 -1.2093
   88SOL    HW2  351   1.121   1.161   1.043  0.4689  1.7745  2.0098
   88SOL     MW  352   1.157   1.116   0.977 -0.1060  0.6890  0.1283
   89SOL     OW  353   1.792   0.698   0.237  0.2880  0.5667  0.0353
   89SOL    HW1  354   1.747   0.639   0.292 -0.3933 -0.4143  0.2764
   89SOL    HW2  355   1.877   0.711   0.280  2.1598 -0.9979 -1.3884
   89SOL     MW  356   1.798   0.692   0.250  0.4451  0.2309 -0.1207
   90SOL     OW  357   0.776   1.208   2.827 -0.4573 -0.3778 -1.0354
   90SOL    HW1  358   0.808   1.117   2.843  0.0599 -0.0371  2.2658
   90SOL    HW2  359   0.799   1.266   2.898 -1.3455 -1.2260 -2.9013
   90SOL     MW  360   0.783   1.204   2.838 -0.5063 -0.4447 -0.8460
   91SOL     OW  361   2.252   0.611   0.517  0.0616 -0.7173  0.2528
   91SOL    HW1  362   2.304   0.672   0.457 -1.4997 -0.0611 -1.1520
   91SOL    HW2  363   2.274   0.521   0.479  1.8562  0.5759  1.4980
   91SOL     MW  364   2.262   0.607   0.504  0.0924 -0.4601  0.2317
   92SOL     OW  365   1.639   0.948   0.487 -0.0706  0.2160 -0.4249
   92SOL    HW1  366   1.588   0.974   0.562  2.4172 -1.7977  0.8555
   92SOL    HW2  367   1.602   0.983   0.402  2.4112  0.3201 -0.1385
   92SOL     MW  368   1.627   0.956   0.485  0.5851 -0.0359 -0.2182
   93SOL     OW  369   1.084   0.269   0.405 -0.1600 -0.2957  0.4948
   93SOL    HW1  370   0.996   0.302   0.387  1.7349  1.3574  0.0528
   93SOL    HW2  371   1.128   0.277   0.319  1.4281 -1.8338  0.7928
   93SOL     MW  372   1.078   0.275   0.391  0.2996 -0.2805  0.4758
   94SOL     OW  373   1.899   1.382   1.583  0.6010  0.9336 -0.6636
   94SOL    HW1  374   1.864   1.382   1.496  1.0133 -3.4707 -1.1989
   94SOL    HW2  375   1.888   1.286   1.607  1.4057 -0.7559 -0.4851
   94SOL     MW  376   1.893   1.369   1.574  0.7616  0.1295 -0.7107
   95SOL     OW  377   0.584   1.544   0.921  0.1501 -0.4101  0.4811
   95SOL    HW1  378   0.657   1.480   0.945  0.1998 -0.2766 -3.1332
   95SOL    HW2  379   0.516   1.484   0.897 -1.5626  0.1940 -3.5913
   95SOL     MW  380   0.585   1.527   0.921 -0.0693 -0.3128 -0.5331
   96SOL     OW  381   1.345   1.836   1.695  0.6802  0.1044  0.5703
   96SOL    HW1  382   1.270   1.863   1.751 -1.3715  0.3480  0.5174
   96SOL    HW2  383   1.339   1.743   1.674 -1.7446  0.1695  0.0948
   96SOL     MW  384   1.335   1.827   1.699  0.0896  0.1451  0.5006
   97SOL     OW  385   1.101   1.583   0.842 -0.3630 -0.1753 -0.2667
   97SOL    HW1  386   1.140   1.651   0.902 -1.3048 -0.6135  2.3040
   97SOL    HW2  387   1.005   1.606   0.838 -0.7689  2.1222 -0.5184
   97SOL     MW  388   1.093   1.595   0.850 -0.5408  0.0700  0.0393
   98SOL     OW  389   1.348   1.395   1.229 -0.0559 -0.0745  0.0264
   98SOL    HW1  390   1.405   1.432   1.292  1.6385 -0.3775  0.3239
   98SOL    HW2  391   1.385   1.418   1.140  1.3067 -0.0330  0.1744
   98SOL     MW  392   1.361   1.403   1.225  0.3475 -0.1090  0.0852
   99SOL     OW  393   1.538   0.318   1.308  0.7021  0.4549 -0.5128
   99SOL    HW1  394   1.553   0.409   1.276  2.0927 -0.3277 -1.0013
   99SOL    HW2  395   1.480   0.335   1.389  0.5977  1.5540  2.7240
   99SOL     MW  396   1.533   0.332   1.314  0.8718  0.4967 -0.1502
  100SOL     OW  397   1.074   1.165   1.392  0.2635 -0.4103 -0.1205
  100SOL    HW1  398   1.072   1.204   1.478  4.3267 -0.5806 -0.8118
  100SOL    HW2  399   1.093   1.075   1.404 -0.2530  1.3706 -0.8091
  100SOL     MW  400   1.076   1.159   1.405  0.7314 -0.1978 -0.3026
  101SOL     OW  401   0.555   1.219   0.432 -0.0959 -0.0765  0.5626
  101SOL    HW1  402   0.519   1.220   0.339 -1.3594 -1.5156 -2.8022
  101SOL    HW2  403   0.648   1.202   0.409  2.3473  1.2729  0.2533
  101SOL     MW  404   0.562   1.217   0.417  0.0598 -0.0883  0.0778
  102SOL     OW  405   2.916   0.603   1.092 -0.9048  0.0341 -0.1421
  102SOL    HW1  406   2.955   0.689   1.093 -1.6611  1.1559 -0.9114
  102SOL    HW2  407   2.896   0.594   1.179  1.5078  0.8340 -2.9569
  102SOL     MW  408   2.918   0.613   1.103 -0.6863  0.2876 -0.6150
  103SOL     OW  409   1.850   0.279   1.762  0.3458  0.2666 -0.0079
  103SOL    HW1  410   1.841   0.188   1.735 -1.7140 -0.3822  0.2190
  103SOL    HW2  411   1.849   0.277   1.861 -1.9659  0.8871 -1.3728
  103SOL     MW  412   1.849   0.266   1.772 -0.2310  0.2628 -0.1580
  104SOL     OW  413   0.053   1.517   1.686  0.0344 -0.0214 -0.3182
  104SOL    HW1  414   0.108   1.443   1.730  0.6764  4.0736  0.2699
  104SOL    HW2  415  -0.036   1.477   1.669  0.9332 -2.3540 -0.7443
  104SOL     MW  416   0.049   1.502   1.689  0.2377  0.2111 -0.2968
  105SOL     OW  417   0.076   1.207   0.429  0.6491 -0.3195 -0.0066
  105SOL    HW1  418   0.132   1.136   0.397  1.3671 -1.0192  3.1158
  105SOL    HW2  419   0.121   1.290   0.424 -1.8584 -1.5700  0.6612
  105SOL     MW  420   0.089   1.208   0.424  0.4130 -0.5768  0.4935
  106SOL     OW  421   0.803   0.254   0.827  0.3989 -0.5364 -0.0131
  106SOL    HW1  422   0.738   0.324   0.851  0.4407  2.1494 -0.5343
  106SOL    HW2  423   0.846   0.225   0.907 -1.1518  2.8711  0.4270
  106SOL     MW  424   0.800   0.259   0.841  0.1998  0.2676 -0.0238
  107SOL     OW  425   0.780   2.218   2.883  0.6608 -0.3583 -0.0898
  107SOL    HW1  426   0.687   2.214   2.894 -0.2311  1.4964 -1.5314
  107SOL    HW2  427   0.810   2.187   2.968 -0.8452  0.7453  0.0824
  107SOL     MW  428   0.772   2.213   2.895  0.3444  0.0320 -0.2573
  108SOL     OW  429   1.314   1.573   1.648 -0.5417 -0.8422 -0.1563
  108SOL    HW1  430   1.250   1.560   1.570 -1.6050 -1.1791 -2.5409
  108SOL    HW2  431   1.381   1.513   1.655  1.3128  0.8607  1.9108
  108SOL     MW  432   1.314   1.564   1.639 -0.4373 -0.6619 -0.1982
  109SOL     OW  433   2.033   0.777   0.336  0.0583  0.1149  0.1404
  109SOL    HW1  434   2.020   0.870   0.334 -1.8348 -1.4742 -2.3824
  109SOL    HW2  435   2.075   0.753   0.419 -0.3625  1.7213 -0.1795
  109SOL     MW  436   2.037   0.786   0.346 -0.2470  0.1172 -0.2346
  110SOL     OW  437   0.409   1.912   0.773 -0.3373 -0.3798  0.6662
  110SOL    HW1  438   0.484   1.860   0.741  2.9685  0.3181  1.6433
  110SOL    HW2  439   0.433   2.001   0.771 -0.9195 -0.7483 -1.2788
  110SOL     MW  440   0.422   1.917   0.769  0.0221 -0.3363  0.5385
  111SOL     OW  441   0.834   0.890   1.364 -0.1540 -0.4334  0.1661
  111SOL    HW1  442   0.845   0.888   1.270  1.3350 -0.9960 -0.0393
  111SOL    HW2  443   0.796   0.811   1.401 -2.3751  0.7262  1.2295
  111SOL     MW  444   0.830   0.879   1.356 -0.2506 -0.3546  0.2793
  112SOL     OW  445   1.370   1.146   1.617 -0.9770  0.2720  0.6160
  112SOL    HW1  446   1.285   1.193   1.615 -0.8951 -0.4977  2.6630
  112SOL    HW2  447   1.358   1.052   1.628  0.5127  0.8541 -1.0569
  112SOL     MW  448   1.357   1.140   1.618 -0.7697  0.2472  0.6653
  113SOL     OW  449   1.221   2.986   1.712 -0.1405 -0.1504  0.0097
  113SOL    HW1  450   1.204   2.941   1.794  3.7738 -0.5099 -0.1787
  113SOL    HW2  451   1.199   2.929   1.640  1.2837 -0.5455  1.2105
  113SOL     MW  452   1.216   2.973   1.713  0.5639 -0.2500  0.1433
  114SOL     OW  453   0.373   2.893   1.779  0.0120  0.3747  0.3521
  114SOL    HW1  454   0.456   2.918   1.748  1.0366 -1.8321  0.0661
  114SOL    HW2  455   0.354   2.943   1.855 -1.3474  0.3314 -1.2710
  114SOL     MW  456   0.382   2.903   1.785 -0.0322  0.0778  0.1002
  115SOL     OW  457   0.554   0.856   1.179  0.1414  0.8414  0.0762
  115SOL    HW1  458   0.530   0.769   1.142  2.7162  0.9417  1.6944
  115SOL    HW2  459   0.496   0.872   1.248  2.0039  1.8690 -2.1637
  115SOL     MW  460   0.543   0.846   1.183  0.7269  0.9902 -0.0058
  116SOL     OW  461   0.683   1.116   0.992  0.1004 -0.3328  0.5574
  116SOL    HW1  462   0.707   1.180   0.919 -3.1484  0.2527  0.0936
  116SOL    HW2  463   0.685   1.159   1.081 -0.2171  2.4965 -1.0154
  116SOL     MW  464   0.687   1.130   0.994 -0.3701  0.1178  0.2887
  117SOL     OW  465   1.108   1.300   0.799 -0.0060 -0.1297 -0.4250
  117SOL    HW1  466   1.120   1.237   0.872  2.8891 -0.5229  1.5380
  117SOL    HW2  467   1.085   1.379   0.854  0.8190  1.6106  0.4875
  117SOL     MW  468   1.107   1.302   0.816  0.4848  0.0480 -0.0456
  118SOL     OW  469   3.061   2.944   1.798 -0.4200  0.6587  0.2037
  118SOL    HW1  470   3.093   3.024   1.843  0.2987  1.2916 -1.4713
  118SOL    HW2  471   2.969   2.956   1.763  1.3262 -2.1322 -0.5065
  118SOL     MW  472   3.053   2.956   1.800 -0.0948  0.3740 -0.1110
  119SOL     OW  473   0.356   1.541   1.277  0.0944  0.1273 -0.0407
  119SOL    HW1  474   0.390   1.627   1.261  0.0650 -1.8591 -1.5589
  119SOL    HW2  475   0.272   1.539   1.227 -1.1746 -0.8708  0.5247
  119SOL     MW  476   0.350   1.552   1.268 -0.0769 -0.2665 -0.1664
  120SOL     OW  477   0.291   0.889   0.985  0.4862  0.9282 -0.1567
  120SOL    HW1  478   0.290   0.981   1.012 -0.0357  1.3780  0.5778
  120SOL    HW2  479   0.370   0.889   0.930  0.4766  1.5513  0.7120
  120SOL     MW  480   0.302   0.901   0.982  0.4161  1.0698  0.0548
  121SOL     OW  481   1.755   1.120   1.591 -0.4719 -0.3142 -0.0919
  121SOL    HW1  482   1.680   1.128   1.528  0.2507  0.7538 -0.9265
  121SOL    HW2  483   1.810   1.054   1.556 -3.2896 -1.3954 -3.0141
  121SOL     MW  484   1.752   1.112   1.578 -0.7483 -0.3159 -0.5876
  122SOL     OW  485   0.158   0.654   0.883  0.5286  0.4083  0.0323
  122SOL    HW1  486   0.237   0.609   0.844  1.2809  1.7835 -1.4780
  122SOL    HW2  487   0.203   0.714   0.947 -0.6026 -2.4169 -0.7257
  122SOL     MW  488   0.174   0.656   0.886  0.4786  0.2170 -0.2670
  123SOL     OW  489   1.877   1.109   0.533 -0.4126  0.1118 -0.1228
  123SOL    HW1  490   1.798   1.052   0.526  1.5135 -0.7987  2.1103
  123SOL    HW2  491   1.914   1.084   0.616  2.1894  0.6788 -0.7180
  123SOL     MW  492   1.871   1.098   0.543  0.1848  0.0665  0.0933
  124SOL     OW  493   0.596   0.462   0.883  0.6739 -0.2378 -0.9744
  124SOL    HW1  494   0.501   0.464   0.847 -0.0906 -1.7111 -1.2463
  124SOL    HW2  495   0.639   0.549   0.870 -3.3505  0.6991 -2.1579
  124SOL     MW  496   0.590   0.474   0.877  0.0421 -0.3086 -1.1664
  125SOL     OW  497   0.685   1.697   1.734  0.0281  0.3654 -0.2980
  125SOL    HW1  498   0.673   1.692   1.642  1.2643 -2.2253  1.5329
  125SOL    HW2  499   0.609   1.746   1.760 -1.7599  1.3511  0.5186
  125SOL     MW  500   0.673   1.703   1.726 -0.0447  0.1537  0.0513
  126SOL     OW  501   2.115   1.539   1.909 -0.1734  0.2563 -0.3575
  126SOL    HW1  502   2.177   1.605   1.882  2.3580 -0.7096 -0.6262
  126SOL    HW2  503   2.170   1.462   1.926  1.5383  1.0584  0.0610
  126SOL     MW  504   2.131   1.538   1.907  0.3864  0.2347 -0.3377
  127SOL     OW  505   0.490   0.786   1.828  0.0483  0.2590  0.1672
  127SOL    HW1  506   0.580   0.783   1.843  1.1237 -1.1020  1.6650
  127SOL    HW2  507   0.459   0.831   1.909 -2.3830  1.0812  2.7277
  127SOL     MW  508   0.498   0.791   1.841 -0.1306  0.1879  0.7027
  128SOL     OW  509   1.748   0.726   2.877  0.4209  0.2435 -0.1404
  128SOL    HW1  510   1.787   0.699   2.794 -1.1425 -1.3443  1.6156
  128SOL    HW2  511   1.766   0.817   2.888 -0.4000  1.9191 -1.2367
  128SOL     MW  512   1.755   0.734   2.868  0.1063  0.2551 -0.0534
  129SOL     OW  513   1.570   0.896   0.170  0.3162  0.9116 -0.2684
  129SOL    HW1  514   1.504   0.837   0.129  0.9396 -1.6538 -0.5117
  129SOL    HW2  515   1.643   0.834   0.181  1.1564  0.0546  2.4961
  129SOL     MW  516   1.571   0.880   0.166  0.5093  0.4600  0.0642
  130SOL     OW  517   0.842   1.442   0.333  0.7220 -0.1566 -0.2584
  130SOL    HW1  518   0.838   1.414   0.422  2.5048 -0.7472 -2.6898
  130SOL    HW2  519   0.932   1.463   0.315 -1.0577 -2.9519  1.7813
  130SOL     MW  520   0.853   1.441   0.342  0.7224 -0.6034 -0.3101
  131SOL     OW  521   0.064   0.783   0.108  0.0571  0.7299 -0.6372
  131SOL    HW1  522   0.040   0.807   0.016 -0.4996 -1.0304  0.8160
  131SOL    HW2  523   0.130   0.713   0.098 -0.1460 -2.5455 -0.1339
  131SOL     MW  524   0.070   0.777   0.094 -0.0431  0.0655 -0.3790
  132SOL     OW  525   2.716   0.087   1.255  0.3708 -0.1505 -0.0733
  132SOL    HW1  526   2.769   0.076   1.177  1.1306  0.6158 -0.5704
  132SOL    HW2  527   2.640   0.026   1.233 -0.5835  1.4539 -0.2485
  132SOL     MW  528   2.713   0.077   1.241  0.3451  0.1623 -0.1620
  133SOL     OW  529   1.054   0.103   1.740  0.5164 -0.0298  0.5224
  133SOL    HW1  530   1.103   0.022   1.749 -0.3261  1.1135  1.1097
  133SOL    HW2  531   1.059   0.147   1.830 -1.8713 -0.4391  0.9246
  133SOL     MW  532   1.061   0.098   1.753  0.0902  0.0670  0.6529
  134SOL     OW  533   1.407   2.498   1.445 -0.0579  0.5564 -0.2961
  134SOL    HW1  534   1.350   2.572   1.416  0.7897  1.8934  1.8714
  134SOL    HW2  535   1.453   2.530   1.523  3.1855 -0.8269  2.3489
  134SOL     MW  536   1.406   2.512   1.452  0.4819  0.5503  0.3389
  135SOL     OW  537   3.019   1.008   2.957  0.2332  0.3254 -0.2865
  135SOL    HW1  538   3.101   1.047   2.982 -1.4913  0.3904 -1.7344
  135SOL    HW2  539   2.952   1.078   2.925 -0.9109  0.6000 -2.2210
  135SOL     MW  540   3.021   1.022   2.956 -0.1453  0.3702 -0.7328
  136SOL     OW  541   0.158   1.995   0.867 -0.0337  0.4646 -0.2122
  136SOL    HW1  542   0.069   1.948   0.866  0.1145 -3.6739 -0.6666
  136SOL    HW2  543   0.218   1.924   0.833 -0.2501 -0.2685  2.2028
  136SOL     MW  544   0.154   1.979   0.863 -0.0427 -0.1782  0.0465
  137SOL     OW  545   0.743   2.089   0.589 -0.2025  0.3334  0.0243
  137SOL    HW1  546   0.765   2.054   0.679 -0.4244 -2.1898  0.2956
  137SOL    HW2  547   0.651   2.117   0.595  0.0842 -0.8751 -1.8936
  137SOL     MW  548   0.734   2.088   0.602 -0.1940 -0.1590 -0.1929
  138SOL     OW  549   0.489   0.597   1.097  0.4271 -0.1867 -1.0090
  138SOL    HW1  550   0.402   0.569   1.105  2.6111  1.4312  0.6218
  138SOL    HW2  551   0.526   0.540   1.033 -0.5145  1.2494  1.4386
  138SOL     MW  552   0.482   0.586   1.090  0.5910  0.2162 -0.4709
  139SOL     OW  553   2.857   0.509   1.361 -0.1530 -0.6699 -0.2676
  139SOL    HW1  554   2.948   0.466   1.364  2.5411  0.7058  0.6185
  139SOL    HW2  555   2.842   0.548   1.449  0.7524  0.2182 -0.3508
  139SOL     MW  556   2.867   0.509   1.373  0.3219 -0.3712 -0.1616
  140SOL     OW  557   0.889   0.482   1.983  0.3563  0.8755 -0.6516
  140SOL    HW1  558   0.946   0.405   1.968 -1.8884 -0.3509  1.1275
  140SOL    HW2  559   0.879   0.476   2.080  1.9334  1.0039  1.6647
  140SOL     MW  560   0.895   0.471   1.994  0.2682  0.7306 -0.1113
  141SOL     OW  561   1.110   0.638   1.689  0.4539  0.3905  0.6671
  141SOL    HW1  562   1.102   0.562   1.628  0.2334 -0.6865  0.8490
  141SOL    HW2  563   1.142   0.611   1.773 -2.6939  0.4328 -1.2941
  141SOL     MW  564   1.113   0.624   1.692  0.0095  0.2540  0.4323
  142SOL     OW  565   0.863   1.198   0.748 -0.3937 -0.8351  0.2472
  142SOL    HW1  566   0.890   1.116   0.695 -2.1794 -1.0283  0.3265
  142SOL    HW2  567   0.941   1.231   0.795  1.3901  0.3887  2.8686
  142SOL     MW  568   0.877   1.191   0.747 -0.3940 -0.6991  0.6035
  143SOL     OW  569   1.837   0.723   1.056 -0.0627  0.1438  0.5835
  143SOL    HW1  570   1.888   0.730   0.972  2.2135 -2.6550 -1.9680
  143SOL    HW2  571   1.748   0.714   1.027 -0.2147  0.6678 -0.4356
  143SOL     MW  572   1.832   0.723   1.041  0.2176 -0.1563  0.1124
  144SOL     OW  573   0.238   1.328   1.748  0.5273 -0.3224  0.6023
  144SOL    HW1  574   0.310   1.397   1.762 -2.2789 -0.6747  1.4076
  144SOL    HW2  575   0.275   1.266   1.809  0.2597 -1.1518  1.4992
  144SOL     MW  576   0.252   1.329   1.758  0.1218 -0.4783  0.8269
  145SOL     OW  577   0.237   0.492   1.185 -0.2234 -0.0016  0.0063
  145SOL    HW1  578   0.269   0.413   1.234 -0.3047  1.0712 -2.5652
  145SOL    HW2  579   0.168   0.469   1.119 -2.6233 -0.9179 -1.1178
  145SOL     MW  580   0.232   0.478   1.183 -0.5508  0.0191 -0.4813
  146SOL     OW  581   0.793   1.968   1.529  0.3463 -0.4630  0.5820
  146SOL    HW1  582   0.827   2.001   1.443  1.3052 -0.3022 -2.8897
  146SOL    HW2  583   0.750   1.881   1.501 -2.1167 -0.9602 -0.4871
  146SOL     MW  584   0.792   1.961   1.514  0.1479 -0.5074 -0.0171
  147SOL     OW  585   0.445   0.521   2.989 -0.5366  0.1976  0.7803
  147SOL    HW1  586   0.377   0.504   3.053  0.1356  3.4793  0.9101
  147SOL    HW2  587   0.408   0.587   2.928 -3.1191  0.0390  0.9393
  147SOL     MW  588   0.431   0.528   2.989 -0.7887  0.6096  0.8184
  148SOL     OW  589   0.030   0.904   1.333 -0.7538 -0.5441 -0.9769
  148SOL    HW1  590   0.126   0.901   1.323 -0.3033 -0.1085 -0.9929
  148SOL    HW2  591   0.010   0.995   1.334 -1.4822  0.1236  0.6151
  148SOL     MW  592   0.040   0.915   1.332 -0.7905 -0.3986 -0.7689
  149SOL     OW  593   1.551   1.191   1.441 -0.4615  0.3300  0.4628
  149SOL    HW1  594   1.488   1.176   1.524 -1.8521  1.6103  1.7488
  149SOL    HW2  595   1.551   1.286   1.430  1.3742 -0.2679 -1.1583
  149SOL     MW  596   1.543   1.201   1.450 -0.4028  0.4200  0.4186
  150SOL     OW  597   1.722   1.456   0.863  0.0148 -0.2068  0.6826
  150SOL    HW1  598   1.783   1.391   0.897  0.2562 -3.7369  0.2735
  150SOL    HW2  599   1.760   1.543   0.867 -1.2630  1.4482 -0.8597
  150SOL     MW  600   1.735   1.459   0.868 -0.1220 -0.4542  0.4251
  151SOL     OW  601   1.609   1.886   0.832 -0.4913 -0.2728  0.2253
  151SOL    HW1  602   1.592   1.872   0.736  2.2866 -0.5116  0.0416
  151SOL    HW2  603   1.553   1.830   0.889 -0.2773 -0.0010  1.2315
  151SOL     MW  604   1.599   1.877   0.827 -0.0966 -0.2685  0.3338
  152SOL     OW  605   0.652   1.409   1.587  0.1744  0.1958  0.3388
  152SOL    HW1  606   0.708   1.480   1.543 -0.1332 -1.4576  3.4946
  152SOL    HW2  607   0.623   1.349   1.519 -1.0771 -2.1959  0.6721
  152SOL     MW  608   0.655   1.411   1.572 -0.0313 -0.3379  0.7992
  153SOL     OW  609   2.600   1.231   0.724  0.5087 -0.0129  0.0069
  153SOL    HW1  610   2.678   1.207   0.673  1.7186 -2.1758  0.5573
  153SOL    HW2  611   2.551   1.150   0.707 -2.1098 -2.8312  0.2034
  153SOL     MW  612   2.604   1.217   0.715  0.3229 -0.6702  0.1055
  154SOL     OW  613   0.128   1.778   1.757  0.1854  0.3847 -0.2386
  154SOL    HW1  614   0.097   1.679   1.734 -0.9396 -0.7935 -0.0034
  154SOL    HW2  615   0.218   1.760   1.797 -1.0858 -0.8114  1.1058
  154SOL     MW  616   0.136   1.763   1.759 -0.1307  0.0715 -0.0302
  155SOL     OW  617   1.197   0.687   0.295 -0.9739 -0.4361  0.4365
  155SOL    HW1  618   1.172   0.660   0.381 -0.5322  1.5492 -4.5556
  155SOL    HW2  619   1.159   0.777   0.289 -2.2766  2.1123 -0.9373
  155SOL     MW  620   1.189   0.695   0.305 -1.0875  0.1621 -0.4035
  156SOL     OW  621   1.559   0.010   1.094 -0.2883 -0.0948  0.4504
  156SOL    HW1  622   1.624   0.040   1.159  1.3557  2.1578  2.9580
  156SOL    HW2  623   1.580  -0.086   1.081  0.7867  1.2134  0.5746
  156SOL     MW  624   1.571   0.001   1.101  0.0705  0.3750  0.7976
  157SOL     OW  625   1.283   1.138   0.182 -0.9994  0.2598 -0.2714
  157SOL    HW1  626   1.316   1.066   0.236 -0.0634 -3.4764 -0.5188
  157SOL    HW2  627   1.346   1.209   0.177 -0.7787  1.7384 -0.9154
  157SOL     MW  628   1.296   1.138   0.189 -0.8468 -0.0380 -0.3890
  158SOL     OW  629   0.383   1.650   2.284 -0.3099 -0.2704  0.5669
  158SOL    HW1  630   0.435   1.720   2.238 -1.7199  3.5002  1.0053
  158SOL    HW2  631   0.299   1.658   2.237 -1.3710  3.7443  3.2085
  158SOL     MW  632   0.379   1.661   2.272 -0.6359  0.7568  0.9733
  159SOL     OW  633   1.205   1.711   0.516  0.0651  0.4311 -0.4661
  159SOL    HW1  634   1.163   1.651   0.455 -1.4884 -0.0960  1.8444
  159SOL    HW2  635   1.135   1.750   0.568  1.9306  0.4753 -1.9281
  159SOL     MW  636   1.190   1.708   0.515  0.1063  0.3674 -0.3542
  160SOL     OW  637   0.495   1.142   1.541 -0.2400  0.3170 -0.0373
  160SOL    HW1  638   0.468   1.054   1.561 -3.0267 -2.0437 -2.6242
  160SOL    HW2  639   0.588   1.125   1.514  2.5250  3.9827 -0.1532
  160SOL     MW  640   0.503   1.128   1.540 -0.2429  0.4892 -0.3939
  161SOL     OW  641   0.479   2.291   2.683  0.1373  0.5023 -0.3522
  161SOL    HW1  642   0.392   2.303   2.657  0.1352 -2.2387  0.5593
  161SOL    HW2  643   0.509   2.212   2.636  1.4126  0.4161  1.5894
  161SOL     MW  644   0.471   2.282   2.674  0.3053  0.1293  0.0242
  162SOL     OW  645   1.079   1.801   1.807  0.3863 -0.3715 -0.0982
  162SOL    HW1  646   1.102   1.887   1.850  1.5939  0.6318 -0.3771
  162SOL    HW2  647   1.019   1.749   1.868 -4.6350 -0.3562  0.6076
  162SOL     MW  648   1.074   1.805   1.821 -0.1169 -0.2371 -0.0419
  163SOL     OW  649   2.132   3.054   0.807  0.0833 -0.5013  0.1397
  163SOL    HW1  650   2.142   3.122   0.740  1.8027  0.2263 -0.1602
  163SOL    HW2  651   2.061   3.001   0.778 -0.7718 -2.0766 -0.0456
  163SOL     MW  652   2.124   3.056   0.794  0.1974 -0.6132  0.0757
  164SOL     OW  653   0.250   0.247   0.831 -0.7566  0.5177 -0.6667
  164SOL    HW1  654   0.149   0.233   0.839 -0.4784 -1.1650 -1.9345
  164SOL    HW2  655   0.269   0.178   0.768  0.2246  1.1962 -0.4477
  164SOL     MW  656   0.239   0.236   0.824 -0.5904  0.3852 -0.8051
  165SOL     OW  657   1.164   1.288   0.381 -0.1612 -0.2419 -0.1631
  165SOL    HW1  658   1.226   1.269   0.453 -0.4528  0.3178 -3.7503
  165SOL    HW2  659   1.191   1.230   0.306 -1.7541 -3.6785 -2.3030
  165SOL     MW  660   1.176   1.278   0.380 -0.4098 -0.6215 -0.9188
  166SOL     OW  661   0.375   1.140   1.039 -0.6143 -0.5696  0.2789
  166SOL    HW1  662   0.386   1.175   1.128 -3.4378  2.0156  1.7092
  166SOL    HW2  663   0.443   1.074   1.036 -2.2023  0.7455 -0.7014
  166SOL     MW  664   0.386   1.136   1.051 -1.1964 -0.0550  0.3383
  167SOL     OW  665   0.825   1.183   0.372 -0.5819  0.2345  0.3078
  167SOL    HW1  666   0.829   1.282   0.350 -1.6503  1.6962  1.5022
  167SOL    HW2  667   0.876   1.137   0.302 -2.0425  1.1555 -0.5188
  167SOL     MW  668   0.832   1.190   0.360 -0.9156  0.5488  0.3563
  168SOL     OW  669   1.719   1.627   3.025 -0.7480 -0.5334  0.3739
  168SOL    HW1  670   1.638   1.670   2.993 -1.6014  1.8103  1.3838
  168SOL    HW2  671   1.723   1.537   2.984  0.1178 -0.0054 -0.9603
  168SOL     MW  672   1.709   1.621   3.015 -0.7464 -0.1545  0.3311
  169SOL     OW  673   0.298   0.953   1.331  0.0181 -0.4105  0.3886
  169SOL    HW1  674   0.304   0.933   1.419 -0.1969  1.2746 -0.0197
  169SOL    HW2  675   0.319   1.044   1.330 -0.9355 -2.4064 -1.3445
  169SOL     MW  676   0.301   0.962   1.342 -0.1361 -0.4515  0.1060
  170SOL     OW  677   1.112   1.535   1.454 -0.0093  0.7761  0.1263
  170SOL    HW1  678   1.053   1.592   1.497 -0.5733 -0.0416  0.1436
  170SOL    HW2  679   1.097   1.565   1.365 -4.1024  0.2484  1.4001
  170SOL     MW  680   1.102   1.547   1.448 -0.6238  0.5986  0.2967
  171SOL     OW  681   0.476   1.489   0.538 -0.3324  0.5574 -0.5556
  171SOL    HW1  682   0.394   1.492   0.494  2.7802  3.7294  1.2996
  171SOL    HW2  683   0.499   1.409   0.485 -1.4789  0.5178 -1.2164
  171SOL     MW  684   0.469   1.479   0.525 -0.0730  0.9707 -0.3980
  172SOL     OW  685   0.751   0.297   1.283  0.1610  0.2254 -0.7203
  172SOL    HW1  686   0.755   0.233   1.208 -1.2214 -4.1699 -1.4484
  172SOL    HW2  687   0.810   0.266   1.359  1.5767 -1.7782  0.1840
  172SOL     MW  688   0.760   0.285   1.283  0.1654 -0.6189 -0.6971
  173SOL     OW  689   0.500   1.771   0.329 -0.3133  0.3307 -0.3129
  173SOL    HW1  690   0.540   1.682   0.322  1.6789 -3.2455 -1.6364
  173SOL    HW2  691   0.488   1.778   0.423  2.5945  1.3753 -0.0878
  173SOL     MW  692   0.504   1.760   0.340  0.3332 -0.0033 -0.4578
  174SOL     OW  693   1.918   0.898   1.508  0.1884 -0.6510  0.4396
  174SOL    HW1  694   1.837   0.847   1.525 -2.0064  1.3270  0.9875
  174SOL    HW2  695   1.916   0.923   1.419  1.6114 -2.0281  1.4666
  174SOL     MW  696   1.907   0.895   1.498  0.0866 -0.5717  0.6474
  175SOL     OW  697   0.596   1.469   0.228  0.1180  0.3012  0.0418
  175SOL    HW1  698   0.607   1.380   0.194 -1.8905 -0.5058  1.6300
  175SOL    HW2  699   0.682   1.469   0.270  2.3128 -0.5073 -1.0275
  175SOL     MW  700   0.609   1.457   0.229  0.1426  0.0880  0.1102
  176SOL     OW  701   0.107   1.511   1.218  0.3097 -0.1352  0.8240
  176SOL    HW1  702   0.090   1.437   1.156 -1.2025 -0.5222 -0.6399
  176SOL    HW2  703   0.045   1.503   1.287  0.2622  0.6499 -2.3037
  176SOL     MW  704   0.096   1.500   1.219  0.1039 -0.0827  0.2182
  177SOL     OW  705   0.508   0.260   1.433 -0.3121 -0.4613  0.0484
  177SOL    HW1  706   0.570   0.265   1.361  1.1758 -0.7578  1.1039
  177SOL    HW2  707   0.513   0.342   1.486  1.2158  1.7742 -2.4961
  177SOL     MW  708   0.517   0.271   1.431  0.0858 -0.2055 -0.1481
  178SOL     OW  709   3.070   0.571   2.968  0.4537  0.8517 -0.3778
  178SOL    HW1  710   2.999   0.508   2.965  5.1600  1.9983 -0.3545
  178SOL    HW2  711   3.093   0.606   2.878 -0.4241 -0.2801 -0.6113
  178SOL     MW  712   3.064   0.567   2.956  0.9588  0.8536 -0.4055
  179SOL     OW  713   1.565   1.488   1.361 -0.0849 -0.0597  0.5292
  179SOL    HW1  714   1.553   1.494   1.458 -2.9974 -0.8180 -0.5387
  179SOL    HW2  715   1.663   1.482   1.333  0.3918  0.3419  4.2642
  179SOL     MW  716   1.577   1.488   1.370 -0.4063 -0.1068  0.8811
  180SOL     OW  717   0.021   0.256   0.415  0.4856  0.0549  0.1334
  180SOL    HW1  718  -0.067   0.282   0.373 -2.6060 -0.2113  0.6336
  180SOL    HW2  719   0.076   0.332   0.414  0.1657  0.8597  1.1326
  180SOL     MW  720   0.017   0.269   0.409  0.0355  0.1259  0.3313
  181SOL     OW  721   1.070   1.337   0.025  0.2679 -0.2714  0.6604
  181SOL    HW1  722   1.107   1.427   0.025  0.9374 -1.7285 -0.3560
  181SOL    HW2  723   1.121   1.289  -0.037 -0.6961  3.6543 -1.6188
  181SOL     MW  724   1.082   1.343   0.017  0.2290  0.0543  0.2256
  182SOL     OW  725   0.360   0.866   1.609 -0.1054 -0.2690  0.6132
  182SOL    HW1  726   0.290   0.909   1.663 -1.4529  0.7320 -1.3139
  182SOL    HW2  727   0.419   0.822   1.669  1.1826  0.1047 -1.0991
  182SOL     MW  728   0.359   0.866   1.624 -0.1132 -0.0876  0.1330
  183SOL     OW  729   1.560   1.746   1.281 -0.5353  0.0386 -0.0150
  183SOL    HW1  730   1.646   1.775   1.304 -4.3871  1.6289  1.2656
  183SOL    HW2  731   1.553   1.651   1.316 -0.7836 -1.4425 -0.4593
  183SOL     MW  732   1.570   1.737   1.288 -1.0763  0.0530  0.0953
  184SOL     OW  733   0.823   0.623   1.743  0.4213 -0.0616 -0.2634
  184SOL    HW1  734   0.916   0.650   1.722 -0.2578 -0.1379 -1.2673
  184SOL    HW2  735   0.828   0.580   1.829 -0.6894  0.1783 -0.0906
  184SOL     MW  736   0.836   0.621   1.751  0.1852 -0.0400 -0.3730
  185SOL     OW  737   1.106   0.965   1.874 -0.2499 -0.0232  0.1655
  185SOL    HW1  738   1.073   0.885   1.927 -2.9846  0.0590  0.1205
  185SOL    HW2  739   1.129   1.024   1.944 -3.7574 -0.2175 -0.3596
  185SOL     MW  740   1.105   0.962   1.890 -1.0735 -0.0380  0.0903
  186SOL     OW  741   0.263   1.609   1.525 -0.4720  0.4089  0.1063
  186SOL    HW1  742   0.293   1.553   1.449 -0.9755 -0.8343  0.7243
  186SOL    HW2  743   0.179   1.576   1.562  1.3488  0.2242  0.6153
  186SOL     MW  744   0.256   1.597   1.520 -0.2982  0.2205  0.2550
  187SOL     OW  745   1.414   0.800   1.338 -0.0304  0.3140  0.0905
  187SOL    HW1  746   1.436   0.808   1.433 -0.0853  1.2322  1.3481
  187SOL    HW2  747   1.325   0.834   1.324 -0.5163  1.5697  2.2511
  187SOL     MW  748   1.405   0.805   1.349 -0.1018  0.6008  0.5415
  188SOL     OW  749   1.845   1.234   0.932 -0.2150 -0.0457 -0.0834
  188SOL    HW1  750   1.865   1.220   1.027  0.1675 -0.0660  0.5534
  188SOL    HW2  751   1.834   1.153   0.888 -0.6644  1.0752  0.5810
  188SOL     MW  752   1.846   1.221   0.939 -0.2238  0.0995  0.0883
  189SOL     OW  753   0.718   0.725   0.851  0.1365 -0.3653  0.0643
  189SOL    HW1  754   0.646   0.785   0.855  2.0999 -1.4669 -1.4019
  189SOL    HW2  755   0.780   0.755   0.914  2.8842  1.6272 -2.0435
  189SOL     MW  756   0.716   0.737   0.860  0.7581 -0.2478 -0.4073
  190SOL     OW  757   1.876   0.262   2.049  0.0832 -0.0951 -0.2479
  190SOL    HW1  758   1.855   0.244   2.137 -1.1062  1.1681  1.4761
  190SOL    HW2  759   1.942   0.332   2.051 -2.1436  2.2028 -1.2680
  190SOL     MW  760   1.882   0.269   2.061 -0.3676  0.3747 -0.1550
  191SOL     OW  761   1.555   1.013   1.226 -0.4676  0.8660  0.0710
  191SOL    HW1  762   1.547   1.088   1.293 -0.0952  1.8421  1.5796
  191SOL    HW2  763   1.513   0.936   1.263 -1.1495  1.1052 -1.7978
  191SOL     MW  764   1.549   1.013   1.240 -0.5084  1.0264  0.0235
  192SOL     OW  765   0.524   2.194   2.953 -0.5047  0.3701  0.0017
  192SOL    HW1  766   0.466   2.246   2.900 -0.0975  0.8994  0.2910
  192SOL    HW2  767   0.514   2.100   2.923 -2.8488  0.1540 -1.4013
  192SOL     MW  768   0.515   2.188   2.942 -0.7602  0.4114 -0.1452
  193SOL     OW  769   0.827   1.625   0.790  0.7054  0.9187 -0.1223
  193SOL    HW1  770   0.737   1.616   0.828 -2.8504  0.1108  2.6366
  193SOL    HW2  771   0.842   1.559   0.726 -2.7383  1.7744  2.4329
  193SOL     MW  772   0.817   1.615   0.787 -0.2182  0.9250  0.5788
  194SOL     OW  773   0.392   1.350   0.852 -0.5065 -0.2895 -0.5254
  194SOL    HW1  774   0.367   1.290   0.915 -1.5918 -0.0329 -0.6046
  194SOL    HW2  775   0.313   1.397   0.823  0.2560  1.7118  2.2352
  194SOL     MW  776   0.378   1.348   0.856 -0.5491  0.0084 -0.1716
  195SOL     OW  777   1.208   1.117   3.011  0.5129  0.3057 -0.5172
  195SOL    HW1  778   1.235   1.125   3.105 -2.8292  1.5376  0.8122
  195SOL    HW2  779   1.164   1.029   3.011  0.2714 -3.3319  4.1472
  195SOL     MW  780   1.206   1.106   3.024  0.0401 -0.0117  0.2736
  196SOL     OW  781   2.248   1.012   0.510  0.0677 -0.2785 -0.0750
  196SOL    HW1  782   2.263   1.010   0.421 -0.1242 -3.2903  2.3262
  196SOL    HW2  783   2.240   1.103   0.533  2.1222 -2.1548  3.0597
  196SOL     MW  784   2.249   1.024   0.501  0.3135 -0.9234  0.6554
  197SOL     OW  785   0.614   1.342   2.164 -0.1186 -0.0594  0.3798
  197SOL    HW1  786   0.600   1.264   2.112  0.3086 -2.6635  2.3421
  197SOL    HW2  787   0.689   1.389   2.131  0.0050  0.7420 -1.6940
  197SOL     MW  788   0.622   1.338   2.153 -0.0460 -0.2972  0.3651
  198SOL     OW  789   2.933   1.399   1.017 -0.5216  0.6081 -0.1432
  198SOL    HW1  790   2.910   1.488   0.992  1.7746 -0.5822  0.3568
  198SOL    HW2  791   2.844   1.348   1.011  1.1549 -0.1756 -0.5626
  198SOL     MW  792   2.918   1.404   1.013  0.0025  0.3477 -0.1326
  199SOL     OW  793   0.663   1.255   1.813 -0.4049  0.2182 -0.1513
  199SOL    HW1  794   0.566   1.231   1.817 -1.2985 -0.4984 -1.0959
  199SOL    HW2  795   0.661   1.332   1.746  0.5436 -1.5125 -4.0351
  199SOL     MW  796   0.650   1.262   1.805 -0.3977 -0.1047 -0.7884
  200SOL     OW  797   1.835   2.970   1.287 -0.1965 -0.0595 -0.0286
  200SOL    HW1  798   1.923   2.970   1.240  1.2427  0.1144 -1.1250
  200SOL    HW2  799   1.804   3.057   1.293  1.1491 -3.0948 -0.9842
  200SOL     MW  800   1.843   2.982   1.282  0.1710 -0.4370 -0.2994
  201SOL     OW  801   1.190   0.298   0.833 -0.2250 -0.2382  0.6656
  201SOL    HW1  802   1.139   0.223   0.818 -1.0631  1.3512 -0.2038
  201SOL    HW2  803   1.277   0.268   0.850  1.5629  1.2882 -0.0969
  201SOL     MW  804   1.194   0.284   0.833 -0.0997  0.1729  0.4503
  202SOL     OW  805   1.473   1.734   1.021  0.0294 -0.1036 -0.4764
  202SOL    HW1  806   1.465   1.638   0.998 -0.6861 -4.1180  0.4493
  202SOL    HW2  807   1.500   1.738   1.114 -0.8370  2.4184  0.7216
  202SOL     MW  808   1.475   1.722   1.031 -0.1793 -0.3005 -0.1962
  203SOL     OW  809  -0.005   0.387   1.327  0.6929  0.4862  0.0226
  203SOL    HW1  810   0.016   0.291   1.331  1.1273  3.1250  3.3094
  203SOL    HW2  811   0.077   0.432   1.311  1.3646  0.9914  2.1976
  203SOL     MW  812   0.009   0.380   1.326  0.8388  0.9010  0.7432
  204SOL     OW  813   1.011   1.836   0.660 -0.0572  0.2153  0.0578
  204SOL    HW1  814   0.950   1.781   0.705 -0.1095 -1.5811 -0.6674
  204SOL    HW2  815   0.957   1.850   0.582 -1.0439  0.9463 -0.6478
  204SOL     MW  816   0.996   1.831   0.656 -0.1943  0.0747 -0.1310
  205SOL     OW  817   1.416   3.002   1.292 -0.0451  0.2661 -0.3972
  205SOL    HW1  818   1.477   3.050   1.239 -0.6590  0.7812  0.7639
  205SOL    HW2  819   1.338   3.058   1.295 -0.3895 -1.1955 -0.2255
  205SOL     MW  820   1.414   3.016   1.286 -0.1715  0.1412 -0.2213
  206SOL     OW  821   0.368   2.917   1.351  0.0871 -0.5884  0.3450
  206SOL    HW1  822   0.355   2.956   1.266  0.4857 -1.6434 -0.3379
  206SOL    HW2  823   0.459   2.915   1.377 -0.7357 -2.0125  0.3035
  206SOL     MW  824   0.378   2.922   1.343  0.0311 -0.9155  0.2494
  207SOL     OW  825   0.886   1.750   0.217 -0.6006 -0.4028  0.2478
  207SOL    HW1  826   0.938   1.810   0.161  2.6035  0.5888  1.3117
  207SOL    HW2  827   0.957   1.692   0.235 -0.9494  1.6348 -2.3210
  207SOL     MW  828   0.902   1.750   0.212 -0.2239 -0.0031  0.0492
  208SOL     OW  829   0.789   1.534   1.338  0.1887 -0.4234  0.4074
  208SOL    HW1  830   0.850   1.598   1.286 -0.5118  0.4560 -0.7709
  208SOL    HW2  831   0.790   1.446   1.300 -0.6522 -2.4618  2.0970
  208SOL     MW  832   0.797   1.531   1.326 -0.0147 -0.5763  0.4748
  209SOL     OW  833   1.630   0.475   2.822 -0.0233 -0.1234 -0.0512
  209SOL    HW1  834   1.667   0.553   2.859 -2.1191  0.7661 -2.2162
  209SOL    HW2  835   1.678   0.401   2.855  0.6528 -0.0680  1.3231
  209SOL     MW  836   1.641   0.476   2.831 -0.2107  0.0013 -0.1555
  210SOL     OW  837   1.486   1.415   0.991 -0.3853 -0.2693 -0.1065
  210SOL    HW1  838   1.577   1.416   0.969 -0.0454  2.4072 -0.5187
  210SOL    HW2  839   1.440   1.430   0.909 -0.6286  0.8113  0.5021
  210SOL     MW  840   1.492   1.417   0.977 -0.3726  0.2264 -0.0806
  211SOL     OW  841   1.747   0.476   0.901  0.1144  0.3502 -0.1306
  211SOL    HW1  842   1.770   0.505   0.814 -1.4704 -1.4140  1.9619
  211SOL    HW2  843   1.839   0.471   0.938 -1.3103 -0.5308  0.0049
  211SOL     MW  844   1.762   0.479   0.894 -0.2826  0.0012  0.1634
  212SOL     OW  845   0.369   1.198   0.198  0.3957 -0.2560  0.1831
  212SOL    HW1  846   0.324   1.121   0.226  2.4104  2.4099  0.5701
  212SOL    HW2  847   0.429   1.187   0.121  0.6084  1.9163  0.2803
  212SOL     MW  848   0.371   1.187   0.192  0.6896  0.3823  0.2469
  213SOL     OW  849   0.402   1.817   3.026  0.6743 -0.8555  0.3902
  213SOL    HW1  850   0.460   1.857   3.094 -0.4557 -1.3857  1.2278
  213SOL    HW2  851   0.426   1.860   2.938  0.9474  2.7663 -1.0502
  213SOL     MW  852   0.413   1.828   3.023  0.5612 -0.4476  0.3107
  214SOL     OW  853   0.580   0.336   2.105 -0.3133  0.4489  0.7636
  214SOL    HW1  854   0.508   0.403   2.126  1.7883  0.3738 -2.9802
  214SOL    HW2  855   0.561   0.314   2.010 -4.4189 -1.8529  0.0871
  214SOL     MW  856   0.568   0.342   2.095 -0.5777  0.1353  0.1804
  215SOL     OW  857   0.502   0.487   2.502 -0.3611 -0.6736 -0.7991
  215SOL    HW1  858   0.469   0.569   2.457 -2.2070  1.4922  2.3556
  215SOL    HW2  859   0.455   0.408   2.472 -4.5644 -0.5921 -0.2060
  215SOL     MW  860   0.491   0.487   2.492 -1.1592 -0.3771 -0.3046
  216SOL     OW  861   2.916   3.090   2.811  0.2067  0.2384  0.6943
  216SOL    HW1  862   2.832   3.085   2.773  1.4657 -1.6332 -0.0329
  216SOL    HW2  863   2.952   3.160   2.763 -1.4536 -0.6864  2.3751
  216SOL     MW  864   2.909   3.099   2.800  0.1538 -0.1305  0.8201
  217SOL     OW  865   0.949   1.094   0.150 -0.2130  0.0251  0.2437
  217SOL    HW1  866   0.961   1.026   0.082 -0.5859 -0.7258  1.3732
  217SOL    HW2  867   0.983   1.175   0.127  0.6211  0.2053 -0.1580
  217SOL     MW  868   0.955   1.096   0.138 -0.1522 -0.0502  0.3397
  218SOL     OW  869   0.850   1.363   2.606 -0.0189  0.0581  0.4600
  218SOL    HW1  870   0.828   1.314   2.682 -2.8212 -0.5256 -2.0967
  218SOL    HW2  871   0.926   1.415   2.629  0.7891  0.9731  1.1736
  218SOL     MW  872   0.857   1.363   2.619 -0.2821  0.1018  0.2168
  219SOL     OW  873   1.044   0.462   2.583 -0.3684  0.4347 -0.5868
  219SOL    HW1  874   1.090   0.537   2.637  0.0121  1.5106 -0.7574
  219SOL    HW2  875   0.966   0.506   2.557  0.2890  0.7830  0.1219
  219SOL     MW  876   1.040   0.478   2.587 -0.2315  0.6226 -0.5158
  220SOL     OW  877   1.700   0.519   2.195 -0.4542 -0.3867  0.1426
  220SOL    HW1  878   1.621   0.570   2.168 -0.0272 -0.4977 -0.3733
  220SOL    HW2  879   1.695   0.440   2.146 -1.3760 -0.1140  2.3437
  220SOL     MW  880   1.689   0.515   2.185 -0.5195 -0.3654  0.3649
  221SOL     OW  881   0.386   1.386   2.942 -0.3616 -0.1334  0.3257
  221SOL    HW1  882   0.429   1.298   2.926  2.6547 -0.3576  0.2019
  221SOL    HW2  883   0.463   1.454   2.945  0.1110  0.2875  2.0150
  221SOL     MW  884   0.402   1.384   2.940  0.0987 -0.1074  0.5323
  222SOL     OW  885   0.524   0.909   2.735 -0.1410  0.0091  0.3800
  222SOL    HW1  886   0.444   0.889   2.686 -0.6918 -1.1072 -0.5703
  222SOL    HW2  887   0.581   0.828   2.725  1.1408 -1.0077 -1.4246
  222SOL     MW  888   0.521   0.896   2.727 -0.0446 -0.2724  0.0165
  223SOL     OW  889   3.073   2.022   2.522 -0.7048 -0.1404 -0.6214
  223SOL    HW1  890   3.083   2.019   2.619 -3.1664 -2.5703 -1.3847
  223SOL    HW2  891   3.120   2.101   2.489 -1.5608 -0.1650  1.3549
  223SOL     MW  892   3.080   2.032   2.530 -1.1425 -0.4643 -0.4614
  224SOL     OW  893   1.470   0.656   2.428  0.0246 -0.4422 -0.3756
  224SOL    HW1  894   1.559   0.633   2.469  2.4998 -0.2108  0.3773
  224SOL    HW2  895   1.443   0.746   2.444 -0.4261 -3.0115 -0.3288
  224SOL     MW  896   1.478   0.665   2.435  0.2917 -0.7507 -0.2701
  225SOL     OW  897   2.942   1.494   2.221  0.1066 -0.1663 -0.9902
  225SOL    HW1  898   2.966   1.581   2.181 -0.8363  0.5313 -2.4918
  225SOL    HW2  899   2.864   1.533   2.261  0.3788  1.2001  0.2503
  225SOL     MW  900   2.935   1.510   2.221  0.0181  0.1060 -1.0247
  226SOL     OW  901   0.446   1.571   2.694  0.2250 -0.0004 -0.0224
  226SOL    HW1  902   0.533   1.591   2.659  0.3887  1.8489  2.2970
  226SOL    HW2  903   0.394   1.652   2.703  0.9947 -0.5886 -1.2127
  226SOL     MW  904   0.451   1.584   2.691  0.3481  0.1660  0.1266
  227SOL     OW  905   0.503   1.148   2.891  0.6055 -0.1816 -0.5319
  227SOL    HW1  906   0.584   1.179   2.852 -1.8290  1.1204  0.0068
  227SOL    HW2  907   0.501   1.066   2.849  0.4508  1.2077 -2.8821
  227SOL     MW  908   0.513   1.141   2.880  0.2639  0.1735 -0.7709
  228SOL     OW  909   0.763   1.109   2.030  0.5552 -0.3486 -0.2764
  228SOL    HW1  910   0.726   1.160   1.962  3.6537 -1.9164  0.2714
  228SOL    HW2  911   0.846   1.145   2.052 -0.3363  0.6239  1.0043
  228SOL     MW  912   0.769   1.120   2.024  0.8464 -0.4271 -0.0352
  229SOL     OW  913   0.215   0.559   0.040  0.0630 -0.6312 -0.1665
  229SOL    HW1  914   0.131   0.560  -0.014  1.4337 -1.6815  0.9545
  229SOL    HW2  915   0.198   0.498   0.115 -2.3715  1.2228 -0.3722
  229SOL     MW  916   0.201   0.551   0.043 -0.0774 -0.5251 -0.0457
  230SOL     OW  917   1.740   1.366   2.101  0.8536 -0.1885  0.9568
  230SOL    HW1  918   1.670   1.339   2.159  0.7206 -0.3969  2.3130
  230SOL    HW2  919   1.739   1.289   2.044 -2.9283 -2.6570  1.3607
  230SOL     MW  920   1.731   1.352   2.101  0.3371 -0.5417  1.1890
  231SOL     OW  921   2.732   1.287   2.213  0.1126  0.3435 -0.2494
  231SOL    HW1  922   2.793   1.358   2.197 -0.7251  0.2960  0.5105
  231SOL    HW2  923   2.659   1.287   2.145 -4.1358 -2.9778 -0.2057
  231SOL     MW  924   2.730   1.297   2.202 -0.5585 -0.1010 -0.1434
  232SOL     OW  925   2.292   0.893   1.951 -0.1006 -0.3964  0.1759
  232SOL    HW1  926   2.213   0.937   1.923 -0.6072  2.1245  1.2970
  232SOL    HW2  927   2.265   0.839   2.026  1.6356  0.3757 -0.0406
  232SOL     MW  928   2.278   0.891   1.957  0.0617  0.0381  0.2952
  233SOL     OW  929   2.103   0.439   2.040 -0.0261  0.1179  0.4748
  233SOL    HW1  930   2.150   0.363   2.027  0.5131  3.5571  1.9391
  233SOL    HW2  931   2.101   0.459   2.131  0.9630  1.1143 -2.4499
  233SOL     MW  932   2.109   0.432   2.050  0.1755  0.7032  0.2821
  234SOL     OW  933   0.252   1.057   2.670  0.1492  0.1208 -0.4742
  234SOL    HW1  934   0.172   1.053   2.622  0.3569 -3.5043  0.8468
  234SOL    HW2  935   0.274   1.146   2.651  0.9436 -3.1211 -0.5040
  234SOL     MW  936   0.245   1.068   2.661  0.2814 -0.7852 -0.3038
  235SOL     OW  937   1.147   0.016   2.843  0.1656  0.0486 -0.2661
  235SOL    HW1  938   1.135  -0.006   2.935  0.2680  0.1579  0.8847
  235SOL    HW2  939   1.125   0.110   2.826  0.7083  2.9154  0.3307
  235SOL     MW  940   1.142   0.025   2.853  0.2507  0.4412 -0.0355
  236SOL     OW  941   2.976   0.590   0.179 -0.4106 -0.0726 -0.4921
  236SOL    HW1  942   2.995   0.627   0.266 -3.0255 -0.0227 -0.3195
  236SOL    HW2  943   3.008   0.669   0.130 -0.6370  0.1687 -0.5588
  236SOL     MW  944   2.983   0.605   0.184 -0.7855 -0.0342 -0.4782
  237SOL     OW  945   1.891   1.074   2.108  0.3513  0.8416 -0.2511
  237SOL    HW1  946   1.817   1.025   2.144 -2.5480 -1.6584  0.4944
  237SOL    HW2  947   1.890   1.055   2.011  2.8288  2.4603 -1.2643
  237SOL     MW  948   1.881   1.065   2.100  0.2957  0.7253 -0.2864
  238SOL     OW  949   1.080   1.716   2.918  0.3225  0.0310 -0.3425
  238SOL    HW1  950   1.037   1.673   2.841 -1.6018  0.3267 -1.2132
  238SOL    HW2  951   1.173   1.686   2.918  0.9409  0.7371  1.1226
  238SOL     MW  952   1.087   1.706   2.908  0.1502  0.1632 -0.2640
  239SOL     OW  953   1.181   1.311   2.346 -0.3249 -0.3282  0.1726
  239SOL    HW1  954   1.143   1.398   2.370  3.2995  0.7600 -1.5706
  239SOL    HW2  955   1.173   1.255   2.422 -3.1094 -1.3300 -1.2778
  239SOL     MW  956   1.175   1.315   2.359 -0.2141 -0.3168 -0.2488
  240SOL     OW  957   0.588   0.865   2.296 -0.0675 -0.2889  0.8508
  240SOL    HW1  958   0.625   0.931   2.357  0.7437  0.6512  1.2269
  240SOL    HW2  959   0.660   0.839   2.248 -0.7494 -1.7367  1.3836
  240SOL     MW  960   0.603   0.870   2.298 -0.0505 -0.3559  0.9707
  241SOL     OW  961   0.712   0.449   0.001 -0.3169  0.3269  0.1819
  241SOL    HW1  962   0.722   0.509   0.075  2.9754  1.2195 -1.6482
  241SOL    HW2  963   0.620   0.460  -0.029  2.9540 -1.5310  1.0315
  241SOL     MW  964   0.701   0.458   0.007  0.5491  0.1996  0.0526
  242SOL     OW  965   1.494   1.609   2.304 -0.3771 -0.2759 -0.1091
  242SOL    HW1  966   1.443   1.687   2.314  0.1463  0.6761 -1.5738
  242SOL    HW2  967   1.452   1.557   2.237  3.2280  2.6265 -0.8772
  242SOL     MW  968   1.481   1.613   2.296  0.1676  0.2327 -0.4037
  243SOL     OW  969   0.997   0.263   2.384 -0.9345 -0.4668  0.2113
  243SOL    HW1  970   1.078   0.208   2.394 -0.6961  0.7291  1.1024
  243SOL    HW2  971   1.015   0.341   2.444 -0.4503  0.0255  0.1842
  243SOL     MW  972   1.010   0.266   2.393 -0.8391 -0.2441  0.3253
  244SOL     OW  973   0.093   0.788   2.374  0.1090  0.3898  0.3624
  244SOL    HW1  974   0.050   0.873   2.382 -0.2353 -2.0565 -1.5253
  244SOL    HW2  975   0.184   0.804   2.372  1.0922 -1.7552  0.6431
  244SOL     MW  976   0.099   0.801   2.375  0.1933 -0.2160  0.1504
  245SOL     OW  977   1.248   0.141   2.428  0.8719 -0.6842 -0.4874
  245SOL    HW1  978   1.302   0.121   2.354 -1.1259 -1.1087  3.1698
  245SOL    HW2  979   1.264   0.071   2.495 -1.7594  0.6657 -0.6730
  245SOL     MW  980   1.257   0.129   2.427  0.2611 -0.5621 -0.0294
  246SOL     OW  981   1.200   1.134   2.093 -0.4111 -0.2758 -0.6323
  246SOL    HW1  982   1.136   1.141   2.169 -3.3602  0.1457 -0.7793
  246SOL    HW2  983   1.276   1.081   2.122  1.3128 -2.1419  1.5874
  246SOL     MW  984   1.202   1.128   2.107 -0.5728 -0.4664 -0.3588
  247SOL     OW  985   0.767   0.656   0.187 -0.1530 -0.5946 -0.0458
  247SOL    HW1  986   0.732   0.747   0.179  0.2104  1.2381  0.5834
  247SOL    HW2  987   0.845   0.659   0.122  1.2897 -3.0125 -1.7072
  247SOL     MW  988   0.773   0.668   0.178  0.0853 -0.6718 -0.1820
  248SOL     OW  989   0.304   1.320   2.611  0.3458  0.1799  0.3456
  248SOL    HW1  990   0.335   1.321   2.522  1.6047  0.9366  0.8528
  248SOL    HW2  991   0.342   1.400   2.645 -1.0439 -0.1136  1.3045
  248SOL     MW  992   0.313   1.331   2.604  0.3285  0.2410  0.5391
  249SOL     OW  993   3.027   1.924   2.786 -0.2485 -0.0605  0.4217
  249SOL    HW1  994   2.965   1.853   2.774  0.8386  0.4734  0.0779
  249SOL    HW2  995   3.103   1.885   2.826  1.9958  2.6215  0.0938
  249SOL     MW  996   3.029   1.910   2.790  0.1910  0.3638  0.3331
  250SOL     OW  997   2.253   0.744   2.176  0.3602 -0.7430  0.3252
  250SOL    HW1  998   2.196   0.670   2.208  1.8795  1.9857  0.3029
  250SOL    HW2  999   2.323   0.738   2.246 -0.4936 -1.5531  1.0018
  250SOL     MW 1000   2.255   0.734   2.189  0.4480 -0.4898  0.4116
  251SOL     OW 1001   0.165   0.871   2.040  0.3091  0.0223 -0.1917
  251SOL    HW1 1002   0.074   0.831   2.055  0.0897 -0.4769 -1.5930
  251SOL    HW2 1003   0.168   0.869   1.947  1.3878 -2.8503  1.9715
  251SOL     MW 1004   0.153   0.866   2.030  0.4225 -0.4226 -0.0912
  252SOL     OW 1005   1.709   1.038   2.891 -0.0137  0.2872 -0.2279
  252SOL    HW1 1006   1.727   1.084   2.973  0.4257  0.6118  0.1199
  252SOL    HW2 1007   1.775   1.034   2.827 -2.6523  2.0648  1.8965
  252SOL     MW 1008   1.720   1.043   2.893 -0.3039  0.5646  0.0983
  253SOL     OW 1009   1.146   1.682   2.539  0.1697 -0.1212  0.4949
  253SOL    HW1 1010   1.130   1.653   2.444 -2.7899  1.2977 -2.5047
  253SOL    HW2 1011   1.064   1.739   2.560  1.7419 -0.4013  0.9697
  253SOL     MW 1012   1.133   1.685   2.529 -0.0133  0.0291  0.1618
  254SOL     OW 1013   0.979   1.081   2.245  0.1853 -1.0009  0.1885
  254SOL    HW1 1014   0.928   0.998   2.237  0.2611 -2.9124 -1.3476
  254SOL    HW2 1015   0.916   1.144   2.285 -1.6076 -0.2149  2.0174
  254SOL     MW 1016   0.964   1.078   2.249 -0.0413 -1.1494  0.2271
  255SOL     OW 1017   0.851   2.504   2.148 -0.1989 -0.5527 -0.0506
  255SOL    HW1 1018   0.783   2.440   2.123  2.2541 -0.3547  1.3891
  255SOL    HW2 1019   0.924   2.450   2.182 -0.5028 -3.8868 -0.0402
  255SOL     MW 1020   0.851   2.489   2.149  0.0847 -0.9665  0.1407
  256SOL     OW 1021   1.331   2.775   3.067  0.6123 -0.1205 -0.0166
  256SOL    HW1 1022   1.318   2.681   3.074 -1.4337  1.0676  1.3555
  256SOL    HW2 1023   1.376   2.795   2.985 -0.4501  0.0331  1.1679
  256SOL     MW 1024   1.336   2.765   3.057  0.2022  0.0565  0.3208
  257SOL     OW 1025   0.057   1.931   0.070  0.4255  0.6888 -0.0226
  257SOL    HW1 1026   0.101   1.879   0.133  2.0904  0.9414  0.5453
  257SOL    HW2 1027   0.063   1.873  -0.011  0.7962 -2.9633  0.9070
  257SOL     MW 1028   0.063   1.916   0.068  0.6941  0.2403  0.1750
  258SOL     OW 1029   0.695   1.013   2.508 -0.0829 -0.9064 -0.2623
  258SOL    HW1 1030   0.690   1.094   2.456  0.3191  1.1917 -0.7363
  258SOL    HW2 1031   0.611   1.012   2.556 -3.5480  0.8757  1.1618
  258SOL     MW 1032   0.683   1.023   2.507 -0.4870 -0.3944 -0.1370
  259SOL     OW 1033   0.818   0.443   2.222 -0.4765 -0.7687  0.2466
  259SOL    HW1 1034   0.733   0.419   2.178  2.4773 -0.2542 -0.2776
  259SOL    HW2 1035   0.868   0.366   2.255  1.2345 -1.0711  0.0830
  259SOL     MW 1036   0.813   0.430   2.220  0.1390 -0.7407  0.1559
  260SOL     OW 1037   0.629   0.108   1.602 -0.0605  0.0463  0.0159
  260SOL    HW1 1038   0.578   0.149   1.535 -0.7180 -4.4593 -0.0310
  260SOL    HW2 1039   0.724   0.118   1.576 -1.5119  1.4153  1.1304
  260SOL     MW 1040   0.635   0.115   1.590 -0.3388 -0.3675  0.1568
  261SOL     OW 1041   1.015   0.726   2.009  0.0546 -0.1055 -0.3168
  261SOL    HW1 1042   1.076   0.711   2.081 -2.8957 -1.7515 -0.9715
  261SOL    HW2 1043   0.972   0.638   2.008 -0.6259 -2.4766  1.9495
  261SOL     MW 1044   1.017   0.713   2.018 -0.4245 -0.6355 -0.1042
  262SOL     OW 1045   1.131   0.306   0.128  0.3459 -0.4822 -0.0463
  262SOL    HW1 1046   1.223   0.329   0.099 -1.0026 -0.0280 -1.4991
  262SOL    HW2 1047   1.091   0.251   0.056  0.6359  1.4690 -0.8644
  262SOL     MW 1048   1.138   0.302   0.115  0.2062 -0.1648 -0.3459
  263SOL     OW 1049   0.430   3.088   2.465 -0.0586  0.1601 -0.3507
  263SOL    HW1 1050   0.341   3.125   2.474  1.3245  1.7396 -1.5757
  263SOL    HW2 1051   0.458   3.129   2.381  0.4386 -1.1525 -3.1642
  263SOL     MW 1052   0.422   3.099   2.455  0.1895  0.1953 -0.8835
  264SOL     OW 1053   1.550   1.500   1.910  0.0674 -0.0904 -0.0063
  264SOL    HW1 1054   1.483   1.429   1.914 -0.5325 -0.5784 -1.4398
  264SOL    HW2 1055   1.632   1.463   1.957  0.8856 -1.6732  0.5488
  264SOL     MW 1056   1.552   1.486   1.917  0.0962 -0.3636 -0.1222
  265SOL     OW 1057   0.722   2.802   2.288 -0.4447 -0.6395  0.2817
  265SOL    HW1 1058   0.815   2.784   2.273 -0.5853 -0.5782  0.6650
  265SOL    HW2 1059   0.712   2.783   2.382  1.4831  1.0581  0.2982
  265SOL     MW 1060   0.733   2.797   2.299 -0.2089 -0.4074  0.3344
  266SOL     OW 1061   0.814   0.865   2.168 -0.2707  0.3686  0.4747
  266SOL    HW1 1062   0.790   0.937   2.110  0.4225  1.4392 -0.7150
  266SOL    HW2 1063   0.886   0.805   2.130  1.2523 -2.9368  0.1195
  266SOL     MW 1064   0.820   0.866   2.156  0.0217  0.0737  0.2708
  267SOL     OW 1065   1.388   1.730   2.665 -0.1869  0.6730  0.2191
  267SOL    HW1 1066   1.459   1.698   2.607 -1.2328 -0.1868  1.7572
  267SOL    HW2 1067   1.306   1.698   2.622 -2.6993 -2.0802 -0.9877
  267SOL     MW 1068   1.387   1.721   2.652 -0.6564  0.1963  0.2628
  268SOL     OW 1069   0.129   0.914   1.750 -0.4688  0.5759  0.0573
  268SOL    HW1 1070   0.042   0.939   1.777 -0.3082 -1.9599  0.5853
  268SOL    HW2 1071   0.112   0.845   1.685 -1.1627  0.0404 -3.8231
  268SOL     MW 1072   0.115   0.908   1.745 -0.5392  0.1707 -0.3850
  269SOL     OW 1073   1.376   1.870   2.361  0.0274 -0.3708  0.8656
  269SOL    HW1 1074   1.440   1.930   2.395  1.4737 -2.0317  0.3934
  269SOL    HW2 1075   1.288   1.897   2.388  0.7311 -2.0315 -2.0725
  269SOL     MW 1076   1.373   1.881   2.369  0.3111 -0.8091  0.4157
  270SOL     OW 1077   1.077   0.435   1.504  0.4083  0.4514  0.4202
  270SOL    HW1 1078   1.063   0.350   1.544  0.8305  0.1482 -2.0041
  270SOL    HW2 1079   1.170   0.435   1.497 -2.6001  2.0464 -1.3004
  270SOL     MW 1080   1.087   0.424   1.509  0.0670  0.6218 -0.1266
  271SOL     OW 1081   0.840   0.081   2.508 -1.0549  0.1014  0.4085
  271SOL    HW1 1082   0.893   0.037   2.575 -0.9563 -2.7538  0.4316
  271SOL    HW2 1083   0.906   0.139   2.478 -2.7968 -1.5992 -1.0739
  271SOL     MW 1084   0.856   0.083   2.513 -1.2717 -0.4997  0.2159
  272SOL     OW 1085   1.476   2.772   2.802 -0.3151 -0.1771  0.2718
  272SOL    HW1 1086   1.417   2.775   2.733  1.9377 -1.0192  0.6677
  272SOL    HW2 1087   1.524   2.863   2.800  0.6288  1.5883 -0.0444
  272SOL     MW 1088   1.474   2.784   2.792  0.1067 -0.0553  0.2823
  273SOL     OW 1089   1.474   0.814   2.827 -0.2377  0.1950 -0.0729
  273SOL    HW1 1090   1.568   0.826   2.846 -1.2989 -1.0958 -0.4444
  273SOL    HW2 1091   1.442   0.897   2.794 -0.2680  1.0865 -1.1080
  273SOL     MW 1092   1.482   0.827   2.825 -0.3817  0.1423 -0.2585
  274SOL     OW 1093   1.398   0.630   0.122  0.0402 -0.3498 -0.2632
  274SOL    HW1 1094   1.473   0.586   0.163  0.5339  0.0880  1.6578
  274SOL    HW2 1095   1.336   0.641   0.199 -0.3021  0.5064  0.9976
  274SOL     MW 1096   1.399   0.626   0.138  0.0602 -0.1791  0.1566
  275SOL     OW 1097   1.836   0.554   1.709 -0.1629  0.0304 -0.3194
  275SOL    HW1 1098   1.901   0.586   1.777  2.0874 -2.5909 -2.7928
  275SOL    HW2 1099   1.832   0.458   1.717 -1.1117  1.8468 -2.7142
  275SOL     MW 1100   1.844   0.546   1.719  0.0088 -0.0758 -0.9617
  276SOL     OW 1101   0.361   1.170   1.931 -0.1715  0.0575 -0.3587
  276SOL    HW1 1102   0.401   1.093   1.976  1.4596 -0.3640 -1.7741
  276SOL    HW2 1103   0.331   1.238   1.995 -0.8269 -0.4715  3.4833
  276SOL     MW 1104   0.362   1.169   1.946 -0.0428 -0.0679 -0.0385
  277SOL     OW 1105   1.978   1.126   2.484 -0.6377  0.1568 -0.2735
  277SOL    HW1 1106   2.033   1.194   2.526 -3.5357  0.5607  0.2606
  277SOL    HW2 1107   1.953   1.156   2.395  2.0303 -0.9129 -3.5994
  277SOL     MW 1108   1.982   1.139   2.478 -0.6681  0.0690 -0.6419
  278SOL     OW 1109   1.460   0.601   1.628  0.1589  0.0070 -0.5315
  278SOL    HW1 1110   1.464   0.570   1.725 -1.2051 -1.0747  1.7199
  278SOL    HW2 1111   1.538   0.657   1.619  1.9301  1.7979 -0.0611
  278SOL     MW 1112   1.471   0.604   1.639  0.2126  0.1006 -0.1724
  279SOL     OW 1113   0.509   0.125   2.246 -0.5363 -0.3072 -0.1858
  279SOL    HW1 1114   0.588   0.062   2.237  2.5528 -1.1762  2.6064
  279SOL    HW2 1115   0.534   0.207   2.200  1.7374  2.7242  2.7409
  279SOL     MW 1116   0.523   0.127   2.239  0.1712 -0.0219  0.5688
  280SOL     OW 1117   1.424   0.990   2.230  0.0245 -0.2855  0.6499
  280SOL    HW1 1118   1.516   0.968   2.199  1.1605  1.7339  0.9848
  280SOL    HW2 1119   1.432   0.971   2.323 -1.5491 -0.4379  1.1826
  280SOL     MW 1120   1.437   0.985   2.238 -0.0333 -0.0392  0.7644
  281SOL     OW 1121   1.351   1.078   2.756  0.5471 -0.1939 -0.1700
  281SOL    HW1 1122   1.432   1.130   2.756  1.0383 -2.2852  0.7029
  281SOL    HW2 1123   1.306   1.110   2.837  2.1200 -1.9885  1.6395
  281SOL     MW 1124   1.356   1.089   2.767  0.8194 -0.7066  0.1839
  282SOL     OW 1125   1.145   1.285   1.642 -0.5980  0.0358  0.3785
  282SOL    HW1 1126   1.135   1.374   1.599 -0.3110  3.3552 -0.9127
  282SOL    HW2 1127   1.066   1.253   1.679  1.0518 -0.3103 -1.4113
  282SOL     MW 1128   1.133   1.292   1.641 -0.3424  0.4281 -0.0280
  283SOL     OW 1129   0.818   1.364   3.046  0.0026 -0.6025 -0.4963
  283SOL    HW1 1130   0.914   1.363   3.062  0.8674  2.7958  0.7844
  283SOL    HW2 1131   0.795   1.460   3.054 -0.1714  0.0319 -0.4508
  283SOL     MW 1132   0.828   1.376   3.049  0.0937 -0.0704 -0.3213
  284SOL     OW 1133   0.370   0.696   2.333  0.3019 -0.0132 -0.5046
  284SOL    HW1 1134   0.442   0.761   2.326  0.2424 -0.4517 -0.3214
  284SOL    HW2 1135   0.357   0.639   2.258 -2.5948 -0.4087  1.8064
  284SOL     MW 1136   0.378   0.697   2.322 -0.0882 -0.1233 -0.1755
  285SOL     OW 1137   0.855   0.850   2.825 -0.2388  0.5502 -0.3675
  285SOL    HW1 1138   0.884   0.885   2.742  0.1775  0.1084  0.4722
  285SOL    HW2 1139   0.775   0.807   2.794 -1.7074 -0.7178 -2.3049
  285SOL     MW 1140   0.849   0.849   2.810 -0.3777  0.3246 -0.5123
  286SOL     OW 1141   1.074   1.485   2.708 -0.5347 -0.5063  0.3839
  286SOL    HW1 1142   1.116   1.403   2.673  0.1763  2.0072 -0.5632
  286SOL    HW2 1143   1.091   1.559   2.641  2.9826 -0.0115  0.0583
  286SOL     MW 1144   1.082   1.484   2.694  0.0232 -0.1094  0.2160
  287SOL     OW 1145   1.119   0.949   0.334 -0.5474  0.1374 -0.1581
  287SOL    HW1 1146   1.088   0.991   0.420  0.4211 -0.0428 -0.4813
  287SOL    HW2 1147   1.056   0.979   0.272  0.3436  0.2301  0.6126
  287SOL     MW 1148   1.106   0.959   0.337 -0.3021  0.1259 -0.0990
  288SOL     OW 1149   1.501   0.685   2.126  0.2840  0.3734 -0.2585
  288SOL    HW1 1150   1.418   0.713   2.179 -2.4415  0.4977 -0.4310
  288SOL    HW2 1151   1.546   0.775   2.124 -1.2983  2.0462  0.1103
  288SOL     MW 1152   1.496   0.701   2.133 -0.2844  0.6105 -0.2326
  289SOL     OW 1153   0.944   0.961   2.595  1.0208  0.1368 -0.2208
  289SOL    HW1 1154   0.979   0.897   2.533  2.3897 -2.0227 -1.6556
  289SOL    HW2 1155   0.848   0.982   2.557 -2.5593  0.4920 -0.1505
  289SOL     MW 1156   0.936   0.955   2.582  0.7291 -0.1013 -0.4009
  290SOL     OW 1157   0.733   0.672   1.475 -0.2575  0.1614 -0.7363
  290SOL    HW1 1158   0.777   0.603   1.427 -0.1968 -1.0374  0.5863
  290SOL    HW2 1159   0.751   0.653   1.564  0.7879  1.0081 -3.0998
  290SOL     MW 1160   0.741   0.661   1.480 -0.1116  0.1149 -0.8736
  291SOL     OW 1161   0.241   0.343   0.192  0.4715 -0.0287 -0.0946
  291SOL    HW1 1162   0.334   0.320   0.193 -1.5103 -1.7218 -1.7238
  291SOL    HW2 1163   0.195   0.258   0.183 -0.1836  0.9098 -0.2066
  291SOL     MW 1164   0.247   0.328   0.191  0.1236 -0.1283 -0.3243
  292SOL     OW 1165   1.024   0.578   0.098  0.4263  0.6492  0.1798
  292SOL    HW1 1166   1.086   0.624   0.152 -1.2666  0.8262 -1.0380
  292SOL    HW2 1167   1.049   0.487   0.102 -2.9879 -1.3136  0.4835
  292SOL     MW 1168   1.035   0.572   0.106 -0.2475  0.4136  0.0592
  293SOL     OW 1169   0.153   0.107   2.537  0.3987  0.7546 -0.1385
  293SOL    HW1 1170   0.118   0.052   2.471  0.0123  3.7343 -0.5419
  293SOL    HW2 1171   0.076   0.152   2.575  1.2459 -0.8989  0.5619
  293SOL     MW 1172   0.138   0.106   2.533  0.4595  0.9296 -0.0993
  294SOL     OW 1173   1.335   0.444   2.352 -0.6456 -0.1388 -0.6409
  294SOL    HW1 1174   1.390   0.526   2.379  1.9352  0.1098  1.7916
  294SOL    HW2 1175   1.277   0.424   2.423 -1.5250 -0.2948 -0.9244
  294SOL     MW 1176   1.335   0.452   2.365 -0.4211 -0.1266 -0.3573
  295SOL     OW 1177   0.848   0.627   2.472  0.2760  0.3048  0.5647
  295SOL    HW1 1178   0.811   0.574   2.397 -0.5816 -0.0990  2.2940
  295SOL    HW2 1179   0.772   0.642   2.530 -0.2833  2.0277  1.0945
  295SOL     MW 1180   0.833   0.622   2.470  0.0891  0.4789  0.8628
  296SOL     OW 1181   1.358   0.327   2.061 -0.0123 -0.0395  0.0941
  296SOL    HW1 1182   1.374   0.234   2.047  0.5695 -0.4400  1.1220
  296SOL    HW2 1183   1.366   0.346   2.156 -0.4867  2.9162 -2.2342
  296SOL     MW 1184   1.361   0.317   2.072  0.0019  0.2976 -0.0775
  297SOL     OW 1185   1.357   0.364   1.541 -0.5981  0.2220 -0.2544
  297SOL    HW1 1186   1.388   0.443   1.588  1.7835  1.7980  1.2086
  297SOL    HW2 1187   1.397   0.292   1.589  2.0691  0.4026  0.3342
  297SOL     MW 1188   1.366   0.365   1.553  0.0680  0.4538  0.0163
  298SOL     OW 1189   1.648   0.927   2.110  0.3845  0.1779  0.5441
  298SOL    HW1 1190   1.661   0.972   2.020  0.0578 -0.1132  3.3017
  298SOL    HW2 1191   1.727   0.871   2.128 -0.7548 -0.2669 -0.0348
  298SOL     MW 1192   1.660   0.925   2.101  0.1911  0.0808  0.8316
  299SOL     OW 1193   0.629   1.182   0.065 -0.5348  0.0592  0.2391
  299SOL    HW1 1194   0.580   1.176  -0.026 -1.2853  0.7616 -1.9882
  299SOL    HW2 1195   0.716   1.224   0.042  1.9856 -0.6943  1.5356
  299SOL     MW 1196   0.634   1.187   0.050 -0.3013  0.0525  0.1163
  300SOL     OW 1197   1.157   1.174   2.589  0.6212  0.2499  1.2432
  300SOL    HW1 1198   1.083   1.111   2.587  2.7010  0.7244  1.7246
  300SOL    HW2 1199   1.217   1.142   2.659 -0.5018 -1.8810  0.5661
  300SOL     MW 1200   1.155   1.161   2.598  0.7475  0.0314  1.2174
  301SOL     OW 1201   1.505   0.983   0.732 -0.4683 -0.1468 -0.7247
  301SOL    HW1 1202   1.509   1.010   0.826 -0.5017  1.0987 -0.7887
  301SOL    HW2 1203   1.423   0.926   0.733 -1.4302 -0.9730 -0.7590
  301SOL     MW 1204   1.495   0.979   0.744 -0.5996 -0.0915 -0.7377
  302SOL     OW 1205   0.187   1.609   2.045 -0.4690  0.0188  0.3317
  302SOL    HW1 1206   0.196   1.517   2.060 -0.4816  1.7517 -1.8256
  302SOL    HW2 1207   0.094   1.638   2.065 -0.9750  1.5134 -1.5524
  302SOL     MW 1208   0.176   1.601   2.050 -0.5374  0.4446 -0.2015
  303SOL     OW 1209   0.283   1.794   2.700 -0.0594  0.1472 -0.4175
  303SOL    HW1 1210   0.239   1.825   2.622  3.7703  0.0228  0.8757
  303SOL    HW2 1211   0.212   1.752   2.751  1.2634 -1.0036 -1.1858
  303SOL     MW 1212   0.268   1.793   2.696  0.6204 -0.0211 -0.3483
  304SOL     OW 1213   0.529   2.084   2.468  0.0005  0.2930  0.1663
  304SOL    HW1 1214   0.598   2.147   2.446  1.5985  2.0969  2.1480
  304SOL    HW2 1215   0.566   2.010   2.423 -0.8485 -0.4544  0.2822
  304SOL     MW 1216   0.543   2.082   2.459  0.0993  0.4324  0.4431
  305SOL     OW 1217   1.142   0.651   0.557 -0.6925 -0.2562 -0.1782
  305SOL    HW1 1218   1.049   0.654   0.556 -0.7191  1.5001 -1.7755
  305SOL    HW2 1219   1.173   0.556   0.571 -2.9251  3.0076  1.3618
  305SOL     MW 1220   1.134   0.639   0.559 -0.9906  0.4062 -0.1857
  306SOL     OW 1221   1.117   1.560   0.291 -0.2253 -0.0380  0.0190
  306SOL    HW1 1222   1.147   1.481   0.330  0.7362  0.7588 -0.4593
  306SOL    HW2 1223   1.191   1.588   0.233  0.1224 -1.8687 -1.5400
  306SOL     MW 1224   1.131   1.554   0.288 -0.0526 -0.1744 -0.2498
  307SOL     OW 1225   1.461   0.519   1.880  0.2692  0.4682 -0.7658
  307SOL    HW1 1226   1.445   0.450   1.947 -1.4689  1.6137  0.8266
  307SOL    HW2 1227   1.482   0.594   1.937 -1.0970  0.7126  0.7458
  307SOL     MW 1228   1.462   0.520   1.896 -0.1404  0.6516 -0.3562
  308SOL     OW 1229   2.263   0.578   2.764  0.9439  0.0031 -0.0514
  308SOL    HW1 1230   2.362   0.578   2.774 -0.0657  2.5064 -2.0753
  308SOL    HW2 1231   2.244   0.672   2.758  0.5117  0.1344  3.5845
  308SOL     MW 1232   2.274   0.590   2.765  0.7537  0.3507  0.1613
  309SOL     OW 1233   0.500   0.537   0.279  0.1298 -0.1302  0.0987
  309SOL    HW1 1234   0.594   0.561   0.265  0.5659 -4.8106  0.7033
  309SOL    HW2 1235   0.514   0.439   0.268  2.6159  0.2819  2.7615
  309SOL     MW 1236   0.514   0.527   0.276  0.5154 -0.6934  0.5298
  310SOL     OW 1237   0.367   0.533   1.834 -0.0916 -0.3465 -0.1995
  310SOL    HW1 1238   0.411   0.469   1.776 -0.4958 -0.2875 -1.6239
  310SOL    HW2 1239   0.399   0.623   1.814 -0.9428  2.7633  0.1102
  310SOL     MW 1240   0.377   0.536   1.824 -0.2572  0.0716 -0.3465
  311SOL     OW 1241   2.005   0.665   1.934  0.1076  0.6880 -0.1621
  311SOL    HW1 1242   1.956   0.675   2.016 -2.3628 -2.8529  0.7561
  311SOL    HW2 1243   2.066   0.584   1.950  1.0891  2.6284 -0.2971
  311SOL     MW 1244   2.007   0.655   1.947 -0.0888  0.4769 -0.0588
  312SOL     OW 1245   1.724   2.481   0.159  0.1119 -0.0441 -0.0146
  312SOL    HW1 1246   1.708   2.436   0.245 -0.3641 -0.4100  1.5184
  312SOL    HW2 1247   1.668   2.557   0.158 -2.2677  0.2532  2.3349
  312SOL     MW 1248   1.715   2.485   0.170 -0.2649 -0.0532  0.4976
  313SOL     OW 1249   0.151   1.161   3.023 -0.3914 -0.6613  0.6250
  313SOL    HW1 1250   0.118   1.198   3.104 -1.9537 -0.8353 -0.6080
  313SOL    HW2 1251   0.161   1.229   2.951  0.5248  0.6001  0.2428
  313SOL     MW 1252   0.148   1.175   3.024 -0.4766 -0.5178  0.4119
  314SOL     OW 1253   2.193   2.890   3.102  0.6514 -0.1587 -0.1190
  314SOL    HW1 1254   2.115   2.912   3.041 -0.6538  0.2678 -0.9054
  314SOL    HW2 1255   2.242   2.969   3.106  3.3367  3.2695 -0.9045
  314SOL     MW 1256   2.189   2.903   3.094  0.8335  0.3499 -0.3264
  315SOL     OW 1257   1.540   1.854   3.011 -0.4557 -0.0829  0.0247
  315SOL    HW1 1258   1.486   1.906   3.071 -0.1045  0.9923  3.8076
  315SOL    HW2 1259   1.584   1.923   2.952  2.0857 -1.5039 -2.0106
  315SOL     MW 1260   1.539   1.870   3.011 -0.0740 -0.1285  0.2553
  316SOL     OW 1261   1.214   0.710   2.694  0.0886  0.3539  0.2169
  316SOL    HW1 1262   1.305   0.730   2.693 -1.7056 -0.7312  1.4942
  316SOL    HW2 1263   1.186   0.693   2.780  3.1161  0.6200 -0.0843
  316SOL     MW 1264   1.222   0.710   2.705  0.2513  0.2458  0.3457
  317SOL     OW 1265   0.712   1.633   2.603 -0.6080  1.1582 -0.6158
  317SOL    HW1 1266   0.754   1.543   2.606  2.2579 -0.9966 -2.9462
  317SOL    HW2 1267   0.705   1.647   2.514  2.5181 -0.5580  0.4001
  317SOL     MW 1268   0.717   1.623   2.592  0.1826  0.6475 -0.7892
  318SOL     OW 1269   1.356   0.407   2.885 -0.3022  0.0858 -0.1704
  318SOL    HW1 1270   1.277   0.462   2.877 -0.7935  3.3560 -0.3375
  318SOL    HW2 1271   1.432   0.453   2.854  1.4891 -0.5400  0.1292
  318SOL     MW 1272   1.356   0.421   2.880 -0.1307  0.4347 -0.1529
  319SOL     OW 1273   0.814   0.509   2.855  0.4335  0.0133  0.2129
  319SOL    HW1 1274   0.773   0.441   2.794  1.5780 -1.0963 -1.3752
  319SOL    HW2 1275   0.784   0.488   2.940  1.8110 -0.2098  0.8557
  319SOL     MW 1276   0.805   0.497   2.858  0.7662 -0.1625  0.0882
  320SOL     OW 1277   1.011   1.328   1.976 -0.3496 -0.0720  0.0907
  320SOL    HW1 1278   1.072   1.284   2.040 -1.2738 -0.3125  0.6497
  320SOL    HW2 1279   1.071   1.387   1.928  0.4891 -1.3175 -1.1903
  320SOL     MW 1280   1.027   1.330   1.978 -0.3609 -0.2681 -0.0046
  321SOL     OW 1281   1.040   0.901   3.047  0.1135 -0.0368 -0.0452
  321SOL    HW1 1282   0.977   0.895   2.973  1.3479  1.4446 -2.3015
  321SOL    HW2 1283   1.100   0.832   3.019 -1.6251  0.4892  1.6347
  321SOL     MW 1284   1.039   0.891   3.034  0.0470  0.2281 -0.1212
  322SOL     OW 1285   1.322   0.867   1.648  0.8636  0.2106 -0.0981
  322SOL    HW1 1286   1.332   0.771   1.632 -0.2791 -0.8552 -0.9494
  322SOL    HW2 1287   1.264   0.874   1.723  0.8894 -0.7878  0.0907
  322SOL     MW 1288   1.316   0.855   1.655  0.7162 -0.0618 -0.1855
  323SOL     OW 1289   1.194   1.527   1.885 -0.1574  0.1460 -0.1709
  323SOL    HW1 1290   1.218   1.549   1.794  1.4876  0.2426  0.2190
  323SOL    HW2 1291   1.205   1.608   1.934 -1.1530  0.9937  1.2715
  323SOL     MW 1292   1.199   1.541   1.879 -0.0717  0.2706  0.0708
  324SOL     OW 1293   1.445   0.927   2.512  0.2026 -0.4815 -0.4580
  324SOL    HW1 1294   1.384   0.985   2.566 -1.2877  2.5784  2.2537
  324SOL    HW2 1295   1.526   0.968   2.535 -2.4732 -1.4363 -2.6891
  324SOL     MW 1296   1.448   0.940   2.522 -0.3471 -0.2037 -0.3946
  325SOL     OW 1297   1.090   0.525   2.907 -0.0007 -0.1876 -0.2133
  325SOL    HW1 1298   1.092   0.544   3.005  2.7552 -0.5102  0.3915
  325SOL    HW2 1299   0.994   0.511   2.891  1.2126 -1.2094  0.3298
  325SOL     MW 1300   1.077   0.526   2.918  0.5230 -0.3650 -0.0618
  326SOL     OW 1301   0.408   1.375   2.342 -0.2089 -0.7688  0.7524
  326SOL    HW1 1302   0.482   1.354   2.284  0.7339 -0.8125  0.9362
  326SOL    HW2 1303   0.400   1.473   2.323  0.3443  1.9892 -2.0079
  326SOL     MW 1304   0.417   1.385   2.332 -0.0115 -0.4107  0.4124
  327SOL     OW 1305   1.966   0.762   2.435 -0.4234 -0.5129 -0.1906
  327SOL    HW1 1306   1.924   0.709   2.503 -3.2656  1.4434  0.7186
  327SOL    HW2 1307   1.972   0.843   2.487 -0.3028  0.6124 -2.2279
  327SOL     MW 1308   1.961   0.766   2.451 -0.7825 -0.1064 -0.3394
  328SOL     OW 1309   0.247   1.343   2.119  0.4019  0.2082 -0.4784
  328SOL    HW1 1310   0.185   1.269   2.140  1.5371  2.0517  2.3251
  328SOL    HW2 1311   0.298   1.341   2.203  1.7233 -2.6258  1.9229
  328SOL     MW 1312   0.246   1.333   2.133  0.7260  0.0775  0.2083
  329SOL     OW 1313   0.070   0.106   1.360 -0.2209  0.2692  0.2015
  329SOL    HW1 1314   0.041   0.115   1.458 -0.0379 -3.7493 -1.0683
  329SOL    HW2 1315   0.154   0.154   1.347 -1.4950  2.7370 -2.2531
  329SOL     MW 1316   0.077   0.114   1.372 -0.3648  0.0646 -0.2899
  330SOL     OW 1317   0.356   0.055   1.992 -0.3324  0.6291 -0.4046
  330SOL    HW1 1318   0.444   0.091   2.006  0.8181 -1.6262 -1.3721
  330SOL    HW2 1319   0.343  -0.009   2.061 -1.3347 -1.5184 -2.8476
  330SOL     MW 1320   0.366   0.051   2.003 -0.3128  0.0482 -0.8546
  331SOL     OW 1321   0.771   1.227   2.372 -0.0356  0.4214  0.2674
  331SOL    HW1 1322   0.715   1.284   2.314 -1.6004  2.0030 -2.6709
  331SOL    HW2 1323   0.800   1.293   2.429 -0.2266 -1.4896 -2.6151
  331SOL     MW 1324   0.768   1.243   2.372 -0.2673  0.3780 -0.5006
  332SOL     OW 1325   1.341   1.649   2.916  0.1572  0.0096  0.1739
  332SOL    HW1 1326   1.349   1.649   2.816  3.0906 -1.7443  0.2314
  332SOL    HW2 1327   1.381   1.734   2.939 -2.4571  2.0483  2.5256
  332SOL     MW 1328   1.347   1.660   2.906  0.1993  0.0472  0.4917
  333SOL     OW 1329   1.697   1.382   2.930 -0.3090 -0.3953 -0.2333
  333SOL    HW1 1330   1.785   1.338   2.928  1.9583  1.5677  3.9322
  333SOL    HW2 1331   1.652   1.330   2.992 -0.1292  1.5224 -2.4443
  333SOL     MW 1332   1.703   1.369   2.938  0.0138  0.1167  0.0246
  334SOL     OW 1333   1.336   3.066   2.629 -0.2955 -0.3119  0.8702
  334SOL    HW1 1334   1.302   3.068   2.715 -0.3098  2.4307 -2.2771
  334SOL    HW2 1335   1.395   3.140   2.633 -0.9240  0.8990  0.1231
  334SOL     MW 1336   1.339   3.076   2.641 -0.3803  0.2097  0.3563
  335SOL     OW 1337   1.277   0.759   2.995 -0.0996  0.6786  0.3614
  335SOL    HW1 1338   1.332   0.725   3.070 -1.3772 -0.3339 -5.8941
  335SOL    HW2 1339   1.350   0.773   2.936 -3.1908 -0.0078  0.6990
  335SOL     MW 1340   1.294   0.757   2.997 -0.6760  0.4544 -0.4194
  336SOL     OW 1341   0.922   1.151   1.714  0.3446 -0.3009 -0.5410
  336SOL    HW1 1342   0.852   1.198   1.769 -1.4604 -2.3644 -0.4671
  336SOL    HW2 1343   0.962   1.080   1.774  2.3025 -0.4059  2.4559
  336SOL     MW 1344   0.918   1.148   1.729  0.3648 -0.5870 -0.1358
  337SOL     OW 1345   0.472   1.943   2.796  0.3041 -0.0326  0.6782
  337SOL    HW1 1346   0.390   1.895   2.770 -0.7061  0.2540 -1.2091
  337SOL    HW2 1347   0.546   1.890   2.772 -1.9039 -0.8130 -1.3525
  337SOL     MW 1348   0.471   1.929   2.789 -0.1205 -0.0978  0.1612
  338SOL     OW 1349   1.093   0.752   2.448  0.5815  0.1502 -0.1129
  338SOL    HW1 1350   1.009   0.696   2.449  0.8651 -0.4507 -0.0590
  338SOL    HW2 1351   1.145   0.741   2.529  0.0575  1.7503  2.0244
  338SOL     MW 1352   1.088   0.743   2.459  0.5498  0.2821  0.1762
  339SOL     OW 1353   1.367   1.274   1.926 -0.7910  0.1457 -0.1549
  339SOL    HW1 1354   1.348   1.250   1.838  0.5587 -1.4867  0.2484
  339SOL    HW2 1355   1.284   1.247   1.966  0.0519 -0.3347  1.2775
  339SOL     MW 1356   1.353   1.267   1.920 -0.5017 -0.1331  0.0873
  340SOL     OW 1357   1.309   1.521   0.085  0.0977  0.5398  0.1812
  340SOL    HW1 1358   1.351   1.532   0.004  0.5985  1.3388 -1.3316
  340SOL    HW2 1359   1.365   1.456   0.137  0.8806 -0.5573  1.9144
  340SOL     MW 1360   1.322   1.514   0.081  0.2671  0.5004  0.2103
  341SOL     OW 1361   0.141   1.361   2.832 -0.4530  0.3681 -0.7158
  341SOL    HW1 1362   0.225   1.381   2.881 -1.1384  1.0024  1.1181
  341SOL    HW2 1363   0.170   1.326   2.747 -2.1360 -1.5254  0.9831
  341SOL     MW 1364   0.156   1.359   2.827 -0.7655  0.2020 -0.2497
  342SOL     OW 1365   1.388   0.330   0.040 -0.5789 -0.1654 -0.2002
  342SOL    HW1 1366   1.406   0.421   0.074  3.0423  1.8878  1.7585
  342SOL    HW2 1367   1.360   0.346  -0.053 -3.0198  4.8456 -0.6202
  342SOL     MW 1368   1.386   0.344   0.032 -0.4231  0.7666  0.0028
  343SOL     OW 1369   0.223   0.254   2.163  0.4695  0.5243 -0.0163
  343SOL    HW1 1370   0.289   0.187   2.131  1.8793  0.7725 -1.5585
  343SOL    HW2 1371   0.136   0.225   2.142  0.8089 -2.3650 -0.3766
  343SOL     MW 1372   0.221   0.241   2.156  0.7003  0.1758 -0.2673
  344SOL     OW 1373   1.708   2.024   0.176 -0.4211  0.4032 -0.1664
  344SOL    HW1 1374   1.731   2.100   0.129 -2.8846  0.0182  1.0281
  344SOL    HW2 1375   1.635   2.001   0.137  1.9886  1.6538  3.5213
  344SOL     MW 1376   1.701   2.031   0.165 -0.4282  0.5174  0.4777
  345SOL     OW 1377   0.654   1.621   2.319 -0.3042  0.1393 -0.0505
  345SOL    HW1 1378   0.559   1.634   2.337 -0.7121 -0.1090 -0.1277
  345SOL    HW2 1379   0.656   1.566   2.246  0.8412  1.3979 -1.0230
  345SOL     MW 1380   0.642   1.616   2.312 -0.2069  0.2726 -0.1890
  346SOL     OW 1381   1.685   1.154   0.037  0.2998  0.5200 -0.0786
  346SOL    HW1 1382   1.748   1.179   0.113  1.3566 -3.4833  1.5345
  346SOL    HW2 1383   1.658   1.063   0.058  0.8376  0.7889  3.0032
  346SOL     MW 1384   1.690   1.145   0.050  0.5102  0.0273  0.5408
  347SOL     OW 1385   1.174   0.640   2.225  0.1158  0.7243  0.1643
  347SOL    HW1 1386   1.233   0.568   2.261 -0.1424  0.4419  0.1958
  347SOL    HW2 1387   1.149   0.675   2.312 -0.7233 -1.6113  0.0527
  347SOL     MW 1388   1.179   0.635   2.242 -0.0289  0.3788  0.1538
  348SOL     OW 1389   1.307   2.579   1.955 -0.3145  0.2010  0.4988
  348SOL    HW1 1390   1.324   2.506   2.027 -0.7792  1.1786  0.9742
  348SOL    HW2 1391   1.352   2.654   1.996  2.7177  3.0743 -0.7185
  348SOL     MW 1392   1.315   2.579   1.970  0.0243  0.7091  0.4009
  349SOL     OW 1393   1.485   0.172   2.769  0.3927 -0.0197 -0.7132
  349SOL    HW1 1394   1.431   0.248   2.803 -0.0466 -0.8677  1.2138
  349SOL    HW2 1395   1.501   0.133   2.853 -1.1751  2.8824  1.2120
  349SOL     MW 1396   1.480   0.177   2.785  0.1279  0.2513 -0.2049
  350SOL     OW 1397   1.861   0.633   2.652  0.1178  0.1010 -0.3599
  350SOL    HW1 1398   1.799   0.567   2.621  1.6236  1.1759 -2.0786
  350SOL    HW2 1399   1.923   0.585   2.722  2.0287  0.6600 -0.4838
  350SOL     MW 1400   1.861   0.618   2.657  0.5686  0.3166 -0.6030
  351SOL     OW 1401   0.079   1.191   1.552  0.5492  0.2241  0.4861
  351SOL    HW1 1402   0.096   1.110   1.602 -1.3417 -1.7075 -1.6523
  351SOL    HW2 1403   0.135   1.259   1.595  1.7275  2.1133 -1.3987
  351SOL     MW 1404   0.089   1.189   1.564  0.4552  0.2185 -0.0448
  352SOL     OW 1405   0.744   1.830   2.777  0.1707 -0.6943  0.0273
  352SOL    HW1 1406   0.733   1.790   2.863 -0.6772 -0.8284  1.0754
  352SOL    HW2 1407   0.727   1.758   2.711  0.7959 -1.8641 -1.2306
  352SOL     MW 1408   0.740   1.815   2.780  0.1413 -0.8664 -0.0004
  353SOL     OW 1409   3.082   2.580   2.627 -0.1495 -0.7527  0.2998
  353SOL    HW1 1410   3.154   2.517   2.619  2.6974  0.5452  0.2963
  353SOL    HW2 1411   3.101   2.635   2.551 -1.3333 -0.5509  1.8264
  353SOL     MW 1412   3.094   2.579   2.616  0.0699 -0.5548  0.5008
  354SOL     OW 1413   0.379   2.414   0.836 -0.1499 -0.2460 -0.5052
  354SOL    HW1 1414   0.429   2.389   0.918  1.6482  1.7227  0.3154
  354SOL    HW2 1415   0.298   2.355   0.840  1.4781  1.0481  0.4579
  354SOL     MW 1416   0.375   2.403   0.848  0.3021  0.1845 -0.2698
  355SOL     OW 1417   0.115   2.221   0.389  0.4560  0.0635 -0.0745
  355SOL    HW1 1418   0.032   2.160   0.372  1.3601 -1.3989  1.7491
  355SOL    HW2 1419   0.108   2.263   0.476  2.2827 -1.8174 -1.8310
  355SOL     MW 1420   0.103   2.219   0.398  0.8163 -0.3776 -0.0656
  356SOL     OW 1421   0.757   2.950   1.054 -0.2226  0.4691 -0.4625
  356SOL    HW1 1422   0.814   2.953   0.975  0.3215 -0.5808  0.8650
  356SOL    HW2 1423   0.682   2.897   1.024 -4.7272  4.3449 -2.3429
  356SOL     MW 1424   0.755   2.943   1.039 -0.7451  0.8420 -0.5354
  357SOL     OW 1425   1.843   2.791   0.459 -0.1594 -0.0352  0.5467
  357SOL    HW1 1426   1.816   2.739   0.536  1.8616  0.4532  2.5153
  357SOL    HW2 1427   1.931   2.747   0.448  0.0250  1.9011 -2.8677
  357SOL     MW 1428   1.851   2.779   0.468  0.1316  0.2847  0.3559
  358SOL     OW 1429   0.420   0.149   1.063 -0.0979  0.0095  0.0925
  358SOL    HW1 1430   0.516   0.156   1.083  1.4315 -1.0215  0.4055
  358SOL    HW2 1431   0.405   0.190   0.978  0.4186  0.1504 -0.2227
  358SOL     MW 1432   0.431   0.155   1.054  0.1720 -0.1079  0.0922
  359SOL     OW 1433   0.867   2.984   1.867  0.8081 -0.2327  0.5538
  359SOL    HW1 1434   0.858   2.901   1.923 -0.0536 -0.5286  0.2380
  359SOL    HW2 1435   0.873   2.940   1.780 -2.0748 -4.2977 -1.3800
  359SOL     MW 1436   0.867   2.967   1.863  0.3140 -0.8081  0.2570
  360SOL     OW 1437   0.587   2.765   0.937  0.0366 -0.4084 -0.0758
  360SOL    HW1 1438   0.615   2.751   0.848 -2.0235 -2.1350 -0.2385
  360SOL    HW2 1439   0.602   2.676   0.982  0.5168  1.4319  2.4280
  360SOL     MW 1440   0.593   2.751   0.931 -0.1718 -0.3934  0.2331
  361SOL     OW 1441   0.176   2.692   1.395 -0.4976  0.7562 -0.0417
  361SOL    HW1 1442   0.116   2.727   1.466 -2.0444  0.9668  0.4460
  361SOL    HW2 1443   0.252   2.746   1.394 -0.9740 -2.6124 -0.4467
  361SOL     MW 1444   0.178   2.703   1.404 -0.7645  0.3395 -0.0308
  362SOL     OW 1445   1.371   2.423   0.619 -0.2925  0.1542  0.1243
  362SOL    HW1 1446   1.404   2.356   0.679 -0.0679 -0.6524  1.3119
  362SOL    HW2 1447   1.420   2.509   0.621  2.1551  1.8150 -2.4745
  362SOL     MW 1448   1.382   2.426   0.627  0.0601  0.2669 -0.0619
  363SOL     OW 1449   0.314   0.007   0.687  0.1615 -0.3139 -0.4649
  363SOL    HW1 1450   0.328  -0.078   0.732  0.3635 -2.4574 -2.1199
  363SOL    HW2 1451   0.237  -0.008   0.632 -0.1558 -1.3173 -1.3921
  363SOL     MW 1452   0.305  -0.006   0.686  0.1463 -0.7291 -0.8056
  364SOL     OW 1453   0.799   0.200   0.145 -0.2163  0.2940  0.1811
  364SOL    HW1 1454   0.745   0.134   0.184 -0.3155  3.0826  1.9571
  364SOL    HW2 1455   0.734   0.263   0.102 -2.6001  2.2092  0.7027
  364SOL     MW 1456   0.783   0.199   0.145 -0.5439  0.9146  0.4843
  365SOL     OW 1457   0.882   2.029   1.291 -0.1376  0.1531  0.0574
  365SOL    HW1 1458   0.867   2.090   1.218  0.0148  1.1096  0.0300
  365SOL    HW2 1459   0.902   1.943   1.256  2.2934 -1.5784 -2.6521
  365SOL     MW 1460   0.883   2.026   1.277  0.2033  0.0509 -0.3037
  366SOL     OW 1461   2.899   2.662   0.958 -0.5691  0.0436  0.3360
  366SOL    HW1 1462   2.981   2.637   0.994  2.2031 -2.5677 -1.8730
  366SOL    HW2 1463   2.917   2.692   0.864  0.7245 -0.0431  0.0580
  366SOL     MW 1464   2.912   2.663   0.950 -0.0326 -0.3124  0.0079
  367SOL     OW 1465   1.277   3.011   1.012  0.8500  0.4535  0.0525
  367SOL    HW1 1466   1.370   3.044   1.015 -1.1548  0.4655  0.1713
  367SOL    HW2 1467   1.271   2.984   0.923 -2.6270  1.4611  1.8347
  367SOL     MW 1468   1.288   3.012   1.001  0.1267  0.5880  0.3033
  368SOL     OW 1469   1.695   0.434   0.604  0.2802 -0.2291 -0.1665
  368SOL    HW1 1470   1.753   0.364   0.577 -0.8381 -0.9348 -3.6619
  368SOL    HW2 1471   1.725   0.507   0.549 -1.2970 -1.7328  0.4225
  368SOL     MW 1472   1.706   0.434   0.593 -0.0754 -0.5206 -0.5500
  369SOL     OW 1473   0.148   2.393   1.753  0.2889  0.6647  0.1954
  369SOL    HW1 1474   0.241   2.400   1.766  2.4484  1.9475 -0.2018
  369SOL    HW2 1475   0.120   2.484   1.745  0.1675  0.1567 -0.4908
  369SOL     MW 1476   0.157   2.406   1.753  0.5578  0.7670  0.0524
  370SOL     OW 1477   0.715   0.129   1.060  0.2366  0.0746  0.4646
  370SOL    HW1 1478   0.701   0.113   0.969  1.1473 -0.3912  0.1400
  370SOL    HW2 1479   0.750   0.036   1.082 -0.2226  0.5876  1.0809
  370SOL     MW 1480   0.718   0.114   1.051  0.2961  0.0808  0.5031
  371SOL     OW 1481   1.123   2.901   1.475 -0.1639 -0.1763 -0.1708
  371SOL    HW1 1482   1.171   2.832   1.425 -0.1503 -1.7152  3.0895
  371SOL    HW2 1483   1.095   2.973   1.420 -0.0602 -0.1023 -2.2220
  371SOL     MW 1484   1.126   2.901   1.461 -0.1484 -0.3696 -0.0113
  372SOL     OW 1485   0.799   2.316   0.464  0.0372 -0.3881  0.1614
  372SOL    HW1 1486   0.785   2.230   0.507  2.0342  0.6909  1.3063
  372SOL    HW2 1487   0.833   2.297   0.375 -1.2768  0.5266 -0.1950
  372SOL     MW 1488   0.801   2.303   0.458  0.1273 -0.1250  0.2654
  373SOL     OW 1489   2.827   2.988   1.417 -0.7404 -0.6348 -0.3927
  373SOL    HW1 1490   2.920   2.968   1.401 -2.3570 -0.0230 -0.1257
  373SOL    HW2 1491   2.804   3.055   1.362  1.7494  1.9451  0.9108
  373SOL     MW 1492   2.836   2.995   1.408 -0.6252 -0.2137 -0.1855
  374SOL     OW 1493   1.598   0.485   0.261 -0.2421 -0.0954 -0.2738
  374SOL    HW1 1494   1.675   0.435   0.235  1.5047 -2.1670  1.0555
  374SOL    HW2 1495   1.553   0.430   0.319  0.0019  1.1162 -1.2083
  374SOL     MW 1496   1.602   0.471   0.265  0.0206 -0.2089 -0.2217
  375SOL     OW 1497   1.098   2.066   2.228  0.5138 -0.3877 -0.3526
  375SOL    HW1 1498   1.099   2.052   2.325  1.9048  0.1810  0.1689
  375SOL    HW2 1499   1.022   2.029   2.185 -0.6986  0.6392 -0.2803
  375SOL     MW 1500   1.088   2.060   2.235  0.5373 -0.1772 -0.2742
  376SOL     OW 1501   0.817   2.526   0.134  0.3659 -0.1390  0.3012
  376SOL    HW1 1502   0.760   2.468   0.189 -1.2471 -1.1986  3.4112
  376SOL    HW2 1503   0.841   2.483   0.050  3.3139 -1.6418 -0.8397
  376SOL     MW 1504   0.812   2.513   0.130  0.5420 -0.4771  0.5610
  377SOL     OW 1505   1.344   2.086   0.924 -0.5496  0.2477  0.2630
  377SOL    HW1 1506   1.266   2.060   0.873 -0.6231  0.4547 -0.8244
  377SOL    HW2 1507   1.383   2.010   0.974  0.7664 -0.5825  1.8224
  377SOL     MW 1508   1.339   2.073   0.924 -0.3857  0.1655  0.3252
  378SOL     OW 1509   0.886   2.869   1.595 -0.1279  0.5542  1.2612
  378SOL    HW1 1510   0.906   2.780   1.635  0.7120 -4.4729  1.0843
  378SOL    HW2 1511   0.965   2.877   1.541 -0.4424  0.4139 -3.3035
  378SOL     MW 1512   0.899   2.859   1.593 -0.0585 -0.1276  0.6356
  379SOL     OW 1513   1.062   1.558   2.292 -0.4462 -0.2630  0.0922
  379SOL    HW1 1514   0.986   1.575   2.232 -0.5500 -0.1132 -0.0038
  379SOL    HW2 1515   1.133   1.557   2.228  1.9049  0.3488  0.2563
  379SOL     MW 1516   1.061   1.560   2.275 -0.1497 -0.1625  0.1012
  380SOL     OW 1517   0.890   0.132   1.488  0.6716 -0.0663  0.6768
  380SOL    HW1 1518   0.896   0.053   1.430  0.8630 -0.1213  2.2846
  380SOL    HW2 1519   0.943   0.114   1.567  1.0579  0.4599 -1.6631
  380SOL     MW 1520   0.898   0.119   1.491  0.7478 -0.0041  0.5802
  381SOL     OW 1521   0.836   2.057   0.883 -0.2478  0.1077  0.7889
  381SOL    HW1 1522   0.932   2.042   0.869  1.5102  0.2943 -0.1588
  381SOL    HW2 1523   0.828   2.128   0.944  0.4182 -1.8516 -0.1574
  381SOL     MW 1524   0.848   2.065   0.889  0.0720 -0.1262  0.5390
  382SOL     OW 1525   0.859   0.127   0.598  0.4028 -0.5805  0.4308
  382SOL    HW1 1526   0.824   0.175   0.679 -2.1974  0.0611  1.3729
  382SOL    HW2 1527   0.808   0.050   0.588  1.5961  0.6935  0.9127
  382SOL     MW 1528   0.848   0.123   0.608  0.2172 -0.3278  0.6187
  383SOL     OW 1529   0.644   0.018   0.310  0.0465 -0.4978  0.1416
  383SOL    HW1 1530   0.694  -0.062   0.296 -0.7855  1.2167  1.1340
  383SOL    HW2 1531   0.571  -0.022   0.353  2.1465  0.2759 -1.0246
  383SOL     MW 1532   0.641   0.002   0.314  0.2138 -0.1695  0.1187
  384SOL     OW 1533   0.767   2.972   0.607  0.0431 -0.0890 -0.0941
  384SOL    HW1 1534   0.845   2.972   0.666 -1.8442 -1.3324 -2.6144
  384SOL    HW2 1535   0.714   2.892   0.631  2.5786  1.0502  2.2113
  384SOL     MW 1536   0.770   2.961   0.618  0.1286 -0.1027 -0.1224
  385SOL     OW 1537   1.358   2.064   1.526  0.3933 -0.1725  0.3533
  385SOL    HW1 1538   1.444   2.089   1.565  3.2035 -0.1493 -0.1685
  385SOL    HW2 1539   1.328   1.989   1.579 -2.7777  0.1064 -0.2418
  385SOL     MW 1540   1.365   2.057   1.538  0.3457 -0.1326  0.2059
  386SOL     OW 1541   1.467   0.411   0.857 -0.1951 -0.8604 -0.3475
  386SOL    HW1 1542   1.399   0.462   0.903 -0.0150 -0.6548 -1.4199
  386SOL    HW2 1543   1.549   0.401   0.905 -0.0963 -2.0244 -2.4308
  386SOL     MW 1544   1.469   0.417   0.869 -0.1583 -0.9869 -0.7639
  387SOL     OW 1545   0.783   2.244   1.569 -0.0205  0.8794 -0.2074
  387SOL    HW1 1546   0.860   2.283   1.525  1.5425  1.5391 -1.4234
  387SOL    HW2 1547   0.795   2.146   1.563  0.0029  3.3610  0.4724
  387SOL     MW 1548   0.795   2.236   1.563  0.1888  1.2939 -0.2782
  388SOL     OW 1549   1.452   2.801   1.464  0.0523  0.3644  1.1385
  388SOL    HW1 1550   1.426   2.860   1.388 -3.2248 -2.6092  1.7850
  388SOL    HW2 1551   1.512   2.739   1.429  0.7902  1.3554  3.1577
  388SOL     MW 1552   1.457   2.801   1.450 -0.2827  0.1028  1.4902
  389SOL     OW 1553   0.469   0.129   3.062 -0.4112 -0.3273 -0.1537
  389SOL    HW1 1554   0.518   0.056   3.023  0.8883 -1.4965  1.9598
  389SOL    HW2 1555   0.453   0.197   2.988 -0.0080 -0.1503  0.1027
  389SOL     MW 1556   0.474   0.128   3.047 -0.1865 -0.4582  0.1590
  390SOL     OW 1557   1.373   0.020   0.720  0.4279 -0.4601 -0.4431
  390SOL    HW1 1558   1.396  -0.019   0.639 -1.1587  0.1714  0.4857
  390SOL    HW2 1559   1.458   0.062   0.759 -1.2151  2.2653  0.2340
  390SOL     MW 1560   1.387   0.021   0.715  0.0018 -0.0172 -0.2312
  391SOL     OW 1561   0.310   2.167   1.518 -0.2263 -0.3926 -0.0665
  391SOL    HW1 1562   0.336   2.153   1.612 -0.0749 -0.2224  2.0907
  391SOL    HW2 1563   0.287   2.258   1.498  0.4800 -0.6305 -2.0130
  391SOL     MW 1564   0.311   2.177   1.527 -0.1132 -0.4015 -0.0387
  392SOL     OW 1565   1.936   2.156   0.312 -0.0176 -0.4294  0.2623
  392SOL    HW1 1566   1.994   2.231   0.320  1.0132 -0.1652 -0.2671
  392SOL    HW2 1567   1.850   2.188   0.331  1.2533 -1.1379 -0.9112
  392SOL     MW 1568   1.933   2.170   0.315  0.2861 -0.4880  0.0376
  393SOL     OW 1569   0.244   2.955   2.825 -0.2171 -0.0039 -0.6489
  393SOL    HW1 1570   0.327   2.956   2.773  0.5556 -0.4961 -1.1492
  393SOL    HW2 1571   0.214   3.045   2.829 -0.9023  0.7048  1.6762
  393SOL     MW 1572   0.251   2.967   2.819 -0.2056  0.0247 -0.4081
  394SOL     OW 1573   1.007   1.788   1.553 -0.8554 -0.2812  0.3865
  394SOL    HW1 1574   1.019   1.794   1.650  0.6096  0.6111 -1.0669
  394SOL    HW2 1575   0.952   1.864   1.535  1.2232 -0.3861  1.4074
  394SOL     MW 1576   1.002   1.799   1.563 -0.3878 -0.1773  0.3294
  395SOL     OW 1577   0.954   2.939   2.708 -0.0612  0.5460  0.4396
  395SOL    HW1 1578   1.011   3.018   2.739 -0.7878 -0.1481 -0.0039
  395SOL    HW2 1579   1.016   2.875   2.675  2.0583 -0.1302 -0.2265
  395SOL     MW 1580   0.970   2.941   2.707  0.1225  0.3652  0.2932
  396SOL     OW 1581   0.727   1.884   2.357 -0.7530 -0.7297 -0.3433
  396SOL    HW1 1582   0.783   1.882   2.434 -1.6348 -0.2880  0.9545
  396SOL    HW2 1583   0.718   1.788   2.342  3.2225 -2.2948  1.9692
  396SOL     MW 1584   0.733   1.871   2.365 -0.3448 -0.8779  0.1330
  397SOL     OW 1585   1.007   2.291   1.377  0.1751 -0.1352 -0.1437
  397SOL    HW1 1586   1.050   2.322   1.301  1.2975 -3.1248  0.6331
  397SOL    HW2 1587   1.089   2.273   1.422  1.8047 -0.1329  0.2030
  397SOL     MW 1588   1.023   2.292   1.373  0.5382 -0.5293  0.0045
  398SOL     OW 1589   0.642   2.732   0.653  0.6092  0.1023  0.0244
  398SOL    HW1 1590   0.606   2.720   0.564 -0.9657 -1.0545 -1.3206
  398SOL    HW2 1591   0.721   2.675   0.669 -1.3043 -2.2034  2.2369
  398SOL     MW 1592   0.648   2.723   0.644  0.1490 -0.3545  0.1388
  399SOL     OW 1593   0.322   2.061   0.362 -0.7465 -0.5141  0.2924
  399SOL    HW1 1594   0.256   2.129   0.379 -0.0989  1.3969  1.4820
  399SOL    HW2 1595   0.384   2.103   0.299  1.7853  0.8180 -0.8767
  399SOL     MW 1596   0.321   2.076   0.356 -0.3270 -0.0862  0.2951
  400SOL     OW 1597   0.591   1.934   0.092  0.1733 -0.2341  0.2113
  400SOL    HW1 1598   0.578   2.030   0.121  0.1663  3.6776  2.3817
  400SOL    HW2 1599   0.573   1.893   0.179  0.2910 -0.2325  2.1293
  400SOL     MW 1600   0.587   1.941   0.108  0.1879  0.2822  0.7507
  401SOL     OW 1601   0.863   2.036  -0.001 -0.3709 -0.1652 -0.5303
  401SOL    HW1 1602   0.943   1.980   0.002 -0.7172  0.6250  1.0366
  401SOL    HW2 1603   0.782   1.983   0.013  1.6075 -1.7494 -0.7262
  401SOL     MW 1604   0.863   2.022   0.001 -0.1556 -0.2699 -0.3494
  402SOL     OW 1605   0.620   3.004   1.813 -0.2435 -0.1385  0.6140
  402SOL    HW1 1606   0.705   3.014   1.853 -1.3618  1.6935  1.9134
  402SOL    HW2 1607   0.627   3.069   1.748  2.2233 -2.9477  0.3983
  402SOL     MW 1608   0.632   3.014   1.809 -0.0656 -0.2675  0.7570
  403SOL     OW 1609   0.148   0.495   0.395 -0.2457 -0.1299  0.5606
  403SOL    HW1 1610   0.232   0.532   0.430 -0.6358  0.5108  1.0332
  403SOL    HW2 1611   0.181   0.446   0.326 -0.5960  0.1913  0.5878
  403SOL     MW 1612   0.163   0.493   0.391 -0.3434 -0.0030  0.6266
  404SOL     OW 1613   0.928   2.956   0.835  0.5872  0.0869 -0.3041
  404SOL    HW1 1614   1.002   2.891   0.826 -0.3556 -0.4475  1.2548
  404SOL    HW2 1615   0.973   3.039   0.833  0.4080 -0.4798 -0.5638
  404SOL     MW 1616   0.943   2.958   0.833  0.4392 -0.0584 -0.1327
  405SOL     OW 1617   0.527   2.463   1.512 -0.1105 -0.1282  0.1496
  405SOL    HW1 1618   0.542   2.557   1.478  2.3560  1.3110 -0.5495
  405SOL    HW2 1619   0.550   2.401   1.443  1.0483 -0.1466  3.1448
  405SOL     MW 1620   0.532   2.467   1.498  0.3678  0.0592  0.4525
  406SOL     OW 1621   0.456   2.353   1.089  0.2631  0.0622 -0.2806
  406SOL    HW1 1622   0.375   2.359   1.141  1.2383 -3.0095  2.5453
  406SOL    HW2 1623   0.475   2.264   1.115  1.4111 -0.8255  1.0462
  406SOL     MW 1624   0.448   2.342   1.099  0.5432 -0.4602  0.2673
  407SOL     OW 1625   0.041   2.642   1.101  0.1229 -0.0872 -0.6502
  407SOL    HW1 1626   0.083   2.646   1.185  2.4509 -0.3557  0.0273
  407SOL    HW2 1627   0.113   2.645   1.034  0.1981  1.6054  0.8479
  407SOL     MW 1628   0.056   2.643   1.103  0.4400  0.1007 -0.3631
  408SOL     OW 1629   2.140   2.142   0.706  0.1385  0.1999 -0.6319
  408SOL    HW1 1630   2.087   2.207   0.763 -1.1922  0.3256  2.5587
  408SOL    HW2 1631   2.075   2.092   0.644 -0.6724  0.1850  1.0147
  408SOL     MW 1632   2.124   2.144   0.706 -0.1440  0.2145  0.0063
  409SOL     OW 1633   1.609   0.092   0.833 -0.5312  0.0904  0.1542
  409SOL    HW1 1634   1.626   0.185   0.824  2.1565 -0.0137 -2.0279
  409SOL    HW2 1635   1.583   0.077   0.925 -0.7413 -1.6189 -0.1999
  409SOL     MW 1636   1.608   0.102   0.844 -0.2043 -0.1489 -0.1804
  410SOL     OW 1637   1.105   2.420   1.149 -0.0909  0.1484  0.1374
  410SOL    HW1 1638   1.032   2.429   1.089 -0.8318  2.8864  1.3425
  410SOL    HW2 1639   1.183   2.397   1.096  0.1289 -0.9159 -1.7713
  410SOL     MW 1640   1.106   2.418   1.134 -0.1596  0.3692  0.0446
  411SOL     OW 1641   1.985   2.935   2.917 -0.0899 -0.0362 -0.3125
  411SOL    HW1 1642   2.015   2.914   2.829  0.9491  2.3631 -1.5210
  411SOL    HW2 1643   1.958   3.027   2.916  1.0450 -1.8037  1.1166
  411SOL     MW 1644   1.986   2.945   2.905  0.1969  0.0472 -0.2834
  412SOL     OW 1645   1.050   2.254   0.637 -0.8939 -0.9100 -0.3760
  412SOL    HW1 1646   1.061   2.347   0.665  2.0600  0.2577 -0.0005
  412SOL    HW2 1647   0.964   2.254   0.604  0.5699 -0.9961  1.8073
  412SOL     MW 1648   1.040   2.266   0.637 -0.3111 -0.7673 -0.0384
  413SOL     OW 1649   0.633   2.692   0.039  0.0270  0.0539 -0.2330
  413SOL    HW1 1650   0.690   2.629   0.091 -0.7025 -1.4355  2.0442
  413SOL    HW2 1651   0.657   2.684  -0.056 -0.8697 -0.5116 -1.7525
  413SOL     MW 1652   0.644   2.683   0.033 -0.1876 -0.2172 -0.1330
  414SOL     OW 1653   2.032   3.001   1.097  0.2207 -0.7185  0.3377
  414SOL    HW1 1654   2.083   3.080   1.092  0.4607 -1.3727 -1.0947
  414SOL    HW2 1655   2.017   2.995   1.007  2.4243 -2.1924  0.8105
  414SOL     MW 1656   2.037   3.010   1.085  0.5431 -0.9993  0.2111
  415SOL     OW 1657   1.635   2.842   1.127  0.7286 -0.2610  0.4064
  415SOL    HW1 1658   1.693   2.881   1.194  0.5480 -0.6333 -0.6475
  415SOL    HW2 1659   1.676   2.765   1.090 -2.7777 -0.8972  0.2259
  415SOL     MW 1660   1.648   2.837   1.131  0.2422 -0.3940  0.2435
  416SOL     OW 1661   0.630   1.765   1.436 -0.0096  1.0444 -0.3615
  416SOL    HW1 1662   0.556   1.808   1.404 -2.1150 -1.8261  0.7098
  416SOL    HW2 1663   0.660   1.704   1.366  1.5550 -0.1867 -0.8704
  416SOL     MW 1664   0.624   1.762   1.423 -0.0810  0.5032 -0.2873
  417SOL     OW 1665   0.948   0.057   2.050 -0.4575  0.2399 -0.2991
  417SOL    HW1 1666   0.883   0.057   2.121  1.6276 -0.0114 -1.9718
  417SOL    HW2 1667   0.919  -0.002   1.982 -1.8073 -0.3021  0.4046
  417SOL     MW 1668   0.936   0.049   2.050 -0.3605  0.1352 -0.4269
  418SOL     OW 1669   0.781   2.888   0.180  0.7953 -0.4990 -0.0434
  418SOL    HW1 1670   0.854   2.891   0.116  1.8074  0.9317  0.5194
  418SOL    HW2 1671   0.716   2.832   0.126  0.1171  1.0662 -2.9702
  418SOL     MW 1672   0.782   2.881   0.164  0.8394 -0.1037 -0.3553
  419SOL     OW 1673   0.628   2.689   1.337  0.0853  0.2387 -0.2647
  419SOL    HW1 1674   0.646   2.778   1.361 -0.2625 -0.7103 -3.3861
  419SOL    HW2 1675   0.715   2.651   1.344  2.1274 -0.8750 -3.9723
  419SOL     MW 1676   0.642   2.696   1.341  0.3088 -0.0335 -1.1657
  420SOL     OW 1677   0.801   2.245   1.105  0.7736 -0.1504 -0.1468
  420SOL    HW1 1678   0.740   2.256   1.183  1.1348  0.1905  0.1950
  420SOL    HW2 1679   0.792   2.324   1.057  0.2425 -1.5683 -0.0707
  420SOL     MW 1680   0.792   2.257   1.109  0.7512 -0.2925 -0.0917
  421SOL     OW 1681   2.888   0.168   0.088  0.2577 -0.3662  0.4693
  421SOL    HW1 1682   2.807   0.127   0.061  1.5334  0.2088 -0.4530
  421SOL    HW2 1683   2.957   0.101   0.104  0.5323 -0.1612 -0.6553
  421SOL     MW 1684   2.887   0.154   0.087  0.4623 -0.2632  0.1992
  422SOL     OW 1685   0.869   2.478   0.971 -0.4056 -0.5845  0.3917
  422SOL    HW1 1686   0.803   2.531   1.011 -0.0093 -0.1525 -0.7670
  422SOL    HW2 1687   0.850   2.493   0.881 -0.8795 -0.0223  1.0291
  422SOL     MW 1688   0.858   2.487   0.964 -0.4158 -0.4533  0.3229
  423SOL     OW 1689   1.510   0.032   0.488  0.2927 -0.2279 -0.0350
  423SOL    HW1 1690   1.552  -0.006   0.406  1.1883  0.1625 -2.2901
  423SOL    HW2 1691   1.508   0.125   0.473  3.3036 -0.8173 -1.8438
  423SOL     MW 1692   1.515   0.040   0.475  0.8081 -0.2542 -0.5712
  424SOL     OW 1693   0.666   2.282   1.338 -0.1699  0.0987  0.5147
  424SOL    HW1 1694   0.598   2.219   1.322 -3.0142  2.4465  1.6721
  424SOL    HW2 1695   0.706   2.262   1.425 -0.6875  3.4548  2.9440
  424SOL     MW 1696   0.662   2.271   1.348 -0.6135  0.8513  0.9879
  425SOL     OW 1697   1.700   2.803   2.049  0.5645 -0.3839  0.2032
  425SOL    HW1 1698   1.715   2.851   1.964 -3.1903  0.9301 -1.4146
  425SOL    HW2 1699   1.750   2.721   2.048 -0.5587 -1.3087 -0.9360
  425SOL     MW 1700   1.709   2.799   2.038 -0.0791 -0.3326 -0.1605
  426SOL     OW 1701   0.877   1.678   1.940 -0.7434 -0.0636 -0.1149
  426SOL    HW1 1702   0.842   1.657   1.849  0.9983 -0.4713 -2.0626
  426SOL    HW2 1703   0.854   1.769   1.951 -0.2084 -3.1423 -0.3885
  426SOL     MW 1704   0.869   1.687   1.929 -0.4430 -0.5236 -0.4080
  427SOL     OW 1705   0.379   1.760   1.867 -0.2242 -0.0156 -0.7765
  427SOL    HW1 1706   0.397   1.681   1.821 -2.5499  3.5014  0.9005
  427SOL    HW2 1707   0.317   1.734   1.938  1.0948  0.2860  2.0259
  427SOL     MW 1708   0.374   1.746   1.870 -0.3570  0.4882 -0.1855
  428SOL     OW 1709   0.651   2.561   1.083  0.7154 -0.2686 -0.0069
  428SOL    HW1 1710   0.577   2.497   1.090 -0.7919 -1.1915  0.7833
  428SOL    HW2 1711   0.638   2.606   1.163  4.2878 -2.1707  0.0502
  428SOL     MW 1712   0.640   2.558   1.094  0.9879 -0.6413  0.1049
  429SOL     OW 1713   1.194   2.755   1.084  0.1930  0.5107  0.2247
  429SOL    HW1 1714   1.106   2.768   1.120 -0.3917 -0.6995  2.1147
  429SOL    HW2 1715   1.225   2.842   1.093  0.5524  0.6383 -0.2112
  429SOL     MW 1716   1.186   2.768   1.090  0.1633  0.3679  0.4165
  430SOL     OW 1717   1.164   2.820   0.817  0.0595  0.4883 -0.0748
  430SOL    HW1 1718   1.149   2.769   0.899  0.5076  0.0149 -0.3018
  430SOL    HW2 1719   1.127   2.761   0.755  1.8945 -0.4246 -1.5355
  430SOL     MW 1720   1.157   2.806   0.820  0.3608  0.3054 -0.2974
  431SOL     OW 1721   0.328   1.916   1.106 -0.4211  0.1934  0.1237
  431SOL    HW1 1722   0.388   1.844   1.086  1.2758 -2.8079  0.5924
  431SOL    HW2 1723   0.304   1.953   1.025  0.8519 -1.6589  0.3101
  431SOL     MW 1724   0.333   1.911   1.093 -0.0293 -0.4470  0.2101
  432SOL     OW 1725   0.029   3.087   1.116 -0.4360  0.2233 -0.1297
  432SOL    HW1 1726   0.047   3.130   1.201  0.0522  0.0977  2.5290
  432SOL    HW2 1727  -0.021   3.008   1.125 -0.2281  4.2287  2.2003
  432SOL     MW 1728   0.024   3.082   1.128 -0.3442  0.7352  0.5285
  433SOL     OW 1729   0.635   2.919   1.488 -0.3070 -0.0212  0.1933
  433SOL    HW1 1730   0.604   3.005   1.514  2.2260  2.0282  1.0245
  433SOL    HW2 1731   0.724   2.897   1.522  4.0159 -1.1961  0.1685
  433SOL     MW 1732   0.643   2.928   1.496  0.5976  0.0942  0.2997
  434SOL     OW 1733   1.498   2.834   1.726 -0.5501 -0.1874  0.3915
  434SOL    HW1 1734   1.413   2.864   1.761 -2.0209  0.1900  1.1371
  434SOL    HW2 1735   1.478   2.846   1.630  0.5484  0.3893  1.6040
  434SOL     MW 1736   1.484   2.840   1.718 -0.5992 -0.0615  0.6499
  435SOL     OW 1737   2.698   1.773   0.235  0.3184  0.5370  0.7876
  435SOL    HW1 1738   2.746   1.822   0.163 -0.7928  0.0650  1.4883
  435SOL    HW2 1739   2.614   1.797   0.217  1.1985  1.1287  1.3357
  435SOL     MW 1740   2.694   1.783   0.223  0.2879  0.5528  0.9524
  436SOL     OW 1741   1.343   2.724   0.359  0.2310  0.7752  0.1497
  436SOL    HW1 1742   1.407   2.695   0.423 -0.2864  2.3321 -2.3495
  436SOL    HW2 1743   1.294   2.800   0.388 -1.5363  1.2129  1.0731
  436SOL     MW 1744   1.345   2.730   0.371 -0.0704  1.0384 -0.0582
  437SOL     OW 1745   0.939   3.039   1.292 -0.7127  0.2925  0.1671
  437SOL    HW1 1746   0.954   3.065   1.203 -0.8097 -0.2540  0.4376
  437SOL    HW2 1747   0.926   2.940   1.284  3.4169  0.3872  1.5470
  437SOL     MW 1748   0.939   3.029   1.279 -0.1806  0.2329  0.3848
  438SOL     OW 1749   0.886   2.712   1.964 -0.4423  0.2259 -0.3012
  438SOL    HW1 1750   0.885   2.642   2.032 -0.3178 -2.9745  1.4531
  438SOL    HW2 1751   0.810   2.677   1.912 -0.2193  0.0216  1.0340
  438SOL     MW 1752   0.876   2.698   1.966 -0.3964 -0.2233  0.1065
  439SOL     OW 1753   1.191   2.066   0.436 -0.3989 -0.0651  0.5776
  439SOL    HW1 1754   1.114   2.089   0.479  0.2840 -1.0064 -0.3079
  439SOL    HW2 1755   1.204   2.145   0.377 -0.4995 -0.8469 -0.3916
  439SOL     MW 1756   1.182   2.079   0.434 -0.3221 -0.2925  0.3329
  440SOL     OW 1757   1.766   2.811   3.001  0.2031 -1.4210  0.4755
  440SOL    HW1 1758   1.745   2.854   3.083 -0.9395  1.8838 -0.1767
  440SOL    HW2 1759   1.845   2.853   2.968 -2.1158 -1.7243 -1.9886
  440SOL     MW 1760   1.774   2.823   3.007 -0.2536 -1.0250  0.0644
  441SOL     OW 1761   0.511   2.701   0.417 -0.0841  1.0544 -0.1788
  441SOL    HW1 1762   0.473   2.667   0.339 -1.1880  0.9554 -0.7244
  441SOL    HW2 1763   0.462   2.781   0.431  0.1756 -2.7492  0.6660
  441SOL     MW 1764   0.500   2.707   0.409 -0.1955  0.5395 -0.1393
  442SOL     OW 1765   0.025   2.358   0.643 -0.3762  0.3522 -0.3278
  442SOL    HW1 1766   0.045   2.444   0.594  0.2720  0.6399  0.6438
  442SOL    HW2 1767  -0.066   2.348   0.660  1.1248  0.5489  0.4516
  442SOL     MW 1768   0.016   2.368   0.639 -0.0926  0.4161 -0.0967
  443SOL     OW 1769   1.469   1.754   1.930 -0.0962  0.4823  0.0660
  443SOL    HW1 1770   1.422   1.768   1.850 -1.9737  2.2653 -0.3695
  443SOL    HW2 1771   1.488   1.658   1.935  0.8184  2.7560 -3.1527
  443SOL     MW 1772   1.465   1.743   1.920 -0.2232  1.0175 -0.4162
  444SOL     OW 1773   0.939   2.595   1.606 -0.3183  0.0176  0.0892
  444SOL    HW1 1774   1.011   2.548   1.640  0.0929 -0.0260 -2.0392
  444SOL    HW2 1775   0.868   2.573   1.665 -1.5304 -2.5437 -1.8737
  444SOL     MW 1776   0.939   2.586   1.618 -0.4240 -0.3261 -0.4506
  445SOL     OW 1777   1.207   0.077   1.405 -0.2316  0.0586 -0.4678
  445SOL    HW1 1778   1.162   0.104   1.482 -0.5297  0.7352 -0.3544
  445SOL    HW2 1779   1.218   0.159   1.361 -0.5607 -0.2551  1.3386
  445SOL     MW 1780   1.203   0.091   1.409 -0.3144  0.1065 -0.2145
  446SOL     OW 1781   2.727   2.859   1.049 -0.9925 -0.0314  0.5712
  446SOL    HW1 1782   2.741   2.927   0.988 -0.6263 -3.7233 -0.1661
  446SOL    HW2 1783   2.760   2.783   1.001  1.3450  1.6051  0.2755
  446SOL     MW 1784   2.733   2.858   1.035 -0.6358 -0.3026  0.4349
  447SOL     OW 1785   0.031   1.940   1.566  0.2762  0.1655  0.1367
  447SOL    HW1 1786   0.057   1.882   1.639  1.7194  1.3357 -0.3622
  447SOL    HW2 1787  -0.039   1.888   1.518  2.2142  0.8988 -0.0374
  447SOL     MW 1788   0.025   1.926   1.569  0.7223  0.4167  0.0479
  448SOL     OW 1789   1.715   2.347   1.664 -0.1082 -0.1938 -0.0591
  448SOL    HW1 1790   1.670   2.267   1.678 -0.2228  0.3375  2.2033
  448SOL    HW2 1791   1.652   2.416   1.684 -0.9440 -0.3901  1.9588
  448SOL     MW 1792   1.701   2.345   1.668 -0.2336 -0.1496  0.5057
  449SOL     OW 1793   0.929   2.915   0.400  0.9620 -0.8026  0.4272
  449SOL    HW1 1794   0.873   2.871   0.333 -2.1164  2.3103 -1.0542
  449SOL    HW2 1795   0.873   2.932   0.478 -0.4531  1.2091 -0.3540
  449SOL     MW 1796   0.914   2.912   0.401  0.3691 -0.1265  0.1287
  450SOL     OW 1797   1.138   2.500   0.739  0.2114  1.4273 -0.6735
  450SOL    HW1 1798   1.153   2.456   0.831  1.7820  0.8297  0.2413
  450SOL    HW2 1799   1.221   2.471   0.694  1.5280  0.2788  0.3551
  450SOL     MW 1800   1.151   2.491   0.745  0.5923  1.1969 -0.4171
  451SOL     OW 1801   0.555   1.995   1.697 -0.0002  0.3308  0.1013
  451SOL    HW1 1802   0.634   1.995   1.646 -0.8519  0.9595  1.2742
  451SOL    HW2 1803   0.478   1.966   1.642  0.1877 -0.5166 -0.8292
  451SOL     MW 1804   0.555   1.991   1.683 -0.0877  0.3019  0.1333
  452SOL     OW 1805   0.343   2.640   3.086 -0.9668 -0.5310 -0.3261
  452SOL    HW1 1806   0.432   2.658   3.114  0.4976  0.7642  0.6931
  452SOL    HW2 1807   0.285   2.718   3.078  1.1892  1.2679 -1.6904
  452SOL     MW 1808   0.347   2.653   3.088 -0.4891 -0.1228 -0.3717
  453SOL     OW 1809   0.227   3.010   1.563 -0.4523 -0.2337  0.2700
  453SOL    HW1 1810   0.261   2.984   1.646 -2.0688 -0.4151  1.0305
  453SOL    HW2 1811   0.282   2.985   1.491  1.1954  1.4557  2.6089
  453SOL     MW 1812   0.239   3.003   1.565 -0.4482 -0.0348  0.6790
  454SOL     OW 1813   0.906   2.778   1.190  0.7893 -0.1742 -0.3057
  454SOL    HW1 1814   0.882   2.697   1.223  2.9145  0.6609 -1.6095
  454SOL    HW2 1815   0.829   2.826   1.156 -0.3275 -1.1141  1.1091
  454SOL     MW 1816   0.893   2.774   1.189  0.9223 -0.1880 -0.2910
  455SOL     OW 1817   1.779   2.861   0.180 -0.9000 -0.3000 -0.2233
  455SOL    HW1 1818   1.812   2.848   0.269  0.8755 -0.1084  1.5566
  455SOL    HW2 1819   1.702   2.797   0.174 -1.8454 -0.8124 -2.7570
  455SOL     MW 1820   1.773   2.851   0.191 -0.7905 -0.3423 -0.3228
  456SOL     OW 1821   2.758   0.270   1.457  0.1217 -0.0046  0.0580
  456SOL    HW1 1822   2.754   0.210   1.383 -2.6957 -0.0104 -0.3520
  456SOL    HW2 1823   2.799   0.353   1.427  1.4017 -1.2335  0.0605
  456SOL     MW 1824   2.763   0.273   1.444 -0.0811 -0.1675  0.0042
  457SOL     OW 1825   0.783   1.648   3.043  0.1490  0.1914  0.5503
  457SOL    HW1 1826   0.687   1.622   3.049  0.1846  0.3698 -2.2688
  457SOL    HW2 1827   0.809   1.690   3.123  0.5576  0.3408 -0.9821
  457SOL     MW 1828   0.774   1.650   3.055  0.2076  0.2347 -0.0238
  458SOL     OW 1829   1.351   1.474   0.696  0.5940  0.0666  0.2336
  458SOL    HW1 1830   1.269   1.508   0.715 -1.2927 -1.1007 -0.0076
  458SOL    HW2 1831   1.330   1.382   0.674 -0.3228  0.2505  0.5861
  458SOL     MW 1832   1.337   1.466   0.695  0.2241 -0.0631  0.2483
  459SOL     OW 1833   1.597   3.059   0.248 -0.1577 -0.4464  0.4260
  459SOL    HW1 1834   1.652   2.979   0.233 -0.2086 -0.6679  0.7825
  459SOL    HW2 1835   1.530   3.066   0.179  1.9994  0.3179  0.4034
  459SOL     MW 1836   1.596   3.049   0.237  0.1202 -0.3748  0.4700
  460SOL     OW 1837   1.780   2.232   0.625 -0.6807  0.2052  0.5222
  460SOL    HW1 1838   1.693   2.227   0.663  0.5487  0.5499 -0.5812
  460SOL    HW2 1839   1.811   2.138   0.609 -0.2372  0.1380  0.5328
  460SOL     MW 1840   1.773   2.219   0.628 -0.4600  0.2418  0.3780
  461SOL     OW 1841   0.399   2.420   0.526 -0.0845  0.7395 -0.5875
  461SOL    HW1 1842   0.411   2.508   0.502 -1.8312 -1.0827  1.3580
  461SOL    HW2 1843   0.375   2.420   0.618  1.7165  0.2779 -2.4742
  461SOL     MW 1844   0.397   2.431   0.535 -0.0773  0.4381 -0.5797
  462SOL     OW 1845   0.282   0.241   1.279  0.0889 -0.2478  0.5717
  462SOL    HW1 1846   0.319   0.212   1.195 -0.4569  2.7314  0.0364
  462SOL    HW2 1847   0.353   0.225   1.341 -0.6100  3.1680 -0.0073
  462SOL     MW 1848   0.297   0.235   1.276 -0.0754  0.5959  0.4247
  463SOL     OW 1849   1.098   0.053   0.735 -0.0586  0.1606 -0.5626
  463SOL    HW1 1850   1.192   0.034   0.725 -0.5781  3.1089  0.4596
  463SOL    HW2 1851   1.057   0.095   0.657  0.9641 -0.5255 -1.2035
  463SOL     MW 1852   1.105   0.056   0.724  0.0078  0.4590 -0.5123
  464SOL     OW 1853   0.735   3.073   2.280 -0.0289  0.1193  0.3673
  464SOL    HW1 1854   0.716   2.975   2.287 -1.1630 -1.0311  0.1992
  464SOL    HW2 1855   0.780   3.111   2.361  1.6082  1.1515 -2.5208
  464SOL     MW 1856   0.738   3.065   2.292  0.0375  0.1037 -0.0360
  465SOL     OW 1857   0.829   0.335   0.371  0.2642 -0.3840 -0.7637
  465SOL    HW1 1858   0.810   0.274   0.439 -1.6371  3.4210  0.9500
  465SOL    HW2 1859   0.823   0.284   0.291  0.0390  0.4694  1.7745
  465SOL     MW 1860   0.826   0.320   0.369 -0.0164  0.2306 -0.2027
  466SOL     OW 1861   1.118   2.053   0.795  0.4249  0.3958 -0.1815
  466SOL    HW1 1862   1.099   1.991   0.732  1.0864  3.0427  0.5927
  466SOL    HW2 1863   1.108   2.138   0.746 -0.8622 -2.7393 -4.3068
  466SOL     MW 1864   1.114   2.056   0.780  0.3424  0.3314 -0.6236
  467SOL     OW 1865   1.278   2.347   0.965 -0.1900  0.0519  0.6579
  467SOL    HW1 1866   1.356   2.386   1.003  1.1246 -0.9744 -0.2072
  467SOL    HW2 1867   1.289   2.251   0.976  0.8245 -1.2305  2.3249
  467SOL     MW 1868   1.290   2.339   0.971  0.1173 -0.2527  0.7637
  468SOL     OW 1869   0.531   2.672   1.914 -0.2513 -0.5300  0.3650
  468SOL    HW1 1870   0.489   2.593   1.859 -3.1472  0.8490 -5.5359
  468SOL    HW2 1871   0.493   2.753   1.864  0.2289 -0.3135  0.0044
  468SOL     MW 1872   0.520   2.672   1.900 -0.5700 -0.3195 -0.4611
  469SOL     OW 1873   0.325   2.137   1.813  0.0045  0.5687 -0.3294
  469SOL    HW1 1874   0.257   2.076   1.842  0.0818  2.6168 -1.4403
  469SOL    HW2 1875   0.401   2.082   1.796 -0.1420  1.2177  1.7422
  469SOL     MW 1876   0.326   2.122   1.814 -0.0046  0.9245 -0.2026
  470SOL     OW 1877   3.046   2.581   0.088 -0.3172  0.1044  0.2186
  470SOL    HW1 1878   2.973   2.601   0.150 -1.0322 -0.8373  0.1179
  470SOL    HW2 1879   3.019   2.611  -0.000 -0.0752 -1.4062 -1.5432
  470SOL     MW 1880   3.033   2.588   0.085 -0.3796 -0.2192 -0.0272
  471SOL     OW 1881   1.161   2.642   1.361 -0.1989  0.4779 -0.1163
  471SOL    HW1 1882   1.097   2.614   1.425  0.5163  0.0465 -0.6524
  471SOL    HW2 1883   1.145   2.577   1.295 -0.6098 -1.8359  3.7273
  471SOL     MW 1884   1.150   2.629   1.361 -0.1587  0.1157  0.3201
  472SOL     OW 1885   2.969   2.125   0.346  0.3689  0.2573  0.1610
  472SOL    HW1 1886   2.958   2.112   0.251  2.0841  1.4316  0.5443
  472SOL    HW2 1887   2.899   2.076   0.399 -0.8681 -1.7652  2.5628
  472SOL     MW 1888   2.958   2.117   0.341  0.4320  0.1454  0.5284
  473SOL     OW 1889   0.859   2.541   1.332  0.3191  0.2367 -0.3254
  473SOL    HW1 1890   0.889   2.466   1.284 -0.4523  0.8498  0.0833
  473SOL    HW2 1891   0.906   2.535   1.415 -3.6293 -2.0467  0.2394
  473SOL     MW 1892   0.870   2.530   1.337 -0.3036  0.0163 -0.1970
  474SOL     OW 1893   0.669   2.290   1.847  0.6691 -0.1384 -0.4930
  474SOL    HW1 1894   0.756   2.305   1.878  0.5811 -1.6234 -1.8597
  474SOL    HW2 1895   0.690   2.246   1.771  0.6862  0.0905  3.8344
  474SOL     MW 1896   0.683   2.286   1.841  0.6598 -0.3041 -0.1024
  475SOL     OW 1897   1.592   3.068   1.539  0.4488  0.0725 -0.5022
  475SOL    HW1 1898   1.532   3.031   1.478  1.0307  0.7870 -1.3407
  475SOL    HW2 1899   1.645   3.003   1.583 -0.0031  1.2202  2.1867
  475SOL     MW 1900   1.591   3.054   1.537  0.4659  0.3182 -0.2581
  476SOL     OW 1901   1.423   2.646   1.177 -0.3839  0.7496  0.1809
  476SOL    HW1 1902   1.344   2.670   1.140 -0.3148  1.1046  1.1532
  476SOL    HW2 1903   1.488   2.717   1.167 -1.2024  2.3904 -0.2110
  476SOL     MW 1904   1.421   2.658   1.171 -0.4828  1.0129  0.2575
  477SOL     OW 1905   0.845   2.537   0.704  0.4986 -0.1149  0.5946
  477SOL    HW1 1906   0.921   2.588   0.678  0.7284  1.3419 -1.2198
  477SOL    HW2 1907   0.814   2.479   0.633 -1.0853 -1.5810 -0.9147
  477SOL     MW 1908   0.851   2.536   0.692  0.3200 -0.1161  0.1561
  478SOL     OW 1909   0.236   2.652   0.906  0.1008  0.6981 -0.5322
  478SOL    HW1 1910   0.283   2.736   0.881 -2.1071 -0.6207 -1.6729
  478SOL    HW2 1911   0.294   2.578   0.881 -1.9761 -0.6568  0.7599
  478SOL     MW 1912   0.250   2.653   0.899 -0.4645  0.3453 -0.5122
  479SOL     OW 1913   1.413   1.973   1.270 -0.1255 -0.4978 -0.0222
  479SOL    HW1 1914   1.388   2.002   1.360  0.4531  0.2444 -1.1916
  479SOL    HW2 1915   1.446   1.884   1.277  1.7476 -0.2046  1.1394
  479SOL     MW 1916   1.414   1.965   1.283  0.1980 -0.3612 -0.0233
  480SOL     OW 1917   2.005   2.446   1.368 -0.2577  0.5570  0.2893
  480SOL    HW1 1918   2.028   2.356   1.394 -0.3522 -1.4028  1.5263
  480SOL    HW2 1919   1.974   2.441   1.273 -1.1027  1.6602  2.3093
  480SOL     MW 1920   2.004   2.433   1.359 -0.3817  0.4440  0.7190
  481SOL     OW 1921   1.058   0.110   1.066  0.4827 -0.1613  0.0729
  481SOL    HW1 1922   1.126   0.045   1.040  0.3455 -1.3629  1.1903
  481SOL    HW2 1923   1.104   0.192   1.086 -0.0324  0.6053 -1.8235
  481SOL     MW 1924   1.073   0.112   1.065  0.3967 -0.2187 -0.0299
  482SOL     OW 1925   1.068   0.021   0.262 -0.2116 -0.4176 -0.3457
  482SOL    HW1 1926   0.989  -0.026   0.288 -1.5109 -1.4857 -1.6060
  482SOL    HW2 1927   1.057   0.097   0.318  0.0896  0.3342  1.3022
  482SOL     MW 1928   1.056   0.025   0.272 -0.3433 -0.4593 -0.2946
  483SOL     OW 1929   0.441   3.001   0.465  0.6838 -0.3629 -0.2725
  483SOL    HW1 1930   0.362   3.007   0.410 -2.3962  1.1516  1.5121
  483SOL    HW2 1931   0.412   3.033   0.554  0.7678  0.2435  3.7296
  483SOL     MW 1932   0.427   3.006   0.470  0.2885 -0.0831  0.4910
  484SOL     OW 1933   1.825   2.007   1.419 -0.3952  0.0628 -0.4769
  484SOL    HW1 1934   1.889   2.076   1.406  3.2643 -0.4414  2.2067
  484SOL    HW2 1935   1.822   1.993   1.518 -0.8664  1.2795 -0.1838
  484SOL     MW 1936   1.833   2.014   1.430  0.0255  0.1568 -0.0841
  485SOL     OW 1937   0.612   2.416   0.277  0.2483  0.4449  0.2978
  485SOL    HW1 1938   0.671   2.394   0.357  1.1944 -3.2597  2.5233
  485SOL    HW2 1939   0.525   2.423   0.319  1.7156  0.3019  1.3199
  485SOL     MW 1940   0.608   2.414   0.293  0.5667 -0.0628  0.7263
  486SOL     OW 1941   0.189   2.410   1.420 -0.0337 -0.4842  0.0850
  486SOL    HW1 1942   0.188   2.496   1.379 -0.7365 -1.4795  0.6442
  486SOL    HW2 1943   0.158   2.424   1.510 -2.1386  0.8646  0.2657
  486SOL     MW 1944   0.185   2.423   1.426 -0.4041 -0.4376  0.1826
  487SOL     OW 1945   1.189   1.752   1.022 -0.2932 -0.0193  0.1107
  487SOL    HW1 1946   1.156   1.833   1.054 -2.9193  0.5848 -0.4855
  487SOL    HW2 1947   1.283   1.761   1.011  1.4432  0.0532  1.2109
  487SOL     MW 1948   1.197   1.764   1.025 -0.4106  0.0700  0.1772
  488SOL     OW 1949   1.595   1.826   0.563 -0.2052  0.2514 -0.3770
  488SOL    HW1 1950   1.678   1.825   0.519  0.0858  4.2053 -0.4156
  488SOL    HW2 1951   1.553   1.913   0.546 -0.7442  0.8409 -1.1904
  488SOL     MW 1952   1.600   1.837   0.555 -0.2379  0.8509 -0.4894
  489SOL     OW 1953   0.784   0.831   0.620 -0.0558  0.0726 -0.6773
  489SOL    HW1 1954   0.813   0.749   0.576  1.2387 -0.0132  1.3299
  489SOL    HW2 1955   0.759   0.791   0.706  0.9407  1.5920 -0.0539
  489SOL     MW 1956   0.785   0.815   0.626  0.2465  0.2617 -0.3302
  490SOL     OW 1957   1.439   2.067   0.538 -0.1836 -0.0988  0.0206
  490SOL    HW1 1958   1.468   2.138   0.474  1.6439  1.7596  0.2729
  490SOL    HW2 1959   1.346   2.064   0.528 -0.4056  1.1040  0.4903
  490SOL     MW 1960   1.431   2.076   0.528  0.0282  0.3051  0.1158
  491SOL     OW 1961   1.249   2.996   0.407  0.8075 -0.0232 -0.1542
  491SOL    HW1 1962   1.310   3.060   0.406 -2.9205  0.8408  1.5993
  491SOL    HW2 1963   1.173   3.036   0.361 -1.2341  2.2624  0.3787
  491SOL     MW 1964   1.247   3.010   0.401  0.0462  0.3924  0.1475
  492SOL     OW 1965   1.526   2.205   0.734  0.4477 -0.5166 -0.5641
  492SOL    HW1 1966   1.506   2.145   0.663  0.3886 -0.4668 -0.5940
  492SOL    HW2 1967   1.474   2.174   0.807 -2.8955  0.4176 -0.1216
  492SOL     MW 1968   1.517   2.193   0.734 -0.0012 -0.3868 -0.5097
  493SOL     OW 1969   0.224   2.951   0.287  0.7119 -0.3497 -0.1072
  493SOL    HW1 1970   0.152   2.988   0.341  1.6935 -2.2878  0.4721
  493SOL    HW2 1971   0.256   3.016   0.223  3.4386  3.2559  0.0295
  493SOL     MW 1972   0.218   2.964   0.285  1.2012 -0.1297 -0.0127
  494SOL     OW 1973   0.427   2.445   1.776  0.7064 -0.1633 -0.1060
  494SOL    HW1 1974   0.478   2.380   1.819 -0.4462  0.3566  1.2162
  494SOL    HW2 1975   0.448   2.434   1.686 -1.6650 -3.6186  3.0486
  494SOL     MW 1976   0.437   2.435   1.770  0.2414 -0.5506  0.4846
  495SOL     OW 1977   2.836   1.740   2.570 -0.1040 -0.4789 -0.0644
  495SOL    HW1 1978   2.810   1.833   2.544  0.4848  1.2338 -1.6557
  495SOL    HW2 1979   2.816   1.706   2.662 -2.9734  1.4283 -0.3829
  495SOL     MW 1980   2.830   1.747   2.578 -0.4049 -0.0013 -0.3164
  496SOL     OW 1981   2.927   2.362   2.657  0.2147 -0.2483 -0.0628
  496SOL    HW1 1982   2.969   2.323   2.732  1.3225 -1.5654 -3.0901
  496SOL    HW2 1983   2.970   2.448   2.641  1.0192 -0.0056 -2.5062
  496SOL     MW 1984   2.938   2.368   2.665  0.4670 -0.3901 -0.7846
  497SOL     OW 1985   1.549   2.217   2.661 -0.3030  0.2178  0.0141
  497SOL    HW1 1986   1.469   2.164   2.647 -1.9108  4.6584  1.3048
  497SOL    HW2 1987   1.590   2.154   2.723 -0.4144 -0.7069  0.7862
  497SOL     MW 1988   1.544   2.201   2.667 -0.5299  0.6817  0.2862
  498SOL     OW 1989   1.487   2.671   2.363 -0.1811 -0.0554 -0.5666
  498SOL    HW1 1990   1.468   2.579   2.385  0.0595  1.2428  2.7999
  498SOL    HW2 1991   1.576   2.684   2.382 -1.0510  1.6286 -0.5354
  498SOL     MW 1992   1.496   2.661   2.368 -0.2641  0.3380 -0.1183
  499SOL     OW 1993   0.984   0.151   3.070 -0.4165 -0.2289  0.2597
  499SOL    HW1 1994   0.917   0.187   3.141  0.6851 -0.3685  2.2632
  499SOL    HW2 1995   1.038   0.081   3.109 -2.1401 -5.0722  0.9629
  499SOL     MW 1996   0.983   0.147   3.084 -0.4986 -0.8864  0.6168
  500SOL     OW 1997   1.051   2.494   2.769  0.4792 -0.1943  0.3715
  500SOL    HW1 1998   1.123   2.458   2.823 -2.1169 -1.3055  0.5139
  500SOL    HW2 1999   0.981   2.490   2.833 -0.6915 -1.4131  1.5426
  500SOL     MW 2000   1.051   2.489   2.784 -0.0178 -0.5017  0.5448
  501SOL     OW 2001   1.765   2.213   3.080 -0.1437  0.0558 -0.3678
  501SOL    HW1 2002   1.731   2.300   3.062  0.4527 -0.1494 -0.1995
  501SOL    HW2 2003   1.857   2.229   3.107  0.0997  1.9733  2.3294
  501SOL     MW 2004   1.773   2.227   3.081 -0.0329  0.2817  0.0103
  502SOL     OW 2005   0.137   2.822   3.047 -0.2983 -0.0160 -0.4652
  502SOL    HW1 2006   0.080   2.751   3.025 -1.4497 -0.3964  1.7904
  502SOL    HW2 2007   0.188   2.843   2.968  2.0584  1.8290 -1.2050
  502SOL     MW 2008   0.136   2.815   3.034 -0.1392  0.1772 -0.2652
  503SOL     OW 2009   0.990   2.875   2.170  0.7925  0.6919  0.1287
  503SOL    HW1 2010   0.957   2.817   2.101  0.5255  4.1049 -1.4206
  503SOL    HW2 2011   0.960   2.957   2.147  0.2900 -2.4958 -2.1950
  503SOL     MW 2012   0.982   2.879   2.158  0.6909  0.7217 -0.3823
  504SOL     OW 2013   0.060   2.738   2.148  0.7437 -0.4696 -0.3719
  504SOL    HW1 2014   0.088   2.652   2.109  0.9499 -0.3333  1.0679
  504SOL    HW2 2015   0.044   2.700   2.235 -2.1696  1.8197 -2.4174
  504SOL     MW 2016   0.062   2.722   2.154  0.3865 -0.1496 -0.4518
  505SOL     OW 2017   1.720   2.732   2.673 -0.1400  0.0258  0.1825
  505SOL    HW1 2018   1.677   2.780   2.600 -0.7278  0.4428 -0.0447
  505SOL    HW2 2019   1.650   2.727   2.738  1.4167 -0.4086 -1.0392
  505SOL     MW 2020   1.705   2.738   2.672 -0.0122  0.0235 -0.0086
  506SOL     OW 2021   1.613   2.990   2.823  0.4823  0.2116  0.4145
  506SOL    HW1 2022   1.655   2.945   2.896  1.3546 -1.8545 -1.0355
  506SOL    HW2 2023   1.690   2.995   2.764 -0.7340 -0.4404 -0.7424
  506SOL     MW 2024   1.628   2.985   2.825  0.4369 -0.1470  0.0706
  507SOL     OW 2025   0.817   2.760   2.889 -0.1013  0.8137  0.1852
  507SOL    HW1 2026   0.888   2.792   2.839 -2.6628 -0.1705  1.6756
  507SOL    HW2 2027   0.751   2.834   2.901  0.2563 -0.7886 -1.0755
  507SOL     MW 2028   0.818   2.774   2.884 -0.3921  0.4724  0.2155
  508SOL     OW 2029   1.141   2.029   2.522  0.4073  0.2999 -0.5612
  508SOL    HW1 2030   1.197   2.034   2.600 -1.4988  0.9693 -1.7433
  508SOL    HW2 2031   1.079   2.099   2.537  0.8073 -0.5913  0.4604
  508SOL     MW 2032   1.140   2.039   2.534  0.2086  0.2706 -0.5824
  509SOL     OW 2033   0.571   2.535   2.895 -0.6889 -0.1816 -0.4829
  509SOL    HW1 2034   0.602   2.530   2.799  3.8464 -1.7191 -2.3916
  509SOL    HW2 2035   0.500   2.473   2.911 -1.1420 -0.9957 -3.4322
  509SOL     MW 2036   0.565   2.526   2.885 -0.1503 -0.4919 -1.1238
  510SOL     OW 2037   1.510   2.528   1.713 -0.1099 -0.5546 -0.2030
  510SOL    HW1 2038   1.523   2.622   1.730  0.7225  0.3432 -0.7195
  510SOL    HW2 2039   1.443   2.504   1.773 -0.5554 -0.2422  1.3876
  510SOL     MW 2040   1.503   2.537   1.724 -0.0589 -0.3949 -0.0613
  511SOL     OW 2041   0.393   2.602   2.453  0.6493 -0.2738  0.3488
  511SOL    HW1 2042   0.469   2.595   2.505 -0.5588 -2.4868 -2.0916
  511SOL    HW2 2043   0.430   2.579   2.369 -0.6195  1.8362  3.3569
  511SOL     MW 2044   0.408   2.598   2.449  0.3225 -0.2874  0.4237
  512SOL     OW 2045   1.008   1.979   2.840 -0.2965 -0.1292  0.2706
  512SOL    HW1 2046   0.931   2.006   2.889 -0.0928 -1.7880  1.3850
  512SOL    HW2 2047   1.025   1.890   2.872 -1.2196 -1.3786 -2.6010
  512SOL     MW 2048   1.000   1.971   2.851 -0.3914 -0.5129  0.0388
  513SOL     OW 2049   1.454   2.417   2.401  0.0456  0.0209 -0.0342
  513SOL    HW1 2050   1.552   2.431   2.407  1.9690 -0.3912 -0.4360
  513SOL    HW2 2051   1.449   2.320   2.413  1.4701 -0.1771  0.8349
  513SOL     MW 2052   1.466   2.406   2.404  0.4873 -0.0596  0.0275
  514SOL     OW 2053   0.223   2.434   2.626 -0.4414 -0.0428  0.1012
  514SOL    HW1 2054   0.297   2.487   2.583  4.7958  1.2378  4.5348
  514SOL    HW2 2055   0.233   2.447   2.727 -0.5189 -1.4686  0.8988
  514SOL     MW 2056   0.234   2.443   2.634  0.2393 -0.0620  0.7914
  515SOL     OW 2057   1.135   2.046   1.944  0.6439  0.7698 -0.1805
  515SOL    HW1 2058   1.083   2.124   1.938  3.5670 -0.3098 -0.5748
  515SOL    HW2 2059   1.170   2.050   2.033 -1.8519 -1.3382 -2.2962
  515SOL     MW 2060   1.133   2.057   1.955  0.7002  0.3492 -0.5117
  516SOL     OW 2061   1.456   2.533   3.036  0.1686 -0.1891 -0.5515
  516SOL    HW1 2062   1.516   2.516   2.967 -1.9952  1.7064  0.4021
  516SOL    HW2 2063   1.383   2.489   3.004 -1.0462  1.2746  1.1926
  516SOL     MW 2064   1.454   2.525   3.023 -0.2772  0.2541 -0.1956
  517SOL     OW 2065   0.595   2.401   2.131  0.0308  0.5200  0.2504
  517SOL    HW1 2066   0.564   2.495   2.138 -0.0513 -4.2226  2.7433
  517SOL    HW2 2067   0.526   2.368   2.075  0.0026  0.5621 -1.6630
  517SOL     MW 2068   0.582   2.409   2.124  0.0162 -0.1002  0.3268
  518SOL     OW 2069   1.891   0.086   2.953  0.0133 -0.3975  0.2721
  518SOL    HW1 2070   1.847   0.137   2.883  2.2703  0.8854 -2.0472
  518SOL    HW2 2071   1.848   0.104   3.040  0.4805  0.2361  1.3371
  518SOL     MW 2072   1.880   0.095   2.956  0.3727 -0.1447  0.1066
  519SOL     OW 2073   0.723   2.570   1.780  0.3595 -0.2687  0.2155
  519SOL    HW1 2074   0.708   2.470   1.781 -0.0777 -2.1398  0.2645
  519SOL    HW2 2075   0.654   2.608   1.830 -2.3781 -0.2743 -0.8321
  519SOL     MW 2076   0.712   2.562   1.787 -0.0594 -0.5163  0.0838
  520SOL     OW 2077   1.223   2.152   2.919  0.1333  0.3974  0.1231
  520SOL    HW1 2078   1.144   2.097   2.906 -0.8853  3.2594  1.2325
  520SOL    HW2 2079   1.255   2.125   3.003 -0.5673  0.0702  1.7132
  520SOL     MW 2080   1.217   2.141   2.928 -0.0935  0.7318  0.4793
  521SOL     OW 2081   1.753   2.020   2.229  0.4821 -0.1331  0.2091
  521SOL    HW1 2082   1.787   2.055   2.145  1.4815 -1.1625  0.5115
  521SOL    HW2 2083   1.763   1.927   2.217 -0.1589 -0.4732  0.2694
  521SOL     MW 2084   1.759   2.013   2.217  0.5294 -0.3138  0.2570
  522SOL     OW 2085   2.828   2.582   2.203  0.3170  0.4934  0.2983
  522SOL    HW1 2086   2.886   2.526   2.249  2.4372 -0.6467  0.5925
  522SOL    HW2 2087   2.772   2.617   2.273 -1.5032 -0.7023  1.0877
  522SOL     MW 2088   2.828   2.580   2.218  0.3566  0.1852  0.4413
  523SOL     OW 2089   0.836   1.499   2.137  0.1421  0.1267  0.0576
  523SOL    HW1 2090   0.830   1.566   2.066  1.8556 -0.5963 -0.0615
  523SOL    HW2 2091   0.904   1.441   2.095  0.9793 -1.0108  1.3352
  523SOL     MW 2092   0.844   1.500   2.122  0.4787 -0.1187  0.2105
  524SOL     OW 2093   0.856   2.456   2.966 -0.4087  0.3162 -0.2195
  524SOL    HW1 2094   0.778   2.507   2.934 -1.9278 -4.4787  1.7533
  524SOL    HW2 2095   0.833   2.368   2.940  0.4475 -0.0627 -1.1032
  524SOL     MW 2096   0.843   2.451   2.958 -0.4962 -0.3664 -0.0758
  525SOL     OW 2097   0.362   2.305   2.035 -0.2746  0.3000 -0.6890
  525SOL    HW1 2098   0.375   2.236   2.109  1.2058  1.0879  1.7669
  525SOL    HW2 2099   0.333   2.248   1.961 -2.3052  0.6191  0.9555
  525SOL     MW 2100   0.360   2.289   2.035 -0.3472  0.4460 -0.1480
  526SOL     OW 2101   0.639   2.115   2.066 -0.0807  0.4136  0.4382
  526SOL    HW1 2102   0.643   2.147   1.977  1.4027  0.4675  0.8601
  526SOL    HW2 2103   0.675   2.185   2.121 -1.0886 -1.8501  1.8992
  526SOL     MW 2104   0.645   2.129   2.061 -0.0179  0.1220  0.6867
  527SOL     OW 2105   1.394   1.975   2.109 -0.0239 -0.4130  0.8504
  527SOL    HW1 2106   1.383   1.951   2.206  0.8122 -3.2770  2.0284
  527SOL    HW2 2107   1.416   1.892   2.066 -0.8380  0.6205 -0.7554
  527SOL     MW 2108   1.396   1.961   2.116 -0.0210 -0.6545  0.7940
  528SOL     OW 2109   0.640   2.960   2.954 -0.3546  0.9415 -0.2131
  528SOL    HW1 2110   0.688   3.039   2.932 -2.0061  2.1312 -0.8928
  528SOL    HW2 2111   0.587   2.948   2.872  0.8193  0.7035 -0.8114
  528SOL     MW 2112   0.639   2.969   2.940 -0.4176  1.0671 -0.3817
  529SOL     OW 2113   0.966   2.268   1.950  0.4899  0.1977  0.0998
  529SOL    HW1 2114   0.978   2.297   2.043 -1.3344  0.3171  0.1006
  529SOL    HW2 2115   1.000   2.337   1.899 -1.5806  1.5061  2.2821
  529SOL     MW 2116   0.972   2.281   1.956 -0.0240  0.3861  0.3879
  530SOL     OW 2117   1.226   2.411   2.964 -0.6480  0.1277 -0.6134
  530SOL    HW1 2118   1.187   2.437   3.045  2.8046  0.7747 -1.9931
  530SOL    HW2 2119   1.237   2.315   2.965 -0.9838  0.2509  2.8767
  530SOL     MW 2120   1.222   2.402   2.975 -0.2368  0.2293 -0.3349
  531SOL     OW 2121   0.930   1.849   2.571 -0.2375 -0.4356  0.0762
  531SOL    HW1 2122   0.997   1.913   2.565 -2.6271  1.3833  0.9552
  531SOL    HW2 2123   0.890   1.868   2.651  3.7506  3.0358 -2.1799
  531SOL     MW 2124   0.933   1.860   2.581 -0.0266  0.2624 -0.1055
  532SOL     OW 2125   1.747   0.220   2.768 -0.6151 -0.7864 -0.3876
  532SOL    HW1 2126   1.657   0.186   2.742  0.4497 -1.6462  0.8764
  532SOL    HW2 2127   1.806   0.188   2.698 -1.1831 -0.4814  1.2891
  532SOL     MW 2128   1.743   0.211   2.755 -0.5496 -0.8596  0.0004
  533SOL     OW 2129   1.925   2.579   0.008  0.9538 -0.4444  0.0384
  533SOL    HW1 2130   1.864   2.539   0.071  0.3209  0.5123  0.4928
  533SOL    HW2 2131   1.879   2.664  -0.029  0.6864 -0.8236 -2.4876
  533SOL     MW 2132   1.911   2.585   0.011  0.8350 -0.3682 -0.2349
  534SOL     OW 2133   1.709   2.368   2.484 -0.1036 -0.2261  0.2772
  534SOL    HW1 2134   1.680   2.296   2.538 -0.5676  1.4312  1.8097
  534SOL    HW2 2135   1.779   2.410   2.543  0.6183 -0.0382  1.6954
  534SOL     MW 2136   1.715   2.364   2.499 -0.0696  0.0174  0.6665
  535SOL     OW 2137   1.891   2.408   1.863 -0.2157 -0.3666  0.0674
  535SOL    HW1 2138   1.824   2.382   1.796 -1.2242 -0.6943  2.9383
  535SOL    HW2 2139   1.980   2.390   1.834 -1.7095 -0.6894 -0.2724
  535SOL     MW 2140   1.894   2.402   1.850 -0.5459 -0.4524  0.4014
  536SOL     OW 2141   0.485   1.851   2.137 -0.3045  0.1136  0.2497
  536SOL    HW1 2142   0.473   1.812   2.049  1.3220  2.4800  2.2448
  536SOL    HW2 2143   0.535   1.926   2.125 -1.6327  1.0711 -0.1385
  536SOL     MW 2144   0.490   1.855   2.124 -0.2651  0.5522  0.4617
  537SOL     OW 2145   1.078   0.268   2.777 -0.2512  0.3521 -0.1341
  537SOL    HW1 2146   1.070   0.332   2.848  1.0260  3.6001  0.4400
  537SOL    HW2 2147   1.064   0.324   2.695  0.2470  0.1396 -0.1816
  537SOL     MW 2148   1.075   0.284   2.775 -0.0170  0.7526 -0.0646
  538SOL     OW 2149   1.428   0.043   0.070 -0.1536  0.2010 -0.1678
  538SOL    HW1 2150   1.445   0.134   0.056  0.0981 -1.3156  0.4881
  538SOL    HW2 2151   1.335   0.017   0.060 -2.1418 -1.1876  0.4707
  538SOL     MW 2152   1.418   0.051   0.067 -0.3827 -0.1823  0.0030
  539SOL     OW 2153   0.694   2.788   2.596  0.1961  0.2465  0.1393
  539SOL    HW1 2154   0.786   2.785   2.631  0.0526  0.7550  1.0241
  539SOL    HW2 2155   0.661   2.693   2.613  2.8387 -1.0308  0.7817
  539SOL     MW 2156   0.702   2.775   2.603  0.5258  0.1450  0.3408
  540SOL     OW 2157   0.264   2.460   2.891  0.6626 -0.0722 -0.1721
  540SOL    HW1 2158   0.291   2.534   2.948 -0.1627 -2.3499 -0.7399
  540SOL    HW2 2159   0.239   2.388   2.955 -2.1190  0.9870 -1.9671
  540SOL     MW 2160   0.264   2.461   2.907  0.1867 -0.2329 -0.4839
  541SOL     OW 2161   0.252   2.957   2.144 -0.0122  0.1837  0.1545
  541SOL    HW1 2162   0.201   2.882   2.119 -1.2284 -0.0458  0.5805
  541SOL    HW2 2163   0.286   2.916   2.229  0.6581 -1.1982  1.0785
  541SOL     MW 2164   0.250   2.941   2.152 -0.0842 -0.0289  0.3326
  542SOL     OW 2165   0.978   2.279   2.587 -0.0691  0.3559 -0.0926
  542SOL    HW1 2166   0.905   2.237   2.630 -0.7037 -0.3301  0.6034
  542SOL    HW2 2167   1.023   2.333   2.660 -2.3422  0.8159  0.0103
  542SOL     MW 2168   0.974   2.281   2.602 -0.4528  0.3261  0.0128
  543SOL     OW 2169   1.585   2.434   2.823 -0.7357 -0.1004  0.2768
  543SOL    HW1 2170   1.569   2.349   2.783  0.3092  2.4012  2.4282
  543SOL    HW2 2171   1.612   2.498   2.757  1.8097 -0.3090  2.0321
  543SOL     MW 2172   1.586   2.432   2.809 -0.2620  0.2022  0.7923
  544SOL     OW 2173   0.704   0.298   2.714 -0.1157  0.6709  0.4286
  544SOL    HW1 2174   0.611   0.289   2.740  0.5864 -0.8809 -2.0742
  544SOL    HW2 2175   0.715   0.231   2.647 -1.8999 -0.5834 -0.0617
  544SOL     MW 2176   0.694   0.288   2.709 -0.2585  0.3007  0.0337
  545SOL     OW 2177   1.486   2.124   2.328  0.3781  0.3211  0.1548
  545SOL    HW1 2178   1.465   2.129   2.237  1.8080 -1.9841  0.5357
  545SOL    HW2 2179   1.583   2.105   2.318 -2.0819 -0.6617  1.3188
  545SOL     MW 2180   1.496   2.122   2.315  0.2422 -0.1127  0.3586
  546SOL     OW 2181   2.873   1.947   0.128 -0.1557 -0.1150  0.5296
  546SOL    HW1 2182   2.850   2.019   0.067  1.4929  2.2736 -0.8290
  546SOL    HW2 2183   2.971   1.942   0.131 -0.3506  0.7647 -0.8733
  546SOL     MW 2184   2.883   1.956   0.120  0.0361  0.3162  0.1653
  547SOL     OW 2185   0.222   0.086   0.103 -0.2366  0.4628  0.4838
  547SOL    HW1 2186   0.306   0.078   0.054  1.9766 -1.0082 -1.1266
  547SOL    HW2 2187   0.165   0.047   0.039  1.3241  2.1919 -0.5329
  547SOL     MW 2188   0.226   0.080   0.088  0.2613  0.4969  0.1372
  548SOL     OW 2189   0.331   2.513   0.248  0.8468  0.8999  0.3858
  548SOL    HW1 2190   0.332   2.561   0.166 -1.7756 -1.1686 -0.1996
  548SOL    HW2 2191   0.257   2.454   0.236 -0.6888 -1.7691  1.0035
  548SOL     MW 2192   0.321   2.511   0.236  0.2981  0.2749  0.3901
  549SOL     OW 2193   0.846   1.937   2.109 -0.2406  0.3599 -0.0304
  549SOL    HW1 2194   0.779   1.988   2.072  0.7503 -1.5554  1.7839
  549SOL    HW2 2195   0.801   1.912   2.189 -2.6488 -1.3639 -0.2118
  549SOL     MW 2196   0.831   1.940   2.115 -0.4276 -0.1202  0.1851
  550SOL     OW 2197   1.882   1.689   2.500 -0.8546 -0.6630  0.0404
  550SOL    HW1 2198   1.857   1.715   2.412 -1.4603 -2.6163  2.1039
  550SOL    HW2 2199   1.835   1.749   2.554  1.8704 -0.1514 -3.1622
  550SOL     MW 2200   1.873   1.701   2.495 -0.5750 -0.8532 -0.1099
  551SOL     OW 2201   0.922   2.214   0.205  0.5618  0.0808 -0.6413
  551SOL    HW1 2202   1.015   2.224   0.206 -1.5864  1.6147  1.6461
  551SOL    HW2 2203   0.892   2.145   0.139 -2.6795 -1.7821 -0.9118
  551SOL     MW 2204   0.931   2.206   0.197 -0.1493  0.0374 -0.3752
  552SOL     OW 2205   1.759   1.731   2.251 -0.0016  0.0116  0.0313
  552SOL    HW1 2206   1.675   1.700   2.250  2.4128  1.4264  3.8819
  552SOL    HW2 2207   1.811   1.679   2.181  2.7398  1.6855  2.6696
  552SOL     MW 2208   1.755   1.720   2.242  0.6787  0.4191  0.8874
  553SOL     OW 2209   1.229   2.313   1.562  0.4022 -0.3147  0.3629
  553SOL    HW1 2210   1.270   2.225   1.554  0.1846  0.7452  2.4996
  553SOL    HW2 2211   1.301   2.366   1.528 -2.3470 -3.1135  1.3646
  553SOL     MW 2212   1.244   2.309   1.557  0.0108 -0.5441  0.7770
  554SOL     OW 2213   0.486   2.952   2.699  0.4063  0.5829 -0.1840
  554SOL    HW1 2214   0.470   3.009   2.628 -0.3683  0.1657  0.4100
  554SOL    HW2 2215   0.545   2.890   2.655  0.0467 -0.0199 -0.5168
  554SOL     MW 2216   0.492   2.951   2.684  0.2567  0.4483 -0.1495
  555SOL     OW 2217   0.630   2.532   2.634  0.4399  0.2172 -0.1191
  555SOL    HW1 2218   0.585   2.442   2.623  0.3536 -0.6595  2.3327
  555SOL    HW2 2219   0.716   2.520   2.586 -0.8338  0.8412  1.5917
  555SOL     MW 2220   0.635   2.518   2.627  0.2604  0.1838  0.4301
  556SOL     OW 2221   1.070   1.868   0.058  0.4569 -0.3385 -0.2936
  556SOL    HW1 2222   1.091   1.816  -0.018  0.3184 -0.6618  0.8059
  556SOL    HW2 2223   1.149   1.867   0.107  2.1439  1.9252 -1.4242
  556SOL     MW 2224   1.083   1.861   0.054  0.6612 -0.0825 -0.2977
  557SOL     OW 2225   1.053   2.722   0.561  0.1843 -0.2895  0.1172
  557SOL    HW1 2226   1.095   2.656   0.515  1.7393 -0.8803  2.9887
  557SOL    HW2 2227   1.030   2.787   0.494 -0.2466 -1.5950  1.8301
  557SOL     MW 2228   1.055   2.722   0.546  0.3326 -0.5397  0.7220
  558SOL     OW 2229   0.209   2.238   3.034  0.8587 -0.0965 -0.7590
  558SOL    HW1 2230   0.224   2.145   3.044  2.0290  1.8635  3.6073
  558SOL    HW2 2231   0.164   2.265   3.117 -1.9283  2.2082  1.9037
  558SOL     MW 2232   0.205   2.229   3.047  0.6454  0.4662  0.1684
  559SOL     OW 2233   1.062   2.345   2.213 -0.1469 -0.7443  1.1380
  559SOL    HW1 2234   1.155   2.351   2.193  1.1485  0.4535  0.3939
  559SOL    HW2 2235   1.056   2.251   2.233  0.7486  0.9067 -2.0547
  559SOL     MW 2236   1.074   2.333   2.213  0.1422 -0.3685  0.6186
  560SOL     OW 2237   2.151   2.669   0.167  0.5368 -0.0276 -0.0887
  560SOL    HW1 2238   2.201   2.739   0.125 -0.7123 -1.4858 -0.1526
  560SOL    HW2 2239   2.086   2.648   0.099  0.4829  0.3893 -0.9653
  560SOL     MW 2240   2.149   2.676   0.152  0.3649 -0.1650 -0.2128
  561SOL     OW 2241   0.490   2.177   0.191 -0.3858  0.5695  0.6498
  561SOL    HW1 2242   0.437   2.209   0.117  1.1114 -0.7719 -2.7822
  561SOL    HW2 2243   0.547   2.254   0.215  1.4698 -0.7247 -1.7212
  561SOL     MW 2244   0.491   2.192   0.184  0.0566  0.2218 -0.1159
  562SOL     OW 2245   0.666   2.276   2.357 -0.7145  0.5441 -0.2930
  562SOL    HW1 2246   0.635   2.326   2.283  2.9423 -1.8638 -2.7536
  562SOL    HW2 2247   0.715   2.351   2.386 -4.1508  0.3313 -3.0139
  562SOL     MW 2248   0.668   2.292   2.351 -0.6854  0.1983 -0.9767
  563SOL     OW 2249   1.234   0.394   0.578  0.7615  0.1647 -0.0411
  563SOL    HW1 2250   1.183   0.338   0.517  1.7920  2.3641  2.5063
  563SOL    HW2 2251   1.214   0.364   0.663 -1.7655  0.5853 -3.7985
  563SOL     MW 2252   1.224   0.383   0.581  0.5640  0.5104 -0.2007
  564SOL     OW 2253   1.011   2.669   2.354 -0.4811  0.0672 -0.5731
  564SOL    HW1 2254   1.038   2.737   2.288 -2.1201 -1.1874  2.1828
  564SOL    HW2 2255   1.050   2.711   2.434 -0.9170 -0.8401 -1.9064
  564SOL     MW 2256   1.020   2.683   2.356 -0.7548 -0.2180 -0.3854
  565SOL     OW 2257   2.755   2.806   2.601 -0.3386 -0.6508  0.7981
  565SOL    HW1 2258   2.751   2.882   2.543  1.6454  0.3346  2.7810
  565SOL    HW2 2259   2.709   2.747   2.540  1.9748  1.3870  2.2567
  565SOL     MW 2260   2.749   2.808   2.585  0.2284 -0.2519  1.2522
  566SOL     OW 2261   2.189   1.963   2.352 -0.4295 -0.0527  0.3317
  566SOL    HW1 2262   2.191   1.917   2.271  2.5653 -0.6105  0.9441
  566SOL    HW2 2263   2.270   2.012   2.361 -3.7527  0.5864 -0.4080
  566SOL     MW 2264   2.200   1.964   2.342 -0.4728 -0.0420  0.3149
  567SOL     OW 2265   1.172   3.067   0.023 -0.3376  0.6015 -0.4195
  567SOL    HW1 2266   1.146   3.082   0.115 -1.6153 -0.2073 -2.2625
  567SOL    HW2 2267   1.192   2.970   0.015 -0.6118 -0.0542 -1.6149
  567SOL     MW 2268   1.172   3.056   0.034 -0.5424  0.4083 -0.8204
  568SOL     OW 2269   1.649   2.027   2.848  0.1154  0.0735  0.3814
  568SOL    HW1 2270   1.707   2.074   2.907 -0.9216 -1.7803 -1.1992
  568SOL    HW2 2271   1.698   1.962   2.792  0.6542 -2.3105 -0.7302
  568SOL     MW 2272   1.663   2.025   2.848  0.0496 -0.4857  0.0262
  569SOL     OW 2273   0.122   2.251   2.445  0.2942  0.0209  0.1143
  569SOL    HW1 2274   0.044   2.296   2.406  0.2932 -3.5934 -0.3877
  569SOL    HW2 2275   0.163   2.317   2.496  0.0474  0.1943 -1.3674
  569SOL     MW 2276   0.117   2.265   2.447  0.2615 -0.4331 -0.1475
  570SOL     OW 2277   1.496   0.322   0.457  0.0093 -0.5935 -0.2920
  570SOL    HW1 2278   1.408   0.348   0.490 -0.6660  3.9852  0.8476
  570SOL    HW2 2279   1.560   0.364   0.517 -2.0693 -3.5305 -1.1315
  570SOL     MW 2280   1.493   0.331   0.469 -0.3540 -0.3769 -0.2524
  571SOL     OW 2281   1.346   2.382   2.139  0.2028 -0.0835 -0.2430
  571SOL    HW1 2282   1.402   2.408   2.215 -0.6870 -2.0305  0.6155
  571SOL    HW2 2283   1.401   2.323   2.080  1.3749 -1.2004  0.2285
  571SOL     MW 2284   1.361   2.378   2.141  0.2400 -0.4878 -0.0675
  572SOL     OW 2285   1.096   2.586   0.087  0.6888  0.4834  0.1811
  572SOL    HW1 2286   1.107   2.685   0.070 -0.5888 -3.2937  3.3775
  572SOL    HW2 2287   0.997   2.573   0.096 -0.0940  0.5115 -0.9137
  572SOL     MW 2288   1.084   2.598   0.086  0.4170 -0.0112  0.4584
  573SOL     OW 2289   1.183   2.274   0.260  0.0321  0.1097  0.4439
  573SOL    HW1 2290   1.255   2.292   0.200  1.2260  1.4306  1.2919
  573SOL    HW2 2291   1.177   2.352   0.318  1.6800  2.5129  0.5533
  573SOL     MW 2292   1.192   2.287   0.259  0.4071  0.6010  0.5702
  574SOL     OW 2293   1.156   2.532   0.359 -0.3947  0.6710  0.3335
  574SOL    HW1 2294   1.225   2.601   0.353  2.6972  1.0648 -1.1542
  574SOL    HW2 2295   1.112   2.531   0.272 -0.9386  1.7503  3.2348
  574SOL     MW 2296   1.159   2.541   0.347 -0.0585  0.8653  0.5200
  575SOL     OW 2297   3.070   2.197   1.608 -0.0855  0.1015 -0.4744
  575SOL    HW1 2298   3.090   2.102   1.598  0.4386 -0.2755  1.5256
  575SOL    HW2 2299   3.145   2.220   1.660 -0.4898 -0.9258  2.2174
  575SOL     MW 2300   3.083   2.187   1.613 -0.0697 -0.0838  0.1447
  576SOL     OW 2301   2.890   1.882   1.956  1.2523  0.1314 -0.3959
  576SOL    HW1 2302   2.913   1.959   1.905 -1.4805  3.1465  0.2052
  576SOL    HW2 2303   2.812   1.838   1.923 -1.5169 -1.2032  0.3770
  576SOL     MW 2304   2.882   1.886   1.945  0.5263  0.3531 -0.2146
  577SOL     OW 2305   2.110   0.139   0.015  0.4286 -0.0331  0.0955
  577SOL    HW1 2306   2.043   0.115  -0.055 -1.6539 -1.9014 -0.0747
  577SOL    HW2 2307   2.080   0.094   0.090  1.1191  0.7770 -1.8186
  577SOL     MW 2308   2.097   0.130   0.016  0.2449 -0.1727 -0.1795
  578SOL     OW 2309   1.986   2.140   2.354 -0.0322 -0.1905 -0.7270
  578SOL    HW1 2310   1.916   2.080   2.325  1.2085  0.3897  0.2994
  578SOL    HW2 2311   2.068   2.078   2.343 -1.2457 -1.8985  0.7963
  578SOL     MW 2312   1.987   2.124   2.349 -0.0286 -0.3393 -0.3906
  579SOL     OW 2313   0.839   2.494   2.479  0.6193  1.0619  0.4008
  579SOL    HW1 2314   0.907   2.439   2.503 -1.0752  1.9621  0.2810
  579SOL    HW2 2315   0.890   2.552   2.424 -1.4726  1.1334 -0.8464
  579SOL     MW 2316   0.854   2.494   2.475  0.1197  1.1901  0.2205
  580SOL     OW 2317   0.972   2.860   3.096  0.0421 -0.0914  0.6851
  580SOL    HW1 2318   1.003   2.943   3.063 -3.9999 -0.0783 -0.3406
  580SOL    HW2 2319   0.915   2.827   3.018  1.4095 -0.7321 -1.0984
  580SOL     MW 2320   0.969   2.867   3.082 -0.3108 -0.1742  0.3144
  581SOL     OW 2321   1.118   2.444   1.780 -0.3136  0.2888  0.0938
  581SOL    HW1 2322   1.174   2.485   1.847  0.6955  0.2030  1.7749
  581SOL    HW2 2323   1.169   2.396   1.717 -1.5536 -1.3025 -0.3108
  581SOL     MW 2324   1.132   2.443   1.780 -0.3440  0.0675  0.2622
  582SOL     OW 2325   3.089   2.959   2.653  0.1905 -0.0105 -0.0982
  582SOL    HW1 2326   3.004   2.963   2.695  3.0584  0.2822 -1.7845
  582SOL    HW2 2327   3.145   2.898   2.704  0.9146  0.8329  0.4437
  582SOL     MW 2328   3.085   2.951   2.665  0.6644  0.1394 -0.2492
  583SOL     OW 2329   1.946   2.415   2.649 -0.4838 -0.1051  0.5999
  583SOL    HW1 2330   2.020   2.439   2.594 -2.2902  0.7290  0.7773
  583SOL    HW2 2331   1.939   2.316   2.653 -0.2925 -1.2647  0.3483
  583SOL     MW 2332   1.955   2.405   2.642 -0.6969 -0.1481  0.5901
  584SOL     OW 2333   0.185   1.907   2.203  0.6323  0.2991  0.6527
  584SOL    HW1 2334   0.173   1.893   2.295 -0.7792 -1.4235 -0.2628
  584SOL    HW2 2335   0.248   1.984   2.202 -0.2808 -0.4502 -2.4652
  584SOL     MW 2336   0.192   1.915   2.215  0.3256 -0.0271  0.1205
  585SOL     OW 2337   1.555   2.704   0.167  0.1518 -0.1165  0.1241
  585SOL    HW1 2338   1.499   2.712   0.089 -0.5427  0.9254 -0.9390
  585SOL    HW2 2339   1.490   2.720   0.236  1.1997 -1.1906 -1.2877
  585SOL     MW 2340   1.539   2.707   0.166  0.1984 -0.1208 -0.2025
  586SOL     OW 2341   1.339   2.810   2.551 -0.1353 -0.6793 -0.1298
  586SOL    HW1 2342   1.387   2.766   2.479  0.7818  0.1760  1.5195
  586SOL    HW2 2343   1.357   2.904   2.564 -0.1551  1.2050  1.6708
  586SOL     MW 2344   1.347   2.817   2.543 -0.0169 -0.3179  0.3254
  587SOL     OW 2345   1.326   1.443   2.166 -0.5966  0.1376 -0.4319
  587SOL    HW1 2346   1.290   1.372   2.218  1.6581  1.2552 -0.7739
  587SOL    HW2 2347   1.366   1.401   2.086  0.8740 -1.0902  1.5020
  587SOL     MW 2348   1.326   1.428   2.162 -0.1051  0.1231 -0.2219
  588SOL     OW 2349   1.337   2.018   2.699 -0.3215  0.2090 -0.2799
  588SOL    HW1 2350   1.375   1.934   2.718 -0.6093  0.9105 -1.6519
  588SOL    HW2 2351   1.302   2.052   2.782 -1.1056 -0.7069  1.5406
  588SOL     MW 2352   1.337   2.011   2.713 -0.4629  0.1807 -0.2207
  589SOL     OW 2353   1.354   2.022   0.043 -0.7490 -0.2116 -0.6138
  589SOL    HW1 2354   1.378   2.110   0.082 -1.6553  0.5653 -1.7116
  589SOL    HW2 2355   1.323   1.968   0.115 -0.8821  1.7605  1.9671
  589SOL     MW 2356   1.353   2.026   0.057 -0.8861  0.1511 -0.4181
  590SOL     OW 2357   0.511   2.665   2.183 -0.3349 -0.2317  0.7610
  590SOL    HW1 2358   0.507   2.677   2.087 -1.1550  2.2684 -1.6487
  590SOL    HW2 2359   0.592   2.716   2.199 -0.4604 -0.7212  0.0670
  590SOL     MW 2360   0.521   2.673   2.172 -0.4597  0.0336  0.3515
  591SOL     OW 2361   2.203   0.672   0.161 -0.1220 -0.2944  0.0567
  591SOL    HW1 2362   2.141   0.702   0.234 -1.2016  1.3676  1.6854
  591SOL    HW2 2363   2.200   0.718   0.077 -0.9869 -0.5101 -3.1503
  591SOL     MW 2364   2.194   0.682   0.160 -0.3786 -0.1036 -0.1515
  592SOL     OW 2365   1.660   2.910   0.794  0.1288 -0.4617 -0.6450
  592SOL    HW1 2366   1.642   3.001   0.802 -2.9575 -0.6496  1.1738
  592SOL    HW2 2367   1.757   2.905   0.800 -0.2562  0.7266 -2.2395
  592SOL     MW 2368   1.671   2.921   0.796 -0.3292 -0.3297 -0.6154
  593SOL     OW 2369   1.930   0.712   0.749  0.3799 -0.2890 -0.1592
  593SOL    HW1 2370   1.873   0.734   0.675 -1.6414  0.9005 -1.7684
  593SOL    HW2 2371   1.961   0.622   0.737 -0.7318  0.5461  1.8634
  593SOL     MW 2372   1.926   0.703   0.738 -0.0334 -0.0219 -0.1046
  594SOL     OW 2373   2.810   1.001   1.390  0.1780  0.2549 -0.9934
  594SOL    HW1 2374   2.891   1.025   1.346  4.3943 -0.0206  1.9751
  594SOL    HW2 2375   2.743   1.032   1.333 -0.0972  0.1176 -1.0704
  594SOL     MW 2376   2.812   1.009   1.377  0.6980  0.2004 -0.6119
  595SOL     OW 2377   0.532   0.922   0.846  0.0097  0.5039  0.3697
  595SOL    HW1 2378   0.481   0.961   0.774 -0.4825  2.5943  0.2249
  595SOL    HW2 2379   0.577   1.004   0.878  1.0257 -1.6189 -0.5073
  595SOL     MW 2380   0.531   0.938   0.841  0.0788  0.4996  0.2349
  596SOL     OW 2381   2.453   1.373   0.478 -0.6007  0.0898 -0.0713
  596SOL    HW1 2382   2.426   1.442   0.417  0.7386  0.3007 -0.6161
  596SOL    HW2 2383   2.522   1.395   0.538 -0.1589 -0.7757 -1.9548
  596SOL     MW 2384   2.458   1.385   0.478 -0.3657  0.0034 -0.3917
  597SOL     OW 2385   2.233   0.643   1.562 -0.2094 -0.4041 -0.0851
  597SOL    HW1 2386   2.253   0.596   1.640 -1.2471 -1.3309 -2.2294
  597SOL    HW2 2387   2.157   0.593   1.527  1.7347  4.8920 -0.2327
  597SOL     MW 2388   2.226   0.630   1.568 -0.0898  0.1724 -0.3875
  598SOL     OW 2389   2.594   1.033   2.897  0.0983 -0.2836  0.1759
  598SOL    HW1 2390   2.597   0.940   2.881 -0.5942 -0.6204 -1.8383
  598SOL    HW2 2391   2.684   1.055   2.888 -1.4829 -0.2255  0.0344
  598SOL     MW 2392   2.606   1.024   2.894 -0.2017 -0.3204 -0.1085
  599SOL     OW 2393   3.073   0.477   2.274 -0.3367  0.2553 -0.0911
  599SOL    HW1 2394   3.160   0.496   2.320 -2.9079  0.5163  0.4382
  599SOL    HW2 2395   3.072   0.532   2.191 -1.1279  2.5123 -3.4601
  599SOL     MW 2396   3.085   0.487   2.269 -0.7804  0.5875 -0.4658
  600SOL     OW 2397   1.821   1.709   0.835 -0.1385  0.0248  0.1782
  600SOL    HW1 2398   1.854   1.744   0.918 -0.5631 -0.1397 -0.7799
  600SOL    HW2 2399   1.751   1.772   0.816  0.6628 -0.0800  0.2454
  600SOL     MW 2400   1.816   1.722   0.844 -0.0888 -0.0107  0.0606
  601SOL     OW 2401   2.547   0.765   0.858 -0.1046  0.1864  0.7331
  601SOL    HW1 2402   2.543   0.728   0.943 -1.1709  0.4764 -2.2880
  601SOL    HW2 2403   2.500   0.700   0.809  0.8320 -2.6774  1.6232
  601SOL     MW 2404   2.541   0.752   0.863 -0.1217 -0.1532  0.4519
  602SOL     OW 2405   2.262   1.912   0.763  0.0644  0.7652 -0.1745
  602SOL    HW1 2406   2.210   1.843   0.720  0.6064 -1.4273 -1.6412
  602SOL    HW2 2407   2.221   1.990   0.736  0.6863 -3.5447  3.1379
  602SOL     MW 2408   2.250   1.913   0.754  0.2180 -0.0927  0.0690
  603SOL     OW 2409   2.988   1.366   1.962 -0.0174  0.1468 -0.1933
  603SOL    HW1 2410   2.980   1.407   2.044  1.4907 -1.4791 -0.0486
  603SOL    HW2 2411   3.051   1.302   1.971 -0.0647  0.6861  0.9379
  603SOL     MW 2412   2.995   1.363   1.974  0.1753  0.0034 -0.0250
  604SOL     OW 2413   2.017   1.378   0.346  0.4005  0.4042  0.5192
  604SOL    HW1 2414   2.076   1.324   0.401 -0.8959 -1.7138 -2.5359
  604SOL    HW2 2415   1.939   1.397   0.402 -1.6804  3.1743 -0.5440
  604SOL     MW 2416   2.015   1.374   0.360 -0.0451  0.4903 -0.0242
  605SOL     OW 2417   2.435   1.449   0.816  0.2663  0.3061  0.4657
  605SOL    HW1 2418   2.415   1.493   0.734 -0.3006 -0.2554 -0.7407
  605SOL    HW2 2419   2.483   1.369   0.800 -0.7938  0.0846  1.5586
  605SOL     MW 2420   2.439   1.445   0.803  0.0517  0.2028  0.4507
  606SOL     OW 2421   2.698   1.756   1.798  0.0335 -0.0091 -0.3606
  606SOL    HW1 2422   2.617   1.770   1.845  0.0279 -0.1383  0.8729
  606SOL    HW2 2423   2.706   1.660   1.778 -2.3235  2.1759 -1.7462
  606SOL     MW 2424   2.689   1.745   1.802 -0.2782  0.2622 -0.3807
  607SOL     OW 2425   2.378   0.980   3.075 -0.2588  0.8750  0.2349
  607SOL    HW1 2426   2.463   1.012   3.040 -0.1355 -1.4201  0.5424
  607SOL    HW2 2427   2.395   0.949   3.169  0.7542 -1.3010 -3.1960
  607SOL     MW 2428   2.391   0.980   3.083 -0.1089  0.2851 -0.1772
  608SOL     OW 2429   1.873   0.249   0.503  0.1880  0.0342 -0.2247
  608SOL    HW1 2430   1.889   0.275   0.409  2.9064  1.6231 -2.5802
  608SOL    HW2 2431   1.828   0.160   0.496  0.4439 -0.2903 -0.5686
  608SOL     MW 2432   1.869   0.241   0.490  0.5804  0.2010 -0.5809
  609SOL     OW 2433   2.130   1.885   3.063 -0.0003  0.0056  0.2303
  609SOL    HW1 2434   2.059   1.848   3.003 -0.5066  0.5366  0.0443
  609SOL    HW2 2435   2.115   1.848   3.150 -0.1495  1.5159  0.6041
  609SOL     MW 2436   2.119   1.876   3.066 -0.0868  0.2749  0.2551
  610SOL     OW 2437   1.810   0.943   1.204 -0.1041  0.0798  0.0183
  610SOL    HW1 2438   1.819   0.858   1.162  0.2449  0.3571 -0.5879
  610SOL    HW2 2439   1.708   0.963   1.188 -2.7965  0.3870 -4.5758
  610SOL     MW 2440   1.798   0.934   1.196 -0.4133  0.1569 -0.6678
  611SOL     OW 2441   2.464   1.651   0.598  0.1907 -0.5967 -0.2345
  611SOL    HW1 2442   2.444   1.619   0.513 -1.5926  2.1507 -0.9731
  611SOL    HW2 2443   2.464   1.742   0.585  1.9356 -1.4276 -0.6044
  611SOL     MW 2444   2.461   1.659   0.585  0.1856 -0.3438 -0.3808
  612SOL     OW 2445   2.872   2.912   0.364 -0.1789 -0.4786  0.6060
  612SOL    HW1 2446   2.879   2.920   0.464 -1.1292 -1.5652  1.4050
  612SOL    HW2 2447   2.961   2.893   0.330 -0.9177 -2.0887 -0.0704
  612SOL     MW 2448   2.885   2.911   0.373 -0.4018 -0.8344  0.6222
  613SOL     OW 2449   1.424   1.103   1.002 -0.2610  0.1586 -0.1145
  613SOL    HW1 2450   1.465   1.189   0.988 -0.1627 -1.9570 -1.7859
  613SOL    HW2 2451   1.441   1.074   1.094 -0.4148 -1.7147 -0.1615
  613SOL     MW 2452   1.432   1.110   1.012 -0.2683 -0.3677 -0.3412
  614SOL     OW 2453   2.044   0.473   1.419  0.5779  0.0327  0.9061
  614SOL    HW1 2454   2.011   0.421   1.495  1.1329  1.3348 -0.2609
  614SOL    HW2 2455   1.962   0.509   1.387 -0.9747  0.0558  0.9095
  614SOL     MW 2456   2.028   0.471   1.425  0.4462  0.2075  0.7525
  615SOL     OW 2457   2.410   0.728   0.334 -0.3674  0.2393 -0.0280
  615SOL    HW1 2458   2.477   0.661   0.347  0.2930  2.4232 -2.1121
  615SOL    HW2 2459   2.370   0.696   0.257  0.2191 -1.0639 -1.9016
  615SOL     MW 2460   2.414   0.715   0.325 -0.2029  0.3555 -0.5502
  616SOL     OW 2461   2.586   0.407   1.629 -0.2306 -0.1244  0.3296
  616SOL    HW1 2462   2.594   0.322   1.579 -0.2824 -1.1731  0.3842
  616SOL    HW2 2463   2.575   0.481   1.570  1.4648  1.5747  2.0471
  616SOL     MW 2464   2.586   0.406   1.615 -0.0137 -0.0386  0.5634
  617SOL     OW 2465   2.833   0.548   1.847 -0.1957  0.0138 -0.3721
  617SOL    HW1 2466   2.754   0.525   1.887  0.6328 -0.2618 -1.7555
  617SOL    HW2 2467   2.858   0.462   1.813 -0.5425  0.7643  1.8106
  617SOL     MW 2468   2.826   0.533   1.848 -0.1322  0.0765 -0.2667
  618SOL     OW 2469   2.818   0.258   2.002  0.1987 -0.2969  0.1180
  618SOL    HW1 2470   2.751   0.263   2.075 -1.2577  0.8753 -0.9226
  618SOL    HW2 2471   2.899   0.249   2.057  1.4289  1.8893 -0.1159
  618SOL     MW 2472   2.820   0.258   2.019  0.1688  0.1462 -0.0502
  619SOL     OW 2473   2.711   0.722   0.082  0.6133  0.1643  0.0289
  619SOL    HW1 2474   2.739   0.809   0.063 -0.5958  0.2781 -1.4890
  619SOL    HW2 2475   2.763   0.681   0.148  0.4121  0.2654  1.6766
  619SOL     MW 2476   2.722   0.728   0.089  0.4272  0.1926  0.0460
  620SOL     OW 2477   2.232   1.026   0.937 -0.0807 -0.3436 -0.5882
  620SOL    HW1 2478   2.311   1.020   0.884  1.4452  0.2253  1.0754
  620SOL    HW2 2479   2.154   1.030   0.880  0.7645  1.0518 -1.5595
  620SOL     MW 2480   2.232   1.026   0.923  0.2321 -0.0844 -0.4969
  621SOL     OW 2481   1.512   2.204   2.002  0.4748  0.1842 -0.5976
  621SOL    HW1 2482   1.448   2.126   2.010 -1.4684  3.3000  0.7666
  621SOL    HW2 2483   1.602   2.169   2.007 -1.7042 -1.2626 -0.2226
  621SOL     MW 2484   1.515   2.189   2.004 -0.0691  0.4044 -0.3681
  622SOL     OW 2485   2.641   0.293   0.217  0.0695 -0.1506 -0.1557
  622SOL    HW1 2486   2.723   0.339   0.249  0.8033 -1.4049 -2.1483
  622SOL    HW2 2487   2.676   0.211   0.189 -2.5754 -0.9163 -0.1325
  622SOL     MW 2488   2.656   0.288   0.218 -0.1826 -0.4171 -0.4155
  623SOL     OW 2489   2.362   2.774   0.820 -0.4463  0.2136  0.0172
  623SOL    HW1 2490   2.435   2.830   0.818 -0.5758 -2.4965  0.3497
  623SOL    HW2 2491   2.327   2.807   0.907 -0.5178  0.7572 -1.9741
  623SOL     MW 2492   2.367   2.786   0.831 -0.4729 -0.0722 -0.2017
  624SOL     OW 2493   2.114   1.577   3.046 -0.1950  0.7579 -0.2811
  624SOL    HW1 2494   2.094   1.492   3.012  0.0985 -0.6512 -0.4951
  624SOL    HW2 2495   2.035   1.626   3.033  2.7871  0.4976  1.1012
  624SOL     MW 2496   2.101   1.573   3.040  0.2372  0.5376 -0.1269
  625SOL     OW 2497   2.170   1.861   1.012 -0.0829  0.6501  0.3254
  625SOL    HW1 2498   2.205   1.786   1.065 -1.7377  1.1094 -1.2959
  625SOL    HW2 2499   2.199   1.859   0.921 -1.3150  0.2853  1.3285
  625SOL     MW 2500   2.179   1.851   1.007 -0.4638  0.6626  0.2438
  626SOL     OW 2501   0.153   1.846   2.465 -0.7628 -0.3362 -0.1880
  626SOL    HW1 2502   0.108   1.766   2.478 -4.0330  5.1943 -0.4295
  626SOL    HW2 2503   0.091   1.918   2.492 -0.7496  0.6299 -1.2338
  626SOL     MW 2504   0.139   1.845   2.471 -1.1925  0.5210 -0.3578
  627SOL     OW 2505   2.617   0.810   2.584 -0.3588 -0.3433  0.6076
  627SOL    HW1 2506   2.539   0.867   2.608 -1.1393  0.8541 -1.1439
  627SOL    HW2 2507   2.586   0.749   2.515  0.3222 -0.3084 -0.6764
  627SOL     MW 2508   2.602   0.809   2.578 -0.3719 -0.1807  0.2071
  628SOL     OW 2509   2.354   1.437   1.292  0.1883 -0.6648  0.0033
  628SOL    HW1 2510   2.362   1.351   1.247  0.9505 -0.9564 -1.1706
  628SOL    HW2 2511   2.404   1.501   1.241  0.1876  0.2458  1.3018
  628SOL     MW 2512   2.362   1.434   1.279  0.2887 -0.5832  0.0198
  629SOL     OW 2513   1.819   0.632   1.320  0.4767 -0.0998 -0.2275
  629SOL    HW1 2514   1.849   0.652   1.230  0.2184  1.8858 -0.5630
  629SOL    HW2 2515   1.735   0.585   1.310  1.3009  1.2483  0.4468
  629SOL     MW 2516   1.812   0.628   1.307  0.5513  0.3400 -0.1828
  630SOL     OW 2517   2.390   1.916   3.063  0.1009  0.2700 -0.0948
  630SOL    HW1 2518   2.387   2.007   3.022 -0.6494  3.3469 -0.4374
  630SOL    HW2 2519   2.294   1.896   3.050 -0.6893  2.6026 -0.4574
  630SOL     MW 2520   2.377   1.926   3.056 -0.1024  0.9837 -0.1878
  631SOL     OW 2521   2.099   1.842   1.496  0.3960  0.0063 -0.0756
  631SOL    HW1 2522   2.069   1.763   1.548 -1.7558  0.4721  0.0710
  631SOL    HW2 2523   2.022   1.896   1.472  0.5106  2.0877  0.7384
  631SOL     MW 2524   2.085   1.839   1.500  0.1272  0.3424  0.0512
  632SOL     OW 2525   0.352   1.863   1.483  0.8322  0.1284 -0.4351
  632SOL    HW1 2526   0.304   1.949   1.464  0.8923  2.6928 -3.0167
  632SOL    HW2 2527   0.289   1.802   1.519 -0.8982 -1.4215  0.9553
  632SOL     MW 2528   0.338   1.866   1.485  0.6118  0.2622 -0.5923
  633SOL     OW 2529   2.595   0.519   0.356  0.6282  0.1739  0.0243
  633SOL    HW1 2530   2.667   0.522   0.415 -1.4146  0.3504 -0.0532
  633SOL    HW2 2531   2.594   0.429   0.331  1.7849 -0.0736  0.6895
  633SOL     MW 2532   2.604   0.507   0.360  0.5113  0.1645  0.1018
  634SOL     OW 2533   2.704   3.066   0.584  0.5315  0.0080 -0.0730
  634SOL    HW1 2534   2.726   3.155   0.552 -0.1721 -0.0147  0.6998
  634SOL    HW2 2535   2.653   3.024   0.514  0.9517 -0.1496  0.0750
  634SOL     MW 2536   2.700   3.072   0.571  0.4941 -0.0158  0.0485
  635SOL     OW 2537   2.637   0.019   1.884  0.3616 -0.4404 -0.2574
  635SOL    HW1 2538   2.677  -0.041   1.820  0.2517  1.8421  3.6444
  635SOL    HW2 2539   2.709   0.083   1.914 -0.0409  2.0855 -1.0580
  635SOL     MW 2540   2.652   0.020   1.880  0.2940  0.1940  0.1517
  636SOL     OW 2541   2.710   1.685   0.763 -0.1590 -0.3668 -0.0966
  636SOL    HW1 2542   2.639   1.657   0.703  0.6916 -3.8860  1.1968
  636SOL    HW2 2543   2.682   1.762   0.815 -2.3653 -2.2040  0.8783
  636SOL     MW 2544   2.697   1.692   0.762 -0.3379 -1.0735  0.2027
  637SOL     OW 2545   2.901   1.464   0.705  0.5195 -0.6396  0.5690
  637SOL    HW1 2546   2.944   1.520   0.638  1.7426 -1.4834  1.9590
  637SOL    HW2 2547   2.829   1.517   0.729  0.8815 -2.1090 -0.7204
  637SOL     MW 2548   2.897   1.479   0.699  0.7286 -0.9448  0.5823
  638SOL     OW 2549   2.831   0.540   0.535 -0.0669  0.0801  0.3525
  638SOL    HW1 2550   2.903   0.593   0.503  0.1539  0.5149 -1.1190
  638SOL    HW2 2551   2.810   0.560   0.624 -4.2908 -0.8244 -1.8491
  638SOL     MW 2552   2.838   0.549   0.542 -0.5951  0.0181 -0.1322
  639SOL     OW 2553   1.821   3.090   0.546  0.9935  0.2399 -0.0992
  639SOL    HW1 2554   1.727   3.084   0.556 -3.1949  3.6319 -0.2289
  639SOL    HW2 2555   1.835   2.995   0.535 -1.8704 -1.7210  0.6619
  639SOL     MW 2556   1.811   3.077   0.546  0.0630  0.4287 -0.0159
  640SOL     OW 2557   0.291   1.432   0.090  0.1252  0.5177 -0.2133
  640SOL    HW1 2558   0.300   1.429  -0.002 -5.1476  0.4948  0.6929
  640SOL    HW2 2559   0.326   1.345   0.119 -0.2830  0.4493  0.0493
  640SOL     MW 2560   0.297   1.420   0.082 -0.6244  0.5057 -0.0591
  641SOL     OW 2561   2.281   0.345   0.418  1.0039  0.7417  0.1363
  641SOL    HW1 2562   2.309   0.295   0.345 -0.7640  1.0409  1.8108
  641SOL    HW2 2563   2.344   0.313   0.483 -0.6217 -2.7682  1.4648
  641SOL     MW 2564   2.293   0.334   0.417  0.5562  0.3181  0.5325
  642SOL     OW 2565   0.092   3.085   0.484  0.3366 -0.2782 -0.3730
  642SOL    HW1 2566   0.057   3.167   0.447  1.6913  1.1600 -1.5661
  642SOL    HW2 2567   0.009   3.060   0.527 -0.5490  2.5784 -2.6502
  642SOL     MW 2568   0.076   3.092   0.485  0.3985  0.2884 -0.8308
  643SOL     OW 2569   2.132   0.328   1.674  0.5133  0.8129  0.3133
  643SOL    HW1 2570   2.053   0.293   1.713 -0.0989  0.6739 -0.2449
  643SOL    HW2 2571   2.161   0.263   1.607  0.6154 -0.7930 -1.2691
  643SOL     MW 2572   2.126   0.315   1.671  0.4460  0.5827  0.0309
  644SOL     OW 2573   2.697   1.885   0.946  0.3928  0.7301  0.2725
  644SOL    HW1 2574   2.661   1.812   0.998  2.2268  0.8432 -1.5618
  644SOL    HW2 2575   2.634   1.959   0.930 -0.5897  0.5679 -0.3288
  644SOL     MW 2576   2.684   1.885   0.951  0.5051  0.7237 -0.0488
  645SOL     OW 2577   2.793   0.945   0.794  0.3573  0.8955 -0.0778
  645SOL    HW1 2578   2.883   0.915   0.783 -0.1597  0.8436  0.2924
  645SOL    HW2 2579   2.775   0.942   0.887  1.2580  3.6920 -1.9262
  645SOL     MW 2580   2.803   0.941   0.805  0.4079  1.2576 -0.2728
  646SOL     OW 2581   0.133   2.268   0.875 -0.2286  0.3136  0.6297
  646SOL    HW1 2582   0.113   2.165   0.883 -0.5325  0.2017  0.4694
  646SOL    HW2 2583   0.081   2.306   0.802 -1.2072  1.7064  2.1838
  646SOL     MW 2584   0.123   2.259   0.867 -0.3978  0.4826  0.8136
  647SOL     OW 2585   2.790   0.517   2.998  0.1596  0.0847  0.3119
  647SOL    HW1 2586   2.712   0.478   3.031  1.2385 -1.1788  0.2955
  647SOL    HW2 2587   2.799   0.580   3.065  0.4215 -0.1548  1.0502
  647SOL     MW 2588   2.781   0.520   3.011  0.3365 -0.1136  0.4072
  648SOL     OW 2589   2.148   0.631   1.124 -1.0440  0.0320 -0.2479
  648SOL    HW1 2590   2.199   0.594   1.191  0.9878  1.0980 -1.6504
  648SOL    HW2 2591   2.201   0.704   1.099  0.1883 -2.8946 -0.1935
  648SOL     MW 2592   2.162   0.636   1.129 -0.6133 -0.2135 -0.4258
  649SOL     OW 2593   2.396   2.696   1.315  0.2492 -0.4122  0.1956
  649SOL    HW1 2594   2.486   2.721   1.324  0.6553 -1.6518 -1.7599
  649SOL    HW2 2595   2.409   2.613   1.264 -0.6144  1.4661 -1.7758
  649SOL     MW 2596   2.410   2.688   1.310  0.1889 -0.3279 -0.3225
  650SOL     OW 2597   2.733   0.246   0.503 -0.2528 -0.3006 -0.4358
  650SOL    HW1 2598   2.796   0.310   0.532  0.8986 -0.9176 -2.4851
  650SOL    HW2 2599   2.779   0.205   0.431 -0.2349  1.2535 -2.1268
  650SOL     MW 2600   2.748   0.249   0.498 -0.0985 -0.1770 -0.9293
  651SOL     OW 2601   0.027   0.439   0.998 -0.2712 -0.0983  0.0790
  651SOL    HW1 2602   0.055   0.501   0.925 -1.8900  0.4878  0.2445
  651SOL    HW2 2603  -0.036   0.497   1.049 -1.9436  1.2684 -0.0557
  651SOL     MW 2604   0.023   0.455   0.995 -0.7054  0.1593  0.0831
  652SOL     OW 2605   2.371   1.445   2.966 -0.8562 -0.1453 -0.7768
  652SOL    HW1 2606   2.445   1.453   2.903  0.5024  1.8872 -0.3253
  652SOL    HW2 2607   2.310   1.519   2.949 -2.5103 -2.8465 -2.2176
  652SOL     MW 2608   2.373   1.456   2.955 -0.8952 -0.2335 -0.9074
  653SOL     OW 2609   1.852   0.357   0.227  0.0758  0.4799 -0.2783
  653SOL    HW1 2610   1.847   0.266   0.189  0.7785  1.6417  2.3028
  653SOL    HW2 2611   1.905   0.398   0.162  0.9790  0.3959  0.1305
  653SOL     MW 2612   1.859   0.350   0.213  0.2876  0.6221  0.1162
  654SOL     OW 2613   2.424   0.997   0.734 -0.2277  0.2897 -0.6705
  654SOL    HW1 2614   2.367   0.956   0.666  1.8321  0.8265 -0.0752
  654SOL    HW2 2615   2.482   0.920   0.760  0.4058 -1.1238  1.0015
  654SOL     MW 2616   2.424   0.982   0.728  0.1276  0.1740 -0.3714
  655SOL     OW 2617   2.878   0.932   0.280  0.1790  0.3683  0.0915
  655SOL    HW1 2618   2.859   0.991   0.354 -0.2696  0.1321 -0.5718
  655SOL    HW2 2619   2.955   0.881   0.305  0.3397  0.3751  0.6820
  655SOL     MW 2620   2.886   0.933   0.293  0.1410  0.3380  0.0819
  656SOL     OW 2621   1.789   2.649   1.420 -0.2707  0.1742 -0.0719
  656SOL    HW1 2622   1.866   2.693   1.391  0.6855 -0.8045  1.6718
  656SOL    HW2 2623   1.812   2.557   1.424 -0.5234 -0.7260  2.9106
  656SOL     MW 2624   1.802   2.643   1.416 -0.1779 -0.0737  0.5517
  657SOL     OW 2625   0.075   1.775   1.117  0.3041  0.0528 -0.3500
  657SOL    HW1 2626   0.152   1.823   1.111  1.0354 -2.5190 -0.2982
  657SOL    HW2 2627   0.108   1.692   1.148  0.3900  0.6822  1.3338
  657SOL     MW 2628   0.089   1.771   1.120  0.4119 -0.2035 -0.1210
  658SOL     OW 2629   2.642   1.341   0.219  0.4444 -0.0858 -0.2268
  658SOL    HW1 2630   2.622   1.268   0.278 -0.3047 -0.1991 -1.1249
  658SOL    HW2 2631   2.671   1.406   0.279 -3.0799 -0.3862 -1.4018
  658SOL     MW 2632   2.643   1.340   0.235 -0.1195 -0.1404 -0.5003
  659SOL     OW 2633   2.108   1.415   1.033 -0.5376 -0.3247  0.1079
  659SOL    HW1 2634   2.158   1.330   1.055 -0.0860 -3.0872  0.4204
  659SOL    HW2 2635   2.073   1.441   1.115  0.8678 -0.4331 -0.9259
  659SOL     MW 2636   2.110   1.407   1.046 -0.2926 -0.7035  0.0127
  660SOL     OW 2637   2.084   1.580   1.593 -0.1956  0.8615 -0.1685
  660SOL    HW1 2638   2.116   1.569   1.683 -1.7023  0.0424  1.3131
  660SOL    HW2 2639   2.005   1.517   1.603  0.6428 -2.1528  0.2609
  660SOL     MW 2640   2.078   1.570   1.606 -0.2838  0.3557  0.0837
  661SOL     OW 2641   2.419   0.988   0.246  0.2409  0.1053  0.0885
  661SOL    HW1 2642   2.482   1.045   0.291 -1.3635 -1.6301  0.9399
  661SOL    HW2 2643   2.419   0.903   0.285  0.3462  0.8872 -0.7540
  661SOL     MW 2644   2.427   0.984   0.257  0.0431 -0.0205  0.0897
  662SOL     OW 2645   2.540   2.972   0.816 -0.3342  0.7539 -0.6687
  662SOL    HW1 2646   2.485   3.048   0.841 -0.7578 -0.2519  0.5675
  662SOL    HW2 2647   2.608   3.004   0.764 -1.3798 -2.3489  1.5137
  662SOL     MW 2648   2.542   2.987   0.813 -0.5280  0.2118 -0.2177
  663SOL     OW 2649   2.710   1.553   0.404 -0.0309  0.0287 -0.2544
  663SOL    HW1 2650   2.708   1.629   0.350 -2.7270  0.2943  2.7830
  663SOL    HW2 2651   2.783   1.570   0.474  2.2203 -0.5061 -0.6560
  663SOL     MW 2652   2.720   1.565   0.406 -0.0896 -0.0068  0.0934
  664SOL     OW 2653   2.532   1.444   1.513 -0.1824 -0.0074 -0.2297
  664SOL    HW1 2654   2.498   1.511   1.455 -1.4791 -0.4427  2.0483
  664SOL    HW2 2655   2.455   1.395   1.544 -0.3883  0.0204  4.0699
  664SOL     MW 2656   2.518   1.446   1.509 -0.3807 -0.0612  0.6381
  665SOL     OW 2657   2.863   0.788   2.119  0.1824 -0.3177  0.0219
  665SOL    HW1 2658   2.815   0.810   2.036 -1.0794  0.3113  0.9741
  665SOL    HW2 2659   2.929   0.724   2.090 -0.5488 -1.4219  1.0419
  665SOL     MW 2660   2.865   0.782   2.104 -0.0806 -0.3804  0.2821
  666SOL     OW 2661   2.825   2.991   1.703  0.8238 -0.2264  0.2253
  666SOL    HW1 2662   2.795   3.025   1.617 -3.3611 -0.6072  1.1884
  666SOL    HW2 2663   2.801   2.899   1.702 -0.6764 -1.4108  0.1486
  666SOL     MW 2664   2.818   2.983   1.692  0.0737 -0.4329  0.3423
  667SOL     OW 2665   2.017   2.728   1.727  0.3668 -0.1503  0.1759
  667SOL    HW1 2666   2.049   2.719   1.814  1.7711 -4.8169 -0.5587
  667SOL    HW2 2667   2.067   2.804   1.689 -0.3214 -0.5599 -0.2571
  667SOL     MW 2668   2.028   2.737   1.734  0.4613 -0.8201  0.0218
  668SOL     OW 2669   2.786   0.569   0.825  0.4993  0.6675 -0.1735
  668SOL    HW1 2670   2.841   0.574   0.898  0.0076 -0.0639 -1.6831
  668SOL    HW2 2671   2.724   0.644   0.825 -0.3151 -0.8149  0.6687
  668SOL     MW 2672   2.785   0.579   0.834  0.3269  0.3754 -0.2616
  669SOL     OW 2673   0.170   0.994   0.682 -0.2764  0.2992 -0.2574
  669SOL    HW1 2674   0.156   1.007   0.776  0.1548  0.3057  0.1153
  669SOL    HW2 2675   0.255   1.047   0.668 -0.1520 -2.8769  0.0724
  669SOL     MW 2676   0.179   1.003   0.693 -0.2031 -0.1190 -0.1647
  670SOL     OW 2677   2.919   0.349   0.289  0.2095 -0.4686 -0.1733
  670SOL    HW1 2678   2.906   0.288   0.219 -0.3565  0.8068 -1.4871
  670SOL    HW2 2679   2.959   0.422   0.243  2.3365  0.8178 -1.3167
  670SOL     MW 2680   2.922   0.351   0.273  0.4155 -0.1306 -0.4975
  671SOL     OW 2681   2.047   3.052   1.477  0.5223 -0.1122 -0.3966
  671SOL    HW1 2682   1.972   3.032   1.418 -0.0857 -0.0655 -0.8612
  671SOL    HW2 2683   2.008   3.075   1.559 -0.7664  0.3210 -1.4214
  671SOL     MW 2684   2.032   3.052   1.480  0.2721 -0.0489 -0.5931
  672SOL     OW 2685   1.838   1.777   1.299  0.1311  0.4363  0.0875
  672SOL    HW1 2686   1.818   1.863   1.350  0.8050 -1.5155 -1.8600
  672SOL    HW2 2687   1.857   1.805   1.211 -0.8752  0.4870 -1.2654
  672SOL     MW 2688   1.838   1.792   1.294  0.0872  0.1855 -0.3480
  673SOL     OW 2689   2.805   1.089   0.529  0.0983  0.1567 -0.4334
  673SOL    HW1 2690   2.797   1.039   0.605  1.3712  2.4654  0.0554
  673SOL    HW2 2691   2.856   1.163   0.567  3.3106  0.3608  1.7482
  673SOL     MW 2692   2.811   1.092   0.544  0.6901  0.4882 -0.0811
  674SOL     OW 2693   2.469   3.081   1.207 -0.3868 -0.5244 -0.0249
  674SOL    HW1 2694   2.452   3.106   1.114 -1.9817 -0.1223  0.8141
  674SOL    HW2 2695   2.416   3.005   1.211  1.5694 -2.1899 -2.2980
  674SOL     MW 2696   2.460   3.074   1.195 -0.3391 -0.6911 -0.2141
  675SOL     OW 2697   2.994   0.875   1.097 -0.1299 -0.2746  0.2739
  675SOL    HW1 2698   3.044   0.871   1.179 -0.7610 -3.9639  0.1274
  675SOL    HW2 2699   3.039   0.940   1.045 -4.9909  0.1199  1.0342
  675SOL     MW 2700   3.006   0.883   1.101 -0.8545 -0.7093  0.3549
  676SOL     OW 2701   2.894   1.456   1.703  0.1609 -0.3956  0.5848
  676SOL    HW1 2702   2.885   1.362   1.669 -0.0446 -0.7037  3.3952
  676SOL    HW2 2703   2.929   1.453   1.792 -1.0865 -1.5767 -2.0932
  676SOL     MW 2704   2.897   1.443   1.710 -0.0308 -0.5920  0.6023
  677SOL     OW 2705   2.480   0.679   1.911 -0.5501  1.0147 -0.5455
  677SOL    HW1 2706   2.452   0.587   1.889  2.0881  1.6013 -0.6264
  677SOL    HW2 2707   2.411   0.728   1.875  1.6486  1.2594 -0.1720
  677SOL     MW 2708   2.467   0.673   1.903  0.0881  1.1244 -0.5069
  678SOL     OW 2709   2.380   1.576   0.326 -0.0159 -0.6557  0.1528
  678SOL    HW1 2710   2.284   1.579   0.351 -2.2003  3.6959 -0.7791
  678SOL    HW2 2711   2.393   1.519   0.242 -1.2495  0.5002 -0.7282
  678SOL     MW 2712   2.369   1.569   0.318 -0.4669  0.0709 -0.0864
  679SOL     OW 2713   2.293   0.418   1.291 -0.1848  0.0218  0.1033
  679SOL    HW1 2714   2.291   0.350   1.223  2.5959 -0.4678 -0.2464
  679SOL    HW2 2715   2.200   0.425   1.324  1.5317  1.4815  2.0407
  679SOL     MW 2716   2.280   0.410   1.286  0.4086  0.1498  0.3127
  680SOL     OW 2717   2.471   0.137   1.482 -0.2709  0.3020 -0.3722
  680SOL    HW1 2718   2.375   0.145   1.482  2.1799 -0.3031  1.3172
  680SOL    HW2 2719   2.482   0.099   1.400 -0.3852  2.1554  2.9992
  680SOL     MW 2720   2.460   0.133   1.471  0.0374  0.4667  0.2955
  681SOL     OW 2721   0.229   0.611   1.455 -0.0158 -0.4164 -0.2863
  681SOL    HW1 2722   0.218   0.517   1.469  1.7416 -2.6036 -2.3823
  681SOL    HW2 2723   0.252   0.622   1.366  0.9126 -3.1069  1.3393
  681SOL     MW 2724   0.230   0.600   1.445  0.3386 -1.0600 -0.3484
  682SOL     OW 2725   3.085   2.862   1.530 -0.5942 -0.0411 -0.3137
  682SOL    HW1 2726   3.157   2.917   1.516 -1.5095 -2.8754 -0.0752
  682SOL    HW2 2727   3.069   2.910   1.612 -0.6495  1.8153  0.6130
  682SOL     MW 2728   3.092   2.876   1.539 -0.7223 -0.1701 -0.1600
  683SOL     OW 2729   2.088   0.797   3.014  0.2612 -1.1290  0.0992
  683SOL    HW1 2730   2.011   0.740   3.024 -0.1099 -0.7779 -0.6836
  683SOL    HW2 2731   2.048   0.877   3.046  1.9733  1.6784 -1.3735
  683SOL     MW 2732   2.072   0.800   3.020  0.4381 -0.7122 -0.1984
  684SOL     OW 2733   2.054   1.751   0.648 -0.1097 -0.1200  0.0313
  684SOL    HW1 2734   2.075   1.700   0.567  2.2662  0.8542  0.7203
  684SOL    HW2 2735   1.973   1.718   0.690  1.6692  0.0824  0.0373
  684SOL     MW 2736   2.046   1.740   0.643  0.4385  0.0353  0.1230
  685SOL     OW 2737   2.665   1.742   1.178 -0.5100  0.7826 -0.5078
  685SOL    HW1 2738   2.698   1.723   1.266 -0.7893 -1.2599  0.8176
  685SOL    HW2 2739   2.598   1.680   1.160  1.3128 -3.6853 -0.1589
  685SOL     MW 2740   2.661   1.731   1.187 -0.3063 -0.0764 -0.2869
  686SOL     OW 2741   2.834   0.648   1.606 -0.6641 -0.6450 -0.3941
  686SOL    HW1 2742   2.834   0.617   1.695  0.4055  0.8051 -1.3144
  686SOL    HW2 2743   2.922   0.692   1.591 -0.5670  1.4127 -1.3094
  686SOL     MW 2744   2.845   0.650   1.616 -0.5102 -0.1822 -0.6363
  687SOL     OW 2745   2.111   0.169   1.117  0.5496  0.2804 -0.5771
  687SOL    HW1 2746   2.192   0.198   1.077  0.8527  0.3727  3.0500
  687SOL    HW2 2747   2.056   0.218   1.059  0.0540  0.7127 -0.9993
  687SOL     MW 2748   2.114   0.179   1.104  0.5242  0.3496 -0.1542
  688SOL     OW 2749   2.469   0.576   1.421 -0.2922 -0.0089  0.8104
  688SOL    HW1 2750   2.420   0.503   1.380 -0.7044 -1.0897 -0.0391
  688SOL    HW2 2751   2.403   0.620   1.477 -1.1076 -0.5031  0.3152
  688SOL     MW 2752   2.453   0.572   1.423 -0.4542 -0.2167  0.6330
  689SOL     OW 2753   2.506   0.740   3.000 -0.2169 -0.3919 -0.5488
  689SOL    HW1 2754   2.456   0.819   3.024  1.1118  1.4309  1.4050
  689SOL    HW2 2755   2.570   0.716   3.068  0.0175  1.4255  1.0284
  689SOL     MW 2756   2.508   0.747   3.012 -0.0106  0.0884 -0.0829
  690SOL     OW 2757   2.036   0.927   1.846 -0.3129  0.6417 -0.5760
  690SOL    HW1 2758   2.047   0.843   1.896 -0.0257  3.3356  1.9201
  690SOL    HW2 2759   2.074   0.911   1.762  2.1282  1.8140  2.0976
  690SOL     MW 2760   2.042   0.914   1.842  0.0471  1.1518  0.1061
  691SOL     OW 2761   2.440   0.297   0.885 -0.1616  0.1884 -0.1557
  691SOL    HW1 2762   2.526   0.327   0.918 -0.1619  0.3613  0.4598
  691SOL    HW2 2763   2.392   0.379   0.873  1.6312 -0.6169  1.1530
  691SOL     MW 2764   2.445   0.312   0.888  0.0749  0.1050  0.0982
  692SOL     OW 2765   2.788   1.625   1.401 -0.4951  0.3249  0.0529
  692SOL    HW1 2766   2.788   1.578   1.487 -2.6466 -2.2175  0.4274
  692SOL    HW2 2767   2.848   1.700   1.421 -3.0763  1.2560 -1.2552
  692SOL     MW 2768   2.796   1.629   1.415 -1.1195  0.1123 -0.0703
  693SOL     OW 2769   2.296   0.442   0.005 -0.5923  0.9495 -0.0456
  693SOL    HW1 2770   2.218   0.381  -0.016 -2.1866 -0.3796  2.1351
  693SOL    HW2 2771   2.262   0.521   0.038  0.2709 -1.1616  1.5079
  693SOL     MW 2772   2.281   0.444   0.007 -0.6887  0.4956  0.4471
  694SOL     OW 2773   1.926   1.191   1.201  0.1278  0.3214 -0.1007
  694SOL    HW1 2774   2.018   1.169   1.192 -1.1630 -1.4135  0.2328
  694SOL    HW2 2775   1.879   1.101   1.204  0.8439  1.2295 -0.3322
  694SOL     MW 2776   1.932   1.176   1.200  0.0520  0.2123 -0.0872
  695SOL     OW 2777   2.917   1.410   1.285  0.4788  0.3158 -0.4061
  695SOL    HW1 2778   2.927   1.398   1.192 -0.4069 -0.7753  1.5291
  695SOL    HW2 2779   2.888   1.505   1.294 -0.6739 -0.7229  0.1740
  695SOL     MW 2780   2.915   1.421   1.274  0.2098  0.0348 -0.0742
  696SOL     OW 2781   2.039   1.410   0.736  0.4087 -0.4195 -0.2164
  696SOL    HW1 2782   2.105   1.430   0.806 -0.4280 -1.5740  0.1238
  696SOL    HW2 2783   1.993   1.332   0.765  0.7199  0.1235  1.4365
  696SOL     MW 2784   2.042   1.402   0.749  0.3393 -0.5002  0.0466
  697SOL     OW 2785   2.903   1.047   2.221 -0.3384 -0.2887  0.2581
  697SOL    HW1 2786   2.818   1.095   2.234  0.6917  0.8481  1.1978
  697SOL    HW2 2787   2.888   0.958   2.196 -0.8883 -1.9178 -0.7114
  697SOL     MW 2788   2.890   1.041   2.219 -0.2750 -0.3537  0.2541
  698SOL     OW 2789   2.556   0.392   3.064 -1.0542  0.2315  0.3522
  698SOL    HW1 2790   2.470   0.435   3.078  1.1492  0.4987  0.9964
  698SOL    HW2 2791   2.568   0.345   3.148 -1.1941  2.8077 -1.6642
  698SOL     MW 2792   2.546   0.391   3.077 -0.7820  0.6067  0.1711
  699SOL     OW 2793   1.869   1.599   2.028  0.1871 -0.6842 -0.8581
  699SOL    HW1 2794   1.833   1.516   2.067 -1.2479 -1.6117 -1.0410
  699SOL    HW2 2795   1.958   1.583   1.994  0.3880 -2.7398  1.5166
  699SOL     MW 2796   1.876   1.586   2.029  0.0242 -1.0778 -0.5689
  700SOL     OW 2797   2.686   0.877   1.611 -0.1168  0.3854  0.0505
  700SOL    HW1 2798   2.749   0.922   1.549  3.5355  1.2211  3.3574
  700SOL    HW2 2799   2.712   0.785   1.608  1.2603 -0.6813 -0.6845
  700SOL     MW 2800   2.698   0.871   1.602  0.5468  0.3549  0.3898
  701SOL     OW 2801   1.672   1.068   2.542 -0.0288  0.0659  1.0318
  701SOL    HW1 2802   1.759   1.034   2.570 -1.5945 -1.1394 -1.0253
  701SOL    HW2 2803   1.650   1.160   2.571 -0.6014  0.9465 -0.3007
  701SOL     MW 2804   1.681   1.076   2.549 -0.3109  0.0231  0.5846
  702SOL     OW 2805   2.060   0.471   0.676 -0.0603 -0.0450  0.0367
  702SOL    HW1 2806   2.062   0.377   0.665 -0.7470  3.5720  2.5904
  702SOL    HW2 2807   2.125   0.508   0.614 -0.9661  0.1344 -0.9867
  702SOL     MW 2808   2.069   0.463   0.667 -0.2704  0.4559  0.2386
  703SOL     OW 2809   2.701   1.250   0.983  0.1231 -0.0775  0.4043
  703SOL    HW1 2810   2.650   1.225   0.908 -1.5999 -1.1850  2.8892
  703SOL    HW2 2811   2.705   1.158   1.022  0.0466 -2.6616 -1.1650
  703SOL     MW 2812   2.694   1.234   0.979 -0.1143 -0.5646  0.5251
  704SOL     OW 2813   3.065   1.268   0.152 -0.2097  0.6705  0.5343
  704SOL    HW1 2814   2.975   1.249   0.121 -0.2379 -1.4147 -0.9432
  704SOL    HW2 2815   3.065   1.228   0.238 -1.3773 -1.7093 -0.9258
  704SOL     MW 2816   3.053   1.261   0.159 -0.3675  0.0814  0.1467
  705SOL     OW 2817   2.034   1.589   1.302  0.1104  0.7497 -0.1614
  705SOL    HW1 2818   1.966   1.655   1.300 -2.9252 -2.0313  1.0965
  705SOL    HW2 2819   2.066   1.585   1.395 -1.8480  2.4730  1.5761
  705SOL     MW 2820   2.029   1.597   1.314 -0.5485  0.6102  0.2338
  706SOL     OW 2821   2.996   1.212   0.699  0.0876 -0.4484 -0.3575
  706SOL    HW1 2822   3.068   1.206   0.640  1.3187 -0.1734  0.6769
  706SOL    HW2 2823   2.977   1.307   0.716 -2.1189 -0.4588 -0.6117
  706SOL     MW 2824   3.003   1.223   0.693 -0.0411 -0.4135 -0.2546
  707SOL     OW 2825   2.346   0.057   0.965 -0.7165 -0.0900 -0.4968
  707SOL    HW1 2826   2.387   0.146   0.941  3.5171  1.9338 -0.8505
  707SOL    HW2 2827   2.272   0.035   0.908  0.9699  2.7518 -1.1246
  707SOL     MW 2828   2.341   0.066   0.954  0.0646  0.5520 -0.6263
  708SOL     OW 2829   2.405   1.401   0.126  0.1450  0.7388 -0.5148
  708SOL    HW1 2830   2.498   1.374   0.143 -0.9383 -0.5757  1.4584
  708SOL    HW2 2831   2.402   1.425   0.029  1.2434  2.4031  0.4191
  708SOL     MW 2832   2.417   1.401   0.116  0.1470  0.7850 -0.1313
  709SOL     OW 2833   1.704   1.628   0.206 -0.1599 -0.4015  0.1645
  709SOL    HW1 2834   1.701   1.634   0.109 -2.0201  0.0965 -0.0599
  709SOL    HW2 2835   1.616   1.656   0.230 -3.0168 -0.1303  0.8678
  709SOL     MW 2836   1.692   1.632   0.196 -0.7823 -0.3000  0.2277
  710SOL     OW 2837   2.210   1.166   1.171  1.2053 -0.0350 -0.0677
  710SOL    HW1 2838   2.240   1.107   1.097 -2.3595 -1.7845 -1.1625
  710SOL    HW2 2839   2.243   1.108   1.247  2.0688  0.4637  2.5964
  710SOL     MW 2840   2.219   1.150   1.172  0.8489 -0.2000  0.1393
  711SOL     OW 2841   2.380   0.104   1.792 -0.2431 -0.4641 -0.0633
  711SOL    HW1 2842   2.468   0.073   1.816  0.6265  1.1849  2.5590
  711SOL    HW2 2843   2.385   0.096   1.699 -1.9965  2.6803  0.4409
  711SOL     MW 2844   2.392   0.099   1.783 -0.3597  0.1684  0.3492
  712SOL     OW 2845   1.884   0.613   3.075  0.2168  0.2518 -0.1749
  712SOL    HW1 2846   1.831   0.646   3.002  4.3537  1.7002  2.5019
  712SOL    HW2 2847   1.853   0.665   3.153 -1.9075  1.2626 -0.1757
  712SOL     MW 2848   1.873   0.624   3.075  0.4823  0.5763  0.1782
  713SOL     OW 2849   2.557   0.681   1.119  0.4564  0.1704  0.2669
  713SOL    HW1 2850   2.559   0.600   1.166  1.3339 -1.9581 -0.6672
  713SOL    HW2 2851   2.568   0.753   1.182  1.9041  0.2320  0.4896
  713SOL     MW 2852   2.558   0.680   1.133  0.7632 -0.1023  0.1730
  714SOL     OW 2853   2.239   0.199   2.012  0.2664 -0.0048 -0.1132
  714SOL    HW1 2854   2.282   0.133   2.063  1.4815  0.5435 -0.2000
  714SOL    HW2 2855   2.271   0.174   1.927 -0.7935 -0.7719 -0.4724
  714SOL     MW 2856   2.249   0.187   2.008  0.2869 -0.0337 -0.1720
  715SOL     OW 2857   1.825   1.997   1.713  0.1414 -0.2772 -0.7397
  715SOL    HW1 2858   1.922   2.010   1.722 -2.6239  1.1072  0.8244
  715SOL    HW2 2859   1.801   1.913   1.762 -1.5432 -0.4485  1.2210
  715SOL     MW 2860   1.835   1.988   1.721 -0.4457 -0.1172 -0.2746
  716SOL     OW 2861   2.454   0.556   0.710  0.1647 -0.4117  0.5785
  716SOL    HW1 2862   2.480   0.471   0.668  0.4508  0.6839 -0.7755
  716SOL    HW2 2863   2.385   0.589   0.661  0.4885 -0.8976  1.4802
  716SOL     MW 2864   2.448   0.549   0.698  0.2451 -0.3312  0.5188
  717SOL     OW 2865   2.799   1.636   2.819 -0.9039  0.4900 -0.1351
  717SOL    HW1 2866   2.879   1.599   2.852  1.2190 -1.8760  1.7712
  717SOL    HW2 2867   2.743   1.657   2.896  3.0597  2.4079  0.1408
  717SOL     MW 2868   2.802   1.634   2.834 -0.1009  0.4309  0.1528
  718SOL     OW 2869   2.646   1.342   1.294 -0.5373 -0.3182  0.3259
  718SOL    HW1 2870   2.617   1.387   1.379  0.4292  1.2992  2.2234
  718SOL    HW2 2871   2.738   1.373   1.275  0.7860 -1.1828  1.2969
  718SOL     MW 2872   2.655   1.352   1.303 -0.2352 -0.2188  0.7044
  719SOL     OW 2873   2.200   1.279   0.556  0.1148  0.1430 -0.6167
  719SOL    HW1 2874   2.292   1.301   0.530  0.9937 -2.1525  0.4781
  719SOL    HW2 2875   2.159   1.349   0.613 -2.3519 -0.9499  0.9854
  719SOL     MW 2876   2.207   1.291   0.560 -0.0947 -0.3041 -0.2609
  720SOL     OW 2877   2.806   1.271   0.015  0.1871 -0.5748 -0.1197
  720SOL    HW1 2878   2.788   1.175   0.024 -0.1327 -0.8111  1.8294
  720SOL    HW2 2879   2.747   1.304   0.081 -0.4647 -0.9474  0.7313
  720SOL     MW 2880   2.796   1.263   0.025  0.0589 -0.6551  0.2497
  721SOL     OW 2881   2.554   0.848   1.347  0.6257 -0.2005 -0.2273
  721SOL    HW1 2882   2.523   0.761   1.383 -2.2990 -1.3420  1.7956
  721SOL    HW2 2883   2.621   0.871   1.408 -0.4897  0.9036 -3.0843
  721SOL     MW 2884   2.558   0.840   1.360  0.0926 -0.2054 -0.3374
  722SOL     OW 2885   2.587   1.153   0.394 -0.0064 -0.3146  0.4408
  722SOL    HW1 2886   2.536   1.218   0.440 -0.5708 -0.0699 -3.0723
  722SOL    HW2 2887   2.668   1.137   0.448 -0.8024  1.7534  4.0689
  722SOL     MW 2888   2.591   1.160   0.407 -0.1859 -0.0095  0.4560
  723SOL     OW 2889   2.287   1.337   1.561  0.2573 -0.3127 -0.0816
  723SOL    HW1 2890   2.308   1.345   1.470  1.3572 -1.0526  0.4373
  723SOL    HW2 2891   2.210   1.397   1.577  1.1180 -1.3182  1.2388
  723SOL     MW 2892   2.279   1.346   1.551  0.5159 -0.5430  0.1611
  724SOL     OW 2893   2.454   0.286   0.605 -0.4804 -0.1527 -0.2018
  724SOL    HW1 2894   2.459   0.251   0.693 -0.6156 -1.8060 -1.6054
  724SOL    HW2 2895   2.544   0.286   0.577  0.1288 -1.6866  0.7999
  724SOL     MW 2896   2.467   0.281   0.613 -0.4178 -0.5732 -0.2548
  725SOL     OW 2897   2.616   0.428   1.219  0.3162  0.0063 -0.2731
  725SOL    HW1 2898   2.691   0.447   1.274 -0.4551  0.0926 -1.6559
  725SOL    HW2 2899   2.577   0.347   1.254  1.0355  1.9637  0.6679
  725SOL     MW 2900   2.621   0.420   1.231  0.3093  0.2760 -0.3314
  726SOL     OW 2901   2.508   2.487   0.426  0.2553 -0.5564  0.0355
  726SOL    HW1 2902   2.511   2.579   0.401 -2.7653 -2.1455 -2.0240
  726SOL    HW2 2903   2.493   2.488   0.524  1.0675  0.0923 -1.8787
  726SOL     MW 2904   2.506   2.500   0.436 -0.0361 -0.6804 -0.4888
  727SOL     OW 2905   2.864   0.309   1.745 -0.3504  0.5656 -0.0786
  727SOL    HW1 2906   2.780   0.318   1.703  0.1807 -1.3802  1.4209
  727SOL    HW2 2907   2.845   0.282   1.831  2.8346 -0.8913 -1.9071
  727SOL     MW 2908   2.851   0.307   1.750  0.1399  0.1167 -0.1220
  728SOL     OW 2909   2.829   1.174   2.864 -0.3978  0.3029 -0.1604
  728SOL    HW1 2910   2.830   1.214   2.778 -0.9396  0.1483  2.7297
  728SOL    HW2 2911   2.819   1.251   2.923  0.4790 -0.0118 -0.6000
  728SOL     MW 2912   2.828   1.190   2.860 -0.3536  0.2410  0.1629
  729SOL     OW 2913   2.527   1.516   1.060  0.1649 -0.0486 -0.7374
  729SOL    HW1 2914   2.549   1.431   1.098 -0.7482 -0.4880 -1.9031
  729SOL    HW2 2915   2.531   1.499   0.966  0.0667 -1.0908 -1.3561
  729SOL     MW 2916   2.530   1.503   1.052  0.0315 -0.2441 -0.9728
  730SOL     OW 2917   2.200   1.177   0.182 -1.0428 -0.2296  0.0190
  730SOL    HW1 2918   2.273   1.119   0.199  0.9717 -1.4162  2.9931
  730SOL    HW2 2919   2.241   1.262   0.161  1.0885 -1.7811  0.8841
  730SOL     MW 2920   2.215   1.181   0.181 -0.4958 -0.5908  0.5256
  731SOL     OW 2921   2.758   2.020   2.893  0.1393 -0.9301  0.2366
  731SOL    HW1 2922   2.692   2.010   2.830  0.0363 -0.4999  2.3863
  731SOL    HW2 2923   2.833   2.011   2.836  1.8016  1.6091  1.4317
  731SOL     MW 2924   2.759   2.017   2.877  0.3451 -0.5383  0.6779
  732SOL     OW 2925   2.317   0.966   1.355  0.1045  0.3558 -0.4697
  732SOL    HW1 2926   2.269   0.956   1.435  0.7879 -0.7028 -2.6596
  732SOL    HW2 2927   2.395   0.910   1.366  2.4331 -0.2648  0.5545
  732SOL     MW 2928   2.321   0.957   1.367  0.5019  0.1342 -0.6235
  733SOL     OW 2929   2.396   2.718   2.993  0.0184 -0.7779  0.2164
  733SOL    HW1 2930   2.312   2.753   3.006  1.1639  0.7403 -2.0820
  733SOL    HW2 2931   2.386   2.627   3.027  0.9421  0.2694 -1.1321
  733SOL     MW 2932   2.384   2.710   2.999  0.2914 -0.4394 -0.2648
  734SOL     OW 2933   1.496   0.266   2.507 -0.2534 -0.4515 -0.1014
  734SOL    HW1 2934   1.492   0.239   2.598 -3.6987  0.4179  0.4976
  734SOL    HW2 2935   1.405   0.251   2.475 -1.5371  1.4843 -0.5722
  734SOL     MW 2936   1.484   0.260   2.515 -0.8774 -0.0814 -0.0845
  735SOL     OW 2937   3.005   0.885   2.664  0.1871 -0.1648  0.0421
  735SOL    HW1 2938   2.985   0.788   2.665 -0.1522 -1.9530 -0.5675
  735SOL    HW2 2939   3.016   0.911   2.756  1.0303  0.0702 -0.0776
  735SOL     MW 2940   3.004   0.875   2.676  0.2536 -0.3697 -0.0541
  736SOL     OW 2941   0.128   0.560   2.550 -0.2759  0.0113 -0.4840
  736SOL    HW1 2942   0.112   0.640   2.490 -0.2017 -0.6310  1.3117
  736SOL    HW2 2943   0.200   0.510   2.513  1.9648 -0.0389 -0.0562
  736SOL     MW 2944   0.135   0.564   2.537  0.0295 -0.0801 -0.1906
  737SOL     OW 2945   2.970   0.610   2.657  0.2987 -0.5817 -0.5567
  737SOL    HW1 2946   2.914   0.611   2.574  1.1436 -1.9840 -1.7818
  737SOL    HW2 2947   3.050   0.585   2.622  0.3178  1.2760  0.9617
  737SOL     MW 2948   2.973   0.606   2.642  0.4127 -0.5216 -0.5180
  738SOL     OW 2949   0.125   0.433   1.857 -0.0073 -0.7213 -0.3687
  738SOL    HW1 2950   0.204   0.487   1.846 -0.5226 -0.6057  0.4399
  738SOL    HW2 2951   0.117   0.408   1.768  0.3655  0.6568 -1.0401
  738SOL     MW 2952   0.134   0.437   1.843 -0.0261 -0.5242 -0.3506
  739SOL     OW 2953   2.497   0.985   2.110  0.4358  0.1009 -0.5758
  739SOL    HW1 2954   2.430   0.945   2.055  1.5975  2.1515  5.0732
  739SOL    HW2 2955   2.577   0.989   2.058  1.4511 -6.0111  1.3131
  739SOL     MW 2956   2.499   0.980   2.096  0.7231 -0.4350  0.4188
  740SOL     OW 2957   0.110   1.771   2.967  0.0501 -0.6311  0.1144
  740SOL    HW1 2958   0.056   1.688   2.956 -2.0491 -2.4670  1.5384
  740SOL    HW2 2959   0.197   1.751   2.992  0.4511  0.0974 -0.2081
  740SOL     MW 2960   0.115   1.757   2.969 -0.1740 -0.7772  0.2598
  741SOL     OW 2961   2.227   1.140   2.709  1.0830  0.2915  0.0288
  741SOL    HW1 2962   2.191   1.223   2.685  1.2591 -3.1553  0.6493
  741SOL    HW2 2963   2.223   1.139   2.812  2.0773 -0.7035 -1.5513
  741SOL     MW 2964   2.222   1.151   2.720  1.2374 -0.2945 -0.0978
  742SOL     OW 2965   1.578   1.230   2.274 -0.8307 -0.1265  0.3179
  742SOL    HW1 2966   1.520   1.159   2.255 -1.7225  0.7432 -1.1221
  742SOL    HW2 2967   1.631   1.190   2.344 -1.9230 -4.0719  0.7029
  742SOL     MW 2968   1.577   1.215   2.281 -1.0925 -0.5323  0.1787
  743SOL     OW 2969   2.486   1.228   2.725 -0.1322 -0.1980 -0.0635
  743SOL    HW1 2970   2.388   1.199   2.716 -1.7089 -0.8394 -3.9735
  743SOL    HW2 2971   2.522   1.183   2.803 -1.9266 -0.2860  0.2020
  743SOL     MW 2972   2.478   1.218   2.734 -0.5770 -0.2942 -0.5444
  744SOL     OW 2973   2.677   0.863   1.915  0.8668 -0.5263  0.8590
  744SOL    HW1 2974   2.660   0.928   1.848  2.4199 -0.5727  1.5193
  744SOL    HW2 2975   2.604   0.796   1.907 -0.8241 -1.1694 -2.2586
  744SOL     MW 2976   2.665   0.863   1.905  0.8486 -0.6173  0.5348
  745SOL     OW 2977   1.673   0.498   2.500  0.1308 -0.0214 -0.0981
  745SOL    HW1 2978   1.694   0.505   2.406  1.2623 -2.2911  1.4674
  745SOL    HW2 2979   1.611   0.428   2.512 -1.0609  1.4223  0.4745
  745SOL     MW 2980   1.668   0.490   2.489  0.1229 -0.1304  0.1840
  746SOL     OW 2981   1.612   1.462   1.631 -0.8247  0.7099 -0.6146
  746SOL    HW1 2982   1.685   1.398   1.647 -1.5461  0.9669 -0.7049
  746SOL    HW2 2983   1.609   1.498   1.720  1.4097 -1.4169 -1.8767
  746SOL     MW 2984   1.622   1.458   1.645 -0.6251  0.4632 -0.7930
  747SOL     OW 2985   2.611   1.116   1.814  0.1190  0.5004 -0.3221
  747SOL    HW1 2986   2.515   1.116   1.782 -2.1730 -3.3584  0.7287
  747SOL    HW2 2987   2.603   1.164   1.899 -1.6079  0.2609 -0.8465
  747SOL     MW 2988   2.597   1.122   1.821 -0.4112 -0.0403 -0.2526
  748SOL     OW 2989   0.067   0.117   1.904  0.5610  0.4963 -0.1546
  748SOL    HW1 2990   0.160   0.149   1.915 -1.7878 -2.0489  1.7355
  748SOL    HW2 2991   0.017   0.159   1.976  0.2653 -0.4890 -1.5882
  748SOL     MW 2992   0.073   0.127   1.915  0.2121  0.0305 -0.0944
  749SOL     OW 2993   2.544   0.584   2.779  0.0700 -0.2827  0.4413
  749SOL    HW1 2994   2.569   0.654   2.718 -0.8297 -0.5292  1.1476
  749SOL    HW2 2995   2.546   0.621   2.871 -1.0119  0.2865 -0.9791
  749SOL     MW 2996   2.547   0.598   2.783 -0.1914 -0.2401  0.3471
  750SOL     OW 2997   2.021   3.075   1.984  0.2036  0.0682 -0.4108
  750SOL    HW1 2998   2.043   3.167   1.993  0.9022  0.2560  1.7358
  750SOL    HW2 2999   2.108   3.024   1.988 -1.2078 -0.1179  1.0697
  750SOL     MW 3000   2.036   3.081   1.985  0.1096  0.0684  0.0678
  751SOL     OW 3001   0.299   0.330   2.427  0.8390  0.3840 -0.1435
  751SOL    HW1 3002   0.245   0.274   2.475  3.5922  3.4159  2.3116
  751SOL    HW2 3003   0.283   0.294   2.339 -2.9445  1.4195  0.1133
  751SOL     MW 3004   0.290   0.318   2.422  0.7031  0.9206  0.2143
  752SOL     OW 3005   2.142   0.818   2.721  0.1140  0.5896  0.2524
  752SOL    HW1 3006   2.209   0.870   2.673 -0.2248 -2.0729 -0.7666
  752SOL    HW2 3007   2.153   0.837   2.815 -0.9627  3.2027 -0.1588
  752SOL     MW 3008   2.153   0.828   2.727 -0.0727  0.5831  0.0637
  753SOL     OW 3009   2.792   0.176   2.409 -0.6028 -0.6883 -0.2122
  753SOL    HW1 3010   2.775   0.081   2.380  0.2048 -2.1456  0.7213
  753SOL    HW2 3011   2.757   0.233   2.342 -1.9073 -2.2669 -0.1031
  753SOL     MW 3012   2.785   0.171   2.396 -0.6683 -1.0889 -0.0746
  754SOL     OW 3013   2.248   2.944   2.596  0.6207 -0.0945  0.4937
  754SOL    HW1 3014   2.288   2.958   2.509  2.2783  1.8925  1.7437
  754SOL    HW2 3015   2.314   2.895   2.645  2.8635 -0.5378 -2.3979
  754SOL     MW 3016   2.262   2.940   2.591  1.1354  0.1092  0.2771
  755SOL     OW 3017   2.746   1.532   2.394  0.2269  0.2696 -0.0402
  755SOL    HW1 3018   2.749   1.447   2.441 -1.0685  0.0226 -0.1747
  755SOL    HW2 3019   2.772   1.604   2.461  1.3170 -1.7720  2.4746
  755SOL     MW 3020   2.750   1.530   2.409  0.1998 -0.0323  0.2739
  756SOL     OW 3021   2.224   1.183   2.981  0.3687 -0.4460  0.5028
  756SOL    HW1 3022   2.278   1.261   2.987  1.1627 -1.0123 -1.0651
  756SOL    HW2 3023   2.274   1.117   3.031  0.0779  1.0975  0.6324
  756SOL     MW 3024   2.238   1.184   2.989  0.4351 -0.3171  0.3130
  757SOL     OW 3025   2.162   0.906   1.600  0.0096  0.5615  0.1212
  757SOL    HW1 3026   2.190   0.812   1.597  0.2320  2.0705  0.4493
  757SOL    HW2 3027   2.071   0.886   1.556 -2.3081 -1.7634  0.8804
  757SOL     MW 3028   2.154   0.891   1.594 -0.2669  0.4539  0.2647
  758SOL     OW 3029   2.207   1.832   2.622  0.1556 -0.7015  0.2138
  758SOL    HW1 3030   2.192   1.855   2.534  2.5180  1.0545 -0.8527
  758SOL    HW2 3031   2.296   1.793   2.628 -1.4343 -6.2656 -0.3017
  758SOL     MW 3032   2.217   1.830   2.611  0.2575 -1.2039  0.0051
  759SOL     OW 3033   1.536   1.288   2.710  0.2337  0.1271  0.3530
  759SOL    HW1 3034   1.534   1.373   2.662 -1.7213 -2.8624  0.6123
  759SOL    HW2 3035   1.585   1.311   2.792  0.2059  2.5620 -1.8597
  759SOL     MW 3036   1.542   1.302   2.715 -0.0279  0.0539  0.0953
  760SOL     OW 3037   2.545   1.988   2.729  0.4260  0.3306 -0.5204
  760SOL    HW1 3038   2.526   1.900   2.689  2.0821 -2.3232 -0.2297
  760SOL    HW2 3039   2.557   2.052   2.659  3.7916  0.7264  2.3270
  760SOL     MW 3040   2.544   1.985   2.714  1.0885  0.0327 -0.1063
  761SOL     OW 3041   2.176   0.417   2.560  0.2667  0.0852  0.3250
  761SOL    HW1 3042   2.114   0.369   2.607  0.9680 -0.7104 -3.7868
  761SOL    HW2 3043   2.217   0.463   2.637  0.8892  0.7729 -0.5218
  761SOL     MW 3044   2.173   0.416   2.576  0.4414  0.0710 -0.3292
  762SOL     OW 3045   3.058   0.210   2.141 -0.0798  0.5231  0.2469
  762SOL    HW1 3046   3.065   0.140   2.206 -1.6297  0.9487 -2.1700
  762SOL    HW2 3047   3.041   0.290   2.199  1.6319 -0.2389  1.3642
  762SOL     MW 3048   3.057   0.211   2.157 -0.0584  0.4788  0.0755
  763SOL     OW 3049   2.328   1.027   2.341  0.1020  0.1417 -0.2465
  763SOL    HW1 3050   2.391   0.984   2.284  0.0046 -1.5989  2.1935
  763SOL    HW2 3051   2.370   1.113   2.375  0.2680  0.7039  2.5719
  763SOL     MW 3052   2.342   1.033   2.338  0.1110 -0.0138  0.4473
  764SOL     OW 3053   0.429   0.278   2.822 -0.5015  0.1471  0.3142
  764SOL    HW1 3054   0.335   0.257   2.823 -0.3601  0.5162  0.3799
  764SOL    HW2 3055   0.433   0.372   2.828 -0.9461  1.6246 -2.6993
  764SOL     MW 3056   0.417   0.288   2.823 -0.5415  0.3907 -0.0747
  765SOL     OW 3057   2.726   3.012   2.378 -0.2282 -0.2403  0.6565
  765SOL    HW1 3058   2.669   3.020   2.304  1.4292  1.2926  1.1465
  765SOL    HW2 3059   2.805   2.986   2.327  0.5453 -0.5212  0.3309
  765SOL     MW 3060   2.729   3.009   2.361  0.0925 -0.0751  0.6782
  766SOL     OW 3061   1.879   2.943   2.183  0.4024  0.1441  0.3636
  766SOL    HW1 3062   1.921   3.005   2.120  0.5184 -1.4642 -0.4140
  766SOL    HW2 3063   1.818   2.882   2.133  0.6070  1.9057  0.6559
  766SOL     MW 3064   1.877   2.943   2.168  0.4447  0.1643  0.2996
  767SOL     OW 3065   2.660   0.604   2.102 -0.5416  0.3921  0.9301
  767SOL    HW1 3066   2.714   0.681   2.125  0.8220  0.4620 -1.6286
  767SOL    HW2 3067   2.579   0.636   2.061 -1.1023 -3.3257 -2.0386
  767SOL     MW 3068   2.656   0.618   2.099 -0.4357 -0.0892  0.2008
  768SOL     OW 3069   3.065   1.560   2.912 -0.3960  0.3924  0.2930
  768SOL    HW1 3070   3.062   1.538   3.013 -0.8417 -1.7472  4.2866
  768SOL    HW2 3071   3.128   1.495   2.863  0.3036 -0.1759  1.4360
  768SOL     MW 3072   3.073   1.548   2.919 -0.3625  0.0351  0.9707
  769SOL     OW 3073   2.481   0.677   2.342  0.1399 -0.3241 -0.9582
  769SOL    HW1 3074   2.428   0.598   2.353 -0.1744 -2.7390  2.3931
  769SOL    HW2 3075   2.548   0.654   2.279  2.4707 -0.0866  1.4905
  769SOL     MW 3076   2.483   0.664   2.335  0.4060 -0.6114 -0.1929
  770SOL     OW 3077   0.005   1.647   2.537 -0.0758  0.1628 -0.6159
  770SOL    HW1 3078  -0.090   1.637   2.509  1.9761 -0.9161 -1.9935
  770SOL    HW2 3079   0.049   1.566   2.559  1.5748 -1.9906  1.0342
  770SOL     MW 3080  -0.001   1.635   2.536  0.4127 -0.2637 -0.5799
  771SOL     OW 3081   3.043   0.611   1.994  0.0914  0.4363 -0.4062
  771SOL    HW1 3082   2.967   0.598   1.933 -1.7796  0.6430 -0.7112
  771SOL    HW2 3083   3.100   0.545   1.947 -0.9385 -2.4824 -1.0887
  771SOL     MW 3084   3.040   0.601   1.980 -0.2913  0.0785 -0.5365
  772SOL     OW 3085   0.066   3.081   2.295  0.3617 -0.5478 -0.4971
  772SOL    HW1 3086  -0.000   3.012   2.304  0.1603  0.5284 -0.7916
  772SOL    HW2 3087   0.139   3.040   2.249 -1.1918  0.3236  0.6479
  772SOL     MW 3088   0.067   3.067   2.290  0.1301 -0.2908 -0.3849
  773SOL     OW 3089   2.446   2.830   2.743  0.2151 -0.2707 -0.0358
  773SOL    HW1 3090   2.455   2.757   2.683  1.5013  0.0257 -1.1380
  773SOL    HW2 3091   2.448   2.794   2.833  0.9336 -2.1705  1.5984
  773SOL     MW 3092   2.447   2.816   2.747  0.4796 -0.4823  0.0344
  774SOL     OW 3093   2.357   1.146   1.737 -0.6833 -0.1423  0.0791
  774SOL    HW1 3094   2.331   1.208   1.667 -1.9216  1.5676 -0.1021
  774SOL    HW2 3095   2.295   1.073   1.718  0.3346  1.1585 -0.7023
  774SOL     MW 3096   2.345   1.144   1.726 -0.7123  0.2550 -0.0479
  775SOL     OW 3097   2.310   2.935   2.335 -0.4293 -0.1848  0.2776
  775SOL    HW1 3098   2.336   3.008   2.276 -1.5148  0.7841 -0.8263
  775SOL    HW2 3099   2.365   2.866   2.307  2.1862 -0.7403  1.0492
  775SOL     MW 3100   2.321   2.935   2.324 -0.2275 -0.1302  0.2338
  776SOL     OW 3101   0.037   1.539   0.089  0.0473 -0.2057 -0.3805
  776SOL    HW1 3102   0.128   1.525   0.093 -0.6929  2.6464 -0.5198
  776SOL    HW2 3103   0.002   1.457   0.109 -0.4738  1.1204 -0.2915
  776SOL     MW 3104   0.044   1.527   0.092 -0.1191  0.3456 -0.3872
  777SOL     OW 3105   2.957   0.985   1.754 -0.2734 -0.3398 -0.0158
  777SOL    HW1 3106   2.927   1.066   1.708  0.0419 -2.0590  1.6984
  777SOL    HW2 3107   2.894   0.921   1.725  0.3236  1.4864 -0.6396
  777SOL     MW 3108   2.945   0.987   1.744 -0.1530 -0.3257  0.1281
  778SOL     OW 3109   2.888   0.369   2.770 -0.0007 -0.8867  0.0896
  778SOL    HW1 3110   2.830   0.404   2.842 -1.4500 -1.8288 -2.3266
  778SOL    HW2 3111   2.924   0.456   2.739 -2.7837 -0.4867  2.3926
  778SOL     MW 3112   2.885   0.385   2.775 -0.5591 -0.9582  0.0747
  779SOL     OW 3113   2.110   0.545   2.314 -0.2157 -0.2812  0.1152
  779SOL    HW1 3114   2.062   0.610   2.353  3.1944 -1.3898 -0.5072
  779SOL    HW2 3115   2.120   0.481   2.378  1.2216  0.4024 -1.6462
  779SOL     MW 3116   2.105   0.545   2.327  0.4238 -0.3372 -0.1993
  780SOL     OW 3117   0.175   0.119   2.841 -0.2163 -0.1484 -0.3068
  780SOL    HW1 3118   0.109   0.178   2.882 -0.0551  0.7183 -0.9380
  780SOL    HW2 3119   0.148   0.128   2.752  0.9692  2.0452  1.7708
  780SOL     MW 3120   0.162   0.128   2.834 -0.0386  0.2554 -0.1160
  781SOL     OW 3121   3.047   1.375   2.454 -0.3679  0.3596 -0.3852
  781SOL    HW1 3122   3.010   1.402   2.371 -1.6346  1.0673 -0.6008
  781SOL    HW2 3123   3.109   1.306   2.423  1.2677  0.0297 -2.5449
  781SOL     MW 3124   3.050   1.370   2.439 -0.3192  0.4094 -0.6986
  782SOL     OW 3125   0.544   1.574   3.055  0.5790 -0.0424  0.7878
  782SOL    HW1 3126   0.492   1.656   3.055 -1.4676  0.7008  0.8318
  782SOL    HW2 3127   0.553   1.528   3.141 -1.0598  0.2788 -2.3514
  782SOL     MW 3128   0.538   1.578   3.066  0.0927  0.0981  0.3794
  783SOL     OW 3129   2.802   0.569   2.446  0.5004 -0.0087 -0.2804
  783SOL    HW1 3130   2.850   0.536   2.371  0.7160  1.7861 -3.3391
  783SOL    HW2 3131   2.747   0.502   2.480  1.7346  0.6421  1.6693
  783SOL     MW 3132   2.801   0.556   2.440  0.6917  0.3140 -0.4268
  784SOL     OW 3133   0.214   0.921   2.892 -0.0825 -0.0605 -0.3633
  784SOL    HW1 3134   0.206   1.000   2.958 -2.4388 -1.9665 -0.2458
  784SOL    HW2 3135   0.213   0.959   2.802 -1.2521 -0.6317  2.2780
  784SOL     MW 3136   0.212   0.937   2.889 -0.5477 -0.3873  0.0007
  785SOL     OW 3137   0.347   0.485   2.118 -0.2055  0.3823  0.1253
  785SOL    HW1 3138   0.337   0.516   2.028  3.7705  2.2869  1.4180
  785SOL    HW2 3139   0.284   0.415   2.124  2.1891  0.4284  0.8722
  785SOL     MW 3140   0.338   0.480   2.107  0.6351  0.6397  0.3944
  786SOL     OW 3141   2.024   0.502   2.831  0.7750 -0.2485  0.3333
  786SOL    HW1 3142   1.999   0.501   2.924 -2.9534 -2.2602 -2.2495
  786SOL    HW2 3143   2.115   0.521   2.827  0.8382 -1.8370  1.1756
  786SOL     MW 3144   2.032   0.505   2.843  0.2914 -0.7235  0.1037
  787SOL     OW 3145   2.439   0.177   2.928 -0.2163 -0.4771  0.3989
  787SOL    HW1 3146   2.509   0.139   2.875  0.6433 -0.0396 -0.7179
  787SOL    HW2 3147   2.478   0.252   2.968 -1.3355 -1.9042  0.1650
  787SOL     MW 3148   2.454   0.182   2.926 -0.2506 -0.6076  0.2207
  788SOL     OW 3149   2.964   2.911   2.278 -0.0881 -0.3756  0.1888
  788SOL    HW1 3150   2.999   2.882   2.197  0.9766 -0.9419  0.4032
  788SOL    HW2 3151   3.008   2.847   2.339 -3.1103 -2.4148 -1.2478
  788SOL     MW 3152   2.975   2.899   2.275 -0.3464 -0.7194  0.0275
  789SOL     OW 3153   0.033   0.262   3.016  0.4518  0.4744 -0.0690
  789SOL    HW1 3154  -0.050   0.221   3.037 -0.0769 -2.8123  1.2977
  789SOL    HW2 3155   0.081   0.268   3.095 -0.7404 -0.7268 -1.5609
  789SOL     MW 3156   0.028   0.257   3.029  0.2248 -0.1177 -0.0855
  790SOL     OW 3157   0.022   1.061   2.507 -0.0120 -0.1022  0.0767
  790SOL    HW1 3158  -0.005   0.997   2.570  1.2989  1.4198 -0.8690
  790SOL    HW2 3159  -0.052   1.067   2.448 -0.8724  2.0262 -1.1439
  790SOL     MW 3160   0.008   1.053   2.508  0.0474  0.3794 -0.2091
  791SOL     OW 3161   2.658   0.390   2.635  0.2756  0.4824  0.1292
  791SOL    HW1 3162   2.615   0.452   2.693  0.9690 -2.6422 -0.1079
  791SOL    HW2 3163   2.740   0.376   2.685 -1.8137 -0.0605 -0.4067
  791SOL     MW 3164   2.663   0.397   2.650  0.0914 -0.0015  0.0272
  792SOL     OW 3165   2.440   0.241   2.367  0.5909  0.3242 -0.1936
  792SOL    HW1 3166   2.351   0.258   2.399 -2.7247  0.0761 -1.4600
  792SOL    HW2 3167   2.485   0.181   2.426  0.6918  2.1555 -3.5303
  792SOL     MW 3168   2.434   0.235   2.379  0.1668  0.5331 -0.8009
  793SOL     OW 3169   1.748   1.041   1.878  0.0445 -0.0756  0.4856
  793SOL    HW1 3170   1.715   1.067   1.786  2.6763  1.6518 -0.6394
  793SOL    HW2 3171   1.803   0.962   1.864  1.1537 -1.9769  0.3984
  793SOL     MW 3172   1.751   1.034   1.864  0.5381 -0.0985  0.3257
  794SOL     OW 3173   1.437   2.304   0.112  0.5008  0.2198 -0.3365
  794SOL    HW1 3174   1.466   2.387   0.069 -1.3406  1.7428  2.5535
  794SOL    HW2 3175   1.461   2.305   0.204  0.4412 -2.6172  0.6084
  794SOL     MW 3176   1.444   2.315   0.119  0.2500  0.0465  0.1695
  795SOL     OW 3177   2.360   0.932   2.603  0.1619  0.2358  0.4637
  795SOL    HW1 3178   2.334   1.015   2.638  2.0326  0.1530  0.3884
  795SOL    HW2 3179   2.348   0.934   2.509 -2.4163  0.5536 -0.1335
  795SOL     MW 3180   2.355   0.943   2.595  0.0686  0.2668  0.3749
  796SOL     OW 3181   0.319   0.692   2.783  0.0435  0.0223  0.4139
  796SOL    HW1 3182   0.280   0.754   2.845 -0.4614  0.4915 -1.0469
  796SOL    HW2 3183   0.256   0.668   2.715 -0.4324 -0.3023 -0.1144
  796SOL     MW 3184   0.306   0.697   2.782 -0.0859  0.0414  0.1514
  797SOL     OW 3185   2.591   0.144   2.577 -0.1964 -0.2396  0.4351
  797SOL    HW1 3186   2.602   0.236   2.604 -0.4998  2.2965  0.7808
  797SOL    HW2 3187   2.664   0.136   2.516  1.7408  2.1785  1.3937
  797SOL     MW 3188   2.602   0.155   2.573  0.0192  0.4140  0.6072
  798SOL     OW 3189   2.367   0.052   2.194 -0.0331  0.1001  0.1629
  798SOL    HW1 3190   2.383   0.132   2.246  0.5932  2.3703 -3.8958
  798SOL    HW2 3191   2.453   0.022   2.161 -0.6917  3.1739 -2.3255
  798SOL     MW 3192   2.380   0.058   2.197 -0.0373  0.8052 -0.7009
  799SOL     OW 3193   2.520   2.949   0.206  0.4977 -0.1481  0.0661
  799SOL    HW1 3194   2.553   2.913   0.124 -1.9057  0.9102  0.4875
  799SOL    HW2 3195   2.447   3.012   0.179 -0.1734  0.2212 -1.2667
  799SOL     MW 3196   2.515   2.953   0.191  0.0921  0.0403 -0.0542
  800SOL     OW 3197   1.922   3.087   1.709 -0.0362 -0.0792  0.0091
  800SOL    HW1 3198   1.859   3.018   1.735 -0.8312 -0.2840 -2.0299
  800SOL    HW2 3199   1.962   3.108   1.796 -0.5221  0.2835 -0.9276
  800SOL     MW 3200   1.919   3.081   1.724 -0.2052 -0.0583 -0.3835
  801SOL     OW 3201   2.823   1.294   2.617  0.0559  0.3250  0.6135
  801SOL    HW1 3202   2.810   1.198   2.588  1.1564 -0.9781  3.1863
  801SOL    HW2 3203   2.906   1.321   2.575  0.2389 -0.4080 -2.7265
  801SOL     MW 3204   2.832   1.285   2.608  0.2253  0.0564  0.5123
  802SOL     OW 3205   2.568   1.506   2.774  0.2361  0.2421 -0.2992
  802SOL    HW1 3206   2.579   1.435   2.712  0.5770 -0.0814 -0.8744
  802SOL    HW2 3207   2.655   1.533   2.786  0.2419 -0.0387 -2.3721
  802SOL     MW 3208   2.581   1.500   2.767  0.2818  0.1623 -0.6486
  803SOL     OW 3209   2.287   1.330   1.955 -0.0035 -0.1212 -0.2813
  803SOL    HW1 3210   2.239   1.292   2.028 -0.4723  1.3507  1.3252
  803SOL    HW2 3211   2.292   1.267   1.888 -0.3336  2.1416  0.7451
  803SOL     MW 3212   2.281   1.317   1.956 -0.1089  0.3716  0.0661
  804SOL     OW 3213   2.354   0.025   0.038  0.0701 -0.5849 -0.1943
  804SOL    HW1 3214   2.264   0.066   0.040  0.8800  0.7320  0.0400
  804SOL    HW2 3215   2.403   0.073  -0.032 -0.1331 -0.8241  0.7764
  804SOL     MW 3216   2.349   0.036   0.029  0.1501 -0.4427 -0.0353
  805SOL     OW 3217   2.795   1.025   2.537  0.9948  0.2539  0.2141
  805SOL    HW1 3218   2.737   0.949   2.524 -0.4028  0.4271 -0.4148
  805SOL    HW2 3219   2.868   0.985   2.585  0.7159  3.3442  0.6691
  805SOL     MW 3220   2.797   1.010   2.541  0.7736  0.6845  0.1912
  806SOL     OW 3221   2.656   0.327   2.222 -0.6193 -0.0047 -0.2375
  806SOL    HW1 3222   2.573   0.301   2.259  0.8656 -0.2886 -0.4518
  806SOL    HW2 3223   2.658   0.413   2.193 -3.4227 -1.3205  1.8567
  806SOL     MW 3224   2.645   0.335   2.223 -0.7933 -0.2157  0.0105
  807SOL     OW 3225   0.033   1.157   2.081  0.0991  0.0755  0.4317
  807SOL    HW1 3226   0.051   1.080   2.030  2.3749  0.0520  1.1404
  807SOL    HW2 3227  -0.047   1.143   2.130 -0.8460 -1.2435 -0.6796
  807SOL     MW 3228   0.025   1.145   2.080  0.2747 -0.1016  0.3785
  808SOL     OW 3229   2.591   3.085   2.783  0.4793 -0.1548 -0.1451
  808SOL    HW1 3230   2.547   2.999   2.777  2.3170  0.1542 -2.7985
  808SOL    HW2 3231   2.578   3.128   2.695 -0.6624  0.7261  2.5703
  808SOL     MW 3232   2.584   3.079   2.771  0.5711  0.0022 -0.1369
  809SOL     OW 3233   2.496   1.243   2.406 -0.1450  0.0255 -0.2630
  809SOL    HW1 3234   2.526   1.230   2.493  1.3584  3.0977  3.4974
  809SOL    HW2 3235   2.578   1.256   2.360  1.5297  1.2702 -1.1530
  809SOL     MW 3236   2.511   1.243   2.412  0.2743  0.5950  0.1157
  810SOL     OW 3237   2.143   1.173   2.172 -0.5411 -0.2373  0.0252
  810SOL    HW1 3238   2.180   1.108   2.235  2.0199  0.7265  2.0089
  810SOL    HW2 3239   2.047   1.160   2.158  0.1906  1.0529 -0.9215
  810SOL     MW 3240   2.135   1.162   2.178 -0.1066  0.0601  0.1620
  811SOL     OW 3241   1.518   0.087   2.245 -0.1051 -0.0565 -0.2276
  811SOL    HW1 3242   1.603   0.047   2.285  1.6399  0.0659 -0.7603
  811SOL    HW2 3243   1.500   0.025   2.181 -1.6921 -1.5713  2.6520
  811SOL     MW 3244   1.527   0.074   2.242 -0.0842 -0.2402  0.0820
  812SOL     OW 3245   1.447   2.758   2.114 -0.1482 -0.3482 -0.1722
  812SOL    HW1 3246   1.540   2.791   2.100 -1.8850  0.1658  0.8401
  812SOL    HW2 3247   1.456   2.717   2.202  2.3863 -1.4519 -2.1880
  812SOL     MW 3248   1.461   2.757   2.124 -0.0429 -0.4260 -0.3046
  813SOL     OW 3249   1.860   0.728   2.173  0.4606  0.1879  0.1216
  813SOL    HW1 3250   1.807   0.652   2.198  1.8120 -1.4356  0.8834
  813SOL    HW2 3251   1.909   0.752   2.254  0.3160 -2.7630 -0.3108
  813SOL     MW 3252   1.860   0.721   2.187  0.6198 -0.4156  0.1651
  814SOL     OW 3253   2.815   1.207   1.642  0.6152 -0.1165  0.2557
  814SOL    HW1 3254   2.740   1.190   1.708 -0.1161  1.8665  3.4648
  814SOL    HW2 3255   2.784   1.162   1.562 -1.3471 -1.2997  0.6544
  814SOL     MW 3256   2.801   1.199   1.640  0.2598 -0.0109  0.7317
  815SOL     OW 3257   2.480   1.620   2.347 -0.0082  0.1363  0.1329
  815SOL    HW1 3258   2.411   1.548   2.344  2.4651 -1.3732 -0.1840
  815SOL    HW2 3259   2.562   1.580   2.360  0.8620 -1.0396  1.7399
  815SOL     MW 3260   2.481   1.606   2.349  0.4329 -0.2180  0.3031
  816SOL     OW 3261   0.665   0.681   2.669  0.4208 -0.0544  0.3118
  816SOL    HW1 3262   0.704   0.628   2.736  0.8405  2.2592  0.0916
  816SOL    HW2 3263   0.587   0.627   2.640 -2.3532 -0.0737  0.1890
  816SOL     MW 3264   0.660   0.667   2.674  0.1102  0.2483  0.2665
  817SOL     OW 3265   3.041   1.157   1.321  0.2114  0.2753 -0.9479
  817SOL    HW1 3266   3.095   1.176   1.398 -4.0272 -0.1321 -0.7662
  817SOL    HW2 3267   2.997   1.246   1.305  1.7829  1.9993 -0.4624
  817SOL     MW 3268   3.042   1.171   1.329 -0.1405  0.4490 -0.8599
  818SOL     OW 3269   1.908   0.959   2.691 -0.1782 -0.0996  0.4908
  818SOL    HW1 3270   1.942   1.021   2.625 -2.5917  1.6823 -2.3388
  818SOL    HW2 3271   1.988   0.916   2.719  1.1406 -0.6439 -1.0964
  818SOL     MW 3272   1.923   0.962   2.686 -0.3226  0.0637 -0.0920
  819SOL     OW 3273   1.922   0.251   2.330  0.6178 -0.2581 -0.0568
  819SOL    HW1 3274   1.866   0.312   2.368  2.7257 -2.5282 -0.6889
  819SOL    HW2 3275   1.967   0.213   2.405  0.1341  0.9472 -0.1297
  819SOL     MW 3276   1.921   0.254   2.345  0.8321 -0.3986 -0.1498
  820SOL     OW 3277   2.477   1.737   2.599 -0.1262  0.0701 -0.0570
  820SOL    HW1 3278   2.514   1.658   2.646 -2.1817 -3.3767  0.5035
  820SOL    HW2 3279   2.484   1.729   2.505  0.9167 -2.6370  0.9574
  820SOL     MW 3280   2.483   1.726   2.593 -0.2598 -0.7419  0.1508
  821SOL     OW 3281   2.565   1.319   2.012 -0.3849 -0.0049  0.2802
  821SOL    HW1 3282   2.591   1.363   1.928  0.1948 -2.5596 -0.7576
  821SOL    HW2 3283   2.472   1.328   2.009 -2.3527 -0.4084 -1.9170
  821SOL     MW 3284   2.556   1.326   2.000 -0.5680 -0.3952 -0.1466
  822SOL     OW 3285   2.913   2.633   1.449 -0.3845 -0.4785  0.2938
  822SOL    HW1 3286   2.852   2.702   1.422 -0.5855  0.9808 -1.6062
  822SOL    HW2 3287   2.991   2.680   1.486 -0.3799 -0.4840 -0.1987
  822SOL     MW 3288   2.915   2.648   1.450 -0.4104 -0.2867 -0.0218
  823SOL     OW 3289   2.358   0.469   1.788  0.1373 -0.2424  0.0313
  823SOL    HW1 3290   2.444   0.435   1.755  1.9112 -0.4579  2.1438
  823SOL    HW2 3291   2.298   0.400   1.755 -0.0070  2.2499 -0.3258
  823SOL     MW 3292   2.361   0.455   1.779  0.3523  0.0580  0.2629
  824SOL     OW 3293   2.118   1.366   2.584  0.3923 -0.1130 -0.4827
  824SOL    HW1 3294   2.167   1.389   2.501  0.1478 -0.7903 -0.4769
  824SOL    HW2 3295   2.088   1.451   2.626  0.5945 -1.3203 -0.0629
  824SOL     MW 3296   2.120   1.380   2.578  0.3868 -0.3617 -0.4265
  825SOL     OW 3297   2.129   2.368   0.355  0.1635 -0.6192  0.0218
  825SOL    HW1 3298   2.188   2.363   0.278 -2.9642 -1.6143  0.7705
  825SOL    HW2 3299   2.195   2.378   0.426  0.7788 -1.3732  2.7269
  825SOL     MW 3300   2.146   2.368   0.354 -0.1680 -0.8500  0.4775
  826SOL     OW 3301   1.753   2.406   0.426  0.4046  0.6380 -0.0350
  826SOL    HW1 3302   1.774   2.351   0.500 -0.7549 -1.4185  1.3694
  826SOL    HW2 3303   1.812   2.481   0.444  0.2313  0.7385 -0.9989
  826SOL     MW 3304   1.764   2.409   0.438  0.2288  0.3799  0.0231
  827SOL     OW 3305   1.925   2.264   0.860 -0.1584 -0.3675 -0.1684
  827SOL    HW1 3306   1.880   2.282   0.778  1.7413 -0.4967  0.9252
  827SOL    HW2 3307   1.875   2.202   0.909 -1.3945  0.4063  0.9802
  827SOL     MW 3308   1.913   2.258   0.856 -0.0708 -0.2825  0.1274
  828SOL     OW 3309   0.099   2.623   0.548  0.0705  0.5707 -0.0822
  828SOL    HW1 3310   0.179   2.646   0.590 -1.1389  0.1556 -1.1640
  828SOL    HW2 3311   0.098   2.678   0.469  0.7941 -0.4876  1.7365
  828SOL     MW 3312   0.110   2.633   0.543  0.0064  0.3763  0.0151
  829SOL     OW 3313   2.998   2.855   1.200 -0.2245 -0.1801 -0.2268
  829SOL    HW1 3314   2.911   2.841   1.159  3.0463  0.8002  2.4700
  829SOL    HW2 3315   3.050   2.786   1.163 -0.2756  1.4041 -1.1006
  829SOL     MW 3316   2.993   2.844   1.189  0.2003  0.1582  0.0137
  830SOL     OW 3317   2.503   2.799   1.993 -0.3644  0.4544 -0.0908
  830SOL    HW1 3318   2.414   2.832   1.954 -2.6066  0.2885 -1.3700
  830SOL    HW2 3319   2.555   2.783   1.916 -1.3527  1.3793  1.2280
  830SOL     MW 3320   2.498   2.801   1.978 -0.7907  0.5546 -0.0856
  831SOL     OW 3321   2.466   2.426   1.239 -0.0707  0.0342 -0.0755
  831SOL    HW1 3322   2.444   2.335   1.251 -1.2771  2.0134  0.5694
  831SOL    HW2 3323   2.546   2.418   1.181  0.6199 -0.1660 -1.0969
  831SOL     MW 3324   2.474   2.413   1.233 -0.1388  0.2690 -0.1252
  832SOL     OW 3325   2.433   2.105   1.914 -0.2284 -0.2352  0.2403
  832SOL    HW1 3326   2.450   2.204   1.923 -0.2336  1.0469  1.5274
  832SOL    HW2 3327   2.475   2.092   1.830  0.5234 -0.7837 -1.2469
  832SOL     MW 3328   2.441   2.116   1.904 -0.1299 -0.1384  0.2139
  833SOL     OW 3329   1.612   2.496   0.801 -0.2251 -0.3396 -0.2661
  833SOL    HW1 3330   1.609   2.410   0.839 -2.7961  1.2837 -2.0240
  833SOL    HW2 3331   1.525   2.534   0.831  1.5269 -1.8303  0.9044
  833SOL     MW 3332   1.600   2.489   0.810 -0.3332 -0.3221 -0.3436
  834SOL     OW 3333   2.202   2.408   0.637 -0.5630  0.4632 -0.8995
  834SOL    HW1 3334   2.184   2.315   0.663 -0.5835 -0.0652  0.7762
  834SOL    HW2 3335   2.298   2.434   0.656  2.0570 -0.5939 -2.1471
  834SOL     MW 3336   2.212   2.399   0.643 -0.2200  0.2540 -0.8431
  835SOL     OW 3337   1.873   2.591   0.670 -0.1221  0.8509  0.1644
  835SOL    HW1 3338   1.804   2.549   0.726 -4.7089  0.2044  2.3610
  835SOL    HW2 3339   1.951   2.592   0.721  2.5879 -1.2629 -4.0772
  835SOL     MW 3340   1.874   2.585   0.684 -0.3698  0.4867 -0.1054
  836SOL     OW 3341   2.090   2.061   1.763  0.1614  0.0651  0.2800
  836SOL    HW1 3342   2.172   2.007   1.755 -0.4768 -0.9517  0.7480
  836SOL    HW2 3343   2.122   2.151   1.780  0.4272 -0.4771  1.8409
  836SOL     MW 3344   2.105   2.066   1.765  0.1123 -0.1406  0.5477
  837SOL     OW 3345   2.123   0.189   0.652 -0.5750  0.5346  0.1339
  837SOL    HW1 3346   2.038   0.180   0.621  3.3973  1.1393  1.3476
  837SOL    HW2 3347   2.180   0.169   0.582 -0.8516  1.4734  1.3206
  837SOL     MW 3348   2.119   0.185   0.639 -0.0874  0.7383  0.4506
  838SOL     OW 3349   2.931   2.041   0.914 -0.0601 -0.5189 -0.0162
  838SOL    HW1 3350   2.849   1.996   0.921  1.9093  0.7662  1.3979
  838SOL    HW2 3351   2.969   2.029   0.998 -1.6608  0.3973 -0.1364
  838SOL     MW 3352   2.925   2.033   0.926 -0.0115 -0.2284  0.1545
  839SOL     OW 3353   1.524   2.388   1.070 -0.0830  0.1655 -0.6836
  839SOL    HW1 3354   1.528   2.472   1.116  0.3841 -0.0420 -0.9916
  839SOL    HW2 3355   1.588   2.318   1.107 -2.9013  2.9279 -1.3230
  839SOL     MW 3356   1.533   2.390   1.081 -0.3932  0.5026 -0.8086
  840SOL     OW 3357   2.405   2.114   2.314 -0.4063  0.2604 -0.3612
  840SOL    HW1 3358   2.344   2.188   2.311  0.6394 -0.7870  0.2649
  840SOL    HW2 3359   2.456   2.142   2.396  0.7590 -0.2443  0.7444
  840SOL     MW 3360   2.404   2.128   2.325 -0.1146  0.0556 -0.1327
  841SOL     OW 3361   2.292   2.289   0.123 -0.5586 -0.5512  0.3557
  841SOL    HW1 3362   2.298   2.364   0.057  0.5507  1.5583  2.4693
  841SOL    HW2 3363   2.215   2.234   0.098 -0.6904 -1.2035 -2.7178
  841SOL     MW 3364   2.283   2.292   0.111 -0.4297 -0.3589  0.2290
  842SOL     OW 3365   2.671   1.941   1.486 -0.1096  0.3238 -0.0773
  842SOL    HW1 3366   2.591   1.892   1.491  0.7115  1.6801  1.1471
  842SOL    HW2 3367   2.671   1.976   1.399 -0.4610  0.3850  0.7794
  842SOL     MW 3368   2.660   1.939   1.475 -0.0476  0.5109  0.1973
  843SOL     OW 3369   2.654   2.769   1.759  0.2913 -0.6941  0.0741
  843SOL    HW1 3370   2.732   2.729   1.788  1.6800  3.1813 -2.3339
  843SOL    HW2 3371   2.600   2.693   1.723  1.9663  0.0450 -1.0835
  843SOL     MW 3372   2.658   2.754   1.758  0.6955 -0.0853 -0.3964
  844SOL     OW 3373   2.674   2.339   1.088 -0.0401 -0.0203  0.2665
  844SOL    HW1 3374   2.705   2.355   0.997 -0.0010  1.3737 -0.7804
  844SOL    HW2 3375   2.750   2.353   1.145  0.4286 -0.7156 -1.1073
  844SOL     MW 3376   2.688   2.343   1.083  0.0269  0.0719 -0.0529
  845SOL     OW 3377   2.841   2.618   0.276  0.0087  0.0012  0.0687
  845SOL    HW1 3378   2.833   2.541   0.341  1.0931  2.2460  0.6503
  845SOL    HW2 3379   2.816   2.695   0.333 -0.0659 -1.4608 -0.4534
  845SOL     MW 3380   2.837   2.618   0.292  0.1420  0.1045  0.0765
  846SOL     OW 3381   1.441   2.727   0.777 -0.3572 -0.3773  0.3064
  846SOL    HW1 3382   1.512   2.791   0.782 -1.6738 -0.0582  0.1461
  846SOL    HW2 3383   1.360   2.780   0.786 -1.6128  0.9558 -1.2784
  846SOL     MW 3384   1.440   2.742   0.778 -0.6966 -0.1593  0.0761
  847SOL     OW 3385   2.437   1.815   0.221 -0.9332  0.2712 -0.1640
  847SOL    HW1 3386   2.425   1.732   0.261  0.1195 -1.3656 -0.0332
  847SOL    HW2 3387   2.419   1.799   0.123  1.7927 -2.7577 -1.0350
  847SOL     MW 3388   2.433   1.802   0.213 -0.4347 -0.3444 -0.2617
  848SOL     OW 3389   2.714   2.063   1.197  0.4241  0.3054  0.4139
  848SOL    HW1 3390   2.709   2.133   1.133 -0.9206 -0.0096 -2.8503
  848SOL    HW2 3391   2.705   1.975   1.157  1.0298  1.6709 -2.4676
  848SOL     MW 3392   2.712   2.061   1.183  0.3266  0.4440 -0.3969
  849SOL     OW 3393   1.936   2.847   0.822 -0.2284 -0.1048 -0.1104
  849SOL    HW1 3394   1.885   2.808   0.895 -1.5646  1.7041  2.8076
  849SOL    HW2 3395   1.979   2.771   0.793 -1.4022  1.2754 -0.2699
  849SOL     MW 3396   1.935   2.832   0.827 -0.5596  0.3160  0.2535
  850SOL     OW 3397   2.318   1.945   1.612 -0.5390 -0.1269 -0.1225
  850SOL    HW1 3398   2.237   1.921   1.561 -0.2471  2.3078  0.8811
  850SOL    HW2 3399   2.352   2.026   1.582  1.1413  1.6433 -1.0986
  850SOL     MW 3400   2.312   1.952   1.602 -0.2788  0.4279 -0.1189
  851SOL     OW 3401   2.555   2.204   0.419  0.8819  0.4757  0.6979
  851SOL    HW1 3402   2.558   2.179   0.323 -1.4879  0.9829 -0.2188
  851SOL    HW2 3403   2.523   2.295   0.419 -2.5446  1.6915 -1.1716
  851SOL     MW 3404   2.551   2.213   0.407  0.1172  0.7031  0.3303
  852SOL     OW 3405   2.315   2.008   0.359  0.5655  0.4265  0.1547
  852SOL    HW1 3406   2.319   2.095   0.323  3.2597 -0.5745  1.9493
  852SOL    HW2 3407   2.373   1.948   0.304  0.4766 -1.0054  1.6920
  852SOL     MW 3408   2.323   2.012   0.347  0.9093  0.1055  0.5943
  853SOL     OW 3409   2.517   2.398   1.900 -0.2989  0.2437  0.2654
  853SOL    HW1 3410   2.509   2.448   1.817 -0.9381  0.1234 -2.0943
  853SOL    HW2 3411   2.605   2.414   1.928 -1.5990  1.9565 -2.5462
  853SOL     MW 3412   2.528   2.406   1.892 -0.5548  0.4538 -0.4169
  854SOL     OW 3413   2.871   2.264   0.733  0.7497  0.3358  0.1140
  854SOL    HW1 3414   2.786   2.243   0.693  2.6883  0.5392 -2.5422
  854SOL    HW2 3415   2.891   2.179   0.783 -1.4601  0.3569  2.1431
  854SOL     MW 3416   2.863   2.250   0.734  0.7139  0.3654  0.0313
  855SOL     OW 3417   2.800   2.381   0.425  0.2519  0.0767 -0.2674
  855SOL    HW1 3418   2.723   2.326   0.435  0.0707 -1.0044  1.2204
  855SOL    HW2 3419   2.870   2.317   0.413  2.2816 -0.4603 -0.5598
  855SOL     MW 3420   2.799   2.365   0.425  0.4958 -0.1368 -0.1097
  856SOL     OW 3421   2.101   1.844   0.236  0.3665 -0.7635 -0.1227
  856SOL    HW1 3422   2.014   1.859   0.269  0.6673  0.2873 -0.1600
  856SOL    HW2 3423   2.157   1.878   0.305 -1.0477 -1.8926  2.9880
  856SOL     MW 3424   2.097   1.851   0.250  0.2196 -0.7738  0.2828
  857SOL     OW 3425   2.452   1.919   0.578 -0.2087  0.5713 -0.4215
  857SOL    HW1 3426   2.417   1.958   0.500  1.5148 -0.3913  0.8686
  857SOL    HW2 3427   2.379   1.913   0.644 -0.6221  0.8201  0.7900
  857SOL     MW 3428   2.438   1.923   0.577 -0.0358  0.4771 -0.0914
  858SOL     OW 3429   2.926   2.678   1.820  0.1358 -0.4250  0.4194
  858SOL    HW1 3430   3.006   2.709   1.860  0.5265 -0.9798  0.3241
  858SOL    HW2 3431   2.956   2.610   1.764  0.3025  1.2596  0.5432
  858SOL     MW 3432   2.940   2.673   1.818  0.2094 -0.2760  0.4231
  859SOL     OW 3433   1.760   2.648   0.981 -0.3511  0.1517  0.3230
  859SOL    HW1 3434   1.716   2.593   0.917 -0.9658 -0.7384 -1.4199
  859SOL    HW2 3435   1.817   2.585   1.017 -1.0289 -1.7334  1.1067
  859SOL     MW 3436   1.762   2.632   0.978 -0.5216 -0.2145  0.1964
  860SOL     OW 3437   2.631   2.585   0.095  0.1057 -0.0245 -0.9300
  860SOL    HW1 3438   2.698   2.579   0.167 -1.0834 -0.4036  0.1963
  860SOL    HW2 3439   2.641   2.679   0.059  0.9518 -0.0700 -0.4929
  860SOL     MW 3440   2.641   2.596   0.100  0.0604 -0.0805 -0.7237
  861SOL     OW 3441   1.608   2.160   1.183  0.1539 -0.0176  0.2205
  861SOL    HW1 3442   1.631   2.187   1.275 -1.1915  1.2390  3.1545
  861SOL    HW2 3443   1.540   2.091   1.203  0.7704 -1.4132 -0.8540
  861SOL     MW 3444   1.602   2.155   1.198  0.0577 -0.0360  0.4658
  862SOL     OW 3445   2.416   1.712   1.433  0.5016 -0.1445  0.1429
  862SOL    HW1 3446   2.379   1.778   1.497 -1.0474  1.3159  2.8517
  862SOL    HW2 3447   2.342   1.675   1.385 -0.7778  0.9952 -0.7768
  862SOL     MW 3448   2.401   1.716   1.435  0.1284  0.1985  0.3790
  863SOL     OW 3449   2.901   1.691   0.963 -0.4670 -1.2217 -0.2899
  863SOL    HW1 3450   2.883   1.755   1.032 -1.5063 -0.3061 -0.8702
  863SOL    HW2 3451   2.838   1.702   0.891  0.1873 -1.9022 -0.3585
  863SOL     MW 3452   2.890   1.701   0.962 -0.5178 -1.1907 -0.3755
  864SOL     OW 3453   3.098   1.755   0.774 -1.0108 -0.0371 -0.1066
  864SOL    HW1 3454   3.048   1.723   0.852  2.2303  0.7959  2.5548
  864SOL    HW2 3455   3.044   1.739   0.692 -0.1458 -0.8880  0.0569
  864SOL     MW 3456   3.084   1.749   0.773 -0.4690 -0.0395  0.2661
  865SOL     OW 3457   2.541   2.142   0.131 -0.6250  0.2142  0.1044
  865SOL    HW1 3458   2.504   2.059   0.093 -0.4786 -0.5011 -0.8979
  865SOL    HW2 3459   2.466   2.213   0.139  2.6481  1.1885 -0.1078
  865SOL     MW 3460   2.526   2.140   0.127 -0.1738  0.2483 -0.0558
  866SOL     OW 3461   2.738   2.360   1.514  0.2522  0.3982 -0.1475
  866SOL    HW1 3462   2.746   2.263   1.524 -1.1218  2.1619 -1.9158
  866SOL    HW2 3463   2.767   2.382   1.427 -0.1858 -0.7031 -0.6549
  866SOL     MW 3464   2.743   2.350   1.504  0.0131  0.4856 -0.4478
  867SOL     OW 3465   0.129   2.660   1.732  0.5709  0.0781 -0.2159
  867SOL    HW1 3466   0.219   2.692   1.722  1.7120  0.6660  0.2824
  867SOL    HW2 3467   0.079   2.732   1.703  1.5183 -1.9025  1.6396
  867SOL     MW 3468   0.134   2.673   1.727  0.8464 -0.1056  0.0946
  868SOL     OW 3469   2.748   2.677   0.603  0.0232 -0.2246  0.2027
  868SOL    HW1 3470   2.739   2.590   0.576  0.9091 -0.5493 -0.2223
  868SOL    HW2 3471   2.679   2.732   0.559  0.4737 -1.5761 -0.8374
  868SOL     MW 3472   2.738   2.673   0.594  0.1995 -0.4458  0.0094
  869SOL     OW 3473   1.932   2.472   1.071 -0.2504 -0.0694  0.2483
  869SOL    HW1 3474   2.008   2.508   1.029 -0.0920 -0.2408  2.5808
  869SOL    HW2 3475   1.897   2.394   1.028 -2.8601 -0.5419 -0.9080
  869SOL     MW 3476   1.938   2.466   1.060 -0.5738 -0.1543  0.4035
  870SOL     OW 3477   2.187   3.082   0.456 -0.7638  0.4014  0.2770
  870SOL    HW1 3478   2.260   3.124   0.414 -0.6498  2.2017 -1.5572
  870SOL    HW2 3479   2.214   2.992   0.485 -1.0714 -2.1648  0.8558
  870SOL     MW 3480   2.200   3.076   0.454 -0.7893  0.3003  0.1114
  871SOL     OW 3481   2.478   2.076   0.918  0.0884 -0.7625 -0.2497
  871SOL    HW1 3482   2.413   2.019   0.872  0.1273 -2.2384  0.9285
  871SOL    HW2 3483   2.440   2.158   0.952  1.2217  0.0883  2.0015
  871SOL     MW 3484   2.464   2.079   0.916  0.2431 -0.8449  0.2027
  872SOL     OW 3485   2.104   2.491   1.624 -0.2359 -0.5076 -0.7211
  872SOL    HW1 3486   2.063   2.567   1.669 -2.1451 -1.3913 -1.3189
  872SOL    HW2 3487   2.062   2.479   1.536 -0.0036  0.5022  0.6387
  872SOL     MW 3488   2.093   2.500   1.618 -0.4572 -0.4910 -0.6206
  873SOL     OW 3489   2.855   2.148   1.838  0.0584 -0.5021  0.0158
  873SOL    HW1 3490   2.842   2.230   1.880 -1.8618 -0.7710  0.3508
  873SOL    HW2 3491   2.919   2.165   1.770  0.0796 -1.5539  1.3414
  873SOL     MW 3492   2.862   2.161   1.834 -0.1922 -0.6764  0.2349
  874SOL     OW 3493   2.295   1.423   2.350  0.5839  0.1909  0.6918
  874SOL    HW1 3494   2.247   1.393   2.276  1.5500 -0.3942  0.9306
  874SOL    HW2 3495   2.355   1.348   2.364  2.3465 -3.9054  0.2790
  874SOL     MW 3496   2.297   1.409   2.342  0.9439 -0.4267  0.6689
  875SOL     OW 3497   2.379   2.344   0.983 -0.5609 -0.2621  0.6838
  875SOL    HW1 3498   2.404   2.399   0.909  1.4887 -1.2973  0.1339
  875SOL    HW2 3499   2.427   2.380   1.062  2.2754 -0.7557 -1.9307
  875SOL     MW 3500   2.388   2.356   0.983  0.0837 -0.4638  0.2663
  876SOL     OW 3501   3.091   2.215   1.321  0.2141 -0.4373 -0.3661
  876SOL    HW1 3502   3.169   2.268   1.333 -1.6628  0.8460  3.2499
  876SOL    HW2 3503   3.100   2.172   1.407 -0.5654  0.9065 -1.2272
  876SOL     MW 3504   3.102   2.216   1.334 -0.1364 -0.0907 -0.0026
  877SOL     OW 3505   0.025   2.779   0.292 -0.0271  0.5034 -0.4137
  877SOL    HW1 3506   0.089   2.843   0.264  3.3383  0.1498 -0.8674
  877SOL    HW2 3507   0.008   2.731   0.208 -0.4620  1.5115  0.6387
  877SOL     MW 3508   0.032   2.781   0.277  0.3596  0.5898 -0.3347
  878SOL     OW 3509   2.264   1.667   1.158  0.1253  0.4072 -0.2974
  878SOL    HW1 3510   2.180   1.616   1.203 -1.3342  1.0945  0.8965
  878SOL    HW2 3511   2.291   1.597   1.092 -0.1769  0.6125  0.0799
  878SOL     MW 3512   2.256   1.651   1.155 -0.1071  0.5250 -0.0901
  879SOL     OW 3513   2.725   2.465   0.848 -0.3269 -0.3210 -0.0910
  879SOL    HW1 3514   2.777   2.532   0.894  1.2234 -2.1289 -0.9906
  879SOL    HW2 3515   2.786   2.402   0.798 -3.4266  0.1326 -0.4394
  879SOL     MW 3516   2.740   2.465   0.847 -0.5313 -0.4997 -0.2557
  880SOL     OW 3517   2.607   2.209   0.683 -0.5731 -0.2801 -0.3637
  880SOL    HW1 3518   2.555   2.153   0.738 -1.8940 -0.2324  3.5709
  880SOL    HW2 3519   2.567   2.193   0.591 -1.3910 -0.7232  1.1694
  880SOL     MW 3520   2.595   2.200   0.678 -0.8553 -0.3323  0.3577
  881SOL     OW 3521   2.990   2.753   0.681  0.1493 -0.4588 -0.4631
  881SOL    HW1 3522   2.899   2.719   0.646 -0.5072 -0.0308 -1.9950
  881SOL    HW2 3523   3.051   2.688   0.658 -1.1037  0.7433  0.5925
  881SOL     MW 3524   2.986   2.740   0.673 -0.1026 -0.2437 -0.5260
  882SOL     OW 3525   2.235   2.901   1.940  0.4987  0.1517  0.0947
  882SOL    HW1 3526   2.233   2.918   1.844 -0.2846  1.6381  0.7205
  882SOL    HW2 3527   2.200   2.815   1.948  0.8807  2.5470 -1.2171
  882SOL     MW 3528   2.230   2.892   1.929  0.4458  0.6639  0.0042
  883SOL     OW 3529   2.455   2.146   1.298 -0.2824  0.2122 -0.0429
  883SOL    HW1 3530   2.522   2.115   1.238  3.5562  0.1082 -0.5123
  883SOL    HW2 3531   2.373   2.120   1.252  0.0295 -1.6692 -0.4327
  883SOL     MW 3532   2.453   2.138   1.284  0.2652 -0.0497 -0.1562
  884SOL     OW 3533   1.901   1.859   1.056 -0.3153 -0.1963  0.3333
  884SOL    HW1 3534   1.853   1.944   1.038 -1.5011 -1.9923  1.4613
  884SOL    HW2 3535   1.996   1.879   1.053 -1.0486  0.2207 -1.9771
  884SOL     MW 3536   1.907   1.873   1.053 -0.5685 -0.3782  0.1773
  885SOL     OW 3537   2.941   2.444   1.692 -0.0539  0.2547  0.4928
  885SOL    HW1 3538   3.005   2.380   1.658  2.3323  0.6119  0.9018
  885SOL    HW2 3539   2.871   2.443   1.622 -1.3899  0.2531 -1.6077
  885SOL     MW 3540   2.940   2.435   1.678  0.0846  0.3016  0.2696
  886SOL     OW 3541   2.856   2.410   1.277 -0.1320 -0.5008  0.7932
  886SOL    HW1 3542   2.934   2.368   1.249  1.9650  0.4470 -2.0314
  886SOL    HW2 3543   2.880   2.498   1.315 -0.7603  0.2467  0.2476
  886SOL     MW 3544   2.870   2.416   1.278  0.0618 -0.2771  0.3485
  887SOL     OW 3545   2.313   2.670   1.576 -0.0382 -0.5252  0.3704
  887SOL    HW1 3546   2.350   2.671   1.484 -0.8975  2.6986 -1.8686
  887SOL    HW2 3547   2.249   2.599   1.581 -2.8526 -1.4022  0.5044
  887SOL     MW 3548   2.309   2.661   1.564 -0.5229 -0.2156  0.0927
  888SOL     OW 3549   2.059   2.169   1.427  0.3743  0.0761  0.4664
  888SOL    HW1 3550   2.145   2.173   1.387 -0.4469 -0.6778 -1.1221
  888SOL    HW2 3551   2.075   2.180   1.518  0.3216  0.1009 -1.5065
  888SOL     MW 3552   2.073   2.171   1.433  0.2590 -0.0201 -0.0035
  889SOL     OW 3553   2.267   1.914   2.097 -0.4142  0.4648 -0.2960
  889SOL    HW1 3554   2.361   1.887   2.118  0.7242  0.7356 -0.7644
  889SOL    HW2 3555   2.279   2.006   2.087 -0.0412  0.3209  0.0841
  889SOL     MW 3556   2.281   1.923   2.099 -0.2148  0.4815 -0.3076
  890SOL     OW 3557   0.078   2.331   0.150  0.1342  0.0703  0.1117
  890SOL    HW1 3558   0.035   2.421   0.146  1.3482  0.3648 -0.3309
  890SOL    HW2 3559   0.069   2.295   0.241  0.1372 -0.1995 -3.1036
  890SOL     MW 3560   0.071   2.338   0.161  0.2948  0.0736 -0.3710
  891SOL     OW 3561   2.992   1.979   1.172  0.1224 -0.2058  0.3257
  891SOL    HW1 3562   3.055   1.918   1.141  1.0307  2.9935  1.8026
  891SOL    HW2 3563   3.040   2.065   1.186 -4.1815  0.9273  0.4295
  891SOL     MW 3564   3.006   1.982   1.170 -0.3256  0.3658  0.5343
  892SOL     OW 3565   2.467   2.355   2.759 -0.1618 -0.0984 -0.4643
  892SOL    HW1 3566   2.437   2.278   2.808 -2.0108  1.8942 -4.1384
  892SOL    HW2 3567   2.565   2.368   2.786  1.2540 -0.9315 -0.5142
  892SOL     MW 3568   2.476   2.347   2.769 -0.2190  0.0546 -0.9556
  893SOL     OW 3569   1.629   2.333   1.405 -0.1222 -0.2402 -0.2086
  893SOL    HW1 3570   1.541   2.376   1.394  1.3726 -3.6635 -2.9517
  893SOL    HW2 3571   1.655   2.339   1.497  1.0434  1.4805 -0.6393
  893SOL     MW 3572   1.621   2.339   1.416  0.2288 -0.4649 -0.6274
  894SOL     OW 3573   2.755   1.968   0.468  0.1789  0.1236 -0.4932
  894SOL    HW1 3574   2.662   1.975   0.496 -3.4358  0.5795  0.8073
  894SOL    HW2 3575   2.748   1.930   0.379  1.5052  1.2625 -0.4683
  894SOL     MW 3576   2.741   1.964   0.460 -0.1231  0.3340 -0.3183
  895SOL     OW 3577   2.226   2.140   1.158 -0.4029  0.3348  0.6537
  895SOL    HW1 3578   2.226   2.202   1.088 -0.5591  2.3106 -1.0675
  895SOL    HW2 3579   2.207   2.052   1.119 -2.3551 -1.8206 -0.0569
  895SOL     MW 3580   2.223   2.136   1.144 -0.6811  0.3111  0.3328
  896SOL     OW 3581   2.234   2.830   1.067  0.3306  0.1331 -0.1267
  896SOL    HW1 3582   2.261   2.782   1.144  1.8856 -0.5844 -0.5611
  896SOL    HW2 3583   2.161   2.887   1.095  1.9715  0.5818  0.1506
  896SOL     MW 3584   2.228   2.831   1.081  0.7523  0.0976 -0.1474
  897SOL     OW 3585   3.093   3.055   3.080 -0.4025  0.5765 -0.3698
  897SOL    HW1 3586   3.125   2.964   3.080  0.7006 -1.9638 -2.7353
  897SOL    HW2 3587   3.063   3.063   2.994  0.2025  1.5998  0.5922
  897SOL     MW 3588   3.093   3.044   3.068 -0.1772  0.3763 -0.5550
  898SOL     OW 3589   2.204   0.161   1.443 -0.0638  0.0336 -0.4158
  898SOL    HW1 3590   2.154   0.080   1.440 -1.5552  0.8227 -1.7628
  898SOL    HW2 3591   2.168   0.206   1.364 -0.7153  3.5354 -1.4758
  898SOL     MW 3592   2.193   0.156   1.432 -0.3465  0.5997 -0.7334
  899SOL     OW 3593   2.960   3.019   0.635  0.3299 -0.4145 -0.0486
  899SOL    HW1 3594   2.977   2.934   0.673  2.5501 -0.1015  0.2499
  899SOL    HW2 3595   2.867   3.039   0.637 -1.3519 -5.2723  1.8054
  899SOL     MW 3596   2.950   3.011   0.640  0.4009 -1.0142  0.2354
  900SOL     OW 3597   0.166   2.375   1.137  0.0539 -0.5859 -0.0740
  900SOL    HW1 3598   0.111   2.453   1.130  1.0263 -0.4310 -0.9280
  900SOL    HW2 3599   0.152   2.326   1.053 -1.8291 -1.9565  0.0203
  900SOL     MW 3600   0.157   2.379   1.125 -0.0663 -0.7463 -0.1742
  901SOL     OW 3601   1.767   2.862   1.792  0.0713  0.0081 -0.2740
  901SOL    HW1 3602   1.801   2.766   1.772 -1.5470 -0.2311  3.2964
  901SOL    HW2 3603   1.669   2.862   1.786 -2.1778  2.1188  1.7004
  901SOL     MW 3604   1.759   2.849   1.788 -0.4390  0.2550  0.4576
  902SOL     OW 3605   2.620   2.100   1.710  0.1778 -0.4233  0.3425
  902SOL    HW1 3606   2.653   2.025   1.664  0.3857  0.4317  0.4244
  902SOL    HW2 3607   2.691   2.128   1.766 -0.2008  0.5913  1.1145
  902SOL     MW 3608   2.633   2.094   1.711  0.1553 -0.1766  0.4552
  903SOL     OW 3609   1.522   2.647   0.530  0.6818 -0.3661  0.1480
  903SOL    HW1 3610   1.612   2.657   0.502  0.9939 -0.3699  1.1330
  903SOL    HW2 3611   1.527   2.684   0.616  1.6655  0.1445 -1.9308
  903SOL     MW 3612   1.534   2.653   0.538  0.8527 -0.2992  0.0037
  904SOL     OW 3613   2.543   2.535   1.660  0.6210 -0.1902 -0.2170
  904SOL    HW1 3614   2.463   2.558   1.610 -0.6562 -0.3008 -1.2345
  904SOL    HW2 3615   2.598   2.477   1.599  1.3392  0.1766  0.4930
  904SOL     MW 3616   2.540   2.530   1.645  0.5472 -0.1564 -0.2576
  905SOL     OW 3617   2.331   2.488   2.096  0.0377  0.6295 -0.2780
  905SOL    HW1 3618   2.415   2.461   2.045  0.5085  0.8273 -0.7541
  905SOL    HW2 3619   2.303   2.427   2.175  1.7207 -1.1388 -0.2708
  905SOL     MW 3620   2.338   2.477   2.100  0.3219  0.4223 -0.3399
  906SOL     OW 3621   2.464   2.520   0.741 -0.0220 -0.3723  0.6092
  906SOL    HW1 3622   2.544   2.498   0.782 -0.8854 -0.7972  0.4969
  906SOL    HW2 3623   2.447   2.604   0.777 -1.0734 -2.5412  1.6039
  906SOL     MW 3624   2.472   2.528   0.751 -0.2746 -0.7145  0.7256
  907SOL     OW 3625   2.681   2.773   1.309  0.4924 -0.0048  0.2454
  907SOL    HW1 3626   2.726   2.845   1.346  1.5288 -1.7699  2.0733
  907SOL    HW2 3627   2.690   2.791   1.216 -1.0842 -1.4436 -2.6398
  907SOL     MW 3628   2.688   2.785   1.302  0.4211 -0.4275  0.1059
  908SOL     OW 3629   2.673   2.344   3.079  0.0676 -0.6780  0.0640
  908SOL    HW1 3630   2.618   2.277   3.112 -0.6653  2.6653 -2.6784
  908SOL    HW2 3631   2.654   2.436   3.119 -2.2085  1.6461 -1.3546
  908SOL     MW 3632   2.663   2.347   3.089 -0.3294  0.0697 -0.4850
  909SOL     OW 3633   1.714   0.116   1.311 -0.3207  0.0503  0.4730
  909SOL    HW1 3634   1.666   0.204   1.302  1.4203 -0.3182 -1.4283
  909SOL    HW2 3635   1.681   0.094   1.396 -0.2236  0.3081 -3.9637
  909SOL     MW 3636   1.704   0.125   1.321 -0.0781  0.0357 -0.3632
  910SOL     OW 3637   2.135   1.619   0.423 -0.4999 -0.1450  0.1419
  910SOL    HW1 3638   2.076   1.543   0.410  1.2695  1.2211  1.5560
  910SOL    HW2 3639   2.106   1.679   0.351  0.6681  0.0258 -0.0474
  910SOL     MW 3640   2.124   1.617   0.412 -0.1123  0.0578  0.3035
  911SOL     OW 3641   2.412   2.203   1.561 -0.0726  0.6105 -0.0830
  911SOL    HW1 3642   2.483   2.181   1.623  3.0090  0.5140  1.2985
  911SOL    HW2 3643   2.447   2.205   1.475 -1.2722 -0.7158  1.6538
  911SOL     MW 3644   2.426   2.201   1.558  0.1757  0.4228  0.3284
  912SOL     OW 3645   2.910   1.862   1.413  0.0873 -0.0467  0.5318
  912SOL    HW1 3646   2.925   1.899   1.321  4.3555 -0.0404 -0.1631
  912SOL    HW2 3647   2.836   1.899   1.463  1.8405  1.6686 -0.7936
  912SOL     MW 3648   2.902   1.872   1.407  0.8817  0.1804  0.2653
  913SOL     OW 3649   2.701   0.013   0.292 -0.4168  0.0656  0.7166
  913SOL    HW1 3650   2.768  -0.055   0.298  3.4064  1.4647  0.8571
  913SOL    HW2 3651   2.627  -0.038   0.263  1.4889  1.8130  0.3816
  913SOL     MW 3652   2.700  -0.002   0.289  0.3390  0.4808  0.6909
  914SOL     OW 3653   2.647   1.799   3.010 -0.3690 -0.1227  0.3929
  914SOL    HW1 3654   2.687   1.882   2.977 -0.9313  0.6781  0.9146
  914SOL    HW2 3655   2.558   1.825   3.025 -1.2279  1.5502  4.0108
  914SOL     MW 3656   2.641   1.814   3.008 -0.5565  0.2037  0.9391
  915SOL     OW 3657   1.826   0.102   0.134 -0.5407 -0.3413  0.8394
  915SOL    HW1 3658   1.908   0.062   0.178  0.6198  0.1888  1.6396
  915SOL    HW2 3659   1.747   0.066   0.174  3.1297 -1.2800 -1.6720
  915SOL     MW 3660   1.826   0.092   0.145  0.0967 -0.3952  0.6136
  916SOL     OW 3661   1.792   2.163   1.981  0.2551  0.3382 -0.1330
  916SOL    HW1 3662   1.830   2.246   1.964 -0.2007  0.0255 -0.8860
  916SOL    HW2 3663   1.820   2.104   1.912 -3.0468  2.0023  0.2701
  916SOL     MW 3664   1.801   2.166   1.970 -0.2407  0.5165 -0.1792
  917SOL     OW 3665   2.534   2.186   2.540 -0.2740 -0.1441 -0.0664
  917SOL    HW1 3666   2.516   2.261   2.593  0.1588  0.0594  3.1116
  917SOL    HW2 3667   2.618   2.206   2.492  0.0761  2.1316 -4.1912
  917SOL     MW 3668   2.543   2.199   2.540 -0.1707  0.1830 -0.1913
  918SOL     OW 3669   2.050   1.608   2.711  0.0351  0.1542 -0.5243
  918SOL    HW1 3670   1.982   1.609   2.647  0.7290  1.5643  0.9886
  918SOL    HW2 3671   2.120   1.669   2.675  1.0652  1.1689 -0.1027
  918SOL     MW 3672   2.051   1.616   2.698  0.2626  0.4741 -0.2691
  919SOL     OW 3673   3.033   2.399   2.282 -0.3623 -0.3153 -0.5041
  919SOL    HW1 3674   2.989   2.334   2.225  0.0084  0.0674  1.7941
  919SOL    HW2 3675   3.086   2.436   2.214 -0.8821  1.4329 -0.6170
  919SOL     MW 3676   3.034   2.395   2.266 -0.3819 -0.0341 -0.2157
  920SOL     OW 3677   2.648   2.831   3.082 -0.1130  0.0574 -0.8044
  920SOL    HW1 3678   2.556   2.804   3.066 -1.1773  2.1140 -2.1019
  920SOL    HW2 3679   2.692   2.801   3.004 -3.5830 -1.7233  1.1332
  920SOL     MW 3680   2.641   2.824   3.070 -0.7113  0.0938 -0.7200
  921SOL     OW 3681   2.447   2.606   2.596  0.2014 -0.0701 -0.1816
  921SOL    HW1 3682   2.535   2.599   2.555 -0.5938 -0.0811 -1.6189
  921SOL    HW2 3683   2.427   2.528   2.652 -0.7320  1.3756  1.2763
  921SOL     MW 3684   2.456   2.594   2.598 -0.0267  0.1192 -0.1789
  922SOL     OW 3685   2.088   2.643   0.425  0.1302 -0.5448 -0.0786
  922SOL    HW1 3686   2.115   2.650   0.328  0.7057  1.6071 -1.6141
  922SOL    HW2 3687   2.097   2.554   0.443 -1.4912 -1.8468  1.5470
  922SOL     MW 3688   2.093   2.632   0.415 -0.0078 -0.4326 -0.0667
  923SOL     OW 3689   2.204   2.912   1.661  0.3156 -0.3493 -0.2253
  923SOL    HW1 3690   2.259   2.845   1.617 -0.4654 -1.7049  1.3676
  923SOL    HW2 3691   2.160   2.951   1.585 -0.2815 -0.0979  0.1249
  923SOL     MW 3692   2.206   2.908   1.645  0.1338 -0.4950  0.0311
  924SOL     OW 3693   1.092   2.716   2.607  0.4732 -0.5488  0.1061
  924SOL    HW1 3694   1.183   2.744   2.592 -1.7503 -1.0358  2.5612
  924SOL    HW2 3695   1.088   2.643   2.669  1.1308  0.5917  2.4574
  924SOL     MW 3696   1.103   2.710   2.614  0.2666 -0.4626  0.7403
  925SOL     OW 3697   2.981   0.177   2.615  0.3383 -0.8640  0.1391
  925SOL    HW1 3698   2.921   0.171   2.546  0.3136  2.2278  2.9946
  925SOL    HW2 3699   2.958   0.251   2.680  1.0085  1.1121 -0.0967
  925SOL     MW 3700   2.970   0.186   2.615  0.4235 -0.1953  0.4848
  926SOL     OW 3701   2.815   2.410   1.947  0.3147  0.3986 -0.1286
  926SOL    HW1 3702   2.827   2.499   1.991  1.0080 -0.9906 -0.6709
  926SOL    HW2 3703   2.853   2.427   1.861 -1.0991 -0.4306 -0.4179
  926SOL     MW 3704   2.822   2.424   1.941  0.2196  0.1059 -0.2383
  927SOL     OW 3705   2.391   0.096   0.316 -0.1161  0.0892 -0.0206
  927SOL    HW1 3706   2.472   0.141   0.336  0.3897  2.0542 -1.7436
  927SOL    HW2 3707   2.385   0.117   0.217 -0.3626 -1.5873  1.2773
  927SOL     MW 3708   2.401   0.105   0.305 -0.0819  0.1273 -0.0767
  928SOL     OW 3709   2.155   2.314   1.834  0.0954 -0.5828  0.3249
  928SOL    HW1 3710   2.160   2.388   1.768  1.9731 -1.0482 -0.7490
  928SOL    HW2 3711   2.165   2.341   1.924 -0.8928  1.4491  1.6475
  928SOL     MW 3712   2.157   2.327   1.837  0.2128 -0.3761  0.3577
  929SOL     OW 3713   2.739   2.359   2.451 -0.2240 -0.0332  0.2863
  929SOL    HW1 3714   2.779   2.315   2.373 -1.2210 -1.2512 -0.3158
  929SOL    HW2 3715   2.817   2.381   2.514  0.6012  1.8741  3.8214
  929SOL     MW 3716   2.755   2.356   2.449 -0.2467  0.0578  0.6733
  930SOL     OW 3717   2.013   2.838   2.668 -0.1331  0.2291  0.0368
  930SOL    HW1 3718   2.018   2.757   2.721  0.7382  1.7827  0.1146
  930SOL    HW2 3719   2.108   2.865   2.655 -0.2943 -3.0050  0.1987
  930SOL     MW 3720   2.026   2.831   2.673 -0.0394  0.0074  0.0685
  931SOL     OW 3721   0.043   2.787   2.450 -0.0238  0.3531  0.4006
  931SOL    HW1 3722   0.010   2.837   2.527 -0.7885 -0.1865 -3.3406
  931SOL    HW2 3723   0.137   2.813   2.444 -1.5041 -1.9505  1.2059
  931SOL     MW 3724   0.051   2.797   2.459 -0.3200 -0.0221  0.0132
  932SOL     OW 3725   2.777   2.031   2.464  0.2306  0.4836 -0.4313
  932SOL    HW1 3726   2.860   2.059   2.500  1.1776  2.1015 -2.4953
  932SOL    HW2 3727   2.809   2.000   2.379  1.2537 -0.4903 -0.8865
  932SOL     MW 3728   2.792   2.031   2.458  0.4905  0.5686 -0.7637
  933SOL     OW 3729   2.105   2.798   2.229 -0.2075 -0.1296  0.0907
  933SOL    HW1 3730   2.165   2.862   2.253 -1.5193 -0.4922  3.0839
  933SOL    HW2 3731   2.032   2.838   2.198  3.0913 -1.9969  0.6523
  933SOL     MW 3732   2.103   2.812   2.228  0.0547 -0.4238  0.5597
  934SOL     OW 3733   2.015   2.672   2.453  0.0195  0.2498  0.1490
  934SOL    HW1 3734   2.005   2.740   2.516 -0.6927 -1.0466  2.3974
  934SOL    HW2 3735   2.039   2.723   2.365 -1.3898  2.1729  0.4493
  934SOL     MW 3736   2.017   2.687   2.449 -0.2604  0.3325  0.4853
  935SOL     OW 3737   2.628   1.476   1.779 -0.2596  0.1903  0.1889
  935SOL    HW1 3738   2.723   1.476   1.749  1.2425  0.7383 -0.4235
  935SOL    HW2 3739   2.581   1.468   1.695  1.4778  1.4473  0.2616
  935SOL     MW 3740   2.634   1.475   1.764  0.1679  0.4284  0.1177
  936SOL     OW 3741   2.922   2.215   0.039  0.0295 -0.5890 -0.5441
  936SOL    HW1 3742   2.984   2.279   0.067 -0.3254  3.1538 -0.5425
  936SOL    HW2 3743   2.837   2.258   0.033 -1.2489  1.9368  3.0345
  936SOL     MW 3744   2.919   2.229   0.042 -0.1860  0.2381 -0.0718
  937SOL     OW 3745   1.917   2.117   2.620 -0.7374  0.6104 -0.5228
  937SOL    HW1 3746   1.989   2.099   2.684 -1.1579  0.0683  0.1360
  937SOL    HW2 3747   1.954   2.108   2.531 -1.4110  0.8578  0.5053
  937SOL     MW 3748   1.931   2.114   2.617 -0.8818  0.5716 -0.3002
  938SOL     OW 3749   2.249   1.783   1.839 -0.2688  0.2618 -0.2875
  938SOL    HW1 3750   2.312   1.822   1.786 -1.8462 -0.2646 -0.3971
  938SOL    HW2 3751   2.278   1.821   1.925 -3.8007  0.1137  1.5252
  938SOL     MW 3752   2.261   1.794   1.843 -0.9429  0.1728 -0.0628
  939SOL     OW 3753   2.787   1.958   2.184  0.4570  0.1229 -0.0562
  939SOL    HW1 3754   2.815   1.928   2.096  0.7795 -0.5900 -0.0744
  939SOL    HW2 3755   2.702   1.911   2.190  0.5871  0.1790  2.5039
  939SOL     MW 3756   2.779   1.948   2.174  0.5167  0.0362  0.2792
  940SOL     OW 3757   2.170   0.104   2.775  0.4077 -0.1171  0.1189
  940SOL    HW1 3758   2.210   0.022   2.766 -1.4203  0.7920 -1.8939
  940SOL    HW2 3759   2.234   0.147   2.834  1.5822 -3.9066  0.1624
  940SOL     MW 3760   2.183   0.099   2.782  0.3215 -0.4972 -0.1410
  941SOL     OW 3761   0.102   2.446   2.088  0.0322 -0.2381  0.6221
  941SOL    HW1 3762   0.189   2.402   2.100  0.5117  0.5185 -1.8363
  941SOL    HW2 3763   0.111   2.446   1.989  0.4642 -0.6619 -1.3502
  941SOL     MW 3764   0.115   2.440   2.076  0.1524 -0.1942  0.0375
  942SOL     OW 3765   2.836   2.247   2.197  0.1206  0.8142 -0.4463
  942SOL    HW1 3766   2.823   2.285   2.109 -1.1376 -0.0752 -0.9153
  942SOL    HW2 3767   2.824   2.159   2.161 -0.8391  0.1275 -0.7338
  942SOL     MW 3768   2.833   2.240   2.181 -0.1721  0.6063 -0.5461
  943SOL     OW 3769   0.320   2.118   2.268 -0.1433  0.1698 -0.5007
  943SOL    HW1 3770   0.245   2.168   2.285  0.9174 -2.6125 -1.9357
  943SOL    HW2 3771   0.367   2.114   2.350  2.8093  0.9661 -1.8057
  943SOL     MW 3772   0.316   2.124   2.281  0.3862 -0.0922 -0.8622
  944SOL     OW 3773   2.146   2.650   1.961 -0.0724 -0.3063 -0.1682
  944SOL    HW1 3774   2.215   2.601   2.009  0.5435  2.7291 -0.2214
  944SOL    HW2 3775   2.081   2.649   2.032 -0.6009 -0.0604  4.1647
  944SOL     MW 3776   2.146   2.643   1.976 -0.0608  0.1267  0.3964
  945SOL     OW 3777   2.752   2.721   2.864 -0.1997 -0.0084  0.0570
  945SOL    HW1 3778   2.755   2.622   2.845  0.9702 -1.0527  1.6393
  945SOL    HW2 3779   2.742   2.769   2.785 -3.3351 -0.9128  1.5948
  945SOL     MW 3780   2.751   2.714   2.851 -0.4590 -0.2655  0.4687
  946SOL     OW 3781   2.464   2.688   2.243 -0.6032  0.3510 -0.1928
  946SOL    HW1 3782   2.492   2.717   2.163 -0.1450 -0.8629 -0.5056
  946SOL    HW2 3783   2.424   2.605   2.214 -1.5298 -1.0629 -1.7573
  946SOL     MW 3784   2.462   2.681   2.229 -0.6650  0.0043 -0.4405
  947SOL     OW 3785   2.043   3.095   0.226 -0.5900 -0.3555 -0.0811
  947SOL    HW1 3786   2.070   3.008   0.192  1.4403 -2.1954 -1.5906
  947SOL    HW2 3787   2.086   3.088   0.319  1.6644 -2.9859 -3.7943
  947SOL     MW 3788   2.052   3.082   0.234 -0.0247 -0.9453 -0.7702
  948SOL     OW 3789   1.810   3.041   2.616 -0.0307 -0.0074  0.7968
  948SOL    HW1 3790   1.856   2.959   2.618  1.4590  1.7802  1.1879
  948SOL    HW2 3791   1.776   3.047   2.524  0.0266 -1.6048 -0.1949
  948SOL     MW 3792   1.812   3.031   2.604  0.1734  0.0177  0.7176
  949SOL     OW 3793   2.522   1.869   2.216 -0.1731  0.1635  0.6264
  949SOL    HW1 3794   2.487   1.792   2.259  0.2724 -2.1694 -1.1248
  949SOL    HW2 3795   2.498   1.949   2.262 -0.4518  0.4891  0.6020
  949SOL     MW 3796   2.514   1.869   2.228 -0.1511 -0.1013  0.3921
  950SOL     OW 3797   2.314   2.440   2.986 -0.1364 -0.2103 -0.7925
  950SOL    HW1 3798   2.384   2.410   2.924  0.9562 -2.7318  1.5259
  950SOL    HW2 3799   2.241   2.477   2.935 -2.0756 -0.0793  1.3254
  950SOL     MW 3800   2.313   2.441   2.971 -0.2481 -0.5257 -0.2072
  951SOL     OW 3801   3.038   2.229   2.875 -0.4598  0.1556  0.0202
  951SOL    HW1 3802   3.014   2.218   2.968  0.9004  0.9609 -1.1211
  951SOL    HW2 3803   3.089   2.149   2.852  0.8940 -0.6507 -0.3126
  951SOL     MW 3804   3.042   2.217   2.885 -0.1018  0.1555 -0.1743
  952SOL     OW 3805   3.060   1.735   2.119  0.7155 -0.2212 -0.2679
  952SOL    HW1 3806   3.010   1.775   2.043 -2.1775 -2.1413 -0.7704
  952SOL    HW2 3807   3.115   1.806   2.147  0.3493  0.1984 -0.9730
  952SOL     MW 3808   3.061   1.750   2.113  0.2855 -0.4192 -0.4272
  953SOL     OW 3809   1.940   1.762   2.940 -0.0741  0.7997 -0.3685
  953SOL    HW1 3810   1.863   1.720   2.981 -1.3092 -2.2949 -1.3786
  953SOL    HW2 3811   1.990   1.698   2.881  2.4424  1.9045 -0.3524
  953SOL     MW 3812   1.936   1.748   2.938  0.0950  0.5371 -0.4996
  954SOL     OW 3813   2.371   2.127   2.908  0.3705 -0.3749  0.2299
  954SOL    HW1 3814   2.277   2.116   2.887  0.8837 -1.1938 -0.9504
  954SOL    HW2 3815   2.421   2.079   2.843 -1.1623 -1.1794  1.6851
  954SOL     MW 3816   2.366   2.119   2.897  0.2360 -0.5891  0.2661
  955SOL     OW 3817   1.571   1.515   2.550  0.0885  0.1721  0.2604
  955SOL    HW1 3818   1.516   1.546   2.472  1.4567 -0.8825  1.1126
  955SOL    HW2 3819   1.656   1.558   2.557 -2.1550 -0.5499 -0.9647
  955SOL     MW 3820   1.575   1.525   2.540 -0.0269 -0.0623  0.2112
  956SOL     OW 3821   2.717   2.445   2.811 -0.8694 -0.1709 -0.0102
  956SOL    HW1 3822   2.714   2.405   2.893  0.6630 -1.7817 -3.6544
  956SOL    HW2 3823   2.795   2.401   2.767 -1.7153 -0.9731  0.1500
  956SOL     MW 3824   2.727   2.434   2.816 -0.7788 -0.4893 -0.4699
  957SOL     OW 3825   2.259   2.832   0.532  0.3097  0.1092 -0.3041
  957SOL    HW1 3826   2.185   2.779   0.505  2.0229  1.4821  2.7561
  957SOL    HW2 3827   2.259   2.834   0.631 -0.6638  2.3538 -2.8929
  957SOL     MW 3828   2.249   2.825   0.541  0.4073  0.5865 -0.2419
  958SOL     OW 3829   2.078   2.541   2.847 -0.3276 -0.0720 -0.6512
  958SOL    HW1 3830   2.021   2.513   2.772  2.9247 -0.6331 -0.0765
  958SOL    HW2 3831   2.024   2.546   2.928 -1.2674 -2.5857  0.2257
  958SOL     MW 3832   2.063   2.538   2.847 -0.0225 -0.4777 -0.4596
  959SOL     OW 3833   2.505   2.788   0.439  0.2751 -0.3755 -0.3163
  959SOL    HW1 3834   2.505   2.847   0.362 -1.7227  0.3083 -1.7689
  959SOL    HW2 3835   2.415   2.797   0.475  2.3516  0.6965  0.8082
  959SOL     MW 3836   2.493   2.797   0.434  0.2855 -0.1439 -0.3596
  960SOL     OW 3837   1.923   2.398   2.290  0.0698 -0.2864  0.5784
  960SOL    HW1 3838   1.951   2.305   2.300 -1.2577  0.1031 -2.2688
  960SOL    HW2 3839   1.841   2.401   2.341  2.0167 -2.6717  1.6948
  960SOL     MW 3840   1.916   2.386   2.298  0.1515 -0.5497  0.3500
  961SOL     OW 3841   2.229   2.338   2.291 -0.2400 -0.1905 -0.3079
  961SOL    HW1 3842   2.140   2.328   2.262  1.6698 -0.5851 -1.6960
  961SOL    HW2 3843   2.234   2.399   2.370  0.7092 -0.4867  0.9837
  961SOL     MW 3844   2.218   2.345   2.298  0.1373 -0.2816 -0.3206
  962SOL     OW 3845   2.125   2.036   2.812  0.1826  0.1310  0.3138
  962SOL    HW1 3846   2.126   1.987   2.894  0.1638  1.3005  2.0193
  962SOL    HW2 3847   2.151   1.963   2.742  0.0212  0.0207 -4.7301
  962SOL     MW 3848   2.128   2.020   2.814  0.1588  0.2707 -0.1267
  963SOL     OW 3849   1.851   2.568   2.080 -0.2070 -0.4445 -0.1758
  963SOL    HW1 3850   1.881   2.503   2.143 -3.4123 -0.5986 -0.3149
  963SOL    HW2 3851   1.846   2.523   1.991  1.3037  1.2073 -1.3564
  963SOL     MW 3852   1.854   2.553   2.077 -0.4306 -0.2469 -0.3500
  964SOL     OW 3853   1.825   1.868   2.711 -0.3677 -0.1834 -0.8380
  964SOL    HW1 3854   1.884   1.940   2.680 -0.2532 -1.7816 -1.3153
  964SOL    HW2 3855   1.876   1.842   2.787  0.7566  0.4196  1.8071
  964SOL     MW 3856   1.840   1.874   2.717 -0.2042 -0.3147 -0.5520
  965SOL     OW 3857   2.105   2.579   0.803  0.6251 -0.0004  0.7613
  965SOL    HW1 3858   2.143   2.505   0.748  1.7888  0.5114  0.5807
  965SOL    HW2 3859   2.176   2.621   0.850  2.2752  1.0944  0.4059
  965SOL     MW 3860   2.120   2.575   0.802  0.9963  0.2116  0.6906
  966SOL     OW 3861   2.656   2.612   2.435  0.1065  0.2142  0.4880
  966SOL    HW1 3862   2.575   2.629   2.383  0.6314  0.6949  4.1885
  966SOL    HW2 3863   2.680   2.518   2.424 -3.0045 -1.4596 -1.1420
  966SOL     MW 3864   2.648   2.601   2.427 -0.2347  0.0568  0.7612
  967SOL     OW 3865   2.697   0.032   3.060 -0.5484  0.8711  0.5263
  967SOL    HW1 3866   2.685  -0.054   3.091 -3.7336 -1.3673  0.0373
  967SOL    HW2 3867   2.683   0.030   2.963 -0.5472 -1.7134  0.7396
  967SOL     MW 3868   2.693   0.021   3.051 -0.9685  0.2347  0.4899
  968SOL     OW 3869   3.024   2.683   2.890 -0.5965 -0.0940  0.0929
  968SOL    HW1 3870   2.939   2.717   2.858  0.0251 -4.3528  0.2914
  968SOL    HW2 3871   3.064   2.634   2.820 -1.4231  0.3478  1.4396
  968SOL     MW 3872   3.018   2.681   2.877 -0.6236 -0.5976  0.2968
  969SOL     OW 3873   1.560   2.114   1.708  0.2357 -0.7295  0.6681
  969SOL    HW1 3874   1.651   2.076   1.716  1.1180  0.5716  0.7488
  969SOL    HW2 3875   1.525   2.112   1.794 -0.4054 -0.1403 -3.3180
  969SOL     MW 3876   1.567   2.109   1.720  0.2676 -0.4801  0.1528
  970SOL     OW 3877   1.753   1.803   1.885 -0.4022  0.0512 -0.5464
  970SOL    HW1 3878   1.779   1.738   1.950 -1.5255  0.7197 -0.0914
  970SOL    HW2 3879   1.659   1.807   1.902 -0.6040  2.3541  0.4203
  970SOL     MW 3880   1.744   1.795   1.896 -0.5770  0.4433 -0.3588
  971SOL     OW 3881   1.744   0.006   2.363  0.1027 -0.5665 -0.2256
  971SOL    HW1 3882   1.788  -0.053   2.295  2.5882  1.5742 -0.6163
  971SOL    HW2 3883   1.774   0.098   2.335 -1.7212  3.2473  1.2872
  971SOL     MW 3884   1.754   0.010   2.351  0.1900  0.2191 -0.0775
  972SOL     OW 3885   0.314   2.866   2.385 -0.1562 -0.4345  0.1026
  972SOL    HW1 3886   0.352   2.777   2.398 -0.0863  0.8970 -1.2348
  972SOL    HW2 3887   0.372   2.932   2.421  2.5642 -0.1879 -0.6487
  972SOL     MW 3888   0.327   2.863   2.391  0.2120 -0.2263 -0.1730
  973SOL     OW 3889   2.624   3.014   2.117 -0.0058  0.2410 -0.5515
  973SOL    HW1 3890   2.589   2.927   2.083  1.8914  2.4463  1.5169
  973SOL    HW2 3891   2.651   3.059   2.040  3.0883 -2.7034 -0.1237
  973SOL     MW 3892   2.623   3.008   2.102  0.6527  0.1435 -0.2222
  974SOL     OW 3893   1.980   0.153   2.572  0.6255  0.1605 -0.0715
  974SOL    HW1 3894   2.052   0.137   2.634 -2.0201 -0.4232 -0.0119
  974SOL    HW2 3895   1.931   0.071   2.581 -0.6195  1.2932 -0.4033
  974SOL     MW 3896   1.983   0.140   2.581  0.1122  0.2329 -0.1074
  975SOL     OW 3897   2.196   2.490   2.517 -0.2651 -0.1170 -0.2711
  975SOL    HW1 3898   2.282   2.536   2.530 -1.7420 -1.4937  0.7720
  975SOL    HW2 3899   2.138   2.568   2.483  0.7023 -1.9992 -1.5171
  975SOL     MW 3900   2.199   2.506   2.514 -0.3323 -0.5469 -0.2978
  976SOL     OW 3901   0.182   0.366   1.584 -0.1432 -0.3016  0.0983
  976SOL    HW1 3902   0.253   0.320   1.629 -0.1653 -0.5745  2.4300
  976SOL    HW2 3903   0.097   0.326   1.596 -0.3797  2.8814 -1.9995
  976SOL     MW 3904   0.180   0.355   1.592 -0.1773  0.0823  0.1292
  977SOL     OW 3905   1.760   2.752   2.385  0.7705 -0.3176  0.1725
  977SOL    HW1 3906   1.822   2.701   2.432  0.9647 -0.6860  0.0409
  977SOL    HW2 3907   1.805   2.788   2.306 -4.0286  3.5624 -3.4215
  977SOL     MW 3908   1.774   2.750   2.381  0.1629  0.1457 -0.3190
   3.10000   3.10000   3.10000
