977 TIP4P/2005f water molecules t=   1.49000 step= 1490
 3908
    1SOL     OW    1   0.361   0.862   0.075  0.3516 -0.5833  0.0122
    1SOL    HW1    2   0.351   0.848  -0.017 -1.1839 -4.6616  0.3740
    1SOL    HW2    3   0.309   0.784   0.099 -1.5180  0.3397  0.2693
    1SOL     MW    4   0.352   0.850   0.066 -0.0977 -0.9996  0.0938
    2SOL     OW    5   0.299   3.039   1.098 -0.2385 -0.5942 -0.3581
    2SOL    HW1    6   0.356   3.112   1.110 -0.0743 -0.4762  1.9939
    2SOL    HW2    7   0.213   3.075   1.119  3.4334  1.3561  1.3909
    2SOL     MW    8   0.295   3.053   1.102  0.2677 -0.3213  0.1830
    3SOL     OW    9   2.632   0.342   0.964 -0.0128  0.1286  0.0060
    3SOL    HW1   10   2.693   0.404   0.920 -6.5328 -1.9065 -1.4052
    3SOL    HW2   11   2.609   0.386   1.041  0.5667  0.0264 -0.9014
    3SOL     MW   12   2.637   0.356   0.968 -0.7966 -0.1534 -0.2999
    4SOL     OW   13   3.060   1.718   0.531 -0.6493 -0.4246 -0.2780
    4SOL    HW1   14   2.994   1.776   0.491 -0.7647 -0.5649  2.2627
    4SOL    HW2   15   3.105   1.675   0.460  0.1444  2.8889 -1.9585
    4SOL     MW   16   3.057   1.720   0.517 -0.5598 -0.0059 -0.1645
    5SOL     OW   17   1.640   1.464   0.630 -0.0723 -0.4491  0.1926
    5SOL    HW1   18   1.661   1.433   0.717 -1.0372 -1.8967  3.4866
    5SOL    HW2   19   1.538   1.467   0.643 -1.7915  2.1036  0.6883
    5SOL     MW   20   1.629   1.460   0.643 -0.4264 -0.3033  0.6926
    6SOL     OW   21   0.789   1.430   0.592 -0.0157 -0.0551 -0.1287
    6SOL    HW1   22   0.692   1.425   0.606 -2.3100  1.8894 -0.6914
    6SOL    HW2   23   0.813   1.351   0.634 -2.4459 -0.2623 -3.4640
    6SOL     MW   24   0.779   1.419   0.600 -0.6391  0.1741 -0.6430
    7SOL     OW   25   1.975   1.053   0.022 -0.6492 -0.4617  0.6153
    7SOL    HW1   26   2.053   1.097  -0.020  0.4208  3.2869 -1.7914
    7SOL    HW2   27   1.994   1.055   0.115  2.8033  0.5682 -0.3010
    7SOL     MW   28   1.988   1.059   0.029 -0.0525  0.1688  0.1769
    8SOL     OW   29   0.780   1.502   1.157 -0.2583 -0.0226 -0.3375
    8SOL    HW1   30   0.876   1.525   1.165 -0.5825 -2.8860  3.3235
    8SOL    HW2   31   0.777   1.406   1.163 -0.4421 -0.1896 -0.9205
    8SOL     MW   32   0.792   1.492   1.159 -0.3253 -0.4224  0.0686
    9SOL     OW   33   1.023   0.469   1.311 -0.2871  0.1998 -0.5427
    9SOL    HW1   34   0.952   0.407   1.296  1.5732  1.8381  1.9270
    9SOL    HW2   35   1.053   0.428   1.395  0.2604  0.2127  0.9618
    9SOL     MW   36   1.018   0.455   1.320  0.0306  0.4176 -0.0184
   10SOL     OW   37   0.279   0.858   0.513 -0.0214  0.7816 -0.2589
   10SOL    HW1   38   0.370   0.879   0.484 -0.4996 -0.9799 -0.9653
   10SOL    HW2   39   0.249   0.909   0.589  0.2876 -2.6545  0.7394
   10SOL     MW   40   0.287   0.867   0.519 -0.0437  0.0958 -0.2204
   11SOL     OW   41   0.760   1.132   1.564  0.0478 -0.0054 -0.2785
   11SOL    HW1   42   0.842   1.138   1.622 -0.0394 -0.8071 -2.0350
   11SOL    HW2   43   0.756   1.031   1.556 -1.2793 -1.1799 -0.1610
   11SOL     MW   44   0.770   1.119   1.571 -0.1388 -0.2662 -0.4948
   12SOL     OW   45   3.080   1.131   0.862  0.7310 -0.1211 -0.0697
   12SOL    HW1   46   3.122   1.214   0.884  0.5650  1.3855  0.8558
   12SOL    HW2   47   3.021   1.167   0.787 -0.0585  0.7394 -1.3795
   12SOL     MW   48   3.078   1.146   0.855  0.6049  0.1912 -0.1204
   13SOL     OW   49   1.848   1.419   1.277  0.0867  0.3775  0.3876
   13SOL    HW1   50   1.890   1.365   1.214 -0.8895 -2.0696 -1.2429
   13SOL    HW2   51   1.855   1.508   1.250  0.1700 -1.5537  1.8072
   13SOL     MW   52   1.854   1.423   1.265 -0.0311 -0.2002  0.3598
   14SOL     OW   53   0.564   0.340   1.879 -0.2828  0.4246  0.0669
   14SOL    HW1   54   0.497   0.269   1.858  0.5039  1.5139 -3.1074
   14SOL    HW2   55   0.563   0.398   1.804 -1.4812 -0.0016  0.9160
   14SOL     MW   56   0.555   0.338   1.866 -0.3371  0.5121 -0.2399
   15SOL     OW   57   1.996   0.373   1.071  0.2222  0.4428  0.2312
   15SOL    HW1   58   2.022   0.428   1.142 -0.5015  0.8331  0.7689
   15SOL    HW2   59   2.049   0.412   1.002 -0.0938 -0.5736  0.9609
   15SOL     MW   60   2.007   0.386   1.071  0.0850  0.3602  0.3984
   16SOL     OW   61   0.253   1.836   0.242  0.7990  0.4607 -0.2915
   16SOL    HW1   62   0.340   1.800   0.241 -1.6584 -2.5391  1.8099
   16SOL    HW2   63   0.254   1.914   0.302  1.1516  0.1478  0.7518
   16SOL     MW   64   0.265   1.841   0.250  0.5213  0.0236  0.1234
   17SOL     OW   65   1.084   0.912   1.406  0.5784 -0.0073  0.0306
   17SOL    HW1   66   1.114   0.915   1.497  0.6435 -1.2997 -1.2901
   17SOL    HW2   67   0.993   0.881   1.411  0.2994 -0.4244 -1.9702
   17SOL     MW   68   1.076   0.909   1.419  0.5502 -0.2329 -0.4077
   18SOL     OW   69   0.116   1.599   0.346 -0.3470 -0.0239 -0.0702
   18SOL    HW1   70   0.165   1.678   0.318 -0.2080  4.1271  0.4280
   18SOL    HW2   71   0.090   1.552   0.259  1.6781 -1.8031 -3.4888
   18SOL     MW   72   0.119   1.603   0.331 -0.0615  0.2890 -0.4555
   19SOL     OW   73   0.086   1.362   0.926 -0.1174 -0.7489 -0.3403
   19SOL    HW1   74   0.141   1.381   0.847  0.2551 -0.3534 -0.0672
   19SOL    HW2   75   0.001   1.403   0.932  3.1464 -1.8965  1.7722
   19SOL     MW   76   0.082   1.370   0.917  0.3624 -0.8481 -0.0256
   20SOL     OW   77   0.435   2.161   1.239  0.4234 -0.1013 -0.0608
   20SOL    HW1   78   0.404   2.074   1.204 -0.0654 -2.6120 -0.5624
   20SOL    HW2   79   0.421   2.171   1.334 -0.0328  2.9892 -1.1587
   20SOL     MW   80   0.429   2.151   1.247  0.2988 -0.0248 -0.2718
   21SOL     OW   81   0.539   0.878   0.438  0.0863 -0.1541 -0.0555
   21SOL    HW1   82   0.611   0.848   0.492 -2.3642 -2.7481  1.1845
   21SOL    HW2   83   0.569   0.915   0.355  1.2902  4.4055 -1.1167
   21SOL     MW   84   0.553   0.879   0.434 -0.0782  0.1052 -0.0319
   22SOL     OW   85   1.574   0.699   0.983 -0.7551 -0.2731  0.1335
   22SOL    HW1   86   1.555   0.683   0.893  0.6969 -0.1144 -2.5034
   22SOL    HW2   87   1.515   0.774   1.007 -1.2806  1.8695  1.2453
   22SOL     MW   88   1.564   0.707   0.974 -0.6329  0.0306 -0.0677
   23SOL     OW   89  -0.004   0.732   0.711  0.9424  0.4808  0.5359
   23SOL    HW1   90   0.061   0.666   0.736  0.2763 -0.7350 -1.5882
   23SOL    HW2   91   0.046   0.815   0.707 -1.9216  0.1902 -1.3892
   23SOL     MW   92   0.011   0.734   0.714  0.4766  0.2820  0.0016
   24SOL     OW   93   2.086   2.195   0.025 -0.2938 -0.3218  0.2585
   24SOL    HW1   94   2.076   2.209   0.122  3.8347 -2.0361 -2.1543
   24SOL    HW2   95   2.127   2.113   0.005 -1.7615  0.0144  0.2851
   24SOL     MW   96   2.090   2.186   0.035  0.0573 -0.5036 -0.0563
   25SOL     OW   97   0.214   1.337   0.430 -0.4912  0.0802  0.5566
   25SOL    HW1   98   0.196   1.430   0.402  0.0615  0.6349 -0.4414
   25SOL    HW2   99   0.251   1.286   0.362 -1.7085 -0.8064 -1.2378
   25SOL     MW  100   0.216   1.342   0.417 -0.5789  0.0365  0.1882
   26SOL     OW  101   2.024   1.000   0.311 -0.3557  0.2998  0.1120
   26SOL    HW1  102   1.950   1.037   0.360 -1.8145 -3.6360 -1.7543
   26SOL    HW2  103   2.092   1.059   0.317 -3.3945 -2.1962 -1.7328
   26SOL     MW  104   2.023   1.013   0.318 -0.9491 -0.5488 -0.3777
   27SOL     OW  105   1.869   1.345   0.154  0.1656 -0.3975  0.0473
   27SOL    HW1  106   1.785   1.382   0.183  0.7282 -0.9711  1.4337
   27SOL    HW2  107   1.918   1.339   0.235  0.2072 -0.3733 -1.1217
   27SOL     MW  108   1.865   1.349   0.169  0.2454 -0.4700  0.0760
   28SOL     OW  109   0.434   0.959   1.991 -0.8030 -0.4882  0.0152
   28SOL    HW1  110   0.484   0.919   2.061 -0.2941  0.3275 -2.0543
   28SOL    HW2  111   0.348   0.930   2.011  0.6045 -0.8942 -1.8724
   28SOL     MW  112   0.430   0.950   2.003 -0.5502 -0.4342 -0.5069
   29SOL     OW  113   0.262   1.383   0.717 -0.3279 -0.4285 -0.2470
   29SOL    HW1  114   0.252   1.477   0.725  1.2303  0.2718  2.4246
   29SOL    HW2  115   0.208   1.354   0.645 -0.9244  0.8554  1.6436
   29SOL     MW  116   0.254   1.392   0.709 -0.2010 -0.1667  0.3550
   30SOL     OW  117   0.808   1.245   1.250  0.4933  0.1835  0.5034
   30SOL    HW1  118   0.742   1.192   1.294  1.2818 -0.4929  0.6579
   30SOL    HW2  119   0.887   1.216   1.293 -4.1033 -1.6993  0.7646
   30SOL     MW  120   0.810   1.234   1.261 -0.0091 -0.1542  0.5583
   31SOL     OW  121   0.447   0.292   0.153 -0.0448  0.1845  0.5337
   31SOL    HW1  122   0.478   0.220   0.208 -1.4091 -1.1859 -1.2672
   31SOL    HW2  123   0.481   0.273   0.065  0.0063 -0.5914 -0.0490
   31SOL     MW  124   0.456   0.280   0.149 -0.2181 -0.0987  0.2192
   32SOL     OW  125   2.702   0.994   1.141  0.2215  0.1212 -0.4549
   32SOL    HW1  126   2.619   0.941   1.162  1.4244  0.5001 -0.6263
   32SOL    HW2  127   2.760   0.936   1.094 -0.0146 -0.1638 -2.0645
   32SOL     MW  128   2.698   0.979   1.138  0.3491  0.1336 -0.6899
   33SOL     OW  129   1.655   1.296   0.407  0.4356 -0.4844 -0.3962
   33SOL    HW1  130   1.712   1.219   0.434 -0.7882 -0.5207 -0.5962
   33SOL    HW2  131   1.650   1.358   0.478 -1.2707 -0.6516 -0.8262
   33SOL     MW  132   1.662   1.294   0.420  0.0490 -0.5112 -0.4793
   34SOL     OW  133   1.219   1.931   1.154 -0.2153 -0.2912  0.2773
   34SOL    HW1  134   1.150   1.974   1.197  3.4716 -1.0539  1.9681
   34SOL    HW2  135   1.299   1.955   1.212  1.6490 -1.0802  2.8343
   34SOL     MW  136   1.221   1.940   1.167  0.5171 -0.4959  0.8378
   35SOL     OW  137   0.328   0.150   1.836  0.4038 -0.4237  0.1001
   35SOL    HW1  138   0.367   0.088   1.899 -0.1659  0.8109 -0.0866
   35SOL    HW2  139   0.345   0.112   1.748  0.0155  1.1429  0.6571
   35SOL     MW  140   0.335   0.137   1.832  0.2774 -0.0541  0.1489
   36SOL     OW  141   1.934   1.946   0.583  0.1029  0.0844 -0.1669
   36SOL    HW1  142   1.909   1.915   0.494  1.7958 -0.1536 -0.5769
   36SOL    HW2  143   1.943   1.876   0.644  0.7711  3.8550 -1.0675
   36SOL     MW  144   1.932   1.933   0.579  0.4144  0.5505 -0.3398
   37SOL     OW  145   1.839   2.034   1.042  0.4261  0.6514 -0.1406
   37SOL    HW1  146   1.798   1.977   0.975 -3.0456 -1.1601  2.6159
   37SOL    HW2  147   1.763   2.056   1.099 -2.4627 -0.9573 -0.0288
   37SOL     MW  148   1.824   2.029   1.040 -0.4131  0.2001  0.2379
   38SOL     OW  149   2.852   0.927   0.170  0.4280  0.3817  0.5718
   38SOL    HW1  150   2.882   0.905   0.260 -2.0145  1.5603  1.1999
   38SOL    HW2  151   2.933   0.923   0.113  1.1113  0.3169 -2.4226
   38SOL     MW  152   2.867   0.923   0.174  0.1959  0.5286  0.2596
   39SOL     OW  153   1.481   0.596   0.743 -0.0810  0.1067  0.3857
   39SOL    HW1  154   1.449   0.513   0.778 -0.8211 -0.6030  0.2387
   39SOL    HW2  155   1.405   0.651   0.736  0.4931  3.8779 -0.5851
   39SOL     MW  156   1.467   0.593   0.747 -0.1029  0.5107  0.2382
   40SOL     OW  157   1.276   1.897   0.263  0.2083 -0.4716 -0.2167
   40SOL    HW1  158   1.340   1.835   0.299  3.0503  1.3906  2.2923
   40SOL    HW2  159   1.253   1.959   0.333 -0.8266 -0.2793 -2.3061
   40SOL     MW  160   1.281   1.897   0.277  0.4468 -0.2005 -0.1613
   41SOL     OW  161   0.559   0.540   1.617 -0.4344 -0.1151 -0.0321
   41SOL    HW1  162   0.639   0.575   1.576  0.5614  1.4154 -0.1557
   41SOL    HW2  163   0.494   0.614   1.600 -0.9797  4.0449 -1.6457
   41SOL     MW  164   0.561   0.554   1.610 -0.3749  0.6357 -0.2613
   42SOL     OW  165   1.260   2.995   1.937 -0.5542 -0.3865  0.2638
   42SOL    HW1  166   1.199   3.050   1.985  1.4975 -0.3709 -1.1740
   42SOL    HW2  167   1.282   2.915   1.984 -1.5810 -1.4458 -0.5777
   42SOL     MW  168   1.255   2.992   1.950 -0.4190 -0.5242 -0.0369
   43SOL     OW  169   1.497   0.131   1.691 -0.2678 -0.2773 -0.1812
   43SOL    HW1  170   1.541   0.097   1.614  0.0997 -2.4366  2.6202
   43SOL    HW2  171   1.410   0.098   1.676 -1.1631  0.2707 -2.1657
   43SOL     MW  172   1.491   0.122   1.679 -0.3374 -0.4899 -0.0734
   44SOL     OW  173   1.270   0.766   1.057 -0.2621  0.5667 -0.1023
   44SOL    HW1  174   1.268   0.863   1.032 -1.7830  0.8632 -2.9533
   44SOL    HW2  175   1.237   0.749   1.146 -0.7583  0.3558  0.7633
   44SOL     MW  176   1.266   0.776   1.066 -0.5283  0.5780 -0.3643
   45SOL     OW  177   1.275   0.771   0.765  0.2696  0.1470  0.1743
   45SOL    HW1  178   1.238   0.773   0.852 -1.2438  1.6953 -0.1309
   45SOL    HW2  179   1.207   0.749   0.693 -1.9338  1.8306 -1.7449
   45SOL     MW  180   1.262   0.768   0.767 -0.2208  0.5734 -0.1192
   46SOL     OW  181   0.509   1.087   0.641 -0.2984 -0.5985 -0.1637
   46SOL    HW1  182   0.528   1.091   0.545  0.1554 -0.3658 -0.5612
   46SOL    HW2  183   0.471   1.172   0.671  0.2656 -0.9259  2.4351
   46SOL     MW  184   0.507   1.098   0.632 -0.1641 -0.6110  0.1267
   47SOL     OW  185   0.146   1.976   1.940 -0.3846  0.2201 -1.0178
   47SOL    HW1  186   0.166   1.894   1.892  0.7301  0.3441 -2.7047
   47SOL    HW2  187   0.127   1.952   2.027  0.8640 -0.0492 -0.7635
   47SOL     MW  188   0.146   1.962   1.945 -0.0728  0.2009 -1.2068
   48SOL     OW  189   1.172   0.497   1.025  0.0366 -0.1863  0.0201
   48SOL    HW1  190   1.086   0.511   0.984  1.3974 -0.3448  1.0712
   48SOL    HW2  191   1.207   0.588   1.036  0.8731  2.2795  0.7012
   48SOL     MW  192   1.165   0.511   1.021  0.3265  0.1181  0.2487
   49SOL     OW  193   1.692   0.645   1.557  0.1216  0.4683  0.0864
   49SOL    HW1  194   1.717   0.591   1.632  0.4620  0.7099 -0.7350
   49SOL    HW2  195   1.724   0.602   1.480  0.2520  1.2767 -0.6161
   49SOL     MW  196   1.699   0.632   1.557  0.1837  0.6068 -0.1147
   50SOL     OW  197   1.277   1.242   0.591  0.3455  0.2367  0.1285
   50SOL    HW1  198   1.219   1.243   0.667 -2.3781 -0.1484  2.4781
   50SOL    HW2  199   1.323   1.165   0.608  0.5286 -0.1797 -3.1830
   50SOL     MW  200   1.275   1.232   0.603  0.0103  0.1310  0.0016
   51SOL     OW  201   0.316   2.908   0.857  0.0943 -0.4799 -0.7400
   51SOL    HW1  202   0.400   2.853   0.866  0.8618  1.8804 -0.2357
   51SOL    HW2  203   0.305   2.970   0.932  2.9478  1.9338 -2.2010
   51SOL     MW  204   0.325   2.909   0.868  0.5721  0.1500 -0.8663
   52SOL     OW  205   0.816   1.827   0.462  0.0694 -0.2919 -0.1231
   52SOL    HW1  206   0.773   1.916   0.475  0.2191 -0.7033  1.0582
   52SOL    HW2  207   0.816   1.805   0.370 -0.0221 -0.7811 -0.2038
   52SOL     MW  208   0.810   1.836   0.452  0.0770 -0.4107  0.0221
   53SOL     OW  209   0.442   2.169   0.502  0.1946  0.6707  0.4508
   53SOL    HW1  210   0.360   2.168   0.455 -0.7807  0.7487  2.0280
   53SOL    HW2  211   0.441   2.259   0.536  0.1757 -1.3174  0.1184
   53SOL     MW  212   0.431   2.181   0.500  0.0634  0.4187  0.6151
   54SOL     OW  213   2.058   0.961   0.743 -0.3048  0.1925 -0.7043
   54SOL    HW1  214   2.117   0.944   0.668  0.5273 -0.3675 -0.4423
   54SOL    HW2  215   2.043   0.872   0.773  1.0780  1.4398  0.1462
   54SOL     MW  216   2.064   0.947   0.737 -0.0126  0.2832 -0.5575
   55SOL     OW  217   0.484   1.544   1.683 -0.3781 -0.6157 -0.1084
   55SOL    HW1  218   0.431   1.559   1.607  1.3982 -2.5545  1.0100
   55SOL    HW2  219   0.572   1.525   1.659 -2.0482  1.0844  1.6086
   55SOL     MW  220   0.489   1.544   1.670 -0.3641 -0.6472  0.2657
   56SOL     OW  221   0.647   0.889   0.182 -0.0866  0.2488  0.4213
   56SOL    HW1  222   0.672   0.980   0.155  2.6538 -0.7153 -2.1927
   56SOL    HW2  223   0.565   0.867   0.140  0.4713 -0.8890  0.4447
   56SOL     MW  224   0.640   0.898   0.173  0.3486 -0.0285  0.0795
   57SOL     OW  225   1.139   1.259   1.148 -0.2526  0.3402 -0.9379
   57SOL    HW1  226   1.226   1.294   1.170 -0.7620 -1.8938  1.5717
   57SOL    HW2  227   1.127   1.213   1.232  1.0513  0.3395 -0.2227
   57SOL     MW  228   1.149   1.257   1.162 -0.1477  0.0454 -0.5125
   58SOL     OW  229   0.506   1.261   1.264 -0.7613 -0.1025 -0.2947
   58SOL    HW1  230   0.476   1.353   1.271 -3.7993 -0.0667  0.2677
   58SOL    HW2  231   0.512   1.247   1.355 -0.8838 -0.3532 -2.6061
   58SOL     MW  232   0.503   1.271   1.277 -1.1783 -0.1308 -0.5255
   59SOL     OW  233   1.450   1.673   0.335 -0.5021  0.1967  0.2553
   59SOL    HW1  234   1.502   1.728   0.392  0.5884  1.8419  0.8056
   59SOL    HW2  235   1.390   1.625   0.389 -2.8330  0.9809  0.5137
   59SOL     MW  236   1.449   1.674   0.349 -0.6658  0.5172  0.3620
   60SOL     OW  237   3.056   0.177   1.704  0.0461  0.6287 -0.3788
   60SOL    HW1  238   2.980   0.238   1.716 -0.7697 -0.0627  0.0507
   60SOL    HW2  239   3.025   0.091   1.749 -2.8232 -2.5792 -0.1251
   60SOL     MW  240   3.042   0.174   1.712 -0.4401  0.1142 -0.2886
   61SOL     OW  241   1.968   1.390   3.017 -0.0264  0.4255 -0.4991
   61SOL    HW1  242   1.935   1.384   3.115 -3.5066 -1.4040  0.0708
   61SOL    HW2  243   2.021   1.306   3.020  0.7516  0.6290 -0.1982
   61SOL     MW  244   1.970   1.378   3.031 -0.3829  0.2109 -0.3842
   62SOL     OW  245   0.547   1.732   0.579  0.3060 -0.3794  0.8079
   62SOL    HW1  246   0.634   1.769   0.561  0.4794  1.3753 -1.9867
   62SOL    HW2  247   0.554   1.644   0.598  0.5122  0.3262  0.1895
   62SOL     MW  248   0.560   1.726   0.579  0.3561 -0.0548  0.3576
   63SOL     OW  249   1.721   0.666   0.652  0.3612  0.2134 -0.0594
   63SOL    HW1  250   1.716   0.755   0.607 -0.2142  1.8087  1.3015
   63SOL    HW2  251   1.627   0.646   0.676  0.9837 -2.0278  1.1242
   63SOL     MW  252   1.708   0.675   0.649  0.3674  0.1282  0.2763
   64SOL     OW  253   0.241   1.645   0.760 -0.4849  0.3962  0.0638
   64SOL    HW1  254   0.313   1.696   0.792 -0.2047 -1.9142 -0.6898
   64SOL    HW2  255   0.172   1.708   0.747 -1.2466 -3.0696 -0.3203
   64SOL     MW  256   0.241   1.660   0.763 -0.5484 -0.3659 -0.0863
   65SOL     OW  257   1.525   2.313   0.352 -0.3917  0.1311 -0.3788
   65SOL    HW1  258   1.609   2.350   0.372 -0.4605 -1.3839  0.7974
   65SOL    HW2  259   1.462   2.348   0.417 -3.4855  1.8129  1.6421
   65SOL     MW  260   1.527   2.323   0.363 -0.8090  0.1531  0.0430
   66SOL     OW  261   0.329   0.574   0.471 -0.4212  0.1724 -0.1734
   66SOL    HW1  262   0.389   0.592   0.399  0.7864 -1.5667  0.3281
   66SOL    HW2  263   0.319   0.670   0.502  2.2209  0.5858  1.2724
   66SOL     MW  264   0.336   0.589   0.465  0.0868 -0.0025  0.0836
   67SOL     OW  265   1.474   0.073   1.964 -0.0432 -0.2687  0.3200
   67SOL    HW1  266   1.492   0.102   1.877 -0.1988  2.9383  1.7807
   67SOL    HW2  267   1.411  -0.003   1.952  1.5411 -2.7980 -0.1816
   67SOL     MW  268   1.468   0.067   1.951  0.1453 -0.1793  0.4466
   68SOL     OW  269   0.783   3.088   2.977  0.5541  0.1563 -0.2661
   68SOL    HW1  270   0.780   3.108   2.884  2.2601 -1.2946  0.3680
   68SOL    HW2  271   0.850   3.148   2.999 -1.0360 -0.0273 -2.1643
   68SOL     MW  272   0.791   3.098   2.968  0.5694 -0.0594 -0.4329
   69SOL     OW  273   0.960   0.203   1.959  0.6487  0.4660 -0.1278
   69SOL    HW1  274   1.035   0.232   2.010 -2.8482 -0.4235  3.2306
   69SOL    HW2  275   0.931   0.117   1.998 -0.9376 -0.4132 -2.0734
   69SOL     MW  276   0.966   0.195   1.971 -0.0220  0.2326  0.0586
   70SOL     OW  277   0.491   1.727   1.068  0.6566  0.7928 -0.3190
   70SOL    HW1  278   0.575   1.771   1.067  0.9660  0.4709 -0.1634
   70SOL    HW2  279   0.496   1.655   1.000 -3.7613  0.6277  0.6321
   70SOL     MW  280   0.503   1.723   1.059  0.1145  0.7285 -0.1730
   71SOL     OW  281   1.476   0.537   1.181 -0.1539 -0.3699  0.2215
   71SOL    HW1  282   1.471   0.612   1.236 -0.8488 -0.1072 -1.1966
   71SOL    HW2  283   1.513   0.581   1.104  0.4129  0.6049  1.9438
   71SOL     MW  284   1.480   0.552   1.178 -0.1708 -0.2066  0.2617
   72SOL     OW  285   0.738   1.857   1.026 -0.2917 -0.2668  0.2843
   72SOL    HW1  286   0.759   1.912   0.953  0.7645  0.5431  2.2265
   72SOL    HW2  287   0.790   1.775   1.021 -0.4423  0.2352 -0.1582
   72SOL     MW  288   0.747   1.853   1.016 -0.1722 -0.0937  0.4822
   73SOL     OW  289   1.229   0.673   1.344 -0.1563  0.2262  0.1051
   73SOL    HW1  290   1.169   0.600   1.332 -2.2896 -2.9728 -1.9793
   73SOL    HW2  291   1.186   0.755   1.380  2.2159  1.1894  1.3313
   73SOL     MW  292   1.215   0.674   1.348 -0.1247 -0.0688 -0.0081
   74SOL     OW  293   2.890   0.191   1.046  0.0162 -0.7713 -0.3964
   74SOL    HW1  294   2.972   0.218   0.999 -0.7865 -0.5655  0.9059
   74SOL    HW2  295   2.818   0.183   0.983  0.6499 -0.9273 -0.7382
   74SOL     MW  296   2.891   0.194   1.032 -0.0061 -0.7647 -0.2696
   75SOL     OW  297   1.590   1.341   0.126 -0.0142  0.3097  0.7634
   75SOL    HW1  298   1.654   1.284   0.086 -1.8286  1.4539  1.3059
   75SOL    HW2  299   1.605   1.337   0.223  0.6290  0.0788 -1.0568
   75SOL     MW  300   1.601   1.333   0.133 -0.1688  0.4302  0.5949
   76SOL     OW  301   2.978   0.644   0.453  0.3881 -0.4095 -0.0050
   76SOL    HW1  302   3.005   0.672   0.542 -2.0159  0.2586  0.7484
   76SOL    HW2  303   3.059   0.600   0.427 -1.5932  0.1874  1.3060
   76SOL     MW  304   2.992   0.642   0.461 -0.1905 -0.2426  0.2674
   77SOL     OW  305   0.879   0.593   0.405 -0.6984  0.6782  0.0426
   77SOL    HW1  306   0.870   0.623   0.315  0.0050 -1.1074 -0.6487
   77SOL    HW2  307   0.883   0.500   0.410  0.1238  1.8136  3.3989
   77SOL     MW  308   0.878   0.585   0.394 -0.4971  0.5924  0.3942
   78SOL     OW  309   0.728   0.863   1.141 -0.3204 -0.2250 -0.2271
   78SOL    HW1  310   0.730   0.948   1.086  1.3853 -0.4895 -2.4418
   78SOL    HW2  311   0.636   0.839   1.153 -1.0333 -2.6577 -1.6636
   78SOL     MW  312   0.716   0.871   1.136 -0.1894 -0.5809 -0.7089
   79SOL     OW  313   1.856   1.614   0.584 -0.0415 -0.7075 -0.5046
   79SOL    HW1  314   1.768   1.574   0.595 -2.9535 -2.2836 -2.1801
   79SOL    HW2  315   1.892   1.607   0.669 -0.3925  0.2212 -0.1928
   79SOL     MW  316   1.849   1.608   0.597 -0.4720 -0.7929 -0.6845
   80SOL     OW  317   0.079   0.977   0.366  0.4129  0.2150 -0.4051
   80SOL    HW1  318  -0.001   0.939   0.397  0.6744  0.3459  2.0593
   80SOL    HW2  319   0.141   0.953   0.433  1.0815 -0.9409  0.2642
   80SOL     MW  320   0.076   0.969   0.379  0.5356  0.0797  0.0084
   81SOL     OW  321   1.837   1.840   0.335 -0.7782 -0.3294 -0.0237
   81SOL    HW1  322   1.813   1.756   0.304  0.4238 -2.0684 -1.1109
   81SOL    HW2  323   1.796   1.899   0.273  0.0811  0.1731  0.7250
   81SOL     MW  324   1.828   1.836   0.323 -0.5062 -0.4925 -0.0684
   82SOL     OW  325   0.878   1.018   0.518  0.0586 -0.3824  0.1863
   82SOL    HW1  326   0.852   1.053   0.431  2.2320  1.4539 -1.0656
   82SOL    HW2  327   0.835   0.930   0.514 -0.5437  0.4426 -0.5669
   82SOL     MW  328   0.869   1.011   0.506  0.2659 -0.0312 -0.0783
   83SOL     OW  329   0.039   0.775   1.496 -0.3587  0.1719  0.9427
   83SOL    HW1  330   0.039   0.829   1.417 -2.5487  2.4902  0.2893
   83SOL    HW2  331   0.095   0.699   1.481  2.1718 -1.4585 -0.3750
   83SOL     MW  332   0.047   0.772   1.483 -0.3138  0.2627  0.6826
   84SOL     OW  333   0.043   0.200   0.907  0.2501 -0.0439  0.1918
   84SOL    HW1  334   0.049   0.285   0.956  1.2451  1.0963  1.1225
   84SOL    HW2  335   0.021   0.124   0.967 -1.9075 -0.4816  2.1795
   84SOL     MW  336   0.041   0.201   0.921  0.0967  0.0488  0.5768
   85SOL     OW  337   0.405   0.458   0.723  0.1840  0.3292 -0.0179
   85SOL    HW1  338   0.406   0.488   0.635  1.3909 -1.0198  0.9924
   85SOL    HW2  339   0.366   0.370   0.724 -1.5003  2.9465 -0.6090
   85SOL     MW  340   0.400   0.450   0.712  0.1211  0.4965  0.0374
   86SOL     OW  341   1.207   0.251   1.142  0.0735 -0.0636 -0.4250
   86SOL    HW1  342   1.168   0.337   1.140 -0.5594 -0.1645  2.0442
   86SOL    HW2  343   1.298   0.264   1.161 -2.5725 -0.9291  1.1663
   86SOL     MW  344   1.214   0.264   1.144 -0.3591 -0.1911  0.1108
   87SOL     OW  345   1.048   1.510   1.195 -0.0318  0.5022 -0.3957
   87SOL    HW1  346   1.123   1.564   1.161 -1.0972 -1.6640  1.2684
   87SOL    HW2  347   1.067   1.419   1.167  2.5076 -0.5612 -0.6863
   87SOL     MW  348   1.061   1.505   1.187  0.1627  0.0761 -0.2145
   88SOL     OW  349   1.251   1.028   1.013  0.1404  0.4689  0.5784
   88SOL    HW1  350   1.337   1.066   1.014  0.9809  0.5159  0.3548
   88SOL    HW2  351   1.194   1.097   1.053 -0.4698  1.4853  1.0868
   88SOL     MW  352   1.255   1.042   1.018  0.1708  0.6092  0.6159
   89SOL     OW  353   1.753   0.735   0.324  0.2116  0.2258 -1.0892
   89SOL    HW1  354   1.711   0.650   0.333  1.6685  0.3495  0.3830
   89SOL    HW2  355   1.846   0.718   0.294 -0.7601  0.8260 -0.7464
   89SOL     MW  356   1.760   0.722   0.322  0.2756  0.3213 -0.8497
   90SOL     OW  357   0.857   1.194   2.883 -0.2880  0.3826  0.4401
   90SOL    HW1  358   0.875   1.103   2.904  1.8535  2.6618  2.4879
   90SOL    HW2  359   0.858   1.256   2.958 -0.6583 -0.7813 -1.0608
   90SOL     MW  360   0.860   1.190   2.895 -0.0543  0.5298  0.5123
   91SOL     OW  361   2.190   0.665   0.451 -0.2654 -0.4547 -0.0415
   91SOL    HW1  362   2.267   0.696   0.391  0.2886 -0.4079 -2.7645
   91SOL    HW2  363   2.164   0.578   0.418  0.9122  0.6528  2.5219
   91SOL     MW  364   2.196   0.658   0.439 -0.0369 -0.3024 -0.0626
   92SOL     OW  365   1.646   0.927   0.582 -0.3042  0.6379 -0.0278
   92SOL    HW1  366   1.576   0.962   0.639  1.1284 -1.3782  0.6327
   92SOL    HW2  367   1.612   0.939   0.497 -1.1450 -0.3396  0.5605
   92SOL     MW  368   1.632   0.933   0.578 -0.2261  0.2429  0.1370
   93SOL     OW  369   1.115   0.199   0.402 -0.7506  0.4083 -0.2860
   93SOL    HW1  370   1.041   0.253   0.411 -0.0382 -0.8706 -1.5752
   93SOL    HW2  371   1.139   0.223   0.312 -1.0189  1.5271  0.1048
   93SOL     MW  372   1.109   0.209   0.391 -0.6920  0.3871 -0.4045
   94SOL     OW  373   1.842   1.374   1.556 -0.5154 -0.2187 -0.9351
   94SOL    HW1  374   1.864   1.401   1.465  0.4630  1.2256 -2.8045
   94SOL    HW2  375   1.855   1.280   1.557 -1.9318 -1.0761  1.0367
   94SOL     MW  376   1.847   1.365   1.544 -0.5732 -0.1412 -0.9216
   95SOL     OW  377   0.646   1.537   0.917 -0.0309  0.3383  0.5087
   95SOL    HW1  378   0.653   1.517   1.009  3.4841  1.5305 -2.0394
   95SOL    HW2  379   0.596   1.462   0.876  1.7407 -1.8412  1.1945
   95SOL     MW  380   0.640   1.524   0.924  0.6666  0.2080  0.2630
   96SOL     OW  381   1.341   1.856   1.720  0.6036 -0.0140 -0.6140
   96SOL    HW1  382   1.251   1.850   1.762  0.1511 -2.9796  2.9221
   96SOL    HW2  383   1.345   1.764   1.688  0.0605 -0.7727 -3.2790
   96SOL     MW  384   1.329   1.843   1.721  0.4723 -0.5054 -0.4991
   97SOL     OW  385   1.088   1.462   0.897 -0.6919  0.2109  0.8765
   97SOL    HW1  386   1.121   1.521   0.964 -1.2208  0.0605  1.7085
   97SOL    HW2  387   1.014   1.514   0.856 -1.4306  1.1165 -1.7523
   97SOL     MW  388   1.083   1.477   0.900 -0.8591  0.3106  0.6394
   98SOL     OW  389   1.390   1.356   1.154 -1.1621 -0.2357  0.0612
   98SOL    HW1  390   1.455   1.382   1.224 -0.4772  0.5014 -1.5028
   98SOL    HW2  391   1.411   1.408   1.078 -0.2937  1.3409  2.5980
   98SOL     MW  392   1.402   1.366   1.153 -0.9572  0.0696  0.1896
   99SOL     OW  393   1.433   0.286   1.262  0.2723  0.2325 -0.0119
   99SOL    HW1  394   1.462   0.374   1.239 -1.6139 -2.9074 -0.9158
   99SOL    HW2  395   1.381   0.298   1.338  1.0718 -0.2979  1.3303
   99SOL     MW  396   1.430   0.299   1.269  0.1289 -0.2517  0.0459
  100SOL     OW  397   1.025   1.166   1.386  0.4437  0.4917 -0.1561
  100SOL    HW1  398   1.078   1.206   1.460 -1.7983  0.2719  2.0296
  100SOL    HW2  399   1.042   1.072   1.398 -0.9945 -1.6134 -0.3944
  100SOL     MW  400   1.034   1.159   1.397 -0.0418  0.1849  0.1008
  101SOL     OW  401   0.542   1.186   0.367 -0.1801  0.2909  0.2231
  101SOL    HW1  402   0.470   1.161   0.309 -3.2022  1.6875  3.7993
  101SOL    HW2  403   0.627   1.163   0.337 -0.2940  2.5437 -0.4191
  101SOL     MW  404   0.544   1.180   0.356 -0.5938  0.7724  0.6102
  102SOL     OW  405   2.890   0.664   1.060  0.2763 -0.0623  0.4263
  102SOL    HW1  406   2.929   0.756   1.053  1.2942  2.0357 -0.7101
  102SOL    HW2  407   2.884   0.656   1.152 -2.2373  2.6588 -1.8477
  102SOL     MW  408   2.895   0.675   1.071  0.0789  0.5736 -0.0237
  103SOL     OW  409   1.831   0.232   1.800  0.0596  0.6863 -0.0958
  103SOL    HW1  410   1.811   0.139   1.796  0.6403 -1.3330  2.0119
  103SOL    HW2  411   1.831   0.245   1.896 -0.2625  0.3343  0.0183
  103SOL     MW  412   1.829   0.222   1.812  0.0937  0.3734  0.1974
  104SOL     OW  413   0.081   1.518   1.625 -1.0116  0.0516  0.7730
  104SOL    HW1  414   0.150   1.464   1.665  1.6747 -2.7204 -0.7584
  104SOL    HW2  415  -0.013   1.496   1.647  0.3513 -0.2026 -2.5362
  104SOL     MW  416   0.078   1.508   1.633 -0.4774 -0.3477  0.1343
  105SOL     OW  417   3.077   1.217   0.410 -0.0057 -0.0955  0.4038
  105SOL    HW1  418   3.128   1.134   0.396 -0.2696  0.7935 -0.7600
  105SOL    HW2  419   3.139   1.284   0.428 -3.2683  1.3751 -0.4032
  105SOL     MW  420   3.092   1.215   0.411 -0.4710  0.2158  0.1438
  106SOL     OW  421   0.749   0.417   0.891 -0.1635  0.1513 -0.3323
  106SOL    HW1  422   0.671   0.457   0.933 -0.5707  1.3724 -2.0223
  106SOL    HW2  423   0.773   0.476   0.820  0.9558 -1.5384  0.5824
  106SOL     MW  424   0.742   0.430   0.887 -0.0695  0.0895 -0.4346
  107SOL     OW  425   0.798   2.127   2.899 -0.0173  0.7329  0.0885
  107SOL    HW1  426   0.700   2.128   2.889  1.7961  3.0971 -1.6064
  107SOL    HW2  427   0.823   2.122   2.991  2.2977 -1.7126 -0.7060
  107SOL     MW  428   0.788   2.126   2.910  0.5274  0.7222 -0.2399
  108SOL     OW  429   1.354   1.595   1.636  0.0377 -0.1326 -0.2921
  108SOL    HW1  430   1.314   1.545   1.561 -1.3999 -0.1803  3.1596
  108SOL    HW2  431   1.431   1.543   1.645  1.1173 -0.3548  0.0076
  108SOL     MW  432   1.359   1.582   1.627 -0.0095 -0.1682  0.2029
  109SOL     OW  433   2.007   0.707   0.257 -0.5569  0.2858  0.0441
  109SOL    HW1  434   1.995   0.805   0.271 -2.0821  1.6516 -0.1826
  109SOL    HW2  435   2.063   0.684   0.333  1.9420 -0.6670 -0.2686
  109SOL     MW  436   2.013   0.717   0.269 -0.4284  0.3403 -0.0271
  110SOL     OW  437   0.418   1.950   0.709  0.1986  0.6257 -0.3811
  110SOL    HW1  438   0.454   1.867   0.679  2.8712 -1.3260  4.3048
  110SOL    HW2  439   0.438   2.012   0.647 -1.5313  0.5907  0.7095
  110SOL     MW  440   0.425   1.947   0.697  0.3230  0.3636  0.3810
  111SOL     OW  441   0.820   0.898   1.391  0.3848  0.3044 -0.5848
  111SOL    HW1  442   0.781   0.897   1.303 -2.3705  0.0122  1.5699
  111SOL    HW2  443   0.807   0.806   1.431  0.5396  1.7647  1.6118
  111SOL     MW  444   0.813   0.886   1.385  0.0416  0.4585 -0.0107
  112SOL     OW  445   1.356   1.061   1.607 -0.2273 -0.2908 -0.4536
  112SOL    HW1  446   1.283   1.124   1.610  0.7090 -2.6832  1.9490
  112SOL    HW2  447   1.310   0.978   1.638  0.1860  0.9803  1.8752
  112SOL     MW  448   1.340   1.058   1.611 -0.0492 -0.4388  0.1707
  113SOL     OW  449   1.257   3.066   1.675  0.4979  0.2275  0.0178
  113SOL    HW1  450   1.265   3.034   1.769  0.9355 -0.1051  1.3979
  113SOL    HW2  451   1.265   2.981   1.628 -2.2009 -1.2215  0.2451
  113SOL     MW  452   1.259   3.050   1.681  0.1995 -0.0076  0.2299
  114SOL     OW  453   0.264   2.875   1.879  0.1272 -0.2294  0.3211
  114SOL    HW1  454   0.338   2.934   1.868  0.2434  4.1902 -2.5267
  114SOL    HW2  455   0.219   2.928   1.951  1.0266 -1.4735  0.5001
  114SOL     MW  456   0.268   2.890   1.887  0.2612  0.1896 -0.0310
  115SOL     OW  457   0.477   0.788   1.171 -0.1055 -0.0322  0.6789
  115SOL    HW1  458   0.460   0.702   1.219 -0.2211  2.1699  2.4810
  115SOL    HW2  459   0.445   0.859   1.220  2.1717 -2.1988  0.8763
  115SOL     MW  460   0.471   0.786   1.184  0.1797 -0.0275  0.9427
  116SOL     OW  461   0.809   1.092   1.004 -0.6664  0.0581 -0.3069
  116SOL    HW1  462   0.820   1.119   0.908 -0.4854 -2.2035 -1.9317
  116SOL    HW2  463   0.837   1.154   1.068 -1.9932 -3.4518  0.7202
  116SOL     MW  464   0.814   1.104   1.000 -0.8176 -0.7034 -0.3857
  117SOL     OW  465   1.125   1.203   0.823 -0.1708  0.5011  0.5262
  117SOL    HW1  466   1.174   1.148   0.884  2.2076 -2.0141 -0.6698
  117SOL    HW2  467   1.097   1.291   0.870  0.0005  2.8951 -0.0996
  117SOL     MW  468   1.128   1.207   0.837  0.1656  0.4851  0.2859
  118SOL     OW  469   3.032   2.936   1.695 -0.8328 -0.2754  0.4482
  118SOL    HW1  470   3.073   2.956   1.775 -1.5067 -0.3095  0.2312
  118SOL    HW2  471   2.944   2.924   1.711  0.1902  0.1736  2.6689
  118SOL     MW  472   3.026   2.937   1.707 -0.7867 -0.2207  0.7126
  119SOL     OW  473   0.413   1.513   1.261  0.1252  0.4333 -0.2136
  119SOL    HW1  474   0.457   1.583   1.218  0.7615 -2.0789 -1.0847
  119SOL    HW2  475   0.326   1.499   1.224 -1.2328  0.2676  1.0276
  119SOL     MW  476   0.407   1.520   1.250  0.0300  0.0800 -0.1648
  120SOL     OW  477   0.235   0.772   0.993  0.1589 -0.2559 -0.8372
  120SOL    HW1  478   0.162   0.805   1.046  2.0611 -1.0579  1.8004
  120SOL    HW2  479   0.309   0.757   1.056  1.6706  4.0816  2.1491
  120SOL     MW  480   0.235   0.775   1.008  0.6093  0.2106 -0.0952
  121SOL     OW  481   1.770   1.093   1.657  0.3524  0.1383 -0.5673
  121SOL    HW1  482   1.696   1.163   1.647 -0.1067 -0.2754  1.4649
  121SOL    HW2  483   1.757   1.025   1.594  0.1376  0.1667 -1.7080
  121SOL     MW  484   1.758   1.093   1.648  0.2635  0.0875 -0.4497
  122SOL     OW  485   0.171   0.563   0.830  0.1125  0.5890  0.0897
  122SOL    HW1  486   0.254   0.527   0.791 -1.8912  1.3027 -1.0053
  122SOL    HW2  487   0.200   0.629   0.900  0.0696  0.5831  2.2733
  122SOL     MW  488   0.186   0.567   0.834 -0.1575  0.6824  0.2334
  123SOL     OW  489   1.851   1.122   0.499  0.4873  0.0402  0.3502
  123SOL    HW1  490   1.793   1.045   0.500 -1.0167  0.9192 -0.8032
  123SOL    HW2  491   1.903   1.106   0.575 -0.9795  2.5070  0.6999
  123SOL     MW  492   1.850   1.110   0.509  0.0953  0.4816  0.2441
  124SOL     OW  493   0.523   0.542   0.942  0.4508 -0.3155  0.6051
  124SOL    HW1  494   0.483   0.500   0.862 -0.2469 -0.8123 -0.4845
  124SOL    HW2  495   0.561   0.620   0.902 -2.5700 -0.5163 -2.1218
  124SOL     MW  496   0.523   0.547   0.926 -0.0398 -0.4075  0.1016
  125SOL     OW  497   0.735   1.749   1.749 -0.0272 -0.8517  0.4422
  125SOL    HW1  498   0.700   1.670   1.712 -1.4421  0.4394  1.0056
  125SOL    HW2  499   0.668   1.810   1.719  2.9644 -0.3283  1.8428
  125SOL     MW  500   0.722   1.746   1.740  0.1808 -0.6123  0.7013
  126SOL     OW  501   2.152   1.491   1.954 -0.3623  0.3702 -0.0083
  126SOL    HW1  502   2.182   1.582   1.952 -0.8447 -1.5729  1.7226
  126SOL    HW2  503   2.230   1.437   1.952 -1.6306  1.5673  0.6576
  126SOL     MW  504   2.166   1.496   1.953 -0.5933  0.2717  0.3079
  127SOL     OW  505   0.572   0.867   1.777 -0.4421 -0.0050 -0.3618
  127SOL    HW1  506   0.656   0.821   1.801 -0.2962 -1.0761  2.3668
  127SOL    HW2  507   0.542   0.910   1.864 -0.0364  0.0898  0.2343
  127SOL     MW  508   0.579   0.867   1.791 -0.3693 -0.1338  0.0769
  128SOL     OW  509   1.704   0.717   2.893  0.9822  0.1872 -0.0468
  128SOL    HW1  510   1.751   0.706   2.806  4.1470 -1.3084 -1.4355
  128SOL    HW2  511   1.669   0.804   2.906 -1.7320 -1.0161 -1.0622
  128SOL     MW  512   1.705   0.727   2.883  1.0416 -0.1689 -0.3640
  129SOL     OW  513   1.605   0.931   0.206 -0.0960 -0.0907  0.0778
  129SOL    HW1  514   1.526   0.876   0.192 -0.9739  0.5232  1.2080
  129SOL    HW2  515   1.652   0.864   0.253 -0.2563 -1.1081  0.5130
  129SOL     MW  516   1.600   0.915   0.210 -0.2330 -0.1440  0.2843
  130SOL     OW  517   0.775   1.405   0.314  0.7048 -0.0643  0.4392
  130SOL    HW1  518   0.779   1.424   0.415 -0.6092 -0.3411 -1.1736
  130SOL    HW2  519   0.807   1.488   0.272  0.0188 -0.5932  1.7949
  130SOL     MW  520   0.780   1.419   0.322  0.4409 -0.1706  0.4053
  131SOL     OW  521   3.070   0.803   0.018  0.7756 -0.1852 -0.2885
  131SOL    HW1  522   3.052   0.857  -0.065 -0.9021  0.3445  1.4453
  131SOL    HW2  523   3.162   0.836   0.032  0.3111  0.2785  1.4385
  131SOL     MW  524   3.080   0.815   0.009  0.4930 -0.0541  0.1681
  132SOL     OW  525   2.743   0.146   1.275 -0.2788 -0.3643 -0.2530
  132SOL    HW1  526   2.798   0.170   1.202  0.3992  0.3337 -0.5548
  132SOL    HW2  527   2.649   0.121   1.248  0.4809  1.1781  3.7600
  132SOL     MW  528   2.738   0.146   1.261 -0.0891 -0.0687  0.2367
  133SOL     OW  529   1.021   0.121   1.683 -0.5474 -0.6912 -0.2081
  133SOL    HW1  530   1.105   0.073   1.688  1.5266 -1.4018  2.3303
  133SOL    HW2  531   0.991   0.129   1.774 -0.4358 -1.4701  0.5676
  133SOL     MW  532   1.028   0.116   1.696 -0.2590 -0.8878  0.2292
  134SOL     OW  533   1.424   2.415   1.480 -0.0685 -0.6652  0.0585
  134SOL    HW1  534   1.348   2.467   1.441 -1.2922 -0.2964 -3.1320
  134SOL    HW2  535   1.458   2.448   1.568  0.6203 -0.2069  0.2502
  134SOL     MW  536   1.419   2.426   1.486 -0.1391 -0.5561 -0.3372
  135SOL     OW  537   3.035   0.982   2.909 -0.5992 -0.2552  0.7535
  135SOL    HW1  538   3.120   1.026   2.922  0.4417  1.8629  1.5660
  135SOL    HW2  539   2.979   1.062   2.896 -1.0219  1.1855  1.9398
  135SOL     MW  540   3.039   0.998   2.909 -0.5176  0.2143  1.0172
  136SOL     OW  541   0.220   2.028   0.888 -0.1710 -0.6458  0.0335
  136SOL    HW1  542   0.148   1.979   0.841  0.7162  0.8287  1.2375
  136SOL    HW2  543   0.292   2.007   0.831 -1.3847  0.5360 -1.5306
  136SOL     MW  544   0.220   2.019   0.874 -0.2141 -0.2953 -0.0140
  137SOL     OW  545   0.693   2.067   0.540  0.2022  0.1129  0.6202
  137SOL    HW1  546   0.716   2.068   0.632  3.0949 -2.2812 -1.6808
  137SOL    HW2  547   0.605   2.112   0.528 -0.0098  0.8354  0.8303
  137SOL     MW  548   0.685   2.073   0.550  0.5559 -0.1076  0.3443
  138SOL     OW  549   0.428   0.530   1.209 -0.3701  0.8932 -0.3591
  138SOL    HW1  550   0.333   0.501   1.210  3.1362 -2.5030  0.0213
  138SOL    HW2  551   0.469   0.501   1.130  1.2181 -1.0940  3.0259
  138SOL     MW  552   0.421   0.522   1.199  0.3021  0.1829  0.1377
  139SOL     OW  553   2.801   0.570   1.331  0.3277 -0.2835  0.5926
  139SOL    HW1  554   2.880   0.508   1.332  1.2977  0.5428  1.1081
  139SOL    HW2  555   2.814   0.611   1.418 -1.6910 -0.5594  2.3323
  139SOL     MW  556   2.813   0.567   1.343  0.1894 -0.2108  0.8902
  140SOL     OW  557   0.863   0.481   2.003  0.0534  0.1101 -0.5880
  140SOL    HW1  558   0.878   0.391   1.980  0.3005  0.3318  0.3995
  140SOL    HW2  559   0.844   0.489   2.102 -1.2685 -2.0084  0.1037
  140SOL     MW  560   0.862   0.471   2.013 -0.0884 -0.1402 -0.3665
  141SOL     OW  561   0.995   0.652   1.665  0.1574  0.4514 -0.1376
  141SOL    HW1  562   1.039   0.574   1.638 -3.2983 -0.4969  1.0713
  141SOL    HW2  563   1.061   0.725   1.663  1.9169 -0.9190 -0.4725
  141SOL     MW  564   1.010   0.652   1.661 -0.0664  0.1455 -0.0223
  142SOL     OW  565   0.855   1.198   0.735  0.3374  0.8639 -0.2527
  142SOL    HW1  566   0.853   1.140   0.655  2.5160  0.9912 -1.3147
  142SOL    HW2  567   0.948   1.197   0.761 -0.6166 -2.5583 -0.0391
  142SOL     MW  568   0.867   1.190   0.727  0.4990  0.4291 -0.3646
  143SOL     OW  569   1.844   0.689   1.067  0.9934 -0.4427 -0.5975
  143SOL    HW1  570   1.913   0.654   1.008  1.9819  1.0753 -1.0406
  143SOL    HW2  571   1.758   0.671   1.030  0.4537 -0.7201  2.4586
  143SOL     MW  572   1.842   0.682   1.054  1.0526 -0.2790 -0.2528
  144SOL     OW  573   0.277   1.335   1.714  0.1046 -0.6723  0.3511
  144SOL    HW1  574   0.363   1.377   1.680 -2.3452 -0.7314 -1.7469
  144SOL    HW2  575   0.306   1.299   1.793 -1.1848  0.0916 -0.9922
  144SOL     MW  576   0.292   1.336   1.720 -0.3887 -0.5793 -0.1029
  145SOL     OW  577   0.162   0.444   1.242  0.7102 -0.3299  0.4439
  145SOL    HW1  578   0.205   0.356   1.227 -0.9388 -0.1265  1.8225
  145SOL    HW2  579   0.098   0.458   1.169 -0.2907 -0.4712  3.0425
  145SOL     MW  580   0.159   0.434   1.230  0.3606 -0.3217  0.9687
  146SOL     OW  581   0.884   1.890   1.355 -0.5983 -0.3145 -0.1058
  146SOL    HW1  582   0.889   1.942   1.273 -1.3154  1.7500 -0.2837
  146SOL    HW2  583   0.795   1.855   1.358 -0.4009  2.5872  0.9878
  146SOL     MW  584   0.873   1.892   1.345 -0.6669  0.3407  0.0150
  147SOL     OW  585   0.429   0.502   2.932 -0.0318 -0.2945 -0.3181
  147SOL    HW1  586   0.364   0.515   3.004 -0.5771 -0.7182 -1.2512
  147SOL    HW2  587   0.403   0.570   2.865 -0.5959 -2.1385 -1.8419
  147SOL     MW  588   0.417   0.513   2.933 -0.1782 -0.5937 -0.6423
  148SOL     OW  589   0.036   0.926   1.264  0.5520  0.0814 -0.2230
  148SOL    HW1  590   0.128   0.935   1.281  0.5478 -2.9803 -4.0354
  148SOL    HW2  591   0.012   1.003   1.316  0.5793 -0.3060 -1.1925
  148SOL     MW  592   0.045   0.938   1.273  0.5550 -0.3737 -0.8539
  149SOL     OW  593   1.578   1.170   1.465  0.0680  0.0239 -0.3860
  149SOL    HW1  594   1.496   1.126   1.501  1.3198  0.3857 -0.5150
  149SOL    HW2  595   1.560   1.256   1.428  1.2453 -0.7001 -0.0032
  149SOL     MW  596   1.565   1.176   1.465  0.3885 -0.0239 -0.3525
  150SOL     OW  597   1.734   1.376   0.887 -0.3693  0.6164  0.0717
  150SOL    HW1  598   1.794   1.324   0.835  2.5312 -0.1671  1.6026
  150SOL    HW2  599   1.790   1.453   0.913  2.3208  1.2735 -0.7350
  150SOL     MW  600   1.749   1.380   0.884  0.3683  0.5998  0.1672
  151SOL     OW  601   1.686   1.828   0.812  0.0240 -0.1415  0.3685
  151SOL    HW1  602   1.659   1.837   0.720 -1.0104  0.1411 -0.2133
  151SOL    HW2  603   1.607   1.822   0.859  0.1390 -0.4108  0.6094
  151SOL     MW  604   1.672   1.828   0.806 -0.0973 -0.1397  0.3235
  152SOL     OW  605   0.758   1.447   1.630 -0.5696  0.0003  0.0663
  152SOL    HW1  606   0.766   1.502   1.546  2.2724 -0.9702 -1.1385
  152SOL    HW2  607   0.741   1.364   1.591  0.0434  0.2666 -3.3876
  152SOL     MW  608   0.757   1.443   1.614 -0.1138 -0.0926 -0.5484
  153SOL     OW  609   2.555   1.205   0.751  0.3880 -0.0571 -0.3890
  153SOL    HW1  610   2.609   1.159   0.688  0.8170  0.2708  0.1355
  153SOL    HW2  611   2.507   1.124   0.784  1.9597  1.3653  0.1272
  153SOL     MW  612   2.556   1.188   0.747  0.6520  0.1738 -0.2517
  154SOL     OW  613   0.103   1.761   1.771  0.0793  0.0102  0.5711
  154SOL    HW1  614   0.084   1.685   1.727  2.0763  3.0141  0.6802
  154SOL    HW2  615   0.196   1.744   1.783 -3.7438  0.3218  2.5113
  154SOL     MW  616   0.113   1.749   1.767 -0.1616  0.4476  0.8414
  155SOL     OW  617   1.191   0.748   0.318  0.5161  0.7082 -0.2907
  155SOL    HW1  618   1.158   0.725   0.410  1.5324 -1.4707  1.7581
  155SOL    HW2  619   1.206   0.840   0.326 -0.0415  1.3669 -0.8816
  155SOL     MW  620   1.188   0.757   0.331  0.5766  0.5076 -0.0983
  156SOL     OW  621   1.557   3.051   1.114  0.0118  0.8399 -0.1275
  156SOL    HW1  622   1.635   3.103   1.135 -0.3375 -1.7299  1.7934
  156SOL    HW2  623   1.583   2.959   1.100  1.0878  1.3545  1.0841
  156SOL     MW  624   1.571   3.046   1.115  0.1077  0.5687  0.2858
  157SOL     OW  625   1.392   1.153   0.099  0.5233 -0.1415  0.4040
  157SOL    HW1  626   1.403   1.105   0.179  0.8639 -1.8526  2.6160
  157SOL    HW2  627   1.447   1.227   0.087  0.5322 -2.2056  0.0842
  157SOL     MW  628   1.401   1.156   0.108  0.5694 -0.6396  0.6536
  158SOL     OW  629   0.438   1.701   2.290  0.0231 -0.0275 -0.0661
  158SOL    HW1  630   0.488   1.741   2.220 -0.9614 -0.1232  0.1968
  158SOL    HW2  631   0.360   1.755   2.294 -1.3283 -0.6879  0.3516
  158SOL     MW  632   0.435   1.713   2.282 -0.2851 -0.1273  0.0237
  159SOL     OW  633   1.223   1.605   0.482 -0.7591  0.0738  0.4460
  159SOL    HW1  634   1.173   1.587   0.400  0.0795  0.6618 -1.2454
  159SOL    HW2  635   1.163   1.655   0.543 -1.2929 -1.0572  0.2727
  159SOL     MW  636   1.209   1.609   0.480 -0.7189  0.0021  0.1999
  160SOL     OW  637   0.521   1.247   1.544  0.3961 -0.4394  0.1316
  160SOL    HW1  638   0.468   1.170   1.568 -1.2642 -1.0634  2.0579
  160SOL    HW2  639   0.609   1.206   1.560 -0.2048  0.4843  1.0038
  160SOL     MW  640   0.526   1.232   1.550  0.0978 -0.3999  0.5008
  161SOL     OW  641   0.458   2.231   2.576  0.0319  0.1968  0.4859
  161SOL    HW1  642   0.376   2.267   2.530 -1.6817  2.9976 -2.7615
  161SOL    HW2  643   0.492   2.168   2.503  0.3611  1.5462 -3.3165
  161SOL     MW  644   0.451   2.228   2.560 -0.1508  0.7444 -0.4442
  162SOL     OW  645   1.072   1.837   1.818  0.1373 -0.0527 -0.4329
  162SOL    HW1  646   1.067   1.930   1.804 -1.1821 -0.1712 -2.8939
  162SOL    HW2  647   0.991   1.812   1.861  2.2719  0.7752  2.6718
  162SOL     MW  648   1.061   1.846   1.822  0.2449  0.0409 -0.3480
  163SOL     OW  649   2.096   3.070   0.872  0.4670  0.2955 -0.4842
  163SOL    HW1  650   2.073   3.144   0.808  0.0575 -1.2899  0.0303
  163SOL    HW2  651   2.063   2.986   0.838  2.4125 -0.3980 -2.3274
  163SOL     MW  652   2.088   3.069   0.859  0.6697 -0.0052 -0.6595
  164SOL     OW  653   0.303   0.204   0.791 -0.2577 -0.2228 -0.3348
  164SOL    HW1  654   0.212   0.189   0.818 -2.0101 -1.2033  0.4508
  164SOL    HW2  655   0.318   0.122   0.751 -0.1044  1.2548 -0.2932
  164SOL     MW  656   0.293   0.191   0.789 -0.4687 -0.1572 -0.2256
  165SOL     OW  657   1.191   1.323   0.331 -0.1775 -0.0591 -0.4615
  165SOL    HW1  658   1.220   1.326   0.421  0.2201  1.7890  2.1122
  165SOL    HW2  659   1.249   1.252   0.298  0.8374 -0.5908 -0.1973
  165SOL     MW  660   1.202   1.314   0.338  0.0089  0.1145 -0.0871
  166SOL     OW  661   0.533   1.135   1.006  0.0524  0.7381  0.0029
  166SOL    HW1  662   0.516   1.183   1.085  1.0153 -0.8089 -1.2608
  166SOL    HW2  663   0.634   1.117   0.998 -1.2353 -0.1532  0.7273
  166SOL     MW  664   0.544   1.139   1.015  0.0096  0.4164 -0.0683
  167SOL     OW  665   0.800   1.130   0.249 -0.1787  0.7789  0.1400
  167SOL    HW1  666   0.808   1.228   0.249 -0.7665 -1.8080 -0.9242
  167SOL    HW2  667   0.882   1.108   0.200 -0.0910  0.9612 -1.7284
  167SOL     MW  668   0.812   1.140   0.242 -0.2447  0.4616 -0.2469
  168SOL     OW  669   1.765   1.670   3.045 -0.2318 -0.4698  0.1739
  168SOL    HW1  670   1.700   1.737   3.019 -1.0982  1.7390 -1.1896
  168SOL    HW2  671   1.741   1.594   2.987 -1.9711 -0.6986 -0.5555
  168SOL     MW  672   1.754   1.669   3.034 -0.5756 -0.2086 -0.1022
  169SOL     OW  673   0.293   0.945   1.349  0.4893 -0.0616 -0.0393
  169SOL    HW1  674   0.323   0.913   1.439 -1.9344 -0.5703  3.6071
  169SOL    HW2  675   0.295   1.042   1.360  1.1650  0.1512  1.2432
  169SOL     MW  676   0.297   0.954   1.362  0.2587 -0.1007  0.6110
  170SOL     OW  677   1.185   1.495   1.445  0.4545  0.0505 -0.1912
  170SOL    HW1  678   1.120   1.558   1.455  0.8842 -2.4355  0.6977
  170SOL    HW2  679   1.157   1.463   1.363 -0.5133  0.9360  1.4626
  170SOL     MW  680   1.173   1.499   1.436  0.3835 -0.1607  0.1443
  171SOL     OW  681   0.511   1.427   0.517  0.7964  0.5293 -0.5603
  171SOL    HW1  682   0.412   1.420   0.533  1.3309 -0.4382 -3.0738
  171SOL    HW2  683   0.530   1.343   0.471 -0.5565 -1.6650 -0.6328
  171SOL     MW  684   0.500   1.415   0.513  0.6884  0.1121 -0.9015
  172SOL     OW  685   0.810   0.262   1.237 -0.6387 -0.8699  0.0977
  172SOL    HW1  686   0.759   0.225   1.167 -1.2530 -0.8113 -2.8035
  172SOL    HW2  687   0.809   0.197   1.310 -0.8902 -2.1845  1.0394
  172SOL     MW  688   0.803   0.248   1.238 -0.7529 -1.0356 -0.1609
  173SOL     OW  689   0.526   1.771   0.292 -0.4106 -0.1772 -0.2180
  173SOL    HW1  690   0.546   1.685   0.245  0.3467  1.7953 -0.6263
  173SOL    HW2  691   0.528   1.755   0.386  0.8937 -0.3984 -1.7764
  173SOL     MW  692   0.529   1.758   0.298 -0.1386  0.0539 -0.4774
  174SOL     OW  693   1.842   0.879   1.482 -0.3089 -0.6591 -0.0056
  174SOL    HW1  694   1.810   0.792   1.513 -0.1572 -1.2861 -0.5914
  174SOL    HW2  695   1.837   0.886   1.383  0.8244  0.6060 -0.0081
  174SOL     MW  696   1.837   0.868   1.473 -0.1394 -0.5749 -0.0832
  175SOL     OW  697   0.566   1.533   0.178  0.2160 -0.1704 -0.7167
  175SOL    HW1  698   0.495   1.464   0.165 -2.4014  1.3838 -0.8572
  175SOL    HW2  699   0.640   1.484   0.216 -3.5095 -0.4315 -2.3499
  175SOL     MW  700   0.567   1.518   0.182 -0.6209  0.0002 -0.9507
  176SOL     OW  701   0.160   1.463   1.175  0.1687  0.2923 -0.1106
  176SOL    HW1  702   0.151   1.427   1.079 -1.8873 -2.1490 -2.6241
  176SOL    HW2  703   0.084   1.425   1.222  0.3134 -0.2345 -1.2890
  176SOL     MW  704   0.149   1.453   1.168 -0.0835 -0.0993 -0.5977
  177SOL     OW  705   0.516   0.316   1.449 -0.0610  0.0324  0.0717
  177SOL    HW1  706   0.559   0.350   1.369 -2.9781  0.6091  0.0281
  177SOL    HW2  707   0.495   0.395   1.496 -1.0780 -0.5342 -1.1002
  177SOL     MW  708   0.519   0.331   1.445 -0.5801  0.0337 -0.0887
  178SOL     OW  709   3.103   0.492   2.995 -0.0074 -0.5726 -0.0387
  178SOL    HW1  710   3.036   0.480   3.062  3.2116 -0.6842 -0.6462
  178SOL    HW2  711   3.044   0.486   2.917  2.1504  0.9807 -1.8753
  178SOL     MW  712   3.086   0.490   2.994  0.7020 -0.3824 -0.3612
  179SOL     OW  713   1.547   1.428   1.388  0.0588  0.0101  0.1752
  179SOL    HW1  714   1.541   1.437   1.483 -0.3308  0.2916  0.6837
  179SOL    HW2  715   1.635   1.416   1.353 -2.2903  3.5219 -0.1054
  179SOL     MW  716   1.558   1.427   1.396 -0.3025  0.5106  0.2052
  180SOL     OW  717   3.002   0.279   0.498  0.0217 -0.0149 -0.5459
  180SOL    HW1  718   2.979   0.262   0.406  0.0093  2.2003  1.7351
  180SOL    HW2  719   3.045   0.368   0.497  2.9759 -1.7223 -0.1736
  180SOL     MW  720   3.004   0.289   0.486  0.4098  0.0521 -0.1958
  181SOL     OW  721   1.140   1.289   3.080 -0.3817 -0.3297  0.3051
  181SOL    HW1  722   1.194   1.360   3.118 -0.7590  2.1503 -2.1047
  181SOL    HW2  723   1.196   1.217   3.044 -1.5235  1.5501  0.1486
  181SOL     MW  724   1.154   1.289   3.080 -0.5821  0.2455 -0.0335
  182SOL     OW  725   0.379   0.994   1.618  0.2159 -0.1209  0.0156
  182SOL    HW1  726   0.299   0.965   1.666 -0.8168 -1.3033  1.6061
  182SOL    HW2  727   0.449   0.961   1.673 -0.9490 -1.6263 -0.8015
  182SOL     MW  728   0.378   0.986   1.631 -0.0741 -0.4755  0.1176
  183SOL     OW  729   1.528   1.727   1.280  0.2644 -0.3394 -0.1035
  183SOL    HW1  730   1.621   1.741   1.274 -0.5272 -0.6069 -2.1184
  183SOL    HW2  731   1.508   1.641   1.310  2.4313 -0.9770 -1.6177
  183SOL     MW  732   1.538   1.718   1.283  0.4459 -0.4588 -0.5691
  184SOL     OW  733   0.793   0.708   1.852  0.1867  0.0508 -0.8433
  184SOL    HW1  734   0.864   0.698   1.787 -1.2581 -0.2318 -0.4757
  184SOL    HW2  735   0.803   0.625   1.903  2.5594 -0.5290  1.7922
  184SOL     MW  736   0.804   0.696   1.851  0.3091 -0.0630 -0.4471
  185SOL     OW  737   1.063   0.938   1.875 -0.1160  0.0222 -0.4805
  185SOL    HW1  738   1.082   0.855   1.915 -2.1728  0.9981  0.9138
  185SOL    HW2  739   1.107   0.995   1.936  0.8725 -1.2452  0.9281
  185SOL     MW  740   1.072   0.935   1.888 -0.2570 -0.0163 -0.1107
  186SOL     OW  741   0.311   1.646   1.470  0.3397  0.2295  0.1079
  186SOL    HW1  742   0.339   1.592   1.393 -3.5791  0.1003  0.5402
  186SOL    HW2  743   0.223   1.621   1.508  1.4116 -0.1729 -0.1918
  186SOL     MW  744   0.303   1.635   1.465 -0.0359  0.1594  0.1254
  187SOL     OW  745   1.496   0.751   1.375 -0.6399  0.0955  0.2416
  187SOL    HW1  746   1.550   0.742   1.452 -0.8213  4.6842  0.3902
  187SOL    HW2  747   1.408   0.710   1.387 -0.9671  0.4612  1.4702
  187SOL     MW  748   1.491   0.745   1.387 -0.7070  0.7492  0.4233
  188SOL     OW  749   1.957   1.218   0.818  0.1246  0.2559  0.0163
  188SOL    HW1  750   1.937   1.190   0.914 -0.8776  0.8009  1.2354
  188SOL    HW2  751   1.974   1.132   0.785  0.6855  0.9356  2.8839
  188SOL     MW  752   1.957   1.203   0.826  0.0664  0.4175  0.5555
  189SOL     OW  753   0.699   0.755   0.832  0.2543 -0.5211 -0.0170
  189SOL    HW1  754   0.619   0.803   0.825 -0.9820  0.2551 -2.3542
  189SOL    HW2  755   0.728   0.763   0.921 -0.7491  2.9848  0.8114
  189SOL     MW  756   0.692   0.763   0.843 -0.0412  0.0439 -0.2161
  190SOL     OW  757   1.875   0.322   2.120  0.4288 -0.3686 -0.6819
  190SOL    HW1  758   1.881   0.254   2.188  2.5914  0.8757  1.7654
  190SOL    HW2  759   1.963   0.361   2.110 -0.7299 -3.8904  1.0669
  190SOL     MW  760   1.887   0.318   2.128  0.5613 -0.6691 -0.1283
  191SOL     OW  761   1.524   1.015   1.261  0.1747  0.0882  0.2631
  191SOL    HW1  762   1.555   1.074   1.331 -1.0302 -0.5214 -0.1633
  191SOL    HW2  763   1.480   0.940   1.302 -0.8946  0.8431  1.7904
  191SOL     MW  764   1.523   1.013   1.276 -0.1254  0.1073  0.4083
  192SOL     OW  765   0.539   2.137   2.875 -0.5217  0.1624  0.3060
  192SOL    HW1  766   0.496   2.194   2.809  3.3352  2.7502  1.8375
  192SOL    HW2  767   0.539   2.052   2.834 -0.4729  2.2050 -0.4428
  192SOL     MW  768   0.533   2.133   2.861 -0.0064  0.7733  0.4093
  193SOL     OW  769   0.877   1.599   0.797  0.0866 -0.3221  0.5701
  193SOL    HW1  770   0.817   1.577   0.861  1.7341 -0.5377  0.1630
  193SOL    HW2  771   0.855   1.557   0.711 -0.0972  1.3344  0.1549
  193SOL     MW  772   0.866   1.590   0.794  0.2797 -0.1320  0.4616
  194SOL     OW  773   0.504   1.315   0.809 -0.5238 -0.7363  0.5747
  194SOL    HW1  774   0.502   1.256   0.886 -0.4660 -1.2777  0.7943
  194SOL    HW2  775   0.414   1.351   0.787  0.6715  0.1121  1.2531
  194SOL     MW  776   0.492   1.312   0.816 -0.3585 -0.6958  0.6932
  195SOL     OW  777   1.298   1.113   2.935  0.3273 -0.3619 -0.3758
  195SOL    HW1  778   1.361   1.096   3.005 -2.1115 -0.6158 -0.4612
  195SOL    HW2  779   1.225   1.050   2.937 -1.8077 -0.2183  3.0002
  195SOL     MW  780   1.297   1.102   2.945 -0.2761 -0.3765  0.0584
  196SOL     OW  781   2.259   0.968   0.551  0.0920 -0.0311  0.2717
  196SOL    HW1  782   2.301   0.949   0.463 -1.2040 -0.2048 -0.3525
  196SOL    HW2  783   2.234   1.061   0.544  1.7600  1.4175  2.0598
  196SOL     MW  784   2.261   0.977   0.538  0.1411  0.1371  0.4252
  197SOL     OW  785   0.588   1.270   2.222  0.0452  0.2092 -0.4075
  197SOL    HW1  786   0.626   1.230   2.144  0.4241  1.2073  1.2074
  197SOL    HW2  787   0.609   1.359   2.204 -2.4681 -0.3622  0.4856
  197SOL     MW  788   0.596   1.277   2.210 -0.2364  0.2655 -0.0766
  198SOL     OW  789   2.935   1.444   1.020  0.0831 -0.2611  0.4350
  198SOL    HW1  790   2.888   1.526   1.014 -2.0415 -1.0091  1.2018
  198SOL    HW2  791   2.869   1.379   0.980 -0.3485 -1.4483  0.1709
  198SOL     MW  792   2.920   1.446   1.014 -0.2542 -0.5164  0.5013
  199SOL     OW  793   0.746   1.320   1.859  0.3869  0.0327 -0.5069
  199SOL    HW1  794   0.652   1.315   1.860  0.3771 -0.7345  0.4911
  199SOL    HW2  795   0.760   1.382   1.784  0.6900  1.2221  0.8636
  199SOL     MW  796   0.736   1.327   1.850  0.4256  0.0884 -0.1944
  200SOL     OW  797   1.836   2.926   1.378 -0.3471  0.1845 -0.1322
  200SOL    HW1  798   1.869   2.922   1.288 -0.3701  1.4457 -2.4443
  200SOL    HW2  799   1.768   2.994   1.381  2.2766 -5.3227 -1.1678
  200SOL     MW  800   1.832   2.934   1.366 -0.0040 -0.3757 -0.5739
  201SOL     OW  801   1.083   0.328   0.732  0.6326 -0.0157  0.1529
  201SOL    HW1  802   1.053   0.237   0.729  0.0782  0.9438  0.7638
  201SOL    HW2  803   1.170   0.333   0.783  1.5155 -1.4149  0.8124
  201SOL     MW  804   1.090   0.317   0.739  0.6759 -0.0738  0.3205
  202SOL     OW  805   1.476   1.795   0.982  0.1168 -0.2717  0.3482
  202SOL    HW1  806   1.478   1.700   0.965  0.8061 -0.5401 -0.4723
  202SOL    HW2  807   1.471   1.801   1.079  0.7664 -1.0618 -2.2907
  202SOL     MW  808   1.475   1.783   0.993  0.2935 -0.4114 -0.1082
  203SOL     OW  809   2.986   0.372   1.399  0.2649 -0.1941 -1.2542
  203SOL    HW1  810   3.045   0.299   1.364 -1.4587 -1.2336 -3.3315
  203SOL    HW2  811   3.014   0.366   1.491 -2.8608  0.9756  1.4465
  203SOL     MW  812   2.997   0.361   1.407 -0.3749 -0.1769 -1.1719
  204SOL     OW  813   1.047   1.795   0.628  0.2961 -0.4741 -0.1210
  204SOL    HW1  814   0.995   1.739   0.686  1.1239  2.3795  0.5031
  204SOL    HW2  815   0.987   1.806   0.554 -1.3075 -1.6078  0.9786
  204SOL     MW  816   1.032   1.789   0.626  0.1938 -0.2472  0.1064
  205SOL     OW  817   1.349   3.031   1.335 -0.3324 -0.1083 -0.1293
  205SOL    HW1  818   1.383   3.054   1.250 -1.9517 -0.7329  0.1906
  205SOL    HW2  819   1.307   3.111   1.373  1.0912  0.6063  1.4537
  205SOL     MW  820   1.348   3.045   1.329 -0.3582 -0.0964  0.1218
  206SOL     OW  821   0.439   3.063   1.356 -0.7421 -0.4190  0.3274
  206SOL    HW1  822   0.390   3.021   1.283 -1.1501  0.8917  0.3675
  206SOL    HW2  823   0.526   3.029   1.368  0.4655 -0.0411  0.3175
  206SOL     MW  824   0.444   3.053   1.348 -0.6366 -0.1962  0.3314
  207SOL     OW  825   0.876   1.715   0.176  0.2692  0.3140 -0.3859
  207SOL    HW1  826   0.929   1.789   0.158  1.0042 -1.6277 -1.8969
  207SOL    HW2  827   0.938   1.651   0.203 -0.4027  0.2408  0.8890
  207SOL     MW  828   0.891   1.716   0.177  0.2775  0.0481 -0.4170
  208SOL     OW  829   0.739   1.594   1.415  0.8078  0.0344 -0.4064
  208SOL    HW1  830   0.824   1.633   1.423 -1.3224 -2.0262  1.0012
  208SOL    HW2  831   0.754   1.543   1.328  0.5270 -3.1152 -1.0162
  208SOL     MW  832   0.752   1.592   1.404  0.4897 -0.6530 -0.3011
  209SOL     OW  833   1.521   0.516   2.841 -0.2579 -0.2695  0.4434
  209SOL    HW1  834   1.574   0.595   2.871  0.2329  1.9331  0.6539
  209SOL    HW2  835   1.588   0.449   2.822  1.2711  0.4035 -0.6964
  209SOL     MW  836   1.537   0.518   2.843  0.0086  0.1099  0.3208
  210SOL     OW  837   1.470   1.505   0.933  0.6451  0.5831  0.8709
  210SOL    HW1  838   1.557   1.465   0.938 -1.2265  0.0282  0.3310
  210SOL    HW2  839   1.436   1.490   0.843 -0.8237  2.4195 -1.2303
  210SOL     MW  840   1.477   1.498   0.922  0.2044  0.7522  0.5224
  211SOL     OW  841   1.724   0.300   0.986  0.1744  0.2320 -0.4258
  211SOL    HW1  842   1.735   0.348   0.907 -1.3054  0.8882  0.8097
  211SOL    HW2  843   1.812   0.287   1.019  1.3522 -1.8092  0.9303
  211SOL     MW  844   1.737   0.304   0.980  0.1345  0.0492 -0.0838
  212SOL     OW  845   0.305   1.098   0.223  0.1837  0.2625  0.7006
  212SOL    HW1  846   0.237   1.043   0.266 -1.6554  0.3538  0.4611
  212SOL    HW2  847   0.349   1.028   0.164  0.4631 -0.5617  1.3351
  212SOL     MW  848   0.301   1.082   0.221 -0.0221  0.1658  0.7527
  213SOL     OW  849   0.398   1.805   3.014 -0.3066  0.2104  0.0105
  213SOL    HW1  850   0.439   1.861   3.078  0.9550  0.3735  2.7464
  213SOL    HW2  851   0.447   1.830   2.932 -0.5716 -0.8929  1.4393
  213SOL     MW  852   0.410   1.815   3.011 -0.1751  0.0864  0.5600
  214SOL     OW  853   0.631   0.319   2.129  0.1944  0.4515 -0.1115
  214SOL    HW1  854   0.581   0.389   2.166  2.0022 -2.3610  1.4352
  214SOL    HW2  855   0.644   0.329   2.031  0.1132  0.3106 -0.6268
  214SOL     MW  856   0.626   0.330   2.121  0.4222  0.0618  0.0246
  215SOL     OW  857   0.498   0.580   2.567  0.0477 -0.6049 -0.1105
  215SOL    HW1  858   0.463   0.622   2.488 -0.1301 -0.2579 -3.4019
  215SOL    HW2  859   0.440   0.622   2.637  2.8932  0.9990  0.8206
  215SOL     MW  860   0.486   0.591   2.566  0.3997 -0.3475 -0.4220
  216SOL     OW  861   2.972   3.053   2.707 -0.3446  0.1503 -0.0184
  216SOL    HW1  862   2.931   3.025   2.791  0.3923  0.2938  1.0755
  216SOL    HW2  863   2.975   3.154   2.707  0.2890  2.9017  1.4257
  216SOL     MW  864   2.967   3.063   2.718 -0.1638  0.5323  0.3165
  217SOL     OW  865   1.032   1.067   0.131 -0.5057  0.1235  0.5433
  217SOL    HW1  866   1.067   1.004   0.059  0.5926  0.2861  1.1456
  217SOL    HW2  867   1.059   1.151   0.098  1.0150 -0.2330 -1.3622
  217SOL     MW  868   1.040   1.070   0.117 -0.1601  0.0979  0.3714
  218SOL     OW  869   0.872   1.377   2.690 -0.6363  0.7381 -0.1598
  218SOL    HW1  870   0.861   1.319   2.765 -3.8556  0.8072  0.2675
  218SOL    HW2  871   0.964   1.403   2.680  1.1514 -1.3222 -0.6270
  218SOL     MW  872   0.883   1.372   2.699 -0.8251  0.4754 -0.1651
  219SOL     OW  873   1.049   0.388   2.628  0.0812  0.6297 -0.2975
  219SOL    HW1  874   1.126   0.445   2.659 -1.9617  0.6354 -3.3857
  219SOL    HW2  875   0.981   0.448   2.597 -0.5689  1.7854 -0.5915
  219SOL     MW  876   1.050   0.404   2.628 -0.2741  0.7830 -0.7437
  220SOL     OW  877   1.695   0.519   2.223  0.6725  0.6132 -0.3227
  220SOL    HW1  878   1.611   0.545   2.172 -1.5061  3.7330  0.4604
  220SOL    HW2  879   1.735   0.452   2.168  0.2849  0.0388 -3.1016
  220SOL     MW  880   1.689   0.514   2.209  0.3339  0.9491 -0.5860
  221SOL     OW  881   0.349   1.292   2.911  0.1986  0.4491  0.0675
  221SOL    HW1  882   0.428   1.232   2.910 -0.5325  0.0177 -0.0024
  221SOL    HW2  883   0.366   1.349   2.839 -1.3882 -1.0494  2.6048
  221SOL     MW  884   0.362   1.291   2.901 -0.1072  0.1945  0.3931
  222SOL     OW  885   0.509   0.937   2.686 -0.0202  0.6244  0.0906
  222SOL    HW1  886   0.420   0.958   2.663 -0.8042  1.1831 -2.8315
  222SOL    HW2  887   0.522   0.847   2.711  0.1848  2.5293 -2.3364
  222SOL     MW  888   0.499   0.928   2.687 -0.0966  0.9494 -0.6152
  223SOL     OW  889   3.101   2.019   2.572  0.0039  0.5947  0.1410
  223SOL    HW1  890   3.062   2.009   2.659 -0.2026 -0.4816  1.7403
  223SOL    HW2  891   3.108   2.113   2.565 -1.2204 -2.6672 -2.0054
  223SOL     MW  892   3.097   2.030   2.583 -0.1849  0.0223  0.0688
  224SOL     OW  893   1.451   0.726   2.490 -0.2214 -0.4199 -0.5706
  224SOL    HW1  894   1.438   0.735   2.581 -1.1615 -3.2454 -0.8168
  224SOL    HW2  895   1.468   0.818   2.459  1.0418  1.7193 -3.1607
  224SOL     MW  896   1.451   0.740   2.498 -0.1788 -0.5104 -0.9448
  225SOL     OW  897   2.956   1.434   2.288  0.4688  0.1392 -0.7796
  225SOL    HW1  898   2.999   1.480   2.216 -0.4398 -1.7511 -0.7661
  225SOL    HW2  899   2.910   1.494   2.346 -2.5700 -0.6252  0.2803
  225SOL     MW  900   2.955   1.448   2.286 -0.0520 -0.2111 -0.6380
  226SOL     OW  901   0.403   1.509   2.724  0.0496  0.0308 -0.5848
  226SOL    HW1  902   0.444   1.515   2.810  0.3908  2.1052 -0.9857
  226SOL    HW2  903   0.398   1.602   2.685 -0.8614  0.0744 -1.8501
  226SOL     MW  904   0.407   1.522   2.730 -0.0255  0.3103 -0.8046
  227SOL     OW  905   0.573   1.139   2.895  0.4128 -0.2707  0.1118
  227SOL    HW1  906   0.663   1.175   2.886  0.3566 -0.9158  2.4229
  227SOL    HW2  907   0.562   1.072   2.832  1.5328  1.8075 -1.5385
  227SOL     MW  908   0.583   1.135   2.885  0.5531 -0.0816  0.1989
  228SOL     OW  909   0.756   1.137   2.043  0.2033  0.2185 -0.3778
  228SOL    HW1  910   0.751   1.213   1.980 -3.4770 -0.8173  0.9871
  228SOL    HW2  911   0.821   1.162   2.111  0.5625  1.0690 -0.2716
  228SOL     MW  912   0.764   1.150   2.044 -0.2349  0.1940 -0.1837
  229SOL     OW  913   0.241   0.606   0.004 -0.0587  0.0215 -0.0008
  229SOL    HW1  914   0.168   0.581  -0.060 -0.6454 -1.5473 -3.9540
  229SOL    HW2  915   0.237   0.533   0.068  0.0959 -1.8604 -2.6894
  229SOL     MW  916   0.231   0.593   0.004 -0.1157 -0.4338 -0.8771
  230SOL     OW  917   1.806   1.354   1.975 -0.0788  0.2569 -0.4974
  230SOL    HW1  918   1.773   1.308   2.053 -0.3893 -0.9507  2.5482
  230SOL    HW2  919   1.901   1.336   1.961  2.2263 -1.1057  0.7695
  230SOL     MW  920   1.815   1.346   1.983  0.1844 -0.0822  0.0716
  231SOL     OW  921   2.733   1.283   2.209  0.2574  0.3050  0.1941
  231SOL    HW1  922   2.804   1.341   2.247 -2.9269  2.3072 -1.7258
  231SOL    HW2  923   2.684   1.330   2.140  0.3344 -0.7911  1.2603
  231SOL     MW  924   2.736   1.297   2.205 -0.1526  0.4245  0.0815
  232SOL     OW  925   2.288   0.807   1.978  0.0408  0.5910 -0.3435
  232SOL    HW1  926   2.246   0.851   1.905  2.0327  0.3229  1.3749
  232SOL    HW2  927   2.234   0.817   2.057  0.1960 -0.3038  0.8215
  232SOL     MW  928   2.275   0.814   1.979  0.3241  0.4376  0.0369
  233SOL     OW  929   2.105   0.461   2.085  0.1269 -0.3199  0.1825
  233SOL    HW1  930   2.158   0.394   2.038 -1.5454 -1.2453 -1.2482
  233SOL    HW2  931   2.159   0.491   2.155  3.9488 -2.8879  2.4495
  233SOL     MW  932   2.119   0.456   2.088  0.4105 -0.7808  0.2928
  234SOL     OW  933   0.259   1.034   2.606  0.1108 -0.2953 -0.0248
  234SOL    HW1  934   0.202   1.024   2.528 -1.3018 -0.2189 -0.2749
  234SOL    HW2  935   0.286   1.123   2.591 -0.3011 -1.4955 -0.9029
  234SOL     MW  936   0.255   1.045   2.594 -0.1299 -0.4435 -0.1736
  235SOL     OW  937   1.016   3.032   2.808  0.6396 -0.5561  0.3519
  235SOL    HW1  938   1.088   2.980   2.844 -1.3766 -0.2541 -0.7955
  235SOL    HW2  939   1.047   3.123   2.827  0.1260  0.7298 -1.1216
  235SOL     MW  940   1.030   3.037   2.815  0.3058 -0.3466  0.0061
  236SOL     OW  941   2.929   0.595   0.144 -0.3134  0.2566  0.2871
  236SOL    HW1  942   2.949   0.607   0.237  0.8880  0.2300  1.4750
  236SOL    HW2  943   2.983   0.654   0.089  1.2556  1.7008  1.0599
  236SOL     MW  944   2.939   0.605   0.149  0.0521  0.4437  0.5458
  237SOL     OW  945   1.965   1.050   2.170  0.2320 -0.4675 -0.4923
  237SOL    HW1  946   1.888   1.059   2.109 -1.4283 -0.1159  0.5759
  237SOL    HW2  947   1.985   0.955   2.163 -1.8874  2.3147  0.6090
  237SOL     MW  948   1.957   1.039   2.161 -0.2667 -0.0540 -0.2060
  238SOL     OW  949   1.087   1.757   2.963  0.1039 -0.0270  0.1611
  238SOL    HW1  950   1.002   1.720   2.939 -1.4014  0.5076 -1.3176
  238SOL    HW2  951   1.145   1.689   2.927 -0.5620 -1.6331 -0.6386
  238SOL     MW  952   1.083   1.743   2.955 -0.1826 -0.1683 -0.1395
  239SOL     OW  953   1.174   1.289   2.274 -0.1112 -0.0545 -0.0380
  239SOL    HW1  954   1.082   1.278   2.257 -1.0307  0.7732 -1.2760
  239SOL    HW2  955   1.173   1.235   2.355  0.3084  0.2043 -2.1769
  239SOL     MW  956   1.162   1.281   2.282 -0.1772  0.0889 -0.4836
  240SOL     OW  957   0.608   0.872   2.207  0.1077 -0.4552 -0.2327
  240SOL    HW1  958   0.640   0.893   2.302  0.0545  1.7404 -0.2777
  240SOL    HW2  959   0.681   0.817   2.178  2.5821  1.0600 -1.7487
  240SOL     MW  960   0.622   0.867   2.216  0.4272  0.0344 -0.4386
  241SOL     OW  961   0.684   0.473   3.051  0.0544 -0.4132 -0.2543
  241SOL    HW1  962   0.702   0.540   3.122  1.2379  0.0413 -0.8760
  241SOL    HW2  963   0.601   0.492   3.014  1.3751 -0.2837 -0.5993
  241SOL     MW  964   0.675   0.484   3.055  0.3848 -0.3361 -0.3818
  242SOL     OW  965   1.507   1.684   2.275 -0.0314  0.0080  0.6477
  242SOL    HW1  966   1.440   1.747   2.274  0.8105 -1.4977 -1.5515
  242SOL    HW2  967   1.460   1.603   2.242  2.1283  0.8632  1.0810
  242SOL     MW  968   1.492   1.682   2.270  0.3647 -0.0778  0.4147
  243SOL     OW  969   0.991   0.326   2.359  0.3276  0.6671  0.1707
  243SOL    HW1  970   1.074   0.305   2.323 -0.4212  1.2939 -0.3152
  243SOL    HW2  971   1.012   0.367   2.449 -0.6953  0.4026  3.4520
  243SOL     MW  972   1.005   0.328   2.366  0.0939  0.7149  0.5395
  244SOL     OW  973   0.146   0.775   2.371  0.0281 -0.3327  0.1016
  244SOL    HW1  974   0.135   0.862   2.393  0.4265 -2.9804  0.7836
  244SOL    HW2  975   0.241   0.767   2.350 -0.0033 -0.1945 -1.7951
  244SOL     MW  976   0.157   0.785   2.371  0.0765 -0.6638 -0.0587
  245SOL     OW  977   1.264   0.202   2.334  0.6316  0.2877  0.6992
  245SOL    HW1  978   1.341   0.141   2.342  1.2330  0.1566  2.8980
  245SOL    HW2  979   1.233   0.206   2.427 -1.3232 -3.1547 -0.9095
  245SOL     MW  980   1.270   0.194   2.347  0.4530 -0.1838  0.7770
  246SOL     OW  981   1.221   1.115   2.035  0.3698 -0.4805 -0.5889
  246SOL    HW1  982   1.148   1.139   2.087 -0.0093  0.5262  0.1741
  246SOL    HW2  983   1.298   1.097   2.102  1.7831 -0.2687 -0.8034
  246SOL     MW  984   1.221   1.115   2.051  0.5063 -0.3197 -0.5166
  247SOL     OW  985   0.785   0.651   0.163  0.5841  0.0884  0.1747
  247SOL    HW1  986   0.747   0.737   0.174 -0.2081  1.6928 -0.8693
  247SOL    HW2  987   0.879   0.668   0.154 -1.1779 -0.9822  0.9417
  247SOL     MW  988   0.792   0.665   0.163  0.2471  0.1589  0.1381
  248SOL     OW  989   0.336   1.294   2.539  0.1766  0.2478  0.1294
  248SOL    HW1  990   0.354   1.313   2.448 -2.5743 -2.0598  0.9860
  248SOL    HW2  991   0.356   1.375   2.593 -2.7083  2.0188  1.2794
  248SOL     MW  992   0.341   1.307   2.534 -0.5670  0.1770  0.3941
  249SOL     OW  993   3.002   1.914   2.839 -0.4162  0.1495  0.0238
  249SOL    HW1  994   2.952   1.834   2.849 -0.6928  0.4119 -3.5459
  249SOL    HW2  995   3.088   1.896   2.877 -0.3739  1.0718 -0.1494
  249SOL     MW  996   3.007   1.901   2.845 -0.4471  0.3058 -0.4700
  250SOL     OW  997   2.139   0.853   2.204  0.5248 -0.3419  0.4154
  250SOL    HW1  998   2.132   0.769   2.244 -1.3085  0.7651 -5.1086
  250SOL    HW2  999   2.161   0.917   2.270  0.5543  1.1147 -2.0418
  250SOL     MW 1000   2.141   0.850   2.218  0.2868 -0.0036 -0.6376
  251SOL     OW 1001   0.158   0.894   2.021  0.1097  0.2120  0.5431
  251SOL    HW1 1002   0.096   0.824   2.053  0.3301  0.4494 -1.1660
  251SOL    HW2 1003   0.145   0.893   1.927 -1.8841 -1.8778  0.3190
  251SOL     MW 1004   0.148   0.884   2.013 -0.1243 -0.0324  0.2881
  252SOL     OW 1005   1.637   0.968   2.817  0.1833 -0.4442  0.0213
  252SOL    HW1 1006   1.656   1.038   2.880 -0.2717 -0.9335  0.8400
  252SOL    HW2 1007   1.704   0.980   2.750  2.3258 -1.2704 -3.0272
  252SOL     MW 1008   1.648   0.979   2.817  0.4060 -0.6178 -0.2729
  253SOL     OW 1009   1.151   1.693   2.442 -0.3729 -0.1865  0.0039
  253SOL    HW1 1010   1.136   1.673   2.341  0.8611  2.6701 -3.7267
  253SOL    HW2 1011   1.098   1.764   2.470  2.4927 -0.4361 -0.4796
  253SOL     MW 1012   1.142   1.700   2.432  0.1680  0.1575 -0.5521
  254SOL     OW 1013   0.959   1.137   2.241  0.2295  0.1056  0.0319
  254SOL    HW1 1014   0.972   1.045   2.255 -1.9357 -2.3004  1.8991
  254SOL    HW2 1015   0.906   1.159   2.319 -2.1841  0.8991 -1.5894
  254SOL     MW 1016   0.954   1.128   2.253 -0.3746 -0.1072  0.0643
  255SOL     OW 1017   0.875   2.580   2.180  0.0578  0.1355 -0.0020
  255SOL    HW1 1018   0.790   2.527   2.160 -4.4751  0.2786  1.7141
  255SOL    HW2 1019   0.934   2.514   2.203  0.6491  0.8068 -0.6067
  255SOL     MW 1020   0.872   2.564   2.180 -0.4623  0.2429  0.1446
  256SOL     OW 1021   1.224   2.764   2.990  0.3756 -0.1606 -0.1815
  256SOL    HW1 1022   1.176   2.718   2.919  0.5696 -2.4530  0.0898
  256SOL    HW2 1023   1.313   2.791   2.947  2.5886  0.1619 -1.4288
  256SOL     MW 1024   1.229   2.762   2.975  0.6932 -0.4205 -0.3103
  257SOL     OW 1025   0.042   1.899   0.103  0.1237 -0.5222  0.8986
  257SOL    HW1 1026   0.113   1.871   0.155  3.9780  3.3638 -1.4739
  257SOL    HW2 1027   0.066   1.884   0.012 -0.9635  2.0775  0.9550
  257SOL     MW 1028   0.055   1.893   0.098  0.4888  0.3336  0.5930
  258SOL     OW 1029   0.683   0.975   2.473 -0.9828  0.3379 -0.0096
  258SOL    HW1 1030   0.696   1.064   2.452 -0.1106 -3.2923  1.9685
  258SOL    HW2 1031   0.609   0.961   2.521 -0.3905 -0.1023 -2.3646
  258SOL     MW 1032   0.675   0.985   2.477 -0.7895 -0.1991 -0.0593
  259SOL     OW 1033   0.795   0.462   2.251 -0.2124 -0.1383 -0.0718
  259SOL    HW1 1034   0.733   0.397   2.204  0.2630 -2.2032  0.1130
  259SOL    HW2 1035   0.866   0.401   2.280  0.3619  0.4996 -1.8294
  259SOL     MW 1036   0.796   0.445   2.249 -0.0739 -0.3266 -0.2793
  260SOL     OW 1037   0.647   0.083   1.559  0.4149  0.1477 -0.6684
  260SOL    HW1 1038   0.610   0.155   1.509  0.0638 -1.5673  2.4030
  260SOL    HW2 1039   0.732   0.063   1.515  0.8949  4.4880 -0.7045
  260SOL     MW 1040   0.653   0.090   1.547  0.4319  0.4941 -0.2679
  261SOL     OW 1041   1.091   0.682   1.977 -0.2223  0.5118  0.7690
  261SOL    HW1 1042   1.139   0.691   2.067 -0.8896 -1.3577  0.5953
  261SOL    HW2 1043   1.057   0.597   1.978 -2.9088  1.2117 -0.2000
  261SOL     MW 1044   1.093   0.672   1.989 -0.6648  0.3575  0.6183
  262SOL     OW 1045   1.123   0.350   0.156 -0.3659 -0.1457 -0.7296
  262SOL    HW1 1046   1.218   0.356   0.145  1.4306  1.6929 -0.6788
  262SOL    HW2 1047   1.080   0.314   0.078  0.5455 -1.1215  2.0181
  262SOL     MW 1048   1.130   0.346   0.144 -0.0087 -0.0318 -0.3604
  263SOL     OW 1049   0.365   3.089   2.492 -0.1128 -0.5647  0.7363
  263SOL    HW1 1050   0.293   3.148   2.499  2.4056 -0.0924 -0.2881
  263SOL    HW2 1051   0.412   3.103   2.409  2.4234 -0.8075  0.8518
  263SOL     MW 1052   0.362   3.098   2.482  0.5541 -0.5344  0.6164
  264SOL     OW 1053   1.523   1.392   1.934  0.2239  0.3340 -0.7788
  264SOL    HW1 1054   1.510   1.299   1.913  2.5278 -0.5605 -2.1216
  264SOL    HW2 1055   1.621   1.401   1.943  1.0753  0.8016  0.2126
  264SOL     MW 1056   1.534   1.381   1.932  0.6402  0.2777 -0.8252
  265SOL     OW 1057   0.727   2.764   2.301  0.2005  0.4616  0.0611
  265SOL    HW1 1058   0.787   2.699   2.264 -2.0867 -0.0035 -1.4813
  265SOL    HW2 1059   0.754   2.772   2.392  1.1314  2.7481 -1.4486
  265SOL     MW 1060   0.738   2.756   2.308  0.0215  0.7019 -0.3416
  266SOL     OW 1061   0.870   0.874   2.147 -0.2721  0.3347 -0.4542
  266SOL    HW1 1062   0.858   0.961   2.110 -0.8211  1.5859  0.9612
  266SOL    HW2 1063   0.917   0.823   2.081 -2.0844  2.9886  0.2263
  266SOL     MW 1064   0.875   0.879   2.133 -0.5836  0.8499 -0.1777
  267SOL     OW 1065   1.347   1.731   2.636  0.9828 -0.3456  0.2528
  267SOL    HW1 1066   1.425   1.681   2.622  0.4030  1.1588  3.2449
  267SOL    HW2 1067   1.290   1.692   2.570  0.5931 -1.5384  0.7850
  267SOL     MW 1068   1.350   1.719   2.626  0.8549 -0.3045  0.7178
  268SOL     OW 1069   0.116   0.920   1.754  0.0206 -0.2707 -0.3711
  268SOL    HW1 1070   0.104   0.995   1.696  1.0680 -0.7868  1.3317
  268SOL    HW2 1071   0.087   0.843   1.697  1.5918 -1.2388  1.3330
  268SOL     MW 1072   0.111   0.920   1.739  0.3661 -0.4665  0.0784
  269SOL     OW 1073   1.336   1.941   2.296 -0.2098 -0.6675  0.2516
  269SOL    HW1 1074   1.364   2.014   2.351  0.4381  2.3120  1.7198
  269SOL    HW2 1075   1.263   1.895   2.332  0.3499  0.1640 -4.1885
  269SOL     MW 1076   1.330   1.945   2.308 -0.0505 -0.1647 -0.1405
  270SOL     OW 1077   1.120   0.431   1.588  0.0708  0.0502 -0.0245
  270SOL    HW1 1078   1.108   0.371   1.664 -1.7810  0.8772 -1.0901
  270SOL    HW2 1079   1.215   0.438   1.579 -0.2581 -2.2868  0.9114
  270SOL     MW 1080   1.131   0.424   1.597 -0.2169 -0.1490 -0.0416
  271SOL     OW 1081   0.844   0.110   2.469  0.4769  0.3589  0.1624
  271SOL    HW1 1082   0.901   0.034   2.476 -1.0308  0.1563 -1.7852
  271SOL    HW2 1083   0.903   0.187   2.445  1.2717  1.9266 -2.8056
  271SOL     MW 1084   0.859   0.110   2.467  0.3828  0.5390 -0.4862
  272SOL     OW 1085   1.432   2.829   2.839 -0.4290  0.1542  0.0234
  272SOL    HW1 1086   1.411   2.806   2.749  0.9380 -2.2861  1.7060
  272SOL    HW2 1087   1.461   2.921   2.834  0.6229 -1.8981  0.6045
  272SOL     MW 1088   1.433   2.838   2.827 -0.1098 -0.4385  0.3221
  273SOL     OW 1089   1.421   0.823   2.776 -0.2607 -0.5438 -0.0219
  273SOL    HW1 1090   1.510   0.863   2.791  0.9664  1.6064  2.2402
  273SOL    HW2 1091   1.374   0.904   2.753  0.8053  2.1240 -1.4091
  273SOL     MW 1092   1.426   0.839   2.775  0.0418  0.0919  0.0935
  274SOL     OW 1093   1.424   0.709   0.173 -0.2359  0.0301 -0.5158
  274SOL    HW1 1094   1.476   0.636   0.210  1.6322  1.0552 -1.3887
  274SOL    HW2 1095   1.341   0.701   0.217  0.1916 -0.2917 -1.3447
  274SOL     MW 1096   1.420   0.698   0.184  0.0670  0.1229 -0.7403
  275SOL     OW 1097   1.769   0.504   1.770  0.2543 -0.3876 -0.3889
  275SOL    HW1 1098   1.827   0.550   1.828 -1.2091  1.5643 -0.2796
  275SOL    HW2 1099   1.797   0.410   1.783  1.8161  1.0764  0.4166
  275SOL     MW 1100   1.780   0.497   1.779  0.2673  0.0631 -0.2682
  276SOL     OW 1101   0.484   1.216   1.932 -0.0696 -0.5711 -0.0478
  276SOL    HW1 1102   0.484   1.123   1.951 -4.2832  1.8570  0.8786
  276SOL    HW2 1103   0.391   1.233   1.953  0.6858 -2.2353 -1.2178
  276SOL     MW 1104   0.472   1.206   1.937 -0.5259 -0.4703 -0.0799
  277SOL     OW 1105   1.997   1.082   2.439  0.6077  0.2841 -0.0831
  277SOL    HW1 1106   2.050   1.158   2.467 -1.7082  2.1374 -0.2788
  277SOL    HW2 1107   1.966   1.099   2.350 -0.3844 -2.0546  0.4378
  277SOL     MW 1108   2.000   1.095   2.431  0.1713  0.2200 -0.0402
  278SOL     OW 1109   1.429   0.665   1.756  0.2552  0.1094 -0.5383
  278SOL    HW1 1110   1.392   0.579   1.792 -0.0171 -3.7933  0.1053
  278SOL    HW2 1111   1.519   0.665   1.784  3.6019  2.8305 -1.4422
  278SOL     MW 1112   1.436   0.654   1.764  0.6608 -0.0465 -0.5726
  279SOL     OW 1113   0.534   0.114   2.263 -0.1013 -0.3554 -0.2680
  279SOL    HW1 1114   0.595   0.043   2.283  0.1516 -1.0948 -2.5213
  279SOL    HW2 1115   0.591   0.185   2.232 -3.6245 -0.3925  1.8178
  279SOL     MW 1116   0.550   0.114   2.262 -0.5327 -0.4578 -0.2901
  280SOL     OW 1117   1.456   1.122   2.185 -0.1435  0.4470  0.1978
  280SOL    HW1 1118   1.485   1.059   2.119  0.4501 -0.1056  1.2308
  280SOL    HW2 1119   1.456   1.068   2.270 -2.7485 -0.1678  2.8231
  280SOL     MW 1120   1.460   1.106   2.188 -0.4089  0.2929  0.6805
  281SOL     OW 1121   1.387   1.142   2.675 -0.0524 -0.5142 -0.2169
  281SOL    HW1 1122   1.423   1.236   2.676  2.2934  1.9559  1.9565
  281SOL    HW2 1123   1.360   1.133   2.768 -0.2852  1.7877 -0.7525
  281SOL     MW 1124   1.388   1.153   2.688  0.2264  0.1154 -0.0008
  282SOL     OW 1125   1.174   1.251   1.587  0.0627  0.4504 -0.9398
  282SOL    HW1 1126   1.185   1.341   1.552  0.0284 -3.3600 -0.5320
  282SOL    HW2 1127   1.108   1.252   1.663  0.3833 -2.4591  0.3964
  282SOL     MW 1128   1.166   1.263   1.592  0.1005 -0.4362 -0.7097
  283SOL     OW 1129   0.868   1.347   0.006 -0.4271  0.3336  0.0674
  283SOL    HW1 1130   0.961   1.347  -0.025 -0.4348 -0.4373 -2.4124
  283SOL    HW2 1131   0.862   1.444   0.009  2.3480  2.5388  3.9206
  283SOL     MW 1132   0.879   1.360   0.003 -0.0620  0.5228  0.2486
  284SOL     OW 1133   0.399   0.744   2.313 -0.0973  0.0834 -0.1028
  284SOL    HW1 1134   0.450   0.809   2.269 -1.5000  0.2290  0.0546
  284SOL    HW2 1135   0.414   0.659   2.264 -0.8125  1.7242 -3.0833
  284SOL     MW 1136   0.408   0.741   2.301 -0.3767  0.3191 -0.4753
  285SOL     OW 1137   0.891   0.892   2.848  0.0530 -0.2907  0.0070
  285SOL    HW1 1138   0.907   0.925   2.755 -1.6392 -1.5655  0.0220
  285SOL    HW2 1139   0.810   0.834   2.851  0.9682 -0.9311  0.2008
  285SOL     MW 1140   0.882   0.888   2.836 -0.0495 -0.5434  0.0346
  286SOL     OW 1141   1.109   1.464   2.612  0.4692  0.2104 -0.5185
  286SOL    HW1 1142   1.129   1.414   2.529  0.5495 -2.0527  0.0703
  286SOL    HW2 1143   1.109   1.555   2.589  2.3268 -3.3405 -0.8054
  286SOL     MW 1144   1.111   1.470   2.598  0.7249 -0.5567 -0.4786
  287SOL     OW 1145   1.204   1.039   0.358 -0.2140 -0.2994  0.3363
  287SOL    HW1 1146   1.165   1.058   0.442  2.5596 -2.8405 -0.9753
  287SOL    HW2 1147   1.147   1.046   0.286  0.9534 -0.7043  0.5571
  287SOL     MW 1148   1.191   1.043   0.360  0.3060 -0.6881  0.1924
  288SOL     OW 1149   1.474   0.619   2.085 -0.2164 -0.0230  0.3974
  288SOL    HW1 1150   1.400   0.630   2.148  2.3845  1.2422 -0.7752
  288SOL    HW2 1151   1.524   0.705   2.062  0.8791  2.3648 -2.1155
  288SOL     MW 1152   1.471   0.632   2.090  0.2713  0.4590 -0.0889
  289SOL     OW 1153   0.928   0.988   2.601 -0.0045 -0.1146  0.6472
  289SOL    HW1 1154   0.979   0.912   2.565  0.0487 -2.2297 -2.2742
  289SOL    HW2 1155   0.841   0.982   2.564  1.5241  1.2269  0.7971
  289SOL     MW 1156   0.923   0.977   2.592  0.2042 -0.2167  0.2815
  290SOL     OW 1157   0.816   0.639   1.469  0.2645  0.0036 -0.2614
  290SOL    HW1 1158   0.858   0.604   1.390  0.7520  0.8948 -0.3308
  290SOL    HW2 1159   0.882   0.645   1.539 -2.6894  0.2531  1.4158
  290SOL     MW 1160   0.830   0.635   1.468 -0.0610  0.1541 -0.0493
  291SOL     OW 1161   0.200   0.369   0.150  0.3096  0.0636  0.4549
  291SOL    HW1 1162   0.296   0.342   0.170  1.7979  0.1206  0.9702
  291SOL    HW2 1163   0.162   0.282   0.133  0.1808 -0.7247 -0.5261
  291SOL     MW 1164   0.208   0.354   0.151  0.4889 -0.0329  0.3934
  292SOL     OW 1165   1.049   0.605   0.118 -0.1548  0.5209 -0.3836
  292SOL    HW1 1166   1.121   0.637   0.181  0.8712 -0.0502  0.8290
  292SOL    HW2 1167   1.040   0.513   0.140 -1.1045  0.0212 -3.0899
  292SOL     MW 1168   1.057   0.597   0.129 -0.1448  0.3796 -0.5806
  293SOL     OW 1169   0.114   0.162   2.530 -0.4245 -0.5147  0.5757
  293SOL    HW1 1170   0.055   0.105   2.477 -0.1848 -2.6336  0.4727
  293SOL    HW2 1171   0.061   0.198   2.598 -1.6576 -0.0225  1.1353
  293SOL     MW 1172   0.099   0.159   2.532 -0.5555 -0.7293  0.6359
  294SOL     OW 1173   1.306   0.522   2.330 -0.1705 -0.1158  0.3898
  294SOL    HW1 1174   1.374   0.563   2.381 -1.6817 -0.0447  2.7693
  294SOL    HW2 1175   1.341   0.437   2.307  0.0030  1.8410 -0.1876
  294SOL     MW 1176   1.320   0.516   2.334 -0.3470  0.1518  0.6276
  295SOL     OW 1177   0.854   0.555   2.520 -0.1157  0.5317  0.1806
  295SOL    HW1 1178   0.806   0.540   2.439 -1.1693  0.4844  0.7864
  295SOL    HW2 1179   0.797   0.599   2.584 -0.7411 -2.4355 -1.2545
  295SOL     MW 1180   0.840   0.559   2.518 -0.3373  0.1340  0.0712
  296SOL     OW 1181   1.240   0.210   2.037  0.6231  0.0898 -0.1170
  296SOL    HW1 1182   1.324   0.169   2.029 -0.8672 -1.5869 -1.6641
  296SOL    HW2 1183   1.225   0.207   2.134  0.8429 -3.4503  1.8474
  296SOL     MW 1184   1.249   0.204   2.049  0.4554 -0.5985 -0.0620
  297SOL     OW 1185   1.409   0.378   1.537  0.4636  0.0415  0.8039
  297SOL    HW1 1186   1.480   0.436   1.524  0.7950  1.6401 -2.6919
  297SOL    HW2 1187   1.438   0.317   1.603 -0.1141  0.3317  0.8041
  297SOL     MW 1188   1.423   0.377   1.544  0.4311  0.2907  0.3427
  298SOL     OW 1189   1.587   0.895   2.073 -0.1710 -0.3464  0.0557
  298SOL    HW1 1190   1.630   0.922   1.991 -3.1912  0.0698 -0.9056
  298SOL    HW2 1191   1.666   0.876   2.129  2.3531 -1.0858 -0.7819
  298SOL     MW 1192   1.603   0.896   2.070 -0.2365 -0.3890 -0.1817
  299SOL     OW 1193   0.563   1.154   0.058  0.0906  0.2492  0.3786
  299SOL    HW1 1194   0.583   1.159  -0.037 -0.1846  2.4394  4.5493
  299SOL    HW2 1195   0.637   1.194   0.107  0.7966  0.1525 -1.5606
  299SOL     MW 1196   0.575   1.160   0.052  0.1475  0.5254  0.6730
  300SOL     OW 1197   1.140   1.165   2.506 -1.0091  0.2643  0.2429
  300SOL    HW1 1198   1.053   1.141   2.542 -2.2451 -0.3232  3.0681
  300SOL    HW2 1199   1.192   1.178   2.583 -0.4736  1.3186 -0.9340
  300SOL     MW 1200   1.136   1.163   2.521 -1.1015  0.3259  0.4603
  301SOL     OW 1201   1.412   1.016   0.727  0.3232  0.7197  0.0491
  301SOL    HW1 1202   1.430   1.042   0.816 -0.1954  1.7349  0.8209
  301SOL    HW2 1203   1.369   0.932   0.728 -1.3056  0.2358  0.0336
  301SOL     MW 1204   1.409   1.008   0.739  0.0399  0.7898  0.1489
  302SOL     OW 1205   0.199   1.558   2.039 -0.3223  0.1674 -0.1039
  302SOL    HW1 1206   0.156   1.476   2.019 -3.2596  0.8239  1.3623
  302SOL    HW2 1207   0.117   1.609   2.044  0.5314  1.4646 -1.0485
  302SOL     MW 1208   0.182   1.554   2.037 -0.5972  0.4251 -0.0351
  303SOL     OW 1209   0.353   1.777   2.675  0.6853 -0.3790  0.4167
  303SOL    HW1 1210   0.317   1.801   2.587  0.6498 -0.2010 -1.1305
  303SOL    HW2 1211   0.264   1.762   2.720 -0.7276 -0.0458 -1.3929
  303SOL     MW 1212   0.336   1.778   2.670  0.4942 -0.3115 -0.0262
  304SOL     OW 1213   0.501   2.037   2.381 -0.4858  0.5457  0.6605
  304SOL    HW1 1214   0.560   2.081   2.316 -0.4236 -0.1219  3.4207
  304SOL    HW2 1215   0.566   1.978   2.423  0.0217  2.5551  1.0028
  304SOL     MW 1216   0.517   2.035   2.378 -0.4107  0.7227  1.0698
  305SOL     OW 1217   1.117   0.669   0.571 -0.0930 -0.2899 -0.1774
  305SOL    HW1 1218   1.027   0.652   0.530 -2.3212 -0.5192  1.1528
  305SOL    HW2 1219   1.154   0.581   0.565  1.0411 -1.9788 -0.4102
  305SOL     MW 1220   1.110   0.655   0.565 -0.2374 -0.5430 -0.0326
  306SOL     OW 1221   1.106   1.550   0.231 -0.4459 -0.0795  0.5372
  306SOL    HW1 1222   1.122   1.455   0.260 -2.6216 -0.9152 -0.0698
  306SOL    HW2 1223   1.145   1.568   0.148 -1.4178  1.8834  0.0171
  306SOL     MW 1224   1.114   1.540   0.224 -0.8612  0.0692  0.3885
  307SOL     OW 1225   1.351   0.441   1.893  0.1496  0.0576  0.0239
  307SOL    HW1 1226   1.300   0.366   1.926  0.9166  1.6175  2.0198
  307SOL    HW2 1227   1.405   0.469   1.969  2.0804  0.8182 -0.0809
  307SOL     MW 1228   1.352   0.435   1.907  0.5056  0.3638  0.2734
  308SOL     OW 1229   2.237   0.505   2.662 -0.4031  0.1766 -0.1375
  308SOL    HW1 1230   2.331   0.512   2.681  1.1175 -0.8219 -1.5829
  308SOL    HW2 1231   2.206   0.597   2.682 -0.5513 -0.9112  1.2990
  308SOL     MW 1232   2.245   0.518   2.667 -0.2220 -0.0987 -0.1387
  309SOL     OW 1233   0.483   0.577   0.236  0.2213  0.3896  0.2545
  309SOL    HW1 1234   0.553   0.629   0.273 -0.4543  0.6186 -0.5034
  309SOL    HW2 1235   0.516   0.504   0.186 -0.4359 -0.9489  0.1315
  309SOL     MW 1236   0.496   0.574   0.235  0.0455  0.2432  0.1383
  310SOL     OW 1237   0.469   0.642   1.911 -0.2474 -0.1294 -0.1954
  310SOL    HW1 1238   0.552   0.588   1.908 -2.8289  0.2536 -1.4273
  310SOL    HW2 1239   0.505   0.712   1.861  0.9525 -0.7122 -0.4873
  310SOL     MW 1240   0.485   0.644   1.904 -0.4297 -0.1558 -0.3964
  311SOL     OW 1241   1.948   0.643   1.956 -0.3803  0.1596  0.2962
  311SOL    HW1 1242   1.903   0.670   2.038  0.7922 -1.3673  3.8409
  311SOL    HW2 1243   2.017   0.579   1.992  0.8039  0.0718  4.5373
  311SOL     MW 1244   1.951   0.638   1.972 -0.0693 -0.0534  1.3234
  312SOL     OW 1245   1.785   2.442   0.135 -0.4098 -0.0241 -0.6123
  312SOL    HW1 1246   1.814   2.425   0.222 -0.2120  0.3049  0.1705
  312SOL    HW2 1247   1.716   2.509   0.139  0.0379  0.9003 -2.3851
  312SOL     MW 1248   1.780   2.449   0.147 -0.3246  0.1413 -0.7429
  313SOL     OW 1249   0.138   1.136   3.032 -0.1294  0.1059  0.3138
  313SOL    HW1 1250   0.080   1.169   3.104 -2.1983 -1.7240 -1.3110
  313SOL    HW2 1251   0.200   1.202   3.007 -3.4766 -1.0529 -0.7595
  313SOL     MW 1252   0.138   1.149   3.038 -0.8440 -0.2885 -0.0422
  314SOL     OW 1253   2.161   2.922   3.087  0.0008 -0.5605  0.2069
  314SOL    HW1 1254   2.096   2.950   3.007 -0.3016  2.9772 -1.8211
  314SOL    HW2 1255   2.201   3.007   3.115 -1.2989  0.5692 -0.0488
  314SOL     MW 1256   2.158   2.937   3.080 -0.2106  0.0553 -0.0944
  315SOL     OW 1257   1.545   1.825   2.962 -0.2476 -0.0725  0.1925
  315SOL    HW1 1258   1.499   1.862   3.045  0.9236  1.5305 -1.9164
  315SOL    HW2 1259   1.561   1.912   2.918  2.1123 -0.9534  1.5974
  315SOL     MW 1260   1.541   1.841   2.967  0.2183  0.0228  0.0996
  316SOL     OW 1261   1.230   0.571   2.724 -0.7047  0.2178  0.0648
  316SOL    HW1 1262   1.322   0.564   2.738 -0.6185  0.0102  0.1549
  316SOL    HW2 1263   1.194   0.579   2.817  1.7501 -0.5708  0.7431
  316SOL     MW 1264   1.237   0.571   2.738 -0.3695  0.0863  0.1662
  317SOL     OW 1265   0.686   1.584   2.666 -0.1224 -0.2188  0.2610
  317SOL    HW1 1266   0.723   1.506   2.700 -0.0905 -1.3253  0.5103
  317SOL    HW2 1267   0.675   1.568   2.575  2.5441 -1.3681 -1.7051
  317SOL     MW 1268   0.690   1.572   2.659  0.2336 -0.5164  0.0345
  318SOL     OW 1269   1.328   0.359   2.961  0.2272  0.5380  0.4827
  318SOL    HW1 1270   1.246   0.416   2.965 -1.5629  2.8043 -2.0497
  318SOL    HW2 1271   1.389   0.414   2.910 -1.6949 -0.8244  2.6504
  318SOL     MW 1272   1.325   0.373   2.955 -0.2626  0.6573  0.4346
  319SOL     OW 1273   0.876   0.366   2.886  0.2847  0.3426 -0.9270
  319SOL    HW1 1274   0.830   0.307   2.822  2.0071 -2.6241  1.2702
  319SOL    HW2 1275   0.803   0.403   2.938 -2.5482  2.7469  1.8898
  319SOL     MW 1276   0.861   0.363   2.884  0.1382  0.2684 -0.2654
  320SOL     OW 1277   1.071   1.407   1.970 -0.1385  0.0276 -0.2391
  320SOL    HW1 1278   1.149   1.362   1.991 -0.5203  2.0872 -1.5689
  320SOL    HW2 1279   1.114   1.482   1.929  0.6825  0.9220  1.4152
  320SOL     MW 1280   1.087   1.411   1.967 -0.0806  0.4173 -0.1963
  321SOL     OW 1281   1.111   0.919   2.998 -0.0479  0.1299  0.2050
  321SOL    HW1 1282   1.030   0.901   2.949  3.5606 -0.0380 -0.5866
  321SOL    HW2 1283   1.151   0.831   3.016 -0.8525 -1.6900 -0.2698
  321SOL     MW 1284   1.106   0.905   2.994  0.3220 -0.1323  0.0379
  322SOL     OW 1285   1.225   0.854   1.671  0.2219 -0.1463  0.3078
  322SOL    HW1 1286   1.282   0.789   1.716 -0.6413 -0.5635  3.6238
  322SOL    HW2 1287   1.174   0.894   1.745 -0.3551  2.1771  3.1657
  322SOL     MW 1288   1.226   0.851   1.687  0.0319  0.1052  1.1224
  323SOL     OW 1289   1.230   1.611   1.899 -0.4880 -0.3446  0.2927
  323SOL    HW1 1290   1.279   1.600   1.818 -0.6923 -1.9484  1.8384
  323SOL    HW2 1291   1.194   1.697   1.904  0.6540  0.4112 -0.6001
  323SOL     MW 1292   1.232   1.621   1.889 -0.3643 -0.4565  0.3788
  324SOL     OW 1293   1.471   1.000   2.429 -0.6366 -0.3843  0.4474
  324SOL    HW1 1294   1.402   1.036   2.480  1.6088  1.5733  2.0346
  324SOL    HW2 1295   1.544   1.051   2.469 -0.5361  1.9508  1.3788
  324SOL     MW 1296   1.471   1.011   2.441 -0.3271  0.1821  0.7797
  325SOL     OW 1297   1.103   0.498   2.972 -0.6417  0.1004 -0.2776
  325SOL    HW1 1298   1.096   0.559   3.048 -0.5250 -1.5308 -1.2821
  325SOL    HW2 1299   1.017   0.468   2.948 -0.8626 -0.8932 -1.7221
  325SOL     MW 1300   1.091   0.502   2.979 -0.6555 -0.2459 -0.6007
  326SOL     OW 1301   0.355   1.364   2.274 -0.2632  0.1078 -0.3473
  326SOL    HW1 1302   0.439   1.322   2.249  1.2100 -2.1366 -0.9641
  326SOL    HW2 1303   0.370   1.453   2.248  0.9526  1.8669 -1.9926
  326SOL     MW 1304   0.368   1.370   2.267  0.0916  0.0437 -0.6458
  327SOL     OW 1305   1.966   0.789   2.443  0.8362 -0.3397 -0.4660
  327SOL    HW1 1306   1.911   0.742   2.514 -0.3847  0.5871 -2.3029
  327SOL    HW2 1307   1.985   0.884   2.471 -1.6049  1.3428  0.9075
  327SOL     MW 1308   1.961   0.796   2.456  0.3530  0.0046 -0.5272
  328SOL     OW 1309   0.233   1.253   2.039 -0.5475  0.1624  0.1600
  328SOL    HW1 1310   0.150   1.224   2.075  1.0875 -0.3679  0.0669
  328SOL    HW2 1311   0.278   1.292   2.112  2.0599 -0.2964  1.0855
  328SOL     MW 1312   0.228   1.254   2.053  0.0123  0.0319  0.2699
  329SOL     OW 1313   0.070   0.149   1.347 -0.7009 -0.3857  0.2325
  329SOL    HW1 1314   0.030   0.121   1.432  1.2249 -1.6147  0.8144
  329SOL    HW2 1315   0.162   0.178   1.373  0.8732 -0.9922  2.0742
  329SOL     MW 1316   0.077   0.149   1.361 -0.2391 -0.6279  0.5523
  330SOL     OW 1317   0.401   3.089   2.034  0.1937 -0.1740  0.6271
  330SOL    HW1 1318   0.456   3.147   2.087 -1.3738  0.7539  1.4058
  330SOL    HW2 1319   0.341   3.041   2.096 -2.0617 -0.4896  0.2845
  330SOL     MW 1320   0.400   3.090   2.049 -0.3107 -0.0932  0.6846
  331SOL     OW 1321   0.794   1.235   2.459  0.4420 -0.4096 -0.2695
  331SOL    HW1 1322   0.743   1.304   2.412 -0.4643 -0.6953 -1.0089
  331SOL    HW2 1323   0.827   1.283   2.537 -1.6546  0.5190 -0.6987
  331SOL     MW 1324   0.791   1.251   2.463  0.0458 -0.3248 -0.4237
  332SOL     OW 1325   1.332   1.653   2.905 -0.0139 -0.3172  0.2764
  332SOL    HW1 1326   1.315   1.640   2.814 -2.6251 -0.5573 -0.0288
  332SOL    HW2 1327   1.406   1.719   2.901  2.5526 -0.2227  0.3882
  332SOL     MW 1328   1.339   1.660   2.893 -0.0198 -0.3364  0.2509
  333SOL     OW 1329   1.706   1.396   2.925 -0.2588 -0.1200  0.1131
  333SOL    HW1 1330   1.807   1.376   2.936  1.6274 -0.0564  2.0204
  333SOL    HW2 1331   1.662   1.328   2.971 -1.5208 -0.2687  1.8989
  333SOL     MW 1332   1.714   1.384   2.933 -0.1764 -0.1312  0.6004
  334SOL     OW 1333   1.255   3.067   2.667  0.1371  0.0581  0.3736
  334SOL    HW1 1334   1.180   3.057   2.730 -0.9293  1.1947  1.1010
  334SOL    HW2 1335   1.297   3.159   2.682  2.3077  0.0274  0.6373
  334SOL     MW 1336   1.251   3.078   2.677  0.2828  0.2040  0.5044
  335SOL     OW 1337   1.332   0.717   3.004 -0.1805 -0.4561  1.0845
  335SOL    HW1 1338   1.389   0.732   3.079  1.1440  0.9848 -3.8895
  335SOL    HW2 1339   1.362   0.735   2.918  0.7477 -2.0725  3.1966
  335SOL     MW 1340   1.343   0.721   3.003  0.1167 -0.4793  0.7069
  336SOL     OW 1341   0.967   1.183   1.767  0.0666 -0.6665 -0.1574
  336SOL    HW1 1342   0.911   1.232   1.822 -0.9317 -0.2672  0.7124
  336SOL    HW2 1343   0.986   1.099   1.809  2.0587 -0.0384 -2.5893
  336SOL     MW 1344   0.962   1.178   1.780  0.1977 -0.5309 -0.3635
  337SOL     OW 1345   0.571   1.860   2.808 -0.3670  0.0326  0.4330
  337SOL    HW1 1346   0.498   1.834   2.751 -0.6455 -1.5662  1.2025
  337SOL    HW2 1347   0.647   1.814   2.778 -0.7601  2.0900  1.0884
  337SOL     MW 1348   0.572   1.850   2.797 -0.4556  0.0931  0.6210
  338SOL     OW 1349   1.036   0.746   2.522 -0.1154 -0.3906 -0.7175
  338SOL    HW1 1350   0.965   0.678   2.523  1.0202  0.9749  0.7653
  338SOL    HW2 1351   1.108   0.706   2.582  2.4265 -2.7600  0.4053
  338SOL     MW 1352   1.036   0.731   2.530  0.3698 -0.5230 -0.3737
  339SOL     OW 1353   1.448   1.129   1.872 -0.2617  0.5947  0.3659
  339SOL    HW1 1354   1.434   1.100   1.782 -2.3319  1.5071  0.7378
  339SOL    HW2 1355   1.360   1.129   1.912 -0.3044  0.5322  0.2212
  339SOL     MW 1356   1.434   1.125   1.865 -0.5405  0.7068  0.3959
  340SOL     OW 1357   1.310   1.503   0.032 -0.4223  0.0724 -0.2674
  340SOL    HW1 1358   1.303   1.565  -0.039 -1.6043 -0.8284  0.2418
  340SOL    HW2 1359   1.402   1.510   0.072 -1.9530  2.5873  3.0337
  340SOL     MW 1360   1.321   1.512   0.028 -0.7802  0.2854  0.2353
  341SOL     OW 1361   0.038   1.349   2.779  0.4647 -0.2913  0.5799
  341SOL    HW1 1362   0.116   1.300   2.793 -0.6136 -0.0041 -1.3301
  341SOL    HW2 1363   0.018   1.335   2.691 -2.0796  1.1485  1.5138
  341SOL     MW 1364   0.046   1.340   2.769 -0.0132 -0.0634  0.4511
  342SOL     OW 1365   1.400   0.319   0.115  0.4967 -0.2633 -0.4744
  342SOL    HW1 1366   1.462   0.379   0.167  1.8465 -0.5136 -0.3468
  342SOL    HW2 1367   1.384   0.345   0.025 -1.8482 -0.6346 -0.7522
  342SOL     MW 1368   1.406   0.330   0.110  0.3654 -0.3453 -0.4942
  343SOL     OW 1369   0.302   0.291   2.227  0.0130 -0.1978 -0.2107
  343SOL    HW1 1370   0.370   0.223   2.256  2.4040  1.3485  1.5634
  343SOL    HW2 1371   0.228   0.242   2.194 -2.0501 -0.1515  2.5475
  343SOL     MW 1372   0.301   0.275   2.226  0.0563  0.0123  0.3873
  344SOL     OW 1373   1.719   2.023   0.159  0.2430 -0.2687 -0.2093
  344SOL    HW1 1374   1.762   2.074   0.093 -0.6009  0.6947  1.8425
  344SOL    HW2 1375   1.646   1.983   0.110 -3.1693 -3.4300 -0.9824
  344SOL     MW 1376   1.715   2.024   0.144 -0.3185 -0.5587 -0.0406
  345SOL     OW 1377   0.692   1.570   2.366  0.0258  0.2490  0.0600
  345SOL    HW1 1378   0.608   1.612   2.333  0.9742  2.6066 -1.4415
  345SOL    HW2 1379   0.741   1.547   2.289  0.5695 -1.6032  0.3763
  345SOL     MW 1380   0.687   1.573   2.351  0.2226  0.3157 -0.0964
  346SOL     OW 1381   1.705   1.096   3.051 -0.3452 -0.3241  0.0629
  346SOL    HW1 1382   1.789   1.081   3.086 -1.9097  1.2881  0.2308
  346SOL    HW2 1383   1.649   1.044   3.112 -0.6899 -0.1064 -1.8626
  346SOL     MW 1384   1.709   1.087   3.064 -0.5971 -0.0827 -0.1690
  347SOL     OW 1385   1.137   0.732   2.255 -0.2201 -0.6601 -0.5550
  347SOL    HW1 1386   1.185   0.660   2.305  3.5210  0.1823 -0.4184
  347SOL    HW2 1387   1.084   0.776   2.324  1.6600 -0.7140 -0.7634
  347SOL     MW 1388   1.137   0.728   2.271  0.5216 -0.5561 -0.5645
  348SOL     OW 1389   1.360   2.558   1.913 -0.1141 -0.0273  0.2510
  348SOL    HW1 1390   1.369   2.485   1.981 -1.7316 -0.4300 -0.2521
  348SOL    HW2 1391   1.383   2.638   1.964 -1.0604  0.5863  0.8980
  348SOL     MW 1392   1.365   2.559   1.929 -0.4524  0.0005  0.2700
  349SOL     OW 1393   1.393   0.182   2.758  0.1596  0.2207 -0.3614
  349SOL    HW1 1394   1.341   0.232   2.819  0.1662 -1.9196 -0.2065
  349SOL    HW2 1395   1.442   0.118   2.809 -1.7335  0.4480  1.6048
  349SOL     MW 1396   1.392   0.180   2.773 -0.0893 -0.0317 -0.0816
  350SOL     OW 1397   1.824   0.656   2.640 -0.4185  0.2472 -0.5481
  350SOL    HW1 1398   1.750   0.607   2.589  1.1941  0.0078  2.0448
  350SOL    HW2 1399   1.887   0.588   2.667  1.5694 -1.9185 -1.0159
  350SOL     MW 1400   1.822   0.641   2.637  0.0566 -0.0701 -0.2677
  351SOL     OW 1401   0.063   1.152   1.631  0.6717 -0.3280 -0.2821
  351SOL    HW1 1402  -0.007   1.163   1.697 -0.5700  0.4755  0.7655
  351SOL    HW2 1403   0.118   1.228   1.640 -2.5470 -1.3693  2.1733
  351SOL     MW 1404   0.061   1.164   1.641  0.0832 -0.3594  0.1801
  352SOL     OW 1405   0.850   1.757   2.809 -0.1506  0.0588  0.3939
  352SOL    HW1 1406   0.809   1.727   2.895  0.6100  1.3272 -0.8950
  352SOL    HW2 1407   0.810   1.703   2.737  0.4982 -1.6446 -1.8571
  352SOL     MW 1408   0.839   1.746   2.811  0.0353  0.0014 -0.0731
  353SOL     OW 1409   0.013   2.576   2.735  0.0961  0.6684 -0.0962
  353SOL    HW1 1410   0.097   2.541   2.709 -1.1389  1.4241 -0.2204
  353SOL    HW2 1411   0.016   2.670   2.713  1.4311  1.9849  1.9434
  353SOL     MW 1412   0.024   2.584   2.729  0.1093  0.9418  0.1565
  354SOL     OW 1413   0.344   2.444   0.859  0.3102 -0.3766  0.9545
  354SOL    HW1 1414   0.385   2.451   0.945  1.0621  1.5989 -2.0784
  354SOL    HW2 1415   0.263   2.386   0.858  0.6156 -0.5367 -2.3376
  354SOL     MW 1416   0.339   2.438   0.870  0.4497 -0.1371  0.1200
  355SOL     OW 1417   3.046   2.178   0.347  0.1565 -0.3141  0.7268
  355SOL    HW1 1418   2.963   2.140   0.351  2.9615 -0.8905 -0.0266
  355SOL    HW2 1419   3.049   2.218   0.436 -0.4776 -0.4282 -0.8895
  355SOL     MW 1420   3.036   2.179   0.359  0.4429 -0.4052  0.4141
  356SOL     OW 1421   0.827   2.807   0.970 -0.3443  0.8241  0.3817
  356SOL    HW1 1422   0.880   2.842   0.893  1.0174  0.6813  1.1024
  356SOL    HW2 1423   0.743   2.791   0.931  0.5345  1.2018 -0.4677
  356SOL     MW 1424   0.823   2.810   0.955 -0.0487  0.8551  0.3647
  357SOL     OW 1425   1.811   2.804   0.485  0.4895 -0.1941 -0.0526
  357SOL    HW1 1426   1.817   2.730   0.545  2.9167  0.5851 -0.4475
  357SOL    HW2 1427   1.895   2.793   0.438  1.1921  0.2153 -2.0106
  357SOL     MW 1428   1.823   2.793   0.487  0.9025 -0.0372 -0.3631
  358SOL     OW 1429   0.451   0.183   1.041  0.2726  0.4256  0.1777
  358SOL    HW1 1430   0.546   0.165   1.021 -1.3602 -2.1611  0.2049
  358SOL    HW2 1431   0.415   0.191   0.954  0.6600  0.0542  0.4971
  358SOL     MW 1432   0.459   0.181   1.027  0.1083  0.0353  0.2234
  359SOL     OW 1433   0.830   2.968   1.838  1.3865  0.3316 -0.1643
  359SOL    HW1 1434   0.843   2.873   1.862 -0.0888 -1.0811  0.4346
  359SOL    HW2 1435   0.866   2.978   1.746  1.7784  2.5042 -2.9092
  359SOL     MW 1436   0.837   2.957   1.829  1.2436  0.4318 -0.4474
  360SOL     OW 1437   0.553   2.752   0.866 -0.1829  0.1180 -0.0693
  360SOL    HW1 1438   0.561   2.742   0.772 -1.8701 -1.8135 -0.7276
  360SOL    HW2 1439   0.539   2.663   0.903  1.6721  1.9754  1.8371
  360SOL     MW 1440   0.552   2.739   0.859 -0.1607  0.1082  0.0954
  361SOL     OW 1441   0.211   2.646   1.418  0.0573  0.2016 -0.1928
  361SOL    HW1 1442   0.179   2.729   1.451 -1.1320 -1.7671  0.4419
  361SOL    HW2 1443   0.291   2.672   1.376  3.1350  1.9377 -1.4284
  361SOL     MW 1444   0.217   2.660   1.417  0.3065  0.1709 -0.2721
  362SOL     OW 1445   1.390   2.391   0.578 -0.4454 -0.0661  0.2395
  362SOL    HW1 1446   1.437   2.321   0.620 -1.6116  1.4000  2.3766
  362SOL    HW2 1447   1.442   2.471   0.608 -0.9196  1.0715 -1.9108
  362SOL     MW 1448   1.403   2.392   0.588 -0.6618  0.2774  0.2378
  363SOL     OW 1449   0.314   3.056   0.644 -0.1374  0.2926  0.0761
  363SOL    HW1 1450   0.315   3.003   0.725 -0.4016  0.6362  0.5315
  363SOL    HW2 1451   0.229   3.093   0.626  1.9509 -1.8497 -2.8377
  363SOL     MW 1452   0.303   3.054   0.652  0.1033  0.0553 -0.2483
  364SOL     OW 1453   0.774   0.254   0.139 -0.0786  0.2265 -0.3649
  364SOL    HW1 1454   0.703   0.196   0.168  2.5385 -0.3423 -1.8821
  364SOL    HW2 1455   0.736   0.322   0.083 -0.1040 -1.8638 -2.5491
  364SOL     MW 1456   0.760   0.255   0.135  0.2634 -0.1244 -0.8533
  365SOL     OW 1457   0.941   2.029   1.129 -0.9871 -0.3686  0.2879
  365SOL    HW1 1458   0.903   2.114   1.111  0.3315 -1.8292  1.3510
  365SOL    HW2 1459   0.877   1.968   1.099  3.3517  2.5380  0.6148
  365SOL     MW 1460   0.928   2.032   1.123 -0.2407 -0.1778  0.4713
  366SOL     OW 1461   2.962   2.657   0.941  0.0666 -0.2721 -0.3750
  366SOL    HW1 1462   3.041   2.629   0.988  1.8419 -0.6338  0.2024
  366SOL    HW2 1463   3.000   2.701   0.859  0.6922 -0.2247 -0.5704
  366SOL     MW 1464   2.978   2.659   0.936  0.3834 -0.3135 -0.3246
  367SOL     OW 1465   1.220   2.976   0.932 -0.2204  0.0970  0.3256
  367SOL    HW1 1466   1.261   3.027   0.865  1.0098  0.4851 -1.0577
  367SOL    HW2 1467   1.158   2.919   0.891  1.0106  2.2062  0.0975
  367SOL     MW 1468   1.217   2.975   0.918  0.1043  0.4265  0.1130
  368SOL     OW 1469   1.743   0.399   0.722  0.3392  0.1366 -0.3286
  368SOL    HW1 1470   1.788   0.353   0.654 -1.2377  1.0563  3.2650
  368SOL    HW2 1471   1.745   0.491   0.700  0.4167 -0.5128  0.4701
  368SOL     MW 1472   1.749   0.405   0.710  0.1414  0.1723  0.2509
  369SOL     OW 1473   0.125   2.423   1.786  0.2655 -0.3375 -0.1906
  369SOL    HW1 1474   0.223   2.445   1.790  1.3303  0.6226 -2.2758
  369SOL    HW2 1475   0.099   2.516   1.776 -3.0424 -1.9594  2.7150
  369SOL     MW 1476   0.134   2.438   1.785 -0.0304 -0.4248 -0.0824
  370SOL     OW 1477   0.734   0.151   0.972 -0.3687  0.1505  0.4358
  370SOL    HW1 1478   0.742   0.244   0.950 -0.8612  1.0073  0.8812
  370SOL    HW2 1479   0.822   0.112   0.996  1.7968 -2.9865  2.4050
  370SOL     MW 1480   0.747   0.158   0.972 -0.1480 -0.1503  0.7544
  371SOL     OW 1481   1.225   2.829   1.513 -0.5521 -0.3219 -0.1875
  371SOL    HW1 1482   1.208   2.751   1.457 -1.0120 -0.0893  0.4201
  371SOL    HW2 1483   1.194   2.903   1.459  0.2356 -1.4506  0.4832
  371SOL     MW 1484   1.219   2.828   1.498 -0.5089 -0.4401 -0.0188
  372SOL     OW 1485   0.823   2.295   0.514 -0.1812 -0.5491  0.5189
  372SOL    HW1 1486   0.765   2.219   0.518  0.5824 -0.7552  0.8317
  372SOL    HW2 1487   0.837   2.290   0.416  2.0236 -0.1583 -2.8857
  372SOL     MW 1488   0.817   2.285   0.502  0.2104 -0.5247  0.1110
  373SOL     OW 1489   2.870   3.013   1.394  0.1100  0.0378  0.4136
  373SOL    HW1 1490   2.947   2.996   1.338  1.4543  1.1944 -1.6235
  373SOL    HW2 1491   2.851   3.107   1.380 -0.4346 -0.3010  0.0866
  373SOL     MW 1492   2.877   3.023   1.384  0.2155  0.1457  0.1017
  374SOL     OW 1493   1.557   0.471   0.276  1.1156 -0.7216  0.2254
  374SOL    HW1 1494   1.650   0.449   0.263  2.0634 -1.0457  2.5669
  374SOL    HW2 1495   1.531   0.425   0.359  2.0038 -1.7023  3.8313
  374SOL     MW 1496   1.566   0.462   0.286  1.3579 -0.8938  1.0101
  375SOL     OW 1497   0.941   2.147   2.349 -0.6342  0.7050  0.1461
  375SOL    HW1 1498   1.010   2.117   2.409  2.9194 -0.0775 -0.3003
  375SOL    HW2 1499   0.908   2.075   2.290 -0.4631  1.6988 -1.7130
  375SOL     MW 1500   0.945   2.133   2.349 -0.1428  0.7329 -0.1581
  376SOL     OW 1501   0.699   2.493   0.049  0.0051  0.6670  0.0666
  376SOL    HW1 1502   0.660   2.426   0.100 -2.3380  1.4076 -1.4637
  376SOL    HW2 1503   0.727   2.446  -0.030 -0.4452 -0.4427 -3.6137
  376SOL     MW 1504   0.698   2.478   0.045 -0.3635  0.6183 -0.6209
  377SOL     OW 1505   1.265   2.089   0.912  0.4402 -0.2381 -0.1806
  377SOL    HW1 1506   1.184   2.073   0.863 -0.0870  1.4644  1.0634
  377SOL    HW2 1507   1.264   2.024   0.984  0.2933 -1.1749  1.1145
  377SOL     MW 1508   1.254   2.078   0.915  0.3513 -0.1371  0.1544
  378SOL     OW 1509   0.930   2.901   1.589  0.2337  0.1031 -0.0098
  378SOL    HW1 1510   0.981   2.819   1.595  2.1677  0.6081  0.2137
  378SOL    HW2 1511   1.000   2.951   1.550 -1.0518 -3.2853 -0.7477
  378SOL     MW 1512   0.946   2.897   1.584  0.3193 -0.2773 -0.0777
  379SOL     OW 1513   1.112   1.653   2.169 -0.0885  0.1505  0.4961
  379SOL    HW1 1514   1.025   1.606   2.166  0.2006 -0.6547  0.1169
  379SOL    HW2 1515   1.162   1.607   2.104  1.1638 -1.3313  0.4616
  379SOL     MW 1516   1.107   1.641   2.160  0.1149 -0.1512  0.4415
  380SOL     OW 1517   0.903   0.064   1.440 -0.0908 -0.0641 -0.7166
  380SOL    HW1 1518   0.969   0.009   1.398 -0.8206 -0.8959 -2.0759
  380SOL    HW2 1519   0.941   0.089   1.528 -3.8255  1.0360 -0.5323
  380SOL     MW 1520   0.917   0.060   1.446 -0.6798 -0.0287 -0.8717
  381SOL     OW 1521   0.774   2.073   0.827  0.5133 -0.4976 -0.7006
  381SOL    HW1 1522   0.869   2.077   0.809 -0.9004 -0.2112 -0.0822
  381SOL    HW2 1523   0.755   2.125   0.910 -0.4697  0.5342  2.6083
  381SOL     MW 1524   0.784   2.081   0.836  0.1971 -0.3237 -0.1824
  382SOL     OW 1525   0.768   0.149   0.642  0.3301 -0.1233  0.2443
  382SOL    HW1 1526   0.719   0.188   0.716  0.7343 -1.9067  2.3436
  382SOL    HW2 1527   0.733   0.063   0.622  0.6028  2.2303 -1.7328
  382SOL     MW 1528   0.757   0.143   0.649  0.4194 -0.0480  0.2604
  383SOL     OW 1529   0.570   0.051   0.283  0.1416  0.4059  0.2220
  383SOL    HW1 1530   0.631  -0.011   0.244  3.2010  1.3379 -0.2266
  383SOL    HW2 1531   0.526  -0.006   0.344 -1.3295 -0.3376 -2.9624
  383SOL     MW 1532   0.572   0.035   0.286  0.3512  0.4307 -0.2573
  384SOL     OW 1533   0.744   2.960   0.598 -0.5936 -0.4879  0.1019
  384SOL    HW1 1534   0.821   2.929   0.652  1.5411 -0.2340  0.6444
  384SOL    HW2 1535   0.680   2.888   0.604  1.2320  1.8906 -0.2013
  384SOL     MW 1536   0.746   2.947   0.606 -0.0711 -0.1406  0.1335
  385SOL     OW 1537   1.449   2.045   1.548 -0.2783  0.0837  0.0790
  385SOL    HW1 1538   1.503   2.107   1.603 -0.3022 -0.1200 -0.1656
  385SOL    HW2 1539   1.428   1.970   1.608  1.6376 -0.5277 -1.9212
  385SOL     MW 1540   1.453   2.044   1.563 -0.0286 -0.0238 -0.2172
  386SOL     OW 1541   1.323   0.359   0.851  0.9022  0.3968  0.1587
  386SOL    HW1 1542   1.282   0.397   0.930  0.3216 -1.5804  0.4711
  386SOL    HW2 1543   1.357   0.271   0.873  4.0503  1.5787 -2.6125
  386SOL     MW 1544   1.322   0.352   0.864  1.2409  0.2919 -0.1657
  387SOL     OW 1545   0.787   2.136   1.492  0.3704 -0.3369  0.2662
  387SOL    HW1 1546   0.867   2.187   1.477 -3.8879 -0.6002 -2.7446
  387SOL    HW2 1547   0.801   2.051   1.458 -1.7192  1.1270 -0.4950
  387SOL     MW 1548   0.799   2.132   1.486 -0.4671 -0.1785 -0.2315
  388SOL     OW 1549   1.501   2.749   1.303 -0.8179 -0.3023 -0.1551
  388SOL    HW1 1550   1.431   2.814   1.291 -1.6866  0.8694 -3.3536
  388SOL    HW2 1551   1.459   2.679   1.262 -0.9946  4.1043  0.5862
  388SOL     MW 1552   1.486   2.748   1.296 -0.9558  0.4337 -0.4793
  389SOL     OW 1553   0.571   0.139   3.049 -0.0168 -0.3162  0.1118
  389SOL    HW1 1554   0.645   0.083   3.006 -1.0690 -0.4041 -2.3349
  389SOL    HW2 1555   0.530   0.185   2.973  1.3844 -0.1376  1.8524
  389SOL     MW 1556   0.575   0.137   3.033  0.0292 -0.3042  0.0186
  390SOL     OW 1557   1.350   0.049   0.699  0.1668 -0.0729  0.6850
  390SOL    HW1 1558   1.407   0.061   0.623  0.3756 -1.6709 -2.6648
  390SOL    HW2 1559   1.411   0.060   0.772 -2.7919  0.6548 -0.2880
  390SOL     MW 1560   1.366   0.052   0.699 -0.1960 -0.1877  0.1147
  391SOL     OW 1561   0.392   2.189   1.500 -0.6712 -0.1959  0.5711
  391SOL    HW1 1562   0.354   2.100   1.504 -1.1639 -0.2867  1.2331
  391SOL    HW2 1563   0.312   2.241   1.476  0.1081  0.1699 -0.2572
  391SOL     MW 1564   0.376   2.184   1.497 -0.6334 -0.1596  0.5491
  392SOL     OW 1565   2.064   2.223   0.278 -0.3059 -0.1999  0.1749
  392SOL    HW1 1566   2.138   2.248   0.336  0.4013  1.8350  0.3710
  392SOL    HW2 1567   2.010   2.301   0.292 -0.5150  2.6867 -2.3650
  392SOL     MW 1568   2.066   2.237   0.288 -0.2402  0.4494 -0.1343
  393SOL     OW 1569   0.277   2.944   2.851 -0.7554  0.4463  0.7984
  393SOL    HW1 1570   0.360   2.933   2.805  0.3144 -2.1664 -0.7013
  393SOL    HW2 1571   0.252   3.034   2.825 -1.1478  1.1998 -1.3212
  393SOL     MW 1572   0.284   2.954   2.842 -0.6660  0.2010  0.3209
  394SOL     OW 1573   0.977   1.706   1.554 -0.0791  0.4269  0.2940
  394SOL    HW1 1574   1.014   1.717   1.644  1.8141 -1.0195 -0.7551
  394SOL    HW2 1575   0.983   1.789   1.516  0.3272 -1.6178 -2.4193
  394SOL     MW 1576   0.983   1.718   1.561  0.2243 -0.0337 -0.2024
  395SOL     OW 1577   0.969   2.961   2.539 -0.2514  0.1690  0.2549
  395SOL    HW1 1578   0.976   2.981   2.634  0.5184 -1.6419 -0.6682
  395SOL    HW2 1579   1.037   2.899   2.525 -0.2907 -1.5884  0.1292
  395SOL     MW 1580   0.979   2.955   2.550 -0.1550 -0.3018  0.1166
  396SOL     OW 1581   0.718   1.879   2.437  0.3785 -0.3225 -0.0502
  396SOL    HW1 1582   0.806   1.900   2.478  1.4540 -0.2909 -0.8362
  396SOL    HW2 1583   0.719   1.783   2.429 -2.2614 -0.2130 -0.5016
  396SOL     MW 1584   0.730   1.869   2.442  0.1721 -0.3039 -0.2135
  397SOL     OW 1585   1.000   2.319   1.429 -0.6017 -0.2731 -0.0609
  397SOL    HW1 1586   1.028   2.364   1.346 -0.4712  1.6200 -2.4620
  397SOL    HW2 1587   1.084   2.299   1.478 -0.3181  0.5341  1.0555
  397SOL     MW 1588   1.015   2.322   1.425 -0.5470  0.0832 -0.2304
  398SOL     OW 1589   0.601   2.734   0.597 -0.5122  0.2489 -0.2147
  398SOL    HW1 1590   0.526   2.693   0.545  0.3398  1.3153 -1.6521
  398SOL    HW2 1591   0.663   2.663   0.614  0.4477  0.1917 -0.6838
  398SOL     MW 1592   0.599   2.719   0.592 -0.2731  0.3821 -0.4663
  399SOL     OW 1593   0.211   2.095   0.325 -0.4602 -0.0874 -0.3105
  399SOL    HW1 1594   0.120   2.100   0.329  2.1282  1.8815 -2.1690
  399SOL    HW2 1595   0.234   2.119   0.230 -0.5022 -0.4999 -1.7795
  399SOL     MW 1596   0.202   2.099   0.313 -0.1242  0.1180 -0.7495
  400SOL     OW 1597   0.568   1.960   0.099 -0.0355 -1.4169  0.2747
  400SOL    HW1 1598   0.494   2.021   0.103  1.2457  1.4797  2.1593
  400SOL    HW2 1599   0.564   1.908   0.176  0.6087  2.4974  0.4081
  400SOL     MW 1600   0.557   1.961   0.110  0.2185 -0.5183  0.5410
  401SOL     OW 1601   0.827   2.091   0.063  0.2663 -0.3771 -0.6073
  401SOL    HW1 1602   0.886   2.017   0.086 -0.9307 -3.0181 -3.9166
  401SOL    HW2 1603   0.734   2.065   0.056  0.5903 -0.7143  1.4640
  401SOL     MW 1604   0.823   2.078   0.065  0.1511 -0.7701 -0.7706
  402SOL     OW 1605   0.559   2.978   1.719 -0.2603 -0.2387  0.3004
  402SOL    HW1 1606   0.628   2.953   1.781 -1.9221  1.8972  0.5708
  402SOL    HW2 1607   0.589   3.063   1.681  2.6644 -0.0479 -0.1103
  402SOL     MW 1608   0.572   2.986   1.722 -0.0937  0.0683  0.2819
  403SOL     OW 1609   0.104   0.507   0.371  0.0998  0.5986 -0.0619
  403SOL    HW1 1610   0.191   0.532   0.419  2.3264  2.6261 -0.2089
  403SOL    HW2 1611   0.135   0.461   0.296 -1.6170  1.1031  2.0265
  403SOL     MW 1612   0.119   0.504   0.367  0.1671  0.9327  0.1943
  404SOL     OW 1613   0.975   2.908   0.764  0.0839  0.0902  0.4136
  404SOL    HW1 1614   1.035   2.846   0.728 -2.4353 -1.0526 -0.0232
  404SOL    HW2 1615   1.000   3.003   0.772  1.1836 -1.9640 -1.5560
  404SOL     MW 1616   0.986   2.913   0.760 -0.1034 -0.3316  0.0961
  405SOL     OW 1617   0.489   2.475   1.520 -0.0232  0.7913 -0.2451
  405SOL    HW1 1618   0.500   2.551   1.464 -1.2743 -0.7360  1.8700
  405SOL    HW2 1619   0.515   2.395   1.475 -2.2321 -2.5302 -1.6616
  405SOL     MW 1620   0.494   2.474   1.507 -0.4797  0.1515 -0.1530
  406SOL     OW 1621   0.363   2.392   1.141  0.0667 -0.4525  0.7984
  406SOL    HW1 1622   0.262   2.386   1.144 -0.1062  0.5436 -2.1822
  406SOL    HW2 1623   0.386   2.300   1.166 -1.4237 -0.0740  3.4062
  406SOL     MW 1624   0.353   2.379   1.144 -0.1527 -0.2711  0.7492
  407SOL     OW 1625   0.076   2.666   1.154 -0.0462 -0.3143 -0.0542
  407SOL    HW1 1626   0.129   2.656   1.237  1.4807  2.3767  0.6196
  407SOL    HW2 1627   0.137   2.704   1.094  0.5346  0.5909  0.0635
  407SOL     MW 1628   0.091   2.669   1.157  0.2319  0.1602  0.0503
  408SOL     OW 1629   2.120   2.109   0.701 -0.7172 -0.1281  0.6967
  408SOL    HW1 1630   2.062   2.148   0.760 -1.3757 -2.8874 -0.7789
  408SOL    HW2 1631   2.068   2.052   0.648  0.4363  0.6406  4.2141
  408SOL     MW 1632   2.105   2.107   0.702 -0.6519 -0.3907  0.9661
  409SOL     OW 1633   1.518   0.141   0.897  0.5458  0.0585 -0.4033
  409SOL    HW1 1634   1.591   0.203   0.930  0.0101 -0.1810  2.0160
  409SOL    HW2 1635   1.518   0.068   0.961  2.0867 -2.7899 -0.4179
  409SOL     MW 1636   1.528   0.140   0.910  0.6784 -0.3490 -0.0860
  410SOL     OW 1637   1.045   2.443   1.174 -0.1859  0.4450 -0.1700
  410SOL    HW1 1638   0.972   2.503   1.151  0.6726  0.6788  1.8318
  410SOL    HW2 1639   1.104   2.423   1.097 -0.1763  0.1580 -2.0087
  410SOL     MW 1640   1.043   2.448   1.161 -0.0713  0.4380 -0.1485
  411SOL     OW 1641   1.987   3.047   2.903  0.5800 -0.5580 -0.0107
  411SOL    HW1 1642   1.918   3.017   2.844  0.0232 -1.4504 -1.3511
  411SOL    HW2 1643   1.965   3.138   2.923  0.5005  0.2713 -1.6043
  411SOL     MW 1644   1.975   3.055   2.898  0.4961 -0.5663 -0.3978
  412SOL     OW 1645   1.065   2.261   0.602 -0.0528  0.2520 -0.2075
  412SOL    HW1 1646   1.084   2.340   0.650 -2.0777 -0.6537 -3.4377
  412SOL    HW2 1647   0.973   2.276   0.574  0.5943  0.7574  1.5066
  412SOL     MW 1648   1.055   2.273   0.605 -0.2346  0.1992 -0.4076
  413SOL     OW 1649   0.583   2.761   0.055  0.0290  0.6630 -0.0769
  413SOL    HW1 1650   0.650   2.688   0.041  2.2893 -0.9994  1.1224
  413SOL    HW2 1651   0.587   2.808  -0.027  0.6705 -1.2483  2.0792
  413SOL     MW 1652   0.592   2.758   0.042  0.4119  0.1915  0.3658
  414SOL     OW 1653   2.041   3.005   1.171 -0.1594  0.6930 -0.1590
  414SOL    HW1 1654   2.082   3.094   1.161 -1.9436  0.7737 -0.1784
  414SOL    HW2 1655   1.982   2.992   1.095 -0.6823  2.4755  0.5106
  414SOL     MW 1656   2.039   3.015   1.159 -0.4638  0.9388 -0.0732
  415SOL     OW 1657   1.655   2.806   1.077 -0.6783 -0.1573  0.1076
  415SOL    HW1 1658   1.625   2.770   1.161 -1.9821  0.1925 -0.3223
  415SOL    HW2 1659   1.751   2.808   1.079  0.0877 -2.6774 -1.6941
  415SOL     MW 1660   1.664   2.802   1.089 -0.7492 -0.4437 -0.1869
  416SOL     OW 1661   0.575   1.803   1.441  0.5098 -0.4984  0.6353
  416SOL    HW1 1662   0.486   1.771   1.455 -2.2979 -3.4841 -3.3207
  416SOL    HW2 1663   0.622   1.725   1.418  0.4714 -0.8544 -0.3896
  416SOL     MW 1664   0.569   1.788   1.440  0.1343 -0.9393 -0.0219
  417SOL     OW 1665   0.988   3.029   2.043 -0.1475 -0.0574 -0.2463
  417SOL    HW1 1666   0.919   3.042   2.107 -1.5201 -1.3703 -1.1476
  417SOL    HW2 1667   0.930   2.998   1.967  1.0884 -0.9522  3.3635
  417SOL     MW 1668   0.971   3.027   2.042 -0.1655 -0.3487  0.1111
  418SOL     OW 1669   0.740   2.960   0.171  0.0802  0.0311  0.4912
  418SOL    HW1 1670   0.806   2.947   0.099 -2.8829  0.4951 -3.1975
  418SOL    HW2 1671   0.684   2.882   0.171  2.8578 -2.3393 -1.1360
  418SOL     MW 1672   0.742   2.948   0.161  0.0557 -0.2205 -0.2102
  419SOL     OW 1673   0.526   2.678   1.356  0.7124 -0.1098  0.1124
  419SOL    HW1 1674   0.555   2.766   1.379 -2.6030  0.0723 -3.3533
  419SOL    HW2 1675   0.609   2.633   1.332  1.4606 -1.1428 -0.9970
  419SOL     MW 1676   0.541   2.684   1.356  0.3737 -0.2221 -0.4913
  420SOL     OW 1677   0.761   2.230   1.080 -0.1254  0.5632 -0.4430
  420SOL    HW1 1678   0.720   2.249   1.166 -1.0867 -0.2195 -0.4085
  420SOL    HW2 1679   0.785   2.319   1.040 -0.2982  1.1826  0.5498
  420SOL     MW 1680   0.759   2.244   1.086 -0.2750  0.5416 -0.3074
  421SOL     OW 1681   2.938   0.156   3.089 -0.0790 -0.5139 -0.2820
  421SOL    HW1 1682   2.886   0.095   3.033 -3.0787 -0.2983 -0.8213
  421SOL    HW2 1683   2.996   0.102   3.142  0.9319  1.3488 -0.5264
  421SOL     MW 1684   2.939   0.141   3.089 -0.3414 -0.2397 -0.3854
  422SOL     OW 1685   0.822   2.493   0.957  0.1861  0.0108  0.2794
  422SOL    HW1 1686   0.741   2.543   0.988  0.2140 -1.1314  2.0242
  422SOL    HW2 1687   0.807   2.477   0.864 -1.1815 -1.0221  0.3812
  422SOL     MW 1688   0.809   2.498   0.949  0.0093 -0.2762  0.5230
  423SOL     OW 1689   1.473   0.063   0.449 -0.6169 -0.1607  0.2797
  423SOL    HW1 1690   1.514   0.052   0.366  1.0275 -1.3558 -1.1475
  423SOL    HW2 1691   1.507   0.152   0.467  0.9403  0.1678 -3.0279
  423SOL     MW 1692   1.483   0.073   0.440 -0.1945 -0.2751 -0.3450
  424SOL     OW 1693   0.653   2.303   1.324 -0.0631 -0.1557  0.7846
  424SOL    HW1 1694   0.568   2.261   1.301 -0.6344  0.3730 -3.1856
  424SOL    HW2 1695   0.697   2.243   1.387  0.7591  2.3378  2.1017
  424SOL     MW 1696   0.648   2.290   1.329 -0.0300  0.2431  0.4345
  425SOL     OW 1697   1.705   2.768   2.058 -0.5391  0.1548  0.3700
  425SOL    HW1 1698   1.716   2.756   1.962  2.9637  1.0899 -0.2109
  425SOL    HW2 1699   1.726   2.684   2.110 -0.7921  1.3103  1.0071
  425SOL     MW 1700   1.709   2.755   2.052 -0.1103  0.4306  0.3774
  426SOL     OW 1701   0.855   1.750   1.996  0.5919  0.2534 -0.2214
  426SOL    HW1 1702   0.785   1.744   1.932 -1.7472 -0.2870 -0.6864
  426SOL    HW2 1703   0.822   1.819   2.059 -1.4359 -1.7410  2.6201
  426SOL     MW 1704   0.841   1.758   1.996  0.0157 -0.0810  0.0921
  427SOL     OW 1705   0.360   1.698   1.873 -0.4625  0.3988  0.2600
  427SOL    HW1 1706   0.421   1.645   1.819  0.3740 -1.5649 -1.0445
  427SOL    HW2 1707   0.319   1.631   1.936 -0.1266  0.7320 -1.7645
  427SOL     MW 1708   0.363   1.682   1.874 -0.3078  0.1837 -0.1792
  428SOL     OW 1709   0.554   2.580   1.098  0.2249  0.2302  0.2660
  428SOL    HW1 1710   0.496   2.507   1.122  0.6137 -2.6167 -2.3425
  428SOL    HW2 1711   0.528   2.644   1.174 -2.0414 -0.2686  3.2097
  428SOL     MW 1712   0.543   2.579   1.111 -0.0228 -0.2112  0.3103
  429SOL     OW 1713   1.217   2.756   1.146  0.0931 -0.5711 -0.0937
  429SOL    HW1 1714   1.130   2.761   1.181 -0.7219 -1.5362  0.4712
  429SOL    HW2 1715   1.229   2.844   1.111 -1.5828 -0.7616  1.1155
  429SOL     MW 1716   1.207   2.769   1.146 -0.2355 -0.7236  0.1403
  430SOL     OW 1717   1.169   2.713   0.707  0.5861 -0.0254  0.3407
  430SOL    HW1 1718   1.175   2.623   0.734 -2.2604 -1.1314  1.3553
  430SOL    HW2 1719   1.122   2.693   0.617 -0.0755 -0.6956  0.3563
  430SOL     MW 1720   1.164   2.698   0.699  0.1232 -0.2597  0.4766
  431SOL     OW 1721   0.312   1.948   1.132 -0.4850 -0.2974  0.3271
  431SOL    HW1 1722   0.375   1.876   1.099  0.6208 -1.1496  1.1764
  431SOL    HW2 1723   0.264   1.983   1.053 -1.1183  1.2231  1.9099
  431SOL     MW 1724   0.314   1.943   1.117 -0.4227 -0.2092  0.6480
  432SOL     OW 1725   0.041   0.022   1.117 -0.0288  0.4640  0.1639
  432SOL    HW1 1726   0.032   0.075   1.197 -1.1960 -0.4730 -1.6341
  432SOL    HW2 1727  -0.002  -0.063   1.138  0.3510 -1.1158 -1.3124
  432SOL     MW 1728   0.034   0.018   1.130 -0.1327  0.1319 -0.2681
  433SOL     OW 1729   0.670   2.890   1.480 -0.3490  0.1574 -0.3835
  433SOL    HW1 1730   0.645   2.912   1.577  2.0044  1.2009  1.4669
  433SOL    HW2 1731   0.765   2.920   1.484  3.2534  0.8904  0.7468
  433SOL     MW 1732   0.679   2.897   1.494  0.4368  0.3918  0.0097
  434SOL     OW 1733   1.560   2.789   1.560  0.0983  0.3170  0.9613
  434SOL    HW1 1734   1.469   2.809   1.572 -0.5326 -1.9581  1.3968
  434SOL    HW2 1735   1.563   2.762   1.466  1.7640  1.5791  0.5989
  434SOL     MW 1736   1.548   2.788   1.549  0.2348  0.1833  0.9709
  435SOL     OW 1737   2.756   1.766   0.207  0.0750 -0.1178  0.0124
  435SOL    HW1 1738   2.838   1.820   0.183 -1.7200  0.2223  0.9327
  435SOL    HW2 1739   2.688   1.796   0.151  0.9507 -0.0360  3.7351
  435SOL     MW 1740   2.758   1.777   0.196 -0.0463 -0.0621  0.6250
  436SOL     OW 1741   1.415   2.704   0.363 -0.1064  0.2307 -0.3674
  436SOL    HW1 1742   1.416   2.677   0.458 -1.5312 -0.2321  0.0621
  436SOL    HW2 1743   1.369   2.792   0.360 -0.9444 -0.5619  1.5471
  436SOL     MW 1744   1.409   2.712   0.375 -0.4050  0.0651 -0.0581
  437SOL     OW 1745   1.057   2.961   1.324  0.5345  0.4417 -0.0093
  437SOL    HW1 1746   1.069   3.009   1.240 -0.1742 -1.7598  0.4357
  437SOL    HW2 1747   0.998   2.892   1.290  3.4994 -0.4584  0.8360
  437SOL     MW 1748   1.051   2.958   1.309  0.8322  0.0325  0.1610
  438SOL     OW 1749   0.861   2.713   1.913  0.5121  0.8570  0.2214
  438SOL    HW1 1750   0.887   2.653   1.984  1.0272 -1.5522  1.3915
  438SOL    HW2 1751   0.800   2.663   1.853  2.6063  3.9068 -1.7419
  438SOL     MW 1752   0.856   2.698   1.915  0.8564  0.9415  0.1168
  439SOL     OW 1753   1.154   2.096   0.427 -0.2746 -0.0616  0.4483
  439SOL    HW1 1754   1.131   2.163   0.495  1.1858 -1.2101  1.7660
  439SOL    HW2 1755   1.173   2.146   0.343  0.0318 -2.0199  0.3845
  439SOL     MW 1756   1.154   2.112   0.425 -0.0415 -0.4715  0.6138
  440SOL     OW 1757   1.736   2.952   3.071  0.9602  0.0938  0.0559
  440SOL    HW1 1758   1.668   2.963   3.137  1.4181 -1.5829  1.3049
  440SOL    HW2 1759   1.814   2.923   3.120  2.5123 -0.7792  0.7454
  440SOL     MW 1760   1.737   2.950   3.086  1.2254 -0.2426  0.3117
  441SOL     OW 1761   0.363   2.649   0.508  0.0299  0.1433 -0.1677
  441SOL    HW1 1762   0.335   2.596   0.427 -3.7094 -1.5740 -0.6207
  441SOL    HW2 1763   0.381   2.742   0.475 -0.9605 -1.2663 -0.3355
  441SOL     MW 1764   0.362   2.655   0.493 -0.5941 -0.2693 -0.2496
  442SOL     OW 1765   3.086   2.336   0.597  0.2555 -0.8305  0.0825
  442SOL    HW1 1766   3.078   2.420   0.550 -1.5871  1.4918 -1.9769
  442SOL    HW2 1767   3.000   2.317   0.627  2.4963 -1.3635 -0.5554
  442SOL     MW 1768   3.073   2.344   0.594  0.3080 -0.5944 -0.2734
  443SOL     OW 1769   1.505   1.752   1.911 -0.2258  0.3231 -1.0792
  443SOL    HW1 1770   1.465   1.798   1.832 -4.4273  0.3450  0.2522
  443SOL    HW2 1771   1.436   1.700   1.950 -1.9654  0.2300 -1.7379
  443SOL     MW 1772   1.491   1.751   1.906 -1.0097  0.3137 -0.9904
  444SOL     OW 1773   0.937   2.605   1.587  0.1950  0.2137  0.6865
  444SOL    HW1 1774   1.008   2.563   1.636  2.6716 -1.1608 -1.7995
  444SOL    HW2 1775   0.854   2.579   1.634 -1.8430 -0.2299 -0.8033
  444SOL     MW 1776   0.935   2.596   1.600  0.2529 -0.0262  0.1620
  445SOL     OW 1777   1.205   0.156   1.416  0.1639 -0.5301  0.5772
  445SOL    HW1 1778   1.161   0.218   1.478  0.8533  2.6235 -0.0070
  445SOL    HW2 1779   1.188   0.196   1.330  1.4694  1.2584  1.1198
  445SOL     MW 1780   1.197   0.169   1.413  0.4271  0.1219  0.5717
  446SOL     OW 1781   2.801   2.855   1.030  0.0754 -0.0943  0.1369
  446SOL    HW1 1782   2.732   2.908   0.982 -0.4883 -0.6201  1.3022
  446SOL    HW2 1783   2.835   2.777   0.981 -1.5402  1.7969 -1.1751
  446SOL     MW 1784   2.796   2.851   1.017 -0.2121  0.0859  0.1175
  447SOL     OW 1785   0.014   1.978   1.607 -0.1487 -0.2389 -0.7908
  447SOL    HW1 1786   0.037   1.920   1.676 -0.6108  0.3196 -1.4062
  447SOL    HW2 1787  -0.060   1.934   1.553 -0.4017  0.2782 -0.0110
  447SOL     MW 1788   0.007   1.965   1.609 -0.2431 -0.0970 -0.7691
  448SOL     OW 1789   1.777   2.444   1.671  0.4113  0.1955  0.0363
  448SOL    HW1 1790   1.744   2.350   1.664 -1.1032 -0.2202  1.1511
  448SOL    HW2 1791   1.701   2.495   1.689  1.7136  1.1918  0.7066
  448SOL     MW 1792   1.763   2.438   1.672  0.3833  0.2721  0.2718
  449SOL     OW 1793   0.902   2.940   0.376 -0.2269  0.9419 -0.3146
  449SOL    HW1 1794   0.848   2.939   0.297 -0.0158 -1.3847  0.9965
  449SOL    HW2 1795   0.841   2.962   0.448  2.3040  2.1954 -2.5737
  449SOL     MW 1796   0.887   2.942   0.375  0.1349  0.8003 -0.4397
  450SOL     OW 1797   1.186   2.442   0.767  0.0117  0.3713  0.3580
  450SOL    HW1 1798   1.197   2.411   0.856 -1.9660 -0.2457 -0.1342
  450SOL    HW2 1799   1.265   2.411   0.723  0.6335  0.6629  0.8177
  450SOL     MW 1800   1.198   2.434   0.773 -0.1672  0.3284  0.3537
  451SOL     OW 1801   0.590   2.000   1.705 -0.5098  0.1235  0.1089
  451SOL    HW1 1802   0.634   2.086   1.688 -0.4898  0.4687  0.3896
  451SOL    HW2 1803   0.558   1.973   1.615 -3.7493 -1.3199  2.0045
  451SOL     MW 1804   0.591   2.008   1.691 -0.9346 -0.0214  0.3961
  452SOL     OW 1805   0.347   2.631   0.047  0.7134  0.3752  0.3004
  452SOL    HW1 1806   0.428   2.692   0.065 -0.1556 -1.9747  1.0836
  452SOL    HW2 1807   0.275   2.696   0.021 -1.7126  1.3527 -1.4671
  452SOL     MW 1808   0.348   2.648   0.046  0.2787  0.1942  0.1705
  453SOL     OW 1809   0.320   3.076   1.603 -0.7016  0.3553 -0.5163
  453SOL    HW1 1810   0.400   3.037   1.630 -0.2424 -0.5538 -2.4957
  453SOL    HW2 1811   0.335   3.094   1.506  0.3923  1.8337 -2.7728
  453SOL     MW 1812   0.332   3.073   1.594 -0.4967  0.4304 -1.0752
  454SOL     OW 1813   0.932   2.742   1.205  0.1876  0.4877  0.5317
  454SOL    HW1 1814   0.862   2.698   1.245 -1.0580 -1.2616  0.0028
  454SOL    HW2 1815   0.900   2.750   1.113 -1.0571 -1.6415  0.1461
  454SOL     MW 1816   0.919   2.737   1.198 -0.1410 -0.0240  0.4110
  455SOL     OW 1817   1.659   2.885   0.259 -0.0013  0.4552 -0.2025
  455SOL    HW1 1818   1.690   2.835   0.332  1.3268 -2.8313 -1.0676
  455SOL    HW2 1819   1.644   2.811   0.203 -1.3475 -0.4459  2.0675
  455SOL     MW 1820   1.661   2.868   0.261 -0.0037 -0.0973 -0.0171
  456SOL     OW 1821   2.729   0.294   1.516  0.3572 -0.0253 -0.5637
  456SOL    HW1 1822   2.727   0.230   1.447 -1.2416 -0.4434  1.2238
  456SOL    HW2 1823   2.789   0.357   1.485  1.1830 -4.1419 -0.4696
  456SOL     MW 1824   2.737   0.294   1.503  0.2552 -0.6236 -0.3154
  457SOL     OW 1825   0.789   1.615   3.035  0.0865  1.0106  0.1732
  457SOL    HW1 1826   0.693   1.613   3.053  1.1229 -1.2455  0.0226
  457SOL    HW2 1827   0.814   1.670   3.113 -0.6266 -1.1680  0.5931
  457SOL     MW 1828   0.779   1.622   3.048  0.1291  0.4254  0.2088
  458SOL     OW 1829   1.363   1.463   0.680  0.6824  0.0326 -0.1105
  458SOL    HW1 1830   1.307   1.520   0.623 -0.4292  1.9471 -2.3578
  458SOL    HW2 1831   1.333   1.376   0.653 -1.4127  2.1219 -3.2608
  458SOL     MW 1832   1.351   1.459   0.669  0.2593  0.5608 -0.8226
  459SOL     OW 1833   1.545   0.039   0.200  0.2434 -0.1631  0.1063
  459SOL    HW1 1834   1.562  -0.053   0.193 -0.3326 -1.0958  2.0048
  459SOL    HW2 1835   1.492   0.061   0.119  1.5905 -1.3124  0.5494
  459SOL     MW 1836   1.540   0.029   0.189  0.3452 -0.4378  0.4152
  460SOL     OW 1837   1.797   2.181   0.671 -0.3275  0.1922  0.7650
  460SOL    HW1 1838   1.700   2.177   0.681  0.2336  1.4254  1.0570
  460SOL    HW2 1839   1.820   2.093   0.641 -0.6415  1.2688 -1.4026
  460SOL     MW 1840   1.787   2.169   0.669 -0.2949  0.4970  0.5175
  461SOL     OW 1841   0.468   2.427   0.617 -0.0222 -0.6702 -0.2149
  461SOL    HW1 1842   0.435   2.505   0.578  3.2636 -0.8375 -0.0890
  461SOL    HW2 1843   0.443   2.440   0.707  0.0374  0.5360 -2.2851
  461SOL     MW 1844   0.460   2.439   0.624  0.4192 -0.5331 -0.4714
  462SOL     OW 1845   0.336   0.234   1.284  0.0404 -0.1548  0.6885
  462SOL    HW1 1846   0.394   0.224   1.204  0.3555 -0.4210  2.2751
  462SOL    HW2 1847   0.392   0.257   1.363 -0.2894  1.2183 -2.5562
  462SOL     MW 1848   0.351   0.236   1.284  0.0385 -0.0088  0.4697
  463SOL     OW 1849   1.021   0.066   0.711  0.5063 -0.0336  0.0968
  463SOL    HW1 1850   1.066   0.050   0.629 -0.1727 -0.3578  2.6076
  463SOL    HW2 1851   0.928   0.089   0.691  3.2023  0.1623  3.2766
  463SOL     MW 1852   1.015   0.067   0.697  0.7724 -0.0505  0.8477
  464SOL     OW 1853   0.788   3.036   2.233 -0.0042  0.2386  0.4046
  464SOL    HW1 1854   0.786   2.945   2.262 -0.6746 -0.4161 -1.6770
  464SOL    HW2 1855   0.811   3.088   2.305 -0.4381  0.2927  0.9000
  464SOL     MW 1856   0.790   3.031   2.246 -0.1499  0.1593  0.1953
  465SOL     OW 1857   0.866   0.319   0.410  0.3137  0.7659  0.1026
  465SOL    HW1 1858   0.822   0.267   0.476  0.0242 -0.3842 -2.9230
  465SOL    HW2 1859   0.838   0.273   0.326 -1.1082 -0.8695 -2.2044
  465SOL     MW 1860   0.856   0.306   0.408  0.0879  0.3984 -0.6010
  466SOL     OW 1861   1.031   2.050   0.768  0.4915 -0.0441 -0.6694
  466SOL    HW1 1862   1.058   1.980   0.713  0.2970  1.9587 -1.9129
  466SOL    HW2 1863   1.049   2.132   0.708 -1.4517 -0.5354 -1.1265
  466SOL     MW 1864   1.037   2.052   0.753  0.2095  0.1553 -0.8937
  467SOL     OW 1865   1.255   2.357   1.005  0.3892  0.2404 -0.0709
  467SOL    HW1 1866   1.350   2.370   1.010  0.0927  0.3303  0.3066
  467SOL    HW2 1867   1.246   2.262   0.987 -1.6828 -0.6311 -1.5705
  467SOL     MW 1868   1.267   2.346   1.003  0.0767  0.1372 -0.2190
  468SOL     OW 1869   0.461   2.674   1.893 -0.5214  0.1147 -0.8801
  468SOL    HW1 1870   0.455   2.586   1.850 -0.9796 -0.2285  1.3042
  468SOL    HW2 1871   0.401   2.732   1.848 -2.5827  1.5610  0.0511
  468SOL     MW 1872   0.452   2.670   1.882 -0.8538  0.2603 -0.4690
  469SOL     OW 1873   0.392   2.142   1.866  0.2649  0.5641  0.3896
  469SOL    HW1 1874   0.300   2.110   1.855 -0.9695 -0.2139  1.1103
  469SOL    HW2 1875   0.447   2.087   1.809 -1.8901  1.2333  0.4911
  469SOL     MW 1876   0.387   2.130   1.857 -0.1823  0.5498  0.4981
  470SOL     OW 1877   3.093   2.580   0.161 -0.1639  0.3314 -0.4913
  470SOL    HW1 1878   3.009   2.588   0.216 -1.2513 -0.1564 -1.6513
  470SOL    HW2 1879   3.061   2.589   0.071 -1.1146  2.1079 -3.6370
  470SOL     MW 1880   3.077   2.583   0.157 -0.4328  0.5014 -1.0594
  471SOL     OW 1881   1.187   2.556   1.385 -0.2208 -0.5135  0.2156
  471SOL    HW1 1882   1.116   2.501   1.425 -1.7198 -0.7339  1.4610
  471SOL    HW2 1883   1.164   2.533   1.293 -1.1177 -0.8560 -2.2110
  471SOL     MW 1884   1.174   2.546   1.378 -0.5369 -0.5878  0.0598
  472SOL     OW 1885   2.790   2.080   0.360  0.0216  0.1898  0.5187
  472SOL    HW1 1886   2.818   2.047   0.274 -0.1001 -1.8187 -1.2590
  472SOL    HW2 1887   2.777   1.996   0.411 -1.4493  0.7821  0.1899
  472SOL     MW 1888   2.792   2.065   0.356 -0.1885  0.0030  0.2408
  473SOL     OW 1889   0.781   2.538   1.350 -0.6416  0.2320  0.2597
  473SOL    HW1 1890   0.761   2.446   1.328  0.5098 -1.4040  1.5684
  473SOL    HW2 1891   0.839   2.537   1.423 -0.4457  0.1073  1.5374
  473SOL     MW 1892   0.786   2.526   1.357 -0.4639 -0.0003  0.6009
  474SOL     OW 1893   0.729   2.279   1.760 -0.4950  0.5302 -0.6561
  474SOL    HW1 1894   0.809   2.307   1.806 -0.1859  0.9490  0.6012
  474SOL    HW2 1895   0.758   2.263   1.666  0.1813  0.4119 -1.9579
  474SOL     MW 1896   0.743   2.281   1.754 -0.3650  0.5698 -0.6620
  475SOL     OW 1897   1.627   3.087   1.448 -0.0734  0.7292  0.7429
  475SOL    HW1 1898   1.543   3.095   1.402 -1.2049 -3.1197 -2.3815
  475SOL    HW2 1899   1.623   2.999   1.483  0.5952  1.7201  0.1035
  475SOL     MW 1900   1.615   3.077   1.446 -0.1344  0.3521  0.2463
  476SOL     OW 1901   1.416   2.616   1.061  0.1243 -0.2084  1.0160
  476SOL    HW1 1902   1.334   2.654   1.099 -1.3602  0.9386 -1.9957
  476SOL    HW2 1903   1.430   2.684   0.996 -1.1085  0.8677  0.2547
  476SOL     MW 1904   1.407   2.630   1.058 -0.2342  0.0849  0.5182
  477SOL     OW 1905   0.779   2.537   0.643  0.8434  0.7401  0.0269
  477SOL    HW1 1906   0.846   2.586   0.598 -1.3972  3.4768 -0.3570
  477SOL    HW2 1907   0.766   2.445   0.604  1.0734  1.5583 -0.9502
  477SOL     MW 1908   0.786   2.531   0.632  0.5781  1.2091 -0.1526
  478SOL     OW 1909   0.145   2.685   0.885 -0.8921 -0.1051  0.4108
  478SOL    HW1 1910   0.190   2.769   0.876 -0.3756 -1.4112  1.9346
  478SOL    HW2 1911   0.207   2.613   0.884  1.4822  3.0482 -1.3556
  478SOL     MW 1912   0.159   2.687   0.883 -0.5107  0.1386  0.3788
  479SOL     OW 1913   1.458   1.989   1.276 -0.2305  0.8551 -0.1011
  479SOL    HW1 1914   1.468   2.026   1.367 -0.0577  0.5505  2.3789
  479SOL    HW2 1915   1.489   1.897   1.290 -1.8468 -2.2537  1.3396
  479SOL     MW 1916   1.464   1.982   1.290 -0.4210  0.4047  0.4162
  480SOL     OW 1917   1.967   2.443   1.280  0.7864 -0.0022  0.2498
  480SOL    HW1 1918   1.929   2.360   1.306  1.2254  0.2165 -1.1723
  480SOL    HW2 1919   2.010   2.429   1.195  0.3338  0.5261 -2.2393
  480SOL     MW 1920   1.968   2.430   1.272  0.7846  0.0964 -0.2663
  481SOL     OW 1921   1.054   0.006   1.094  0.1623  0.5509  0.0058
  481SOL    HW1 1922   1.118  -0.039   1.034  1.7698  2.1351 -0.6010
  481SOL    HW2 1923   1.084   0.099   1.093 -0.5120  1.7091 -3.8195
  481SOL     MW 1924   1.067   0.012   1.086  0.2854  0.9128 -0.5789
  482SOL     OW 1925   1.079   3.096   0.246  0.4132 -0.0013  0.5890
  482SOL    HW1 1926   1.011   3.043   0.293 -2.5279 -0.1481  0.2644
  482SOL    HW2 1927   1.081   3.171   0.301 -0.6601 -1.9968 -1.2062
  482SOL     MW 1928   1.071   3.099   0.260 -0.1165 -0.2840  0.3093
  483SOL     OW 1929   0.415   2.911   0.417  0.7119  0.0457 -0.4734
  483SOL    HW1 1930   0.336   2.930   0.360 -1.3944  0.5938 -0.8029
  483SOL    HW2 1931   0.390   2.948   0.504 -0.6215  0.9986 -1.4685
  483SOL     MW 1932   0.402   2.918   0.421  0.2580  0.2437 -0.6482
  484SOL     OW 1933   1.899   1.917   1.480  0.2551  0.9427  0.1523
  484SOL    HW1 1934   1.910   1.998   1.437  0.8308 -1.2432 -1.4517
  484SOL    HW2 1935   1.870   1.946   1.565 -2.4241  4.1157 -3.6529
  484SOL     MW 1936   1.896   1.931   1.486 -0.0224  1.0729 -0.5614
  485SOL     OW 1937   0.528   2.329   0.231  1.0000 -0.4996  0.5953
  485SOL    HW1 1938   0.531   2.270   0.301 -1.4873 -0.7718  2.1399
  485SOL    HW2 1939   0.461   2.398   0.260 -0.7170  0.1713  1.2968
  485SOL     MW 1940   0.519   2.330   0.244  0.4453 -0.4470  0.8916
  486SOL     OW 1941   0.160   2.338   1.484 -0.1284 -0.1758 -0.0894
  486SOL    HW1 1942   0.174   2.430   1.475 -0.9773  0.6985 -0.7180
  486SOL    HW2 1943   0.110   2.330   1.564 -2.0380 -0.1668 -2.4249
  486SOL     MW 1944   0.155   2.349   1.493 -0.4924 -0.0593 -0.4805
  487SOL     OW 1945   1.215   1.668   1.070 -0.0199 -0.1819 -0.0681
  487SOL    HW1 1946   1.197   1.759   1.107  2.4003 -3.1533 -0.1947
  487SOL    HW2 1947   1.293   1.674   1.013  1.4086  1.6607  0.1359
  487SOL     MW 1948   1.223   1.681   1.067  0.4879 -0.3309 -0.0579
  488SOL     OW 1949   1.621   1.879   0.519 -0.1063 -0.2812  0.4679
  488SOL    HW1 1950   1.691   1.896   0.451 -0.7551 -0.4354 -1.1519
  488SOL    HW2 1951   1.569   1.958   0.500  1.4333  0.5121  0.3689
  488SOL     MW 1952   1.624   1.892   0.508  0.0112 -0.1968  0.2411
  489SOL     OW 1953   0.752   0.775   0.551  0.7000 -0.3221  0.6395
  489SOL    HW1 1954   0.776   0.700   0.495  2.2286 -1.5455  0.7297
  489SOL    HW2 1955   0.751   0.749   0.647  0.2643 -0.7278 -0.0080
  489SOL     MW 1956   0.755   0.762   0.556  0.8442 -0.5370  0.5659
  490SOL     OW 1957   1.425   2.082   0.475  0.4971 -0.2176  0.2093
  490SOL    HW1 1958   1.447   2.136   0.398 -0.2580 -1.1383  1.8116
  490SOL    HW2 1959   1.329   2.084   0.473 -0.8118  2.2652  3.4519
  490SOL     MW 1960   1.415   2.089   0.465  0.2248 -0.0115  0.8485
  491SOL     OW 1961   1.280   2.943   0.386 -0.4275 -0.3317  0.2156
  491SOL    HW1 1962   1.339   3.007   0.424  2.0989 -0.8417  1.9188
  491SOL    HW2 1963   1.206   2.997   0.353 -1.1552 -1.0765 -0.1121
  491SOL     MW 1964   1.278   2.959   0.387 -0.1902 -0.4972  0.3971
  492SOL     OW 1965   1.506   2.143   0.719  0.0908  0.0631 -0.2693
  492SOL    HW1 1966   1.475   2.090   0.646  2.0411  1.3450 -1.8345
  492SOL    HW2 1967   1.440   2.142   0.785  2.2724  1.3927 -2.3959
  492SOL     MW 1968   1.493   2.136   0.718  0.6360  0.4076 -0.7564
  493SOL     OW 1969   0.186   3.013   0.301 -0.1979  0.4133  0.0655
  493SOL    HW1 1970   0.158   3.066   0.375  0.6512 -1.4619  0.7396
  493SOL    HW2 1971   0.203   3.074   0.224  3.1746 -0.4739  2.2707
  493SOL     MW 1972   0.184   3.028   0.300  0.3591  0.0488  0.4454
  494SOL     OW 1973   0.399   2.413   1.779  0.4895 -0.6920  0.1154
  494SOL    HW1 1974   0.411   2.324   1.813  1.0009  0.9335  1.0121
  494SOL    HW2 1975   0.421   2.409   1.683  0.4461  0.7386  1.1500
  494SOL     MW 1976   0.404   2.400   1.771  0.5512 -0.2888  0.3702
  495SOL     OW 1977   2.900   1.641   2.623  0.1098 -0.0034  0.3872
  495SOL    HW1 1978   2.883   1.727   2.584 -0.3383  1.0446 -2.6217
  495SOL    HW2 1979   2.884   1.644   2.718  1.4346 -1.4213  0.5573
  495SOL     MW 1980   2.895   1.652   2.631  0.2254 -0.0522  0.0126
  496SOL     OW 1981   2.913   2.382   2.685 -0.5501  0.0958  0.2324
  496SOL    HW1 1982   2.974   2.315   2.730  1.9100 -1.0348  2.7567
  496SOL    HW2 1983   2.975   2.452   2.665  0.3864 -1.8694  1.3469
  496SOL     MW 1984   2.929   2.382   2.688 -0.1019 -0.3127  0.7125
  497SOL     OW 1985   1.629   2.228   2.609  0.2195 -0.5042 -0.3448
  497SOL    HW1 1986   1.549   2.207   2.558  1.1545 -1.4008 -1.2421
  497SOL    HW2 1987   1.617   2.166   2.677 -0.0472  0.7343 -1.4155
  497SOL     MW 1988   1.617   2.217   2.612  0.3077 -0.4591 -0.6044
  498SOL     OW 1989   1.439   2.704   2.324  0.0719  0.1357 -0.3850
  498SOL    HW1 1990   1.443   2.601   2.333 -3.0438 -2.2290 -2.3982
  498SOL    HW2 1991   1.533   2.730   2.331  0.0889 -0.9132  0.5751
  498SOL     MW 1992   1.452   2.694   2.326 -0.3370 -0.3147 -0.5239
  499SOL     OW 1993   0.996   0.143  -0.002  0.0594  0.3032 -0.6496
  499SOL    HW1 1994   0.917   0.179   0.052  0.6775  0.3307  0.7320
  499SOL    HW2 1995   1.024   0.053   0.034  0.7970 -1.2372 -0.8070
  499SOL     MW 1996   0.989   0.136   0.010  0.2383  0.1036 -0.4881
  500SOL     OW 1997   1.062   2.554   2.801  0.3610  0.0778 -0.4178
  500SOL    HW1 1998   1.098   2.515   2.885  0.5450 -0.1228  0.6811
  500SOL    HW2 1999   0.973   2.582   2.828 -0.8179 -2.8475 -0.5434
  500SOL     MW 2000   1.055   2.552   2.816  0.2297 -0.3347 -0.2894
  501SOL     OW 2001   1.821   2.206   3.062  0.2763  0.5203 -0.2711
  501SOL    HW1 2002   1.800   2.293   3.111 -2.1902  0.1405  0.2756
  501SOL    HW2 2003   1.914   2.203   3.052  1.2716  1.6413  1.9685
  501SOL     MW 2004   1.830   2.217   3.067  0.0822  0.6181  0.0965
  502SOL     OW 2005   0.157   2.808   3.061  0.1401  0.3311  0.1222
  502SOL    HW1 2006   0.092   2.751   3.023  0.1343  2.0689 -0.8183
  502SOL    HW2 2007   0.206   2.827   2.978  0.5642  0.3289  0.5094
  502SOL     MW 2008   0.155   2.803   3.045  0.1953  0.5601  0.0492
  503SOL     OW 2009   1.094   2.776   2.152 -0.9005 -0.0563  0.0972
  503SOL    HW1 2010   1.034   2.713   2.122 -0.7709 -2.0775 -1.3502
  503SOL    HW2 2011   1.067   2.855   2.106  0.3114  2.1537  4.0307
  503SOL     MW 2012   1.083   2.778   2.142 -0.7235 -0.0314  0.4252
  504SOL     OW 2013   0.097   2.697   2.133 -0.3674 -0.3093 -0.5216
  504SOL    HW1 2014   0.137   2.624   2.090 -1.0479 -0.1474 -2.2779
  504SOL    HW2 2015   0.039   2.650   2.191 -0.0014 -3.2408  2.2929
  504SOL     MW 2016   0.095   2.681   2.135 -0.4089 -0.6748 -0.3820
  505SOL     OW 2017   1.687   2.686   2.728  0.2379 -0.5731 -0.0468
  505SOL    HW1 2018   1.664   2.685   2.631 -0.7548 -0.7280 -2.0358
  505SOL    HW2 2019   1.640   2.762   2.765  0.8793  2.8837 -3.3231
  505SOL     MW 2020   1.678   2.696   2.720  0.1916 -0.1374 -0.7415
  506SOL     OW 2021   1.582   3.062   2.832 -0.2576 -0.4111  0.1324
  506SOL    HW1 2022   1.604   3.051   2.926  1.5078 -0.9849 -0.6285
  506SOL    HW2 2023   1.666   3.048   2.787  1.1153 -0.8161  0.3077
  506SOL     MW 2024   1.596   3.059   2.839  0.1565 -0.5402  0.0551
  507SOL     OW 2025   0.891   2.776   2.855 -0.6715 -0.4968  0.0482
  507SOL    HW1 2026   0.902   2.877   2.835 -0.2842 -1.6873 -2.2210
  507SOL    HW2 2027   0.796   2.771   2.850 -0.8257 -0.3798 -1.9138
  507SOL     MW 2028   0.880   2.789   2.852 -0.6408 -0.6384 -0.5101
  508SOL     OW 2029   1.143   2.078   2.524 -0.0393 -0.1068  0.2693
  508SOL    HW1 2030   1.236   2.060   2.546 -0.7852  1.7150  0.8188
  508SOL    HW2 2031   1.130   2.161   2.577 -0.5552 -1.0655 -1.7836
  508SOL     MW 2032   1.153   2.087   2.534 -0.2058  0.0071  0.0710
  509SOL     OW 2033   0.594   2.548   2.792  0.0135 -0.4893  0.8716
  509SOL    HW1 2034   0.592   2.515   2.706 -0.5053  0.3240  0.5114
  509SOL    HW2 2035   0.510   2.538   2.834  1.9060 -1.1302  2.1050
  509SOL     MW 2036   0.582   2.542   2.786  0.1947 -0.4665  0.9868
  510SOL     OW 2037   1.518   2.554   1.696  0.4519  0.3871  0.4241
  510SOL    HW1 2038   1.546   2.642   1.655  0.0499  2.5352 -0.9320
  510SOL    HW2 2039   1.470   2.590   1.779  0.9074  1.4591 -0.1378
  510SOL     MW 2040   1.515   2.571   1.701  0.4589  0.8120  0.1710
  511SOL     OW 2041   0.470   2.653   2.442 -0.3752  0.1828  0.2460
  511SOL    HW1 2042   0.527   2.579   2.445  1.1680  1.9989 -1.7299
  511SOL    HW2 2043   0.469   2.648   2.347  0.8008  0.4853  2.1686
  511SOL     MW 2044   0.477   2.643   2.429 -0.0164  0.4623  0.2389
  512SOL     OW 2045   1.074   2.005   2.818 -0.0638  0.1770  0.4046
  512SOL    HW1 2046   0.993   2.044   2.851  1.2112 -0.2009  1.6061
  512SOL    HW2 2047   1.069   1.912   2.850 -0.9248 -1.6286 -0.5150
  512SOL     MW 2048   1.062   1.998   2.827 -0.0092 -0.1111  0.4418
  513SOL     OW 2049   1.536   2.446   2.310 -0.3739 -0.4288  0.3490
  513SOL    HW1 2050   1.620   2.463   2.273 -1.9597  3.1056  4.4775
  513SOL    HW2 2051   1.571   2.413   2.391 -2.4063 -0.5764 -0.3003
  513SOL     MW 2052   1.551   2.444   2.316 -0.8513  0.0181  0.8080
  514SOL     OW 2053   0.280   2.538   2.614 -0.1014 -0.1317 -1.0159
  514SOL    HW1 2054   0.324   2.573   2.534 -0.8895 -0.1380  0.7227
  514SOL    HW2 2055   0.328   2.580   2.687  0.1383  0.6010 -0.2791
  514SOL     MW 2056   0.292   2.548   2.613 -0.1738 -0.0359 -0.6893
  515SOL     OW 2057   1.101   2.099   1.779 -0.5974 -0.6924 -0.1140
  515SOL    HW1 2058   1.043   2.172   1.813 -1.8576 -0.7826  0.0975
  515SOL    HW2 2059   1.175   2.098   1.836 -0.2157  1.8528  1.3331
  515SOL     MW 2060   1.103   2.108   1.791 -0.7133 -0.3685  0.1049
  516SOL     OW 2061   1.477   2.465   3.045 -0.2666  0.5514  0.3362
  516SOL    HW1 2062   1.514   2.458   2.962 -0.7613  0.4997  1.5897
  516SOL    HW2 2063   1.384   2.448   3.024  1.5985  0.2586 -1.7144
  516SOL     MW 2064   1.470   2.462   3.031 -0.0858  0.5059  0.2310
  517SOL     OW 2065   0.625   2.458   2.162 -0.1519 -0.1341 -0.2011
  517SOL    HW1 2066   0.572   2.542   2.178  1.7414  2.2696  3.1264
  517SOL    HW2 2067   0.557   2.409   2.120  1.1192  1.3953  0.3457
  517SOL     MW 2068   0.609   2.462   2.159  0.2656  0.3848  0.3101
  518SOL     OW 2069   1.883   0.169   3.005  0.5686 -0.6877 -0.3850
  518SOL    HW1 2070   1.846   0.237   2.949  0.2055 -1.3531 -0.0824
  518SOL    HW2 2071   1.815   0.148   3.075 -0.9888  1.8059 -1.8048
  518SOL     MW 2072   1.869   0.175   3.007  0.3152 -0.4465 -0.5324
  519SOL     OW 2073   0.692   2.547   1.710  0.6601 -0.3841 -0.6069
  519SOL    HW1 2074   0.680   2.461   1.741  0.9426  1.0095  1.4913
  519SOL    HW2 2075   0.617   2.552   1.644 -3.1867  3.5404  0.9029
  519SOL     MW 2076   0.680   2.536   1.706  0.1898  0.3175 -0.1309
  520SOL     OW 2077   1.292   2.139   2.915 -0.0655  0.1976  0.1424
  520SOL    HW1 2078   1.219   2.082   2.879  0.9232 -1.2339 -0.7727
  520SOL    HW2 2079   1.314   2.084   2.993  0.4109  0.2745  1.6438
  520SOL     MW 2080   1.285   2.124   2.920  0.1278  0.0189  0.2198
  521SOL     OW 2081   1.695   2.072   2.286  0.3738  0.0314  0.6568
  521SOL    HW1 2082   1.706   2.119   2.198 -0.2691  0.9876  0.4561
  521SOL    HW2 2083   1.711   1.976   2.274  2.5320  0.6510 -1.7090
  521SOL     MW 2084   1.699   2.066   2.273  0.5737  0.2393  0.3182
  522SOL     OW 2085   2.848   2.565   2.170  0.0056 -0.2942 -0.1885
  522SOL    HW1 2086   2.916   2.523   2.219  0.6828 -0.6034  3.5706
  522SOL    HW2 2087   2.782   2.589   2.237 -1.7853  1.6751  1.0074
  522SOL     MW 2088   2.849   2.563   2.185 -0.1414 -0.0751  0.4652
  523SOL     OW 2089   0.873   1.523   2.141  0.0687 -0.2350 -0.4125
  523SOL    HW1 2090   0.850   1.600   2.090 -1.3555 -1.2316  1.5009
  523SOL    HW2 2091   0.928   1.474   2.078 -0.2703  2.6726 -0.2271
  523SOL     MW 2092   0.877   1.527   2.126 -0.1639  0.0171 -0.1356
  524SOL     OW 2093   0.853   2.416   2.917  0.2526 -0.0098 -0.6600
  524SOL    HW1 2094   0.784   2.449   2.861  0.2493 -0.4569 -1.1469
  524SOL    HW2 2095   0.854   2.322   2.905  0.8436  1.5044  1.6265
  524SOL     MW 2096   0.844   2.408   2.908  0.3301  0.1310 -0.4225
  525SOL     OW 2097   0.383   2.256   2.119 -0.0856 -0.3808  0.0304
  525SOL    HW1 2098   0.322   2.215   2.175 -1.5930  1.2912 -0.1625
  525SOL    HW2 2099   0.390   2.204   2.036 -0.3671  0.8654 -0.8660
  525SOL     MW 2100   0.376   2.244   2.115 -0.3217  0.0043 -0.1133
  526SOL     OW 2101   0.672   2.045   2.021  0.1633  0.3217 -0.3541
  526SOL    HW1 2102   0.685   2.096   1.937 -2.4251  1.3558 -3.2657
  526SOL    HW2 2103   0.694   2.111   2.092  1.9619  0.1483  0.5222
  526SOL     MW 2104   0.677   2.060   2.019  0.0591  0.4353 -0.6227
  527SOL     OW 2105   1.329   1.984   1.999 -0.4764 -0.2499 -0.1086
  527SOL    HW1 2106   1.287   1.969   2.083  0.0104  1.6104  1.3331
  527SOL    HW2 2107   1.358   1.895   1.976 -0.2152  0.7359  1.0464
  527SOL     MW 2108   1.327   1.970   2.007 -0.3777  0.1256  0.2340
  528SOL     OW 2109   0.630   2.867   2.916  0.1714 -0.5551  0.3633
  528SOL    HW1 2110   0.659   2.954   2.939 -0.6595 -2.4654  1.0669
  528SOL    HW2 2111   0.571   2.878   2.844  2.1342  1.9755 -1.0013
  528SOL     MW 2112   0.626   2.880   2.909  0.3207 -0.4732  0.2761
  529SOL     OW 2113   0.953   2.365   1.902 -0.0797  0.3055  0.6121
  529SOL    HW1 2114   1.000   2.340   1.985  3.3823  1.2428  1.2347
  529SOL    HW2 2115   1.021   2.422   1.853 -1.5069 -3.8652 -3.2885
  529SOL     MW 2116   0.968   2.369   1.907  0.1887 -0.1211  0.1796
  530SOL     OW 2117   1.188   2.420   3.032 -0.3485 -0.0371 -0.2214
  530SOL    HW1 2118   1.116   2.437   3.091  2.8783 -1.6458 -0.8709
  530SOL    HW2 2119   1.184   2.335   2.993 -1.0235 -0.0651  0.9212
  530SOL     MW 2120   1.178   2.411   3.035 -0.0118 -0.2531 -0.1564
  531SOL     OW 2121   0.951   1.863   2.557  0.4529 -0.1013  0.5790
  531SOL    HW1 2122   1.012   1.936   2.549 -0.9481  2.0179 -0.9886
  531SOL    HW2 2123   0.944   1.858   2.646 -0.9657  1.5189 -4.3120
  531SOL     MW 2124   0.958   1.872   2.568  0.0809  0.3921 -0.2731
  532SOL     OW 2125   1.740   0.330   2.832 -0.6453 -0.2142 -0.0462
  532SOL    HW1 2126   1.752   0.259   2.773 -0.9994  0.8300  1.1006
  532SOL    HW2 2127   1.808   0.387   2.812 -1.5201  0.6350  1.8240
  532SOL     MW 2128   1.751   0.328   2.822 -0.8074  0.0356  0.3519
  533SOL     OW 2129   1.843   2.656   3.031 -0.2713 -0.0140 -0.0242
  533SOL    HW1 2130   1.815   2.571   3.055  0.4213  3.3909 -2.2241
  533SOL    HW2 2131   1.760   2.709   3.037  0.0474  1.7227 -0.5016
  533SOL     MW 2132   1.828   2.651   3.035 -0.1379  0.6644 -0.3774
  534SOL     OW 2133   1.789   2.436   2.515  0.3849  0.5556 -0.5968
  534SOL    HW1 2134   1.730   2.367   2.554 -1.6026 -2.3822 -0.1036
  534SOL    HW2 2135   1.855   2.446   2.585 -1.3148  1.3768 -1.1917
  534SOL     MW 2136   1.790   2.428   2.530 -0.1016  0.2763 -0.6102
  535SOL     OW 2137   1.913   2.407   1.908 -0.0367  0.0127 -0.5061
  535SOL    HW1 2138   1.871   2.434   1.827 -0.0304 -2.3992  1.6437
  535SOL    HW2 2139   2.002   2.386   1.889  0.4536  0.6452 -1.1415
  535SOL     MW 2140   1.919   2.408   1.895  0.0288 -0.2221 -0.3063
  536SOL     OW 2141   0.528   1.828   2.039  0.6625  0.1609 -0.1575
  536SOL    HW1 2142   0.469   1.792   1.969  3.7857 -1.7874  0.2433
  536SOL    HW2 2143   0.566   1.915   2.010  2.8836  0.2571 -1.4864
  536SOL     MW 2144   0.525   1.834   2.026  1.3676 -0.0835 -0.2799
  537SOL     OW 2145   1.088   0.188   2.825 -0.1744  0.5279  0.1735
  537SOL    HW1 2146   1.040   0.231   2.896  0.0722 -1.1445 -0.3723
  537SOL    HW2 2147   1.082   0.260   2.757 -1.7631  0.0468 -0.9966
  537SOL     MW 2148   1.081   0.203   2.826 -0.3515  0.2438 -0.0529
  538SOL     OW 2149   1.417   0.087   3.079  0.3708 -0.1820 -0.2174
  538SOL    HW1 2150   1.408   0.179   3.114  0.6345 -1.4649 -0.9973
  538SOL    HW2 2151   1.335   0.039   3.100  0.2527 -1.8579  2.9497
  538SOL     MW 2152   1.405   0.093   3.086  0.3900 -0.5724  0.0976
  539SOL     OW 2153   0.747   2.815   2.576 -0.5006 -0.0205 -0.2947
  539SOL    HW1 2154   0.826   2.872   2.570  1.3954 -1.3863  0.7097
  539SOL    HW2 2155   0.774   2.744   2.641  2.9550 -0.3065 -0.4191
  539SOL     MW 2156   0.761   2.813   2.584  0.2055 -0.2384 -0.1786
  540SOL     OW 2157   0.357   2.504   2.907 -0.3409 -0.3992 -0.1694
  540SOL    HW1 2158   0.367   2.542   2.997  3.2381  1.0343  0.9736
  540SOL    HW2 2159   0.329   2.410   2.928  1.5121 -4.6236  1.0188
  540SOL     MW 2160   0.355   2.497   2.921  0.3758 -0.7675  0.1382
  541SOL     OW 2161   0.193   2.941   2.207  0.6265 -0.0817 -0.4571
  541SOL    HW1 2162   0.160   2.861   2.163 -1.4285  2.7118 -1.9388
  541SOL    HW2 2163   0.235   2.905   2.287  1.8439  1.0382  0.2286
  541SOL     MW 2164   0.194   2.925   2.212  0.5160  0.4347 -0.5621
  542SOL     OW 2165   1.058   2.292   2.677 -0.2306 -0.5420  0.2542
  542SOL    HW1 2166   1.034   2.233   2.746 -0.6308 -0.0263 -0.1571
  542SOL    HW2 2167   1.050   2.381   2.715 -1.4203  0.9342 -0.1754
  542SOL     MW 2168   1.054   2.296   2.691 -0.4404 -0.2792  0.1432
  543SOL     OW 2169   1.710   2.443   2.820  0.4700 -0.0629 -0.3528
  543SOL    HW1 2170   1.683   2.388   2.744 -1.0365 -1.9387 -0.0653
  543SOL    HW2 2171   1.713   2.534   2.791 -1.5668  1.1028 -2.0931
  543SOL     MW 2172   1.707   2.448   2.806  0.0025 -0.1566 -0.5445
  544SOL     OW 2173   0.761   0.137   2.742  0.5185 -0.4712  0.7748
  544SOL    HW1 2174   0.676   0.172   2.767 -0.3263  1.5841  3.7903
  544SOL    HW2 2175   0.767   0.119   2.649  0.2877  0.1865  2.1242
  544SOL     MW 2176   0.751   0.139   2.733  0.3766 -0.1132  1.3507
  545SOL     OW 2177   1.470   2.182   2.394 -0.4803  0.2237 -0.6534
  545SOL    HW1 2178   1.435   2.225   2.316 -2.3772  1.6600 -2.1077
  545SOL    HW2 2179   1.558   2.142   2.365  1.4179 -1.0397 -2.7494
  545SOL     MW 2180   1.477   2.182   2.380 -0.4801  0.2465 -1.1218
  546SOL     OW 2181   2.905   2.003   0.126  0.7053  0.0442 -0.3652
  546SOL    HW1 2182   2.905   2.079   0.065  0.5324 -0.3475  0.9036
  546SOL    HW2 2183   2.995   1.968   0.110  1.4393  2.0952  0.5559
  546SOL     MW 2184   2.917   2.009   0.116  0.7793  0.2631 -0.0763
  547SOL     OW 2185   0.164   0.093   0.099  0.1705 -0.8798 -0.0537
  547SOL    HW1 2186   0.213   0.098   0.024 -0.5540 -2.2151  1.5763
  547SOL    HW2 2187   0.101   0.023   0.077 -0.4832 -0.4902 -0.6720
  547SOL     MW 2188   0.162   0.084   0.086 -0.0114 -1.0046  0.0798
  548SOL     OW 2189   0.331   2.501   0.281 -0.1748 -0.3095 -0.5458
  548SOL    HW1 2190   0.337   2.532   0.191  0.5971 -2.5875  2.8544
  548SOL    HW2 2191   0.253   2.442   0.269  1.7579  1.4219 -1.9549
  548SOL     MW 2192   0.322   2.498   0.268  0.1821 -0.3816 -0.2831
  549SOL     OW 2193   0.846   1.933   2.208  0.0676  0.0002 -0.0828
  549SOL    HW1 2194   0.789   1.968   2.143  0.6952  0.7887 -0.1851
  549SOL    HW2 2195   0.793   1.905   2.281  1.4765 -2.0557  4.0823
  549SOL     MW 2196   0.832   1.934   2.209  0.3363 -0.1670  0.4532
  550SOL     OW 2197   1.826   1.753   2.547 -0.1738 -0.5146  0.1172
  550SOL    HW1 2198   1.828   1.781   2.457  2.4118 -0.5096 -1.8904
  550SOL    HW2 2199   1.825   1.831   2.602  2.0860 -0.6464 -0.2581
  550SOL     MW 2200   1.826   1.767   2.543  0.4655 -0.5313 -0.1972
  551SOL     OW 2201   0.897   2.272   0.247  0.2322 -0.1323  0.3926
  551SOL    HW1 2202   0.988   2.233   0.248  0.4583 -2.7757 -0.5032
  551SOL    HW2 2203   0.860   2.213   0.185  1.1074 -0.3983 -1.2982
  551SOL     MW 2204   0.904   2.259   0.239  0.3775 -0.5162  0.0513
  552SOL     OW 2205   1.772   1.783   2.291 -0.7950 -0.2815  0.3617
  552SOL    HW1 2206   1.683   1.743   2.283  1.5518 -0.7076 -4.0778
  552SOL    HW2 2207   1.819   1.747   2.219  1.7426  2.4865 -2.4886
  552SOL     MW 2208   1.766   1.773   2.280 -0.1506  0.0275 -0.6002
  553SOL     OW 2209   1.243   2.248   1.539 -0.3923 -0.0629 -0.0885
  553SOL    HW1 2210   1.281   2.158   1.541 -1.2948  1.6989  1.4693
  553SOL    HW2 2211   1.325   2.307   1.514 -0.0857  0.0114  0.9280
  553SOL     MW 2212   1.259   2.244   1.536 -0.4709  0.1794  0.2511
  554SOL     OW 2213   0.500   2.932   2.668 -0.8936  0.3807  0.0374
  554SOL    HW1 2214   0.464   3.002   2.612  2.3549 -1.5743 -0.2339
  554SOL    HW2 2215   0.569   2.888   2.614 -1.2323  0.5592 -0.7639
  554SOL     MW 2216   0.504   2.935   2.654 -0.5097  0.1463 -0.1041
  555SOL     OW 2217   0.613   2.438   2.540 -0.1865 -0.1419  0.1452
  555SOL    HW1 2218   0.566   2.358   2.567  1.3371  0.0275 -0.4386
  555SOL    HW2 2219   0.699   2.421   2.502  1.0342  0.9698 -0.4047
  555SOL     MW 2220   0.618   2.425   2.538  0.1756  0.0271 -0.0044
  556SOL     OW 2221   1.056   1.925   0.110 -0.2004  0.4091 -0.2193
  556SOL    HW1 2222   1.081   1.905   0.020  1.6103  1.1915  3.3580
  556SOL    HW2 2223   1.136   1.920   0.158  1.0285 -0.6211 -0.6081
  556SOL     MW 2224   1.070   1.922   0.104  0.2007  0.3764  0.2014
  557SOL     OW 2225   0.973   2.675   0.495  0.0609  0.0690 -0.0074
  557SOL    HW1 2226   0.993   2.601   0.432 -0.4394  0.4548 -0.0457
  557SOL    HW2 2227   0.950   2.754   0.435 -2.4183 -0.5990 -1.5283
  557SOL     MW 2228   0.972   2.676   0.478 -0.3322  0.0317 -0.2132
  558SOL     OW 2229   0.226   2.290   2.980  0.1337 -0.1328  0.2640
  558SOL    HW1 2230   0.143   2.272   2.937 -2.9056  0.4511  0.5863
  558SOL    HW2 2231   0.187   2.312   3.071  0.8707 -1.8556  1.5901
  558SOL     MW 2232   0.210   2.291   2.987 -0.1700 -0.2830  0.4815
  559SOL     OW 2233   1.032   2.341   2.156  0.0388  0.5283  0.0856
  559SOL    HW1 2234   1.125   2.350   2.176 -0.9544  1.9167 -1.0069
  559SOL    HW2 2235   0.992   2.293   2.227  2.2804  0.9762 -0.8072
  559SOL     MW 2236   1.039   2.336   2.168  0.2035  0.7706 -0.1763
  560SOL     OW 2237   1.951   2.842   0.116  0.1094 -0.7101  0.9007
  560SOL    HW1 2238   2.031   2.868   0.068 -0.7539 -1.1323 -1.5108
  560SOL    HW2 2239   1.914   2.772   0.056 -2.0596 -1.0900  0.2265
  560SOL     MW 2240   1.957   2.836   0.102 -0.2907 -0.8159  0.4935
  561SOL     OW 2241   0.346   2.153   0.100  0.0451 -0.0690 -0.1474
  561SOL    HW1 2242   0.329   2.151   0.005  1.2679  0.5315 -2.0654
  561SOL    HW2 2243   0.385   2.240   0.120 -0.7894  0.4818  2.8408
  561SOL     MW 2244   0.349   2.164   0.090  0.0963  0.0829 -0.0062
  562SOL     OW 2245   0.679   2.205   2.258 -0.4211  0.0086 -0.1943
  562SOL    HW1 2246   0.675   2.298   2.226 -1.5084 -3.1367 -1.1164
  562SOL    HW2 2247   0.764   2.207   2.301  0.5826 -3.7486 -0.2012
  562SOL     MW 2248   0.690   2.218   2.259 -0.4321 -0.9021 -0.3168
  563SOL     OW 2249   1.213   0.424   0.517 -0.4976 -0.3018 -0.1207
  563SOL    HW1 2250   1.164   0.368   0.460  0.8576  0.9431 -2.5682
  563SOL    HW2 2251   1.178   0.398   0.600 -1.8874 -2.8939  1.3267
  563SOL     MW 2252   1.202   0.413   0.520 -0.5022 -0.4795 -0.2526
  564SOL     OW 2253   1.066   2.604   2.385 -0.8879 -0.3963  0.2198
  564SOL    HW1 2254   1.092   2.682   2.324  1.8508  0.8839 -1.7828
  564SOL    HW2 2255   1.100   2.632   2.467 -1.1923 -0.6177 -2.2841
  564SOL     MW 2256   1.074   2.618   2.388 -0.5667 -0.2566 -0.3748
  565SOL     OW 2257   2.748   2.805   2.563  0.2480  0.5400 -0.1913
  565SOL    HW1 2258   2.809   2.845   2.501  0.5340  0.7200 -0.6469
  565SOL    HW2 2259   2.687   2.756   2.502 -2.9096  2.6431 -2.5836
  565SOL     MW 2260   2.748   2.804   2.547 -0.1309  0.8412 -0.5671
  566SOL     OW 2261   2.165   1.897   2.354 -0.1292 -0.0705 -0.9130
  566SOL    HW1 2262   2.173   1.892   2.259  0.3169  1.7647 -0.2705
  566SOL    HW2 2263   2.214   1.970   2.380  0.1950 -0.5761 -1.4691
  566SOL     MW 2264   2.172   1.906   2.345 -0.0275  0.1049 -0.9016
  567SOL     OW 2265   1.199   3.013   0.017  0.0908  0.5299  0.7592
  567SOL    HW1 2266   1.195   3.023   0.110  1.0208 -1.0289 -1.0492
  567SOL    HW2 2267   1.212   2.917  -0.009  0.8630 -0.7365  2.8200
  567SOL     MW 2268   1.200   3.002   0.025  0.3154  0.1572  0.7925
  568SOL     OW 2269   1.611   2.049   2.842  0.1108  0.3581  0.6143
  568SOL    HW1 2270   1.664   2.100   2.907  0.5044 -2.0367 -0.3049
  568SOL    HW2 2271   1.676   2.007   2.792  0.5614  0.7256  0.4090
  568SOL     MW 2272   1.626   2.051   2.844  0.2222  0.0906  0.4660
  569SOL     OW 2273   0.115   2.317   2.453 -0.0518  0.1261 -0.3282
  569SOL    HW1 2274   0.072   2.354   2.374  0.0441  1.3569 -1.0528
  569SOL    HW2 2275   0.157   2.388   2.504 -1.3157 -1.2440  3.7120
  569SOL     MW 2276   0.115   2.332   2.449 -0.2059  0.1077  0.1093
  570SOL     OW 2277   1.477   0.355   0.519  0.0564  0.4972  0.1986
  570SOL    HW1 2278   1.394   0.396   0.515 -0.8544  0.0102  0.8721
  570SOL    HW2 2279   1.519   0.367   0.603  0.2753 -0.0013 -0.2865
  570SOL     MW 2280   1.472   0.362   0.529 -0.0349  0.3672  0.2235
  571SOL     OW 2281   1.333   2.347   2.140 -0.1138  0.0999  0.2729
  571SOL    HW1 2282   1.411   2.387   2.176  0.2371 -1.3499  0.3607
  571SOL    HW2 2283   1.371   2.298   2.063  2.7198  2.5720 -1.1800
  571SOL     MW 2284   1.348   2.346   2.135  0.3064  0.2348  0.0928
  572SOL     OW 2285   0.976   2.572   0.065  0.1816  0.3280  0.0032
  572SOL    HW1 2286   0.968   2.664   0.062  3.9091 -2.0347 -2.0567
  572SOL    HW2 2287   0.896   2.534   0.092  0.6838  1.1961 -0.1184
  572SOL     MW 2288   0.964   2.579   0.068  0.7397  0.1308 -0.2846
  573SOL     OW 2289   1.185   2.270   0.206 -0.4363 -0.0850 -0.0795
  573SOL    HW1 2290   1.263   2.264   0.150 -0.4855  1.8299 -0.8577
  573SOL    HW2 2291   1.156   2.362   0.217  3.8320  0.3287 -0.1800
  573SOL     MW 2292   1.192   2.281   0.200  0.1204  0.2223 -0.1954
  574SOL     OW 2293   1.133   2.535   0.279  0.3015  0.1059  0.0187
  574SOL    HW1 2294   1.214   2.575   0.290 -3.3234 -2.1929  1.3849
  574SOL    HW2 2295   1.099   2.584   0.203  1.3896  0.8859 -2.6993
  574SOL     MW 2296   1.139   2.547   0.270 -0.0333 -0.0945 -0.1596
  575SOL     OW 2297   3.024   2.224   1.710 -0.3857 -0.1351 -0.2833
  575SOL    HW1 2298   3.080   2.153   1.672  0.1375 -0.4585  2.0273
  575SOL    HW2 2299   3.094   2.276   1.749  1.6814 -0.6333 -1.4080
  575SOL     MW 2300   3.040   2.222   1.710 -0.0440 -0.2435 -0.1269
  576SOL     OW 2301   2.851   1.855   2.017 -0.5874 -0.0935 -0.2627
  576SOL    HW1 2302   2.846   1.934   1.960  1.5868 -2.2060  0.5021
  576SOL    HW2 2303   2.767   1.810   2.005  1.5671 -2.7677  1.4794
  576SOL     MW 2304   2.839   1.860   2.008 -0.0162 -0.7250  0.0681
  577SOL     OW 2305   2.081   0.263   0.087  0.4245  0.3738 -0.2979
  577SOL    HW1 2306   2.010   0.237   0.032  3.0602  0.8733 -0.5489
  577SOL    HW2 2307   2.064   0.210   0.159  1.3069  0.0453 -0.8335
  577SOL     MW 2308   2.069   0.252   0.089  0.8887  0.3964 -0.4017
  578SOL     OW 2309   1.942   2.063   2.458  0.3631 -0.1504 -0.7713
  578SOL    HW1 2310   1.856   2.042   2.432  3.3258  3.3227 -1.3476
  578SOL    HW2 2311   1.996   1.984   2.429  0.6551  0.7737 -2.8372
  578SOL     MW 2312   1.938   2.050   2.451  0.7925  0.4298 -1.1199
  579SOL     OW 2313   0.906   2.422   2.492 -0.4687  0.2054  0.1866
  579SOL    HW1 2314   0.968   2.372   2.538 -1.4610  0.5860 -3.2757
  579SOL    HW2 2315   0.951   2.508   2.451  1.6809 -0.9984 -0.4604
  579SOL     MW 2316   0.920   2.427   2.492 -0.3160  0.0968 -0.3556
  580SOL     OW 2317   0.947   2.839   0.019  0.4120 -0.0785  0.3682
  580SOL    HW1 2318   1.031   2.879   0.003 -2.0206  0.2520 -1.9818
  580SOL    HW2 2319   0.925   2.804  -0.066 -1.6701  0.6590 -0.1120
  580SOL     MW 2320   0.955   2.839   0.006 -0.1837  0.0624 -0.0052
  581SOL     OW 2321   1.176   2.462   1.718  0.2211 -0.5949  0.5408
  581SOL    HW1 2322   1.249   2.517   1.762  0.4533  0.2261  0.5278
  581SOL    HW2 2323   1.217   2.389   1.677 -0.7986 -0.8694 -1.1754
  581SOL     MW 2324   1.191   2.460   1.719  0.1172 -0.5228  0.3126
  582SOL     OW 2325   0.038   2.859   2.739 -0.5982  0.0757 -0.5222
  582SOL    HW1 2326  -0.030   2.930   2.741  1.1153  0.4306  0.5459
  582SOL    HW2 2327   0.121   2.894   2.776  1.4724 -0.3804 -1.5539
  582SOL     MW 2328   0.040   2.873   2.744 -0.0989  0.0623 -0.5174
  583SOL     OW 2329   2.016   2.438   2.684  0.2505  0.4031  0.1425
  583SOL    HW1 2330   2.089   2.457   2.624 -2.1234  2.9411  0.7018
  583SOL    HW2 2331   2.015   2.344   2.691 -0.3860  1.6409 -2.1952
  583SOL     MW 2332   2.025   2.428   2.677 -0.1467  0.9013 -0.0922
  584SOL     OW 2333   0.074   1.895   2.184 -0.0082  0.1097 -0.3690
  584SOL    HW1 2334   0.091   1.858   2.277  1.9872 -0.5064  1.8024
  584SOL    HW2 2335   0.116   1.985   2.195 -0.3626  2.0532  2.9127
  584SOL     MW 2336   0.082   1.902   2.198  0.2084  0.2848  0.3505
  585SOL     OW 2337   1.579   2.640   0.122  0.2269  0.0523 -0.3160
  585SOL    HW1 2338   1.539   2.592   0.045 -1.8222  1.9512 -0.4641
  585SOL    HW2 2339   1.525   2.641   0.200 -0.2821 -0.5468  0.8375
  585SOL     MW 2340   1.567   2.634   0.122 -0.1106  0.2238 -0.1834
  586SOL     OW 2341   1.370   2.789   2.578 -0.8717  0.1640  0.1988
  586SOL    HW1 2342   1.392   2.768   2.481 -1.0107 -0.8428 -0.4274
  586SOL    HW2 2343   1.343   2.875   2.571 -0.3476 -1.7346 -1.5786
  586SOL     MW 2344   1.369   2.798   2.564 -0.8209 -0.2193 -0.1183
  587SOL     OW 2345   1.386   1.477   2.168 -0.4098 -0.1786  0.6679
  587SOL    HW1 2346   1.323   1.410   2.207  0.4722 -0.3433  1.8481
  587SOL    HW2 2347   1.432   1.441   2.090 -1.2074  1.2912 -0.4060
  587SOL     MW 2348   1.384   1.463   2.163 -0.3987 -0.0064  0.6819
  588SOL     OW 2349   1.372   1.996   2.624 -0.0914 -0.6764 -0.1377
  588SOL    HW1 2350   1.353   1.899   2.637  2.2657 -3.2874  1.4704
  588SOL    HW2 2351   1.392   2.033   2.709 -0.4716 -0.9384 -0.0167
  588SOL     MW 2352   1.372   1.988   2.637  0.1694 -1.0555  0.0904
  589SOL     OW 2353   1.405   1.976   0.052 -0.1530 -0.4733 -0.0507
  589SOL    HW1 2354   1.416   2.070   0.069  0.1810 -0.4065  2.2306
  589SOL    HW2 2355   1.365   1.937   0.132  1.3613 -1.5320 -1.8814
  589SOL     MW 2356   1.401   1.983   0.065  0.0909 -0.6042  0.0087
  590SOL     OW 2357   0.496   2.711   2.164  0.2369 -1.1550  0.5729
  590SOL    HW1 2358   0.486   2.707   2.065 -0.5124  0.7801 -0.0110
  590SOL    HW2 2359   0.571   2.769   2.189 -1.1501  0.9043 -0.9272
  590SOL     MW 2360   0.504   2.718   2.155 -0.0450 -0.6280  0.2979
  591SOL     OW 2361   2.291   0.721   0.064 -0.2013 -0.0186  0.0961
  591SOL    HW1 2362   2.226   0.790   0.027 -2.4588  2.2994  1.0838
  591SOL    HW2 2363   2.360   0.714  -0.003 -0.4710 -0.4654 -1.9398
  591SOL     MW 2364   2.292   0.729   0.050 -0.5347  0.2283 -0.0422
  592SOL     OW 2365   1.751   2.909   0.798 -0.2353  0.1103  0.1912
  592SOL    HW1 2366   1.768   2.966   0.725 -3.8593  0.3824  2.9336
  592SOL    HW2 2367   1.840   2.874   0.820  1.7991  2.7435  1.2204
  592SOL     MW 2368   1.765   2.912   0.791 -0.4450  0.4936  0.6888
  593SOL     OW 2369   1.955   0.665   0.822 -0.2554 -0.1046  0.0179
  593SOL    HW1 2370   1.886   0.661   0.752  2.3560 -1.7681 -1.5166
  593SOL    HW2 2371   2.021   0.607   0.788  0.7742  2.1631  0.1240
  593SOL     MW 2372   1.954   0.657   0.808  0.2250 -0.0249 -0.1705
  594SOL     OW 2373   2.769   1.063   1.403 -0.0346  0.0257  0.0668
  594SOL    HW1 2374   2.863   1.084   1.400 -0.3524 -1.0459 -0.5898
  594SOL    HW2 2375   2.760   1.020   1.319  1.6524  5.3369 -0.3275
  594SOL     MW 2376   2.780   1.060   1.392  0.1460  0.5851 -0.0719
  595SOL     OW 2377   0.459   0.901   0.844 -0.3068 -0.1974 -0.0863
  595SOL    HW1 2378   0.483   0.974   0.787 -1.4695 -2.2587 -0.3505
  595SOL    HW2 2379   0.441   0.948   0.925  2.5829  2.2936  1.5414
  595SOL     MW 2380   0.460   0.917   0.847 -0.0789 -0.1407  0.0936
  596SOL     OW 2381   2.472   1.342   0.527 -0.0937 -0.3500 -0.0536
  596SOL    HW1 2382   2.528   1.416   0.499  1.4896  0.5700 -1.6389
  596SOL    HW2 2383   2.509   1.310   0.610  0.8073 -1.7542  1.6264
  596SOL     MW 2384   2.484   1.348   0.534  0.2341 -0.4139 -0.0411
  597SOL     OW 2385   2.202   0.657   1.587 -0.4407 -0.5569 -0.5917
  597SOL    HW1 2386   2.201   0.604   1.662 -0.8236 -1.8532 -2.3364
  597SOL    HW2 2387   2.127   0.617   1.527  0.7104 -0.9250  0.5608
  597SOL     MW 2388   2.192   0.645   1.589 -0.3394 -0.7765 -0.6698
  598SOL     OW 2389   2.602   1.025   2.861 -0.0094 -0.5301  0.0351
  598SOL    HW1 2390   2.599   0.933   2.878  1.2624  0.0463 -0.2657
  598SOL    HW2 2391   2.696   1.047   2.858  0.5008 -1.2632  1.1109
  598SOL     MW 2392   2.614   1.016   2.863  0.2258 -0.5508  0.1373
  599SOL     OW 2393   2.969   0.429   2.146  0.3790 -0.1423 -0.0391
  599SOL    HW1 2394   2.975   0.448   2.241  2.8323  0.4385  3.8052
  599SOL    HW2 2395   2.973   0.512   2.102 -0.3391 -0.1502  1.5953
  599SOL     MW 2396   2.970   0.443   2.153  0.6079 -0.0667  0.6837
  600SOL     OW 2397   1.846   1.621   0.906 -0.1772  0.0915 -0.3035
  600SOL    HW1 2398   1.905   1.681   0.951 -2.1592  1.9618  1.3769
  600SOL    HW2 2399   1.778   1.677   0.863 -3.3566 -0.8559  0.3470
  600SOL     MW 2400   1.845   1.636   0.907 -0.8582  0.2133  0.0040
  601SOL     OW 2401   2.537   0.705   0.806 -0.2816 -0.4658 -0.0557
  601SOL    HW1 2402   2.520   0.706   0.901 -0.8489 -0.1126  0.6790
  601SOL    HW2 2403   2.457   0.657   0.764 -2.1706 -1.7868 -0.8461
  601SOL     MW 2404   2.524   0.699   0.813 -0.6057 -0.5935 -0.0630
  602SOL     OW 2405   2.312   1.918   0.775 -0.0666 -0.0713 -0.6645
  602SOL    HW1 2406   2.268   1.834   0.754 -3.3471  1.0745 -0.1968
  602SOL    HW2 2407   2.246   1.980   0.751  2.6667  0.7043  2.2180
  602SOL     MW 2408   2.297   1.915   0.769 -0.1388  0.1822 -0.2225
  603SOL     OW 2409   2.963   1.348   1.986  0.0240  0.2679  0.0740
  603SOL    HW1 2410   2.888   1.350   2.042 -1.4474  1.2818  0.3105
  603SOL    HW2 2411   3.005   1.261   1.978 -1.6276  2.1012 -0.0288
  603SOL     MW 2412   2.959   1.336   1.992 -0.3880  0.6436  0.0916
  604SOL     OW 2413   2.034   1.448   0.441 -0.4331 -0.8996 -0.2612
  604SOL    HW1 2414   2.080   1.383   0.494 -0.4895  2.0118  1.4325
  604SOL    HW2 2415   1.961   1.492   0.497 -0.7865  1.0859  0.5665
  604SOL     MW 2416   2.031   1.445   0.455 -0.4871 -0.2535  0.0715
  605SOL     OW 2417   2.473   1.458   0.881 -0.1049 -0.6362 -0.1637
  605SOL    HW1 2418   2.437   1.513   0.811  0.0480 -2.1836  1.3933
  605SOL    HW2 2419   2.491   1.372   0.842 -0.1852  0.5372  1.1933
  605SOL     MW 2420   2.471   1.454   0.867 -0.0953 -0.6856  0.2208
  606SOL     OW 2421   2.610   1.813   1.903  0.2571 -0.3266 -0.5777
  606SOL    HW1 2422   2.520   1.790   1.892  1.9796 -0.6893 -0.2492
  606SOL    HW2 2423   2.653   1.734   1.861 -0.8287  1.4317 -0.7516
  606SOL     MW 2424   2.604   1.799   1.896  0.3411 -0.1425 -0.5573
  607SOL     OW 2425   2.386   1.017   3.056 -0.1072  0.6992  0.0815
  607SOL    HW1 2426   2.459   1.067   3.031 -1.8024  0.6629 -1.0210
  607SOL    HW2 2427   2.389   1.017   3.151  1.2266  1.5532 -1.2416
  607SOL     MW 2428   2.396   1.024   3.065 -0.1549  0.8071 -0.2385
  608SOL     OW 2429   1.868   0.248   0.537 -0.3195 -0.0480 -0.1772
  608SOL    HW1 2430   1.851   0.286   0.447  1.7245  0.2657  0.9093
  608SOL    HW2 2431   1.837   0.155   0.551  2.5334 -0.6318  0.4025
  608SOL     MW 2432   1.861   0.241   0.527  0.3266 -0.0836  0.0427
  609SOL     OW 2433   2.133   1.913   3.027  0.3990  0.1220  0.2526
  609SOL    HW1 2434   2.056   1.877   2.976 -0.2161  0.8074  1.7909
  609SOL    HW2 2435   2.112   1.890   3.115 -2.3678 -1.4964  0.2674
  609SOL     MW 2436   2.120   1.906   3.032 -0.0472 -0.0011  0.4575
  610SOL     OW 2437   1.784   0.921   1.221 -0.0081 -0.2795  0.8178
  610SOL    HW1 2438   1.768   0.833   1.181 -1.3342  2.5714 -3.3994
  610SOL    HW2 2439   1.695   0.951   1.252  3.2274  2.1286  1.5158
  610SOL     MW 2440   1.770   0.913   1.220  0.2438  0.4143  0.3535
  611SOL     OW 2441   2.492   1.661   0.651  0.5645 -0.2632 -0.6123
  611SOL    HW1 2442   2.542   1.633   0.573  1.4764  0.6057 -2.0095
  611SOL    HW2 2443   2.408   1.681   0.624  1.2288 -0.4155 -1.0765
  611SOL     MW 2444   2.488   1.660   0.637  0.7725 -0.1686 -0.8579
  612SOL     OW 2445   2.915   2.967   0.333  0.5387  0.1671  0.2426
  612SOL    HW1 2446   2.930   2.991   0.423  0.6681 -0.7684 -3.7079
  612SOL    HW2 2447   2.986   2.906   0.331 -0.2151  1.3120  1.2523
  612SOL     MW 2448   2.926   2.962   0.345  0.4563  0.1947 -0.1454
  613SOL     OW 2449   1.521   1.100   0.982  0.1377  0.5710  0.3898
  613SOL    HW1 2450   1.604   1.141   0.966  0.9137  1.0245  0.5774
  613SOL    HW2 2451   1.531   1.088   1.080 -1.6820  2.0736  2.3212
  613SOL     MW 2452   1.533   1.104   0.993 -0.0000  0.8291  0.6694
  614SOL     OW 2453   2.034   0.475   1.442  0.1857 -0.1322  0.2935
  614SOL    HW1 2454   2.039   0.419   1.517  2.8682  1.1553 -0.6210
  614SOL    HW2 2455   1.951   0.466   1.396  0.0787 -0.1926  2.4362
  614SOL     MW 2456   2.024   0.466   1.446  0.5255  0.0297  0.4556
  615SOL     OW 2457   2.424   0.716   0.303  0.5503  0.1646  0.6234
  615SOL    HW1 2458   2.492   0.643   0.309 -1.4713  0.7537  1.8672
  615SOL    HW2 2459   2.385   0.710   0.216 -1.9483 -2.3011  0.8754
  615SOL     MW 2460   2.428   0.706   0.292 -0.0461 -0.0830  0.8207
  616SOL     OW 2461   2.500   0.430   1.614  0.0897 -0.1682  0.1138
  616SOL    HW1 2462   2.549   0.362   1.571 -1.7696  0.5334 -1.1451
  616SOL    HW2 2463   2.480   0.492   1.541  2.0888 -0.8322 -1.3785
  616SOL     MW 2464   2.504   0.430   1.598  0.1082 -0.1632 -0.2492
  617SOL     OW 2465   2.873   0.599   1.834  0.0303 -0.1420  0.2933
  617SOL    HW1 2466   2.787   0.596   1.874  1.7274 -2.0635  1.3459
  617SOL    HW2 2467   2.888   0.509   1.803  0.4521 -3.5535  3.2871
  617SOL     MW 2468   2.863   0.587   1.835  0.3099 -0.8456  0.8272
  618SOL     OW 2469   2.749   0.307   2.021  0.1528 -1.0014  0.0130
  618SOL    HW1 2470   2.692   0.382   2.014 -0.6661 -0.1441  0.4052
  618SOL    HW2 2471   2.827   0.344   2.064  2.3789  0.5936  0.0575
  618SOL     MW 2472   2.752   0.322   2.026  0.3384 -0.6778  0.0706
  619SOL     OW 2473   2.648   0.732   0.103  0.2866  0.0305 -0.2216
  619SOL    HW1 2474   2.715   0.800   0.136  2.2493  1.1021 -0.3120
  619SOL    HW2 2475   2.662   0.661   0.162  0.0917  0.2808  0.1976
  619SOL     MW 2476   2.659   0.732   0.115  0.5198  0.2049 -0.1782
  620SOL     OW 2477   2.240   1.074   0.926 -0.1086 -0.4672 -0.4360
  620SOL    HW1 2478   2.305   1.027   0.873  0.9939  0.5608 -0.8733
  620SOL    HW2 2479   2.155   1.045   0.885 -1.0745  2.8970  0.1539
  620SOL     MW 2480   2.238   1.064   0.914 -0.0906  0.1123 -0.4158
  621SOL     OW 2481   1.463   2.209   1.944 -0.3023 -0.3281  0.4015
  621SOL    HW1 2482   1.407   2.127   1.958 -0.9394  0.7156  0.4371
  621SOL    HW2 2483   1.555   2.189   1.978  0.0708  0.0073 -0.4915
  621SOL     MW 2484   1.468   2.196   1.950 -0.3371 -0.1461  0.2884
  622SOL     OW 2485   2.650   0.246   0.274 -0.1400 -0.3115 -0.3219
  622SOL    HW1 2486   2.746   0.280   0.267  1.1353  1.2120 -0.8927
  622SOL    HW2 2487   2.664   0.150   0.287  2.0792  1.1924 -1.6174
  622SOL     MW 2488   2.665   0.238   0.275  0.3210  0.0880 -0.5681
  623SOL     OW 2489   2.400   2.760   0.885  0.8163 -0.2811 -0.4643
  623SOL    HW1 2490   2.476   2.815   0.874 -3.0104 -0.9290  1.2143
  623SOL    HW2 2491   2.363   2.791   0.970 -0.9096  0.4748  1.5296
  623SOL     MW 2492   2.405   2.771   0.895  0.0837 -0.2668  0.0203
  624SOL     OW 2493   2.166   1.597   3.039  0.2210 -0.0104  0.0971
  624SOL    HW1 2494   2.090   1.543   3.047 -0.5286 -0.8638 -1.5209
  624SOL    HW2 2495   2.135   1.691   3.025 -4.4925 -0.0519  0.0559
  624SOL     MW 2496   2.152   1.602   3.039 -0.4998 -0.1285 -0.1218
  625SOL     OW 2497   2.256   1.900   1.052 -0.3511  0.1906  0.7687
  625SOL    HW1 2498   2.318   1.841   1.094 -1.8637  2.2946 -0.7379
  625SOL    HW2 2499   2.293   1.911   0.964 -1.1593  1.6970  0.6101
  625SOL     MW 2500   2.269   1.893   1.046 -0.6573  0.6670  0.5490
  626SOL     OW 2501   0.125   1.792   2.428 -0.3069 -0.1503 -0.1041
  626SOL    HW1 2502   0.124   1.711   2.468  0.4212  1.6933  1.0063
  626SOL    HW2 2503   0.084   1.857   2.490 -1.1317 -0.3932  1.1995
  626SOL     MW 2504   0.119   1.790   2.441 -0.3197  0.0609  0.2144
  627SOL     OW 2505   2.489   0.833   2.577  0.1587 -0.0867  0.2421
  627SOL    HW1 2506   2.410   0.873   2.613 -0.5492  1.5613  0.6512
  627SOL    HW2 2507   2.466   0.802   2.487  1.5764  0.7997 -1.1159
  627SOL     MW 2508   2.476   0.835   2.570  0.2523  0.2477  0.1169
  628SOL     OW 2509   2.260   1.362   1.315 -0.1447  0.0442  0.4150
  628SOL    HW1 2510   2.215   1.307   1.254  0.1248 -2.7573  2.4258
  628SOL    HW2 2511   2.345   1.386   1.276  0.2136 -1.3577 -0.2128
  628SOL     MW 2512   2.265   1.358   1.302 -0.0619 -0.5104  0.5975
  629SOL     OW 2513   1.766   0.534   1.288  0.1984  0.5648  0.1335
  629SOL    HW1 2514   1.810   0.582   1.214 -2.3043  1.7121  0.0737
  629SOL    HW2 2515   1.675   0.512   1.267 -1.1757 -1.5094  0.4234
  629SOL     MW 2516   1.760   0.537   1.276 -0.3131  0.4425  0.1639
  630SOL     OW 2517   2.404   1.869   3.006  0.2534 -0.3778  0.4790
  630SOL    HW1 2518   2.413   1.962   2.978  0.6890  1.3098 -0.0822
  630SOL    HW2 2519   2.316   1.847   3.035  0.6893 -1.5704  0.7492
  630SOL     MW 2520   2.394   1.878   3.006  0.3684 -0.3125  0.4406
  631SOL     OW 2521   2.097   1.711   1.530 -0.1258 -0.0191 -0.0935
  631SOL    HW1 2522   2.054   1.642   1.581  1.1528  0.5140  0.3804
  631SOL    HW2 2523   2.029   1.770   1.501  1.5283 -0.8763  0.1683
  631SOL     MW 2524   2.082   1.709   1.533  0.2612 -0.0619  0.0036
  632SOL     OW 2525   0.280   1.923   1.505 -0.1415 -0.2349  0.4235
  632SOL    HW1 2526   0.192   1.951   1.530  3.2713 -1.5879 -2.9312
  632SOL    HW2 2527   0.259   1.832   1.488  0.6482  0.0477 -1.3671
  632SOL     MW 2528   0.265   1.915   1.506  0.4130 -0.3762 -0.2553
  633SOL     OW 2529   2.637   0.536   0.335 -0.1697  0.1898  0.9115
  633SOL    HW1 2530   2.678   0.535   0.424  0.3895 -3.8808  0.4367
  633SOL    HW2 2531   2.588   0.459   0.329 -0.4359  2.8981 -1.6542
  633SOL     MW 2532   2.636   0.526   0.346 -0.1310  0.0100  0.5103
  634SOL     OW 2533   2.663   3.044   0.635  0.0151  0.5799  0.0111
  634SOL    HW1 2534   2.687   3.139   0.631 -2.1173  0.7138  1.4691
  634SOL    HW2 2535   2.660   3.011   0.546 -1.4280  0.0700  0.9109
  634SOL     MW 2536   2.666   3.052   0.623 -0.4566  0.5303  0.3222
  635SOL     OW 2537   2.624   0.100   1.885 -0.1008 -0.1200 -0.1441
  635SOL    HW1 2538   2.679   0.041   1.824 -1.4282 -0.0206 -1.9340
  635SOL    HW2 2539   2.675   0.170   1.936 -1.1576 -1.4327 -1.2354
  635SOL     MW 2540   2.638   0.101   1.883 -0.4154 -0.2801 -0.5242
  636SOL     OW 2541   2.718   1.622   0.876 -0.5859  0.4300 -0.4056
  636SOL    HW1 2542   2.629   1.581   0.869 -0.0286  2.2153 -0.8467
  636SOL    HW2 2543   2.708   1.716   0.877  4.8359  1.9194 -2.5369
  636SOL     MW 2544   2.705   1.629   0.875  0.2030  0.8620 -0.7450
  637SOL     OW 2545   2.882   1.535   0.639 -0.0704  0.2720  0.0977
  637SOL    HW1 2546   2.946   1.602   0.604  0.4157 -1.3005 -2.1575
  637SOL    HW2 2547   2.834   1.577   0.713 -1.7323  0.7787  0.8073
  637SOL     MW 2548   2.884   1.549   0.644 -0.2255  0.1313 -0.1062
  638SOL     OW 2549   2.775   0.499   0.577  0.5049  0.1896  0.5824
  638SOL    HW1 2550   2.860   0.526   0.543  1.1034 -0.9525  2.0765
  638SOL    HW2 2551   2.783   0.500   0.669  2.4462 -2.4076 -1.5021
  638SOL     MW 2552   2.787   0.502   0.585  0.8400 -0.3037  0.5045
  639SOL     OW 2553   1.756   3.090   0.540 -0.2506 -0.3653  0.2897
  639SOL    HW1 2554   1.667   3.061   0.536  1.4532  1.4522  0.3536
  639SOL    HW2 2555   1.804   3.017   0.500 -1.0569  0.8025  0.9422
  639SOL     MW 2556   1.751   3.076   0.534 -0.1322  0.0286  0.3842
  640SOL     OW 2557   0.332   1.342   0.113 -0.5479  0.5351  0.1797
  640SOL    HW1 2558   0.349   1.322   0.022 -0.4419  0.6636  0.5282
  640SOL    HW2 2559   0.329   1.249   0.156  2.0201  0.8437  2.7045
  640SOL     MW 2560   0.334   1.327   0.107 -0.1951  0.5927  0.5588
  641SOL     OW 2561   2.126   0.405   0.373 -0.8202 -0.2937  0.0705
  641SOL    HW1 2562   2.180   0.377   0.297  0.5882 -0.7937  0.6280
  641SOL    HW2 2563   2.157   0.355   0.444 -3.0194  0.9388 -0.2864
  641SOL     MW 2564   2.137   0.395   0.373 -0.9245 -0.1970  0.0970
  642SOL     OW 2565   0.057   0.068   0.548 -0.1129  0.1738  0.7178
  642SOL    HW1 2566   0.005   0.146   0.554 -3.8736  0.4261  2.3145
  642SOL    HW2 2567  -0.016   0.007   0.566 -1.3264  1.2546 -1.1762
  642SOL     MW 2568   0.040   0.070   0.551 -0.7692  0.3497  0.6786
  643SOL     OW 2569   2.062   0.313   1.648  0.0420 -0.0104 -0.3070
  643SOL    HW1 2570   1.978   0.293   1.683 -0.6323  2.9986  0.0135
  643SOL    HW2 2571   2.069   0.252   1.575 -1.0680  1.2600 -1.4607
  643SOL     MW 2572   2.052   0.302   1.643 -0.1934  0.5542 -0.4169
  644SOL     OW 2573   2.678   1.894   0.994 -0.2830  0.0205  0.0654
  644SOL    HW1 2574   2.665   1.829   1.067  0.2276 -1.5032  0.3298
  644SOL    HW2 2575   2.597   1.936   0.976  0.5576  1.1792  1.6526
  644SOL     MW 2576   2.665   1.891   1.001 -0.1047 -0.0277  0.3097
  645SOL     OW 2577   2.829   0.834   0.700 -0.9656  0.7481 -0.5854
  645SOL    HW1 2578   2.905   0.804   0.749  1.4918 -0.6578  0.3011
  645SOL    HW2 2579   2.763   0.768   0.722  2.1989 -0.2466 -0.4368
  645SOL     MW 2580   2.830   0.822   0.709 -0.2239  0.4314 -0.4488
  646SOL     OW 2581   0.120   2.281   0.838  0.6132 -0.2354 -0.4946
  646SOL    HW1 2582   0.146   2.189   0.834 -2.1381 -0.5550 -1.8726
  646SOL    HW2 2583   0.070   2.291   0.756  1.6772 -0.8646  1.0513
  646SOL     MW 2584   0.117   2.270   0.827  0.3905 -0.3606 -0.4725
  647SOL     OW 2585   2.721   0.507   3.024  0.1820 -0.0383  0.1571
  647SOL    HW1 2586   2.679   0.431   3.057  0.3728 -0.3637  2.8993
  647SOL    HW2 2587   2.705   0.585   3.075 -1.7666  0.1441 -0.6768
  647SOL     MW 2588   2.713   0.507   3.035 -0.0500 -0.0572  0.4089
  648SOL     OW 2589   2.259   0.694   1.103 -0.1675 -0.4014  0.4774
  648SOL    HW1 2590   2.265   0.599   1.133 -1.2247 -1.5131 -1.6041
  648SOL    HW2 2591   2.181   0.730   1.145 -0.8581 -1.3118 -1.0357
  648SOL     MW 2592   2.250   0.686   1.112 -0.3981 -0.6682  0.0031
  649SOL     OW 2593   2.445   2.712   1.236 -0.0388 -0.1156  0.1254
  649SOL    HW1 2594   2.528   2.766   1.244  1.2474  0.8546 -1.3938
  649SOL    HW2 2595   2.464   2.618   1.248  0.9023  1.4260 -0.4997
  649SOL     MW 2596   2.458   2.707   1.238  0.2551  0.2158 -0.1575
  650SOL     OW 2597   2.764   0.222   0.667 -0.2091 -0.0654 -0.2513
  650SOL    HW1 2598   2.759   0.313   0.637  1.7925 -0.3134 -0.0984
  650SOL    HW2 2599   2.855   0.202   0.637  0.5461  1.3538  1.6799
  650SOL     MW 2600   2.775   0.232   0.659  0.1546  0.0891  0.0237
  651SOL     OW 2601   0.014   0.461   1.011 -0.8933  0.0854 -0.5173
  651SOL    HW1 2602   0.063   0.489   0.930  1.7225 -0.8985 -0.3848
  651SOL    HW2 2603  -0.069   0.516   1.016 -1.2304 -2.0611  0.0880
  651SOL     MW 2604   0.010   0.472   1.001 -0.5926 -0.3276 -0.4200
  652SOL     OW 2605   2.360   1.402   3.007  0.3921 -0.1439  0.2776
  652SOL    HW1 2606   2.440   1.444   2.968  0.1219  2.2984  1.0462
  652SOL    HW2 2607   2.297   1.479   3.014  0.5361 -2.5066  1.7867
  652SOL     MW 2608   2.362   1.418   3.003  0.3755 -0.1334  0.5781
  653SOL     OW 2609   1.825   0.386   0.295  0.3550 -0.3079 -0.4165
  653SOL    HW1 2610   1.811   0.322   0.226  2.9050  0.6282 -0.5311
  653SOL    HW2 2611   1.920   0.401   0.285  0.8518 -2.7142  3.0945
  653SOL     MW 2612   1.836   0.379   0.284  0.7570 -0.5019  0.0316
  654SOL     OW 2613   2.435   0.974   0.767  0.4640  0.2480  0.7041
  654SOL    HW1 2614   2.379   0.967   0.684 -0.7796 -0.7794  0.4655
  654SOL    HW2 2615   2.458   0.886   0.800 -0.0939  0.1885 -1.6107
  654SOL     MW 2616   2.430   0.961   0.761  0.2263  0.1046  0.3672
  655SOL     OW 2617   2.910   0.888   0.428 -0.2048  0.7216  0.6745
  655SOL    HW1 2618   2.856   0.891   0.508 -0.3441 -0.7603  0.1979
  655SOL    HW2 2619   2.925   0.792   0.425  2.2006  0.0597  0.5709
  655SOL     MW 2620   2.905   0.875   0.438  0.0942  0.4387  0.5979
  656SOL     OW 2621   1.800   2.628   1.406  0.3945 -0.2320  0.2488
  656SOL    HW1 2622   1.829   2.718   1.404 -0.1388 -1.2650  2.1311
  656SOL    HW2 2623   1.845   2.578   1.336  1.9974 -0.7143 -0.5189
  656SOL     MW 2624   1.809   2.633   1.396  0.5357 -0.4319  0.3959
  657SOL     OW 2625   0.079   1.819   1.232 -0.5508  0.4189  0.3911
  657SOL    HW1 2626   0.154   1.877   1.223 -1.1183 -1.0589  3.2968
  657SOL    HW2 2627   0.120   1.738   1.249  0.8733  2.1708  0.7562
  657SOL     MW 2628   0.094   1.816   1.233 -0.4378  0.4551  0.8226
  658SOL     OW 2629   2.735   1.330   0.249 -0.3273 -0.0646  0.0714
  658SOL    HW1 2630   2.709   1.263   0.315  1.9176 -1.4514 -2.8028
  658SOL    HW2 2631   2.733   1.415   0.302  0.8445  2.6247 -0.7638
  658SOL     MW 2632   2.731   1.333   0.265  0.1235  0.1072 -0.4180
  659SOL     OW 2633   2.184   1.520   1.013 -0.2400 -0.4387  0.0586
  659SOL    HW1 2634   2.276   1.509   1.045 -1.3935  0.9328 -2.5267
  659SOL    HW2 2635   2.129   1.517   1.093  0.9830 -2.0028 -1.4315
  659SOL     MW 2636   2.189   1.518   1.028 -0.2309 -0.4641 -0.4791
  660SOL     OW 2637   2.093   1.480   1.686  0.1870  0.9790 -0.0139
  660SOL    HW1 2638   2.118   1.480   1.777  0.3981 -1.3190  2.5431
  660SOL    HW2 2639   2.005   1.445   1.685 -0.9703  0.0819 -2.9483
  660SOL     MW 2640   2.085   1.475   1.697  0.0622  0.5575 -0.0637
  661SOL     OW 2641   2.417   0.977   0.227 -0.1203  0.1918  0.4656
  661SOL    HW1 2642   2.488   1.010   0.277  0.9824  0.5795 -0.5509
  661SOL    HW2 2643   2.423   0.880   0.239  2.0358 -3.9846 -0.0938
  661SOL     MW 2644   2.427   0.968   0.235  0.3096 -0.3081  0.2577
  662SOL     OW 2645   2.582   2.969   0.881 -0.2325  0.3307  0.1727
  662SOL    HW1 2646   2.499   3.014   0.914 -0.7212  0.2663  2.0613
  662SOL    HW2 2647   2.601   3.001   0.787 -1.3663  2.3299 -1.0748
  662SOL     MW 2648   2.574   2.979   0.873 -0.4466  0.5860  0.2573
  663SOL     OW 2649   2.676   1.520   0.455 -0.2888 -0.3398  0.2932
  663SOL    HW1 2650   2.689   1.591   0.396 -0.1764  1.0274  1.1656
  663SOL    HW2 2651   2.739   1.530   0.529  0.5492 -0.9509  2.0964
  663SOL     MW 2652   2.686   1.531   0.457 -0.1634 -0.2400  0.6462
  664SOL     OW 2653   2.552   1.505   1.598  0.2401 -0.9001 -0.6658
  664SOL    HW1 2654   2.546   1.571   1.534  2.0293 -0.9614  1.6601
  664SOL    HW2 2655   2.479   1.448   1.591 -2.9850  0.4966  0.0461
  664SOL     MW 2656   2.542   1.506   1.588  0.0506 -0.7239 -0.2650
  665SOL     OW 2657   2.814   0.779   2.086  0.2180  0.3408  0.2903
  665SOL    HW1 2658   2.796   0.823   2.001  1.5324  0.9906  1.3047
  665SOL    HW2 2659   2.911   0.762   2.079  0.8909 -1.0207 -0.1628
  665SOL     MW 2660   2.825   0.783   2.074  0.4802  0.2469  0.3644
  666SOL     OW 2661   2.747   3.023   1.693  0.1111 -0.1416 -0.2343
  666SOL    HW1 2662   2.770   3.041   1.602 -2.3793  1.0868  0.1319
  666SOL    HW2 2663   2.694   2.942   1.705  0.6231 -3.1500 -1.9788
  666SOL     MW 2664   2.743   3.014   1.682 -0.1499 -0.3765 -0.4161
  667SOL     OW 2665   1.978   2.703   1.755 -0.5162 -0.0039 -0.2335
  667SOL    HW1 2666   2.012   2.664   1.836 -1.6279  0.8367  0.0279
  667SOL    HW2 2667   2.060   2.750   1.722 -0.9121  0.5516 -1.5728
  667SOL     MW 2668   1.993   2.704   1.761 -0.7151  0.1803 -0.3757
  668SOL     OW 2669   2.758   0.537   0.844 -0.1859  0.0334  0.7259
  668SOL    HW1 2670   2.811   0.588   0.914  1.8760  5.0779  1.1810
  668SOL    HW2 2671   2.687   0.595   0.824  2.5654 -1.0470 -0.8626
  668SOL     MW 2672   2.756   0.552   0.851  0.4491  0.5564  0.5764
  669SOL     OW 2673   0.154   0.960   0.731 -0.0307  0.9313 -0.6479
  669SOL    HW1 2674   0.114   1.042   0.762 -3.1530  1.4671  1.9147
  669SOL    HW2 2675   0.225   0.931   0.790 -3.5408 -2.5051  0.5162
  669SOL     MW 2676   0.158   0.967   0.743 -0.9058  0.5486 -0.1562
  670SOL     OW 2677   2.904   0.319   0.199  0.0357  0.4134  0.1192
  670SOL    HW1 2678   2.927   0.260   0.127  0.6944 -1.5672  1.0212
  670SOL    HW2 2679   2.896   0.405   0.155  0.5026 -0.1234  2.2277
  670SOL     MW 2680   2.906   0.323   0.184  0.1842  0.0813  0.5164
  671SOL     OW 2681   2.022   3.025   1.557  0.2652 -0.2334  0.1513
  671SOL    HW1 2682   1.963   2.978   1.496  2.5807  2.2414 -1.4266
  671SOL    HW2 2683   1.959   3.044   1.631 -0.1402 -2.2398 -1.0858
  671SOL     MW 2684   2.006   3.022   1.559  0.5172 -0.1716 -0.2201
  672SOL     OW 2685   1.801   1.739   1.279 -0.1041 -0.4123  0.3495
  672SOL    HW1 2686   1.819   1.792   1.359 -2.5161  1.3115  1.0788
  672SOL    HW2 2687   1.863   1.763   1.208 -1.7698  0.0073  0.5039
  672SOL     MW 2688   1.811   1.749   1.280 -0.6421 -0.1295  0.4661
  673SOL     OW 2689   2.739   1.092   0.587 -0.0054  0.5723  0.1962
  673SOL    HW1 2690   2.738   1.015   0.644 -2.9960 -1.3411  0.6310
  673SOL    HW2 2691   2.824   1.145   0.608  0.9612  0.9267 -3.3420
  673SOL     MW 2692   2.750   1.089   0.597 -0.2725  0.3666 -0.2133
  674SOL     OW 2693   2.485   0.027   1.257  0.2404  0.5230 -0.1060
  674SOL    HW1 2694   2.430   0.019   1.177  1.1670  0.7536 -0.3286
  674SOL    HW2 2695   2.505  -0.065   1.277  2.5884  1.6903 -3.3832
  674SOL     MW 2696   2.480   0.014   1.249  0.6724  0.7074 -0.5678
  675SOL     OW 2697   2.976   0.928   1.055  0.3656 -0.0935  0.1201
  675SOL    HW1 2698   3.036   0.927   1.130  1.5172 -0.2561  0.0562
  675SOL    HW2 2699   3.009   0.990   0.991  1.2869 -2.4002  2.7158
  675SOL     MW 2700   2.988   0.936   1.056  0.6391 -0.4193  0.4541
  676SOL     OW 2701   2.920   1.475   1.697 -0.4773 -0.0109  0.1858
  676SOL    HW1 2702   2.869   1.410   1.649 -0.4359  2.2106 -0.3899
  676SOL    HW2 2703   2.933   1.459   1.788 -0.3340  0.0352  2.7829
  676SOL     MW 2704   2.915   1.464   1.703 -0.4529  0.2883  0.4525
  677SOL     OW 2705   2.371   0.534   2.039  0.4349 -0.2580 -0.5398
  677SOL    HW1 2706   2.335   0.503   1.954 -1.0379 -0.0085  2.3802
  677SOL    HW2 2707   2.330   0.622   2.030 -0.6042  1.6929  2.3781
  677SOL     MW 2708   2.361   0.541   2.027  0.1035  0.0323  0.2305
  678SOL     OW 2709   2.420   1.658   0.285 -0.3054 -0.6562 -0.2606
  678SOL    HW1 2710   2.326   1.645   0.317 -1.7288  0.1761 -1.9833
  678SOL    HW2 2711   2.422   1.575   0.225 -1.4130 -0.2151 -1.4519
  678SOL     MW 2712   2.408   1.645   0.281 -0.6393 -0.4882 -0.6451
  679SOL     OW 2713   2.240   0.435   1.241 -0.0894 -0.0531 -0.3950
  679SOL    HW1 2714   2.303   0.365   1.236 -0.3266  0.2030  1.5895
  679SOL    HW2 2715   2.166   0.406   1.294  0.1355 -0.0241 -2.2287
  679SOL     MW 2716   2.239   0.422   1.247 -0.0910 -0.0155 -0.3751
  680SOL     OW 2717   2.313   0.138   1.465  0.9609 -0.5685 -0.2879
  680SOL    HW1 2718   2.219   0.136   1.448 -1.5685 -0.3319  0.9271
  680SOL    HW2 2719   2.365   0.088   1.403 -1.5195  2.5796  1.8328
  680SOL     MW 2720   2.308   0.131   1.454  0.2999 -0.1219  0.1522
  681SOL     OW 2721   0.231   0.540   1.492 -0.2848  0.0570  0.0351
  681SOL    HW1 2722   0.220   0.497   1.576  0.7492 -0.0003  3.1591
  681SOL    HW2 2723   0.213   0.475   1.418  1.5881 -0.6189 -0.2894
  681SOL     MW 2724   0.227   0.526   1.493  0.0987 -0.0397  0.4045
  682SOL     OW 2725   0.124   2.881   1.495 -0.1057  0.4544 -0.4641
  682SOL    HW1 2726   0.191   2.950   1.517  1.0836  0.7261 -0.5471
  682SOL    HW2 2727   0.047   2.895   1.554  1.5598  0.1918 -0.3236
  682SOL     MW 2728   0.123   2.892   1.506  0.2710  0.4556 -0.4565
  683SOL     OW 2729   2.071   0.843   2.977 -0.4289 -0.2413 -0.0315
  683SOL    HW1 2730   2.009   0.774   2.985  0.3733  2.7772 -0.0419
  683SOL    HW2 2731   2.030   0.907   3.036 -1.4487 -0.1434 -0.8065
  683SOL     MW 2732   2.058   0.842   2.986 -0.4576  0.1699 -0.1351
  684SOL     OW 2733   2.150   1.705   0.680 -0.4166  0.5683 -0.6511
  684SOL    HW1 2734   2.129   1.710   0.584 -3.6192  0.4647  1.9575
  684SOL    HW2 2735   2.134   1.610   0.697  2.4799  0.0296  0.5184
  684SOL     MW 2736   2.145   1.693   0.670 -0.4570  0.4835 -0.1526
  685SOL     OW 2737   2.717   1.660   1.180 -0.2461  0.2306 -0.2597
  685SOL    HW1 2738   2.747   1.692   1.260 -0.9280  0.8065 -0.3162
  685SOL    HW2 2739   2.739   1.571   1.196 -2.4618  0.7338 -1.7582
  685SOL     MW 2740   2.724   1.652   1.193 -0.6284  0.3730 -0.4649
  686SOL     OW 2741   2.890   0.680   1.574  0.5375 -1.0746  1.2519
  686SOL    HW1 2742   2.889   0.663   1.671  1.6129 -1.6565  0.1476
  686SOL    HW2 2743   2.965   0.728   1.544  1.5844  1.3180 -0.6044
  686SOL     MW 2744   2.900   0.684   1.583  0.8175 -0.8357  0.8613
  687SOL     OW 2745   2.150   0.167   1.170  0.2351  0.1981 -0.2077
  687SOL    HW1 2746   2.187   0.119   1.095 -0.2613 -1.5982  0.2685
  687SOL    HW2 2747   2.108   0.247   1.123  0.5571  2.3999 -1.9709
  687SOL     MW 2748   2.149   0.172   1.154  0.2121  0.2516 -0.3775
  688SOL     OW 2749   2.387   0.599   1.398  0.0326 -0.3999 -0.6672
  688SOL    HW1 2750   2.346   0.541   1.337  1.3395 -1.4121  0.0712
  688SOL    HW2 2751   2.316   0.636   1.456  2.5378 -0.3716 -1.1147
  688SOL     MW 2752   2.372   0.596   1.397  0.5356 -0.5297 -0.6288
  689SOL     OW 2753   2.463   0.776   2.943  0.3662  0.7790 -0.4513
  689SOL    HW1 2754   2.409   0.854   2.934  0.4576 -1.3684 -0.7190
  689SOL    HW2 2755   2.515   0.785   3.023 -1.7549  2.4567  1.3566
  689SOL     MW 2756   2.463   0.787   2.952  0.0984  0.7170 -0.2481
  690SOL     OW 2757   2.025   0.906   1.887 -0.2421 -0.1533 -0.1204
  690SOL    HW1 2758   2.007   0.815   1.907 -0.9537  1.3639 -1.7211
  690SOL    HW2 2759   2.028   0.914   1.791 -1.0183  2.1234  1.6869
  690SOL     MW 2760   2.023   0.895   1.877 -0.4384  0.3473 -0.0931
  691SOL     OW 2761   2.418   0.241   0.850  0.0360  0.4770  0.1460
  691SOL    HW1 2762   2.514   0.264   0.876 -1.9545  0.2392  1.0255
  691SOL    HW2 2763   2.366   0.312   0.889  0.0944  0.3053 -1.3239
  691SOL     MW 2764   2.424   0.253   0.859 -0.2189  0.4230  0.0681
  692SOL     OW 2765   2.885   1.591   1.408  0.1249 -0.1395  0.2906
  692SOL    HW1 2766   2.849   1.573   1.491 -1.5365  0.2005 -0.8327
  692SOL    HW2 2767   2.907   1.685   1.415  1.0845 -1.2418 -0.1926
  692SOL     MW 2768   2.883   1.601   1.420  0.0323 -0.2401  0.0786
  693SOL     OW 2769   2.317   0.426   0.094 -0.2747 -0.4290 -0.5939
  693SOL    HW1 2770   2.226   0.394   0.081  0.7609 -2.4708  1.9052
  693SOL    HW2 2771   2.302   0.517   0.111 -1.0381 -1.3798  1.4139
  693SOL     MW 2772   2.303   0.434   0.095 -0.2388 -0.8238  0.0008
  694SOL     OW 2773   1.894   1.113   1.071 -0.6378  0.4392 -0.0213
  694SOL    HW1 2774   1.982   1.145   1.112  2.1454 -1.1001 -0.0282
  694SOL    HW2 2775   1.860   1.045   1.136 -0.3264 -1.9864  2.9765
  694SOL     MW 2776   1.901   1.108   1.085 -0.2295 -0.0839  0.3734
  695SOL     OW 2777   2.973   1.371   1.289 -0.3525 -0.3363 -0.2401
  695SOL    HW1 2778   2.961   1.388   1.194 -4.0154  1.0817 -3.3283
  695SOL    HW2 2779   2.944   1.452   1.345  2.0463  1.4472 -0.6312
  695SOL     MW 2780   2.967   1.384   1.284 -0.5193  0.0861 -0.6991
  696SOL     OW 2781   2.101   1.433   0.758 -0.0127 -0.3608  0.4112
  696SOL    HW1 2782   2.138   1.458   0.839 -0.5173  0.2466  0.0193
  696SOL    HW2 2783   2.035   1.364   0.776  2.7859 -0.8806 -1.6961
  696SOL     MW 2784   2.097   1.427   0.771  0.2900 -0.3493  0.0815
  697SOL     OW 2785   2.876   0.982   2.258  0.4537  0.6592  0.0091
  697SOL    HW1 2786   2.805   1.045   2.257  1.7937 -3.9672  1.7863
  697SOL    HW2 2787   2.840   0.910   2.196  0.8931  0.9729 -1.1906
  697SOL     MW 2788   2.862   0.980   2.250  0.6885  0.0902  0.0853
  698SOL     OW 2789   2.576   0.279   0.020  0.1579 -0.5435  0.0317
  698SOL    HW1 2790   2.488   0.317   0.040  0.4515  0.6347  1.8555
  698SOL    HW2 2791   2.619   0.249   0.108  2.5282  1.4060 -0.2285
  698SOL     MW 2792   2.570   0.280   0.034  0.5094 -0.1308  0.2380
  699SOL     OW 2793   1.926   1.630   2.088  0.5141  0.0501  0.0339
  699SOL    HW1 2794   1.855   1.567   2.069 -3.1480  0.2873 -3.2067
  699SOL    HW2 2795   2.003   1.571   2.103  3.5540  0.0780 -2.2256
  699SOL     MW 2796   1.927   1.614   2.087  0.4320  0.0851 -0.6918
  700SOL     OW 2797   2.710   0.885   1.578 -0.1006 -0.4986 -0.5053
  700SOL    HW1 2798   2.751   0.956   1.517 -0.9916  0.0648 -0.7561
  700SOL    HW2 2799   2.765   0.805   1.562  2.5161  0.1900  0.6040
  700SOL     MW 2800   2.722   0.884   1.568  0.1271 -0.3334 -0.3920
  701SOL     OW 2801   1.682   1.167   2.501 -0.3696  0.1885  0.2384
  701SOL    HW1 2802   1.751   1.150   2.563  0.4030 -1.3768  0.5114
  701SOL    HW2 2803   1.631   1.227   2.552  1.3442 -0.8672 -0.7081
  701SOL     MW 2804   1.685   1.173   2.516 -0.0416 -0.1573  0.1495
  702SOL     OW 2805   2.158   0.432   0.831  0.3966  0.5814 -0.2575
  702SOL    HW1 2806   2.127   0.350   0.793  1.1482  1.2282 -0.8398
  702SOL    HW2 2807   2.224   0.464   0.771  1.6774 -2.3383  1.3964
  702SOL     MW 2808   2.163   0.426   0.818  0.6647  0.2815 -0.1161
  703SOL     OW 2809   2.726   1.239   0.983 -0.0231 -0.2902 -0.4030
  703SOL    HW1 2810   2.670   1.217   0.910  0.4753 -0.1441 -0.8254
  703SOL    HW2 2811   2.712   1.173   1.048 -1.1751  0.1892 -1.7501
  703SOL     MW 2812   2.716   1.227   0.982 -0.1093 -0.2077 -0.6365
  704SOL     OW 2813   3.039   1.275   0.144  0.5233  0.1450 -0.7520
  704SOL    HW1 2814   2.943   1.271   0.123 -2.2035  0.4797 -0.0611
  704SOL    HW2 2815   3.044   1.230   0.232 -0.6058 -1.7533 -0.5995
  704SOL     MW 2816   3.027   1.268   0.153  0.0146 -0.0613 -0.6407
  705SOL     OW 2817   2.122   1.605   1.289 -0.3499 -0.2596  0.0778
  705SOL    HW1 2818   2.115   1.661   1.374 -3.2953 -2.6440  0.4116
  705SOL    HW2 2819   2.162   1.524   1.311  1.1312 -0.9507 -0.1224
  705SOL     MW 2820   2.127   1.602   1.303 -0.5431 -0.6654  0.0954
  706SOL     OW 2821   2.952   1.257   0.635  0.2713  0.0673  0.4455
  706SOL    HW1 2822   2.995   1.250   0.546  0.0995 -0.2398 -0.3638
  706SOL    HW2 2823   2.904   1.346   0.645  2.4376 -1.4582  3.0524
  706SOL     MW 2824   2.951   1.267   0.625  0.5345 -0.1745  0.6827
  707SOL     OW 2825   2.340   0.005   0.992  0.0071 -0.2620 -0.6479
  707SOL    HW1 2826   2.361   0.092   0.951 -1.5210 -1.8819 -0.8094
  707SOL    HW2 2827   2.252  -0.026   0.962  1.8377 -2.3255  1.9927
  707SOL     MW 2828   2.331   0.012   0.983  0.0470 -0.7480 -0.3208
  708SOL     OW 2829   2.461   1.395   0.167  0.4253  0.0905 -0.3588
  708SOL    HW1 2830   2.552   1.365   0.182 -0.7365 -0.3096 -0.6379
  708SOL    HW2 2831   2.440   1.361   0.081  0.9733 -3.4229  1.2374
  708SOL     MW 2832   2.471   1.387   0.158  0.3443 -0.4258 -0.1850
  709SOL     OW 2833   1.712   1.632   0.214 -0.1342 -0.2740 -0.0282
  709SOL    HW1 2834   1.712   1.642   0.120  0.3614  0.6522  0.6134
  709SOL    HW2 2835   1.626   1.622   0.248 -1.2036  3.2241  2.5314
  709SOL     MW 2836   1.700   1.632   0.206 -0.2099  0.3097  0.3942
  710SOL     OW 2837   2.144   1.172   1.169  0.0598  0.2319  0.0641
  710SOL    HW1 2838   2.216   1.166   1.105 -0.0064  0.6536  1.1790
  710SOL    HW2 2839   2.165   1.090   1.222  1.3628 -0.7506  3.4044
  710SOL     MW 2840   2.156   1.161   1.168  0.2230  0.1579  0.6520
  711SOL     OW 2841   2.363   0.123   1.798  0.7723  0.6502  0.0346
  711SOL    HW1 2842   2.453   0.109   1.817 -0.2191 -0.3093  1.2309
  711SOL    HW2 2843   2.360   0.155   1.706 -0.4767 -0.7773 -0.1899
  711SOL     MW 2844   2.374   0.126   1.789  0.4767  0.3353  0.1628
  712SOL     OW 2845   1.902   0.626   3.065 -0.5273  0.1345 -0.2259
  712SOL    HW1 2846   1.822   0.673   3.042 -1.2777  1.7533  2.5201
  712SOL    HW2 2847   1.915   0.640   3.154 -0.0896 -1.2258 -1.9589
  712SOL     MW 2848   1.893   0.634   3.073 -0.5685  0.1686 -0.0922
  713SOL     OW 2849   2.551   0.710   1.089  0.0770 -0.0473 -0.0881
  713SOL    HW1 2850   2.600   0.637   1.129 -0.3340  0.0180 -2.2708
  713SOL    HW2 2851   2.460   0.702   1.104  0.5083  1.2100  1.5346
  713SOL     MW 2852   2.546   0.699   1.096  0.0797  0.1272 -0.1620
  714SOL     OW 2853   2.203   0.209   2.004  0.1535  0.4200  0.5142
  714SOL    HW1 2854   2.247   0.159   2.070 -0.3859  0.7974 -1.6315
  714SOL    HW2 2855   2.269   0.198   1.930  1.9318  1.5491 -1.1565
  714SOL     MW 2856   2.217   0.201   2.003  0.3170  0.6188  0.0107
  715SOL     OW 2857   1.817   2.051   1.744 -0.1731 -0.0012  0.2434
  715SOL    HW1 2858   1.904   2.084   1.745  0.6085 -0.0805 -0.4995
  715SOL    HW2 2859   1.814   1.975   1.808  0.9324 -1.0205 -0.5481
  715SOL     MW 2860   1.829   2.045   1.752  0.0758 -0.1462  0.0409
  716SOL     OW 2861   2.329   0.548   0.656  0.4003 -0.1761  0.1674
  716SOL    HW1 2862   2.394   0.487   0.617 -0.5992  1.3094  1.1802
  716SOL    HW2 2863   2.261   0.581   0.586 -1.0967  3.8337  0.8008
  716SOL     MW 2864   2.328   0.544   0.641  0.0709  0.5489  0.3846
  717SOL     OW 2865   2.826   1.633   2.896  0.2885 -0.4775 -0.2506
  717SOL    HW1 2866   2.891   1.619   2.968  1.2679  0.4121  0.0897
  717SOL    HW2 2867   2.764   1.702   2.943  1.1549  0.3366  0.8392
  717SOL     MW 2868   2.827   1.640   2.911  0.5320 -0.2527 -0.0619
  718SOL     OW 2869   2.678   1.388   1.325 -0.2722 -0.3773 -0.0818
  718SOL    HW1 2870   2.655   1.371   1.417  1.1128 -0.0057  0.4765
  718SOL    HW2 2871   2.740   1.318   1.306  1.4627 -1.2264 -0.2015
  718SOL     MW 2872   2.684   1.376   1.334  0.1394 -0.4403 -0.0239
  719SOL     OW 2873   2.186   1.255   0.579  0.1228  0.5770  0.2463
  719SOL    HW1 2874   2.262   1.291   0.532  1.3825  0.4381 -0.5125
  719SOL    HW2 2875   2.181   1.320   0.663  0.0651  1.3709  0.3189
  719SOL     MW 2876   2.196   1.268   0.584  0.2814  0.6634  0.1558
  720SOL     OW 2877   2.783   1.161   0.032  0.1226  0.6367 -0.5232
  720SOL    HW1 2878   2.795   1.074   0.076 -2.7267  0.3996  0.7031
  720SOL    HW2 2879   2.758   1.219   0.106  1.4914 -0.7120 -1.8697
  720SOL     MW 2880   2.781   1.157   0.048 -0.0728  0.4275 -0.5390
  721SOL     OW 2881   2.483   0.850   1.395 -0.2648 -0.4880 -0.4495
  721SOL    HW1 2882   2.461   0.759   1.412  1.1153  1.8370 -0.4641
  721SOL    HW2 2883   2.550   0.875   1.452  1.9596 -0.0790 -0.7441
  721SOL     MW 2884   2.489   0.841   1.405  0.2108 -0.1273 -0.4903
  722SOL     OW 2885   2.601   1.124   0.373 -0.5861  0.5609 -0.2060
  722SOL    HW1 2886   2.546   1.187   0.409 -1.4450  1.6528 -0.9742
  722SOL    HW2 2887   2.665   1.091   0.446 -2.3750 -1.9724 -0.7848
  722SOL     MW 2888   2.602   1.128   0.387 -0.9355  0.3707 -0.3837
  723SOL     OW 2889   2.317   1.354   1.586 -0.3165 -0.3697 -0.3463
  723SOL    HW1 2890   2.305   1.364   1.489  0.5980 -2.4385 -1.7600
  723SOL    HW2 2891   2.256   1.413   1.628  2.3591 -0.7597  1.7111
  723SOL     MW 2892   2.307   1.363   1.578  0.1572 -0.6941 -0.2614
  724SOL     OW 2893   2.482   0.315   0.592  0.1605 -0.1000  0.0807
  724SOL    HW1 2894   2.457   0.293   0.682 -0.1234 -0.2841  0.7021
  724SOL    HW2 2895   2.556   0.255   0.581  0.5972 -0.9376  2.0699
  724SOL     MW 2896   2.488   0.304   0.603  0.1806 -0.2348  0.4252
  725SOL     OW 2897   2.592   0.419   1.221  0.1330 -0.1166 -0.0639
  725SOL    HW1 2898   2.633   0.476   1.283 -1.4244 -0.6398  1.7988
  725SOL    HW2 2899   2.631   0.337   1.237 -1.0116  0.7307 -0.2292
  725SOL     MW 2900   2.602   0.416   1.231 -0.2235 -0.0738  0.1601
  726SOL     OW 2901   2.530   2.524   0.524  0.2576  0.2576 -0.3324
  726SOL    HW1 2902   2.509   2.618   0.502 -0.7108  0.0278 -3.2307
  726SOL    HW2 2903   2.522   2.521   0.620 -2.4149  1.4005 -0.9575
  726SOL     MW 2904   2.526   2.536   0.534 -0.2228  0.3781 -0.7973
  727SOL     OW 2905   2.851   0.338   1.765  0.1051 -0.1519 -0.2328
  727SOL    HW1 2906   2.782   0.346   1.692 -1.4737  1.1228 -1.3188
  727SOL    HW2 2907   2.793   0.312   1.838 -0.0803  0.7603 -1.2812
  727SOL     MW 2908   2.834   0.336   1.765 -0.1277  0.1366 -0.5144
  728SOL     OW 2909   2.849   1.164   2.863  0.0602  0.4766  0.3424
  728SOL    HW1 2910   2.845   1.236   2.796  0.6268 -3.2739  0.3557
  728SOL    HW2 2911   2.829   1.194   2.954 -0.5153  1.8119  1.8646
  728SOL     MW 2912   2.846   1.178   2.866  0.0590  0.1580  0.5450
  729SOL     OW 2913   2.450   1.465   1.147  0.8035  0.0959 -0.9407
  729SOL    HW1 2914   2.531   1.430   1.179 -0.2159  1.4566 -1.1221
  729SOL    HW2 2915   2.458   1.448   1.050  2.0800 -0.7305 -1.2711
  729SOL     MW 2916   2.462   1.458   1.139  0.8374  0.1664 -1.0082
  730SOL     OW 2917   2.233   1.190   0.294 -0.5563  0.0954 -0.3282
  730SOL    HW1 2918   2.298   1.123   0.273  1.9839 -0.5180  0.4209
  730SOL    HW2 2919   2.257   1.274   0.251 -1.9181 -0.5628  0.8950
  730SOL     MW 2920   2.245   1.192   0.285 -0.4008 -0.0724 -0.0680
  731SOL     OW 2921   2.786   2.072   2.866 -0.3107  0.2652 -0.0084
  731SOL    HW1 2922   2.736   2.030   2.794 -0.2286 -1.9147 -1.0143
  731SOL    HW2 2923   2.858   2.014   2.866 -0.8207 -0.6832 -0.6374
  731SOL     MW 2924   2.789   2.059   2.857 -0.3672 -0.1476 -0.2241
  732SOL     OW 2925   2.220   0.967   1.320 -0.3951  0.9404 -0.3249
  732SOL    HW1 2926   2.154   0.971   1.394 -1.0214 -0.9296  1.4524
  732SOL    HW2 2927   2.304   0.936   1.346 -0.0850 -0.6386 -1.7088
  732SOL     MW 2928   2.222   0.964   1.333 -0.4368  0.4854 -0.2730
  733SOL     OW 2929   2.391   2.821   3.022 -0.3571 -0.1870 -0.0779
  733SOL    HW1 2930   2.298   2.856   3.039  0.1569  1.1585  2.0815
  733SOL    HW2 2931   2.367   2.726   3.006 -1.2242 -0.3598  0.0918
  733SOL     MW 2932   2.375   2.813   3.022 -0.4037 -0.0323  0.2294
  734SOL     OW 2933   1.528   0.266   2.531  0.3876 -0.3990 -0.3169
  734SOL    HW1 2934   1.475   0.245   2.609 -1.4657 -0.6385  0.2757
  734SOL    HW2 2935   1.512   0.210   2.456  1.4216  0.6264  0.2980
  734SOL     MW 2936   1.519   0.256   2.531  0.2795 -0.2953 -0.1576
  735SOL     OW 2937   2.948   0.934   2.657  0.7057  0.5977  0.0815
  735SOL    HW1 2938   2.925   0.838   2.657  3.1956  0.3824  0.1430
  735SOL    HW2 2939   2.982   0.946   2.748 -1.6786  0.2972  0.8417
  735SOL     MW 2940   2.950   0.923   2.669  0.7197  0.5297  0.1899
  736SOL     OW 2941   0.084   0.621   2.586  0.4116 -0.6027  0.2946
  736SOL    HW1 2942   0.092   0.687   2.512 -2.0080  1.1017  0.2264
  736SOL    HW2 2943   0.094   0.539   2.541  1.7238 -0.3482 -1.4360
  736SOL     MW 2944   0.086   0.619   2.570  0.2655 -0.3443  0.0573
  737SOL     OW 2945   2.921   0.657   2.643  0.0930  0.5204 -0.0555
  737SOL    HW1 2946   2.878   0.613   2.573  1.4397  1.6909 -1.3090
  737SOL    HW2 2947   3.015   0.655   2.619 -2.5543  0.6965  0.9519
  737SOL     MW 2948   2.928   0.651   2.630 -0.0786  0.6980 -0.0880
  738SOL     OW 2949   0.198   0.587   1.905 -0.5427 -0.5954 -0.3498
  738SOL    HW1 2950   0.291   0.617   1.912  0.9145 -0.3127  0.7729
  738SOL    HW2 2951   0.196   0.526   1.832 -1.0237  1.8777 -1.2133
  738SOL     MW 2952   0.210   0.583   1.896 -0.4139 -0.2318 -0.3156
  739SOL     OW 2953   2.471   1.014   2.074 -0.4502 -0.4354  0.0954
  739SOL    HW1 2954   2.467   0.926   2.050  3.1822  0.4343  1.9109
  739SOL    HW2 2955   2.473   1.063   1.991 -3.0224  1.4062 -0.1084
  739SOL     MW 2956   2.471   1.009   2.060 -0.3103 -0.0777  0.3081
  740SOL     OW 2957   0.135   1.813   2.920 -0.3845  0.4095  0.1876
  740SOL    HW1 2958   0.099   1.725   2.937 -2.1322 -0.3152  0.8144
  740SOL    HW2 2959   0.230   1.813   2.943 -1.9480  0.7316 -0.8996
  740SOL     MW 2960   0.143   1.802   2.925 -0.8214  0.3564  0.1269
  741SOL     OW 2961   2.222   1.192   2.712  0.5533  0.5776 -0.0814
  741SOL    HW1 2962   2.160   1.253   2.675  0.9130  0.8226 -1.7941
  741SOL    HW2 2963   2.198   1.166   2.806 -1.8825 -1.2402 -0.7799
  741SOL     MW 2964   2.210   1.197   2.720  0.2794  0.3701 -0.3995
  742SOL     OW 2965   1.704   1.252   2.242  0.2203 -0.0610  0.2934
  742SOL    HW1 2966   1.612   1.237   2.217 -1.4192 -0.8757  0.5833
  742SOL    HW2 2967   1.698   1.222   2.333  2.1307  1.7536  0.3012
  742SOL     MW 2968   1.691   1.246   2.250  0.2560  0.0709  0.3327
  743SOL     OW 2969   2.501   1.259   2.712  0.2091  0.0017 -0.5402
  743SOL    HW1 2970   2.412   1.239   2.741 -0.9779 -0.3430  3.7858
  743SOL    HW2 2971   2.531   1.169   2.739 -0.0212 -2.0971 -0.5311
  743SOL     MW 2972   2.493   1.244   2.719  0.0221 -0.3207  0.0318
  744SOL     OW 2973   2.797   0.941   1.854  0.3520  0.2576  0.3208
  744SOL    HW1 2974   2.732   1.011   1.835 -1.7059  1.4556 -1.3060
  744SOL    HW2 2975   2.781   0.901   1.769 -0.3662  1.6200  0.1889
  744SOL     MW 2976   2.786   0.945   1.840 -0.0143  0.5954  0.0888
  745SOL     OW 2977   1.730   0.455   2.482 -0.4617  0.1537 -0.1180
  745SOL    HW1 2978   1.723   0.492   2.391  0.3668  3.2929  1.4312
  745SOL    HW2 2979   1.657   0.393   2.502  0.8922 -1.0984 -1.8995
  745SOL     MW 2980   1.719   0.452   2.472 -0.1737  0.4027 -0.1486
  746SOL     OW 2981   1.591   1.455   1.662 -0.3869 -0.2453  0.1642
  746SOL    HW1 2982   1.686   1.449   1.643 -2.5976 -0.6166  2.8489
  746SOL    HW2 2983   1.583   1.445   1.759 -1.5092 -0.1371  1.1444
  746SOL     MW 2984   1.602   1.453   1.672 -0.8267 -0.2800  0.6478
  747SOL     OW 2985   2.583   1.117   1.803  0.1982 -0.1221  0.3110
  747SOL    HW1 2986   2.490   1.112   1.773  1.6149  0.5622 -2.5216
  747SOL    HW2 2987   2.587   1.182   1.873 -1.7876  0.3150  1.4261
  747SOL     MW 2988   2.572   1.125   1.808  0.1231  0.0259  0.0844
  748SOL     OW 2989   0.091   0.004   1.919 -0.0813  0.1550 -0.0117
  748SOL    HW1 2990   0.164   0.046   1.882  1.9489 -0.7660 -0.5152
  748SOL    HW2 2991   0.044   0.073   1.972 -1.6715  3.2828  0.8551
  748SOL     MW 2992   0.094   0.019   1.921 -0.0232  0.4462  0.0362
  749SOL     OW 2993   2.482   0.592   2.732 -0.0848  0.0354  0.4082
  749SOL    HW1 2994   2.504   0.665   2.671  0.5201 -1.6775 -4.2430
  749SOL    HW2 2995   2.496   0.638   2.816  1.4575 -1.3432 -1.2455
  749SOL     MW 2996   2.487   0.608   2.735  0.1985 -0.3725 -0.4237
  750SOL     OW 2997   2.049   3.068   1.967 -0.2520  0.6203  0.3182
  750SOL    HW1 2998   2.090   3.151   1.967  0.7572 -1.3211 -1.3309
  750SOL    HW2 2999   2.127   3.015   1.977 -0.9720  0.9188  0.7840
  750SOL     MW 3000   2.064   3.072   1.968 -0.2139  0.4035  0.1620
  751SOL     OW 3001   0.093   0.409   2.382  0.5573  0.1643  0.5139
  751SOL    HW1 3002   0.079   0.326   2.426 -0.8688  2.4943  0.4020
  751SOL    HW2 3003   0.160   0.393   2.312  0.4779  0.2405  1.8870
  751SOL     MW 3004   0.100   0.396   2.379  0.3587  0.4818  0.6803
  752SOL     OW 3005   2.132   0.749   2.717 -0.2848 -0.1180  0.2939
  752SOL    HW1 3006   2.179   0.825   2.676  2.0613 -0.0602 -0.2568
  752SOL    HW2 3007   2.125   0.778   2.807 -0.5106 -2.4461  0.9237
  752SOL     MW 3008   2.137   0.763   2.723 -0.0051 -0.4176  0.3044
  753SOL     OW 3009   2.900   0.230   2.444 -0.3485  0.2553 -0.2951
  753SOL    HW1 3010   2.857   0.148   2.417 -2.1441 -1.0437 -1.5130
  753SOL    HW2 3011   2.856   0.312   2.451  1.2072  2.3643 -1.0770
  753SOL     MW 3012   2.888   0.230   2.442 -0.3802  0.3622 -0.5590
  754SOL     OW 3013   2.232   2.966   2.583 -0.2428  0.3910  0.5017
  754SOL    HW1 3014   2.271   2.932   2.505 -0.6656 -0.4379  0.6288
  754SOL    HW2 3015   2.311   2.946   2.639  0.2639 -0.7292 -1.2129
  754SOL     MW 3016   2.248   2.959   2.580 -0.2317  0.1338  0.2922
  755SOL     OW 3017   2.719   1.517   2.467 -1.3166  0.5109 -0.1325
  755SOL    HW1 3018   2.706   1.433   2.523  0.4377 -3.1486 -2.3031
  755SOL    HW2 3019   2.788   1.572   2.513 -0.0525 -0.0718 -1.0537
  755SOL     MW 3020   2.727   1.513   2.480 -0.9184 -0.0488 -0.5405
  756SOL     OW 3021   2.181   1.178   2.983  0.0204 -0.3623  0.5029
  756SOL    HW1 3022   2.236   1.261   2.971  2.4649 -1.0744  1.0242
  756SOL    HW2 3023   2.247   1.116   3.008  0.4350  0.7814  0.8783
  756SOL     MW 3024   2.197   1.181   2.985  0.3976 -0.3054  0.6212
  757SOL     OW 3025   2.101   0.910   1.622  0.0218 -0.0060  0.4284
  757SOL    HW1 3026   2.130   0.818   1.616 -0.0687 -0.4613  0.1761
  757SOL    HW2 3027   2.005   0.915   1.596  0.4077  1.5662 -0.6074
  757SOL     MW 3028   2.093   0.899   1.618  0.0607  0.1414  0.2584
  758SOL     OW 3029   2.232   1.788   2.612  0.0515  0.7014 -0.4624
  758SOL    HW1 3030   2.207   1.801   2.524  1.3310  0.0246  1.8010
  758SOL    HW2 3031   2.333   1.774   2.628  4.2436 -1.0333 -0.3257
  758SOL     MW 3032   2.242   1.788   2.602  0.7734  0.3832 -0.1458
  759SOL     OW 3033   1.550   1.364   2.663 -0.2358  0.2350  0.1836
  759SOL    HW1 3034   1.550   1.447   2.614  0.8614 -0.6585 -1.2498
  759SOL    HW2 3035   1.607   1.378   2.742  2.1241  0.9294  0.1040
  759SOL     MW 3036   1.558   1.377   2.667  0.2204  0.2087 -0.0161
  760SOL     OW 3037   2.579   1.997   2.704  0.0923 -0.1316 -0.1703
  760SOL    HW1 3038   2.578   1.903   2.686 -1.7404 -0.7629  0.4965
  760SOL    HW2 3039   2.550   2.031   2.622  1.1237 -4.1568  2.5544
  760SOL     MW 3040   2.575   1.989   2.691 -0.0134 -0.7460  0.2772
  761SOL     OW 3041   2.191   0.346   2.431  0.2401 -0.6229  0.2417
  761SOL    HW1 3042   2.120   0.288   2.396  0.1447 -1.7623 -0.2207
  761SOL    HW2 3043   2.189   0.350   2.528 -0.4435 -1.6712 -1.2928
  761SOL     MW 3044   2.182   0.339   2.439  0.1374 -0.9116 -0.0217
  762SOL     OW 3045   0.035   0.196   2.120 -0.8163  0.1483 -0.4150
  762SOL    HW1 3046   0.017   0.134   2.187 -3.1610 -1.2809 -0.0856
  762SOL    HW2 3047  -0.029   0.267   2.124  1.4797 -0.8796 -1.5392
  762SOL     MW 3048   0.024   0.197   2.130 -0.8227 -0.1759 -0.5199
  763SOL     OW 3049   2.345   1.020   2.347  0.1349 -0.4242  0.0606
  763SOL    HW1 3050   2.364   0.963   2.268 -2.7013  2.3019 -2.3411
  763SOL    HW2 3051   2.423   1.085   2.366  0.2935 -1.1994 -0.9751
  763SOL     MW 3052   2.358   1.021   2.339 -0.2184 -0.1668 -0.3930
  764SOL     OW 3053   0.489   0.225   2.803  0.3863 -0.0235 -0.2623
  764SOL    HW1 3054   0.408   0.176   2.789 -2.8289  1.4164 -1.4847
  764SOL    HW2 3055   0.455   0.317   2.817 -1.0843 -1.1702 -3.3811
  764SOL     MW 3056   0.474   0.231   2.803 -0.2320  0.0152 -0.8351
  765SOL     OW 3057   2.754   3.102   2.352 -0.2540 -0.6523 -0.0904
  765SOL    HW1 3058   2.704   3.080   2.267 -0.7308  2.5096  0.9467
  765SOL    HW2 3059   2.802   3.017   2.369 -0.4976 -1.8768  1.0186
  765SOL     MW 3060   2.754   3.088   2.343 -0.3491 -0.3967  0.1928
  766SOL     OW 3061   1.864   2.969   2.158  0.0410 -0.3572 -0.1434
  766SOL    HW1 3062   1.915   3.007   2.095 -0.2501 -0.8634  0.4496
  766SOL    HW2 3063   1.792   2.927   2.111 -0.2512  1.5647 -1.6003
  766SOL     MW 3064   1.862   2.969   2.144 -0.0360 -0.1704 -0.2574
  767SOL     OW 3065   2.661   0.561   2.006  0.3171  0.1392  0.4785
  767SOL    HW1 3066   2.681   0.623   2.076 -0.9076 -0.6175  2.3896
  767SOL    HW2 3067   2.566   0.559   2.020 -0.2983  1.5696 -0.2149
  767SOL     MW 3068   2.651   0.569   2.017  0.0743  0.2281  0.6392
  768SOL     OW 3069   3.081   1.577   2.971 -0.1407  0.5793  0.0127
  768SOL    HW1 3070   3.127   1.539   3.054 -1.8204  1.8403  3.3346
  768SOL    HW2 3071   3.074   1.503   2.913  0.3332  5.7036  1.7414
  768SOL     MW 3072   3.086   1.562   2.974 -0.2998  1.4218  0.6791
  769SOL     OW 3073   2.431   0.688   2.319 -0.0271  0.3151 -0.1694
  769SOL    HW1 3074   2.338   0.672   2.348 -1.0950  3.7135 -2.3597
  769SOL    HW2 3075   2.456   0.600   2.282  1.1345 -0.2934 -0.2486
  769SOL     MW 3076   2.422   0.674   2.318 -0.0147  0.6832 -0.4688
  770SOL     OW 3077   0.068   1.590   2.606 -0.8685 -0.5265  0.1455
  770SOL    HW1 3078  -0.027   1.613   2.593  1.2299  0.0777 -0.0372
  770SOL    HW2 3079   0.067   1.517   2.667  0.5680  2.6399  0.8991
  770SOL     MW 3080   0.055   1.584   2.612 -0.4021 -0.0290  0.2209
  771SOL     OW 3081   3.059   0.668   2.012  0.7365 -0.5015 -0.0485
  771SOL    HW1 3082   3.012   0.628   1.938 -1.8654  0.4097 -1.0408
  771SOL    HW2 3083   3.145   0.630   1.998 -1.8173  2.3596 -2.1882
  771SOL     MW 3084   3.064   0.657   2.001  0.0562 -0.0038 -0.4618
  772SOL     OW 3085   3.091   3.105   2.328  0.0305 -0.0576  0.0343
  772SOL    HW1 3086   3.002   3.068   2.318  1.0718 -2.2548 -1.3903
  772SOL    HW2 3087   3.151   3.039   2.285 -0.0978 -3.1573 -0.4566
  772SOL     MW 3088   3.087   3.092   2.321  0.1510 -0.7565 -0.2185
  773SOL     OW 3089   2.436   2.842   2.752 -0.4473  0.1997  0.3907
  773SOL    HW1 3090   2.437   2.751   2.726  0.5866 -0.4831  1.3030
  773SOL    HW2 3091   2.402   2.854   2.842  0.5152  2.4283 -1.6183
  773SOL     MW 3092   2.431   2.831   2.760 -0.1839  0.4036  0.2460
  774SOL     OW 3093   2.295   1.072   1.741  0.1145 -0.0819 -0.1997
  774SOL    HW1 3094   2.296   1.137   1.668  3.0856  1.6755 -0.6307
  774SOL    HW2 3095   2.219   1.007   1.723 -1.2221  0.2719 -1.5558
  774SOL     MW 3096   2.285   1.072   1.729  0.3302  0.1967 -0.4355
  775SOL     OW 3097   2.276   2.872   2.312  0.3756  0.0459 -0.7220
  775SOL    HW1 3098   2.312   2.956   2.273  2.7075  0.3775  1.7451
  775SOL    HW2 3099   2.332   2.793   2.284  0.6061  0.4629 -0.1140
  775SOL     MW 3100   2.288   2.873   2.303  0.7137  0.1447 -0.3163
  776SOL     OW 3101   0.107   1.481   0.095 -0.1016 -0.1760  0.0822
  776SOL    HW1 3102   0.199   1.441   0.091 -2.8464  2.2772 -1.3289
  776SOL    HW2 3103   0.042   1.405   0.101  0.8476 -2.0319 -1.8846
  776SOL     MW 3104   0.111   1.466   0.095 -0.3385 -0.0972 -0.3635
  777SOL     OW 3105   2.934   1.161   1.759 -0.1597 -0.0309 -0.4482
  777SOL    HW1 3106   2.856   1.207   1.725  1.3699  0.8729 -1.5796
  777SOL    HW2 3107   2.913   1.069   1.773 -0.6342  1.9488 -0.1386
  777SOL     MW 3108   2.921   1.155   1.756 -0.0205  0.3495 -0.5566
  778SOL     OW 3109   2.889   0.467   2.819  0.5392  0.6252 -0.1737
  778SOL    HW1 3110   2.827   0.497   2.889 -1.2775  1.6011 -0.4342
  778SOL    HW2 3111   2.907   0.538   2.757 -1.0764  0.5918  0.6090
  778SOL     MW 3112   2.884   0.480   2.820  0.0863  0.7496 -0.1048
  779SOL     OW 3113   2.165   0.611   2.352 -0.7824 -0.2190  0.3138
  779SOL    HW1 3114   2.115   0.680   2.398 -0.5246  4.4210  2.2162
  779SOL    HW2 3115   2.172   0.528   2.405  1.0064  0.3373 -2.0040
  779SOL     MW 3116   2.159   0.609   2.365 -0.5124  0.4666  0.2590
  780SOL     OW 3117   0.235   0.096   2.772  0.3315  0.2006  0.7569
  780SOL    HW1 3118   0.172   0.141   2.832  1.0197 -2.3761 -0.1782
  780SOL    HW2 3119   0.194   0.095   2.684  2.8283  0.2484 -1.0291
  780SOL     MW 3120   0.221   0.101   2.768  0.7517 -0.1331  0.3979
  781SOL     OW 3121   3.071   1.283   2.504  0.0571 -0.2054 -0.1081
  781SOL    HW1 3122   3.075   1.332   2.422  1.0028  0.8295  0.1924
  781SOL    HW2 3123   3.107   1.196   2.486  2.8553 -0.5668 -0.1487
  781SOL     MW 3124   3.076   1.278   2.491  0.5511 -0.1165 -0.0738
  782SOL     OW 3125   0.521   1.549   2.990 -0.6105  1.3988 -0.2779
  782SOL    HW1 3126   0.476   1.635   3.002 -0.9347 -0.8768  1.6307
  782SOL    HW2 3127   0.552   1.523   3.078  3.1104  1.4829  2.1638
  782SOL     MW 3128   0.519   1.557   3.003 -0.1623  1.1096  0.2961
  783SOL     OW 3129   2.803   0.482   2.469  0.3638 -0.4008 -0.3953
  783SOL    HW1 3130   2.735   0.473   2.399  2.7277  0.7468 -0.0017
  783SOL    HW2 3131   2.760   0.470   2.556 -0.8085  1.3899 -1.8192
  783SOL     MW 3132   2.788   0.479   2.471  0.5210 -0.0131 -0.5313
  784SOL     OW 3133   0.231   0.906   2.905  0.2594 -0.7673 -0.2962
  784SOL    HW1 3134   0.208   0.988   2.963 -2.6505  2.0879  0.1632
  784SOL    HW2 3135   0.218   0.940   2.814 -0.1044 -2.2056  0.4247
  784SOL     MW 3136   0.226   0.921   2.901 -0.1725 -0.5804 -0.1405
  785SOL     OW 3137   0.452   0.522   2.166  0.0872 -0.5388 -0.5606
  785SOL    HW1 3138   0.455   0.565   2.080  0.3987  0.2695  1.9337
  785SOL    HW2 3139   0.383   0.455   2.149 -1.5455  2.4172  0.3587
  785SOL     MW 3140   0.443   0.519   2.152 -0.0871 -0.0421 -0.1102
  786SOL     OW 3141   1.988   0.476   2.839  0.8543  0.3776  0.5463
  786SOL    HW1 3142   1.987   0.547   2.909  1.0671 -1.9224  1.7766
  786SOL    HW2 3143   2.084   0.477   2.825 -0.8129 -0.3235  0.8628
  786SOL     MW 3144   2.000   0.486   2.847  0.6624 -0.0184  0.7504
  787SOL     OW 3145   2.448   0.111   2.905 -0.3983 -0.3224 -0.1732
  787SOL    HW1 3146   2.519   0.058   2.861 -0.1104  1.6773 -2.2514
  787SOL    HW2 3147   2.497   0.183   2.957  0.6019  1.6965 -0.6799
  787SOL     MW 3148   2.464   0.114   2.906 -0.2283  0.2078 -0.5143
  788SOL     OW 3149   2.900   2.861   2.338  0.7529 -0.0955 -0.5105
  788SOL    HW1 3150   2.871   2.785   2.288  2.4620  1.7103  0.3397
  788SOL    HW2 3151   2.982   2.826   2.393  0.0013  2.2174  2.1106
  788SOL     MW 3152   2.907   2.846   2.338  0.8792  0.4479 -0.0525
  789SOL     OW 3153   0.085   0.234   2.947 -0.0862 -0.0086  0.6238
  789SOL    HW1 3154   0.003   0.195   2.975 -3.6614 -0.8545 -2.4336
  789SOL    HW2 3155   0.063   0.326   2.962 -0.2164  1.3228  1.3355
  789SOL     MW 3156   0.071   0.241   2.952 -0.5751  0.0555  0.3143
  790SOL     OW 3157   0.016   1.024   2.445  0.0744 -0.0498  0.6173
  790SOL    HW1 3158  -0.043   0.986   2.516 -1.0937 -1.1122  0.8565
  790SOL    HW2 3159  -0.045   1.002   2.371 -0.6474 -0.9867 -3.4297
  790SOL     MW 3160   0.000   1.016   2.445 -0.1750 -0.3136  0.1149
  791SOL     OW 3161   2.656   0.397   2.684 -0.0577  0.2953  0.7003
  791SOL    HW1 3162   2.583   0.458   2.715 -0.1280  1.0205 -1.4985
  791SOL    HW2 3163   2.736   0.413   2.736 -0.7245  0.2438 -0.7256
  791SOL     MW 3164   2.657   0.407   2.695 -0.1549  0.3842  0.2220
  792SOL     OW 3165   2.431   0.248   2.357 -0.7007  0.7417 -0.2083
  792SOL    HW1 3166   2.340   0.279   2.380 -2.2245  1.1872  0.9671
  792SOL    HW2 3167   2.474   0.197   2.432  1.0498 -1.6118  0.3620
  792SOL     MW 3168   2.424   0.245   2.370 -0.6708  0.4900  0.0220
  793SOL     OW 3169   1.788   1.015   1.908 -0.1290 -0.2642 -0.3071
  793SOL    HW1 3170   1.769   1.053   1.826 -0.5297 -3.4166  0.0582
  793SOL    HW2 3171   1.881   0.975   1.898  2.4794 -0.2646  1.5296
  793SOL     MW 3172   1.798   1.015   1.896  0.1623 -0.6802 -0.0166
  794SOL     OW 3173   1.434   2.247   0.103 -0.6719 -0.2607 -0.4515
  794SOL    HW1 3174   1.464   2.319   0.040 -1.0261  1.4217  0.2914
  794SOL    HW2 3175   1.471   2.278   0.187  0.1348  2.3008 -0.2091
  794SOL     MW 3176   1.443   2.261   0.106 -0.6122  0.2992 -0.3215
  795SOL     OW 3177   2.247   0.953   2.596 -0.6205 -0.2792 -0.7241
  795SOL    HW1 3178   2.218   1.038   2.627 -1.0473  0.9810 -2.8563
  795SOL    HW2 3179   2.282   0.964   2.506 -1.0360 -1.3503  0.8592
  795SOL     MW 3180   2.248   0.965   2.588 -0.7316 -0.2543 -0.7965
  796SOL     OW 3181   0.320   0.692   2.757  0.3139  0.7010 -0.0196
  796SOL    HW1 3182   0.277   0.756   2.815  0.5846  1.4086 -0.2321
  796SOL    HW2 3183   0.252   0.687   2.687  0.8344 -0.4968  2.1994
  796SOL     MW 3184   0.306   0.700   2.755  0.4183  0.6363  0.2451
  797SOL     OW 3185   2.609   0.140   2.547  0.2803  0.0538  0.2012
  797SOL    HW1 3186   2.629   0.233   2.568 -0.4538 -3.3653 -2.2582
  797SOL    HW2 3187   2.653   0.111   2.467 -2.6893 -1.3076 -0.0888
  797SOL     MW 3188   2.617   0.148   2.539 -0.2084 -0.5770 -0.1616
  798SOL     OW 3189   2.345   0.024   2.209 -0.1236  0.2501  0.0987
  798SOL    HW1 3190   2.375   0.105   2.250 -1.5898 -4.2624 -1.6431
  798SOL    HW2 3191   2.427  -0.008   2.167  0.4792 -2.0186  1.6706
  798SOL     MW 3192   2.360   0.030   2.209 -0.2375 -0.6447  0.0763
  799SOL     OW 3193   2.447   2.943   0.193 -0.0061 -0.0860 -0.0061
  799SOL    HW1 3194   2.436   2.900   0.106 -0.2527 -2.7580  2.3265
  799SOL    HW2 3195   2.401   3.024   0.196  1.7949 -0.9502 -0.2568
  799SOL     MW 3196   2.439   2.948   0.182  0.1990 -0.5526  0.2686
  800SOL     OW 3197   1.857   3.063   1.777  0.0654  0.3801  0.1866
  800SOL    HW1 3198   1.825   2.972   1.769  2.6628  0.9833 -1.5358
  800SOL    HW2 3199   1.931   3.060   1.838  1.0252 -1.3936 -0.7889
  800SOL     MW 3200   1.863   3.051   1.784  0.5347  0.2257 -0.1693
  801SOL     OW 3201   2.805   1.296   2.622 -0.0064  0.2250  0.1557
  801SOL    HW1 3202   2.769   1.202   2.614 -0.4476 -0.1602 -0.0763
  801SOL    HW2 3203   2.883   1.294   2.564 -0.8457  1.2805  1.1564
  801SOL     MW 3204   2.810   1.283   2.613 -0.1753  0.3134  0.2571
  802SOL     OW 3205   2.542   1.503   2.825 -0.3008 -0.0372  0.2454
  802SOL    HW1 3206   2.536   1.419   2.771  3.0410 -1.2599 -0.3983
  802SOL    HW2 3207   2.634   1.509   2.844  3.8802  0.7494 -0.8263
  802SOL     MW 3208   2.553   1.493   2.820  0.6918 -0.0947  0.0190
  803SOL     OW 3209   2.305   1.269   1.956  0.0118 -0.4027  0.4495
  803SOL    HW1 3210   2.270   1.224   2.035  0.4873  0.1209  1.2655
  803SOL    HW2 3211   2.287   1.212   1.887 -1.7661  0.7923  1.4595
  803SOL     MW 3212   2.298   1.256   1.957 -0.1600 -0.1760  0.6904
  804SOL     OW 3213   2.299   0.072   0.040  0.2715  0.2263 -0.4227
  804SOL    HW1 3214   2.232   0.137   0.040  0.7121 -0.4727 -0.1774
  804SOL    HW2 3215   2.355   0.077  -0.037 -1.2383  2.0676 -2.4168
  804SOL     MW 3216   2.297   0.082   0.030  0.1304  0.3770 -0.6535
  805SOL     OW 3217   2.722   1.053   2.602  0.3186  0.1691 -0.0941
  805SOL    HW1 3218   2.664   0.980   2.595  2.6587  0.3132  2.2839
  805SOL    HW2 3219   2.814   1.018   2.607 -1.6129 -0.0607 -0.6559
  805SOL     MW 3220   2.727   1.039   2.602  0.3725  0.1578  0.1455
  806SOL     OW 3221   2.621   0.417   2.273  0.1204 -0.3808  0.1153
  806SOL    HW1 3222   2.552   0.355   2.312  0.0730  1.6356  0.4464
  806SOL    HW2 3223   2.674   0.369   2.210  0.2910  0.5030 -3.5321
  806SOL     MW 3224   2.619   0.403   2.270  0.1367  0.0018 -0.3223
  807SOL     OW 3225   3.074   1.106   2.116 -0.0117  0.2415 -0.4171
  807SOL    HW1 3226   3.118   1.025   2.091 -0.6546 -1.9896  1.4769
  807SOL    HW2 3227   3.001   1.076   2.169 -1.2956 -1.5636 -0.8441
  807SOL     MW 3228   3.070   1.091   2.120 -0.2659 -0.2910 -0.2236
  808SOL     OW 3229   2.622   3.041   2.774 -0.0079 -0.6425  0.0168
  808SOL    HW1 3230   2.573   2.964   2.755 -1.2407  0.3000  1.3223
  808SOL    HW2 3231   2.630   3.090   2.687 -0.4499 -1.8810  1.5374
  808SOL     MW 3232   2.617   3.038   2.760 -0.2289 -0.6816  0.3897
  809SOL     OW 3233   2.512   1.223   2.397 -0.5626  0.0330 -0.0790
  809SOL    HW1 3234   2.545   1.217   2.493 -1.4854  1.4723  3.3298
  809SOL    HW2 3235   2.585   1.216   2.331 -1.1213 -3.2756  1.0571
  809SOL     MW 3236   2.526   1.221   2.401 -0.7581 -0.2136  0.5207
  810SOL     OW 3237   2.202   1.185   2.195  0.2071 -0.0750 -0.7073
  810SOL    HW1 3238   2.264   1.134   2.249  1.1431  1.4793  1.0000
  810SOL    HW2 3239   2.121   1.137   2.187  0.8564  3.0508 -3.2382
  810SOL     MW 3240   2.199   1.172   2.201  0.4163  0.5425 -0.8160
  811SOL     OW 3241   1.534   0.111   2.287 -0.4868  0.3354  0.2310
  811SOL    HW1 3242   1.600   0.033   2.302  0.6616 -1.4139  1.2291
  811SOL    HW2 3243   1.532   0.111   2.189 -0.2717  0.7799 -3.6381
  811SOL     MW 3244   1.542   0.101   2.276 -0.3069  0.1632 -0.1478
  812SOL     OW 3245   1.418   2.786   2.048 -0.2881 -0.1020  0.4093
  812SOL    HW1 3246   1.509   2.805   2.031 -2.6978  1.1395 -1.9729
  812SOL    HW2 3247   1.422   2.765   2.143  0.9281 -1.5146  0.4956
  812SOL     MW 3248   1.431   2.786   2.058 -0.4455 -0.1246  0.1064
  813SOL     OW 3249   1.840   0.744   2.183  0.2380 -0.1869 -0.3636
  813SOL    HW1 3250   1.781   0.668   2.193  1.7232  0.1085 -4.3604
  813SOL    HW2 3251   1.872   0.754   2.275 -1.8579 -0.2247  0.9146
  813SOL     MW 3252   1.836   0.735   2.196  0.1574 -0.1529 -0.7223
  814SOL     OW 3253   2.740   1.259   1.583 -0.0364  0.2734  0.2434
  814SOL    HW1 3254   2.653   1.231   1.608 -2.5591 -0.1957 -1.5292
  814SOL    HW2 3255   2.769   1.202   1.516 -0.5658  1.5556  0.3950
  814SOL     MW 3256   2.732   1.248   1.578 -0.4391  0.3807  0.0295
  815SOL     OW 3257   2.492   1.668   2.397  0.4235  0.0845  0.0279
  815SOL    HW1 3258   2.420   1.613   2.366 -1.7855 -0.7339 -2.4844
  815SOL    HW2 3259   2.572   1.617   2.378 -1.2045 -0.2127 -1.8592
  815SOL     MW 3260   2.493   1.654   2.390 -0.0828 -0.0627 -0.5526
  816SOL     OW 3261   0.701   0.634   2.748 -0.7746 -0.1594  0.1755
  816SOL    HW1 3262   0.719   0.552   2.789 -0.8928 -0.9757  0.8993
  816SOL    HW2 3263   0.621   0.626   2.694 -4.1138 -1.9834  1.0300
  816SOL     MW 3264   0.693   0.622   2.746 -1.2308 -0.5078  0.3837
  817SOL     OW 3265   3.018   1.136   1.419 -0.6125  0.6582  0.7202
  817SOL    HW1 3266   3.079   1.136   1.494 -3.0332 -0.6272  0.2879
  817SOL    HW2 3267   3.033   1.222   1.375 -2.7523 -2.2732  0.1834
  817SOL     MW 3268   3.028   1.147   1.423 -1.2142  0.1019  0.5924
  818SOL     OW 3269   1.916   1.019   2.734  0.0749 -0.3398  0.5626
  818SOL    HW1 3270   1.953   1.010   2.646  1.3637  2.2709  0.6995
  818SOL    HW2 3271   1.971   0.966   2.787 -1.0527 -1.0529 -2.6676
  818SOL     MW 3272   1.928   1.011   2.730  0.0962 -0.0894  0.1545
  819SOL     OW 3273   1.855   0.225   2.414 -0.6078  0.7420 -0.1645
  819SOL    HW1 3274   1.813   0.302   2.450 -1.5993  0.8158 -0.7298
  819SOL    HW2 3275   1.907   0.182   2.490  1.3250 -1.7613  0.3176
  819SOL     MW 3276   1.856   0.230   2.429 -0.4836  0.4214 -0.1754
  820SOL     OW 3277   2.498   1.730   2.668  0.1028  0.1727 -0.3805
  820SOL    HW1 3278   2.505   1.653   2.726  0.4823 -1.6732  0.3588
  820SOL    HW2 3279   2.537   1.698   2.593 -0.1038 -1.8819  2.6893
  820SOL     MW 3280   2.504   1.715   2.666  0.1256 -0.3419  0.1221
  821SOL     OW 3281   2.590   1.364   1.991  0.0488 -0.0974  0.4989
  821SOL    HW1 3282   2.626   1.430   1.932 -0.5981 -0.4263  2.1428
  821SOL    HW2 3283   2.495   1.375   1.989  1.0199  2.0870  0.6439
  821SOL     MW 3284   2.582   1.374   1.983  0.0916  0.1474  0.7349
  822SOL     OW 3285   2.855   2.686   1.434  0.1067 -0.5095 -0.3755
  822SOL    HW1 3286   2.897   2.765   1.444 -1.1772 -1.0957 -0.2510
  822SOL    HW2 3287   2.783   2.702   1.377  0.7379 -0.2179  0.0221
  822SOL     MW 3288   2.851   2.698   1.428  0.0206 -0.5483 -0.3066
  823SOL     OW 3289   2.291   0.479   1.792  0.0180 -0.1865  0.4884
  823SOL    HW1 3290   2.363   0.452   1.735  0.1692 -0.1994 -2.2069
  823SOL    HW2 3291   2.219   0.428   1.760  1.0886  1.9539  2.1401
  823SOL     MW 3292   2.291   0.469   1.780  0.1792  0.0942  0.3507
  824SOL     OW 3293   2.089   1.363   2.503  0.3797 -0.9954  0.3112
  824SOL    HW1 3294   2.182   1.390   2.474 -1.2034 -1.5406  1.4637
  824SOL    HW2 3295   2.069   1.444   2.547  1.0423 -1.5271 -1.9956
  824SOL     MW 3296   2.099   1.377   2.505  0.2582 -1.1375  0.1589
  825SOL     OW 3297   2.148   2.494   0.396  0.0413 -0.7154  0.1607
  825SOL    HW1 3298   2.218   2.488   0.337  2.1577  4.1274  3.4339
  825SOL    HW2 3299   2.193   2.466   0.480  2.4305  1.5754  2.2540
  825SOL     MW 3300   2.163   2.489   0.400  0.6358  0.2258  0.8688
  826SOL     OW 3301   1.785   2.377   0.461  0.2025 -0.1850 -0.5457
  826SOL    HW1 3302   1.807   2.297   0.506 -3.7561  0.7973  0.7385
  826SOL    HW2 3303   1.770   2.434   0.532 -0.9424  1.3828 -0.7033
  826SOL     MW 3304   1.786   2.374   0.476 -0.4709  0.1515 -0.3971
  827SOL     OW 3305   1.932   2.244   0.893  0.0934  0.1309 -0.0930
  827SOL    HW1 3306   1.877   2.226   0.816 -1.9423 -3.7061  2.7839
  827SOL    HW2 3307   1.889   2.197   0.960  0.7919  1.9557  0.4055
  827SOL     MW 3308   1.919   2.235   0.892 -0.0830 -0.1346  0.3524
  828SOL     OW 3309   0.078   2.636   0.551 -0.4854  0.3887  0.6181
  828SOL    HW1 3310   0.171   2.651   0.579  0.3941  2.6122  1.1999
  828SOL    HW2 3311   0.062   2.697   0.479 -2.3104  2.8100  1.6725
  828SOL     MW 3312   0.088   2.646   0.545 -0.6102  1.0016  0.8340
  829SOL     OW 3313   3.017   2.893   1.188  0.0611  0.0285 -0.2181
  829SOL    HW1 3314   2.953   2.888   1.125  1.2651  1.0978  0.1559
  829SOL    HW2 3315   3.048   2.805   1.194 -1.0998  2.3688 -1.4345
  829SOL     MW 3316   3.013   2.881   1.180  0.0668  0.4784 -0.3292
  830SOL     OW 3317   2.549   2.806   2.027  0.4327  0.0330  0.6012
  830SOL    HW1 3318   2.461   2.814   1.979 -3.4593  0.8287 -0.3429
  830SOL    HW2 3319   2.605   2.781   1.956 -1.4360 -0.3665  0.3119
  830SOL     MW 3320   2.545   2.804   2.011 -0.3273  0.0852  0.4384
  831SOL     OW 3321   2.489   2.448   1.198  0.2615  0.0561 -0.3468
  831SOL    HW1 3322   2.442   2.391   1.256 -0.2739 -3.0781  0.6445
  831SOL    HW2 3323   2.574   2.410   1.168  2.4462  1.5071 -0.6207
  831SOL     MW 3324   2.494   2.436   1.202  0.4791 -0.1660 -0.2522
  832SOL     OW 3325   2.434   2.112   1.794  0.5460  0.1764 -0.0214
  832SOL    HW1 3326   2.437   2.208   1.830  2.3337 -0.3500  0.9509
  832SOL    HW2 3327   2.512   2.108   1.739  0.9065 -0.1183  2.3712
  832SOL     MW 3328   2.445   2.124   1.792  0.8295  0.0681  0.4226
  833SOL     OW 3329   1.738   2.580   0.926 -0.8767  0.3370 -0.4056
  833SOL    HW1 3330   1.677   2.504   0.934  4.9641  3.9057  0.3345
  833SOL    HW2 3331   1.684   2.653   0.950  1.8115 -0.1630 -0.1872
  833SOL     MW 3332   1.723   2.580   0.930  0.2486  0.7419 -0.2791
  834SOL     OW 3333   2.291   2.340   0.637 -0.0903  0.2241  0.5421
  834SOL    HW1 3334   2.249   2.258   0.610 -0.9919 -0.2193 -1.2929
  834SOL    HW2 3335   2.388   2.314   0.632  1.5690  0.7567  0.0452
  834SOL     MW 3336   2.298   2.326   0.633  0.0097  0.2359  0.2344
  835SOL     OW 3337   1.835   2.574   0.652 -0.7419 -0.3174  0.0149
  835SOL    HW1 3338   1.788   2.570   0.735 -1.8178  2.1652 -1.5077
  835SOL    HW2 3339   1.930   2.574   0.666  0.5829 -3.3388  0.8761
  835SOL     MW 3340   1.841   2.573   0.665 -0.7091 -0.3885 -0.0723
  836SOL     OW 3341   2.047   2.176   1.649  0.3882 -0.4521  0.4227
  836SOL    HW1 3342   2.132   2.128   1.623 -1.0214 -1.8969  0.1058
  836SOL    HW2 3343   2.078   2.257   1.687 -0.1661 -0.2089 -1.2401
  836SOL     MW 3344   2.062   2.181   1.650  0.1291 -0.6106  0.1615
  837SOL     OW 3345   2.082   0.193   0.681  0.3027 -0.4476 -0.3718
  837SOL    HW1 3346   1.996   0.209   0.645  4.8147 -1.6668 -0.7018
  837SOL    HW2 3347   2.126   0.156   0.607 -1.8558 -1.2637  1.6539
  837SOL     MW 3348   2.076   0.190   0.667  0.6132 -0.7162 -0.1481
  838SOL     OW 3349   2.863   2.100   0.961  0.2241  0.2012 -0.3046
  838SOL    HW1 3350   2.802   2.029   0.964  0.3970  1.1167  0.3746
  838SOL    HW2 3351   2.933   2.063   1.009  0.3541  0.3869 -1.5322
  838SOL     MW 3352   2.864   2.086   0.968  0.2641  0.3465 -0.3769
  839SOL     OW 3353   1.542   2.393   0.983  0.2711 -0.4763  0.3506
  839SOL    HW1 3354   1.495   2.480   1.002  2.2850 -1.9786 -1.6878
  839SOL    HW2 3355   1.570   2.356   1.062 -1.6700  1.3798 -3.8522
  839SOL     MW 3356   1.540   2.400   0.996  0.2807 -0.4296 -0.4729
  840SOL     OW 3357   2.334   2.111   2.434  1.1675 -0.1954 -0.0669
  840SOL    HW1 3358   2.285   2.180   2.378 -2.8155 -2.1237 -0.9112
  840SOL    HW2 3359   2.374   2.163   2.507  0.1668  1.9161  1.3257
  840SOL     MW 3360   2.332   2.127   2.436  0.5099 -0.1712  0.0055
  841SOL     OW 3361   2.280   2.386   0.055  0.6618  0.0396  0.3004
  841SOL    HW1 3362   2.267   2.439  -0.027  1.4278  3.9283 -0.9003
  841SOL    HW2 3363   2.210   2.318   0.051  0.5478  0.9855  0.0671
  841SOL     MW 3364   2.269   2.384   0.043  0.7478  0.6775  0.1112
  842SOL     OW 3365   2.674   1.990   1.416  0.7885 -0.3719 -0.0460
  842SOL    HW1 3366   2.601   1.924   1.417  1.7116 -0.5467  0.3251
  842SOL    HW2 3367   2.661   2.061   1.346  0.8958  3.5568 -2.9640
  842SOL     MW 3368   2.662   1.990   1.407  0.9245  0.1234 -0.3820
  843SOL     OW 3369   2.649   2.776   1.759  0.1110 -0.0231 -0.3909
  843SOL    HW1 3370   2.741   2.749   1.763  0.2151 -0.9498 -0.6161
  843SOL    HW2 3371   2.593   2.700   1.740  1.3209  0.9676  0.0282
  843SOL     MW 3372   2.653   2.762   1.757  0.2844 -0.0147 -0.3653
  844SOL     OW 3373   2.745   2.323   1.150  0.3081  0.1038 -0.0535
  844SOL    HW1 3374   2.765   2.352   1.058  0.8008  2.0251 -0.6523
  844SOL    HW2 3375   2.805   2.361   1.208 -3.0277 -2.0673 -0.5417
  844SOL     MW 3376   2.755   2.332   1.146 -0.0670  0.0708 -0.1970
  845SOL     OW 3377   2.859   2.597   0.295 -0.5102 -0.0207 -0.1891
  845SOL    HW1 3378   2.814   2.514   0.315  0.7336 -2.2376 -0.8803
  845SOL    HW2 3379   2.844   2.649   0.379  2.9253 -1.2347  0.8324
  845SOL     MW 3380   2.851   2.593   0.309  0.1072 -0.4734 -0.1455
  846SOL     OW 3381   1.479   2.812   0.833 -0.5800  0.4175 -0.6473
  846SOL    HW1 3382   1.563   2.855   0.826  0.3164  0.1140 -2.0574
  846SOL    HW2 3383   1.417   2.877   0.801 -0.9716  2.2268 -0.5703
  846SOL     MW 3384   1.482   2.826   0.828 -0.5134  0.6162 -0.8232
  847SOL     OW 3385   2.481   1.891   0.164  0.5690  0.2405 -0.3826
  847SOL    HW1 3386   2.444   1.811   0.218 -0.0167 -1.2973  0.0634
  847SOL    HW2 3387   2.466   1.876   0.068 -0.8838  1.4712  1.2814
  847SOL     MW 3388   2.474   1.878   0.158  0.3001  0.2000 -0.1042
  848SOL     OW 3389   2.576   2.116   1.186  0.0006  0.0085 -0.6798
  848SOL    HW1 3390   2.639   2.188   1.188  0.5305  1.0112  0.0124
  848SOL    HW2 3391   2.635   2.050   1.149 -0.6067 -2.3500  0.4890
  848SOL     MW 3392   2.592   2.117   1.182 -0.0096 -0.1704 -0.4343
  849SOL     OW 3393   1.998   2.806   0.785  0.4207  0.8093 -0.5011
  849SOL    HW1 3394   1.979   2.756   0.869 -2.1930  0.7897  1.4564
  849SOL    HW2 3395   2.083   2.780   0.751 -1.3610  1.5675  0.7804
  849SOL     MW 3396   2.007   2.796   0.791 -0.1592  0.9068 -0.0738
  850SOL     OW 3397   2.329   1.803   1.626  0.8471  0.3596  0.1839
  850SOL    HW1 3398   2.250   1.771   1.582  0.7025 -1.9655 -2.3489
  850SOL    HW2 3399   2.328   1.900   1.612 -1.1190  0.6698  2.0378
  850SOL     MW 3400   2.318   1.811   1.618  0.5686  0.0937  0.0943
  851SOL     OW 3401   2.374   2.336   0.319  0.1093 -0.8950 -0.3958
  851SOL    HW1 3402   2.370   2.361   0.228  1.4366 -1.5428 -0.5283
  851SOL    HW2 3403   2.424   2.404   0.369 -0.0730  1.0368  0.1833
  851SOL     MW 3404   2.380   2.348   0.314  0.2603 -0.7256 -0.3369
  852SOL     OW 3405   2.340   2.046   0.322 -0.1140 -0.0831  0.5192
  852SOL    HW1 3406   2.362   2.138   0.317  1.2472 -0.3461  1.8768
  852SOL    HW2 3407   2.405   2.007   0.260 -3.2726 -0.1095 -0.4386
  852SOL     MW 3408   2.351   2.053   0.313 -0.3511 -0.1213  0.5720
  853SOL     OW 3409   2.483   2.350   1.913  0.6994  0.2900 -0.1347
  853SOL    HW1 3410   2.490   2.433   1.870  0.1979 -2.2934 -0.1120
  853SOL    HW2 3411   2.568   2.333   1.948  1.4731 -1.7575 -0.4363
  853SOL     MW 3412   2.495   2.358   1.912  0.7353 -0.3210 -0.1715
  854SOL     OW 3413   2.850   2.215   0.706 -0.3828 -0.1042  0.0966
  854SOL    HW1 3414   2.767   2.194   0.660 -0.7338  1.0586 -0.9828
  854SOL    HW2 3415   2.852   2.155   0.782  0.0941  0.7709 -0.5964
  854SOL     MW 3416   2.840   2.204   0.710 -0.3662  0.1646 -0.1373
  855SOL     OW 3417   2.754   2.355   0.410  0.4301 -0.1760  0.5715
  855SOL    HW1 3418   2.668   2.366   0.446 -1.5426  0.7236 -0.8142
  855SOL    HW2 3419   2.760   2.266   0.376  0.7349 -1.4270  2.2056
  855SOL     MW 3420   2.743   2.345   0.411  0.2101 -0.2223  0.6042
  856SOL     OW 3421   2.095   1.884   0.210  0.1222  0.1432  0.5984
  856SOL    HW1 3422   2.014   1.875   0.264  0.5795 -2.6987 -0.4196
  856SOL    HW2 3423   2.145   1.960   0.236 -0.0113 -1.1463 -0.2861
  856SOL     MW 3424   2.091   1.893   0.220  0.1649 -0.4019  0.3474
  857SOL     OW 3425   2.501   1.944   0.536  0.3972  0.2399 -0.7961
  857SOL    HW1 3426   2.432   1.957   0.470 -2.1158 -1.9689  1.2732
  857SOL    HW2 3427   2.459   1.876   0.590 -1.1134 -0.8546  2.6690
  857SOL     MW 3428   2.486   1.937   0.535 -0.1336 -0.1959 -0.0659
  858SOL     OW 3429   2.910   2.656   1.794 -0.7518  0.1275 -0.1104
  858SOL    HW1 3430   3.004   2.675   1.782 -0.3254 -1.3756  1.5973
  858SOL    HW2 3431   2.900   2.563   1.771  3.2511  0.4154  2.5021
  858SOL     MW 3432   2.921   2.646   1.789 -0.1674 -0.0329  0.4596
  859SOL     OW 3433   1.937   2.744   1.061 -0.3083  0.0978 -0.1133
  859SOL    HW1 3434   1.934   2.650   1.058  0.0002  1.2592  0.5397
  859SOL    HW2 3435   2.007   2.763   1.119 -2.4702 -2.3328  1.5001
  859SOL     MW 3436   1.946   2.734   1.068 -0.5529 -0.0697  0.1858
  860SOL     OW 3437   2.608   2.662   0.144 -0.0221 -0.0425 -0.2096
  860SOL    HW1 3438   2.694   2.662   0.205  1.5034 -0.6203 -0.2760
  860SOL    HW2 3439   2.638   2.718   0.075 -2.1341 -0.9756 -1.1669
  860SOL     MW 3440   2.623   2.669   0.143 -0.0995 -0.2419 -0.3447
  861SOL     OW 3441   1.644   2.168   1.174 -0.0567 -0.8255  0.3545
  861SOL    HW1 3442   1.679   2.222   1.247  0.6965 -0.8965  2.8973
  861SOL    HW2 3443   1.568   2.123   1.213 -0.4059  1.2340  2.2945
  861SOL     MW 3444   1.638   2.169   1.189 -0.0034 -0.5631  0.9460
  862SOL     OW 3445   2.526   1.762   1.449 -0.2767 -0.4240 -0.2997
  862SOL    HW1 3446   2.453   1.783   1.511  0.5738  2.0469  0.9033
  862SOL    HW2 3447   2.488   1.778   1.357 -2.9959 -2.0455  0.1530
  862SOL     MW 3448   2.511   1.767   1.445 -0.5233 -0.3120 -0.0813
  863SOL     OW 3449   3.007   1.762   1.010  0.0006 -0.4061 -0.4071
  863SOL    HW1 3450   3.054   1.770   1.093 -1.1076 -2.4006  1.2627
  863SOL    HW2 3451   2.923   1.734   1.042  1.6289 -2.1575 -0.0854
  863SOL     MW 3452   3.002   1.759   1.025  0.0692 -0.9003 -0.1444
  864SOL     OW 3453   0.036   1.846   0.773 -0.0585 -0.0841 -0.4658
  864SOL    HW1 3454  -0.009   1.801   0.844  0.9824 -0.7872 -3.6102
  864SOL    HW2 3455   0.001   1.821   0.689  0.7879  1.1791 -1.8271
  864SOL     MW 3456   0.026   1.837   0.772  0.1905 -0.0102 -1.0603
  865SOL     OW 3457   2.640   2.160   0.065 -0.0137  0.2129 -0.1774
  865SOL    HW1 3458   2.631   2.109   0.146 -0.1582  1.4214  2.7613
  865SOL    HW2 3459   2.566   2.157   0.005  1.0596  2.1542 -1.2422
  865SOL     MW 3460   2.629   2.153   0.068  0.1089  0.6285  0.0698
  866SOL     OW 3461   2.638   2.370   1.545  0.2206  0.5584 -0.5817
  866SOL    HW1 3462   2.633   2.272   1.571 -0.7782 -1.0661  0.8211
  866SOL    HW2 3463   2.704   2.381   1.481 -0.5117  0.5468  1.2201
  866SOL     MW 3464   2.646   2.359   1.540 -0.0078  0.3425 -0.1589
  867SOL     OW 3465   0.089   2.695   1.766  0.7853  0.0996  0.0153
  867SOL    HW1 3466   0.136   2.744   1.834  0.6251  1.5870 -1.4732
  867SOL    HW2 3467   0.127   2.738   1.696  0.3026  0.4892  2.1165
  867SOL     MW 3468   0.100   2.707   1.766  0.7005  0.3472  0.0961
  868SOL     OW 3469   2.756   2.683   0.558  0.8610 -0.0201 -0.5654
  868SOL    HW1 3470   2.711   2.601   0.547 -2.6778 -0.8319  0.4982
  868SOL    HW2 3471   2.679   2.739   0.527 -1.2134 -2.3542 -0.1939
  868SOL     MW 3472   2.740   2.680   0.552  0.1204 -0.4352 -0.3761
  869SOL     OW 3473   2.074   2.443   1.019 -0.3463  0.4331  0.6162
  869SOL    HW1 3474   2.160   2.409   1.001  0.6596  1.5513  1.1552
  869SOL    HW2 3475   2.016   2.385   0.972 -0.5426  3.1067  0.7452
  869SOL     MW 3476   2.078   2.431   1.010 -0.2395  0.9334  0.7043
  870SOL     OW 3477   2.191   0.060   0.468  0.3942 -0.7273 -0.1915
  870SOL    HW1 3478   2.269   0.097   0.422  3.5957 -0.1256 -0.8169
  870SOL    HW2 3479   2.226  -0.024   0.491 -4.1188  0.8712  2.2693
  870SOL     MW 3480   2.206   0.054   0.465  0.2212 -0.4370  0.0507
  871SOL     OW 3481   2.509   2.102   0.893  0.2083 -0.0988  0.1359
  871SOL    HW1 3482   2.440   2.037   0.862 -1.0183 -1.2304  1.3626
  871SOL    HW2 3483   2.465   2.175   0.936  1.6822  0.5032 -0.7269
  871SOL     MW 3484   2.494   2.103   0.895  0.2409 -0.1687  0.1839
  872SOL     OW 3485   2.076   2.578   1.498  0.4992  0.2558  0.2877
  872SOL    HW1 3486   2.017   2.623   1.560  1.8862 -0.2611  1.0129
  872SOL    HW2 3487   2.024   2.521   1.439  1.2276 -1.2590 -3.1673
  872SOL     MW 3488   2.061   2.577   1.499  0.7783 -0.0123 -0.0724
  873SOL     OW 3489   2.826   2.076   1.860 -0.0516  0.0584 -0.7784
  873SOL    HW1 3490   2.794   2.145   1.912  1.2071  0.2606 -3.1457
  873SOL    HW2 3491   2.908   2.111   1.828 -2.0801  1.4082 -1.3695
  873SOL     MW 3492   2.832   2.090   1.863 -0.1532  0.2632 -1.1687
  874SOL     OW 3493   2.313   1.424   2.327 -0.2269 -0.0882 -0.0754
  874SOL    HW1 3494   2.262   1.376   2.260 -0.5919 -1.1996  0.7830
  874SOL    HW2 3495   2.389   1.369   2.341 -0.4857 -0.3728 -1.2029
  874SOL     MW 3496   2.317   1.410   2.320 -0.3092 -0.2724 -0.1109
  875SOL     OW 3497   2.364   2.347   0.966 -0.0724  0.2041  0.0376
  875SOL    HW1 3498   2.409   2.401   0.898 -1.9116 -1.5821 -0.1319
  875SOL    HW2 3499   2.395   2.372   1.055 -0.0692 -0.4632 -0.7573
  875SOL     MW 3500   2.374   2.358   0.969 -0.3147 -0.1196 -0.0896
  876SOL     OW 3501   3.068   2.249   1.289  0.0090 -0.0171  0.6790
  876SOL    HW1 3502   3.091   2.290   1.207  2.2461  2.4510  2.9060
  876SOL    HW2 3503   3.133   2.295   1.345  0.1346 -0.3396  0.1567
  876SOL     MW 3504   3.080   2.261   1.286  0.3207  0.2660  0.9039
  877SOL     OW 3505   0.048   2.789   0.342  0.6431  0.1723  0.2246
  877SOL    HW1 3506   0.098   2.868   0.332 -0.6838 -1.0351  0.7687
  877SOL    HW2 3507   0.047   2.731   0.265  1.1079 -0.1260  1.5395
  877SOL     MW 3508   0.054   2.792   0.331  0.5294 -0.0264  0.4699
  878SOL     OW 3509   2.388   1.732   1.204 -0.6767  0.0500 -0.5457
  878SOL    HW1 3510   2.306   1.692   1.237 -2.1556 -0.8423 -2.1378
  878SOL    HW2 3511   2.445   1.655   1.196 -1.1773 -2.3879 -0.5081
  878SOL     MW 3512   2.385   1.717   1.208 -0.9379 -0.3894 -0.7508
  879SOL     OW 3513   2.754   2.433   0.891 -0.1094  0.7348 -0.3053
  879SOL    HW1 3514   2.828   2.498   0.890  1.0500  1.0344  2.5531
  879SOL    HW2 3515   2.797   2.367   0.839  0.7124 -0.1986 -1.9809
  879SOL     MW 3516   2.770   2.433   0.884  0.1520  0.6512 -0.1492
  880SOL     OW 3517   2.579   2.203   0.628  0.4467  0.4339 -0.3165
  880SOL    HW1 3518   2.541   2.188   0.718  0.9111 -0.2463  1.6689
  880SOL    HW2 3519   2.558   2.119   0.578  0.4791 -4.3041 -3.5277
  880SOL     MW 3520   2.571   2.190   0.633  0.5123 -0.2810 -0.4782
  881SOL     OW 3521   2.971   2.745   0.686  0.0732 -0.2472  0.0245
  881SOL    HW1 3522   2.900   2.696   0.651 -1.1194 -1.1719  3.4509
  881SOL    HW2 3523   3.051   2.703   0.644 -1.0392  1.5018 -0.2597
  881SOL     MW 3524   2.972   2.733   0.676 -0.2309 -0.1384  0.4391
  882SOL     OW 3525   2.291   2.847   1.958  0.2277 -0.1869 -0.7172
  882SOL    HW1 3526   2.269   2.852   1.861 -1.6412 -1.2135 -2.4283
  882SOL    HW2 3527   2.236   2.772   1.984 -0.3459  0.8816  0.0683
  882SOL     MW 3528   2.281   2.838   1.948 -0.0946 -0.1814 -0.8393
  883SOL     OW 3529   2.360   2.245   1.343  0.1605  0.5019 -0.1230
  883SOL    HW1 3530   2.437   2.198   1.296  0.3821 -2.3044 -1.5128
  883SOL    HW2 3531   2.281   2.232   1.285 -2.0805 -2.3425 -1.4833
  883SOL     MW 3532   2.360   2.237   1.329 -0.1059 -0.2437 -0.4859
  884SOL     OW 3533   1.982   1.809   1.085 -0.2279  0.4817 -0.2488
  884SOL    HW1 3534   1.948   1.896   1.070  2.6051  0.7624 -1.5441
  884SOL    HW2 3535   2.076   1.818   1.062  0.1256 -0.5516 -2.5160
  884SOL     MW 3536   1.990   1.822   1.080  0.1925  0.3824 -0.7188
  885SOL     OW 3537   2.814   2.389   1.757  0.2116 -0.0410 -0.5707
  885SOL    HW1 3538   2.882   2.316   1.738  0.7183  0.9812 -0.8841
  885SOL    HW2 3539   2.752   2.388   1.685 -0.0425 -0.3531  0.4730
  885SOL     MW 3540   2.815   2.379   1.745  0.2449  0.0527 -0.4743
  886SOL     OW 3541   2.852   2.390   1.399  0.1855  0.1934 -0.0721
  886SOL    HW1 3542   2.935   2.341   1.404  1.0469  1.2792  3.0980
  886SOL    HW2 3543   2.879   2.472   1.440  0.0582  0.2016 -1.9268
  886SOL     MW 3544   2.866   2.394   1.405  0.2824  0.3377  0.1015
  887SOL     OW 3545   2.339   2.685   1.502  0.4014 -0.4591 -0.0500
  887SOL    HW1 3546   2.378   2.717   1.419 -0.2137  2.9633  2.2553
  887SOL    HW2 3547   2.252   2.667   1.467 -0.4405 -0.7189  1.6064
  887SOL     MW 3548   2.333   2.687   1.487  0.2091 -0.0419  0.4727
  888SOL     OW 3549   1.950   2.179   1.377  0.8463 -0.6022 -0.2478
  888SOL    HW1 3550   2.019   2.188   1.315  0.3608 -0.1935  0.8082
  888SOL    HW2 3551   1.989   2.200   1.464 -1.1513 -3.0400 -0.1213
  888SOL     MW 3552   1.964   2.183   1.380  0.5187 -0.8699 -0.0918
  889SOL     OW 3553   2.323   1.981   2.059 -0.3919 -0.6603  0.3165
  889SOL    HW1 3554   2.383   1.977   2.132  0.2767 -2.0287  0.5269
  889SOL    HW2 3555   2.360   2.037   1.987  1.3177  0.7707  1.2611
  889SOL     MW 3556   2.336   1.988   2.059 -0.0781 -0.6520  0.4689
  890SOL     OW 3557   0.101   2.337   0.127 -0.5876 -0.5341 -0.2828
  890SOL    HW1 3558   0.065   2.423   0.149  1.0875 -1.0403  2.3141
  890SOL    HW2 3559   0.066   2.275   0.188 -0.6522 -0.0911  0.5810
  890SOL     MW 3560   0.092   2.340   0.138 -0.3751 -0.5424  0.1738
  891SOL     OW 3561   2.991   1.996   1.198  0.0227  0.6019 -0.4950
  891SOL    HW1 3562   3.074   1.955   1.204 -0.5294 -1.9615  0.1609
  891SOL    HW2 3563   3.002   2.085   1.222 -1.3294 -2.3519  1.3603
  891SOL     MW 3564   3.003   2.002   1.202 -0.2285 -0.1260 -0.1637
  892SOL     OW 3565   2.458   2.385   2.805 -0.1903  0.0721  0.5460
  892SOL    HW1 3566   2.444   2.304   2.850  0.6944 -0.8877  2.4237
  892SOL    HW2 3567   2.539   2.424   2.839  0.5688  4.6448  0.9211
  892SOL     MW 3568   2.467   2.380   2.815  0.0266  0.5488  0.8432
  893SOL     OW 3569   1.658   2.399   1.344 -0.0291 -0.0144  0.5508
  893SOL    HW1 3570   1.567   2.401   1.365  1.9309  0.5195 -0.7849
  893SOL    HW2 3571   1.687   2.464   1.406  0.0879 -0.6679  0.1707
  893SOL     MW 3572   1.650   2.408   1.355  0.2450 -0.0302  0.3244
  894SOL     OW 3573   2.751   1.836   0.483  0.4945  0.0732 -0.0889
  894SOL    HW1 3574   2.658   1.868   0.513 -1.6777  1.2519  0.1752
  894SOL    HW2 3575   2.749   1.815   0.387 -0.0456  4.2166  2.0280
  894SOL     MW 3576   2.738   1.837   0.474  0.1367  0.7754  0.2253
  895SOL     OW 3577   2.177   2.177   1.145  0.4872 -0.0513 -0.5880
  895SOL    HW1 3578   2.181   2.204   1.055  0.5488 -1.3394 -0.7841
  895SOL    HW2 3579   2.179   2.084   1.122  0.9726 -1.4106  0.4909
  895SOL     MW 3580   2.178   2.168   1.130  0.5594 -0.4006 -0.4715
  896SOL     OW 3581   2.214   2.817   1.089 -0.2045 -0.4847  0.2411
  896SOL    HW1 3582   2.276   2.765   1.143 -0.0597 -1.7967  0.8407
  896SOL    HW2 3583   2.165   2.880   1.146 -0.2260 -3.5691  1.0153
  896SOL     MW 3584   2.215   2.819   1.104 -0.1882 -1.0648  0.4223
  897SOL     OW 3585   3.091   3.028   3.077 -0.0037 -0.0777  0.4221
  897SOL    HW1 3586   3.158   2.965   3.061  1.9247 -0.8885 -1.7049
  897SOL    HW2 3587   3.020   3.024   3.009 -0.0375 -2.0352  0.3278
  897SOL     MW 3588   3.091   3.019   3.066  0.2463 -0.4430  0.1290
  898SOL     OW 3589   2.049   0.162   1.438  0.1653  0.0876 -0.5654
  898SOL    HW1 3590   2.030   0.072   1.472  1.1908 -0.4358 -1.2862
  898SOL    HW2 3591   2.042   0.161   1.343 -0.9636 -1.3649  1.2847
  898SOL     MW 3592   2.045   0.150   1.430  0.1517 -0.1731 -0.4164
  899SOL     OW 3593   2.928   3.003   0.608 -0.3688  0.0827 -0.5126
  899SOL    HW1 3594   2.944   2.923   0.659 -2.1353 -2.9240  0.5885
  899SOL    HW2 3595   2.833   3.021   0.625  0.3305  0.5321  0.8786
  899SOL     MW 3596   2.917   2.995   0.617 -0.5096 -0.2547 -0.1838
  900SOL     OW 3597   0.083   2.400   1.089  0.3246 -0.4150  0.0773
  900SOL    HW1 3598   0.094   2.497   1.087  3.1832 -1.1969 -1.8045
  900SOL    HW2 3599   0.094   2.361   1.000 -2.4641 -0.9033  0.7373
  900SOL     MW 3600   0.086   2.407   1.077  0.3338 -0.5826 -0.0839
  901SOL     OW 3601   1.736   2.789   1.786 -0.1544 -0.2526 -0.5584
  901SOL    HW1 3602   1.821   2.733   1.774 -3.0570  0.4962 -0.9385
  901SOL    HW2 3603   1.683   2.781   1.706 -0.0259 -3.2136 -0.4354
  901SOL     MW 3604   1.740   2.781   1.774 -0.5204 -0.5445 -0.5923
  902SOL     OW 3605   2.648   2.118   1.642 -0.2470  0.4379  0.0624
  902SOL    HW1 3606   2.677   2.068   1.557 -0.0944 -1.4995 -0.3315
  902SOL    HW2 3607   2.712   2.077   1.706 -0.3502  1.7550 -0.6936
  902SOL     MW 3608   2.661   2.106   1.639 -0.2405  0.3560 -0.0893
  903SOL     OW 3609   1.516   2.646   0.627 -0.4102  0.2946 -0.4021
  903SOL    HW1 3610   1.601   2.678   0.593 -0.9893  2.0667  1.5270
  903SOL    HW2 3611   1.513   2.705   0.704  0.1321  0.0922 -3.7029
  903SOL     MW 3612   1.527   2.658   0.632 -0.4150  0.5017 -0.5831
  904SOL     OW 3613   2.463   2.563   1.715 -0.2703  0.2542 -0.5587
  904SOL    HW1 3614   2.406   2.619   1.655 -0.4901 -1.6813 -1.3813
  904SOL    HW2 3615   2.528   2.526   1.653 -1.6866  1.1385  1.0581
  904SOL     MW 3616   2.464   2.565   1.699 -0.4862  0.1155 -0.4539
  905SOL     OW 3617   2.299   2.472   2.094  0.1055 -0.3708  0.2698
  905SOL    HW1 3618   2.330   2.416   2.021  1.5064  0.2646 -1.0992
  905SOL    HW2 3619   2.267   2.392   2.150  0.6480 -5.6376  0.1482
  905SOL     MW 3620   2.299   2.454   2.092  0.3619 -0.9819  0.0731
  906SOL     OW 3621   2.502   2.499   0.803 -0.2130  0.2789  0.3037
  906SOL    HW1 3622   2.590   2.482   0.842  3.3169 -1.5691 -0.5950
  906SOL    HW2 3623   2.460   2.579   0.840 -1.9736  1.1787 -0.3682
  906SOL     MW 3624   2.508   2.507   0.813  0.0204  0.1538  0.0965
  907SOL     OW 3625   2.662   2.878   1.274 -0.1858 -0.4483 -0.2242
  907SOL    HW1 3626   2.733   2.926   1.312 -2.2436  1.1635  3.7654
  907SOL    HW2 3627   2.703   2.854   1.191 -0.7994 -1.1969 -0.5019
  907SOL     MW 3628   2.677   2.881   1.268 -0.5382 -0.3344  0.2656
  908SOL     OW 3629   2.741   2.430   0.027 -0.0349  0.1576  0.6287
  908SOL    HW1 3630   2.700   2.342   0.047 -1.7651  0.5624 -1.3624
  908SOL    HW2 3631   2.685   2.499   0.065 -0.6907  1.5996 -0.5057
  908SOL     MW 3632   2.728   2.427   0.034 -0.3497  0.4013  0.2163
  909SOL     OW 3633   1.747   0.131   1.231 -0.4826  0.0127  0.2044
  909SOL    HW1 3634   1.700   0.209   1.190 -0.9350  2.9012  0.1997
  909SOL    HW2 3635   1.717   0.127   1.322  0.7846  0.5474 -1.1717
  909SOL     MW 3636   1.737   0.141   1.238 -0.3751  0.4643  0.0222
  910SOL     OW 3637   2.185   1.667   0.402 -0.6159  0.3172 -0.1506
  910SOL    HW1 3638   2.134   1.585   0.413 -0.9466 -0.0558  0.7448
  910SOL    HW2 3639   2.140   1.703   0.328 -0.6042 -1.1298  0.0446
  910SOL     MW 3640   2.173   1.661   0.394 -0.6580  0.0770 -0.0067
  911SOL     OW 3641   2.293   2.074   1.560 -0.4198  0.7630  0.0830
  911SOL    HW1 3642   2.338   2.119   1.634  2.3451  0.6587 -0.1815
  911SOL    HW2 3643   2.324   2.123   1.478  0.3433  1.6770 -1.8630
  911SOL     MW 3644   2.303   2.086   1.559  0.0457  0.8698 -0.2087
  912SOL     OW 3645   2.920   1.854   1.428  0.3323  0.0602 -0.3345
  912SOL    HW1 3646   2.953   1.921   1.354  1.0037  2.5416  1.5865
  912SOL    HW2 3647   2.829   1.874   1.432  0.1116 -2.2749 -2.0049
  912SOL     MW 3648   2.912   1.865   1.419  0.3917  0.0795 -0.3014
  913SOL     OW 3649   2.676   3.090   0.286  0.3525 -0.1350 -0.4822
  913SOL    HW1 3650   2.754   3.036   0.294 -0.2228 -1.6667  1.7274
  913SOL    HW2 3651   2.602   3.030   0.258  2.5223 -1.3276 -0.2985
  913SOL     MW 3652   2.676   3.075   0.283  0.5628 -0.4944 -0.1665
  914SOL     OW 3653   2.669   1.833   2.982 -0.0600 -0.4249 -0.8648
  914SOL    HW1 3654   2.699   1.919   3.015  2.0764 -1.4062  1.2295
  914SOL    HW2 3655   2.577   1.842   2.959 -2.5450  3.1813 -1.8623
  914SOL     MW 3656   2.661   1.845   2.984 -0.1060 -0.0786 -0.7201
  915SOL     OW 3657   1.773   0.159   0.146  0.3572 -0.2310 -0.4426
  915SOL    HW1 3658   1.846   0.108   0.186 -2.0344  1.2921  0.8950
  915SOL    HW2 3659   1.692   0.114   0.172 -0.8834 -1.4082 -1.0541
  915SOL     MW 3660   1.772   0.146   0.155 -0.1220 -0.1854 -0.3468
  916SOL     OW 3661   1.727   2.180   2.051 -0.0835  0.3485  0.1298
  916SOL    HW1 3662   1.778   2.252   2.012  0.5765 -0.0893 -0.3603
  916SOL    HW2 3663   1.769   2.105   2.006 -1.3016 -0.9253 -1.1523
  916SOL     MW 3664   1.739   2.180   2.040 -0.1572  0.1227 -0.1040
  917SOL     OW 3665   2.505   2.246   2.575  0.1938  0.6846  0.6050
  917SOL    HW1 3666   2.472   2.300   2.645 -0.2424  2.9432 -3.0077
  917SOL    HW2 3667   2.578   2.289   2.536 -1.2031 -0.3516 -1.0292
  917SOL     MW 3668   2.511   2.259   2.579 -0.0481  0.8458 -0.0873
  918SOL     OW 3669   2.027   1.621   2.675 -0.2383  0.1996 -0.0524
  918SOL    HW1 3670   1.960   1.651   2.608  0.2613 -0.9780 -2.2126
  918SOL    HW2 3671   2.106   1.675   2.660  1.4074  0.2607  1.1651
  918SOL     MW 3672   2.029   1.632   2.664  0.0447  0.0523 -0.1768
  919SOL     OW 3673   3.082   2.394   2.234 -0.1525 -0.1142 -0.2638
  919SOL    HW1 3674   3.018   2.324   2.218 -1.4288 -0.5711  0.2417
  919SOL    HW2 3675   3.154   2.393   2.161  0.8170  1.3041 -3.5418
  919SOL     MW 3676   3.083   2.385   2.223 -0.1929  0.0127 -0.6296
  920SOL     OW 3677   2.702   2.831   3.055 -0.0485 -0.5164  0.1081
  920SOL    HW1 3678   2.616   2.847   3.017 -1.3693 -0.3571  1.7189
  920SOL    HW2 3679   2.741   2.812   2.974 -2.2126  0.0069  2.7008
  920SOL     MW 3680   2.695   2.831   3.039 -0.5083 -0.4263  0.6627
  921SOL     OW 3681   2.435   2.587   2.621  0.2972  0.3762  0.1366
  921SOL    HW1 3682   2.505   2.581   2.557  0.4606 -0.0030 -0.9469
  921SOL    HW2 3683   2.430   2.506   2.674  0.5827  0.2701  2.0791
  921SOL     MW 3684   2.444   2.576   2.620  0.3565  0.3121  0.2499
  922SOL     OW 3685   2.046   2.771   0.361  0.1846 -0.3926  0.5004
  922SOL    HW1 3686   2.007   2.783   0.276  0.3038  1.0034  1.3780
  922SOL    HW2 3687   2.090   2.685   0.360  2.5451 -2.3438  1.5462
  922SOL     MW 3688   2.046   2.761   0.349  0.5117 -0.4659  0.7542
  923SOL     OW 3689   2.195   2.855   1.676  0.0752 -0.0808  0.2185
  923SOL    HW1 3690   2.245   2.819   1.608  0.6686 -0.3749  2.9217
  923SOL    HW2 3691   2.142   2.927   1.642  1.5535 -0.1280 -1.0895
  923SOL     MW 3692   2.194   2.860   1.663  0.3485 -0.1259  0.4026
  924SOL     OW 3693   1.113   2.749   2.632  0.2581 -0.4048 -0.3008
  924SOL    HW1 3694   1.205   2.750   2.623 -1.6980  2.9112  0.7101
  924SOL    HW2 3695   1.096   2.674   2.692  1.1466 -3.1423  1.9953
  924SOL     MW 3696   1.123   2.739   2.639  0.1173 -0.3284  0.1355
  925SOL     OW 3697   2.996   0.227   2.698 -0.1746 -0.2913 -0.1752
  925SOL    HW1 3698   2.948   0.230   2.614  0.0792 -0.1980 -0.0378
  925SOL    HW2 3699   2.962   0.293   2.755 -1.9706  0.7496  3.0113
  925SOL     MW 3700   2.985   0.236   2.694 -0.3781 -0.1416  0.2634
  926SOL     OW 3701   2.762   2.333   2.019  0.4706  0.2627 -0.1920
  926SOL    HW1 3702   2.782   2.422   2.048  0.2107  0.3927 -1.1381
  926SOL    HW2 3703   2.788   2.351   1.929  0.6048 -1.5788 -0.9939
  926SOL     MW 3704   2.768   2.347   2.011  0.4540  0.0369 -0.4226
  927SOL     OW 3705   2.383   0.166   0.296  0.2782 -0.3650  0.3484
  927SOL    HW1 3706   2.468   0.213   0.298 -1.3898  0.9274 -0.1340
  927SOL    HW2 3707   2.356   0.158   0.199  0.4690  2.5360 -0.3501
  927SOL     MW 3708   2.390   0.171   0.283  0.0833  0.1883  0.1926
  928SOL     OW 3709   2.176   2.410   1.745 -0.4799 -0.3601 -0.4159
  928SOL    HW1 3710   2.116   2.447   1.680  0.4317  0.0423 -2.4612
  928SOL    HW2 3711   2.265   2.443   1.733  1.4732 -0.7171  0.8977
  928SOL     MW 3712   2.180   2.419   1.735 -0.1019 -0.3541 -0.5124
  929SOL     OW 3713   2.741   2.357   2.464  0.2722 -0.4073 -0.5177
  929SOL    HW1 3714   2.776   2.305   2.397  1.5519 -0.2896  0.2137
  929SOL    HW2 3715   2.802   2.365   2.533  0.2329 -0.9084 -1.0472
  929SOL     MW 3716   2.754   2.351   2.465  0.4358 -0.4579 -0.4911
  930SOL     OW 3717   2.018   2.823   2.614 -0.4841 -0.1329  0.4876
  930SOL    HW1 3718   2.027   2.765   2.696  2.6349 -1.5925  0.8043
  930SOL    HW2 3719   2.095   2.879   2.603  2.3779 -0.6667 -1.8423
  930SOL     MW 3720   2.030   2.823   2.623  0.3050 -0.3959  0.2220
  931SOL     OW 3721   0.009   2.782   2.477  0.4175  0.5614  0.3079
  931SOL    HW1 3722   0.003   2.804   2.568  0.5993 -0.6869 -2.0314
  931SOL    HW2 3723   0.104   2.791   2.473  3.9072 -1.6671 -0.4643
  931SOL     MW 3724   0.021   2.786   2.488  0.9019  0.1027 -0.1026
  932SOL     OW 3725   2.883   1.873   2.488 -0.4735  0.2409  0.1594
  932SOL    HW1 3726   2.967   1.922   2.504 -0.9340  3.3588  1.0716
  932SOL    HW2 3727   2.855   1.900   2.398  1.3071  2.7807 -0.9860
  932SOL     MW 3728   2.891   1.883   2.479 -0.2993  0.9874  0.1287
  933SOL     OW 3729   2.031   2.777   2.230  0.0305 -0.4667  0.1351
  933SOL    HW1 3730   2.120   2.819   2.268 -0.3122 -2.4427  1.2272
  933SOL    HW2 3731   1.967   2.850   2.216  1.3358  0.5024  0.0359
  933SOL     MW 3732   2.035   2.792   2.233  0.1575 -0.5995  0.2661
  934SOL     OW 3733   1.977   2.620   2.437  0.0772  0.5304 -0.4375
  934SOL    HW1 3734   1.970   2.674   2.510 -1.2684 -0.4328  0.6211
  934SOL    HW2 3735   2.008   2.676   2.367  0.3659  0.5066  2.2638
  934SOL     MW 3736   1.980   2.634   2.437 -0.0622  0.4001  0.0586
  935SOL     OW 3737   2.710   1.580   1.806  0.4278  0.0138  0.2007
  935SOL    HW1 3738   2.792   1.550   1.770 -0.6169 -0.4038 -0.2662
  935SOL    HW2 3739   2.659   1.555   1.728 -1.4637 -4.4784 -4.0750
  935SOL     MW 3740   2.714   1.573   1.791  0.0404 -0.6340 -0.4250
  936SOL     OW 3741   2.966   2.282   3.090 -0.4563 -0.1482  0.1801
  936SOL    HW1 3742   3.035   2.330   3.145 -1.6730  2.6942  0.2361
  936SOL    HW2 3743   2.884   2.332   3.096 -2.1559 -0.9657 -0.3249
  936SOL     MW 3744   2.964   2.295   3.098 -0.8411  0.1189  0.1209
  937SOL     OW 3745   2.012   2.174   2.702 -0.3523 -0.4201  0.4796
  937SOL    HW1 3746   2.094   2.140   2.741  2.1134  0.2302  0.4813
  937SOL    HW2 3747   2.003   2.143   2.610 -1.2165  2.2520  1.8190
  937SOL     MW 3748   2.021   2.165   2.695 -0.1410  0.0182  0.6565
  938SOL     OW 3749   2.308   1.740   1.926  0.7491 -0.0919  0.1838
  938SOL    HW1 3750   2.320   1.763   1.835  1.3317 -1.1827  0.5216
  938SOL    HW2 3751   2.310   1.819   1.981  0.0943 -1.6787  1.1158
  938SOL     MW 3752   2.310   1.754   1.921  0.7396 -0.4452  0.3514
  939SOL     OW 3753   2.789   1.972   2.255 -0.8422  0.1213 -0.2147
  939SOL    HW1 3754   2.833   1.938   2.172  1.0369 -0.7252  0.8914
  939SOL    HW2 3755   2.698   1.982   2.236  1.2454  2.4115  0.7024
  939SOL     MW 3756   2.782   1.969   2.242 -0.3188  0.3118  0.0523
  940SOL     OW 3757   2.238   0.156   2.670 -0.6184  0.1432 -0.3423
  940SOL    HW1 3758   2.261   0.078   2.622  1.3829  0.9368  0.7110
  940SOL    HW2 3759   2.293   0.167   2.750  1.2869 -0.4550 -1.3556
  940SOL     MW 3760   2.248   0.147   2.674 -0.1030  0.1690 -0.3370
  941SOL     OW 3761   0.175   2.403   2.062  0.3136 -0.0257 -0.0304
  941SOL    HW1 3762   0.256   2.357   2.071  3.0972  0.5568  2.0884
  941SOL    HW2 3763   0.159   2.406   1.971  1.0904  2.4557  0.4254
  941SOL     MW 3764   0.184   2.397   2.051  0.7834  0.3786  0.3093
  942SOL     OW 3765   2.861   2.239   2.247  0.1374  0.1455  0.1123
  942SOL    HW1 3766   2.839   2.253   2.159  2.4399 -0.4795  0.8668
  942SOL    HW2 3767   2.844   2.142   2.249 -1.9299 -2.6420  2.8438
  942SOL     MW 3768   2.856   2.228   2.236  0.1684 -0.3048  0.5723
  943SOL     OW 3769   0.241   2.104   2.284  0.3965 -0.2445 -0.1953
  943SOL    HW1 3770   0.214   2.175   2.347 -1.9133  0.0600  2.2222
  943SOL    HW2 3771   0.340   2.091   2.291 -1.3653  1.9008 -0.0930
  943SOL     MW 3772   0.250   2.112   2.293 -0.1407  0.0787  0.1371
  944SOL     OW 3773   2.111   2.647   2.006 -0.3274  0.6702 -0.1200
  944SOL    HW1 3774   2.179   2.586   2.045 -0.1837  2.5589  0.5297
  944SOL    HW2 3775   2.067   2.693   2.078 -0.2555  1.2026  0.9988
  944SOL     MW 3776   2.114   2.645   2.020 -0.2989  0.9896  0.1134
  945SOL     OW 3777   2.841   2.720   2.815  0.4794  0.0718 -0.4596
  945SOL    HW1 3778   2.816   2.629   2.820  3.9369  2.8116 -0.6850
  945SOL    HW2 3779   2.820   2.744   2.724 -0.1393 -0.7558 -1.0849
  945SOL     MW 3780   2.835   2.711   2.804  0.8539  0.3241 -0.5718
  946SOL     OW 3781   2.443   2.671   2.243  0.2774  0.2083  0.1099
  946SOL    HW1 3782   2.497   2.720   2.160  0.7453 -1.8636 -1.4748
  946SOL    HW2 3783   2.400   2.599   2.189  0.2257 -1.9179 -0.7219
  946SOL     MW 3784   2.444   2.668   2.225  0.3323 -0.3456 -0.2089
  947SOL     OW 3785   2.014   0.034   0.251  0.0298  0.5468 -0.3567
  947SOL    HW1 3786   2.008  -0.058   0.231  2.6918  4.2827  0.4262
  947SOL    HW2 3787   2.074   0.046   0.324  1.1944  0.3271 -0.0407
  947SOL     MW 3788   2.021   0.024   0.258  0.5347  1.0107 -0.2117
  948SOL     OW 3789   1.803   3.000   2.683  0.5729 -0.2612 -0.8328
  948SOL    HW1 3790   1.876   2.938   2.669 -0.5856  0.5903  0.8188
  948SOL    HW2 3791   1.769   3.026   2.595  0.7746  0.6028 -2.6838
  948SOL     MW 3792   1.808   2.995   2.670  0.4467 -0.0349 -0.8591
  949SOL     OW 3793   2.494   1.956   2.284 -0.0997 -0.5202 -0.8558
  949SOL    HW1 3794   2.498   1.869   2.323 -0.5960  1.3387 -1.7383
  949SOL    HW2 3795   2.448   2.015   2.349 -0.7406 -0.3071  0.8283
  949SOL     MW 3796   2.489   1.953   2.298 -0.2497 -0.2468 -0.7500
  950SOL     OW 3797   2.292   2.581   2.937  0.2328 -0.2397  0.2233
  950SOL    HW1 3798   2.344   2.520   2.883  0.9101 -1.1038  0.3535
  950SOL    HW2 3799   2.211   2.612   2.877 -0.9217 -0.4772 -1.7175
  950SOL     MW 3800   2.288   2.577   2.922  0.1698 -0.3850 -0.0156
  951SOL     OW 3801   3.080   2.216   2.856  0.4642 -0.3578 -0.3102
  951SOL    HW1 3802   3.046   2.244   2.946 -0.5688  1.2720 -0.6552
  951SOL    HW2 3803   3.035   2.131   2.850 -2.3016 -0.2708 -3.2499
  951SOL     MW 3804   3.069   2.209   2.867 -0.0370 -0.1313 -0.7436
  952SOL     OW 3805   3.034   1.660   2.126 -0.2835 -0.1620  0.6201
  952SOL    HW1 3806   2.958   1.690   2.080  1.4087  1.6443 -1.1388
  952SOL    HW2 3807   3.081   1.743   2.156  2.2131 -1.6660  1.5189
  952SOL     MW 3808   3.030   1.675   2.124  0.2691 -0.1221  0.5066
  953SOL     OW 3809   1.963   1.766   2.899  0.2099 -0.7662 -0.5584
  953SOL    HW1 3810   1.889   1.727   2.945 -2.8316  0.7468 -2.5216
  953SOL    HW2 3811   1.966   1.699   2.820 -1.6561 -0.9398 -0.1951
  953SOL     MW 3812   1.953   1.752   2.894 -0.4376 -0.5895 -0.7695
  954SOL     OW 3813   2.465   2.131   2.924  0.0109  0.3061  0.2898
  954SOL    HW1 3814   2.371   2.110   2.898 -2.5818  0.5251  0.8698
  954SOL    HW2 3815   2.513   2.083   2.866 -1.0720  1.6202  0.5506
  954SOL     MW 3816   2.459   2.122   2.913 -0.4740  0.5084  0.4008
  955SOL     OW 3817   1.559   1.597   2.539  0.5128 -0.1520  0.1737
  955SOL    HW1 3818   1.532   1.633   2.449 -0.5960  2.0700  0.2505
  955SOL    HW2 3819   1.642   1.647   2.554 -0.2643 -2.0809  0.3808
  955SOL     MW 3820   1.566   1.608   2.529  0.2640 -0.1133  0.2112
  956SOL     OW 3821   2.710   2.479   2.832 -0.1444  0.5122  0.1143
  956SOL    HW1 3822   2.749   2.459   2.925  0.5449 -0.2806  4.1093
  956SOL    HW2 3823   2.776   2.440   2.773  2.2384 -1.5978  2.0173
  956SOL     MW 3824   2.724   2.471   2.836  0.2609  0.1292  0.8925
  957SOL     OW 3825   2.258   2.892   0.498 -0.2024 -0.3449  0.7046
  957SOL    HW1 3826   2.214   2.851   0.421  1.2191 -1.3597 -0.2466
  957SOL    HW2 3827   2.236   2.838   0.573 -2.6508 -3.8636 -0.3063
  957SOL     MW 3828   2.249   2.879   0.497 -0.3379 -0.9431  0.4457
  958SOL     OW 3829   2.052   2.658   2.825  0.1847 -0.2811  0.2686
  958SOL    HW1 3830   2.043   2.566   2.779 -0.8111 -0.1730 -2.4836
  958SOL    HW2 3831   1.984   2.663   2.897 -0.8877 -1.3921 -0.6534
  958SOL     MW 3832   2.042   2.646   2.828 -0.0882 -0.4134 -0.2162
  959SOL     OW 3833   2.514   2.799   0.458  0.2133  0.1164 -0.2085
  959SOL    HW1 3834   2.491   2.801   0.365 -2.7510 -0.7327  1.1905
  959SOL    HW2 3835   2.438   2.855   0.491 -0.2187 -0.0609  1.0529
  959SOL     MW 3836   2.501   2.806   0.450 -0.2348 -0.0190  0.1425
  960SOL     OW 3837   1.941   2.329   2.333 -0.2695  0.6791 -0.3834
  960SOL    HW1 3838   1.931   2.242   2.370 -0.0060  1.2828  1.0611
  960SOL    HW2 3839   1.904   2.391   2.400 -0.5824  0.6005  0.2127
  960SOL     MW 3840   1.935   2.326   2.346 -0.2760  0.7484 -0.1141
  961SOL     OW 3841   2.217   2.314   2.295 -0.0569 -0.5329  0.3237
  961SOL    HW1 3842   2.126   2.287   2.310 -1.0177  2.7951 -0.9603
  961SOL    HW2 3843   2.229   2.376   2.371  0.7261 -1.2360 -3.5708
  961SOL     MW 3844   2.206   2.319   2.307 -0.0803 -0.1866 -0.3595
  962SOL     OW 3845   2.245   2.056   2.822 -0.1393  0.4183  0.6654
  962SOL    HW1 3846   2.200   1.995   2.883 -0.8681  0.8991  3.3703
  962SOL    HW2 3847   2.264   2.010   2.748  1.0112  1.9810 -0.1627
  962SOL     MW 3848   2.242   2.042   2.821 -0.0836  0.6880  0.9130
  963SOL     OW 3849   1.796   2.505   2.153  0.6614  0.3863  0.3507
  963SOL    HW1 3850   1.849   2.464   2.227 -0.6741  0.2712  1.3763
  963SOL    HW2 3851   1.852   2.494   2.073 -0.8582  1.2557 -1.9127
  963SOL     MW 3852   1.811   2.498   2.152  0.2847  0.4859  0.1874
  964SOL     OW 3853   1.830   1.929   2.736  0.2111 -0.4670  0.9647
  964SOL    HW1 3854   1.878   2.006   2.700 -0.6736  2.4376  0.0492
  964SOL    HW2 3855   1.890   1.882   2.807 -0.2246  0.2447  2.6223
  964SOL     MW 3856   1.844   1.933   2.741  0.0369  0.0101  1.0626
  965SOL     OW 3857   2.230   2.699   0.688 -0.4254 -0.4339  0.0440
  965SOL    HW1 3858   2.252   2.610   0.660 -0.0635 -0.4987 -1.7398
  965SOL    HW2 3859   2.302   2.734   0.749 -2.8128  0.5772  1.5222
  965SOL     MW 3860   2.242   2.692   0.692 -0.6926 -0.3091  0.0036
  966SOL     OW 3861   2.672   2.607   2.365  0.0952 -0.1478  0.0349
  966SOL    HW1 3862   2.588   2.605   2.321  1.0271  2.5003  1.5111
  966SOL    HW2 3863   2.694   2.528   2.411 -1.4164  0.3700 -0.5103
  966SOL     MW 3864   2.664   2.597   2.365  0.0187  0.2699  0.1577
  967SOL     OW 3865   2.827   3.053   2.951 -0.0365 -0.3077  0.2241
  967SOL    HW1 3866   2.790   3.000   3.025  1.1388  0.8263 -1.7597
  967SOL    HW2 3867   2.749   3.055   2.889 -0.1338  1.8585 -0.5006
  967SOL     MW 3868   2.812   3.046   2.953  0.1057  0.1277 -0.1332
  968SOL     OW 3869   3.030   2.627   3.002  0.0477 -0.1993 -0.1677
  968SOL    HW1 3870   2.978   2.700   2.963 -0.3659 -0.3004 -0.4400
  968SOL    HW2 3871   3.060   2.575   2.929 -0.2161  1.4316 -1.5494
  968SOL     MW 3872   3.027   2.630   2.988 -0.0416  0.0026 -0.3860
  969SOL     OW 3873   1.615   2.211   1.684 -0.1519  0.1179 -0.2372
  969SOL    HW1 3874   1.690   2.156   1.715 -0.5651 -0.2656 -0.4717
  969SOL    HW2 3875   1.551   2.230   1.758  2.7840  1.7620 -0.7437
  969SOL     MW 3876   1.616   2.206   1.698  0.1809  0.2843 -0.3350
  970SOL     OW 3877   1.793   1.827   1.908  0.2808 -0.2066  0.4591
  970SOL    HW1 3878   1.858   1.763   1.944  0.9836 -1.1609 -0.3900
  970SOL    HW2 3879   1.706   1.820   1.947  0.4755  1.6786 -1.1811
  970SOL     MW 3880   1.790   1.818   1.918  0.3992 -0.0838  0.1307
  971SOL     OW 3881   1.778   3.029   2.413 -0.3318 -0.1123  0.1702
  971SOL    HW1 3882   1.798   3.002   2.322 -0.1257  1.8063  0.7718
  971SOL    HW2 3883   1.788   3.119   2.420 -0.3524 -0.8845 -0.0588
  971SOL     MW 3884   1.782   3.037   2.402 -0.3073  0.0389  0.2194
  972SOL     OW 3885   0.283   2.828   2.451  0.0960 -0.6171 -0.2425
  972SOL    HW1 3886   0.360   2.770   2.463  3.6757 -0.4141 -0.4034
  972SOL    HW2 3887   0.313   2.922   2.473  0.7973  0.7927 -0.6038
  972SOL     MW 3888   0.297   2.833   2.456  0.6609 -0.4043 -0.3114
  973SOL     OW 3889   2.594   3.047   2.132 -0.4661 -0.7258  0.5001
  973SOL    HW1 3890   2.573   2.957   2.100 -0.4349  0.1976  2.5929
  973SOL    HW2 3891   2.606   3.098   2.053  0.1752 -1.8586  0.5920
  973SOL     MW 3892   2.593   3.042   2.118 -0.3773 -0.7534  0.7883
  974SOL     OW 3893   1.973   0.141   2.635 -0.3764 -0.1277 -0.6949
  974SOL    HW1 3894   2.068   0.157   2.661 -0.0143 -0.2691  0.1036
  974SOL    HW2 3895   1.945   0.061   2.676 -1.0878  1.3218 -1.0165
  974SOL     MW 3896   1.982   0.132   2.644 -0.4224  0.0449 -0.6320
  975SOL     OW 3897   2.213   2.481   2.492  0.3245  0.0473  0.4892
  975SOL    HW1 3898   2.277   2.546   2.521  1.3678  0.1694 -3.5527
  975SOL    HW2 3899   2.134   2.531   2.461 -1.4792 -2.5139 -0.9252
  975SOL     MW 3900   2.211   2.496   2.492  0.2242 -0.2745 -0.2307
  976SOL     OW 3901   0.170   0.365   1.710 -0.0126  0.5564 -0.5133
  976SOL    HW1 3902   0.230   0.299   1.732 -0.0775  1.1168 -5.0252
  976SOL    HW2 3903   0.086   0.313   1.725  1.1197 -0.1473  1.3419
  976SOL     MW 3904   0.167   0.349   1.715  0.1282  0.5375 -0.8639
  977SOL     OW 3905   1.708   2.708   2.442  0.4353 -0.2168 -0.3776
  977SOL    HW1 3906   1.745   2.620   2.448 -0.6343  0.6308 -1.3228
  977SOL    HW2 3907   1.777   2.776   2.454 -2.2787  2.9269 -1.7224
  977SOL     MW 3908   1.722   2.705   2.445 -0.0639  0.3098 -0.6798
   3.10000   3.10000   3.10000
