977 TIP4P/2005f water molecules t=   1.20000 step= 1200
 3908
    1SOL     OW    1   0.421   0.790   3.093  0.1610 -0.0886  0.6451
    1SOL    HW1    2   0.381   0.825   3.014  0.3649  2.3692  2.7296
    1SOL    HW2    3   0.361   0.727   3.122  1.2007  2.7279  0.2832
    1SOL     MW    4   0.408   0.787   3.086  0.3251  0.6073  0.8724
    2SOL     OW    5   0.344   3.051   1.167  0.4709 -0.1028  0.5873
    2SOL    HW1    6   0.381   3.123   1.118  1.0366  1.0446  0.7899
    2SOL    HW2    7   0.255   3.074   1.197  0.2858 -0.3147  0.3814
    2SOL     MW    8   0.337   3.064   1.165  0.5211  0.0207  0.5869
    3SOL     OW    9   2.574   0.360   0.993 -0.0718 -0.4504  0.0102
    3SOL    HW1   10   2.619   0.413   0.930  3.8101 -0.7228 -1.6519
    3SOL    HW2   11   2.561   0.422   1.073  2.6500 -2.6882 -2.7621
    3SOL     MW   12   2.578   0.375   0.995  0.7995 -0.7816 -0.5749
    4SOL     OW   13   3.015   1.731   0.548  1.4103  0.3646  0.3302
    4SOL    HW1   14   2.953   1.784   0.496 -1.5642 -0.1131 -0.2413
    4SOL    HW2   15   3.078   1.711   0.480  1.1222  0.2488 -1.9214
    4SOL     MW   16   3.015   1.735   0.532  0.9798  0.2863 -0.0423
    5SOL     OW   17   1.685   1.514   0.518 -0.7456  0.0538  0.3504
    5SOL    HW1   18   1.716   1.451   0.585  0.9252  2.2166  1.1528
    5SOL    HW2   19   1.592   1.522   0.509  1.0084  1.9927 -0.4341
    5SOL     MW   20   1.677   1.507   0.525 -0.2937  0.5950  0.3527
    6SOL     OW   21   0.824   1.380   0.580  0.2592  0.5913 -0.0616
    6SOL    HW1   22   0.728   1.387   0.580 -0.8913  0.6773 -0.3646
    6SOL    HW2   23   0.854   1.294   0.614 -0.9371 -1.5856  0.3072
    6SOL     MW   24   0.815   1.369   0.585 -0.0504  0.3154 -0.0529
    7SOL     OW   25   2.070   1.037  -0.001 -0.3168 -0.0151 -0.0763
    7SOL    HW1   26   2.153   1.082   0.014  1.3369  1.1015 -2.1293
    7SOL    HW2   27   2.033   1.032   0.085  2.0431  0.4455 -1.7194
    7SOL     MW   28   2.076   1.042   0.012  0.2128  0.1930 -0.5640
    8SOL     OW   29   0.904   1.464   1.198 -0.3542  0.3875  0.3563
    8SOL    HW1   30   0.988   1.473   1.240 -0.5268 -0.2531 -0.8288
    8SOL    HW2   31   0.874   1.376   1.206 -1.2656  0.7068 -2.1227
    8SOL     MW   32   0.912   1.453   1.204 -0.4972  0.3451 -0.1271
    9SOL     OW   33   0.995   0.512   1.399 -0.3065 -0.2712  0.0243
    9SOL    HW1   34   0.954   0.442   1.347  1.3894  1.1984  1.4900
    9SOL    HW2   35   1.045   0.471   1.468  3.1799 -2.1935 -3.1333
    9SOL     MW   36   0.996   0.498   1.401  0.3773 -0.3309 -0.1989
   10SOL     OW   37   0.237   0.801   0.496  0.1964  0.4181  0.7367
   10SOL    HW1   38   0.323   0.839   0.470  0.1053  0.1124  0.3970
   10SOL    HW2   39   0.207   0.840   0.577  0.4929  1.5082 -1.7980
   10SOL     MW   40   0.244   0.812   0.504  0.2235  0.5216  0.3575
   11SOL     OW   41   0.782   1.119   1.613  0.1408 -0.3645  0.2728
   11SOL    HW1   42   0.840   1.137   1.687  2.1555  2.1695  1.8547
   11SOL    HW2   43   0.769   1.028   1.601  0.4238 -0.2399  1.1823
   11SOL     MW   44   0.788   1.110   1.621  0.4440 -0.0137  0.6015
   12SOL     OW   45   3.088   1.072   0.882 -0.3946  0.2950 -0.1715
   12SOL    HW1   46   3.128   1.142   0.933 -0.5637  2.7717 -3.6230
   12SOL    HW2   47   3.061   1.127   0.802  0.6383 -1.1078 -1.0850
   12SOL     MW   48   3.089   1.089   0.878 -0.2806  0.4367 -0.7474
   13SOL     OW   49   1.857   1.393   1.357 -0.4667 -0.1289 -0.8153
   13SOL    HW1   50   1.905   1.332   1.297  0.2822 -0.6130 -3.3233
   13SOL    HW2   51   1.887   1.480   1.327  0.7250 -2.4046 -4.5955
   13SOL     MW   52   1.868   1.396   1.345 -0.2107 -0.4931 -1.6450
   14SOL     OW   53   0.560   0.334   1.855  0.1719 -0.5928 -0.0609
   14SOL    HW1   54   0.514   0.249   1.854 -0.8947 -2.2686 -1.8697
   14SOL    HW2   55   0.598   0.337   1.765 -0.5046 -0.8874  1.0524
   14SOL     MW   56   0.559   0.323   1.843 -0.0581 -0.8528 -0.1526
   15SOL     OW   57   1.965   0.332   1.058  0.1128 -0.0770 -0.1297
   15SOL    HW1   58   1.927   0.399   1.120 -0.2213  0.8121 -1.2219
   15SOL    HW2   59   2.015   0.373   0.990 -0.8100 -2.6020 -0.7986
   15SOL     MW   60   1.967   0.346   1.057 -0.0530 -0.2928 -0.3621
   16SOL     OW   61   0.199   1.819   0.288  0.4208 -0.1819  0.6114
   16SOL    HW1   62   0.289   1.788   0.305 -0.2273  1.4326  0.2875
   16SOL    HW2   63   0.195   1.915   0.309  1.6009  0.8801  1.9882
   16SOL     MW   64   0.211   1.827   0.293  0.4910  0.1712  0.7503
   17SOL     OW   65   1.029   0.937   1.457 -0.3917  0.1648 -0.1369
   17SOL    HW1   66   1.065   0.917   1.543 -0.7232 -1.9208  0.9793
   17SOL    HW2   67   0.938   0.904   1.462  0.6794 -2.1170 -1.1072
   17SOL     MW   68   1.021   0.930   1.469 -0.2941 -0.4114 -0.1177
   18SOL     OW   69   0.083   1.589   0.356  0.2362  0.3205  0.3081
   18SOL    HW1   70   0.114   1.669   0.314  2.0265 -2.3942 -1.1435
   18SOL    HW2   71   0.061   1.532   0.278  0.2967  4.5838 -0.3433
   18SOL     MW   72   0.084   1.592   0.340  0.4804  0.5248  0.0306
   19SOL     OW   73   0.090   1.286   1.018  0.4383  0.3246 -0.6994
   19SOL    HW1   74   0.133   1.343   0.947 -0.0858  3.4117  1.9356
   19SOL    HW2   75  -0.004   1.313   1.022 -1.2451  1.0736  2.2555
   19SOL     MW   76   0.083   1.297   1.009  0.1471  0.8307  0.0381
   20SOL     OW   77   0.427   2.176   1.162  0.3751  0.0895  0.2832
   20SOL    HW1   78   0.393   2.095   1.129  0.7723 -1.0488  0.8240
   20SOL    HW2   79   0.393   2.185   1.255 -0.5038  0.0425 -0.8925
   20SOL     MW   80   0.418   2.167   1.170  0.3115 -0.0669  0.1995
   21SOL     OW   81   0.483   0.885   0.420  0.0536 -0.1600  0.0457
   21SOL    HW1   82   0.533   0.858   0.498 -2.3680  0.1990  1.2543
   21SOL    HW2   83   0.529   0.856   0.340 -0.7903 -1.1875 -1.3804
   21SOL     MW   84   0.496   0.877   0.420 -0.3772 -0.2482  0.0170
   22SOL     OW   85   1.539   0.690   1.021 -0.5373  0.2097 -0.3309
   22SOL    HW1   86   1.502   0.685   0.933  0.0631  1.5217  1.7456
   22SOL    HW2   87   1.500   0.769   1.058  1.9424  0.2345 -2.4690
   22SOL     MW   88   1.529   0.699   1.014 -0.1309  0.3861 -0.3391
   23SOL     OW   89   3.051   0.673   0.714  0.2137 -0.4196 -0.4797
   23SOL    HW1   90   3.079   0.596   0.755  0.5522  1.1796 -1.7651
   23SOL    HW2   91   3.126   0.732   0.712 -0.6335  1.0757 -1.3030
   23SOL     MW   92   3.064   0.671   0.719  0.1466 -0.0113 -0.7579
   24SOL     OW   93   2.026   2.224   0.032 -0.2771 -0.0747 -0.3630
   24SOL    HW1   94   2.026   2.196   0.124  2.0733 -0.2186  1.2083
   24SOL    HW2   95   2.054   2.143  -0.018 -0.7833 -1.0736  0.2223
   24SOL     MW   96   2.029   2.210   0.038 -0.0338 -0.2255 -0.0785
   25SOL     OW   97   0.194   1.416   0.534  0.0013 -0.2358 -0.4217
   25SOL    HW1   98   0.155   1.480   0.474  0.6014  2.8681 -1.4149
   25SOL    HW2   99   0.284   1.411   0.512 -2.5738 -1.1744  2.1054
   25SOL     MW  100   0.200   1.424   0.523 -0.2593  0.0499 -0.2193
   26SOL     OW  101   2.060   1.058   0.300  0.1756  0.7261 -0.3703
   26SOL    HW1  102   2.013   1.120   0.359 -0.0245  0.5174 -1.4869
   26SOL    HW2  103   2.132   1.114   0.266 -3.0884  0.3050  2.0517
   26SOL     MW  104   2.063   1.073   0.304 -0.2814  0.6430 -0.1981
   27SOL     OW  105   1.979   1.466   0.214 -0.0761  0.0725 -0.4169
   27SOL    HW1  106   1.891   1.502   0.209 -1.2567 -1.2246  2.9786
   27SOL    HW2  107   2.011   1.498   0.298 -0.0102  0.8961 -0.9062
   27SOL     MW  108   1.972   1.475   0.225 -0.2232  0.0100 -0.0334
   28SOL     OW  109   0.446   1.009   1.961 -0.3036  0.5741  0.1553
   28SOL    HW1  110   0.502   1.024   2.043  0.8127 -0.8943  1.0370
   28SOL    HW2  111   0.373   0.957   1.985  1.1463 -2.3142 -0.0300
   28SOL     MW  112   0.444   1.004   1.975  0.0350 -0.0007  0.2472
   29SOL     OW  113   0.221   1.446   0.825  0.1433 -0.5970 -0.8773
   29SOL    HW1  114   0.226   1.542   0.834  2.5260 -2.0083 -0.4775
   29SOL    HW2  115   0.195   1.425   0.734  0.0375  1.4883  0.8189
   29SOL     MW  116   0.218   1.456   0.814  0.4437 -0.5081 -0.6007
   30SOL     OW  117   0.791   1.230   1.224 -0.0406  0.3475 -0.7447
   30SOL    HW1  118   0.699   1.235   1.262 -0.6331 -0.5819  0.4268
   30SOL    HW2  119   0.846   1.210   1.306  2.5533 -1.6136  1.1140
   30SOL     MW  120   0.786   1.228   1.240  0.2234 -0.0339 -0.3449
   31SOL     OW  121   0.403   0.247   0.162 -0.4642  0.2743  0.1426
   31SOL    HW1  122   0.433   0.165   0.208  0.3366 -1.6848  0.1999
   31SOL    HW2  123   0.400   0.219   0.069  0.5677  0.9163  0.1868
   31SOL     MW  124   0.406   0.232   0.156 -0.2224  0.1006  0.1560
   32SOL     OW  125   2.768   0.988   1.171 -0.4576  0.2173  0.0797
   32SOL    HW1  126   2.686   0.927   1.178 -0.7538 -1.0688  0.9677
   32SOL    HW2  127   2.845   0.929   1.163 -1.7296 -1.9701 -1.3110
   32SOL     MW  128   2.767   0.972   1.171 -0.6645 -0.2410  0.0133
   33SOL     OW  129   1.664   1.299   0.343 -0.2940 -0.3353  0.3484
   33SOL    HW1  130   1.724   1.236   0.381 -0.1063  0.8874 -2.0288
   33SOL    HW2  131   1.680   1.375   0.403 -0.4803  0.3567  0.8115
   33SOL     MW  132   1.674   1.301   0.356 -0.2938 -0.0827  0.0959
   34SOL     OW  133   1.226   1.927   1.113  0.2652 -0.0861  0.5740
   34SOL    HW1  134   1.153   1.974   1.153 -0.7150 -0.8634 -0.2483
   34SOL    HW2  135   1.301   1.947   1.170  0.8670  0.0578 -0.5380
   34SOL     MW  136   1.226   1.936   1.126  0.2153 -0.1697  0.3188
   35SOL     OW  137   0.363   0.131   1.849 -0.2575 -0.3269  0.2299
   35SOL    HW1  138   0.376   0.080   1.929  1.4523  0.1469 -0.7840
   35SOL    HW2  139   0.392   0.076   1.775 -2.8137 -0.8859  1.9128
   35SOL     MW  140   0.368   0.117   1.850 -0.3692 -0.3381  0.3181
   36SOL     OW  141   1.973   1.931   0.559  0.1161 -0.5246 -0.5249
   36SOL    HW1  142   1.944   1.932   0.469  1.5325  1.0834 -0.1334
   36SOL    HW2  143   1.957   1.838   0.582 -1.3819 -0.3110  1.6730
   36SOL     MW  144   1.967   1.919   0.550  0.1054 -0.2843 -0.1833
   37SOL     OW  145   1.785   2.026   0.970  0.4392  0.1618 -0.5936
   37SOL    HW1  146   1.732   1.978   0.912 -0.0534  2.4752  0.6037
   37SOL    HW2  147   1.732   2.091   1.020  0.2780 -1.7521  0.3304
   37SOL     MW  148   1.771   2.028   0.969  0.3529  0.2145 -0.3137
   38SOL     OW  149   2.822   0.957   0.126  0.1462  0.5240 -0.2588
   38SOL    HW1  150   2.810   0.907   0.208  1.0579 -1.2105 -1.2243
   38SOL    HW2  151   2.900   0.921   0.085 -0.6985 -2.0960 -0.2714
   38SOL     MW  152   2.831   0.946   0.131  0.1550 -0.0505 -0.3878
   39SOL     OW  153   1.417   0.608   0.788  0.3606 -0.4383 -0.4342
   39SOL    HW1  154   1.359   0.542   0.823  2.2431 -0.7915 -1.0314
   39SOL    HW2  155   1.352   0.662   0.739 -1.7470  2.9561  1.1100
   39SOL     MW  156   1.401   0.607   0.786  0.3309 -0.0370 -0.3093
   40SOL     OW  157   1.159   1.898   0.291 -0.1168  0.1298 -0.7898
   40SOL    HW1  158   1.203   1.839   0.355  2.8542  0.5762 -0.5941
   40SOL    HW2  159   1.156   1.985   0.334 -0.2346  1.6478 -1.8605
   40SOL     MW  160   1.164   1.902   0.305  0.2596  0.3890 -0.9053
   41SOL     OW  161   0.542   0.497   1.577  0.1140 -0.4464  0.0587
   41SOL    HW1  162   0.620   0.548   1.560 -0.8160 -1.1568  0.3548
   41SOL    HW2  163   0.487   0.559   1.629 -2.8822  3.1894  2.8669
   41SOL     MW  164   0.545   0.512   1.582 -0.4040 -0.0604  0.4683
   42SOL     OW  165   1.259   3.007   2.007  0.5537  0.1431 -0.3608
   42SOL    HW1  166   1.170   3.012   2.046 -0.4054 -1.0668  2.1590
   42SOL    HW2  167   1.302   2.939   2.062  3.2547 -1.9779 -1.7434
   42SOL     MW  168   1.253   2.999   2.019  0.7835 -0.2964 -0.2107
   43SOL     OW  169   1.480   0.125   1.682  0.0856  0.4269 -0.7162
   43SOL    HW1  170   1.537   0.099   1.609 -0.4884  0.9265 -0.1582
   43SOL    HW2  171   1.416   0.059   1.698 -0.8411 -0.3920 -3.0622
   43SOL     MW  172   1.479   0.113   1.674 -0.1124  0.3848 -0.9521
   44SOL     OW  173   1.165   0.768   0.996  0.6730  0.0457  0.3656
   44SOL    HW1  174   1.152   0.863   0.979  0.1208  0.6713 -1.7419
   44SOL    HW2  175   1.156   0.756   1.096  3.3746  1.1356  1.6171
   44SOL     MW  176   1.162   0.779   1.007  0.9566  0.2720  0.2527
   45SOL     OW  177   1.229   0.744   0.674 -0.1664 -0.0145  0.5157
   45SOL    HW1  178   1.159   0.774   0.730  0.8372  0.5889  1.8471
   45SOL    HW2  179   1.172   0.706   0.606 -0.5794  0.1630  0.3938
   45SOL     MW  180   1.213   0.743   0.672 -0.0885  0.0885  0.6753
   46SOL     OW  181   0.556   1.115   0.577 -0.3231 -0.2430 -0.1552
   46SOL    HW1  182   0.537   1.134   0.488 -0.4571  0.8343 -0.0423
   46SOL    HW2  183   0.623   1.051   0.561 -1.6047 -1.3035  0.7202
   46SOL     MW  184   0.563   1.109   0.563 -0.5099 -0.2408 -0.0248
   47SOL     OW  185   0.218   1.981   1.966 -0.1075 -0.5826  0.0746
   47SOL    HW1  186   0.296   1.935   2.005  0.2179 -2.3786 -1.0440
   47SOL    HW2  187   0.155   1.977   2.036 -3.0761  0.5536  0.9736
   47SOL     MW  188   0.220   1.974   1.981 -0.4563 -0.6696  0.0456
   48SOL     OW  189   1.097   0.519   1.073 -0.3062 -0.1895 -0.3329
   48SOL    HW1  190   0.997   0.526   1.080  1.1050  1.2168 -3.0144
   48SOL    HW2  191   1.122   0.601   1.030 -0.4692  0.8997  0.3999
   48SOL     MW  192   1.087   0.531   1.068 -0.1415  0.1397 -0.5900
   49SOL     OW  193   1.721   0.668   1.540  0.6942 -0.9148 -0.3554
   49SOL    HW1  194   1.692   0.618   1.619  0.8399 -2.5279  1.0210
   49SOL    HW2  195   1.799   0.621   1.514 -1.0307 -0.8136 -0.5018
   49SOL     MW  196   1.727   0.655   1.547  0.4859 -1.1143 -0.1931
   50SOL     OW  197   1.292   1.115   0.531 -0.5056  0.3401  0.5114
   50SOL    HW1  198   1.242   1.130   0.610  0.9675  0.6502  0.0862
   50SOL    HW2  199   1.370   1.071   0.570 -0.1745 -3.0238 -0.6636
   50SOL     MW  200   1.296   1.111   0.546 -0.2675 -0.0628  0.3003
   51SOL     OW  201   0.329   2.925   0.911 -0.2366 -0.0479 -0.1017
   51SOL    HW1  202   0.423   2.891   0.904  1.5517 -0.9645  1.0296
   51SOL    HW2  203   0.317   2.971   0.995 -1.1552 -1.5005  1.8946
   51SOL     MW  204   0.340   2.927   0.921 -0.1218 -0.3605  0.3110
   52SOL     OW  205   0.821   1.762   0.422 -0.1346  0.8653  0.5885
   52SOL    HW1  206   0.788   1.852   0.392 -1.1591  1.1819 -0.0099
   52SOL    HW2  207   0.857   1.716   0.342 -0.2784 -1.1175  0.8918
   52SOL     MW  208   0.822   1.768   0.407 -0.2888  0.6455  0.5496
   53SOL     OW  209   0.421   2.135   0.463 -0.1195  0.0156  0.0047
   53SOL    HW1  210   0.342   2.113   0.408 -2.0029 -0.3899 -2.0771
   53SOL    HW2  211   0.393   2.217   0.513  1.9422 -1.1841  0.7961
   53SOL     MW  212   0.407   2.143   0.462 -0.0960 -0.1962 -0.1656
   54SOL     OW  213   2.012   0.915   0.785  0.5720  0.2794 -0.2290
   54SOL    HW1  214   2.024   0.919   0.692  1.5513  0.4287 -0.6118
   54SOL    HW2  215   2.004   0.820   0.809 -0.2161 -0.7908  0.7611
   54SOL     MW  216   2.012   0.903   0.776  0.5972  0.1579 -0.1489
   55SOL     OW  217   0.547   1.565   1.629  0.0234  0.1066  1.0674
   55SOL    HW1  218   0.505   1.564   1.543 -0.7648  2.5843  0.5552
   55SOL    HW2  219   0.628   1.515   1.609  0.9695  0.6902  2.8823
   55SOL     MW  220   0.552   1.558   1.615  0.0443  0.5105  1.2393
   56SOL     OW  221   0.627   0.834   0.180 -0.2994  0.0055 -0.5616
   56SOL    HW1  222   0.673   0.919   0.186  0.3765  1.1377 -0.1647
   56SOL    HW2  223   0.565   0.843   0.111  1.5196  2.5921  0.1347
   56SOL     MW  224   0.625   0.846   0.172  0.0298  0.4962 -0.4173
   57SOL     OW  225   1.179   1.268   1.136  0.2696 -0.9135 -0.2120
   57SOL    HW1  226   1.272   1.271   1.147 -3.0758 -1.4595 -2.9339
   57SOL    HW2  227   1.134   1.226   1.216 -1.3320 -0.3619  1.4321
   57SOL     MW  228   1.185   1.263   1.148 -0.3831 -0.9128 -0.3542
   58SOL     OW  229   0.546   1.226   1.324 -0.0708 -0.1478 -0.8599
   58SOL    HW1  230   0.521   1.319   1.309 -0.8862 -0.1485  1.4615
   58SOL    HW2  231   0.556   1.214   1.424 -0.6533  3.0705  0.1487
   58SOL     MW  232   0.544   1.236   1.335 -0.2553  0.2767 -0.4206
   59SOL     OW  233   1.515   1.700   0.346 -0.4490  0.2947  0.2471
   59SOL    HW1  234   1.574   1.752   0.402 -0.3354  0.6021 -3.1198
   59SOL    HW2  235   1.423   1.717   0.370 -3.0410  1.7148  0.0272
   59SOL     MW  236   1.510   1.709   0.357 -0.7760  0.5226 -0.2262
   60SOL     OW  237   0.046   0.242   1.679 -0.0386  0.0380  0.0734
   60SOL    HW1  238  -0.046   0.283   1.695  1.7771 -2.4914 -0.7214
   60SOL    HW2  239   0.045   0.162   1.732 -0.1568  1.2849  0.2245
   60SOL     MW  240   0.034   0.237   1.688  0.1854 -0.1312 -0.0115
   61SOL     OW  241   1.998   1.390   3.046  0.0492 -0.6206  0.3301
   61SOL    HW1  242   2.012   1.388   3.140  1.4484 -1.4391 -0.0072
   61SOL    HW2  243   2.070   1.345   3.006  2.5674  2.3930 -0.2122
   61SOL     MW  244   2.009   1.384   3.053  0.5661 -0.3310  0.2140
   62SOL     OW  245   0.568   1.674   0.527 -0.5517  0.7940 -1.1397
   62SOL    HW1  246   0.663   1.690   0.513  0.6379 -3.9355  1.5554
   62SOL    HW2  247   0.576   1.577   0.552  2.2749 -2.1660  1.2568
   62SOL     MW  248   0.582   1.663   0.528 -0.0218 -0.2205 -0.4679
   63SOL     OW  249   1.721   0.655   0.713  0.3681 -0.5215  0.0825
   63SOL    HW1  250   1.735   0.750   0.710 -1.3486 -1.0023 -0.6050
   63SOL    HW2  251   1.625   0.650   0.706 -0.6819 -0.5386  0.5481
   63SOL     MW  252   1.710   0.667   0.712  0.0030 -0.5872  0.0532
   64SOL     OW  253   0.234   1.713   0.852  0.7842  0.0093 -0.0897
   64SOL    HW1  254   0.310   1.755   0.808  0.3340 -1.0428 -1.2536
   64SOL    HW2  255   0.149   1.762   0.834 -1.5394 -1.8216 -3.2518
   64SOL     MW  256   0.233   1.725   0.844  0.4182 -0.3711 -0.6605
   65SOL     OW  257   1.584   2.305   0.440 -0.0796  0.3765  0.2716
   65SOL    HW1  258   1.657   2.282   0.495 -0.9050  3.4193  2.8356
   65SOL    HW2  259   1.534   2.357   0.500  1.7842 -2.2363  0.4115
   65SOL     MW  260   1.587   2.309   0.455  0.0574  0.4333  0.6283
   66SOL     OW  261   0.315   0.536   0.511  0.1856  0.2182 -0.6059
   66SOL    HW1  262   0.369   0.548   0.439 -2.3955  0.6571 -0.1625
   66SOL    HW2  263   0.268   0.619   0.514  2.2736  1.8044 -1.0461
   66SOL     MW  264   0.316   0.549   0.502  0.1205  0.4854 -0.6055
   67SOL     OW  265   1.473   0.133   1.983 -0.3026  0.1490  0.4292
   67SOL    HW1  266   1.500   0.150   1.893  1.0895 -1.8271 -0.2354
   67SOL    HW2  267   1.431   0.045   1.991  0.0739  0.5136 -0.5796
   67SOL     MW  268   1.471   0.124   1.972 -0.0692 -0.0637  0.2084
   68SOL     OW  269   0.704   0.080   2.992 -0.5517  0.2670 -0.2289
   68SOL    HW1  270   0.694   0.131   2.911  0.8993  1.6562 -0.9583
   68SOL    HW2  271   0.792   0.086   3.036 -3.2980  1.6887 -0.8237
   68SOL     MW  272   0.714   0.088   2.987 -0.7226  0.6378 -0.4036
   69SOL     OW  273   0.999   0.192   1.993 -0.4083  0.0831  0.3515
   69SOL    HW1  274   1.092   0.191   2.015 -0.7732 -0.1233  0.2416
   69SOL    HW2  275   0.960   0.106   2.020 -1.9984 -0.0271  1.5252
   69SOL     MW  276   1.006   0.180   1.999 -0.6663  0.0414  0.4919
   70SOL     OW  277   0.563   1.780   1.154 -0.3434 -0.7527 -0.4729
   70SOL    HW1  278   0.612   1.723   1.218 -0.5786  0.8293 -2.0036
   70SOL    HW2  279   0.634   1.815   1.096  1.3558 -2.0881 -0.4624
   70SOL     MW  280   0.579   1.777   1.155 -0.1503 -0.7202 -0.6735
   71SOL     OW  281   1.600   0.487   1.218  0.1280  0.4453 -0.7366
   71SOL    HW1  282   1.564   0.555   1.275  1.8165  0.0765 -1.8591
   71SOL    HW2  283   1.559   0.514   1.134 -0.9696 -0.3786  0.2941
   71SOL     MW  284   1.590   0.499   1.214  0.2060  0.2879 -0.7487
   72SOL     OW  285   0.798   1.842   1.039  0.3999 -0.5423 -0.3320
   72SOL    HW1  286   0.795   1.897   0.961 -3.8737  1.7945  2.3286
   72SOL    HW2  287   0.799   1.751   0.999  0.1970 -0.1301  0.0132
   72SOL     MW  288   0.797   1.837   1.023 -0.1908 -0.1796  0.0646
   73SOL     OW  289   1.182   0.727   1.287  0.1715 -0.0094 -0.3998
   73SOL    HW1  290   1.132   0.643   1.310  1.3510 -0.9102  2.7700
   73SOL    HW2  291   1.151   0.801   1.339  0.7467 -1.9565  1.6492
   73SOL     MW  292   1.172   0.726   1.297  0.4030 -0.3852  0.2888
   74SOL     OW  293   2.782   0.232   1.125  0.0185  0.6453  0.0072
   74SOL    HW1  294   2.834   0.180   1.070  2.0049  1.6536  0.8153
   74SOL    HW2  295   2.708   0.273   1.076 -0.6135 -1.6160  2.7944
   74SOL     MW  296   2.779   0.230   1.111  0.1972  0.4800  0.4815
   75SOL     OW  297   1.567   1.425   0.117 -0.3090 -1.1326 -0.0446
   75SOL    HW1  298   1.619   1.497   0.089 -0.3229 -1.3288 -1.5547
   75SOL    HW2  299   1.606   1.388   0.194 -1.2507 -0.1574 -1.8324
   75SOL     MW  300   1.579   1.430   0.124 -0.4351 -1.0299 -0.4797
   76SOL     OW  301   2.959   0.589   0.474  0.4307  0.7444 -0.0381
   76SOL    HW1  302   2.992   0.609   0.565  1.1430 -0.6907 -0.0030
   76SOL    HW2  303   3.018   0.524   0.435  1.0587  1.1956  0.2352
   76SOL     MW  304   2.971   0.583   0.481  0.6076  0.6146  0.0026
   77SOL     OW  305   0.812   0.555   0.479 -0.4342  0.0035  0.0425
   77SOL    HW1  306   0.782   0.580   0.390 -2.5325 -2.0590 -0.2734
   77SOL    HW2  307   0.780   0.463   0.490  0.5442  1.5013  0.0910
   77SOL     MW  308   0.804   0.547   0.469 -0.5819 -0.0710  0.0073
   78SOL     OW  309   0.759   0.868   1.193 -0.2457 -0.8742 -0.0598
   78SOL    HW1  310   0.805   0.940   1.141  1.6265  1.6409 -0.9392
   78SOL    HW2  311   0.671   0.857   1.157 -1.5554 -0.5569 -0.5977
   78SOL     MW  312   0.753   0.876   1.181 -0.1714 -0.5005 -0.2468
   79SOL     OW  313   1.912   1.659   0.625  0.3582 -0.2556  0.3591
   79SOL    HW1  314   1.825   1.635   0.596 -0.5366 -0.4332  1.3054
   79SOL    HW2  315   1.908   1.638   0.719 -0.1975  1.5781  1.2526
   79SOL     MW  316   1.900   1.653   0.634  0.1668 -0.0371  0.6018
   80SOL     OW  317   0.065   0.930   0.335 -0.0096  0.2780  0.5186
   80SOL    HW1  318  -0.014   0.874   0.332  2.7256 -0.6121  0.8489
   80SOL    HW2  319   0.119   0.878   0.393  0.5048  1.0805 -0.9346
   80SOL     MW  320   0.062   0.916   0.343  0.4191  0.2664  0.3704
   81SOL     OW  321   1.871   1.896   0.320 -0.9332  0.5643 -0.1059
   81SOL    HW1  322   1.848   1.810   0.280  0.4740  1.8828  1.0364
   81SOL    HW2  323   1.818   1.961   0.255 -1.4904 -0.2588 -3.4499
   81SOL     MW  324   1.861   1.894   0.306 -0.8210  0.6297 -0.3964
   82SOL     OW  325   0.827   0.984   0.537  0.3945  0.1942 -0.4072
   82SOL    HW1  326   0.844   0.998   0.444  1.3799  1.0101  1.3227
   82SOL    HW2  327   0.777   0.906   0.552 -0.1518 -0.1283 -0.4094
   82SOL     MW  328   0.823   0.975   0.527  0.4524  0.2593 -0.1793
   83SOL     OW  329   0.071   0.717   1.460 -0.5258  0.4223  0.2555
   83SOL    HW1  330   0.097   0.791   1.403 -1.2050  1.4456  2.4175
   83SOL    HW2  331   0.147   0.663   1.474  0.6337  5.5756 -0.3889
   83SOL     MW  332   0.084   0.720   1.454 -0.4624  1.2372  0.4557
   84SOL     OW  333   0.081   0.177   0.954 -0.7223 -0.3277 -0.5254
   84SOL    HW1  334   0.049   0.263   0.990 -0.4039  1.3682 -1.0981
   84SOL    HW2  335   0.078   0.117   1.034  3.6509  0.6223  1.2109
   84SOL     MW  336   0.077   0.180   0.969 -0.1033  0.0214 -0.3718
   85SOL     OW  337   0.435   0.455   0.746 -0.2653 -0.3373 -0.1228
   85SOL    HW1  338   0.409   0.487   0.658 -0.1712  0.1695  0.7482
   85SOL    HW2  339   0.396   0.370   0.754 -1.0469 -3.3991 -0.5686
   85SOL     MW  340   0.426   0.448   0.735 -0.3560 -0.6744 -0.0667
   86SOL     OW  341   1.158   0.263   1.130  0.0946 -0.1851  0.2247
   86SOL    HW1  342   1.149   0.359   1.111  0.4019  2.0108 -1.5211
   86SOL    HW2  343   1.244   0.258   1.169  1.4676 -1.9471 -1.1955
   86SOL     MW  344   1.168   0.275   1.133  0.3163 -0.1278 -0.1930
   87SOL     OW  345   1.161   1.518   1.255 -0.6451  0.0228 -0.3162
   87SOL    HW1  346   1.193   1.584   1.194  1.8848  1.0400  1.0336
   87SOL    HW2  347   1.164   1.436   1.203 -1.0813  3.2417  0.5303
   87SOL     MW  348   1.166   1.516   1.240 -0.3688  0.5817 -0.0265
   88SOL     OW  349   1.179   1.059   0.978 -0.0780  0.0664  0.1665
   88SOL    HW1  350   1.274   1.051   0.968  3.2633 -1.0766  0.0980
   88SOL    HW2  351   1.163   1.143   1.027 -0.4968 -0.6848 -1.3319
   88SOL     MW  352   1.190   1.069   0.983  0.3076 -0.1835 -0.0402
   89SOL     OW  353   1.763   0.755   0.327  0.2685  0.0142 -0.2830
   89SOL    HW1  354   1.743   0.667   0.355  0.7944 -0.5490  0.2142
   89SOL    HW2  355   1.861   0.760   0.314  1.7935 -0.2295  1.1161
   89SOL     MW  356   1.773   0.744   0.329  0.5391 -0.0922 -0.0328
   90SOL     OW  357   0.818   1.093   2.798  0.6270  0.6377  0.2690
   90SOL    HW1  358   0.855   1.010   2.826 -1.3520  3.7969  3.0084
   90SOL    HW2  359   0.814   1.140   2.884 -0.7632  0.5646 -0.0001
   90SOL     MW  360   0.823   1.089   2.813  0.1825  1.0449  0.5949
   91SOL     OW  361   2.158   0.685   0.500  0.0293  0.4055 -0.4970
   91SOL    HW1  362   2.203   0.743   0.440 -1.3381 -1.4115  0.5186
   91SOL    HW2  363   2.180   0.596   0.475 -1.2064  3.7166 -0.6151
   91SOL     MW  364   2.167   0.681   0.489 -0.3142  0.6026 -0.3786
   92SOL     OW  365   1.742   0.920   0.582  0.2929 -0.2713 -0.0390
   92SOL    HW1  366   1.650   0.939   0.609  2.0376 -0.9653 -0.9387
   92SOL    HW2  367   1.736   0.875   0.495  2.0982  0.8354 -0.8214
   92SOL     MW  368   1.729   0.917   0.574  0.7613 -0.2168 -0.2609
   93SOL     OW  369   1.041   0.195   0.409  0.7942 -0.8809 -0.0045
   93SOL    HW1  370   0.954   0.227   0.437  0.0161 -1.3315  1.7524
   93SOL    HW2  371   1.045   0.221   0.314  0.1035 -0.4022 -0.8090
   93SOL     MW  372   1.030   0.203   0.400  0.6004 -0.8772  0.1212
   94SOL     OW  373   1.861   1.390   1.635 -0.4537 -0.2126  0.4299
   94SOL    HW1  374   1.879   1.397   1.534  2.2100 -1.2676  1.4564
   94SOL    HW2  375   1.852   1.294   1.643  0.7997  0.5797  1.2799
   94SOL     MW  376   1.862   1.378   1.623  0.0631 -0.2472  0.6775
   95SOL     OW  377   0.786   1.564   0.974 -0.8478  0.3443  0.3458
   95SOL    HW1  378   0.833   1.515   1.040 -0.6503  3.8122  2.7613
   95SOL    HW2  379   0.702   1.529   0.944  1.4949 -1.5454 -0.5754
   95SOL     MW  380   0.781   1.553   0.979 -0.5126  0.5525  0.5430
   96SOL     OW  381   1.306   1.895   1.719  0.4780 -0.4054  0.0127
   96SOL    HW1  382   1.212   1.879   1.747 -0.3615  0.5146  0.2877
   96SOL    HW2  383   1.324   1.814   1.673 -1.2889  3.9257  2.0858
   96SOL     MW  384   1.296   1.882   1.717  0.1341  0.2874  0.3225
   97SOL     OW  385   1.133   1.447   0.872 -0.6928  0.4103 -0.1500
   97SOL    HW1  386   1.169   1.520   0.924 -0.7435  0.8020 -0.1199
   97SOL    HW2  387   1.065   1.493   0.823  2.0276 -2.3485 -0.0220
   97SOL     MW  388   1.129   1.462   0.873 -0.3406  0.0979 -0.1292
   98SOL     OW  389   1.483   1.278   1.091  0.2304 -0.3001  0.2858
   98SOL    HW1  390   1.516   1.323   1.170  1.9635  0.4721 -0.5843
   98SOL    HW2  391   1.482   1.354   1.029 -0.4761  1.1582 -2.4867
   98SOL     MW  392   1.488   1.294   1.094  0.3659 -0.0058 -0.1948
   99SOL     OW  393   1.407   0.279   1.299  0.4006  0.4575  0.6330
   99SOL    HW1  394   1.470   0.336   1.258  1.1466 -3.3747  1.1060
   99SOL    HW2  395   1.424   0.298   1.392  1.9598 -2.2291 -0.9805
   99SOL     MW  396   1.418   0.289   1.306  0.7047 -0.4026  0.4825
  100SOL     OW  397   1.041   1.205   1.366  0.2336 -0.0241  0.1698
  100SOL    HW1  398   1.078   1.239   1.448  1.3155 -1.2047 -0.7032
  100SOL    HW2  399   1.054   1.108   1.378  1.1937 -0.3637 -0.8998
  100SOL     MW  400   1.047   1.197   1.379  0.5030 -0.2247 -0.0865
  101SOL     OW  401   0.480   1.190   0.307 -0.7074  0.1039  0.2192
  101SOL    HW1  402   0.419   1.116   0.315  1.9644 -0.6443 -0.6445
  101SOL    HW2  403   0.494   1.183   0.216  2.8286  1.5395  1.0773
  101SOL     MW  404   0.474   1.180   0.296  0.1117  0.1946  0.2185
  102SOL     OW  405   2.910   0.652   0.972 -0.3274 -0.1046  0.1600
  102SOL    HW1  406   2.963   0.731   1.005  1.6160  0.8577 -1.2717
  102SOL    HW2  407   2.873   0.604   1.047 -0.1530 -1.1353 -0.6804
  102SOL     MW  408   2.912   0.656   0.986 -0.0479 -0.1136 -0.1398
  103SOL     OW  409   1.702   0.258   1.876  1.0102 -0.7783 -0.0399
  103SOL    HW1  410   1.737   0.175   1.841 -1.6730 -0.1647  0.8897
  103SOL    HW2  411   1.658   0.235   1.953  0.0927  0.0402  2.3073
  103SOL     MW  412   1.701   0.244   1.882  0.5351 -0.5894  0.3924
  104SOL     OW  413   0.154   1.516   1.581  0.2852  0.4366 -0.7265
  104SOL    HW1  414   0.206   1.454   1.621 -0.5510  1.3642  0.1337
  104SOL    HW2  415   0.067   1.490   1.601 -0.3441  0.2006  0.0627
  104SOL     MW  416   0.149   1.504   1.589  0.0919  0.5279 -0.5089
  105SOL     OW  417   0.045   1.196   0.412 -0.2409 -0.6994  0.3623
  105SOL    HW1  418   0.072   1.096   0.401  1.0811 -0.6480 -1.0443
  105SOL    HW2  419   0.128   1.245   0.444  1.7323  2.6594 -1.8423
  105SOL     MW  420   0.060   1.189   0.415  0.1939 -0.2495 -0.1141
  106SOL     OW  421   0.817   0.390   1.011  0.0780  0.6336 -0.0033
  106SOL    HW1  422   0.744   0.450   0.985  0.2015 -1.0417 -2.5574
  106SOL    HW2  423   0.891   0.395   0.944 -0.8806 -1.1488 -0.2990
  106SOL     MW  424   0.817   0.398   0.999 -0.0322  0.1774 -0.3793
  107SOL     OW  425   0.798   2.154   2.911  0.2992 -0.8805 -0.3371
  107SOL    HW1  426   0.713   2.148   2.862 -0.7405  1.6618  1.9961
  107SOL    HW2  427   0.793   2.100   2.995 -0.2601  1.2094  1.8567
  107SOL     MW  428   0.786   2.146   2.915  0.0882 -0.2693  0.2602
  108SOL     OW  429   1.336   1.617   1.626 -0.4941  0.2325  0.2046
  108SOL    HW1  430   1.272   1.542   1.598 -0.6433  1.9447 -0.5967
  108SOL    HW2  431   1.423   1.585   1.612 -1.2586  3.6928 -0.6259
  108SOL     MW  432   1.339   1.603   1.621 -0.6147  0.9150 -0.0107
  109SOL     OW  433   2.031   0.764   0.259  0.2925 -0.7736  0.3881
  109SOL    HW1  434   2.038   0.863   0.253  1.7845  0.9198  1.1432
  109SOL    HW2  435   2.078   0.740   0.335 -1.7124  0.5221  0.6411
  109SOL     MW  436   2.038   0.774   0.268  0.2248 -0.3793  0.5211
  110SOL     OW  437   0.401   1.917   0.619 -0.0066  0.6919  0.2581
  110SOL    HW1  438   0.473   1.861   0.599  0.4233 -0.1670 -3.7420
  110SOL    HW2  439   0.418   1.997   0.568  1.3892 -1.4396  1.1309
  110SOL     MW  440   0.413   1.921   0.610  0.2343  0.2973 -0.1545
  111SOL     OW  441   0.757   0.863   1.472 -0.4469 -0.3193  0.0110
  111SOL    HW1  442   0.751   0.862   1.376  0.8667  1.6340 -0.2544
  111SOL    HW2  443   0.760   0.769   1.485 -2.7333 -0.7715 -3.4534
  111SOL     MW  444   0.756   0.850   1.461 -0.5752 -0.1212 -0.4811
  112SOL     OW  445   1.317   1.095   1.636  0.2163 -0.1095  0.2723
  112SOL    HW1  446   1.267   1.174   1.627 -0.2730 -1.9763 -0.0258
  112SOL    HW2  447   1.260   1.017   1.625  1.0954 -1.0635 -0.5193
  112SOL     MW  448   1.303   1.095   1.633  0.2677 -0.4817  0.1285
  113SOL     OW  449   1.266   3.076   1.733 -0.4365 -0.4635 -0.0348
  113SOL    HW1  450   1.258   3.062   1.829 -2.5277  1.1641  0.1192
  113SOL    HW2  451   1.297   2.992   1.698  0.9829 -3.0595  1.9986
  113SOL     MW  452   1.269   3.063   1.741 -0.5251 -0.5913  0.2538
  114SOL     OW  453   0.253   2.865   1.884 -0.2930  0.6252 -0.5368
  114SOL    HW1  454   0.321   2.881   1.953 -1.1259  1.5883 -1.0956
  114SOL    HW2  455   0.192   2.941   1.890 -1.5890  3.8862  0.1864
  114SOL     MW  456   0.254   2.877   1.894 -0.5739  1.1825 -0.5151
  115SOL     OW  457   0.489   0.864   1.112  0.1802 -0.1099 -0.1457
  115SOL    HW1  458   0.492   0.770   1.122 -3.9764 -1.1599 -2.8649
  115SOL    HW2  459   0.438   0.891   1.190  0.1320  1.5515  1.2182
  115SOL     MW  460   0.482   0.855   1.124 -0.3746 -0.0292 -0.3245
  116SOL     OW  461   0.780   1.086   1.012  0.0368  0.5336  0.2455
  116SOL    HW1  462   0.830   1.103   0.929 -0.9076  1.3430  0.3362
  116SOL    HW2  463   0.807   1.148   1.090  2.0325  0.5113  0.1743
  116SOL     MW  464   0.790   1.096   1.011  0.1755  0.6375  0.2481
  117SOL     OW  465   1.146   1.196   0.750 -0.1651 -0.1134  0.4905
  117SOL    HW1  466   1.172   1.137   0.824 -3.0245 -1.9761 -1.0239
  117SOL    HW2  467   1.145   1.283   0.796  0.5655  3.4911  0.5595
  117SOL     MW  468   1.149   1.200   0.766 -0.4459  0.1164  0.2998
  118SOL     OW  469   3.030   2.974   1.647 -0.1126  0.0965 -0.1775
  118SOL    HW1  470   3.102   2.991   1.714 -0.1783 -0.8794  0.2852
  118SOL    HW2  471   2.947   2.978   1.695 -0.6555  0.6815  2.7346
  118SOL     MW  472   3.028   2.977   1.662 -0.1929  0.0449  0.2677
  119SOL     OW  473   0.468   1.491   1.213  0.2184 -0.4387  0.0646
  119SOL    HW1  474   0.489   1.559   1.154 -1.8786 -0.3549  0.1410
  119SOL    HW2  475   0.373   1.471   1.195 -1.0820 -0.3218 -0.3362
  119SOL     MW  476   0.459   1.497   1.203 -0.2298 -0.4123  0.0218
  120SOL     OW  477   0.274   0.745   0.951 -0.5422 -0.8617  0.3995
  120SOL    HW1  478   0.254   0.739   1.045  1.8502 -3.4331  0.7939
  120SOL    HW2  479   0.342   0.815   0.952  0.3902  0.2400  1.2007
  120SOL     MW  480   0.280   0.754   0.964 -0.1035 -1.0556  0.5573
  121SOL     OW  481   1.791   1.094   1.690  0.2265 -0.0524 -0.4822
  121SOL    HW1  482   1.711   1.110   1.726  0.0971  0.3103 -0.2912
  121SOL    HW2  483   1.780   1.020   1.625  1.4681 -1.5592  1.7233
  121SOL     MW  484   1.779   1.086   1.686  0.3733 -0.2033 -0.1660
  122SOL     OW  485   0.174   0.498   0.819  0.3896  0.2883  0.5801
  122SOL    HW1  486   0.248   0.443   0.797 -0.6842  0.5706  1.2243
  122SOL    HW2  487   0.218   0.577   0.850  0.3412 -1.9459  0.0716
  122SOL     MW  488   0.190   0.501   0.820  0.2415  0.0308  0.5980
  123SOL     OW  489   1.862   1.151   0.492 -0.6243  0.1975 -0.5088
  123SOL    HW1  490   1.841   1.068   0.542 -0.2094  0.6337  1.1678
  123SOL    HW2  491   1.922   1.195   0.553  0.3320  0.8043  0.3718
  123SOL     MW  492   1.867   1.146   0.506 -0.4434  0.3351 -0.1714
  124SOL     OW  493   0.627   0.563   0.935  0.2577 -0.2068  0.2981
  124SOL    HW1  494   0.585   0.527   0.859  1.3299  0.3572  0.6228
  124SOL    HW2  495   0.643   0.659   0.912 -0.1206 -0.2899  2.6938
  124SOL     MW  496   0.623   0.571   0.922  0.3492 -0.1433  0.6571
  125SOL     OW  497   0.692   1.772   1.731  0.1616 -0.1475  0.1331
  125SOL    HW1  498   0.627   1.702   1.711 -0.8286 -0.4962  0.8744
  125SOL    HW2  499   0.643   1.855   1.727  4.6645 -2.0410 -0.9453
  125SOL     MW  500   0.677   1.774   1.728  0.6251 -0.4434  0.0886
  126SOL     OW  501   2.109   1.607   1.978  0.0579 -0.1699  0.4073
  126SOL    HW1  502   2.171   1.683   1.975  0.1413 -0.5394 -0.0851
  126SOL    HW2  503   2.169   1.533   1.989 -1.3056  1.3759  0.8744
  126SOL     MW  504   2.125   1.607   1.979 -0.1110 -0.0147  0.4039
  127SOL     OW  505   0.581   0.799   1.826 -0.2273 -0.2085 -0.4673
  127SOL    HW1  506   0.658   0.766   1.879 -0.0224  3.6264  2.0604
  127SOL    HW2  507   0.562   0.884   1.867 -0.1936  1.3197 -2.1772
  127SOL     MW  508   0.588   0.806   1.839 -0.1958  0.4991 -0.3594
  128SOL     OW  509   1.728   0.717   2.892  0.4476  0.0982 -0.2964
  128SOL    HW1  510   1.770   0.694   2.810  0.1042  1.9721  0.4905
  128SOL    HW2  511   1.728   0.814   2.906  1.0438  0.5243 -1.4573
  128SOL     MW  512   1.734   0.726   2.883  0.4810  0.4017 -0.3457
  129SOL     OW  513   1.627   0.908   0.151  0.1446 -0.1237 -0.4494
  129SOL    HW1  514   1.561   0.838   0.129 -0.0774 -0.6692 -0.8209
  129SOL    HW2  515   1.674   0.886   0.230 -0.4518 -1.9291 -1.3539
  129SOL     MW  516   1.625   0.896   0.158  0.0366 -0.4339 -0.6177
  130SOL     OW  517   0.774   1.376   0.304  0.6670 -0.1387 -0.5098
  130SOL    HW1  518   0.813   1.368   0.388 -0.0985  0.4159 -1.7718
  130SOL    HW2  519   0.810   1.457   0.261 -0.8283 -0.8755 -1.5610
  130SOL     MW  520   0.784   1.386   0.309  0.3687 -0.1627 -0.8150
  131SOL     OW  521   3.044   0.855   0.031 -0.0756 -0.1052 -0.3719
  131SOL    HW1  522   3.037   0.887  -0.058  1.2115  1.0065 -2.2879
  131SOL    HW2  523   3.130   0.831   0.048 -2.4979  0.1707  2.7192
  131SOL     MW  524   3.055   0.856   0.022 -0.2253  0.0779 -0.2169
  132SOL     OW  525   2.677   0.114   1.362  0.3343 -0.0266  0.0732
  132SOL    HW1  526   2.722   0.141   1.283  2.6922  0.7516 -0.1301
  132SOL    HW2  527   2.590   0.094   1.324 -0.4514  1.3982 -1.3248
  132SOL     MW  528   2.672   0.115   1.346  0.5417  0.2641 -0.1381
  133SOL     OW  529   1.074   0.165   1.713 -0.1446  0.6314 -0.3613
  133SOL    HW1  530   1.145   0.096   1.716  0.0743 -1.2533 -1.0421
  133SOL    HW2  531   1.028   0.141   1.794  0.7118 -2.4111 -1.1167
  133SOL     MW  532   1.077   0.152   1.724 -0.0027 -0.0187 -0.5508
  134SOL     OW  533   1.404   2.519   1.392 -0.2664 -0.4777 -0.1742
  134SOL    HW1  534   1.319   2.569   1.407 -0.8950  0.1279  0.5894
  134SOL    HW2  535   1.443   2.529   1.475  0.0362 -2.0867 -0.6003
  134SOL     MW  536   1.398   2.527   1.405 -0.3094 -0.6101 -0.1297
  135SOL     OW  537   3.007   0.981   2.871 -0.6126 -0.5455 -0.2339
  135SOL    HW1  538   3.079   1.054   2.871  2.3834  2.5515  0.7301
  135SOL    HW2  539   2.923   1.026   2.881 -1.2643 -3.4908 -2.4856
  135SOL     MW  540   3.006   0.996   2.873 -0.3033 -0.5255 -0.4038
  136SOL     OW  541   0.201   2.032   0.787  0.5780  0.0691  0.0801
  136SOL    HW1  542   0.119   1.978   0.799  1.1084 -0.6281 -0.4284
  136SOL    HW2  543   0.245   1.996   0.709  0.7773 -0.0547 -1.3291
  136SOL     MW  544   0.196   2.020   0.779  0.6743 -0.0393 -0.1729
  137SOL     OW  545   0.694   2.010   0.507  0.2404  0.0901 -0.1439
  137SOL    HW1  546   0.663   1.989   0.593 -1.0057 -0.6953 -1.6430
  137SOL    HW2  547   0.630   2.064   0.459 -0.9381  0.4804 -1.4741
  137SOL     MW  548   0.681   2.014   0.512 -0.0795  0.0380 -0.5172
  138SOL     OW  549   0.512   0.601   1.169  0.0789  0.4595 -0.0632
  138SOL    HW1  550   0.428   0.556   1.175 -0.3777 -1.9054  0.7429
  138SOL    HW2  551   0.547   0.573   1.083  0.4445 -2.9699 -0.2664
  138SOL     MW  552   0.506   0.591   1.159  0.0669 -0.3050  0.0164
  139SOL     OW  553   2.860   0.577   1.222  0.4782 -0.5796  0.1861
  139SOL    HW1  554   2.913   0.504   1.265  0.0511  0.8748  1.3728
  139SOL    HW2  555   2.899   0.648   1.271 -1.2868  0.2663  0.8013
  139SOL     MW  556   2.872   0.576   1.234  0.1889 -0.2761  0.4238
  140SOL     OW  557   0.955   0.491   2.045  0.1439  0.3981 -0.1002
  140SOL    HW1  558   0.952   0.398   2.012  1.0413 -0.3936 -3.4293
  140SOL    HW2  559   0.980   0.474   2.134  1.3879 -3.0495  0.4187
  140SOL     MW  560   0.958   0.477   2.052  0.4265 -0.1612 -0.4710
  141SOL     OW  561   1.021   0.639   1.732  0.1981  0.4979 -0.9003
  141SOL    HW1  562   1.056   0.557   1.702  0.3272  0.1828  0.1953
  141SOL    HW2  563   1.084   0.701   1.697 -2.2726 -0.4236  0.8356
  141SOL     MW  564   1.034   0.636   1.723 -0.1109  0.3347 -0.5267
  142SOL     OW  565   0.895   1.126   0.765 -0.6528 -0.4452  0.2892
  142SOL    HW1  566   0.883   1.060   0.686  2.9005 -1.6900  0.3775
  142SOL    HW2  567   0.985   1.162   0.757 -0.2923  0.6121  1.4387
  142SOL     MW  568   0.905   1.122   0.753 -0.1364 -0.4699  0.4525
  143SOL     OW  569   1.823   0.741   1.058 -0.0950 -0.4710 -0.3981
  143SOL    HW1  570   1.878   0.708   0.983  1.7636 -3.5531  0.1280
  143SOL    HW2  571   1.734   0.731   1.026  0.0879 -1.9212  2.0563
  143SOL     MW  572   1.818   0.735   1.044  0.1743 -1.0690 -0.0049
  144SOL     OW  573   0.300   1.290   1.682 -0.7667  0.2814 -0.0002
  144SOL    HW1  574   0.387   1.251   1.655  0.0420  0.3723  3.0850
  144SOL    HW2  575   0.299   1.267   1.779  1.1674  0.3007  0.7046
  144SOL     MW  576   0.311   1.282   1.691 -0.4048  0.2959  0.4998
  145SOL     OW  577   0.238   0.496   1.182 -0.1436  0.2075  0.1236
  145SOL    HW1  578   0.239   0.413   1.230 -3.5157 -0.1317 -2.4311
  145SOL    HW2  579   0.170   0.490   1.124 -0.3263 -2.5073 -1.1101
  145SOL     MW  580   0.229   0.484   1.180 -0.6126 -0.1955 -0.3762
  146SOL     OW  581   0.822   1.986   1.414 -0.1006  0.2800  0.2179
  146SOL    HW1  582   0.879   2.006   1.336  4.4591 -0.6979 -0.5207
  146SOL    HW2  583   0.726   1.991   1.384  1.2114 -0.6524 -1.3325
  146SOL     MW  584   0.817   1.989   1.400  0.6741  0.0279 -0.0841
  147SOL     OW  585   0.362   0.476   3.011 -0.2472  0.3591 -0.3403
  147SOL    HW1  586   0.291   0.442   3.068  1.8562  1.1121 -0.1102
  147SOL    HW2  587   0.319   0.534   2.948 -0.8689 -1.0837 -2.0852
  147SOL     MW  588   0.347   0.479   3.011 -0.0517  0.2681 -0.5401
  148SOL     OW  589   0.098   0.952   1.312 -0.1473 -0.2062 -0.0743
  148SOL    HW1  590   0.185   0.983   1.301 -2.0176  4.0922 -1.6839
  148SOL    HW2  591   0.046   1.028   1.350  0.7103  2.5609 -0.7726
  148SOL     MW  592   0.103   0.966   1.315 -0.2809  0.7260 -0.3788
  149SOL     OW  593   1.443   1.104   1.384  0.6320 -0.6075  0.0479
  149SOL    HW1  594   1.420   1.092   1.474 -0.8271 -2.8861 -1.4363
  149SOL    HW2  595   1.477   1.193   1.372  1.4540  0.1200 -1.4677
  149SOL     MW  596   1.444   1.115   1.394  0.5480 -0.8122 -0.3479
  150SOL     OW  597   1.746   1.372   0.768 -0.0579 -0.1808  0.4712
  150SOL    HW1  598   1.780   1.301   0.816  1.1599  0.3989 -1.8822
  150SOL    HW2  599   1.775   1.453   0.807 -0.5970 -2.6719 -1.0008
  150SOL     MW  600   1.754   1.373   0.779  0.0316 -0.4330 -0.0335
  151SOL     OW  601   1.669   1.788   0.793 -0.1649  0.0934  0.4171
  151SOL    HW1  602   1.669   1.814   0.701  1.2586  2.2393 -1.5109
  151SOL    HW2  603   1.590   1.733   0.805  0.0194  2.9249 -0.8468
  151SOL     MW  604   1.658   1.784   0.782  0.0472  0.7501 -0.0041
  152SOL     OW  605   0.789   1.433   1.619  0.3072  0.1111  0.3497
  152SOL    HW1  606   0.816   1.360   1.672  0.0592  1.1405  2.6050
  152SOL    HW2  607   0.837   1.440   1.540  0.9473 -0.6607 -1.4235
  152SOL     MW  608   0.799   1.424   1.616  0.3590  0.1451  0.4133
  153SOL     OW  609   2.599   1.212   0.799 -0.4656  0.2820  0.2021
  153SOL    HW1  610   2.671   1.173   0.750 -0.3694 -1.0978 -1.5138
  153SOL    HW2  611   2.533   1.155   0.767  0.6062  1.4060 -1.1817
  153SOL     MW  612   2.600   1.199   0.788 -0.3115  0.2483 -0.2069
  154SOL     OW  613   0.164   1.764   1.708 -0.4417 -0.1759  0.0070
  154SOL    HW1  614   0.157   1.682   1.668 -0.9168  1.8814 -2.2507
  154SOL    HW2  615   0.195   1.746   1.798  2.5257  0.6466  0.2971
  154SOL     MW  616   0.167   1.751   1.715 -0.1129  0.2041 -0.2526
  155SOL     OW  617   1.166   0.690   0.268 -0.2981  0.1911  0.5798
  155SOL    HW1  618   1.131   0.637   0.337 -0.9606 -3.1726 -1.8443
  155SOL    HW2  619   1.159   0.787   0.298  0.1243  0.9361  2.8203
  155SOL     MW  620   1.160   0.696   0.281 -0.3298 -0.1544  0.5556
  156SOL     OW  621   1.526   3.012   1.080  0.4602  0.0663  0.1522
  156SOL    HW1  622   1.609   3.048   1.113  0.2749  0.8909  0.5353
  156SOL    HW2  623   1.522   2.929   1.124  1.9934 -0.8755  0.1856
  156SOL     MW  624   1.536   3.006   1.090  0.6381  0.0509  0.2071
  157SOL     OW  625   1.428   1.192   0.104  0.2167  0.1479 -0.0606
  157SOL    HW1  626   1.489   1.117   0.121 -3.8694  2.0139  0.2379
  157SOL    HW2  627   1.480   1.275   0.088 -1.5347  1.0916 -0.2754
  157SOL     MW  628   1.443   1.193   0.104 -0.5535  0.5186 -0.0495
  158SOL     OW  629   0.413   1.631   2.245 -0.4034 -0.0006  0.3418
  158SOL    HW1  630   0.458   1.699   2.195 -3.1302  0.8448  0.0504
  158SOL    HW2  631   0.363   1.682   2.307  1.4492 -1.4697  0.0707
  158SOL     MW  632   0.412   1.647   2.246 -0.5187 -0.0828  0.2676
  159SOL     OW  633   1.257   1.718   0.475  0.5982 -0.0028  0.6184
  159SOL    HW1  634   1.217   1.654   0.418  0.9936  0.0589 -2.1271
  159SOL    HW2  635   1.187   1.742   0.540  2.6036 -0.0402 -0.9141
  159SOL     MW  636   1.243   1.713   0.476  0.9149  0.0004  0.0539
  160SOL     OW  637   0.506   1.143   1.590 -0.2829  0.0756 -0.3820
  160SOL    HW1  638   0.497   1.046   1.580 -2.1794  0.2129  0.8706
  160SOL    HW2  639   0.599   1.153   1.611  0.5486 -2.2120 -2.6940
  160SOL     MW  640   0.517   1.132   1.592 -0.4234 -0.2081 -0.5218
  161SOL     OW  641   0.491   2.259   2.550 -0.3503 -0.5304 -0.0352
  161SOL    HW1  642   0.404   2.294   2.561 -2.4766  0.2215  0.3212
  161SOL    HW2  643   0.480   2.188   2.486 -0.6398 -1.2180 -1.3784
  161SOL     MW  644   0.478   2.254   2.543 -0.6690 -0.5219 -0.1654
  162SOL     OW  645   1.109   1.790   1.882 -0.4907  0.2262 -0.5040
  162SOL    HW1  646   1.114   1.872   1.945 -1.0453  1.8268  2.3714
  162SOL    HW2  647   1.016   1.782   1.873  1.3303  2.8831 -0.2748
  162SOL     MW  648   1.097   1.800   1.889 -0.3236  0.7880 -0.0944
  163SOL     OW  649   2.118   3.029   0.872 -0.3605 -0.1025  0.2529
  163SOL    HW1  650   2.103   3.094   0.796  0.0685 -0.0789  1.6372
  163SOL    HW2  651   2.083   2.944   0.844 -1.7411 -2.4523  1.1060
  163SOL     MW  652   2.112   3.026   0.858 -0.4860 -0.4094  0.5481
  164SOL     OW  653   0.312   0.224   0.814 -0.0840  0.0359 -0.3506
  164SOL    HW1  654   0.223   0.206   0.856 -0.0331  1.0865 -0.5897
  164SOL    HW2  655   0.322   0.152   0.756  0.0479  1.1395 -1.5198
  164SOL     MW  656   0.302   0.212   0.812 -0.0599  0.3202 -0.5364
  165SOL     OW  657   1.327   1.317   0.340 -0.6649 -0.1627 -0.1462
  165SOL    HW1  658   1.303   1.243   0.404  1.0761  0.9709  0.6082
  165SOL    HW2  659   1.379   1.270   0.273 -1.7768 -2.5906  0.7181
  165SOL     MW  660   1.331   1.301   0.340 -0.5819 -0.3335  0.0674
  166SOL     OW  661   0.535   1.199   0.984  0.2553  0.0896 -0.1465
  166SOL    HW1  662   0.493   1.197   1.074 -0.8115  2.2721  0.6968
  166SOL    HW2  663   0.627   1.171   1.000  0.6226  0.5752  3.6909
  166SOL     MW  664   0.542   1.195   0.998  0.1630  0.4417  0.4711
  167SOL     OW  665   0.814   1.093   0.270 -0.1973  0.2642 -0.1454
  167SOL    HW1  666   0.765   1.181   0.264  2.2709  1.4945  1.3154
  167SOL    HW2  667   0.897   1.090   0.220  1.4141 -1.8792 -2.6435
  167SOL     MW  668   0.819   1.105   0.262  0.3410  0.1438 -0.2823
  168SOL     OW  669   1.714   1.654   3.045  0.2902  0.2256 -0.6068
  168SOL    HW1  670   1.667   1.730   3.029  1.8219 -2.5982 -1.8172
  168SOL    HW2  671   1.706   1.584   2.985  0.3194 -0.5941 -0.9932
  168SOL     MW  672   1.707   1.655   3.035  0.4962 -0.2552 -0.8175
  169SOL     OW  673   0.376   1.001   1.334 -0.4139  0.1002  0.5314
  169SOL    HW1  674   0.387   0.944   1.410 -0.7441  0.2048  0.7739
  169SOL    HW2  675   0.442   1.072   1.344  0.4910 -1.0588  0.4631
  169SOL     MW  676   0.386   1.003   1.345 -0.3381 -0.0389  0.5544
  170SOL     OW  677   1.089   1.540   1.522  0.3745  0.0573 -0.1315
  170SOL    HW1  678   1.030   1.612   1.541 -0.9142 -2.0821 -1.9864
  170SOL    HW2  679   1.121   1.555   1.431  2.6544 -2.0138 -2.1083
  170SOL     MW  680   1.085   1.551   1.512  0.5053 -0.4983 -0.6370
  171SOL     OW  681   0.553   1.380   0.642  0.4487 -0.6378 -1.1815
  171SOL    HW1  682   0.541   1.402   0.734 -2.4542  2.0243 -2.2495
  171SOL    HW2  683   0.567   1.283   0.626 -0.0705 -2.2060  2.0584
  171SOL     MW  684   0.553   1.370   0.652 -0.0028 -0.4935 -0.8949
  172SOL     OW  685   0.882   0.296   1.278  0.0993  0.3208  0.1670
  172SOL    HW1  686   0.892   0.333   1.186  2.1312  0.2137  0.6480
  172SOL    HW2  687   0.787   0.300   1.302 -3.1525  1.7309 -2.8242
  172SOL     MW  688   0.871   0.302   1.269 -0.0617  0.4927 -0.1642
  173SOL     OW  689   0.463   1.759   0.287  0.0688  0.0969 -0.0871
  173SOL    HW1  690   0.459   1.678   0.234  0.9125  0.2446 -0.6779
  173SOL    HW2  691   0.529   1.737   0.359 -1.8929 -1.8520  1.3572
  173SOL     MW  692   0.471   1.746   0.290 -0.0787 -0.1407  0.0255
  174SOL     OW  693   1.847   0.912   1.500 -0.1237  0.3416  0.2175
  174SOL    HW1  694   1.796   0.831   1.504 -0.7608  0.0828  0.1433
  174SOL    HW2  695   1.836   0.935   1.409  0.5772 -0.0906 -2.1989
  174SOL     MW  696   1.839   0.904   1.488 -0.1152  0.2505 -0.1111
  175SOL     OW  697   0.492   1.497   0.200 -0.4464  0.4423 -0.6198
  175SOL    HW1  698   0.412   1.458   0.159  1.9004  1.2759  0.6789
  175SOL    HW2  699   0.525   1.424   0.260  0.8609  0.4560  5.3065
  175SOL     MW  700   0.485   1.482   0.202  0.0358  0.5541  0.3335
  176SOL     OW  701   0.180   1.476   1.187 -0.4955 -0.1230  0.4755
  176SOL    HW1  702   0.150   1.393   1.131  0.7566 -3.9244 -3.3767
  176SOL    HW2  703   0.093   1.508   1.222  1.1454  0.1301  2.7503
  176SOL     MW  704   0.164   1.469   1.184 -0.1138 -0.5912  0.2674
  177SOL     OW  705   0.597   0.362   1.305 -0.5819 -0.6194 -0.0014
  177SOL    HW1  706   0.593   0.459   1.268 -0.1246 -1.3673  0.1433
  177SOL    HW2  707   0.598   0.370   1.401 -0.0651 -0.7531 -0.1388
  177SOL     MW  708   0.597   0.375   1.313 -0.4534 -0.7357 -0.0004
  178SOL     OW  709   3.066   0.567   2.948 -0.3449 -0.5102  0.3902
  178SOL    HW1  710   3.019   0.543   3.029  1.0900 -0.0051  0.0207
  178SOL    HW2  711   3.022   0.527   2.877  0.9059  1.0399 -0.1328
  178SOL     MW  712   3.054   0.559   2.949  0.0095 -0.2390  0.2725
  179SOL     OW  713   1.576   1.402   1.326  0.1068  0.1485 -0.0508
  179SOL    HW1  714   1.564   1.414   1.425  0.0624 -3.2907 -2.2462
  179SOL    HW2  715   1.667   1.376   1.326  0.9447  2.4055  1.4728
  179SOL     MW  716   1.587   1.400   1.339  0.2115 -0.0075 -0.1395
  180SOL     OW  717   2.978   0.231   0.449 -0.3432 -0.4538 -0.1438
  180SOL    HW1  718   2.952   0.247   0.353  1.8672 -1.2266 -1.4481
  180SOL    HW2  719   3.054   0.298   0.452  2.2161 -0.8136 -0.8427
  180SOL     MW  720   2.985   0.242   0.436  0.2861 -0.6033 -0.4081
  181SOL     OW  721   1.114   1.342   3.063  0.4705 -0.1958 -0.1702
  181SOL    HW1  722   1.170   1.394   3.116 -0.7673  0.6689 -0.5486
  181SOL    HW2  723   1.176   1.297   3.009 -1.6662 -1.9776  0.0706
  181SOL     MW  724   1.129   1.343   3.063  0.0252 -0.3168 -0.1883
  182SOL     OW  725   0.469   0.860   1.573  0.1190  0.8253  0.1549
  182SOL    HW1  726   0.372   0.842   1.594 -0.8751  0.1275 -3.5416
  182SOL    HW2  727   0.508   0.830   1.660  1.1069  2.5870  1.9583
  182SOL     MW  728   0.462   0.854   1.587  0.1182  0.9656 -0.0949
  183SOL     OW  729   1.590   1.688   1.200  0.2263  0.8682  0.5968
  183SOL    HW1  730   1.673   1.729   1.223 -1.0890  1.6203 -1.1674
  183SOL    HW2  731   1.581   1.607   1.254  0.0323 -0.3843 -0.6961
  183SOL     MW  732   1.600   1.683   1.210  0.0271  0.8022  0.1934
  184SOL     OW  733   0.823   0.716   1.947 -0.2546  0.1415  0.2565
  184SOL    HW1  734   0.883   0.742   1.877  0.2815  2.0978 -0.9479
  184SOL    HW2  735   0.871   0.636   1.980 -0.9114  2.1091 -0.4306
  184SOL     MW  736   0.838   0.709   1.942 -0.2705  0.6592  0.0069
  185SOL     OW  737   1.131   0.980   1.918 -0.0633  0.2178  0.3990
  185SOL    HW1  738   1.125   0.895   1.967 -1.9220 -1.2863  0.4295
  185SOL    HW2  739   1.192   1.030   1.966 -0.2685  2.3617  0.1379
  185SOL     MW  740   1.138   0.975   1.931 -0.3356  0.3022  0.3686
  186SOL     OW  741   0.356   1.640   1.423 -0.6511  0.1657  0.4914
  186SOL    HW1  742   0.381   1.572   1.361 -1.2657  0.2042  2.9355
  186SOL    HW2  743   0.277   1.598   1.462  1.4799 -1.3209  0.7631
  186SOL     MW  744   0.349   1.626   1.420 -0.4510 -0.0254  0.8498
  187SOL     OW  745   1.504   0.733   1.351  0.1251  0.4559  0.0622
  187SOL    HW1  746   1.533   0.693   1.434 -0.9193  0.7272  1.3570
  187SOL    HW2  747   1.410   0.738   1.344 -0.7338 -1.4315  2.4735
  187SOL     MW  748   1.495   0.729   1.361 -0.1260  0.2426  0.5512
  188SOL     OW  749   1.888   1.157   0.888 -0.0734  0.2697 -1.0667
  188SOL    HW1  750   1.884   1.168   0.979  0.0597  1.7174 -1.5084
  188SOL    HW2  751   1.908   1.066   0.875  1.5000 -0.0808 -1.3702
  188SOL     MW  752   1.890   1.147   0.898  0.1517  0.4144 -1.1650
  189SOL     OW  753   0.680   0.829   0.882 -0.0196 -0.4558 -0.2642
  189SOL    HW1  754   0.618   0.907   0.858  4.2086  0.4147 -1.3141
  189SOL    HW2  755   0.762   0.869   0.907 -2.1603  1.1710 -1.5718
  189SOL     MW  756   0.683   0.844   0.882  0.2558 -0.1263 -0.5753
  190SOL     OW  757   1.897   0.242   2.169 -0.0591 -0.1082  0.2639
  190SOL    HW1  758   1.950   0.248   2.248 -1.5733 -2.3005 -0.1605
  190SOL    HW2  759   1.953   0.295   2.108 -2.8625  0.1179  0.6983
  190SOL     MW  760   1.911   0.250   2.171 -0.6287 -0.3676  0.2652
  191SOL     OW  761   1.550   0.956   1.165  0.5233  0.0985  0.7047
  191SOL    HW1  762   1.501   1.012   1.222  2.5038  1.8645  0.1195
  191SOL    HW2  763   1.576   0.891   1.229  1.2054  0.7363 -1.7243
  191SOL     MW  764   1.547   0.955   1.181  0.8746  0.4157  0.3070
  192SOL     OW  765   0.580   2.114   2.763 -0.2334  0.1520 -0.0030
  192SOL    HW1  766   0.548   2.186   2.705 -0.2246  1.0483 -2.0629
  192SOL    HW2  767   0.635   2.067   2.707 -0.9078  0.8868  1.6665
  192SOL     MW  768   0.583   2.118   2.748 -0.3212  0.3672 -0.0545
  193SOL     OW  769   0.938   1.560   0.739  0.1020 -0.0720  0.6941
  193SOL    HW1  770   0.890   1.545   0.818 -1.4522  2.0050 -3.0622
  193SOL    HW2  771   0.891   1.496   0.672  0.7519 -2.5460  0.4188
  193SOL     MW  772   0.925   1.549   0.740 -0.0173 -0.1244  0.1621
  194SOL     OW  773   0.515   1.467   0.891 -0.4170 -0.4712  0.6251
  194SOL    HW1  774   0.540   1.372   0.903  2.0472 -0.2097  0.6095
  194SOL    HW2  775   0.419   1.458   0.867 -0.9804  0.1578 -1.6355
  194SOL     MW  776   0.505   1.454   0.890 -0.1662 -0.3537  0.3247
  195SOL     OW  777   1.296   1.154   2.963 -0.2193 -0.1691 -0.0726
  195SOL    HW1  778   1.344   1.178   3.044  0.6829  0.3849  1.2052
  195SOL    HW2  779   1.230   1.094   3.002  0.8940  2.8411  1.2880
  195SOL     MW  780   1.293   1.150   2.979  0.0466  0.3012  0.2755
  196SOL     OW  781   2.199   0.988   0.550  0.2534 -0.2935 -0.1689
  196SOL    HW1  782   2.179   0.990   0.452  0.9339  0.0112 -3.1241
  196SOL    HW2  783   2.193   1.079   0.573  1.2070 -0.5211  0.8210
  196SOL     MW  784   2.196   1.000   0.540  0.4690 -0.2833 -0.4282
  197SOL     OW  785   0.679   1.381   2.142 -0.1992 -0.0375  0.6163
  197SOL    HW1  786   0.699   1.283   2.109  0.1458  0.6254 -2.1899
  197SOL    HW2  787   0.647   1.420   2.058  1.8360 -0.5340  0.4293
  197SOL     MW  788   0.677   1.373   2.126  0.1148 -0.0156  0.2214
  198SOL     OW  789   2.924   1.411   1.069  0.0121 -0.0293 -0.0144
  198SOL    HW1  790   2.908   1.457   0.990 -0.8260  0.4031  1.2612
  198SOL    HW2  791   2.847   1.359   1.085  0.1909  0.8063 -1.2749
  198SOL     MW  792   2.912   1.410   1.060 -0.0749  0.1380 -0.0124
  199SOL     OW  793   0.561   1.409   1.866  0.7699  0.1037 -0.5634
  199SOL    HW1  794   0.477   1.365   1.876  0.2955 -0.5316  1.4633
  199SOL    HW2  795   0.569   1.444   1.780  0.7528  1.2610 -1.4890
  199SOL     MW  796   0.551   1.408   1.856  0.7051  0.1726 -0.4181
  200SOL     OW  797   1.870   2.899   1.387 -0.4639  0.3707 -0.2484
  200SOL    HW1  798   1.902   2.935   1.296  1.2413  1.7276 -0.2619
  200SOL    HW2  799   1.779   2.927   1.393 -2.3047 -1.3210  0.6893
  200SOL     MW  800   1.862   2.908   1.376 -0.4818  0.3265 -0.1265
  201SOL     OW  801   0.989   0.370   0.800 -0.3708  0.6352  0.1978
  201SOL    HW1  802   0.955   0.282   0.768 -0.1031 -1.0467 -0.8933
  201SOL    HW2  803   1.081   0.368   0.807 -0.5992 -0.4276 -0.2226
  201SOL     MW  804   0.997   0.358   0.797 -0.3656  0.2731 -0.0016
  202SOL     OW  805   1.510   1.582   0.901 -0.1555  0.3727 -0.0671
  202SOL    HW1  806   1.485   1.494   0.879  1.9838  0.6394 -1.1552
  202SOL    HW2  807   1.561   1.581   0.983 -0.8661 -0.1119  0.9234
  202SOL     MW  808   1.514   1.570   0.909  0.0330  0.3439 -0.0800
  203SOL     OW  809   3.026   0.448   1.416  0.1145  0.1846  0.2218
  203SOL    HW1  810   3.084   0.372   1.400 -1.4901  1.7762  0.0480
  203SOL    HW2  811   3.090   0.513   1.442 -2.2124  0.7316  1.0100
  203SOL     MW  812   3.042   0.447   1.417 -0.4042  0.4668  0.3029
  204SOL     OW  813   1.036   1.767   0.592  0.0450  0.2869 -0.1969
  204SOL    HW1  814   0.998   1.695   0.643 -1.5820  0.2611  0.6328
  204SOL    HW2  815   0.980   1.758   0.513 -0.7541 -2.0759  1.3619
  204SOL     MW  816   1.024   1.757   0.589 -0.2751 -0.0283  0.1182
  205SOL     OW  817   1.419   3.088   1.316  0.4906 -0.2398 -0.7801
  205SOL    HW1  818   1.441   3.074   1.222 -1.6493 -1.6537 -3.6723
  205SOL    HW2  819   1.372   3.174   1.322  1.6086  1.2758  1.5327
  205SOL     MW  820   1.416   3.098   1.304  0.3558 -0.2264 -0.8565
  206SOL     OW  821   0.489   3.076   1.406 -0.1583  0.4193  0.2939
  206SOL    HW1  822   0.436   3.067   1.326  2.6721 -0.4320  0.0034
  206SOL    HW2  823   0.568   3.026   1.389 -0.8060  1.6881  1.1727
  206SOL     MW  824   0.492   3.068   1.393  0.1297  0.4743  0.3715
  207SOL     OW  825   0.935   1.623   0.211 -0.1772 -0.3091  0.4984
  207SOL    HW1  826   0.953   1.711   0.175  1.6656  1.0302 -1.0917
  207SOL    HW2  827   1.021   1.587   0.244  1.0801  2.2457  0.5454
  207SOL     MW  828   0.949   1.630   0.211  0.2318  0.2047  0.2948
  208SOL     OW  829   0.742   1.649   1.313 -0.1429  0.1839 -0.2940
  208SOL    HW1  830   0.804   1.679   1.382 -1.6456  1.7398  2.5683
  208SOL    HW2  831   0.795   1.587   1.269 -0.5775  4.0262  1.0300
  208SOL     MW  832   0.757   1.645   1.317 -0.3985  0.8961  0.2583
  209SOL     OW  833   1.555   0.496   2.893 -0.5153 -0.2687 -0.9618
  209SOL    HW1  834   1.613   0.576   2.902  1.8906 -1.2469  1.6212
  209SOL    HW2  835   1.624   0.437   2.849 -2.1817 -1.3350 -0.1842
  209SOL     MW  836   1.572   0.498   2.888 -0.4177 -0.5384 -0.5184
  210SOL     OW  837   1.463   1.319   0.791 -0.1832  0.7969  1.0010
  210SOL    HW1  838   1.561   1.342   0.782  0.6230 -0.2436  0.9558
  210SOL    HW2  839   1.419   1.357   0.716 -1.0057  0.1339  0.4840
  210SOL     MW  840   1.470   1.327   0.780 -0.1853  0.5721  0.9268
  211SOL     OW  841   1.716   0.247   0.975 -0.2763  0.1446  0.6407
  211SOL    HW1  842   1.705   0.280   0.885 -1.4202  0.4105 -0.6008
  211SOL    HW2  843   1.807   0.268   1.005  2.0442 -1.9004 -1.2546
  211SOL     MW  844   1.727   0.254   0.967 -0.1211 -0.0901  0.2268
  212SOL     OW  845   0.259   1.054   0.186 -0.2359  0.0266  0.0554
  212SOL    HW1  846   0.195   1.004   0.242  0.1940  2.9529  1.5572
  212SOL    HW2  847   0.296   0.987   0.130  0.5832  0.7185  1.5351
  212SOL     MW  848   0.256   1.039   0.186 -0.0711  0.5040  0.4488
  213SOL     OW  849   0.503   1.738   2.984  0.4303  0.3644 -0.4654
  213SOL    HW1  850   0.523   1.810   3.051 -0.8463  0.6206  2.5251
  213SOL    HW2  851   0.561   1.757   2.907 -1.3475  1.5114  0.2104
  213SOL     MW  852   0.513   1.750   2.983  0.0273  0.5495  0.0183
  214SOL     OW  853   0.662   0.379   2.172 -0.2184  0.0279 -0.0035
  214SOL    HW1  854   0.575   0.427   2.194  0.3864  0.6217  0.3932
  214SOL    HW2  855   0.687   0.389   2.079 -2.0930  0.0583  0.7610
  214SOL     MW  856   0.654   0.387   2.163 -0.3859  0.1102  0.1497
  215SOL     OW  857   0.502   0.698   2.643 -0.0075 -0.0994 -0.3188
  215SOL    HW1  858   0.468   0.706   2.560 -1.2379  1.0911  3.7256
  215SOL    HW2  859   0.425   0.667   2.690 -0.0038 -0.0956 -2.2260
  215SOL     MW  860   0.487   0.695   2.638 -0.1694  0.0582 -0.0368
  216SOL     OW  861   2.974   2.989   2.734  0.2536  0.0311  0.3539
  216SOL    HW1  862   2.962   3.011   2.828 -1.5717 -1.6900 -1.3064
  216SOL    HW2  863   3.004   3.067   2.684  2.7662  0.6799  1.6288
  216SOL     MW  864   2.977   3.002   2.740  0.3443 -0.1104  0.3030
  217SOL     OW  865   1.067   1.120   0.124  0.1912 -0.0318 -0.0491
  217SOL    HW1  866   1.069   1.054   0.055  0.5436 -0.5977  1.6010
  217SOL    HW2  867   1.113   1.195   0.101 -0.6491 -1.4205  0.8972
  217SOL     MW  868   1.073   1.121   0.112  0.1268 -0.2897  0.2935
  218SOL     OW  869   0.916   1.353   2.618 -0.1445 -0.2699  0.3172
  218SOL    HW1  870   0.916   1.283   2.683 -1.0966 -0.1786  2.8674
  218SOL    HW2  871   1.001   1.393   2.636 -0.9009  0.1344 -0.3496
  218SOL     MW  872   0.927   1.349   2.629 -0.3699 -0.2045  0.5657
  219SOL     OW  873   1.126   0.362   2.602 -0.1367 -0.3962 -0.3522
  219SOL    HW1  874   1.202   0.422   2.632  3.7650  1.0776  0.2471
  219SOL    HW2  875   1.065   0.424   2.570  2.1034 -1.8331 -0.2947
  219SOL     MW  876   1.128   0.378   2.602  0.6737 -0.3913 -0.2655
  220SOL     OW  877   1.727   0.447   2.212 -0.8517  0.0740 -0.3345
  220SOL    HW1  878   1.652   0.453   2.152 -0.4514  0.4130  1.6323
  220SOL    HW2  879   1.769   0.363   2.205 -0.6713  0.3608  0.6019
  220SOL     MW  880   1.723   0.437   2.203 -0.7751  0.1566  0.0486
  221SOL     OW  881   0.344   1.309   2.927  0.0186 -0.2503 -0.0499
  221SOL    HW1  882   0.422   1.264   2.894 -0.0508  2.3102 -4.5613
  221SOL    HW2  883   0.337   1.395   2.884 -1.2812  0.1653 -1.4106
  221SOL     MW  884   0.353   1.315   2.917 -0.1621  0.1424 -0.8246
  222SOL     OW  885   0.440   0.978   2.665  0.5807 -0.5986 -0.8365
  222SOL    HW1  886   0.379   0.974   2.591  0.0926  0.1577 -0.9284
  222SOL    HW2  887   0.490   0.898   2.656  0.6645  1.5402  4.0354
  222SOL     MW  888   0.439   0.967   2.654  0.5274 -0.2166 -0.2059
  223SOL     OW  889   0.096   2.027   2.520  0.3208  0.0746  0.4485
  223SOL    HW1  890   0.117   1.976   2.599  0.1797  0.7372 -0.4123
  223SOL    HW2  891   0.093   2.120   2.546  1.6202  1.0490  0.5599
  223SOL     MW  892   0.099   2.033   2.534  0.4736  0.2906  0.3496
  224SOL     OW  893   1.568   0.738   2.535 -0.0515 -0.7970 -0.4213
  224SOL    HW1  894   1.533   0.743   2.625 -2.2819  0.9319 -1.5615
  224SOL    HW2  895   1.532   0.820   2.498 -1.8930  0.1058 -1.6666
  224SOL     MW  896   1.559   0.749   2.542 -0.5888 -0.4498 -0.7360
  225SOL     OW  897   2.952   1.460   2.299 -0.3784  0.4303  0.1263
  225SOL    HW1  898   3.003   1.529   2.259  0.0322 -1.8688 -1.0803
  225SOL    HW2  899   2.876   1.508   2.323 -0.6129  2.5378  0.4330
  225SOL     MW  900   2.949   1.476   2.297 -0.3551  0.4051  0.0076
  226SOL     OW  901   0.417   1.523   2.765  0.1354  0.5792 -0.2933
  226SOL    HW1  902   0.513   1.521   2.747  1.2992  1.2658  1.4566
  226SOL    HW2  903   0.376   1.593   2.711  0.2451 -0.4809  1.1008
  226SOL     MW  904   0.424   1.532   2.756  0.3034  0.5299  0.1215
  227SOL     OW  905   0.548   1.138   2.856 -0.5286  0.0628 -0.2850
  227SOL    HW1  906   0.634   1.144   2.818 -1.1667 -2.3514 -0.3191
  227SOL    HW2  907   0.506   1.090   2.790  0.6014  1.9468 -0.2602
  227SOL     MW  908   0.554   1.132   2.842 -0.4637 -0.0072 -0.2862
  228SOL     OW  909   0.735   1.107   2.034  0.2187  0.4835  0.3902
  228SOL    HW1  910   0.791   1.131   1.958 -1.2954 -0.3176 -0.3407
  228SOL    HW2  911   0.770   1.031   2.077 -0.5114  1.0179 -0.4399
  228SOL     MW  912   0.747   1.100   2.030 -0.0774  0.4483  0.1842
  229SOL     OW  913   0.138   0.658   0.062 -0.0643  0.1552  0.0418
  229SOL    HW1  914   0.096   0.642  -0.020 -0.3158 -1.7983  0.4365
  229SOL    HW2  915   0.142   0.568   0.101 -1.0768  1.1165  2.5196
  229SOL     MW  916   0.133   0.644   0.056 -0.2311  0.0243  0.4208
  230SOL     OW  917   1.720   1.335   2.023  0.4435 -0.2045  0.3138
  230SOL    HW1  918   1.660   1.304   2.095 -0.3084  0.2017  3.1646
  230SOL    HW2  919   1.774   1.260   2.008  0.1415  0.2481 -2.8867
  230SOL     MW  920   1.719   1.321   2.031  0.3045 -0.0912  0.2677
  231SOL     OW  921   2.776   1.269   2.189 -0.0757 -0.2804 -0.6783
  231SOL    HW1  922   2.852   1.317   2.207 -2.4741 -3.0146  1.2000
  231SOL    HW2  923   2.724   1.309   2.123 -1.9330 -0.0398  2.5016
  231SOL     MW  924   2.779   1.281   2.183 -0.6372 -0.6094 -0.0109
  232SOL     OW  925   2.234   0.853   2.005  0.0736  0.3608  0.4685
  232SOL    HW1  926   2.140   0.846   1.983  1.1914  0.5850 -1.5710
  232SOL    HW2  927   2.235   0.851   2.104 -1.8012 -2.3796  3.7207
  232SOL     MW  928   2.222   0.852   2.015 -0.0263  0.0288  0.6285
  233SOL     OW  929   2.065   0.423   2.053 -0.6597  0.1004 -0.7376
  233SOL    HW1  930   2.143   0.368   2.048  1.8367 -1.8260  2.0843
  233SOL    HW2  931   2.064   0.474   2.132  0.0862 -0.0479  0.0295
  233SOL     MW  932   2.075   0.422   2.063 -0.2319 -0.1733 -0.2641
  234SOL     OW  933   0.206   1.034   2.503  0.0105 -0.3701  0.4330
  234SOL    HW1  934   0.111   1.057   2.482 -0.9245 -2.1042  0.9928
  234SOL    HW2  935   0.238   1.117   2.546 -2.4242  3.0243 -3.6491
  234SOL     MW  936   0.198   1.048   2.506 -0.4341 -0.1510 -0.0317
  235SOL     OW  937   1.131   3.065   2.778  0.3156 -0.3403  0.4458
  235SOL    HW1  938   1.158   3.044   2.866  1.7514  3.3981 -1.2514
  235SOL    HW2  939   1.106   3.161   2.786  0.2208 -0.3704 -0.8266
  235SOL     MW  940   1.131   3.075   2.791  0.4925  0.1490  0.0540
  236SOL     OW  941   2.914   0.587   0.115  0.0678 -0.2827 -0.5890
  236SOL    HW1  942   2.828   0.628   0.110 -0.8844  1.1337 -1.5253
  236SOL    HW2  943   2.983   0.656   0.121 -0.2431 -3.6405  0.4068
  236SOL     MW  944   2.912   0.602   0.115 -0.0988 -0.5389 -0.5812
  237SOL     OW  945   2.022   1.161   2.223 -0.0907 -0.3020  0.1756
  237SOL    HW1  946   1.951   1.144   2.158  1.7494 -2.8805  0.9140
  237SOL    HW2  947   2.071   1.079   2.241 -0.1891  2.7498  0.8909
  237SOL     MW  948   2.019   1.148   2.217  0.1391 -0.2395  0.3674
  238SOL     OW  949   1.095   1.787   2.967  0.3451 -0.6712 -0.1608
  238SOL    HW1  950   1.047   1.716   2.930  0.2727  0.4314 -0.4210
  238SOL    HW2  951   1.187   1.770   2.945  1.3733 -1.7658  2.2402
  238SOL     MW  952   1.101   1.775   2.959  0.4712 -0.6702  0.1216
  239SOL     OW  953   1.265   1.445   2.384 -0.2341  0.2069 -0.3022
  239SOL    HW1  954   1.222   1.490   2.454 -2.5089 -2.1772 -1.3263
  239SOL    HW2  955   1.277   1.357   2.407  0.5603  2.0395  2.6498
  239SOL     MW  956   1.261   1.440   2.396 -0.4294  0.1341 -0.0479
  240SOL     OW  957   0.625   0.921   2.312 -0.1867 -0.0339  0.1373
  240SOL    HW1  958   0.634   0.920   2.402  1.2008  1.6814 -3.8153
  240SOL    HW2  959   0.696   0.866   2.277 -0.3553  1.5664 -2.1217
  240SOL     MW  960   0.635   0.913   2.319 -0.0259  0.4036 -0.6822
  241SOL     OW  961   0.684   0.405   0.022 -0.2010  0.2336 -0.0317
  241SOL    HW1  962   0.707   0.485   0.076  2.0122  0.2850  3.2562
  241SOL    HW2  963   0.618   0.428  -0.047  2.0397 -0.8150 -0.0856
  241SOL     MW  964   0.678   0.418   0.020  0.3867  0.1021  0.3950
  242SOL     OW  965   1.488   1.736   2.313 -0.1876 -0.3013 -0.3169
  242SOL    HW1  966   1.435   1.795   2.367  2.9344  2.4792  0.2297
  242SOL    HW2  967   1.427   1.700   2.248  1.5496 -1.8744 -1.8291
  242SOL     MW  968   1.473   1.739   2.311  0.4535 -0.1420 -0.4443
  243SOL     OW  969   0.989   0.172   2.460 -0.0800  0.0641 -0.2861
  243SOL    HW1  970   1.054   0.130   2.402  1.4323  2.1741  0.3038
  243SOL    HW2  971   1.053   0.237   2.504 -0.2713 -0.7074 -0.5601
  243SOL     MW  972   1.006   0.175   2.458  0.0943  0.2407 -0.2444
  244SOL     OW  973   0.183   0.811   2.353 -0.2468  0.3912 -0.4172
  244SOL    HW1  974   0.182   0.890   2.411 -1.7619  0.7012  1.7946
  244SOL    HW2  975   0.275   0.785   2.346 -0.1136  1.4855  0.6660
  244SOL     MW  976   0.195   0.818   2.360 -0.4291  0.5765  0.0175
  245SOL     OW  977   1.236   0.168   2.289  0.4520  0.1866 -0.1615
  245SOL    HW1  978   1.260   0.088   2.338 -1.1548  2.6723  1.1762
  245SOL    HW2  979   1.295   0.232   2.315 -1.5563 -0.4212  0.4054
  245SOL     MW  980   1.247   0.166   2.299 -0.0250  0.4344  0.0898
  246SOL     OW  981   1.246   1.156   2.100 -0.3843 -0.0801  0.1501
  246SOL    HW1  982   1.196   1.111   2.169 -0.8221  0.3749 -0.6276
  246SOL    HW2  983   1.330   1.135   2.124 -1.5694 -1.5319  2.2829
  246SOL     MW  984   1.251   1.148   2.112 -0.5985 -0.2116  0.3289
  247SOL     OW  985   0.741   0.597   0.211  0.4029 -0.2311  0.2370
  247SOL    HW1  986   0.715   0.687   0.192 -2.3539 -0.3961  1.2151
  247SOL    HW2  987   0.832   0.577   0.169  2.0404  1.3688 -0.8875
  247SOL     MW  988   0.750   0.607   0.203  0.2552 -0.0418  0.2177
  248SOL     OW  989   0.314   1.285   2.586  0.0975 -0.0426 -0.6581
  248SOL    HW1  990   0.358   1.291   2.499  1.0729  1.3464  1.5702
  248SOL    HW2  991   0.381   1.330   2.638  2.7729  0.0255 -0.0958
  248SOL     MW  992   0.329   1.292   2.581  0.5792  0.1497 -0.2899
  249SOL     OW  993   0.109   1.853   2.736 -0.8281 -0.4118 -0.5378
  249SOL    HW1  994   0.106   1.779   2.676  0.0769  1.6577  0.6110
  249SOL    HW2  995   0.140   1.813   2.815 -1.7800  2.6583  0.9457
  249SOL     MW  996   0.113   1.838   2.739 -0.8343  0.2663 -0.1905
  250SOL     OW  997   2.171   0.917   2.287 -0.5986 -0.0670 -0.4636
  250SOL    HW1  998   2.155   0.831   2.331 -1.0741 -2.7751 -3.0397
  250SOL    HW2  999   2.249   0.957   2.330 -0.2226  3.0559 -0.9512
  250SOL     MW 1000   2.179   0.911   2.298 -0.6117 -0.0123 -0.8678
  251SOL     OW 1001   0.162   0.910   1.936 -0.6220  0.1773  0.5188
  251SOL    HW1 1002   0.098   0.850   1.963  4.4953 -2.5565 -2.4394
  251SOL    HW2 1003   0.164   0.916   1.837 -0.7206 -1.5721  3.2281
  251SOL     MW 1004   0.154   0.903   1.926  0.0402 -0.4143  0.4859
  252SOL     OW 1005   1.737   0.977   2.931 -0.6107 -0.3544  1.1222
  252SOL    HW1 1006   1.746   1.048   2.998 -0.6993 -0.3634 -0.1923
  252SOL    HW2 1007   1.810   0.986   2.869  1.0539 -0.6710  0.1577
  252SOL     MW 1008   1.748   0.988   2.932 -0.4028 -0.3974  0.8215
  253SOL     OW 1009   1.131   1.745   2.528 -0.1176 -0.5024 -0.3872
  253SOL    HW1 1010   1.122   1.712   2.435  0.4870  1.4059  1.0977
  253SOL    HW2 1011   1.049   1.799   2.548 -0.2331 -0.6509  0.3634
  253SOL     MW 1012   1.119   1.748   2.518 -0.0531 -0.2702 -0.0922
  254SOL     OW 1013   1.011   1.074   2.239 -0.4456  0.4805 -0.3668
  254SOL    HW1 1014   0.959   0.994   2.241  1.3374 -0.0648  3.6352
  254SOL    HW2 1015   0.953   1.146   2.275  0.7586 -0.7934  0.4694
  254SOL     MW 1016   0.997   1.073   2.244 -0.0514  0.2405  0.2715
  255SOL     OW 1017   0.836   2.536   2.153  0.2795 -0.9933  0.0703
  255SOL    HW1 1018   0.755   2.491   2.131 -0.4249  0.7135  0.7622
  255SOL    HW2 1019   0.911   2.480   2.137  0.7653  0.2230  3.4789
  255SOL     MW 1020   0.835   2.523   2.148  0.2506 -0.6076  0.6113
  256SOL     OW 1021   1.301   2.712   2.949 -0.8540  0.4186  0.4981
  256SOL    HW1 1022   1.256   2.669   2.873  0.3364  1.9801  0.2963
  256SOL    HW2 1023   1.388   2.720   2.913  1.9159 -0.7565  0.2234
  256SOL     MW 1024   1.306   2.708   2.934 -0.3315  0.4696  0.4352
  257SOL     OW 1025   0.172   1.939   0.037 -0.2779  0.6631 -0.3393
  257SOL    HW1 1026   0.188   1.895   0.115 -0.3932  0.8104 -3.2228
  257SOL    HW2 1027   0.189   1.876  -0.031 -2.5633  0.3164 -0.3239
  257SOL     MW 1028   0.177   1.925   0.039 -0.5947  0.6368 -0.7177
  258SOL     OW 1029   0.814   0.999   2.535 -0.0348 -0.4170  0.0078
  258SOL    HW1 1030   0.814   1.076   2.475 -1.5293  1.0909 -1.9824
  258SOL    HW2 1031   0.796   1.042   2.622  1.2531 -3.6464 -1.1149
  258SOL     MW 1032   0.812   1.015   2.539 -0.0621 -0.6441 -0.4029
  259SOL     OW 1033   0.914   0.395   2.295  0.0278  0.7180 -0.2473
  259SOL    HW1 1034   0.821   0.406   2.258 -1.7605 -1.2788  1.9644
  259SOL    HW2 1035   0.914   0.308   2.341  0.2186 -0.8259  1.0177
  259SOL     MW 1036   0.902   0.385   2.296 -0.1830  0.2509  0.2114
  260SOL     OW 1037   0.586   0.146   1.630  0.6276  0.4377 -0.1854
  260SOL    HW1 1038   0.548   0.137   1.542  1.2874 -0.7463  1.0633
  260SOL    HW2 1039   0.685   0.127   1.623  2.5762  0.8180 -0.9685
  260SOL     MW 1040   0.594   0.142   1.617  0.9718  0.3317 -0.1239
  261SOL     OW 1041   1.176   0.736   2.031  0.0098 -0.0891 -0.3737
  261SOL    HW1 1042   1.182   0.724   2.128 -0.3645 -0.5248  2.9127
  261SOL    HW2 1043   1.166   0.642   2.001 -1.7109 -1.6440  1.1747
  261SOL     MW 1044   1.175   0.722   2.040 -0.2666 -0.3518  0.2642
  262SOL     OW 1045   1.054   0.303   0.168  0.1226  0.1354 -0.0344
  262SOL    HW1 1046   1.149   0.302   0.157  0.3150 -1.6145 -1.7777
  262SOL    HW2 1047   1.025   0.219   0.130 -1.0724  1.1846  1.7328
  262SOL     MW 1048   1.063   0.292   0.162 -0.0097  0.0429 -0.0313
  263SOL     OW 1049   0.440   0.044   2.465  0.3332  0.2298 -0.0883
  263SOL    HW1 1050   0.343   0.069   2.467  0.6229  0.3932 -1.1608
  263SOL    HW2 1051   0.484   0.090   2.392  0.2166  0.2699 -0.8011
  263SOL     MW 1052   0.433   0.053   2.456  0.3561  0.2567 -0.3239
  264SOL     OW 1053   1.518   1.343   1.834  0.4470  0.1610  0.0762
  264SOL    HW1 1054   1.498   1.251   1.839 -0.7191  0.5408  1.3707
  264SOL    HW2 1055   1.578   1.357   1.906 -0.1245 -2.6389  1.3371
  264SOL     MW 1056   1.524   1.333   1.844  0.2178 -0.1583  0.4134
  265SOL     OW 1057   0.806   2.802   2.218  0.0068 -0.4502  0.5409
  265SOL    HW1 1058   0.843   2.717   2.187  0.8289  0.7191 -1.4041
  265SOL    HW2 1059   0.780   2.785   2.307 -0.7345  1.4750  1.3499
  265SOL     MW 1060   0.808   2.789   2.225  0.0175 -0.0419  0.3910
  266SOL     OW 1061   0.838   0.779   2.211  0.1934  0.5605  0.0047
  266SOL    HW1 1062   0.832   0.752   2.117  0.1975  0.2911 -1.1010
  266SOL    HW2 1063   0.910   0.724   2.246  0.0139 -0.2426 -3.0303
  266SOL     MW 1064   0.847   0.768   2.204  0.1702  0.4190 -0.5416
  267SOL     OW 1065   1.353   1.777   2.663 -0.3568  0.4639  0.0189
  267SOL    HW1 1066   1.417   1.710   2.628  1.1525 -0.2417 -1.3536
  267SOL    HW2 1067   1.267   1.775   2.627 -1.8733 -1.6905 -0.0531
  267SOL     MW 1068   1.350   1.768   2.653 -0.3577  0.0865 -0.1717
  268SOL     OW 1069   0.186   0.891   1.663 -0.0728  0.2495 -0.5389
  268SOL    HW1 1070   0.178   0.983   1.631  0.5532  0.1126  2.0102
  268SOL    HW2 1071   0.133   0.830   1.613 -1.9409 -0.3367  0.4787
  268SOL     MW 1072   0.178   0.895   1.652 -0.2367  0.1541 -0.0683
  269SOL     OW 1073   1.365   2.001   2.335 -0.5116 -0.0972 -0.4550
  269SOL    HW1 1074   1.439   2.054   2.357 -1.5320 -0.3841  0.0922
  269SOL    HW2 1075   1.289   2.026   2.375  0.3681 -1.0447  0.3284
  269SOL     MW 1076   1.364   2.011   2.343 -0.5301 -0.2601 -0.2794
  270SOL     OW 1077   1.153   0.395   1.599 -0.3621 -0.5974 -0.0040
  270SOL    HW1 1078   1.140   0.316   1.651 -0.2079 -0.1031 -2.0899
  270SOL    HW2 1079   1.245   0.409   1.584  1.1617 -0.1219 -2.5787
  270SOL     MW 1080   1.163   0.387   1.604 -0.1407 -0.4695 -0.6189
  271SOL     OW 1081   0.769   3.099   2.566 -1.1563 -0.0441 -0.8321
  271SOL    HW1 1082   0.816   3.021   2.606 -1.3987 -0.6299  0.0871
  271SOL    HW2 1083   0.847   3.154   2.532  1.1554  1.7141  1.0352
  271SOL     MW 1084   0.785   3.096   2.567 -0.8833  0.1106 -0.4645
  272SOL     OW 1085   1.520   2.812   2.806  0.2067 -0.2072  0.6721
  272SOL    HW1 1086   1.462   2.826   2.727 -1.0515 -2.1385 -2.0681
  272SOL    HW2 1087   1.543   2.903   2.820 -2.3114 -0.9810 -1.2994
  272SOL     MW 1088   1.516   2.826   2.797 -0.2916 -0.5641  0.0504
  273SOL     OW 1089   1.491   0.913   2.791 -0.2170 -0.0498 -0.2041
  273SOL    HW1 1090   1.571   0.935   2.841 -0.9352  0.6149 -0.4461
  273SOL    HW2 1091   1.436   0.990   2.780  1.0279  0.2895  1.9612
  273SOL     MW 1092   1.494   0.926   2.796 -0.1475  0.0827  0.0497
  274SOL     OW 1093   1.420   0.728   0.116  0.1809  0.4955 -0.0708
  274SOL    HW1 1094   1.457   0.645   0.150  1.9751  0.9166 -1.5994
  274SOL    HW2 1095   1.333   0.733   0.159  1.9003 -3.6967 -0.1316
  274SOL     MW 1096   1.413   0.717   0.126  0.6445 -0.0021 -0.2805
  275SOL     OW 1097   1.661   0.541   1.776  0.4447  0.0393 -0.3169
  275SOL    HW1 1098   1.742   0.567   1.822  1.5645  1.2601 -1.6969
  275SOL    HW2 1099   1.644   0.451   1.799  1.1181  0.8889  0.0066
  275SOL     MW 1100   1.670   0.533   1.785  0.6813  0.3125 -0.4563
  276SOL     OW 1101   0.326   1.258   1.946  0.4101  0.2066  0.8417
  276SOL    HW1 1102   0.352   1.166   1.945  2.3710 -0.7546 -1.5584
  276SOL    HW2 1103   0.282   1.281   2.026  2.0875  1.2431  0.3033
  276SOL     MW 1104   0.324   1.249   1.956  0.8902  0.2165  0.4540
  277SOL     OW 1105   1.956   1.141   2.519  0.4693 -0.1287  0.1080
  277SOL    HW1 1106   1.993   1.230   2.539  1.5329  2.1741 -2.6994
  277SOL    HW2 1107   1.952   1.140   2.423 -2.5466 -0.0944 -0.0184
  277SOL     MW 1108   1.960   1.153   2.509  0.2117  0.1796 -0.2791
  278SOL     OW 1109   1.390   0.676   1.660 -0.7762 -0.3712 -0.0515
  278SOL    HW1 1110   1.375   0.609   1.735 -0.6265  0.0003  0.2185
  278SOL    HW2 1111   1.461   0.730   1.700  1.1329 -1.7776  1.6059
  278SOL     MW 1112   1.397   0.674   1.675 -0.5046 -0.5077  0.2028
  279SOL     OW 1113   0.564   0.113   2.232 -0.1603 -0.2391 -0.2112
  279SOL    HW1 1114   0.656   0.079   2.230  1.3902 -0.5896  0.2260
  279SOL    HW2 1115   0.596   0.204   2.221  0.3607  2.8205  3.0742
  279SOL     MW 1116   0.580   0.121   2.230  0.1131  0.1184  0.2800
  280SOL     OW 1117   1.451   0.974   2.149 -0.9301 -0.0211 -0.2944
  280SOL    HW1 1118   1.525   0.917   2.115  1.6578  2.4576  3.1898
  280SOL    HW2 1119   1.458   0.957   2.242  2.1177 -0.1411 -2.6818
  280SOL     MW 1120   1.462   0.964   2.157 -0.1865  0.2901 -0.1497
  281SOL     OW 1121   1.347   1.314   2.722  0.8558 -0.7855 -0.1589
  281SOL    HW1 1122   1.437   1.347   2.721  0.0020  1.5217 -1.3495
  281SOL    HW2 1123   1.329   1.270   2.809 -1.5345 -1.1129 -0.8039
  281SOL     MW 1124   1.356   1.313   2.733  0.4278 -0.5243 -0.4011
  282SOL     OW 1125   1.092   1.307   1.632  0.5656 -0.6536  0.0968
  282SOL    HW1 1126   1.078   1.399   1.603 -0.5730 -1.7823  0.0804
  282SOL    HW2 1127   1.027   1.272   1.693 -1.7420  0.5557  0.0958
  282SOL     MW 1128   1.082   1.314   1.636  0.1109 -0.6430  0.0945
  283SOL     OW 1129   0.825   1.258   3.035  0.0008 -0.2972  0.7183
  283SOL    HW1 1130   0.917   1.273   3.035  0.0280  3.5845 -3.8113
  283SOL    HW2 1131   0.785   1.344   3.038 -1.2876  0.7136  0.3440
  283SOL     MW 1132   0.832   1.272   3.036 -0.1656  0.3483  0.0713
  284SOL     OW 1133   0.433   0.723   2.371 -0.2459  0.4240 -0.5113
  284SOL    HW1 1134   0.507   0.778   2.345 -1.4225 -0.9187  0.7498
  284SOL    HW2 1135   0.433   0.640   2.316 -0.0158  0.3097 -0.7482
  284SOL     MW 1136   0.443   0.719   2.361 -0.3708  0.2317 -0.3762
  285SOL     OW 1137   0.938   0.852   2.834 -0.7696  0.4810  0.0523
  285SOL    HW1 1138   0.998   0.848   2.759 -0.9956  0.6040 -1.5400
  285SOL    HW2 1139   0.872   0.785   2.807  0.0457  2.5109 -0.1706
  285SOL     MW 1140   0.937   0.843   2.821 -0.6919  0.7651 -0.1872
  286SOL     OW 1141   1.156   1.501   2.657  0.1317  0.2767 -0.5301
  286SOL    HW1 1142   1.243   1.473   2.689 -1.0057  1.5046 -1.1538
  286SOL    HW2 1143   1.159   1.593   2.637 -1.7116 -3.4176 -3.5904
  286SOL     MW 1144   1.168   1.509   2.659 -0.2616 -0.0487 -1.0161
  287SOL     OW 1145   1.155   0.935   0.334  0.0444  1.0447 -0.6709
  287SOL    HW1 1146   1.196   0.989   0.400  1.2443  1.6440 -1.4439
  287SOL    HW2 1147   1.136   1.005   0.264 -0.0829  0.4841  0.1131
  287SOL     MW 1148   1.158   0.951   0.334  0.1859  1.0498 -0.6695
  288SOL     OW 1149   1.510   0.571   2.068 -0.3718 -0.0715 -0.2309
  288SOL    HW1 1150   1.460   0.590   2.147 -0.3319 -1.9403  1.7774
  288SOL    HW2 1151   1.530   0.664   2.045  0.0985  3.1221 -0.8296
  288SOL     MW 1152   1.506   0.586   2.075 -0.3045  0.1033 -0.0449
  289SOL     OW 1153   1.085   0.980   2.581 -0.1535  0.1284 -0.4064
  289SOL    HW1 1154   1.105   0.886   2.580 -0.6007 -1.6217  0.6174
  289SOL    HW2 1155   0.991   0.988   2.572  2.6149 -0.3039  0.3793
  289SOL     MW 1156   1.075   0.969   2.580  0.1528 -0.1596 -0.1677
  290SOL     OW 1157   0.799   0.612   1.555 -0.0059  0.3631 -0.5255
  290SOL    HW1 1158   0.865   0.587   1.487 -0.4389 -3.2766 -2.4707
  290SOL    HW2 1159   0.857   0.642   1.624  1.1828 -0.6853  1.9540
  290SOL     MW 1160   0.815   0.613   1.555  0.0938 -0.2555 -0.4550
  291SOL     OW 1161   0.175   0.383   0.112 -0.3283  0.3464 -0.3633
  291SOL    HW1 1162   0.259   0.340   0.131 -0.9655 -2.7820 -1.3004
  291SOL    HW2 1163   0.135   0.329   0.046  1.0409  0.8094  0.5117
  291SOL     MW 1164   0.181   0.371   0.105 -0.2317 -0.0052 -0.3715
  292SOL     OW 1165   0.998   0.552   0.080 -0.1973  0.0730  0.1301
  292SOL    HW1 1166   1.063   0.595   0.134 -0.8711  2.8197 -0.1638
  292SOL    HW2 1167   1.016   0.457   0.078 -0.5493  2.4890 -0.5687
  292SOL     MW 1168   1.009   0.545   0.087 -0.3327  0.7541 -0.0009
  293SOL     OW 1169   0.196   0.124   2.455 -0.0157  0.2248  0.0300
  293SOL    HW1 1170   0.145   0.075   2.394  0.9639  1.2105 -0.2988
  293SOL    HW2 1171   0.133   0.149   2.524 -1.2051 -0.0749  1.0705
  293SOL     MW 1172   0.181   0.121   2.456 -0.0434  0.3153  0.1239
  294SOL     OW 1173   1.438   0.587   2.326 -0.6068  0.0791  0.4304
  294SOL    HW1 1174   1.515   0.627   2.367  0.9070  4.3256 -1.0680
  294SOL    HW2 1175   1.421   0.503   2.364 -0.9810  0.9674 -0.1851
  294SOL     MW 1176   1.446   0.581   2.337 -0.4564  0.7566  0.1515
  295SOL     OW 1177   0.921   0.542   2.538  0.1334 -0.2973 -0.7287
  295SOL    HW1 1178   0.883   0.501   2.460 -1.0974 -3.1944  0.2871
  295SOL    HW2 1179   0.854   0.564   2.603 -0.2629 -0.9621  3.1513
  295SOL     MW 1180   0.907   0.540   2.537 -0.0813 -0.7673 -0.0827
  296SOL     OW 1181   1.245   0.279   2.026 -0.6622 -0.1590  0.2255
  296SOL    HW1 1182   1.330   0.237   2.010 -0.2939  1.4172 -1.0070
  296SOL    HW2 1183   1.233   0.272   2.122 -0.4455  0.2684 -1.4754
  296SOL     MW 1184   1.255   0.273   2.037 -0.5850  0.1054 -0.1616
  297SOL     OW 1185   1.432   0.412   1.539  0.4294  0.2289 -0.4689
  297SOL    HW1 1186   1.426   0.497   1.576  0.2063 -2.0939 -0.7486
  297SOL    HW2 1187   1.453   0.361   1.615  1.0333 -3.4387 -1.5928
  297SOL     MW 1188   1.434   0.416   1.554  0.4796 -0.5614 -0.6541
  298SOL     OW 1189   1.638   0.844   2.012  0.1560  0.2490 -0.1401
  298SOL    HW1 1190   1.680   0.916   1.964 -3.1403  0.0392 -0.9828
  298SOL    HW2 1191   1.701   0.804   2.081  0.4424 -0.9173  4.2779
  298SOL     MW 1192   1.652   0.848   2.014 -0.2411  0.0674  0.3316
  299SOL     OW 1193   0.575   1.100   0.044  0.6847  0.2103 -0.3638
  299SOL    HW1 1194   0.541   1.094  -0.052 -2.3936 -0.0720 -0.1879
  299SOL    HW2 1195   0.667   1.136   0.032  1.4392 -1.9334  2.7678
  299SOL     MW 1196   0.583   1.104   0.030  0.3781 -0.1098  0.0726
  300SOL     OW 1197   1.289   1.169   2.481 -0.8794  0.5939 -0.3437
  300SOL    HW1 1198   1.201   1.131   2.489  0.8000 -2.4461  0.7191
  300SOL    HW2 1199   1.298   1.217   2.562 -0.6658  0.7465 -1.3729
  300SOL     MW 1200   1.278   1.170   2.493 -0.6296  0.2129 -0.3392
  301SOL     OW 1201   1.485   0.964   0.654 -0.6389  0.9253  0.1648
  301SOL    HW1 1202   1.492   0.976   0.750  2.1747  0.6141 -1.6010
  301SOL    HW2 1203   1.408   0.900   0.654 -1.6010 -1.1757 -0.5237
  301SOL     MW 1204   1.476   0.957   0.667 -0.3946  0.6070 -0.1590
  302SOL     OW 1205   0.133   1.604   1.999  0.5805 -0.1692 -0.2868
  302SOL    HW1 1206   0.173   1.543   2.062  1.3720 -0.0272 -0.8741
  302SOL    HW2 1207   0.045   1.634   2.028 -1.1051  0.3772 -2.9709
  302SOL     MW 1208   0.126   1.600   2.011  0.4625 -0.0784 -0.7185
  303SOL     OW 1209   0.398   1.791   2.665 -0.8134 -0.4299 -0.0593
  303SOL    HW1 1210   0.363   1.785   2.577  1.4567 -0.4657  0.4675
  303SOL    HW2 1211   0.328   1.807   2.731  0.8703 -0.2207  3.5118
  303SOL     MW 1212   0.384   1.792   2.662 -0.2917 -0.4070  0.4813
  304SOL     OW 1213   0.522   2.047   2.351  0.2356 -0.1574 -0.2818
  304SOL    HW1 1214   0.598   2.100   2.312 -2.3004  3.0908 -1.4802
  304SOL    HW2 1215   0.556   1.965   2.383 -2.0192  0.2152 -3.8163
  304SOL     MW 1216   0.536   2.043   2.350 -0.3965  0.3203 -0.9063
  305SOL     OW 1217   1.095   0.552   0.499 -0.2209  0.3229  0.1436
  305SOL    HW1 1218   1.000   0.531   0.493  1.0091 -0.8164  1.4180
  305SOL    HW2 1219   1.137   0.470   0.523  0.0035  0.5571  1.2596
  305SOL     MW 1220   1.088   0.538   0.502 -0.0290  0.2034  0.4590
  306SOL     OW 1221   1.181   1.531   0.287 -0.2240  0.1791 -0.2392
  306SOL    HW1 1222   1.211   1.438   0.312 -0.6660  0.5321 -0.7057
  306SOL    HW2 1223   1.210   1.543   0.200  1.5061  1.5088  1.5000
  306SOL     MW 1224   1.189   1.521   0.279 -0.0540  0.4011 -0.0713
  307SOL     OW 1225   1.343   0.484   1.851  0.1359 -0.0221 -0.3090
  307SOL    HW1 1226   1.295   0.414   1.891 -0.9756 -0.9309 -3.2234
  307SOL    HW2 1227   1.398   0.513   1.928  0.4324  1.9907  1.2473
  307SOL     MW 1228   1.344   0.478   1.866  0.0283  0.1236 -0.4882
  308SOL     OW 1229   2.200   0.536   2.722 -0.1266 -0.5165  0.4202
  308SOL    HW1 1230   2.301   0.530   2.707  2.4964 -2.8333 -1.7789
  308SOL    HW2 1231   2.177   0.618   2.677 -3.1611 -2.1712 -4.3218
  308SOL     MW 1232   2.211   0.546   2.714 -0.1809 -1.0405 -0.4956
  309SOL     OW 1233   0.481   0.510   0.280  0.2896  0.0605 -0.7812
  309SOL    HW1 1234   0.555   0.550   0.240 -2.6672  0.8110 -2.5368
  309SOL    HW2 1235   0.484   0.420   0.246  0.7986  0.0595 -2.0167
  309SOL     MW 1236   0.491   0.503   0.270 -0.0334  0.1594 -1.1758
  310SOL     OW 1237   0.428   0.592   1.923 -0.1192 -0.3291 -0.0678
  310SOL    HW1 1238   0.447   0.514   1.860 -1.2796 -0.7721 -0.1136
  310SOL    HW2 1239   0.472   0.668   1.889 -0.0586 -0.2418 -1.2579
  310SOL     MW 1240   0.436   0.592   1.910 -0.2643 -0.3760 -0.2308
  311SOL     OW 1241   1.899   0.585   1.932  0.4632  0.0322 -0.0689
  311SOL    HW1 1242   1.847   0.594   2.016 -0.3487  1.8353 -0.0587
  311SOL    HW2 1243   1.973   0.521   1.950  2.3189  1.3605 -0.1036
  311SOL     MW 1244   1.902   0.578   1.946  0.6009  0.4454 -0.0721
  312SOL     OW 1245   1.803   2.476   0.160  0.1569 -0.6805  0.1862
  312SOL    HW1 1246   1.867   2.430   0.216  0.1848  0.2182 -1.2727
  312SOL    HW2 1247   1.760   2.540   0.219  2.4440 -1.9559  1.2436
  312SOL     MW 1248   1.806   2.479   0.175  0.4623 -0.7302  0.1332
  313SOL     OW 1249   0.129   1.151   2.955  0.2213  0.4649  0.2803
  313SOL    HW1 1250   0.090   1.142   3.050  0.2414 -1.0981  2.5884
  313SOL    HW2 1251   0.205   1.210   2.947  0.2460 -0.3059 -3.0559
  313SOL     MW 1252   0.134   1.158   2.966  0.2272  0.1570  0.1447
  314SOL     OW 1253   2.170   3.010   2.944  0.3647  0.0022 -0.1393
  314SOL    HW1 1254   2.097   3.073   2.930 -0.4496 -1.5713  1.5628
  314SOL    HW2 1255   2.211   3.054   3.017 -0.5551  0.7548 -0.0983
  314SOL     MW 1256   2.166   3.024   2.951  0.1359 -0.1061  0.0907
  315SOL     OW 1257   1.528   1.868   3.018 -0.1441  0.0570 -0.5703
  315SOL    HW1 1258   1.512   1.910   3.096  3.7726 -1.5704 -2.2063
  315SOL    HW2 1259   1.556   1.945   2.961 -0.0743 -0.9805  0.0070
  315SOL     MW 1260   1.530   1.884   3.021  0.3819 -0.2946 -0.7100
  316SOL     OW 1261   1.326   0.517   2.714  0.0451 -0.1915  0.2919
  316SOL    HW1 1262   1.409   0.513   2.753 -2.1193 -0.9671 -0.3007
  316SOL    HW2 1263   1.284   0.558   2.794 -0.9272  2.0317 -0.0010
  316SOL     MW 1264   1.332   0.522   2.729 -0.3688 -0.0005  0.1751
  317SOL     OW 1265   0.657   1.473   2.622 -0.2309  0.5407  0.6509
  317SOL    HW1 1266   0.725   1.408   2.626  0.2882 -1.9673  0.5772
  317SOL    HW2 1267   0.639   1.501   2.528 -0.9060  1.3026  0.0917
  317SOL     MW 1268   0.664   1.468   2.610 -0.2515  0.3103  0.5674
  318SOL     OW 1269   1.342   0.359   2.973  1.0132  0.1104 -0.2855
  318SOL    HW1 1270   1.261   0.411   2.945 -1.6994 -0.0313  0.6298
  318SOL    HW2 1271   1.421   0.411   2.955  1.3388 -0.2772  1.6924
  318SOL     MW 1272   1.342   0.373   2.967  0.6982  0.0405  0.0962
  319SOL     OW 1273   0.846   0.420   2.876  0.2803 -0.3884  0.2063
  319SOL    HW1 1274   0.807   0.344   2.826 -0.3743 -0.0193  1.3206
  319SOL    HW2 1275   0.805   0.423   2.959 -0.3648  0.8885 -0.7724
  319SOL     MW 1276   0.835   0.411   2.881  0.1089 -0.1712  0.2242
  320SOL     OW 1277   1.069   1.354   1.998  0.3693  0.1962 -0.4054
  320SOL    HW1 1278   1.143   1.299   2.032  0.2665  0.4713  2.2689
  320SOL    HW2 1279   1.104   1.418   1.937  0.7574 -2.2505 -0.8880
  320SOL     MW 1280   1.084   1.355   1.994  0.4069 -0.0903 -0.1162
  321SOL     OW 1281   1.117   0.955   3.009  0.0411 -0.1002  0.2446
  321SOL    HW1 1282   1.031   0.936   2.973 -0.5985  1.2770 -0.3069
  321SOL    HW2 1283   1.177   0.892   2.979 -0.7946  0.0005  3.5768
  321SOL     MW 1284   1.114   0.945   3.000 -0.1535  0.0948  0.6115
  322SOL     OW 1285   1.177   0.851   1.679 -0.2499  0.0888 -0.0180
  322SOL    HW1 1286   1.251   0.792   1.650 -2.3850  0.8535  0.1440
  322SOL    HW2 1287   1.183   0.878   1.772 -1.4656  0.7829 -0.5669
  322SOL     MW 1288   1.188   0.847   1.687 -0.6920  0.2813 -0.0690
  323SOL     OW 1289   1.240   1.546   1.876  0.3240 -0.3666 -0.0788
  323SOL    HW1 1290   1.281   1.540   1.789  0.3050 -0.4796 -0.5219
  323SOL    HW2 1291   1.183   1.632   1.880 -0.2675 -1.2522  2.5896
  323SOL     MW 1292   1.238   1.556   1.865  0.2434 -0.4983  0.2148
  324SOL     OW 1293   1.475   0.977   2.433  0.2011  0.5706  0.1965
  324SOL    HW1 1294   1.403   1.032   2.446 -1.4275 -2.0256 -3.3387
  324SOL    HW2 1295   1.551   1.030   2.454 -0.0760  0.2985 -1.6491
  324SOL     MW 1296   1.475   0.991   2.437 -0.0503  0.1922 -0.5134
  325SOL     OW 1297   1.120   0.515   2.916 -0.4340  0.0565  0.0843
  325SOL    HW1 1298   1.129   0.552   3.007  2.2643  0.7136  0.8644
  325SOL    HW2 1299   1.029   0.497   2.901  2.8498  0.3583  0.9901
  325SOL     MW 1300   1.109   0.518   2.926  0.3553  0.1830  0.3067
  326SOL     OW 1301   0.455   1.349   2.348 -0.5721  0.3716  0.0566
  326SOL    HW1 1302   0.508   1.311   2.286 -1.0262  0.1095  1.4079
  326SOL    HW2 1303   0.443   1.434   2.313  2.0493 -3.4529  0.5394
  326SOL     MW 1304   0.460   1.355   2.335 -0.2861 -0.1676  0.2986
  327SOL     OW 1305   1.908   0.782   2.432  0.0287 -0.5664  0.2244
  327SOL    HW1 1306   1.853   0.738   2.499  0.7027 -0.5703 -1.7589
  327SOL    HW2 1307   1.958   0.833   2.492 -1.4724  2.1330  1.0209
  327SOL     MW 1308   1.907   0.783   2.449 -0.0804 -0.2107  0.0678
  328SOL     OW 1309   0.183   1.364   2.166 -0.3502 -0.8912 -0.5825
  328SOL    HW1 1310   0.135   1.282   2.171 -0.3751 -1.5719  0.4908
  328SOL    HW2 1311   0.238   1.374   2.244  1.1744 -2.1819 -2.5185
  328SOL     MW 1312   0.184   1.354   2.177 -0.1523 -1.1513 -0.6964
  329SOL     OW 1313   0.100   0.250   1.404 -0.0219 -0.5199 -0.4024
  329SOL    HW1 1314   0.084   0.249   1.504  1.3355 -1.0348  1.0275
  329SOL    HW2 1315   0.191   0.265   1.382 -0.8750  0.0482  2.6730
  329SOL     MW 1316   0.110   0.252   1.415  0.0447 -0.5129  0.1921
  330SOL     OW 1317   0.388   3.070   2.078 -0.2855 -0.2999 -0.4903
  330SOL    HW1 1318   0.443   3.112   2.146 -3.1200 -0.2245 -0.0190
  330SOL    HW2 1319   0.333   3.011   2.129  1.8051 -1.8151 -0.3427
  330SOL     MW 1320   0.388   3.068   2.094 -0.3837 -0.4899 -0.4087
  331SOL     OW 1321   0.820   1.260   2.362 -0.1289  0.2840  1.0603
  331SOL    HW1 1322   0.775   1.314   2.292  0.6814 -0.7347 -1.1315
  331SOL    HW2 1323   0.876   1.319   2.411 -0.7255 -0.0455  2.7296
  331SOL     MW 1324   0.822   1.275   2.359 -0.1007  0.1061  0.9914
  332SOL     OW 1325   1.338   1.697   2.914 -0.4969 -0.0600 -0.5982
  332SOL    HW1 1326   1.353   1.714   2.819  0.8518  0.5376 -0.8785
  332SOL    HW2 1327   1.398   1.756   2.960 -1.3615 -0.7563 -0.8937
  332SOL     MW 1328   1.348   1.707   2.907 -0.4331 -0.0730 -0.6742
  333SOL     OW 1329   1.736   1.358   2.961 -0.1776 -0.1066 -0.7050
  333SOL    HW1 1330   1.823   1.382   2.986  2.5506  0.0311 -1.5286
  333SOL    HW2 1331   1.705   1.303   3.031  0.9697  0.8206  1.9011
  333SOL     MW 1332   1.743   1.354   2.973  0.3337  0.0339 -0.4698
  334SOL     OW 1333   1.282   0.055   2.567 -0.6727 -0.8247  0.3196
  334SOL    HW1 1334   1.218   0.023   2.627 -0.4496 -0.4197 -1.9843
  334SOL    HW2 1335   1.358   0.088   2.622  0.9193  1.5011 -0.1336
  334SOL     MW 1336   1.284   0.055   2.582 -0.4332 -0.4644 -0.0441
  335SOL     OW 1337   1.334   0.744   2.957  0.1315 -0.4047  0.2032
  335SOL    HW1 1338   1.353   0.744   3.051 -2.1314  0.0812 -1.0865
  335SOL    HW2 1339   1.416   0.781   2.909 -0.6598  0.3484 -1.4512
  335SOL     MW 1340   1.347   0.749   2.963 -0.2715 -0.2413 -0.1852
  336SOL     OW 1341   0.929   1.167   1.848 -0.2541  0.1414 -0.7048
  336SOL    HW1 1342   0.955   1.246   1.904 -2.5493 -3.3887 -0.4232
  336SOL    HW2 1343   0.997   1.100   1.865 -0.2372  0.4539 -0.1922
  336SOL     MW 1344   0.941   1.168   1.858 -0.5547 -0.2831 -0.6000
  337SOL     OW 1345   0.665   1.814   2.799  0.0588  0.0223  0.1333
  337SOL    HW1 1346   0.600   1.799   2.730  0.0307  0.0150  0.9420
  337SOL    HW2 1347   0.727   1.749   2.780 -0.8821 -0.2391 -1.2786
  337SOL     MW 1348   0.664   1.804   2.787 -0.0691 -0.0131  0.0537
  338SOL     OW 1349   1.129   0.693   2.601  0.4176  0.0954 -0.0359
  338SOL    HW1 1350   1.057   0.627   2.586 -1.1734  1.7666 -0.6252
  338SOL    HW2 1351   1.211   0.655   2.639 -1.3945  0.4537  1.9127
  338SOL     MW 1352   1.130   0.679   2.604 -0.0314  0.3632  0.1434
  339SOL     OW 1353   1.488   1.063   1.841 -0.1227  0.0348 -0.1176
  339SOL    HW1 1354   1.410   1.068   1.784  0.0611 -2.0046 -0.3458
  339SOL    HW2 1355   1.466   1.047   1.931  3.0562 -1.9613 -0.1489
  339SOL     MW 1356   1.475   1.061   1.846  0.3210 -0.4976 -0.1518
  340SOL     OW 1357   1.311   1.514   0.047  0.5960  0.0141 -0.1319
  340SOL    HW1 1358   1.329   1.590  -0.002  0.1559 -2.8984  0.5456
  340SOL    HW2 1359   1.400   1.486   0.077  1.1400 -0.7313 -1.2215
  340SOL     MW 1360   1.325   1.520   0.045  0.6097 -0.4685 -0.1863
  341SOL     OW 1361   0.034   1.332   2.741  0.0612 -0.4387 -0.5693
  341SOL    HW1 1362   0.117   1.287   2.741 -0.4802  1.7037  0.8020
  341SOL    HW2 1363  -0.006   1.326   2.649 -1.4000  0.5973 -0.4405
  341SOL     MW 1364   0.039   1.325   2.729 -0.2031 -0.0193 -0.3714
  342SOL     OW 1365   1.315   0.349   0.135  0.0898  0.0793  0.2983
  342SOL    HW1 1366   1.366   0.403   0.188 -1.9775  1.1214 -2.3266
  342SOL    HW2 1367   1.341   0.370   0.044  1.3224  1.4211 -1.6803
  342SOL     MW 1368   1.325   0.359   0.130 -0.0203  0.3938 -0.3091
  343SOL     OW 1369   0.270   0.306   2.122 -0.1595  0.1050  1.0330
  343SOL    HW1 1370   0.354   0.274   2.103 -0.6431 -1.9311 -2.8198
  343SOL    HW2 1371   0.206   0.264   2.062  0.4322  0.9140 -1.0694
  343SOL     MW 1372   0.273   0.296   2.112 -0.1453 -0.0569  0.2473
  344SOL     OW 1373   1.704   2.046   0.181  0.2865 -0.1315  0.2167
  344SOL    HW1 1374   1.730   2.119   0.118 -0.5032  1.7748  1.2680
  344SOL    HW2 1375   1.615   2.034   0.170  1.3978  2.4938  1.5589
  344SOL     MW 1376   1.696   2.054   0.171  0.3289  0.4664  0.5325
  345SOL     OW 1377   0.709   1.578   2.342  0.0344  0.4156  0.1530
  345SOL    HW1 1378   0.646   1.539   2.283 -1.4817 -2.4745  1.4074
  345SOL    HW2 1379   0.790   1.566   2.288  1.6812  0.5274  0.5779
  345SOL     MW 1380   0.711   1.572   2.327  0.0517  0.0490  0.3745
  346SOL     OW 1381   1.765   1.160   0.044 -0.1613 -0.0264 -0.3922
  346SOL    HW1 1382   1.851   1.186   0.067 -1.2206  1.2910  0.7603
  346SOL    HW2 1383   1.727   1.094   0.105  1.2081 -2.7324  1.2377
  346SOL     MW 1384   1.771   1.155   0.055 -0.1204 -0.2096 -0.0251
  347SOL     OW 1385   1.165   0.634   2.302 -0.0473  0.1475  0.2947
  347SOL    HW1 1386   1.257   0.622   2.309  0.5406 -1.0530  0.7802
  347SOL    HW2 1387   1.129   0.659   2.391  0.9474  0.0292 -2.0532
  347SOL     MW 1388   1.172   0.636   2.314  0.1615 -0.0265  0.0490
  348SOL     OW 1389   1.301   2.636   1.878 -0.4408 -0.3174 -0.4020
  348SOL    HW1 1390   1.354   2.569   1.929 -1.3521 -0.7067 -0.4554
  348SOL    HW2 1391   1.330   2.712   1.925  0.9087  0.1361  2.3205
  348SOL     MW 1392   1.312   2.637   1.891 -0.3830 -0.3089 -0.0498
  349SOL     OW 1393   1.447   0.209   2.706 -0.1114 -0.2431 -0.1617
  349SOL    HW1 1394   1.387   0.247   2.771  1.2226 -0.8392  0.0051
  349SOL    HW2 1395   1.522   0.168   2.747 -1.1612  2.0816 -2.5295
  349SOL     MW 1396   1.449   0.209   2.720 -0.0739 -0.0150 -0.4521
  350SOL     OW 1397   1.845   0.628   2.669 -0.1610  0.5661  0.0072
  350SOL    HW1 1398   1.779   0.575   2.628 -0.0971  2.2153 -1.0172
  350SOL    HW2 1399   1.907   0.573   2.720 -3.5616  1.0816 -1.4714
  350SOL     MW 1400   1.845   0.613   2.670 -0.6013  0.8517 -0.3231
  351SOL     OW 1401   0.098   1.132   1.568 -0.1796  0.1704  0.5500
  351SOL    HW1 1402   0.026   1.111   1.630 -4.3630  3.2194  1.3437
  351SOL    HW2 1403   0.177   1.173   1.618  0.5856  0.7324  1.4958
  351SOL     MW 1404   0.099   1.135   1.583 -0.6306  0.6468  0.7795
  352SOL     OW 1405   0.878   1.639   2.731  0.5941  0.0045  0.3158
  352SOL    HW1 1406   0.875   1.623   2.821 -1.6626 -1.7683 -1.2499
  352SOL    HW2 1407   0.826   1.569   2.687 -0.6699  0.1596 -1.1756
  352SOL     MW 1408   0.871   1.628   2.737  0.1296 -0.2090 -0.0875
  353SOL     OW 1409  -0.000   2.509   2.722  0.7515 -0.4242  0.4513
  353SOL    HW1 1410   0.095   2.491   2.732 -0.8496  2.4077  2.3147
  353SOL    HW2 1411  -0.003   2.590   2.666  1.3967  0.9126  0.3601
  353SOL     MW 1412   0.012   2.517   2.716  0.6254  0.1258  0.6851
  354SOL     OW 1413   0.273   2.453   0.806 -0.1041 -0.1397  0.0077
  354SOL    HW1 1414   0.333   2.442   0.879  1.6724  3.0790 -3.7059
  354SOL    HW2 1415   0.213   2.378   0.805  1.8221  1.1911  0.5058
  354SOL     MW 1416   0.273   2.442   0.816  0.3844  0.4606 -0.4165
  355SOL     OW 1417   3.102   2.229   0.363 -0.4739 -0.1731 -0.3406
  355SOL    HW1 1418   3.010   2.205   0.366  0.2106 -0.2562  2.0754
  355SOL    HW2 1419   3.125   2.253   0.448 -1.5380 -0.8756 -2.7567
  355SOL     MW 1420   3.093   2.229   0.375 -0.5240 -0.2767 -0.3406
  356SOL     OW 1421   0.848   2.797   0.966 -0.1922  0.2258  0.1269
  356SOL    HW1 1422   0.890   2.838   0.883  1.3687  0.5456  0.5297
  356SOL    HW2 1423   0.752   2.806   0.951 -1.7540  1.4205 -0.9367
  356SOL     MW 1424   0.841   2.804   0.953 -0.1923  0.4256  0.0397
  357SOL     OW 1425   1.772   2.900   0.370 -0.0546 -0.1800  0.2263
  357SOL    HW1 1426   1.721   2.842   0.427  1.8334 -1.6821  0.1984
  357SOL    HW2 1427   1.861   2.860   0.354 -0.1718  0.5854  0.6984
  357SOL     MW 1428   1.777   2.887   0.375  0.1790 -0.2772  0.2849
  358SOL     OW 1429   0.461   0.151   1.040  0.3077 -0.3443 -0.5130
  358SOL    HW1 1430   0.547   0.115   1.019 -0.7164 -1.1491  0.9990
  358SOL    HW2 1431   0.411   0.168   0.964  1.9164  1.0613  2.2298
  358SOL     MW 1432   0.466   0.148   1.027  0.3849 -0.2651  0.0484
  359SOL     OW 1433   0.850   2.869   1.841 -0.1823 -0.4879  0.3682
  359SOL    HW1 1434   0.834   2.776   1.838 -4.7997 -0.7036  0.2150
  359SOL    HW2 1435   0.870   2.883   1.745 -1.6124 -2.3199 -2.2099
  359SOL     MW 1436   0.851   2.859   1.828 -0.9802 -0.7581  0.0078
  360SOL     OW 1437   0.577   2.809   0.927  0.1692 -0.0529 -0.0730
  360SOL    HW1 1438   0.574   2.779   0.836  2.2681  0.9236 -0.5197
  360SOL    HW2 1439   0.568   2.723   0.971  0.5206  0.9509 -2.3598
  360SOL     MW 1440   0.575   2.794   0.921  0.4925  0.2084 -0.4336
  361SOL     OW 1441   0.209   2.633   1.348  0.8847 -0.0036 -0.3699
  361SOL    HW1 1442   0.185   2.702   1.409  0.5443 -1.5008  1.9948
  361SOL    HW2 1443   0.304   2.637   1.326 -0.9698 -1.7112 -0.6897
  361SOL     MW 1444   0.218   2.643   1.353  0.5951 -0.4264 -0.1001
  362SOL     OW 1445   1.456   2.451   0.645  0.2271 -0.2720  0.0361
  362SOL    HW1 1446   1.478   2.386   0.716 -1.1475 -0.9924 -1.5819
  362SOL    HW2 1447   1.522   2.525   0.653 -0.8418 -1.0721  1.0430
  362SOL     MW 1448   1.467   2.452   0.656 -0.0953 -0.4726 -0.0445
  363SOL     OW 1449   0.304   3.090   0.682  0.2144  0.4986 -0.2863
  363SOL    HW1 1450   0.297   3.022   0.749  1.2465  2.7141 -2.6473
  363SOL    HW2 1451   0.222   3.088   0.635 -0.1462  1.5747 -1.1468
  363SOL     MW 1452   0.292   3.081   0.684  0.3030  0.9329 -0.7113
  364SOL     OW 1453   0.762   0.213   0.230  0.3150  0.3991  0.2520
  364SOL    HW1 1454   0.685   0.154   0.247  1.3943  0.5829 -1.5206
  364SOL    HW2 1455   0.745   0.256   0.145 -0.5005 -1.4884  0.3495
  364SOL     MW 1456   0.750   0.211   0.221  0.3498  0.1743  0.0310
  365SOL     OW 1457   0.979   2.025   1.176  0.4047 -0.5725  0.0366
  365SOL    HW1 1458   0.957   2.108   1.138 -0.6074  1.4613  1.7153
  365SOL    HW2 1459   0.916   1.957   1.136  1.9644 -2.6721  1.3531
  365SOL     MW 1460   0.968   2.027   1.165  0.4769 -0.5812  0.4318
  366SOL     OW 1461   2.886   2.684   0.992  0.5505 -0.2969 -0.0030
  366SOL    HW1 1462   2.971   2.700   1.035 -2.2430 -1.6125  0.9756
  366SOL    HW2 1463   2.917   2.693   0.900  0.1744 -0.1592 -0.5831
  366SOL     MW 1464   2.901   2.687   0.986  0.1323 -0.4523  0.0496
  367SOL     OW 1465   1.237   2.963   0.902  0.3690 -0.5580 -0.2266
  367SOL    HW1 1466   1.272   3.036   0.844 -0.1598  1.3966  0.5267
  367SOL    HW2 1467   1.235   2.889   0.841  0.1058 -2.1271 -0.8494
  367SOL     MW 1468   1.241   2.963   0.887  0.2645 -0.5072 -0.2094
  368SOL     OW 1469   1.651   0.358   0.745 -0.1113 -0.2515 -0.0092
  368SOL    HW1 1470   1.733   0.338   0.694 -1.5337 -3.8439  1.9160
  368SOL    HW2 1471   1.634   0.452   0.755  0.9930 -0.3564 -1.1347
  368SOL     MW 1472   1.660   0.368   0.740 -0.1533 -0.7394  0.0963
  369SOL     OW 1473   0.139   2.428   1.797 -0.3949 -0.6748  0.2381
  369SOL    HW1 1474   0.238   2.419   1.806 -0.9063 -1.1840 -0.3419
  369SOL    HW2 1475   0.118   2.517   1.768 -0.5643 -4.1200  2.3215
  369SOL     MW 1476   0.149   2.438   1.794 -0.4848 -1.1965  0.4365
  370SOL     OW 1477   0.725   0.123   0.964  0.0979  0.8129 -0.3351
  370SOL    HW1 1478   0.744   0.209   0.988 -0.6075 -2.8061 -0.0056
  370SOL    HW2 1479   0.816   0.084   0.967  3.0518  3.3891 -0.9737
  370SOL     MW 1480   0.739   0.129   0.968  0.3945  0.6753 -0.3759
  371SOL     OW 1481   1.349   2.908   1.523 -0.3153 -0.7032 -0.0039
  371SOL    HW1 1482   1.296   2.828   1.518  1.1781 -0.7986  0.5880
  371SOL    HW2 1483   1.339   2.965   1.446 -1.1885 -0.1707  2.9200
  371SOL     MW 1484   1.341   2.905   1.512 -0.2335 -0.6456  0.4600
  372SOL     OW 1485   0.778   2.275   0.481  0.7731 -0.2743  0.6155
  372SOL    HW1 1486   0.775   2.180   0.498 -1.3397 -1.3022  1.9543
  372SOL    HW2 1487   0.795   2.299   0.389  1.6985  1.0702 -3.3798
  372SOL     MW 1488   0.780   2.266   0.471  0.6164 -0.2325  0.2650
  373SOL     OW 1489   2.819   3.017   1.455 -0.1981 -0.0770  0.3540
  373SOL    HW1 1490   2.908   3.014   1.422  0.8583 -2.3976 -0.5534
  373SOL    HW2 1491   2.775   3.094   1.417  0.7738 -3.8858 -0.5198
  373SOL     MW 1492   2.825   3.027   1.445  0.0695 -0.8857  0.1190
  374SOL     OW 1493   1.511   0.500   0.245 -0.6921  0.7235  0.7264
  374SOL    HW1 1494   1.570   0.460   0.186 -1.0419  2.3720  0.8232
  374SOL    HW2 1495   1.555   0.472   0.327  2.3132  1.4346  1.3330
  374SOL     MW 1496   1.525   0.491   0.248 -0.3417  1.0349  0.8192
  375SOL     OW 1497   0.960   2.111   2.246 -0.1492 -0.5174 -0.1296
  375SOL    HW1 1498   1.001   2.075   2.325  2.2893  0.3777  0.2487
  375SOL    HW2 1499   0.941   2.027   2.203  0.0474 -2.1803 -3.2239
  375SOL     MW 1500   0.963   2.095   2.251  0.1984 -0.6187 -0.4879
  376SOL     OW 1501   0.794   2.555   0.074  0.6802  0.2972 -0.3802
  376SOL    HW1 1502   0.763   2.541   0.160  0.9231  1.1897  1.8941
  376SOL    HW2 1503   0.758   2.494   0.010 -1.1877 -2.2062 -2.9291
  376SOL     MW 1504   0.785   2.545   0.077  0.4658  0.0847 -0.4164
  377SOL     OW 1505   1.252   2.005   0.851 -0.0335 -0.2524 -0.3329
  377SOL    HW1 1506   1.165   2.006   0.795  1.4651 -0.6730 -1.4627
  377SOL    HW2 1507   1.236   1.960   0.933 -1.5381  0.3259 -1.2912
  377SOL     MW 1508   1.239   1.999   0.854 -0.0343 -0.2316 -0.6084
  378SOL     OW 1509   0.872   2.842   1.581  0.0959  0.2231  0.1316
  378SOL    HW1 1510   0.896   2.749   1.570  1.1454 -1.0210  0.1015
  378SOL    HW2 1511   0.846   2.866   1.496  1.3883 -0.5693  0.5342
  378SOL     MW 1512   0.872   2.833   1.569  0.4049 -0.0456  0.1808
  379SOL     OW 1513   1.152   1.720   2.260 -0.8299 -0.5227 -0.1088
  379SOL    HW1 1514   1.072   1.668   2.255 -0.6590 -1.3070 -4.0746
  379SOL    HW2 1515   1.219   1.685   2.197  1.2611 -0.9126 -0.5137
  379SOL     MW 1516   1.150   1.708   2.251 -0.5315 -0.6777 -0.6854
  380SOL     OW 1517   0.836   0.113   1.542  0.5095 -0.0927 -0.8091
  380SOL    HW1 1518   0.864   0.065   1.459  1.4859 -1.2960 -3.3853
  380SOL    HW2 1519   0.918   0.136   1.582  1.2853  0.7030 -0.8050
  380SOL     MW 1520   0.850   0.110   1.536  0.7407 -0.1465 -1.1485
  381SOL     OW 1521   0.770   2.014   0.814 -0.5378  0.3050  0.2506
  381SOL    HW1 1522   0.859   1.999   0.783  2.1836  0.8577  2.3591
  381SOL    HW2 1523   0.788   2.084   0.884  0.3867  1.8529 -0.3081
  381SOL     MW 1524   0.784   2.021   0.819 -0.0568  0.5822  0.4551
  382SOL     OW 1525   0.721   0.090   0.660 -0.1992 -0.0825 -0.8094
  382SOL    HW1 1526   0.678   0.096   0.746  0.0477 -0.9635 -2.2806
  382SOL    HW2 1527   0.701  -0.001   0.643  2.6592  3.1933 -0.6732
  382SOL     MW 1528   0.713   0.079   0.669  0.2105  0.2335 -0.9855
  383SOL     OW 1529   0.542   0.037   0.269 -0.1868 -0.0367  0.5004
  383SOL    HW1 1530   0.580  -0.025   0.206  0.7797  1.0056  0.5970
  383SOL    HW2 1531   0.528  -0.019   0.351 -1.0324 -1.1222  0.6879
  383SOL     MW 1532   0.545   0.022   0.271 -0.1708 -0.0424  0.5379
  384SOL     OW 1533   0.710   2.920   0.613  0.4309  0.3162 -0.5283
  384SOL    HW1 1534   0.793   2.902   0.664  0.8326 -0.6003 -1.7075
  384SOL    HW2 1535   0.656   2.841   0.631  0.1911 -1.1517 -0.3438
  384SOL     MW 1536   0.714   2.907   0.622  0.4522  0.0016 -0.6595
  385SOL     OW 1537   1.402   2.085   1.494  0.4779 -0.3712 -0.1529
  385SOL    HW1 1538   1.486   2.114   1.533  1.6386  1.2589 -1.6287
  385SOL    HW2 1539   1.364   2.030   1.561 -5.4557  1.4272 -0.2960
  385SOL     MW 1540   1.408   2.081   1.508 -0.1519  0.0812 -0.3665
  386SOL     OW 1541   1.263   0.380   0.877 -0.8073  0.1201 -0.1625
  386SOL    HW1 1542   1.219   0.428   0.952 -0.0643 -1.4052  0.8486
  386SOL    HW2 1543   1.293   0.296   0.913 -0.5311 -1.1453  1.7144
  386SOL     MW 1544   1.261   0.376   0.892 -0.6729 -0.2481  0.2185
  387SOL     OW 1545   0.842   2.222   1.542 -0.5367 -0.0714  0.2929
  387SOL    HW1 1546   0.911   2.268   1.482  1.3757 -0.7685 -0.3746
  387SOL    HW2 1547   0.835   2.136   1.498 -0.2858  0.2051 -0.1798
  387SOL     MW 1548   0.850   2.217   1.528 -0.2513 -0.1269  0.1425
  388SOL     OW 1549   1.526   2.770   1.219 -0.8617  0.5886  0.4884
  388SOL    HW1 1550   1.433   2.785   1.228  2.1079  0.8106  1.5433
  388SOL    HW2 1551   1.532   2.689   1.170  1.6686 -0.7926  0.8823
  388SOL     MW 1552   1.515   2.761   1.214 -0.1360  0.4356  0.6796
  389SOL     OW 1553   0.442   0.135   3.019  0.6293  0.1762  0.1275
  389SOL    HW1 1554   0.536   0.122   3.023  0.3707  0.6410 -0.5095
  389SOL    HW2 1555   0.439   0.196   2.940 -2.0007 -3.4129  1.2732
  389SOL     MW 1556   0.454   0.141   3.009  0.2482 -0.2360  0.1946
  390SOL     OW 1557   1.326   0.069   0.726  0.3666 -0.5924 -0.0955
  390SOL    HW1 1558   1.355   0.088   0.637 -0.0149  0.2976  2.9615
  390SOL    HW2 1559   1.393   0.102   0.788 -0.3456  0.7015 -2.3446
  390SOL     MW 1560   1.339   0.076   0.722  0.2223 -0.3043  0.0111
  391SOL     OW 1561   0.350   2.230   1.418  0.5506 -0.5490 -0.0561
  391SOL    HW1 1562   0.307   2.144   1.424  0.2744  2.4769 -0.0158
  391SOL    HW2 1563   0.297   2.290   1.467  0.4043 -0.2117  2.4608
  391SOL     MW 1564   0.337   2.226   1.425  0.4948 -0.1053  0.2813
  392SOL     OW 1565   2.029   2.191   0.336  0.3370  0.3250  0.7746
  392SOL    HW1 1566   2.118   2.185   0.373  1.2503 -1.8890  0.1132
  392SOL    HW2 1567   1.978   2.231   0.401 -1.3722 -1.2705 -1.1287
  392SOL     MW 1568   2.034   2.195   0.349  0.2320 -0.1776  0.4362
  393SOL     OW 1569   0.288   2.933   2.787  0.1562 -0.7223  0.0231
  393SOL    HW1 1570   0.377   2.919   2.743 -1.5685  1.5518  1.5924
  393SOL    HW2 1571   0.284   3.026   2.806  0.2710 -0.9699 -0.5117
  393SOL     MW 1572   0.299   2.944   2.784 -0.0562 -0.4550  0.1596
  394SOL     OW 1573   0.888   1.755   1.543  0.0332  0.3491 -0.1581
  394SOL    HW1 1574   0.819   1.768   1.617 -0.6549 -0.7644  1.6829
  394SOL    HW2 1575   0.876   1.838   1.487  0.8075  0.2027  0.5028
  394SOL     MW 1576   0.877   1.768   1.546  0.0445  0.1829  0.1720
  395SOL     OW 1577   0.942   2.903   2.654  0.1337  0.2368 -0.6330
  395SOL    HW1 1578   1.008   2.956   2.699 -0.8875 -1.9932  1.1202
  395SOL    HW2 1579   0.987   2.846   2.592  0.5417  1.1107 -0.7515
  395SOL     MW 1580   0.957   2.903   2.652  0.0528  0.0579 -0.4173
  396SOL     OW 1581   0.704   1.840   2.381 -0.3467 -0.1423 -0.0296
  396SOL    HW1 1582   0.778   1.854   2.445  1.3830  2.0779  0.2002
  396SOL    HW2 1583   0.692   1.749   2.364  2.6474  1.7057 -1.6061
  396SOL     MW 1584   0.712   1.830   2.387  0.2765  0.3945 -0.2073
  397SOL     OW 1585   1.033   2.361   1.396  0.4988  0.1596  0.5951
  397SOL    HW1 1586   1.050   2.383   1.304  0.8008  0.5973 -1.0304
  397SOL    HW2 1587   1.117   2.341   1.434 -1.9334  2.5719  2.1645
  397SOL     MW 1588   1.046   2.361   1.389  0.2177  0.5356  0.5877
  398SOL     OW 1589   0.574   2.684   0.658  0.3844  0.5315 -0.0951
  398SOL    HW1 1590   0.496   2.626   0.641  1.6826  1.0107  0.2543
  398SOL    HW2 1591   0.650   2.624   0.658 -2.2861  1.1506 -1.5446
  398SOL     MW 1592   0.574   2.669   0.656  0.2033  0.6764 -0.2402
  399SOL     OW 1593   0.231   2.088   0.290  0.2415 -0.0633 -0.1586
  399SOL    HW1 1594   0.147   2.124   0.324 -0.8094 -1.6109  1.5914
  399SOL    HW2 1595   0.238   2.110   0.201  0.6826  2.5248  3.1060
  399SOL     MW 1596   0.221   2.095   0.283  0.1610  0.0740  0.5030
  400SOL     OW 1597   0.539   1.927   0.085  0.6303  0.0562 -0.5202
  400SOL    HW1 1598   0.469   1.995   0.068  0.3421  3.1215 -0.6304
  400SOL    HW2 1599   0.515   1.883   0.167 -0.7854 -1.7271 -1.5682
  400SOL     MW 1600   0.526   1.930   0.094  0.4055  0.2253 -0.6730
  401SOL     OW 1601   0.780   2.045   0.061  0.0586 -0.1608  0.2871
  401SOL    HW1 1602   0.845   1.973   0.061  0.6842  2.7761 -1.9140
  401SOL    HW2 1603   0.696   1.993   0.067 -0.4041 -0.3538  0.9155
  401SOL     MW 1604   0.778   2.029   0.062  0.0801  0.2012  0.0796
  402SOL     OW 1605   0.608   2.950   1.744 -0.5888  0.0219  0.4681
  402SOL    HW1 1606   0.686   2.922   1.786  1.5242  1.4586  0.0085
  402SOL    HW2 1607   0.631   3.036   1.705 -0.3713 -0.0417 -1.5823
  402SOL     MW 1608   0.621   2.958   1.744 -0.2813  0.2031  0.1369
  403SOL     OW 1609   0.085   0.411   0.401 -0.3028  0.2780  0.0238
  403SOL    HW1 1610   0.160   0.465   0.429 -0.4897 -1.7455  0.0624
  403SOL    HW2 1611   0.113   0.376   0.318  0.2721 -0.2860 -0.3867
  403SOL     MW 1612   0.099   0.413   0.394 -0.2516 -0.0634 -0.0253
  404SOL     OW 1613   0.942   2.901   0.743 -0.3122  0.2117 -0.5909
  404SOL    HW1 1614   1.016   2.836   0.734  0.2284 -1.8513  1.7486
  404SOL    HW2 1615   0.978   2.993   0.745  0.6443  1.0031 -1.5806
  404SOL     MW 1616   0.957   2.904   0.742 -0.1147  0.0439 -0.4128
  405SOL     OW 1617   0.560   2.424   1.542  0.1382 -0.2221 -0.2033
  405SOL    HW1 1618   0.572   2.464   1.457  0.6380 -1.5128 -1.8191
  405SOL    HW2 1619   0.492   2.366   1.517  1.6850  0.6707 -0.2104
  405SOL     MW 1620   0.553   2.421   1.527  0.4083 -0.2746 -0.4174
  406SOL     OW 1621   0.340   2.413   1.068 -0.9739  0.2055  0.4879
  406SOL    HW1 1622   0.245   2.421   1.092 -1.8556 -1.0367  1.3813
  406SOL    HW2 1623   0.363   2.320   1.091 -0.3866 -0.3276 -2.6854
  406SOL     MW 1624   0.331   2.402   1.074 -1.0128 -0.0287  0.1871
  407SOL     OW 1625   0.017   2.710   1.140 -0.2564  0.4481 -0.3699
  407SOL    HW1 1626   0.061   2.686   1.227  1.1838  0.1913  1.7161
  407SOL    HW2 1627   0.093   2.717   1.076  1.8028 -0.0974  1.5211
  407SOL     MW 1628   0.033   2.707   1.143  0.2053  0.3422  0.1548
  408SOL     OW 1629   2.155   2.149   0.607 -0.1453 -0.2385 -0.3608
  408SOL    HW1 1630   2.108   2.201   0.671  1.6205  1.9259 -2.9693
  408SOL    HW2 1631   2.090   2.088   0.569 -3.1698 -1.3495  2.1841
  408SOL     MW 1632   2.140   2.148   0.611 -0.3113 -0.0995 -0.3692
  409SOL     OW 1633   1.471   0.143   0.955  1.1270  0.3937  0.4569
  409SOL    HW1 1634   1.552   0.191   0.966 -0.7696  1.4291  0.2221
  409SOL    HW2 1635   1.484   0.060   1.005 -2.4297 -1.3011  0.0045
  409SOL     MW 1636   1.484   0.139   0.963  0.4075  0.3067  0.3662
  410SOL     OW 1637   1.091   2.435   1.138  0.3325 -0.2378  0.0777
  410SOL    HW1 1638   1.011   2.490   1.111 -3.4929 -1.4509  0.6483
  410SOL    HW2 1639   1.113   2.392   1.055  0.2329  1.9732  1.1124
  410SOL     MW 1640   1.083   2.437   1.123 -0.1854 -0.1061  0.2895
  411SOL     OW 1641   1.950   0.069   2.865 -0.3359 -0.0686  0.2853
  411SOL    HW1 1642   1.888   0.037   2.802  0.0186 -0.5337  1.6605
  411SOL    HW2 1643   1.896   0.087   2.940 -0.5610 -0.1411 -2.3306
  411SOL     MW 1644   1.935   0.067   2.867 -0.3189 -0.1395  0.1216
  412SOL     OW 1645   1.057   2.258   0.558  0.0454 -0.7568 -0.2765
  412SOL    HW1 1646   1.084   2.341   0.602 -2.9120 -1.1783  0.9459
  412SOL    HW2 1647   0.977   2.282   0.516 -4.4997 -0.5397  0.2433
  412SOL     MW 1648   1.050   2.272   0.558 -0.9445 -0.7838 -0.0466
  413SOL     OW 1649   0.543   2.718   3.064 -0.3350  0.1277  0.1251
  413SOL    HW1 1650   0.598   2.637   3.074  0.7225 -2.7178 -2.1743
  413SOL    HW2 1651   0.587   2.771   2.993  3.0524  4.5641 -0.8314
  413SOL     MW 1652   0.556   2.715   3.056  0.2514  0.3376 -0.3045
  414SOL     OW 1653   1.955   2.975   1.124  1.0279  0.1822  0.3898
  414SOL    HW1 1654   1.895   3.048   1.137 -1.4245  1.6658  0.8532
  414SOL    HW2 1655   2.020   3.007   1.059  2.5987  2.1814  1.0787
  414SOL     MW 1656   1.956   2.989   1.118  0.9116  0.6417  0.5418
  415SOL     OW 1657   1.835   2.708   1.068 -0.7563 -0.2769  0.3492
  415SOL    HW1 1658   1.784   2.713   1.147  2.1695  0.3319  0.9441
  415SOL    HW2 1659   1.856   2.798   1.054 -0.3579 -0.2124 -1.5616
  415SOL     MW 1660   1.831   2.720   1.077 -0.3177 -0.1880  0.1756
  416SOL     OW 1661   0.573   1.974   1.340 -0.3792  0.5489  0.0123
  416SOL    HW1 1662   0.553   2.040   1.275 -2.0171  0.4118 -2.0373
  416SOL    HW2 1663   0.567   1.889   1.299  0.8029 -2.3416  1.3367
  416SOL     MW 1664   0.570   1.971   1.326 -0.4393  0.1494 -0.0834
  417SOL     OW 1665   0.987   3.002   2.055  0.3431 -0.0614 -0.0504
  417SOL    HW1 1666   0.945   3.026   2.144 -1.7100 -0.4412  2.2408
  417SOL    HW2 1667   0.925   2.966   1.990 -1.2024  0.4198  0.6373
  417SOL     MW 1668   0.973   3.000   2.058 -0.1317 -0.0480  0.3427
  418SOL     OW 1669   0.656   2.927   0.116 -0.0446 -0.0986  0.5886
  418SOL    HW1 1670   0.736   2.911   0.061  0.0136 -1.2973  0.0203
  418SOL    HW2 1671   0.592   2.859   0.085  0.1590 -0.1578 -1.8984
  418SOL     MW 1672   0.658   2.916   0.104 -0.0100 -0.2646  0.1855
  419SOL     OW 1673   0.487   2.626   1.330 -0.1412  0.5007 -0.3565
  419SOL    HW1 1674   0.517   2.697   1.386 -2.4842  0.4574 -0.1507
  419SOL    HW2 1675   0.534   2.628   1.247 -1.6570 -4.6117 -0.9414
  419SOL     MW 1676   0.497   2.636   1.327 -0.6503 -0.1796 -0.4065
  420SOL     OW 1677   0.849   2.214   1.039 -0.5052 -0.1212  0.2547
  420SOL    HW1 1678   0.777   2.253   1.086 -1.5841 -0.5890 -1.2526
  420SOL    HW2 1679   0.883   2.283   0.988 -1.7835 -2.4581  1.1638
  420SOL     MW 1680   0.844   2.229   1.038 -0.8162 -0.4913  0.1758
  421SOL     OW 1681   2.978   0.213   3.055  0.6113 -0.4017 -0.1744
  421SOL    HW1 1682   2.899   0.196   3.005 -1.1864  2.3787 -3.2035
  421SOL    HW2 1683   3.020   0.130   3.064  1.2131  1.5496  1.8000
  421SOL     MW 1684   2.973   0.200   3.050  0.4535  0.2226 -0.3136
  422SOL     OW 1685   0.890   2.517   0.935 -0.0942 -0.7097 -0.2339
  422SOL    HW1 1686   0.871   2.610   0.944  0.3394  1.6594  0.7063
  422SOL    HW2 1687   0.867   2.504   0.841 -0.5734 -0.4819  0.9350
  422SOL     MW 1688   0.884   2.528   0.923 -0.1002 -0.3670  0.0444
  423SOL     OW 1689   1.442   0.102   0.468 -0.1169 -0.2130  0.3779
  423SOL    HW1 1690   1.438   0.069   0.380 -3.3947  0.4344 -0.3705
  423SOL    HW2 1691   1.451   0.193   0.470  2.9886 -0.1177  0.2310
  423SOL     MW 1692   1.442   0.110   0.457 -0.1396 -0.1150  0.2597
  424SOL     OW 1693   0.673   2.311   1.244 -0.2339 -0.3751  0.5758
  424SOL    HW1 1694   0.577   2.300   1.223  1.1317  2.3004  1.7885
  424SOL    HW2 1695   0.700   2.260   1.320 -0.6173 -0.6381 -0.9049
  424SOL     MW 1696   0.664   2.303   1.252 -0.1043 -0.0568  0.5404
  425SOL     OW 1697   1.720   2.788   2.034 -0.1187 -0.4008  0.3991
  425SOL    HW1 1698   1.708   2.810   1.934  2.3921 -1.0723  0.1153
  425SOL    HW2 1699   1.755   2.701   2.021  0.4102  0.7123 -3.5255
  425SOL     MW 1700   1.723   2.780   2.019  0.2823 -0.3426 -0.1562
  426SOL     OW 1701   0.827   1.665   1.952  0.3526 -0.2105 -0.4410
  426SOL    HW1 1702   0.773   1.687   1.875 -0.4730 -0.2414  2.6288
  426SOL    HW2 1703   0.843   1.744   2.000  0.1688 -1.3581 -0.4216
  426SOL     MW 1704   0.822   1.678   1.949  0.2194 -0.3660 -0.0334
  427SOL     OW 1705   0.401   1.669   1.875 -0.0789 -0.1512 -0.3911
  427SOL    HW1 1706   0.410   1.628   1.784  0.0842  1.0264 -2.1104
  427SOL    HW2 1707   0.316   1.636   1.905 -1.0622 -0.5761 -0.0691
  427SOL     MW 1708   0.391   1.660   1.867 -0.1871 -0.0519 -0.5754
  428SOL     OW 1709   0.563   2.550   1.028 -0.4126  0.0365 -0.6628
  428SOL    HW1 1710   0.622   2.471   1.032  0.1969  1.4178  1.4796
  428SOL    HW2 1711   0.473   2.503   1.038 -0.1944 -2.6298 -0.5591
  428SOL     MW 1712   0.559   2.533   1.030 -0.3034 -0.1331 -0.3664
  429SOL     OW 1713   1.251   2.807   1.130  0.2308  0.3724 -0.2373
  429SOL    HW1 1714   1.176   2.788   1.183  1.7543  0.3122 -0.2157
  429SOL    HW2 1715   1.225   2.878   1.072 -3.2811  0.0412  0.8228
  429SOL     MW 1716   1.238   2.814   1.129 -0.0315  0.3207 -0.0946
  430SOL     OW 1717   1.157   2.717   0.713 -0.1496  0.2209 -0.3300
  430SOL    HW1 1718   1.164   2.642   0.769  1.4151 -0.2770  1.2122
  430SOL    HW2 1719   1.153   2.692   0.626  1.4498  1.1945  2.3005
  430SOL     MW 1720   1.157   2.704   0.709  0.2679  0.2837  0.2206
  431SOL     OW 1721   0.342   1.957   1.017 -0.8456  0.0872 -0.3596
  431SOL    HW1 1722   0.392   1.879   1.009  0.2824  3.4755 -0.4905
  431SOL    HW2 1723   0.307   1.970   0.926  2.3999  1.2048  0.6440
  431SOL     MW 1724   0.344   1.948   1.004 -0.2686  0.6817 -0.2445
  432SOL     OW 1725   0.083   0.049   1.193 -0.6097 -0.0271 -0.0510
  432SOL    HW1 1726   0.060   0.086   1.278  0.8264  2.0481 -2.5894
  432SOL    HW2 1727   0.029  -0.027   1.184  1.1225  1.3959 -1.3320
  432SOL     MW 1728   0.073   0.044   1.203 -0.1916  0.4344 -0.5549
  433SOL     OW 1729   0.612   2.811   1.507  0.0628  0.1172 -0.2772
  433SOL    HW1 1730   0.576   2.852   1.589  2.0189 -0.7289 -0.1584
  433SOL    HW2 1731   0.704   2.792   1.534  2.5823 -0.0916 -0.7046
  433SOL     MW 1732   0.619   2.814   1.521  0.6533 -0.0220 -0.3179
  434SOL     OW 1733   1.598   2.794   1.530 -0.0465 -1.1030 -0.1102
  434SOL    HW1 1734   1.514   2.816   1.485 -1.5145  1.5145  2.3320
  434SOL    HW2 1735   1.647   2.736   1.468 -0.9105  0.0468 -1.4196
  434SOL     MW 1736   1.593   2.790   1.516 -0.3542 -0.6060  0.0393
  435SOL     OW 1737   2.827   1.792   0.176 -0.5223  0.1767 -0.0865
  435SOL    HW1 1738   2.899   1.854   0.159  0.2561 -0.3162 -0.3872
  435SOL    HW2 1739   2.795   1.774   0.080  0.7812  0.2222  0.9302
  435SOL     MW 1740   2.832   1.798   0.161 -0.2476  0.1177  0.0080
  436SOL     OW 1741   1.403   2.673   0.437  0.0871  0.3101 -0.7289
  436SOL    HW1 1742   1.423   2.666   0.528 -0.4492 -0.9065  0.4915
  436SOL    HW2 1743   1.364   2.757   0.437 -0.3528  2.8582 -1.8372
  436SOL     MW 1744   1.401   2.683   0.449 -0.0417  0.4858 -0.7141
  437SOL     OW 1745   0.884   2.998   1.349  0.3732  0.4738 -0.1806
  437SOL    HW1 1746   0.962   3.055   1.351  0.8709 -0.8771  0.5747
  437SOL    HW2 1747   0.884   2.933   1.277 -0.7853 -0.2814 -0.7629
  437SOL     MW 1748   0.894   2.997   1.340  0.2860  0.1959 -0.1578
  438SOL     OW 1749   0.809   2.598   1.856  0.1015 -0.2493 -0.0063
  438SOL    HW1 1750   0.815   2.584   1.952 -0.8125 -2.6896  0.3612
  438SOL    HW2 1751   0.782   2.511   1.829 -1.5987  2.9613  1.5070
  438SOL     MW 1752   0.806   2.584   1.865 -0.2434 -0.1477  0.2418
  439SOL     OW 1753   1.235   2.131   0.403 -0.2149 -0.9467  0.2942
  439SOL    HW1 1754   1.176   2.166   0.470  1.7221  0.1745 -0.6204
  439SOL    HW2 1755   1.226   2.196   0.331  1.4162 -0.5442 -0.0937
  439SOL     MW 1756   1.226   2.144   0.402  0.2559 -0.7457  0.1224
  440SOL     OW 1757   1.751   3.013   3.063 -0.2113 -0.4785  0.0660
  440SOL    HW1 1758   1.697   2.975   3.135 -2.7725  1.1384  1.5508
  440SOL    HW2 1759   1.831   2.964   3.062 -0.2520  0.3108  0.1403
  440SOL     MW 1760   1.755   3.002   3.072 -0.5546 -0.1610  0.2717
  441SOL     OW 1761   0.343   2.654   0.478  0.5742  0.1388  0.8032
  441SOL    HW1 1762   0.323   2.613   0.389 -4.1331 -0.7420 -1.3243
  441SOL    HW2 1763   0.381   2.743   0.468 -1.7016 -0.2081  1.4708
  441SOL     MW 1764   0.346   2.660   0.465 -0.3471 -0.0232  0.6106
  442SOL     OW 1765   3.094   2.391   0.633 -0.6616 -0.4849 -0.1790
  442SOL    HW1 1766   3.103   2.482   0.600 -1.7014  3.4790 -1.2940
  442SOL    HW2 1767   3.005   2.371   0.658  0.7243 -1.1059 -0.6575
  442SOL     MW 1768   3.083   2.400   0.632 -0.6159 -0.0438 -0.3892
  443SOL     OW 1769   1.439   1.774   1.937  0.5988 -0.6516  0.1796
  443SOL    HW1 1770   1.383   1.766   1.859 -3.1714 -0.1876  2.1234
  443SOL    HW2 1771   1.421   1.704   1.997 -0.4524  0.0191 -0.8092
  443SOL     MW 1772   1.429   1.764   1.935 -0.0374 -0.5019  0.3056
  444SOL     OW 1773   0.850   2.576   1.575  0.2957 -0.1181  0.5980
  444SOL    HW1 1774   0.926   2.532   1.614 -1.7978 -0.3606 -1.4946
  444SOL    HW2 1775   0.778   2.522   1.605  0.6050 -1.0855  1.1607
  444SOL     MW 1776   0.851   2.563   1.584  0.0603 -0.2777  0.3961
  445SOL     OW 1777   1.095   0.079   1.321  0.3732 -0.0995 -0.4558
  445SOL    HW1 1778   1.055   0.166   1.312  0.5834  2.0530  1.6701
  445SOL    HW2 1779   1.096   0.060   1.227  1.2650 -1.1905  1.0810
  445SOL     MW 1780   1.090   0.088   1.307  0.5186  0.0405  0.0275
  446SOL     OW 1781   2.755   2.892   1.100  0.2635 -0.3555 -0.2498
  446SOL    HW1 1782   2.704   2.937   1.032  2.0859 -0.4820  0.5428
  446SOL    HW2 1783   2.800   2.816   1.062 -0.4422 -3.5739  0.3124
  446SOL     MW 1784   2.754   2.888   1.086  0.4108 -0.7968 -0.0711
  447SOL     OW 1785   0.060   1.996   1.640 -0.2347 -0.0532  0.1035
  447SOL    HW1 1786   0.103   1.911   1.665 -1.1874  0.0267 -0.3303
  447SOL    HW2 1787  -0.027   1.954   1.623 -0.7689 -1.0594  0.0983
  447SOL     MW 1788   0.054   1.979   1.641 -0.4309 -0.1754  0.0456
  448SOL     OW 1789   1.720   2.417   1.645 -0.7152 -0.3342  0.2821
  448SOL    HW1 1790   1.692   2.325   1.624  0.3081  0.7768 -0.3616
  448SOL    HW2 1791   1.636   2.460   1.660  1.9963 -1.1139  3.0187
  448SOL     MW 1792   1.705   2.410   1.645 -0.2224 -0.2905  0.5583
  449SOL     OW 1793   0.829   2.895   0.355 -0.0646  0.0626  0.5371
  449SOL    HW1 1794   0.763   2.881   0.290  1.1045 -1.7917 -2.1777
  449SOL    HW2 1795   0.771   2.887   0.434  0.3042  1.1105 -0.2380
  449SOL     MW 1796   0.813   2.892   0.357  0.1383 -0.0438  0.0766
  450SOL     OW 1797   1.185   2.441   0.712 -0.2184 -0.0579  0.0572
  450SOL    HW1 1798   1.192   2.388   0.797  1.4685 -3.8780  0.5543
  450SOL    HW2 1799   1.275   2.445   0.692 -0.0042 -0.4482  0.4289
  450SOL     MW 1800   1.198   2.435   0.721  0.0324 -0.6134  0.1718
  451SOL     OW 1801   0.547   2.044   1.632  0.1097 -0.5525  0.4059
  451SOL    HW1 1802   0.584   2.134   1.623 -2.6059 -0.1519 -0.1154
  451SOL    HW2 1803   0.528   2.021   1.538  1.1773  0.1863  0.4622
  451SOL     MW 1804   0.550   2.053   1.619 -0.1077 -0.4022  0.3445
  452SOL     OW 1805   0.285   2.676   0.043 -0.2852 -0.3529  0.4969
  452SOL    HW1 1806   0.362   2.725   0.028 -1.6913  0.3909 -1.5708
  452SOL    HW2 1807   0.215   2.713  -0.006  3.4279 -1.5074 -0.4982
  452SOL     MW 1808   0.286   2.687   0.035  0.0192 -0.4071  0.0928
  453SOL     OW 1809   0.334   2.981   1.615 -0.1283 -0.1697 -0.7280
  453SOL    HW1 1810   0.397   2.938   1.679 -0.0291  1.3918  1.3439
  453SOL    HW2 1811   0.389   3.017   1.540 -1.9098  0.8306 -0.2084
  453SOL     MW 1812   0.350   2.980   1.613 -0.3503  0.1683 -0.3861
  454SOL     OW 1813   0.968   2.757   1.224  0.2045  0.1731  0.0049
  454SOL    HW1 1814   0.919   2.674   1.252 -0.3249  0.6659  1.5284
  454SOL    HW2 1815   0.936   2.766   1.132 -4.9219 -4.1581 -0.3369
  454SOL     MW 1816   0.957   2.747   1.216 -0.5417 -0.3334  0.1608
  455SOL     OW 1817   1.605   2.880   0.159 -0.1458 -0.8838 -0.1447
  455SOL    HW1 1818   1.673   2.905   0.227  0.1341  2.0757  0.4133
  455SOL    HW2 1819   1.598   2.786   0.189  3.0005 -0.9959 -1.2083
  455SOL     MW 1820   1.613   2.871   0.172  0.3063 -0.5081 -0.2114
  456SOL     OW 1821   2.738   0.362   1.501  0.1247  0.5283  0.7556
  456SOL    HW1 1822   2.720   0.288   1.444 -2.0022 -2.5936 -1.8404
  456SOL    HW2 1823   2.786   0.421   1.443 -2.3485 -1.5574  2.1455
  456SOL     MW 1824   2.742   0.360   1.486 -0.4822 -0.1588  0.5965
  457SOL     OW 1825   0.922   1.564   2.991 -0.8697  0.5050  0.7824
  457SOL    HW1 1826   0.853   1.554   3.063 -1.5059  1.9151  3.7290
  457SOL    HW2 1827   0.986   1.505   3.027 -1.4540  3.6801  2.2598
  457SOL     MW 1828   0.921   1.555   3.006 -1.0307  1.1100  1.3661
  458SOL     OW 1829   1.378   1.475   0.569 -0.6256  0.1287  0.0066
  458SOL    HW1 1830   1.350   1.568   0.561  1.7378  0.3682 -1.6932
  458SOL    HW2 1831   1.358   1.432   0.484  0.0463  0.4787 -1.3905
  458SOL     MW 1832   1.372   1.481   0.557 -0.2251  0.2065 -0.4020
  459SOL     OW 1833   1.481   0.030   0.202 -0.2398 -0.3018  0.6286
  459SOL    HW1 1834   1.509  -0.062   0.186  1.6147 -0.3719 -1.2015
  459SOL    HW2 1835   1.415   0.045   0.134  1.6098  2.8826 -2.2167
  459SOL     MW 1836   1.476   0.020   0.191  0.2489  0.1091  0.0118
  460SOL     OW 1837   1.761   2.127   0.606 -0.0265 -0.4434  0.2497
  460SOL    HW1 1838   1.683   2.129   0.667 -1.3536 -2.1561 -0.8405
  460SOL    HW2 1839   1.798   2.039   0.624  0.5887  0.5260  2.1837
  460SOL     MW 1840   1.756   2.116   0.617 -0.1204 -0.5414  0.3610
  461SOL     OW 1841   0.381   2.382   0.569  0.2924  0.3773 -0.3847
  461SOL    HW1 1842   0.393   2.456   0.515  2.0777 -0.4803  0.5030
  461SOL    HW2 1843   0.315   2.413   0.631 -0.7844  1.2267  1.3990
  461SOL     MW 1844   0.374   2.396   0.570  0.3859  0.3762 -0.0322
  462SOL     OW 1845   0.338   0.263   1.291 -1.4736 -0.4671  0.3046
  462SOL    HW1 1846   0.331   0.202   1.215  0.5027  2.0739 -0.2120
  462SOL    HW2 1847   0.432   0.291   1.287 -0.9324  0.8471  0.7403
  462SOL     MW 1848   0.350   0.259   1.280 -1.1415  0.0416  0.2940
  463SOL     OW 1849   0.997   0.081   0.685 -0.4241  0.2525 -0.0288
  463SOL    HW1 1850   1.023   0.104   0.598 -0.3468  0.5275  2.1515
  463SOL    HW2 1851   0.900   0.083   0.692  1.7833 -2.4229  0.8578
  463SOL     MW 1852   0.988   0.085   0.675 -0.1227 -0.0642  0.3758
  464SOL     OW 1853   0.793   3.074   2.281 -0.4537  0.2529 -0.1759
  464SOL    HW1 1854   0.796   2.981   2.262 -1.7308  1.5825 -1.0191
  464SOL    HW2 1855   0.794   3.081   2.375 -1.5177  0.2091 -3.0741
  464SOL     MW 1856   0.794   3.063   2.291 -0.7626  0.4225 -0.6695
  465SOL     OW 1857   0.772   0.294   0.497  1.0870 -0.0792 -0.5272
  465SOL    HW1 1858   0.718   0.225   0.541  1.1774  0.5320 -0.2914
  465SOL    HW2 1859   0.753   0.273   0.404  0.5867 -0.1956  1.4606
  465SOL     MW 1860   0.763   0.282   0.490  1.0329 -0.0139 -0.2338
  466SOL     OW 1861   1.025   2.018   0.707 -0.5737  0.6890  0.2195
  466SOL    HW1 1862   1.023   1.932   0.663  1.1838  1.1719 -0.9982
  466SOL    HW2 1863   1.034   2.090   0.642 -2.0583  0.7645  0.0353
  466SOL     MW 1864   1.026   2.016   0.692 -0.5377  0.7627  0.0346
  467SOL     OW 1865   1.218   2.271   0.935 -0.0653  0.6432  0.2306
  467SOL    HW1 1866   1.308   2.304   0.926  0.5323  1.1205  0.0368
  467SOL    HW2 1867   1.227   2.178   0.915 -0.1175 -0.6489 -1.1351
  467SOL     MW 1868   1.231   2.263   0.931  0.0066  0.5357  0.0248
  468SOL     OW 1869   0.388   2.633   2.013  0.2243  0.1586 -0.6577
  468SOL    HW1 1870   0.416   2.584   1.935  2.6080  0.3351  2.3898
  468SOL    HW2 1871   0.294   2.642   2.001  2.9336 -0.4713  1.6438
  468SOL     MW 1872   0.379   2.628   2.001  0.8963  0.0988  0.0480
  469SOL     OW 1873   0.373   2.162   1.825  0.3310 -0.3641  0.4005
  469SOL    HW1 1874   0.309   2.100   1.862 -1.9476  0.2354  0.0603
  469SOL    HW2 1875   0.430   2.105   1.766  0.2129 -0.2183  1.4518
  469SOL     MW 1876   0.372   2.147   1.822  0.0148 -0.2658  0.4943
  470SOL     OW 1877   3.030   2.631   0.120 -0.0069  0.2520  0.5881
  470SOL    HW1 1878   2.962   2.609   0.181 -1.6433 -0.5067  0.7232
  470SOL    HW2 1879   2.989   2.632   0.030  1.4178 -0.8504 -0.4793
  470SOL     MW 1880   3.015   2.628   0.116 -0.0348  0.0064  0.4651
  471SOL     OW 1881   1.187   2.680   1.448 -0.2765 -0.2240  0.0804
  471SOL    HW1 1882   1.168   2.624   1.520  1.5322 -1.4453 -3.0714
  471SOL    HW2 1883   1.112   2.660   1.394  1.2648 -4.1355 -1.7374
  471SOL     MW 1884   1.175   2.670   1.451  0.1655 -0.9012 -0.5753
  472SOL     OW 1885   2.851   2.104   0.323 -0.2118  0.5886 -0.0302
  472SOL    HW1 1886   2.908   2.055   0.254  0.2990  2.7978 -2.8759
  472SOL    HW2 1887   2.803   2.043   0.379  0.7812 -0.5319 -0.0002
  472SOL     MW 1888   2.852   2.090   0.321 -0.0134  0.7322 -0.4017
  473SOL     OW 1889   0.840   2.539   1.262 -0.4825  0.3426  0.1183
  473SOL    HW1 1890   0.781   2.468   1.227 -0.8746  1.6178 -1.5832
  473SOL    HW2 1891   0.870   2.500   1.344  2.2452 -1.8085 -1.3924
  473SOL     MW 1892   0.836   2.524   1.268 -0.1743  0.2270 -0.3055
  474SOL     OW 1893   0.870   2.090   1.801 -0.1552 -0.7176  0.2287
  474SOL    HW1 1894   0.944   2.143   1.823 -0.7825 -0.2890 -2.7300
  474SOL    HW2 1895   0.866   2.104   1.707  1.7285  0.8286  1.3974
  474SOL     MW 1896   0.879   2.099   1.792  0.0106 -0.4570 -0.0075
  475SOL     OW 1897   1.636   3.059   1.454  0.2681  0.3637 -0.6256
  475SOL    HW1 1898   1.560   3.069   1.387 -0.3376 -0.3887 -1.8040
  475SOL    HW2 1899   1.606   2.981   1.501 -0.0210 -0.9118  0.5678
  475SOL     MW 1900   1.622   3.050   1.451  0.1501  0.0962 -0.6236
  476SOL     OW 1901   1.433   2.601   1.014  0.1707  0.1894  0.5915
  476SOL    HW1 1902   1.354   2.627   1.066 -1.6017  0.5331  0.2297
  476SOL    HW2 1903   1.446   2.676   0.959 -2.7587 -0.3562  3.2299
  476SOL     MW 1904   1.425   2.614   1.013 -0.4497  0.1627  0.8919
  477SOL     OW 1905   0.799   2.512   0.684  0.6111 -0.2549 -0.0436
  477SOL    HW1 1906   0.858   2.571   0.632  1.2501  3.5935  1.5972
  477SOL    HW2 1907   0.799   2.432   0.629  0.0595 -0.7471 -1.3147
  477SOL     MW 1908   0.807   2.509   0.670  0.6226  0.1879  0.0052
  478SOL     OW 1909   0.183   2.710   0.925 -0.1657 -0.9746  0.0817
  478SOL    HW1 1910   0.245   2.779   0.921  1.6488  0.7565 -1.8119
  478SOL    HW2 1911   0.203   2.651   0.859  1.0819  2.0761 -0.1377
  478SOL     MW 1912   0.194   2.711   0.916  0.2383 -0.3437 -0.1971
  479SOL     OW 1913   1.460   1.994   1.246  0.1106 -0.1172 -0.4247
  479SOL    HW1 1914   1.431   2.024   1.334  0.6433  1.6683  0.9192
  479SOL    HW2 1915   1.514   1.915   1.264  2.7636 -0.5432 -0.7695
  479SOL     MW 1916   1.463   1.987   1.260  0.5309  0.0621 -0.2929
  480SOL     OW 1917   1.872   2.420   1.259  0.0507  0.2162 -0.3301
  480SOL    HW1 1918   1.849   2.343   1.313 -1.3664  1.5896  2.0139
  480SOL    HW2 1919   1.933   2.396   1.189  2.2617 -3.8172 -0.1630
  480SOL     MW 1920   1.877   2.407   1.257  0.1554 -0.1347  0.0012
  481SOL     OW 1921   1.010   0.019   0.961  0.2031 -0.3869  0.3361
  481SOL    HW1 1922   1.074  -0.044   0.930  0.2340 -1.0602  0.5541
  481SOL    HW2 1923   1.054   0.105   0.971  0.7494 -0.6804  0.1080
  481SOL     MW 1924   1.025   0.022   0.958  0.2793 -0.5145  0.3347
  482SOL     OW 1925   1.067   3.051   0.266  0.2567  0.7949  0.4230
  482SOL    HW1 1926   0.999   2.987   0.278  0.9250 -0.2815 -2.9611
  482SOL    HW2 1927   1.060   3.114   0.336  3.4309  0.2353  1.1517
  482SOL     MW 1928   1.057   3.051   0.277  0.7637  0.5791  0.0727
  483SOL     OW 1929   0.426   2.922   0.447  0.1385  0.7486 -0.5688
  483SOL    HW1 1930   0.353   2.949   0.387 -0.3183  2.8483  1.8717
  483SOL    HW2 1931   0.402   2.968   0.528 -1.0738 -0.6794  0.0507
  483SOL     MW 1932   0.413   2.932   0.450 -0.0817  0.8372 -0.1651
  484SOL     OW 1933   1.745   1.885   1.416  0.6764  0.3311  0.8476
  484SOL    HW1 1934   1.784   1.970   1.398  3.6453 -1.5282 -0.0998
  484SOL    HW2 1935   1.710   1.894   1.505  0.0345 -0.0817  0.7404
  484SOL     MW 1936   1.745   1.897   1.425  0.9834  0.0313  0.7085
  485SOL     OW 1937   0.505   2.321   0.228 -1.3421 -0.9055 -0.1114
  485SOL    HW1 1938   0.519   2.268   0.309  1.8071 -3.4215  2.3854
  485SOL    HW2 1939   0.420   2.365   0.237  1.0786  0.0818 -1.6689
  485SOL     MW 1940   0.496   2.320   0.240 -0.6072 -1.1072  0.0125
  486SOL     OW 1941   0.146   2.385   1.537  0.3277  0.5602 -0.1289
  486SOL    HW1 1942   0.165   2.475   1.507 -2.8517 -1.3410 -0.7295
  486SOL    HW2 1943   0.143   2.389   1.638 -1.2911 -2.2733  0.9020
  486SOL     MW 1944   0.148   2.398   1.547 -0.3054 -0.0645 -0.0721
  487SOL     OW 1945   1.271   1.662   1.024 -1.1739 -0.2217 -0.0298
  487SOL    HW1 1946   1.275   1.756   1.048 -1.0033  2.3575 -0.2862
  487SOL    HW2 1947   1.358   1.647   0.976  3.1911  1.8229 -0.9431
  487SOL     MW 1948   1.283   1.673   1.021 -0.5755  0.3884 -0.1841
  488SOL     OW 1949   1.680   1.852   0.521 -0.3752  0.1778 -1.0321
  488SOL    HW1 1950   1.754   1.870   0.458  1.4632  2.4815 -3.6707
  488SOL    HW2 1951   1.633   1.935   0.505  0.4290 -1.9096  0.7142
  488SOL     MW 1952   1.683   1.866   0.511 -0.0266  0.2063 -1.1498
  489SOL     OW 1953   0.678   0.775   0.600  0.6579 -0.5098 -0.1834
  489SOL    HW1 1954   0.722   0.693   0.567 -1.4640 -4.0510  1.4432
  489SOL    HW2 1955   0.677   0.752   0.691  1.0787  0.0238 -1.3976
  489SOL     MW 1956   0.684   0.761   0.607  0.4335 -0.9066 -0.1290
  490SOL     OW 1957   1.505   2.045   0.452 -0.3439 -0.1708  0.8855
  490SOL    HW1 1958   1.534   2.134   0.437  0.2280  0.1156  1.2943
  490SOL    HW2 1959   1.408   2.059   0.447  2.8844  0.8843 -1.2660
  490SOL     MW 1960   1.496   2.059   0.449  0.1575  0.0062  0.6555
  491SOL     OW 1961   1.275   2.925   0.421  1.1133 -0.6090 -0.6700
  491SOL    HW1 1962   1.298   2.986   0.488 -1.0646  0.5044 -2.4230
  491SOL    HW2 1963   1.205   2.971   0.373 -0.4010  0.1981  0.3748
  491SOL     MW 1964   1.269   2.939   0.423  0.6261 -0.3556 -0.7635
  492SOL     OW 1965   1.520   2.090   0.726  0.0681 -0.1273 -0.4233
  492SOL    HW1 1966   1.504   2.050   0.637 -0.0176 -2.2727 -1.2410
  492SOL    HW2 1967   1.453   2.057   0.791  0.3721  1.8743 -0.5601
  492SOL     MW 1968   1.509   2.080   0.723  0.0969 -0.1463 -0.5493
  493SOL     OW 1969   0.211   2.993   0.282  0.1903  0.1006 -0.6702
  493SOL    HW1 1970   0.138   3.034   0.326 -0.0761 -0.3298 -1.4555
  493SOL    HW2 1971   0.226   3.038   0.195 -1.9783  1.3278 -0.1886
  493SOL     MW 1972   0.203   3.004   0.276 -0.1310  0.2057 -0.7103
  494SOL     OW 1973   0.416   2.453   1.797 -0.3823  0.1106  0.2080
  494SOL    HW1 1974   0.444   2.362   1.808  0.0558  0.0851  1.8457
  494SOL    HW2 1975   0.466   2.474   1.712  1.9008 -0.7806 -2.7435
  494SOL     MW 1976   0.426   2.443   1.788 -0.0233 -0.0104  0.0346
  495SOL     OW 1977   2.931   1.679   2.605 -0.3500 -0.0149 -0.0866
  495SOL    HW1 1978   2.921   1.772   2.569  1.4784 -0.3059 -0.2123
  495SOL    HW2 1979   2.909   1.682   2.703  3.1988  0.3425 -1.5284
  495SOL     MW 1980   2.927   1.692   2.613  0.3595 -0.0061 -0.2934
  496SOL     OW 1981   2.914   2.287   2.670  0.1125  0.3326  0.0441
  496SOL    HW1 1982   2.970   2.222   2.715 -1.9724 -1.1319  1.3958
  496SOL    HW2 1983   2.983   2.348   2.661 -1.3608 -0.7049 -1.6127
  496SOL     MW 1984   2.930   2.287   2.675 -0.3569  0.0025  0.0039
  497SOL     OW 1985   1.534   2.271   2.639 -0.5038 -0.0229  0.2958
  497SOL    HW1 1986   1.520   2.231   2.551 -2.2827  1.0274 -0.6299
  497SOL    HW2 1987   1.497   2.205   2.700 -2.0171 -1.7875 -2.7122
  497SOL     MW 1988   1.527   2.257   2.636 -0.9382 -0.1172 -0.2232
  498SOL     OW 1989   1.545   2.744   2.384 -0.2047  0.0426 -0.2411
  498SOL    HW1 1990   1.575   2.659   2.363 -0.4865  0.3316 -0.3876
  498SOL    HW2 1991   1.609   2.767   2.454  0.4363  1.4790  1.6066
  498SOL     MW 1992   1.558   2.736   2.390 -0.1573  0.2702 -0.0167
  499SOL     OW 1993   0.935   0.095   0.050  0.1115  0.0864  1.0032
  499SOL    HW1 1994   0.882   0.113   0.132  1.9149  0.5842  1.5552
  499SOL    HW2 1995   0.995   0.027   0.064 -0.1602 -0.9024  0.4352
  499SOL     MW 1996   0.936   0.089   0.062  0.3136  0.0216  1.0011
  500SOL     OW 1997   1.128   2.566   2.794 -0.5874  0.6116 -0.4506
  500SOL    HW1 1998   1.148   2.520   2.878 -1.0221 -0.7410 -1.3625
  500SOL    HW2 1999   1.041   2.613   2.795 -1.8079 -0.0543  0.4370
  500SOL     MW 2000   1.119   2.566   2.805 -0.8058  0.3453 -0.4538
  501SOL     OW 2001   1.761   2.244   0.016 -0.1108  1.1475  0.9080
  501SOL    HW1 2002   1.739   2.337   0.018 -2.2208 -2.7947 -1.1757
  501SOL    HW2 2003   1.858   2.252   0.006  2.7578 -1.7866  0.2791
  501SOL     MW 2004   1.771   2.257   0.015 -0.0107  0.2403  0.5501
  502SOL     OW 2005   0.100   2.824   2.955  0.7552  1.0078 -0.0844
  502SOL    HW1 2006   0.022   2.768   2.929 -2.1701 -0.0457  0.3486
  502SOL    HW2 2007   0.153   2.850   2.880 -1.9858 -2.1922 -0.0271
  502SOL     MW 2008   0.097   2.820   2.942  0.0076  0.4466 -0.0197
  503SOL     OW 2009   1.124   2.706   2.113  0.1329  0.4422  0.4018
  503SOL    HW1 2010   1.172   2.654   2.044  1.1188  1.3681 -0.1623
  503SOL    HW2 2011   1.078   2.773   2.066 -0.1503 -2.3233 -0.4489
  503SOL     MW 2012   1.124   2.708   2.098  0.2256  0.1995  0.2152
  504SOL     OW 2013   0.004   2.709   2.113  0.5964  0.1495  0.6261
  504SOL    HW1 2014   0.021   2.620   2.085 -0.2169  1.6823 -0.7730
  504SOL    HW2 2015  -0.088   2.715   2.090 -1.4733  1.0405  0.3578
  504SOL     MW 2016  -0.006   2.698   2.106  0.2160  0.4693  0.4061
  505SOL     OW 2017   1.731   2.644   2.819  0.3961  0.7698 -0.2793
  505SOL    HW1 2018   1.756   2.671   2.726  0.8056  3.1270 -1.2220
  505SOL    HW2 2019   1.648   2.700   2.832 -1.9025 -0.2003  2.0131
  505SOL     MW 2020   1.724   2.655   2.808  0.1468  0.9528 -0.1012
  506SOL     OW 2021   1.578   3.081   2.856  0.1387 -0.1261 -0.2051
  506SOL    HW1 2022   1.635   3.070   2.936  1.6629  1.5595 -1.8156
  506SOL    HW2 2023   1.639   3.070   2.778 -1.0267  1.3258 -1.5434
  506SOL     MW 2024   1.594   3.078   2.856  0.1860  0.2879 -0.5941
  507SOL     OW 2025   0.901   2.703   2.824  0.2341  0.9602 -0.0947
  507SOL    HW1 2026   0.931   2.779   2.767  2.7586  3.4478 -1.8015
  507SOL    HW2 2027   0.804   2.684   2.802 -0.6682  0.1220  2.0006
  507SOL     MW 2028   0.892   2.711   2.813  0.4482  1.1778 -0.0434
  508SOL     OW 2029   1.131   2.094   2.478  0.1283  0.2590  0.2625
  508SOL    HW1 2030   1.198   2.077   2.544  1.0071  0.1502  2.3704
  508SOL    HW2 2031   1.083   2.167   2.531  0.9808 -1.9580 -0.7115
  508SOL     MW 2032   1.134   2.101   2.494  0.3568 -0.0479  0.4121
  509SOL     OW 2033   0.662   2.602   2.716  0.5248 -0.1453 -0.1830
  509SOL    HW1 2034   0.651   2.543   2.645  0.7436 -0.1076  0.6089
  509SOL    HW2 2035   0.578   2.626   2.750  2.8142 -1.3643 -0.6433
  509SOL     MW 2036   0.649   2.598   2.711  0.8557 -0.3011 -0.1392
  510SOL     OW 2037   1.499   2.575   1.670  0.1460 -0.8214  0.5289
  510SOL    HW1 2038   1.537   2.659   1.640  2.4401  1.1783 -3.1597
  510SOL    HW2 2039   1.443   2.592   1.743 -1.4232 -1.0899 -1.6956
  510SOL     MW 2040   1.497   2.588   1.676  0.2416 -0.5930 -0.2513
  511SOL     OW 2041   0.428   2.637   2.462 -0.4887  0.2827  0.4112
  511SOL    HW1 2042   0.507   2.569   2.451 -1.3218  1.5126 -0.6916
  511SOL    HW2 2043   0.446   2.692   2.381 -0.4054  0.6481 -1.8349
  511SOL     MW 2044   0.441   2.635   2.450 -0.5876  0.4932 -0.0306
  512SOL     OW 2045   1.003   2.006   2.810  0.3257  0.2612  0.5329
  512SOL    HW1 2046   0.928   2.056   2.842  0.5189 -0.1443  1.9950
  512SOL    HW2 2047   1.036   1.946   2.876  1.6389 -0.6593 -1.0544
  512SOL     MW 2048   0.998   2.005   2.823  0.5244  0.0862  0.5164
  513SOL     OW 2049   1.588   2.476   2.292  0.2617  0.1394  0.0296
  513SOL    HW1 2050   1.652   2.501   2.220 -0.7580 -0.5535 -3.4537
  513SOL    HW2 2051   1.643   2.448   2.369  4.0465  0.6069 -1.2716
  513SOL     MW 2052   1.604   2.476   2.293  0.6265  0.1096 -0.6016
  514SOL     OW 2053   0.290   2.474   2.637  0.0378 -0.3104 -0.2384
  514SOL    HW1 2054   0.330   2.534   2.570  0.8215 -1.1888  1.5192
  514SOL    HW2 2055   0.343   2.470   2.722  0.1058 -0.3043  1.7784
  514SOL     MW 2056   0.302   2.482   2.639  0.1502 -0.4255  0.2596
  515SOL     OW 2057   1.161   2.012   2.007 -0.5653 -0.1000 -0.5828
  515SOL    HW1 2058   1.125   2.092   1.964 -1.4281  1.0810  0.8450
  515SOL    HW2 2059   1.253   2.027   2.038  0.8474  1.3103 -1.2021
  515SOL     MW 2060   1.168   2.024   2.005 -0.4927  0.2419 -0.4761
  516SOL     OW 2061   1.445   2.529   3.095 -0.3419 -0.1830  0.0557
  516SOL    HW1 2062   1.473   2.482   3.016  1.5515  0.6788 -0.0432
  516SOL    HW2 2063   1.388   2.598   3.062  0.3763 -1.7070  1.0098
  516SOL     MW 2064   1.441   2.532   3.080  0.0026 -0.2704  0.1685
  517SOL     OW 2065   0.569   2.430   2.101  0.0326  0.0208  0.1759
  517SOL    HW1 2066   0.524   2.509   2.072  3.0703  1.2292  0.3908
  517SOL    HW2 2067   0.493   2.360   2.091 -1.0887  0.0295 -1.0552
  517SOL     MW 2068   0.553   2.431   2.096  0.2854  0.1814  0.0418
  518SOL     OW 2069   1.757   0.202   3.068  0.5011 -0.1077 -0.0255
  518SOL    HW1 2070   1.733   0.294   3.105 -0.6829  0.3713 -2.0135
  518SOL    HW2 2071   1.705   0.146   3.126  1.0457  1.2941  2.9092
  518SOL     MW 2072   1.747   0.207   3.080  0.4167  0.1405  0.0994
  519SOL     OW 2073   0.735   2.349   1.772 -0.0829  0.7597 -0.1346
  519SOL    HW1 2074   0.791   2.272   1.797  1.6828  0.0303 -2.2254
  519SOL    HW2 2075   0.709   2.341   1.683 -0.9900 -2.7025 -0.5146
  519SOL     MW 2076   0.739   2.338   1.764  0.0304  0.2067 -0.4606
  520SOL     OW 2077   1.275   2.111   2.969  0.5993  0.1270 -0.3318
  520SOL    HW1 2078   1.203   2.052   2.960 -0.1456 -1.2409 -1.2732
  520SOL    HW2 2079   1.320   2.062   3.036 -0.1188 -1.5140  1.8225
  520SOL     MW 2080   1.272   2.096   2.977  0.4063 -0.2700 -0.1718
  521SOL     OW 2081   1.725   2.016   2.181 -0.6991 -0.6376  0.4156
  521SOL    HW1 2082   1.758   2.049   2.094  0.3912 -1.3744  2.3402
  521SOL    HW2 2083   1.692   1.927   2.162 -1.5107  0.3499 -2.4890
  521SOL     MW 2084   1.725   2.009   2.167 -0.6623 -0.6046  0.2863
  522SOL     OW 2085   2.894   2.539   2.222 -0.4516 -0.2412 -0.5591
  522SOL    HW1 2086   2.963   2.479   2.257  0.6481 -0.2525 -0.8207
  522SOL    HW2 2087   2.896   2.612   2.284  0.1272  4.9198 -0.0865
  522SOL     MW 2088   2.903   2.540   2.235 -0.2301  0.4382 -0.5313
  523SOL     OW 2089   0.933   1.525   2.195 -0.5312  0.3786  0.0950
  523SOL    HW1 2090   0.915   1.569   2.113 -1.3540  0.0276  0.7767
  523SOL    HW2 2091   0.989   1.446   2.176 -1.8456 -2.5024 -1.4525
  523SOL     MW 2092   0.938   1.520   2.182 -0.8132 -0.0478 -0.0192
  524SOL     OW 2093   0.681   2.418   2.964 -0.3252 -0.5035  0.2302
  524SOL    HW1 2094   0.687   2.478   2.883  0.2572  3.2143 -0.8955
  524SOL    HW2 2095   0.742   2.344   2.944  2.9815  1.0089  1.1220
  524SOL     MW 2096   0.690   2.416   2.951  0.1879  0.1866  0.1993
  525SOL     OW 2097   0.322   2.288   2.094 -0.0830  0.0914 -0.5086
  525SOL    HW1 2098   0.298   2.218   2.152  2.2621  1.6206  0.6284
  525SOL    HW2 2099   0.347   2.249   2.018 -1.2427 -0.1638  1.5318
  525SOL     MW 2100   0.322   2.274   2.092  0.0734  0.2595 -0.0894
  526SOL     OW 2101   0.650   2.067   2.007  0.2920  1.1512  0.2225
  526SOL    HW1 2102   0.715   2.080   1.938 -0.8092  1.9520  1.0741
  526SOL    HW2 2103   0.683   2.131   2.069  0.7472 -1.2153 -1.8739
  526SOL     MW 2104   0.663   2.078   2.006  0.2068  0.9446  0.0582
  527SOL     OW 2105   1.411   2.020   2.055  0.2855  0.1366  0.7769
  527SOL    HW1 2106   1.391   2.006   2.146 -1.1183  3.5500  0.0583
  527SOL    HW2 2107   1.414   1.932   2.010 -0.8009  0.7264 -1.8518
  527SOL     MW 2108   1.409   2.007   2.061 -0.0431  0.6648  0.3352
  528SOL     OW 2109   0.663   2.902   2.872 -0.5426 -0.4520  0.4944
  528SOL    HW1 2110   0.663   2.992   2.906  2.2708  0.1890  0.5452
  528SOL    HW2 2111   0.639   2.914   2.781  0.3496 -1.2187  1.5600
  528SOL     MW 2112   0.660   2.915   2.864 -0.0537 -0.4686  0.6417
  529SOL     OW 2113   1.080   2.256   1.861 -0.4062  0.3854 -0.6019
  529SOL    HW1 2114   1.088   2.295   1.944  1.9016  0.6011  0.5805
  529SOL    HW2 2115   1.106   2.328   1.811  1.7894  2.8519  0.4113
  529SOL     MW 2116   1.084   2.270   1.866  0.1880  0.7393 -0.3122
  530SOL     OW 2117   1.175   2.416   3.011  0.4860 -0.2967  0.4912
  530SOL    HW1 2118   1.120   2.437   3.091 -1.4453 -0.8335  0.0977
  530SOL    HW2 2119   1.165   2.323   2.996  0.0339  0.3979  0.1342
  530SOL     MW 2120   1.167   2.407   3.020  0.1715 -0.2759  0.3922
  531SOL     OW 2121   0.904   1.879   2.562  0.1026  0.0339 -0.1672
  531SOL    HW1 2122   0.936   1.932   2.633 -1.3717 -2.6872 -1.7270
  531SOL    HW2 2123   0.869   1.801   2.606 -2.1382 -0.8048 -0.0043
  531SOL     MW 2124   0.904   1.876   2.577 -0.3876 -0.4358 -0.3515
  532SOL     OW 2125   1.738   0.304   2.798 -0.8048  0.3662  0.1990
  532SOL    HW1 2126   1.739   0.248   2.874  1.4545 -1.3500 -1.1456
  532SOL    HW2 2127   1.820   0.349   2.796 -0.0225  0.9764 -0.2143
  532SOL     MW 2128   1.749   0.303   2.808 -0.4035  0.2203 -0.0329
  533SOL     OW 2129   1.938   2.628   3.053 -0.7172  0.0047  0.4695
  533SOL    HW1 2130   1.908   2.568   3.125 -1.1423 -2.1334  1.0955
  533SOL    HW2 2131   1.855   2.651   2.999  1.0105 -0.7279  1.7065
  533SOL     MW 2132   1.923   2.623   3.055 -0.5453 -0.3740  0.7153
  534SOL     OW 2133   1.739   2.405   2.529 -0.4270  0.1868  0.1531
  534SOL    HW1 2134   1.677   2.341   2.570 -0.1152 -0.8628 -0.5197
  534SOL    HW2 2135   1.822   2.407   2.587 -0.6753 -1.4340  1.7903
  534SOL     MW 2136   1.741   2.397   2.542 -0.4186 -0.1655  0.2803
  535SOL     OW 2137   1.924   2.385   1.851  0.4503  0.4694  0.0966
  535SOL    HW1 2138   1.873   2.418   1.774 -0.6533  0.9254  0.0600
  535SOL    HW2 2139   2.018   2.380   1.823 -1.6119 -0.8264 -2.1154
  535SOL     MW 2140   1.930   2.389   1.837  0.0326  0.3586 -0.2001
  536SOL     OW 2141   0.459   1.849   2.069 -0.0762  0.0780  1.0535
  536SOL    HW1 2142   0.446   1.776   1.999 -0.1686 -2.0365  0.4715
  536SOL    HW2 2143   0.503   1.917   2.017  1.3398 -1.0136 -2.5319
  536SOL     MW 2144   0.463   1.848   2.053  0.0984 -0.3450  0.5036
  537SOL     OW 2145   1.081   0.210   2.846  0.2296  0.3233 -0.0789
  537SOL    HW1 2146   1.032   0.248   2.915  0.6344 -0.0959  3.2848
  537SOL    HW2 2147   1.112   0.286   2.797 -1.0387 -1.4709 -0.7665
  537SOL     MW 2148   1.079   0.225   2.849  0.1157  0.0312  0.2742
  538SOL     OW 2149   1.334   0.068   3.075 -0.3139  0.1328  0.3880
  538SOL    HW1 2150   1.282   0.147   3.065  1.1615 -0.3130  1.5006
  538SOL    HW2 2151   1.397   0.075   3.008 -1.3512 -0.5146 -0.0529
  538SOL     MW 2152   1.335   0.079   3.065 -0.2561 -0.0114  0.4766
  539SOL     OW 2153   0.711   2.797   2.480 -0.5268 -0.0116 -0.3980
  539SOL    HW1 2154   0.772   2.802   2.553  0.1202  3.3957  0.9125
  539SOL    HW2 2155   0.678   2.707   2.476 -1.5553 -0.6379  1.5822
  539SOL     MW 2156   0.714   2.786   2.489 -0.5771  0.3553  0.0362
  540SOL     OW 2157   0.420   2.492   2.882 -0.3233  0.4710  0.7367
  540SOL    HW1 2158   0.487   2.445   2.931  0.0831  0.8222 -0.1751
  540SOL    HW2 2159   0.330   2.466   2.911  0.2462 -0.0561  0.3617
  540SOL     MW 2160   0.417   2.482   2.892 -0.1945  0.4478  0.5669
  541SOL     OW 2161   0.176   2.907   2.203  0.4332  0.2497 -0.1614
  541SOL    HW1 2162   0.121   2.828   2.183 -2.2383 -2.0723 -2.8669
  541SOL    HW2 2163   0.227   2.879   2.280  0.6448 -2.0405  0.9231
  541SOL     MW 2164   0.176   2.893   2.210  0.1086 -0.3589 -0.3752
  542SOL     OW 2165   1.025   2.293   2.655  0.5161  0.2176  0.2375
  542SOL    HW1 2166   0.998   2.225   2.718 -0.5957 -0.1207  0.1063
  542SOL    HW2 2167   1.088   2.344   2.697 -0.6060 -0.6077 -1.8766
  542SOL     MW 2168   1.030   2.291   2.669  0.2213  0.0641 -0.0587
  543SOL     OW 2169   1.562   2.440   2.867  0.9126  0.0927  0.2178
  543SOL    HW1 2170   1.551   2.394   2.784  1.4082 -0.1794  1.8938
  543SOL    HW2 2171   1.623   2.516   2.841  2.1585  1.2495  3.2776
  543SOL     MW 2172   1.568   2.444   2.853  1.1424  0.2094  0.8426
  544SOL     OW 2173   0.712   0.219   2.752  0.2663  0.4388 -0.4362
  544SOL    HW1 2174   0.627   0.262   2.734 -1.1246 -0.4684 -1.9677
  544SOL    HW2 2175   0.727   0.175   2.669  0.7141 -1.0130 -0.2792
  544SOL     MW 2176   0.703   0.219   2.739  0.1419  0.1276 -0.6175
  545SOL     OW 2177   1.568   2.184   2.347 -0.1601 -0.5846  0.3581
  545SOL    HW1 2178   1.552   2.266   2.301 -1.6411  0.1187 -0.7960
  545SOL    HW2 2179   1.617   2.136   2.276  0.6574  2.9751 -1.4476
  545SOL     MW 2180   1.572   2.189   2.331 -0.2476 -0.0222 -0.0324
  546SOL     OW 2181   3.026   1.996   0.143 -0.6836  0.2075 -0.1322
  546SOL    HW1 2182   2.984   2.046   0.070  0.8634  0.7919 -0.8967
  546SOL    HW2 2183   3.110   1.970   0.099  0.3834  1.8751  0.5369
  546SOL     MW 2184   3.032   1.999   0.128 -0.3387  0.5046 -0.1448
  547SOL     OW 2185   0.238   0.004   0.040 -0.1029  0.4807  0.6481
  547SOL    HW1 2186   0.310   0.062   0.001  5.6506  2.6064  2.0246
  547SOL    HW2 2187   0.168   0.013  -0.019  1.9571  1.3944 -0.4891
  547SOL     MW 2188   0.238   0.013   0.027  0.9280  0.8817  0.6797
  548SOL     OW 2189   0.306   2.506   0.253  0.0675 -0.4240  0.3558
  548SOL    HW1 2190   0.316   2.566   0.181  0.6015  1.4194  0.3148
  548SOL    HW2 2191   0.223   2.471   0.224 -1.0723 -1.8244 -0.9323
  548SOL     MW 2192   0.296   2.509   0.240 -0.0124 -0.3655  0.1804
  549SOL     OW 2193   0.806   1.895   2.133 -0.4294 -0.1009  0.4946
  549SOL    HW1 2194   0.730   1.936   2.090 -2.5655 -0.6109 -2.3337
  549SOL    HW2 2195   0.774   1.871   2.224  0.1022 -1.2021 -0.1025
  549SOL     MW 2196   0.791   1.897   2.139 -0.6411 -0.3135  0.0427
  550SOL     OW 2197   1.781   1.749   2.544  0.1963  0.3006 -0.2358
  550SOL    HW1 2198   1.780   1.754   2.447 -0.4384 -1.0359  0.3024
  550SOL    HW2 2199   1.796   1.844   2.566  1.1669  1.8128 -0.4972
  550SOL     MW 2200   1.783   1.762   2.534  0.2406  0.3238 -0.1993
  551SOL     OW 2201   0.851   2.285   0.193  0.6741 -0.1806 -0.0974
  551SOL    HW1 2202   0.944   2.280   0.175 -0.5246 -0.0248 -2.5300
  551SOL    HW2 2203   0.823   2.215   0.134  0.9052 -0.0137 -0.4466
  551SOL     MW 2204   0.859   2.275   0.183  0.5464 -0.1380 -0.4644
  552SOL     OW 2205   1.762   1.693   2.293  0.2015  0.4104 -0.7341
  552SOL    HW1 2206   1.674   1.707   2.269  2.1496  1.0168 -1.3729
  552SOL    HW2 2207   1.807   1.646   2.216 -5.2211  3.1890  0.2120
  552SOL     MW 2208   1.756   1.688   2.280 -0.2569  0.8570 -0.6935
  553SOL     OW 2209   1.271   2.326   1.521  0.5710  0.2116  0.2837
  553SOL    HW1 2210   1.321   2.248   1.490  0.6766  2.9439  0.7622
  553SOL    HW2 2211   1.325   2.396   1.477  1.1546  0.6035  1.6678
  553SOL     MW 2212   1.285   2.325   1.511  0.6619  0.6238  0.5295
  554SOL     OW 2213   0.509   2.932   2.638  0.5272 -0.1278 -0.0183
  554SOL    HW1 2214   0.498   3.024   2.597  0.7336 -0.8239 -0.8921
  554SOL    HW2 2215   0.562   2.885   2.570 -1.4170 -1.5774  2.4462
  554SOL     MW 2216   0.514   2.938   2.624  0.2979 -0.4109  0.1916
  555SOL     OW 2217   0.652   2.481   2.470  0.4493 -0.3741 -0.2998
  555SOL    HW1 2218   0.616   2.390   2.485 -1.7171 -2.2284 -1.1386
  555SOL    HW2 2219   0.740   2.451   2.464 -0.2915 -0.7250 -0.9634
  555SOL     MW 2220   0.659   2.465   2.471  0.0657 -0.6650 -0.4981
  556SOL     OW 2221   0.986   1.853   0.097 -0.0344  0.1210 -0.3528
  556SOL    HW1 2222   1.031   1.826   0.016  1.2245 -1.1834 -1.6356
  556SOL    HW2 2223   1.056   1.882   0.162  0.1220  1.0330  2.8929
  556SOL     MW 2224   1.001   1.853   0.095  0.1524  0.0692 -0.0938
  557SOL     OW 2225   0.948   2.646   0.504  0.1469 -0.5255 -0.0585
  557SOL    HW1 2226   0.997   2.583   0.457 -1.5688 -0.3896  1.5516
  557SOL    HW2 2227   0.931   2.721   0.438  1.3552 -0.8804  0.7609
  557SOL     MW 2228   0.952   2.648   0.489  0.0800 -0.5544  0.2621
  558SOL     OW 2229   0.202   2.336   3.001 -0.0799 -0.2091  0.0414
  558SOL    HW1 2230   0.154   2.276   2.946  1.3006  1.1791 -3.1416
  558SOL    HW2 2231   0.160   2.338   3.088  2.9257  0.5845 -0.3665
  558SOL     MW 2232   0.190   2.328   3.005  0.4988  0.0788 -0.4324
  559SOL     OW 2233   1.040   2.356   2.123  0.4733  0.3714  0.0350
  559SOL    HW1 2234   1.095   2.395   2.188  0.9000  1.2191 -0.3898
  559SOL    HW2 2235   1.019   2.272   2.167  1.4609 -2.1912 -1.5503
  559SOL     MW 2236   1.044   2.350   2.138  0.6599  0.1451 -0.2302
  560SOL     OW 2237   1.990   2.881   0.015 -0.0547  0.1563  0.0473
  560SOL    HW1 2238   2.063   2.906  -0.047 -1.1119 -1.2848  1.0315
  560SOL    HW2 2239   1.965   2.792  -0.024 -3.0909 -0.5711 -0.2951
  560SOL     MW 2240   1.997   2.872   0.001 -0.5948 -0.1298  0.1320
  561SOL     OW 2241   0.386   2.163   0.041 -0.2894 -0.1530  0.1630
  561SOL    HW1 2242   0.341   2.224  -0.014 -0.3723 -1.8552  0.6132
  561SOL    HW2 2243   0.443   2.213   0.105 -1.9549 -0.9608  0.2298
  561SOL     MW 2244   0.388   2.177   0.042 -0.5201 -0.4842  0.2312
  562SOL     OW 2245   0.717   2.200   2.240 -0.1514  0.2913  1.0595
  562SOL    HW1 2246   0.695   2.294   2.229 -0.5853 -1.7651 -0.1475
  562SOL    HW2 2247   0.820   2.196   2.246 -0.7776  0.7419 -2.8365
  562SOL     MW 2248   0.728   2.212   2.239 -0.2913  0.0794  0.3862
  563SOL     OW 2249   1.233   0.313   0.567  0.2078  0.2509 -0.3471
  563SOL    HW1 2250   1.170   0.269   0.510  1.9421 -1.0958  2.1613
  563SOL    HW2 2251   1.228   0.258   0.648  1.2372 -1.9538  0.4365
  563SOL     MW 2252   1.224   0.300   0.570  0.5725 -0.2176  0.0873
  564SOL     OW 2253   1.154   2.510   2.310  0.5573  0.6627  0.7722
  564SOL    HW1 2254   1.142   2.575   2.241  0.3309  1.6461  1.7662
  564SOL    HW2 2255   1.183   2.557   2.382 -1.0346 -1.3717 -2.1359
  564SOL     MW 2256   1.157   2.525   2.310  0.3174  0.5240  0.5197
  565SOL     OW 2257   2.820   2.771   2.653 -0.0666  0.3405 -0.3551
  565SOL    HW1 2258   2.848   2.861   2.645  2.1371 -0.9179 -0.9203
  565SOL    HW2 2259   2.762   2.746   2.587  0.7328  0.6468  2.0913
  565SOL     MW 2260   2.816   2.779   2.643  0.3296  0.2149 -0.1069
  566SOL     OW 2261   2.127   1.833   2.389 -0.2965 -0.6278  0.5104
  566SOL    HW1 2262   2.116   1.798   2.301 -0.3856  0.3249 -0.5482
  566SOL    HW2 2263   2.205   1.902   2.388  0.1898 -0.6711  1.4419
  566SOL     MW 2264   2.136   1.837   2.377 -0.2441 -0.5078  0.4936
  567SOL     OW 2265   1.181   2.943   3.036 -0.1899  0.0803 -0.0539
  567SOL    HW1 2266   1.239   3.010   3.077 -1.1345  1.7012  2.9558
  567SOL    HW2 2267   1.241   2.860   3.024 -2.5138 -2.5068 -1.2840
  567SOL     MW 2268   1.197   2.941   3.040 -0.6211 -0.0472  0.1809
  568SOL     OW 2269   1.608   2.090   2.898 -0.0020 -0.6390 -0.0577
  568SOL    HW1 2270   1.651   2.163   2.936  2.3787 -0.4324 -2.6652
  568SOL    HW2 2271   1.663   2.059   2.829  1.5904 -1.7882  0.2367
  568SOL     MW 2272   1.621   2.096   2.894  0.5222 -0.7634 -0.3629
  569SOL     OW 2273   0.164   2.290   2.458 -0.1102 -0.6027 -0.0665
  569SOL    HW1 2274   0.096   2.320   2.395  0.1885 -1.0556  0.4821
  569SOL    HW2 2275   0.173   2.367   2.513 -1.4001 -2.0611 -2.5200
  569SOL     MW 2276   0.156   2.304   2.457 -0.2410 -0.8549 -0.3178
  570SOL     OW 2277   1.513   0.354   0.510  0.0948  0.0536  0.0278
  570SOL    HW1 2278   1.421   0.375   0.541 -0.6423 -0.9540 -1.3738
  570SOL    HW2 2279   1.565   0.344   0.590  1.5024 -0.3483  0.2706
  570SOL     MW 2280   1.508   0.355   0.525  0.1833 -0.1324 -0.1251
  571SOL     OW 2281   1.435   2.435   2.007 -0.9262  0.1010  0.2882
  571SOL    HW1 2282   1.471   2.453   2.094  2.0261 -1.7517  0.2261
  571SOL    HW2 2283   1.487   2.361   1.970  0.2770 -2.4008 -1.6671
  571SOL     MW 2284   1.447   2.428   2.014 -0.3779 -0.4735  0.0220
  572SOL     OW 2285   1.053   2.580   0.117 -0.4029 -0.0839 -0.0126
  572SOL    HW1 2286   1.075   2.662   0.071 -2.4480  0.9836  0.3907
  572SOL    HW2 2287   0.948   2.576   0.110 -1.1417 -0.0943 -1.7110
  572SOL     MW 2288   1.042   2.590   0.110 -0.7702  0.0556 -0.1835
  573SOL     OW 2289   1.145   2.284   0.211  0.7711  0.4504  0.2020
  573SOL    HW1 2290   1.216   2.304   0.147  1.5276 -0.2865 -1.5498
  573SOL    HW2 2291   1.133   2.358   0.279 -0.3153  2.1357  0.2581
  573SOL     MW 2292   1.153   2.297   0.212  0.7276  0.5755 -0.0218
  574SOL     OW 2293   1.137   2.509   0.363  0.3542  0.0151  0.1928
  574SOL    HW1 2294   1.220   2.547   0.397  1.9227 -0.0973 -2.2668
  574SOL    HW2 2295   1.123   2.550   0.271  0.7866 -1.1431 -1.9299
  574SOL     MW 2296   1.146   2.519   0.355  0.6182 -0.1525 -0.4118
  575SOL     OW 2297   3.073   2.197   1.804  0.1285  0.0703 -0.2992
  575SOL    HW1 2298   3.117   2.123   1.761  2.5673  0.6431  0.2042
  575SOL    HW2 2299   3.147   2.261   1.815  1.7158 -0.5146 -0.4613
  575SOL     MW 2300   3.088   2.196   1.800  0.6597  0.0687 -0.2542
  576SOL     OW 2301   2.790   1.800   2.090  0.1829  0.3836 -0.7332
  576SOL    HW1 2302   2.806   1.871   2.030  0.2882  4.0102  3.9621
  576SOL    HW2 2303   2.696   1.771   2.074  1.6042 -0.2321  0.1312
  576SOL     MW 2304   2.779   1.805   2.080  0.3843  0.7809  0.0004
  577SOL     OW 2305   2.033   0.205   0.070  0.0721 -0.1891 -0.6426
  577SOL    HW1 2306   1.949   0.212   0.020 -3.2454  1.1197 -0.1724
  577SOL    HW2 2307   2.010   0.153   0.146 -1.0841  0.6415  1.3394
  577SOL     MW 2308   2.019   0.199   0.074 -0.5181  0.0932 -0.3191
  578SOL     OW 2309   1.957   2.046   2.367  0.0274 -0.0098 -0.1457
  578SOL    HW1 2310   1.877   2.031   2.309  0.2484 -0.2221 -2.2179
  578SOL    HW2 2311   2.012   1.964   2.370  2.7258 -1.0319  3.1975
  578SOL     MW 2312   1.954   2.033   2.360  0.4126 -0.1727  0.0220
  579SOL     OW 2313   0.891   2.401   2.438 -0.3831  0.6161  0.0652
  579SOL    HW1 2314   0.941   2.364   2.507 -0.4866  3.0706 -2.3182
  579SOL    HW2 2315   0.951   2.431   2.368  1.3467 -1.3285  0.4682
  579SOL     MW 2316   0.906   2.400   2.438 -0.1685  0.6834 -0.1961
  580SOL     OW 2317   0.918   2.868   0.006 -0.3015 -0.6519  0.5741
  580SOL    HW1 2318   1.007   2.903  -0.011  0.3146 -0.0665  0.8184
  580SOL    HW2 2319   0.905   2.794  -0.054  0.2592  1.7407  0.5552
  580SOL     MW 2320   0.928   2.863  -0.004 -0.1463 -0.2589  0.6038
  581SOL     OW 2321   1.128   2.505   1.683 -0.0390  1.0993  0.2178
  581SOL    HW1 2322   1.181   2.555   1.746 -2.3608  0.0339 -2.8801
  581SOL    HW2 2323   1.185   2.434   1.637  0.9068 -1.9499 -2.9552
  581SOL     MW 2324   1.142   2.502   1.685 -0.2206  0.5564 -0.6095
  582SOL     OW 2325   0.042   2.792   2.616 -0.2405 -0.0079  0.4279
  582SOL    HW1 2326   0.008   2.857   2.673 -1.6689 -0.9968  2.4010
  582SOL    HW2 2327   0.132   2.819   2.592  0.4274  1.5869 -0.6662
  582SOL     MW 2328   0.050   2.804   2.620 -0.3409  0.0721  0.5439
  583SOL     OW 2329   1.976   2.402   2.645 -0.0593  0.2540  0.2435
  583SOL    HW1 2330   2.043   2.452   2.595  1.9853  0.9663  1.0427
  583SOL    HW2 2331   1.987   2.305   2.632  3.1784 -0.3711 -0.4752
  583SOL     MW 2332   1.987   2.396   2.636  0.6376  0.2655  0.2541
  584SOL     OW 2333   0.105   1.879   2.253 -0.0858 -0.3917 -0.0586
  584SOL    HW1 2334   0.186   1.859   2.215 -0.0791  0.7530  0.5259
  584SOL    HW2 2335   0.128   1.970   2.278 -0.4633 -0.6221 -2.5842
  584SOL     MW 2336   0.119   1.888   2.252 -0.1347 -0.2711 -0.3147
  585SOL     OW 2337   1.590   2.634   0.247 -0.4711 -0.8143  0.3203
  585SOL    HW1 2338   1.539   2.587   0.177 -3.4918 -0.4268 -0.5323
  585SOL    HW2 2339   1.524   2.649   0.325 -0.3052 -1.4528  0.3834
  585SOL     MW 2340   1.575   2.629   0.248 -0.8477 -0.8474  0.2161
  586SOL     OW 2341   1.375   2.855   2.564  0.4119 -0.1937 -0.1267
  586SOL    HW1 2342   1.423   2.831   2.480 -1.7451  0.5599  0.2086
  586SOL    HW2 2343   1.322   2.933   2.551 -2.6388  0.9368  1.0792
  586SOL     MW 2344   1.374   2.862   2.551 -0.2752  0.0549  0.0767
  587SOL     OW 2345   1.341   1.575   2.133 -0.0080 -0.9926  0.6815
  587SOL    HW1 2346   1.339   1.502   2.201 -0.0907  0.5950 -0.0372
  587SOL    HW2 2347   1.298   1.536   2.057  2.6258 -0.5310  0.6881
  587SOL     MW 2348   1.335   1.560   2.132  0.3286 -0.7222  0.5875
  588SOL     OW 2349   1.319   2.051   2.675  0.2175 -0.8396 -0.3277
  588SOL    HW1 2350   1.340   1.958   2.694  1.1428  0.2481  0.5273
  588SOL    HW2 2351   1.319   2.100   2.761  0.4260  0.2321 -1.0329
  588SOL     MW 2352   1.322   2.046   2.689  0.3671 -0.5547 -0.3080
  589SOL     OW 2353   1.375   2.003   0.113  0.1831  0.4707  0.4586
  589SOL    HW1 2354   1.387   2.091   0.143  1.0698  0.1581  0.0319
  589SOL    HW2 2355   1.298   1.977   0.165 -1.6439 -0.6315 -0.4194
  589SOL     MW 2356   1.366   2.011   0.123  0.0590  0.2840  0.2864
  590SOL     OW 2357   0.482   2.775   2.236  0.0054  0.3096 -0.4271
  590SOL    HW1 2358   0.466   2.731   2.150  2.2376 -0.3093  0.1704
  590SOL    HW2 2359   0.576   2.801   2.221  1.7254  0.2754 -2.6663
  590SOL     MW 2360   0.492   2.773   2.223  0.5269  0.2234 -0.6437
  591SOL     OW 2361   2.245   0.655   3.098 -0.6366  0.6376 -0.0792
  591SOL    HW1 2362   2.173   0.701   3.060  0.8611 -2.6623  3.6311
  591SOL    HW2 2363   2.326   0.658   3.044  0.5291 -0.3151  0.5546
  591SOL     MW 2364   2.246   0.662   3.086 -0.2852  0.0765  0.4940
  592SOL     OW 2365   1.747   2.947   0.778 -0.3220 -0.2919  0.2188
  592SOL    HW1 2366   1.734   3.011   0.712 -1.7558 -1.3978 -1.9214
  592SOL    HW2 2367   1.838   2.922   0.760  0.6806  0.9505  1.0327
  592SOL     MW 2368   1.757   2.952   0.767 -0.3789 -0.2739  0.0438
  593SOL     OW 2369   1.961   0.633   0.861 -0.1324 -0.3115  0.8923
  593SOL    HW1 2370   1.887   0.628   0.797  1.2724 -1.6274 -0.3457
  593SOL    HW2 2371   2.027   0.566   0.841  1.3345  1.0275  0.3359
  593SOL     MW 2372   1.960   0.624   0.850  0.2465 -0.3084  0.6556
  594SOL     OW 2373   2.776   1.148   1.397  0.0742 -0.7403 -0.0544
  594SOL    HW1 2374   2.872   1.169   1.393 -2.6004 -2.3926  0.8276
  594SOL    HW2 2375   2.767   1.094   1.316  0.4747  1.2972 -0.2849
  594SOL     MW 2376   2.788   1.144   1.386 -0.2258 -0.6895  0.0316
  595SOL     OW 2377   0.462   0.989   0.819  0.3990  0.0795  0.1943
  595SOL    HW1 2378   0.465   1.028   0.728  1.0961  1.2871 -2.9460
  595SOL    HW2 2379   0.506   1.056   0.875  1.6984 -3.8344 -0.6902
  595SOL     MW 2380   0.468   1.003   0.814  0.6624 -0.2775 -0.3368
  596SOL     OW 2381   2.483   1.305   0.570  0.0563  0.0059  0.2387
  596SOL    HW1 2382   2.525   1.387   0.554 -0.5690 -1.2537 -0.2824
  596SOL    HW2 2383   2.540   1.261   0.638  0.5548 -1.3932 -0.0015
  596SOL     MW 2384   2.496   1.310   0.577  0.0396 -0.3449  0.1383
  597SOL     OW 2385   2.186   0.672   1.627 -0.3899 -0.0720  0.0430
  597SOL    HW1 2386   2.196   0.603   1.693  0.0188  1.8491 -1.4551
  597SOL    HW2 2387   2.116   0.644   1.573  1.5039  2.9279 -2.1770
  597SOL     MW 2388   2.178   0.659   1.628 -0.0861  0.5773 -0.4476
  598SOL     OW 2389   2.551   1.047   2.761 -0.2267 -0.6127 -0.1563
  598SOL    HW1 2390   2.591   1.022   2.678 -1.1930  2.3726 -1.1559
  598SOL    HW2 2391   2.628   1.078   2.811 -1.1199 -0.6315  2.3946
  598SOL     MW 2392   2.567   1.048   2.757 -0.4721 -0.2213  0.0484
  599SOL     OW 2393   2.995   0.400   2.089  0.1322  0.2708  0.8502
  599SOL    HW1 2394   3.044   0.425   2.169  0.2707 -0.0601  1.7831
  599SOL    HW2 2395   2.991   0.481   2.034  0.6048 -0.9060 -2.6877
  599SOL     MW 2396   3.001   0.414   2.092  0.2128  0.0719  0.5065
  600SOL     OW 2397   1.840   1.612   0.891 -0.1062  0.5297  0.2105
  600SOL    HW1 2398   1.895   1.668   0.946  0.1299  0.3467  1.4557
  600SOL    HW2 2399   1.762   1.667   0.860 -2.6491 -1.5151 -2.6024
  600SOL     MW 2400   1.837   1.627   0.894 -0.4106  0.2357  0.0036
  601SOL     OW 2401   2.505   0.756   0.801  0.0336  0.3645  0.1548
  601SOL    HW1 2402   2.491   0.769   0.895 -0.3598 -0.9767  0.1973
  601SOL    HW2 2403   2.432   0.708   0.763  0.4728 -2.4440 -0.9727
  601SOL     MW 2404   2.493   0.751   0.809  0.0397 -0.1830  0.0116
  602SOL     OW 2405   2.261   1.972   0.767 -0.0091  0.5030 -0.0257
  602SOL    HW1 2406   2.222   1.891   0.740 -0.1671 -0.7018  2.8887
  602SOL    HW2 2407   2.202   2.043   0.738  0.7328 -0.5865 -1.2338
  602SOL     MW 2408   2.248   1.971   0.759  0.0680  0.2003  0.1994
  603SOL     OW 2409   0.003   1.363   1.884 -0.1235  0.5772  1.1689
  603SOL    HW1 2410   0.064   1.426   1.920 -0.4244  2.7651  1.1742
  603SOL    HW2 2411   0.025   1.280   1.929 -1.4978 -2.1988  0.9627
  603SOL     MW 2412   0.014   1.360   1.895 -0.3445  0.4996  1.1424
  604SOL     OW 2413   2.091   1.552   0.463 -0.3256 -0.4782  0.2028
  604SOL    HW1 2414   2.123   1.465   0.486 -1.5378 -1.0202  0.3831
  604SOL    HW2 2415   2.024   1.578   0.526  2.6041  1.0786 -3.9794
  604SOL     MW 2416   2.087   1.544   0.474 -0.0990 -0.3443 -0.3252
  605SOL     OW 2417   2.515   1.495   0.898 -0.2229  0.2903  0.0679
  605SOL    HW1 2418   2.485   1.552   0.834 -0.9894 -1.2411  0.8570
  605SOL    HW2 2419   2.549   1.424   0.845 -0.7884 -0.1128 -3.1195
  605SOL     MW 2420   2.516   1.493   0.882 -0.3986  0.0351 -0.2485
  606SOL     OW 2421   2.544   1.707   2.028  0.2009  0.3475  0.0369
  606SOL    HW1 2422   2.457   1.732   1.995  1.9654  1.6271  0.9171
  606SOL    HW2 2423   2.592   1.661   1.957 -1.6471  1.6276  0.8067
  606SOL     MW 2424   2.539   1.704   2.014  0.1899  0.6852  0.2546
  607SOL     OW 2425   2.427   1.042   3.016 -0.5313 -0.2509 -0.0331
  607SOL    HW1 2426   2.465   1.031   2.927  0.4290 -1.0372  2.5710
  607SOL    HW2 2427   2.493   1.015   3.074  1.3046  1.2644 -1.9289
  607SOL     MW 2428   2.440   1.037   3.012 -0.1624 -0.1547  0.0604
  608SOL     OW 2429   1.849   0.288   0.570 -0.1740  0.3314 -0.1846
  608SOL    HW1 2430   1.861   0.353   0.494  3.0505  1.1936 -1.7995
  608SOL    HW2 2431   1.816   0.204   0.531 -1.2550 -2.1431 -0.3885
  608SOL     MW 2432   1.846   0.285   0.555  0.1088  0.1187 -0.4246
  609SOL     OW 2433   2.080   1.954   3.032  0.6672  0.2522 -0.4907
  609SOL    HW1 2434   2.030   1.881   3.000  0.6976  3.0468  1.1704
  609SOL    HW2 2435   2.089   1.941   3.129  0.6946 -1.8530 -0.1606
  609SOL     MW 2436   2.075   1.943   3.041  0.6748  0.3432 -0.2280
  610SOL     OW 2437   1.816   0.961   1.226  0.2115  0.2174 -0.1235
  610SOL    HW1 2438   1.861   0.899   1.167 -0.6905  0.6529  1.6480
  610SOL    HW2 2439   1.723   0.971   1.198 -0.2091 -1.4283 -1.2380
  610SOL     MW 2440   1.810   0.954   1.215  0.0370  0.0577 -0.0368
  611SOL     OW 2441   2.535   1.676   0.663 -0.0341 -0.5142 -0.0701
  611SOL    HW1 2442   2.589   1.748   0.627  0.0357 -1.0494  1.9791
  611SOL    HW2 2443   2.445   1.697   0.647  1.8767 -0.6454  0.9734
  611SOL     MW 2444   2.530   1.688   0.657  0.2272 -0.6021  0.3379
  612SOL     OW 2445   2.856   2.896   0.379 -0.0989  0.1955  0.5077
  612SOL    HW1 2446   2.873   2.917   0.472 -0.2033 -1.0891  0.3402
  612SOL    HW2 2447   2.945   2.877   0.349 -0.7478 -2.8102 -3.4920
  612SOL     MW 2448   2.870   2.896   0.387 -0.1983 -0.3706 -0.0422
  613SOL     OW 2449   1.452   1.044   0.921 -0.2334  0.3328  0.2150
  613SOL    HW1 2450   1.441   1.136   0.902 -2.5183 -0.0198  2.4367
  613SOL    HW2 2451   1.511   1.048   1.000  2.2173  1.0599  0.4298
  613SOL     MW 2452   1.459   1.057   0.929 -0.2116  0.3822  0.5365
  614SOL     OW 2453   1.983   0.533   1.491  0.0759  0.0689  0.5123
  614SOL    HW1 2454   1.985   0.455   1.557 -1.1559 -0.0687  0.5651
  614SOL    HW2 2455   1.931   0.495   1.418 -0.8090 -0.2326 -1.0343
  614SOL     MW 2456   1.976   0.518   1.490 -0.2034  0.0109  0.3152
  615SOL     OW 2457   2.303   0.771   0.270 -0.2066 -0.1197  0.3084
  615SOL    HW1 2458   2.374   0.707   0.282  1.1762  2.5792  1.2435
  615SOL    HW2 2459   2.260   0.751   0.190 -1.8138 -0.8292 -0.0608
  615SOL     MW 2460   2.306   0.760   0.261 -0.2362  0.1428  0.3831
  616SOL     OW 2461   2.504   0.427   1.678  0.4938  0.5384  0.1285
  616SOL    HW1 2462   2.573   0.376   1.635  0.7379 -2.1644 -1.8960
  616SOL    HW2 2463   2.479   0.491   1.608 -2.5321 -1.1084  0.5307
  616SOL     MW 2464   2.510   0.429   1.663  0.1268 -0.0355 -0.0855
  617SOL     OW 2465   2.792   0.599   1.684  0.2052 -0.7646 -0.7091
  617SOL    HW1 2466   2.702   0.590   1.702  3.7391  0.8356 -0.0866
  617SOL    HW2 2467   2.828   0.508   1.693  0.3465  0.2234  3.5758
  617SOL     MW 2468   2.785   0.586   1.688  0.6901 -0.4231 -0.0616
  618SOL     OW 2469   2.696   0.366   1.961 -0.3372 -0.1833 -0.1725
  618SOL    HW1 2470   2.664   0.459   1.945  3.8000  1.3056  0.5553
  618SOL    HW2 2471   2.750   0.360   2.041  0.4987  1.2888 -1.1570
  618SOL     MW 2472   2.699   0.377   1.970  0.3189  0.2074 -0.2064
  619SOL     OW 2473   2.667   0.736   0.048  0.8025 -0.3431  0.3068
  619SOL    HW1 2474   2.718   0.815   0.061 -0.1902 -1.1498 -2.1050
  619SOL    HW2 2475   2.615   0.734   0.125  2.8786  1.2016 -0.1037
  619SOL     MW 2476   2.667   0.746   0.060  0.9455 -0.2457 -0.0656
  620SOL     OW 2477   2.224   1.049   0.914  0.4537  0.2597  0.0197
  620SOL    HW1 2478   2.307   1.038   0.870 -1.6367 -0.5619  2.2764
  620SOL    HW2 2479   2.181   0.976   0.869  0.4362  0.9170 -0.6709
  620SOL     MW 2480   2.229   1.038   0.902  0.1756  0.2380  0.2264
  621SOL     OW 2481   1.577   2.207   1.926  0.3278  0.6489 -0.1039
  621SOL    HW1 2482   1.509   2.147   1.968  0.2414 -1.7242  0.4655
  621SOL    HW2 2483   1.666   2.170   1.951  0.4019 -1.6291  2.4252
  621SOL     MW 2484   1.580   2.195   1.935  0.3262  0.0353  0.3049
  622SOL     OW 2485   2.643   0.203   0.245  0.1307 -0.0452  0.2088
  622SOL    HW1 2486   2.729   0.239   0.238  1.4328 -0.1117 -0.0263
  622SOL    HW2 2487   2.656   0.109   0.268 -0.6816 -0.1438 -0.5263
  622SOL     MW 2488   2.656   0.195   0.247  0.1953 -0.0670  0.0808
  623SOL     OW 2489   2.466   2.755   0.847  0.1183  0.2216  0.3573
  623SOL    HW1 2490   2.527   2.829   0.858 -0.8480 -1.1334  0.0529
  623SOL    HW2 2491   2.433   2.759   0.935  0.9563 -0.4307  0.1756
  623SOL     MW 2492   2.470   2.766   0.860  0.1014 -0.0433  0.2932
  624SOL     OW 2493   2.117   1.631   3.031 -0.5565  0.3741 -0.1757
  624SOL    HW1 2494   2.070   1.553   3.058 -3.0880 -3.4616  0.0267
  624SOL    HW2 2495   2.061   1.682   2.968  0.3765 -1.8138 -0.2537
  624SOL     MW 2496   2.104   1.627   3.026 -0.7674 -0.4207 -0.1593
  625SOL     OW 2497   2.224   1.907   1.069 -0.2156  0.1449  0.0819
  625SOL    HW1 2498   2.273   1.872   1.143  0.1240 -0.8133 -1.7339
  625SOL    HW2 2499   2.280   1.979   1.029  3.0639  0.9769  2.5544
  625SOL     MW 2500   2.238   1.912   1.073  0.2619  0.1282  0.1685
  626SOL     OW 2501   0.272   1.765   2.436 -0.7346  0.5572  0.3074
  626SOL    HW1 2502   0.224   1.690   2.471  0.2271 -0.2498 -0.2284
  626SOL    HW2 2503   0.205   1.826   2.400 -0.4254 -0.9623  0.9242
  626SOL     MW 2504   0.257   1.763   2.436 -0.5669  0.2502  0.3181
  627SOL     OW 2505   2.512   0.727   2.559  0.4359  0.3093  0.4007
  627SOL    HW1 2506   2.459   0.805   2.538 -0.1704 -0.7785 -1.2224
  627SOL    HW2 2507   2.556   0.700   2.475 -0.3573 -1.2881 -0.5262
  627SOL     MW 2508   2.511   0.734   2.545  0.2513 -0.0450  0.0642
  628SOL     OW 2509   2.265   1.370   1.284 -0.1151  0.2887 -0.0074
  628SOL    HW1 2510   2.237   1.289   1.238 -0.2658 -0.3222  2.6798
  628SOL    HW2 2511   2.363   1.386   1.256  1.0578  1.0232 -4.0317
  628SOL     MW 2512   2.274   1.361   1.274  0.0198  0.3050 -0.1838
  629SOL     OW 2513   1.872   0.523   1.238 -0.1762 -0.4964  0.4897
  629SOL    HW1 2514   1.863   0.589   1.172 -2.0861 -2.2799 -2.1137
  629SOL    HW2 2515   1.779   0.494   1.234  0.0426 -0.3187 -0.5536
  629SOL     MW 2516   1.859   0.528   1.229 -0.3993 -0.7083  0.0085
  630SOL     OW 2517   2.384   1.883   3.039  0.1494  0.3068 -0.6314
  630SOL    HW1 2518   2.395   1.946   2.965  1.1418 -0.1565  0.8965
  630SOL    HW2 2519   2.286   1.877   3.038  0.1728 -1.5183  1.3287
  630SOL     MW 2520   2.373   1.890   3.029  0.2834  0.0049 -0.1712
  631SOL     OW 2521   2.042   1.694   1.560 -0.2311 -0.2295  0.5319
  631SOL    HW1 2522   2.061   1.609   1.605  1.4277 -4.2066  1.2885
  631SOL    HW2 2523   1.986   1.683   1.490  0.5291  0.5793  0.1651
  631SOL     MW 2524   2.037   1.681   1.556  0.0880 -0.6476  0.5834
  632SOL     OW 2525   0.230   1.962   1.439 -0.0919 -0.3687  0.3786
  632SOL    HW1 2526   0.154   1.973   1.504  1.0618 -0.3421  0.2063
  632SOL    HW2 2527   0.272   1.871   1.449  1.5222 -1.0062 -1.6211
  632SOL     MW 2528   0.226   1.952   1.449  0.2733 -0.4493  0.0920
  633SOL     OW 2529   2.515   0.599   0.266 -0.3677 -0.8292  0.0497
  633SOL    HW1 2530   2.564   0.547   0.330 -1.3670  0.1325  3.8002
  633SOL    HW2 2531   2.501   0.544   0.192  0.0553  0.4993 -1.3730
  633SOL     MW 2532   2.519   0.585   0.265 -0.4437 -0.5271  0.3569
  634SOL     OW 2533   2.678   0.002   0.661 -0.1065 -0.7070  0.1226
  634SOL    HW1 2534   2.718   0.086   0.668 -0.2207  1.5961  0.7213
  634SOL    HW2 2535   2.629   0.003   0.577  0.2500  1.3531  0.0011
  634SOL     MW 2536   2.677   0.013   0.651 -0.0746 -0.1313  0.1855
  635SOL     OW 2537   2.578   0.140   1.846 -0.1101  0.2236  0.2218
  635SOL    HW1 2538   2.642   0.111   1.779  0.2206 -0.3109 -0.5870
  635SOL    HW2 2539   2.623   0.223   1.884  2.7271  1.8303  3.0277
  635SOL     MW 2540   2.592   0.147   1.842  0.3079  0.3650  0.4853
  636SOL     OW 2541   2.811   1.583   0.864 -0.3203  0.1078 -0.2501
  636SOL    HW1 2542   2.719   1.564   0.886 -0.8994 -1.8861 -0.4689
  636SOL    HW2 2543   2.844   1.636   0.936 -0.7161  2.0278  0.4145
  636SOL     MW 2544   2.803   1.588   0.876 -0.4490  0.0981 -0.1913
  637SOL     OW 2545   2.883   1.493   0.609 -0.0550  0.1956 -0.5481
  637SOL    HW1 2546   2.932   1.561   0.563  0.9859  0.6336  2.4205
  637SOL    HW2 2547   2.870   1.524   0.703  0.4393 -0.4797  0.0069
  637SOL     MW 2548   2.887   1.506   0.616  0.1475  0.1643 -0.0832
  638SOL     OW 2549   2.684   0.503   0.505  0.3392  0.0579 -0.0270
  638SOL    HW1 2550   2.777   0.519   0.479  1.2359  3.1856 -0.1038
  638SOL    HW2 2551   2.680   0.550   0.588  1.5096 -1.4080 -0.9560
  638SOL     MW 2552   2.696   0.511   0.512  0.6119  0.2771 -0.1597
  639SOL     OW 2553   1.722   0.037   0.551  0.3209  0.2023 -0.4769
  639SOL    HW1 2554   1.630   0.075   0.547 -0.1048 -0.2181  1.1040
  639SOL    HW2 2555   1.736  -0.019   0.478  0.9083  1.5201  0.5898
  639SOL     MW 2556   1.712   0.034   0.541  0.3422  0.3207 -0.1276
  640SOL     OW 2557   0.277   1.341   0.088  0.5452  0.6379  0.3050
  640SOL    HW1 2558   0.317   1.331  -0.002  0.5680 -2.1857  0.3673
  640SOL    HW2 2559   0.263   1.255   0.128 -2.3177  0.4162  0.2824
  640SOL     MW 2560   0.280   1.329   0.082  0.1705  0.2361  0.3102
  641SOL     OW 2561   2.240   0.439   0.413 -0.3800  0.4346  0.3775
  641SOL    HW1 2562   2.257   0.410   0.329 -0.4938  1.6266  0.6421
  641SOL    HW2 2563   2.305   0.403   0.472  3.8034  1.1300  0.4210
  641SOL     MW 2564   2.251   0.431   0.410  0.1570  0.6836  0.4182
  642SOL     OW 2565   0.060   0.017   0.487  0.0653 -0.1640 -0.0799
  642SOL    HW1 2566   0.036   0.106   0.464  0.9104  2.2558 -0.0033
  642SOL    HW2 2567  -0.012  -0.022   0.536  0.7761 -0.2106 -4.3062
  642SOL     MW 2568   0.047   0.024   0.491  0.2706  0.1492 -0.6274
  643SOL     OW 2569   2.001   0.343   1.724  0.0282 -0.1786  0.6006
  643SOL    HW1 2570   1.933   0.316   1.792 -2.6279 -0.7042  0.4149
  643SOL    HW2 2571   2.001   0.279   1.652 -0.5550  0.7707 -0.0550
  643SOL     MW 2572   1.992   0.331   1.724 -0.3992 -0.1227  0.4896
  644SOL     OW 2573   2.665   1.877   1.024 -0.0872 -0.3523 -0.5635
  644SOL    HW1 2574   2.666   1.804   1.082  0.4272  1.0335  0.5940
  644SOL    HW2 2575   2.571   1.904   1.017 -2.4456 -3.3992  2.1541
  644SOL     MW 2576   2.653   1.871   1.030 -0.3305 -0.5715 -0.0522
  645SOL     OW 2577   2.806   0.828   0.677 -0.1191 -0.4529  0.6756
  645SOL    HW1 2578   2.886   0.790   0.703  0.2256  0.2202 -0.0204
  645SOL    HW2 2579   2.753   0.812   0.752  0.5523 -0.6800  3.3981
  645SOL     MW 2580   2.809   0.821   0.691  0.0149 -0.3941  0.9429
  646SOL     OW 2581   0.079   2.276   0.852  0.1467  0.3061 -0.0555
  646SOL    HW1 2582   0.129   2.200   0.825  0.4592 -0.6409  0.3596
  646SOL    HW2 2583   0.046   2.303   0.767 -0.6874 -0.7896  2.4662
  646SOL     MW 2584   0.081   2.270   0.837  0.0779  0.0366  0.3320
  647SOL     OW 2585   2.716   0.489   2.959 -0.1115 -0.3332  0.7845
  647SOL    HW1 2586   2.655   0.439   3.016  1.3141  0.6142  1.5868
  647SOL    HW2 2587   2.743   0.573   2.995  0.5008  0.1142 -1.0972
  647SOL     MW 2588   2.711   0.493   2.971  0.1574 -0.1492  0.6421
  648SOL     OW 2589   2.209   0.731   1.104  0.1455  0.0435 -0.8577
  648SOL    HW1 2590   2.196   0.640   1.135  1.6649  0.7521 -0.3739
  648SOL    HW2 2591   2.211   0.779   1.190  0.5698  0.5458  1.2672
  648SOL     MW 2592   2.208   0.726   1.120  0.4019  0.2032 -0.5135
  649SOL     OW 2593   2.406   2.693   1.338  0.5436  0.0178 -0.1031
  649SOL    HW1 2594   2.478   2.752   1.355 -2.1859  0.3299 -0.8286
  649SOL    HW2 2595   2.423   2.625   1.270 -1.0887 -0.1539  0.4165
  649SOL     MW 2596   2.418   2.692   1.332 -0.0319  0.0363 -0.1302
  650SOL     OW 2597   2.827   0.250   0.698 -0.5183  0.0941  0.2806
  650SOL    HW1 2598   2.857   0.317   0.756  1.3587  0.5076 -1.1179
  650SOL    HW2 2599   2.892   0.234   0.631 -2.4635 -0.8572  1.5887
  650SOL     MW 2600   2.839   0.257   0.697 -0.5273  0.0231  0.2687
  651SOL     OW 2601   0.005   0.434   1.014  0.6853 -0.0752  0.5689
  651SOL    HW1 2602   0.070   0.452   0.937  1.5511 -0.1886  0.0626
  651SOL    HW2 2603  -0.059   0.509   1.017  0.4936  0.8908 -0.2352
  651SOL     MW 2604   0.005   0.447   1.004  0.7743  0.0373  0.3960
  652SOL     OW 2605   2.402   1.521   3.039 -0.1624 -1.0094 -0.1008
  652SOL    HW1 2606   2.467   1.528   2.962  2.6281 -0.9126  0.4547
  652SOL    HW2 2607   2.337   1.593   3.041  3.1626 -1.3306 -0.6499
  652SOL     MW 2608   2.402   1.531   3.029  0.6445 -1.0390 -0.0999
  653SOL     OW 2609   1.812   0.465   0.330  0.4307  0.0375 -0.2280
  653SOL    HW1 2610   1.780   0.381   0.292  0.3583  2.0953  3.7347
  653SOL    HW2 2611   1.880   0.504   0.277  2.6361 -0.4701  2.2489
  653SOL     MW 2612   1.817   0.459   0.318  0.7121  0.2420  0.6217
  654SOL     OW 2613   2.437   1.015   0.709 -0.4792 -0.1695 -0.5177
  654SOL    HW1 2614   2.366   0.999   0.649  1.5774  1.0878  0.2178
  654SOL    HW2 2615   2.476   0.930   0.730 -2.6791  2.8427 -0.3055
  654SOL     MW 2616   2.433   1.002   0.704 -0.4981  0.3938 -0.3927
  655SOL     OW 2617   2.905   0.829   0.391  0.3037 -0.4146 -0.1287
  655SOL    HW1 2618   2.873   0.851   0.480 -1.1991 -2.7554  1.1430
  655SOL    HW2 2619   2.922   0.735   0.410 -2.1422  0.9203 -1.5675
  655SOL     MW 2620   2.903   0.819   0.405 -0.2173 -0.5473 -0.1507
  656SOL     OW 2621   1.763   2.648   1.349  0.3800 -0.3320 -0.0700
  656SOL    HW1 2622   1.834   2.714   1.366 -1.0722 -0.8016  0.4425
  656SOL    HW2 2623   1.803   2.563   1.324  0.2736 -1.1630 -1.6410
  656SOL     MW 2624   1.778   2.645   1.348  0.1744 -0.5036 -0.2097
  657SOL     OW 2625   0.152   1.773   1.165 -0.0440  0.7399 -0.1458
  657SOL    HW1 2626   0.214   1.833   1.133 -0.8249 -0.9412 -0.9920
  657SOL    HW2 2627   0.190   1.684   1.175 -1.2598 -2.6292  0.4333
  657SOL     MW 2628   0.165   1.770   1.162 -0.3075  0.0736 -0.1810
  658SOL     OW 2629   2.641   1.297   0.241 -0.2242  0.0692 -0.4671
  658SOL    HW1 2630   2.638   1.212   0.278 -1.6821 -2.3301  1.0940
  658SOL    HW2 2631   2.665   1.365   0.307 -0.6860  0.8087  0.1266
  658SOL     MW 2632   2.644   1.295   0.255 -0.4775 -0.1498 -0.1828
  659SOL     OW 2633   2.230   1.537   0.963 -0.2851  0.0795 -0.2088
  659SOL    HW1 2634   2.325   1.539   0.959 -1.3159 -3.0906  1.3682
  659SOL    HW2 2635   2.210   1.564   1.059 -3.5505 -2.4477 -1.9735
  659SOL     MW 2636   2.240   1.541   0.975 -0.8519 -0.6722 -0.2336
  660SOL     OW 2637   2.093   1.494   1.719 -0.6416 -0.1310  0.0876
  660SOL    HW1 2638   2.080   1.544   1.802  2.9389 -1.4965  0.8420
  660SOL    HW2 2639   2.006   1.457   1.695 -0.7594 -0.5619 -1.3601
  660SOL     MW 2640   2.080   1.496   1.727 -0.1847 -0.3680 -0.0039
  661SOL     OW 2641   2.501   0.949   0.212 -0.5066 -0.3780  0.4681
  661SOL    HW1 2642   2.517   0.989   0.298  3.6401  1.3419  0.6452
  661SOL    HW2 2643   2.431   0.883   0.234  3.0908 -1.0702 -0.1076
  661SOL     MW 2644   2.494   0.945   0.226  0.5152 -0.2424  0.4155
  662SOL     OW 2645   2.594   2.995   0.898 -0.3700 -0.4203 -0.2555
  662SOL    HW1 2646   2.515   3.037   0.921  1.9649  0.3384  0.3498
  662SOL    HW2 2647   2.627   3.031   0.815  2.3677 -1.6331 -0.4737
  662SOL     MW 2648   2.588   3.005   0.890  0.2993 -0.4802 -0.2044
  663SOL     OW 2649   2.659   1.488   0.439 -0.2233  0.5149  0.5456
  663SOL    HW1 2650   2.611   1.574   0.437 -2.1732 -0.3567 -1.1846
  663SOL    HW2 2651   2.721   1.498   0.509 -0.3342 -1.4056 -0.5965
  663SOL     MW 2652   2.661   1.501   0.448 -0.4952  0.1465  0.1667
  664SOL     OW 2653   2.561   1.537   1.605  0.0126  0.0300  0.1155
  664SOL    HW1 2654   2.539   1.623   1.567  1.7971  1.4539  0.0069
  664SOL    HW2 2655   2.475   1.485   1.595  1.9060  2.3358  1.4755
  664SOL     MW 2656   2.547   1.542   1.598  0.4978  0.5221  0.2806
  665SOL     OW 2657   2.778   0.806   2.052  0.2611 -0.3021  0.6307
  665SOL    HW1 2658   2.795   0.851   1.969 -0.5443 -0.1833 -0.6930
  665SOL    HW2 2659   2.836   0.732   2.043 -0.3771  0.5002  1.1884
  665SOL     MW 2660   2.788   0.802   2.040  0.0706 -0.1806  0.5297
  666SOL     OW 2661   2.764   3.070   1.713  0.1434 -0.6157 -0.2266
  666SOL    HW1 2662   2.789   3.049   1.619  0.5871  0.2953 -0.4247
  666SOL    HW2 2663   2.710   3.000   1.754 -0.2423  0.5318  2.2960
  666SOL     MW 2664   2.760   3.058   1.706  0.1511 -0.3441  0.0801
  667SOL     OW 2665   1.969   2.701   1.744  0.4203 -0.0036 -0.1959
  667SOL    HW1 2666   2.007   2.681   1.831  0.8852  0.3212 -0.0473
  667SOL    HW2 2667   2.041   2.747   1.704  0.9962 -0.2708  0.7208
  667SOL     MW 2668   1.984   2.704   1.750  0.5576  0.0040 -0.0553
  668SOL     OW 2669   2.682   0.551   0.802 -0.1861 -0.9823  0.2361
  668SOL    HW1 2670   2.766   0.587   0.831  1.5251  1.0157 -1.1829
  668SOL    HW2 2671   2.611   0.626   0.811 -2.2827  2.7230  3.2188
  668SOL     MW 2672   2.684   0.566   0.807 -0.2370 -0.2298  0.4424
  669SOL     OW 2673   0.138   0.865   0.753 -0.2154  0.2411 -0.4244
  669SOL    HW1 2674   0.097   0.931   0.812 -1.5300  0.5820 -0.9613
  669SOL    HW2 2675   0.179   0.813   0.826  0.3976 -1.1581 -1.5720
  669SOL     MW 2676   0.138   0.867   0.770 -0.3080  0.1015 -0.6467
  670SOL     OW 2677   2.911   0.315   0.196  0.5719  1.0925  0.5503
  670SOL    HW1 2678   2.928   0.264   0.112 -0.6832  0.1619 -0.5960
  670SOL    HW2 2679   2.910   0.410   0.164 -0.1604  0.0606  0.3179
  670SOL     MW 2680   2.913   0.321   0.181  0.3097  0.8336  0.3684
  671SOL     OW 2681   1.997   3.063   1.582 -0.0768 -0.1907  0.1495
  671SOL    HW1 2682   1.934   3.006   1.539 -1.0736 -0.0957  1.4899
  671SOL    HW2 2683   1.942   3.102   1.652 -0.3653  0.0629  0.1703
  671SOL     MW 2684   1.982   3.061   1.586 -0.2464 -0.1447  0.3291
  672SOL     OW 2685   1.893   1.685   1.318 -0.4846 -0.2014 -0.3191
  672SOL    HW1 2686   1.844   1.752   1.372 -0.1447  0.6389  0.9355
  672SOL    HW2 2687   1.916   1.729   1.232 -1.9027  0.5933 -3.3671
  672SOL     MW 2688   1.890   1.700   1.314 -0.6268  0.0143 -0.5557
  673SOL     OW 2689   2.799   1.107   0.629 -0.1634  0.1364 -0.2306
  673SOL    HW1 2690   2.805   1.017   0.652  1.4800  1.9837  1.1502
  673SOL    HW2 2691   2.889   1.145   0.643  1.6282 -0.4946 -1.7395
  673SOL     MW 2692   2.812   1.100   0.634  0.2898  0.2969 -0.2475
  674SOL     OW 2693   2.444   0.008   1.245 -0.1327  0.1144  0.1012
  674SOL    HW1 2694   2.385   0.021   1.163  3.6706 -0.6226  0.2489
  674SOL    HW2 2695   2.477  -0.080   1.251 -0.2063 -0.5734  0.9157
  674SOL     MW 2696   2.441  -0.002   1.235  0.3594 -0.0736  0.2281
  675SOL     OW 2697   3.032   0.878   1.108 -0.5627  0.1401 -0.0450
  675SOL    HW1 2698   3.096   0.907   1.176 -0.4421 -1.9436 -0.5208
  675SOL    HW2 2699   3.052   0.930   1.037 -0.2153  0.9559  2.5127
  675SOL     MW 2700   3.043   0.889   1.107 -0.5009 -0.0272  0.2297
  676SOL     OW 2701   2.964   1.475   1.667  0.3574 -0.3115  1.1251
  676SOL    HW1 2702   2.894   1.418   1.650  1.6791 -0.8576  0.4856
  676SOL    HW2 2703   3.020   1.446   1.737  2.6147 -2.8697 -2.0124
  676SOL     MW 2704   2.962   1.464   1.674  0.8296 -0.7211  0.6267
  677SOL     OW 2705   2.379   0.611   2.010 -0.1165 -0.7036 -0.2880
  677SOL    HW1 2706   2.331   0.557   1.947 -0.4409 -0.8032 -2.8964
  677SOL    HW2 2707   2.319   0.692   2.016 -2.5279 -0.1152 -0.8810
  677SOL     MW 2708   2.364   0.614   2.002 -0.4774 -0.6391 -0.7104
  678SOL     OW 2709   2.483   1.704   0.332 -0.2712  0.4148  0.2520
  678SOL    HW1 2710   2.411   1.715   0.391  1.0247  1.2134  1.5450
  678SOL    HW2 2711   2.453   1.632   0.279  1.2621  2.9586  1.1636
  678SOL     MW 2712   2.470   1.696   0.333  0.1021  0.8558  0.5428
  679SOL     OW 2713   2.205   0.469   1.327  0.0602  0.1726  0.5483
  679SOL    HW1 2714   2.187   0.377   1.307 -2.2356 -0.0934  2.4414
  679SOL    HW2 2715   2.132   0.483   1.393 -1.7370  1.0791 -0.2280
  679SOL     MW 2716   2.193   0.458   1.333 -0.4798  0.2571  0.6956
  680SOL     OW 2717   2.381   0.177   1.455 -0.0064 -0.0475  0.2832
  680SOL    HW1 2718   2.285   0.188   1.458  1.8390  1.5421  1.7396
  680SOL    HW2 2719   2.388   0.137   1.374 -0.6090  0.2898 -2.2194
  680SOL     MW 2720   2.369   0.173   1.445  0.1576  0.2067  0.1452
  681SOL     OW 2721   0.285   0.584   1.577  0.2542  0.8879 -0.1762
  681SOL    HW1 2722   0.266   0.518   1.645 -0.1041 -0.4105  2.7849
  681SOL    HW2 2723   0.361   0.547   1.527 -0.5123 -0.2444 -1.0453
  681SOL     MW 2724   0.292   0.571   1.579  0.1058  0.5672  0.0998
  682SOL     OW 2725   0.146   2.800   1.551  0.2400 -0.1395  0.3183
  682SOL    HW1 2726   0.226   2.856   1.569  0.2685 -0.8908  0.2324
  682SOL    HW2 2727   0.071   2.856   1.563  2.7525  2.7033 -2.0892
  682SOL     MW 2728   0.146   2.815   1.555  0.5752  0.1364 -0.0107
  683SOL     OW 2729   2.071   0.804   2.953  0.2714  0.6156  0.4426
  683SOL    HW1 2730   1.985   0.765   2.960 -1.0642 -0.8248  0.5988
  683SOL    HW2 2731   2.058   0.898   2.983 -0.4133 -1.0089 -0.2548
  683SOL     MW 2732   2.058   0.811   2.958  0.0048  0.2112  0.3712
  684SOL     OW 2733   2.250   1.664   0.707 -0.2119 -0.0626 -0.6411
  684SOL    HW1 2734   2.168   1.649   0.664 -1.1865 -3.0737 -0.5444
  684SOL    HW2 2735   2.228   1.640   0.799 -1.5084  1.1395 -1.3595
  684SOL     MW 2736   2.236   1.659   0.713 -0.5115 -0.3013 -0.7231
  685SOL     OW 2737   2.654   1.707   1.263  0.8240  0.1446  0.6110
  685SOL    HW1 2738   2.720   1.716   1.330  0.8269 -0.6668  1.1602
  685SOL    HW2 2739   2.652   1.612   1.250  0.1329 -2.4827  0.0794
  685SOL     MW 2740   2.662   1.695   1.270  0.7332 -0.3091  0.6133
  686SOL     OW 2741   2.900   0.739   1.458 -0.0096 -0.2097 -0.4451
  686SOL    HW1 2742   2.848   0.700   1.532 -4.4019  1.0497  0.0848
  686SOL    HW2 2743   2.994   0.715   1.468 -2.3814  0.1535 -0.4405
  686SOL     MW 2744   2.906   0.731   1.469 -0.9021  0.0044 -0.3746
  687SOL     OW 2745   2.147   0.212   1.211 -0.1679  0.0373 -0.3912
  687SOL    HW1 2746   2.204   0.156   1.164  0.0958  0.7022  1.6726
  687SOL    HW2 2747   2.093   0.252   1.144  0.5823 -0.8949  1.7920
  687SOL     MW 2748   2.147   0.210   1.196 -0.0341  0.0021  0.1691
  688SOL     OW 2749   2.425   0.577   1.466 -0.4828 -0.4114 -0.2023
  688SOL    HW1 2750   2.359   0.534   1.407 -1.3492 -0.8758  1.2741
  688SOL    HW2 2751   2.354   0.600   1.530 -1.5493  2.5509 -0.7024
  688SOL     MW 2752   2.407   0.574   1.466 -0.7378 -0.0818 -0.0735
  689SOL     OW 2753   2.456   0.704   2.928 -0.6700  0.2810 -0.7290
  689SOL    HW1 2754   2.452   0.759   2.854 -0.0254  0.3480 -0.0432
  689SOL    HW2 2755   2.528   0.729   2.988 -1.1393 -1.5153 -2.1708
  689SOL     MW 2756   2.465   0.714   2.926 -0.6469  0.0528 -0.8288
  690SOL     OW 2757   1.997   0.843   1.900 -0.1653  0.5277 -0.0111
  690SOL    HW1 2758   1.982   0.749   1.881  2.0308 -0.4125  2.9669
  690SOL    HW2 2759   2.024   0.889   1.821 -1.1602  0.8218  2.6249
  690SOL     MW 2760   1.998   0.837   1.887 -0.0068  0.4425  0.7296
  691SOL     OW 2761   2.375   0.224   0.854 -0.1671 -0.3868  0.1414
  691SOL    HW1 2762   2.406   0.278   0.922 -2.4076 -0.6979 -0.9654
  691SOL    HW2 2763   2.299   0.271   0.825  3.2664  2.1918 -0.7614
  691SOL     MW 2764   2.369   0.237   0.859 -0.0097 -0.0876 -0.1237
  692SOL     OW 2765   2.882   1.654   1.458 -0.7601 -0.0735 -0.1471
  692SOL    HW1 2766   2.906   1.601   1.530  0.3147  0.8166  2.2567
  692SOL    HW2 2767   2.917   1.745   1.471  1.2907  0.3780 -1.6299
  692SOL     MW 2768   2.890   1.659   1.469 -0.3477  0.1035 -0.0256
  693SOL     OW 2769   2.247   0.410   0.117  0.1591  0.4173 -0.9578
  693SOL    HW1 2770   2.176   0.345   0.111 -0.4281 -1.4695 -1.3284
  693SOL    HW2 2771   2.213   0.486   0.075  1.2748 -0.6835  2.0599
  693SOL     MW 2772   2.233   0.411   0.111  0.2289  0.0231 -0.6086
  694SOL     OW 2773   1.895   1.216   1.173 -0.1495 -0.2447 -0.0267
  694SOL    HW1 2774   1.988   1.192   1.154  1.1425 -0.0778  0.3704
  694SOL    HW2 2775   1.850   1.133   1.199 -4.4027  1.4397  0.5777
  694SOL     MW 2776   1.902   1.202   1.174 -0.5402 -0.0004  0.1055
  695SOL     OW 2777   3.026   1.492   1.289  0.3914 -0.8309 -0.5034
  695SOL    HW1 2778   2.975   1.480   1.208 -0.2094 -2.4443  1.5428
  695SOL    HW2 2779   2.970   1.553   1.346 -3.0871 -0.9622  0.4301
  695SOL     MW 2780   3.012   1.499   1.286 -0.1468 -1.0611 -0.1102
  696SOL     OW 2781   2.072   1.365   0.811  0.1752  0.2195  0.0055
  696SOL    HW1 2782   2.139   1.398   0.878  3.4125 -0.1526  1.6398
  696SOL    HW2 2783   2.025   1.295   0.850 -2.8798  0.0746  2.2936
  696SOL     MW 2784   2.074   1.360   0.825  0.1992  0.1513  0.5230
  697SOL     OW 2785   2.882   1.017   2.186 -0.5356 -0.0474  0.5856
  697SOL    HW1 2786   2.841   1.098   2.182  3.0906  0.3469 -0.4229
  697SOL    HW2 2787   2.833   0.957   2.128  1.3623 -1.2581  0.4643
  697SOL     MW 2788   2.870   1.019   2.178  0.1933 -0.1551  0.4365
  698SOL     OW 2789   2.538   0.340   0.041  0.5349  0.1969 -0.3056
  698SOL    HW1 2790   2.443   0.349   0.064 -2.4473  0.7249  0.9391
  698SOL    HW2 2791   2.587   0.288   0.110  3.9789  1.0263  2.0306
  698SOL     MW 2792   2.532   0.334   0.053  0.5959  0.3760  0.1669
  699SOL     OW 2793   1.848   1.582   2.063  0.0679  0.5593 -0.1007
  699SOL    HW1 2794   1.831   1.487   2.054  1.0844  0.2571 -0.2452
  699SOL    HW2 2795   1.939   1.613   2.040  2.6386  2.6529 -1.8599
  699SOL     MW 2796   1.858   1.574   2.059  0.5412  0.7956 -0.3519
  700SOL     OW 2797   2.729   0.930   1.539  0.8470  0.3339 -0.4018
  700SOL    HW1 2798   2.739   1.015   1.491 -0.6109  3.4018  0.6411
  700SOL    HW2 2799   2.793   0.877   1.492  1.3156 -0.4344  1.9268
  700SOL     MW 2800   2.739   0.934   1.526  0.7164  0.6373  0.0431
  701SOL     OW 2801   1.666   1.204   2.457  0.4067 -0.2186 -0.2069
  701SOL    HW1 2802   1.755   1.191   2.480 -0.4454  0.3173 -0.5665
  701SOL    HW2 2803   1.622   1.260   2.529  0.3076  2.4053  0.1958
  701SOL     MW 2804   1.672   1.209   2.470  0.2812  0.1983 -0.2012
  702SOL     OW 2805   2.142   0.413   0.848 -0.5026 -0.0721  0.1816
  702SOL    HW1 2806   2.128   0.355   0.774 -0.9635  0.6304  0.4875
  702SOL    HW2 2807   2.217   0.477   0.827 -0.9902  1.7496 -0.1579
  702SOL     MW 2808   2.150   0.414   0.835 -0.6277  0.2610  0.1772
  703SOL     OW 2809   2.714   1.221   1.067 -0.2617  0.3248 -0.2895
  703SOL    HW1 2810   2.682   1.204   0.980 -1.4421  0.4950 -1.1074
  703SOL    HW2 2811   2.724   1.129   1.107  0.5462  2.6161 -1.1638
  703SOL     MW 2812   2.711   1.207   1.061 -0.3109  0.6496 -0.5127
  704SOL     OW 2813   0.010   1.167   0.103  0.4741  0.2183  0.2979
  704SOL    HW1 2814  -0.087   1.163   0.095  1.6143 -1.6924  0.1633
  704SOL    HW2 2815   0.020   1.150   0.197 -1.3418  3.7522 -1.7036
  704SOL     MW 2816  -0.001   1.164   0.114  0.3849  0.4325  0.0161
  705SOL     OW 2817   2.175   1.644   1.255 -0.1389  0.0305  0.2991
  705SOL    HW1 2818   2.100   1.664   1.306  0.9274 -1.0175  1.6515
  705SOL    HW2 2819   2.216   1.561   1.289  2.5646 -0.2568 -0.9996
  705SOL     MW 2820   2.171   1.635   1.266  0.3585 -0.1456  0.3062
  706SOL     OW 2821   3.034   1.253   0.652 -0.2864 -0.2726  0.3704
  706SOL    HW1 2822   3.070   1.227   0.561 -1.3199  0.6938 -0.1280
  706SOL    HW2 2823   2.992   1.336   0.629  1.8551 -0.4101 -2.8237
  706SOL     MW 2824   3.033   1.261   0.637 -0.1402 -0.1632 -0.1168
  707SOL     OW 2825   2.286   0.051   1.026 -0.2183  0.0761 -0.3047
  707SOL    HW1 2826   2.310   0.121   0.965 -2.7499 -0.3111  0.0491
  707SOL    HW2 2827   2.226  -0.003   0.973 -1.1593  1.6154  1.2873
  707SOL     MW 2828   2.281   0.053   1.011 -0.6764  0.2281 -0.0480
  708SOL     OW 2829   2.409   1.449   0.216 -0.2593 -0.0222 -0.4059
  708SOL    HW1 2830   2.499   1.411   0.230  1.4248  2.5450 -1.1199
  708SOL    HW2 2831   2.398   1.459   0.122 -4.9428 -0.2001  1.1525
  708SOL     MW 2832   2.420   1.445   0.205 -0.6550  0.2931 -0.2945
  709SOL     OW 2833   1.755   1.639   0.219  0.3142  0.4263  0.9864
  709SOL    HW1 2834   1.732   1.674   0.134  2.1610  0.6348 -0.1688
  709SOL    HW2 2835   1.672   1.648   0.268  0.9017 -0.4213  1.5124
  709SOL     MW 2836   1.741   1.645   0.215  0.6354  0.3420  0.9034
  710SOL     OW 2837   2.170   1.138   1.169 -0.2840 -1.0250 -0.0504
  710SOL    HW1 2838   2.179   1.102   1.078  0.8244 -0.1556  0.7300
  710SOL    HW2 2839   2.161   1.057   1.223  2.6498 -0.2693 -2.6101
  710SOL     MW 2840   2.170   1.122   1.164  0.2493 -0.8106 -0.2851
  711SOL     OW 2841   2.323   0.153   1.755 -0.4846 -0.7836  0.7025
  711SOL    HW1 2842   2.419   0.160   1.776  0.0714  1.4908  0.4454
  711SOL    HW2 2843   2.322   0.162   1.659 -1.0542 -0.4048 -1.5603
  711SOL     MW 2844   2.335   0.155   1.745 -0.4864 -0.4335  0.3700
  712SOL     OW 2845   1.906   0.619   0.069 -0.2768  0.7490 -0.7659
  712SOL    HW1 2846   1.829   0.665   0.049 -1.8425 -1.2546 -3.0533
  712SOL    HW2 2847   1.956   0.675   0.126 -0.3909  0.8942  0.4381
  712SOL     MW 2848   1.903   0.632   0.074 -0.4984  0.5038 -0.9088
  713SOL     OW 2849   2.568   0.823   1.086 -0.2505 -0.4395  0.1552
  713SOL    HW1 2850   2.580   0.746   1.133  0.1258 -1.1688  1.4273
  713SOL    HW2 2851   2.501   0.864   1.134  2.0152 -1.0773 -3.6432
  713SOL     MW 2852   2.561   0.818   1.099  0.0981 -0.6199 -0.1782
  714SOL     OW 2853   2.190   0.187   1.988 -0.3290 -0.3266 -0.5124
  714SOL    HW1 2854   2.250   0.127   2.037  0.5996 -2.2048 -1.0926
  714SOL    HW2 2855   2.241   0.180   1.907 -2.7004  1.1265  1.1920
  714SOL     MW 2856   2.205   0.178   1.984 -0.5193 -0.3827 -0.3641
  715SOL     OW 2857   1.763   1.934   1.727  0.6348  0.4095  0.0834
  715SOL    HW1 2858   1.853   1.943   1.716  0.6483 -0.0607 -0.6766
  715SOL    HW2 2859   1.749   1.882   1.808 -0.1152 -1.7162 -0.4924
  715SOL     MW 2860   1.773   1.929   1.737  0.5376  0.0670 -0.0928
  716SOL     OW 2861   2.319   0.596   0.719  0.4583  0.0333  0.4866
  716SOL    HW1 2862   2.367   0.532   0.668 -1.6141  2.0833 -1.4251
  716SOL    HW2 2863   2.261   0.640   0.655 -0.2681 -1.2061  0.2138
  716SOL     MW 2864   2.318   0.594   0.704  0.0890  0.1402  0.1984
  717SOL     OW 2865   2.860   1.595   2.850 -0.5508 -0.5249  0.3505
  717SOL    HW1 2866   2.951   1.585   2.881  2.0848 -0.3751 -1.3731
  717SOL    HW2 2867   2.810   1.633   2.923 -1.7158  1.7222 -2.6537
  717SOL     MW 2868   2.865   1.599   2.864 -0.3567 -0.2087 -0.2733
  718SOL     OW 2869   2.704   1.413   1.343  0.3222 -0.4467  0.6349
  718SOL    HW1 2870   2.687   1.431   1.437 -0.8848  0.7331 -0.5042
  718SOL    HW2 2871   2.726   1.320   1.336  0.6413 -0.3520  0.5809
  718SOL     MW 2872   2.705   1.403   1.354  0.2051 -0.2786  0.4775
  719SOL     OW 2873   2.219   1.254   0.601 -0.0745  0.0829 -0.4324
  719SOL    HW1 2874   2.310   1.277   0.608 -2.7874 -0.3874 -1.0741
  719SOL    HW2 2875   2.182   1.294   0.679  0.5005 -0.1895 -0.5739
  719SOL     MW 2876   2.226   1.262   0.612 -0.3566 -0.0151 -0.5357
  720SOL     OW 2877   2.830   1.211   0.055  0.4857  0.0528 -0.5476
  720SOL    HW1 2878   2.808   1.116   0.086  0.2452  0.3635  1.7092
  720SOL    HW2 2879   2.783   1.272   0.117  3.3047 -0.5841  1.6500
  720SOL     MW 2880   2.821   1.206   0.067  0.8259  0.0097  0.0401
  721SOL     OW 2881   2.500   0.875   1.403 -0.3501  0.3120 -0.1135
  721SOL    HW1 2882   2.500   0.781   1.391 -1.4606  2.5314  1.1397
  721SOL    HW2 2883   2.576   0.897   1.462 -0.3978  2.7762 -1.0926
  721SOL     MW 2884   2.510   0.865   1.409 -0.5029  0.9299 -0.0773
  722SOL     OW 2885   2.556   1.088   0.419 -0.3844 -0.5248  0.3947
  722SOL    HW1 2886   2.520   1.165   0.460  3.3811  1.8392  2.4877
  722SOL    HW2 2887   2.638   1.063   0.459  1.2997 -1.4754  2.6630
  722SOL     MW 2888   2.562   1.095   0.430  0.3346 -0.3383  0.9701
  723SOL     OW 2889   2.332   1.411   1.582  0.4593 -0.3356 -0.0807
  723SOL    HW1 2890   2.290   1.397   1.499  0.0781 -1.2568  0.3341
  723SOL    HW2 2891   2.261   1.443   1.639 -1.0569 -1.2881  0.7362
  723SOL     MW 2892   2.317   1.413   1.578  0.2090 -0.5828  0.0818
  724SOL     OW 2893   2.441   0.386   0.595  0.4678 -0.3081 -0.7382
  724SOL    HW1 2894   2.466   0.320   0.659 -0.4975  1.4983  2.1097
  724SOL    HW2 2895   2.521   0.425   0.562  0.4619 -2.1267  1.4237
  724SOL     MW 2896   2.455   0.383   0.599  0.3396 -0.3097 -0.0772
  725SOL     OW 2897   2.579   0.540   1.193  0.9431 -0.6888 -0.2855
  725SOL    HW1 2898   2.670   0.540   1.216 -1.0576 -0.2112 -2.6889
  725SOL    HW2 2899   2.532   0.521   1.277 -1.6159  1.5499  0.3276
  725SOL     MW 2900   2.585   0.538   1.207  0.3415 -0.3304 -0.5217
  726SOL     OW 2901   2.574   2.470   0.562  0.4756  0.0896 -0.1604
  726SOL    HW1 2902   2.520   2.547   0.543 -1.3160  0.9488  2.1632
  726SOL    HW2 2903   2.549   2.448   0.654 -0.0406  1.2299 -3.4709
  726SOL     MW 2904   2.563   2.477   0.572  0.1711  0.3534 -0.2906
  727SOL     OW 2905   2.874   0.323   1.751 -0.3448 -0.1502  0.3998
  727SOL    HW1 2906   2.832   0.291   1.674  0.0485  1.0569  3.4401
  727SOL    HW2 2907   2.817   0.318   1.823 -1.3773  4.3113 -1.2338
  727SOL     MW 2908   2.861   0.318   1.750 -0.4291  0.5977  0.5854
  728SOL     OW 2909   2.771   1.131   2.899  0.5374 -0.3399  0.1731
  728SOL    HW1 2910   2.804   1.196   2.837 -0.6122  1.8679  0.5041
  728SOL    HW2 2911   2.776   1.171   2.985  1.5772  1.1132 -0.1010
  728SOL     MW 2912   2.776   1.145   2.902  0.5229  0.1431  0.1806
  729SOL     OW 2913   2.496   1.457   1.177 -0.5493 -0.5407  0.4807
  729SOL    HW1 2914   2.565   1.402   1.226 -1.0171 -1.7635  0.9958
  729SOL    HW2 2915   2.516   1.452   1.081  2.2801  1.9628  0.3914
  729SOL     MW 2916   2.508   1.449   1.170 -0.2377 -0.3717  0.5369
  730SOL     OW 2917   2.292   1.185   0.185 -0.2862 -0.6022  0.3484
  730SOL    HW1 2918   2.385   1.161   0.202  2.6325  1.7087  1.6999
  730SOL    HW2 2919   2.297   1.282   0.207  1.5702 -0.3154  1.4715
  730SOL     MW 2920   2.305   1.194   0.190  0.3438 -0.2595  0.6749
  731SOL     OW 2921   2.779   1.991   2.906 -0.0065  0.7880  0.1866
  731SOL    HW1 2922   2.712   1.984   2.842  2.0754 -2.0796  1.6773
  731SOL    HW2 2923   2.859   2.015   2.860  0.3223  1.4489 -1.4166
  731SOL     MW 2924   2.781   1.993   2.891  0.3116  0.4968  0.1718
  732SOL     OW 2925   2.226   0.880   1.354  0.2885 -0.3747  0.1559
  732SOL    HW1 2926   2.193   0.903   1.441  2.9160  1.0979  0.0012
  732SOL    HW2 2927   2.317   0.901   1.367 -2.8599  1.3393 -0.2015
  732SOL     MW 2928   2.234   0.886   1.367  0.2198  0.0458  0.0884
  733SOL     OW 2929   2.357   2.814   2.999 -0.0389  0.5288 -0.5232
  733SOL    HW1 2930   2.275   2.863   2.984  0.8331  0.7061  0.3300
  733SOL    HW2 2931   2.348   2.720   2.981 -0.4870 -0.2982 -2.7572
  733SOL     MW 2932   2.345   2.808   2.995  0.0170  0.4431 -0.7054
  734SOL     OW 2933   1.452   0.317   2.433  0.0331 -0.3555 -0.0770
  734SOL    HW1 2934   1.410   0.274   2.509 -0.4958  1.0186  2.1537
  734SOL    HW2 2935   1.492   0.242   2.379 -1.6560 -0.8994 -2.5013
  734SOL     MW 2936   1.452   0.301   2.436 -0.2595 -0.2460 -0.1025
  735SOL     OW 2937   2.914   0.901   2.626  0.0302 -0.3701 -0.5639
  735SOL    HW1 2938   2.938   0.807   2.630  3.4199 -1.3938  0.1933
  735SOL    HW2 2939   2.942   0.921   2.714 -2.1913 -1.3304 -1.3853
  735SOL     MW 2940   2.921   0.892   2.638  0.1843 -0.6319 -0.5724
  736SOL     OW 2941   0.095   0.609   2.506 -0.4789 -0.1387  0.2854
  736SOL    HW1 2942   0.112   0.681   2.445 -0.3756 -1.4087  1.9037
  736SOL    HW2 2943   0.090   0.532   2.448  0.1631  1.4386 -0.0714
  736SOL     MW 2944   0.096   0.609   2.490 -0.3806 -0.0982  0.4518
  737SOL     OW 2945   2.932   0.617   2.597 -0.0114 -0.2258 -0.0053
  737SOL    HW1 2946   2.872   0.590   2.525 -0.5123 -0.6488 -2.3143
  737SOL    HW2 2947   3.022   0.627   2.560  0.2156  1.9565  0.2124
  737SOL     MW 2948   2.936   0.615   2.583 -0.0475  0.0063 -0.2812
  738SOL     OW 2949   0.119   0.598   1.951  0.0594  0.6465  0.6461
  738SOL    HW1 2950   0.187   0.649   1.908  0.7786 -1.4018  1.3108
  738SOL    HW2 2951   0.150   0.508   1.953  0.3377  0.7151 -0.7195
  738SOL     MW 2952   0.132   0.593   1.946  0.1910  0.3853  0.5536
  739SOL     OW 2953   2.490   0.979   2.037 -0.3184 -0.1551  0.3326
  739SOL    HW1 2954   2.418   0.925   2.005 -0.7905  0.3973  0.1876
  739SOL    HW2 2955   2.532   1.029   1.970  1.2471 -0.4841  0.4885
  739SOL     MW 2956   2.486   0.979   2.024 -0.1742 -0.1256  0.3341
  740SOL     OW 2957   0.229   1.743   2.961 -0.7662 -0.2419 -0.3788
  740SOL    HW1 2958   0.188   1.660   2.984  0.9269  0.3826 -1.0604
  740SOL    HW2 2959   0.324   1.735   2.979  0.8284  0.2784  0.2195
  740SOL     MW 2960   0.237   1.731   2.967 -0.3324 -0.0908 -0.3898
  741SOL     OW 2961   2.205   1.113   2.770 -0.2492  0.8146  0.3004
  741SOL    HW1 2962   2.133   1.050   2.777  2.1308 -0.4169  0.6825
  741SOL    HW2 2963   2.208   1.158   2.852  1.2379 -2.2654  0.0595
  741SOL     MW 2964   2.196   1.110   2.782  0.2610  0.2457  0.3190
  742SOL     OW 2965   1.564   1.211   2.211  0.6922  0.5809 -0.3639
  742SOL    HW1 2966   1.542   1.118   2.195  0.1192 -0.3471  1.6238
  742SOL    HW2 2967   1.591   1.221   2.303  0.7757 -1.2769 -1.6122
  742SOL     MW 2968   1.564   1.200   2.221  0.6276  0.2133 -0.2663
  743SOL     OW 2969   2.491   1.310   2.719  0.4862  0.4507 -0.2545
  743SOL    HW1 2970   2.396   1.306   2.710 -3.5899 -0.8769  1.9080
  743SOL    HW2 2971   2.515   1.223   2.735 -0.0898  0.0920  1.8253
  743SOL     MW 2972   2.482   1.298   2.720 -0.1276  0.2282  0.3053
  744SOL     OW 2973   2.767   0.922   1.809  0.4402  0.0824  0.9408
  744SOL    HW1 2974   2.694   0.989   1.821  1.8498 -0.3730 -2.6351
  744SOL    HW2 2975   2.742   0.879   1.726 -2.0823 -1.8317  3.3697
  744SOL     MW 2976   2.754   0.925   1.800  0.2934 -0.2303  0.7895
  745SOL     OW 2977   1.687   0.437   2.497  0.0577 -0.2851  0.5163
  745SOL    HW1 2978   1.705   0.434   2.402  1.3538 -1.4410 -0.5342
  745SOL    HW2 2979   1.599   0.396   2.503 -0.0317 -1.6864 -0.3737
  745SOL     MW 2980   1.678   0.431   2.485  0.2169 -0.6225  0.2603
  746SOL     OW 2981   1.566   1.474   1.599  0.7355  0.1954  1.2529
  746SOL    HW1 2982   1.659   1.490   1.623  1.8969  0.1028  0.0909
  746SOL    HW2 2983   1.548   1.418   1.677  1.9531 -2.0363  0.2232
  746SOL     MW 2984   1.576   1.469   1.612  1.0494 -0.1113  0.9638
  747SOL     OW 2985   2.559   1.150   1.815  0.3547  0.2296  0.3972
  747SOL    HW1 2986   2.467   1.157   1.783  0.0112 -0.1019 -2.5392
  747SOL    HW2 2987   2.544   1.212   1.890 -1.8923  1.0050 -1.1480
  747SOL     MW 2988   2.545   1.159   1.820  0.0129  0.2881 -0.1941
  748SOL     OW 2989   0.099   3.081   1.827  0.1235 -0.3182 -0.1432
  748SOL    HW1 2990   0.198   3.097   1.823  1.6527  2.0455  0.4757
  748SOL    HW2 2991   0.072   3.132   1.908 -1.4642  1.1133  0.9497
  748SOL     MW 2992   0.109   3.090   1.837  0.1158  0.1826  0.0827
  749SOL     OW 2993   2.458   0.517   2.712  0.9125 -0.3339 -0.7122
  749SOL    HW1 2994   2.484   0.592   2.652  0.4479  1.6420  1.0967
  749SOL    HW2 2995   2.479   0.534   2.802  0.8693  0.1814 -1.9872
  749SOL     MW 2996   2.464   0.529   2.716  0.8455 -0.0052 -0.6418
  750SOL     OW 2997   2.022   3.056   1.999 -0.0006 -0.3090 -0.0949
  750SOL    HW1 2998   2.079   3.129   2.006 -1.7583  0.8739 -1.8003
  750SOL    HW2 2999   2.087   2.991   1.989  0.3183  0.6688 -1.0687
  750SOL     MW 3000   2.038   3.057   1.999 -0.1905 -0.0239 -0.4484
  751SOL     OW 3001   0.042   0.412   2.307 -0.3826  0.0204  0.1721
  751SOL    HW1 3002  -0.031   0.363   2.343  2.0714  0.9341 -0.3020
  751SOL    HW2 3003   0.122   0.358   2.303 -1.6902  0.5042  0.5766
  751SOL     MW 3004   0.043   0.399   2.311 -0.2313  0.2048  0.1629
  752SOL     OW 3005   2.144   0.827   2.688 -0.1118  0.2288  0.2092
  752SOL    HW1 3006   2.224   0.872   2.657  1.4799 -2.5985 -1.0136
  752SOL    HW2 3007   2.152   0.826   2.786  1.8229 -1.9216 -0.2669
  752SOL     MW 3008   2.156   0.833   2.697  0.3535 -0.4280 -0.0150
  753SOL     OW 3009   2.920   0.313   2.403  0.4589  0.6513  0.0628
  753SOL    HW1 3010   2.881   0.244   2.355  2.2139 -0.8645 -1.7140
  753SOL    HW2 3011   2.845   0.374   2.390 -0.0496  2.0144 -2.1784
  753SOL     MW 3012   2.905   0.312   2.395  0.6234  0.6312 -0.4673
  754SOL     OW 3013   2.253   2.994   2.616 -0.2032 -0.0299  0.1152
  754SOL    HW1 3014   2.250   2.952   2.526 -1.6602  1.7661 -1.6968
  754SOL    HW2 3015   2.317   2.950   2.671 -2.4832  2.5282  0.9210
  754SOL     MW 3016   2.261   2.983   2.611 -0.6962  0.5446 -0.0176
  755SOL     OW 3017   2.723   1.516   2.500  0.2906  0.4939 -0.3847
  755SOL    HW1 3018   2.726   1.446   2.567  2.1718 -3.5429 -0.5364
  755SOL    HW2 3019   2.791   1.577   2.535  1.3985 -1.9097  0.6567
  755SOL     MW 3020   2.732   1.515   2.514  0.6850 -0.3558 -0.2673
  756SOL     OW 3021   2.257   1.278   2.986 -0.3644 -0.1630 -0.0719
  756SOL    HW1 3022   2.302   1.364   2.994 -0.9108  0.9067  0.0377
  756SOL    HW2 3023   2.318   1.217   3.038 -0.0692 -1.2352  1.7804
  756SOL     MW 3024   2.271   1.281   2.994 -0.3975 -0.1633  0.1870
  757SOL     OW 3025   2.091   0.954   1.609 -0.0562 -0.0214  0.2541
  757SOL    HW1 3026   2.120   0.862   1.621 -0.6258 -0.8288  1.5226
  757SOL    HW2 3027   2.013   0.945   1.549  1.6310 -0.2129 -3.1105
  757SOL     MW 3028   2.084   0.940   1.603  0.0912 -0.1532 -0.0224
  758SOL     OW 3029   2.195   1.757   2.641  0.0420  0.0190  0.5982
  758SOL    HW1 3030   2.193   1.774   2.542  1.4275  1.7006 -0.4579
  758SOL    HW2 3031   2.289   1.748   2.661 -0.0563  0.3678 -0.3314
  758SOL     MW 3032   2.207   1.758   2.630  0.2118  0.2869  0.3362
  759SOL     OW 3033   1.618   1.349   2.709  0.0258 -0.2490 -0.0981
  759SOL    HW1 3034   1.605   1.444   2.680 -1.4006 -0.6795  1.5655
  759SOL    HW2 3035   1.673   1.345   2.789 -1.8718 -0.9394 -0.1311
  759SOL     MW 3036   1.624   1.361   2.715 -0.4128 -0.3969  0.1170
  760SOL     OW 3037   2.582   2.008   2.687  0.5920 -0.3811  0.2002
  760SOL    HW1 3038   2.543   1.917   2.672  2.6907 -0.5476  2.8194
  760SOL    HW2 3039   2.550   2.061   2.615 -0.6798  2.7091 -0.3992
  760SOL     MW 3040   2.573   2.003   2.675  0.7011  0.0047  0.4667
  761SOL     OW 3041   2.173   0.414   2.467  0.1825  0.0637 -0.6492
  761SOL    HW1 3042   2.088   0.368   2.472 -0.8073 -1.4250  1.1076
  761SOL    HW2 3043   2.181   0.459   2.550  0.1554  0.7063  0.6700
  761SOL     MW 3044   2.163   0.414   2.478  0.0483 -0.0480 -0.2434
  762SOL     OW 3045   0.043   0.158   2.049  0.4603 -0.1042  0.0307
  762SOL    HW1 3046   0.004   0.110   2.121  0.3345 -0.5349 -0.2108
  762SOL    HW2 3047  -0.012   0.236   2.058  0.8846 -1.5968  0.2692
  762SOL     MW 3048   0.030   0.162   2.059  0.4997 -0.3580  0.0303
  763SOL     OW 3049   2.400   1.076   2.286  0.6027  0.0299 -0.1039
  763SOL    HW1 3050   2.436   1.037   2.202 -0.3977 -1.1573 -1.3155
  763SOL    HW2 3051   2.473   1.129   2.327 -1.1503 -1.4076 -1.2300
  763SOL     MW 3052   2.414   1.078   2.280  0.2395 -0.3164 -0.4123
  764SOL     OW 3053   0.456   0.301   2.796 -0.1941  0.5578  0.1799
  764SOL    HW1 3054   0.400   0.258   2.736 -0.1851 -1.4172 -1.5000
  764SOL    HW2 3055   0.409   0.361   2.855 -1.8442 -0.7252  0.7759
  764SOL     MW 3056   0.442   0.303   2.796 -0.4106  0.1279  0.0369
  765SOL     OW 3057   2.779   0.085   2.305 -0.2715 -0.1441  0.3749
  765SOL    HW1 3058   2.729   0.078   2.225 -0.3473 -1.7301  0.8451
  765SOL    HW2 3059   2.817  -0.005   2.322  0.3485  0.7085  0.8682
  765SOL     MW 3060   2.777   0.072   2.297 -0.1997 -0.2409  0.5020
  766SOL     OW 3061   1.876   2.996   2.233  0.0308 -0.3030 -0.0714
  766SOL    HW1 3062   1.905   3.039   2.152  1.5680 -1.1464 -0.2697
  766SOL    HW2 3063   1.813   2.931   2.197 -3.5337 -0.3362 -2.3565
  766SOL     MW 3064   1.871   2.994   2.217 -0.2367 -0.4187 -0.3991
  767SOL     OW 3065   2.615   0.617   1.912 -0.2040 -0.0169 -0.6212
  767SOL    HW1 3066   2.656   0.699   1.946 -0.0515 -0.5799  0.7955
  767SOL    HW2 3067   2.523   0.616   1.946 -0.0588 -0.1733 -0.6020
  767SOL     MW 3068   2.608   0.628   1.921 -0.1647 -0.1118 -0.4317
  768SOL     OW 3069   0.047   1.529   2.958  0.0777  0.0989  0.1107
  768SOL    HW1 3070   0.028   1.505   3.054 -0.9680  1.4844  0.4191
  768SOL    HW2 3071   0.059   1.448   2.895  1.9819  0.8665 -1.8773
  768SOL     MW 3072   0.046   1.516   2.963  0.1909  0.3830 -0.1109
  769SOL     OW 3073   2.369   0.685   2.300  0.1834 -0.0298  0.6855
  769SOL    HW1 3074   2.281   0.671   2.314  0.4883 -0.5857  1.3020
  769SOL    HW2 3075   2.379   0.663   2.212  1.4527 -0.3729  1.1940
  769SOL     MW 3076   2.359   0.680   2.290  0.3911 -0.1484  0.8339
  770SOL     OW 3077   0.083   1.609   2.603  0.7741  0.3973  0.1125
  770SOL    HW1 3078  -0.012   1.646   2.601  0.6470 -0.6342  1.1973
  770SOL    HW2 3079   0.072   1.526   2.645 -0.8459 -1.3940 -0.1480
  770SOL     MW 3080   0.069   1.603   2.608  0.5436  0.0248  0.2212
  771SOL     OW 3081   2.957   0.641   1.925  0.4260 -0.0296 -0.0260
  771SOL    HW1 3082   2.915   0.660   1.844 -1.4392  0.4008  0.6782
  771SOL    HW2 3083   3.052   0.621   1.918 -1.0025 -0.6642 -2.0977
  771SOL     MW 3084   2.964   0.641   1.913 -0.0086 -0.0565 -0.2064
  772SOL     OW 3085   3.099   3.087   2.269 -0.2738  0.1016  0.5333
  772SOL    HW1 3086   3.024   3.028   2.291 -0.5546 -0.8368  2.3422
  772SOL    HW2 3087   3.171   3.025   2.223  0.0946 -1.7515 -0.5023
  772SOL     MW 3088   3.099   3.071   2.266 -0.2623 -0.2667  0.6354
  773SOL     OW 3089   2.467   2.849   2.756  0.3712 -0.1623  0.5775
  773SOL    HW1 3090   2.461   2.772   2.700  0.7075  0.0249 -0.5971
  773SOL    HW2 3091   2.447   2.826   2.848 -1.7674  0.2123  0.6207
  773SOL     MW 3092   2.463   2.836   2.761  0.1334 -0.0882  0.4282
  774SOL     OW 3093   2.273   1.177   1.738 -0.4168  0.1319 -0.0915
  774SOL    HW1 3094   2.298   1.244   1.669 -2.3039  1.1005  0.4955
  774SOL    HW2 3095   2.212   1.121   1.697  2.3402  3.2102 -2.0639
  774SOL     MW 3096   2.268   1.178   1.724 -0.3020  0.6658 -0.2743
  775SOL     OW 3097   2.299   2.905   2.308 -0.5257 -0.4265  0.0857
  775SOL    HW1 3098   2.313   2.980   2.248  3.4903 -2.5858  0.3697
  775SOL    HW2 3099   2.366   2.844   2.274  0.2877  3.2267 -1.7921
  775SOL     MW 3100   2.309   2.907   2.296  0.1115 -0.2294 -0.1246
  776SOL     OW 3101   0.034   1.455   0.112  0.5731  0.0015 -0.1935
  776SOL    HW1 3102   0.129   1.423   0.115 -2.1348  1.0465 -0.6391
  776SOL    HW2 3103  -0.017   1.378   0.083  0.2211 -2.4744 -1.3429
  776SOL     MW 3104   0.040   1.440   0.108  0.1694 -0.1873 -0.4040
  777SOL     OW 3105   3.000   1.069   1.765 -0.1773  0.1076  0.0143
  777SOL    HW1 3106   2.934   1.138   1.761 -1.1544 -2.0143 -0.1007
  777SOL    HW2 3107   2.948   0.989   1.775  0.2056 -2.9590 -0.3643
  777SOL     MW 3108   2.984   1.067   1.766 -0.2557 -0.5770 -0.0508
  778SOL     OW 3109   2.887   0.406   2.760 -0.0357  0.0653  0.2484
  778SOL    HW1 3110   2.823   0.435   2.830  0.5057  0.6427 -2.1342
  778SOL    HW2 3111   2.902   0.480   2.703 -2.1775 -0.3292  0.9543
  778SOL     MW 3112   2.880   0.419   2.762 -0.2469  0.0894  0.0271
  779SOL     OW 3113   2.094   0.621   2.300  0.3089  0.1783  0.3627
  779SOL    HW1 3114   2.020   0.672   2.349 -0.3360 -2.6041  0.9499
  779SOL    HW2 3115   2.142   0.582   2.365 -0.6447 -0.3766 -2.8522
  779SOL     MW 3116   2.091   0.623   2.315  0.0980 -0.2620  0.0160
  780SOL     OW 3117   0.211   0.123   2.804  0.0990 -0.2119  0.4009
  780SOL    HW1 3118   0.184   0.199   2.852 -2.1500 -1.6151  0.0263
  780SOL    HW2 3119   0.131   0.113   2.754  0.5523 -0.0294  0.2311
  780SOL     MW 3120   0.197   0.132   2.804 -0.1380 -0.3729  0.3291
  781SOL     OW 3121   3.020   1.314   2.506 -0.1762 -0.7538  0.5314
  781SOL    HW1 3122   3.014   1.362   2.424  0.7457 -1.8062  2.6658
  781SOL    HW2 3123   3.020   1.223   2.480  0.3279 -2.9361  0.1067
  781SOL     MW 3124   3.019   1.309   2.492  0.0120 -1.1806  0.7570
  782SOL     OW 3125   0.672   1.552   0.012 -0.5503 -0.1615  0.1367
  782SOL    HW1 3126   0.616   1.611  -0.036  0.1220  0.3624 -0.3910
  782SOL    HW2 3127   0.608   1.523   0.082 -2.3933 -2.9241  1.8280
  782SOL     MW 3128   0.656   1.556   0.015 -0.7048 -0.4569  0.2902
  783SOL     OW 3129   2.721   0.475   2.435  0.2318  0.4413  0.3708
  783SOL    HW1 3130   2.651   0.453   2.370  0.0407 -1.3843  2.0501
  783SOL    HW2 3131   2.705   0.403   2.497 -1.6934  0.3817  0.5718
  783SOL     MW 3132   2.710   0.463   2.435 -0.0474  0.1926  0.6189
  784SOL     OW 3133   0.286   0.911   2.870 -0.1797  0.0330 -0.2279
  784SOL    HW1 3134   0.225   0.986   2.879  0.3507  0.6512 -2.5337
  784SOL    HW2 3135   0.353   0.944   2.800 -1.1619 -0.3950  3.4819
  784SOL     MW 3136   0.287   0.925   2.862 -0.2393  0.0581 -0.0427
  785SOL     OW 3137   0.428   0.522   2.187  0.1970  0.9484  0.2471
  785SOL    HW1 3138   0.428   0.539   2.094  3.9048 -0.2579 -1.9223
  785SOL    HW2 3139   0.364   0.450   2.182  1.9240  1.7464 -2.9406
  785SOL     MW 3140   0.419   0.515   2.174  0.9141  0.8945 -0.4597
  786SOL     OW 3141   1.945   0.494   2.886  0.5129  0.0018 -0.1241
  786SOL    HW1 3142   1.933   0.529   2.970 -0.4148 -3.1283 -4.6928
  786SOL    HW2 3143   2.039   0.476   2.865 -1.9235  0.1976  4.7076
  786SOL     MW 3144   1.956   0.496   2.894  0.0690 -0.3853 -0.0894
  787SOL     OW 3145   2.424   0.131   2.963  0.2806 -0.2180 -0.2417
  787SOL    HW1 3146   2.486   0.090   2.902 -2.0286 -0.0176 -0.1908
  787SOL    HW2 3147   2.471   0.210   3.000  0.3863 -1.0762  2.2292
  787SOL     MW 3148   2.438   0.136   2.960 -0.0101 -0.3048  0.0910
  788SOL     OW 3149   2.869   2.938   2.372 -0.0156 -0.1178  0.2172
  788SOL    HW1 3150   2.795   2.919   2.427 -4.0828 -0.5287  0.2907
  788SOL    HW2 3151   2.922   2.858   2.387  2.8002  0.7379 -0.6726
  788SOL     MW 3152   2.866   2.925   2.381 -0.1807 -0.0591  0.1095
  789SOL     OW 3153   0.105   0.307   2.966  0.4625 -0.0094  0.2963
  789SOL    HW1 3154   0.013   0.275   2.975  1.4834 -2.0705 -1.1124
  789SOL    HW2 3155   0.093   0.395   2.941  0.8018  1.7058  4.8334
  789SOL     MW 3156   0.091   0.314   2.964  0.6420 -0.0550  0.7091
  790SOL     OW 3157   3.028   1.063   2.431 -0.0846  0.0663 -0.2198
  790SOL    HW1 3158   2.994   0.991   2.480 -1.0373 -0.2355  0.3651
  790SOL    HW2 3159   3.011   1.050   2.338 -1.9793 -0.0042  0.9235
  790SOL     MW 3160   3.021   1.052   2.426 -0.4603  0.0171  0.0082
  791SOL     OW 3161   2.660   0.306   2.660  0.4333 -0.0361 -0.0680
  791SOL    HW1 3162   2.607   0.385   2.674  1.6439 -2.5331  3.0572
  791SOL    HW2 3163   2.746   0.331   2.684 -0.3178 -0.4984  0.1532
  791SOL     MW 3164   2.664   0.320   2.665  0.4940 -0.4266  0.3735
  792SOL     OW 3165   2.363   0.256   2.358  0.3904 -0.7786 -0.3609
  792SOL    HW1 3166   2.291   0.301   2.408 -0.3098 -0.1439 -1.3202
  792SOL    HW2 3167   2.416   0.209   2.419 -1.2571  0.4517 -0.2938
  792SOL     MW 3168   2.361   0.256   2.372  0.0806 -0.5325 -0.4787
  793SOL     OW 3169   1.858   1.077   1.949  0.2490 -0.2065 -0.2821
  793SOL    HW1 3170   1.838   1.088   1.861 -0.0800  0.1285  0.5613
  793SOL    HW2 3171   1.920   1.004   1.943  0.4799  2.4847 -2.5120
  793SOL     MW 3172   1.864   1.069   1.936  0.2361  0.1928 -0.4651
  794SOL     OW 3173   1.448   2.270   0.167 -0.2181 -0.0485 -0.4661
  794SOL    HW1 3174   1.443   2.341   0.106  0.1885  3.2167 -0.9134
  794SOL    HW2 3175   1.509   2.304   0.232 -1.1860  2.3130 -0.5386
  794SOL     MW 3176   1.455   2.284   0.167 -0.2922  0.6939 -0.5347
  795SOL     OW 3177   2.355   0.970   2.562  0.0006 -0.0513  0.0858
  795SOL    HW1 3178   2.334   1.039   2.625 -0.3224 -1.5691 -0.9017
  795SOL    HW2 3179   2.364   1.020   2.483  1.8687  1.3892 -1.4144
  795SOL     MW 3180   2.353   0.986   2.560  0.2045 -0.0615 -0.2425
  796SOL     OW 3181   0.228   0.603   2.785 -0.3074  0.7794  0.5060
  796SOL    HW1 3182   0.232   0.698   2.803 -1.1062 -2.2108  2.9610
  796SOL    HW2 3183   0.185   0.601   2.698  0.8749 -1.7676  0.7755
  796SOL     MW 3184   0.223   0.616   2.776 -0.2568  0.0488  0.8655
  797SOL     OW 3185   2.565   0.086   2.519  0.2123  0.3391  0.2060
  797SOL    HW1 3186   2.588   0.162   2.557  0.5229 -2.9851 -0.1218
  797SOL    HW2 3187   2.633   0.081   2.448 -0.1130  1.9129 -0.7544
  797SOL     MW 3188   2.577   0.095   2.515  0.2104  0.1082  0.0360
  798SOL     OW 3189   2.348   0.049   2.163  0.3419  0.3227 -0.0299
  798SOL    HW1 3190   2.341   0.126   2.223 -0.4347 -2.4328  1.2445
  798SOL    HW2 3191   2.432   0.045   2.126 -2.2261 -1.5102  0.9878
  798SOL     MW 3192   2.358   0.059   2.166 -0.0994 -0.2827  0.2725
  799SOL     OW 3193   2.452   2.911   0.125 -0.0367  0.1144  0.3147
  799SOL    HW1 3194   2.426   2.858   0.047  2.5432  0.5498  0.7093
  799SOL    HW2 3195   2.404   2.990   0.111 -0.4600  0.0971  0.6944
  799SOL     MW 3196   2.443   2.915   0.113  0.2479  0.1696  0.4169
  800SOL     OW 3197   1.831   3.105   1.802  0.1327  0.8034  0.3848
  800SOL    HW1 3198   1.794   3.017   1.784  0.5633  0.5999  1.1960
  800SOL    HW2 3199   1.888   3.088   1.875 -1.6133  0.7509  1.1571
  800SOL     MW 3200   1.834   3.092   1.810 -0.0408  0.7697  0.5937
  801SOL     OW 3201   2.801   1.267   2.642  0.1003  0.0186 -0.1123
  801SOL    HW1 3202   2.784   1.182   2.594 -3.7789 -3.2186  0.1057
  801SOL    HW2 3203   2.873   1.302   2.597 -2.6367 -2.1454  1.0520
  801SOL     MW 3204   2.808   1.260   2.630 -0.7726 -0.6940  0.0701
  802SOL     OW 3205   2.564   1.548   2.812 -0.2911  0.4450  0.0712
  802SOL    HW1 3206   2.538   1.463   2.764 -0.2172  3.0393 -0.3495
  802SOL    HW2 3207   2.662   1.548   2.812  1.6831  0.7146  1.3150
  802SOL     MW 3208   2.574   1.537   2.805 -0.0209  0.8229  0.1798
  803SOL     OW 3209   2.286   1.350   1.943  0.3011 -0.8346 -0.3052
  803SOL    HW1 3210   2.281   1.277   1.993 -1.4765  0.6952 -0.9013
  803SOL    HW2 3211   2.266   1.320   1.855 -0.0246  0.0977 -0.7939
  803SOL     MW 3212   2.283   1.337   1.938  0.0236 -0.5098 -0.4483
  804SOL     OW 3213   2.285   0.032   0.069 -0.1822 -0.0722  0.5123
  804SOL    HW1 3214   2.216   0.101   0.062 -0.8140 -1.6848 -0.8498
  804SOL    HW2 3215   2.351   0.071   0.014  0.4244 -0.5900  0.8896
  804SOL     MW 3216   2.285   0.046   0.061 -0.1855 -0.3533  0.3824
  805SOL     OW 3217   2.711   1.031   2.514  0.3689  0.7865  0.3033
  805SOL    HW1 3218   2.725   1.062   2.426  0.6522 -2.2381 -0.6445
  805SOL    HW2 3219   2.785   0.977   2.537  0.5779  0.5973 -0.2997
  805SOL     MW 3220   2.723   1.028   2.505  0.4339  0.3624  0.0987
  806SOL     OW 3221   2.565   0.394   2.221  0.3765  0.1975  0.4471
  806SOL    HW1 3222   2.482   0.363   2.263 -2.0431 -0.6266  1.8505
  806SOL    HW2 3223   2.547   0.390   2.126  1.9591 -1.3619 -1.7242
  806SOL     MW 3224   2.551   0.390   2.214  0.2661 -0.1170  0.3458
  807SOL     OW 3225   0.057   1.150   2.060 -0.0291 -0.3197 -0.8025
  807SOL    HW1 3226   0.112   1.081   2.010 -0.5647  1.0092 -1.0827
  807SOL    HW2 3227  -0.025   1.103   2.083  1.9048  1.8481 -2.2780
  807SOL     MW 3228   0.053   1.135   2.056  0.1554  0.1416 -1.0342
  808SOL     OW 3229   2.577   3.101   2.774 -0.5073 -0.0053  0.1059
  808SOL    HW1 3230   2.550   3.009   2.760  0.0843 -0.0781  1.2858
  808SOL    HW2 3231   2.570   3.143   2.687  1.2704  0.5101 -4.4472
  808SOL     MW 3232   2.573   3.094   2.761 -0.1947  0.0531 -0.3391
  809SOL     OW 3233   2.555   1.258   2.414 -0.2472 -0.6368 -0.0890
  809SOL    HW1 3234   2.611   1.222   2.476 -0.0850  2.0085 -2.7004
  809SOL    HW2 3235   2.609   1.314   2.359  0.2267  1.6515  2.0316
  809SOL     MW 3236   2.570   1.261   2.415 -0.1633  0.0141 -0.1538
  810SOL     OW 3237   2.252   1.299   2.229 -0.2009  0.3310 -0.2872
  810SOL    HW1 3238   2.305   1.219   2.258 -0.6203 -0.4898  3.5541
  810SOL    HW2 3239   2.156   1.277   2.231 -2.2979  1.0766 -1.1438
  810SOL     MW 3240   2.246   1.285   2.233 -0.5329  0.3211  0.1066
  811SOL     OW 3241   1.534   0.130   2.286  0.2255 -0.5843 -0.0398
  811SOL    HW1 3242   1.618   0.077   2.283 -2.5237 -0.2243  0.6641
  811SOL    HW2 3243   1.509   0.124   2.190  0.3331 -0.7148 -1.5416
  811SOL     MW 3244   1.542   0.122   2.273 -0.1230 -0.5540 -0.1451
  812SOL     OW 3245   1.432   2.781   2.102 -0.0148 -0.4842 -0.4663
  812SOL    HW1 3246   1.527   2.791   2.076 -0.2895 -0.6918  1.1409
  812SOL    HW2 3247   1.442   2.756   2.195 -1.9423  0.4502 -0.8018
  812SOL     MW 3248   1.446   2.779   2.111 -0.3054 -0.3883 -0.2985
  813SOL     OW 3249   1.776   0.725   2.201  0.1040 -0.1910  0.4113
  813SOL    HW1 3250   1.748   0.632   2.211 -2.2453  1.1508  0.8776
  813SOL    HW2 3251   1.810   0.752   2.290 -1.0678  1.3765  0.8785
  813SOL     MW 3252   1.776   0.716   2.214 -0.3606  0.1928  0.5345
  814SOL     OW 3253   2.789   1.245   1.664 -0.0414 -0.8860 -0.3432
  814SOL    HW1 3254   2.740   1.204   1.732 -0.7749  1.5135  0.2361
  814SOL    HW2 3255   2.787   1.196   1.584 -2.1697  2.1127 -0.4329
  814SOL     MW 3256   2.782   1.233   1.662 -0.4190 -0.1737 -0.2786
  815SOL     OW 3257   2.500   1.660   2.421  0.5629  0.6001 -0.0914
  815SOL    HW1 3258   2.426   1.602   2.431 -0.8585 -0.9218 -1.2991
  815SOL    HW2 3259   2.565   1.599   2.447 -0.5236 -3.8607  0.2352
  815SOL     MW 3260   2.499   1.644   2.425  0.2320 -0.1892 -0.2077
  816SOL     OW 3261   0.774   0.649   2.729 -0.2357 -1.0016  0.6993
  816SOL    HW1 3262   0.784   0.562   2.758  0.5358  0.6990 -0.6158
  816SOL    HW2 3263   0.685   0.667   2.692 -0.7591 -0.3588  2.0586
  816SOL     MW 3264   0.764   0.640   2.728 -0.2030 -0.6924  0.7051
  817SOL     OW 3265   3.030   1.225   1.393 -0.0505 -0.6861 -0.2986
  817SOL    HW1 3266   3.099   1.213   1.458 -0.6505  0.4912 -1.6682
  817SOL    HW2 3267   3.051   1.313   1.360 -1.4432 -1.8313  0.6164
  817SOL     MW 3268   3.042   1.235   1.397 -0.3134 -0.6818 -0.3586
  818SOL     OW 3269   1.935   1.004   2.733 -0.0158 -0.0834  0.3926
  818SOL    HW1 3270   1.933   1.068   2.663 -0.4575 -1.3727 -0.5986
  818SOL    HW2 3271   1.984   0.927   2.693 -1.9721 -2.2229  0.4743
  818SOL     MW 3272   1.941   1.002   2.718 -0.3322 -0.5358  0.2726
  819SOL     OW 3273   1.912   0.293   2.478  0.6078  0.4950 -0.0372
  819SOL    HW1 3274   1.833   0.344   2.501  0.9537 -3.7421 -0.8069
  819SOL    HW2 3275   1.950   0.268   2.568  1.9523 -0.0636  1.8450
  819SOL     MW 3276   1.906   0.297   2.493  0.8309 -0.1377  0.1096
  820SOL     OW 3277   2.459   1.764   2.667  0.4060 -0.2022 -0.4323
  820SOL    HW1 3278   2.499   1.689   2.717 -1.2811  0.0341 -1.5091
  820SOL    HW2 3279   2.463   1.733   2.579 -1.9652  2.5001  0.5241
  820SOL     MW 3280   2.465   1.750   2.662 -0.1295  0.1855 -0.4482
  821SOL     OW 3281   2.572   1.345   2.002 -0.0523 -0.0164 -0.0335
  821SOL    HW1 3282   2.614   1.424   1.965  1.4148 -0.9997 -0.2428
  821SOL    HW2 3283   2.479   1.363   2.016  2.3204 -1.2649  0.7972
  821SOL     MW 3284   2.565   1.358   1.999  0.4543 -0.3109  0.0485
  822SOL     OW 3285   2.812   2.643   1.478 -0.2733  0.1223 -0.3418
  822SOL    HW1 3286   2.814   2.674   1.570  1.8134  2.4161 -0.9082
  822SOL    HW2 3287   2.757   2.702   1.431  2.1094  4.0563 -0.3581
  822SOL     MW 3288   2.805   2.655   1.484  0.3164  0.9440 -0.4187
  823SOL     OW 3289   2.255   0.461   1.810  0.1680  0.3293  0.6975
  823SOL    HW1 3290   2.326   0.430   1.751 -0.1310 -0.5436  0.0612
  823SOL    HW2 3291   2.189   0.396   1.801  0.0801 -0.7172 -0.3445
  823SOL     MW 3292   2.255   0.449   1.801  0.1170  0.0761  0.4761
  824SOL     OW 3293   2.065   1.382   2.512 -0.0268  0.8178 -0.3184
  824SOL    HW1 3294   2.162   1.393   2.520 -1.1247  0.3446  1.3048
  824SOL    HW2 3295   2.030   1.457   2.561  0.4610 -3.5717 -0.2130
  824SOL     MW 3296   2.073   1.393   2.520 -0.1073  0.1762 -0.0903
  825SOL     OW 3297   2.095   2.568   0.291 -0.2221 -0.2449 -0.5623
  825SOL    HW1 3298   2.093   2.502   0.358 -1.7133  2.5411  0.5151
  825SOL    HW2 3299   2.138   2.544   0.206  0.1600  0.2091  1.5685
  825SOL     MW 3300   2.101   2.556   0.288 -0.3684  0.1826 -0.1390
  826SOL     OW 3301   1.937   2.366   0.555 -0.0482  0.8735 -0.2358
  826SOL    HW1 3302   1.873   2.294   0.579 -1.3757  0.8479  1.3201
  826SOL    HW2 3303   1.900   2.448   0.602  1.4691  0.1606  1.1526
  826SOL     MW 3304   1.924   2.367   0.564 -0.0232  0.7760  0.1526
  827SOL     OW 3305   1.969   2.175   0.823 -0.1965 -0.3243 -0.4885
  827SOL    HW1 3306   1.925   2.214   0.750  0.1877  0.5388 -0.2687
  827SOL    HW2 3307   1.891   2.145   0.874 -2.9618  1.5729  0.8254
  827SOL     MW 3308   1.953   2.176   0.820 -0.5107  0.0399 -0.2861
  828SOL     OW 3309   0.064   2.654   0.520  0.3779 -0.7222 -0.4944
  828SOL    HW1 3310   0.160   2.662   0.522  1.9982  1.2274  1.2181
  828SOL    HW2 3311   0.035   2.694   0.434  2.8921 -0.8855 -3.1189
  828SOL     MW 3312   0.073   2.661   0.509  0.9234 -0.4866 -0.6148
  829SOL     OW 3313   2.994   2.938   1.242  0.3878  0.2487 -0.3839
  829SOL    HW1 3314   2.908   2.938   1.198 -0.5520 -0.1721 -2.1738
  829SOL    HW2 3315   3.045   2.868   1.205  1.6019  1.5827 -0.2773
  829SOL     MW 3316   2.990   2.928   1.232  0.4240  0.3692 -0.6060
  830SOL     OW 3317   2.496   2.877   2.037  0.4133  0.0689 -0.0351
  830SOL    HW1 3318   2.403   2.868   2.005 -1.6767  0.3018 -1.2452
  830SOL    HW2 3319   2.549   2.853   1.965  1.1721  0.1465  1.1354
  830SOL     MW 3320   2.491   2.873   2.024  0.2376  0.1099 -0.0403
  831SOL     OW 3321   2.391   2.438   1.232  0.3755  0.3836 -0.3048
  831SOL    HW1 3322   2.341   2.363   1.270 -2.1784 -0.3503 -1.1199
  831SOL    HW2 3323   2.483   2.408   1.228 -0.4153  0.5759  1.4441
  831SOL     MW 3324   2.397   2.424   1.237 -0.0658  0.3121 -0.1816
  832SOL     OW 3325   2.417   2.195   1.865 -0.7251 -0.1985 -0.8552
  832SOL    HW1 3326   2.415   2.288   1.901 -2.6046 -0.6403 -2.2909
  832SOL    HW2 3327   2.513   2.177   1.842  0.9100 -3.0773 -0.8857
  832SOL     MW 3328   2.430   2.205   1.867 -0.7574 -0.6366 -1.0486
  833SOL     OW 3329   1.801   2.494   0.921  0.0824  0.0539  0.0417
  833SOL    HW1 3330   1.708   2.494   0.940  3.4664  2.6199  1.8088
  833SOL    HW2 3331   1.809   2.577   0.974 -0.6345  4.3138  1.7867
  833SOL     MW 3332   1.790   2.505   0.930  0.4343  0.9545  0.5051
  834SOL     OW 3333   2.218   2.441   0.505  0.2043 -0.1755  0.0473
  834SOL    HW1 3334   2.192   2.359   0.546 -0.5282 -2.4827 -1.4305
  834SOL    HW2 3335   2.289   2.418   0.437  2.1847 -2.0212  0.0991
  834SOL     MW 3336   2.224   2.427   0.501  0.3690 -0.7234 -0.1408
  835SOL     OW 3337   1.878   2.592   0.684  0.1480 -0.1745 -0.2003
  835SOL    HW1 3338   1.873   2.565   0.776  1.2220  0.6267 -2.6039
  835SOL    HW2 3339   1.935   2.666   0.702  0.2618  1.2413 -5.4795
  835SOL     MW 3340   1.885   2.598   0.699  0.3047  0.1180 -1.2140
  836SOL     OW 3341   1.987   2.160   1.658  0.0651  0.3248 -0.1752
  836SOL    HW1 3342   2.080   2.142   1.644  0.2749  0.8789  0.1924
  836SOL    HW2 3343   2.000   2.245   1.695  1.4925 -0.2148  0.1152
  836SOL     MW 3344   2.001   2.169   1.661  0.2811  0.3267 -0.0884
  837SOL     OW 3345   2.073   0.182   0.692 -0.1785 -0.1765 -0.2481
  837SOL    HW1 3346   1.977   0.207   0.668 -1.5724 -0.0911 -0.2903
  837SOL    HW2 3347   2.110   0.130   0.617 -0.6223 -1.0373  1.2278
  837SOL     MW 3348   2.065   0.178   0.679 -0.4209 -0.2788 -0.0590
  838SOL     OW 3349   2.903   2.032   0.917 -0.4933  0.2274  0.0987
  838SOL    HW1 3350   2.827   1.986   0.947  0.1413  0.0984  1.2339
  838SOL    HW2 3351   2.954   1.962   0.873  1.2750 -1.3988  0.1198
  838SOL     MW 3352   2.900   2.017   0.916 -0.1763 -0.0042  0.2512
  839SOL     OW 3353   1.488   2.354   0.927  0.2398 -0.3401 -0.2604
  839SOL    HW1 3354   1.483   2.437   0.971 -0.3063 -1.6384  0.2151
  839SOL    HW2 3355   1.514   2.287   0.992  2.4962  0.8926  0.1237
  839SOL     MW 3356   1.491   2.356   0.941  0.4655 -0.3488 -0.1470
  840SOL     OW 3357   2.282   2.060   2.397 -0.0531 -0.2805 -0.5338
  840SOL    HW1 3358   2.238   2.104   2.328  2.1092 -0.1496  3.4352
  840SOL    HW2 3359   2.354   2.110   2.433  0.9631  2.4516 -1.0109
  840SOL     MW 3360   2.285   2.072   2.393  0.3663  0.0972 -0.0731
  841SOL     OW 3361   2.204   2.449   0.046  0.4697  0.2783  1.0223
  841SOL    HW1 3362   2.235   2.465  -0.046 -0.6772  0.9944 -1.9847
  841SOL    HW2 3363   2.161   2.362   0.040  1.1755  0.4858  0.4478
  841SOL     MW 3364   2.203   2.440   0.033  0.4115  0.4001  0.5497
  842SOL     OW 3365   2.681   1.988   1.578  0.1005 -0.4056  0.1143
  842SOL    HW1 3366   2.632   1.910   1.566 -2.4300  0.2625  1.2691
  842SOL    HW2 3367   2.642   2.059   1.517 -1.3076  1.3475 -3.6842
  842SOL     MW 3368   2.670   1.987   1.569 -0.4192 -0.0861 -0.2345
  843SOL     OW 3369   2.651   2.824   1.804 -0.7677 -0.4698 -0.4791
  843SOL    HW1 3370   2.725   2.773   1.779 -0.6315 -0.3551  1.0231
  843SOL    HW2 3371   2.584   2.794   1.742 -0.5547 -1.4776  1.0514
  843SOL     MW 3372   2.652   2.814   1.792 -0.7216 -0.5876 -0.0789
  844SOL     OW 3373   2.635   2.352   1.204 -0.7464  0.2040 -0.2339
  844SOL    HW1 3374   2.701   2.351   1.138 -2.1417  1.4848  1.1001
  844SOL    HW2 3375   2.688   2.365   1.288  2.9899 -0.5819 -1.9406
  844SOL     MW 3376   2.651   2.354   1.206 -0.4375  0.2693 -0.2831
  845SOL     OW 3377   2.827   2.529   0.350  0.2246  0.1714  0.0867
  845SOL    HW1 3378   2.788   2.442   0.356 -0.9076 -0.1590 -1.1564
  845SOL    HW2 3379   2.799   2.581   0.434 -0.7350  2.8874  2.5001
  845SOL     MW 3380   2.818   2.525   0.362 -0.0514  0.4862  0.2411
  846SOL     OW 3381   1.498   2.814   0.845 -0.0075 -0.0277 -0.0184
  846SOL    HW1 3382   1.575   2.867   0.872 -3.1811  1.9733  0.7374
  846SOL    HW2 3383   1.425   2.873   0.863  1.2766  3.2866 -0.7231
  846SOL     MW 3384   1.499   2.829   0.851 -0.2568  0.6736 -0.0117
  847SOL     OW 3385   2.496   1.925   0.182 -0.5971 -0.0268  0.3566
  847SOL    HW1 3386   2.494   1.838   0.235  0.0305 -3.5757 -0.8597
  847SOL    HW2 3387   2.447   1.905   0.101 -1.4896 -1.7980  0.9045
  847SOL     MW 3388   2.489   1.911   0.178 -0.6320 -0.7287  0.2684
  848SOL     OW 3389   2.587   2.101   1.306  0.3182  0.0538 -0.7181
  848SOL    HW1 3390   2.607   2.188   1.287  0.7880 -1.8652 -3.0738
  848SOL    HW2 3391   2.596   2.055   1.223 -0.2995  1.9623 -0.7471
  848SOL     MW 3392   2.590   2.106   1.293  0.2987  0.0524 -1.0327
  849SOL     OW 3393   2.021   2.787   0.773 -0.2908  0.0382 -0.0374
  849SOL    HW1 3394   2.050   2.716   0.830  1.7455  3.4826 -0.5879
  849SOL    HW2 3395   2.103   2.800   0.722  1.4655 -1.2314 -0.6387
  849SOL     MW 3396   2.035   2.780   0.773  0.2096  0.3251 -0.1894
  850SOL     OW 3397   2.247   1.838   1.654 -0.3232 -0.9347 -0.7857
  850SOL    HW1 3398   2.165   1.803   1.616  2.4004  2.5648 -2.4977
  850SOL    HW2 3399   2.251   1.934   1.631 -1.2778 -0.5760 -2.0081
  850SOL     MW 3400   2.237   1.846   1.646 -0.0898 -0.4257 -1.1729
  851SOL     OW 3401   2.374   2.365   0.276 -0.2384  0.5354 -0.0353
  851SOL    HW1 3402   2.349   2.384   0.181  0.5003  1.1772 -1.8901
  851SOL    HW2 3403   2.471   2.368   0.271  0.8614 -1.6579 -1.3819
  851SOL     MW 3404   2.383   2.368   0.263  0.0041  0.3307 -0.4577
  852SOL     OW 3405   2.326   2.097   0.330  0.5833 -0.0055 -0.2179
  852SOL    HW1 3406   2.332   2.181   0.288  2.6903 -0.2394  1.1881
  852SOL    HW2 3407   2.383   2.035   0.279  0.2914 -0.4012  0.9890
  852SOL     MW 3408   2.334   2.100   0.318  0.8228 -0.0886  0.1269
  853SOL     OW 3409   2.472   2.463   1.923  0.0602 -0.8801 -0.2175
  853SOL    HW1 3410   2.499   2.530   1.858 -0.0952  0.9619 -0.4982
  853SOL    HW2 3411   2.547   2.442   1.982 -0.8180 -1.7481  1.9221
  853SOL     MW 3412   2.485   2.469   1.922 -0.0762 -0.7516  0.0277
  854SOL     OW 3413   2.860   2.297   0.771  0.0527  0.0051 -0.3874
  854SOL    HW1 3414   2.781   2.252   0.731 -1.4573 -0.0764 -0.8391
  854SOL    HW2 3415   2.892   2.224   0.836 -1.3092  1.3546  2.0161
  854SOL     MW 3416   2.853   2.281   0.774 -0.3262  0.1724 -0.1299
  855SOL     OW 3417   2.631   2.325   0.344  0.2126 -0.2998 -0.3431
  855SOL    HW1 3418   2.594   2.373   0.422 -2.6788  2.0722 -0.0654
  855SOL    HW2 3419   2.700   2.257   0.368  0.8284 -1.1128  0.8969
  855SOL     MW 3420   2.635   2.323   0.358 -0.0876 -0.0941 -0.1429
  856SOL     OW 3421   2.119   1.947   0.220 -0.3049 -0.6649  0.5623
  856SOL    HW1 3422   2.037   1.966   0.261  0.2494  0.1135  0.8124
  856SOL    HW2 3423   2.179   2.012   0.266 -0.6442  1.8813  0.5269
  856SOL     MW 3424   2.116   1.958   0.232 -0.2766 -0.2262  0.5906
  857SOL     OW 3425   2.469   1.966   0.554  0.1027 -0.0453 -0.3549
  857SOL    HW1 3426   2.410   2.004   0.479 -1.7905 -0.7221  1.9709
  857SOL    HW2 3427   2.400   1.923   0.608 -2.3271 -1.2256  0.6359
  857SOL     MW 3428   2.452   1.965   0.551 -0.4677 -0.2903  0.0827
  858SOL     OW 3429   2.892   2.706   1.749  0.7890  0.3245  0.1415
  858SOL    HW1 3430   2.987   2.721   1.755 -1.8555 -1.5816  1.4064
  858SOL    HW2 3431   2.883   2.620   1.783  3.3130 -0.4759  0.5685
  858SOL     MW 3432   2.903   2.697   1.754  0.7731 -0.0326  0.3647
  859SOL     OW 3433   2.150   2.578   0.924  0.0705 -0.2175  0.5026
  859SOL    HW1 3434   2.084   2.517   0.963 -0.6628 -0.4712  2.7617
  859SOL    HW2 3435   2.238   2.551   0.948  0.9627  0.6148  1.5734
  859SOL     MW 3436   2.153   2.566   0.933  0.0914 -0.1411  0.9420
  860SOL     OW 3437   2.695   2.605   0.118 -0.0102  0.2584 -0.1419
  860SOL    HW1 3438   2.729   2.585   0.210  1.0360  5.4528  2.5685
  860SOL    HW2 3439   2.721   2.697   0.097  1.0984  2.7304  1.3519
  860SOL     MW 3440   2.703   2.614   0.127  0.2741  1.2699  0.4128
  861SOL     OW 3441   1.610   2.173   1.122 -0.4403  0.3401  0.2280
  861SOL    HW1 3442   1.611   2.247   1.184  1.1753  0.0180  2.1439
  861SOL    HW2 3443   1.545   2.116   1.162 -1.1954  1.5415  0.5943
  861SOL     MW 3444   1.601   2.175   1.135 -0.3268  0.4561  0.5291
  862SOL     OW 3445   2.474   1.802   1.520  0.2933 -0.3320 -0.5885
  862SOL    HW1 3446   2.384   1.810   1.558 -1.0954 -0.1792  0.1584
  862SOL    HW2 3447   2.462   1.790   1.424  2.1322 -1.0223 -1.5048
  862SOL     MW 3448   2.460   1.802   1.513  0.3527 -0.4029 -0.6109
  863SOL     OW 3449   2.994   1.757   1.038 -0.1599  0.1877  0.1182
  863SOL    HW1 3450   3.076   1.744   1.088 -0.6671  0.2399 -2.2538
  863SOL    HW2 3451   2.969   1.839   1.077 -2.2265 -0.6066  2.7477
  863SOL     MW 3452   3.002   1.766   1.050 -0.4995  0.0898  0.1522
  864SOL     OW 3453   3.091   1.826   0.795  0.6759 -0.1159  0.2605
  864SOL    HW1 3454   3.051   1.782   0.874 -1.7057 -0.4339  1.1882
  864SOL    HW2 3455   3.041   1.774   0.728  0.0387 -0.8235 -0.3898
  864SOL     MW 3456   3.079   1.813   0.796  0.2776 -0.2512  0.2971
  865SOL     OW 3457   2.471   2.202   0.070  0.1917 -0.2984  0.3338
  865SOL    HW1 3458   2.533   2.162   0.127  0.4558  3.5362  1.5684
  865SOL    HW2 3459   2.423   2.129   0.033  0.5686 -0.9804 -3.0289
  865SOL     MW 3460   2.473   2.187   0.073  0.2763  0.1175  0.0530
  866SOL     OW 3461   2.675   2.339   1.639 -0.3973  0.2465 -0.7439
  866SOL    HW1 3462   2.677   2.254   1.683  0.7558  1.3069  0.1730
  866SOL    HW2 3463   2.737   2.339   1.560  2.2939 -1.7713 -0.2203
  866SOL     MW 3464   2.683   2.327   1.634  0.1099  0.1202 -0.5538
  867SOL     OW 3465   0.059   2.685   1.763 -0.2732 -0.0194 -0.1756
  867SOL    HW1 3466   0.116   2.722   1.838  2.9707  3.3425 -0.9617
  867SOL    HW2 3467   0.086   2.740   1.690  0.4604 -1.6031  0.0172
  867SOL     MW 3468   0.070   2.697   1.763  0.2516  0.2152 -0.2539
  868SOL     OW 3469   2.762   2.698   0.562 -0.2130  0.6377  0.3934
  868SOL    HW1 3470   2.677   2.666   0.587 -2.5407  0.1853 -1.6444
  868SOL    HW2 3471   2.749   2.751   0.484 -0.5622  0.7037 -1.3589
  868SOL     MW 3472   2.749   2.701   0.555 -0.5662  0.5867 -0.1067
  869SOL     OW 3473   2.079   2.322   1.059  0.1239  0.3080 -0.1536
  869SOL    HW1 3474   2.174   2.316   1.034  2.7717  2.8641  1.7503
  869SOL    HW2 3475   2.023   2.286   0.987  0.5441  0.1322 -1.6165
  869SOL     MW 3476   2.084   2.317   1.046  0.5287  0.6220 -0.0954
  870SOL     OW 3477   2.142   3.101   0.500  0.3814 -0.6436 -0.0616
  870SOL    HW1 3478   2.212   3.162   0.462  0.8575  2.4019  0.5151
  870SOL    HW2 3479   2.181   3.020   0.471  2.9798 -0.0729 -0.3676
  870SOL     MW 3480   2.156   3.098   0.491  0.7871 -0.1665 -0.0259
  871SOL     OW 3481   2.436   2.054   0.950  0.0383  0.5252 -0.8709
  871SOL    HW1 3482   2.404   2.030   0.864  3.3735  0.2599 -1.0753
  871SOL    HW2 3483   2.400   2.144   0.971  0.2749  1.4947  0.4376
  871SOL     MW 3484   2.427   2.063   0.941  0.5096  0.6181 -0.7252
  872SOL     OW 3485   2.048   2.485   1.537  0.0775 -0.5791 -0.6619
  872SOL    HW1 3486   1.981   2.525   1.592  0.7323  1.7164  1.0021
  872SOL    HW2 3487   1.999   2.483   1.456 -2.5499  1.4953 -0.8748
  872SOL     MW 3488   2.032   2.490   1.533 -0.1827 -0.0025 -0.4704
  873SOL     OW 3489   2.887   2.041   1.980 -0.6534 -0.4391  0.0727
  873SOL    HW1 3490   2.886   2.097   2.058  2.1564  2.1078  0.2323
  873SOL    HW2 3491   2.946   2.089   1.916  2.7722  1.4070  1.8623
  873SOL     MW 3492   2.894   2.055   1.982  0.1693  0.1405  0.3299
  874SOL     OW 3493   2.338   1.422   2.468  0.2781 -0.2465 -0.2210
  874SOL    HW1 3494   2.294   1.405   2.389 -1.4403 -0.6648  0.5765
  874SOL    HW2 3495   2.418   1.368   2.469 -1.2012 -0.5409 -1.8731
  874SOL     MW 3496   2.343   1.413   2.458 -0.1438 -0.3406 -0.3337
  875SOL     OW 3497   2.341   2.309   0.986 -0.0841  0.4215 -0.4844
  875SOL    HW1 3498   2.385   2.364   0.921  1.9080  2.4954  2.2121
  875SOL    HW2 3499   2.364   2.351   1.070  1.3152 -0.3998  0.4960
  875SOL     MW 3500   2.350   2.322   0.988  0.3634  0.5867  0.0007
  876SOL     OW 3501   3.089   2.260   1.382  0.3087 -0.8084  0.2949
  876SOL    HW1 3502   3.126   2.289   1.292 -1.1058 -2.4790 -1.1090
  876SOL    HW2 3503   3.154   2.298   1.448 -1.3170 -0.5538  1.6546
  876SOL     MW 3504   3.103   2.269   1.379 -0.0924 -0.9953  0.2891
  877SOL     OW 3505   0.004   2.809   0.285 -0.3068  0.8657 -0.1074
  877SOL    HW1 3506   0.077   2.872   0.277 -0.4424  0.5283  0.5046
  877SOL    HW2 3507   0.001   2.761   0.202  1.0872  1.7314  1.5295
  877SOL     MW 3508   0.013   2.811   0.273 -0.1407  0.9354  0.1893
  878SOL     OW 3509   2.408   1.800   1.262  0.2736 -0.2305  0.1201
  878SOL    HW1 3510   2.356   1.717   1.262 -0.5831  1.9514 -2.0431
  878SOL    HW2 3511   2.499   1.761   1.250  2.2954  2.1610  0.2170
  878SOL     MW 3512   2.413   1.784   1.260  0.4273  0.3729 -0.1525
  879SOL     OW 3513   2.737   2.440   0.959 -0.4336  0.2899 -0.0739
  879SOL    HW1 3514   2.783   2.507   1.004 -1.1414  0.0294 -1.3516
  879SOL    HW2 3515   2.802   2.393   0.905  0.0780  0.6856 -2.4555
  879SOL     MW 3516   2.751   2.443   0.958 -0.4595  0.3078 -0.5567
  880SOL     OW 3517   2.610   2.156   0.731 -0.1823 -0.0106  0.0342
  880SOL    HW1 3518   2.590   2.124   0.814  1.9605  1.1916  0.2054
  880SOL    HW2 3519   2.546   2.122   0.662  0.6696 -0.9571  2.3713
  880SOL     MW 3520   2.599   2.147   0.733  0.2128  0.0231  0.3652
  881SOL     OW 3521   2.975   2.702   0.739  0.3339  0.1827 -0.4937
  881SOL    HW1 3522   2.903   2.692   0.682  1.0431 -0.2649  1.1706
  881SOL    HW2 3523   3.048   2.686   0.685  0.5820  0.4393  0.6746
  881SOL     MW 3524   2.975   2.698   0.724  0.4602  0.1575 -0.1200
  882SOL     OW 3525   2.239   2.893   1.977  0.3836  0.3273  0.0616
  882SOL    HW1 3526   2.235   2.901   1.879  1.4286  0.8291  2.3054
  882SOL    HW2 3527   2.193   2.809   1.989 -3.3179 -2.1056 -0.6404
  882SOL     MW 3528   2.232   2.883   1.966  0.0331  0.0725  0.2650
  883SOL     OW 3529   2.333   2.206   1.395  0.0986 -0.0402 -0.1609
  883SOL    HW1 3530   2.409   2.145   1.383  0.3047 -1.0666 -0.1370
  883SOL    HW2 3531   2.266   2.167   1.340 -3.2627  0.0596 -1.5666
  883SOL     MW 3532   2.334   2.193   1.386 -0.3177 -0.1625 -0.3432
  884SOL     OW 3533   1.951   1.815   1.072  0.1417 -0.0853  0.2789
  884SOL    HW1 3534   1.914   1.900   1.039 -0.5743  3.4556 -0.2453
  884SOL    HW2 3535   2.051   1.830   1.084  1.8701  1.0390  1.8270
  884SOL     MW 3536   1.959   1.828   1.069  0.2753  0.5302  0.4140
  885SOL     OW 3537   2.864   2.413   1.825 -0.0504  0.4280 -0.3543
  885SOL    HW1 3538   2.940   2.359   1.807 -1.5417  0.6060  0.0379
  885SOL    HW2 3539   2.809   2.396   1.750 -0.0069  0.4588  1.9574
  885SOL     MW 3540   2.867   2.404   1.813 -0.2414  0.4555  0.0025
  886SOL     OW 3541   2.812   2.374   1.407 -0.2453  0.7850 -0.1353
  886SOL    HW1 3542   2.893   2.337   1.388  0.1417  0.2962  2.3358
  886SOL    HW2 3543   2.825   2.469   1.423  0.2576  1.7790 -2.6670
  886SOL     MW 3544   2.825   2.381   1.407 -0.1279  0.8517 -0.1433
  887SOL     OW 3545   2.277   2.631   1.578  0.1864  0.1418 -0.0662
  887SOL    HW1 3546   2.322   2.630   1.490  2.0109  1.5503 -1.0669
  887SOL    HW2 3547   2.190   2.594   1.564 -0.2021  2.5025 -0.5926
  887SOL     MW 3548   2.272   2.626   1.565  0.3759  0.6391 -0.2677
  888SOL     OW 3549   1.845   2.143   1.419 -0.3255  0.3638 -0.0852
  888SOL    HW1 3550   1.906   2.126   1.344  1.2864  1.0891 -0.1080
  888SOL    HW2 3551   1.907   2.141   1.493  1.6584 -0.4224 -1.1662
  888SOL     MW 3552   1.862   2.141   1.418  0.1489  0.3558 -0.2308
  889SOL     OW 3553   2.346   2.038   2.084  0.2302 -0.5105  0.2213
  889SOL    HW1 3554   2.411   1.979   2.116  0.4739  1.3489 -0.0752
  889SOL    HW2 3555   2.379   2.080   2.002 -1.6772  0.0778  0.1230
  889SOL     MW 3556   2.359   2.035   2.077  0.0107 -0.1875  0.1692
  890SOL     OW 3557   0.069   2.391   0.163  0.6547 -0.0475  0.0219
  890SOL    HW1 3558   0.012   2.469   0.159 -2.3480  0.9885  2.0139
  890SOL    HW2 3559   0.035   2.332   0.234  0.5455  0.5391 -0.4320
  890SOL     MW 3560   0.057   2.393   0.172  0.2441  0.1666  0.2249
  891SOL     OW 3561   3.083   2.012   1.291  0.5517  0.0967 -0.3227
  891SOL    HW1 3562   3.166   1.973   1.298 -1.9746 -0.9063  1.0815
  891SOL    HW2 3563   3.102   2.094   1.333  3.7015  1.1360 -0.0397
  891SOL     MW 3564   3.096   2.018   1.297  0.6339  0.1015 -0.1001
  892SOL     OW 3565   2.449   2.335   2.765  0.1552  0.2175  0.1184
  892SOL    HW1 3566   2.424   2.251   2.802  0.0759  1.8897 -2.5993
  892SOL    HW2 3567   2.539   2.362   2.796 -1.4344 -2.3659 -2.3700
  892SOL     MW 3568   2.457   2.327   2.774 -0.0650  0.0973 -0.5685
  893SOL     OW 3569   1.599   2.432   1.208 -0.1116  0.5041  0.0821
  893SOL    HW1 3570   1.537   2.470   1.266 -0.7435  1.7241 -1.5963
  893SOL    HW2 3571   1.681   2.476   1.217 -0.4494  1.4957 -1.0474
  893SOL     MW 3572   1.602   2.443   1.217 -0.2395  0.7959 -0.2884
  894SOL     OW 3573   2.732   1.872   0.444 -0.4989 -0.1402 -0.1967
  894SOL    HW1 3574   2.638   1.899   0.468 -1.1423  0.1395 -1.5195
  894SOL    HW2 3575   2.751   1.853   0.350  1.3532  0.9345  0.4912
  894SOL     MW 3576   2.722   1.873   0.435 -0.3394  0.0385 -0.2804
  895SOL     OW 3577   2.125   2.102   1.218 -0.4017  0.6915  0.5430
  895SOL    HW1 3578   2.114   2.177   1.153 -0.0689  0.5300 -1.4331
  895SOL    HW2 3579   2.154   2.027   1.161  1.5284 -1.9381  0.3211
  895SOL     MW 3580   2.128   2.102   1.202 -0.1031  0.3232  0.2530
  896SOL     OW 3581   2.316   2.812   1.110 -0.0195 -0.0728 -0.1784
  896SOL    HW1 3582   2.334   2.782   1.195 -0.0269  0.1675 -2.1823
  896SOL    HW2 3583   2.233   2.865   1.131  3.0419  0.9768  0.6467
  896SOL     MW 3584   2.307   2.815   1.124  0.3835  0.0974 -0.3340
  897SOL     OW 3585   3.051   3.045   3.066 -0.1600  0.2607 -0.3816
  897SOL    HW1 3586   3.090   2.963   3.036  0.2773 -1.8267 -1.1534
  897SOL    HW2 3587   2.978   2.993   3.101 -1.5203  0.4817 -1.5421
  897SOL     MW 3588   3.046   3.027   3.067 -0.2818  0.0145 -0.6365
  898SOL     OW 3589   2.108   0.196   1.477 -0.4070 -0.2484 -0.4520
  898SOL    HW1 3590   2.080   0.107   1.498  1.4492  0.6927  0.5881
  898SOL    HW2 3591   2.129   0.194   1.385  0.3479 -1.4306  1.6083
  898SOL     MW 3592   2.107   0.184   1.468 -0.0625 -0.2802 -0.0429
  899SOL     OW 3593   2.916   2.968   0.622  0.3325 -0.1464 -0.4643
  899SOL    HW1 3594   2.926   2.884   0.675  1.1560 -0.5868  0.1507
  899SOL    HW2 3595   2.836   3.017   0.641  1.4008  0.8373 -0.9545
  899SOL     MW 3596   2.907   2.963   0.632  0.5821 -0.0747 -0.4478
  900SOL     OW 3597   0.069   2.401   1.130  0.2767  0.0932  0.2160
  900SOL    HW1 3598   0.040   2.492   1.112 -0.2217  2.7188 -1.6589
  900SOL    HW2 3599   0.067   2.351   1.048  1.3976 -0.8564  1.0086
  900SOL     MW 3600   0.065   2.406   1.117  0.3589  0.3143  0.0732
  901SOL     OW 3601   1.731   2.842   1.758 -0.3016  0.0741  0.3831
  901SOL    HW1 3602   1.816   2.788   1.757  0.9626 -2.8517  0.1342
  901SOL    HW2 3603   1.690   2.819   1.671 -0.7449 -1.3860  1.6962
  901SOL     MW 3604   1.737   2.832   1.746 -0.1933 -0.5046  0.5235
  902SOL     OW 3605   2.665   2.091   1.824 -0.0356 -0.7965 -0.1704
  902SOL    HW1 3606   2.689   2.040   1.748 -0.4529  0.0881  2.3065
  902SOL    HW2 3607   2.726   2.084   1.896  0.8409  1.2853 -1.8814
  902SOL     MW 3608   2.676   2.083   1.824  0.0250 -0.4051 -0.0693
  903SOL     OW 3609   1.624   2.649   0.635  0.3800 -0.5455  0.3888
  903SOL    HW1 3610   1.717   2.637   0.650 -1.6312 -0.8945 -1.7864
  903SOL    HW2 3611   1.587   2.702   0.708 -1.3696  0.1215  0.5906
  903SOL     MW 3612   1.631   2.654   0.647 -0.1162 -0.5036  0.1284
  904SOL     OW 3613   2.527   2.603   1.680  0.0674  0.4576 -0.7286
  904SOL    HW1 3614   2.439   2.624   1.653  0.7629  0.5502  1.9345
  904SOL    HW2 3615   2.556   2.519   1.644 -0.8462 -1.9142 -2.8372
  904SOL     MW 3616   2.519   2.595   1.672  0.0386  0.1569 -0.6554
  905SOL     OW 3617   2.261   2.515   2.135 -0.1217 -0.0292 -0.3467
  905SOL    HW1 3618   2.316   2.474   2.063  0.0002  0.0850  2.5775
  905SOL    HW2 3619   2.235   2.440   2.188 -1.6699  0.3169  0.6038
  905SOL     MW 3620   2.265   2.499   2.133 -0.3099  0.0315  0.1645
  906SOL     OW 3621   2.502   2.483   0.836  0.9928 -0.0412  0.3809
  906SOL    HW1 3622   2.589   2.461   0.884 -0.1539 -1.0236  3.6483
  906SOL    HW2 3623   2.496   2.576   0.838 -1.3628 -3.2849  3.2124
  906SOL     MW 3624   2.513   2.492   0.842  0.5307 -0.5988  1.1856
  907SOL     OW 3625   2.649   2.818   1.349  0.4315  0.5168  0.0927
  907SOL    HW1 3626   2.699   2.870   1.410  1.4514  1.3247 -0.9332
  907SOL    HW2 3627   2.689   2.848   1.268 -0.3286 -0.3884  1.5710
  907SOL     MW 3628   2.661   2.829   1.347  0.4658  0.5040  0.1524
  908SOL     OW 3629   2.730   2.344   0.014 -0.2306 -0.2038  0.0582
  908SOL    HW1 3630   2.644   2.305   0.005  2.8899 -3.2328  1.6826
  908SOL    HW2 3631   2.712   2.436   0.048 -0.0631  1.3589  1.2822
  908SOL     MW 3632   2.716   2.351   0.018  0.2032 -0.3973  0.4340
  909SOL     OW 3633   1.718   0.068   1.196 -0.0781 -0.3315 -0.2065
  909SOL    HW1 3634   1.683   0.149   1.159 -0.8514  0.3799  1.1391
  909SOL    HW2 3635   1.699   0.064   1.295 -1.1560  1.6805  2.3852
  909SOL     MW 3636   1.711   0.078   1.204 -0.3223  0.0278  0.3130
  910SOL     OW 3637   2.233   1.760   0.409 -0.3247 -0.5958 -0.0944
  910SOL    HW1 3638   2.175   1.679   0.424 -1.7934  0.2478 -0.4541
  910SOL    HW2 3639   2.180   1.830   0.372  1.3627  0.0636 -0.4983
  910SOL     MW 3640   2.218   1.758   0.406 -0.2958 -0.3975 -0.1952
  911SOL     OW 3641   2.260   2.103   1.638  0.3193 -0.2599 -0.3055
  911SOL    HW1 3642   2.317   2.144   1.709  0.8937  0.5443  1.7876
  911SOL    HW2 3643   2.285   2.141   1.551  1.2322 -0.8621 -0.1517
  911SOL     MW 3644   2.271   2.114   1.636  0.5156 -0.2332 -0.0090
  912SOL     OW 3645   2.926   1.904   1.491 -0.1521  0.2493 -0.0739
  912SOL    HW1 3646   2.965   1.956   1.425  3.8469  0.6471 -0.2336
  912SOL    HW2 3647   2.842   1.947   1.505 -2.6504  0.8052 -0.7452
  912SOL     MW 3648   2.920   1.917   1.484  0.0459  0.3752 -0.1835
  913SOL     OW 3649   2.626   3.054   0.347 -0.3329  0.2418 -0.2288
  913SOL    HW1 3650   2.714   3.005   0.357  0.9629 -0.2474  0.0866
  913SOL    HW2 3651   2.563   2.976   0.328  1.2712 -1.3225  1.6965
  913SOL     MW 3652   2.629   3.037   0.346  0.0497 -0.0291  0.0668
  914SOL     OW 3653   2.727   1.758   3.032 -0.1849  0.2360  0.2301
  914SOL    HW1 3654   2.748   1.837   2.986 -0.4292  1.1570  0.6735
  914SOL    HW2 3655   2.639   1.773   3.071  0.8797 -1.7195 -3.2920
  914SOL     MW 3656   2.718   1.770   3.031 -0.0767  0.0995 -0.1761
  915SOL     OW 3657   1.691   0.231   0.254  0.0088  0.2504 -0.0002
  915SOL    HW1 3658   1.764   0.163   0.267  1.1275 -1.8254  0.4361
  915SOL    HW2 3659   1.615   0.172   0.241  1.2183 -0.0491 -0.8573
  915SOL     MW 3660   1.691   0.214   0.254  0.3160 -0.0630 -0.0557
  916SOL     OW 3661   1.838   2.133   1.945 -0.3420 -0.0071  0.2557
  916SOL    HW1 3662   1.866   2.222   1.927  2.3425 -0.5106  2.0721
  916SOL    HW2 3663   1.843   2.088   1.861  1.4298 -0.3684  0.4226
  916SOL     MW 3664   1.842   2.139   1.932  0.2460 -0.1212  0.5174
  917SOL     OW 3665   2.497   2.206   2.517  0.2151  0.0692  0.3030
  917SOL    HW1 3666   2.483   2.261   2.596  0.2890 -0.8540 -0.4975
  917SOL    HW2 3667   2.584   2.229   2.481 -0.7934  0.0140 -0.3030
  917SOL     MW 3668   2.507   2.216   2.522  0.0918 -0.0599  0.1175
  918SOL     OW 3669   1.981   1.597   2.698 -0.5521 -0.0693 -0.5125
  918SOL    HW1 3670   1.914   1.655   2.660 -0.3037 -2.6920  1.4296
  918SOL    HW2 3671   2.068   1.640   2.677 -1.5957 -1.6461  0.3935
  918SOL     MW 3672   1.984   1.611   2.690 -0.6570 -0.6234 -0.1367
  919SOL     OW 3673   3.075   2.357   2.271 -0.2707 -0.1644  0.5805
  919SOL    HW1 3674   3.014   2.291   2.241 -0.1385  1.1291 -2.3110
  919SOL    HW2 3675   3.123   2.394   2.182  0.6216 -2.0917 -1.2989
  919SOL     MW 3676   3.073   2.353   2.256 -0.1355 -0.2481 -0.0490
  920SOL     OW 3677   2.696   2.864   0.003  0.1763 -0.4459 -0.2363
  920SOL    HW1 3678   2.624   2.879   0.067 -0.4358  2.3793  0.4030
  920SOL    HW2 3679   2.664   2.801  -0.069  0.1578 -1.4723  0.4843
  920SOL     MW 3680   2.682   2.858   0.002  0.0931 -0.2086 -0.0569
  921SOL     OW 3681   2.422   2.610   2.617 -0.0834  0.7225 -0.5895
  921SOL    HW1 3682   2.492   2.600   2.557 -1.6016 -0.1862  2.4261
  921SOL    HW2 3683   2.431   2.525   2.666  0.9857 -1.0971  1.6081
  921SOL     MW 3684   2.433   2.597   2.616 -0.1426  0.3625  0.0983
  922SOL     OW 3685   2.033   2.815   0.278  0.5852 -0.5771 -0.0741
  922SOL    HW1 3686   2.001   2.834   0.187 -0.2371 -0.7808 -0.4539
  922SOL    HW2 3687   2.054   2.716   0.276 -0.6978 -0.4704 -1.1867
  922SOL     MW 3688   2.031   2.804   0.266  0.3074 -0.5899 -0.2710
  923SOL     OW 3689   2.181   2.862   1.698  0.1929  0.3770 -0.3197
  923SOL    HW1 3690   2.232   2.807   1.640  1.5070  1.3877 -0.1815
  923SOL    HW2 3691   2.124   2.920   1.642  0.1759  0.5594 -1.3740
  923SOL     MW 3692   2.180   2.863   1.683  0.3641  0.5344 -0.4406
  924SOL     OW 3693   1.135   2.717   2.528  0.4492  0.3823  0.6823
  924SOL    HW1 3694   1.227   2.763   2.531  0.5855  1.9537  0.0149
  924SOL    HW2 3695   1.125   2.647   2.593 -3.4360 -0.8798  0.6311
  924SOL     MW 3696   1.145   2.714   2.537 -0.0454  0.4231  0.5875
  925SOL     OW 3697   3.064   0.185   2.622 -0.4367  0.3170  0.2449
  925SOL    HW1 3698   3.017   0.185   2.541 -1.0605 -0.1631  0.5084
  925SOL    HW2 3699   3.009   0.245   2.677  2.4147 -1.7939  1.6412
  925SOL     MW 3700   3.050   0.193   2.619 -0.1428 -0.0249  0.4639
  926SOL     OW 3701   2.704   2.431   2.050 -0.0005  0.3265  0.0741
  926SOL    HW1 3702   2.757   2.478   2.114 -1.7886 -0.0122  3.4906
  926SOL    HW2 3703   2.761   2.418   1.967 -0.0999  2.7994 -2.6925
  926SOL     MW 3704   2.719   2.435   2.048 -0.2495  0.6081  0.1599
  927SOL     OW 3705   2.319   0.125   0.324 -0.0034 -0.0081  0.2337
  927SOL    HW1 3706   2.415   0.136   0.347 -0.4462  0.7239  0.2524
  927SOL    HW2 3707   2.322   0.084   0.240 -0.9566  1.5313  1.7268
  927SOL     MW 3708   2.332   0.121   0.316 -0.1876  0.2916  0.4332
  928SOL     OW 3709   2.180   2.377   1.760 -0.0150 -0.3863 -0.1261
  928SOL    HW1 3710   2.175   2.431   1.679  0.2282  2.7523 -1.5698
  928SOL    HW2 3711   2.272   2.375   1.789  0.7035  3.5374  2.1619
  928SOL     MW 3712   2.192   2.384   1.753  0.1119  0.5455 -0.0147
  929SOL     OW 3713   2.738   2.307   2.455 -0.4942 -0.5760 -0.1774
  929SOL    HW1 3714   2.785   2.282   2.381  0.1476  0.6192  0.0445
  929SOL    HW2 3715   2.800   2.295   2.531 -2.5622 -2.0862  2.0264
  929SOL     MW 3716   2.752   2.302   2.456 -0.6823 -0.6175  0.1426
  930SOL     OW 3717   2.018   2.851   2.743  0.0481 -0.0522  0.0268
  930SOL    HW1 3718   2.044   2.761   2.774  2.6296 -1.5230  2.5752
  930SOL    HW2 3719   2.101   2.903   2.745 -1.1461  0.6340 -1.5097
  930SOL     MW 3720   2.032   2.846   2.747  0.2311 -0.1557  0.1603
  931SOL     OW 3721   3.026   2.727   2.383  0.1252  0.1545  0.2755
  931SOL    HW1 3722   3.067   2.762   2.466 -0.4309  3.3984 -0.6079
  931SOL    HW2 3723   3.085   2.672   2.343 -1.8304 -2.3008  3.9108
  931SOL     MW 3724   3.039   2.724   2.388 -0.2062  0.2586  0.6386
  932SOL     OW 3725   2.928   1.927   2.495  0.0144 -0.2436 -0.6617
  932SOL    HW1 3726   3.012   1.964   2.473 -0.1496 -1.3970  0.5591
  932SOL    HW2 3727   2.870   1.933   2.417  1.3358 -0.4540 -0.5773
  932SOL     MW 3728   2.931   1.933   2.482  0.1671 -0.4235 -0.4895
  933SOL     OW 3729   2.064   2.805   2.216 -0.3548  0.1692 -0.2971
  933SOL    HW1 3730   2.154   2.820   2.240  1.3611  3.2556 -3.6698
  933SOL    HW2 3731   2.022   2.886   2.229  1.6159  2.1340  1.0784
  933SOL     MW 3732   2.070   2.817   2.221  0.1316  0.8357 -0.5606
  934SOL     OW 3733   2.005   2.744   2.474  0.0211 -0.6019 -0.3836
  934SOL    HW1 3734   2.014   2.809   2.546 -1.0585  2.9470 -0.5714
  934SOL    HW2 3735   2.023   2.789   2.394 -1.3429  1.3581  2.3161
  934SOL     MW 3736   2.008   2.758   2.473 -0.3013  0.1249 -0.0522
  935SOL     OW 3737   2.698   1.560   1.866 -0.0450  0.4930  0.4277
  935SOL    HW1 3738   2.769   1.580   1.802 -3.6947 -0.2363 -2.4099
  935SOL    HW2 3739   2.637   1.536   1.799  1.8342  1.2927 -0.3724
  935SOL     MW 3740   2.699   1.560   1.849 -0.2786  0.5023 -0.0523
  936SOL     OW 3741   2.965   2.232   3.091 -0.3194  0.0761  0.5424
  936SOL    HW1 3742   3.030   2.284   3.133  2.1568 -1.2696 -1.2943
  936SOL    HW2 3743   2.873   2.269   3.105  0.6008  0.8859  0.3808
  936SOL     MW 3744   2.961   2.244   3.098  0.1288  0.0054  0.2788
  937SOL     OW 3745   1.983   2.122   2.615 -0.0657  0.3595  0.6764
  937SOL    HW1 3746   2.044   2.079   2.680 -0.2370 -2.8646  0.2036
  937SOL    HW2 3747   1.995   2.085   2.529  0.7217 -1.1386 -0.5659
  937SOL     MW 3748   1.993   2.112   2.612  0.0156 -0.2635  0.4501
  938SOL     OW 3749   2.290   1.809   1.942 -0.1575  0.2873  0.0269
  938SOL    HW1 3750   2.277   1.815   1.844 -1.1045  0.1651  1.1379
  938SOL    HW2 3751   2.297   1.894   1.983  1.3622  1.3452  0.4766
  938SOL     MW 3752   2.289   1.821   1.934 -0.0819  0.4108  0.2328
  939SOL     OW 3753   2.767   1.975   2.281  0.4582 -0.0533 -0.2724
  939SOL    HW1 3754   2.791   1.909   2.215  0.5364  0.1670 -0.2958
  939SOL    HW2 3755   2.665   1.962   2.295 -3.0243 -0.1916  1.1026
  939SOL     MW 3756   2.756   1.964   2.274  0.0090 -0.0425 -0.0940
  940SOL     OW 3757   2.284   0.152   2.674  0.2477 -0.2442 -0.0358
  940SOL    HW1 3758   2.258   0.065   2.646  0.0314  0.5028  0.1272
  940SOL    HW2 3759   2.326   0.158   2.756 -1.7076 -0.5808 -2.0312
  940SOL     MW 3760   2.286   0.141   2.682 -0.0388 -0.1901 -0.2776
  941SOL     OW 3761   0.097   2.451   2.055  0.1001 -0.2109  0.0703
  941SOL    HW1 3762   0.173   2.400   2.070 -0.3322  0.1538 -0.0656
  941SOL    HW2 3763   0.095   2.455   1.956 -0.4696 -0.9910 -0.5960
  941SOL     MW 3764   0.106   2.445   2.044 -0.0321 -0.2657 -0.0355
  942SOL     OW 3765   2.846   2.214   2.187  0.3606 -0.0058  0.9251
  942SOL    HW1 3766   2.779   2.280   2.170  0.9251 -1.2686  1.8606
  942SOL    HW2 3767   2.803   2.132   2.218  0.6701  2.0075 -1.5840
  942SOL     MW 3768   2.831   2.212   2.189  0.4759  0.0932  0.7175
  943SOL     OW 3769   0.268   2.099   2.264 -0.0067  0.6223  0.2468
  943SOL    HW1 3770   0.224   2.129   2.346 -1.3367  1.4912  2.4136
  943SOL    HW2 3771   0.360   2.075   2.294 -1.7525 -0.6211 -0.6716
  943SOL     MW 3772   0.275   2.100   2.278 -0.4125  0.5729  0.4115
  944SOL     OW 3773   2.089   2.670   1.991 -0.2907 -0.6243 -0.6003
  944SOL    HW1 3774   2.127   2.595   2.027 -0.8764  0.6524  0.0425
  944SOL    HW2 3775   2.071   2.716   2.076  0.0353 -2.3272 -1.0671
  944SOL     MW 3776   2.091   2.666   2.007 -0.3249 -0.6806 -0.5771
  945SOL     OW 3777   2.715   2.684   2.891  0.9115 -0.4857  0.5909
  945SOL    HW1 3778   2.682   2.598   2.852 -0.6393 -1.2839 -0.3845
  945SOL    HW2 3779   2.752   2.726   2.812 -3.5453  1.3461 -0.6772
  945SOL     MW 3780   2.716   2.678   2.875  0.1188 -0.3493  0.2949
  946SOL     OW 3781   2.481   2.687   2.233 -0.0229  0.5319 -0.0019
  946SOL    HW1 3782   2.494   2.743   2.155  2.1490 -3.0412  0.6975
  946SOL    HW2 3783   2.398   2.626   2.212 -1.7570 -1.9529  0.6275
  946SOL     MW 3784   2.472   2.686   2.220  0.0349 -0.2674  0.1734
  947SOL     OW 3785   1.921   0.070   0.298 -0.0573 -0.5863  0.0208
  947SOL    HW1 3786   1.904  -0.023   0.270  2.1999  1.1717  0.2979
  947SOL    HW2 3787   1.995   0.061   0.364 -0.3027 -0.1022  4.3859
  947SOL     MW 3788   1.929   0.057   0.303  0.2081 -0.2905  0.6333
  948SOL     OW 3789   1.784   3.027   2.676 -0.1878  0.0771 -0.8724
  948SOL    HW1 3790   1.846   2.951   2.672  0.8876  0.9271 -0.0261
  948SOL    HW2 3791   1.788   3.065   2.580 -1.3629 -0.0749  0.8770
  948SOL     MW 3792   1.793   3.022   2.663 -0.2009  0.1692 -0.5299
  949SOL     OW 3793   2.509   1.904   2.289 -0.0461 -0.0903  0.5801
  949SOL    HW1 3794   2.512   1.820   2.343 -1.6782 -1.3350 -0.7806
  949SOL    HW2 3795   2.456   1.965   2.339  1.0200  1.6959  2.0814
  949SOL     MW 3796   2.503   1.901   2.302 -0.1207 -0.0189  0.5986
  950SOL     OW 3797   2.320   2.516   2.931 -0.0483  0.7389  0.2634
  950SOL    HW1 3798   2.353   2.435   2.892  2.4427  1.9654 -1.3175
  950SOL    HW2 3799   2.243   2.543   2.879  0.0868  1.0028 -2.9729
  950SOL     MW 3800   2.314   2.509   2.919  0.2982  0.9355 -0.3722
  951SOL     OW 3801   3.046   2.105   2.839  0.4626  0.2374  0.3251
  951SOL    HW1 3802   3.015   2.131   2.926  1.4511  0.3556 -1.6399
  951SOL    HW2 3803   3.080   2.015   2.839  1.7779 -0.5385  2.1864
  951SOL     MW 3804   3.046   2.097   2.851  0.7666  0.1506  0.3114
  952SOL     OW 3805   3.035   1.688   2.169 -0.2239  0.7650 -0.3274
  952SOL    HW1 3806   2.954   1.709   2.127  1.8217 -0.2514  0.1197
  952SOL    HW2 3807   3.069   1.771   2.205  0.7800 -1.2601  1.1364
  952SOL     MW 3808   3.029   1.701   2.168  0.1784  0.3637 -0.0753
  953SOL     OW 3809   1.921   1.778   2.912  0.1088 -0.3135 -0.3358
  953SOL    HW1 3810   1.852   1.735   2.964  1.0037  1.4404  1.8592
  953SOL    HW2 3811   1.942   1.718   2.844 -0.2007  1.0770  0.9304
  953SOL     MW 3812   1.915   1.765   2.910  0.1861  0.1014  0.1209
  954SOL     OW 3813   2.390   2.072   2.842 -0.0519  0.1855  0.2513
  954SOL    HW1 3814   2.302   2.070   2.814  2.5933 -2.1199  0.3356
  954SOL    HW2 3815   2.449   2.049   2.772  0.5779 -0.3621 -3.4164
  954SOL     MW 3816   2.386   2.069   2.829  0.3802 -0.1910 -0.2215
  955SOL     OW 3817   1.540   1.609   2.568 -0.2912  0.4825 -0.0103
  955SOL    HW1 3818   1.505   1.605   2.477 -2.2426  0.7728 -1.2107
  955SOL    HW2 3819   1.628   1.655   2.562  0.2019  1.0887  3.5704
  955SOL     MW 3820   1.547   1.615   2.555 -0.4836  0.6007  0.3038
  956SOL     OW 3821   2.705   2.396   2.848  0.4214 -0.0795  0.1533
  956SOL    HW1 3822   2.738   2.357   2.935  0.7481  0.1613 -1.1439
  956SOL    HW2 3823   2.786   2.362   2.795  2.4789 -0.5605 -2.2123
  956SOL     MW 3824   2.720   2.386   2.853  0.7360 -0.1112 -0.3299
  957SOL     OW 3825   2.265   2.855   0.431 -0.7144  0.6076  0.4724
  957SOL    HW1 3826   2.193   2.827   0.375 -0.4353 -2.1682  1.7045
  957SOL    HW2 3827   2.265   2.806   0.519 -2.2386 -1.7987  2.2166
  957SOL     MW 3828   2.255   2.845   0.435 -0.8787 -0.0761  0.8651
  958SOL     OW 3829   2.077   2.583   2.835  0.0012  0.1699  0.1100
  958SOL    HW1 3830   2.046   2.502   2.795  1.3061 -4.1917 -2.1185
  958SOL    HW2 3831   2.020   2.600   2.917  0.6722 -0.5517  2.3664
  958SOL     MW 3832   2.066   2.574   2.841  0.2619 -0.5008  0.1137
  959SOL     OW 3833   2.489   2.685   0.382 -0.3628  0.5884  0.0424
  959SOL    HW1 3834   2.522   2.676   0.293 -1.9704  2.0218  2.1317
  959SOL    HW2 3835   2.408   2.734   0.367 -1.2974  1.7783  0.4961
  959SOL     MW 3836   2.482   2.690   0.368 -0.6982  0.9345  0.3779
  960SOL     OW 3837   1.892   2.322   2.316 -0.3997  0.5850  0.1174
  960SOL    HW1 3838   1.906   2.232   2.338  0.2173  1.7825  0.2165
  960SOL    HW2 3839   1.852   2.341   2.401 -0.8968 -1.1575  0.3451
  960SOL     MW 3840   1.889   2.313   2.330 -0.3839  0.5131  0.1605
  961SOL     OW 3841   2.176   2.306   2.311 -0.0401  0.0189  0.2979
  961SOL    HW1 3842   2.083   2.301   2.319  1.4403  0.0921  0.1029
  961SOL    HW2 3843   2.205   2.353   2.392 -1.6775  0.5783 -0.2010
  961SOL     MW 3844   2.167   2.312   2.323 -0.0608  0.1023  0.2063
  962SOL     OW 3845   2.134   1.985   2.780  0.2343 -0.2600  0.1861
  962SOL    HW1 3846   2.119   1.971   2.878 -0.0129 -0.3414  1.8910
  962SOL    HW2 3847   2.152   1.894   2.737  2.4793 -0.9121 -0.8546
  962SOL     MW 3848   2.134   1.971   2.787  0.4979 -0.3568  0.2737
  963SOL     OW 3849   1.782   2.491   2.095 -0.7853  0.0976  0.3705
  963SOL    HW1 3850   1.844   2.430   2.147 -3.7769 -2.5575  3.1826
  963SOL    HW2 3851   1.798   2.469   2.005  1.0183 -1.0022  1.9821
  963SOL     MW 3852   1.793   2.480   2.090 -0.9420 -0.3978  0.9541
  964SOL     OW 3853   1.787   1.959   2.732  0.7947 -0.9128  0.3113
  964SOL    HW1 3854   1.849   2.024   2.696 -1.9912 -0.1558 -2.4429
  964SOL    HW2 3855   1.825   1.911   2.803 -0.1718 -2.7301  0.6142
  964SOL     MW 3856   1.800   1.961   2.737  0.2996 -1.0527 -0.0121
  965SOL     OW 3857   2.259   2.689   0.643  0.3811  0.0493 -0.0949
  965SOL    HW1 3858   2.255   2.594   0.631  2.9598 -1.0192  0.4839
  965SOL    HW2 3859   2.315   2.693   0.719  0.5553 -0.7803 -0.8184
  965SOL     MW 3860   2.266   2.677   0.652  0.7443 -0.2011 -0.1140
  966SOL     OW 3861   2.649   2.611   2.471  0.0773 -0.3103 -0.4676
  966SOL    HW1 3862   2.583   2.639   2.397  2.5294 -0.0811  0.5415
  966SOL    HW2 3863   2.670   2.522   2.452  0.7757  0.3501 -1.4320
  966SOL     MW 3864   2.643   2.603   2.459  0.4930 -0.1929 -0.4617
  967SOL     OW 3865   2.778   3.099   2.951  0.1289  0.0760  0.1590
  967SOL    HW1 3866   2.778   3.020   3.006  0.5549  1.0695  0.2809
  967SOL    HW2 3867   2.702   3.096   2.895  3.8770  1.5658  1.3961
  967SOL     MW 3868   2.768   3.088   2.951  0.6797  0.4036  0.3383
  968SOL     OW 3869   2.972   2.626   2.951 -0.1949  0.2768  0.0161
  968SOL    HW1 3870   2.875   2.638   2.934  0.3896 -1.8098  0.9828
  968SOL    HW2 3871   2.999   2.566   2.882  0.0000 -1.9515 -1.1116
  968SOL     MW 3872   2.963   2.620   2.940 -0.0921 -0.2925 -0.0052
  969SOL     OW 3873   1.604   2.158   1.659  0.0360  0.6310 -0.1745
  969SOL    HW1 3874   1.660   2.076   1.670  1.1354  1.5188  0.1642
  969SOL    HW2 3875   1.591   2.189   1.751 -0.4614  0.1298  1.3315
  969SOL     MW 3876   1.609   2.151   1.673  0.1154  0.6820  0.0689
  970SOL     OW 3877   1.721   1.779   1.939  0.9744  0.0299 -0.1911
  970SOL    HW1 3878   1.747   1.704   1.989 -2.5573  3.9898 -0.2960
  970SOL    HW2 3879   1.627   1.785   1.934  4.2822 -0.3949 -0.5236
  970SOL     MW 3880   1.712   1.770   1.945  0.9448  0.4963 -0.2488
  971SOL     OW 3881   1.775   0.041   2.436  0.0796 -0.5850 -0.0263
  971SOL    HW1 3882   1.820   0.002   2.360  1.3691  1.5368  0.1221
  971SOL    HW2 3883   1.822   0.123   2.452  1.3309 -1.2007  2.1702
  971SOL     MW 3884   1.787   0.047   2.428  0.4148 -0.3863  0.2831
  972SOL     OW 3885   0.281   2.867   2.447 -0.0209  0.0952 -0.0257
  972SOL    HW1 3886   0.326   2.782   2.448  0.5669 -0.8005  0.4420
  972SOL    HW2 3887   0.353   2.927   2.479  0.0816  1.6168  1.9350
  972SOL     MW 3888   0.296   2.864   2.451  0.0702  0.1778  0.2947
  973SOL     OW 3889   2.604   0.031   2.072  0.4700  0.1626 -0.6360
  973SOL    HW1 3890   2.590  -0.060   2.054 -0.5914  1.1982 -0.2064
  973SOL    HW2 3891   2.599   0.082   1.989  0.4422 -0.0541  0.2067
  973SOL     MW 3892   2.602   0.026   2.059  0.3263  0.2707 -0.4681
  974SOL     OW 3893   2.043   0.273   2.731  0.2622 -0.3422  0.6882
  974SOL    HW1 3894   2.131   0.251   2.703  0.7818  0.6971  1.3502
  974SOL    HW2 3895   2.026   0.201   2.791  3.0097  0.1698 -1.5734
  974SOL     MW 3896   2.052   0.260   2.735  0.6933 -0.1375  0.4771
  975SOL     OW 3897   2.189   2.517   2.509  0.0744 -0.1254 -0.4069
  975SOL    HW1 3898   2.269   2.554   2.535 -1.4438  0.1930  0.6703
  975SOL    HW2 3899   2.139   2.596   2.492 -0.3692  1.2743 -0.1155
  975SOL     MW 3900   2.193   2.532   2.510 -0.1844  0.1013 -0.2263
  976SOL     OW 3901   0.239   0.381   1.774 -0.4355 -0.3824  0.0584
  976SOL    HW1 3902   0.297   0.305   1.802  2.9849 -1.8606  3.0956
  976SOL    HW2 3903   0.167   0.332   1.733 -2.3873 -1.5506  0.5391
  976SOL     MW 3904   0.237   0.365   1.773 -0.2418 -0.7315  0.5226
  977SOL     OW 3905   1.757   2.680   2.566 -0.1164 -0.3981 -0.3179
  977SOL    HW1 3906   1.739   2.591   2.547 -0.6754  0.0187  4.1905
  977SOL    HW2 3907   1.835   2.710   2.519 -0.4290  1.0827 -1.4374
  977SOL     MW 3908   1.765   2.672   2.557 -0.2314 -0.1477  0.1292
   3.10000   3.10000   3.10000
