977 TIP4P/2005f water molecules t=   0.74000 step= 740
 3908
    1SOL     OW    1   0.222   0.855   3.059  0.5716 -0.7365 -0.0002
    1SOL    HW1    2   0.215   0.848   2.964  0.9853 -0.4617  2.9837
    1SOL    HW2    3   0.201   0.775   3.108  2.9783  1.0478  0.0327
    1SOL     MW    4   0.218   0.843   3.053  0.9437 -0.4648  0.3978
    2SOL     OW    5   0.273   3.005   1.165  0.9805  0.6253 -0.2210
    2SOL    HW1    6   0.345   3.055   1.125  0.4902  0.8089  0.4004
    2SOL    HW2    7   0.192   3.058   1.158  1.4780  2.4589  1.8846
    2SOL     MW    8   0.272   3.019   1.159  0.9814  0.8914  0.1388
    3SOL     OW    9   2.638   0.415   0.934  0.2375  0.7553  0.3031
    3SOL    HW1   10   2.684   0.486   0.877  1.0561  0.9653  0.4346
    3SOL    HW2   11   2.618   0.454   1.022  0.0113 -0.2151 -1.2194
    3SOL     MW   12   2.641   0.429   0.938  0.3157  0.6550  0.1195
    4SOL     OW   13   3.052   1.705   0.614 -0.3770  0.2696  0.8216
    4SOL    HW1   14   2.966   1.717   0.573  2.8925 -0.4018  0.4340
    4SOL    HW2   15   3.099   1.672   0.535 -1.1664 -3.2398  0.0580
    4SOL     MW   16   3.047   1.702   0.598 -0.0498 -0.2820  0.6697
    5SOL     OW   17   1.713   1.506   0.514  0.0681  0.0896  0.0640
    5SOL    HW1   18   1.763   1.474   0.589 -0.9820  1.7016  0.7124
    5SOL    HW2   19   1.623   1.460   0.527 -1.5907 -2.0875 -0.3093
    5SOL     MW   20   1.708   1.496   0.526 -0.2893  0.0150  0.1003
    6SOL     OW   21   0.857   1.413   0.643  0.0542  0.3750 -0.1676
    6SOL    HW1   22   0.764   1.416   0.663 -0.7576 -2.0330  0.8743
    6SOL    HW2   23   0.884   1.352   0.710 -0.4640  0.1374  0.7687
    6SOL     MW   24   0.849   1.405   0.655 -0.1213  0.0259  0.0934
    7SOL     OW   25   2.016   1.144   3.086  0.6414 -0.0705 -0.9497
    7SOL    HW1   26   2.072   1.169   3.011 -1.4998  0.0253 -0.6885
    7SOL    HW2   27   2.075   1.165   3.159  0.0654  2.2008 -1.2787
    7SOL     MW   28   2.032   1.150   3.086  0.2829  0.2418 -0.9587
    8SOL     OW   29   0.963   1.333   1.030 -0.4397  0.1305  0.2987
    8SOL    HW1   30   1.054   1.298   1.035  1.8898 -2.5050 -1.6235
    8SOL    HW2   31   0.917   1.277   1.091  0.2423  1.8639 -1.5131
    8SOL     MW   32   0.969   1.321   1.039 -0.0424  0.0115 -0.1940
    9SOL     OW   33   1.048   0.466   1.373  0.0826  0.0624  0.2498
    9SOL    HW1   34   0.979   0.398   1.359  0.4822 -1.5952 -0.8208
    9SOL    HW2   35   1.114   0.427   1.431  2.4687  0.0002  1.4105
    9SOL     MW   36   1.047   0.452   1.379  0.4501 -0.1645  0.2617
   10SOL     OW   37   0.279   0.798   0.456  0.3282  0.3955 -0.1038
   10SOL    HW1   38   0.366   0.805   0.413 -2.8353 -0.0655  1.5173
   10SOL    HW2   39   0.293   0.838   0.546 -0.2878 -1.2209  0.7150
   10SOL     MW   40   0.293   0.804   0.462 -0.1704  0.1214  0.2181
   11SOL     OW   41   0.773   1.159   1.707  0.5516 -0.4453  0.6468
   11SOL    HW1   42   0.847   1.139   1.771  0.8255  1.2195  2.8025
   11SOL    HW2   43   0.785   1.082   1.636 -1.8406 -2.3439  0.4175
   11SOL     MW   44   0.785   1.146   1.706  0.2721 -0.4761  0.9010
   12SOL     OW   45   0.013   1.064   0.874  0.6280 -0.2264 -0.1714
   12SOL    HW1   46   0.068   1.143   0.905  1.9316  1.2901  0.7547
   12SOL    HW2   47  -0.048   1.108   0.808  1.4396 -0.9932 -0.0331
   12SOL     MW   48   0.012   1.080   0.869  0.9070 -0.1275 -0.0309
   13SOL     OW   49   1.858   1.385   1.349  0.0988 -0.5713 -0.3395
   13SOL    HW1   50   1.894   1.348   1.275 -0.2916 -0.3298  1.9336
   13SOL    HW2   51   1.868   1.480   1.333  0.7806 -1.6171 -0.7070
   13SOL     MW   52   1.864   1.393   1.337  0.1372 -0.6774 -0.0881
   14SOL     OW   53   0.622   0.369   1.833  0.7660  0.6046  0.3244
   14SOL    HW1   54   0.549   0.307   1.866  1.5725 -1.5376 -0.7189
   14SOL    HW2   55   0.678   0.376   1.909 -0.7898 -4.0458  0.3635
   14SOL     MW   56   0.620   0.362   1.848  0.6672 -0.2916  0.1919
   15SOL     OW   57   1.970   0.452   0.967 -0.2084 -0.1144  0.6074
   15SOL    HW1   58   1.970   0.499   1.051  0.8220 -5.7853  2.2813
   15SOL    HW2   59   2.061   0.437   0.939 -1.7158 -0.9895  0.5813
   15SOL     MW   60   1.982   0.456   0.974 -0.2713 -0.9781  0.8248
   16SOL     OW   61   0.222   1.843   0.324 -0.5215 -0.2135 -0.3911
   16SOL    HW1   62   0.310   1.805   0.343  0.8518 -0.3406  0.9854
   16SOL    HW2   63   0.226   1.915   0.394 -1.3466  1.9989  1.5080
   16SOL     MW   64   0.234   1.848   0.336 -0.4492  0.0617  0.0411
   17SOL     OW   65   1.058   0.926   1.528  0.6542  0.2729 -0.0141
   17SOL    HW1   66   1.100   0.880   1.597 -0.1541 -1.7354  0.1903
   17SOL    HW2   67   0.967   0.917   1.547  1.1815  1.5692  0.0209
   17SOL     MW   68   1.051   0.919   1.539  0.6171  0.1790  0.0175
   18SOL     OW   69   0.096   1.599   0.390 -0.5993 -0.0310 -0.4938
   18SOL    HW1   70   0.152   1.674   0.381  1.9089 -1.7330  1.5106
   18SOL    HW2   71   0.075   1.568   0.301  1.7956  0.9558 -0.6338
   18SOL     MW   72   0.100   1.605   0.377  0.0477 -0.1254 -0.2478
   19SOL     OW   73   0.119   1.287   0.971  0.0548 -0.2151 -0.5002
   19SOL    HW1   74   0.137   1.342   0.894  0.9497 -0.8284  4.2683
   19SOL    HW2   75   0.036   1.323   1.005  1.1732 -3.7608 -1.4598
   19SOL     MW   76   0.110   1.299   0.965  0.3204 -0.7639  0.0024
   20SOL     OW   77   0.418   2.115   1.176  0.2631 -0.3446 -0.7084
   20SOL    HW1   78   0.367   2.031   1.151 -0.6156 -0.1502  0.7464
   20SOL    HW2   79   0.366   2.151   1.255  1.5962 -1.8804 -1.2975
   20SOL     MW   80   0.405   2.109   1.183  0.3231 -0.5216 -0.5942
   21SOL     OW   81   0.545   0.814   0.355  0.2547 -0.0057  0.0124
   21SOL    HW1   82   0.613   0.820   0.427 -0.6844  1.0503 -0.6805
   21SOL    HW2   83   0.584   0.814   0.270  0.2203  0.7625  0.3681
   21SOL     MW   84   0.559   0.815   0.353  0.1263  0.2350 -0.0321
   22SOL     OW   85   1.465   0.630   1.102  0.5875  0.1425 -0.1699
   22SOL    HW1   86   1.461   0.568   1.031 -1.0625 -0.0423 -3.5331
   22SOL    HW2   87   1.386   0.682   1.094  0.3972 -0.7366  0.2764
   22SOL     MW   88   1.454   0.629   1.092  0.3447  0.0022 -0.5547
   23SOL     OW   89   0.040   0.770   0.641  0.2316 -0.2689  0.3468
   23SOL    HW1   90   0.088   0.713   0.702  0.7963 -0.1463 -2.3965
   23SOL    HW2   91   0.091   0.853   0.635  0.4818  2.7480 -0.6696
   23SOL     MW   92   0.053   0.773   0.648  0.3391  0.1453 -0.1492
   24SOL     OW   93   1.983   2.204   0.106 -0.5658  0.1622  0.2817
   24SOL    HW1   94   2.014   2.179   0.195  2.0821 -0.6214  0.4449
   24SOL    HW2   95   2.020   2.136   0.047  0.8547 -0.2371  2.6235
   24SOL     MW   96   1.992   2.192   0.110 -0.0290  0.0061  0.6122
   25SOL     OW   97   0.217   1.386   0.486  0.7372 -0.1231 -0.6194
   25SOL    HW1   98   0.166   1.463   0.456  1.7075  0.8150 -0.0890
   25SOL    HW2   99   0.305   1.405   0.474 -0.6423 -3.1991 -1.6058
   25SOL     MW  100   0.222   1.398   0.481  0.6832 -0.4052 -0.6796
   26SOL     OW  101   2.000   0.993   0.380  0.0298  0.1130 -0.0798
   26SOL    HW1  102   1.921   1.024   0.436  2.7794  1.3087  1.3035
   26SOL    HW2  103   2.027   1.066   0.315  0.7462  0.7046 -1.3491
   26SOL     MW  104   1.993   1.007   0.379  0.4871  0.3488 -0.0648
   27SOL     OW  105   2.069   1.425   0.245  0.1912  0.2457  1.0023
   27SOL    HW1  106   1.980   1.396   0.275 -1.3667  0.8909  1.7929
   27SOL    HW2  107   2.104   1.473   0.323  0.6755  0.8365 -0.0667
   27SOL     MW  108   2.062   1.428   0.259  0.0496  0.4088  0.9656
   28SOL     OW  109   0.410   1.076   2.031  0.3863  0.0278  0.0164
   28SOL    HW1  110   0.489   1.037   2.064 -1.9509  0.2548  1.6609
   28SOL    HW2  111   0.340   1.013   2.007 -0.6963 -3.3742 -0.2025
   28SOL     MW  112   0.411   1.063   2.032 -0.0649 -0.3911  0.2045
   29SOL     OW  113   0.217   1.447   0.764  0.1456 -0.5017 -0.0043
   29SOL    HW1  114   0.216   1.541   0.772  1.3235 -0.6186 -0.0678
   29SOL    HW2  115   0.241   1.432   0.671  1.6725  0.5512 -1.0912
   29SOL     MW  116   0.220   1.458   0.753  0.5024 -0.3782 -0.1561
   30SOL     OW  117   0.789   1.214   1.215 -0.5321  0.2003 -0.0203
   30SOL    HW1  118   0.705   1.214   1.263 -1.0858  0.8059 -0.5049
   30SOL    HW2  119   0.856   1.188   1.284  0.9947  0.2870 -0.4549
   30SOL     MW  120   0.787   1.210   1.231 -0.4037  0.2916 -0.1416
   31SOL     OW  121   0.414   0.191   0.189 -0.1078 -0.4764  0.1361
   31SOL    HW1  122   0.404   0.118   0.250 -1.9773  2.8800  0.6748
   31SOL    HW2  123   0.432   0.153   0.101 -1.2726 -0.2044 -0.8132
   31SOL     MW  124   0.415   0.176   0.185 -0.5082  0.0024  0.0819
   32SOL     OW  125   2.788   0.997   1.132  0.1217 -0.0059 -0.3276
   32SOL    HW1  126   2.729   0.913   1.139 -0.2831 -0.4069  1.9714
   32SOL    HW2  127   2.872   0.951   1.109 -1.3830 -0.6133  0.3236
   32SOL     MW  128   2.791   0.980   1.130 -0.1302 -0.1389  0.0616
   33SOL     OW  129   1.837   1.299   0.351 -0.2218 -0.0481 -0.2451
   33SOL    HW1  130   1.830   1.229   0.416  0.6824 -1.0682 -0.2269
   33SOL    HW2  131   1.782   1.362   0.398  2.5863 -2.1071  2.9058
   33SOL     MW  132   1.829   1.298   0.366  0.2680 -0.4543  0.1730
   34SOL     OW  133   1.238   1.866   1.072  0.3075 -0.2343 -0.6190
   34SOL    HW1  134   1.145   1.888   1.088  2.3370 -3.2357 -1.0711
   34SOL    HW2  135   1.289   1.907   1.145 -0.0525  1.2595  1.4734
   34SOL     MW  136   1.232   1.874   1.084  0.5278 -0.4332 -0.4026
   35SOL     OW  137   0.440   0.175   1.874  0.2810  0.3671  0.4410
   35SOL    HW1  138   0.392   0.125   1.943 -1.0026 -1.4862 -1.3725
   35SOL    HW2  139   0.438   0.123   1.796 -0.3756 -1.2581  1.1670
   35SOL     MW  140   0.433   0.162   1.873  0.0250 -0.0919  0.2975
   36SOL     OW  141   1.882   1.935   0.520  0.5638 -0.2267  0.4118
   36SOL    HW1  142   1.893   1.920   0.428  3.1453  0.1576  2.0615
   36SOL    HW2  143   1.911   1.848   0.562  1.9682  1.2705  0.5818
   36SOL     MW  144   1.887   1.921   0.514  1.0897  0.0215  0.6519
   37SOL     OW  145   1.756   2.006   1.025 -0.5474 -0.3707  0.3123
   37SOL    HW1  146   1.726   1.942   0.957  2.0843 -0.1574  0.4827
   37SOL    HW2  147   1.677   2.041   1.062 -0.1787 -1.6409 -2.1077
   37SOL     MW  148   1.741   2.002   1.021 -0.1515 -0.5101  0.0155
   38SOL     OW  149   2.791   0.901   0.131 -0.4699  0.1307 -0.4278
   38SOL    HW1  150   2.821   0.889   0.225  4.2564  2.6164 -2.3647
   38SOL    HW2  151   2.857   0.865   0.070  0.2606 -1.7260 -1.3430
   38SOL     MW  152   2.804   0.895   0.135  0.2501  0.2137 -0.8041
   39SOL     OW  153   1.423   0.608   0.784  0.1967 -0.1975  0.0656
   39SOL    HW1  154   1.382   0.518   0.787 -0.7226  1.3986  3.1222
   39SOL    HW2  155   1.352   0.668   0.789 -0.7698 -0.8345  0.2414
   39SOL     MW  156   1.408   0.604   0.785 -0.0521 -0.0710  0.4921
   40SOL     OW  157   1.146   1.910   0.250  0.2366  0.4309  0.6101
   40SOL    HW1  158   1.193   1.844   0.295 -1.0364  0.8433  0.0073
   40SOL    HW2  159   1.132   1.985   0.311 -0.7465  0.6271 -1.7568
   40SOL     MW  160   1.150   1.911   0.264 -0.0611  0.5112  0.2183
   41SOL     OW  161   0.618   0.543   1.571  0.3478  0.4202  0.6620
   41SOL    HW1  162   0.710   0.576   1.560  0.5541 -0.5495  0.0803
   41SOL    HW2  163   0.632   0.477   1.637  0.6866  0.8709 -3.6274
   41SOL     MW  164   0.632   0.539   1.578  0.4198  0.3517  0.0193
   42SOL     OW  165   1.243   3.036   1.966  0.1824  0.2707 -0.2783
   42SOL    HW1  166   1.166   3.029   2.022  1.5992 -0.7145  2.1763
   42SOL    HW2  167   1.289   2.952   1.989  2.8056 -0.8382  1.8355
   42SOL     MW  168   1.239   3.024   1.977  0.7154 -0.0056  0.3245
   43SOL     OW  169   1.558   0.132   1.729  0.2847  0.1783 -0.0655
   43SOL    HW1  170   1.599   0.096   1.645  1.8316 -2.4846  0.1024
   43SOL    HW2  171   1.471   0.083   1.734  0.0480 -1.4572  2.6812
   43SOL     MW  172   1.552   0.121   1.718  0.4576 -0.3888  0.3191
   44SOL     OW  173   1.196   0.757   1.059 -1.2998  0.5875  0.0653
   44SOL    HW1  174   1.193   0.843   1.021 -0.3393  0.0016 -0.2313
   44SOL    HW2  175   1.149   0.765   1.144 -2.0801 -0.2551 -2.5319
   44SOL     MW  176   1.189   0.769   1.066 -1.2760  0.3990 -0.3165
   45SOL     OW  177   1.181   0.760   0.731 -0.0318 -0.2379 -0.0076
   45SOL    HW1  178   1.143   0.734   0.816 -0.5791  1.3784  1.6781
   45SOL    HW2  179   1.139   0.714   0.657  1.1317  1.7629 -1.1058
   45SOL     MW  180   1.171   0.751   0.732  0.0495  0.2394  0.0699
   46SOL     OW  181   0.563   1.159   0.561  0.9624  0.4861 -0.1171
   46SOL    HW1  182   0.511   1.153   0.482 -0.5318  2.9887  0.0409
   46SOL    HW2  183   0.648   1.150   0.531 -2.3156  0.5411 -0.1685
   46SOL     MW  184   0.567   1.157   0.547  0.3328  0.8236 -0.1031
   47SOL     OW  185   0.157   1.956   1.825 -0.1488  0.6789  0.9395
   47SOL    HW1  186   0.219   1.887   1.792 -1.4805  1.1730  2.6353
   47SOL    HW2  187   0.126   1.915   1.904  0.6997 -0.4231 -2.7385
   47SOL     MW  188   0.161   1.942   1.831 -0.2126  0.5987  0.6779
   48SOL     OW  189   1.110   0.525   0.954 -0.0224 -0.6933 -0.1726
   48SOL    HW1  190   1.029   0.487   0.975  0.0407 -1.9052  0.5769
   48SOL    HW2  191   1.118   0.601   1.015 -0.8874 -1.2618 -0.8646
   48SOL     MW  192   1.101   0.530   0.965 -0.1282 -0.9282 -0.1650
   49SOL     OW  193   1.834   0.738   1.589 -0.1317 -0.2293  0.5010
   49SOL    HW1  194   1.808   0.716   1.676 -0.6362  0.1252 -0.6283
   49SOL    HW2  195   1.881   0.655   1.559  1.3611  1.1606 -0.4964
   49SOL     MW  196   1.837   0.724   1.597 -0.0013  0.0009  0.2204
   50SOL     OW  197   1.204   1.073   0.527  0.2359 -0.3533  0.1811
   50SOL    HW1  198   1.166   1.121   0.594  1.3083  1.8592 -1.3043
   50SOL    HW2  199   1.266   1.011   0.570  0.1925 -1.0078  0.7796
   50SOL     MW  200   1.207   1.071   0.541  0.3717 -0.1477  0.0641
   51SOL     OW  201   0.317   2.897   0.921  0.6417 -0.0899 -0.3685
   51SOL    HW1  202   0.413   2.868   0.937  0.2689 -3.3008 -0.5491
   51SOL    HW2  203   0.283   2.916   1.007  4.0494  1.6109 -2.9616
   51SOL     MW  204   0.325   2.896   0.934  1.0421 -0.2892 -0.7344
   52SOL     OW  205   0.819   1.847   0.443  0.2159  0.0872 -0.2067
   52SOL    HW1  206   0.746   1.906   0.449 -1.4635 -0.3614 -0.3504
   52SOL    HW2  207   0.816   1.810   0.357 -2.6412  1.3363 -0.3638
   52SOL     MW  208   0.809   1.850   0.433 -0.3827  0.1928 -0.2464
   53SOL     OW  209   0.432   2.139   0.641 -0.6459 -0.4466  0.1494
   53SOL    HW1  210   0.366   2.133   0.575  1.1221 -0.4900 -3.4111
   53SOL    HW2  211   0.446   2.238   0.637  3.9807 -1.7333 -0.0910
   53SOL     MW  212   0.425   2.151   0.632  0.1978 -0.6221 -0.3521
   54SOL     OW  213   2.101   0.903   0.857 -0.1387  0.9826 -0.1199
   54SOL    HW1  214   2.152   0.903   0.774  2.0668  1.5054 -0.4286
   54SOL    HW2  215   2.037   0.830   0.851 -0.2952 -0.2268 -0.8275
   54SOL     MW  216   2.099   0.893   0.845  0.1316  0.8920 -0.2540
   55SOL     OW  217   0.554   1.537   1.639  0.0312  0.3059  0.3143
   55SOL    HW1  218   0.490   1.571   1.573 -1.9428 -0.5088  1.5330
   55SOL    HW2  219   0.616   1.494   1.583 -3.9819 -0.4394  0.6345
   55SOL     MW  220   0.554   1.536   1.623 -0.7587  0.1000  0.5174
   56SOL     OW  221   0.573   0.772   0.049  0.7394 -0.0044 -0.0337
   56SOL    HW1  222   0.576   0.867   0.025 -1.2063  1.0450  1.2269
   56SOL    HW2  223   0.495   0.747   0.005  0.8652 -1.7048 -2.0872
   56SOL     MW  224   0.563   0.781   0.040  0.4993 -0.0903 -0.1383
   57SOL     OW  225   1.184   1.218   1.092  0.2756 -0.6073 -0.1136
   57SOL    HW1  226   1.268   1.249   1.051  0.1818 -0.5413 -1.7129
   57SOL    HW2  227   1.223   1.178   1.178  0.4244 -1.5338  2.0329
   57SOL     MW  228   1.201   1.217   1.098  0.2828 -0.7208 -0.0414
   58SOL     OW  229   0.543   1.156   1.318  0.3386  0.1085  0.5118
   58SOL    HW1  230   0.511   1.249   1.298  0.4327  1.3646 -0.4108
   58SOL    HW2  231   0.524   1.148   1.412 -0.6606 -2.5522 -1.8636
   58SOL     MW  232   0.537   1.167   1.328  0.2192 -0.0768  0.0767
   59SOL     OW  233   1.542   1.691   0.332  0.0062 -0.0035 -0.0066
   59SOL    HW1  234   1.596   1.648   0.396 -0.3260 -0.4280  3.3340
   59SOL    HW2  235   1.459   1.699   0.375  1.8273  2.0539 -1.7308
   59SOL     MW  236   1.539   1.686   0.346  0.2026  0.2120  0.2067
   60SOL     OW  237   0.054   0.181   1.604 -1.0444  0.0141 -0.3414
   60SOL    HW1  238  -0.032   0.220   1.604 -0.9192  1.8161  1.3244
   60SOL    HW2  239   0.065   0.123   1.680  0.6542 -0.4526 -0.1944
   60SOL     MW  240   0.044   0.179   1.614 -0.8038  0.1903 -0.1022
   61SOL     OW  241   2.043   1.495   3.062 -0.2256  0.5582  0.2503
   61SOL    HW1  242   2.059   1.487   3.156 -0.4911  1.7931 -0.0063
   61SOL    HW2  243   2.097   1.427   3.020  0.3794 -2.3294  3.1774
   61SOL     MW  244   2.052   1.485   3.069 -0.1808  0.3401  0.6027
   62SOL     OW  245   0.571   1.701   0.633 -0.2852 -0.5268 -0.2279
   62SOL    HW1  246   0.672   1.704   0.613  1.2046 -0.3697 -2.6251
   62SOL    HW2  247   0.554   1.607   0.637 -0.9607  0.1041 -1.2297
   62SOL     MW  248   0.582   1.689   0.631 -0.1778 -0.4229 -0.6764
   63SOL     OW  249   1.679   0.684   0.740  0.5879 -0.2988  0.2586
   63SOL    HW1  250   1.678   0.749   0.669 -1.3464 -0.2837 -1.2020
   63SOL    HW2  251   1.588   0.663   0.760  2.2608  1.3795  1.7034
   63SOL     MW  252   1.667   0.690   0.734  0.5534 -0.0754  0.2565
   64SOL     OW  253   0.239   1.746   0.747 -0.6723  0.2616  0.1068
   64SOL    HW1  254   0.314   1.801   0.739 -1.0686  0.8513  0.8232
   64SOL    HW2  255   0.151   1.793   0.733  1.8510  1.6604  1.6778
   64SOL     MW  256   0.237   1.759   0.744 -0.3917  0.5240  0.4086
   65SOL     OW  257   1.536   2.354   0.405  0.0138 -0.1700 -0.1782
   65SOL    HW1  258   1.627   2.319   0.404  1.7825  0.8350 -3.6959
   65SOL    HW2  259   1.527   2.388   0.492 -0.4708 -1.9429 -3.3669
   65SOL     MW  260   1.547   2.354   0.416  0.1832 -0.2713 -1.0630
   66SOL     OW  261   0.281   0.561   0.571 -0.1981 -0.3905 -0.0159
   66SOL    HW1  262   0.336   0.498   0.526 -1.7040 -1.7284  2.3106
   66SOL    HW2  263   0.279   0.642   0.511 -0.6988  2.2590 -0.5943
   66SOL     MW  264   0.288   0.563   0.557 -0.4629 -0.2174  0.2147
   67SOL     OW  265   1.514   0.077   2.037  0.1251 -0.0923  0.1206
   67SOL    HW1  266   1.577   0.109   1.974  0.2361  1.7413  0.3765
   67SOL    HW2  267   1.500  -0.012   2.003  1.6509 -2.0125  0.6732
   67SOL     MW  268   1.521   0.069   2.025  0.3410 -0.1037  0.2272
   68SOL     OW  269   0.648   0.122   2.939 -0.0175 -0.2868 -0.0751
   68SOL    HW1  270   0.635   0.170   2.855  0.3438 -0.7116 -2.5152
   68SOL    HW2  271   0.697   0.174   2.998  3.0576  1.4832 -1.1012
   68SOL     MW  272   0.653   0.135   2.935  0.4359 -0.1093 -0.5324
   69SOL     OW  273   1.001   0.188   2.008 -0.1139  0.3598 -0.0119
   69SOL    HW1  274   1.097   0.203   1.987  1.6810  0.9215  0.1003
   69SOL    HW2  275   0.993   0.097   2.031  2.6568 -0.7755  0.1656
   69SOL     MW  276   1.013   0.178   2.008  0.4885  0.2841  0.0263
   70SOL     OW  277   0.513   1.726   1.110 -0.3672  0.3413  0.0218
   70SOL    HW1  278   0.581   1.677   1.161 -1.0351 -1.4723 -0.5843
   70SOL    HW2  279   0.576   1.788   1.076  1.7820  2.5148 -0.5203
   70SOL     MW  280   0.531   1.728   1.112 -0.1718  0.3888 -0.1297
   71SOL     OW  281   1.613   0.532   1.331 -0.5362 -0.2816 -0.2890
   71SOL    HW1  282   1.611   0.616   1.378 -1.6567 -0.3563  0.1280
   71SOL    HW2  283   1.559   0.556   1.251 -0.4740 -1.1801  0.5061
   71SOL     MW  284   1.606   0.546   1.326 -0.6759 -0.4100 -0.1291
   72SOL     OW  285   0.759   1.798   0.990 -0.0525  0.5271  0.1123
   72SOL    HW1  286   0.781   1.841   0.905  0.6659  2.0307 -0.3668
   72SOL    HW2  287   0.776   1.704   0.984  0.5842  0.0388 -1.0604
   72SOL     MW  288   0.764   1.791   0.978  0.1263  0.6610 -0.1056
   73SOL     OW  289   1.160   0.726   1.347  0.0797  0.7344 -0.5247
   73SOL    HW1  290   1.105   0.646   1.348  0.1067 -0.1816  0.1708
   73SOL    HW2  291   1.125   0.785   1.410  2.1036  0.8820 -0.1230
   73SOL     MW  292   1.148   0.723   1.355  0.3503  0.6330 -0.3800
   74SOL     OW  293   2.795   0.169   0.940 -0.3523  0.0175  0.0404
   74SOL    HW1  294   2.846   0.150   0.859  0.9577 -0.7911 -1.4414
   74SOL    HW2  295   2.761   0.261   0.936 -1.8135 -0.3016 -0.7513
   74SOL     MW  296   2.798   0.178   0.929 -0.3723 -0.1313 -0.2595
   75SOL     OW  297   1.652   1.384   0.090 -0.0842 -0.0872  0.2052
   75SOL    HW1  298   1.665   1.411   0.179 -0.2960  1.2059  0.9689
   75SOL    HW2  299   1.690   1.298   0.084 -1.0812 -1.0413  1.7395
   75SOL     MW  300   1.659   1.376   0.101 -0.2437 -0.0425  0.5084
   76SOL     OW  301   3.015   0.624   0.455 -0.0094  0.0327  0.3649
   76SOL    HW1  302   3.073   0.688   0.501 -0.2099 -0.3887 -0.0502
   76SOL    HW2  303   3.072   0.559   0.423 -2.0724  2.0210 -0.7112
   76SOL     MW  304   3.030   0.624   0.457 -0.3080  0.2394  0.1682
   77SOL     OW  305   0.784   0.555   0.402 -0.2707 -0.1856  0.1400
   77SOL    HW1  306   0.778   0.561   0.308 -1.9896  0.4649 -0.3170
   77SOL    HW2  307   0.728   0.478   0.429  0.6812 -0.2183  2.2278
   77SOL     MW  308   0.776   0.546   0.393 -0.3719 -0.1040  0.3552
   78SOL     OW  309   0.738   0.905   1.289 -0.1561  0.2673  0.2054
   78SOL    HW1  310   0.762   0.990   1.263 -0.4903  0.7975 -3.0078
   78SOL    HW2  311   0.656   0.885   1.249 -1.6641  1.4505  3.6514
   78SOL     MW  312   0.730   0.914   1.280 -0.3992  0.4934  0.2361
   79SOL     OW  313   1.935   1.675   0.586 -0.0536 -0.3984  0.2569
   79SOL    HW1  314   1.847   1.637   0.551  0.7582  2.0030 -1.3074
   79SOL    HW2  315   1.923   1.674   0.679  2.9595  0.2083 -2.3580
   79SOL     MW  316   1.922   1.670   0.593  0.4511 -0.0015 -0.2945
   80SOL     OW  317   0.078   0.942   0.311 -0.0055  0.0281  0.3961
   80SOL    HW1  318  -0.014   0.918   0.337  0.9554 -0.9601 -0.4168
   80SOL    HW2  319   0.151   0.895   0.355 -0.9915  0.2644  1.4348
   80SOL     MW  320   0.076   0.933   0.320 -0.0088 -0.0711  0.4259
   81SOL     OW  321   1.898   1.890   0.217  0.7497 -0.0602 -0.2531
   81SOL    HW1  322   1.851   1.811   0.179 -1.7867  0.8808 -0.3799
   81SOL    HW2  323   1.831   1.968   0.207 -0.6662 -1.6215 -0.0201
   81SOL     MW  324   1.883   1.890   0.211  0.2282 -0.1420 -0.2391
   82SOL     OW  325   0.826   1.052   0.518 -0.1175 -0.5361 -0.2526
   82SOL    HW1  326   0.811   1.071   0.424  0.6301 -1.1974  0.5506
   82SOL    HW2  327   0.830   0.959   0.518  0.0736  4.0201 -0.7179
   82SOL     MW  328   0.824   1.042   0.506  0.0063 -0.0222 -0.2081
   83SOL     OW  329   0.109   0.614   1.382 -0.4340  0.4498  0.9945
   83SOL    HW1  330   0.116   0.707   1.361 -1.4788  2.0882 -0.2114
   83SOL    HW2  331   0.171   0.583   1.445 -0.8394  1.3316 -1.4598
   83SOL     MW  332   0.118   0.622   1.387 -0.6253  0.7823  0.5116
   84SOL     OW  333   0.095   0.267   0.947  0.6930 -0.5679  0.5472
   84SOL    HW1  334   0.025   0.301   0.886  0.3720 -0.1747 -1.2118
   84SOL    HW2  335   0.044   0.207   1.006 -1.7381 -0.0443  0.3308
   84SOL     MW  336   0.079   0.263   0.947  0.3299 -0.4470  0.2866
   85SOL     OW  337   0.477   0.422   0.738  0.1990 -0.0975  0.0263
   85SOL    HW1  338   0.413   0.488   0.724 -2.4795  0.7338  0.1629
   85SOL    HW2  339   0.435   0.350   0.775  3.6431 -0.5856  1.0482
   85SOL     MW  340   0.463   0.421   0.741  0.3000 -0.0522  0.1791
   86SOL     OW  341   1.214   0.322   1.108  0.0456 -0.4219  0.6549
   86SOL    HW1  342   1.164   0.401   1.091 -1.7677 -0.5134  1.4876
   86SOL    HW2  343   1.264   0.345   1.186 -0.3308 -0.1069 -1.6173
   86SOL     MW  344   1.214   0.335   1.116 -0.2433 -0.3924  0.4650
   87SOL     OW  345   1.173   1.426   1.295  0.6896  0.2149  0.0856
   87SOL    HW1  346   1.176   1.499   1.233  4.0099 -1.2561  0.6265
   87SOL    HW2  347   1.176   1.350   1.239  0.1377  1.5653 -1.4519
   87SOL     MW  348   1.174   1.426   1.279  1.0549  0.1990 -0.0459
   88SOL     OW  349   1.209   0.995   0.925 -0.2588 -0.0150  0.4820
   88SOL    HW1  350   1.303   0.997   0.916  0.4269 -1.1333 -0.4619
   88SOL    HW2  351   1.196   1.073   0.980  1.0779  0.7213 -2.3430
   88SOL     MW  352   1.219   1.006   0.931  0.0080 -0.0654 -0.0153
   89SOL     OW  353   1.775   0.680   0.362  0.1926 -0.1687  0.4411
   89SOL    HW1  354   1.834   0.615   0.397 -2.3442  0.4698 -2.6620
   89SOL    HW2  355   1.813   0.697   0.276  2.2359  1.7412  1.3174
   89SOL     MW  356   1.788   0.674   0.355  0.1275  0.1675  0.1473
   90SOL     OW  357   0.683   1.149   2.780 -0.5533 -0.3969 -0.5363
   90SOL    HW1  358   0.721   1.061   2.823  2.4784 -1.6765  0.8204
   90SOL    HW2  359   0.688   1.202   2.858  0.9200 -0.5100  1.2811
   90SOL     MW  360   0.689   1.144   2.796  0.0411 -0.5807 -0.1175
   91SOL     OW  361   2.173   0.666   0.503 -0.2851  0.2615 -0.8897
   91SOL    HW1  362   2.232   0.699   0.434 -0.4494  0.2570 -0.0453
   91SOL    HW2  363   2.151   0.579   0.476 -1.6816  0.2902 -2.6376
   91SOL     MW  364   2.178   0.658   0.491 -0.4910  0.2647 -1.0089
   92SOL     OW  365   1.641   0.847   0.527  0.3308  0.5638  0.2658
   92SOL    HW1  366   1.549   0.845   0.538  0.6712  0.9240 -0.3411
   92SOL    HW2  367   1.669   0.788   0.453  0.3970  0.9222 -0.8894
   92SOL     MW  368   1.633   0.839   0.518  0.3844  0.6586  0.0333
   93SOL     OW  369   0.977   0.268   0.410 -0.4005  0.0366  0.4262
   93SOL    HW1  370   0.898   0.319   0.400 -2.3909 -3.4731 -2.2211
   93SOL    HW2  371   1.020   0.269   0.326 -1.1706 -0.8978  0.9255
   93SOL     MW  372   0.972   0.275   0.398 -0.7647 -0.5497  0.1428
   94SOL     OW  373   1.819   1.434   1.618 -1.0857  0.3542  0.2726
   94SOL    HW1  374   1.851   1.409   1.527 -1.5131 -0.0971 -2.6688
   94SOL    HW2  375   1.798   1.351   1.662 -1.3190 -1.8742  2.7554
   94SOL     MW  376   1.821   1.420   1.612 -1.1729  0.0006  0.2121
   95SOL     OW  377   0.762   1.512   0.967  0.0211  0.3190 -0.6123
   95SOL    HW1  378   0.816   1.445   1.009  0.1665  2.0492 -0.6673
   95SOL    HW2  379   0.676   1.474   0.974 -0.4563  2.7384  0.2353
   95SOL     MW  380   0.758   1.498   0.973 -0.0227  0.8665 -0.5077
   96SOL     OW  381   1.234   1.846   1.642  0.1195 -0.0582 -0.1333
   96SOL    HW1  382   1.176   1.826   1.710 -1.1005 -2.0956  1.2705
   96SOL    HW2  383   1.229   1.773   1.572 -0.2461 -0.1650  2.3095
   96SOL     MW  384   1.225   1.834   1.641 -0.0897 -0.3411  0.3742
   97SOL     OW  385   1.288   1.434   0.793  0.3910 -0.1574 -0.4563
   97SOL    HW1  386   1.315   1.453   0.882  1.7329  0.1852 -3.5628
   97SOL    HW2  387   1.201   1.483   0.794 -2.4573 -0.9276  2.2195
   97SOL     MW  388   1.280   1.443   0.805  0.1922 -0.2138 -0.5131
   98SOL     OW  389   1.461   1.281   1.041 -0.3054 -0.5387 -0.4024
   98SOL    HW1  390   1.474   1.340   1.118  1.0780  1.9199  0.6867
   98SOL    HW2  391   1.496   1.332   0.971 -0.2513 -0.6550 -2.5475
   98SOL     MW  392   1.467   1.295   1.042 -0.1157 -0.2297 -0.5417
   99SOL     OW  393   1.360   0.390   1.334  0.0962  0.0884 -0.5280
   99SOL    HW1  394   1.418   0.464   1.314 -0.3931  0.7163 -1.1257
   99SOL    HW2  395   1.378   0.375   1.427 -1.3173  0.4544 -0.4104
   99SOL     MW  396   1.370   0.398   1.344 -0.1549  0.2195 -0.5913
  100SOL     OW  397   1.021   1.150   1.362  0.1004 -0.2291  0.0551
  100SOL    HW1  398   1.078   1.207   1.415 -0.5391 -0.8428  0.3893
  100SOL    HW2  399   1.017   1.066   1.411  0.5857  0.4794 -0.7187
  100SOL     MW  400   1.028   1.147   1.375  0.0801 -0.2166 -0.0029
  101SOL     OW  401   0.498   1.079   0.308 -0.1923 -0.1142 -0.1826
  101SOL    HW1  402   0.486   0.987   0.324  0.1997  0.8366 -3.6043
  101SOL    HW2  403   0.469   1.091   0.213 -1.3672 -1.4106 -2.5966
  101SOL     MW  404   0.492   1.069   0.297 -0.2956 -0.1598 -0.9525
  102SOL     OW  405   2.905   0.596   1.003  0.1253  0.4131  0.6926
  102SOL    HW1  406   2.953   0.674   1.029 -3.3414 -1.1594  0.2371
  102SOL    HW2  407   2.930   0.532   1.070 -1.0814  0.4948 -0.7757
  102SOL     MW  408   2.914   0.598   1.015 -0.4913  0.2164  0.4388
  103SOL     OW  409   1.735   0.349   1.796 -0.4879 -0.6841 -0.6819
  103SOL    HW1  410   1.674   0.287   1.766  0.1010 -0.9997  3.4813
  103SOL    HW2  411   1.778   0.306   1.867  1.5538 -1.8910  1.4346
  103SOL     MW  412   1.733   0.335   1.801 -0.1408 -0.8850  0.1466
  104SOL     OW  413   0.103   1.730   1.533 -0.8299 -0.3266 -0.4153
  104SOL    HW1  414   0.016   1.716   1.537  0.8741 -2.1689 -4.4344
  104SOL    HW2  415   0.113   1.709   1.435 -1.2537 -0.9145  0.1548
  104SOL     MW  416   0.093   1.726   1.521 -0.6610 -0.6472 -0.8703
  105SOL     OW  417   0.024   1.156   0.476  0.1569  0.0778 -0.3872
  105SOL    HW1  418   0.059   1.072   0.430  3.9401 -0.9861  1.2960
  105SOL    HW2  419   0.107   1.211   0.485  1.3632 -0.4877 -0.8884
  105SOL     MW  420   0.039   1.152   0.471  0.8152 -0.1372 -0.2313
  106SOL     OW  421   0.876   0.363   1.029  0.0734 -0.1704 -0.1565
  106SOL    HW1  422   0.807   0.415   0.985 -1.3765 -0.1242  0.7325
  106SOL    HW2  423   0.913   0.300   0.964 -0.5799  2.4302  0.8652
  106SOL     MW  424   0.872   0.362   1.014 -0.2041  0.1788  0.0956
  107SOL     OW  425   0.770   2.177   2.964 -0.3760  0.6672 -0.4290
  107SOL    HW1  426   0.694   2.139   2.908 -0.2368 -0.4430  1.8543
  107SOL    HW2  427   0.776   2.140   3.052  0.8808 -0.9957 -1.6779
  107SOL     MW  428   0.760   2.167   2.968 -0.1918  0.3013 -0.2926
  108SOL     OW  429   1.282   1.563   1.538 -0.5457  0.4679  0.6289
  108SOL    HW1  430   1.273   1.511   1.452  0.9983  2.4049  1.7405
  108SOL    HW2  431   1.354   1.517   1.588 -1.2412 -0.0921 -0.0652
  108SOL     MW  432   1.290   1.550   1.533 -0.4337  0.6496  0.6840
  109SOL     OW  433   1.983   0.783   0.179  0.0054  0.1542 -0.1363
  109SOL    HW1  434   2.064   0.813   0.141 -1.0525  0.0542 -0.0250
  109SOL    HW2  435   1.955   0.868   0.220 -1.2060  2.1323  2.4889
  109SOL     MW  436   1.990   0.799   0.179 -0.2940  0.4020  0.2248
  110SOL     OW  437   0.461   1.918   0.790 -0.5550  0.3270  0.5793
  110SOL    HW1  438   0.531   1.861   0.757 -1.1422  0.7141 -1.8780
  110SOL    HW2  439   0.456   1.992   0.730  2.7561 -0.3182  1.4591
  110SOL     MW  440   0.470   1.920   0.778 -0.1956  0.2930  0.3712
  111SOL     OW  441   0.798   0.934   1.559  0.4162 -0.2305  0.3841
  111SOL    HW1  442   0.789   0.898   1.467  0.8419  2.4966 -1.4244
  111SOL    HW2  443   0.718   0.901   1.602  0.2153 -1.6708  1.0259
  111SOL     MW  444   0.786   0.925   1.552  0.4459 -0.0607  0.2302
  112SOL     OW  445   1.329   1.064   1.599  0.1736  0.4575 -0.3695
  112SOL    HW1  446   1.273   1.143   1.624 -1.5799  0.1363 -0.8654
  112SOL    HW2  447   1.288   0.992   1.647  2.1553  1.4392  1.5218
  112SOL     MW  448   1.316   1.065   1.609  0.2038  0.5446 -0.1854
  113SOL     OW  449   1.299   0.048   1.742 -0.1778  0.3483 -0.6833
  113SOL    HW1  450   1.276   0.010   1.830 -2.6851 -0.2549 -0.3083
  113SOL    HW2  451   1.300  -0.025   1.674  2.9665  1.2109 -0.5564
  113SOL     MW  452   1.296   0.033   1.744 -0.0937  0.3825 -0.6171
  114SOL     OW  453   0.324   2.858   1.943 -0.7123  0.2926 -0.5438
  114SOL    HW1  454   0.324   2.937   1.997  1.1169 -1.6375  2.7684
  114SOL    HW2  455   0.328   2.890   1.849 -3.4410  0.6785  1.2481
  114SOL     MW  456   0.324   2.873   1.938 -0.8309  0.0888  0.1296
  115SOL     OW  457   0.509   0.828   1.138 -0.3965  0.2517 -0.1493
  115SOL    HW1  458   0.526   0.735   1.123  1.3180 -0.3063  1.3912
  115SOL    HW2  459   0.475   0.832   1.229  0.7608 -1.7441  2.9492
  115SOL     MW  460   0.507   0.816   1.148 -0.0176 -0.0853  0.4628
  116SOL     OW  461   0.800   1.019   0.991  0.2188  0.1274 -1.1097
  116SOL    HW1  462   0.829   1.083   0.928  3.3555  0.9714 -0.5976
  116SOL    HW2  463   0.824   1.055   1.076  1.7174  1.5945  0.4802
  116SOL     MW  464   0.807   1.032   0.994  0.8304  0.4323 -0.8323
  117SOL     OW  465   1.121   1.203   0.780 -0.4792 -0.0711 -0.2574
  117SOL    HW1  466   1.167   1.119   0.785  0.1988 -1.8612  1.5980
  117SOL    HW2  467   1.182   1.280   0.771  1.0698  1.6123 -0.5355
  117SOL     MW  468   1.135   1.202   0.780 -0.1854 -0.0852 -0.0493
  118SOL     OW  469   3.043   2.922   1.747 -0.1860  0.6670  0.7834
  118SOL    HW1  470   3.110   2.983   1.783 -0.2609  2.0703  0.5731
  118SOL    HW2  471   2.971   2.973   1.723  2.3508  0.5730  3.7588
  118SOL     MW  472   3.042   2.936   1.749  0.1388  0.8397  1.1482
  119SOL     OW  473   0.477   1.437   1.213  0.0288  0.2628  0.3102
  119SOL    HW1  474   0.474   1.463   1.120 -0.0165 -1.0992 -1.7385
  119SOL    HW2  475   0.384   1.429   1.246  3.9428 -0.7264  2.0362
  119SOL     MW  476   0.465   1.439   1.205  0.5393 -0.0474  0.2676
  120SOL     OW  477   0.275   0.702   0.973 -0.2320 -0.1312 -0.3458
  120SOL    HW1  478   0.280   0.621   1.028 -1.7769 -0.7041  1.6713
  120SOL    HW2  479   0.332   0.766   1.013  0.5906  0.6940 -0.7274
  120SOL     MW  480   0.283   0.700   0.985 -0.3273 -0.0979 -0.1300
  121SOL     OW  481   1.764   1.182   1.701 -0.3689  1.0623  0.0197
  121SOL    HW1  482   1.687   1.138   1.726  0.3696 -0.3614  0.5608
  121SOL    HW2  483   1.800   1.123   1.631  0.6479  2.2384 -0.2330
  121SOL     MW  484   1.759   1.169   1.695 -0.1373  1.0297  0.0577
  122SOL     OW  485   0.119   0.560   0.787  0.5793 -0.1156 -0.0613
  122SOL    HW1  486   0.174   0.544   0.708 -0.3978  2.8878 -2.3188
  122SOL    HW2  487   0.171   0.592   0.860 -0.0340  0.5583 -1.7756
  122SOL     MW  488   0.133   0.562   0.786  0.3694  0.3696 -0.5854
  123SOL     OW  489   1.818   1.056   0.570 -0.0093 -0.1786 -0.3549
  123SOL    HW1  490   1.744   0.991   0.570 -2.9263 -0.2628 -0.0404
  123SOL    HW2  491   1.846   1.067   0.665  3.4981 -0.7077 -1.4610
  123SOL     MW  492   1.812   1.049   0.583  0.0686 -0.2595 -0.4594
  124SOL     OW  493   0.696   0.535   0.898  0.0977  0.2860 -0.7533
  124SOL    HW1  494   0.655   0.481   0.832  1.1143  0.3690  0.5938
  124SOL    HW2  495   0.702   0.620   0.854 -0.5516 -1.7810 -0.1237
  124SOL     MW  496   0.691   0.539   0.883  0.1462  0.0242 -0.4925
  125SOL     OW  497   0.715   1.778   1.705  0.3092  0.5887  0.0033
  125SOL    HW1  498   0.654   1.707   1.680  1.2233  0.8606 -0.3788
  125SOL    HW2  499   0.668   1.855   1.700 -0.3839 -2.7002 -1.9024
  125SOL     MW  500   0.701   1.779   1.701  0.3384  0.1907 -0.2986
  126SOL     OW  501   2.124   1.604   1.967 -0.2862  0.2838  0.6317
  126SOL    HW1  502   2.180   1.685   1.958  0.3995  0.6897 -0.2119
  126SOL    HW2  503   2.193   1.536   1.961  0.4686 -1.7001  1.1647
  126SOL     MW  504   2.140   1.606   1.965 -0.0961  0.0756  0.5907
  127SOL     OW  505   0.691   0.804   1.859 -0.0178 -0.3298 -0.1685
  127SOL    HW1  506   0.765   0.749   1.861 -2.3986  0.0267  0.9035
  127SOL    HW2  507   0.706   0.874   1.926  0.7583  1.1655 -0.2331
  127SOL     MW  508   0.703   0.806   1.868 -0.2295 -0.0855 -0.0355
  128SOL     OW  509   1.831   0.746   2.911 -0.6769 -0.2848 -0.4039
  128SOL    HW1  510   1.850   0.734   2.818  1.4385 -3.2021 -0.0230
  128SOL    HW2  511   1.784   0.830   2.911 -2.0096 -1.6808 -2.5579
  128SOL     MW  512   1.827   0.756   2.899 -0.5736 -0.8539 -0.6378
  129SOL     OW  513   1.650   0.933   0.209  0.0104  0.2916  0.3388
  129SOL    HW1  514   1.589   0.866   0.187  1.2327  2.1986  1.0577
  129SOL    HW2  515   1.672   0.913   0.297 -0.1349 -0.6162  1.1475
  129SOL     MW  516   1.645   0.922   0.218  0.1525  0.4234  0.5404
  130SOL     OW  517   0.742   1.350   0.361  0.0210 -0.5761 -0.4190
  130SOL    HW1  518   0.757   1.345   0.462 -3.2164 -1.7470  1.8437
  130SOL    HW2  519   0.806   1.415   0.326  2.6707  1.3657 -2.8943
  130SOL     MW  520   0.753   1.358   0.370 -0.0565 -0.4744 -0.4471
  131SOL     OW  521   2.988   0.836   3.062  0.2063  0.0707  0.3198
  131SOL    HW1  522   2.985   0.906   2.996 -3.1023 -0.8610  0.2308
  131SOL    HW2  523   3.055   0.866   3.118  0.0541 -1.0297  1.8439
  131SOL     MW  524   2.996   0.849   3.061 -0.2503 -0.1974  0.5092
  132SOL     OW  525   2.717   0.170   1.216 -0.6197 -0.0233  0.2870
  132SOL    HW1  526   2.750   0.137   1.129 -1.2403 -2.4210  1.6053
  132SOL    HW2  527   2.638   0.114   1.227  0.0993  1.3219 -1.2321
  132SOL     MW  528   2.711   0.158   1.206 -0.6067 -0.1622  0.2605
  133SOL     OW  529   1.059   0.167   1.721  0.6401 -0.3311  0.2421
  133SOL    HW1  530   1.139   0.117   1.743  1.3131  0.7895  2.3835
  133SOL    HW2  531   1.011   0.184   1.801 -0.2550  2.1831  0.0836
  133SOL     MW  532   1.063   0.163   1.735  0.6108  0.1484  0.5037
  134SOL     OW  533   1.417   2.512   1.435 -0.4105  0.2735  0.2746
  134SOL    HW1  534   1.367   2.583   1.397 -0.6046  2.6946 -0.7396
  134SOL    HW2  535   1.482   2.558   1.494  0.6350  1.3552  3.7833
  134SOL     MW  536   1.419   2.528   1.438 -0.2982  0.7357  0.6037
  135SOL     OW  537   3.065   1.034   2.840  0.1861 -0.1012  0.1373
  135SOL    HW1  538   3.120   1.095   2.882  1.5162 -1.6519 -2.9079
  135SOL    HW2  539   2.978   1.065   2.852  1.7391 -1.1159  3.3635
  135SOL     MW  540   3.061   1.046   2.847  0.5665 -0.4397  0.1612
  136SOL     OW  541   0.233   2.061   0.907 -0.6377 -0.0348 -0.6106
  136SOL    HW1  542   0.158   2.023   0.857 -0.3875  2.5421  1.2832
  136SOL    HW2  543   0.320   2.029   0.868  0.5806 -1.2366  0.2396
  136SOL     MW  544   0.234   2.052   0.895 -0.4439  0.1467 -0.2485
  137SOL     OW  545   0.679   2.064   0.542 -0.0010  0.0459 -0.0363
  137SOL    HW1  546   0.722   2.065   0.629  1.6639 -2.1678 -1.4385
  137SOL    HW2  547   0.592   2.092   0.579  0.4545  1.2358 -2.1745
  137SOL     MW  548   0.673   2.068   0.558  0.2787 -0.0892 -0.5034
  138SOL     OW  549   0.504   0.549   1.111  0.0723 -0.0279 -0.4613
  138SOL    HW1  550   0.440   0.476   1.109 -0.4271  1.8377  0.1719
  138SOL    HW2  551   0.571   0.533   1.046  1.3751 -3.5926  1.2382
  138SOL     MW  552   0.504   0.538   1.102  0.1783 -0.2521 -0.1535
  139SOL     OW  553   2.763   0.577   1.369  0.2426 -0.0941 -0.4034
  139SOL    HW1  554   2.809   0.494   1.357 -0.5973  2.3330 -0.1502
  139SOL    HW2  555   2.831   0.640   1.381 -0.9989 -2.5882 -0.8631
  139SOL     MW  556   2.778   0.574   1.369 -0.0320 -0.1029 -0.4306
  140SOL     OW  557   0.803   0.368   2.076  0.0935  0.4155 -0.2057
  140SOL    HW1  558   0.866   0.305   2.048 -2.0945  2.6259 -1.5163
  140SOL    HW2  559   0.826   0.398   2.162  2.8811 -1.1490 -0.3196
  140SOL     MW  560   0.815   0.363   2.084  0.1726  0.5007 -0.3937
  141SOL     OW  561   1.073   0.568   1.771  0.4108  0.2629 -0.0920
  141SOL    HW1  562   1.114   0.500   1.719 -3.1741  0.7986 -1.6481
  141SOL    HW2  563   1.134   0.638   1.777 -1.6922 -0.1009 -0.4914
  141SOL     MW  564   1.086   0.568   1.765 -0.3397  0.2856 -0.3500
  142SOL     OW  565   0.856   1.145   0.769 -0.9053  0.5423  0.1043
  142SOL    HW1  566   0.844   1.103   0.682  0.7879  0.8567  0.5317
  142SOL    HW2  567   0.954   1.161   0.774 -1.3351 -0.7878 -0.8073
  142SOL     MW  568   0.867   1.142   0.759 -0.7386  0.4083  0.0404
  143SOL     OW  569   1.746   0.785   1.091  0.1882 -0.0314  0.2536
  143SOL    HW1  570   1.807   0.765   1.018 -0.5264 -3.2153  0.6606
  143SOL    HW2  571   1.671   0.721   1.084 -3.7341  1.6545 -0.2141
  143SOL     MW  572   1.744   0.774   1.081 -0.4236 -0.2291  0.2456
  144SOL     OW  573   0.250   1.214   1.522  0.2132 -0.7817  0.5052
  144SOL    HW1  574   0.345   1.217   1.502  0.4011 -0.9222 -1.5128
  144SOL    HW2  575   0.250   1.218   1.615  0.3785  0.4892  0.6714
  144SOL     MW  576   0.263   1.215   1.531  0.2598 -0.6326  0.2609
  145SOL     OW  577   0.254   0.423   1.081 -0.0513  0.9135  0.5808
  145SOL    HW1  578   0.277   0.374   1.165  2.4095 -1.1653  3.5096
  145SOL    HW2  579   0.203   0.350   1.026 -0.1003 -1.7271 -0.9840
  145SOL     MW  580   0.250   0.407   1.085  0.2669  0.2908  0.7608
  146SOL     OW  581   0.839   1.938   1.333 -0.8361 -0.0895 -0.7977
  146SOL    HW1  582   0.899   1.946   1.256  0.8881 -1.5644 -1.0329
  146SOL    HW2  583   0.749   1.924   1.317  0.6814  0.7571 -3.4083
  146SOL     MW  584   0.835   1.937   1.321 -0.4084 -0.1724 -1.1732
  147SOL     OW  585   0.381   0.388   3.010 -0.5234  0.1610 -0.3799
  147SOL    HW1  586   0.322   0.406   3.080  1.2445 -1.8263  0.9601
  147SOL    HW2  587   0.364   0.453   2.942 -1.4648  0.6105 -0.0207
  147SOL     MW  588   0.371   0.399   3.010 -0.4144 -0.0419 -0.1557
  148SOL     OW  589   0.109   0.878   1.287  0.3107 -0.4606 -0.2271
  148SOL    HW1  590   0.207   0.891   1.306  2.2451  1.2615  0.9492
  148SOL    HW2  591   0.070   0.911   1.365  1.6688 -2.0550 -2.5441
  148SOL     MW  592   0.117   0.884   1.300  0.7451 -0.4437 -0.3776
  149SOL     OW  593   1.365   1.172   1.327 -0.0410 -0.7689  0.4222
  149SOL    HW1  594   1.354   1.123   1.408  0.0066 -1.7559  0.7522
  149SOL    HW2  595   1.423   1.250   1.347 -0.4649  0.4763 -1.3529
  149SOL     MW  596   1.372   1.176   1.340 -0.0907 -0.7348  0.2315
  150SOL     OW  597   1.848   1.408   0.741 -0.5541  0.1446 -0.0276
  150SOL    HW1  598   1.917   1.338   0.735 -1.3146  0.6576 -0.8679
  150SOL    HW2  599   1.881   1.461   0.810 -0.6421 -0.0823 -0.2174
  150SOL     MW  600   1.861   1.405   0.749 -0.6661  0.1824 -0.1635
  151SOL     OW  601   1.661   1.810   0.836  0.2931 -0.4002 -0.4978
  151SOL    HW1  602   1.631   1.838   0.747 -1.6276 -1.2860  0.3728
  151SOL    HW2  603   1.592   1.761   0.867  1.1428  0.1423 -3.4254
  151SOL     MW  604   1.648   1.807   0.828  0.1518 -0.4455 -0.7692
  152SOL     OW  605   0.718   1.379   1.491 -0.2093  0.5094 -0.5310
  152SOL    HW1  606   0.740   1.317   1.558 -2.1048  1.0993  0.0269
  152SOL    HW2  607   0.802   1.420   1.475 -0.9984 -0.1054  1.0082
  152SOL     MW  608   0.732   1.376   1.498 -0.5635  0.5061 -0.2543
  153SOL     OW  609   2.607   1.254   0.764 -0.2845 -0.9290  0.0471
  153SOL    HW1  610   2.668   1.185   0.731 -1.5432  2.4241  1.0349
  153SOL    HW2  611   2.522   1.208   0.762 -1.1568  0.0673  1.2887
  153SOL     MW  612   2.604   1.239   0.759 -0.5656 -0.3551  0.3412
  154SOL     OW  613   0.359   1.770   1.739 -0.4344  0.5832  0.2016
  154SOL    HW1  614   0.362   1.742   1.650 -0.3595  2.0671  2.0289
  154SOL    HW2  615   0.352   1.687   1.793  0.3396  1.1338 -1.6400
  154SOL     MW  616   0.359   1.756   1.734 -0.3224  0.8516  0.1997
  155SOL     OW  617   1.180   0.707   0.275 -0.0550 -0.6737 -0.2763
  155SOL    HW1  618   1.146   0.659   0.355  1.8199  0.2196 -0.6026
  155SOL    HW2  619   1.144   0.798   0.282  2.8892 -1.3495 -0.6076
  155SOL     MW  620   1.171   0.713   0.287  0.5808 -0.6450 -0.3630
  156SOL     OW  621   1.583   3.038   1.052 -0.5004  0.3436  0.7222
  156SOL    HW1  622   1.628   3.103   1.102  0.4185  0.5780  0.6663
  156SOL    HW2  623   1.567   2.960   1.106 -0.6259  1.0896 -2.1241
  156SOL     MW  624   1.587   3.037   1.066 -0.3957  0.4729  0.3393
  157SOL     OW  625   1.454   1.138   0.114 -0.0130  0.1441  0.0516
  157SOL    HW1  626   1.511   1.060   0.137  0.4626 -4.4924  1.0023
  157SOL    HW2  627   1.516   1.193   0.064  1.2135 -0.1513  0.0318
  157SOL     MW  628   1.470   1.135   0.111  0.2116 -0.5066  0.1744
  158SOL     OW  629   0.486   1.620   2.208  0.3659 -0.3561 -0.0016
  158SOL    HW1  630   0.479   1.690   2.143  0.5540  1.4109 -1.7616
  158SOL    HW2  631   0.405   1.626   2.262 -1.9420 -0.4980 -0.9973
  158SOL     MW  632   0.475   1.630   2.207  0.0862 -0.1417 -0.3652
  159SOL     OW  633   1.262   1.710   0.403  0.2021 -0.5120  0.4549
  159SOL    HW1  634   1.249   1.615   0.367  1.8194 -2.2456 -3.4438
  159SOL    HW2  635   1.187   1.724   0.465 -0.2586 -0.7780 -0.7679
  159SOL     MW  636   1.250   1.699   0.407  0.3547 -0.7759 -0.2209
  160SOL     OW  637   0.514   1.155   1.579  0.0402  0.1869 -0.3307
  160SOL    HW1  638   0.507   1.071   1.626  0.0791 -2.8641  0.5440
  160SOL    HW2  639   0.596   1.194   1.620  0.9243 -1.1033 -2.2678
  160SOL     MW  640   0.524   1.149   1.591  0.1620 -0.3859 -0.4708
  161SOL     OW  641   0.490   2.203   2.557 -0.4023  0.6883  0.2782
  161SOL    HW1  642   0.394   2.204   2.539 -0.8204 -2.1486  0.1613
  161SOL    HW2  643   0.532   2.169   2.478 -0.4443  1.4684  0.3984
  161SOL     MW  644   0.483   2.199   2.544 -0.4630  0.4169  0.2787
  162SOL     OW  645   1.074   1.791   1.857  0.3031  0.8326  0.1365
  162SOL    HW1  646   1.069   1.887   1.879  0.6996  3.6990  1.1708
  162SOL    HW2  647   0.981   1.755   1.869  0.3295 -0.6307  0.7196
  162SOL     MW  648   1.061   1.799   1.861  0.3589  1.0177  0.3499
  163SOL     OW  649   2.131   0.044   0.957  0.1657  0.1205 -0.5613
  163SOL    HW1  650   2.121   0.074   0.862 -2.7252 -0.7757 -3.8014
  163SOL    HW2  651   2.065  -0.025   0.967  3.6928 -0.4025 -1.4111
  163SOL     MW  652   2.121   0.039   0.946  0.2496 -0.0667 -1.1009
  164SOL     OW  653   0.349   0.192   0.878 -0.2134 -0.2373  1.0394
  164SOL    HW1  654   0.259   0.213   0.894 -1.4312  0.7772  0.8192
  164SOL    HW2  655   0.336   0.121   0.812  0.4888 -1.2476  1.0167
  164SOL     MW  656   0.335   0.186   0.871 -0.2814 -0.2368  1.0073
  165SOL     OW  657   1.329   1.244   0.353 -0.0366 -0.0873 -0.3916
  165SOL    HW1  658   1.300   1.166   0.403  3.2125 -0.4355 -4.1826
  165SOL    HW2  659   1.357   1.204   0.267 -1.0030 -0.4360  0.3132
  165SOL     MW  660   1.329   1.228   0.349  0.2646 -0.1793 -0.7988
  166SOL     OW  661   0.530   1.103   0.995  0.0591  0.6706  0.4358
  166SOL    HW1  662   0.504   1.036   1.061  1.6235  1.1581 -0.0128
  166SOL    HW2  663   0.622   1.080   0.983 -1.3863 -0.3182  0.5583
  166SOL     MW  664   0.539   1.091   1.002  0.0748  0.6044  0.3928
  167SOL     OW  665   0.799   1.042   0.249 -0.1106  0.0046 -0.6187
  167SOL    HW1  666   0.711   1.062   0.273 -0.6565 -0.0565  2.0726
  167SOL    HW2  667   0.825   1.108   0.178 -1.1152 -1.4005  1.5794
  167SOL     MW  668   0.791   1.053   0.243 -0.3152 -0.1889  0.0264
  168SOL     OW  669   1.650   1.675   2.961  0.1637  0.2266  0.2919
  168SOL    HW1  670   1.553   1.678   2.968 -0.2679  1.5827  3.5977
  168SOL    HW2  671   1.672   1.580   2.939 -1.4979 -3.9274 -0.8473
  168SOL     MW  672   1.640   1.663   2.959 -0.1125 -0.1426  0.5777
  169SOL     OW  673   0.380   0.918   1.384 -0.1455 -0.2661  0.7150
  169SOL    HW1  674   0.435   0.881   1.450 -1.3143 -1.5651  0.2956
  169SOL    HW2  675   0.426   1.002   1.357  2.1430 -3.0473 -2.5505
  169SOL     MW  676   0.393   0.924   1.389  0.0022 -0.8044  0.2288
  170SOL     OW  677   0.983   1.492   1.509  0.3224  0.3652  0.8370
  170SOL    HW1  678   0.941   1.579   1.522  0.7490  0.8208 -2.5899
  170SOL    HW2  679   1.042   1.508   1.429  4.0094 -0.4143 -1.9187
  170SOL     MW  680   0.985   1.506   1.500  0.8652  0.3224  0.0213
  171SOL     OW  681   0.580   1.425   0.683  0.2089  0.0244 -0.0036
  171SOL    HW1  682   0.542   1.409   0.779  2.4410 -0.0780  1.3975
  171SOL    HW2  683   0.551   1.347   0.635 -0.7863  0.8978 -0.5843
  171SOL     MW  684   0.571   1.412   0.690  0.3721  0.1262  0.1047
  172SOL     OW  685   0.854   0.279   1.294  0.4606 -0.2155 -0.2789
  172SOL    HW1  686   0.848   0.307   1.202 -2.0297 -0.2583 -1.4867
  172SOL    HW2  687   0.759   0.286   1.317 -1.4632  0.7083 -0.6630
  172SOL     MW  688   0.841   0.284   1.285 -0.1218 -0.0993 -0.4889
  173SOL     OW  689   0.447   1.688   0.385  0.1427  0.6152  0.4090
  173SOL    HW1  690   0.467   1.591   0.376  1.5645  2.3593  1.4433
  173SOL    HW2  691   0.465   1.711   0.478 -1.5207  2.8428 -0.7000
  173SOL     MW  692   0.452   1.678   0.396  0.1108  1.1392  0.3991
  174SOL     OW  693   1.862   0.998   1.531 -0.6401 -0.0321  0.0598
  174SOL    HW1  694   1.834   0.908   1.547 -0.5400  1.1986 -3.8099
  174SOL    HW2  695   1.823   1.010   1.442  2.3496 -1.8492  2.1939
  174SOL     MW  696   1.853   0.988   1.521 -0.2325 -0.1095 -0.1692
  175SOL     OW  697   0.467   1.412   0.379 -0.5595  0.6116  0.3546
  175SOL    HW1  698   0.447   1.370   0.291 -0.9863 -2.5487 -2.5910
  175SOL    HW2  699   0.568   1.403   0.387 -0.1034  1.8803 -0.0215
  175SOL     MW  700   0.478   1.405   0.369 -0.5556  0.3620 -0.0836
  176SOL     OW  701   0.199   1.371   1.230  0.5498  0.7538 -0.0183
  176SOL    HW1  702   0.174   1.350   1.142 -0.8237 -0.1938  1.1359
  176SOL    HW2  703   0.146   1.326   1.292 -1.7596 -1.2541 -0.5184
  176SOL     MW  704   0.189   1.362   1.226  0.0639  0.3638  0.0680
  177SOL     OW  705   0.570   0.394   1.339  0.0288  0.8511 -0.1298
  177SOL    HW1  706   0.568   0.467   1.265  1.6098  1.5177  0.0335
  177SOL    HW2  707   0.570   0.439   1.425 -2.2995 -0.8774  0.0083
  177SOL     MW  708   0.570   0.409   1.341 -0.0698  0.7110 -0.0900
  178SOL     OW  709   0.022   0.418   2.928  0.1901  0.4237  0.5942
  178SOL    HW1  710  -0.037   0.443   2.999  1.8196  0.8636  2.0463
  178SOL    HW2  711  -0.038   0.412   2.857  1.5007 -1.3297 -0.1244
  178SOL     MW  712   0.006   0.420   2.928  0.5781  0.2504  0.6910
  179SOL     OW  713   1.584   1.351   1.402  0.0512  0.1214 -0.0872
  179SOL    HW1  714   1.593   1.355   1.497 -1.6011  0.8564  0.5648
  179SOL    HW2  715   1.676   1.350   1.373  1.2788  0.5876  1.0793
  179SOL     MW  716   1.597   1.351   1.411 -0.0048  0.2799  0.1527
  180SOL     OW  717   3.025   0.206   0.475  0.4602 -0.0184 -0.1987
  180SOL    HW1  718   2.999   0.202   0.386 -0.0332  4.2381  2.8180
  180SOL    HW2  719   3.082   0.282   0.479 -0.3707 -0.8748  0.2154
  180SOL     MW  720   3.029   0.216   0.464  0.2855  0.4302  0.2540
  181SOL     OW  721   1.135   1.362   3.078 -0.0200  0.3488  0.4005
  181SOL    HW1  722   1.205   1.422   3.092  0.0767 -3.1609 -0.8696
  181SOL    HW2  723   1.182   1.284   3.051  0.3803  2.2395  1.7248
  181SOL     MW  724   1.150   1.359   3.077  0.0455  0.1352  0.4077
  182SOL     OW  725   0.523   0.889   1.669 -0.3389  0.1473 -0.0776
  182SOL    HW1  726   0.433   0.868   1.693 -1.0383  1.4541  0.4645
  182SOL    HW2  727   0.574   0.883   1.747  2.3688 -0.0591 -2.1418
  182SOL     MW  728   0.518   0.885   1.683 -0.0740  0.2925 -0.2784
  183SOL     OW  729   1.535   1.550   1.220  0.6772 -0.0691  0.3203
  183SOL    HW1  730   1.452   1.590   1.251 -1.3105 -1.4591  1.8573
  183SOL    HW2  731   1.569   1.493   1.296  0.9423 -0.1027 -2.1825
  183SOL     MW  732   1.529   1.548   1.234  0.4499 -0.2569  0.1929
  184SOL     OW  733   0.908   0.618   1.989  0.3876  0.0764 -0.1001
  184SOL    HW1  734   0.953   0.605   1.904 -1.4035 -0.6524 -0.8793
  184SOL    HW2  735   0.878   0.531   2.025  0.5098 -1.0700 -0.2646
  184SOL     MW  736   0.910   0.605   1.982  0.1674 -0.1710 -0.2246
  185SOL     OW  737   1.222   1.005   1.930  0.7229  0.7682  0.1247
  185SOL    HW1  738   1.278   0.937   1.977 -0.2629 -0.2088  2.4077
  185SOL    HW2  739   1.239   1.083   1.978  0.7618 -2.5430 -0.8039
  185SOL     MW  740   1.232   1.006   1.942  0.5980  0.2024  0.3034
  186SOL     OW  741   0.391   1.633   1.467 -0.1605 -0.0179 -0.1066
  186SOL    HW1  742   0.462   1.640   1.408 -0.7773 -0.5577  2.0292
  186SOL    HW2  743   0.316   1.612   1.412 -1.1485  0.5936 -1.7839
  186SOL     MW  744   0.390   1.631   1.452 -0.3722 -0.0085 -0.0461
  187SOL     OW  745   1.433   0.712   1.437 -0.5041 -0.0053  0.0477
  187SOL    HW1  746   1.437   0.660   1.517 -1.6076  1.2317  1.0089
  187SOL    HW2  747   1.344   0.700   1.408  1.7883 -1.6145 -0.3676
  187SOL     MW  748   1.422   0.704   1.443 -0.3472 -0.0544  0.1197
  188SOL     OW  749   1.958   1.140   0.823  0.0318  0.2875 -0.1227
  188SOL    HW1  750   1.904   1.143   0.898 -2.0935 -3.8798 -1.5654
  188SOL    HW2  751   1.993   1.050   0.830  1.4642 -0.2076  0.1238
  188SOL     MW  752   1.956   1.129   0.834 -0.0597 -0.3276 -0.2805
  189SOL     OW  753   0.726   0.797   0.817 -0.3793  0.0200  0.7658
  189SOL    HW1  754   0.641   0.844   0.797  0.2165  1.5613  2.7169
  189SOL    HW2  755   0.771   0.861   0.881 -0.2284  0.5014 -0.5473
  189SOL     MW  756   0.721   0.812   0.823 -0.2808  0.2869  0.8499
  190SOL     OW  757   1.876   0.259   2.066  0.2663  0.7469  0.3794
  190SOL    HW1  758   1.906   0.174   2.040  1.6253  0.1043 -0.6376
  190SOL    HW2  759   1.949   0.316   2.038 -2.5720  1.0792 -1.0551
  190SOL     MW  760   1.890   0.255   2.059  0.0711  0.7060  0.0560
  191SOL     OW  761   1.508   0.929   1.226 -0.4928  0.0798  0.3681
  191SOL    HW1  762   1.466   1.013   1.244 -1.6721 -1.3296 -1.8328
  191SOL    HW2  763   1.468   0.868   1.289 -2.4926  2.0465 -0.3640
  191SOL     MW  764   1.497   0.932   1.237 -0.9122  0.1533 -0.0189
  192SOL     OW  765   0.571   2.066   2.799  0.0446  0.2090 -0.0260
  192SOL    HW1  766   0.538   2.116   2.721 -0.8825  2.5115 -4.0911
  192SOL    HW2  767   0.551   1.974   2.786 -1.0997  1.4663 -0.4454
  192SOL     MW  768   0.564   2.061   2.787 -0.2287  0.6787 -0.6177
  193SOL     OW  769   1.040   1.570   0.796 -0.5927 -0.3452  0.6541
  193SOL    HW1  770   0.998   1.579   0.876  1.0253  1.2231 -1.7965
  193SOL    HW2  771   0.975   1.515   0.742 -1.2409  1.9011 -2.1498
  193SOL     MW  772   1.026   1.564   0.800 -0.4647  0.1581 -0.0391
  194SOL     OW  773   0.451   1.384   0.913 -0.6852  0.0805  0.2300
  194SOL    HW1  774   0.444   1.293   0.930 -1.8722  0.4575  0.7474
  194SOL    HW2  775   0.368   1.403   0.872  0.7058  4.1557  1.4118
  194SOL     MW  776   0.440   1.375   0.910 -0.6582  0.6679  0.4542
  195SOL     OW  777   1.283   1.110   2.991  0.5212  0.5919  0.3920
  195SOL    HW1  778   1.338   1.097   3.067 -0.6677 -0.8961 -4.4448
  195SOL    HW2  779   1.197   1.061   2.999 -0.2672 -3.0107 -2.0123
  195SOL     MW  780   1.279   1.102   3.002  0.2603 -0.0798 -0.5634
  196SOL     OW  781   2.170   1.041   0.621  0.0100 -0.6828 -0.1500
  196SOL    HW1  782   2.122   1.008   0.542 -0.3120  1.1491 -1.9824
  196SOL    HW2  783   2.162   1.137   0.616 -0.6256 -0.2123 -3.4754
  196SOL     MW  784   2.163   1.049   0.610 -0.1163 -0.3790 -0.8305
  197SOL     OW  785   0.678   1.244   2.052  0.3941 -0.1999  0.1858
  197SOL    HW1  786   0.675   1.146   2.047  0.2588 -3.3602  0.3023
  197SOL    HW2  787   0.647   1.276   1.970 -1.1618  0.0205  0.3115
  197SOL     MW  788   0.673   1.235   2.040  0.1710 -0.5878  0.2177
  198SOL     OW  789   2.977   1.366   1.069 -0.1632 -0.4680 -0.0085
  198SOL    HW1  790   2.954   1.457   1.063  0.8432  1.1540  2.2731
  198SOL    HW2  791   2.902   1.311   1.033 -0.4903 -1.5950  1.4344
  198SOL     MW  792   2.964   1.371   1.064 -0.0736 -0.4027  0.4829
  199SOL     OW  793   0.524   1.351   1.844 -0.0069  0.2663  0.4483
  199SOL    HW1  794   0.437   1.311   1.846 -1.0917  1.7686  2.1291
  199SOL    HW2  795   0.524   1.412   1.768 -0.3534 -1.1618  0.1206
  199SOL     MW  796   0.513   1.354   1.834 -0.1957  0.2761  0.6269
  200SOL     OW  797   1.880   0.014   1.340 -0.1516  0.3940  0.0257
  200SOL    HW1  798   1.860  -0.006   1.243  2.0152 -0.1130 -1.9874
  200SOL    HW2  799   1.796   0.018   1.386 -2.1622 -1.3313  1.6117
  200SOL     MW  800   1.866   0.012   1.334 -0.1310  0.0995 -0.0307
  201SOL     OW  801   0.952   0.216   0.822 -0.3224 -0.3431  0.2989
  201SOL    HW1  802   0.941   0.123   0.800  0.8125 -0.8228  0.3963
  201SOL    HW2  803   1.026   0.248   0.759  0.5584 -1.4617  2.4376
  201SOL     MW  804   0.961   0.208   0.811 -0.0565 -0.5540  0.5939
  202SOL     OW  805   1.506   1.595   0.950 -0.3404 -0.3502 -0.0275
  202SOL    HW1  806   1.536   1.528   0.893 -1.2775 -1.4475 -0.8003
  202SOL    HW2  807   1.539   1.566   1.038  1.0832 -2.3137 -0.7316
  202SOL     MW  808   1.515   1.582   0.954 -0.2762 -0.7540 -0.2224
  203SOL     OW  809   0.002   0.460   1.160  0.3174  0.3596  0.2980
  203SOL    HW1  810   0.081   0.417   1.136  0.0483 -1.5326  0.0716
  203SOL    HW2  811   0.030   0.508   1.242 -0.0113  0.8018 -0.4663
  203SOL     MW  812   0.016   0.461   1.168  0.2385  0.1683  0.1673
  204SOL     OW  813   1.047   1.792   0.588  0.4298 -0.3912  0.0096
  204SOL    HW1  814   1.034   1.721   0.657 -1.5511  0.1080  2.0207
  204SOL    HW2  815   0.973   1.809   0.529 -0.8329 -2.9481  0.1841
  204SOL     MW  816   1.036   1.785   0.589  0.0018 -0.6627  0.2980
  205SOL     OW  817   1.344   0.095   1.357  0.1414 -0.2366  0.4789
  205SOL    HW1  818   1.301   0.073   1.274  2.0459 -1.9381 -0.0641
  205SOL    HW2  819   1.348   0.192   1.351 -0.7658 -2.6827  0.7653
  205SOL     MW  820   1.339   0.105   1.345  0.2730 -0.7838  0.4450
  206SOL     OW  821   0.421   3.031   1.410 -0.1568 -0.1072  0.4213
  206SOL    HW1  822   0.360   2.993   1.343 -0.7569 -1.5079 -0.8625
  206SOL    HW2  823   0.504   2.964   1.415 -0.8802 -0.3680 -0.7033
  206SOL     MW  824   0.424   3.017   1.402 -0.3315 -0.3264  0.1035
  207SOL     OW  825   0.935   1.493   0.206 -0.8157 -0.4277  0.0504
  207SOL    HW1  826   0.911   1.584   0.189  0.9477  0.9555 -0.9103
  207SOL    HW2  827   1.030   1.491   0.211  1.6376 -2.0949 -1.6570
  207SOL     MW  828   0.945   1.505   0.204 -0.2594 -0.4652 -0.3016
  208SOL     OW  829   0.703   1.629   1.313  0.1866  0.0935  0.0102
  208SOL    HW1  830   0.750   1.672   1.384  2.6278 -0.2581 -0.4217
  208SOL    HW2  831   0.673   1.545   1.339 -1.1355  0.7439 -0.5811
  208SOL     MW  832   0.706   1.623   1.326  0.3343  0.1330 -0.1248
  209SOL     OW  833   1.567   0.530   2.923 -0.4469  0.2280  0.6984
  209SOL    HW1  834   1.637   0.590   2.943  1.4953  0.0010 -1.1909
  209SOL    HW2  835   1.615   0.447   2.896 -1.5908  2.6243  1.6325
  209SOL     MW  836   1.582   0.527   2.922 -0.3416  0.5142  0.5724
  210SOL     OW  837   1.596   1.367   0.808  0.1213 -0.3994 -0.3408
  210SOL    HW1  838   1.690   1.379   0.781  1.1555 -1.4872 -0.7893
  210SOL    HW2  839   1.542   1.380   0.725  1.6510  0.2144 -1.7619
  210SOL     MW  840   1.601   1.370   0.793  0.4596 -0.4620 -0.5875
  211SOL     OW  841   1.642   0.377   0.965  0.0181 -0.4221 -0.4219
  211SOL    HW1  842   1.630   0.375   0.872  2.3623  0.1482  2.5981
  211SOL    HW2  843   1.727   0.414   0.985  0.3197  2.1719  0.7962
  211SOL     MW  844   1.651   0.382   0.955  0.3672 -0.0046  0.1372
  212SOL     OW  845   0.198   1.089   0.091  0.2590 -0.4285  0.5418
  212SOL    HW1  846   0.159   1.048   0.171  1.8270  0.9708  0.1775
  212SOL    HW2  847   0.206   1.021   0.022 -0.2198  0.5866 -0.2742
  212SOL     MW  848   0.194   1.075   0.092  0.4027 -0.1099  0.3860
  213SOL     OW  849   0.460   1.686   3.034  0.6418  0.1863  0.0999
  213SOL    HW1  850   0.474   1.726   3.120  3.1160 -0.1497 -1.0762
  213SOL    HW2  851   0.526   1.739   2.978  0.8865  2.4966  0.2656
  213SOL     MW  852   0.471   1.698   3.038  1.0005  0.4468 -0.0334
  214SOL     OW  853   0.574   0.294   2.236 -0.8542 -0.0811  0.6690
  214SOL    HW1  854   0.522   0.374   2.210 -1.9415  3.1946  0.9403
  214SOL    HW2  855   0.644   0.298   2.169  1.6968  0.0286 -0.7098
  214SOL     MW  856   0.576   0.305   2.224 -0.6611  0.3656  0.5229
  215SOL     OW  857   0.517   0.687   2.666  0.4804  0.7635 -0.3023
  215SOL    HW1  858   0.501   0.658   2.575 -2.0349 -0.8128 -1.7196
  215SOL    HW2  859   0.428   0.674   2.704 -1.8102  0.3587 -0.3247
  215SOL     MW  860   0.503   0.681   2.659 -0.1537  0.5021 -0.4923
  216SOL     OW  861   2.942   3.078   2.649 -0.7919  0.0157  0.1121
  216SOL    HW1  862   2.902   3.053   2.737 -0.8775 -1.5524  1.7614
  216SOL    HW2  863   2.927   3.178   2.626 -0.1785  2.7619 -0.9410
  216SOL     MW  864   2.934   3.088   2.657 -0.7223  0.1711  0.1907
  217SOL     OW  865   0.920   1.200   0.045  0.1932 -0.7929  0.7355
  217SOL    HW1  866   0.976   1.131   0.016 -0.9564 -3.4006  2.6331
  217SOL    HW2  867   0.977   1.274   0.069  2.0652  0.1810 -1.0050
  217SOL     MW  868   0.935   1.201   0.044  0.2885 -1.0085  0.7562
  218SOL     OW  869   0.919   1.329   2.532  0.8572  0.3632 -0.2497
  218SOL    HW1  870   0.908   1.250   2.583 -0.4104  0.1761 -2.1278
  218SOL    HW2  871   1.003   1.368   2.543 -0.3413  1.4985  0.3304
  218SOL     MW  872   0.928   1.324   2.540  0.5318  0.4883 -0.4210
  219SOL     OW  873   1.092   0.477   2.615 -0.0280 -0.5056 -0.1761
  219SOL    HW1  874   1.176   0.519   2.633 -0.9064  0.7101  4.1275
  219SOL    HW2  875   1.073   0.523   2.533  1.5855  1.5826  2.2392
  219SOL     MW  876   1.100   0.489   2.606  0.0690 -0.0697  0.7104
  220SOL     OW  877   1.773   0.451   2.232 -0.8583  0.3804  0.3019
  220SOL    HW1  878   1.699   0.499   2.194 -2.6923 -3.6664 -0.8040
  220SOL    HW2  879   1.787   0.371   2.176  1.4003 -0.5259 -3.1909
  220SOL     MW  880   1.765   0.447   2.220 -0.8023 -0.2731 -0.3049
  221SOL     OW  881   0.344   1.338   2.904 -0.6526 -0.0818  0.1272
  221SOL    HW1  882   0.381   1.247   2.901  0.5725 -3.3246  0.8326
  221SOL    HW2  883   0.387   1.385   2.832 -1.7511  2.7343  0.2064
  221SOL     MW  884   0.354   1.332   2.894 -0.6359 -0.1381  0.2307
  222SOL     OW  885   0.383   0.923   2.671  0.9229  0.4394  0.0473
  222SOL    HW1  886   0.352   0.961   2.587  0.2912 -1.1933  1.9484
  222SOL    HW2  887   0.441   0.849   2.658 -3.5391 -1.8663  1.6848
  222SOL     MW  888   0.387   0.919   2.658  0.2508 -0.0802  0.5142
  223SOL     OW  889   0.018   2.080   2.598 -0.0171  0.1782 -0.8587
  223SOL    HW1  890   0.066   2.005   2.643 -0.4358  0.2495  1.8718
  223SOL    HW2  891   0.075   2.146   2.557  0.2130 -0.4462  0.6544
  223SOL     MW  892   0.032   2.079   2.599 -0.0420  0.1052 -0.2988
  224SOL     OW  893   1.544   0.817   2.601  0.3955 -0.0343 -0.0441
  224SOL    HW1  894   1.509   0.856   2.682  2.1764  1.0174 -1.1547
  224SOL    HW2  895   1.510   0.883   2.538 -3.3731  0.1737 -2.1458
  224SOL     MW  896   1.535   0.831   2.603  0.1332  0.1319 -0.4680
  225SOL     OW  897   2.947   1.502   2.304 -0.4153  0.0191  0.2223
  225SOL    HW1  898   2.999   1.574   2.263  0.8200  0.1016 -1.4091
  225SOL    HW2  899   2.876   1.543   2.356 -1.9599 -3.4391 -1.8028
  225SOL     MW  900   2.944   1.517   2.306 -0.4561 -0.4263 -0.2602
  226SOL     OW  901   0.462   1.427   2.670 -0.4933  0.0835  0.9870
  226SOL    HW1  902   0.554   1.441   2.646  1.5056  0.0835 -2.4608
  226SOL    HW2  903   0.434   1.517   2.670  1.9505 -1.0237 -0.3950
  226SOL     MW  904   0.471   1.441   2.667  0.0929 -0.0625  0.3497
  227SOL     OW  905   0.433   1.090   2.874  0.6178  0.1415  0.0270
  227SOL    HW1  906   0.524   1.114   2.836  3.3517 -1.8413  0.7292
  227SOL    HW2  907   0.405   1.026   2.813  1.9238 -2.6714  0.3482
  227SOL     MW  908   0.442   1.085   2.861  1.1508 -0.4912  0.1620
  228SOL     OW  909   0.722   0.984   2.055 -0.3126  0.2547  0.2395
  228SOL    HW1  910   0.809   1.018   2.013 -2.6325  0.0518  1.1125
  228SOL    HW2  911   0.740   0.922   2.130 -1.8508 -0.0882  1.7914
  228SOL     MW  912   0.736   0.980   2.059 -0.8216  0.1827  0.5594
  229SOL     OW  913   0.162   0.597   0.030  0.5436  0.6340 -0.2435
  229SOL    HW1  914   0.129   0.545  -0.047 -0.8568 -2.9411  1.3407
  229SOL    HW2  915   0.138   0.540   0.103 -1.1675  0.2649 -0.7610
  229SOL     MW  916   0.155   0.583   0.030  0.1330  0.1136 -0.1027
  230SOL     OW  917   1.773   1.380   2.021  0.0403  0.0618  0.0845
  230SOL    HW1  918   1.727   1.353   2.100 -3.2213  1.5570 -0.6466
  230SOL    HW2  919   1.836   1.310   2.007 -0.5859 -0.4268 -0.0623
  230SOL     MW  920   1.775   1.367   2.030 -0.4726  0.1946 -0.0313
  231SOL     OW  921   2.774   1.326   2.196 -0.1385  0.3811 -0.5428
  231SOL    HW1  922   2.835   1.396   2.229 -5.2797  1.2985 -0.0961
  231SOL    HW2  923   2.719   1.369   2.124  2.2102 -0.1811 -3.8825
  231SOL     MW  924   2.775   1.341   2.191 -0.5069  0.4280 -0.9245
  232SOL     OW  925   2.235   0.807   2.114 -0.0214  0.1711 -0.2197
  232SOL    HW1  926   2.184   0.864   2.054  3.7742  0.0303  1.6161
  232SOL    HW2  927   2.208   0.840   2.200 -0.6236 -0.6942  0.1434
  232SOL     MW  928   2.225   0.819   2.118  0.4000  0.0383  0.0704
  233SOL     OW  929   2.041   0.463   1.952 -0.0160  0.0142  0.2910
  233SOL    HW1  930   2.112   0.434   1.900 -1.7494 -1.3913 -0.0128
  233SOL    HW2  931   2.076   0.503   2.036 -2.8538 -0.4605  0.9996
  233SOL     MW  932   2.055   0.464   1.956 -0.6191 -0.2339  0.3444
  234SOL     OW  933   0.285   1.011   2.445  0.5446 -0.0910  0.3313
  234SOL    HW1  934   0.207   1.056   2.408 -1.5213  0.8899  2.0568
  234SOL    HW2  935   0.364   1.070   2.426 -1.9202  2.4839  2.1118
  234SOL     MW  936   0.285   1.025   2.438 -0.0532  0.3782  0.7939
  235SOL     OW  937   1.148   3.041   2.717 -0.0660 -0.5886 -0.1430
  235SOL    HW1  938   1.153   2.988   2.802 -0.0245 -1.3231 -2.1731
  235SOL    HW2  939   1.157   3.133   2.747 -0.6184 -1.2641  1.2304
  235SOL     MW  940   1.150   3.046   2.732 -0.1334 -0.7746 -0.2297
  236SOL     OW  941   2.938   0.526   0.002 -0.3159  0.1227 -0.0645
  236SOL    HW1  942   2.841   0.522  -0.014  1.4982 -0.7347  2.4339
  236SOL    HW2  943   2.959   0.620  -0.012 -1.0497  0.7536 -1.1655
  236SOL     MW  944   2.928   0.538  -0.002 -0.1734  0.0928  0.1199
  237SOL     OW  945   1.943   1.082   2.230  0.5427  1.1703  0.7523
  237SOL    HW1  946   1.934   1.075   2.139 -3.1778  1.9823  1.8650
  237SOL    HW2  947   1.856   1.096   2.260 -0.0996 -2.3709 -0.1368
  237SOL     MW  948   1.931   1.083   2.222 -0.0330  0.8102  0.7818
  238SOL     OW  949   1.084   1.785   2.990 -0.5031  0.0743 -0.3380
  238SOL    HW1  950   1.031   1.705   2.981  1.8490 -0.2943  1.3618
  238SOL    HW2  951   1.175   1.767   3.018  0.5613 -1.0290  1.2679
  238SOL     MW  952   1.089   1.772   2.993 -0.0523 -0.1199  0.0981
  239SOL     OW  953   1.256   1.370   2.355 -0.0020 -0.0764 -0.3634
  239SOL    HW1  954   1.223   1.441   2.418 -2.9339  0.8944 -0.1223
  239SOL    HW2  955   1.245   1.282   2.407  0.7233 -3.6702  3.5658
  239SOL     MW  956   1.250   1.367   2.370 -0.2931 -0.4225  0.1868
  240SOL     OW  957   0.737   0.814   2.271  0.2432  0.3169  0.3603
  240SOL    HW1  958   0.733   0.871   2.347  0.7475 -0.2998 -0.4730
  240SOL    HW2  959   0.822   0.768   2.266 -0.3583  2.3763  0.8181
  240SOL     MW  960   0.748   0.816   2.280  0.2303  0.5073  0.3108
  241SOL     OW  961   0.635   0.393   0.001 -0.4703  0.1012  0.0912
  241SOL    HW1  962   0.665   0.474   0.042  0.8689 -1.2667 -0.4320
  241SOL    HW2  963   0.550   0.406  -0.049 -0.0895 -0.4162 -1.1870
  241SOL     MW  964   0.628   0.405  -0.000 -0.2434 -0.1476 -0.1465
  242SOL     OW  965   1.495   1.686   2.369  0.4640 -0.3996  0.6179
  242SOL    HW1  966   1.448   1.772   2.382 -0.2950  3.3220  2.3007
  242SOL    HW2  967   1.434   1.623   2.323  1.2085 -0.8375  0.0958
  242SOL     MW  968   1.481   1.689   2.365  0.4621  0.0336  0.7711
  243SOL     OW  969   1.032   0.245   2.462 -0.1899  0.0188  0.5712
  243SOL    HW1  970   1.113   0.252   2.408  1.6941 -0.0685  0.8270
  243SOL    HW2  971   1.057   0.311   2.529  2.1853 -1.3058  1.8102
  243SOL     MW  972   1.046   0.255   2.463  0.3721 -0.1675  0.7685
  244SOL     OW  973   0.245   0.743   2.347  0.0136  0.4218 -0.0913
  244SOL    HW1  974   0.244   0.837   2.367 -1.9851  1.2049  0.3869
  244SOL    HW2  975   0.337   0.717   2.347  1.9715 -0.4912 -0.8645
  244SOL     MW  976   0.257   0.752   2.350  0.0082  0.4047 -0.1302
  245SOL     OW  977   1.277   0.232   2.323 -0.4767 -0.1101 -0.1372
  245SOL    HW1  978   1.309   0.140   2.315  0.2373 -2.3649  0.0877
  245SOL    HW2  979   1.348   0.280   2.367  2.7762 -1.1904  2.1355
  245SOL     MW  980   1.291   0.226   2.328  0.0467 -0.5501  0.1924
  246SOL     OW  981   1.184   1.216   2.148  0.0045 -0.6166  0.2955
  246SOL    HW1  982   1.156   1.139   2.206  0.3585 -3.3179  0.1238
  246SOL    HW2  983   1.201   1.279   2.213  0.3822 -1.9926 -0.8429
  246SOL     MW  984   1.182   1.215   2.164  0.1010 -1.1545  0.1227
  247SOL     OW  985   0.768   0.584   0.139 -0.5249  0.0844  0.4472
  247SOL    HW1  986   0.734   0.668   0.110  2.2932 -0.1961  1.9041
  247SOL    HW2  987   0.860   0.593   0.112  0.9906 -1.2732  0.0276
  247SOL     MW  988   0.776   0.596   0.132  0.0469 -0.1317  0.5841
  248SOL     OW  989   0.475   1.210   2.447 -0.0900  0.1610  0.3713
  248SOL    HW1  990   0.495   1.259   2.366 -0.7698  1.1106  1.9873
  248SOL    HW2  991   0.463   1.275   2.518  2.0941  0.4467  0.6021
  248SOL     MW  992   0.476   1.225   2.446  0.1085  0.3239  0.6150
  249SOL     OW  993   0.153   1.843   2.718  0.5958  0.1780 -0.2778
  249SOL    HW1  994   0.110   1.762   2.680 -2.1500  1.5036  1.7910
  249SOL    HW2  995   0.154   1.833   2.816  0.7855  1.8375  3.5695
  249SOL     MW  996   0.147   1.831   2.726  0.2585  0.5718  0.5027
  250SOL     OW  997   2.179   0.865   2.381  0.0213  0.1837 -0.8745
  250SOL    HW1  998   2.246   0.795   2.407  0.9760 -0.2758  0.8835
  250SOL    HW2  999   2.222   0.948   2.395 -0.4070 -1.0729 -1.2858
  250SOL     MW 1000   2.193   0.867   2.386  0.0907 -0.0427 -0.6968
  251SOL     OW 1001   0.145   0.929   2.030 -0.3290 -0.7447 -0.5604
  251SOL    HW1 1002   0.119   0.911   2.124  1.5648  0.5468  2.7970
  251SOL    HW2 1003   0.128   0.843   1.987 -1.2481  1.4251 -1.2453
  251SOL     MW 1004   0.139   0.915   2.037 -0.2004 -0.2881 -0.2078
  252SOL     OW 1005   1.713   0.987   2.867  0.5075 -0.1220 -0.3187
  252SOL    HW1 1006   1.744   1.029   2.950 -1.2038 -1.5061 -1.1608
  252SOL    HW2 1007   1.775   1.021   2.799  0.2933  2.2164 -0.1840
  252SOL     MW 1008   1.725   0.997   2.869  0.2534  0.0039 -0.4120
  253SOL     OW 1009   1.217   1.773   2.554  0.2597  0.4684 -0.1636
  253SOL    HW1 1010   1.202   1.761   2.459  3.7208 -1.5986 -1.5299
  253SOL    HW2 1011   1.156   1.831   2.590 -0.0346 -1.2853 -1.0674
  253SOL     MW 1012   1.207   1.779   2.546  0.6775 -0.0357 -0.4631
  254SOL     OW 1013   1.034   1.022   2.274  0.4479 -0.7367 -0.2245
  254SOL    HW1 1014   1.022   0.934   2.241  1.2260 -0.0095  0.9552
  254SOL    HW2 1015   0.946   1.062   2.274  3.4160  0.6559 -0.0661
  254SOL     MW 1016   1.021   1.016   2.269  0.9422 -0.4570 -0.0479
  255SOL     OW 1017   0.812   2.557   2.222 -0.2459  0.6996 -0.2794
  255SOL    HW1 1018   0.745   2.493   2.244 -1.9224  0.9703 -1.6980
  255SOL    HW2 1019   0.894   2.539   2.272  0.5910  2.1011  1.9862
  255SOL     MW 1020   0.814   2.546   2.231 -0.3567  0.9202 -0.1677
  256SOL     OW 1021   1.232   2.764   2.841  0.2981 -0.6956  0.6117
  256SOL    HW1 1022   1.220   2.678   2.815  2.0777 -1.9940  0.2591
  256SOL    HW2 1023   1.309   2.808   2.803 -1.4118 -1.0283 -2.1386
  256SOL     MW 1024   1.240   2.758   2.832  0.3073 -0.9108  0.2023
  257SOL     OW 1025   0.106   1.926   0.095 -0.6732 -0.5586  0.0099
  257SOL    HW1 1026   0.145   1.885   0.170 -0.8051  0.5881 -0.5565
  257SOL    HW2 1027   0.132   1.876   0.013 -0.3888  1.5649 -1.6772
  257SOL     MW 1028   0.115   1.914   0.094 -0.6531 -0.1272 -0.2874
  258SOL     OW 1029   0.687   1.019   2.466 -0.5061 -0.0158 -0.4916
  258SOL    HW1 1030   0.688   1.095   2.418  0.4810 -0.2273  2.3882
  258SOL    HW2 1031   0.609   1.018   2.521 -3.2113 -0.7864  1.3207
  258SOL     MW 1032   0.677   1.029   2.467 -0.7328 -0.1454  0.1275
  259SOL     OW 1033   0.762   0.461   2.377 -0.2323 -0.4711  0.0922
  259SOL    HW1 1034   0.689   0.521   2.387  0.9546 -1.4096 -0.0755
  259SOL    HW2 1035   0.724   0.375   2.377  1.4050 -1.0743  1.9850
  259SOL     MW 1036   0.747   0.457   2.379  0.1403 -0.6745  0.3198
  260SOL     OW 1037   0.519   0.134   1.608 -0.5211  0.0492  0.1265
  260SOL    HW1 1038   0.514   0.090   1.523 -0.6546  1.6051 -0.6877
  260SOL    HW2 1039   0.611   0.127   1.637 -2.9172  1.2597 -1.4616
  260SOL     MW 1040   0.530   0.127   1.601 -0.8549  0.4142 -0.1905
  261SOL     OW 1041   1.297   0.749   2.019  0.4378  0.5292  0.0056
  261SOL    HW1 1042   1.299   0.757   2.116  0.9477  0.9910 -1.2743
  261SOL    HW2 1043   1.304   0.659   1.992 -1.3193  1.9080  2.0063
  261SOL     MW 1044   1.298   0.738   2.028  0.2732  0.7721  0.1007
  262SOL     OW 1045   1.106   0.310   0.153 -0.1032  0.1457  0.4086
  262SOL    HW1 1046   1.202   0.306   0.141 -1.4440  1.2827 -1.0040
  262SOL    HW2 1047   1.069   0.246   0.097 -0.8381  1.2429 -0.0619
  262SOL     MW 1048   1.114   0.301   0.144 -0.3771  0.4405  0.1602
  263SOL     OW 1049   0.433   3.073   2.514  0.0024  0.7057 -0.6818
  263SOL    HW1 1050   0.362   3.137   2.522  0.3456  0.5710 -2.9631
  263SOL    HW2 1051   0.455   3.089   2.421 -1.9519  2.2007 -0.0461
  263SOL     MW 1052   0.426   3.083   2.503 -0.2102  0.8852 -0.8989
  264SOL     OW 1053   1.520   1.278   1.932 -0.0907  0.2268  0.0414
  264SOL    HW1 1054   1.489   1.232   2.006 -0.8101  1.2645 -0.2981
  264SOL    HW2 1055   1.603   1.314   1.965 -1.2131  0.4051 -2.1855
  264SOL     MW 1056   1.527   1.277   1.946 -0.3337  0.3872 -0.2972
  265SOL     OW 1057   0.666   2.800   2.272  0.0818  0.3049  0.5227
  265SOL    HW1 1058   0.709   2.733   2.214 -0.2257 -1.1629 -0.2635
  265SOL    HW2 1059   0.693   2.783   2.362  1.7201  1.6289 -3.0198
  265SOL     MW 1060   0.675   2.789   2.276  0.2574  0.2860 -0.0484
  266SOL     OW 1061   1.013   0.735   2.221 -0.3360 -0.2069  0.0923
  266SOL    HW1 1062   0.993   0.732   2.127 -2.3805 -1.7588  2.6586
  266SOL    HW2 1063   1.106   0.719   2.242  0.9771  0.0392  0.8036
  266SOL     MW 1064   1.023   0.732   2.211 -0.4325 -0.3792  0.5248
  267SOL     OW 1065   1.377   1.690   2.761  0.5529  0.4164  0.7466
  267SOL    HW1 1066   1.450   1.660   2.702  0.4000  0.6744 -0.5903
  267SOL    HW2 1067   1.308   1.729   2.701  0.8924 -1.2569 -0.1527
  267SOL     MW 1068   1.377   1.691   2.745  0.5775  0.2297  0.4515
  268SOL     OW 1069   0.275   0.833   1.742 -0.3674 -0.1043 -0.5503
  268SOL    HW1 1070   0.191   0.856   1.698  0.0333 -0.8249 -0.1425
  268SOL    HW2 1071   0.285   0.740   1.719 -0.7254  0.3950  0.0946
  268SOL     MW 1072   0.265   0.824   1.733 -0.3618 -0.1335 -0.4114
  269SOL     OW 1073   1.400   1.950   2.356 -0.0566  0.1408 -0.2903
  269SOL    HW1 1074   1.457   2.022   2.332  2.1029 -0.9002 -0.7266
  269SOL    HW2 1075   1.329   1.993   2.410 -2.8500  2.3860  2.2667
  269SOL     MW 1076   1.398   1.965   2.360 -0.1402  0.2997 -0.0105
  270SOL     OW 1077   1.170   0.371   1.596 -0.2281 -0.0379  0.4481
  270SOL    HW1 1078   1.137   0.283   1.626 -2.5960  1.7200 -1.0669
  270SOL    HW2 1079   1.260   0.359   1.611 -1.5916 -0.6078  0.6181
  270SOL     MW 1080   1.177   0.358   1.602 -0.7204  0.1188  0.2707
  271SOL     OW 1081   0.897   0.013   2.500  0.0990  0.7622  0.3685
  271SOL    HW1 1082   0.920  -0.021   2.583  0.3533 -2.0592  0.0817
  271SOL    HW2 1083   0.936   0.107   2.492  0.4309 -2.7549  0.4040
  271SOL     MW 1084   0.905   0.021   2.510  0.1763 -0.0741  0.3353
  272SOL     OW 1085   1.481   2.902   2.780  0.6250  0.2998 -0.2991
  272SOL    HW1 1086   1.464   2.971   2.719  1.0469  0.6130  1.7614
  272SOL    HW2 1087   1.505   2.944   2.855 -1.8310 -0.5429 -1.1300
  272SOL     MW 1088   1.482   2.916   2.782  0.3566  0.2299 -0.1369
  273SOL     OW 1089   1.432   0.943   2.851  0.1042  0.6018 -0.2910
  273SOL    HW1 1090   1.524   0.966   2.854 -1.7574  1.1323  1.0276
  273SOL    HW2 1091   1.380   1.015   2.895  0.6182  1.2125  1.2090
  273SOL     MW 1092   1.437   0.955   2.857 -0.0736  0.7523  0.0809
  274SOL     OW 1093   1.459   0.737   0.182  0.6771 -0.5899 -0.4660
  274SOL    HW1 1094   1.477   0.646   0.173  1.9358  0.5202  0.8892
  274SOL    HW2 1095   1.370   0.739   0.227  0.2110  0.1818 -1.6549
  274SOL     MW 1096   1.450   0.725   0.187  0.7817 -0.3416 -0.4441
  275SOL     OW 1097   1.704   0.632   1.820  0.2448 -0.1960 -0.0591
  275SOL    HW1 1098   1.772   0.657   1.888  1.7812  1.8190  1.7301
  275SOL    HW2 1099   1.722   0.539   1.802  0.1275  0.2768  0.3420
  275SOL     MW 1100   1.715   0.623   1.827  0.4320  0.1323  0.2299
  276SOL     OW 1101   0.266   1.204   1.828 -0.5746 -0.5840  0.3769
  276SOL    HW1 1102   0.309   1.158   1.899 -0.5837  0.1895 -1.5198
  276SOL    HW2 1103   0.194   1.256   1.861 -1.0993  1.5570  1.1832
  276SOL     MW 1104   0.263   1.205   1.842 -0.6450 -0.1995  0.2330
  277SOL     OW 1105   1.867   1.275   2.444  0.2934 -0.3384 -0.7254
  277SOL    HW1 1106   1.947   1.323   2.478 -1.9591 -0.6370 -1.3051
  277SOL    HW2 1107   1.901   1.184   2.443  0.4688  0.4762 -0.8540
  277SOL     MW 1108   1.882   1.269   2.448  0.0194 -0.2703 -0.8188
  278SOL     OW 1109   1.449   0.610   1.697  0.5748 -0.2321 -0.0051
  278SOL    HW1 1110   1.422   0.560   1.776 -0.1134 -0.4332  0.4854
  278SOL    HW2 1111   1.516   0.664   1.729 -0.5853  1.7158 -1.1821
  278SOL     MW 1112   1.454   0.611   1.712  0.3310 -0.0016 -0.0957
  279SOL     OW 1113   0.520   0.025   2.270 -0.3840 -0.3592  0.5027
  279SOL    HW1 1114   0.608  -0.013   2.260 -0.0085 -2.3234 -4.4176
  279SOL    HW2 1115   0.541   0.118   2.270  3.3003  0.2518  1.0954
  279SOL     MW 1116   0.534   0.032   2.269  0.1516 -0.5378 -0.0683
  280SOL     OW 1117   1.480   1.049   2.152 -0.0996 -0.3179 -0.7407
  280SOL    HW1 1118   1.529   0.978   2.108  0.9106 -0.7606 -0.8188
  280SOL    HW2 1119   1.467   1.027   2.250 -1.4662 -1.1223  0.2245
  280SOL     MW 1120   1.485   1.037   2.159 -0.1466 -0.4824 -0.6237
  281SOL     OW 1121   1.283   1.297   2.731  0.2891  0.4564  0.4934
  281SOL    HW1 1122   1.372   1.315   2.712 -2.0966 -0.3710  2.0030
  281SOL    HW2 1123   1.293   1.264   2.821 -1.7536  0.9509  1.7578
  281SOL     MW 1124   1.296   1.295   2.741 -0.2952  0.4125  0.8594
  282SOL     OW 1125   1.154   1.270   1.648  0.2592 -0.4017 -0.1910
  282SOL    HW1 1126   1.147   1.352   1.606  0.9756  2.4157  1.3372
  282SOL    HW2 1127   1.099   1.281   1.726 -0.3175  1.0000 -2.0979
  282SOL     MW 1128   1.146   1.282   1.653  0.2776  0.1550 -0.2410
  283SOL     OW 1129   0.702   1.285   3.009  0.5076 -0.5742 -0.9031
  283SOL    HW1 1130   0.790   1.266   3.045 -0.0804  0.5995  1.3480
  283SOL    HW2 1131   0.686   1.384   3.031  0.8613  2.3274 -1.0676
  283SOL     MW 1132   0.712   1.295   3.017  0.4766 -0.0365 -0.6278
  284SOL     OW 1133   0.517   0.642   2.397 -0.2120 -0.2797  0.6292
  284SOL    HW1 1134   0.561   0.707   2.344  0.7425 -0.0303  0.1166
  284SOL    HW2 1135   0.493   0.583   2.327 -0.1902 -1.5041  0.7943
  284SOL     MW 1136   0.520   0.643   2.381 -0.0832 -0.4083  0.5834
  285SOL     OW 1137   0.850   0.915   2.815  0.0048 -0.2716  0.0033
  285SOL    HW1 1138   0.861   0.967   2.731  1.1379  0.8789 -0.7879
  285SOL    HW2 1139   0.823   0.826   2.789  0.8222 -0.9064 -2.1315
  285SOL     MW 1140   0.848   0.910   2.800  0.2622 -0.2035 -0.3828
  286SOL     OW 1141   1.167   1.503   2.573  0.3888  0.0356  0.3653
  286SOL    HW1 1142   1.211   1.444   2.634  0.3127  0.4038 -1.8224
  286SOL    HW2 1143   1.195   1.589   2.602 -0.4598  1.0198 -0.2100
  286SOL     MW 1144   1.177   1.507   2.585  0.2668  0.2141  0.0007
  287SOL     OW 1145   1.070   0.968   0.284  0.2170  0.8029  0.4667
  287SOL    HW1 1146   1.111   1.011   0.357  1.0745 -1.5526 -1.4776
  287SOL    HW2 1147   0.978   0.996   0.285 -0.1273  0.4297 -1.6722
  287SOL     MW 1148   1.063   0.978   0.294  0.2847  0.4429 -0.0720
  288SOL     OW 1149   1.569   0.602   2.117 -0.5629 -0.6120  0.1070
  288SOL    HW1 1150   1.519   0.606   2.198  0.5342 -1.9679  0.5270
  288SOL    HW2 1151   1.567   0.693   2.078  1.2310  0.8973 -0.1706
  288SOL     MW 1152   1.562   0.615   2.123 -0.1815 -0.5918  0.1258
  289SOL     OW 1153   0.943   1.031   2.578  0.6750  0.2331 -0.0774
  289SOL    HW1 1154   0.998   0.951   2.572 -0.4410  1.4779  1.0602
  289SOL    HW2 1155   0.859   1.016   2.534 -1.1299 -0.7210  0.8156
  289SOL     MW 1156   0.939   1.019   2.571  0.2896  0.2715  0.1905
  290SOL     OW 1157   0.899   0.580   1.567 -0.6664  0.8187 -0.0878
  290SOL    HW1 1158   0.953   0.538   1.498 -0.5126  2.3924 -2.8360
  290SOL    HW2 1159   0.959   0.577   1.646  1.9118  0.0253 -0.3558
  290SOL     MW 1160   0.914   0.574   1.568 -0.3060  0.9217 -0.4858
  291SOL     OW 1161   0.191   0.316   0.149  0.3228 -0.3813  0.0444
  291SOL    HW1 1162   0.282   0.288   0.157 -0.7055  0.0675  1.6123
  291SOL    HW2 1163   0.146   0.262   0.073  2.0075  0.6915  0.4357
  291SOL     MW 1164   0.197   0.306   0.140  0.4094 -0.1805  0.3029
  292SOL     OW 1165   1.044   0.564   0.095 -0.0842  0.5221 -0.3225
  292SOL    HW1 1166   1.104   0.624   0.151 -1.3759  1.0055  0.3690
  292SOL    HW2 1167   1.050   0.466   0.123 -0.7715  1.9646  0.8844
  292SOL     MW 1168   1.053   0.559   0.106 -0.3453  0.7762 -0.0720
  293SOL     OW 1169   0.234   0.138   2.454 -0.5909 -0.2086  0.5523
  293SOL    HW1 1170   0.160   0.110   2.398  0.3261 -2.5610  0.5737
  293SOL    HW2 1171   0.194   0.210   2.504 -1.4597  1.4035  1.3822
  293SOL     MW 1172   0.219   0.144   2.453 -0.5846 -0.3062  0.6647
  294SOL     OW 1173   1.501   0.640   2.387  0.0317  0.1864 -0.0648
  294SOL    HW1 1174   1.497   0.699   2.464 -0.1266  1.3971 -0.5890
  294SOL    HW2 1175   1.519   0.561   2.428  0.7510  4.7131 -2.4296
  294SOL     MW 1176   1.503   0.637   2.402  0.1058  0.9434 -0.4460
  295SOL     OW 1177   0.901   0.663   2.505  0.0989 -0.1350  0.1474
  295SOL    HW1 1178   0.854   0.602   2.444  3.2540  1.1201  2.8915
  295SOL    HW2 1179   0.858   0.660   2.594 -0.0768  1.6756 -1.7279
  295SOL     MW 1180   0.889   0.654   2.509  0.4920  0.2695  0.2621
  296SOL     OW 1181   1.265   0.259   2.046  0.5012 -0.7187 -0.3161
  296SOL    HW1 1182   1.325   0.185   2.032 -1.0576  0.9092  0.5046
  296SOL    HW2 1183   1.253   0.246   2.140  0.4232 -0.8439 -1.6703
  296SOL     MW 1184   1.272   0.247   2.057  0.2853 -0.5204 -0.3865
  297SOL     OW 1185   1.449   0.344   1.598 -0.6418  0.2685 -0.0049
  297SOL    HW1 1186   1.506   0.419   1.618 -2.6527  0.2262  0.1987
  297SOL    HW2 1187   1.469   0.279   1.666 -0.5318 -3.1669 -2.3205
  297SOL     MW 1188   1.459   0.345   1.609 -0.8926 -0.1903 -0.2836
  298SOL     OW 1189   1.646   0.872   1.989 -0.4651 -0.1015  0.0309
  298SOL    HW1 1190   1.610   0.913   1.905  1.1565  1.1687 -0.8417
  298SOL    HW2 1191   1.738   0.869   1.970 -0.8997 -0.4924 -0.7091
  298SOL     MW 1192   1.653   0.877   1.975 -0.3085  0.0145 -0.1819
  299SOL     OW 1193   0.547   1.048   0.023 -0.3064  0.0634  0.5583
  299SOL    HW1 1194   0.605   1.109  -0.016 -1.1480 -2.9735 -0.9422
  299SOL    HW2 1195   0.485   1.050  -0.051 -0.5985 -0.3791  0.3854
  299SOL     MW 1196   0.547   1.057   0.008 -0.4560 -0.3957  0.3375
  300SOL     OW 1197   1.221   1.143   2.509  0.4337 -0.5570 -0.2386
  300SOL    HW1 1198   1.143   1.094   2.492  4.2607 -0.2698 -0.9377
  300SOL    HW2 1199   1.224   1.184   2.601  3.9516 -1.0768 -0.9393
  300SOL     MW 1200   1.211   1.142   2.519  1.4028 -0.5877 -0.4233
  301SOL     OW 1201   1.384   0.933   0.684  0.6290  0.9291 -0.4349
  301SOL    HW1 1202   1.431   0.951   0.770 -0.1631 -0.3296 -1.5701
  301SOL    HW2 1203   1.303   0.883   0.718 -1.2122  1.8249 -1.0462
  301SOL     MW 1204   1.380   0.929   0.700  0.2816  0.8812 -0.6653
  302SOL     OW 1205   0.123   1.476   2.036  0.5783 -0.8464  0.1999
  302SOL    HW1 1206   0.137   1.415   2.116 -1.2464  0.7135 -0.9409
  302SOL    HW2 1207   0.070   1.554   2.075 -1.8598 -0.0951 -3.0650
  302SOL     MW 1208   0.117   1.478   2.052  0.0159 -0.5415 -0.3814
  303SOL     OW 1209   0.393   1.698   2.640  0.0311  0.3648  0.1652
  303SOL    HW1 1210   0.380   1.696   2.546  0.0360  0.0762  1.7144
  303SOL    HW2 1211   0.340   1.763   2.685 -1.9032 -3.4433 -0.2953
  303SOL     MW 1212   0.384   1.706   2.634 -0.2235 -0.1757  0.3088
  304SOL     OW 1213   0.627   2.037   2.350 -0.6696 -0.2641 -0.2234
  304SOL    HW1 1214   0.689   2.098   2.310  2.5761 -0.0696  0.9363
  304SOL    HW2 1215   0.689   1.979   2.397 -2.5773 -2.2503  1.4891
  304SOL     MW 1216   0.643   2.037   2.351 -0.4931 -0.5005  0.1556
  305SOL     OW 1217   1.102   0.573   0.518 -0.0079  0.1026 -0.0729
  305SOL    HW1 1218   1.016   0.549   0.492  1.4565 -2.2997  0.0910
  305SOL    HW2 1219   1.136   0.501   0.570 -0.2100  2.3501 -2.3777
  305SOL     MW 1220   1.095   0.560   0.521  0.1587  0.0821 -0.3554
  306SOL     OW 1221   1.242   1.481   0.269  0.0678  0.0458 -0.1669
  306SOL    HW1 1222   1.270   1.396   0.297 -0.3560 -0.8056 -0.8164
  306SOL    HW2 1223   1.286   1.491   0.183 -0.9553  0.3497  4.2480
  306SOL     MW 1224   1.252   1.471   0.262 -0.1231 -0.0264  0.3299
  307SOL     OW 1225   1.399   0.500   1.944 -0.0244  0.2350 -0.0673
  307SOL    HW1 1226   1.348   0.430   1.988 -1.6808 -1.3096  1.7097
  307SOL    HW2 1227   1.480   0.536   1.990  2.6386  0.4450  1.1427
  307SOL     MW 1228   1.403   0.495   1.956  0.1084  0.0589  0.3268
  308SOL     OW 1229   2.146   0.598   2.705  0.3562 -0.0371 -0.1125
  308SOL    HW1 1230   2.236   0.566   2.741  0.5603  0.1902  3.3516
  308SOL    HW2 1231   2.156   0.689   2.695 -2.1085 -0.4470  2.2537
  308SOL     MW 1232   2.159   0.606   2.709  0.0579 -0.0612  0.6568
  309SOL     OW 1233   0.402   0.365   0.397  0.0345 -0.1386 -0.2223
  309SOL    HW1 1234   0.481   0.353   0.450  0.0469 -0.1586 -0.2001
  309SOL    HW2 1235   0.408   0.294   0.336  1.9174  0.2826 -0.4930
  309SOL     MW 1236   0.413   0.354   0.396  0.2846 -0.0857 -0.2551
  310SOL     OW 1237   0.494   0.608   1.931  0.5902  0.5350  0.2787
  310SOL    HW1 1238   0.534   0.523   1.903 -0.6564  0.0364  0.2585
  310SOL    HW2 1239   0.561   0.676   1.899  1.6378 -1.6607  0.6203
  310SOL     MW 1240   0.508   0.605   1.923  0.5639  0.1795  0.3211
  311SOL     OW 1241   1.933   0.709   1.958  0.5552 -0.4647 -0.1143
  311SOL    HW1 1242   1.914   0.721   2.050 -0.5840 -0.4334 -2.7192
  311SOL    HW2 1243   1.975   0.615   1.948  1.4231 -0.7087 -0.9145
  311SOL     MW 1244   1.936   0.698   1.969  0.5194 -0.4928 -0.5635
  312SOL     OW 1245   1.675   2.494   0.097  0.2213 -0.4388 -0.5051
  312SOL    HW1 1246   1.729   2.509   0.177 -2.0425  2.2191 -0.0456
  312SOL    HW2 1247   1.599   2.545   0.115  0.6311  0.5007  0.7242
  312SOL     MW 1248   1.672   2.503   0.110 -0.0233  0.0358 -0.2823
  313SOL     OW 1249   0.110   1.222   2.956  0.0185  0.2604 -0.6473
  313SOL    HW1 1250   0.115   1.197   3.047  0.1764 -2.0099 -1.8163
  313SOL    HW2 1251   0.194   1.273   2.942  3.4823  2.0114  1.5313
  313SOL     MW 1252   0.121   1.226   2.966  0.4963  0.1919 -0.5141
  314SOL     OW 1253   2.114   2.984   3.001  0.1652  0.4656 -0.0788
  314SOL    HW1 1254   2.048   3.022   2.942 -0.4330 -2.4012 -1.0511
  314SOL    HW2 1255   2.180   3.049   3.024  0.6174  1.2320  2.0660
  314SOL     MW 1256   2.114   2.998   2.996  0.1459  0.1885  0.0759
  315SOL     OW 1257   1.511   1.908   0.029  0.2613 -0.4159 -0.8315
  315SOL    HW1 1258   1.433   1.965   0.052 -1.1478  0.2854  0.2023
  315SOL    HW2 1259   1.547   1.952  -0.049  0.6116  0.6551  0.5884
  315SOL     MW 1260   1.506   1.921   0.022  0.1216 -0.1821 -0.5077
  316SOL     OW 1261   1.302   0.670   2.711 -0.3882  0.1771  0.3522
  316SOL    HW1 1262   1.380   0.724   2.697  0.6141 -0.7192 -2.7084
  316SOL    HW2 1263   1.280   0.678   2.809 -1.4922 -0.6943  0.8005
  316SOL     MW 1264   1.309   0.678   2.722 -0.4016 -0.0561  0.0075
  317SOL     OW 1265   0.723   1.515   2.561  0.3173  0.2572  0.1548
  317SOL    HW1 1266   0.789   1.445   2.548 -2.3611 -1.7560  0.0840
  317SOL    HW2 1267   0.722   1.561   2.476  0.8710  0.2563 -0.3917
  317SOL     MW 1268   0.732   1.512   2.548  0.0370 -0.0085  0.0733
  318SOL     OW 1269   1.337   0.393   2.929  0.4554 -0.2049 -0.1326
  318SOL    HW1 1270   1.256   0.440   2.931 -1.5799  0.9780  0.8256
  318SOL    HW2 1271   1.406   0.459   2.939 -0.8238  1.8624  1.3468
  318SOL     MW 1272   1.335   0.408   2.930  0.0181  0.2239  0.1890
  319SOL     OW 1273   0.767   0.388   2.860  0.2990 -0.1202 -0.5516
  319SOL    HW1 1274   0.691   0.354   2.809 -0.6875 -0.4351 -0.3409
  319SOL    HW2 1275   0.728   0.396   2.951 -0.5071 -0.3959 -0.5452
  319SOL     MW 1276   0.752   0.385   2.866  0.0625 -0.1981 -0.5230
  320SOL     OW 1277   1.057   1.328   1.922 -0.3668 -0.5450  0.0646
  320SOL    HW1 1278   1.116   1.295   1.993  1.9400 -0.6766 -0.3878
  320SOL    HW2 1279   1.084   1.420   1.900  1.6143  0.7478 -0.9999
  320SOL     MW 1280   1.068   1.336   1.928  0.1989 -0.3918 -0.1356
  321SOL     OW 1281   1.038   0.968   3.025 -0.1888 -0.7901 -0.6011
  321SOL    HW1 1282   0.977   0.975   2.949 -2.9445 -1.3943  0.5009
  321SOL    HW2 1283   1.083   0.882   3.025 -1.1691 -1.4743  0.7201
  321SOL     MW 1284   1.036   0.958   3.015 -0.6817 -0.9601 -0.2814
  322SOL     OW 1285   1.253   0.812   1.702  0.6092  0.2718 -0.3171
  322SOL    HW1 1286   1.331   0.753   1.697  3.4644  0.4445  1.4655
  322SOL    HW2 1287   1.243   0.860   1.785 -3.0240  0.0796  0.4096
  322SOL     MW 1288   1.262   0.810   1.713  0.5066  0.2693  0.0140
  323SOL     OW 1289   1.216   1.552   1.883  0.5594  0.7678 -0.4678
  323SOL    HW1 1290   1.226   1.526   1.796 -1.1717 -0.2859  1.5989
  323SOL    HW2 1291   1.179   1.641   1.874  0.2398  0.3071  0.7415
  323SOL     MW 1292   1.212   1.560   1.870  0.2888  0.5680 -0.0355
  324SOL     OW 1293   1.458   1.012   2.433 -0.8061  0.0839  0.0292
  324SOL    HW1 1294   1.368   1.056   2.445  3.8563  0.3371  0.4447
  324SOL    HW2 1295   1.525   1.084   2.441 -0.7742 -1.5867  2.0004
  324SOL     MW 1296   1.455   1.027   2.436 -0.1867 -0.1031  0.3441
  325SOL     OW 1297   1.087   0.490   2.924 -0.1810 -0.4753  0.7315
  325SOL    HW1 1298   1.068   0.538   3.005 -1.5609  0.3448  0.0579
  325SOL    HW2 1299   1.005   0.483   2.866 -2.2120  0.9711 -0.2025
  325SOL     MW 1300   1.074   0.496   2.927 -0.6311 -0.1763  0.5194
  326SOL     OW 1301   0.468   1.336   2.168 -0.4742  0.4364 -0.4671
  326SOL    HW1 1302   0.541   1.306   2.109  1.4946  1.3350 -1.2944
  326SOL    HW2 1303   0.465   1.430   2.167 -3.1422 -2.0869 -0.3202
  326SOL     MW 1304   0.477   1.345   2.160 -0.5664  0.2220 -0.5569
  327SOL     OW 1305   1.915   0.841   2.457  0.3088 -0.1248  0.0837
  327SOL    HW1 1306   1.894   0.766   2.518 -0.6968 -1.7002  1.6616
  327SOL    HW2 1307   2.014   0.839   2.438  0.5782 -1.6183 -0.3152
  327SOL     MW 1308   1.925   0.831   2.463  0.2116 -0.5297  0.2393
  328SOL     OW 1309   0.202   1.286   2.190 -0.2757  0.2703 -0.2193
  328SOL    HW1 1310   0.170   1.230   2.124  1.7275  1.5401 -2.5757
  328SOL    HW2 1311   0.299   1.292   2.172  1.3160  2.0243 -0.6078
  328SOL     MW 1312   0.211   1.279   2.179  0.1986  0.6693 -0.5814
  329SOL     OW 1313   0.114   0.060   1.355 -0.4990  0.0984 -0.6580
  329SOL    HW1 1314   0.097   0.107   1.432  0.4175  2.5710 -2.4160
  329SOL    HW2 1315   0.213   0.055   1.360  3.7455  0.2500 -0.1365
  329SOL     MW 1316   0.125   0.066   1.366  0.1820  0.4446 -0.8211
  330SOL     OW 1317   0.308   3.102   2.083  0.4012 -0.0524  0.1147
  330SOL    HW1 1318   0.398   3.087   2.112  0.8053  2.6569 -0.5268
  330SOL    HW2 1319   0.261   3.047   2.137 -0.7310  1.0816  1.4416
  330SOL     MW 1320   0.314   3.093   2.094  0.3051  0.4547  0.2052
  331SOL     OW 1321   0.831   1.208   2.276  0.3606  0.1086 -0.1013
  331SOL    HW1 1322   0.787   1.251   2.206  0.3455 -0.4627  0.6407
  331SOL    HW2 1323   0.872   1.275   2.336 -4.2055  0.8944  1.8257
  331SOL     MW 1324   0.830   1.222   2.275 -0.2439  0.1369  0.2508
  332SOL     OW 1325   1.371   1.709   3.028  0.0738  0.3791  0.8792
  332SOL    HW1 1326   1.371   1.701   2.924 -0.3034  0.6461  0.1190
  332SOL    HW2 1327   1.411   1.793   3.053 -0.9006  3.8797  0.4473
  332SOL     MW 1328   1.376   1.719   3.017 -0.1046  0.8762  0.7219
  333SOL     OW 1329   1.776   1.432   2.951 -0.4154  0.0548 -0.4394
  333SOL    HW1 1330   1.873   1.461   2.957  0.6461 -0.8102 -0.4781
  333SOL    HW2 1331   1.743   1.438   3.039 -3.6227 -4.1936 -1.8704
  333SOL     MW 1332   1.785   1.436   2.963 -0.6985 -0.6199 -0.6333
  334SOL     OW 1333   1.411   3.092   2.577 -0.0783  0.1739  0.5803
  334SOL    HW1 1334   1.315   3.081   2.578 -0.8035  1.0681 -0.3663
  334SOL    HW2 1335   1.425   3.182   2.599  1.0770 -0.5502 -0.6799
  334SOL     MW 1336   1.400   3.102   2.580 -0.0216  0.1963  0.2892
  335SOL     OW 1337   1.263   0.763   3.004  0.2227 -0.3403 -0.5973
  335SOL    HW1 1338   1.310   0.697   3.051  0.6797  1.2355  1.8498
  335SOL    HW2 1339   1.329   0.815   2.964 -2.5364  2.8013 -0.1472
  335SOL     MW 1340   1.278   0.761   3.005 -0.0810  0.2821 -0.2150
  336SOL     OW 1341   0.959   1.069   1.924  0.2041 -0.0587  0.3167
  336SOL    HW1 1342   0.982   1.163   1.915 -1.3166  1.2413  0.4953
  336SOL    HW2 1343   1.042   1.023   1.920  0.4918 -0.6881 -1.9170
  336SOL     MW 1344   0.973   1.075   1.923  0.0414  0.0298  0.0456
  337SOL     OW 1345   0.608   1.782   2.794 -0.5246 -0.0619 -0.3569
  337SOL    HW1 1346   0.547   1.727   2.744 -4.0676  2.2896 -0.2568
  337SOL    HW2 1347   0.700   1.752   2.769  1.3103  0.5714 -1.8994
  337SOL     MW 1348   0.612   1.771   2.784 -0.7500  0.3319 -0.5472
  338SOL     OW 1349   1.135   0.804   2.516 -0.5295 -0.7905  0.0870
  338SOL    HW1 1350   1.053   0.756   2.492 -0.8263  0.6444  1.5346
  338SOL    HW2 1351   1.168   0.757   2.598  0.3938  0.1800  1.9789
  338SOL     MW 1352   1.129   0.791   2.524 -0.4469 -0.4732  0.5276
  339SOL     OW 1353   1.548   1.052   1.806 -0.2983 -0.4320 -0.0902
  339SOL    HW1 1354   1.471   1.068   1.743 -2.1669 -0.2635 -1.7172
  339SOL    HW2 1355   1.546   1.134   1.860 -1.8911 -0.8137 -0.9714
  339SOL     MW 1356   1.537   1.065   1.804 -0.7550 -0.4601 -0.4211
  340SOL     OW 1357   1.397   1.459   0.047 -0.5910  0.0267 -0.1820
  340SOL    HW1 1358   1.399   1.551   0.025  0.7161 -1.2060 -1.9558
  340SOL    HW2 1359   1.491   1.441   0.071 -0.0812  1.0979 -2.0757
  340SOL     MW 1360   1.410   1.468   0.047 -0.3513  0.0054 -0.6659
  341SOL     OW 1361   0.138   1.402   2.693  0.7495  0.2238  0.2892
  341SOL    HW1 1362   0.213   1.346   2.680  0.5600 -0.3820 -0.7681
  341SOL    HW2 1363   0.067   1.349   2.649  1.8123  0.9826  1.4460
  341SOL     MW 1364   0.139   1.388   2.686  0.8647  0.2439  0.3023
  342SOL     OW 1365   1.365   0.294   0.087 -0.4094  0.0252  0.1665
  342SOL    HW1 1366   1.409   0.368   0.127 -1.4772 -0.6894 -0.7970
  342SOL    HW2 1367   1.370   0.312  -0.008 -0.2607 -2.4677 -0.6085
  342SOL     MW 1368   1.371   0.306   0.080 -0.5307 -0.3980 -0.0629
  343SOL     OW 1369   0.232   0.309   2.201  0.3349  0.3476 -0.8870
  343SOL    HW1 1370   0.279   0.233   2.237 -0.6499  1.7531 -0.3351
  343SOL    HW2 1371   0.170   0.280   2.135 -0.6276 -1.4934  0.8831
  343SOL     MW 1372   0.230   0.295   2.197  0.0780  0.2902 -0.5807
  344SOL     OW 1373   1.697   2.070   0.173  0.0304  0.4716 -0.3865
  344SOL    HW1 1374   1.713   2.142   0.108 -0.8240  1.9283  2.8066
  344SOL    HW2 1375   1.644   2.007   0.130  0.2408  0.1612 -0.2396
  344SOL     MW 1376   1.692   2.071   0.159 -0.0546  0.6228  0.0541
  345SOL     OW 1377   0.731   1.646   2.310  0.1665 -0.1348  0.3205
  345SOL    HW1 1378   0.649   1.654   2.259 -2.1246  0.4682 -0.2639
  345SOL    HW2 1379   0.769   1.580   2.252  0.8227 -2.5034 -0.7084
  345SOL     MW 1380   0.725   1.638   2.295 -0.0492 -0.3678  0.1077
  346SOL     OW 1381   1.732   1.134   0.012 -0.0011 -0.1193 -0.7532
  346SOL    HW1 1382   1.824   1.161   0.019 -1.3443 -0.3047  2.2405
  346SOL    HW2 1383   1.727   1.061   0.073  0.9921  0.1805  0.6123
  346SOL     MW 1384   1.743   1.128   0.021 -0.0473 -0.1042 -0.1780
  347SOL     OW 1385   1.290   0.772   2.289  0.5474 -0.0250 -0.2735
  347SOL    HW1 1386   1.371   0.735   2.331  0.2033  0.9349 -1.6150
  347SOL    HW2 1387   1.246   0.807   2.363  1.4361 -3.8854 -0.2709
  347SOL     MW 1388   1.295   0.772   2.304  0.6193 -0.4077 -0.4502
  348SOL     OW 1389   1.384   2.610   1.862  0.7971 -0.1669 -0.2446
  348SOL    HW1 1390   1.411   2.533   1.921  0.1804  1.4205  0.2337
  348SOL    HW2 1391   1.422   2.687   1.907  0.5514  0.0038  3.6102
  348SOL     MW 1392   1.392   2.610   1.876  0.6833  0.0651  0.3271
  349SOL     OW 1393   1.433   0.256   2.705  1.0200 -0.2011 -0.3821
  349SOL    HW1 1394   1.386   0.302   2.774  2.3614 -0.9494 -1.3997
  349SOL    HW2 1395   1.524   0.260   2.742  1.1694 -0.1545 -0.2349
  349SOL     MW 1396   1.439   0.263   2.719  1.2167 -0.2936 -0.4969
  350SOL     OW 1397   1.877   0.643   2.631 -0.9067  0.2027  0.4879
  350SOL    HW1 1398   1.836   0.575   2.577  0.4297  0.4605  0.6053
  350SOL    HW2 1399   1.959   0.615   2.672  0.2683 -1.6731  4.2638
  350SOL     MW 1400   1.882   0.631   2.629 -0.5753 -0.0108  1.0016
  351SOL     OW 1401   0.064   0.955   1.544  0.0006  0.5135 -0.9427
  351SOL    HW1 1402   0.007   0.979   1.619 -0.8519 -3.6480  0.9194
  351SOL    HW2 1403   0.135   1.014   1.547 -0.9634 -2.2338  0.5617
  351SOL     MW 1404   0.066   0.966   1.554 -0.2391 -0.3981 -0.4986
  352SOL     OW 1405   0.866   1.674   2.713  0.5971 -0.0086  0.3149
  352SOL    HW1 1406   0.876   1.635   2.795 -0.0451  1.5584  1.0896
  352SOL    HW2 1407   0.812   1.607   2.665 -1.0917 -0.7235  1.1915
  352SOL     MW 1408   0.860   1.660   2.717  0.2895  0.1038  0.5328
  353SOL     OW 1409   3.090   2.442   2.725  0.4758 -0.0555 -0.2271
  353SOL    HW1 1410   3.175   2.442   2.762  1.7010 -0.1730 -1.2483
  353SOL    HW2 1411   3.097   2.473   2.631  1.4880 -1.0325 -1.7468
  353SOL     MW 1412   3.102   2.446   2.718  0.7710 -0.1999 -0.5624
  354SOL     OW 1413   0.355   2.503   0.839 -0.2784  0.3558 -0.2507
  354SOL    HW1 1414   0.393   2.486   0.928 -0.4118  1.6410  0.7159
  354SOL    HW2 1415   0.295   2.427   0.820 -4.0601  0.2701  1.0118
  354SOL     MW 1416   0.352   2.491   0.848 -0.7949  0.5141  0.0434
  355SOL     OW 1417   0.025   2.248   0.384 -0.1171  0.4579  0.7922
  355SOL    HW1 1418  -0.032   2.170   0.381  0.8753  1.2692  0.5195
  355SOL    HW2 1419   0.004   2.296   0.462 -2.7773  0.6020  0.4975
  355SOL     MW 1420   0.015   2.244   0.394 -0.3372  0.5839  0.7173
  356SOL     OW 1421   0.828   2.871   1.039 -0.5282 -0.3815 -0.0666
  356SOL    HW1 1422   0.847   2.858   0.945 -2.2567 -0.0657 -1.4749
  356SOL    HW2 1423   0.738   2.849   1.052 -1.7020  1.1084  0.9205
  356SOL     MW 1424   0.819   2.867   1.028 -0.9111 -0.1433 -0.1222
  357SOL     OW 1425   1.802   2.940   0.420  0.3935 -0.4867 -0.0206
  357SOL    HW1 1426   1.747   2.861   0.435  1.9012  0.7244  0.4471
  357SOL    HW2 1427   1.880   2.906   0.383 -3.2423  4.6411  2.3886
  357SOL     MW 1428   1.805   2.925   0.417  0.1127  0.3497  0.3590
  358SOL     OW 1429   0.474   0.065   1.074 -0.1880  0.0114  0.2398
  358SOL    HW1 1430   0.560   0.045   1.035  0.2582 -0.6390  0.9552
  358SOL    HW2 1431   0.441   0.122   1.002  0.4334 -0.9225 -1.8284
  358SOL     MW 1432   0.481   0.070   1.060 -0.0471 -0.1977  0.0613
  359SOL     OW 1433   0.881   2.852   1.828 -0.1213  0.9753  0.2334
  359SOL    HW1 1434   0.880   2.769   1.882 -1.2474  0.0152 -1.1614
  359SOL    HW2 1435   0.946   2.832   1.751 -1.3343 -2.4416 -2.6314
  359SOL     MW 1436   0.889   2.839   1.825 -0.4300  0.3978 -0.3286
  360SOL     OW 1437   0.577   2.804   1.015 -0.5247 -0.2286 -0.2978
  360SOL    HW1 1438   0.589   2.755   0.931 -1.1163  0.8365  0.3924
  360SOL    HW2 1439   0.559   2.734   1.077  0.8801  1.7097  0.0720
  360SOL     MW 1440   0.576   2.788   1.012 -0.4174  0.1676 -0.1579
  361SOL     OW 1441   0.198   2.712   1.340 -0.0736  0.0003 -0.2063
  361SOL    HW1 1442   0.153   2.777   1.399  2.6821 -1.9597  0.2522
  361SOL    HW2 1443   0.287   2.693   1.378  1.2765 -1.2171  0.6527
  361SOL     MW 1444   0.204   2.718   1.353  0.4681 -0.4189 -0.0325
  362SOL     OW 1445   1.474   2.443   0.657  0.0941 -0.1554  0.3000
  362SOL    HW1 1446   1.473   2.374   0.722 -0.9814 -1.7423  2.1254
  362SOL    HW2 1447   1.469   2.527   0.705  0.0271 -0.2722 -0.8813
  362SOL     MW 1448   1.474   2.445   0.672 -0.0566 -0.3802  0.3850
  363SOL     OW 1449   0.296   3.060   0.728 -0.3427 -0.0704  0.8535
  363SOL    HW1 1450   0.300   3.006   0.811  0.9864  0.2843 -1.0256
  363SOL    HW2 1451   0.203   3.070   0.710  0.7187  3.1023 -0.3730
  363SOL     MW 1452   0.284   3.054   0.737 -0.0273  0.3950  0.4437
  364SOL     OW 1453   0.702   0.193   0.235  0.3319 -0.3855 -0.2840
  364SOL    HW1 1454   0.631   0.139   0.264 -0.0458 -1.6703  2.6218
  364SOL    HW2 1455   0.666   0.259   0.179 -0.1697 -1.3433  0.7102
  364SOL     MW 1456   0.688   0.195   0.232  0.2159 -0.6814  0.2305
  365SOL     OW 1457   0.982   1.930   1.098 -0.4765 -0.0918  0.1453
  365SOL    HW1 1458   0.966   2.025   1.068 -0.3549  1.0527 -1.8469
  365SOL    HW2 1459   0.897   1.894   1.062 -3.6300 -0.9030  0.6463
  365SOL     MW 1460   0.969   1.938   1.090 -0.8765 -0.0478 -0.0514
  366SOL     OW 1461   2.845   2.617   1.057 -0.2077 -0.0323 -0.8258
  366SOL    HW1 1462   2.908   2.646   1.117 -1.1586  0.8880 -1.8443
  366SOL    HW2 1463   2.872   2.634   0.962 -2.4469  0.4451 -1.7298
  366SOL     MW 1464   2.857   2.623   1.052 -0.6286  0.1521 -1.0794
  367SOL     OW 1465   1.250   2.863   0.907  0.3668  0.3358  0.3049
  367SOL    HW1 1466   1.162   2.891   0.907 -2.0880 -1.9147  0.6753
  367SOL    HW2 1467   1.247   2.794   0.838 -0.4066  0.5084 -1.7037
  367SOL     MW 1468   1.238   2.858   0.898 -0.0592  0.0617  0.0887
  368SOL     OW 1469   1.663   0.424   0.677 -0.1494 -0.4307  0.3390
  368SOL    HW1 1470   1.735   0.365   0.660 -0.9347 -2.4441  1.5507
  368SOL    HW2 1471   1.690   0.520   0.694  0.5555  0.1206 -0.1296
  368SOL     MW 1472   1.676   0.429   0.677 -0.1600 -0.6236  0.4370
  369SOL     OW 1473   0.178   2.490   1.654  0.1239  0.3685 -0.0780
  369SOL    HW1 1474   0.254   2.465   1.708  1.3891 -2.1753 -0.9343
  369SOL    HW2 1475   0.118   2.547   1.703  1.6135  0.0314  0.3444
  369SOL     MW 1476   0.180   2.494   1.668  0.4874 -0.0116 -0.1352
  370SOL     OW 1477   0.732   0.047   0.989 -0.5206 -0.1196 -0.4241
  370SOL    HW1 1478   0.773   0.125   1.028  0.6687 -0.7979 -0.5215
  370SOL    HW2 1479   0.765  -0.017   1.048  2.2375 -2.4222 -2.4342
  370SOL     MW 1480   0.741   0.049   1.002  0.0002 -0.5129 -0.7021
  371SOL     OW 1481   1.337   2.967   1.521  0.0229 -0.0804  0.1720
  371SOL    HW1 1482   1.297   2.889   1.474  1.7313 -0.2554 -0.8261
  371SOL    HW2 1483   1.331   3.042   1.457  1.7580  1.1257 -0.6024
  371SOL     MW 1484   1.331   2.967   1.506  0.4772  0.0556 -0.0618
  372SOL     OW 1485   0.748   2.341   0.459 -0.7689  0.1972  0.7425
  372SOL    HW1 1486   0.735   2.245   0.481 -0.6522  0.3487  0.3702
  372SOL    HW2 1487   0.808   2.324   0.382  0.6911  1.3841 -0.8547
  372SOL     MW 1488   0.754   2.326   0.452 -0.5609  0.3738  0.4826
  373SOL     OW 1489   2.788   3.031   1.416 -0.1712  0.4303  0.5666
  373SOL    HW1 1490   2.847   3.001   1.347 -0.8467  0.4210  2.0665
  373SOL    HW2 1491   2.788   3.123   1.405  0.0354 -1.3248  0.3181
  373SOL     MW 1492   2.796   3.039   1.405 -0.2330  0.1975  0.7317
  374SOL     OW 1493   1.535   0.471   0.200  0.3063 -0.5603 -0.4748
  374SOL    HW1 1494   1.604   0.412   0.170 -4.1998  0.3910 -2.9370
  374SOL    HW2 1495   1.518   0.458   0.294 -1.0000  2.4927 -0.1848
  374SOL     MW 1496   1.542   0.462   0.208 -0.4606 -0.0320 -0.7614
  375SOL     OW 1497   1.119   2.081   2.293  0.1390 -0.5176 -0.1841
  375SOL    HW1 1498   1.160   2.090   2.377 -0.1432 -1.0361  1.8399
  375SOL    HW2 1499   1.118   1.985   2.278  1.4609 -1.5581 -2.3067
  375SOL     MW 1500   1.124   2.069   2.302  0.2762 -0.7233 -0.1971
  376SOL     OW 1501   0.671   2.524   0.061 -0.4333  0.6338 -0.3758
  376SOL    HW1 1502   0.636   2.477   0.139  0.0702 -4.0528  1.6497
  376SOL    HW2 1503   0.641   2.466  -0.013  0.9204 -1.4496 -0.7677
  376SOL     MW 1504   0.662   2.510   0.061 -0.1882 -0.2594 -0.1603
  377SOL     OW 1505   1.354   1.992   0.848 -0.1238  0.0257  0.0862
  377SOL    HW1 1506   1.287   1.989   0.779 -1.2121  1.4105  0.0323
  377SOL    HW2 1507   1.307   1.961   0.925  3.9624 -1.1229  0.8258
  377SOL     MW 1508   1.339   1.988   0.849  0.2717  0.0569  0.1766
  378SOL     OW 1509   1.038   2.809   1.594  0.1368 -0.1948  0.5332
  378SOL    HW1 1510   1.009   2.717   1.610  1.6592 -1.9027 -0.5539
  378SOL    HW2 1511   0.981   2.851   1.526  2.8289  2.0371 -1.0070
  378SOL     MW 1512   1.026   2.802   1.587  0.6929 -0.1257  0.1866
  379SOL     OW 1513   1.122   1.771   2.298  0.1461  0.0322 -0.3616
  379SOL    HW1 1514   1.029   1.761   2.276  0.5042  1.1713  1.1900
  379SOL    HW2 1515   1.173   1.725   2.229 -1.3959  1.0600 -0.9984
  379SOL     MW 1516   1.116   1.764   2.286 -0.0101  0.3181 -0.2409
  380SOL     OW 1517   0.815   0.067   1.567 -0.1674  0.0111 -0.1833
  380SOL    HW1 1518   0.851   0.070   1.484 -0.7115 -0.8896  0.6921
  380SOL    HW2 1519   0.881   0.104   1.630  0.3569  1.5836 -0.7753
  380SOL     MW 1520   0.828   0.073   1.565 -0.1700  0.0997 -0.1459
  381SOL     OW 1521   0.797   2.003   0.779  0.0237 -0.5290  0.1606
  381SOL    HW1 1522   0.875   2.015   0.727 -0.5982  1.4495 -1.7251
  381SOL    HW2 1523   0.810   2.069   0.850 -0.0654  0.8716 -0.3239
  381SOL     MW 1524   0.809   2.013   0.781 -0.0701 -0.0832 -0.1521
  382SOL     OW 1525   0.652   0.099   0.703 -0.5045 -0.0149 -0.0821
  382SOL    HW1 1526   0.648   0.103   0.797 -1.1650  0.4827 -3.9063
  382SOL    HW2 1527   0.623   0.006   0.687  1.4590 -1.3441  0.1160
  382SOL     MW 1528   0.648   0.087   0.713 -0.3326 -0.1246 -0.5605
  383SOL     OW 1529   0.538   3.092   0.364  0.7577 -0.5069 -0.3732
  383SOL    HW1 1530   0.557   3.046   0.282 -0.6534 -0.4613 -3.1083
  383SOL    HW2 1531   0.500   3.030   0.426  0.8786  1.5031 -0.1109
  383SOL     MW 1532   0.535   3.078   0.361  0.5875 -0.2357 -0.6995
  384SOL     OW 1533   0.635   2.935   0.632  0.1586  0.3224 -0.3562
  384SOL    HW1 1534   0.712   2.891   0.658 -1.3744  2.8227 -1.8663
  384SOL    HW2 1535   0.573   2.860   0.623  0.9415  0.6567  0.0749
  384SOL     MW 1536   0.637   2.919   0.634  0.0596  0.6964 -0.4985
  385SOL     OW 1537   1.328   2.065   1.486 -0.5124  0.0356  0.1407
  385SOL    HW1 1538   1.395   2.101   1.543  0.0509  0.7559 -1.2976
  385SOL    HW2 1539   1.287   2.004   1.549 -0.1319 -1.9810 -3.2798
  385SOL     MW 1540   1.332   2.062   1.502 -0.3879 -0.1354 -0.5003
  386SOL     OW 1541   1.320   0.370   0.833 -0.3742 -1.1274 -0.1650
  386SOL    HW1 1542   1.235   0.347   0.789  2.0901 -0.3618 -0.2628
  386SOL    HW2 1543   1.286   0.428   0.901 -0.8959  1.9594 -3.0479
  386SOL     MW 1544   1.305   0.374   0.836 -0.1179 -0.6191 -0.5583
  387SOL     OW 1545   0.868   2.168   1.469  0.0744 -0.4548  0.5389
  387SOL    HW1 1546   0.899   2.223   1.397  0.8120 -0.2180  0.0342
  387SOL    HW2 1547   0.860   2.078   1.426 -1.3772 -0.8527  0.6692
  387SOL     MW 1548   0.871   2.163   1.454 -0.0198 -0.4760  0.4895
  388SOL     OW 1549   1.529   2.763   1.200  0.2028  0.5527 -0.1185
  388SOL    HW1 1550   1.455   2.723   1.151 -3.0259  0.1610  2.7032
  388SOL    HW2 1551   1.608   2.715   1.173 -0.9533  1.0950 -1.0991
  388SOL     MW 1552   1.530   2.752   1.190 -0.3757  0.5726  0.1244
  389SOL     OW 1553   0.394   0.002   3.037  0.3661  0.2726 -0.0158
  389SOL    HW1 1554   0.438  -0.070   2.991  1.6288  0.9457  1.3939
  389SOL    HW2 1555   0.379   0.069   2.964 -0.6560  1.8368 -1.2820
  389SOL     MW 1556   0.398   0.001   3.021  0.3978  0.5678  0.0031
  390SOL     OW 1557   1.299   0.100   0.651 -0.0924 -0.1172 -0.1245
  390SOL    HW1 1558   1.373   0.114   0.585 -1.0508  1.3936  0.7156
  390SOL    HW2 1559   1.335   0.073   0.736 -1.1563  1.3084  1.6122
  390SOL     MW 1560   1.313   0.098   0.654 -0.3592  0.2703  0.2155
  391SOL     OW 1561   0.278   2.221   1.380  0.3583 -0.1299 -0.3285
  391SOL    HW1 1562   0.226   2.141   1.412 -2.4407 -3.1786 -2.3377
  391SOL    HW2 1563   0.217   2.299   1.357 -0.2871  0.6652  0.2451
  391SOL     MW 1564   0.263   2.221   1.381 -0.0962 -0.4272 -0.5179
  392SOL     OW 1565   2.076   2.137   0.382 -0.3534  0.5010 -0.2007
  392SOL    HW1 1566   2.097   2.078   0.450 -0.8278  1.3533  1.0641
  392SOL    HW2 1567   2.025   2.198   0.441 -1.0646  0.8478  1.8348
  392SOL     MW 1568   2.072   2.137   0.399 -0.5098  0.6592  0.2347
  393SOL     OW 1569   0.184   3.013   2.712 -0.2272  0.1672  0.3217
  393SOL    HW1 1570   0.237   3.040   2.781 -0.5238 -2.6712 -1.2818
  393SOL    HW2 1571   0.123   3.084   2.709 -0.4428 -0.4544  0.7821
  393SOL     MW 1572   0.183   3.026   2.721 -0.2948 -0.2893  0.1709
  394SOL     OW 1573   0.903   1.742   1.508  0.1274  0.0413  0.6748
  394SOL    HW1 1574   0.854   1.764   1.589 -0.7559  0.3563  3.5560
  394SOL    HW2 1575   0.907   1.822   1.450  0.1098  0.0951 -1.5784
  394SOL     MW 1576   0.897   1.756   1.511  0.0085  0.0899  0.7577
  395SOL     OW 1577   1.016   2.796   2.631  0.2549 -0.1469 -0.6091
  395SOL    HW1 1578   1.062   2.882   2.643 -0.9097 -1.1879  0.1762
  395SOL    HW2 1579   1.079   2.748   2.577  0.8158  0.5229  2.3116
  395SOL     MW 1580   1.031   2.801   2.625  0.1752 -0.1958 -0.1201
  396SOL     OW 1581   0.836   1.881   2.384 -0.7939  0.1272  0.1022
  396SOL    HW1 1582   0.880   1.883   2.472 -0.3696  2.7224  0.8125
  396SOL    HW2 1583   0.800   1.791   2.374 -0.5446  2.3360 -2.2373
  396SOL     MW 1584   0.837   1.869   2.394 -0.7051  0.7610 -0.1128
  397SOL     OW 1585   1.047   2.344   1.278 -0.1845 -0.2196 -0.5294
  397SOL    HW1 1586   1.097   2.369   1.197  2.3553 -0.4494 -1.6454
  397SOL    HW2 1587   1.116   2.353   1.348  1.1767  2.2820 -1.6436
  397SOL     MW 1588   1.063   2.348   1.277  0.3302  0.0801 -0.8237
  398SOL     OW 1589   0.575   2.675   0.766 -0.6027  0.1643 -0.2370
  398SOL    HW1 1590   0.496   2.622   0.760  2.2011  1.4529  3.7958
  398SOL    HW2 1591   0.645   2.618   0.729 -0.0290 -1.5603 -1.1170
  398SOL     MW 1592   0.574   2.660   0.760 -0.1571  0.1068  0.1790
  399SOL     OW 1593   0.260   2.100   0.428 -0.5544  0.2289 -0.9157
  399SOL    HW1 1594   0.187   2.157   0.394 -0.2209 -1.4290 -2.2581
  399SOL    HW2 1595   0.329   2.094   0.357  1.2469  1.7238 -2.1954
  399SOL     MW 1596   0.260   2.107   0.414 -0.2728  0.2074 -1.2616
  400SOL     OW 1597   0.554   1.845   0.177 -0.6893  0.7130 -0.1964
  400SOL    HW1 1598   0.516   1.931   0.183  1.9421 -0.6704  1.5974
  400SOL    HW2 1599   0.529   1.796   0.250  3.6576  0.6589 -1.4694
  400SOL     MW 1600   0.546   1.850   0.188  0.2314  0.5233 -0.1277
  401SOL     OW 1601   0.894   2.060   0.138 -0.4331 -0.1549  0.2588
  401SOL    HW1 1602   0.898   1.964   0.129  0.1922  0.1536  0.4347
  401SOL    HW2 1603   0.968   2.083   0.195 -3.8093  0.0427 -1.6363
  401SOL     MW 1604   0.904   2.050   0.145 -0.7960 -0.0881  0.0319
  402SOL     OW 1605   0.664   2.958   1.689 -0.5574 -0.3495  0.1566
  402SOL    HW1 1606   0.732   2.899   1.727  1.7605  0.9804 -0.4998
  402SOL    HW2 1607   0.722   3.038   1.662 -1.2756  2.2362 -2.8537
  402SOL     MW 1608   0.680   2.961   1.690 -0.3463  0.1671 -0.3272
  403SOL     OW 1609   0.093   0.407   0.406  0.1455 -0.2508 -0.1299
  403SOL    HW1 1610   0.147   0.451   0.472 -2.5232 -0.6241 -0.1846
  403SOL    HW2 1611   0.147   0.365   0.339  0.9453 -2.1783  0.0890
  403SOL     MW 1612   0.108   0.407   0.406 -0.1011 -0.5543 -0.1082
  404SOL     OW 1613   0.891   2.839   0.778 -0.5564 -0.1365 -0.6937
  404SOL    HW1 1614   0.953   2.775   0.739 -1.0687  0.3004 -0.1064
  404SOL    HW2 1615   0.916   2.928   0.747  0.6533  0.3962  1.6270
  404SOL     MW 1616   0.902   2.843   0.769 -0.4644 -0.0086 -0.3100
  405SOL     OW 1617   0.489   2.369   1.512  0.2156  0.0419 -0.2952
  405SOL    HW1 1618   0.482   2.454   1.464  2.0244  0.5623 -2.0393
  405SOL    HW2 1619   0.410   2.306   1.483 -0.9621  1.4188 -1.3113
  405SOL     MW 1620   0.478   2.372   1.502  0.2989  0.2923 -0.6594
  406SOL     OW 1621   0.336   2.407   1.131  0.1751  0.2839  0.1555
  406SOL    HW1 1622   0.241   2.424   1.123  1.5543 -0.6431 -1.1163
  406SOL    HW2 1623   0.341   2.311   1.150 -0.5147 -1.2386 -0.7773
  406SOL     MW 1624   0.325   2.397   1.133  0.2660 -0.0393 -0.1354
  407SOL     OW 1625   3.090   2.733   1.134 -0.0689 -0.2575  0.4971
  407SOL    HW1 1626   3.157   2.712   1.202  0.4085 -2.9171  2.7035
  407SOL    HW2 1627   3.107   2.676   1.066  1.1175 -1.5463  0.0591
  407SOL     MW 1628   3.101   2.722   1.134  0.1506 -0.7785  0.7304
  408SOL     OW 1629   2.057   2.065   0.756  0.4823  0.0224  0.7348
  408SOL    HW1 1630   2.024   2.122   0.825  1.6272  1.2498  0.8788
  408SOL    HW2 1631   1.986   2.067   0.698 -1.4121  0.0120  0.9745
  408SOL     MW 1632   2.043   2.073   0.757  0.3834  0.1830  0.7854
  409SOL     OW 1633   1.370   0.068   0.920  0.2334  0.9470 -0.2446
  409SOL    HW1 1634   1.361   0.162   0.914  3.7108  1.4296 -3.7638
  409SOL    HW2 1635   1.455   0.055   0.961  0.0791  0.1535  0.1804
  409SOL     MW 1636   1.380   0.079   0.924  0.6718  0.9060 -0.6528
  410SOL     OW 1637   1.160   2.438   1.043  0.3669  0.3369  0.0503
  410SOL    HW1 1638   1.070   2.422   1.011  1.0505  2.1879  0.8556
  410SOL    HW2 1639   1.218   2.378   0.999  1.7554  1.7477 -3.3131
  410SOL     MW 1640   1.156   2.428   1.033  0.6403  0.7672 -0.2873
  411SOL     OW 1641   1.942   0.018   2.840 -0.3389 -0.3329 -0.3788
  411SOL    HW1 1642   1.874  -0.016   2.780 -0.8936 -1.4623 -0.2739
  411SOL    HW2 1643   1.897   0.070   2.910 -0.1883 -0.5813  2.0889
  411SOL     MW 1644   1.927   0.020   2.841 -0.3922 -0.5147 -0.0393
  412SOL     OW 1645   0.976   2.249   0.593 -0.0990 -0.2027  0.1052
  412SOL    HW1 1646   1.052   2.309   0.620 -0.5612 -1.6095  1.3324
  412SOL    HW2 1647   0.912   2.305   0.539 -2.2972  0.3360 -1.6743
  412SOL     MW 1648   0.978   2.264   0.589 -0.4500 -0.3172  0.0324
  413SOL     OW 1649   0.528   2.752   3.079 -0.0070  0.5445 -0.9933
  413SOL    HW1 1650   0.588   2.677   3.109  0.1958 -0.4981  1.0321
  413SOL    HW2 1651   0.573   2.806   3.019  0.0376  1.3023  3.8479
  413SOL     MW 1652   0.542   2.749   3.075  0.0256  0.5069 -0.0873
  414SOL     OW 1653   1.935   2.995   1.076 -0.1627 -0.4537  0.1009
  414SOL    HW1 1654   1.866   2.983   1.004  1.6013  0.0151 -0.5066
  414SOL    HW2 1655   1.997   2.923   1.070  1.5900 -1.2349 -0.4303
  414SOL     MW 1656   1.934   2.984   1.066  0.3013 -0.4949 -0.0494
  415SOL     OW 1657   1.730   2.553   1.130 -0.0008  0.0760  0.1469
  415SOL    HW1 1658   1.698   2.486   1.191 -0.8116 -1.5540  3.3228
  415SOL    HW2 1659   1.805   2.600   1.165  1.4495 -2.5791  0.6166
  415SOL     MW 1660   1.736   2.550   1.143  0.0836 -0.4893  0.6279
  416SOL     OW 1661   0.540   1.949   1.359  0.1856  0.2701 -0.0636
  416SOL    HW1 1662   0.508   2.019   1.301  0.1719 -0.5399  0.0568
  416SOL    HW2 1663   0.495   1.878   1.320 -0.7764 -1.7233 -1.6000
  416SOL     MW 1664   0.530   1.949   1.346  0.0569 -0.0998 -0.2504
  417SOL     OW 1665   0.981   3.013   2.058  0.2841  0.1496 -0.0393
  417SOL    HW1 1666   0.920   3.018   2.123  4.5962 -0.3684  0.0495
  417SOL    HW2 1667   0.948   2.956   1.985 -2.0865 -0.3038  0.3059
  417SOL     MW 1668   0.969   3.006   2.057  0.5403  0.0214  0.0180
  418SOL     OW 1669   0.640   2.951   0.151  0.3993  0.0073 -0.5696
  418SOL    HW1 1670   0.723   2.972   0.101 -0.0006 -2.6895  0.0182
  418SOL    HW2 1671   0.597   2.876   0.104  2.8464  0.9024 -0.7748
  418SOL     MW 1672   0.646   2.944   0.138  0.6694 -0.2304 -0.5191
  419SOL     OW 1673   0.453   2.620   1.405 -0.5414  0.2816  0.2601
  419SOL    HW1 1674   0.514   2.687   1.434  3.2708 -0.0615  0.4098
  419SOL    HW2 1675   0.489   2.594   1.324  2.3153  1.6575 -0.8368
  419SOL     MW 1676   0.465   2.625   1.398  0.3385  0.4179  0.1351
  420SOL     OW 1677   0.864   2.188   0.982  0.5849  0.6464  0.2838
  420SOL    HW1 1678   0.800   2.213   1.049  0.2146 -0.4088 -0.5384
  420SOL    HW2 1679   0.891   2.266   0.937  2.5415 -1.1544 -3.9377
  420SOL     MW 1680   0.859   2.202   0.985  0.7942  0.2696 -0.3817
  421SOL     OW 1681   2.943   0.055   0.022  0.1619 -0.0554  0.1335
  421SOL    HW1 1682   2.916   0.025  -0.066 -0.4365 -1.5933  0.2137
  421SOL    HW2 1683   2.950  -0.023   0.081 -0.9501 -0.8590  1.2856
  421SOL     MW 1684   2.940   0.041   0.018 -0.0638 -0.3643  0.2961
  422SOL     OW 1685   0.904   2.452   0.903 -0.1292  0.5086 -0.1886
  422SOL    HW1 1686   0.821   2.466   0.946 -0.2585  1.4241  0.3338
  422SOL    HW2 1687   0.886   2.491   0.823  0.9196 -1.0610  0.0686
  422SOL     MW 1688   0.890   2.459   0.898 -0.0079  0.4223 -0.0857
  423SOL     OW 1689   1.527   0.139   0.494  0.2706 -0.2151 -0.3926
  423SOL    HW1 1690   1.508   0.117   0.402 -2.3059 -1.5449 -0.3967
  423SOL    HW2 1691   1.544   0.228   0.488  2.1105 -2.8604 -3.5619
  423SOL     MW 1692   1.526   0.148   0.481  0.1734 -0.7396 -0.8113
  424SOL     OW 1693   0.665   2.253   1.199 -0.4291 -0.0721 -0.1629
  424SOL    HW1 1694   0.589   2.193   1.170 -0.8038 -0.0178  2.0718
  424SOL    HW2 1695   0.643   2.281   1.291  1.6925  1.8623 -1.5072
  424SOL     MW 1696   0.652   2.248   1.208 -0.1986  0.1903 -0.0454
  425SOL     OW 1697   1.723   2.861   1.951 -0.0578  0.0901 -0.0016
  425SOL    HW1 1698   1.746   2.857   1.855 -0.3051 -0.0179 -1.9484
  425SOL    HW2 1699   1.767   2.782   1.980  0.6965 -0.4699  1.8303
  425SOL     MW 1700   1.732   2.850   1.942  0.0091  0.0020 -0.0168
  426SOL     OW 1701   0.824   1.673   1.940 -0.1790 -0.2427 -0.3996
  426SOL    HW1 1702   0.763   1.688   1.864 -1.6887 -1.1043 -0.8105
  426SOL    HW2 1703   0.804   1.754   1.999  0.4979  1.4356  1.3680
  426SOL     MW 1704   0.814   1.686   1.938 -0.2889 -0.1349 -0.2206
  427SOL     OW 1705   0.336   1.559   1.897  0.1946  0.4065 -0.1774
  427SOL    HW1 1706   0.409   1.494   1.902  1.1066 -0.3309  2.8456
  427SOL    HW2 1707   0.260   1.531   1.950  0.5362  2.3599 -4.0981
  427SOL     MW 1708   0.335   1.546   1.905  0.3600  0.5670 -0.2958
  428SOL     OW 1709   0.580   2.570   1.167  0.0671 -0.1408 -0.1279
  428SOL    HW1 1710   0.653   2.521   1.206  0.4020  2.1754  0.3464
  428SOL    HW2 1711   0.500   2.517   1.155 -0.7722  2.4334 -0.7537
  428SOL     MW 1712   0.579   2.557   1.170  0.0005  0.5044 -0.1479
  429SOL     OW 1713   1.326   2.655   1.072  0.0405  0.6375 -0.2708
  429SOL    HW1 1714   1.248   2.599   1.070 -1.8678 -0.6218  0.4972
  429SOL    HW2 1715   1.290   2.745   1.053  0.1052  1.4530 -0.4474
  429SOL     MW 1716   1.311   2.660   1.070 -0.2028  0.5789 -0.1928
  430SOL     OW 1717   1.179   2.732   0.687  0.3191  0.1663  0.6009
  430SOL    HW1 1718   1.179   2.635   0.693  0.8112 -0.2947  2.2399
  430SOL    HW2 1719   1.118   2.749   0.618  0.8116  2.6926  0.2738
  430SOL     MW 1720   1.171   2.722   0.678  0.4490  0.4388  0.7740
  431SOL     OW 1721   0.285   1.889   1.111  0.9326 -0.1206 -0.2466
  431SOL    HW1 1722   0.348   1.835   1.069 -0.3038 -0.8803  3.5128
  431SOL    HW2 1723   0.260   1.950   1.037  0.9816  0.0996 -0.6400
  431SOL     MW 1724   0.290   1.890   1.096  0.7759 -0.1918  0.1975
  432SOL     OW 1725   0.027   0.049   1.105  1.0036  0.1637 -0.6600
  432SOL    HW1 1726   0.036   0.083   1.198 -1.8785 -1.0374 -1.3424
  432SOL    HW2 1727  -0.030  -0.026   1.113  0.7128  2.3417  0.2907
  432SOL     MW 1728   0.021   0.043   1.119  0.5850  0.2925 -0.6246
  433SOL     OW 1729   0.614   2.853   1.449 -0.2203 -0.1049  1.0093
  433SOL    HW1 1730   0.626   2.879   1.545  0.8738  0.7470 -0.1061
  433SOL    HW2 1731   0.704   2.847   1.410  0.7364 -0.5020  0.6507
  433SOL     MW 1732   0.628   2.855   1.457  0.0503 -0.0449  0.8148
  434SOL     OW 1733   1.579   2.863   1.468 -0.3141 -0.7228 -0.1117
  434SOL    HW1 1734   1.491   2.903   1.499  1.3108  0.2804 -1.3989
  434SOL    HW2 1735   1.576   2.831   1.378  1.4718 -1.6346 -0.9939
  434SOL     MW 1736   1.567   2.864   1.460  0.1359 -0.7107 -0.3979
  435SOL     OW 1737   2.819   1.824   0.181  0.3919  0.2952 -0.0190
  435SOL    HW1 1738   2.848   1.908   0.148  1.3761  1.6442 -0.8304
  435SOL    HW2 1739   2.818   1.764   0.104 -1.5871 -0.0452  0.3392
  435SOL     MW 1740   2.823   1.827   0.167  0.2607  0.4283 -0.0788
  436SOL     OW 1741   1.277   2.788   0.314  0.3966  0.7829  0.0956
  436SOL    HW1 1742   1.346   2.753   0.371  0.0182 -0.3435  0.1625
  436SOL    HW2 1743   1.244   2.863   0.359  1.6218 -2.0467 -0.0953
  436SOL     MW 1744   1.281   2.793   0.327  0.5083  0.2610  0.0792
  437SOL     OW 1745   0.893   2.889   1.373  0.2509 -0.7724  0.5982
  437SOL    HW1 1746   0.891   2.980   1.344 -0.6132 -1.0557  1.1311
  437SOL    HW2 1747   0.929   2.840   1.297  1.2312 -1.0859  1.8908
  437SOL     MW 1748   0.897   2.894   1.359  0.2663 -0.8512  0.8390
  438SOL     OW 1749   0.877   2.597   1.938 -0.6430  0.2145 -0.1059
  438SOL    HW1 1750   0.839   2.600   2.023  3.0800  0.7679 -1.9702
  438SOL    HW2 1751   0.841   2.535   1.875 -1.1295  0.0188  0.6413
  438SOL     MW 1752   0.868   2.589   1.941 -0.2160  0.2617 -0.2533
  439SOL     OW 1753   1.077   2.131   0.370 -0.0844  0.1382  0.4472
  439SOL    HW1 1754   1.016   2.165   0.434 -1.2771  0.9940  2.0658
  439SOL    HW2 1755   1.104   2.212   0.326 -1.7533 -1.4427 -1.0201
  439SOL     MW 1756   1.072   2.147   0.373 -0.4620  0.0425  0.4672
  440SOL     OW 1757   1.677   2.950   3.058  0.1853  0.5354  0.7593
  440SOL    HW1 1758   1.630   2.922   3.138 -1.5795 -0.0111  3.7044
  440SOL    HW2 1759   1.735   2.879   3.045  1.0135 -0.2589 -0.3503
  440SOL     MW 1760   1.678   2.937   3.067  0.0617  0.3585  1.0015
  441SOL     OW 1761   0.354   2.645   0.506  0.0193 -0.0178 -0.5135
  441SOL    HW1 1762   0.347   2.617   0.415  3.6695  0.2013  1.7234
  441SOL    HW2 1763   0.373   2.742   0.511 -0.6522  4.5117  0.0643
  441SOL     MW 1764   0.356   2.654   0.495  0.4123  0.6088 -0.1421
  442SOL     OW 1765   3.055   2.352   0.629  0.5321 -0.0932 -0.2365
  442SOL    HW1 1766   3.078   2.442   0.622 -1.5542 -1.9909  0.4545
  442SOL    HW2 1767   2.964   2.344   0.660  1.3042 -1.6470 -2.1835
  442SOL     MW 1768   3.046   2.363   0.632  0.3587 -0.5486 -0.4023
  443SOL     OW 1769   1.405   1.758   1.900  0.7968  0.4654  0.6748
  443SOL    HW1 1770   1.365   1.801   1.825  3.6667  0.5926  2.6037
  443SOL    HW2 1771   1.369   1.667   1.913  2.2057 -1.4597 -0.2355
  443SOL     MW 1772   1.395   1.752   1.892  1.3614  0.2282  0.8092
  444SOL     OW 1773   0.934   2.572   1.582 -0.6218  0.1477  0.4476
  444SOL    HW1 1774   1.006   2.525   1.631  0.9508  0.1933  0.7092
  444SOL    HW2 1775   0.851   2.543   1.622  0.5580 -2.4078 -2.9021
  444SOL     MW 1776   0.932   2.562   1.594 -0.2587 -0.1835  0.0402
  445SOL     OW 1777   0.938   0.033   1.254 -0.5298  0.1545 -0.1688
  445SOL    HW1 1778   0.905   0.128   1.269 -1.9678  0.4086  1.0766
  445SOL    HW2 1779   1.024   0.028   1.214  0.4494  2.3205  3.5860
  445SOL     MW 1780   0.945   0.045   1.250 -0.5903  0.4738  0.4909
  446SOL     OW 1781   2.685   2.843   1.089 -0.4115  0.2241 -0.6039
  446SOL    HW1 1782   2.668   2.870   0.997  0.1849 -0.3918 -1.0072
  446SOL    HW2 1783   2.738   2.760   1.087  1.2123  1.3216 -0.2639
  446SOL     MW 1784   2.690   2.836   1.077 -0.1186  0.2876 -0.6122
  447SOL     OW 1785   3.064   2.074   1.670  1.1737 -0.4613  0.5469
  447SOL    HW1 1786   3.135   2.032   1.724  2.0099  1.1522  0.7920
  447SOL    HW2 1787   3.022   2.000   1.615  1.0411  2.0558  0.8350
  447SOL     MW 1788   3.068   2.058   1.670  1.2665  0.0837  0.6172
  448SOL     OW 1789   1.720   2.359   1.690  0.6837  0.5812  0.7577
  448SOL    HW1 1790   1.636   2.304   1.681  0.0138  0.9749 -0.2300
  448SOL    HW2 1791   1.689   2.441   1.663  4.1636  0.5059  0.4886
  448SOL     MW 1792   1.705   2.362   1.685  1.0545  0.6232  0.5919
  449SOL     OW 1793   0.762   2.853   0.395 -0.1606 -0.0813  0.6923
  449SOL    HW1 1794   0.727   2.865   0.303  1.8257 -0.3806 -0.4740
  449SOL    HW2 1795   0.718   2.913   0.453  0.9166  1.4532  3.6709
  449SOL     MW 1796   0.751   2.862   0.390  0.2436  0.0817  0.9314
  450SOL     OW 1797   1.188   2.445   0.680  0.3354 -0.1908 -0.3198
  450SOL    HW1 1798   1.203   2.391   0.758 -1.3850  0.0531  1.3771
  450SOL    HW2 1799   1.278   2.433   0.643 -0.0430  1.3683 -1.4581
  450SOL     MW 1800   1.202   2.436   0.685  0.0585  0.0471 -0.2461
  451SOL     OW 1801   0.612   2.037   1.653 -0.6927 -0.7400  0.3226
  451SOL    HW1 1802   0.664   2.116   1.631 -1.8948  2.2128  0.3664
  451SOL    HW2 1803   0.580   2.011   1.567 -0.8489 -1.2283  0.2600
  451SOL     MW 1804   0.615   2.044   1.639 -0.8720 -0.4148  0.3202
  452SOL     OW 1805   0.268   2.718   0.046 -0.7102 -0.2961 -0.3959
  452SOL    HW1 1806   0.354   2.736   0.012 -1.5008 -0.3687  0.6562
  452SOL    HW2 1807   0.214   2.740  -0.036  2.7678 -0.3826 -3.1925
  452SOL     MW 1808   0.272   2.723   0.031 -0.3556 -0.3171 -0.6261
  453SOL     OW 1809   0.377   3.009   1.707 -0.1748 -0.7764 -0.0966
  453SOL    HW1 1810   0.468   3.037   1.679 -0.1369 -2.0235 -0.6889
  453SOL    HW2 1811   0.332   3.020   1.625 -1.2187 -2.0236 -0.0071
  453SOL     MW 1812   0.383   3.014   1.692 -0.3075 -1.1055 -0.1629
  454SOL     OW 1813   0.973   2.696   1.201 -1.0671  0.3619 -0.0667
  454SOL    HW1 1814   0.921   2.621   1.233  1.3106 -0.1867  0.0157
  454SOL    HW2 1815   0.921   2.750   1.138 -2.5246  0.3412 -1.1860
  454SOL     MW 1816   0.960   2.693   1.197 -0.9457  0.2868 -0.2035
  455SOL     OW 1817   1.532   2.926   0.183  0.2908 -0.2516  0.0485
  455SOL    HW1 1818   1.574   2.919   0.269  0.5607 -1.1576 -1.9381
  455SOL    HW2 1819   1.457   2.872   0.181  1.5502 -0.8619 -0.1936
  455SOL     MW 1820   1.528   2.918   0.194  0.4926 -0.4517 -0.2456
  456SOL     OW 1821   2.896   0.346   1.323 -0.1179 -0.4416  0.4738
  456SOL    HW1 1822   2.834   0.285   1.270 -1.8193 -0.3045  0.2323
  456SOL    HW2 1823   2.963   0.364   1.253 -0.8237 -0.3818  0.6009
  456SOL     MW 1824   2.897   0.341   1.307 -0.4355 -0.4156  0.4587
  457SOL     OW 1825   0.945   1.547   2.982  0.4040  0.0549 -1.0397
  457SOL    HW1 1826   0.852   1.531   3.004  1.1596  1.5861  1.5055
  457SOL    HW2 1827   0.993   1.466   2.985  3.8626  0.2176  0.0840
  457SOL     MW 1828   0.939   1.534   2.985  0.9600  0.2784 -0.5556
  458SOL     OW 1829   1.454   1.392   0.547  0.2910  0.1299  0.2130
  458SOL    HW1 1830   1.377   1.400   0.601  0.8378 -0.8031 -0.7992
  458SOL    HW2 1831   1.428   1.322   0.484  2.7827  0.8674  2.3457
  458SOL     MW 1832   1.440   1.384   0.546  0.6919  0.1041  0.3609
  459SOL     OW 1833   1.511   0.105   0.218 -0.6190  0.4127  0.2919
  459SOL    HW1 1834   1.510   0.014   0.186 -4.2371 -0.9853 -2.4652
  459SOL    HW2 1835   1.447   0.156   0.168  0.7566  0.9272  0.0521
  459SOL     MW 1836   1.502   0.100   0.207 -0.9149  0.2962 -0.1035
  460SOL     OW 1837   1.805   2.162   0.681 -0.0261  0.5502 -0.5562
  460SOL    HW1 1838   1.708   2.161   0.701  1.0015  1.8737 -0.6314
  460SOL    HW2 1839   1.816   2.078   0.631  0.3859 -0.9033  1.1536
  460SOL     MW 1840   1.793   2.151   0.677  0.1638  0.5330 -0.3405
  461SOL     OW 1841   0.506   2.406   0.612 -0.2089  0.3878  0.0274
  461SOL    HW1 1842   0.480   2.478   0.553  0.0897  0.9672  0.3292
  461SOL    HW2 1843   0.463   2.428   0.694  0.3982  1.8299 -0.5043
  461SOL     MW 1844   0.497   2.419   0.615 -0.0894  0.6545 -0.0029
  462SOL     OW 1845   0.347   0.221   1.264  0.6025 -0.3809 -0.5209
  462SOL    HW1 1846   0.396   0.160   1.196 -1.0466  0.3147 -1.7550
  462SOL    HW2 1847   0.424   0.265   1.299  2.8747  0.5962  1.8258
  462SOL     MW 1848   0.363   0.219   1.260  0.6847 -0.1602 -0.3741
  463SOL     OW 1849   0.896   3.098   0.687 -0.3099  0.4107 -0.2532
  463SOL    HW1 1850   0.910   3.081   0.591 -2.1687 -0.5023  0.1012
  463SOL    HW2 1851   0.808   3.138   0.684  1.5569 -0.7743 -0.9817
  463SOL     MW 1852   0.886   3.101   0.674 -0.3088  0.1339 -0.3025
  464SOL     OW 1853   0.797   3.033   2.263  0.2326 -0.2603  0.2164
  464SOL    HW1 1854   0.769   2.941   2.275  1.8213 -3.5883 -0.2991
  464SOL    HW2 1855   0.843   3.059   2.337  0.2869  0.5597  0.8256
  464SOL     MW 1856   0.799   3.024   2.274  0.4494 -0.5912  0.2288
  465SOL     OW 1857   0.652   0.327   0.482  0.2833  0.4586  0.0282
  465SOL    HW1 1858   0.668   0.260   0.552 -1.5986  1.0641  1.8680
  465SOL    HW2 1859   0.664   0.275   0.397  0.4907  0.7981 -1.3795
  465SOL     MW 1860   0.656   0.311   0.480  0.0624  0.5833  0.0852
  466SOL     OW 1861   1.088   2.019   0.739 -0.0685  0.0589 -0.4302
  466SOL    HW1 1862   1.079   1.939   0.691  0.7659  1.7237  0.3414
  466SOL    HW2 1863   1.063   2.086   0.673 -0.5661  0.0995  0.1265
  466SOL     MW 1864   1.083   2.017   0.724 -0.0241  0.2839 -0.2549
  467SOL     OW 1865   1.274   2.264   0.893  0.1370 -0.0524 -0.1766
  467SOL    HW1 1866   1.368   2.290   0.895 -1.7018  1.0424  0.5188
  467SOL    HW2 1867   1.292   2.171   0.885  1.7694  0.2845 -0.3698
  467SOL     MW 1868   1.289   2.255   0.892  0.1097  0.1365 -0.1103
  468SOL     OW 1869   0.356   2.582   1.983  0.0049 -0.1462  0.0084
  468SOL    HW1 1870   0.388   2.517   1.921 -0.2312  1.6578 -1.4661
  468SOL    HW2 1871   0.332   2.667   1.939  1.4915  0.6048 -1.7626
  468SOL     MW 1872   0.357   2.585   1.969  0.1699  0.1909 -0.4198
  469SOL     OW 1873   0.366   2.135   1.774 -0.1399  0.0974  0.0375
  469SOL    HW1 1874   0.288   2.085   1.777  0.8294  0.3957  1.3910
  469SOL    HW2 1875   0.429   2.083   1.719 -0.0797 -1.0085 -0.5077
  469SOL     MW 1876   0.364   2.121   1.767 -0.0041 -0.0092  0.1442
  470SOL     OW 1877   3.035   2.567   0.088 -0.2520 -0.6543  0.3218
  470SOL    HW1 1878   2.946   2.541   0.111 -2.3008  0.5492  1.6152
  470SOL    HW2 1879   3.024   2.607   0.003 -0.1229 -1.2276  0.4259
  470SOL     MW 1880   3.022   2.569   0.080 -0.5053 -0.5711  0.5062
  471SOL     OW 1881   1.242   2.747   1.420 -0.3805 -0.1474  0.3571
  471SOL    HW1 1882   1.160   2.760   1.472 -2.2333  1.0570 -1.3708
  471SOL    HW2 1883   1.212   2.717   1.332  1.3469  0.7663 -1.6749
  471SOL     MW 1884   1.227   2.745   1.416 -0.3971  0.1321 -0.1390
  472SOL     OW 1885   2.908   2.055   0.396  0.3359  0.0197  0.1992
  472SOL    HW1 1886   2.893   2.053   0.300 -1.1695 -1.3363  2.2782
  472SOL    HW2 1887   2.865   1.993   0.452 -1.0812  1.2510  0.1843
  472SOL     MW 1888   2.901   2.046   0.391 -0.0497  0.0033  0.4715
  473SOL     OW 1889   0.818   2.498   1.337  0.7508  0.9244 -0.3070
  473SOL    HW1 1890   0.893   2.443   1.319 -2.1170  1.3320 -0.5620
  473SOL    HW2 1891   0.830   2.538   1.418  1.3822  1.1593  1.1990
  473SOL     MW 1892   0.829   2.496   1.345  0.4558  1.0092 -0.1419
  474SOL     OW 1893   0.757   2.256   1.686  0.6340 -0.0718  0.0909
  474SOL    HW1 1894   0.822   2.277   1.754 -0.3513 -0.0362  3.2724
  474SOL    HW2 1895   0.815   2.216   1.617 -1.0584  1.7704  3.9364
  474SOL     MW 1896   0.773   2.253   1.686  0.2807  0.1760  1.0180
  475SOL     OW 1897   1.617   0.031   1.488 -0.0081  0.4866 -0.4205
  475SOL    HW1 1898   1.548   0.068   1.428  1.5485 -2.6296 -1.3944
  475SOL    HW2 1899   1.627  -0.063   1.463  3.0903 -0.5738 -2.5181
  475SOL     MW 1900   1.609   0.024   1.477  0.6061 -0.0645 -0.8258
  476SOL     OW 1901   1.498   2.616   0.858 -0.2059 -0.4283  0.1434
  476SOL    HW1 1902   1.432   2.634   0.928 -0.1658 -1.9643  1.1738
  476SOL    HW2 1903   1.498   2.708   0.828  1.5747  0.4631 -0.8802
  476SOL     MW 1904   1.489   2.631   0.863  0.0343 -0.5133  0.1443
  477SOL     OW 1905   0.793   2.539   0.658 -0.4337  0.6182 -0.1016
  477SOL    HW1 1906   0.823   2.594   0.584  1.2083  0.3075 -1.3959
  477SOL    HW2 1907   0.748   2.474   0.606  0.7304  2.1383 -0.9869
  477SOL     MW 1908   0.791   2.538   0.641 -0.0635  0.7778 -0.3892
  478SOL     OW 1909   0.148   2.685   0.903 -0.4134  0.0636  0.0520
  478SOL    HW1 1910   0.186   2.771   0.908 -0.9601 -1.3351 -0.2689
  478SOL    HW2 1911   0.222   2.632   0.890  2.7180 -0.1993 -1.3542
  478SOL     MW 1912   0.163   2.689   0.902 -0.0724 -0.1556 -0.1759
  479SOL     OW 1913   1.415   1.937   1.275  0.2676  0.4538 -0.4210
  479SOL    HW1 1914   1.372   1.979   1.350  0.6175 -0.0789 -0.6713
  479SOL    HW2 1915   1.476   1.881   1.317  1.4481  0.6365  1.5144
  479SOL     MW 1916   1.417   1.935   1.291  0.4695  0.4076 -0.1987
  480SOL     OW 1917   1.839   2.405   1.377 -0.0386 -0.1634 -0.0923
  480SOL    HW1 1918   1.875   2.339   1.433  0.8432  1.4937 -0.1264
  480SOL    HW2 1919   1.855   2.377   1.291 -1.4342 -1.3867  1.8938
  480SOL     MW 1920   1.846   2.393   1.373 -0.1064 -0.1061  0.1653
  481SOL     OW 1921   1.184   0.064   1.143  0.2992 -0.1276  0.4597
  481SOL    HW1 1922   1.250   0.033   1.084  0.3345 -0.6377  0.1465
  481SOL    HW2 1923   1.166   0.162   1.123 -1.7616  1.2900  0.9032
  481SOL     MW 1924   1.191   0.073   1.133  0.0320 -0.0079  0.4769
  482SOL     OW 1925   0.928   0.001   0.415 -0.6254 -0.7148  0.3961
  482SOL    HW1 1926   0.874  -0.048   0.355 -0.5919  0.4006  1.8057
  482SOL    HW2 1927   0.929   0.096   0.397  2.0507  0.1829 -0.3276
  482SOL     MW 1928   0.921   0.007   0.405 -0.2679 -0.4492  0.4866
  483SOL     OW 1929   0.371   2.928   0.510 -0.4682  0.2074 -0.0981
  483SOL    HW1 1930   0.290   2.920   0.462 -1.0761 -0.4635  1.3074
  483SOL    HW2 1931   0.354   2.979   0.593 -0.3264  0.8877  2.4910
  483SOL     MW 1932   0.358   2.934   0.515 -0.5297  0.2086  0.4290
  484SOL     OW 1933   1.674   1.857   1.368 -0.1195 -0.0148 -0.3902
  484SOL    HW1 1934   1.722   1.929   1.327  0.6163  1.4356  0.1088
  484SOL    HW2 1935   1.682   1.880   1.461  2.2818 -1.3903  1.1297
  484SOL     MW 1936   1.682   1.870   1.375  0.2944 -0.0049 -0.1238
  485SOL     OW 1937   0.529   2.399   0.284 -0.6371  0.1743  0.0568
  485SOL    HW1 1938   0.575   2.399   0.376 -0.4528 -2.7586  0.7232
  485SOL    HW2 1939   0.452   2.461   0.300  3.1615  0.8452  1.8525
  485SOL     MW 1940   0.525   2.407   0.298 -0.1116 -0.1242  0.3817
  486SOL     OW 1941   0.118   2.452   1.394 -0.3857 -0.3348 -0.4729
  486SOL    HW1 1942   0.146   2.543   1.370 -2.3824 -1.3177  1.0433
  486SOL    HW2 1943   0.160   2.449   1.482  2.0183  1.4234  0.3295
  486SOL     MW 1944   0.127   2.464   1.402 -0.3320 -0.2325 -0.1670
  487SOL     OW 1945   1.278   1.604   1.096 -0.1150 -0.0416 -0.0602
  487SOL    HW1 1946   1.255   1.699   1.087 -1.6684  1.2090 -0.7053
  487SOL    HW2 1947   1.366   1.600   1.047  2.4843  0.4042 -1.8294
  487SOL     MW 1948   1.287   1.616   1.088  0.0230  0.1822 -0.3788
  488SOL     OW 1949   1.615   1.853   0.571  0.2335 -0.0183 -0.2332
  488SOL    HW1 1950   1.696   1.893   0.537 -0.6544 -1.0509 -0.7798
  488SOL    HW2 1951   1.555   1.863   0.499 -0.1256 -1.1985  1.3211
  488SOL     MW 1952   1.618   1.860   0.557  0.0690 -0.3102 -0.1003
  489SOL     OW 1953   0.751   0.785   0.545 -0.4273 -0.6698  0.3078
  489SOL    HW1 1954   0.769   0.694   0.520 -2.2503  0.9012 -1.4372
  489SOL    HW2 1955   0.750   0.782   0.642  1.5190 -1.4335  0.3270
  489SOL     MW 1956   0.753   0.773   0.555 -0.4110 -0.5633  0.0801
  490SOL     OW 1957   1.413   2.111   0.457 -0.0473 -0.0824  0.7781
  490SOL    HW1 1958   1.453   2.195   0.421 -0.7871  1.0717 -0.0663
  490SOL    HW2 1959   1.316   2.115   0.456  1.4067  0.1702  1.3067
  490SOL     MW 1960   1.405   2.123   0.452  0.0470  0.1032  0.7364
  491SOL     OW 1961   1.201   3.010   0.466  0.1099  0.4967  0.5626
  491SOL    HW1 1962   1.209   3.077   0.533  0.0126  0.7417  1.6156
  491SOL    HW2 1963   1.118   3.036   0.431  0.0452  3.7815  0.5655
  491SOL     MW 1964   1.191   3.023   0.470  0.0885  0.9624  0.7019
  492SOL     OW 1965   1.529   2.144   0.718 -0.2804  0.5210 -0.3753
  492SOL    HW1 1966   1.488   2.136   0.629 -0.2265 -1.6421  1.7728
  492SOL    HW2 1967   1.479   2.082   0.780 -1.3768 -1.1910 -1.8023
  492SOL     MW 1968   1.517   2.134   0.714 -0.4179  0.0097 -0.2802
  493SOL     OW 1969   0.126   2.914   0.377 -0.3454 -0.3914 -0.4865
  493SOL    HW1 1970   0.115   2.997   0.421 -0.2276 -2.8163  0.5516
  493SOL    HW2 1971   0.168   2.932   0.290  0.7895  0.1555  0.5287
  493SOL     MW 1972   0.130   2.927   0.371 -0.1801 -0.6391 -0.2156
  494SOL     OW 1973   0.417   2.413   1.766 -0.7208 -0.0140  0.2629
  494SOL    HW1 1974   0.403   2.314   1.793  0.6308  1.4625  0.6096
  494SOL    HW2 1975   0.450   2.413   1.672 -0.0229  1.4601 -0.1063
  494SOL     MW 1976   0.419   2.400   1.757 -0.4504  0.3753  0.2599
  495SOL     OW 1977   2.875   1.660   2.722 -0.3184  0.1251  0.2606
  495SOL    HW1 1978   2.874   1.757   2.748  0.0609  2.0308 -0.6360
  495SOL    HW2 1979   2.897   1.593   2.793 -1.2538 -2.1007 -0.7884
  495SOL     MW 1980   2.878   1.664   2.735 -0.3918  0.0829  0.0039
  496SOL     OW 1981   2.853   2.318   2.633  0.0916  0.1059 -0.1256
  496SOL    HW1 1982   2.879   2.230   2.659  0.8635  0.7330 -0.3683
  496SOL    HW2 1983   2.919   2.361   2.683 -1.3349 -1.4957  1.4161
  496SOL     MW 1984   2.865   2.312   2.643  0.0052 -0.0227  0.0458
  497SOL     OW 1985   1.524   2.308   2.550  0.4071 -0.1723  0.7335
  497SOL    HW1 1986   1.496   2.285   2.463 -0.1153 -0.3202  0.2638
  497SOL    HW2 1987   1.487   2.248   2.608  2.1128  0.2780  2.1673
  497SOL     MW 1988   1.515   2.297   2.546  0.5632 -0.1324  0.8607
  498SOL     OW 1989   1.564   2.711   2.265 -0.7620 -0.4171  0.5520
  498SOL    HW1 1990   1.569   2.634   2.216  1.1793  1.8853  1.8068
  498SOL    HW2 1991   1.634   2.700   2.325 -0.8015 -2.2673 -2.8385
  498SOL     MW 1992   1.574   2.700   2.267 -0.5111 -0.3574  0.2702
  499SOL     OW 1993   0.916   0.169   0.001 -0.3123 -0.0170  0.1930
  499SOL    HW1 1994   0.841   0.203   0.043  0.1351  0.0011  1.1913
  499SOL    HW2 1995   0.904   0.075   0.010  0.4533  4.7859  1.4071
  499SOL     MW 1996   0.904   0.161   0.007 -0.1523  0.6191  0.4849
  500SOL     OW 1997   1.004   2.436   2.800  0.1961 -0.3560  0.2113
  500SOL    HW1 1998   1.065   2.417   2.869  0.6436 -2.2447  0.8711
  500SOL    HW2 1999   0.981   2.528   2.822  0.3244  0.8144  0.2443
  500SOL     MW 2000   1.009   2.446   2.812  0.2721 -0.4508  0.3027
  501SOL     OW 2001   1.750   2.249   3.077 -0.1182  0.4831  0.1753
  501SOL    HW1 2002   1.708   2.332   3.101  1.3433  2.0367  1.5234
  501SOL    HW2 2003   1.836   2.238   3.123 -0.7402 -1.5096 -1.1553
  501SOL     MW 2004   1.756   2.258   3.086 -0.0074  0.4251  0.1776
  502SOL     OW 2005   0.112   2.816   2.943 -0.1000  0.5643  0.2774
  502SOL    HW1 2006   0.029   2.765   2.924 -0.2250  0.0713 -2.1648
  502SOL    HW2 2007   0.119   2.874   2.865  0.0495  0.5393  3.0968
  502SOL     MW 2008   0.102   2.817   2.930 -0.0967  0.4960  0.3272
  503SOL     OW 2009   1.144   2.615   2.053  0.4273  0.0323 -0.1987
  503SOL    HW1 2010   1.206   2.623   1.986  0.3910  0.6040  3.2397
  503SOL    HW2 2011   1.058   2.613   2.006 -0.8011 -2.2489  0.4846
  503SOL     MW 2012   1.141   2.616   2.038  0.2605 -0.1933  0.3451
  504SOL     OW 2013   0.100   2.648   2.046  0.1955  0.1684 -0.0010
  504SOL    HW1 2014   0.172   2.585   2.045 -1.1190 -1.9207 -0.2338
  504SOL    HW2 2015   0.040   2.614   2.110 -1.7265 -0.1617 -0.3317
  504SOL     MW 2016   0.101   2.635   2.054 -0.2315 -0.1508 -0.0753
  505SOL     OW 2017   1.643   2.669   2.730 -0.1482 -0.1222  0.2529
  505SOL    HW1 2018   1.695   2.660   2.646  0.3749  0.6632  0.9191
  505SOL    HW2 2019   1.603   2.760   2.723  0.9950  0.7253  1.4352
  505SOL     MW 2020   1.645   2.680   2.718  0.0716  0.0932  0.4968
  506SOL     OW 2021   1.639   0.024   2.861  0.0440  0.5381 -0.1258
  506SOL    HW1 2022   1.635  -0.028   2.947  1.5224  1.7181  0.3413
  506SOL    HW2 2023   1.670  -0.039   2.790  0.8320 -0.5928 -2.8001
  506SOL     MW 2024   1.643   0.008   2.863  0.3430  0.5446 -0.4171
  507SOL     OW 2025   0.914   2.687   2.865  0.2589  0.1531 -0.4003
  507SOL    HW1 2026   0.950   2.757   2.808  0.7272  1.2964 -0.3285
  507SOL    HW2 2027   0.839   2.656   2.816  2.4807  0.0734 -1.2430
  507SOL     MW 2028   0.909   2.692   2.851  0.6138  0.2934 -0.5020
  508SOL     OW 2029   1.242   2.108   2.528 -0.0555 -0.2316 -0.2160
  508SOL    HW1 2030   1.305   2.113   2.601 -0.8214  1.0590 -0.2254
  508SOL    HW2 2031   1.182   2.188   2.535  2.4021 -3.7396 -0.2900
  508SOL     MW 2032   1.242   2.119   2.538  0.1677 -0.5242 -0.2270
  509SOL     OW 2033   0.652   2.612   2.789  0.7943 -0.9057  0.1420
  509SOL    HW1 2034   0.637   2.545   2.727 -4.1479  3.9218  1.3918
  509SOL    HW2 2035   0.622   2.695   2.745 -0.3264 -3.0263 -0.7662
  509SOL     MW 2036   0.646   2.614   2.775 -0.0057 -0.5485  0.1871
  510SOL     OW 2037   1.567   2.603   1.629 -0.2180 -0.1843 -0.3407
  510SOL    HW1 2038   1.563   2.694   1.613 -0.3595  0.4672  1.7071
  510SOL    HW2 2039   1.512   2.595   1.714  3.1676 -0.4585 -2.4314
  510SOL     MW 2040   1.559   2.614   1.638  0.2100 -0.1345 -0.3464
  511SOL     OW 2041   0.397   2.615   2.509  0.3753  0.0177 -0.3599
  511SOL    HW1 2042   0.474   2.563   2.518  2.2020 -1.6889 -0.9780
  511SOL    HW2 2043   0.385   2.615   2.411 -0.7555 -0.4329 -0.1635
  511SOL     MW 2044   0.406   2.608   2.497  0.4671 -0.2669 -0.4155
  512SOL     OW 2045   0.987   2.028   2.886  0.1177 -0.1001 -0.1466
  512SOL    HW1 2046   0.904   2.079   2.888 -0.2309  0.5167 -0.4917
  512SOL    HW2 2047   1.000   1.951   2.941 -0.9511 -0.7279 -1.1418
  512SOL     MW 2048   0.978   2.025   2.893 -0.0693 -0.1016 -0.3235
  513SOL     OW 2049   1.665   2.460   2.200 -0.9396  0.1408  0.1693
  513SOL    HW1 2050   1.746   2.510   2.160  2.2462 -0.1137 -0.5422
  513SOL    HW2 2051   1.685   2.422   2.288  1.0225 -2.2292 -2.0492
  513SOL     MW 2052   1.679   2.462   2.206 -0.2604 -0.2055 -0.2173
  514SOL     OW 2053   0.252   2.418   2.675  0.0417  0.7440 -0.4882
  514SOL    HW1 2054   0.296   2.501   2.667  1.3949 -2.3654  1.2808
  514SOL    HW2 2055   0.289   2.383   2.756  0.6653  0.0113 -1.1167
  514SOL     MW 2056   0.262   2.424   2.684  0.3025  0.2370 -0.3377
  515SOL     OW 2057   1.069   2.070   1.936  0.0241 -0.0729 -0.0616
  515SOL    HW1 2058   1.027   2.147   1.906 -1.3680 -2.3168  2.2243
  515SOL    HW2 2059   1.115   2.096   2.019  0.9259  0.0944  0.0335
  515SOL     MW 2060   1.070   2.084   1.943 -0.0406 -0.3469  0.2526
  516SOL     OW 2061   1.402   2.480   2.980 -0.3959 -0.8713  0.3354
  516SOL    HW1 2062   1.412   2.489   2.885  1.3230  1.2535 -0.3666
  516SOL    HW2 2063   1.304   2.490   2.994 -1.1644  4.3392  1.5413
  516SOL     MW 2064   1.390   2.483   2.970 -0.2705  0.0966  0.4019
  517SOL     OW 2065   0.589   2.401   2.268 -0.6221  0.2003  0.2274
  517SOL    HW1 2066   0.551   2.476   2.229 -1.5811 -1.5762  0.1349
  517SOL    HW2 2067   0.544   2.319   2.234 -1.1399 -4.3102 -1.8197
  517SOL     MW 2068   0.578   2.400   2.258 -0.8169 -0.6292 -0.0549
  518SOL     OW 2069   1.857   0.059   0.022  0.5078  0.5596  0.3447
  518SOL    HW1 2070   1.814   0.138   0.053  0.2516 -1.4998  1.9837
  518SOL    HW2 2071   1.791  -0.015   0.004 -3.2179  0.4059 -0.5927
  518SOL     MW 2072   1.842   0.060   0.023 -0.0176  0.2676  0.4372
  519SOL     OW 2073   0.714   2.514   1.722  0.0014 -0.1658  0.3052
  519SOL    HW1 2074   0.718   2.416   1.696 -1.2281 -2.4262 -0.4726
  519SOL    HW2 2075   0.627   2.516   1.767 -1.6907 -0.8934 -1.1220
  519SOL     MW 2076   0.703   2.501   1.725 -0.3841 -0.5601  0.0143
  520SOL     OW 2077   1.200   2.202   2.938 -0.4533 -0.0361 -0.6072
  520SOL    HW1 2078   1.131   2.132   2.925 -2.4476 -0.5294  2.2570
  520SOL    HW2 2079   1.259   2.158   3.003  3.2351  2.3660 -0.1093
  520SOL     MW 2080   1.198   2.187   2.945 -0.2298  0.2157 -0.1636
  521SOL     OW 2081   1.751   2.035   2.220  0.0007  0.1160 -0.1551
  521SOL    HW1 2082   1.762   2.063   2.128 -2.1522  0.4954  1.9471
  521SOL    HW2 2083   1.733   1.942   2.216  0.9543 -0.0762 -1.0299
  521SOL     MW 2084   1.750   2.027   2.207 -0.1575  0.1407  0.0069
  522SOL     OW 2085   2.921   2.518   2.286  0.1050  0.1299  0.1358
  522SOL    HW1 2086   3.011   2.482   2.293  0.1896  1.9512  0.4012
  522SOL    HW2 2087   2.944   2.606   2.277 -1.5027 -1.2245 -1.6877
  522SOL     MW 2088   2.936   2.525   2.285 -0.0960  0.1915 -0.0697
  523SOL     OW 2089   0.911   1.493   2.119  0.2340 -0.3926 -0.1074
  523SOL    HW1 2090   0.884   1.545   2.037 -1.2344 -0.6520  1.1873
  523SOL    HW2 2091   0.957   1.424   2.072 -1.7048 -1.1987 -1.9658
  523SOL     MW 2092   0.913   1.491   2.102 -0.2155 -0.5332 -0.1818
  524SOL     OW 2093   0.589   2.392   2.950  0.0884  0.1380  0.2477
  524SOL    HW1 2094   0.624   2.472   2.907  1.9517  0.4360 -1.3728
  524SOL    HW2 2095   0.665   2.324   2.949  2.4505 -1.5612 -0.1862
  524SOL     MW 2096   0.604   2.394   2.944  0.6459 -0.0469 -0.0234
  525SOL     OW 2097   0.453   2.221   2.123 -0.0836  0.7095 -0.6429
  525SOL    HW1 2098   0.406   2.157   2.180 -0.8455 -1.7839 -0.3077
  525SOL    HW2 2099   0.526   2.183   2.076 -1.5790 -0.7595  0.5121
  525SOL     MW 2100   0.457   2.208   2.124 -0.3814  0.1867 -0.4463
  526SOL     OW 2101   0.696   2.124   1.993 -0.2480  0.5122 -0.1038
  526SOL    HW1 2102   0.687   2.121   1.904  0.6350 -0.6947 -1.1202
  526SOL    HW2 2103   0.764   2.178   2.021 -1.0346 -3.7904 -0.0204
  526SOL     MW 2104   0.703   2.131   1.985 -0.2353 -0.2147 -0.2269
  527SOL     OW 2105   1.323   1.962   2.090 -0.0690  0.2457  0.5553
  527SOL    HW1 2106   1.326   1.937   2.178 -1.1742  0.0846 -0.9615
  527SOL    HW2 2107   1.356   1.894   2.035 -0.9343  1.2347 -1.5717
  527SOL     MW 2108   1.328   1.950   2.094 -0.3290  0.3549  0.0745
  528SOL     OW 2109   0.679   2.927   2.930 -0.2299  0.7378  0.1899
  528SOL    HW1 2110   0.669   3.023   2.940  1.4228  1.9082  2.2977
  528SOL    HW2 2111   0.649   2.916   2.832 -1.9233 -0.7417 -0.8059
  528SOL     MW 2112   0.674   2.938   2.918 -0.2353  0.6970  0.3366
  529SOL     OW 2113   0.953   2.320   1.876  0.4593 -0.5337 -1.1503
  529SOL    HW1 2114   0.997   2.347   1.957  3.2632  0.7465 -0.8306
  529SOL    HW2 2115   1.025   2.352   1.815 -0.0053 -3.2274  1.0440
  529SOL     MW 2116   0.969   2.328   1.878  0.7680 -0.7202 -0.8186
  530SOL     OW 2117   1.148   2.464   3.053  0.5246  0.2110 -0.5456
  530SOL    HW1 2118   1.051   2.477   3.073 -0.9613 -3.4621  2.9671
  530SOL    HW2 2119   1.149   2.374   3.029 -0.6410 -0.0862  0.3680
  530SOL     MW 2120   1.136   2.454   3.053  0.1748 -0.3129  0.0384
  531SOL     OW 2121   0.988   1.910   2.642  0.6090  0.3037 -0.3720
  531SOL    HW1 2122   1.001   1.956   2.726 -1.5023 -1.5682 -1.6913
  531SOL    HW2 2123   0.952   1.820   2.655 -1.9951 -0.1909  0.2612
  531SOL     MW 2124   0.985   1.904   2.655 -0.0131 -0.0086 -0.4626
  532SOL     OW 2125   1.708   0.296   2.845  0.2512 -0.3073  0.3507
  532SOL    HW1 2126   1.693   0.205   2.860 -0.0650 -1.9521 -1.1576
  532SOL    HW2 2127   1.814   0.299   2.850  0.9061  1.4357 -1.7877
  532SOL     MW 2128   1.720   0.284   2.848  0.2959 -0.2944 -0.1305
  533SOL     OW 2129   1.774   2.636   2.986 -0.3519  0.3616  0.1664
  533SOL    HW1 2130   1.719   2.579   3.041 -0.2736 -1.7163 -0.4300
  533SOL    HW2 2131   1.732   2.639   2.892 -1.8201 -1.8226 -1.8822
  533SOL     MW 2132   1.761   2.629   2.981 -0.5353 -0.2007 -0.1826
  534SOL     OW 2133   1.781   2.364   2.469 -0.2376 -0.3970 -0.0371
  534SOL    HW1 2134   1.695   2.337   2.505 -1.8317 -1.7072  0.6101
  534SOL    HW2 2135   1.844   2.349   2.551  1.1207 -4.6423  0.4719
  534SOL     MW 2136   1.778   2.359   2.484 -0.2687 -1.1300  0.1155
  535SOL     OW 2137   1.835   2.322   1.954  0.0458  0.1082 -0.1428
  535SOL    HW1 2138   1.776   2.333   1.878  0.1971 -0.0242 -1.3978
  535SOL    HW2 2139   1.915   2.355   1.908  0.7881  0.2872 -0.0534
  535SOL     MW 2140   1.838   2.328   1.938  0.1637  0.1143 -0.2966
  536SOL     OW 2141   0.463   1.832   2.014 -0.0103  0.3376 -0.0415
  536SOL    HW1 2142   0.470   1.842   1.917 -2.1823 -0.6622 -1.6524
  536SOL    HW2 2143   0.539   1.866   2.051 -0.4735 -0.0947  0.0926
  536SOL     MW 2144   0.474   1.838   2.006 -0.3580  0.1486 -0.2363
  537SOL     OW 2145   1.110   0.206   2.893 -0.1357  0.4573 -0.3788
  537SOL    HW1 2146   1.029   0.181   2.939 -2.2824  0.6035  1.8158
  537SOL    HW2 2147   1.115   0.304   2.894 -0.1787 -1.3642  2.4242
  537SOL     MW 2148   1.100   0.216   2.900 -0.4246  0.2363  0.2806
  538SOL     OW 2149   1.372   0.070   2.971  0.5232  0.1012 -0.0421
  538SOL    HW1 2150   1.315   0.140   2.938  0.3033  0.7742 -0.0589
  538SOL    HW2 2151   1.451   0.072   2.918  0.4826 -0.2296  1.5881
  538SOL     MW 2152   1.375   0.079   2.960  0.4889  0.1464  0.1708
  539SOL     OW 2153   0.766   2.758   2.525  0.1493 -0.2266  0.0293
  539SOL    HW1 2154   0.850   2.789   2.564  0.5204  0.9648  1.9238
  539SOL    HW2 2155   0.781   2.658   2.519 -0.3379 -0.6294  0.0068
  539SOL     MW 2156   0.779   2.749   2.530  0.1340 -0.1225  0.2763
  540SOL     OW 2157   0.343   2.291   2.890 -0.1907  0.2333  0.0507
  540SOL    HW1 2158   0.434   2.304   2.908 -1.7555  2.1337  3.3648
  540SOL    HW2 2159   0.308   2.233   2.958 -3.4035 -0.3115 -0.6074
  540SOL     MW 2160   0.351   2.285   2.901 -0.8211  0.4122  0.4012
  541SOL     OW 2161   0.151   2.910   2.192  0.2971 -0.1136 -0.4514
  541SOL    HW1 2162   0.157   2.844   2.123  0.4202 -0.5954 -1.2175
  541SOL    HW2 2163   0.178   2.866   2.276 -2.4603 -2.4652  0.9128
  541SOL     MW 2164   0.156   2.895   2.194 -0.0505 -0.4875 -0.3725
  542SOL     OW 2165   1.043   2.283   2.566  0.2994  0.8488  0.0604
  542SOL    HW1 2166   0.985   2.209   2.570 -1.1312 -1.6212 -1.0292
  542SOL    HW2 2167   1.039   2.320   2.654 -0.4769 -0.2601  0.0145
  542SOL     MW 2168   1.035   2.278   2.578  0.0082  0.3766 -0.0895
  543SOL     OW 2169   1.422   2.516   2.693  0.5021 -0.2292  0.8141
  543SOL    HW1 2170   1.449   2.442   2.630 -0.6118 -2.9834 -0.4553
  543SOL    HW2 2171   1.502   2.569   2.713  2.7521  1.3552 -1.0348
  543SOL     MW 2172   1.436   2.513   2.687  0.6520 -0.3835  0.4027
  544SOL     OW 2173   0.586   0.242   2.699  0.3210  0.2328  0.0079
  544SOL    HW1 2174   0.498   0.198   2.717  2.8588  2.3672  0.5700
  544SOL    HW2 2175   0.634   0.186   2.635 -0.8998 -0.8573  0.0200
  544SOL     MW 2176   0.581   0.229   2.693  0.4948  0.3706  0.0836
  545SOL     OW 2177   1.523   2.175   2.258 -0.0942  0.3407  0.2067
  545SOL    HW1 2178   1.499   2.183   2.166  0.5289  2.1175 -0.2978
  545SOL    HW2 2179   1.600   2.110   2.259  2.4749 -0.0467  0.2973
  545SOL     MW 2180   1.530   2.167   2.246  0.3270  0.5240  0.1521
  546SOL     OW 2181   2.958   2.042   0.113  0.0818 -0.1963 -0.0707
  546SOL    HW1 2182   2.954   2.107   0.034 -1.9929 -0.3827 -0.7293
  546SOL    HW2 2183   3.050   2.003   0.123  1.8588 -2.2262  2.6319
  546SOL     MW 2184   2.970   2.045   0.104  0.0425 -0.4887  0.1990
  547SOL     OW 2185   0.234   2.982   0.153  0.4476  0.0665 -0.3503
  547SOL    HW1 2186   0.238   3.042   0.084 -0.7987  2.3539 -2.3830
  547SOL    HW2 2187   0.249   2.894   0.115  1.7105 -0.4307 -0.8279
  547SOL     MW 2188   0.236   2.978   0.139  0.4498  0.3027 -0.6815
  548SOL     OW 2189   0.317   2.547   0.238 -0.4226 -0.1633  0.1282
  548SOL    HW1 2190   0.298   2.609   0.166  0.5216 -3.5349 -1.8002
  548SOL    HW2 2191   0.261   2.478   0.214  2.0957  0.5130 -0.7341
  548SOL     MW 2192   0.307   2.546   0.225  0.0342 -0.5189 -0.2400
  549SOL     OW 2193   0.768   1.879   2.112  0.5895  0.2769  0.9523
  549SOL    HW1 2194   0.761   1.970   2.065 -0.6752 -0.1909 -0.5755
  549SOL    HW2 2195   0.761   1.894   2.205  0.6713 -1.9898 -0.1790
  549SOL     MW 2196   0.766   1.893   2.118  0.4335 -0.0839  0.6014
  550SOL     OW 2197   1.812   1.744   2.512 -0.1687 -0.2254  0.1209
  550SOL    HW1 2198   1.778   1.751   2.428  0.7088  0.3310  0.4074
  550SOL    HW2 2199   1.798   1.832   2.545 -0.7276  1.4529  1.3995
  550SOL     MW 2200   1.806   1.757   2.505 -0.1267  0.0695  0.3274
  551SOL     OW 2201   0.900   2.343   0.217  0.4468 -0.5095 -0.4563
  551SOL    HW1 2202   0.999   2.348   0.219  1.9676 -0.1673  0.8498
  551SOL    HW2 2203   0.878   2.290   0.141  0.5853  0.2722 -2.5673
  551SOL     MW 2204   0.910   2.337   0.208  0.6657 -0.3612 -0.5625
  552SOL     OW 2205   1.741   1.764   2.230 -0.1649 -0.5644  0.4017
  552SOL    HW1 2206   1.659   1.723   2.256  0.9259 -3.7105  0.9461
  552SOL    HW2 2207   1.765   1.724   2.143  1.2397 -2.8952 -4.2147
  552SOL     MW 2208   1.734   1.753   2.222  0.1644 -1.2870 -0.1356
  553SOL     OW 2209   1.234   2.321   1.488 -0.0608 -0.1571 -0.2674
  553SOL    HW1 2210   1.268   2.230   1.472 -3.1320 -3.0607 -1.6223
  553SOL    HW2 2211   1.310   2.374   1.484  1.8914 -1.6804  0.3684
  553SOL     MW 2212   1.248   2.316   1.486 -0.2085 -0.7412 -0.3623
  554SOL     OW 2213   0.583   2.867   2.679 -0.5474  0.2362 -0.0908
  554SOL    HW1 2214   0.505   2.914   2.644  1.7235  0.7288  0.0870
  554SOL    HW2 2215   0.631   2.825   2.605  1.1597  0.1662 -1.0088
  554SOL     MW 2216   0.579   2.868   2.665 -0.0225  0.2919 -0.1884
  555SOL     OW 2217   0.600   2.439   2.582 -0.3753 -0.6184  0.1594
  555SOL    HW1 2218   0.564   2.343   2.581  1.5726 -2.1842  0.8078
  555SOL    HW2 2219   0.691   2.441   2.547  4.0974 -0.6883 -1.2333
  555SOL     MW 2220   0.607   2.427   2.578  0.4718 -0.8342  0.0612
  556SOL     OW 2221   0.930   1.775   0.164 -0.7011 -0.4705 -0.6878
  556SOL    HW1 2222   0.951   1.743   0.077 -0.0896 -1.0733  0.9757
  556SOL    HW2 2223   1.007   1.822   0.197 -0.2900 -1.5216  0.0315
  556SOL     MW 2224   0.943   1.777   0.157 -0.5662 -0.6887 -0.3735
  557SOL     OW 2225   0.969   2.711   0.505  0.3406 -0.2434 -0.5610
  557SOL    HW1 2226   0.991   2.669   0.426  0.0018  0.7989  1.7577
  557SOL    HW2 2227   0.899   2.767   0.473 -2.1621 -0.2683 -2.6725
  557SOL     MW 2228   0.963   2.713   0.490 -0.0343 -0.1092 -0.5336
  558SOL     OW 2229   0.261   2.149   0.030  0.4264  0.2195 -0.5936
  558SOL    HW1 2230   0.208   2.077   0.060  1.6210  0.1744 -0.0976
  558SOL    HW2 2231   0.230   2.223   0.083  0.5867  1.7250 -1.1175
  558SOL     MW 2232   0.250   2.149   0.041  0.6052  0.4122 -0.5973
  559SOL     OW 2233   1.119   2.316   2.102 -0.1228  0.3641  0.6198
  559SOL    HW1 2234   1.166   2.389   2.134  0.4198 -0.0601 -2.7586
  559SOL    HW2 2235   1.111   2.243   2.172  0.8466 -0.2788  1.0966
  559SOL     MW 2236   1.124   2.316   2.116  0.0767  0.2233  0.2370
  560SOL     OW 2237   1.918   2.864   0.068 -0.1217 -0.2332  0.4856
  560SOL    HW1 2238   1.994   2.910   0.025  0.9184  1.1456  0.3841
  560SOL    HW2 2239   1.899   2.779   0.031 -0.5919 -0.5091  2.8539
  560SOL     MW 2240   1.925   2.859   0.057 -0.0465 -0.0877  0.7847
  561SOL     OW 2241   0.456   2.124   0.243  0.3460  0.0920  0.3732
  561SOL    HW1 2242   0.390   2.118   0.168  0.4598 -0.5058 -0.3233
  561SOL    HW2 2243   0.487   2.218   0.248 -6.1806 -1.6122 -1.2310
  561SOL     MW 2244   0.451   2.136   0.234 -0.5001 -0.2118  0.0697
  562SOL     OW 2245   0.846   2.180   2.224 -0.2093  0.1576  0.2351
  562SOL    HW1 2246   0.889   2.263   2.218 -2.3042 -0.4672 -1.6025
  562SOL    HW2 2247   0.914   2.117   2.257 -0.6385  0.3773 -0.4258
  562SOL     MW 2248   0.861   2.183   2.227 -0.5423  0.1041 -0.0945
  563SOL     OW 2249   1.134   0.309   0.641 -0.0262  0.0766 -0.4834
  563SOL    HW1 2250   1.068   0.294   0.571 -2.4628 -1.0619  1.0406
  563SOL    HW2 2251   1.199   0.236   0.642  0.5910  0.0071  1.0314
  563SOL     MW 2252   1.134   0.297   0.632 -0.2663 -0.0828 -0.0825
  564SOL     OW 2253   1.066   2.541   2.319 -0.1249  0.2520 -0.4780
  564SOL    HW1 2254   1.096   2.579   2.229  0.8687 -0.0172  0.3783
  564SOL    HW2 2255   1.140   2.547   2.381 -0.9846 -0.9006 -0.8670
  564SOL     MW 2256   1.080   2.547   2.315 -0.1072  0.0644 -0.4163
  565SOL     OW 2257   2.878   2.691   2.609  0.2505  0.3945  0.3836
  565SOL    HW1 2258   2.933   2.763   2.588 -0.1826  2.5292  5.4295
  565SOL    HW2 2259   2.808   2.680   2.543 -2.6182 -0.4235 -0.2115
  565SOL     MW 2260   2.876   2.699   2.598 -0.1852  0.5682  0.9708
  566SOL     OW 2261   2.158   1.854   2.430  0.0122  0.6569 -0.1516
  566SOL    HW1 2262   2.167   1.775   2.380 -1.5750  0.6165 -0.4417
  566SOL    HW2 2263   2.231   1.915   2.407 -1.3405 -2.2427  0.3462
  566SOL     MW 2264   2.169   1.852   2.420 -0.3756  0.2690 -0.1242
  567SOL     OW 2265   1.127   2.963   3.023 -0.1238  0.2033 -0.6034
  567SOL    HW1 2266   1.199   3.025   3.048  2.4288  1.4875  2.2213
  567SOL    HW2 2267   1.159   2.875   3.010 -0.9406  1.1065 -3.2195
  567SOL     MW 2268   1.140   2.959   3.025  0.1053  0.4919 -0.5759
  568SOL     OW 2269   1.598   2.065   2.920  0.3039  0.9957 -0.0216
  568SOL    HW1 2270   1.661   2.125   2.947  0.8986 -2.3747 -1.4840
  568SOL    HW2 2271   1.650   2.024   2.850  0.3561  0.1008 -0.7196
  568SOL     MW 2272   1.613   2.067   2.914  0.3892  0.4329 -0.3066
  569SOL     OW 2273   0.207   2.235   2.462 -0.1124  0.1631  0.1167
  569SOL    HW1 2274   0.161   2.286   2.393  1.2007 -0.8969  2.8317
  569SOL    HW2 2275   0.204   2.301   2.535 -1.2292 -1.8171  3.6347
  569SOL     MW 2276   0.200   2.251   2.462 -0.0865 -0.2380  0.9391
  570SOL     OW 2277   1.481   0.437   0.482 -0.4856 -0.0756  0.4061
  570SOL    HW1 2278   1.417   0.432   0.551  1.3301 -0.3340 -0.0575
  570SOL    HW2 2279   1.566   0.448   0.522  0.6308  0.8231  1.0871
  570SOL     MW 2280   1.484   0.438   0.496 -0.0988  0.0089  0.4347
  571SOL     OW 2281   1.494   2.402   1.999 -0.2590 -0.1710 -0.4308
  571SOL    HW1 2282   1.564   2.416   2.066  0.2071  0.6621  1.7418
  571SOL    HW2 2283   1.498   2.311   1.969  1.5131 -2.8409  0.4202
  571SOL     MW 2284   1.504   2.392   2.004  0.0363 -0.4133 -0.0319
  572SOL     OW 2285   0.922   2.583   0.019 -0.0055 -0.7082  0.2607
  572SOL    HW1 2286   0.907   2.639  -0.055  0.5633 -2.5988  1.1490
  572SOL    HW2 2287   0.833   2.560   0.047 -0.2227  1.1513  1.0899
  572SOL     MW 2288   0.908   2.588   0.013  0.0409 -0.7123  0.4873
  573SOL     OW 2289   1.158   2.373   0.263  0.5560 -0.0481 -0.1014
  573SOL    HW1 2290   1.247   2.364   0.221 -1.2189  1.5309  1.8091
  573SOL    HW2 2291   1.138   2.464   0.269  0.8913  1.5665  0.8934
  573SOL     MW 2292   1.167   2.384   0.258  0.3661  0.3733  0.2819
  574SOL     OW 2293   1.063   2.617   0.264  0.0426  0.3686 -0.4892
  574SOL    HW1 2294   1.138   2.679   0.258  0.1123 -1.4696  0.0003
  574SOL    HW2 2295   1.012   2.607   0.186  0.6301  0.2125  0.8170
  574SOL     MW 2296   1.066   2.624   0.253  0.1293  0.1055 -0.2522
  575SOL     OW 2297   3.094   2.309   1.783  0.1186 -0.0484 -0.3515
  575SOL    HW1 2298   3.099   2.228   1.723  0.8909 -1.8855  2.1919
  575SOL    HW2 2299   3.158   2.373   1.750 -0.4650  2.6423  1.8334
  575SOL     MW 2300   3.103   2.307   1.771  0.1435  0.0643  0.2724
  576SOL     OW 2301   2.885   1.804   2.031  0.3055  0.2449 -0.0547
  576SOL    HW1 2302   2.909   1.886   1.979  0.4551  0.4216 -0.7752
  576SOL    HW2 2303   2.824   1.759   1.974  0.1074  0.7114 -0.0516
  576SOL     MW 2304   2.880   1.809   2.016  0.2991  0.3297 -0.1494
  577SOL     OW 2305   2.136   0.262   0.057  0.1081 -0.4387  0.0036
  577SOL    HW1 2306   2.085   0.290  -0.017 -1.6504 -2.0616  1.1472
  577SOL    HW2 2307   2.068   0.210   0.117 -0.8402 -2.5727  0.8951
  577SOL     MW 2308   2.120   0.259   0.055 -0.2491 -0.9344  0.2721
  578SOL     OW 2309   1.913   2.050   2.446 -0.3164 -0.3815 -0.5629
  578SOL    HW1 2310   1.873   2.066   2.365  2.7676  0.4267  0.2928
  578SOL    HW2 2311   1.980   1.988   2.421 -0.1291  1.8987 -1.7507
  578SOL     MW 2312   1.917   2.044   2.432  0.1153  0.0260 -0.6067
  579SOL     OW 2313   0.876   2.481   2.500  0.2557  0.3847 -0.2904
  579SOL    HW1 2314   0.916   2.406   2.545 -1.0437 -0.6162  1.6491
  579SOL    HW2 2315   0.943   2.501   2.432 -0.5265  2.8912 -1.1163
  579SOL     MW 2316   0.890   2.474   2.497 -0.0189  0.5834 -0.1434
  580SOL     OW 2317   0.870   2.990   0.018  0.7542  0.0669  0.0681
  580SOL    HW1 2318   0.964   2.979  -0.002 -0.5386  0.6658  1.5582
  580SOL    HW2 2319   0.833   2.940  -0.054  0.3353 -1.9401  2.1886
  580SOL     MW 2320   0.877   2.982   0.006  0.5284 -0.1189  0.5445
  581SOL     OW 2321   1.130   2.459   1.705  0.1702  0.0510  0.2477
  581SOL    HW1 2322   1.194   2.522   1.722 -1.0244  0.1798  0.1668
  581SOL    HW2 2323   1.149   2.415   1.621 -0.8729 -0.0817  0.3985
  581SOL     MW 2324   1.141   2.461   1.696 -0.1251  0.0505  0.2569
  582SOL     OW 2325   3.078   2.872   2.522 -0.3747 -0.1061  0.4187
  582SOL    HW1 2326   3.041   2.954   2.562  2.0555 -0.9872 -0.8863
  582SOL    HW2 2327   3.173   2.868   2.546 -1.3833 -0.3746  1.4216
  582SOL     MW 2328   3.086   2.882   2.531 -0.1871 -0.2578  0.3788
  583SOL     OW 2329   1.971   2.381   2.649  0.4926 -0.1893  0.3433
  583SOL    HW1 2330   2.046   2.412   2.599  2.5613 -0.9746  1.7182
  583SOL    HW2 2331   1.997   2.298   2.694 -1.5588 -0.3546  0.0174
  583SOL     MW 2332   1.984   2.374   2.649  0.4949 -0.3148  0.4817
  584SOL     OW 2333   0.183   1.892   2.119 -0.7494 -0.5602  0.1452
  584SOL    HW1 2334   0.271   1.903   2.073  0.5327 -0.0180 -0.6372
  584SOL    HW2 2335   0.222   1.896   2.205 -1.4980  0.5152 -1.2213
  584SOL     MW 2336   0.200   1.894   2.125 -0.6790 -0.3468 -0.1383
  585SOL     OW 2337   1.439   2.655   0.102 -0.1507  0.1504  0.4848
  585SOL    HW1 2338   1.404   2.601   0.035  0.1744 -4.7178  0.7697
  585SOL    HW2 2339   1.363   2.692   0.151 -0.8559 -0.0941  1.5471
  585SOL     MW 2340   1.425   2.653   0.099 -0.2009 -0.5242  0.6625
  586SOL     OW 2341   1.413   2.816   2.480  0.1509 -0.2566  0.3690
  586SOL    HW1 2342   1.455   2.774   2.405 -1.7795 -3.7508 -1.6620
  586SOL    HW2 2343   1.426   2.912   2.456  3.1641  0.2746 -2.3949
  586SOL     MW 2344   1.420   2.823   2.467  0.2937 -0.6476 -0.2637
  587SOL     OW 2345   1.300   1.565   2.182 -0.0205 -0.0718  0.2727
  587SOL    HW1 2346   1.290   1.494   2.247  0.4413  1.4922  0.6014
  587SOL    HW2 2347   1.327   1.517   2.104  0.1661 -3.1464  1.3174
  587SOL     MW 2348   1.302   1.550   2.180  0.0650 -0.2711  0.4539
  588SOL     OW 2349   1.383   2.137   2.748  0.1057  0.0774 -0.1275
  588SOL    HW1 2350   1.453   2.106   2.805 -1.1229  1.0882 -0.4221
  588SOL    HW2 2351   1.324   2.143   2.822 -2.2814 -1.4746  1.0767
  588SOL     MW 2352   1.385   2.134   2.765 -0.3714  0.0060 -0.0075
  589SOL     OW 2353   1.305   2.069   0.065 -0.5866 -0.3265  0.0186
  589SOL    HW1 2354   1.342   2.143   0.115 -1.7290  1.6607  0.6386
  589SOL    HW2 2355   1.259   2.015   0.130 -0.1137  0.0892  0.8023
  589SOL     MW 2356   1.304   2.072   0.080 -0.6749 -0.0094  0.2038
  590SOL     OW 2357   0.444   2.662   2.242 -0.0481  0.7974 -0.7885
  590SOL    HW1 2358   0.424   2.665   2.143  1.2810 -0.5456 -0.2307
  590SOL    HW2 2359   0.506   2.738   2.245  2.7101 -0.3964 -0.4628
  590SOL     MW 2360   0.450   2.672   2.229  0.4912  0.4627 -0.6720
  591SOL     OW 2361   2.283   0.729   3.068 -0.5048 -0.1438  0.3629
  591SOL    HW1 2362   2.218   0.791   3.021  2.1456 -0.1546 -1.5305
  591SOL    HW2 2363   2.370   0.745   3.030  2.7209  1.0312  0.0274
  591SOL     MW 2364   2.286   0.740   3.057  0.2705  0.0098  0.0688
  592SOL     OW 2365   1.803   2.929   0.828  0.2127 -0.1625 -0.1787
  592SOL    HW1 2366   1.813   2.996   0.761 -1.9617  0.1836  0.2141
  592SOL    HW2 2367   1.876   2.869   0.816  0.8959 -0.4046  1.4038
  592SOL     MW 2368   1.814   2.930   0.818  0.0159 -0.1488  0.0819
  593SOL     OW 2369   1.897   0.708   0.890  0.0206 -0.6241  0.0653
  593SOL    HW1 2370   1.830   0.724   0.823  0.2295  0.4462  0.5188
  593SOL    HW2 2371   1.900   0.613   0.901 -0.2446 -0.7069 -1.5834
  593SOL     MW 2372   1.888   0.697   0.883  0.0132 -0.4938 -0.0924
  594SOL     OW 2373   2.784   1.169   1.345  0.3592 -0.0221  0.2846
  594SOL    HW1 2374   2.877   1.185   1.359  1.6934  0.9735  1.2466
  594SOL    HW2 2375   2.778   1.100   1.277  0.1619 -0.9626 -0.0792
  594SOL     MW 2376   2.796   1.162   1.338  0.5092 -0.0148  0.3635
  595SOL     OW 2377   0.499   0.970   0.760 -0.2751 -0.2725  0.2732
  595SOL    HW1 2378   0.508   1.045   0.695 -0.1344 -2.0569  1.3419
  595SOL    HW2 2379   0.481   1.013   0.845 -0.5294 -3.7628  3.4801
  595SOL     MW 2380   0.498   0.986   0.763 -0.2901 -0.9684  0.8373
  596SOL     OW 2381   2.495   1.356   0.533 -0.8313  0.1714  0.3730
  596SOL    HW1 2382   2.568   1.397   0.480  0.3355  0.4259 -4.1512
  596SOL    HW2 2383   2.536   1.327   0.619 -1.9216 -1.9650  1.3133
  596SOL     MW 2384   2.510   1.358   0.538 -0.8212 -0.0769 -0.0998
  597SOL     OW 2385   2.199   0.700   1.596 -0.1361  0.2993 -0.3391
  597SOL    HW1 2386   2.234   0.635   1.656  1.4053  1.1913  0.4364
  597SOL    HW2 2387   2.109   0.667   1.578  1.5826 -0.5136 -3.4268
  597SOL     MW 2388   2.191   0.687   1.602  0.2940  0.3097 -0.6441
  598SOL     OW 2389   2.604   0.975   2.857  0.3943  0.1871 -0.3678
  598SOL    HW1 2390   2.590   0.941   2.765 -0.3199 -0.3048 -2.6576
  598SOL    HW2 2391   2.689   1.013   2.868  0.4744  0.4346  0.6904
  598SOL     MW 2392   2.613   0.975   2.846  0.3107  0.1549 -0.5303
  599SOL     OW 2393   2.950   0.403   2.079  0.6451 -0.0210 -0.4816
  599SOL    HW1 2394   2.912   0.425   2.165 -0.2568 -1.4628  0.3341
  599SOL    HW2 2395   3.009   0.482   2.057 -0.3433  0.1878  0.3117
  599SOL     MW 2396   2.952   0.416   2.087  0.3957 -0.1837 -0.2693
  600SOL     OW 2397   1.921   1.735   0.875  0.5063 -0.7907 -0.6850
  600SOL    HW1 2398   1.948   1.765   0.962 -4.6620 -1.9113 -1.6899
  600SOL    HW2 2399   1.828   1.763   0.879  1.4429 -4.6915  2.7953
  600SOL     MW 2400   1.912   1.743   0.887 -0.0521 -1.4532 -0.3584
  601SOL     OW 2401   2.529   0.778   0.830  0.5716 -0.2772 -0.1552
  601SOL    HW1 2402   2.524   0.796   0.928  1.9719 -0.3521  3.3819
  601SOL    HW2 2403   2.463   0.709   0.797 -1.8352  1.4017 -0.0144
  601SOL     MW 2404   2.519   0.772   0.838  0.4388 -0.0655  0.3300
  602SOL     OW 2405   2.318   1.948   0.833  0.5764 -0.2388  0.1355
  602SOL    HW1 2406   2.288   1.858   0.854  0.1271  0.3095  1.1147
  602SOL    HW2 2407   2.243   1.985   0.789 -0.6675  1.5904  0.2295
  602SOL     MW 2408   2.304   1.941   0.830  0.3530  0.0749  0.2771
  603SOL     OW 2409   3.056   1.386   1.816 -0.1269  0.6884 -0.0927
  603SOL    HW1 2410   3.125   1.441   1.848  2.4341 -1.3088  0.4767
  603SOL    HW2 2411   3.041   1.317   1.883  0.1289 -1.8259 -0.5122
  603SOL     MW 2412   3.063   1.384   1.829  0.2448  0.0931 -0.0729
  604SOL     OW 2413   2.152   1.552   0.466  0.2199  0.1174 -0.1390
  604SOL    HW1 2414   2.194   1.476   0.512  2.0850  1.8644  1.4628
  604SOL    HW2 2415   2.079   1.577   0.521  2.4616 -3.2694 -2.5594
  604SOL     MW 2416   2.148   1.545   0.479  0.7617 -0.0990 -0.2470
  605SOL     OW 2417   2.628   1.548   0.827 -0.8854  0.3776  0.1032
  605SOL    HW1 2418   2.601   1.625   0.769 -0.0281  3.0078  0.6247
  605SOL    HW2 2419   2.575   1.471   0.802 -0.5998  1.5372  0.4380
  605SOL     MW 2420   2.618   1.548   0.816 -0.7346  0.8776  0.2162
  606SOL     OW 2421   2.598   1.854   1.896  0.0122  0.0594 -0.1799
  606SOL    HW1 2422   2.504   1.832   1.900 -0.8652 -1.0704  0.5992
  606SOL    HW2 2423   2.641   1.782   1.849 -1.1279 -2.4443  0.1861
  606SOL     MW 2424   2.591   1.841   1.890 -0.2540 -0.4200 -0.0288
  607SOL     OW 2425   2.352   1.030   3.047 -0.0316  0.2669 -0.2357
  607SOL    HW1 2426   2.440   0.998   3.019  1.3486 -1.6647  2.0111
  607SOL    HW2 2427   2.360   1.034   3.148  1.6556  1.6684  1.0975
  607SOL     MW 2428   2.364   1.026   3.057  0.3731  0.1969  0.2366
  608SOL     OW 2429   1.901   0.296   0.621  0.0421  0.2234  0.3486
  608SOL    HW1 2430   1.898   0.355   0.543  0.2407 -1.5343 -0.0321
  608SOL    HW2 2431   1.881   0.210   0.577 -2.9216  0.8273 -1.9401
  608SOL     MW 2432   1.898   0.293   0.605 -0.3228  0.0712 -0.0036
  609SOL     OW 2433   2.100   2.010   3.049 -0.3045 -0.1678 -0.3108
  609SOL    HW1 2434   2.019   1.962   3.053  1.3906 -0.0137 -0.0162
  609SOL    HW2 2435   2.142   1.971   3.129  1.3090  1.2509 -0.2017
  609SOL     MW 2436   2.095   1.998   3.060  0.1321  0.0397 -0.2576
  610SOL     OW 2437   1.779   1.023   1.262  0.5840  0.0893  0.1443
  610SOL    HW1 2438   1.800   0.942   1.217  1.1394  3.3308 -1.5861
  610SOL    HW2 2439   1.687   1.021   1.269  1.6266  0.7205 -0.5420
  610SOL     MW 2440   1.770   1.012   1.257  0.7948  0.6003 -0.1745
  611SOL     OW 2441   2.533   1.762   0.696  0.2708  0.2797  0.0989
  611SOL    HW1 2442   2.450   1.811   0.703  0.3388 -0.3060 -3.6650
  611SOL    HW2 2443   2.564   1.754   0.603 -1.3407 -1.1497  0.1154
  611SOL     MW 2444   2.526   1.767   0.685  0.0671  0.0138 -0.3955
  612SOL     OW 2445   2.803   2.832   0.393 -0.2881  0.2649  0.4169
  612SOL    HW1 2446   2.823   2.886   0.471  0.0663 -2.0966  1.5163
  612SOL    HW2 2447   2.886   2.791   0.366 -2.5737 -1.8613 -0.2486
  612SOL     MW 2448   2.816   2.834   0.400 -0.5429 -0.3272  0.4742
  613SOL     OW 2449   1.486   1.016   0.935  0.3268  0.6530  0.3863
  613SOL    HW1 2450   1.496   1.109   0.963  1.0037  0.2912 -1.3639
  613SOL    HW2 2451   1.503   0.968   1.015  0.1267  1.8165 -0.0592
  613SOL     MW 2452   1.489   1.022   0.950  0.3897  0.7588  0.0966
  614SOL     OW 2453   1.983   0.531   1.492  0.3918 -0.1273 -0.3101
  614SOL    HW1 2454   2.014   0.446   1.525  0.7371  0.0293  0.0318
  614SOL    HW2 2455   1.979   0.539   1.397  0.5426  1.7585 -0.2500
  614SOL     MW 2456   1.987   0.521   1.484  0.4573  0.1422 -0.2571
  615SOL     OW 2457   2.381   0.728   0.300 -0.1775 -0.3959  0.1208
  615SOL    HW1 2458   2.458   0.678   0.328  1.2136  0.3127 -0.6371
  615SOL    HW2 2459   2.354   0.704   0.210 -0.7938  0.5686 -1.5648
  615SOL     MW 2460   2.388   0.718   0.292 -0.0752 -0.1752 -0.2016
  616SOL     OW 2461   2.502   0.446   1.601 -0.2118  0.1585  0.0317
  616SOL    HW1 2462   2.466   0.358   1.575 -0.0467  0.7203 -0.6344
  616SOL    HW2 2463   2.485   0.498   1.523 -2.6301 -0.0915 -0.5227
  616SOL     MW 2464   2.495   0.441   1.587 -0.5091  0.1996 -0.1293
  617SOL     OW 2465   2.922   0.533   1.742  0.3347 -0.1278 -0.2010
  617SOL    HW1 2466   2.824   0.535   1.742 -0.1076  0.7916 -0.2994
  617SOL    HW2 2467   2.949   0.443   1.714 -3.4097  0.8438 -2.4901
  617SOL     MW 2468   2.913   0.522   1.738 -0.2177  0.1217 -0.5160
  618SOL     OW 2469   2.721   0.344   1.915  0.7319  0.0538 -0.5299
  618SOL    HW1 2470   2.675   0.414   1.871  0.7029  1.3070  1.0560
  618SOL    HW2 2471   2.801   0.379   1.952  0.0552 -0.1405 -1.7186
  618SOL     MW 2472   2.726   0.358   1.914  0.6388  0.1935 -0.4775
  619SOL     OW 2473   2.675   0.654   0.115  0.3748  0.2671 -0.1712
  619SOL    HW1 2474   2.713   0.733   0.152 -1.0761 -0.3932  2.7434
  619SOL    HW2 2475   2.664   0.597   0.190  1.1803 -0.1424 -1.8317
  619SOL     MW 2476   2.679   0.657   0.130  0.2897  0.1259 -0.0057
  620SOL     OW 2477   2.315   1.037   1.007 -0.1108  0.0449 -0.2691
  620SOL    HW1 2478   2.359   1.037   0.922 -2.5971 -4.5779 -0.5132
  620SOL    HW2 2479   2.241   0.986   0.986  0.2855 -0.0079  1.7888
  620SOL     MW 2480   2.311   1.030   0.993 -0.3866 -0.5720 -0.0298
  621SOL     OW 2481   1.491   2.130   1.952  0.8488  0.2943 -0.0205
  621SOL    HW1 2482   1.443   2.067   2.009  3.9916  1.5658  0.2184
  621SOL    HW2 2483   1.584   2.107   1.970 -0.9653  0.8500  1.3875
  621SOL     MW 2484   1.497   2.118   1.962  1.0241  0.5353  0.1968
  622SOL     OW 2485   2.596   0.161   0.277  0.5801 -0.3390  0.1879
  622SOL    HW1 2486   2.690   0.181   0.261 -1.7049 -1.5477 -1.0747
  622SOL    HW2 2487   2.597   0.068   0.292  2.6238  1.2159 -0.0965
  622SOL     MW 2488   2.609   0.151   0.277  0.5483 -0.2933 -0.0162
  623SOL     OW 2489   2.366   2.824   0.875 -0.0136  0.0798  0.0207
  623SOL    HW1 2490   2.436   2.896   0.871 -2.0818 -0.1716  0.8247
  623SOL    HW2 2491   2.303   2.851   0.946 -0.3941  1.0809  0.9850
  623SOL     MW 2492   2.367   2.837   0.884 -0.3367  0.1787  0.2540
  624SOL     OW 2493   2.164   1.734   3.006 -0.2709  0.4956  0.0955
  624SOL    HW1 2494   2.128   1.657   3.043  0.9248 -1.2136 -2.2052
  624SOL    HW2 2495   2.074   1.778   2.991  0.0135  2.0121 -0.3992
  624SOL     MW 2496   2.147   1.729   3.009 -0.0756  0.4701 -0.2733
  625SOL     OW 2497   2.206   1.980   1.119 -0.5142 -0.8169 -0.1161
  625SOL    HW1 2498   2.297   1.943   1.124  2.2068  1.0842  2.9276
  625SOL    HW2 2499   2.180   2.001   1.030  1.2220  0.4448  0.5742
  625SOL     MW 2500   2.214   1.978   1.108  0.0739 -0.3996  0.3765
  626SOL     OW 2501   0.242   1.611   2.373  0.7304  0.1500  0.1534
  626SOL    HW1 2502   0.246   1.512   2.374  2.3698 -0.5521  0.1165
  626SOL    HW2 2503   0.160   1.638   2.415  3.3908  0.5342 -0.4750
  626SOL     MW 2504   0.232   1.601   2.379  1.2977  0.1080  0.0656
  627SOL     OW 2505   2.455   0.783   2.650  0.3495  0.1503  0.0194
  627SOL    HW1 2506   2.414   0.869   2.631 -1.3323 -0.8546 -3.9191
  627SOL    HW2 2507   2.453   0.733   2.570 -2.0638 -2.0438  1.9329
  627SOL     MW 2508   2.449   0.788   2.637 -0.1908 -0.2717 -0.2478
  628SOL     OW 2509   2.308   1.352   1.383  0.5603  0.4137  0.3571
  628SOL    HW1 2510   2.267   1.294   1.313  1.8006 -0.1438  0.8694
  628SOL    HW2 2511   2.404   1.360   1.356 -0.8063  1.0483  1.8977
  628SOL     MW 2512   2.315   1.345   1.370  0.5436  0.4239  0.6280
  629SOL     OW 2513   1.866   0.552   1.200 -0.0129 -0.2495 -0.3896
  629SOL    HW1 2514   1.878   0.647   1.193 -0.2632  0.3237 -1.5755
  629SOL    HW2 2515   1.789   0.540   1.252 -1.6362 -0.4762 -0.9818
  629SOL     MW 2516   1.858   0.563   1.206 -0.2601 -0.2037 -0.6242
  630SOL     OW 2517   2.444   1.806   3.019  0.2209 -0.3291 -0.5927
  630SOL    HW1 2518   2.442   1.878   2.947 -0.0730 -0.7359 -2.3550
  630SOL    HW2 2519   2.353   1.785   3.043 -1.2544  1.6879  0.0423
  630SOL     MW 2520   2.432   1.813   3.012 -0.0125 -0.1166 -0.7414
  631SOL     OW 2521   1.951   1.841   1.584  0.0284  0.2859  0.1990
  631SOL    HW1 2522   1.992   1.770   1.637 -0.5908 -0.7028  1.5527
  631SOL    HW2 2523   1.948   1.799   1.501 -1.1203 -0.5498 -0.1766
  631SOL     MW 2524   1.956   1.826   1.580 -0.2049  0.0452  0.3281
  632SOL     OW 2525   0.148   2.016   1.474  0.2342 -0.4872 -0.1551
  632SOL    HW1 2526   0.084   2.030   1.547 -0.2537 -1.1242  3.3647
  632SOL    HW2 2527   0.170   1.925   1.479 -2.3047  1.4066 -0.7766
  632SOL     MW 2528   0.142   2.006   1.484 -0.1651 -0.3213  0.2273
  633SOL     OW 2529   2.600   0.545   0.368  0.0798 -0.6316  0.1612
  633SOL    HW1 2530   2.686   0.513   0.411  0.6554 -2.1843  2.3235
  633SOL    HW2 2531   2.532   0.499   0.413  0.7208 -1.6279 -2.5354
  633SOL     MW 2532   2.602   0.535   0.379  0.2403 -0.9679  0.0907
  634SOL     OW 2533   2.695   3.057   0.617  0.2201  0.2500  0.0635
  634SOL    HW1 2534   2.716   3.151   0.629 -0.3994  3.1324 -0.5159
  634SOL    HW2 2535   2.658   3.051   0.528  0.1838  0.7783 -1.2602
  634SOL     MW 2536   2.693   3.069   0.607  0.1336  0.7000 -0.1876
  635SOL     OW 2537   2.616   0.107   1.845 -0.0609  0.5429  0.0080
  635SOL    HW1 2538   2.667   0.044   1.789  0.1724 -3.6538 -0.6641
  635SOL    HW2 2539   2.662   0.192   1.849  1.8231  2.6636 -0.1255
  635SOL     MW 2540   2.629   0.110   1.838  0.2184  0.2690 -0.0983
  636SOL     OW 2541   2.918   1.665   1.130 -0.7434 -0.4934  0.1769
  636SOL    HW1 2542   2.827   1.696   1.129  0.2507 -0.5059 -0.1335
  636SOL    HW2 2543   2.975   1.744   1.115  2.9996 -0.9185 -1.7529
  636SOL     MW 2544   2.914   1.680   1.128 -0.1184 -0.5511 -0.1187
  637SOL     OW 2545   2.858   1.477   0.689  0.7605 -0.1730  0.5000
  637SOL    HW1 2546   2.932   1.536   0.699  0.0629  1.0221 -0.5533
  637SOL    HW2 2547   2.792   1.507   0.755 -0.9799  0.7669  0.7130
  637SOL     MW 2548   2.859   1.489   0.699  0.4388  0.1087  0.3891
  638SOL     OW 2549   2.787   0.475   0.560 -0.0240  0.0121  0.1654
  638SOL    HW1 2550   2.870   0.483   0.511  2.7651  1.6913 -0.0730
  638SOL    HW2 2551   2.800   0.537   0.629  0.5274 -0.2008  1.4939
  638SOL     MW 2552   2.799   0.484   0.562  0.4167  0.2055  0.3092
  639SOL     OW 2553   1.776   0.054   0.576  0.1169  0.0281  0.6903
  639SOL    HW1 2554   1.681   0.084   0.554 -0.9344 -0.8863  2.2814
  639SOL    HW2 2555   1.786  -0.028   0.522 -1.9780 -0.2633 -0.7378
  639SOL     MW 2556   1.765   0.047   0.566 -0.2982 -0.1310  0.7118
  640SOL     OW 2557   0.373   1.316   0.118  0.1426 -0.6834  0.2183
  640SOL    HW1 2558   0.403   1.342   0.030  0.4031 -1.1798 -1.0523
  640SOL    HW2 2559   0.312   1.243   0.103 -0.5300  1.1241  0.3483
  640SOL     MW 2560   0.369   1.310   0.104  0.0882 -0.5104  0.0678
  641SOL     OW 2561   2.211   0.417   0.324 -0.5120 -0.0459 -0.5343
  641SOL    HW1 2562   2.276   0.448   0.265 -0.6139  0.1541  0.8885
  641SOL    HW2 2563   2.223   0.320   0.328 -0.2511 -2.0689 -2.2577
  641SOL     MW 2564   2.221   0.408   0.317 -0.4910 -0.2864 -0.5740
  642SOL     OW 2565   0.054   3.084   0.584  0.1301  0.0294  0.3231
  642SOL    HW1 2566   0.018   3.173   0.562  3.3573  1.6603 -1.7242
  642SOL    HW2 2567  -0.028   3.027   0.591 -1.8780  0.0966 -0.1468
  642SOL     MW 2568   0.038   3.088   0.582  0.2909  0.2535 -0.0090
  643SOL     OW 2569   2.077   0.327   1.641 -0.3242  0.1756  0.0945
  643SOL    HW1 2570   2.017   0.294   1.702 -0.6241  2.0254 -1.1545
  643SOL    HW2 2571   2.067   0.257   1.579  0.5892  1.8124  0.6977
  643SOL     MW 2572   2.068   0.313   1.641 -0.2433  0.6356  0.0093
  644SOL     OW 2573   2.738   2.010   1.041 -0.2656  0.8606 -0.3802
  644SOL    HW1 2574   2.721   1.931   1.093  0.6125 -1.2575 -0.8121
  644SOL    HW2 2575   2.655   2.044   1.015  1.2934 -1.8631  2.4393
  644SOL     MW 2576   2.725   2.004   1.045  0.0560  0.2218 -0.0652
  645SOL     OW 2577   2.857   0.842   0.666  0.0933 -0.4044  0.2747
  645SOL    HW1 2578   2.944   0.827   0.688 -0.6617  0.3345 -0.4527
  645SOL    HW2 2579   2.816   0.761   0.698  0.3780 -0.0210 -4.5493
  645SOL     MW 2580   2.863   0.829   0.673  0.0313 -0.2563 -0.4578
  646SOL     OW 2581   0.190   2.290   0.775 -0.1044  0.2714  0.0413
  646SOL    HW1 2582   0.200   2.201   0.812 -1.5110 -3.4519  1.6879
  646SOL    HW2 2583   0.116   2.276   0.723 -0.4820 -0.5382  1.1371
  646SOL     MW 2584   0.182   2.276   0.773 -0.3398 -0.3267  0.4031
  647SOL     OW 2585   2.672   0.484   2.979 -0.1695  0.3144  0.1012
  647SOL    HW1 2586   2.630   0.439   3.054 -0.1090  0.4155 -0.1879
  647SOL    HW2 2587   2.642   0.570   2.999 -0.0925 -0.1755 -1.5025
  647SOL     MW 2588   2.663   0.490   2.992 -0.1514  0.2631 -0.1486
  648SOL     OW 2589   2.135   0.733   1.183  0.0298  0.3219  0.8202
  648SOL    HW1 2590   2.134   0.767   1.093 -0.3730 -1.3716  2.6505
  648SOL    HW2 2591   2.128   0.802   1.249  1.1929 -0.7201 -1.1363
  648SOL     MW 2592   2.134   0.746   1.180  0.1301 -0.0390  0.8036
  649SOL     OW 2593   2.326   2.728   1.288  0.7615 -0.1758 -0.2175
  649SOL    HW1 2594   2.399   2.785   1.316 -0.6312  1.6668  0.5746
  649SOL    HW2 2595   2.366   2.642   1.281  1.7287 -3.5711  0.5442
  649SOL     MW 2596   2.341   2.725   1.291  0.7054 -0.3807 -0.0125
  650SOL     OW 2597   2.803   0.217   0.638  0.1768  0.1568 -0.5025
  650SOL    HW1 2598   2.786   0.307   0.665  1.7721  0.3265 -1.8868
  650SOL    HW2 2599   2.882   0.237   0.583  1.8433  1.9613  1.9405
  650SOL     MW 2600   2.811   0.232   0.634  0.6072  0.4173 -0.3629
  651SOL     OW 2601   2.995   0.405   0.812 -0.6692 -0.2713  0.7154
  651SOL    HW1 2602   3.057   0.468   0.765 -1.5547  2.2376 -0.8472
  651SOL    HW2 2603   2.973   0.464   0.888 -2.9776 -0.2204  2.0230
  651SOL     MW 2604   3.000   0.421   0.816 -1.0906  0.0664  0.6817
  652SOL     OW 2605   2.428   1.479   2.961  0.2334 -0.0219 -0.3834
  652SOL    HW1 2606   2.488   1.468   2.889  0.2372  0.9409  1.9605
  652SOL    HW2 2607   2.409   1.577   2.968  0.8913  0.5270 -1.6639
  652SOL     MW 2608   2.433   1.491   2.953  0.3207  0.1776 -0.2431
  653SOL     OW 2609   1.896   0.422   0.393  0.0632 -0.1767  0.1693
  653SOL    HW1 2610   1.841   0.390   0.324  2.4983  1.1611 -1.2627
  653SOL    HW2 2611   1.982   0.426   0.361  0.4198 -0.9471  3.8921
  653SOL     MW 2612   1.900   0.418   0.379  0.4316 -0.1018  0.4715
  654SOL     OW 2613   2.421   1.051   0.732 -0.2307  0.2159 -0.0483
  654SOL    HW1 2614   2.335   1.042   0.692 -0.2734  0.4881 -0.0602
  654SOL    HW2 2615   2.470   0.970   0.712 -1.5285 -0.0988  0.0225
  654SOL     MW 2616   2.417   1.039   0.724 -0.4076  0.2103 -0.0405
  655SOL     OW 2617   2.901   0.867   0.384 -0.4458 -0.8994 -0.3273
  655SOL    HW1 2618   2.873   0.893   0.471 -0.6342  0.9857 -0.7745
  655SOL    HW2 2619   2.905   0.768   0.391 -2.1800 -1.6964  1.0257
  655SOL     MW 2620   2.898   0.858   0.396 -0.6995 -0.7558 -0.2078
  656SOL     OW 2621   1.864   2.731   1.309 -0.9955 -0.3173  0.2482
  656SOL    HW1 2622   1.884   2.805   1.249  2.5338 -0.0431 -2.5840
  656SOL    HW2 2623   1.936   2.724   1.374  0.6368 -1.1162  2.6799
  656SOL     MW 2624   1.876   2.740   1.310 -0.3145 -0.3865  0.1954
  657SOL     OW 2625   0.140   1.686   1.266 -0.2910  0.6107  0.1684
  657SOL    HW1 2626   0.199   1.743   1.215 -2.7362 -0.0169 -0.9733
  657SOL    HW2 2627   0.148   1.593   1.245  2.3723  1.0022  0.4425
  657SOL     MW 2628   0.149   1.681   1.257 -0.2622  0.5796  0.0540
  658SOL     OW 2629   2.722   1.313   0.226  0.0384  0.3890  0.0947
  658SOL    HW1 2630   2.673   1.249   0.277  1.1276  1.7564 -0.7622
  658SOL    HW2 2631   2.759   1.378   0.284  0.0402 -1.6448  0.9827
  658SOL     MW 2632   2.720   1.313   0.240  0.1824  0.3011  0.0988
  659SOL     OW 2633   2.267   1.493   1.081  0.1390  0.6502  0.3074
  659SOL    HW1 2634   2.362   1.492   1.066 -0.0653 -3.6917 -0.0089
  659SOL    HW2 2635   2.246   1.522   1.167 -2.1207  0.5533 -2.0301
  659SOL     MW 2636   2.277   1.496   1.090 -0.1861  0.0645 -0.0427
  660SOL     OW 2637   2.042   1.602   1.709  0.6081  0.0429 -0.3441
  660SOL    HW1 2638   2.068   1.594   1.805 -1.1903  2.3292  0.3069
  660SOL    HW2 2639   1.957   1.557   1.688 -0.8558  0.9254 -2.4367
  660SOL     MW 2640   2.034   1.595   1.719  0.1777  0.4610 -0.5343
  661SOL     OW 2641   2.371   1.004   0.224  0.3028 -0.3601 -0.2828
  661SOL    HW1 2642   2.453   1.035   0.274  0.8610  1.2723  2.8836
  661SOL    HW2 2643   2.360   0.917   0.258  0.4948  0.0946  1.1087
  661SOL     MW 2644   2.381   0.997   0.235  0.4018 -0.0847  0.3186
  662SOL     OW 2645   2.571   2.974   0.859  0.1781 -0.4669 -0.0934
  662SOL    HW1 2646   2.510   3.033   0.899 -0.9527 -2.3926  0.7921
  662SOL    HW2 2647   2.606   3.014   0.779 -1.5223 -0.3914 -0.4674
  662SOL     MW 2648   2.568   2.987   0.853 -0.1955 -0.7110 -0.0259
  663SOL     OW 2649   2.738   1.472   0.446 -0.5531 -0.0302  0.4324
  663SOL    HW1 2650   2.694   1.562   0.432 -1.2273 -0.6876  1.3856
  663SOL    HW2 2651   2.788   1.472   0.530 -0.3355  1.8628  2.0791
  663SOL     MW 2652   2.739   1.484   0.455 -0.6133  0.1328  0.7754
  664SOL     OW 2653   2.500   1.532   1.602  0.2818  0.2861  0.1805
  664SOL    HW1 2654   2.478   1.624   1.580 -2.4692 -1.6503  1.8793
  664SOL    HW2 2655   2.417   1.497   1.634  0.6617 -1.6907 -1.5719
  664SOL     MW 2656   2.486   1.539   1.603 -0.0311 -0.2302  0.1734
  665SOL     OW 2657   2.851   0.881   2.017 -0.1535 -0.0662 -0.0517
  665SOL    HW1 2658   2.820   0.908   1.929 -0.2344 -0.9141  3.0399
  665SOL    HW2 2659   2.927   0.834   1.992 -1.3435 -0.4665 -1.9055
  665SOL     MW 2660   2.857   0.878   2.002 -0.3212 -0.2309  0.1116
  666SOL     OW 2661   2.760   3.024   1.697 -0.2042 -0.0785 -0.1907
  666SOL    HW1 2662   2.741   3.008   1.604 -0.2395 -1.9217  2.0144
  666SOL    HW2 2663   2.714   2.952   1.733  0.7605  0.4106 -0.5348
  666SOL     MW 2664   2.751   3.012   1.690 -0.0816 -0.2572  0.0549
  667SOL     OW 2665   1.983   2.655   1.753  0.2035  0.1101  0.7795
  667SOL    HW1 2666   2.004   2.581   1.810 -1.7922  1.1300  1.6378
  667SOL    HW2 2667   2.064   2.708   1.742 -0.1205  2.4067  1.0451
  667SOL     MW 2668   1.996   2.652   1.759 -0.1026  0.5477  0.9278
  668SOL     OW 2669   2.739   0.630   0.792 -0.5273  0.0777  0.0245
  668SOL    HW1 2670   2.790   0.646   0.872 -1.9125  0.5395 -0.6546
  668SOL    HW2 2671   2.654   0.678   0.813  3.3680 -0.5588  0.9806
  668SOL     MW 2672   2.735   0.639   0.805 -0.1961  0.0547  0.0610
  669SOL     OW 2673   0.234   0.954   0.704 -0.3442  0.5933  0.6063
  669SOL    HW1 2674   0.172   0.994   0.756 -1.9281 -1.3384 -1.9137
  669SOL    HW2 2675   0.325   0.965   0.737  1.8678  1.0411  1.4996
  669SOL     MW 2676   0.238   0.961   0.716 -0.2613  0.3975  0.3917
  670SOL     OW 2677   2.865   0.228   0.217  0.6242 -0.1676  0.0769
  670SOL    HW1 2678   2.879   0.165   0.140  2.2583 -0.5330  0.5494
  670SOL    HW2 2679   2.912   0.305   0.193 -0.6847 -0.9629 -1.9316
  670SOL     MW 2680   2.873   0.230   0.203  0.6671 -0.3207 -0.1258
  671SOL     OW 2681   2.060   2.944   1.469 -0.3777  0.2182 -0.0914
  671SOL    HW1 2682   2.017   2.986   1.391 -1.0776  1.1241  2.9159
  671SOL    HW2 2683   2.051   3.010   1.540 -1.4622  1.4469 -0.4629
  671SOL     MW 2684   2.053   2.958   1.468 -0.6131  0.4998  0.2563
  672SOL     OW 2685   1.904   1.667   1.353  0.2457 -0.0369 -0.7623
  672SOL    HW1 2686   1.819   1.715   1.355  0.2772  0.1092 -0.8301
  672SOL    HW2 2687   1.959   1.705   1.282 -0.2402 -0.5231  1.6061
  672SOL     MW 2688   1.900   1.678   1.344  0.1857 -0.0818 -0.4588
  673SOL     OW 2689   2.763   1.073   0.581  0.2783 -0.0753  0.4502
  673SOL    HW1 2690   2.793   0.982   0.608 -1.6400 -1.5355 -0.5465
  673SOL    HW2 2691   2.832   1.129   0.615  2.3865 -2.4527  1.7437
  673SOL     MW 2692   2.776   1.068   0.589  0.3034 -0.5816  0.4894
  674SOL     OW 2693   2.456   0.050   1.266 -0.0796 -0.9432  0.2083
  674SOL    HW1 2694   2.434   0.030   1.174 -1.4853 -1.0557  0.7721
  674SOL    HW2 2695   2.451  -0.035   1.309 -0.9175 -0.3314 -1.1542
  674SOL     MW 2696   2.453   0.037   1.260 -0.3756 -0.8773  0.1030
  675SOL     OW 2697   3.019   0.871   1.068  0.0793  0.0204 -0.1094
  675SOL    HW1 2698   3.068   0.840   1.143 -0.0053 -1.4696 -0.1865
  675SOL    HW2 2699   3.067   0.936   1.018 -2.2106 -3.1173  0.1121
  675SOL     MW 2700   3.032   0.875   1.071 -0.2340 -0.5902 -0.0903
  676SOL     OW 2701   2.848   1.475   1.685  0.0027  0.2973 -0.0313
  676SOL    HW1 2702   2.789   1.388   1.683 -0.4171  1.1258 -0.4875
  676SOL    HW2 2703   2.924   1.461   1.745  1.8781  1.6018 -1.1850
  676SOL     MW 2704   2.850   1.461   1.693  0.1948  0.5787 -0.2437
  677SOL     OW 2705   2.416   0.638   1.962 -0.2605 -0.0989 -0.1294
  677SOL    HW1 2706   2.370   0.605   1.886  0.9246  0.3048  1.2262
  677SOL    HW2 2707   2.335   0.675   2.004  0.6963  0.8718  1.2438
  677SOL     MW 2708   2.399   0.639   1.957  0.0221  0.0824  0.2307
  678SOL     OW 2709   2.519   1.640   0.373  0.1523 -0.0954 -0.1411
  678SOL    HW1 2710   2.431   1.688   0.388 -0.1632  1.0452 -0.1987
  678SOL    HW2 2711   2.504   1.584   0.290 -1.3974 -0.9697 -2.2568
  678SOL     MW 2712   2.506   1.639   0.364 -0.0938 -0.0602 -0.4278
  679SOL     OW 2713   2.263   0.482   1.181 -0.0107  0.4484  0.9027
  679SOL    HW1 2714   2.191   0.427   1.154 -1.6372  2.2870 -0.2197
  679SOL    HW2 2715   2.232   0.573   1.185  2.1018  1.5406 -0.1562
  679SOL     MW 2716   2.250   0.487   1.178  0.0534  0.8351  0.6149
  680SOL     OW 2717   2.332   0.148   1.490 -0.7549  0.3962  0.6997
  680SOL    HW1 2718   2.243   0.142   1.465  3.1501 -1.6824 -0.2594
  680SOL    HW2 2719   2.393   0.118   1.417  0.3242 -1.0077  1.4723
  680SOL     MW 2720   2.328   0.143   1.478 -0.0973 -0.0633  0.6751
  681SOL     OW 2721   0.323   0.557   1.577 -0.6575  0.0216  0.3349
  681SOL    HW1 2722   0.316   0.470   1.611 -0.7788  2.1694 -2.0948
  681SOL    HW2 2723   0.418   0.559   1.569 -1.3275  1.7656 -0.8811
  681SOL     MW 2724   0.334   0.545   1.580 -0.7619  0.5351 -0.1462
  682SOL     OW 2725   0.078   2.921   1.472  0.0047 -0.5397 -0.0943
  682SOL    HW1 2726   0.076   3.013   1.433 -0.4890 -0.3605 -1.7979
  682SOL    HW2 2727   0.061   2.933   1.566  0.5173 -0.5854  0.9136
  682SOL     MW 2728   0.076   2.935   1.480  0.0072 -0.5221 -0.1861
  683SOL     OW 2729   2.069   0.885   2.998 -0.0733  0.1803  0.1334
  683SOL    HW1 2730   1.988   0.831   3.005  0.6418  1.5865  1.3726
  683SOL    HW2 2731   2.054   0.961   3.052  0.4933 -0.1883  1.0701
  683SOL     MW 2732   2.056   0.888   3.006  0.0958  0.3172  0.4205
  684SOL     OW 2733   2.217   1.699   0.909  0.1568 -0.3278 -0.3262
  684SOL    HW1 2734   2.147   1.669   0.854 -2.0961 -1.2688 -0.0716
  684SOL    HW2 2735   2.224   1.648   0.990  1.1668  1.7142  3.4803
  684SOL     MW 2736   2.209   1.688   0.913 -0.0072 -0.1825  0.2096
  685SOL     OW 2737   2.680   1.754   1.219 -0.3443  0.0932 -0.3067
  685SOL    HW1 2738   2.731   1.730   1.298 -0.5205 -0.6044  0.0512
  685SOL    HW2 2739   2.639   1.672   1.185 -0.5542  0.4953  0.1685
  685SOL     MW 2740   2.681   1.740   1.225 -0.3952  0.0542 -0.1968
  686SOL     OW 2741   2.927   0.743   1.538 -0.1111  0.0211  0.5822
  686SOL    HW1 2742   2.903   0.671   1.594 -0.8240  2.2954 -0.6527
  686SOL    HW2 2743   3.023   0.746   1.545  2.5156  0.3296 -0.0123
  686SOL     MW 2744   2.936   0.734   1.547  0.1414  0.3619  0.3408
  687SOL     OW 2745   2.060   0.266   1.137 -0.0912 -0.5306 -0.4491
  687SOL    HW1 2746   2.060   0.186   1.090  2.4950  1.9984  0.2564
  687SOL    HW2 2747   1.990   0.321   1.102 -0.5248  0.8847  1.8745
  687SOL     MW 2748   2.051   0.263   1.126  0.1928 -0.0102 -0.0494
  688SOL     OW 2749   2.382   0.620   1.402 -0.6338 -0.5582 -0.0940
  688SOL    HW1 2750   2.354   0.560   1.331 -0.3352 -3.0587 -0.0005
  688SOL    HW2 2751   2.305   0.648   1.445  2.6003 -1.1675  1.3393
  688SOL     MW 2752   2.368   0.615   1.398 -0.1677 -0.9685  0.1074
  689SOL     OW 2753   2.540   0.736   2.990  0.2917 -0.1441 -0.4375
  689SOL    HW1 2754   2.585   0.811   2.949  0.7993 -3.6516  0.2040
  689SOL    HW2 2755   2.599   0.728   3.074  0.0207  1.1541 -0.6873
  689SOL     MW 2756   2.554   0.745   2.996  0.3229 -0.4356 -0.3859
  690SOL     OW 2757   2.073   0.945   1.936 -0.2184  0.0304 -1.0321
  690SOL    HW1 2758   2.020   0.863   1.937  0.0431  1.5529  0.6842
  690SOL    HW2 2759   2.110   0.935   1.850 -1.0679  0.6411 -0.6189
  690SOL     MW 2760   2.071   0.933   1.924 -0.2960  0.3118 -0.7511
  691SOL     OW 2761   2.433   0.259   0.853 -0.4280 -0.4852  0.5840
  691SOL    HW1 2762   2.500   0.322   0.881 -1.1776  0.5062 -1.8391
  691SOL    HW2 2763   2.358   0.301   0.899 -1.6009 -3.3110  0.5065
  691SOL     MW 2764   2.432   0.273   0.862 -0.6817 -0.7272  0.2541
  692SOL     OW 2765   2.810   1.623   1.459 -0.8558  0.2273  0.3148
  692SOL    HW1 2766   2.825   1.568   1.538 -1.1069  2.1604  0.1219
  692SOL    HW2 2767   2.838   1.716   1.483 -1.0143 -1.5727  2.7458
  692SOL     MW 2768   2.816   1.628   1.472 -0.9098  0.2449  0.6101
  693SOL     OW 2769   2.326   0.486   0.074 -0.3326 -0.5004  0.5602
  693SOL    HW1 2770   2.263   0.413   0.065  0.7176 -2.3983 -3.4019
  693SOL    HW2 2771   2.277   0.572   0.047  1.2575 -2.6793 -0.0081
  693SOL     MW 2772   2.312   0.487   0.069  0.0158 -1.0383 -0.0375
  694SOL     OW 2773   1.927   1.206   1.111 -0.8125 -0.1416  0.5136
  694SOL    HW1 2774   2.020   1.197   1.149  0.7687  1.0693  1.4991
  694SOL    HW2 2775   1.872   1.150   1.165 -1.5387  1.6701 -0.4037
  694SOL     MW 2776   1.932   1.197   1.123 -0.6997  0.2572  0.5226
  695SOL     OW 2777   3.017   1.476   1.368  0.0903 -0.2533  0.1878
  695SOL    HW1 2778   3.005   1.445   1.276  0.6023 -0.0516  0.2828
  695SOL    HW2 2779   2.939   1.528   1.384  2.7845 -1.6289 -0.9286
  695SOL     MW 2780   3.005   1.478   1.358  0.5134 -0.4082  0.0531
  696SOL     OW 2781   2.123   1.372   0.889  0.4338  0.0326  0.5000
  696SOL    HW1 2782   2.176   1.404   0.970 -0.3848 -1.5416 -1.6473
  696SOL    HW2 2783   2.096   1.282   0.901  1.7405 -0.2553 -3.3693
  696SOL     MW 2784   2.127   1.365   0.901  0.4982 -0.2131 -0.2938
  697SOL     OW 2785   2.930   1.113   2.159  0.2121 -0.4652  0.4246
  697SOL    HW1 2786   2.888   1.192   2.154  1.7661 -2.0386 -1.4364
  697SOL    HW2 2787   2.876   1.048   2.111  1.1531  0.7550  0.0957
  697SOL     MW 2788   2.917   1.115   2.152  0.5413 -0.5118  0.1356
  698SOL     OW 2789   2.526   0.320   0.044 -0.4460  0.3332  0.0431
  698SOL    HW1 2790   2.449   0.377   0.067 -0.7225 -1.4736  1.5142
  698SOL    HW2 2791   2.544   0.272   0.129  0.2744 -1.2731  2.5198
  698SOL     MW 2792   2.518   0.321   0.058 -0.3874 -0.1172  0.5640
  699SOL     OW 2793   1.846   1.640   1.987  0.4124 -0.8807 -0.0730
  699SOL    HW1 2794   1.812   1.556   1.995 -1.5314  2.3122  2.9822
  699SOL    HW2 2795   1.940   1.631   1.984 -2.1784  0.8378 -0.8233
  699SOL     MW 2796   1.854   1.627   1.988 -0.1859 -0.2327  0.2311
  700SOL     OW 2797   2.701   0.937   1.505  0.1325  0.4284 -0.8148
  700SOL    HW1 2798   2.751   0.992   1.443  4.2578  0.7601  0.6521
  700SOL    HW2 2799   2.757   0.860   1.508 -2.1118 -2.2968  0.0272
  700SOL     MW 2800   2.715   0.934   1.497  0.3807  0.1126 -0.5102
  701SOL     OW 2801   1.607   1.234   2.494  0.3597  0.3044 -0.2417
  701SOL    HW1 2802   1.693   1.276   2.467  1.9657  0.0933 -0.0747
  701SOL    HW2 2803   1.585   1.283   2.571  0.1885  1.1994 -2.1630
  701SOL     MW 2804   1.616   1.246   2.501  0.5490  0.3946 -0.4732
  702SOL     OW 2805   2.215   0.430   0.871 -0.0139  0.5766  0.1817
  702SOL    HW1 2806   2.193   0.361   0.803 -2.2989 -1.3308 -0.8230
  702SOL    HW2 2807   2.253   0.507   0.823 -2.3565  1.0914 -1.3189
  702SOL     MW 2808   2.217   0.431   0.855 -0.6244  0.3929 -0.1488
  703SOL     OW 2809   2.745   1.238   0.997  0.0623 -0.1993 -0.1580
  703SOL    HW1 2810   2.683   1.226   0.923 -0.8881 -0.9471 -1.8448
  703SOL    HW2 2811   2.746   1.159   1.044 -0.3086  2.4042  0.0721
  703SOL     MW 2812   2.737   1.226   0.994 -0.1120  0.0456 -0.3502
  704SOL     OW 2813   0.011   1.276   0.234 -0.6074 -0.3663 -0.3960
  704SOL    HW1 2814  -0.065   1.244   0.179 -0.6999 -0.7541 -3.9079
  704SOL    HW2 2815   0.011   1.238   0.320  1.0568  2.6536 -4.1486
  704SOL     MW 2816   0.001   1.267   0.238 -0.4000 -0.0190 -1.3544
  705SOL     OW 2817   2.217   1.633   1.331  0.1974  0.1762 -0.2680
  705SOL    HW1 2818   2.129   1.627   1.379 -4.3924 -0.7018  2.8263
  705SOL    HW2 2819   2.269   1.578   1.383  0.5128  0.9469  1.2189
  705SOL     MW 2820   2.212   1.625   1.344 -0.3666  0.1621  0.3365
  706SOL     OW 2821   2.954   1.216   0.693 -0.0999  0.1161 -0.1516
  706SOL    HW1 2822   3.001   1.218   0.607 -1.3705 -1.1937  1.9144
  706SOL    HW2 2823   2.910   1.303   0.704  2.2552  0.1878 -0.2567
  706SOL     MW 2824   2.954   1.228   0.683  0.0432 -0.0472  0.1071
  707SOL     OW 2825   2.397   0.026   0.985  0.6038  0.0125  0.3033
  707SOL    HW1 2826   2.430   0.108   0.953  1.4740  1.8203  0.9248
  707SOL    HW2 2827   2.307   0.046   0.987  1.4077 -0.6023 -0.3871
  707SOL     MW 2828   2.389   0.039   0.981  0.8246  0.1699  0.2942
  708SOL     OW 2829   2.541   1.499   0.123 -0.5503 -0.6823  0.1059
  708SOL    HW1 2830   2.610   1.440   0.150  0.8200 -0.8478 -1.9876
  708SOL    HW2 2831   2.506   1.475   0.041 -0.0206  0.5143 -1.5997
  708SOL     MW 2832   2.545   1.488   0.116 -0.2996 -0.5462 -0.3953
  709SOL     OW 2833   1.745   1.693   0.118  0.3998 -0.7276  0.1194
  709SOL    HW1 2834   1.692   1.712   0.044 -1.6247 -1.4085 -1.5292
  709SOL    HW2 2835   1.687   1.681   0.196  1.0610  0.1085  3.0018
  709SOL     MW 2836   1.730   1.694   0.119  0.2199 -0.7071  0.2822
  710SOL     OW 2837   2.169   1.184   1.210  0.4565  0.3534  0.6241
  710SOL    HW1 2838   2.210   1.147   1.130 -1.8777 -1.0859  0.2000
  710SOL    HW2 2839   2.148   1.108   1.266  0.5874 -0.1876  2.9648
  710SOL     MW 2840   2.172   1.169   1.207  0.1658  0.0921  0.8770
  711SOL     OW 2841   2.358   0.126   1.779  0.1583 -0.3849  0.2576
  711SOL    HW1 2842   2.451   0.118   1.797 -0.9570 -0.0837 -2.1445
  711SOL    HW2 2843   2.352   0.114   1.684 -0.1904  5.1726  2.4246
  711SOL     MW 2844   2.369   0.123   1.769 -0.0348  0.3881  0.2266
  712SOL     OW 2845   1.903   0.548   0.014  0.2628 -0.7532  0.7981
  712SOL    HW1 2846   1.885   0.626  -0.041  0.6714 -1.4677 -0.4412
  712SOL    HW2 2847   1.967   0.572   0.089 -0.5282  2.0076  2.1516
  712SOL     MW 2848   1.909   0.562   0.016  0.2124 -0.4832  0.8132
  713SOL     OW 2849   2.589   0.819   1.104 -0.1020 -0.3176 -0.1464
  713SOL    HW1 2850   2.589   0.735   1.150  3.1411 -1.6041  3.2658
  713SOL    HW2 2851   2.535   0.884   1.157 -0.7756  0.5666 -2.7579
  713SOL     MW 2852   2.582   0.817   1.117  0.2371 -0.3707 -0.0407
  714SOL     OW 2853   2.199   0.224   1.971  0.3695  0.0504  0.7005
  714SOL    HW1 2854   2.250   0.193   2.049 -1.2980  0.6944 -1.4551
  714SOL    HW2 2855   2.272   0.214   1.904  0.4107 -0.2847 -2.4066
  714SOL     MW 2856   2.216   0.219   1.972  0.1549  0.0911  0.0061
  715SOL     OW 2857   1.720   1.939   1.674  0.3732  0.3060 -0.1909
  715SOL    HW1 2858   1.813   1.933   1.651 -2.8664 -2.4431 -2.0078
  715SOL    HW2 2859   1.704   1.848   1.703  3.5132 -0.0248  1.1082
  715SOL     MW 2860   1.730   1.926   1.675  0.3601 -0.1004 -0.2592
  716SOL     OW 2861   2.343   0.611   0.738 -0.0276  0.5727 -0.0308
  716SOL    HW1 2862   2.403   0.543   0.704 -0.2696  0.1484 -0.4910
  716SOL    HW2 2863   2.286   0.624   0.665  1.0534  0.8700 -0.3786
  716SOL     MW 2864   2.343   0.603   0.724  0.0831  0.5559 -0.1374
  717SOL     OW 2865   2.886   1.480   2.919  0.2098  0.7232  0.0903
  717SOL    HW1 2866   2.977   1.495   2.940 -0.6475  2.3405  0.0932
  717SOL    HW2 2867   2.839   1.541   2.981 -0.9238  2.3916 -0.8844
  717SOL     MW 2868   2.892   1.490   2.930 -0.0529  1.1568 -0.0379
  718SOL     OW 2869   2.586   1.366   1.352  1.1074  0.2673  0.1530
  718SOL    HW1 2870   2.594   1.399   1.438 -0.0823 -2.7659 -2.5566
  718SOL    HW2 2871   2.650   1.299   1.338 -1.8721 -1.2198  1.1461
  718SOL     MW 2872   2.596   1.362   1.362  0.5573 -0.3291 -0.0734
  719SOL     OW 2873   2.238   1.344   0.621  0.1441  0.3385 -0.3792
  719SOL    HW1 2874   2.330   1.376   0.613  0.1034  2.0335 -0.3880
  719SOL    HW2 2875   2.219   1.358   0.712 -1.4436  1.5371 -1.3205
  719SOL     MW 2876   2.248   1.350   0.632 -0.0708  0.7203 -0.5045
  720SOL     OW 2877   2.904   1.160   0.089 -0.1576 -0.3524 -0.4553
  720SOL    HW1 2878   2.861   1.071   0.095 -3.9733 -0.3097 -1.5035
  720SOL    HW2 2879   2.843   1.213   0.153 -1.0802  1.2880  1.2490
  720SOL     MW 2880   2.891   1.155   0.098 -0.7828 -0.1303 -0.3688
  721SOL     OW 2881   2.452   0.909   1.350 -0.4269 -0.1016  0.1894
  721SOL    HW1 2882   2.458   0.812   1.343  0.6486 -1.1411 -1.3447
  721SOL    HW2 2883   2.513   0.930   1.422 -3.9282  0.6537 -0.3566
  721SOL     MW 2884   2.461   0.899   1.359 -0.7470 -0.1391 -0.0850
  722SOL     OW 2885   2.583   1.138   0.375 -0.2041  0.5947 -0.4521
  722SOL    HW1 2886   2.555   1.210   0.430 -0.2394 -0.7279 -0.3629
  722SOL    HW2 2887   2.646   1.091   0.435  2.4446 -1.1014  1.7287
  722SOL     MW 2888   2.588   1.141   0.391  0.1407  0.1964 -0.1526
  723SOL     OW 2889   2.255   1.414   1.627  0.4080  0.1258 -0.4059
  723SOL    HW1 2890   2.286   1.384   1.537  0.6526 -0.1433 -2.6968
  723SOL    HW2 2891   2.165   1.446   1.619 -0.2638 -0.3690  0.7187
  723SOL     MW 2892   2.247   1.415   1.614  0.3516  0.0250 -0.5598
  724SOL     OW 2893   2.495   0.412   0.626 -0.3776 -0.4025  0.1824
  724SOL    HW1 2894   2.471   0.345   0.695 -0.6188 -0.5970 -1.1597
  724SOL    HW2 2895   2.588   0.409   0.614 -0.9647  1.8704  0.4966
  724SOL     MW 2896   2.504   0.403   0.634 -0.4869 -0.1283  0.0468
  725SOL     OW 2897   2.543   0.513   1.159  0.4103  0.2611  0.5304
  725SOL    HW1 2898   2.581   0.493   1.249 -1.1180  0.3568 -0.8429
  725SOL    HW2 2899   2.452   0.504   1.172  1.3263  0.8655 -1.2288
  725SOL     MW 2900   2.536   0.509   1.172  0.3295  0.3535  0.1171
  726SOL     OW 2901   2.580   2.465   0.547 -0.1993 -0.2235 -0.2248
  726SOL    HW1 2902   2.495   2.502   0.523  1.7722  0.4488  0.0814
  726SOL    HW2 2903   2.572   2.393   0.609  2.0142  0.9771 -3.6395
  726SOL     MW 2904   2.568   2.460   0.552  0.3529  0.0236 -0.6349
  727SOL     OW 2905   2.897   0.297   1.608 -0.2575  0.5125  0.6313
  727SOL    HW1 2906   2.857   0.323   1.530 -0.6442 -2.2280  0.5032
  727SOL    HW2 2907   2.837   0.251   1.665 -0.5146  1.2870  1.2915
  727SOL     MW 2908   2.884   0.295   1.605 -0.3424  0.2531  0.7015
  728SOL     OW 2909   2.821   1.131   2.922 -0.4467  0.1844 -0.3907
  728SOL    HW1 2910   2.789   1.213   2.881 -1.2666  0.0455  0.3210
  728SOL    HW2 2911   2.836   1.169   3.009 -3.6118 -1.1219  1.2593
  728SOL     MW 2912   2.819   1.147   2.928 -0.9725 -0.0062 -0.0791
  729SOL     OW 2913   2.551   1.549   1.078  0.2242  0.2937 -0.0769
  729SOL    HW1 2914   2.566   1.458   1.098 -0.5077  0.6405 -0.8057
  729SOL    HW2 2915   2.590   1.559   0.986  1.1706 -0.6210  3.6035
  729SOL     MW 2916   2.558   1.538   1.068  0.2525  0.2188  0.3125
  730SOL     OW 2917   2.143   1.171   0.231 -0.0864  0.6723  0.2443
  730SOL    HW1 2918   2.225   1.135   0.254  0.2788  1.0193 -0.0311
  730SOL    HW2 2919   2.142   1.267   0.244  0.8985 -0.3896  0.7853
  730SOL     MW 2920   2.154   1.179   0.235  0.0917  0.5780  0.2793
  731SOL     OW 2921   2.860   1.899   2.874  0.3637  0.1864  0.2685
  731SOL    HW1 2922   2.772   1.921   2.816 -3.9745 -0.3912  0.9592
  731SOL    HW2 2923   2.910   1.985   2.878  0.6405 -0.0490  0.5981
  731SOL     MW 2924   2.855   1.913   2.867 -0.1722  0.0791  0.4031
  732SOL     OW 2925   2.180   0.928   1.382 -0.8082  0.0059  0.2299
  732SOL    HW1 2926   2.181   0.948   1.475  1.4219 -0.4922 -0.2350
  732SOL    HW2 2927   2.273   0.923   1.360  2.5498 -0.7081  3.5477
  732SOL     MW 2928   2.192   0.930   1.392 -0.0709 -0.1540  0.6063
  733SOL     OW 2929   2.327   2.804   3.005  0.2279  0.2987 -0.0030
  733SOL    HW1 2930   2.242   2.851   3.015  1.9678 -0.5346  2.4130
  733SOL    HW2 2931   2.311   2.712   3.032  0.9972 -0.4856  1.9262
  733SOL     MW 2932   2.314   2.798   3.010  0.5589  0.0853  0.5703
  734SOL     OW 2933   1.496   0.359   2.454  0.2728 -0.0417 -0.0042
  734SOL    HW1 2934   1.461   0.327   2.535 -1.6471  1.3751  2.1882
  734SOL    HW2 2935   1.521   0.279   2.397  0.7194  1.5846 -1.7564
  734SOL     MW 2936   1.495   0.344   2.457  0.0784  0.3598  0.0539
  735SOL     OW 2937   2.951   0.949   2.592 -0.1947 -0.4358 -0.0653
  735SOL    HW1 2938   2.939   0.853   2.618  0.0233  0.3784 -1.4754
  735SOL    HW2 2939   2.979   0.997   2.666 -2.3218  0.3817 -0.4153
  735SOL     MW 2940   2.953   0.942   2.605 -0.4466 -0.2205 -0.2975
  736SOL     OW 2941   0.122   0.582   2.555  0.2893 -0.4036 -0.2315
  736SOL    HW1 2942   0.168   0.644   2.500  1.8415  1.8559 -1.0173
  736SOL    HW2 2943   0.079   0.524   2.486 -1.6863  0.3614  0.8607
  736SOL     MW 2944   0.123   0.583   2.538  0.2334 -0.0046 -0.1910
  737SOL     OW 2945   2.927   0.662   2.624  0.1198  0.1300 -0.3090
  737SOL    HW1 2946   2.864   0.652   2.553 -0.9285  1.0130  0.2893
  737SOL    HW2 2947   3.011   0.635   2.587  0.1532 -2.2588  0.8849
  737SOL     MW 2948   2.930   0.657   2.610 -0.0141 -0.0687 -0.0726
  738SOL     OW 2949   0.227   0.538   1.906 -0.2892  0.8793  0.2936
  738SOL    HW1 2950   0.317   0.572   1.893 -2.7115  1.5542 -2.2677
  738SOL    HW2 2951   0.215   0.485   1.826  0.0611 -1.4190 -2.3519
  738SOL     MW 2952   0.237   0.536   1.894 -0.5626  0.6651 -0.3934
  739SOL     OW 2953   2.437   1.041   2.126 -0.3650  0.0239  0.0513
  739SOL    HW1 2954   2.462   0.953   2.110 -1.2385  0.4657 -0.5590
  739SOL    HW2 2955   2.455   1.084   2.042 -2.5025  1.3517  0.4504
  739SOL     MW 2956   2.443   1.035   2.113 -0.7623  0.2574  0.0234
  740SOL     OW 2957   0.179   1.786   2.982 -0.0138 -0.0970  0.3702
  740SOL    HW1 2958   0.138   1.699   2.969  0.5465 -1.6436  0.4903
  740SOL    HW2 2959   0.262   1.746   3.006 -1.1317 -2.0020  1.5867
  740SOL     MW 2960   0.184   1.769   2.984 -0.0874 -0.5524  0.5465
  741SOL     OW 2961   2.264   1.298   2.700  0.0453 -0.0355 -0.4136
  741SOL    HW1 2962   2.198   1.346   2.654 -1.7267 -0.2655  1.6327
  741SOL    HW2 2963   2.239   1.304   2.792 -0.3669  2.0034 -0.2728
  741SOL     MW 2964   2.252   1.305   2.706 -0.2429  0.2032 -0.1250
  742SOL     OW 2965   1.570   1.304   2.222  0.0838 -0.7265  0.3253
  742SOL    HW1 2966   1.522   1.221   2.214 -1.7331  0.1220 -1.8835
  742SOL    HW2 2967   1.573   1.317   2.315 -0.9956 -1.0531  2.1455
  742SOL     MW 2968   1.564   1.295   2.233 -0.2983 -0.6576  0.2740
  743SOL     OW 2969   2.537   1.247   2.797  0.2352  0.4606  0.4308
  743SOL    HW1 2970   2.450   1.256   2.750 -1.9363  2.2582 -1.9358
  743SOL    HW2 2971   2.542   1.165   2.830 -0.3372  1.2630 -0.2377
  743SOL     MW 2972   2.526   1.237   2.795 -0.1268  0.8036  0.0304
  744SOL     OW 2973   2.746   1.000   1.773 -0.0340  0.2596  0.0826
  744SOL    HW1 2974   2.666   1.045   1.813 -0.6661  0.5373  0.5218
  744SOL    HW2 2975   2.721   0.970   1.681  0.1867  0.9638 -0.5315
  744SOL     MW 2976   2.732   1.002   1.766 -0.0883  0.3891  0.0595
  745SOL     OW 2977   1.787   0.421   2.492 -0.2389 -0.0028  0.1979
  745SOL    HW1 2978   1.751   0.428   2.399 -0.2864 -1.2908 -0.5320
  745SOL    HW2 2979   1.714   0.397   2.552  0.5656  0.0139 -0.7117
  745SOL     MW 2980   1.773   0.419   2.488 -0.1390 -0.1705 -0.0184
  746SOL     OW 2981   1.490   1.448   1.701 -0.3719 -0.5512 -0.3332
  746SOL    HW1 2982   1.538   1.529   1.725 -1.5063 -0.3466  0.2884
  746SOL    HW2 2983   1.493   1.394   1.779  2.2437 -3.1768 -1.5411
  746SOL     MW 2984   1.497   1.451   1.715 -0.1765 -0.8707 -0.4106
  747SOL     OW 2985   2.567   1.149   1.895  0.3856 -0.1726 -0.6360
  747SOL    HW1 2986   2.486   1.165   1.845  0.8774 -1.6308  2.7872
  747SOL    HW2 2987   2.589   1.235   1.933 -0.4007 -0.3785 -0.0950
  747SOL     MW 2988   2.559   1.162   1.894  0.3467 -0.3922 -0.1130
  748SOL     OW 2989   0.096   0.010   1.869 -0.1811  0.3357 -0.1907
  748SOL    HW1 2990   0.184   0.002   1.902 -0.2047  4.3412 -2.7951
  748SOL    HW2 2991   0.050   0.058   1.941 -0.8179  2.4587  1.2070
  748SOL     MW 2992   0.102   0.015   1.883 -0.2683  1.1443 -0.3499
  749SOL     OW 2993   2.395   0.533   2.766 -0.1008 -0.2615  0.1678
  749SOL    HW1 2994   2.420   0.619   2.742  1.8849 -0.7299  0.3197
  749SOL    HW2 2995   2.447   0.521   2.840  0.5391  0.9899  1.8361
  749SOL     MW 2996   2.405   0.543   2.773  0.2456 -0.1582  0.4080
  750SOL     OW 2997   2.039   3.082   1.959  0.1318  0.4708  0.0541
  750SOL    HW1 2998   2.077   3.169   1.974 -1.4892  0.1264 -2.7720
  750SOL    HW2 2999   2.113   3.033   1.939 -0.6853 -3.1383 -0.9666
  750SOL     MW 3000   2.053   3.087   1.958 -0.1899 -0.0508 -0.4534
  751SOL     OW 3001   0.025   0.439   2.365 -0.2740  0.2918 -0.6040
  751SOL    HW1 3002  -0.063   0.406   2.342  3.0800 -2.1846 -0.6671
  751SOL    HW2 3003   0.087   0.394   2.305  2.0590 -0.5153 -1.5778
  751SOL     MW 3004   0.022   0.429   2.354  0.4764 -0.1414 -0.7408
  752SOL     OW 3005   2.126   0.871   2.734  0.2045 -0.4452 -0.5726
  752SOL    HW1 3006   2.204   0.922   2.719 -2.0093  0.8501 -3.8016
  752SOL    HW2 3007   2.108   0.883   2.829  0.0757  0.7856 -0.3814
  752SOL     MW 3008   2.134   0.880   2.744 -0.1046 -0.1119 -0.9734
  753SOL     OW 3009   2.858   0.338   2.339 -0.1392 -0.3681 -0.4004
  753SOL    HW1 3010   2.797   0.263   2.326  3.1081 -3.1806  0.6904
  753SOL    HW2 3011   2.807   0.417   2.356  0.8828 -0.4884 -2.9800
  753SOL     MW 3012   2.843   0.338   2.340  0.4241 -0.7551 -0.5968
  754SOL     OW 3013   2.215   3.012   2.659  0.1364  0.2385  0.2621
  754SOL    HW1 3014   2.226   3.005   2.564 -0.0621 -0.3388  2.0779
  754SOL    HW2 3015   2.290   2.959   2.692 -2.1562  1.1891 -0.6212
  754SOL     MW 3016   2.227   3.004   2.650 -0.1922  0.2877  0.3851
  755SOL     OW 3017   2.758   1.582   2.491  0.5809 -0.4837  0.1240
  755SOL    HW1 3018   2.708   1.506   2.522  3.1729 -2.7420 -1.5489
  755SOL    HW2 3019   2.813   1.610   2.562 -1.6950 -1.0776  0.0537
  755SOL     MW 3020   2.759   1.576   2.505  0.6226 -0.8600 -0.1060
  756SOL     OW 3021   2.255   1.289   3.009  0.5330  0.1980  0.2389
  756SOL    HW1 3022   2.320   1.354   2.993 -1.3340 -0.3093 -4.3222
  756SOL    HW2 3023   2.301   1.211   3.043 -0.6244 -0.0285 -0.1828
  756SOL     MW 3024   2.270   1.287   3.012  0.1340  0.1012 -0.4185
  757SOL     OW 3025   2.126   0.959   1.642  0.1720 -0.2078  0.8486
  757SOL    HW1 3026   2.135   0.865   1.626  0.1003  0.5794  0.9216
  757SOL    HW2 3027   2.040   0.981   1.605  1.0863 -1.7564 -1.3721
  757SOL     MW 3028   2.116   0.950   1.635  0.2832 -0.3083  0.5652
  758SOL     OW 3029   2.234   1.779   2.682  0.0721  0.2420  0.2558
  758SOL    HW1 3030   2.220   1.842   2.611 -3.1023  1.3469  3.5702
  758SOL    HW2 3031   2.327   1.742   2.677 -0.6484 -0.3986 -0.3539
  758SOL     MW 3032   2.244   1.782   2.672 -0.4418  0.3033  0.6126
  759SOL     OW 3033   1.559   1.349   2.733  0.0197 -1.2100 -0.3384
  759SOL    HW1 3034   1.580   1.445   2.723  0.4019  2.1043 -0.9296
  759SOL    HW2 3035   1.652   1.321   2.742 -0.4694 -2.1854 -2.0490
  759SOL     MW 3036   1.574   1.358   2.733  0.0056 -0.9014 -0.6421
  760SOL     OW 3037   2.666   1.956   2.703 -1.1492 -0.2096  0.4554
  760SOL    HW1 3038   2.628   1.870   2.679  0.3196 -4.4084 -2.2538
  760SOL    HW2 3039   2.724   1.982   2.629 -0.4178 -2.3231 -0.3705
  760SOL     MW 3040   2.669   1.948   2.690 -0.8589 -1.0424 -0.0110
  761SOL     OW 3041   2.108   0.440   2.444  0.2064  0.0747  0.1421
  761SOL    HW1 3042   2.044   0.371   2.471 -4.2184  0.2088  4.6682
  761SOL    HW2 3043   2.098   0.502   2.522 -0.7193  0.5306  0.5932
  761SOL     MW 3044   2.098   0.439   2.458 -0.4996  0.1526  0.7988
  762SOL     OW 3045   3.086   0.178   2.057 -0.1061  0.3395 -0.5290
  762SOL    HW1 3046   3.062   0.135   2.141 -2.3086  1.1954  0.8974
  762SOL    HW2 3047   3.027   0.257   2.057 -0.5607  0.9872  2.3619
  762SOL     MW 3048   3.075   0.183   2.068 -0.4567  0.5379  0.0406
  763SOL     OW 3049   2.391   1.145   2.377 -0.6521 -0.2168  0.1667
  763SOL    HW1 3050   2.416   1.111   2.287 -0.7554 -0.2836 -1.1457
  763SOL    HW2 3051   2.466   1.205   2.391 -0.8988 -0.5391  2.2745
  763SOL     MW 3052   2.404   1.149   2.367 -0.6983 -0.2682  0.2716
  764SOL     OW 3053   0.333   0.182   2.827 -0.0127  0.0778  0.1567
  764SOL    HW1 3054   0.255   0.196   2.773  2.3339  0.2339 -0.6937
  764SOL    HW2 3055   0.341   0.259   2.888  0.6272  0.3946  0.8464
  764SOL     MW 3056   0.324   0.194   2.828  0.3813  0.1402  0.1355
  765SOL     OW 3057   2.689   0.121   2.308  0.0152 -0.4445 -0.0620
  765SOL    HW1 3058   2.619   0.103   2.249 -0.2361  1.9911 -2.2492
  765SOL    HW2 3059   2.752   0.049   2.297  0.2361  1.1059 -2.0158
  765SOL     MW 3060   2.688   0.109   2.299  0.0112  0.0814 -0.6084
  766SOL     OW 3061   1.844   3.020   2.152  0.0431  0.3537 -0.0483
  766SOL    HW1 3062   1.928   3.024   2.102 -0.2357  0.7331  0.3612
  766SOL    HW2 3063   1.778   2.977   2.093 -1.0823 -1.6330  1.8408
  766SOL     MW 3064   1.846   3.015   2.138 -0.1421  0.1417  0.2550
  767SOL     OW 3065   2.682   0.609   1.862  0.0606  0.6501  0.2687
  767SOL    HW1 3066   2.720   0.647   1.939 -0.9046  0.3496 -1.5856
  767SOL    HW2 3067   2.585   0.620   1.864  0.7376 -0.7720  2.3440
  767SOL     MW 3068   2.674   0.615   1.872  0.0226  0.4228  0.2979
  768SOL     OW 3069   0.058   1.534   2.945  0.2169  0.5181  0.4691
  768SOL    HW1 3070   0.089   1.508   3.034  1.4860  1.8568  0.6254
  768SOL    HW2 3071   0.108   1.484   2.875 -1.9951  0.6753 -0.6139
  768SOL     MW 3072   0.069   1.524   2.947  0.0925  0.7155  0.3469
  769SOL     OW 3073   2.375   0.644   2.372  0.0625  0.1304 -0.4674
  769SOL    HW1 3074   2.297   0.599   2.329 -0.0081  2.1699 -0.6438
  769SOL    HW2 3075   2.450   0.616   2.321 -1.1403 -0.9803 -1.5741
  769SOL     MW 3076   2.375   0.634   2.360 -0.1055  0.2530 -0.6367
  770SOL     OW 3077   0.008   1.644   2.567 -0.3703  0.4701  0.4563
  770SOL    HW1 3078  -0.079   1.653   2.612 -0.8082 -2.6417 -1.7669
  770SOL    HW2 3079   0.043   1.563   2.614 -0.6458 -2.4574 -1.9092
  770SOL     MW 3080   0.001   1.634   2.579 -0.4645 -0.3268 -0.1491
  771SOL     OW 3081   3.079   0.634   1.958  0.3474 -0.1640 -0.3215
  771SOL    HW1 3082   3.018   0.620   1.878 -0.7546  3.9534 -2.2074
  771SOL    HW2 3083   3.162   0.600   1.937 -0.4648  0.7931 -1.3522
  771SOL     MW 3084   3.082   0.628   1.944  0.0948  0.5055 -0.7063
  772SOL     OW 3085   0.008   0.047   2.287 -0.2464  0.3856 -0.3432
  772SOL    HW1 3086  -0.079   0.017   2.312 -2.6210 -1.1461  0.1384
  772SOL    HW2 3087   0.044  -0.031   2.239  0.7708 -0.5711  0.3616
  772SOL     MW 3088   0.001   0.033   2.284 -0.4255  0.0573 -0.1867
  773SOL     OW 3089   2.412   2.875   2.772  0.5604 -1.0358  0.6218
  773SOL    HW1 3090   2.419   2.795   2.720  0.5382 -2.1462 -0.4147
  773SOL    HW2 3091   2.390   2.855   2.863 -3.6811  0.5450 -0.4846
  773SOL     MW 3092   2.410   2.862   2.777 -0.0022 -0.9737  0.3391
  774SOL     OW 3093   2.303   1.170   1.768 -0.5338 -0.3323 -0.4746
  774SOL    HW1 3094   2.300   1.256   1.721 -2.0108  0.6399 -1.5171
  774SOL    HW2 3095   2.248   1.108   1.712  0.3705  3.6442 -1.5121
  774SOL     MW 3096   2.295   1.173   1.754 -0.6093  0.3206 -0.7490
  775SOL     OW 3097   2.264   2.998   2.375 -0.7930  0.1947  0.5606
  775SOL    HW1 3098   2.273   3.076   2.319  1.9059 -1.8967  0.8754
  775SOL    HW2 3099   2.347   2.954   2.357 -0.5743  2.7324  0.6594
  775SOL     MW 3100   2.276   3.002   2.365 -0.4080  0.2536  0.6152
  776SOL     OW 3101   0.140   1.489   0.094 -0.2349 -0.2468  0.4475
  776SOL    HW1 3102   0.227   1.451   0.092  0.0281 -1.4147  1.3397
  776SOL    HW2 3103   0.092   1.409   0.121  1.3545 -2.8571  2.1512
  776SOL     MW 3104   0.145   1.473   0.097  0.0095 -0.7453  0.7900
  777SOL     OW 3105   2.995   1.075   1.718 -0.2387 -0.2871  0.0145
  777SOL    HW1 3106   2.999   1.154   1.666 -2.0388  0.7293  0.4455
  777SOL    HW2 3107   2.900   1.080   1.749 -2.4479 -1.0082  2.8040
  777SOL     MW 3108   2.983   1.086   1.716 -0.7677 -0.2481  0.4394
  778SOL     OW 3109   2.823   0.461   2.748  0.0100  0.1472 -0.0635
  778SOL    HW1 3110   2.787   0.469   2.837 -2.1526 -0.1484 -0.3692
  778SOL    HW2 3111   2.854   0.551   2.732  2.7350  3.0640  0.7205
  778SOL     MW 3112   2.822   0.474   2.758  0.0842  0.4930 -0.0004
  779SOL     OW 3113   2.131   0.555   2.194 -0.9095  0.0609 -0.4736
  779SOL    HW1 3114   2.079   0.635   2.209  0.7716 -0.9403 -1.7124
  779SOL    HW2 3115   2.100   0.494   2.253  0.3297 -0.2818 -1.3980
  779SOL     MW 3116   2.120   0.557   2.203 -0.5242 -0.1164 -0.7590
  780SOL     OW 3117   0.093   0.263   2.688  0.1434 -0.6656  0.0704
  780SOL    HW1 3118   0.092   0.339   2.752  3.8056  0.1969  1.4629
  780SOL    HW2 3119  -0.002   0.253   2.668 -2.0598 -2.7922  3.3249
  780SOL     MW 3120   0.080   0.272   2.694  0.3359 -0.8324  0.6835
  781SOL     OW 3121   3.048   1.303   2.507 -0.4350  0.1213  0.2798
  781SOL    HW1 3122   3.021   1.373   2.445  1.5389 -0.6137 -1.1598
  781SOL    HW2 3123   3.084   1.237   2.449 -0.4989  0.7720  0.6314
  781SOL     MW 3124   3.049   1.304   2.491 -0.1830  0.1102  0.1362
  782SOL     OW 3125   0.675   1.547   3.075  0.2450 -0.4283  0.4006
  782SOL    HW1 3126   0.585   1.575   3.058  0.0982 -0.8514  0.3473
  782SOL    HW2 3127   0.676   1.516   3.160 -1.8624 -0.4001 -0.8672
  782SOL     MW 3128   0.663   1.547   3.084 -0.0524 -0.4804  0.2263
  783SOL     OW 3129   2.720   0.551   2.427 -0.2333 -0.8631  0.4788
  783SOL    HW1 3130   2.670   0.563   2.344 -0.6599  0.2443  1.5062
  783SOL    HW2 3131   2.661   0.495   2.482  0.3613  0.0714 -0.9289
  783SOL     MW 3132   2.705   0.545   2.423 -0.2111 -0.5937  0.4286
  784SOL     OW 3133   0.154   0.829   2.803  0.0816 -0.0378 -0.6638
  784SOL    HW1 3134   0.093   0.900   2.782  3.5711 -0.5706  0.7501
  784SOL    HW2 3135   0.235   0.856   2.752  0.8878  2.3324  0.5353
  784SOL     MW 3136   0.156   0.842   2.794  0.6484  0.2046 -0.3191
  785SOL     OW 3137   0.433   0.506   2.181 -0.0021 -0.2073 -0.3702
  785SOL    HW1 3138   0.440   0.572   2.113  1.1820  0.6512  1.8052
  785SOL    HW2 3139   0.353   0.457   2.155 -0.8209 -0.5010  0.9765
  785SOL     MW 3140   0.424   0.508   2.169  0.0461 -0.1328  0.0945
  786SOL     OW 3141   1.976   0.304   2.944  0.3512 -0.2781 -0.7144
  786SOL    HW1 3142   1.952   0.389   2.991 -0.9807 -2.3783 -0.7373
  786SOL    HW2 3143   2.046   0.309   2.880 -1.8042 -0.3506 -0.0931
  786SOL     MW 3144   1.982   0.316   2.942 -0.1089 -0.5647 -0.6354
  787SOL     OW 3145   2.452   0.166   2.916 -0.1972  0.4251 -0.8190
  787SOL    HW1 3146   2.517   0.093   2.875 -0.8741 -1.2857 -1.0658
  787SOL    HW2 3147   2.503   0.221   2.972 -2.8113 -3.3927  1.0213
  787SOL     MW 3148   2.467   0.163   2.918 -0.6314 -0.3044 -0.6088
  788SOL     OW 3149   2.842   3.007   2.339  0.2937 -0.2200 -0.0157
  788SOL    HW1 3150   2.772   2.971   2.389 -0.8831 -2.0333  1.3311
  788SOL    HW2 3151   2.901   2.932   2.304  2.8203 -0.2030  1.0709
  788SOL     MW 3152   2.840   2.992   2.341  0.4718 -0.4570  0.3054
  789SOL     OW 3153   0.093   0.161   3.054  0.0196  0.3169  0.1504
  789SOL    HW1 3154   0.010   0.114   3.083 -0.3812 -2.9178  2.3082
  789SOL    HW2 3155   0.071   0.234   2.994  0.6860 -1.5650 -2.1927
  789SOL     MW 3156   0.079   0.165   3.050  0.0547 -0.3582  0.1260
  790SOL     OW 3157   0.022   1.071   2.375 -0.0354 -0.0455  0.3279
  790SOL    HW1 3158  -0.036   1.030   2.435 -3.5058  0.2415 -1.4365
  790SOL    HW2 3159  -0.037   1.080   2.300  0.0900  0.0504 -0.5940
  790SOL     MW 3160   0.006   1.067   2.373 -0.4768  0.0050 -0.0265
  791SOL     OW 3161   2.595   0.395   2.617  0.2602 -0.1777 -0.0898
  791SOL    HW1 3162   2.529   0.441   2.664  0.4934 -1.1469 -1.0557
  791SOL    HW2 3163   2.680   0.425   2.664  1.8720 -0.6741  1.5474
  791SOL     MW 3164   2.597   0.405   2.629  0.5036 -0.3711 -0.0012
  792SOL     OW 3165   2.357   0.316   2.416 -0.5444  0.6464  0.1322
  792SOL    HW1 3166   2.273   0.361   2.425  3.5761  0.6615 -0.7203
  792SOL    HW2 3167   2.388   0.287   2.502  2.1663  0.3149 -3.3161
  792SOL     MW 3168   2.350   0.318   2.429  0.3569  0.6047 -0.4353
  793SOL     OW 3169   1.924   1.164   1.946 -0.3858 -0.4477 -0.0185
  793SOL    HW1 3170   1.888   1.165   1.849 -0.1921 -2.2375 -1.9136
  793SOL    HW2 3171   2.001   1.106   1.938  0.7335 -0.5215 -0.3719
  793SOL     MW 3172   1.929   1.156   1.932 -0.2126 -0.6936 -0.3152
  794SOL     OW 3173   1.404   2.312   0.132  0.7277 -0.2068  0.1831
  794SOL    HW1 3174   1.428   2.361   0.057  0.5570 -3.0152  2.5390
  794SOL    HW2 3175   1.468   2.331   0.200 -1.9067  0.3353 -0.0405
  794SOL     MW 3176   1.416   2.321   0.131  0.3576 -0.5058  0.4645
  795SOL     OW 3177   2.355   1.037   2.611 -0.0857 -0.4360  0.1711
  795SOL    HW1 3178   2.302   1.108   2.665 -0.8097  1.1085  2.5915
  795SOL    HW2 3179   2.379   1.079   2.525  2.2436  1.1767 -1.0312
  795SOL     MW 3180   2.351   1.052   2.607  0.1261 -0.0194  0.3318
  796SOL     OW 3181   0.295   0.570   2.786  0.4505  0.0566  0.1833
  796SOL    HW1 3182   0.225   0.628   2.822  0.3047  2.4910  0.9191
  796SOL    HW2 3183   0.275   0.560   2.689  2.2854 -1.8740  1.1835
  796SOL     MW 3184   0.283   0.576   2.778  0.6734  0.1231  0.4123
  797SOL     OW 3185   2.647   0.119   2.600 -0.3617  0.5241  0.0965
  797SOL    HW1 3186   2.629   0.210   2.615 -2.0817  3.0060 -1.9444
  797SOL    HW2 3187   2.657   0.098   2.512 -1.6960  0.8649  3.2899
  797SOL     MW 3188   2.646   0.128   2.590 -0.7646  0.8965  0.2486
  798SOL     OW 3189   2.288   0.129   2.222  0.3882  0.4276 -0.2971
  798SOL    HW1 3190   2.297   0.187   2.299 -0.5766  0.3875  1.9920
  798SOL    HW2 3191   2.381   0.118   2.190  2.2493 -1.8192  0.0105
  798SOL     MW 3192   2.301   0.136   2.228  0.5065  0.1259  0.0455
  799SOL     OW 3193   2.554   2.931   0.020 -0.2278 -0.1367 -0.8647
  799SOL    HW1 3194   2.466   2.906  -0.002 -0.6788  2.0481  0.4327
  799SOL    HW2 3195   2.542   3.027   0.024 -1.7150  0.5056 -3.0559
  799SOL     MW 3196   2.541   2.940   0.017 -0.4835  0.2363 -0.9826
  800SOL     OW 3197   1.972   3.100   1.677  0.3470 -0.0615 -0.0208
  800SOL    HW1 3198   1.901   3.039   1.674  1.5364 -0.1123  0.5853
  800SOL    HW2 3199   2.005   3.091   1.762 -2.8086 -1.2801 -0.4065
  800SOL     MW 3200   1.967   3.091   1.688  0.0876 -0.2290  0.0082
  801SOL     OW 3201   2.803   1.286   2.648 -0.1724 -0.0386  0.2916
  801SOL    HW1 3202   2.791   1.191   2.630  1.2704  0.2782 -1.2992
  801SOL    HW2 3203   2.892   1.292   2.618  0.2041 -1.3737  1.2812
  801SOL     MW 3204   2.813   1.274   2.642  0.0677 -0.1730  0.2123
  802SOL     OW 3205   2.609   1.518   2.769  0.0218  0.6610 -0.2694
  802SOL    HW1 3206   2.606   1.418   2.769  0.2126 -0.4542  0.4389
  802SOL    HW2 3207   2.688   1.541   2.827 -0.9041 -1.0824  2.4538
  802SOL     MW 3208   2.619   1.508   2.777 -0.0752  0.2839  0.1833
  803SOL     OW 3209   2.293   1.356   1.971  0.3428 -0.8254 -0.3497
  803SOL    HW1 3210   2.260   1.323   2.057 -0.8533 -0.2652  1.7725
  803SOL    HW2 3211   2.262   1.299   1.898  1.1001  0.7779 -2.7785
  803SOL     MW 3212   2.285   1.344   1.973  0.2849 -0.5399 -0.3901
  804SOL     OW 3213   2.302   0.057   0.031 -0.2570 -0.4958 -0.3102
  804SOL    HW1 3214   2.241   0.134   0.035  1.8626 -3.4232 -0.6531
  804SOL    HW2 3215   2.359   0.094  -0.039  1.8940  1.4079  1.8723
  804SOL     MW 3216   2.302   0.072   0.022  0.3065 -0.6309 -0.0675
  805SOL     OW 3217   2.695   1.042   2.562 -0.3556  0.5103  0.2733
  805SOL    HW1 3218   2.627   0.975   2.555  1.7040 -2.3190  0.0124
  805SOL    HW2 3219   2.780   1.000   2.541 -2.1255  1.3183  0.1867
  805SOL     MW 3220   2.697   1.027   2.558 -0.3174  0.2436  0.2274
  806SOL     OW 3221   2.543   0.541   2.194 -0.2597 -1.0257 -0.0444
  806SOL    HW1 3222   2.512   0.448   2.209  0.8736 -1.2086  1.3360
  806SOL    HW2 3223   2.495   0.583   2.121 -0.9285 -1.2040 -1.6015
  806SOL     MW 3224   2.533   0.534   2.186 -0.1984 -1.0734 -0.0677
  807SOL     OW 3225   0.015   1.181   1.991  0.0987 -0.3389 -0.0243
  807SOL    HW1 3226   0.059   1.100   1.965  0.4589 -0.9659 -3.7298
  807SOL    HW2 3227  -0.055   1.159   2.046 -1.4567 -1.0470  0.1055
  807SOL     MW 3228   0.011   1.168   1.995 -0.0590 -0.5150 -0.4960
  808SOL     OW 3229   2.602   3.082   2.822 -0.5298 -0.2040 -0.2510
  808SOL    HW1 3230   2.551   3.000   2.794  0.0683  1.8577 -0.2047
  808SOL    HW2 3231   2.626   3.131   2.737  1.2804  1.3593  2.2668
  808SOL     MW 3232   2.598   3.078   2.807 -0.2121  0.2743  0.0873
  809SOL     OW 3233   2.612   1.329   2.431 -0.2003 -0.2700 -0.2749
  809SOL    HW1 3234   2.663   1.283   2.502  1.2997  2.0646  2.6506
  809SOL    HW2 3235   2.663   1.333   2.351 -1.4679 -0.8556  1.4323
  809SOL     MW 3236   2.626   1.323   2.430 -0.1696 -0.0392  0.3363
  810SOL     OW 3237   2.198   1.289   2.224 -0.2188 -0.0682  0.4151
  810SOL    HW1 3238   2.243   1.239   2.295  1.1996 -2.9622  0.3109
  810SOL    HW2 3239   2.105   1.255   2.214 -1.0601 -1.9017 -2.3596
  810SOL     MW 3240   2.192   1.278   2.232 -0.1427 -0.6919  0.0353
  811SOL     OW 3241   1.566   0.133   2.322 -0.1227  0.3869  0.6986
  811SOL    HW1 3242   1.632   0.063   2.340 -1.7754  1.0166 -1.7996
  811SOL    HW2 3243   1.554   0.135   2.226  0.4561 -1.0766 -0.1300
  811SOL     MW 3244   1.573   0.124   2.312 -0.2644  0.2769  0.2597
  812SOL     OW 3245   1.464   2.842   2.029  0.5637  0.4709  1.0570
  812SOL    HW1 3246   1.552   2.849   1.999 -0.3786  0.5676  0.8080
  812SOL    HW2 3247   1.484   2.818   2.121 -2.1419  1.7918  0.5318
  812SOL     MW 3248   1.478   2.840   2.037  0.0824  0.6579  0.9548
  813SOL     OW 3249   1.870   0.726   2.222  0.1227  0.6378 -0.7813
  813SOL    HW1 3250   1.870   0.630   2.255  1.6993 -0.0444  0.3741
  813SOL    HW2 3251   1.877   0.778   2.303  1.6165 -0.0291  0.8168
  813SOL     MW 3252   1.871   0.720   2.237  0.5278  0.4598 -0.4180
  814SOL     OW 3253   2.716   1.252   1.622  0.4182 -0.0066 -0.5215
  814SOL    HW1 3254   2.644   1.190   1.632 -0.8924 -1.4220 -3.1618
  814SOL    HW2 3255   2.754   1.225   1.540 -1.8557  2.9095  2.5817
  814SOL     MW 3256   2.712   1.240   1.612 -0.0547  0.1914 -0.4604
  815SOL     OW 3257   2.544   1.733   2.382 -0.8913 -0.0085 -0.5993
  815SOL    HW1 3258   2.472   1.672   2.373  3.6595  0.4054  2.2745
  815SOL    HW2 3259   2.624   1.675   2.406  0.7140 -2.4982 -0.0088
  815SOL     MW 3260   2.545   1.717   2.384 -0.0790 -0.2824 -0.1422
  816SOL     OW 3261   0.766   0.670   2.761  0.2192  0.1295  0.1301
  816SOL    HW1 3262   0.768   0.579   2.777  0.5619  1.6222 -1.6273
  816SOL    HW2 3263   0.666   0.676   2.743  0.7195  1.3154  2.4997
  816SOL     MW 3264   0.753   0.659   2.761  0.3304  0.4829  0.2109
  817SOL     OW 3265   3.034   1.239   1.484 -0.1249  0.2213 -0.0454
  817SOL    HW1 3266   3.127   1.243   1.511  0.0606 -1.3387  1.6486
  817SOL    HW2 3267   3.028   1.328   1.454  2.6537 -1.2068  1.6723
  817SOL     MW 3268   3.045   1.251   1.483  0.2662 -0.1729  0.4047
  818SOL     OW 3269   1.892   1.000   2.669  0.3121 -0.1685 -0.4574
  818SOL    HW1 3270   1.853   0.940   2.608  0.8067 -0.5788  1.8480
  818SOL    HW2 3271   1.983   0.972   2.671  0.4640  2.3739 -3.0069
  818SOL     MW 3272   1.899   0.988   2.662  0.3974  0.1128 -0.4896
  819SOL     OW 3273   1.927   0.189   2.454 -0.5391 -0.2715  0.2130
  819SOL    HW1 3274   1.879   0.264   2.464  2.7573 -2.5959  2.1133
  819SOL    HW2 3275   1.971   0.184   2.538  0.6484 -1.0782  0.2445
  819SOL     MW 3276   1.926   0.198   2.466  0.0525 -0.6846  0.4679
  820SOL     OW 3277   2.505   1.726   2.642 -0.5674 -0.1945 -0.5638
  820SOL    HW1 3278   2.556   1.647   2.678  1.1473 -0.2710 -2.5031
  820SOL    HW2 3279   2.527   1.732   2.549 -0.1975  0.8890  0.1725
  820SOL     MW 3280   2.515   1.717   2.634 -0.2924 -0.0616 -0.7226
  821SOL     OW 3281   2.581   1.439   2.027  0.0969 -0.2101 -0.6747
  821SOL    HW1 3282   2.597   1.507   1.954 -1.9596  4.5045 -0.1178
  821SOL    HW2 3283   2.487   1.417   1.999  0.9140  1.7401 -1.0941
  821SOL     MW 3284   2.570   1.445   2.014 -0.0666  0.6693 -0.6566
  822SOL     OW 3285   2.718   2.639   1.384  0.1436 -0.4953  0.5258
  822SOL    HW1 3286   2.710   2.623   1.478  0.6859  0.6480  2.6543
  822SOL    HW2 3287   2.683   2.724   1.377  2.0242  0.9958 -0.8494
  822SOL     MW 3288   2.712   2.648   1.395  0.4633 -0.1477  0.6252
  823SOL     OW 3289   2.284   0.499   1.740 -0.4744  0.0669 -0.3593
  823SOL    HW1 3290   2.361   0.462   1.695 -1.2895  0.9984 -3.2431
  823SOL    HW2 3291   2.216   0.436   1.714  0.5811  0.9499 -0.7918
  823SOL     MW 3292   2.285   0.486   1.730 -0.4427  0.3063 -0.7969
  824SOL     OW 3293   2.087   1.423   2.519 -0.6005 -0.3261  0.3220
  824SOL    HW1 3294   2.164   1.471   2.488  1.1167 -1.9875  3.3444
  824SOL    HW2 3295   2.050   1.488   2.578 -0.0222 -1.2875  1.5687
  824SOL     MW 3296   2.092   1.438   2.522 -0.2976 -0.6722  0.8853
  825SOL     OW 3297   1.915   2.555   0.312  0.7069  0.1104 -0.0238
  825SOL    HW1 3298   1.886   2.476   0.352  0.2476  1.2201  0.7116
  825SOL    HW2 3299   1.981   2.530   0.248  2.1958  0.0687  1.3258
  825SOL     MW 3300   1.920   2.541   0.309  0.8427  0.2513  0.2513
  826SOL     OW 3301   1.892   2.365   0.523  0.1042 -0.6137 -0.3020
  826SOL    HW1 3302   1.866   2.312   0.605  0.0242 -1.0466 -0.0980
  826SOL    HW2 3303   1.870   2.456   0.541 -1.0813 -1.1967 -0.3902
  826SOL     MW 3304   1.886   2.370   0.536 -0.0628 -0.7477 -0.2868
  827SOL     OW 3305   1.930   2.199   0.960  0.4761  0.9237  0.0150
  827SOL    HW1 3306   1.884   2.256   0.908  1.4298 -2.1493 -0.0275
  827SOL    HW2 3307   1.872   2.123   0.984  2.0759  0.1425  0.0955
  827SOL     MW 3308   1.916   2.197   0.956  0.8131  0.4152  0.0200
  828SOL     OW 3309   0.082   2.606   0.606 -0.3915 -0.3682 -0.2315
  828SOL    HW1 3310   0.177   2.619   0.615  0.0180  0.3829 -0.2511
  828SOL    HW2 3311   0.072   2.641   0.515  0.5363  2.2466  2.9641
  828SOL     MW 3312   0.093   2.612   0.596 -0.2150  0.0759  0.1876
  829SOL     OW 3313   2.938   2.946   1.158 -0.2773 -0.2235  0.6257
  829SOL    HW1 3314   2.854   2.923   1.120 -0.3809  0.7424  1.6908
  829SOL    HW2 3315   2.997   2.869   1.142 -0.9408 -0.6503 -0.4056
  829SOL     MW 3316   2.935   2.933   1.151 -0.3785 -0.1523  0.6302
  830SOL     OW 3317   2.513   2.866   2.039 -0.1321 -0.4530  0.3965
  830SOL    HW1 3318   2.426   2.880   1.998  0.3402 -3.6664 -1.4889
  830SOL    HW2 3319   2.553   2.808   1.978  1.9335 -1.4201  1.0424
  830SOL     MW 3320   2.507   2.860   2.026  0.2027 -1.0046  0.2329
  831SOL     OW 3321   2.400   2.460   1.295  0.3323 -0.3146 -0.2364
  831SOL    HW1 3322   2.387   2.420   1.386 -0.2883 -1.1536  0.3686
  831SOL    HW2 3323   2.479   2.422   1.259 -1.3032 -1.2575  2.1161
  831SOL     MW 3324   2.409   2.450   1.302  0.0346 -0.5497  0.1538
  832SOL     OW 3325   2.388   2.186   1.909  0.2157 -0.0566 -0.2999
  832SOL    HW1 3326   2.400   2.278   1.943 -0.1212  1.0198 -3.1970
  832SOL    HW2 3327   2.476   2.150   1.894  0.4487 -2.2471  0.9816
  832SOL     MW 3328   2.401   2.193   1.911  0.2020 -0.2036 -0.5130
  833SOL     OW 3329   1.771   2.446   0.876  0.0174  0.6028  0.4413
  833SOL    HW1 3330   1.685   2.426   0.902  4.6159 -1.0275 -0.6348
  833SOL    HW2 3331   1.793   2.501   0.960 -0.0107  1.7916  1.3185
  833SOL     MW 3332   1.763   2.450   0.890  0.6204  0.5446  0.4151
  834SOL     OW 3333   2.159   2.470   0.571  1.0280  0.1367  0.0864
  834SOL    HW1 3334   2.099   2.399   0.565 -2.2601  0.8728  0.8507
  834SOL    HW2 3335   2.213   2.460   0.501 -1.5142  1.9076  0.4990
  834SOL     MW 3336   2.158   2.459   0.561  0.2587  0.4675  0.2417
  835SOL     OW 3337   1.775   2.589   0.633 -0.1143  0.4123 -0.2523
  835SOL    HW1 3338   1.757   2.534   0.718 -1.0908 -0.7298 -1.7679
  835SOL    HW2 3339   1.831   2.665   0.664  0.7005  1.9444  1.6477
  835SOL     MW 3340   1.780   2.592   0.649 -0.1357  0.4637 -0.2016
  836SOL     OW 3341   1.924   2.189   1.596  0.4610 -0.2746 -0.4101
  836SOL    HW1 3342   2.011   2.191   1.634 -0.4876 -2.8862  2.5990
  836SOL    HW2 3343   1.863   2.245   1.645  0.8481  1.1454  0.6740
  836SOL     MW 3344   1.927   2.197   1.608  0.3869 -0.4318  0.1299
  837SOL     OW 3345   2.121   0.194   0.714  0.1034  0.0936  0.1307
  837SOL    HW1 3346   2.039   0.239   0.687 -1.4717  0.2158 -2.2271
  837SOL    HW2 3347   2.147   0.138   0.642 -2.8547 -1.9331  2.8272
  837SOL     MW 3348   2.113   0.192   0.701 -0.4947 -0.1577  0.1754
  838SOL     OW 3349   2.949   2.151   0.920 -0.2348  0.1331 -0.0719
  838SOL    HW1 3350   2.879   2.110   0.976 -0.5424 -0.2630  0.1355
  838SOL    HW2 3351   3.000   2.073   0.889 -0.8084 -1.0925 -1.8789
  838SOL     MW 3352   2.946   2.135   0.923 -0.3510 -0.0809 -0.2830
  839SOL     OW 3353   1.527   2.341   0.947  0.1222 -0.0827 -0.1430
  839SOL    HW1 3354   1.507   2.419   0.997 -0.6025 -1.3904 -1.2005
  839SOL    HW2 3355   1.533   2.266   1.009  0.6598 -1.3148  0.3845
  839SOL     MW 3356   1.525   2.341   0.962  0.0975 -0.4178 -0.2130
  840SOL     OW 3357   2.321   2.072   2.414 -0.9211 -0.1178  0.1473
  840SOL    HW1 3358   2.291   2.141   2.358  0.1418  0.1047 -2.3160
  840SOL    HW2 3359   2.343   2.127   2.493  0.8678 -2.4176  2.5502
  840SOL     MW 3360   2.320   2.088   2.417 -0.5448 -0.3919  0.1393
  841SOL     OW 3361   2.112   2.468   0.113  0.8196 -0.3598 -0.1928
  841SOL    HW1 3362   2.185   2.473   0.052  0.3122 -0.4415  0.5727
  841SOL    HW2 3363   2.085   2.374   0.099 -2.1844 -0.7370 -3.1532
  841SOL     MW 3364   2.118   2.456   0.103  0.3563 -0.4203 -0.4824
  842SOL     OW 3365   2.624   1.928   1.599  0.7087 -0.5790  0.4534
  842SOL    HW1 3366   2.545   1.875   1.586 -0.8189 -1.8593 -1.3645
  842SOL    HW2 3367   2.612   2.000   1.542  1.1922 -0.2412  2.5057
  842SOL     MW 3368   2.612   1.931   1.590  0.5709 -0.7034  0.4843
  843SOL     OW 3369   2.596   2.743   1.792 -0.0981 -0.0687 -0.3555
  843SOL    HW1 3370   2.686   2.717   1.760  1.9097  0.9842  0.3299
  843SOL    HW2 3371   2.536   2.673   1.781 -1.1207 -2.4748  0.9224
  843SOL     MW 3372   2.600   2.731   1.786  0.0318 -0.2473 -0.0964
  844SOL     OW 3373   2.601   2.295   1.209 -0.1808  0.1725 -0.0573
  844SOL    HW1 3374   2.612   2.314   1.119  0.1663 -0.7191 -2.3384
  844SOL    HW2 3375   2.680   2.331   1.245 -1.5615 -3.6235  1.1455
  844SOL     MW 3376   2.613   2.303   1.202 -0.3172 -0.4460 -0.1996
  845SOL     OW 3377   2.855   2.481   0.292  0.0320 -0.6947  0.3793
  845SOL    HW1 3378   2.865   2.390   0.301  1.4457  0.2572  1.1745
  845SOL    HW2 3379   2.871   2.526   0.374 -0.8379 -1.5996 -1.8778
  845SOL     MW 3380   2.858   2.475   0.304  0.1038 -0.6885  0.1864
  846SOL     OW 3381   1.528   2.866   0.784 -0.1822 -0.0291  0.1298
  846SOL    HW1 3382   1.622   2.897   0.781  1.0684  2.1576 -1.2503
  846SOL    HW2 3383   1.483   2.913   0.853 -0.2913 -1.5680 -2.1634
  846SOL     MW 3384   1.534   2.876   0.792 -0.0316  0.0564 -0.3549
  847SOL     OW 3385   2.560   1.928   0.173 -0.7272  0.0871 -0.5482
  847SOL    HW1 3386   2.640   1.876   0.180  0.7169 -2.2968  0.4489
  847SOL    HW2 3387   2.517   1.899   0.091 -0.2806  1.9215 -0.0492
  847SOL     MW 3388   2.565   1.917   0.163 -0.4778  0.0146 -0.3508
  848SOL     OW 3389   2.527   2.105   1.401  0.4360 -0.4261  0.0061
  848SOL    HW1 3390   2.568   2.160   1.336  2.0023 -0.1265  2.6725
  848SOL    HW2 3391   2.492   2.029   1.358 -0.0885 -0.0561 -0.3657
  848SOL     MW 3392   2.528   2.102   1.387  0.5735 -0.3378  0.3089
  849SOL     OW 3393   1.985   2.747   0.778 -0.8382 -0.1351  0.4774
  849SOL    HW1 3394   2.018   2.667   0.812 -0.0289  0.1487 -1.9724
  849SOL    HW2 3395   2.066   2.787   0.735 -0.1295 -0.4939 -0.7696
  849SOL     MW 3396   2.000   2.742   0.777 -0.6379 -0.1450 -0.0103
  850SOL     OW 3397   2.221   1.947   1.637  0.0830  0.7586 -0.3497
  850SOL    HW1 3398   2.129   1.923   1.622 -0.7004 -3.0226  0.3253
  850SOL    HW2 3399   2.234   2.036   1.616 -3.0514  1.4391  1.0676
  850SOL     MW 3400   2.210   1.956   1.632 -0.4339  0.3495 -0.0736
  851SOL     OW 3401   2.275   2.412   0.325  0.0686 -0.2126 -0.2535
  851SOL    HW1 3402   2.216   2.430   0.254  2.5988  2.0497  0.1955
  851SOL    HW2 3403   2.344   2.481   0.326  0.1631 -3.5528 -1.5849
  851SOL     MW 3404   2.277   2.423   0.316  0.4149 -0.3548 -0.3699
  852SOL     OW 3405   2.370   2.153   0.266  0.3613  0.0537  0.3413
  852SOL    HW1 3406   2.351   2.229   0.323 -1.5146 -2.1093  0.2180
  852SOL    HW2 3407   2.449   2.174   0.230  0.9084  0.8845  1.5725
  852SOL     MW 3408   2.378   2.166   0.269  0.1860 -0.1221  0.4875
  853SOL     OW 3409   2.493   2.431   1.977  0.5066  0.4771 -0.3305
  853SOL    HW1 3410   2.499   2.444   1.879  0.4512  0.5719 -1.5177
  853SOL    HW2 3411   2.575   2.417   2.016 -2.2156  0.9884 -0.9746
  853SOL     MW 3412   2.504   2.431   1.969  0.1401  0.5571 -0.5721
  854SOL     OW 3413   2.799   2.299   0.734  0.1258  0.9176 -0.2257
  854SOL    HW1 3414   2.720   2.252   0.719  0.3780  1.5179 -0.3710
  854SOL    HW2 3415   2.852   2.249   0.799  3.4130  1.5313 -1.2378
  854SOL     MW 3416   2.796   2.287   0.740  0.5928  1.0778 -0.3784
  855SOL     OW 3417   2.718   2.250   0.364 -0.0549  0.0186  0.1994
  855SOL    HW1 3418   2.692   2.313   0.434  1.4652  3.1317  1.6629
  855SOL    HW2 3419   2.782   2.187   0.393  2.1564 -0.7504 -0.3082
  855SOL     MW 3420   2.723   2.250   0.377  0.4374  0.3278  0.3255
  856SOL     OW 3421   2.192   1.958   0.191 -0.4641  0.0372 -0.0400
  856SOL    HW1 3422   2.104   1.973   0.220  0.6638  0.2369 -0.5573
  856SOL    HW2 3423   2.252   2.029   0.218  0.7950  0.3001  0.3331
  856SOL     MW 3424   2.188   1.969   0.199 -0.1492  0.0982 -0.0590
  857SOL     OW 3425   2.589   1.968   0.465  0.3148  0.1541  0.7306
  857SOL    HW1 3426   2.607   2.057   0.421  2.5588  0.2850 -0.6192
  857SOL    HW2 3427   2.526   1.924   0.396 -2.6990 -2.5042 -1.3165
  857SOL     MW 3428   2.583   1.974   0.450  0.2132 -0.1793  0.2824
  858SOL     OW 3429   2.838   2.657   1.686  0.1032 -0.3215  0.4434
  858SOL    HW1 3430   2.933   2.662   1.700  1.4878 -0.3513  0.6370
  858SOL    HW2 3431   2.832   2.574   1.730  1.6563 -3.3139  1.8594
  858SOL     MW 3432   2.850   2.647   1.694  0.4908 -0.7202  0.6558
  859SOL     OW 3433   2.136   2.553   0.904  0.2778  0.6084 -0.1832
  859SOL    HW1 3434   2.101   2.492   0.844  1.9395  1.1668  2.1771
  859SOL    HW2 3435   2.230   2.552   0.889 -1.1359 -0.1563  1.9811
  859SOL     MW 3436   2.144   2.545   0.894  0.3105  0.5812  0.4138
  860SOL     OW 3437   2.628   2.594   0.192  0.6453  0.3045  0.2580
  860SOL    HW1 3438   2.692   2.562   0.251 -1.3087  1.7733 -0.7746
  860SOL    HW2 3439   2.674   2.652   0.128 -1.0055 -3.3517 -2.3974
  860SOL     MW 3440   2.642   2.598   0.191  0.1697  0.0159 -0.2286
  861SOL     OW 3441   1.544   2.133   1.141 -0.2745 -0.0353  0.5421
  861SOL    HW1 3442   1.568   2.201   1.206  0.8364  0.0508  1.4603
  861SOL    HW2 3443   1.497   2.053   1.181 -0.7962 -1.2851  3.4742
  861SOL     MW 3444   1.541   2.131   1.155 -0.1967 -0.1889  1.0501
  862SOL     OW 3445   2.410   1.776   1.542  0.5452  0.1955 -0.4870
  862SOL    HW1 3446   2.343   1.841   1.562 -0.9670 -2.1180  3.7749
  862SOL    HW2 3447   2.438   1.796   1.452  0.0721 -1.5561  1.0069
  862SOL     MW 3448   2.405   1.787   1.533  0.2833 -0.3408  0.2724
  863SOL     OW 3449   3.065   1.886   1.081 -0.8180 -0.3302 -0.7910
  863SOL    HW1 3450   3.148   1.838   1.102 -0.1663 -2.9442  1.3656
  863SOL    HW2 3451   3.037   1.944   1.154 -1.9180 -3.2763  0.0804
  863SOL     MW 3452   3.072   1.887   1.093 -0.8771 -1.0638 -0.3915
  864SOL     OW 3453   0.012   1.927   0.808 -0.5239  0.0085 -0.4874
  864SOL    HW1 3454  -0.031   1.901   0.889  0.4404  1.2277 -0.1049
  864SOL    HW2 3455  -0.050   1.891   0.740  1.8769  0.8452 -0.5175
  864SOL     MW 3456  -0.002   1.919   0.809 -0.0799  0.2798 -0.4409
  865SOL     OW 3457   2.627   2.135   0.007  0.0369 -0.2581  0.2700
  865SOL    HW1 3458   2.623   2.069   0.077 -1.8409  0.8913  1.2027
  865SOL    HW2 3459   2.568   2.096  -0.059 -0.0900 -0.2146  1.0934
  865SOL     MW 3460   2.619   2.121   0.008 -0.2276 -0.1007  0.5017
  866SOL     OW 3461   2.676   2.303   1.632 -0.0439 -0.0663  0.8921
  866SOL    HW1 3462   2.680   2.223   1.690 -2.6118  0.0920  0.8226
  866SOL    HW2 3463   2.745   2.298   1.569  1.6631  1.7720  1.0711
  866SOL     MW 3464   2.686   2.291   1.631 -0.1575  0.1971  0.9065
  867SOL     OW 3465   0.014   2.659   1.780  0.2218  0.1557  0.1658
  867SOL    HW1 3466   0.035   2.657   1.871 -1.7888 -1.2314  2.0913
  867SOL    HW2 3467  -0.014   2.752   1.764 -0.8889  0.8361  0.2741
  867SOL     MW 3468   0.013   2.671   1.790 -0.1900  0.0624  0.4341
  868SOL     OW 3469   2.816   2.596   0.544  0.4077  0.5939  0.6468
  868SOL    HW1 3470   2.733   2.549   0.555  0.0881  0.0731 -2.3855
  868SOL    HW2 3471   2.796   2.681   0.498  1.0543  1.3217  1.4646
  868SOL     MW 3472   2.803   2.601   0.540  0.4508  0.6212  0.3546
  869SOL     OW 3473   2.008   2.369   1.141  0.6572 -0.4953 -0.3438
  869SOL    HW1 3474   2.088   2.406   1.102  0.8523  0.5731 -0.5836
  869SOL    HW2 3475   1.983   2.301   1.070 -1.3681  2.4089 -3.6457
  869SOL     MW 3476   2.015   2.365   1.126  0.4157  0.0289 -0.8111
  870SOL     OW 3477   2.162   0.003   0.481 -0.2174 -0.6719 -0.0467
  870SOL    HW1 3478   2.224   0.046   0.422  2.0352 -0.8285 -3.0551
  870SOL    HW2 3479   2.165  -0.089   0.466  0.0564 -2.5114  1.4146
  870SOL     MW 3480   2.171  -0.003   0.471  0.1159 -0.9353 -0.2508
  871SOL     OW 3481   2.494   2.111   0.951  0.1216 -0.3195 -0.4081
  871SOL    HW1 3482   2.421   2.057   0.919  1.5932  1.7037  0.6949
  871SOL    HW2 3483   2.453   2.188   0.989  0.1791 -0.8019  2.4069
  871SOL     MW 3484   2.479   2.114   0.952  0.3233 -0.1162  0.1089
  872SOL     OW 3485   2.055   2.571   1.487  0.0181 -0.1362  0.3416
  872SOL    HW1 3486   2.006   2.597   1.568  0.3526  0.9648  1.0131
  872SOL    HW2 3487   1.990   2.531   1.428  1.3831  0.9403 -1.4833
  872SOL     MW 3488   2.040   2.569   1.490  0.2423  0.1511  0.1894
  873SOL     OW 3489   2.916   2.035   1.897  0.5289 -0.7768 -0.0061
  873SOL    HW1 3490   2.946   2.109   1.950 -1.2866  0.8189  0.3457
  873SOL    HW2 3491   2.948   2.036   1.810 -0.8274 -0.4516  1.9311
  873SOL     MW 3492   2.924   2.045   1.892  0.1104 -0.5234  0.2959
  874SOL     OW 3493   2.338   1.518   2.379 -1.0067 -0.3916 -0.1198
  874SOL    HW1 3494   2.284   1.485   2.303  0.3315 -0.2442 -0.9680
  874SOL    HW2 3495   2.399   1.456   2.416 -0.5409  1.7909  0.4934
  874SOL     MW 3496   2.339   1.506   2.374 -0.7687 -0.0842 -0.1508
  875SOL     OW 3497   2.289   2.327   1.076  0.5978 -0.3108  0.2402
  875SOL    HW1 3498   2.317   2.389   1.011 -0.6732  2.2126  0.9038
  875SOL    HW2 3499   2.335   2.351   1.156 -1.6247  0.0821 -0.0956
  875SOL     MW 3500   2.299   2.338   1.078  0.1369  0.0740  0.2835
  876SOL     OW 3501   3.038   2.327   1.232  0.5405  0.2443 -0.2622
  876SOL    HW1 3502   3.047   2.362   1.146  0.2962  0.7992  1.0967
  876SOL    HW2 3503   3.093   2.386   1.291 -0.7735  0.2679  1.9794
  876SOL     MW 3504   3.046   2.340   1.229  0.3349  0.3206  0.2128
  877SOL     OW 3505   3.038   2.704   0.339 -0.0196 -0.2358 -0.2359
  877SOL    HW1 3506   3.086   2.781   0.360 -2.5217  1.1446 -3.2790
  877SOL    HW2 3507   3.053   2.685   0.243  0.4278 -1.1599 -0.9772
  877SOL     MW 3508   3.047   2.711   0.329 -0.2907 -0.1756 -0.7352
  878SOL     OW 3509   2.432   1.853   1.285  0.0704 -0.2962 -0.3710
  878SOL    HW1 3510   2.365   1.785   1.277 -0.8447  1.3701  1.8952
  878SOL    HW2 3511   2.510   1.818   1.246 -0.0520 -4.2413 -1.3780
  878SOL     MW 3512   2.434   1.839   1.279 -0.0665 -0.5969 -0.2048
  879SOL     OW 3513   2.675   2.432   0.961 -0.0835 -0.2774  0.0098
  879SOL    HW1 3514   2.737   2.487   1.012  2.0358 -0.9568  0.2513
  879SOL    HW2 3515   2.718   2.392   0.884 -2.7037 -0.0710  0.1576
  879SOL     MW 3516   2.689   2.434   0.958 -0.1496 -0.3398  0.0612
  880SOL     OW 3517   2.549   2.190   0.687  0.2505  0.2100  0.1401
  880SOL    HW1 3518   2.537   2.173   0.785 -2.3733  0.8624  4.0187
  880SOL    HW2 3519   2.574   2.105   0.646  2.9343 -1.1110 -1.2734
  880SOL     MW 3520   2.551   2.176   0.695  0.2584  0.1218  0.4653
  881SOL     OW 3521   2.947   2.670   0.785 -0.3808  0.6336  0.3134
  881SOL    HW1 3522   2.911   2.637   0.698 -0.8996 -1.2046 -0.5567
  881SOL    HW2 3523   3.042   2.669   0.767  0.0053 -0.4537 -2.3662
  881SOL     MW 3524   2.955   2.666   0.771 -0.3983  0.2476 -0.1549
  882SOL     OW 3525   2.268   2.885   1.921  0.1222 -0.0397  0.1127
  882SOL    HW1 3526   2.249   2.876   1.828 -0.1386 -1.1755 -0.2716
  882SOL    HW2 3527   2.212   2.822   1.959  0.5734  1.2433 -2.6216
  882SOL     MW 3528   2.258   2.875   1.914  0.1473 -0.0203 -0.2988
  883SOL     OW 3529   2.318   2.264   1.503 -0.3774 -0.0692  0.7526
  883SOL    HW1 3530   2.398   2.238   1.459 -0.0645 -1.5785 -2.5355
  883SOL    HW2 3531   2.259   2.231   1.436 -1.0719 -2.8542  0.1683
  883SOL     MW 3532   2.321   2.256   1.488 -0.4277 -0.6358  0.2417
  884SOL     OW 3533   1.956   1.847   1.151 -0.0548  0.0228 -0.4134
  884SOL    HW1 3534   1.885   1.894   1.108 -0.4880  0.6915  0.5922
  884SOL    HW2 3535   2.039   1.900   1.160  1.8023 -0.6828  2.4939
  884SOL     MW 3536   1.958   1.860   1.147  0.1330  0.0179  0.1029
  885SOL     OW 3537   2.837   2.425   1.823  0.3746  0.2172 -0.6385
  885SOL    HW1 3538   2.927   2.388   1.814  1.1792 -0.3240 -0.3061
  885SOL    HW2 3539   2.774   2.370   1.771 -0.4868 -0.7777  0.6810
  885SOL     MW 3540   2.840   2.413   1.815  0.3671  0.0145 -0.4206
  886SOL     OW 3541   2.803   2.382   1.361 -0.0427  0.1448  0.5432
  886SOL    HW1 3542   2.883   2.374   1.314 -1.1551 -1.1171 -0.3756
  886SOL    HW2 3543   2.798   2.475   1.375 -0.9582 -0.2882 -1.2960
  886SOL     MW 3544   2.813   2.393   1.356 -0.3103 -0.0788  0.1793
  887SOL     OW 3545   2.317   2.593   1.561 -0.1924  0.2200  0.3926
  887SOL    HW1 3546   2.353   2.613   1.475  0.8804 -1.8444  1.5146
  887SOL    HW2 3547   2.223   2.566   1.534 -0.1104 -1.7462 -0.9415
  887SOL     MW 3548   2.309   2.592   1.546 -0.0401 -0.3118  0.3646
  888SOL     OW 3549   1.842   2.088   1.367  0.1456 -0.6107  0.5359
  888SOL    HW1 3550   1.929   2.111   1.329 -0.7451 -0.8809 -2.5740
  888SOL    HW2 3551   1.854   2.103   1.463  1.1986  0.2877  1.8698
  888SOL     MW 3552   1.855   2.093   1.374  0.1670 -0.5278  0.3016
  889SOL     OW 3553   2.319   2.009   2.099 -0.2669 -0.0371 -0.0224
  889SOL    HW1 3554   2.382   1.991   2.168 -1.2778 -0.1440 -0.9751
  889SOL    HW2 3555   2.351   2.076   2.035 -0.8287 -0.8135 -0.0572
  889SOL     MW 3556   2.331   2.015   2.100 -0.4744 -0.1536 -0.1527
  890SOL     OW 3557   0.110   2.366   0.141  0.4919  0.0655 -0.7509
  890SOL    HW1 3558   0.060   2.449   0.123  0.2178 -1.5494  2.5950
  890SOL    HW2 3559   0.060   2.328   0.216  1.3851 -0.4049 -1.9349
  890SOL     MW 3560   0.097   2.372   0.149  0.5736 -0.2096 -0.4657
  891SOL     OW 3561   3.011   2.064   1.303  0.3226  0.0548 -0.1530
  891SOL    HW1 3562   3.089   2.049   1.355  0.2458  0.3696 -0.8859
  891SOL    HW2 3563   3.029   2.152   1.272  0.8666  0.1658 -2.2694
  891SOL     MW 3564   3.024   2.073   1.306  0.3843  0.1110 -0.5290
  892SOL     OW 3565   2.442   2.360   2.840 -0.2538 -0.1660 -0.1464
  892SOL    HW1 3566   2.433   2.266   2.858 -0.7962  1.8448 -2.9633
  892SOL    HW2 3567   2.541   2.379   2.827 -2.0803  1.7819 -1.3509
  892SOL     MW 3568   2.454   2.350   2.841 -0.5663  0.3563 -0.6770
  893SOL     OW 3569   1.580   2.345   1.299  0.2198  0.2702 -0.3672
  893SOL    HW1 3570   1.514   2.409   1.336  0.3009 -1.2613 -0.5368
  893SOL    HW2 3571   1.659   2.364   1.349 -0.3926  0.4334  0.2567
  893SOL     MW 3572   1.581   2.356   1.311  0.1497  0.0896 -0.3072
  894SOL     OW 3573   2.827   1.790   0.486  0.0826  0.5355 -0.0152
  894SOL    HW1 3574   2.741   1.839   0.505  4.4804  0.8502  1.4204
  894SOL    HW2 3575   2.849   1.792   0.394 -0.1491 -0.2378 -2.3828
  894SOL     MW 3576   2.819   1.797   0.477  0.6322  0.4750 -0.1382
  895SOL     OW 3577   2.112   2.178   1.323  0.3455 -0.7699 -0.2379
  895SOL    HW1 3578   2.080   2.245   1.264 -0.9133  2.8867  0.6679
  895SOL    HW2 3579   2.145   2.112   1.260 -0.1153  1.3941  1.4666
  895SOL     MW 3580   2.112   2.178   1.307  0.1186 -0.0019  0.1065
  896SOL     OW 3581   2.140   2.798   1.063  0.1246 -0.0332 -0.3159
  896SOL    HW1 3582   2.194   2.770   1.135 -0.6109 -0.4197  1.2530
  896SOL    HW2 3583   2.137   2.709   1.015  0.7763 -3.2958  0.6943
  896SOL     MW 3584   2.147   2.783   1.066  0.1135 -0.5147  0.0244
  897SOL     OW 3585   2.996   2.921   0.112  0.1347  0.1238 -0.1665
  897SOL    HW1 3586   3.070   2.918   0.056 -0.7028  0.5997  2.9200
  897SOL    HW2 3587   2.913   2.872   0.092 -1.9174  1.0274 -0.9464
  897SOL     MW 3588   2.995   2.915   0.102 -0.2465  0.3058  0.1378
  898SOL     OW 3589   2.062   0.194   1.392  0.0913 -1.4541 -0.1521
  898SOL    HW1 3590   1.991   0.133   1.387 -0.6311 -0.4579 -0.2564
  898SOL    HW2 3591   2.065   0.218   1.298  0.1247 -1.7635 -1.6231
  898SOL     MW 3592   2.053   0.189   1.379  0.0004 -1.3635 -0.3599
  899SOL     OW 3593   2.941   2.933   0.635 -0.0241 -0.0122  0.0590
  899SOL    HW1 3594   2.932   2.855   0.685 -0.6969 -0.3523  0.2267
  899SOL    HW2 3595   2.876   2.994   0.662  0.4071  0.0101 -1.5865
  899SOL     MW 3596   2.931   2.931   0.645 -0.0560 -0.0541 -0.1360
  900SOL     OW 3597   0.060   2.435   1.019 -0.0612  0.3001  0.4098
  900SOL    HW1 3598   0.081   2.521   0.981  0.8024  0.4453  0.8723
  900SOL    HW2 3599   0.078   2.374   0.942  0.5520 -0.9479  0.1235
  900SOL     MW 3600   0.065   2.438   1.004  0.1337  0.1546  0.4331
  901SOL     OW 3601   1.768   2.861   1.688 -0.6077  0.4497 -0.1539
  901SOL    HW1 3602   1.819   2.784   1.698  0.2996  0.1269 -0.0892
  901SOL    HW2 3603   1.736   2.864   1.598 -1.4024  2.0332 -0.4736
  901SOL     MW 3604   1.770   2.852   1.677 -0.5929  0.6160 -0.1876
  902SOL     OW 3605   2.660   2.115   1.818 -0.3036 -0.2252 -0.4914
  902SOL    HW1 3606   2.640   2.021   1.805 -0.2647 -2.1901 -2.8424
  902SOL    HW2 3607   2.739   2.101   1.867  1.2504  2.6922  0.4556
  902SOL     MW 3608   2.668   2.101   1.823 -0.0934 -0.0995 -0.6766
  903SOL     OW 3609   1.612   2.777   0.519 -0.0161 -0.5033 -0.3404
  903SOL    HW1 3610   1.666   2.706   0.557  0.7522 -0.2099  1.2575
  903SOL    HW2 3611   1.575   2.817   0.602  0.7020  1.0019  1.5776
  903SOL     MW 3612   1.615   2.773   0.535  0.1800 -0.2660  0.1235
  904SOL     OW 3613   2.498   2.489   1.728 -0.3478 -0.1668 -0.0554
  904SOL    HW1 3614   2.424   2.506   1.673  0.4471 -0.3241  0.6046
  904SOL    HW2 3615   2.544   2.412   1.697  0.9809  0.8388  0.1295
  904SOL     MW 3616   2.494   2.481   1.717 -0.0676 -0.0549  0.0560
  905SOL     OW 3617   2.327   2.568   2.160  0.1274  0.4600 -0.2154
  905SOL    HW1 3618   2.395   2.531   2.104  1.9362 -1.6097  0.7053
  905SOL    HW2 3619   2.295   2.493   2.217  0.9056 -2.2809  3.4429
  905SOL     MW 3620   2.332   2.553   2.160  0.4687 -0.1747  0.3888
  906SOL     OW 3621   2.427   2.569   0.912 -0.1544  0.5724 -0.1845
  906SOL    HW1 3622   2.523   2.547   0.913 -1.5950 -2.3993 -0.5519
  906SOL    HW2 3623   2.410   2.666   0.893  1.2843 -1.8065 -2.4825
  906SOL     MW 3624   2.438   2.579   0.910 -0.1546 -0.1335 -0.5362
  907SOL     OW 3625   2.556   2.879   1.338 -0.6128  0.6895  0.0996
  907SOL    HW1 3626   2.622   2.942   1.367  1.4831 -0.5983 -1.4432
  907SOL    HW2 3627   2.578   2.867   1.245 -0.8956 -2.5303 -1.6055
  907SOL     MW 3628   2.568   2.886   1.330 -0.3736  0.0948 -0.3289
  908SOL     OW 3629   2.755   2.363   0.009 -0.0743 -0.1638 -0.0409
  908SOL    HW1 3630   2.725   2.275   0.012  2.1705  1.2482 -0.1223
  908SOL    HW2 3631   2.704   2.395   0.080 -2.8686  0.1024 -0.9243
  908SOL     MW 3632   2.744   2.355   0.019 -0.1468  0.0576 -0.1682
  909SOL     OW 3633   1.668   0.178   1.157  0.5173  0.0773 -0.4749
  909SOL    HW1 3634   1.639   0.242   1.086  0.7181  0.0302  0.0993
  909SOL    HW2 3635   1.683   0.238   1.225  2.4700  0.0344  0.7905
  909SOL     MW 3636   1.666   0.195   1.156  0.8014  0.0654 -0.2321
  910SOL     OW 3637   2.264   1.788   0.409 -0.5375 -0.3965 -0.4311
  910SOL    HW1 3638   2.208   1.711   0.408  1.4481 -0.2110 -0.1754
  910SOL    HW2 3639   2.252   1.839   0.325  0.5284 -1.0861 -1.6164
  910SOL     MW 3640   2.255   1.784   0.398 -0.1349 -0.4630 -0.5537
  911SOL     OW 3641   2.198   2.215   1.736 -0.2437 -0.5648  0.1686
  911SOL    HW1 3642   2.266   2.184   1.801 -0.2181 -2.0815 -1.1117
  911SOL    HW2 3643   2.253   2.250   1.663  0.1687  0.2668 -0.9253
  911SOL     MW 3644   2.214   2.216   1.735 -0.1859 -0.6552 -0.1447
  912SOL     OW 3645   2.894   1.911   1.528  0.5753 -0.3782  0.3137
  912SOL    HW1 3646   2.897   1.967   1.446  0.5607  0.7603 -1.9440
  912SOL    HW2 3647   2.799   1.917   1.552  3.7385 -0.0644  1.2988
  912SOL     MW 3648   2.882   1.919   1.520  0.9908 -0.1866  0.1458
  913SOL     OW 3649   2.581   2.998   0.351 -0.0891 -0.2954  0.1032
  913SOL    HW1 3650   2.649   2.932   0.337 -0.6050  0.0298 -0.3972
  913SOL    HW2 3651   2.504   2.949   0.337 -0.7280  0.7773 -2.7924
  913SOL     MW 3652   2.580   2.983   0.348 -0.2415 -0.1110 -0.3449
  914SOL     OW 3653   2.773   1.691   3.043  0.2581  0.7322  0.1109
  914SOL    HW1 3654   2.816   1.761   2.991  3.6833  0.8728 -0.1164
  914SOL    HW2 3655   2.677   1.686   3.046 -2.4751 -1.9791 -0.5501
  914SOL     MW 3656   2.766   1.700   3.036  0.3494  0.3930 -0.0063
  915SOL     OW 3657   1.759   0.243   0.230 -0.3966 -0.1046  0.3352
  915SOL    HW1 3658   1.829   0.184   0.258 -0.7835  0.7721  0.0947
  915SOL    HW2 3659   1.681   0.194   0.255  0.7473  0.4167 -0.3892
  915SOL     MW 3660   1.758   0.229   0.237 -0.2967  0.0799  0.2079
  916SOL     OW 3661   1.754   2.060   1.954  0.6465  0.4911 -0.3965
  916SOL    HW1 3662   1.790   2.148   1.948 -0.5326  1.0376 -0.6155
  916SOL    HW2 3663   1.765   2.027   1.865 -0.8229 -3.9433  0.6903
  916SOL     MW 3664   1.760   2.067   1.941  0.2970 -0.0219 -0.2820
  917SOL     OW 3665   2.422   2.301   2.542  0.4030 -0.5665  0.0837
  917SOL    HW1 3666   2.465   2.291   2.627  0.5239  1.8613  1.0156
  917SOL    HW2 3667   2.495   2.315   2.478 -0.3050 -0.4604  0.7440
  917SOL     MW 3668   2.438   2.302   2.545  0.3255 -0.2321  0.2938
  918SOL     OW 3669   1.986   1.640   2.704 -0.0595 -0.0089 -0.8864
  918SOL    HW1 3670   1.936   1.688   2.632  0.0060 -1.1338  0.6843
  918SOL    HW2 3671   2.063   1.700   2.721  1.0160  0.4309  0.9804
  918SOL     MW 3672   1.990   1.654   2.697  0.0910 -0.0993 -0.4329
  919SOL     OW 3673   0.054   2.352   2.244  0.7711 -0.5659  0.1102
  919SOL    HW1 3674  -0.017   2.302   2.206  0.7314  2.9715 -2.7632
  919SOL    HW2 3675   0.109   2.333   2.167 -0.2572 -0.1185 -1.4941
  919SOL     MW 3676   0.052   2.343   2.229  0.6302 -0.0401 -0.4806
  920SOL     OW 3677   2.774   2.775   3.100 -0.2683  0.1114 -0.1780
  920SOL    HW1 3678   2.699   2.834   3.118 -3.3814 -1.5702 -0.1974
  920SOL    HW2 3679   2.756   2.745   3.012  0.9757  1.5553  1.0887
  920SOL     MW 3680   2.762   2.779   3.091 -0.5149  0.0800 -0.0134
  921SOL     OW 3681   2.382   2.633   2.633 -0.1129 -0.0475 -0.4917
  921SOL    HW1 3682   2.456   2.604   2.585  1.5601 -0.5670  1.8556
  921SOL    HW2 3683   2.377   2.557   2.697  0.8625 -1.4473 -0.9339
  921SOL     MW 3684   2.391   2.619   2.635  0.2365 -0.3007 -0.2403
  922SOL     OW 3685   2.022   2.826   0.317  0.3039  0.5159 -0.3423
  922SOL    HW1 3686   1.986   2.834   0.226  4.2765  1.9128  1.2902
  922SOL    HW2 3687   1.994   2.732   0.346 -1.1757 -0.1245  1.3378
  922SOL     MW 3688   2.013   2.814   0.309  0.6328  0.6157  0.0948
  923SOL     OW 3689   2.199   2.799   1.673 -0.3541  0.1756 -0.6562
  923SOL    HW1 3690   2.265   2.734   1.639  0.6438  1.3645 -1.2732
  923SOL    HW2 3691   2.161   2.834   1.594  0.0434 -1.0752  1.0841
  923SOL     MW 3692   2.203   2.795   1.658 -0.1700  0.1674 -0.5080
  924SOL     OW 3693   1.222   2.628   2.537  0.0203 -0.1964 -0.8286
  924SOL    HW1 3694   1.293   2.682   2.505  2.8639  0.5754 -1.4492
  924SOL    HW2 3695   1.278   2.578   2.598 -2.9471 -0.4969 -1.4031
  924SOL     MW 3696   1.239   2.628   2.541  0.0040 -0.1342 -0.9863
  925SOL     OW 3697   2.938   0.249   2.586  0.5252 -0.1920  0.3647
  925SOL    HW1 3698   2.943   0.265   2.494 -0.9721  1.5767 -1.5494
  925SOL    HW2 3699   2.894   0.321   2.626  1.3020 -2.4347 -1.8630
  925SOL     MW 3700   2.933   0.261   2.579  0.4301 -0.2546 -0.1818
  926SOL     OW 3701   2.748   2.409   2.077 -0.1417 -0.2143  0.5526
  926SOL    HW1 3702   2.796   2.471   2.130 -1.1442  1.2080 -0.8724
  926SOL    HW2 3703   2.793   2.425   1.992  0.9288 -1.1990  0.0215
  926SOL     MW 3704   2.760   2.419   2.073 -0.1328 -0.1565  0.2945
  927SOL     OW 3705   2.317   0.154   0.293 -0.5858  0.1431 -0.2754
  927SOL    HW1 3706   2.396   0.202   0.321  0.8297  2.9588  2.6588
  927SOL    HW2 3707   2.328   0.113   0.203  1.4020 -0.9162  0.2679
  927SOL     MW 3708   2.329   0.155   0.285 -0.1368  0.3748  0.1835
  928SOL     OW 3709   2.078   2.407   1.875 -0.3634  0.1253  0.3120
  928SOL    HW1 3710   2.124   2.335   1.833  2.1876  1.8524 -2.0322
  928SOL    HW2 3711   2.136   2.444   1.943 -2.0299 -1.7318  0.2872
  928SOL     MW 3712   2.092   2.402   1.878 -0.2467  0.1082 -0.0005
  929SOL     OW 3713   2.671   2.365   2.424 -0.0034  0.3318  0.1508
  929SOL    HW1 3714   2.721   2.362   2.346  3.7210 -2.0138  4.1103
  929SOL    HW2 3715   2.729   2.336   2.493 -0.6638 -1.7768  1.0768
  929SOL     MW 3716   2.685   2.361   2.423  0.4009 -0.2559  0.7954
  930SOL     OW 3717   1.993   2.835   2.697  0.1705 -0.3306  0.0931
  930SOL    HW1 3718   2.026   2.758   2.752 -2.0470  1.6498 -0.0009
  930SOL    HW2 3719   2.043   2.912   2.729 -0.3240  1.5721 -0.4337
  930SOL     MW 3720   2.004   2.835   2.708 -0.1873  0.1818  0.0112
  931SOL     OW 3721   3.007   2.776   2.285  0.3506  0.1643 -0.3714
  931SOL    HW1 3722   3.038   2.804   2.374 -0.2670  1.4158  0.0658
  931SOL    HW2 3723   3.069   2.831   2.236 -3.4278 -1.0188 -0.0319
  931SOL     MW 3724   3.019   2.787   2.290 -0.2294  0.1733 -0.2689
  932SOL     OW 3725   2.858   1.987   2.510 -0.4300  0.2120 -0.1398
  932SOL    HW1 3726   2.952   2.000   2.522 -0.1570 -0.1048  0.1024
  932SOL    HW2 3727   2.839   2.003   2.419 -2.4736 -2.1268 -0.2220
  932SOL     MW 3728   2.868   1.991   2.500 -0.6636 -0.1384 -0.1187
  933SOL     OW 3729   2.060   2.869   2.260 -0.2358 -0.0704  0.1202
  933SOL    HW1 3730   2.136   2.917   2.295 -2.2054 -0.5869  2.6255
  933SOL    HW2 3731   1.984   2.928   2.258  0.3275  0.2755 -1.6873
  933SOL     MW 3732   2.060   2.883   2.264 -0.4214 -0.0929  0.2123
  934SOL     OW 3733   2.014   2.699   2.461  0.1626 -0.1039  0.5180
  934SOL    HW1 3734   2.015   2.766   2.533 -0.0636 -1.0667 -1.1597
  934SOL    HW2 3735   2.039   2.749   2.382 -2.2754  1.9140 -0.3170
  934SOL     MW 3736   2.018   2.715   2.460 -0.1889  0.0353  0.1865
  935SOL     OW 3737   2.660   1.601   1.835 -0.2612 -0.2357 -0.0405
  935SOL    HW1 3738   2.739   1.556   1.819 -1.0751  1.5460 -0.6052
  935SOL    HW2 3739   2.591   1.590   1.764 -1.0451  2.7949 -2.4364
  935SOL     MW 3740   2.662   1.594   1.823 -0.4720  0.3992 -0.4311
  936SOL     OW 3741   3.017   2.270   3.071 -0.4053 -0.1215 -0.1299
  936SOL    HW1 3742   3.095   2.306   3.114 -1.9908  0.2499 -0.5969
  936SOL    HW2 3743   2.942   2.325   3.087  1.4852  0.4685  2.4758
  936SOL     MW 3744   3.017   2.282   3.078 -0.3651  0.0054  0.1523
  937SOL     OW 3745   1.985   2.098   2.707 -0.6034 -0.3465  0.1798
  937SOL    HW1 3746   2.082   2.066   2.709  0.1180 -1.3393 -2.6886
  937SOL    HW2 3747   1.973   2.079   2.616 -2.0972 -2.5937  1.1185
  937SOL     MW 3748   1.996   2.091   2.695 -0.7053 -0.7740 -0.0748
  938SOL     OW 3749   2.273   1.827   1.878 -0.2399  0.0238  0.2998
  938SOL    HW1 3750   2.268   1.875   1.792 -1.5010  2.3200  3.7174
  938SOL    HW2 3751   2.255   1.895   1.943 -2.1675  1.2844  0.3938
  938SOL     MW 3752   2.270   1.842   1.875 -0.6606  0.4931  0.7631
  939SOL     OW 3753   2.808   1.989   2.228  0.0621 -0.2783  0.8007
  939SOL    HW1 3754   2.819   1.914   2.162 -0.9365 -0.8022 -2.1604
  939SOL    HW2 3755   2.715   1.985   2.245  1.0572 -0.9902 -0.3406
  939SOL     MW 3756   2.798   1.978   2.222  0.0616 -0.4414  0.2594
  940SOL     OW 3757   2.315   0.185   2.666  0.0418 -0.0093 -0.6255
  940SOL    HW1 3758   2.288   0.091   2.668 -0.8593  0.9789 -0.7817
  940SOL    HW2 3759   2.373   0.188   2.738 -1.0306  0.0570 -0.1735
  940SOL     MW 3760   2.319   0.173   2.676 -0.2186  0.1298 -0.5865
  941SOL     OW 3761   0.190   2.264   2.016  0.1031  0.1721  0.1601
  941SOL    HW1 3762   0.283   2.248   2.027  0.7272  0.3422 -0.7570
  941SOL    HW2 3763   0.163   2.254   1.935  0.1950  3.3822  2.1709
  941SOL     MW 3764   0.199   2.260   2.007  0.1976  0.6181  0.3044
  942SOL     OW 3765   2.934   2.222   2.150  0.0177  0.0196 -0.1412
  942SOL    HW1 3766   2.863   2.290   2.131 -0.3759  0.9887  0.1365
  942SOL    HW2 3767   2.893   2.138   2.180 -1.5553  1.4135 -1.6937
  942SOL     MW 3768   2.919   2.220   2.151 -0.2418  0.3314 -0.3094
  943SOL     OW 3769   0.350   2.027   2.308 -0.1498  0.3534  0.0247
  943SOL    HW1 3770   0.317   2.093   2.375  0.1460  0.4983  0.2068
  943SOL    HW2 3771   0.440   2.012   2.347  0.2462  0.4493  3.5399
  943SOL     MW 3772   0.358   2.034   2.322 -0.0585  0.3851  0.5125
  944SOL     OW 3773   2.088   2.685   2.057 -0.3626  0.1694 -0.2406
  944SOL    HW1 3774   2.179   2.669   2.075  1.5778  1.9803 -1.7789
  944SOL    HW2 3775   2.071   2.759   2.112  1.0091  0.0980  0.8163
  944SOL     MW 3776   2.098   2.693   2.067  0.0744  0.3989 -0.3041
  945SOL     OW 3777   2.753   2.686   2.857 -0.4391 -0.0353  0.0561
  945SOL    HW1 3778   2.713   2.596   2.865  0.4462 -0.5556 -0.5767
  945SOL    HW2 3779   2.785   2.689   2.766  1.5480 -0.7708  1.6804
  945SOL     MW 3780   2.752   2.675   2.846 -0.0601 -0.2010  0.1869
  946SOL     OW 3781   2.502   2.739   2.297  0.0122  0.1843  0.6175
  946SOL    HW1 3782   2.531   2.789   2.216 -3.3193 -1.6696 -0.3286
  946SOL    HW2 3783   2.462   2.664   2.249  2.4056  1.3106 -2.3748
  946SOL     MW 3784   2.501   2.736   2.280 -0.1115  0.0883  0.0979
  947SOL     OW 3785   1.993   0.099   0.268 -0.3553  0.0215  0.2296
  947SOL    HW1 3786   1.964   0.026   0.212  2.8112  2.8640  1.9082
  947SOL    HW2 3787   2.019   0.059   0.350 -1.0767  1.0826 -0.8832
  947SOL     MW 3788   1.993   0.084   0.271 -0.0327  0.5365  0.3043
  948SOL     OW 3789   1.778   2.993   2.663 -0.0973 -0.4005  0.0461
  948SOL    HW1 3790   1.840   2.919   2.650 -1.3144  0.4908  1.8646
  948SOL    HW2 3791   1.760   3.028   2.569  0.2534 -0.8788  0.9020
  948SOL     MW 3792   1.784   2.988   2.649 -0.2116 -0.3460  0.3990
  949SOL     OW 3793   2.540   1.977   2.284 -0.1667  0.4001 -0.0408
  949SOL    HW1 3794   2.546   1.885   2.316  0.2432 -0.6145  0.5799
  949SOL    HW2 3795   2.466   2.021   2.338  0.4475 -1.4029 -0.5491
  949SOL     MW 3796   2.531   1.971   2.296 -0.0316  0.0283 -0.0259
  950SOL     OW 3797   2.289   2.518   3.009  0.0637 -0.2932 -0.0166
  950SOL    HW1 3798   2.349   2.457   2.963  0.6333 -2.4723 -1.6651
  950SOL    HW2 3799   2.214   2.550   2.952  0.1339  0.4073 -0.7725
  950SOL     MW 3800   2.287   2.514   2.996  0.1482 -0.4883 -0.3338
  951SOL     OW 3801   2.981   2.135   2.845  0.2568  0.1793  0.4045
  951SOL    HW1 3802   3.038   2.177   2.905  0.2644 -1.2545 -1.5096
  951SOL    HW2 3803   3.040   2.123   2.767  1.0250  0.3078  1.7384
  951SOL     MW 3804   2.997   2.139   2.843  0.3591  0.0071  0.3280
  952SOL     OW 3805   3.095   1.685   2.154  0.4121 -0.3003  0.3494
  952SOL    HW1 3806   3.012   1.712   2.101  1.2110 -0.4538 -3.5913
  952SOL    HW2 3807   3.166   1.756   2.155  1.8048 -1.8944  1.5349
  952SOL     MW 3808   3.093   1.698   2.147  0.7012 -0.5309 -0.0141
  953SOL     OW 3809   1.898   1.785   2.929  0.4789  0.1477 -0.1392
  953SOL    HW1 3810   1.816   1.743   2.964  3.3411 -0.3342 -1.4858
  953SOL    HW2 3811   1.933   1.719   2.867 -3.5694  0.3245  1.5648
  953SOL     MW 3812   1.891   1.771   2.925  0.3224  0.1074 -0.0920
  954SOL     OW 3813   2.484   2.083   2.865  0.0365  0.3796  0.2734
  954SOL    HW1 3814   2.396   2.078   2.819 -0.2340  0.0058 -0.2248
  954SOL    HW2 3815   2.549   2.041   2.805 -2.0540  2.4983 -1.8742
  954SOL     MW 3816   2.481   2.076   2.851 -0.2750  0.6098 -0.0757
  955SOL     OW 3817   1.593   1.594   2.605 -0.3054  0.2937 -0.1406
  955SOL    HW1 3818   1.554   1.616   2.511 -0.8147 -0.0171  1.4502
  955SOL    HW2 3819   1.682   1.635   2.605  0.6216 -0.7953 -1.1576
  955SOL     MW 3820   1.599   1.602   2.592 -0.2503  0.1090 -0.0649
  956SOL     OW 3821   2.702   2.412   2.836 -0.0877 -0.1915 -0.2285
  956SOL    HW1 3822   2.729   2.359   2.909  1.7007 -0.2629 -2.0686
  956SOL    HW2 3823   2.754   2.386   2.764  0.4943  0.7971 -1.4100
  956SOL     MW 3824   2.713   2.402   2.836  0.2251 -0.0705 -0.6272
  957SOL     OW 3825   2.307   2.873   0.372  0.2363 -0.2634  0.2326
  957SOL    HW1 3826   2.216   2.863   0.341  0.2200  0.7062  1.2202
  957SOL    HW2 3827   2.302   2.838   0.463  0.3292 -1.7483 -2.4994
  957SOL     MW 3828   2.295   2.867   0.380  0.2464 -0.3314  0.0025
  958SOL     OW 3829   2.042   2.613   2.848  0.5618 -0.1031  0.2789
  958SOL    HW1 3830   1.985   2.562   2.790 -0.3016 -1.5875  0.1862
  958SOL    HW2 3831   1.975   2.630   2.918  0.2186  0.8975 -0.9639
  958SOL     MW 3832   2.026   2.609   2.849  0.4026 -0.1669  0.1027
  959SOL     OW 3833   2.433   2.632   0.370 -0.0770 -0.0326  0.1030
  959SOL    HW1 3834   2.488   2.639   0.297  0.4118  1.3675  2.3457
  959SOL    HW2 3835   2.377   2.710   0.380  1.4425 -0.6892 -0.4633
  959SOL     MW 3836   2.433   2.643   0.362  0.1880  0.0655  0.3242
  960SOL     OW 3837   1.971   2.301   2.261  0.6051 -0.0036 -0.4042
  960SOL    HW1 3838   1.903   2.305   2.196 -1.7623 -1.5185  0.4119
  960SOL    HW2 3839   1.927   2.320   2.346 -1.3121  0.8846 -0.7719
  960SOL     MW 3840   1.956   2.304   2.263  0.0398 -0.0863 -0.3450
  961SOL     OW 3841   2.251   2.332   2.284 -0.2472  0.1109 -0.5240
  961SOL    HW1 3842   2.165   2.304   2.247 -0.6120 -0.3306 -2.4709
  961SOL    HW2 3843   2.229   2.365   2.371  0.6171  0.6739 -2.6076
  961SOL     MW 3844   2.237   2.332   2.290 -0.1813  0.1270 -1.0558
  962SOL     OW 3845   2.213   2.000   2.811 -0.2304 -0.2760  0.3315
  962SOL    HW1 3846   2.185   1.996   2.902  0.1416  0.8757  0.5318
  962SOL    HW2 3847   2.245   1.911   2.785  1.7869 -1.0574 -0.0681
  962SOL     MW 3848   2.214   1.987   2.820  0.0848 -0.2272  0.3052
  963SOL     OW 3849   1.827   2.620   2.048 -0.1133 -0.1757  0.4060
  963SOL    HW1 3850   1.926   2.637   2.065  3.4542 -0.6592 -0.1859
  963SOL    HW2 3851   1.824   2.528   2.019 -1.4852  1.6911  0.1560
  963SOL     MW 3852   1.840   2.610   2.046  0.1764  0.0068  0.2949
  964SOL     OW 3853   1.757   1.938   2.748 -0.0986 -0.2892 -0.6259
  964SOL    HW1 3854   1.834   1.996   2.749 -1.4331 -1.7008 -1.3388
  964SOL    HW2 3855   1.791   1.862   2.807 -1.6863 -0.9857  3.4129
  964SOL     MW 3856   1.772   1.936   2.756 -0.4842 -0.5674 -0.1871
  965SOL     OW 3857   2.238   2.754   0.623  0.0874 -0.2000 -0.2912
  965SOL    HW1 3858   2.209   2.666   0.626 -1.1820  0.2749 -1.1799
  965SOL    HW2 3859   2.303   2.757   0.692  0.5821  2.1978  1.3732
  965SOL     MW 3860   2.243   2.743   0.632 -0.0148  0.1790 -0.1889
  966SOL     OW 3861   2.625   2.632   2.507  0.4359  0.0184 -0.0042
  966SOL    HW1 3862   2.591   2.670   2.431  0.6106  0.4177  0.8907
  966SOL    HW2 3863   2.645   2.541   2.478 -1.0366 -2.2395 -1.5560
  966SOL     MW 3864   2.623   2.625   2.493  0.2647 -0.2268 -0.0909
  967SOL     OW 3865   2.848   3.018   2.905 -0.7457 -0.1464 -0.3881
  967SOL    HW1 3866   2.842   2.932   2.939 -0.2631  0.4193 -1.1097
  967SOL    HW2 3867   2.758   3.045   2.882 -0.0218  0.5211  1.2778
  967SOL     MW 3868   2.835   3.010   2.907 -0.5865  0.0163 -0.2635
  968SOL     OW 3869   3.003   2.651   2.910  0.3845  0.8172 -0.7207
  968SOL    HW1 3870   2.912   2.654   2.894  1.7049  1.4201  3.2901
  968SOL    HW2 3871   3.031   2.581   2.849  0.9857 -2.6331  0.8805
  968SOL     MW 3872   2.995   2.642   2.900  0.6380  0.4415  0.0198
  969SOL     OW 3873   1.529   2.133   1.679 -0.5750  0.2083  0.4422
  969SOL    HW1 3874   1.587   2.061   1.658  0.6541  1.8671 -3.8859
  969SOL    HW2 3875   1.496   2.118   1.764  0.8819  0.5136 -2.3922
  969SOL     MW 3876   1.533   2.122   1.687 -0.2206  0.4675 -0.5028
  970SOL     OW 3877   1.622   1.705   1.765 -0.5190  0.6952  0.0039
  970SOL    HW1 3878   1.686   1.679   1.829 -0.5139 -2.6335  0.6527
  970SOL    HW2 3879   1.552   1.749   1.809  2.2982 -0.3069 -0.0889
  970SOL     MW 3880   1.621   1.708   1.780 -0.1466  0.1238  0.0773
  971SOL     OW 3881   1.763   3.064   2.407 -0.0698  0.1400  0.1678
  971SOL    HW1 3882   1.779   3.034   2.322  1.1258 -2.4617  0.0753
  971SOL    HW2 3883   1.829   3.137   2.427  2.2088  2.1846  2.3742
  971SOL     MW 3884   1.774   3.070   2.399  0.3886  0.0665  0.4467
  972SOL     OW 3885   0.266   2.859   2.459  0.2257  0.5648  0.5079
  972SOL    HW1 3886   0.305   2.779   2.493  0.0840 -1.0179 -1.6726
  972SOL    HW2 3887   0.324   2.928   2.483 -2.4445  1.3687 -1.3411
  972SOL     MW 3888   0.279   2.857   2.466 -0.1453  0.4620 -0.0238
  973SOL     OW 3889   2.519   0.047   2.093 -1.0727  0.2729 -0.9123
  973SOL    HW1 3890   2.518  -0.043   2.069 -1.4037  1.2098 -1.7931
  973SOL    HW2 3891   2.563   0.083   2.013  3.3008  0.7498 -1.6986
  973SOL     MW 3892   2.525   0.040   2.079 -0.5393  0.4595 -1.1323
  974SOL     OW 3893   2.049   0.209   2.684 -0.2359  0.2723 -0.0247
  974SOL    HW1 3894   2.145   0.195   2.679  2.1320 -2.0465 -1.0865
  974SOL    HW2 3895   2.019   0.133   2.736 -0.2958  0.3143 -0.9498
  974SOL     MW 3896   2.058   0.197   2.690  0.0686 -0.0281 -0.2868
  975SOL     OW 3897   2.184   2.474   2.500  0.2375 -0.1926 -0.2985
  975SOL    HW1 3898   2.263   2.524   2.514 -1.8244 -1.7491  1.4787
  975SOL    HW2 3899   2.119   2.546   2.479 -3.3317 -0.9278 -0.9735
  975SOL     MW 3900   2.186   2.490   2.499 -0.5055 -0.4950 -0.1531
  976SOL     OW 3901   0.254   0.341   1.710  0.4235 -0.0132 -0.2347
  976SOL    HW1 3902   0.327   0.279   1.733  0.5401 -3.0917 -0.0862
  976SOL    HW2 3903   0.186   0.291   1.671 -0.7845 -1.1325  1.3145
  976SOL     MW 3904   0.254   0.327   1.708  0.2795 -0.5670 -0.0107
  977SOL     OW 3905   1.758   2.643   2.477  0.0456 -0.4394  0.1503
  977SOL    HW1 3906   1.745   2.547   2.472  0.6726 -0.5633 -1.6351
  977SOL    HW2 3907   1.849   2.662   2.455 -0.1805 -0.4227  0.5798
  977SOL     MW 3908   1.768   2.633   2.473  0.0985 -0.4536 -0.0286
   3.10000   3.10000   3.10000
