977 TIP4P/2005f water molecules t=   0.55000 step= 550
 3908
    1SOL     OW    1   0.218   0.829   0.022 -0.6648  0.5551 -0.0571
    1SOL    HW1    2   0.209   0.834  -0.072  0.4994 -1.1466  0.4827
    1SOL    HW2    3   0.190   0.739   0.035 -2.0541  3.4659  1.1783
    1SOL     MW    4   0.213   0.818   0.011 -0.6945  0.7146  0.1771
    2SOL     OW    5   0.264   3.021   1.158 -0.4222 -0.3176  0.3837
    2SOL    HW1    6   0.312   3.074   1.096  1.2326 -0.3881 -1.3875
    2SOL    HW2    7   0.181   3.070   1.157 -2.9037 -1.4219  0.3011
    2SOL     MW    8   0.259   3.034   1.149 -0.5313 -0.4726  0.1391
    3SOL     OW    9   2.696   0.385   0.924 -0.2983 -0.1977 -0.3039
    3SOL    HW1   10   2.714   0.460   0.870 -1.5796  3.2298  0.1828
    3SOL    HW2   11   2.648   0.420   1.005 -0.4553  2.7572 -0.9533
    3SOL     MW   12   2.692   0.399   0.927 -0.4880  0.6444 -0.3254
    4SOL     OW   13   3.053   1.757   0.585 -0.2758  0.1065 -0.1331
    4SOL    HW1   14   2.976   1.792   0.538  0.6724  0.5013  0.2345
    4SOL    HW2   15   3.119   1.709   0.533 -1.1768  0.6847  2.0159
    4SOL     MW   16   3.051   1.755   0.572 -0.2696  0.2349  0.1989
    5SOL     OW   17   1.725   1.499   0.572 -0.0176  0.2128 -0.8254
    5SOL    HW1   18   1.764   1.431   0.633 -1.1283  2.0941  0.1002
    5SOL    HW2   19   1.629   1.488   0.588  0.4976  0.9151 -3.2151
    5SOL     MW   20   1.718   1.489   0.582 -0.0962  0.5537 -1.0186
    6SOL     OW   21   0.862   1.389   0.683 -0.4511 -0.0037  0.2430
    6SOL    HW1   22   0.773   1.403   0.705 -0.2848 -2.2391 -0.3140
    6SOL    HW2   23   0.876   1.293   0.673  0.8983 -0.7855 -2.9817
    6SOL     MW   24   0.852   1.378   0.684 -0.2511 -0.4018 -0.2560
    7SOL     OW   25   2.007   1.126   0.034  0.4199  1.0136 -0.5198
    7SOL    HW1   26   2.044   1.210   0.004  0.8879  3.0255  0.9220
    7SOL    HW2   27   2.046   1.117   0.121 -2.8084  1.3463  1.2190
    7SOL     MW   28   2.017   1.136   0.041  0.0557  1.3230 -0.1001
    8SOL     OW   29   0.944   1.371   1.018 -0.1764 -0.0466 -0.0299
    8SOL    HW1   30   0.928   1.356   0.926 -1.0665  0.5557  3.0615
    8SOL    HW2   31   0.960   1.290   1.060  0.6945  2.6204  1.4678
    8SOL     MW   32   0.944   1.358   1.012 -0.1790  0.3848  0.5756
    9SOL     OW   33   1.071   0.468   1.376  0.2574 -0.3414  0.3644
    9SOL    HW1   34   0.995   0.423   1.333 -2.1770 -0.8003  2.9305
    9SOL    HW2   35   1.088   0.413   1.450 -2.5623  0.8010 -0.3193
    9SOL     MW   36   1.063   0.455   1.380 -0.4358 -0.2512  0.6128
   10SOL     OW   37   0.253   0.787   0.430 -0.3070  0.1743 -0.4156
   10SOL    HW1   38   0.346   0.797   0.408  2.8132 -1.1019 -2.4051
   10SOL    HW2   39   0.242   0.850   0.504 -0.4249  0.2922  1.8636
   10SOL     MW   40   0.264   0.797   0.437  0.0891  0.0215 -0.3774
   11SOL     OW   41   0.780   1.129   1.660 -0.3156  0.7014  0.2428
   11SOL    HW1   42   0.824   1.097   1.742 -1.3042  1.6906  1.2022
   11SOL    HW2   43   0.745   1.048   1.620  2.0214  3.1476  2.7716
   11SOL     MW   44   0.781   1.114   1.666 -0.1377  1.1546  0.7031
   12SOL     OW   45   0.026   1.058   0.855 -0.7255  0.2642  0.4080
   12SOL    HW1   46   0.071   1.119   0.920  0.7818 -5.8064 -0.0828
   12SOL    HW2   47  -0.054   1.098   0.825  0.8955 -2.0187 -2.0635
   12SOL     MW   48   0.021   1.071   0.860 -0.3127 -0.8379  0.0171
   13SOL     OW   49   1.853   1.421   1.320 -0.3754 -0.4297 -0.0736
   13SOL    HW1   50   1.877   1.379   1.241  0.7672  0.5858  1.1611
   13SOL    HW2   51   1.849   1.521   1.303 -1.9240  0.9069 -1.2133
   13SOL     MW   52   1.856   1.429   1.307 -0.4290 -0.1193 -0.0611
   14SOL     OW   53   0.582   0.326   1.814 -0.0494  0.2072  0.1164
   14SOL    HW1   54   0.581   0.246   1.757  1.8523  0.8760 -0.0828
   14SOL    HW2   55   0.656   0.321   1.871  1.9700  0.0808 -0.6409
   14SOL     MW   56   0.592   0.315   1.814  0.4680  0.2788 -0.0098
   15SOL     OW   57   1.943   0.521   0.969 -0.8251 -0.0422  0.3068
   15SOL    HW1   58   1.940   0.531   1.068 -0.1582  0.3243  0.6858
   15SOL    HW2   59   2.034   0.491   0.956 -1.2624 -0.8975  0.7482
   15SOL     MW   60   1.955   0.518   0.980 -0.7948 -0.1067  0.4151
   16SOL     OW   61   0.244   1.781   0.326  0.7516  0.4059  0.0736
   16SOL    HW1   62   0.329   1.736   0.339 -0.2403 -0.0535 -0.1293
   16SOL    HW2   63   0.241   1.854   0.388 -1.0929 -0.5160 -2.0350
   16SOL     MW   64   0.255   1.785   0.336  0.3774  0.2236 -0.2314
   17SOL     OW   65   1.001   0.844   1.492 -0.0580  0.2672 -0.0293
   17SOL    HW1   66   1.042   0.844   1.578  0.9059 -1.1827 -0.0047
   17SOL    HW2   67   0.906   0.847   1.498  1.1453  0.9052  1.7405
   17SOL     MW   68   0.994   0.845   1.504  0.2279  0.1601  0.2075
   18SOL     OW   69   0.088   1.582   0.433  0.2912 -0.0086 -0.6126
   18SOL    HW1   70   0.143   1.638   0.375 -0.6743  0.7619 -1.0576
   18SOL    HW2   71   0.029   1.528   0.378 -0.5990 -0.8352 -2.1837
   18SOL     MW   72   0.088   1.582   0.418  0.0464 -0.0160 -0.8786
   19SOL     OW   73   0.081   1.297   1.000  0.0243 -0.3291  0.2165
   19SOL    HW1   74   0.146   1.345   0.943 -0.8224  2.9392  1.3360
   19SOL    HW2   75   0.014   1.360   1.016 -0.2852  0.7709  1.6724
   19SOL     MW   76   0.081   1.311   0.995 -0.1283  0.2472  0.5563
   20SOL     OW   77   0.422   2.125   1.296 -0.4081 -0.2447 -0.2216
   20SOL    HW1   78   0.354   2.064   1.264  0.4498  2.0120 -0.0129
   20SOL    HW2   79   0.370   2.179   1.360 -1.7730 -2.1365 -1.3124
   20SOL     MW   80   0.407   2.124   1.300 -0.4750 -0.1965 -0.3380
   21SOL     OW   81   0.520   0.825   0.378 -0.1477 -0.4027  0.2528
   21SOL    HW1   82   0.604   0.825   0.421  2.3180  0.0617 -1.6020
   21SOL    HW2   83   0.542   0.796   0.290  0.2154 -0.1321  0.8799
   21SOL     MW   84   0.534   0.822   0.372  0.2255 -0.3057  0.0908
   22SOL     OW   85   1.525   0.566   1.112 -0.9051 -0.5588  0.1482
   22SOL    HW1   86   1.573   0.498   1.056 -1.4496  1.6773  1.8820
   22SOL    HW2   87   1.444   0.591   1.067 -0.7744 -1.4468 -2.4624
   22SOL     MW   88   1.521   0.561   1.099 -0.9597 -0.3809  0.0325
   23SOL     OW   89   3.085   0.765   0.676  0.0674  0.2757 -0.8332
   23SOL    HW1   90   3.121   0.692   0.725 -1.2253 -0.0808 -1.1314
   23SOL    HW2   91   3.163   0.828   0.666 -0.2780  0.6463 -2.1507
   23SOL     MW   92   3.100   0.764   0.681 -0.1487  0.2776 -1.0464
   24SOL     OW   93   1.989   2.205   0.082  0.0173  0.3616  0.5902
   24SOL    HW1   94   2.011   2.185   0.175  0.7463  0.0825 -0.9714
   24SOL    HW2   95   2.042   2.144   0.033  0.1475  0.0120 -0.2170
   24SOL     MW   96   1.999   2.194   0.088  0.1307  0.2786  0.2777
   25SOL     OW   97   0.272   1.408   0.535 -0.8775 -0.6440  0.1885
   25SOL    HW1   98   0.239   1.497   0.502  0.4942  1.3713 -0.5947
   25SOL    HW2   99   0.329   1.382   0.472 -0.5706  1.0847  3.7137
   25SOL     MW  100   0.275   1.417   0.522 -0.6560 -0.1500  0.5503
   26SOL     OW  101   2.024   0.909   0.454 -0.3856  0.1405 -0.1803
   26SOL    HW1  102   1.951   0.949   0.492  1.2486 -0.3960 -0.1494
   26SOL    HW2  103   2.037   0.976   0.385 -1.0190  2.5458  4.6996
   26SOL     MW  104   2.016   0.923   0.450 -0.2535  0.3871  0.4676
   27SOL     OW  105   2.052   1.387   0.262  0.7150  0.0828 -0.7873
   27SOL    HW1  106   1.963   1.374   0.297  0.8180  0.4159  0.7607
   27SOL    HW2  107   2.080   1.460   0.319 -0.4643 -0.8433 -0.4770
   27SOL     MW  108   2.044   1.395   0.274  0.5730  0.0046 -0.5421
   28SOL     OW  109   0.384   1.086   1.962  1.2400  0.6240 -0.0625
   28SOL    HW1  110   0.467   1.093   1.917 -0.4349 -2.1748 -3.8017
   28SOL    HW2  111   0.383   1.028   2.039 -1.7627  0.8742  1.1405
   28SOL     MW  112   0.395   1.079   1.966  0.6228  0.2878 -0.3971
   29SOL     OW  113   0.269   1.432   0.812  0.2288  0.2294  0.0993
   29SOL    HW1  114   0.268   1.527   0.801  0.7800 -1.1952 -0.0094
   29SOL    HW2  115   0.285   1.409   0.722  1.3804 -1.9050  1.6875
   29SOL     MW  116   0.271   1.441   0.799  0.4535 -0.2401  0.2945
   30SOL     OW  117   0.863   1.129   1.236 -0.4889  0.5205 -0.1365
   30SOL    HW1  118   0.785   1.153   1.291  0.2257  1.9046  1.8291
   30SOL    HW2  119   0.939   1.139   1.299  1.3926  1.2190  0.0906
   30SOL     MW  120   0.863   1.133   1.251 -0.1464  0.7953  0.1528
   31SOL     OW  121   0.384   0.239   0.175 -0.0431 -0.5629 -0.4491
   31SOL    HW1  122   0.396   0.168   0.241  0.4494 -2.7510 -0.7047
   31SOL    HW2  123   0.387   0.196   0.094 -1.0209 -1.2722 -1.3659
   31SOL     MW  124   0.386   0.224   0.173 -0.1071 -0.9452 -0.6038
   32SOL     OW  125   2.764   1.024   1.133  0.0410 -0.4299  0.4258
   32SOL    HW1  126   2.718   0.944   1.110  0.1064  0.9858  2.8060
   32SOL    HW2  127   2.858   1.012   1.111  0.0490  0.9612 -0.6212
   32SOL     MW  128   2.770   1.012   1.127  0.0507 -0.0596  0.6017
   33SOL     OW  129   1.792   1.352   0.349 -0.0635 -0.4803  0.2267
   33SOL    HW1  130   1.797   1.262   0.382  0.5256 -0.4384  0.7769
   33SOL    HW2  131   1.791   1.409   0.427 -1.8901 -0.7878  1.2632
   33SOL     MW  132   1.792   1.348   0.363 -0.2267 -0.5153  0.4360
   34SOL     OW  133   1.217   1.887   1.102 -0.1919 -0.2713  0.1155
   34SOL    HW1  134   1.128   1.902   1.149  0.9936 -0.0438  0.1990
   34SOL    HW2  135   1.290   1.907   1.167 -1.4985 -3.6337 -0.4790
   34SOL     MW  136   1.215   1.892   1.117 -0.2079 -0.6849  0.0481
   35SOL     OW  137   0.347   0.127   1.819  0.6053 -0.1895  0.4352
   35SOL    HW1  138   0.334   0.088   1.909  0.2503  0.2546  0.4932
   35SOL    HW2  139   0.371   0.049   1.762 -0.1487  0.5693  1.1843
   35SOL     MW  140   0.348   0.111   1.823  0.4590 -0.0308  0.5417
   36SOL     OW  141   1.844   1.919   0.472 -0.2222 -0.2862 -0.4735
   36SOL    HW1  142   1.895   1.919   0.393  0.2396  3.4968  3.4973
   36SOL    HW2  143   1.876   1.843   0.512  2.1428 -1.5253 -1.2106
   36SOL     MW  144   1.855   1.909   0.467  0.1507  0.0495 -0.0469
   37SOL     OW  145   1.769   2.040   1.047  0.5368 -0.7432  0.5747
   37SOL    HW1  146   1.735   1.987   0.974 -0.6101 -0.2541 -2.6127
   37SOL    HW2  147   1.687   2.052   1.103  0.2144 -1.3825  2.0544
   37SOL     MW  148   1.754   2.035   1.044  0.3429 -0.7630  0.3494
   38SOL     OW  149   2.818   0.927   0.170  0.1064 -0.1470 -0.3050
   38SOL    HW1  150   2.872   0.928   0.249 -1.7176  0.2937  1.9633
   38SOL    HW2  151   2.862   0.880   0.105 -1.8394  0.4096 -0.4075
   38SOL     MW  152   2.831   0.921   0.172 -0.3910 -0.0154 -0.0192
   39SOL     OW  153   1.407   0.617   0.803 -0.6702  0.0568  0.0888
   39SOL    HW1  154   1.416   0.523   0.807  0.8480  0.0824 -0.2235
   39SOL    HW2  155   1.315   0.642   0.821 -1.0858 -0.5173  0.1262
   39SOL     MW  156   1.396   0.608   0.806 -0.5247 -0.0155  0.0525
   40SOL     OW  157   1.207   1.880   0.248 -0.4360  0.2818  0.2818
   40SOL    HW1  158   1.233   1.827   0.323 -0.8027 -0.5028 -2.0121
   40SOL    HW2  159   1.166   1.957   0.287  0.3533  0.8862  0.3489
   40SOL     MW  160   1.205   1.883   0.263 -0.3803  0.2580 -0.0120
   41SOL     OW  161   0.607   0.488   1.566  0.0935 -0.1045 -0.2710
   41SOL    HW1  162   0.700   0.509   1.565 -0.1423 -2.5090 -1.7344
   41SOL    HW2  163   0.600   0.438   1.649  0.3948 -0.2497  1.8910
   41SOL     MW  164   0.618   0.484   1.577  0.1021 -0.4409 -0.1788
   42SOL     OW  165   1.261   2.986   1.989 -0.7254  0.2357  0.4169
   42SOL    HW1  166   1.186   2.987   2.043  1.0604 -1.9918  0.3934
   42SOL    HW2  167   1.317   2.914   2.021 -0.5614 -0.5076 -2.2213
   42SOL     MW  168   1.258   2.977   2.000 -0.4681 -0.1563  0.0657
   43SOL     OW  169   1.518   0.156   1.733  0.4737 -0.2402  0.4401
   43SOL    HW1  170   1.555   0.118   1.656 -1.5674  1.0581  0.2818
   43SOL    HW2  171   1.445   0.094   1.726 -0.6888 -0.6240 -1.8234
   43SOL     MW  172   1.513   0.143   1.722  0.0510 -0.1195  0.1206
   44SOL     OW  173   1.254   0.745   1.088 -0.1553  0.2304  0.1223
   44SOL    HW1  174   1.223   0.840   1.070 -0.4596  0.9882 -0.6120
   44SOL    HW2  175   1.242   0.730   1.183 -0.8083 -1.3203  0.0727
   44SOL     MW  176   1.248   0.755   1.098 -0.2816  0.1258  0.0189
   45SOL     OW  177   1.144   0.727   0.792 -0.3255 -0.2252 -0.4280
   45SOL    HW1  178   1.071   0.716   0.846  2.5261 -1.4881 -2.5250
   45SOL    HW2  179   1.122   0.680   0.715 -1.0693  2.6858  1.3030
   45SOL     MW  180   1.132   0.719   0.789 -0.0474 -0.0077 -0.4763
   46SOL     OW  181   0.539   1.178   0.541  0.0300  0.6326 -0.1843
   46SOL    HW1  182   0.504   1.198   0.450  0.0118  1.6079  1.7130
   46SOL    HW2  183   0.626   1.145   0.523 -2.7903 -1.1970 -2.0831
   46SOL     MW  184   0.546   1.176   0.527 -0.3445  0.5199 -0.1845
   47SOL     OW  185   0.199   1.930   1.785 -0.3448  0.6633 -0.4442
   47SOL    HW1  186   0.278   1.873   1.756 -0.3463  0.6553  2.7659
   47SOL    HW2  187   0.211   1.938   1.884 -2.4181  2.9354 -1.7300
   47SOL     MW  188   0.211   1.923   1.794 -0.6186  0.9621 -0.1903
   48SOL     OW  189   1.034   0.594   1.018  0.0798 -0.5172 -0.0395
   48SOL    HW1  190   0.982   0.636   1.083  3.1259 -0.4086  2.0897
   48SOL    HW2  191   1.120   0.638   1.019 -2.1699  0.3307 -0.8316
   48SOL     MW  192   1.038   0.606   1.027  0.1849 -0.3910  0.1369
   49SOL     OW  193   1.798   0.747   1.539 -0.5444  0.2619 -0.4488
   49SOL    HW1  194   1.746   0.757   1.619 -3.1243  2.6896  0.9537
   49SOL    HW2  195   1.869   0.679   1.545  1.6688 -0.4484  0.1760
   49SOL     MW  196   1.800   0.739   1.550 -0.5928  0.4885 -0.1813
   50SOL     OW  197   1.169   1.059   0.501  0.1467  0.0637 -0.3783
   50SOL    HW1  198   1.157   1.095   0.588  0.2457  2.4967  0.0025
   50SOL    HW2  199   1.231   0.985   0.502 -1.0618  0.4682  2.0638
   50SOL     MW  200   1.175   1.054   0.512  0.0003  0.4381 -0.0059
   51SOL     OW  201   0.360   2.874   0.958 -0.0830  0.2664 -0.4842
   51SOL    HW1  202   0.451   2.857   0.987 -0.3076 -0.6295 -2.3420
   51SOL    HW2  203   0.317   2.911   1.035  2.7803  0.1629  0.6956
   51SOL     MW  204   0.366   2.876   0.972  0.2651  0.1346 -0.5737
   52SOL     OW  205   0.816   1.796   0.395  0.3959  0.4101  0.3952
   52SOL    HW1  206   0.771   1.876   0.416  0.6656 -1.7717  1.1715
   52SOL    HW2  207   0.832   1.795   0.301  1.5760 -3.2502  2.2764
   52SOL     MW  208   0.812   1.806   0.386  0.5872 -0.3607  0.7458
   53SOL     OW  209   0.506   2.149   0.601  0.0438  0.2192  0.1044
   53SOL    HW1  210   0.431   2.128   0.550  0.2334 -0.1956  2.7327
   53SOL    HW2  211   0.524   2.230   0.549 -0.6408  2.2445 -0.2261
   53SOL     MW  212   0.499   2.157   0.587 -0.0215  0.4317  0.4076
   54SOL     OW  213   2.190   0.825   0.861  0.3678  0.4414 -0.0074
   54SOL    HW1  214   2.186   0.877   0.782 -2.9245  0.8155 -1.0171
   54SOL    HW2  215   2.101   0.782   0.861 -1.9269  0.3675  0.2850
   54SOL     MW  216   2.177   0.826   0.851 -0.3693  0.4810 -0.1021
   55SOL     OW  217   0.575   1.486   1.583  0.1599 -0.1425  0.4647
   55SOL    HW1  218   0.516   1.507   1.512 -0.9306 -0.2141  0.1367
   55SOL    HW2  219   0.646   1.431   1.544  2.1753 -2.6505  1.0180
   55SOL     MW  220   0.577   1.482   1.568  0.2819 -0.4828  0.4945
   56SOL     OW  221   0.553   0.755   0.090 -0.2646  0.1703  0.1265
   56SOL    HW1  222   0.578   0.826   0.036  0.0353 -3.1380 -0.7194
   56SOL    HW2  223   0.474   0.719   0.049 -1.2906 -1.7839 -1.1845
   56SOL     MW  224   0.546   0.760   0.077 -0.3604 -0.5240 -0.1581
   57SOL     OW  225   1.257   1.223   1.199  0.2877 -0.0748 -0.3430
   57SOL    HW1  226   1.336   1.250   1.147 -0.8504 -1.0812 -0.0627
   57SOL    HW2  227   1.290   1.186   1.280 -1.8906  0.5173  1.4362
   57SOL     MW  228   1.272   1.222   1.203 -0.1499 -0.1294 -0.0713
   58SOL     OW  229   0.570   1.152   1.283 -0.3343  0.2769  0.2368
   58SOL    HW1  230   0.527   1.233   1.252 -0.3044 -1.1215 -0.9311
   58SOL    HW2  231   0.568   1.150   1.379 -0.2241  0.6500  2.1644
   58SOL     MW  232   0.564   1.162   1.292 -0.3158  0.1416  0.3370
   59SOL     OW  233   1.578   1.641   0.372 -0.3933  0.6766 -0.0434
   59SOL    HW1  234   1.612   1.682   0.448  0.5038 -1.1749 -3.3270
   59SOL    HW2  235   1.486   1.641   0.390  0.5457  1.0808 -0.0369
   59SOL     MW  236   1.570   1.646   0.385 -0.1510  0.4856 -0.4758
   60SOL     OW  237   0.069   0.213   1.703  0.6452  0.0115 -0.1441
   60SOL    HW1  238  -0.023   0.194   1.687 -1.4901 -1.6125  1.4243
   60SOL    HW2  239   0.093   0.158   1.778  0.4226 -0.0730 -0.2684
   60SOL     MW  240   0.060   0.203   1.711  0.3341 -0.2139  0.0464
   61SOL     OW  241   2.042   1.456   3.089  0.0720  0.3541 -0.5486
   61SOL    HW1  242   2.034   1.453   3.187 -0.9403  1.5185 -0.0043
   61SOL    HW2  243   2.105   1.387   3.060  1.2438 -2.2367  0.9624
   61SOL     MW  244   2.049   1.447   3.098  0.0930  0.1659 -0.2774
   62SOL     OW  245   0.643   1.691   0.622 -0.5689  0.5630 -0.3190
   62SOL    HW1  246   0.714   1.677   0.569 -0.9470  0.0309  4.6195
   62SOL    HW2  247   0.613   1.600   0.657 -1.4190  0.9579 -0.1228
   62SOL     MW  248   0.648   1.677   0.620 -0.7309  0.5449  0.3585
   63SOL     OW  249   1.654   0.741   0.710 -0.1942 -0.1864 -0.2151
   63SOL    HW1  250   1.636   0.795   0.635  0.2348  0.2257  1.1684
   63SOL    HW2  251   1.568   0.723   0.748 -1.0774  1.1118 -0.9064
   63SOL     MW  252   1.640   0.746   0.705 -0.2541  0.0393 -0.1238
   64SOL     OW  253   0.263   1.698   0.730 -0.1185  0.1663 -0.3706
   64SOL    HW1  254   0.336   1.764   0.734  1.7159 -0.1110  1.1662
   64SOL    HW2  255   0.188   1.747   0.723  0.3056 -0.7731 -2.2852
   64SOL     MW  256   0.263   1.713   0.729  0.1795  0.0058 -0.4204
   65SOL     OW  257   1.537   2.334   0.368  0.0695  0.3261 -0.4363
   65SOL    HW1  258   1.623   2.289   0.374  1.6539  1.2076  1.3618
   65SOL    HW2  259   1.516   2.384   0.457  0.5193 -0.6082 -0.5573
   65SOL     MW  260   1.545   2.335   0.381  0.3379  0.3191 -0.2150
   66SOL     OW  261   0.298   0.515   0.518  0.0417  0.2010 -0.1682
   66SOL    HW1  262   0.368   0.473   0.469 -0.4549  3.9106 -1.0377
   66SOL    HW2  263   0.285   0.608   0.492  1.4502  1.8853 -0.4041
   66SOL     MW  264   0.305   0.522   0.508  0.1620  0.9127 -0.3140
   67SOL     OW  265   1.463   0.105   2.046 -0.2428 -0.4575 -0.0495
   67SOL    HW1  266   1.510   0.083   1.967 -0.6806 -0.3733  0.2156
   67SOL    HW2  267   1.405   0.031   2.052  0.4394  2.3239 -0.5293
   67SOL     MW  268   1.462   0.093   2.037 -0.2105 -0.0794 -0.0778
   68SOL     OW  269   0.615   0.086   2.993 -0.0562  0.1456  0.1305
   68SOL    HW1  270   0.614   0.129   2.905  0.9913 -1.5875 -1.5397
   68SOL    HW2  271   0.650   0.162   3.041 -2.4347  0.0088  0.3035
   68SOL     MW  272   0.619   0.102   2.987 -0.2318 -0.1011 -0.0671
   69SOL     OW  273   0.992   0.199   1.965  0.3143 -0.1446  0.3867
   69SOL    HW1  274   1.059   0.242   2.022 -1.0826  0.6877  0.4960
   69SOL    HW2  275   0.983   0.104   2.001  1.0969 -0.1987  0.4701
   69SOL     MW  276   1.000   0.192   1.977  0.2332 -0.0419  0.4121
   70SOL     OW  277   0.567   1.761   1.119 -0.5578 -0.8552  0.1129
   70SOL    HW1  278   0.587   1.680   1.167  0.8058  0.9920 -0.6651
   70SOL    HW2  279   0.652   1.767   1.074  1.5455 -2.8681 -2.7621
   70SOL     MW  280   0.581   1.751   1.119 -0.1004 -0.8771 -0.3691
   71SOL     OW  281   1.719   0.599   1.337 -0.1418 -0.5787  0.2651
   71SOL    HW1  282   1.725   0.649   1.423  0.0182 -0.7002  2.1279
   71SOL    HW2  283   1.637   0.632   1.304  1.5646  0.1939  1.3882
   71SOL     MW  284   1.709   0.610   1.344  0.1044 -0.4928  0.6590
   72SOL     OW  285   0.786   1.756   0.972 -0.3660 -0.1087 -0.2728
   72SOL    HW1  286   0.779   1.805   0.885 -0.7917  1.2857 -1.1882
   72SOL    HW2  287   0.749   1.670   0.951 -2.4482  1.1129  0.7641
   72SOL     MW  288   0.780   1.751   0.957 -0.6969  0.2365 -0.2568
   73SOL     OW  289   1.212   0.706   1.356 -0.1469 -0.1898  0.2572
   73SOL    HW1  290   1.180   0.615   1.350 -2.3741  0.5258  1.0600
   73SOL    HW2  291   1.144   0.751   1.409  0.0680  0.1831  0.2040
   73SOL     MW  292   1.199   0.700   1.362 -0.4124 -0.0462  0.3561
   74SOL     OW  293   2.886   0.198   0.968  0.1462 -0.1211 -0.6522
   74SOL    HW1  294   2.870   0.140   0.898 -1.9218 -1.2325  0.9331
   74SOL    HW2  295   2.829   0.271   0.944 -1.5931 -2.5047 -1.5438
   74SOL     MW  296   2.876   0.200   0.956 -0.3561 -0.5823 -0.5607
   75SOL     OW  297   1.619   1.391   0.141  0.4638  0.5668  0.2620
   75SOL    HW1  298   1.653   1.405   0.229 -2.0114 -0.9179  0.3877
   75SOL    HW2  299   1.675   1.321   0.100  2.4012  0.1451 -1.4454
   75SOL     MW  300   1.631   1.384   0.147  0.3929  0.3153  0.0533
   76SOL     OW  301   3.024   0.633   0.437  0.1460 -0.2877  0.1294
   76SOL    HW1  302   3.059   0.658   0.521  2.6010 -1.3953  0.3647
   76SOL    HW2  303   3.071   0.551   0.422  1.0052  1.7021  0.0731
   76SOL     MW  304   3.035   0.625   0.446  0.5833 -0.1713  0.1530
   77SOL     OW  305   0.822   0.532   0.410 -0.5937  0.0821 -0.9783
   77SOL    HW1  306   0.795   0.542   0.319  0.0150 -0.6903 -0.1309
   77SOL    HW2  307   0.778   0.455   0.443  1.5659  0.2450 -1.3764
   77SOL     MW  308   0.813   0.524   0.402 -0.2284  0.0017 -0.9190
   78SOL     OW  309   0.748   0.818   1.240  0.1730  0.4402  0.0863
   78SOL    HW1  310   0.669   0.798   1.192  2.5360  1.7782  2.3631
   78SOL    HW2  311   0.786   0.895   1.195  0.7050  1.1462  1.9826
   78SOL     MW  312   0.743   0.826   1.227  0.5550  0.7099  0.6369
   79SOL     OW  313   1.933   1.702   0.619  0.0853 -0.1187  0.2502
   79SOL    HW1  314   1.867   1.635   0.598 -2.3739 -1.6231  0.5440
   79SOL    HW2  315   1.923   1.724   0.708 -0.0290 -2.6293 -3.1357
   79SOL     MW  316   1.923   1.696   0.628 -0.2543 -0.6484 -0.1578
   80SOL     OW  317   0.131   1.004   0.318 -0.4213 -0.5423 -0.1322
   80SOL    HW1  318   0.038   0.986   0.347 -1.6360  1.4511  3.0514
   80SOL    HW2  319   0.182   0.920   0.343  0.3156 -0.5924  3.1248
   80SOL     MW  320   0.126   0.991   0.325 -0.4843 -0.2859  0.7176
   81SOL     OW  321   1.918   1.929   0.205 -0.3914 -0.0410  0.1810
   81SOL    HW1  322   1.866   1.849   0.176 -1.9890 -1.7011 -0.3039
   81SOL    HW2  323   1.848   2.000   0.212  2.1194  0.1946 -0.2952
   81SOL     MW  324   1.902   1.928   0.202 -0.2709 -0.2289  0.0542
   82SOL     OW  325   0.820   1.055   0.528  0.0160  0.2523 -0.2939
   82SOL    HW1  326   0.840   1.106   0.453  2.0674  1.3103 -2.1864
   82SOL    HW2  327   0.822   0.968   0.502  1.3008  2.1380 -0.6712
   82SOL     MW  328   0.823   1.050   0.515  0.4562  0.6407 -0.5934
   83SOL     OW  329   0.205   0.602   1.296 -0.2106  0.1519 -0.4022
   83SOL    HW1  330   0.188   0.690   1.335 -0.8330  4.2570 -0.6645
   83SOL    HW2  331   0.281   0.579   1.353  0.4380  0.3642  0.0771
   83SOL     MW  332   0.213   0.610   1.309 -0.2072  0.7215 -0.3736
   84SOL     OW  333   0.069   0.201   0.899 -0.1114 -0.3336  0.2306
   84SOL    HW1  334  -0.020   0.232   0.874  2.5112  2.4973  0.3269
   84SOL    HW2  335   0.044   0.161   0.986 -0.0334  0.7198  1.6074
   84SOL     MW  336   0.054   0.199   0.907  0.2449  0.1789  0.4250
   85SOL     OW  337   0.476   0.457   0.762  0.2400  0.0629 -0.0213
   85SOL    HW1  338   0.421   0.470   0.689  0.8970 -2.1788  2.4996
   85SOL    HW2  339   0.444   0.366   0.783  2.6957 -2.6241  0.1110
   85SOL     MW  340   0.464   0.447   0.755  0.6507 -0.5874  0.3288
   86SOL     OW  341   1.234   0.387   1.058 -0.2294  0.1968  0.3794
   86SOL    HW1  342   1.152   0.440   1.056 -0.9607 -2.0140 -0.4787
   86SOL    HW2  343   1.269   0.407   1.147 -2.9636 -0.9484  0.5534
   86SOL     MW  344   1.228   0.397   1.070 -0.6866 -0.2460  0.2892
   87SOL     OW  345   1.163   1.477   1.250 -0.8290 -0.2684  0.5768
   87SOL    HW1  346   1.178   1.519   1.164  0.6264  1.6154 -0.1936
   87SOL    HW2  347   1.195   1.382   1.236  0.6665  0.7700  1.4703
   87SOL     MW  348   1.169   1.470   1.237 -0.4397  0.1172  0.5930
   88SOL     OW  349   1.226   1.011   1.031 -0.2248 -0.0924 -0.8351
   88SOL    HW1  350   1.322   1.010   1.010  0.1413 -0.6366 -0.7724
   88SOL    HW2  351   1.206   1.072   1.106  0.5443  1.0022 -1.3374
   88SOL     MW  352   1.236   1.019   1.038 -0.0750 -0.0197 -0.8931
   89SOL     OW  353   1.767   0.668   0.301 -0.3799  0.2350 -0.6630
   89SOL    HW1  354   1.816   0.585   0.321 -1.8643 -2.9736  2.9834
   89SOL    HW2  355   1.836   0.721   0.260  0.0760 -1.1741 -2.0468
   89SOL     MW  356   1.782   0.664   0.298 -0.5156 -0.3742 -0.3645
   90SOL     OW  357   0.677   1.175   2.831  0.3296 -0.0893  0.4524
   90SOL    HW1  358   0.733   1.110   2.863 -0.4753 -0.0411 -5.3550
   90SOL    HW2  359   0.668   1.245   2.897  1.3202  1.4887  3.8796
   90SOL     MW  360   0.683   1.176   2.844  0.3541  0.1253  0.1384
   91SOL     OW  361   2.228   0.681   0.551  0.4706 -0.7527 -0.0708
   91SOL    HW1  362   2.187   0.760   0.519  0.3409  0.8935 -0.1550
   91SOL    HW2  363   2.227   0.615   0.480  0.0827 -1.1748  0.7971
   91SOL     MW  364   2.222   0.683   0.537  0.4023 -0.5912  0.0326
   92SOL     OW  365   1.626   0.890   0.453 -0.5963  0.5981  0.3967
   92SOL    HW1  366   1.529   0.881   0.475  0.8841  1.2444  0.1209
   92SOL    HW2  367   1.656   0.810   0.402 -0.2909  0.6939 -0.1291
   92SOL     MW  368   1.617   0.878   0.449 -0.3607  0.6960  0.2909
   93SOL     OW  369   1.035   0.305   0.363 -0.3817 -0.2688  0.5804
   93SOL    HW1  370   0.973   0.374   0.346  1.1884  0.2386 -1.2985
   93SOL    HW2  371   1.085   0.297   0.279  2.4522  0.0629  0.0044
   93SOL     MW  372   1.034   0.313   0.349  0.1994 -0.1581  0.2565
   94SOL     OW  373   1.916   1.348   1.583 -0.1699  0.1928  0.3656
   94SOL    HW1  374   1.911   1.369   1.487 -1.3935 -0.5245  0.0312
   94SOL    HW2  375   1.866   1.267   1.605  0.2597  2.4577 -3.0861
   94SOL     MW  376   1.908   1.340   1.574 -0.2747  0.3970 -0.1339
   95SOL     OW  377   0.718   1.502   0.967 -0.3382 -0.3632  0.4183
   95SOL    HW1  378   0.788   1.461   1.024  1.3300 -0.5452 -2.7269
   95SOL    HW2  379   0.646   1.436   0.969  2.3879  0.0538  2.6510
   95SOL     MW  380   0.718   1.488   0.975  0.2416 -0.3322  0.2979
   96SOL     OW  381   1.220   1.814   1.565  0.3150 -0.3683 -0.2228
   96SOL    HW1  382   1.128   1.790   1.608 -2.1482 -1.9191 -1.0943
   96SOL    HW2  383   1.243   1.736   1.520  0.2430 -1.1513 -1.8475
   96SOL     MW  384   1.211   1.801   1.565 -0.0195 -0.6762 -0.5522
   97SOL     OW  385   1.217   1.440   0.759  0.5748  0.4040  0.2574
   97SOL    HW1  386   1.226   1.490   0.842 -0.2367  1.3803 -0.7931
   97SOL    HW2  387   1.161   1.497   0.709 -2.7263  0.6770  0.5873
   97SOL     MW  388   1.211   1.454   0.763  0.0322  0.5689  0.1623
   98SOL     OW  389   1.487   1.288   1.058 -0.2471  0.1414 -0.0852
   98SOL    HW1  390   1.497   1.350   1.131 -1.1957 -3.1037 -1.4514
   98SOL    HW2  391   1.533   1.345   0.999 -0.8544  0.7026  0.3105
   98SOL     MW  392   1.495   1.304   1.060 -0.4524 -0.2128 -0.2132
   99SOL     OW  393   1.438   0.366   1.295 -0.4276  0.7340 -0.2510
   99SOL    HW1  394   1.470   0.440   1.239  2.3092 -0.3074  0.6323
   99SOL    HW2  395   1.444   0.408   1.381 -1.1434  1.5473  2.2691
   99SOL     MW  396   1.443   0.381   1.299 -0.1609  0.7039  0.1980
  100SOL     OW  397   1.037   1.115   1.463  0.3897  0.3691 -0.2467
  100SOL    HW1  398   0.954   1.120   1.505  2.0137  1.0679  0.1491
  100SOL    HW2  399   1.051   1.023   1.456  1.2453  1.0135 -3.6906
  100SOL     MW  400   1.028   1.104   1.467  0.7169  0.5463 -0.6489
  101SOL     OW  401   0.556   1.072   0.258 -0.3053 -0.2750  0.2889
  101SOL    HW1  402   0.537   0.983   0.295 -0.4188  0.7457  0.2778
  101SOL    HW2  403   0.531   1.067   0.161 -0.8586 -0.3051 -1.3167
  101SOL     MW  404   0.550   1.059   0.250 -0.3933 -0.1443  0.0756
  102SOL     OW  405   2.983   0.654   0.964 -0.6682 -0.1630 -0.7185
  102SOL    HW1  406   3.009   0.746   0.992  3.5772  1.5035  0.1701
  102SOL    HW2  407   3.054   0.609   1.008  0.9495  0.4364  0.3135
  102SOL     MW  408   2.996   0.660   0.973  0.1054  0.1359 -0.4651
  103SOL     OW  409   1.697   0.371   1.843  0.6960  0.2690 -0.0991
  103SOL    HW1  410   1.627   0.314   1.804 -2.2129 -1.3004 -2.0836
  103SOL    HW2  411   1.744   0.311   1.901  3.4796 -0.7550  1.8154
  103SOL     MW  412   1.694   0.356   1.846  0.6795 -0.0732 -0.1084
  104SOL     OW  413   0.172   1.797   1.497  0.1864 -0.2347  0.7637
  104SOL    HW1  414   0.147   1.716   1.549 -1.6962 -4.5259  1.0484
  104SOL    HW2  415   0.233   1.778   1.425  0.0040 -0.4291  3.0896
  104SOL     MW  416   0.177   1.784   1.494 -0.0860 -0.8266  1.1081
  105SOL     OW  417   0.085   1.230   0.498 -0.9355 -0.4226  0.1762
  105SOL    HW1  418   0.123   1.144   0.464  0.6913  0.5727 -0.8374
  105SOL    HW2  419   0.162   1.290   0.509 -0.8120 -2.6401 -0.4975
  105SOL     MW  420   0.100   1.227   0.495 -0.7046 -0.5839 -0.0465
  106SOL     OW  421   0.849   0.340   0.993  0.2966  1.1453  0.4593
  106SOL    HW1  422   0.785   0.398   0.950  0.8921  1.3149 -2.3969
  106SOL    HW2  423   0.918   0.331   0.929 -1.8907 -0.9052 -0.6946
  106SOL     MW  424   0.850   0.346   0.979  0.0866  0.8971 -0.0698
  107SOL     OW  425   0.813   2.168   2.977 -0.0509 -0.0617  0.0821
  107SOL    HW1  426   0.753   2.101   2.949  1.9813 -2.1114  0.3109
  107SOL    HW2  427   0.818   2.164   3.072 -1.7296 -2.1108  0.2844
  107SOL     MW  428   0.806   2.159   2.986 -0.0043 -0.6025  0.1390
  108SOL     OW  429   1.333   1.589   1.429  0.2899 -0.0849  0.4733
  108SOL    HW1  430   1.275   1.534   1.362 -0.0479 -1.0668 -0.4450
  108SOL    HW2  431   1.339   1.545   1.510  2.3556  0.0541  1.1276
  108SOL     MW  432   1.326   1.576   1.431  0.5179 -0.1961  0.4385
  109SOL     OW  433   1.997   0.770   0.196  0.4116 -0.1631  0.4462
  109SOL    HW1  434   2.028   0.788   0.103  0.0552 -0.9049 -0.0927
  109SOL    HW2  435   2.059   0.729   0.256 -0.8752 -2.5389  0.4479
  109SOL     MW  436   2.009   0.767   0.192  0.1948 -0.5744  0.3753
  110SOL     OW  437   0.486   1.897   0.777  0.6777 -0.5127  0.2734
  110SOL    HW1  438   0.550   1.824   0.754  0.8266  1.9399  0.0351
  110SOL    HW2  439   0.518   1.971   0.724 -0.2883  1.7988 -3.5584
  110SOL     MW  440   0.498   1.897   0.767  0.5699  0.1159 -0.2636
  111SOL     OW  441   0.718   0.892   1.509  0.5324  0.5702  0.0180
  111SOL    HW1  442   0.701   0.858   1.421 -2.2961 -0.6098  0.7494
  111SOL    HW2  443   0.644   0.854   1.560  0.2828  0.2665  1.2911
  111SOL     MW  444   0.706   0.882   1.504  0.1263  0.3745  0.2825
  112SOL     OW  445   1.306   1.064   1.711 -0.2389 -0.3272 -0.4581
  112SOL    HW1  446   1.258   1.143   1.695 -0.0796  1.2899 -2.4430
  112SOL    HW2  447   1.248   0.990   1.682 -1.1440 -1.1038  1.2045
  112SOL     MW  448   1.292   1.065   1.705 -0.3373 -0.2163 -0.5006
  113SOL     OW  449   1.307   3.085   1.750 -0.2972  0.0555  0.5489
  113SOL    HW1  450   1.278   3.037   1.829 -0.2952  0.9660  0.0840
  113SOL    HW2  451   1.314   3.023   1.675  0.5142 -1.6973  0.0196
  113SOL     MW  452   1.304   3.070   1.751 -0.1899 -0.0556  0.4177
  114SOL     OW  453   0.468   2.823   1.935 -0.1338  0.3561  0.0777
  114SOL    HW1  454   0.452   2.890   1.999 -2.2349  1.4740 -1.5423
  114SOL    HW2  455   0.474   2.879   1.860 -0.7480 -2.2765  1.9249
  114SOL     MW  456   0.466   2.839   1.933 -0.4920  0.1562  0.1077
  115SOL     OW  457   0.489   0.809   1.117 -0.1859  0.0178  0.0293
  115SOL    HW1  458   0.474   0.718   1.143  0.3188 -1.6636 -0.5598
  115SOL    HW2  459   0.436   0.854   1.180 -1.0318 -4.3607  0.5100
  115SOL     MW  460   0.480   0.803   1.128 -0.2309 -0.7818  0.0150
  116SOL     OW  461   0.786   1.022   0.974 -0.3114 -1.1715  0.9154
  116SOL    HW1  462   0.844   1.065   0.911 -3.0451  1.5994 -2.0064
  116SOL    HW2  463   0.810   1.054   1.062  0.0378  4.9914 -0.9850
  116SOL     MW  464   0.797   1.032   0.978 -0.6260  0.0072  0.2791
  117SOL     OW  465   1.211   1.152   0.783 -0.4905  0.3892  0.5208
  117SOL    HW1  466   1.214   1.114   0.869 -0.8917 -0.7003 -1.9207
  117SOL    HW2  467   1.228   1.243   0.792  2.4687 -1.4403 -0.8726
  117SOL     MW  468   1.214   1.159   0.796 -0.1530  0.0041  0.0148
  118SOL     OW  469   3.043   2.911   1.698 -0.3936 -0.7172 -0.2259
  118SOL    HW1  470   3.089   2.985   1.733 -1.8262 -1.9080 -0.5586
  118SOL    HW2  471   2.946   2.935   1.692 -2.1341  1.8497  1.7161
  118SOL     MW  472   3.036   2.924   1.702 -0.8123 -0.5357 -0.0136
  119SOL     OW  473   0.473   1.382   1.206 -0.2333  0.6220  0.2756
  119SOL    HW1  474   0.483   1.355   1.117 -0.2948  2.6779  1.9657
  119SOL    HW2  475   0.381   1.366   1.231  2.6602  1.4551 -0.3770
  119SOL     MW  476   0.462   1.376   1.198  0.1403  1.0032  0.4125
  120SOL     OW  477   0.183   0.691   1.002  0.8177 -0.3448  0.6410
  120SOL    HW1  478   0.209   0.625   1.063  1.1630 -2.5692 -0.2837
  120SOL    HW2  479   0.229   0.770   1.030  1.1461  0.9202  4.0745
  120SOL     MW  480   0.192   0.693   1.014  0.9066 -0.4714  0.9720
  121SOL     OW  481   1.835   1.098   1.702 -0.3948 -0.4846 -0.2065
  121SOL    HW1  482   1.742   1.085   1.728 -0.1565  0.4258  2.0253
  121SOL    HW2  483   1.862   1.032   1.637 -1.7487 -1.2667 -2.6986
  121SOL     MW  484   1.827   1.088   1.697 -0.5420 -0.4677 -0.2409
  122SOL     OW  485   0.146   0.556   0.752 -0.7243  0.1967  0.9001
  122SOL    HW1  486   0.211   0.542   0.685 -1.3020 -0.9764  0.0741
  122SOL    HW2  487   0.179   0.607   0.827  1.7841  0.6424 -1.4730
  122SOL     MW  488   0.159   0.561   0.753 -0.4696  0.1007  0.4780
  123SOL     OW  489   1.820   1.095   0.487 -0.2593  0.1626  0.2314
  123SOL    HW1  490   1.749   1.025   0.489  1.3978 -0.1642  0.8584
  123SOL    HW2  491   1.832   1.114   0.583  0.6789 -0.5896 -1.5204
  123SOL     MW  492   1.812   1.089   0.500  0.0831  0.0203  0.0830
  124SOL     OW  493   0.653   0.563   0.928  0.1992  0.1086  0.6018
  124SOL    HW1  494   0.580   0.538   0.866 -1.5066  0.8835  0.0798
  124SOL    HW2  495   0.694   0.644   0.889  2.9108  0.6576 -0.7853
  124SOL     MW  496   0.649   0.570   0.915  0.3319  0.2833  0.3499
  125SOL     OW  497   0.676   1.748   1.699  0.6023  0.5423  0.3790
  125SOL    HW1  498   0.604   1.699   1.663  2.4549  1.9515 -1.4128
  125SOL    HW2  499   0.630   1.832   1.726 -0.0362 -1.2623  1.9463
  125SOL     MW  500   0.660   1.752   1.698  0.7625  0.4901  0.3494
  126SOL     OW  501   2.097   1.614   1.963 -0.0851  0.4203  0.3214
  126SOL    HW1  502   2.173   1.673   1.960  0.2666  0.8131 -2.5564
  126SOL    HW2  503   2.150   1.537   1.981  1.6025  0.8074  0.5373
  126SOL     MW  504   2.114   1.612   1.965  0.1840  0.5232 -0.0298
  127SOL     OW  505   0.637   0.756   1.881  0.0891  0.4257 -0.1483
  127SOL    HW1  506   0.722   0.709   1.893  1.6501 -1.8624 -0.0323
  127SOL    HW2  507   0.633   0.831   1.938  1.5907  0.4287 -0.9000
  127SOL     MW  508   0.648   0.759   1.890  0.4932  0.1242 -0.2321
  128SOL     OW  509   1.833   0.794   2.859  0.1792 -0.2764 -0.3285
  128SOL    HW1  510   1.870   0.747   2.785  0.7815  1.6207 -2.2104
  128SOL    HW2  511   1.797   0.881   2.823 -0.0856  0.1341  0.8051
  128SOL     MW  512   1.833   0.799   2.844  0.2237  0.0280 -0.4272
  129SOL     OW  513   1.566   0.975   0.199  0.5610 -0.4915  0.5169
  129SOL    HW1  514   1.509   0.914   0.163 -0.1198 -2.0554  0.7490
  129SOL    HW2  515   1.583   0.945   0.288  1.7486 -0.8559 -1.6552
  129SOL     MW  516   1.561   0.963   0.206  0.6279 -0.7459  0.2609
  130SOL     OW  517   0.773   1.412   0.419  0.5821 -0.2057  0.2941
  130SOL    HW1  518   0.829   1.411   0.504  5.1465  0.6290 -0.1281
  130SOL    HW2  519   0.839   1.433   0.349 -2.1263  3.3254 -0.3169
  130SOL     MW  520   0.789   1.414   0.421  0.8270  0.3703  0.1578
  131SOL     OW  521   3.023   0.815   3.086  0.0742 -0.3548 -0.5836
  131SOL    HW1  522   3.012   0.859   2.999 -0.3039  0.7021  0.0183
  131SOL    HW2  523   3.084   0.872   3.142  0.8804  2.9798  1.3226
  131SOL     MW  524   3.030   0.829   3.082  0.1307  0.2246 -0.2527
  132SOL     OW  525   2.799   0.131   1.230  0.4224 -0.2428 -0.4511
  132SOL    HW1  526   2.832   0.156   1.146  0.2058  0.8152  0.5249
  132SOL    HW2  527   2.702   0.141   1.230  1.6594  1.3303  2.2605
  132SOL     MW  528   2.790   0.135   1.219  0.5570  0.1044  0.0354
  133SOL     OW  529   1.067   0.142   1.713 -0.7215  0.4360 -0.2317
  133SOL    HW1  530   1.144   0.084   1.711 -0.1201  2.9378 -0.1262
  133SOL    HW2  531   1.040   0.161   1.806 -1.9898  0.4874 -0.4784
  133SOL     MW  532   1.074   0.137   1.725 -0.8095  0.7728 -0.2503
  134SOL     OW  533   1.414   2.519   1.433  0.4131 -0.1172  0.2006
  134SOL    HW1  534   1.364   2.597   1.406 -0.2291  0.9836 -0.8425
  134SOL    HW2  535   1.452   2.550   1.517 -1.3263 -0.8872 -1.1786
  134SOL     MW  536   1.412   2.534   1.440  0.0989 -0.0736 -0.1190
  135SOL     OW  537   3.025   1.017   2.882 -0.7923  0.4900 -0.2979
  135SOL    HW1  538   3.097   1.085   2.894  4.0625 -1.5860 -3.4198
  135SOL    HW2  539   2.943   1.063   2.896  0.2369 -1.9249 -0.8318
  135SOL     MW  540   3.024   1.032   2.886 -0.0160 -0.1025 -0.7803
  136SOL     OW  541   0.263   2.020   0.853  0.0855  0.4348  0.6836
  136SOL    HW1  542   0.200   1.948   0.861  2.6943  0.9505  3.6764
  136SOL    HW2  543   0.340   1.969   0.832 -2.7476  0.1798  0.4329
  136SOL     MW  544   0.265   2.004   0.851  0.0559  0.4692  1.0454
  137SOL     OW  545   0.749   2.043   0.517 -0.6683  0.5092  0.3414
  137SOL    HW1  546   0.754   2.013   0.607 -2.8556  1.5477 -0.6511
  137SOL    HW2  547   0.654   2.059   0.512 -0.2585 -0.8325  1.3771
  137SOL     MW  548   0.737   2.041   0.528 -0.9028  0.4692  0.3471
  138SOL     OW  549   0.517   0.551   1.174  0.2067  0.5934 -0.0882
  138SOL    HW1  550   0.429   0.508   1.142 -1.2333 -1.6004  0.3428
  138SOL    HW2  551   0.569   0.553   1.096 -1.3289 -3.5571  0.8386
  138SOL     MW  552   0.512   0.546   1.159 -0.1859 -0.2436  0.0909
  139SOL     OW  553   2.666   0.522   1.414 -0.0985  0.2596  0.0373
  139SOL    HW1  554   2.752   0.489   1.387 -1.1371  0.7587  2.1174
  139SOL    HW2  555   2.682   0.617   1.409 -1.6456  0.1587 -2.2630
  139SOL     MW  556   2.679   0.530   1.409 -0.4397  0.3121  0.0082
  140SOL     OW  557   0.844   0.382   2.091 -0.2401 -0.4461  0.5307
  140SOL    HW1  558   0.893   0.300   2.057 -0.0085 -0.4599  0.9188
  140SOL    HW2  559   0.887   0.406   2.171 -2.4337 -1.8348  1.0471
  140SOL     MW  560   0.856   0.374   2.097 -0.4990 -0.6311  0.6500
  141SOL     OW  561   1.085   0.580   1.757  0.1677 -0.4534  0.2366
  141SOL    HW1  562   1.120   0.507   1.714 -2.1089 -1.3633  3.3187
  141SOL    HW2  563   1.142   0.656   1.741  2.3634  0.0678 -2.7820
  141SOL     MW  564   1.097   0.580   1.749  0.1570 -0.5047  0.2450
  142SOL     OW  565   0.939   1.100   0.769  0.0665  0.3462 -0.0518
  142SOL    HW1  566   0.920   1.064   0.679  1.0661  0.4826 -0.8476
  142SOL    HW2  567   1.036   1.114   0.781  2.4043  2.8159 -0.6357
  142SOL     MW  568   0.949   1.097   0.758  0.5069  0.6900 -0.2339
  143SOL     OW  569   1.784   0.779   1.104 -0.0928 -0.4216 -0.3189
  143SOL    HW1  570   1.834   0.783   1.022  0.3127 -0.5398 -0.0060
  143SOL    HW2  571   1.718   0.710   1.095  0.7815  2.6880 -1.3026
  143SOL     MW  572   1.782   0.770   1.092  0.0761 -0.0270 -0.4074
  144SOL     OW  573   0.190   1.227   1.540 -0.6125 -0.3749  0.1618
  144SOL    HW1  574   0.285   1.209   1.550  0.6262  1.4208 -0.7959
  144SOL    HW2  575   0.170   1.274   1.623 -1.2443  1.7617  0.9511
  144SOL     MW  576   0.200   1.231   1.552 -0.5324  0.1439  0.1396
  145SOL     OW  577   0.309   0.432   1.067 -0.4448 -0.4736 -0.3064
  145SOL    HW1  578   0.275   0.391   1.152 -1.8617  0.0481 -2.8434
  145SOL    HW2  579   0.266   0.380   0.995  1.9096  1.9939  2.3795
  145SOL     MW  580   0.299   0.419   1.069 -0.3211 -0.0792 -0.2868
  146SOL     OW  581   0.869   1.944   1.386  0.0830 -0.7317 -0.1264
  146SOL    HW1  582   0.891   1.957   1.290 -1.7453  0.1654  0.9714
  146SOL    HW2  583   0.782   1.919   1.374  4.3786  0.8076  0.9510
  146SOL     MW  584   0.861   1.942   1.372  0.4085 -0.4103  0.1606
  147SOL     OW  585   0.371   0.402   2.949  0.1206 -0.8546 -0.1050
  147SOL    HW1  586   0.296   0.415   3.010 -0.8727 -2.6688  0.9880
  147SOL    HW2  587   0.356   0.483   2.893 -2.3244  0.6914  0.1415
  147SOL     MW  588   0.359   0.415   2.949 -0.3330 -0.8900  0.0717
  148SOL     OW  589   0.102   0.869   1.359  0.8087  0.0286 -0.5424
  148SOL    HW1  590   0.163   0.938   1.332 -1.3875 -2.0970  0.6837
  148SOL    HW2  591   0.105   0.884   1.450 -2.3979 -0.1598 -0.0606
  148SOL     MW  592   0.111   0.880   1.368  0.0958 -0.2767 -0.3171
  149SOL     OW  593   1.392   1.178   1.434  0.0371  0.4759 -0.8014
  149SOL    HW1  594   1.392   1.136   1.518  2.6591  1.4771  0.3738
  149SOL    HW2  595   1.460   1.240   1.445 -0.5547  0.5142 -2.3061
  149SOL     MW  596   1.401   1.181   1.446  0.3050  0.6130 -0.8449
  150SOL     OW  597   1.867   1.355   0.749  0.2466 -0.0204 -0.3148
  150SOL    HW1  598   1.867   1.260   0.755  1.5447  0.3123  0.3177
  150SOL    HW2  599   1.940   1.380   0.802  0.2570  0.0118 -0.7617
  150SOL     MW  600   1.877   1.346   0.757  0.4193  0.0277 -0.2903
  151SOL     OW  601   1.656   1.867   0.852 -0.4517 -0.6188  0.2681
  151SOL    HW1  602   1.612   1.858   0.767  2.4302  3.4155 -2.4060
  151SOL    HW2  603   1.591   1.828   0.907  1.8864  2.6681  0.1247
  151SOL     MW  604   1.641   1.860   0.848  0.2370  0.3472 -0.1036
  152SOL     OW  605   0.771   1.345   1.471 -0.4481 -0.1309  0.0147
  152SOL    HW1  606   0.786   1.287   1.540  1.8061  0.2657  1.5578
  152SOL    HW2  607   0.853   1.400   1.474 -0.2542 -0.4718 -0.5775
  152SOL     MW  608   0.784   1.345   1.480 -0.1251 -0.1236  0.1401
  153SOL     OW  609   2.626   1.278   0.760  0.4462  0.1279  0.1825
  153SOL    HW1  610   2.684   1.269   0.690  0.5178  1.2242  1.9487
  153SOL    HW2  611   2.573   1.196   0.743 -0.1580  1.4705  2.7374
  153SOL     MW  612   2.627   1.266   0.749  0.3760  0.4497  0.7526
  154SOL     OW  613   0.367   1.726   1.695 -0.1957 -0.1574 -0.2557
  154SOL    HW1  614   0.367   1.719   1.596 -2.3860  0.7052  0.3296
  154SOL    HW2  615   0.348   1.641   1.731  3.2198  3.3936 -0.4912
  154SOL     MW  616   0.365   1.714   1.687 -0.0340  0.4249 -0.2095
  155SOL     OW  617   1.099   0.655   0.291  0.3836  0.7139 -0.2127
  155SOL    HW1  618   1.080   0.603   0.372 -0.0774  0.8123  1.3379
  155SOL    HW2  619   1.056   0.744   0.303  0.3015  1.2952 -0.4887
  155SOL     MW  620   1.091   0.660   0.303  0.3119  0.8036 -0.0445
  156SOL     OW  621   1.559   3.018   1.073  0.9071 -0.3993  0.4415
  156SOL    HW1  622   1.582   3.107   1.108  1.1772  0.8303  0.5254
  156SOL    HW2  623   1.586   2.948   1.137  1.6873  1.4538  0.0721
  156SOL     MW  624   1.565   3.021   1.086  1.0457  0.0074  0.4038
  157SOL     OW  625   1.400   1.164   0.132  0.3996 -0.9837  0.0587
  157SOL    HW1  626   1.452   1.092   0.173  0.8843  2.0438 -0.5207
  157SOL    HW2  627   1.464   1.225   0.101  0.1726 -2.5210 -2.6189
  157SOL     MW  628   1.415   1.162   0.134  0.4336 -0.7871 -0.3710
  158SOL     OW  629   0.461   1.649   2.232 -0.0304  0.6797 -0.0044
  158SOL    HW1  630   0.469   1.715   2.162 -0.9741  2.3633  0.0434
  158SOL    HW2  631   0.376   1.661   2.271  0.0699  0.9145  1.0147
  158SOL     MW  632   0.451   1.659   2.228 -0.1417  0.9328  0.1364
  159SOL     OW  633   1.298   1.710   0.458 -1.0478  0.4095 -0.2815
  159SOL    HW1  634   1.275   1.621   0.439  1.9116  0.6487 -0.3531
  159SOL    HW2  635   1.220   1.747   0.507  0.5879 -3.4219 -1.4875
  159SOL     MW  636   1.285   1.703   0.462 -0.4415 -0.0645 -0.4501
  160SOL     OW  637   0.474   1.116   1.569 -0.0751 -0.1362  0.1620
  160SOL    HW1  638   0.479   1.033   1.620 -0.1180  1.0998 -2.1421
  160SOL    HW2  639   0.517   1.189   1.621 -0.1867 -0.6563 -1.1377
  160SOL     MW  640   0.480   1.115   1.583 -0.0955 -0.0418 -0.3135
  161SOL     OW  641   0.542   2.160   2.624 -0.0790  0.2306 -0.5034
  161SOL    HW1  642   0.449   2.157   2.624  0.0693  0.5399  1.2141
  161SOL    HW2  643   0.580   2.107   2.555  0.4501  2.4376 -2.0253
  161SOL     MW  644   0.535   2.153   2.615  0.0103  0.5626 -0.4776
  162SOL     OW  645   1.005   1.726   1.748  0.7162  0.4665 -0.0240
  162SOL    HW1  646   1.050   1.801   1.797  1.2920  0.0889  3.9666
  162SOL    HW2  647   0.925   1.707   1.802 -1.5977 -1.3259  0.9077
  162SOL     MW  648   1.000   1.734   1.761  0.4869  0.1802  0.6255
  163SOL     OW  649   2.104   0.092   0.986 -0.3812 -0.9685  0.1305
  163SOL    HW1  650   2.077   0.102   0.899  3.5814 -1.2737 -0.2008
  163SOL    HW2  651   2.048   0.020   1.025 -2.9626  2.3426  1.9412
  163SOL     MW  652   2.093   0.084   0.980 -0.1990 -0.5719  0.3257
  164SOL     OW  653   0.316   0.201   0.765  0.8766 -0.1817  0.8670
  164SOL    HW1  654   0.229   0.200   0.808 -0.9957  0.1418  1.5057
  164SOL    HW2  655   0.319   0.125   0.709  0.5668  0.7442  1.1197
  164SOL     MW  656   0.305   0.190   0.763  0.5887 -0.0168  0.9846
  165SOL     OW  657   1.342   1.253   0.408 -0.5715 -0.5133 -0.2567
  165SOL    HW1  658   1.278   1.177   0.418 -0.6403  1.2384  0.9014
  165SOL    HW2  659   1.390   1.221   0.338 -0.7467  1.3077  0.9816
  165SOL     MW  660   1.340   1.239   0.400 -0.6037 -0.0420  0.0595
  166SOL     OW  661   0.510   1.053   0.938 -0.0263  0.4966  0.2935
  166SOL    HW1  662   0.475   0.979   0.994 -0.8702  1.7314 -0.5192
  166SOL    HW2  663   0.607   1.042   0.941 -1.0163 -0.3140 -0.8290
  166SOL     MW  664   0.518   1.042   0.946 -0.2683  0.5526  0.0382
  167SOL     OW  665   0.839   1.142   0.252 -0.2702 -0.9841  0.3679
  167SOL    HW1  666   0.746   1.143   0.231  3.4453 -0.5579 -0.4680
  167SOL    HW2  667   0.876   1.173   0.173  0.0457  0.2480  2.9788
  167SOL     MW  668   0.832   1.147   0.239  0.2617 -0.7653  0.6021
  168SOL     OW  669   1.686   1.708   2.920 -0.0627 -0.3937 -0.0354
  168SOL    HW1  670   1.595   1.704   2.896  0.3324 -1.1660  0.3241
  168SOL    HW2  671   1.704   1.624   2.960  0.0710  4.1815  0.1267
  168SOL     MW  672   1.676   1.696   2.922  0.0070  0.1081  0.0334
  169SOL     OW  673   0.354   0.972   1.298  0.3684 -0.0595 -0.2976
  169SOL    HW1  674   0.360   0.936   1.389 -1.2529 -0.7970  0.0377
  169SOL    HW2  675   0.427   1.040   1.288 -2.0143  1.5370 -0.0382
  169SOL     MW  676   0.364   0.976   1.308 -0.1599  0.0538 -0.2191
  170SOL     OW  677   1.017   1.455   1.476 -0.3428 -0.0383 -0.6419
  170SOL    HW1  678   0.981   1.545   1.494 -0.6437 -1.5242 -0.1531
  170SOL    HW2  679   1.060   1.476   1.387 -4.0279 -3.6549  1.3609
  170SOL     MW  680   1.018   1.470   1.467 -0.8687 -0.7116 -0.3132
  171SOL     OW  681   0.577   1.426   0.691  0.3620  0.3055 -0.2785
  171SOL    HW1  682   0.566   1.392   0.781  0.6451  1.5371  2.3330
  171SOL    HW2  683   0.550   1.356   0.634 -0.1468  0.6707 -0.2325
  171SOL     MW  684   0.572   1.412   0.695  0.3322  0.5162  0.0721
  172SOL     OW  685   0.869   0.332   1.273 -0.2029  0.4386  0.3569
  172SOL    HW1  686   0.876   0.318   1.174 -0.8742  1.1137 -0.8812
  172SOL    HW2  687   0.770   0.339   1.284 -0.9453 -0.4681  0.0203
  172SOL     MW  688   0.857   0.331   1.261 -0.3894  0.4081  0.1491
  173SOL     OW  689   0.478   1.661   0.399  0.0283  0.0162  0.1824
  173SOL    HW1  690   0.471   1.565   0.397  1.2516 -3.1242  2.9373
  173SOL    HW2  691   0.541   1.679   0.473 -0.8654  1.1067  1.0689
  173SOL     MW  692   0.485   1.651   0.408  0.0718 -0.2543  0.6628
  174SOL     OW  693   1.973   0.954   1.456 -0.2388  0.9258  0.4680
  174SOL    HW1  694   1.921   0.878   1.496  0.7428 -0.2794  1.6166
  174SOL    HW2  695   1.916   1.004   1.397 -0.4402  0.5825 -1.6092
  174SOL     MW  696   1.959   0.951   1.453 -0.1358  0.7215  0.3455
  175SOL     OW  697   0.482   1.402   0.326 -0.0485 -0.4789  0.0102
  175SOL    HW1  698   0.450   1.422   0.238 -0.4366  0.9459  0.1364
  175SOL    HW2  699   0.575   1.396   0.327 -4.9477 -3.2485 -0.3383
  175SOL     MW  700   0.490   1.404   0.314 -0.7461 -0.6564 -0.0192
  176SOL     OW  701   0.232   1.312   1.271 -0.8471  0.6102 -0.4969
  176SOL    HW1  702   0.159   1.282   1.213 -0.3876  1.9601  0.0928
  176SOL    HW2  703   0.219   1.250   1.348  1.8180  1.9243 -0.5560
  176SOL     MW  704   0.220   1.300   1.273 -0.4348  0.9617 -0.4269
  177SOL     OW  705   0.582   0.326   1.300  0.0937 -0.5159  0.3731
  177SOL    HW1  706   0.573   0.419   1.280 -0.7357 -0.2055 -1.5690
  177SOL    HW2  707   0.580   0.326   1.391  0.7673  0.6458 -1.2138
  177SOL     MW  708   0.580   0.338   1.310  0.0731 -0.3217 -0.0925
  178SOL     OW  709   3.037   0.404   2.892 -0.7654  0.3741 -0.5650
  178SOL    HW1  710   3.005   0.449   2.977 -0.9105 -1.3234  0.3654
  178SOL    HW2  711   2.963   0.395   2.838  0.0916 -2.0997  1.9435
  178SOL     MW  712   3.023   0.409   2.896 -0.6715 -0.1763 -0.1113
  179SOL     OW  713   1.623   1.324   1.444 -0.5783  0.0506  0.3204
  179SOL    HW1  714   1.617   1.333   1.537 -1.8106 -0.8542 -1.6700
  179SOL    HW2  715   1.705   1.377   1.419 -0.7163  3.6381  1.5865
  179SOL     MW  716   1.633   1.332   1.453 -0.7591  0.4046  0.2248
  180SOL     OW  717   2.984   0.186   0.437 -0.0171  0.3089  0.0790
  180SOL    HW1  718   2.946   0.227   0.360 -0.2715 -1.0611  0.2710
  180SOL    HW2  719   3.062   0.245   0.457  0.8527  2.3069  2.0922
  180SOL     MW  720   2.989   0.199   0.429  0.0641  0.3918  0.3700
  181SOL     OW  721   1.144   1.431   3.033 -0.1435 -0.6626  0.0153
  181SOL    HW1  722   1.211   1.423   3.100 -2.2579 -3.7035  0.4135
  181SOL    HW2  723   1.186   1.431   2.948 -1.0368  0.8943  1.5314
  181SOL     MW  724   1.159   1.430   3.031 -0.5403 -0.8584  0.2679
  182SOL     OW  725   0.497   0.862   1.653  0.3635  0.4587  0.3676
  182SOL    HW1  726   0.412   0.837   1.686 -0.0645 -1.9882 -1.0752
  182SOL    HW2  727   0.560   0.838   1.725 -1.3990 -2.0430  0.8047
  182SOL     MW  728   0.494   0.856   1.667  0.0745 -0.1942  0.2349
  183SOL     OW  729   1.510   1.496   1.247 -0.7964  0.6750  0.3401
  183SOL    HW1  730   1.454   1.542   1.313 -1.0305 -1.0350 -0.7628
  183SOL    HW2  731   1.569   1.446   1.303 -0.4223 -0.5022  2.6240
  183SOL     MW  732   1.510   1.496   1.263 -0.7779  0.2940  0.4959
  184SOL     OW  733   0.868   0.635   1.959  0.5635  0.4155  0.3492
  184SOL    HW1  734   0.953   0.624   1.914  1.1734 -1.0476  2.2326
  184SOL    HW2  735   0.862   0.558   2.011  1.4379 -0.6504 -3.5376
  184SOL     MW  736   0.878   0.624   1.960  0.7594  0.0818  0.0849
  185SOL     OW  737   1.199   0.943   1.967 -0.4875  0.3334  0.1091
  185SOL    HW1  738   1.212   0.856   1.997  0.4004  0.6444 -1.6983
  185SOL    HW2  739   1.245   1.000   2.035  4.7584 -0.1410  0.3188
  185SOL     MW  740   1.207   0.939   1.980  0.3218  0.3118 -0.1017
  186SOL     OW  741   0.419   1.663   1.413  0.7326  0.3444  0.5218
  186SOL    HW1  742   0.511   1.653   1.386 -0.4779 -2.6254 -1.8548
  186SOL    HW2  743   0.365   1.623   1.348 -1.5076 -1.6622  1.6252
  186SOL     MW  744   0.424   1.656   1.401  0.2773 -0.3122  0.3538
  187SOL     OW  745   1.448   0.764   1.450 -0.2043  0.2873 -0.2689
  187SOL    HW1  746   1.452   0.751   1.543  1.3701  1.7161  0.0050
  187SOL    HW2  747   1.366   0.723   1.420  0.8521  0.7336 -0.4800
  187SOL     MW  748   1.438   0.757   1.458  0.1428  0.5347 -0.2606
  188SOL     OW  749   1.897   1.068   0.772  0.0834  0.6320  0.7125
  188SOL    HW1  750   1.841   1.027   0.835  0.6709 -0.1830  4.1154
  188SOL    HW2  751   1.975   1.013   0.759 -0.5293  0.1380  0.4458
  188SOL     MW  752   1.900   1.055   0.778  0.0800  0.4593  1.1263
  189SOL     OW  753   0.728   0.808   0.771  0.3137 -0.7074 -0.5475
  189SOL    HW1  754   0.635   0.832   0.757  0.8327 -1.7758 -1.1102
  189SOL    HW2  755   0.773   0.871   0.835  1.9228 -0.0679  0.8419
  189SOL     MW  756   0.721   0.819   0.778  0.5945 -0.7640 -0.4384
  190SOL     OW  757   1.879   0.208   2.032 -0.0624 -0.4364  0.3527
  190SOL    HW1  758   1.813   0.137   2.050 -1.8700  0.7249 -0.3203
  190SOL    HW2  759   1.957   0.172   1.985 -0.1673 -1.1546 -2.5326
  190SOL     MW  760   1.881   0.194   2.028 -0.3147 -0.3779 -0.1168
  191SOL     OW  761   1.497   0.953   1.269 -0.9568 -0.4524 -0.4782
  191SOL    HW1  762   1.461   1.037   1.297  1.4458  0.1087  0.8740
  191SOL    HW2  763   1.487   0.887   1.341 -2.5022 -1.4321 -1.9832
  191SOL     MW  764   1.491   0.956   1.282 -0.8437 -0.5076 -0.4984
  192SOL     OW  765   0.649   2.021   2.826 -0.9482  0.8917 -0.3256
  192SOL    HW1  766   0.603   2.063   2.754  1.6506 -1.5297  1.7344
  192SOL    HW2  767   0.620   1.928   2.819  2.3096  1.8977  0.0044
  192SOL     MW  768   0.639   2.014   2.816 -0.1755  0.7050 -0.0103
  193SOL     OW  769   0.998   1.620   0.727  0.8704 -0.7979 -0.4146
  193SOL    HW1  770   0.964   1.653   0.816 -1.0498 -0.1750 -0.4877
  193SOL    HW2  771   0.947   1.540   0.718  1.1637  1.0485  0.1185
  193SOL     MW  772   0.987   1.614   0.737  0.6557 -0.4721 -0.3539
  194SOL     OW  773   0.518   1.321   0.931 -0.1011  0.2983 -0.7751
  194SOL    HW1  774   0.510   1.222   0.929  1.0451  3.9058 -2.0430
  194SOL    HW2  775   0.433   1.356   0.907  1.3901 -1.5775  0.2293
  194SOL     MW  776   0.506   1.312   0.928  0.2469  0.5268 -0.8099
  195SOL     OW  777   1.290   1.088   2.960 -0.2997 -0.0219  0.0841
  195SOL    HW1  778   1.324   1.136   3.039  0.9977 -0.7966 -0.7207
  195SOL    HW2  779   1.203   1.060   2.995 -2.3158  0.4372  1.5066
  195SOL     MW  780   1.283   1.090   2.975 -0.3945 -0.0635  0.1656
  196SOL     OW  781   2.190   1.059   0.624 -0.2794 -1.2322  0.0574
  196SOL    HW1  782   2.136   1.005   0.566 -0.7051  1.6801 -0.3094
  196SOL    HW2  783   2.198   1.140   0.573 -0.3404  0.6909  1.6788
  196SOL     MW  784   2.184   1.063   0.610 -0.3436 -0.5942  0.2229
  197SOL     OW  785   0.649   1.283   2.012  1.0654  0.0705 -0.1859
  197SOL    HW1  786   0.633   1.192   2.029 -0.6639  3.5119 -0.9308
  197SOL    HW2  787   0.619   1.296   1.923  0.9762 -2.1292 -0.7515
  197SOL     MW  788   0.643   1.273   2.002  0.8255  0.2343 -0.3588
  198SOL     OW  789   2.943   1.475   1.045  0.2299 -0.2331  0.0429
  198SOL    HW1  790   2.921   1.573   1.053  0.7696  0.9354  1.0152
  198SOL    HW2  791   2.862   1.429   1.021 -2.7243 -0.7114  1.0473
  198SOL     MW  792   2.930   1.482   1.043 -0.0886 -0.1420  0.3037
  199SOL     OW  793   0.502   1.311   1.802 -0.1774  0.4463  0.1055
  199SOL    HW1  794   0.408   1.294   1.799 -0.7222  0.5159  1.0526
  199SOL    HW2  795   0.510   1.386   1.739  0.0047 -0.8653  0.1027
  199SOL     MW  796   0.491   1.319   1.793 -0.2253  0.2825  0.2301
  200SOL     OW  797   1.912   3.086   1.362  0.2033 -0.6740  0.2070
  200SOL    HW1  798   1.903   3.073   1.268 -5.0096  0.4740  1.1073
  200SOL    HW2  799   1.827   3.122   1.384  2.2788  0.3417 -0.0762
  200SOL     MW  800   1.899   3.089   1.352 -0.2106 -0.3885  0.2884
  201SOL     OW  801   1.050   0.260   0.801 -0.5932 -0.2306  0.1826
  201SOL    HW1  802   1.041   0.167   0.787 -0.8344 -2.4332  1.3733
  201SOL    HW2  803   1.113   0.287   0.730 -2.5284 -3.1483 -0.2453
  201SOL     MW  804   1.057   0.251   0.790 -0.8804 -0.9061  0.2832
  202SOL     OW  805   1.546   1.671   1.016  0.2986 -0.2501 -1.0186
  202SOL    HW1  806   1.604   1.606   0.967  0.3523  1.2205 -0.9752
  202SOL    HW2  807   1.542   1.637   1.105 -2.2098  0.2788 -1.0354
  202SOL     MW  808   1.553   1.658   1.021 -0.0252  0.0137 -1.0151
  203SOL     OW  809   3.094   0.469   1.154  0.2164 -0.4108 -0.0595
  203SOL    HW1  810   3.101   0.371   1.145 -0.0778 -0.3820 -0.3063
  203SOL    HW2  811   3.167   0.504   1.209 -0.8358 -0.9367  0.9285
  203SOL     MW  812   3.105   0.461   1.160  0.0387 -0.4764  0.0383
  204SOL     OW  813   1.047   1.784   0.533  0.0613  0.1591  0.0177
  204SOL    HW1  814   1.028   1.730   0.614 -0.8706  1.5547 -0.6262
  204SOL    HW2  815   0.962   1.801   0.489  0.0263  1.2777 -0.8033
  204SOL     MW  816   1.033   1.779   0.538 -0.0663  0.4909 -0.1756
  205SOL     OW  817   1.360   0.098   1.339 -0.2771  0.1653 -0.3530
  205SOL    HW1  818   1.326   0.095   1.251  1.9571 -3.1741 -1.4342
  205SOL    HW2  819   1.354   0.189   1.367  1.2216  1.3601 -0.6503
  205SOL     MW  820   1.355   0.110   1.331  0.2154 -0.1176 -0.5349
  206SOL     OW  821   0.414   3.084   1.432  0.3481 -0.1485  0.2565
  206SOL    HW1  822   0.352   3.035   1.380 -1.7918 -0.7094 -0.8804
  206SOL    HW2  823   0.487   3.032   1.397 -3.6046 -0.3101  0.1953
  206SOL     MW  824   0.416   3.071   1.420 -0.4557 -0.2438  0.0984
  207SOL     OW  825   0.970   1.521   0.198  0.2830  0.6239 -0.1111
  207SOL    HW1  826   0.965   1.614   0.189 -1.5174  0.2017 -0.6692
  207SOL    HW2  827   1.054   1.508   0.232 -2.5367  1.1970  0.0680
  207SOL     MW  828   0.980   1.531   0.202 -0.3266  0.6438 -0.1611
  208SOL     OW  829   0.695   1.583   1.303 -0.3658  0.1045  0.2334
  208SOL    HW1  830   0.751   1.613   1.379 -0.3825  0.2250  2.7193
  208SOL    HW2  831   0.691   1.485   1.315  2.2880 -0.6603 -0.8180
  208SOL     MW  832   0.702   1.574   1.314 -0.0179  0.0195  0.4227
  209SOL     OW  833   1.570   0.548   2.844  0.4641 -0.0505  0.0822
  209SOL    HW1  834   1.640   0.591   2.889 -0.3885  0.0975  1.8089
  209SOL    HW2  835   1.608   0.457   2.816  0.6664  2.6188 -0.1160
  209SOL     MW  836   1.585   0.542   2.846  0.3783  0.3213  0.2839
  210SOL     OW  837   1.623   1.443   0.868 -0.0008 -0.0932 -0.1061
  210SOL    HW1  838   1.713   1.420   0.850  1.4846 -0.5671  1.2595
  210SOL    HW2  839   1.579   1.427   0.781 -2.3359 -0.1185  0.0891
  210SOL     MW  840   1.629   1.438   0.854 -0.1129 -0.1591  0.0999
  211SOL     OW  841   1.687   0.373   0.953 -0.4943 -0.2756  0.0876
  211SOL    HW1  842   1.659   0.369   0.865 -0.5332 -3.7172  1.2744
  211SOL    HW2  843   1.785   0.395   0.947  1.6402 -0.1190  0.8978
  211SOL     MW  844   1.697   0.375   0.940 -0.2178 -0.7090  0.3511
  212SOL     OW  845   0.251   1.122   0.082  0.6225 -0.2330  0.0089
  212SOL    HW1  846   0.199   1.082   0.153 -0.3475  0.9687 -1.0703
  212SOL    HW2  847   0.312   1.054   0.055 -0.6971 -0.5980 -0.3253
  212SOL     MW  848   0.252   1.108   0.088  0.3204 -0.1226 -0.1776
  213SOL     OW  849   0.391   1.768   3.037 -0.3286 -0.0093  0.0586
  213SOL    HW1  850   0.425   1.833   3.096 -1.6707  0.4752  0.3479
  213SOL    HW2  851   0.434   1.774   2.952 -0.2390 -0.3597 -0.3255
  213SOL     MW  852   0.401   1.777   3.033 -0.4938  0.0084  0.0461
  214SOL     OW  853   0.626   0.290   2.231  0.1578 -0.0641 -0.2307
  214SOL    HW1  854   0.549   0.346   2.216 -0.9419  1.3082 -0.3374
  214SOL    HW2  855   0.700   0.327   2.174  1.6420  5.6642 -1.1381
  214SOL     MW  856   0.626   0.302   2.221  0.2086  0.8728 -0.3645
  215SOL     OW  857   0.460   0.688   2.633  0.2306 -0.2317  0.2417
  215SOL    HW1  858   0.490   0.678   2.542 -1.7017 -1.0777 -1.6356
  215SOL    HW2  859   0.392   0.622   2.665 -0.9989  0.2337  2.0798
  215SOL     MW  860   0.455   0.678   2.625 -0.1866 -0.2819  0.2365
  216SOL     OW  861   3.039   3.032   2.647  0.0840  0.2429  0.3488
  216SOL    HW1  862   3.002   3.017   2.740 -1.4290  0.3598 -1.2342
  216SOL    HW2  863   3.018   3.127   2.629  0.5749  0.1670 -5.0707
  216SOL     MW  864   3.032   3.042   2.657 -0.0508  0.2483 -0.5751
  217SOL     OW  865   0.956   1.254   0.021 -0.3688 -0.5445 -0.2385
  217SOL    HW1  866   1.009   1.174   0.006 -1.8804  1.6675 -2.4671
  217SOL    HW2  867   1.021   1.322   0.023  1.6547 -0.5020  1.7660
  217SOL     MW  868   0.971   1.253   0.019 -0.3012 -0.2470 -0.2681
  218SOL     OW  869   0.903   1.314   2.519 -0.1274 -0.5435 -0.3368
  218SOL    HW1  870   0.908   1.248   2.581  1.0576  1.9814 -1.0356
  218SOL    HW2  871   0.972   1.371   2.537  0.3672 -3.8139 -0.1719
  218SOL     MW  872   0.913   1.313   2.529  0.0942 -0.6419 -0.4072
  219SOL     OW  873   1.076   0.455   2.531  0.5915  0.0753  0.3911
  219SOL    HW1  874   1.158   0.500   2.542 -0.6672 -0.4982 -1.0184
  219SOL    HW2  875   1.011   0.524   2.512  1.8206 -1.6338  1.7071
  219SOL     MW  876   1.078   0.470   2.530  0.5876 -0.2259  0.3788
  220SOL     OW  877   1.775   0.417   2.178 -0.4627 -0.1911 -0.4582
  220SOL    HW1  878   1.710   0.473   2.136  0.8304  0.0734  3.2474
  220SOL    HW2  879   1.824   0.363   2.117  2.2311  0.4700  0.0463
  220SOL     MW  880   1.773   0.417   2.165  0.0634 -0.0690  0.0973
  221SOL     OW  881   0.356   1.320   2.872  0.4746 -0.3598 -0.4087
  221SOL    HW1  882   0.353   1.229   2.837 -2.5048 -0.0079  1.2060
  221SOL    HW2  883   0.373   1.381   2.797 -1.4762  0.8841 -1.7461
  221SOL     MW  884   0.358   1.316   2.858 -0.1759 -0.1493 -0.3721
  222SOL     OW  885   0.290   0.890   2.654  0.6894 -0.2986  0.4108
  222SOL    HW1  886   0.251   0.932   2.579 -1.6434  0.9814 -0.4984
  222SOL    HW2  887   0.335   0.814   2.622 -0.9985  0.7509  0.4477
  222SOL     MW  888   0.291   0.885   2.640  0.1589  0.0088  0.2957
  223SOL     OW  889   0.040   2.064   2.611 -0.3397  0.5446 -0.1693
  223SOL    HW1  890   0.110   2.010   2.645  1.5328 -4.0127  1.2361
  223SOL    HW2  891   0.088   2.099   2.534  1.1890 -3.1907  1.2367
  223SOL     MW  892   0.056   2.061   2.605  0.1091 -0.5495  0.2017
  224SOL     OW  893   1.491   0.807   2.605  0.3374 -0.0073  0.3331
  224SOL    HW1  894   1.473   0.836   2.689  0.3502  1.1657  0.7986
  224SOL    HW2  895   1.506   0.886   2.556 -0.0900  0.5863 -1.6042
  224SOL     MW  896   1.491   0.821   2.610  0.2827  0.2258  0.1389
  225SOL     OW  897   2.974   1.522   2.290  0.3867  0.0886 -0.1547
  225SOL    HW1  898   3.017   1.583   2.230  1.1541  0.3981  0.3803
  225SOL    HW2  899   2.919   1.576   2.348  0.9933 -0.1782  1.2366
  225SOL     MW  900   2.972   1.537   2.290  0.5680  0.0943  0.0994
  226SOL     OW  901   0.409   1.417   2.617  0.0403 -0.0537  0.1044
  226SOL    HW1  902   0.506   1.415   2.611  1.3782 -0.1383  1.4565
  226SOL    HW2  903   0.391   1.509   2.590 -2.2399 -1.3429 -0.0051
  226SOL     MW  904   0.420   1.429   2.613 -0.0840 -0.2349  0.2683
  227SOL     OW  905   0.435   1.065   2.807 -0.7244  0.1769  0.1232
  227SOL    HW1  906   0.524   1.090   2.780 -2.5627 -3.4021  0.7781
  227SOL    HW2  907   0.391   1.004   2.755  1.1487  1.3419  3.1791
  227SOL     MW  908   0.441   1.061   2.796 -0.7198 -0.1416  0.6128
  228SOL     OW  909   0.647   0.995   2.003  0.2013  0.0631  0.0091
  228SOL    HW1  910   0.737   1.028   1.971  1.3213  1.4817 -1.4763
  228SOL    HW2  911   0.680   0.952   2.084  1.3791 -0.5570  2.0797
  228SOL     MW  912   0.663   0.993   2.009  0.5045  0.1685  0.0863
  229SOL     OW  913   0.164   0.554   3.084 -0.7882 -0.5802  0.1248
  229SOL    HW1  914   0.101   0.531   3.018  1.3131  0.1213  0.9375
  229SOL    HW2  915   0.153   0.492   3.157  0.9881  3.6520 -0.5717
  229SOL     MW  916   0.155   0.542   3.085 -0.2766  0.0708  0.1401
  230SOL     OW  917   1.754   1.394   2.032 -0.2212 -0.2327  0.0023
  230SOL    HW1  918   1.705   1.394   2.117 -0.7323  1.3822 -0.1738
  230SOL    HW2  919   1.840   1.348   2.038  0.0336  0.0148  0.6131
  230SOL     MW  920   1.759   1.388   2.044 -0.2550  0.0130  0.0597
  231SOL     OW  921   2.770   1.344   2.245 -0.4842  0.0391  0.6349
  231SOL    HW1  922   2.842   1.409   2.249  0.5290 -1.1603  3.7437
  231SOL    HW2  923   2.709   1.371   2.169 -2.5271 -1.0800  0.1332
  231SOL     MW  924   2.771   1.356   2.235 -0.6201 -0.2668  0.9789
  232SOL     OW  925   2.242   0.874   2.135 -0.3737 -0.1663  0.3736
  232SOL    HW1  926   2.199   0.891   2.044  0.5935 -1.4786  0.4942
  232SOL    HW2  927   2.181   0.893   2.204 -2.5591  0.4159 -0.7488
  232SOL     MW  928   2.228   0.879   2.132 -0.5344 -0.2626  0.2414
  233SOL     OW  929   2.043   0.531   1.967 -0.2312  0.2046  0.1363
  233SOL    HW1  930   2.016   0.476   1.890 -0.1675  0.1674 -1.6858
  233SOL    HW2  931   2.118   0.477   1.996  0.5290 -0.0791  1.6903
  233SOL     MW  932   2.050   0.517   1.961 -0.1225  0.1623  0.1009
  234SOL     OW  933   0.290   1.000   2.371 -0.3264 -0.1866 -0.4583
  234SOL    HW1  934   0.221   1.058   2.346  1.7818  1.4216 -0.2193
  234SOL    HW2  935   0.355   1.061   2.411  0.0162  0.1472  1.6025
  234SOL     MW  936   0.289   1.016   2.373 -0.0030  0.0696 -0.1548
  235SOL     OW  937   1.090   3.087   2.745  0.0591  0.5025 -0.0774
  235SOL    HW1  938   1.122   3.012   2.798  1.4752 -0.2807 -2.1750
  235SOL    HW2  939   1.058   3.155   2.799 -2.9942 -0.3271 -0.0853
  235SOL     MW  940   1.090   3.086   2.759 -0.1569  0.2897 -0.3552
  236SOL     OW  941   2.955   0.539   0.031 -0.0734 -0.3079  0.0900
  236SOL    HW1  942   2.859   0.533   0.030 -0.1013 -0.1405  0.1109
  236SOL    HW2  943   2.984   0.629   0.011 -1.5281 -0.2411  1.3991
  236SOL     MW  944   2.946   0.550   0.028 -0.2690 -0.2770  0.2655
  237SOL     OW  945   1.831   0.971   2.158  0.4536 -0.2168  0.0554
  237SOL    HW1  946   1.866   1.044   2.100  0.0238  2.9166 -0.0436
  237SOL    HW2  947   1.852   0.985   2.254  2.3045  1.5512 -0.8879
  237SOL     MW  948   1.839   0.982   2.163  0.6411  0.4299 -0.0821
  238SOL     OW  949   1.068   1.767   3.005  0.2876  0.3334  0.8271
  238SOL    HW1  950   1.010   1.684   2.998  0.2976  1.3939 -1.4434
  238SOL    HW2  951   1.152   1.723   2.988  0.0669  1.1868 -0.7922
  238SOL     MW  952   1.071   1.750   3.002  0.2598  0.5859  0.3139
  239SOL     OW  953   1.235   1.426   2.347  0.9316 -0.1233 -0.5955
  239SOL    HW1  954   1.202   1.467   2.430  0.0578 -2.0384  1.5037
  239SOL    HW2  955   1.251   1.338   2.382 -1.1195 -0.5586  2.4124
  239SOL     MW  956   1.233   1.420   2.363  0.5457 -0.4334  0.0783
  240SOL     OW  957   0.692   0.851   2.225 -0.0764 -1.0516  0.0193
  240SOL    HW1  958   0.669   0.899   2.308 -2.1747  0.6610  0.2843
  240SOL    HW2  959   0.788   0.831   2.220  2.6431 -1.4097  1.0364
  240SOL     MW  960   0.702   0.854   2.235  0.0055 -0.8729  0.1885
  241SOL     OW  961   0.640   0.357   3.078  0.3639  0.5342  0.6456
  241SOL    HW1  962   0.675   0.436   3.128  0.8462  2.2082  0.7935
  241SOL    HW2  963   0.552   0.373   3.043  2.3722  0.4936 -2.5569
  241SOL     MW  964   0.633   0.370   3.080  0.6925  0.7497  0.2425
  242SOL     OW  965   1.507   1.717   2.260 -0.9168 -0.7020  0.2549
  242SOL    HW1  966   1.453   1.779   2.305 -0.6675 -3.4027 -2.5576
  242SOL    HW2  967   1.447   1.683   2.192 -0.7053 -0.4660 -1.0646
  242SOL     MW  968   1.492   1.720   2.257 -0.8560 -1.0272 -0.2903
  243SOL     OW  969   0.998   0.230   2.401  0.8419  0.2031  0.3651
  243SOL    HW1  970   1.088   0.212   2.375 -2.7450 -1.3923  1.2845
  243SOL    HW2  971   1.018   0.312   2.444  2.6163 -0.9910  2.3688
  243SOL     MW  972   1.012   0.239   2.403  0.6028 -0.1649  0.7508
  244SOL     OW  973   0.234   0.731   2.378  0.1702  0.4593  0.6532
  244SOL    HW1  974   0.237   0.831   2.382 -0.0916  0.7870  2.1271
  244SOL    HW2  975   0.324   0.696   2.360  3.0009 -0.3480 -1.5378
  244SOL     MW  976   0.246   0.739   2.376  0.5091  0.3960  0.5586
  245SOL     OW  977   1.260   0.231   2.327 -0.1593  0.1692  0.0401
  245SOL    HW1  978   1.321   0.156   2.312 -0.1115 -1.5559 -0.6244
  245SOL    HW2  979   1.307   0.296   2.384  2.6000  0.2145 -0.2978
  245SOL     MW  980   1.274   0.229   2.332  0.2111 -0.0524 -0.0922
  246SOL     OW  981   1.219   1.211   2.126 -0.7329  0.3610  0.0207
  246SOL    HW1  982   1.149   1.157   2.169  0.6515  0.3494  1.9722
  246SOL    HW2  983   1.277   1.229   2.192 -2.0318  1.5770 -3.0089
  246SOL     MW  984   1.217   1.206   2.140 -0.7216  0.5199 -0.1215
  247SOL     OW  985   0.742   0.558   0.125  0.5006  0.3069  0.6127
  247SOL    HW1  986   0.695   0.642   0.121  1.4786 -0.6222 -2.4186
  247SOL    HW2  987   0.828   0.565   0.084  0.7037  1.9614  1.4983
  247SOL     MW  988   0.747   0.570   0.119  0.6564  0.4026  0.3296
  248SOL     OW  989   0.472   1.183   2.470 -0.3824 -0.4408  0.3448
  248SOL    HW1  990   0.512   1.221   2.389  1.0124  1.9762 -1.4815
  248SOL    HW2  991   0.449   1.264   2.523 -2.2561  0.3173  1.8252
  248SOL     MW  992   0.474   1.199   2.466 -0.4456 -0.0219  0.2992
  249SOL     OW  993   0.190   1.857   2.687 -0.3208  0.5153  0.1754
  249SOL    HW1  994   0.127   1.787   2.651  1.1082  1.5870  1.9334
  249SOL    HW2  995   0.171   1.852   2.780  0.8737  1.6459  1.3059
  249SOL     MW  996   0.179   1.847   2.695  0.0254  0.8058  0.5565
  250SOL     OW  997   2.132   0.845   2.415 -0.1718  0.3029  0.3077
  250SOL    HW1  998   2.156   0.758   2.433  0.4902  4.4668  1.7985
  250SOL    HW2  999   2.199   0.897   2.461  1.0214 -0.9537  0.1829
  250SOL     MW 1000   2.144   0.841   2.424  0.0730  0.6865  0.4879
  251SOL     OW 1001   0.204   0.833   2.072 -0.3041  0.0830 -0.3194
  251SOL    HW1 1002   0.157   0.776   2.136  0.2008  0.0370 -0.7660
  251SOL    HW2 1003   0.213   0.779   1.997 -0.7795  0.4570  3.0079
  251SOL     MW 1004   0.199   0.818   2.071 -0.3002  0.1263  0.0607
  252SOL     OW 1005   1.677   1.018   2.875 -0.0830 -0.1256  0.2636
  252SOL    HW1 1006   1.698   1.055   2.962 -0.5057  2.1288  0.2559
  252SOL    HW2 1007   1.747   1.047   2.811 -0.8374  0.1658  0.9478
  252SOL     MW 1008   1.689   1.027   2.878 -0.2383  0.2103  0.3528
  253SOL     OW 1009   1.133   1.740   2.554  0.3747  0.0284  0.1166
  253SOL    HW1 1010   1.156   1.768   2.465 -3.6350  0.3212  1.8890
  253SOL    HW2 1011   1.063   1.808   2.587 -0.9906  1.0970  1.5557
  253SOL     MW 1012   1.127   1.753   2.547 -0.3345  0.2080  0.5403
  254SOL     OW 1013   1.012   1.082   2.234 -0.5897  0.0396  0.2356
  254SOL    HW1 1014   0.999   0.986   2.224 -0.8247 -0.9256  2.2047
  254SOL    HW2 1015   0.922   1.121   2.257 -0.3585  1.7127  2.0022
  254SOL     MW 1016   0.998   1.074   2.236 -0.5902  0.1330  0.7285
  255SOL     OW 1017   0.835   2.491   2.160 -0.2012  0.6487  0.6349
  255SOL    HW1 1018   0.779   2.424   2.193  2.3398  0.9058  1.3302
  255SOL    HW2 1019   0.901   2.493   2.231  0.7974 -1.2846  1.5027
  255SOL     MW 1020   0.836   2.482   2.174  0.2658  0.4276  0.8411
  256SOL     OW 1021   1.186   2.844   2.850  0.7457  0.0160 -0.0717
  256SOL    HW1 1022   1.150   2.787   2.778 -0.7886 -0.1330 -1.7175
  256SOL    HW2 1023   1.285   2.838   2.837  1.7915  0.2523  2.1433
  256SOL     MW 1024   1.194   2.836   2.839  0.6812  0.0275  0.0034
  257SOL     OW 1025   0.155   1.941   0.099 -0.2993  0.4484 -0.5005
  257SOL    HW1 1026   0.209   1.897   0.168  0.1993 -2.5868 -0.3404
  257SOL    HW2 1027   0.145   1.871   0.035  1.4527  0.8246  2.4020
  257SOL     MW 1028   0.161   1.926   0.099 -0.0023  0.0976 -0.0964
  258SOL     OW 1029   0.713   1.035   2.499  0.5313 -0.3445  0.0448
  258SOL    HW1 1030   0.747   1.093   2.435  1.2755  1.1726 -1.3446
  258SOL    HW2 1031   0.627   1.071   2.508 -1.7348  1.1365 -0.6929
  258SOL     MW 1032   0.706   1.047   2.492  0.3305  0.0511 -0.2359
  259SOL     OW 1033   0.756   0.514   2.337  0.2227 -0.1824 -0.6704
  259SOL    HW1 1034   0.675   0.568   2.347 -1.9591 -1.7002  1.0655
  259SOL    HW2 1035   0.710   0.432   2.337 -0.9701  1.1608  3.1957
  259SOL     MW 1036   0.740   0.511   2.339 -0.2225 -0.2055  0.0687
  260SOL     OW 1037   0.591   0.148   1.591 -0.0963  0.0918 -0.4503
  260SOL    HW1 1038   0.519   0.094   1.562 -0.0192 -0.0379  0.7668
  260SOL    HW2 1039   0.669   0.108   1.559 -0.3937  0.0148  2.7188
  260SOL     MW 1040   0.592   0.136   1.583 -0.1254  0.0645  0.1284
  261SOL     OW 1041   1.207   0.666   2.030  0.1225  0.0955 -0.5144
  261SOL    HW1 1042   1.236   0.669   2.125  3.2623 -2.5988 -1.2083
  261SOL    HW2 1043   1.270   0.607   1.991 -0.8451 -0.2530 -0.5788
  261SOL     MW 1044   1.219   0.659   2.038  0.4091 -0.3060 -0.6144
  262SOL     OW 1045   1.167   0.317   0.120 -0.1117  0.0050  0.5053
  262SOL    HW1 1046   1.257   0.334   0.093 -2.0369  1.0883 -0.3941
  262SOL    HW2 1047   1.138   0.244   0.057 -2.8007 -2.3515 -1.3385
  262SOL     MW 1048   1.175   0.310   0.108 -0.7205 -0.1630  0.1434
  263SOL     OW 1049   0.426   3.050   2.519 -0.4244  0.2953  0.1250
  263SOL    HW1 1050   0.361   3.121   2.515  0.0308  0.3442  0.1256
  263SOL    HW2 1051   0.460   3.059   2.429 -1.8196 -2.2390 -0.0536
  263SOL     MW 1052   0.422   3.061   2.507 -0.5485 -0.0326  0.1015
  264SOL     OW 1053   1.522   1.299   1.920  0.0761 -0.3198 -0.2282
  264SOL    HW1 1054   1.482   1.249   1.993 -1.6809  1.8633  0.5284
  264SOL    HW2 1055   1.608   1.328   1.959 -1.0542 -2.3793 -0.7665
  264SOL     MW 1056   1.528   1.296   1.935 -0.3048 -0.3035 -0.1994
  265SOL     OW 1057   0.644   2.724   2.253  0.6658  0.6234  0.2677
  265SOL    HW1 1058   0.708   2.688   2.187  0.4459 -0.8154  1.2588
  265SOL    HW2 1059   0.692   2.726   2.334  1.1601  3.6162 -2.8761
  265SOL     MW 1060   0.659   2.719   2.255  0.7020  0.8284 -0.0163
  266SOL     OW 1061   0.969   0.806   2.163  0.6238 -0.1643 -0.4920
  266SOL    HW1 1062   0.965   0.739   2.097 -0.0607 -2.6814 -0.5594
  266SOL    HW2 1063   1.047   0.777   2.212  4.1880 -2.0613 -0.8540
  266SOL     MW 1064   0.979   0.793   2.161  1.0037 -0.7467 -0.5486
  267SOL     OW 1065   1.377   1.666   2.703  0.1569 -0.2975  0.1562
  267SOL    HW1 1066   1.436   1.681   2.632  0.8787 -3.0601  1.2182
  267SOL    HW2 1067   1.301   1.701   2.663 -1.7684  0.4315  0.2782
  267SOL     MW 1068   1.375   1.672   2.689 -0.0019 -0.5658  0.3124
  268SOL     OW 1069   0.246   0.772   1.782  0.5380  0.1318  0.3579
  268SOL    HW1 1070   0.190   0.842   1.739 -3.2463  0.1746 -1.9694
  268SOL    HW2 1071   0.232   0.692   1.733 -1.4127 -2.3869  2.0151
  268SOL     MW 1072   0.237   0.771   1.770 -0.2186 -0.1949  0.2695
  269SOL     OW 1073   1.390   1.926   2.394  0.5029  0.3403 -0.6285
  269SOL    HW1 1074   1.445   2.000   2.361 -1.3730 -0.6000 -3.0509
  269SOL    HW2 1075   1.319   1.963   2.441 -1.4732 -0.1876  1.2442
  269SOL     MW 1076   1.388   1.941   2.396 -0.0053  0.1466 -0.7010
  270SOL     OW 1077   1.191   0.368   1.607  0.6930  0.4051 -0.1731
  270SOL    HW1 1078   1.156   0.287   1.645 -0.6727  0.2291 -1.3350
  270SOL    HW2 1079   1.290   0.359   1.599  1.0327  0.5574 -1.5917
  270SOL     MW 1080   1.199   0.356   1.611  0.5576  0.4020 -0.5136
  271SOL     OW 1081   0.872   3.084   2.408  0.3745  0.2408 -0.0821
  271SOL    HW1 1082   0.934   3.024   2.445  2.1053  0.2024  2.0659
  271SOL    HW2 1083   0.924   3.167   2.423 -0.7532  1.6802  1.6753
  271SOL     MW 1084   0.887   3.087   2.415  0.4541  0.4256  0.4332
  272SOL     OW 1085   1.458   2.846   2.777  0.1187 -0.2032 -0.5657
  272SOL    HW1 1086   1.433   2.944   2.768 -3.4187  2.6214  2.8826
  272SOL    HW2 1087   1.509   2.841   2.858  0.7820 -0.8006  0.7578
  272SOL     MW 1088   1.462   2.858   2.787 -0.2605  0.0906  0.0639
  273SOL     OW 1089   1.429   0.858   2.870  0.0344 -0.0458  0.0494
  273SOL    HW1 1090   1.522   0.896   2.874  1.5662  0.8480 -1.3365
  273SOL    HW2 1091   1.383   0.942   2.871 -0.1836 -0.6522  0.8621
  273SOL     MW 1092   1.435   0.874   2.870  0.2077 -0.0079 -0.0262
  274SOL     OW 1093   1.392   0.737   0.206 -0.0383 -0.2055 -0.6756
  274SOL    HW1 1094   1.447   0.656   0.202  0.6539  0.1673 -0.1430
  274SOL    HW2 1095   1.309   0.704   0.245 -0.8848 -0.6939  2.2082
  274SOL     MW 1096   1.388   0.722   0.211 -0.0587 -0.2208 -0.2249
  275SOL     OW 1097   1.687   0.680   1.790 -0.5515 -0.4475  0.2531
  275SOL    HW1 1098   1.730   0.730   1.861 -0.7734 -0.3515 -1.8689
  275SOL    HW2 1099   1.698   0.589   1.814  0.5698 -1.1015  0.8682
  275SOL     MW 1100   1.694   0.674   1.803 -0.4328 -0.5211  0.0543
  276SOL     OW 1101   0.244   1.258   1.811  0.6054 -0.0190  0.3160
  276SOL    HW1 1102   0.267   1.188   1.874  1.9444  1.6314 -0.2971
  276SOL    HW2 1103   0.182   1.313   1.857  3.1018 -1.2349  0.0860
  276SOL     MW 1104   0.239   1.256   1.826  1.1114  0.0383  0.2048
  277SOL     OW 1105   1.901   1.327   2.563 -0.2656 -0.9813 -0.0301
  277SOL    HW1 1106   1.990   1.373   2.563 -0.2414 -0.4642  1.3474
  277SOL    HW2 1107   1.909   1.251   2.620  1.2131 -0.1347 -1.5410
  277SOL     MW 1108   1.914   1.323   2.570 -0.0673 -0.8014 -0.0477
  278SOL     OW 1109   1.430   0.685   1.740 -0.0200 -0.2534 -0.6576
  278SOL    HW1 1110   1.408   0.619   1.807 -0.3033 -1.2660  2.4740
  278SOL    HW2 1111   1.525   0.704   1.760  0.1857  3.9405 -2.7810
  278SOL     MW 1112   1.440   0.679   1.751 -0.0302  0.1663 -0.5245
  279SOL     OW 1113   0.532   0.028   2.240 -0.1604  0.3797  0.2523
  279SOL    HW1 1114   0.618  -0.008   2.220 -0.0227  0.1567  0.2401
  279SOL    HW2 1115   0.541   0.117   2.205  2.1736  1.3472  0.7836
  279SOL     MW 1116   0.545   0.035   2.233  0.1657  0.4779  0.3208
  280SOL     OW 1117   1.507   1.119   2.210 -0.1166 -0.1243 -0.2138
  280SOL    HW1 1118   1.526   1.044   2.155  2.9152 -1.1218  1.6902
  280SOL    HW2 1119   1.498   1.081   2.296  0.3632  0.4198 -2.3463
  280SOL     MW 1120   1.508   1.104   2.214  0.3467 -0.1841 -0.2439
  281SOL     OW 1121   1.302   1.283   2.767  0.0997 -0.5920 -0.6552
  281SOL    HW1 1122   1.382   1.333   2.790 -0.3275  0.4890  1.6371
  281SOL    HW2 1123   1.298   1.224   2.845  1.4352  1.8027  1.1299
  281SOL     MW 1124   1.312   1.282   2.780  0.2195 -0.1334 -0.1172
  282SOL     OW 1125   1.127   1.292   1.703  0.0445 -0.3361 -0.4732
  282SOL    HW1 1126   1.093   1.340   1.620  0.5119 -3.1139  0.5599
  282SOL    HW2 1127   1.049   1.287   1.755  2.0353 -0.9648  0.9351
  282SOL     MW 1128   1.112   1.298   1.699  0.3688 -0.7856 -0.1511
  283SOL     OW 1129   0.679   1.277   3.086 -0.3838  0.5226 -0.4400
  283SOL    HW1 1130   0.776   1.275   3.091 -0.1526 -0.7190 -0.8366
  283SOL    HW2 1131   0.661   1.374   3.088  0.7599  0.7556  1.0344
  283SOL     MW 1132   0.690   1.290   3.087 -0.2024  0.3895 -0.2978
  284SOL     OW 1133   0.526   0.649   2.343 -0.0658  0.5410 -0.2002
  284SOL    HW1 1134   0.565   0.718   2.290  2.8376 -0.0431 -0.2665
  284SOL    HW2 1135   0.490   0.583   2.286  0.9846 -2.6444  1.0759
  284SOL     MW 1136   0.526   0.649   2.328  0.4558  0.0436 -0.0406
  285SOL     OW 1137   0.849   0.957   2.884  0.1519  0.0160 -0.1141
  285SOL    HW1 1138   0.872   1.014   2.806 -1.4251  1.1548  0.5539
  285SOL    HW2 1139   0.807   0.872   2.849 -0.8102 -1.8973 -2.5597
  285SOL     MW 1140   0.846   0.953   2.869 -0.1831 -0.0862 -0.3486
  286SOL     OW 1141   1.110   1.459   2.602 -0.6326  0.2809  0.0000
  286SOL    HW1 1142   1.191   1.427   2.646 -0.6374  1.2233 -1.0585
  286SOL    HW2 1143   1.118   1.553   2.609 -1.6853 -0.1127  0.7887
  286SOL     MW 1144   1.122   1.467   2.609 -0.7721  0.3533 -0.0356
  287SOL     OW 1145   0.993   0.917   0.306  0.0796  0.1294 -0.2091
  287SOL    HW1 1146   1.029   0.972   0.374  1.9131  0.8824  0.0261
  287SOL    HW2 1147   0.926   0.977   0.264  1.3487  3.0658 -0.1224
  287SOL     MW 1148   0.989   0.932   0.310  0.4890  0.6162 -0.1667
  288SOL     OW 1149   1.590   0.600   2.107  0.2591 -0.8095  0.1943
  288SOL    HW1 1150   1.574   0.612   2.203  0.0806  1.5930 -1.1992
  288SOL    HW2 1151   1.608   0.689   2.076  0.4803  0.9876  2.2953
  288SOL     MW 1152   1.590   0.613   2.116  0.2648 -0.2554  0.2877
  289SOL     OW 1153   0.940   1.050   2.634  0.4110 -0.2720 -0.0705
  289SOL    HW1 1154   1.000   0.982   2.617 -1.2740  2.5312  1.5571
  289SOL    HW2 1155   0.861   1.029   2.582 -2.2348 -0.4015  0.3091
  289SOL     MW 1156   0.937   1.038   2.625 -0.1604  0.0807  0.1943
  290SOL     OW 1157   0.871   0.533   1.567  0.6218  0.0467  0.3536
  290SOL    HW1 1158   0.909   0.538   1.480 -0.2992 -0.4007 -0.2337
  290SOL    HW2 1159   0.932   0.564   1.632  0.7143 -1.3913 -1.7527
  290SOL     MW 1160   0.884   0.538   1.564  0.5125 -0.2021 -0.0018
  291SOL     OW 1161   0.134   0.331   0.168 -0.0647  0.2833 -0.1768
  291SOL    HW1 1162   0.223   0.298   0.181  2.3788 -1.5314  0.3687
  291SOL    HW2 1163   0.116   0.279   0.092 -0.2334  2.3691 -1.2284
  291SOL     MW 1164   0.143   0.320   0.160  0.2355  0.3190 -0.2436
  292SOL     OW 1165   1.002   0.528   0.069  0.6764  0.1909 -0.2390
  292SOL    HW1 1166   1.044   0.579   0.144  2.7992 -1.5201  2.2928
  292SOL    HW2 1167   1.042   0.440   0.086  2.4916 -1.5609 -0.8282
  292SOL     MW 1168   1.013   0.524   0.081  1.1960 -0.2660  0.0173
  293SOL     OW 1169   0.225   0.147   2.463  0.0760  0.1187 -0.0796
  293SOL    HW1 1170   0.175   0.082   2.411 -1.1793  1.2989 -1.5390
  293SOL    HW2 1171   0.154   0.200   2.503  0.6503  0.9604 -1.1020
  293SOL     MW 1172   0.209   0.145   2.461 -0.0138  0.3855 -0.4071
  294SOL     OW 1173   1.519   0.624   2.388 -0.0432 -0.2031  0.0863
  294SOL    HW1 1174   1.529   0.684   2.457  0.4763 -0.7898 -2.4709
  294SOL    HW2 1175   1.495   0.537   2.427  3.1033  1.1914 -1.6938
  294SOL     MW 1176   1.517   0.621   2.402  0.4405 -0.0965 -0.4860
  295SOL     OW 1177   0.909   0.680   2.504 -0.2382 -0.2454 -0.7458
  295SOL    HW1 1178   0.883   0.625   2.435  3.2307  3.5903  1.7216
  295SOL    HW2 1179   0.828   0.688   2.553 -0.4354 -2.7699 -0.1483
  295SOL     MW 1180   0.895   0.674   2.501  0.1935 -0.0724 -0.3414
  296SOL     OW 1181   1.262   0.309   2.072 -0.8918 -0.1820 -0.0215
  296SOL    HW1 1182   1.337   0.242   2.046  0.9000  1.7697 -1.2750
  296SOL    HW2 1183   1.252   0.301   2.172  0.1305 -1.5098 -0.4455
  296SOL     MW 1184   1.271   0.299   2.081 -0.5205 -0.0997 -0.2428
  297SOL     OW 1185   1.471   0.393   1.609 -0.5649 -0.6596  0.0625
  297SOL    HW1 1186   1.500   0.471   1.657 -0.4931  0.2477  1.4602
  297SOL    HW2 1187   1.500   0.324   1.668 -1.1450  0.4342  3.1309
  297SOL     MW 1188   1.479   0.394   1.623 -0.6320 -0.3955  0.6518
  298SOL     OW 1189   1.603   0.889   2.041  1.2696  0.1703 -0.2263
  298SOL    HW1 1190   1.582   0.922   1.955 -0.3817  0.6522  0.8975
  298SOL    HW2 1191   1.684   0.928   2.073  1.7273  0.1309  0.3107
  298SOL     MW 1192   1.611   0.899   2.034  1.1121  0.2287 -0.0072
  299SOL     OW 1193   0.508   1.048   3.067 -0.0001  0.2273 -0.4258
  299SOL    HW1 1194   0.571   1.119   3.068 -1.2252  0.7397  1.6674
  299SOL    HW2 1195   0.478   1.054   2.979  2.4298  0.7728  1.2590
  299SOL     MW 1196   0.512   1.058   3.056  0.1588  0.3669  0.0727
  300SOL     OW 1197   1.237   1.184   2.501 -0.1733  0.1576  0.0239
  300SOL    HW1 1198   1.141   1.166   2.502 -0.6388  0.0651  0.8014
  300SOL    HW2 1199   1.247   1.232   2.577 -0.1869  0.7393 -3.8778
  300SOL     MW 1200   1.226   1.188   2.511 -0.2365  0.2222 -0.3883
  301SOL     OW 1201   1.382   0.875   0.574  0.5809  0.4909 -0.0304
  301SOL    HW1 1202   1.397   0.910   0.664  0.8725 -0.6525 -0.4126
  301SOL    HW2 1203   1.351   0.784   0.590 -0.7540  3.4269  1.2093
  301SOL     MW 1204   1.380   0.867   0.588  0.4433  0.7274  0.0827
  302SOL     OW 1205   0.073   1.493   2.020 -0.3137 -0.1210  0.6287
  302SOL    HW1 1206   0.103   1.427   2.078 -0.3902  0.0617 -0.8381
  302SOL    HW2 1207   0.055   1.568   2.072 -0.2900  1.3831  1.2470
  302SOL     MW 1208   0.075   1.494   2.034 -0.3207  0.1015  0.5167
  303SOL     OW 1209   0.377   1.688   2.541 -0.1027 -0.4218 -0.0817
  303SOL    HW1 1210   0.344   1.676   2.450  0.3424  0.9449 -0.0170
  303SOL    HW2 1211   0.317   1.756   2.568 -0.2040 -1.9218 -0.1766
  303SOL     MW 1212   0.365   1.696   2.533 -0.0574 -0.4394 -0.0857
  304SOL     OW 1213   0.655   2.048   2.400  0.4649 -0.4777 -0.1724
  304SOL    HW1 1214   0.686   2.136   2.385  0.4135  0.1214 -0.0598
  304SOL    HW2 1215   0.725   1.983   2.406 -1.0890  1.0339  3.2775
  304SOL     MW 1216   0.668   2.051   2.399  0.2531 -0.1992  0.2976
  305SOL     OW 1217   1.070   0.554   0.548  0.3224 -0.0853 -0.1751
  305SOL    HW1 1218   0.968   0.559   0.561 -2.1448  0.9607  0.3604
  305SOL    HW2 1219   1.094   0.463   0.558  1.2527  1.1690  0.2565
  305SOL     MW 1220   1.060   0.543   0.551  0.1196  0.2182 -0.0475
  306SOL     OW 1221   1.214   1.483   0.290  0.2662  0.0272  0.0548
  306SOL    HW1 1222   1.233   1.393   0.304 -2.5202  0.8724 -1.0100
  306SOL    HW2 1223   1.272   1.501   0.212 -1.2902  1.2409 -1.7812
  306SOL     MW 1224   1.224   1.473   0.282 -0.3068  0.2988 -0.3279
  307SOL     OW 1225   1.402   0.494   1.934  0.4024  0.2508  0.6030
  307SOL    HW1 1226   1.353   0.415   1.979  0.1092 -3.5509  1.0950
  307SOL    HW2 1227   1.476   0.516   1.992  0.2864 -0.5228  0.1627
  307SOL     MW 1228   1.405   0.486   1.948  0.3484 -0.3529  0.6099
  308SOL     OW 1229   2.136   0.634   2.669  0.4201 -0.0672  0.5460
  308SOL    HW1 1230   2.226   0.616   2.683 -2.0873  1.6638  0.0985
  308SOL    HW2 1231   2.129   0.726   2.710  0.6544 -1.3132  0.1269
  308SOL     MW 1232   2.147   0.644   2.676  0.1202 -0.0032  0.4317
  309SOL     OW 1233   0.494   0.373   0.388 -1.0039 -0.3143  0.2928
  309SOL    HW1 1234   0.561   0.320   0.431 -2.0675  0.4627 -0.6053
  309SOL    HW2 1235   0.466   0.321   0.311 -1.3225  0.5419  0.1260
  309SOL     MW 1236   0.499   0.359   0.384 -1.1863 -0.0988  0.1523
  310SOL     OW 1237   0.459   0.536   1.901 -0.1944  0.6197 -0.0517
  310SOL    HW1 1238   0.486   0.452   1.864 -2.0521 -1.7533 -0.0838
  310SOL    HW2 1239   0.512   0.608   1.868 -1.0852 -0.7969 -1.8589
  310SOL     MW 1240   0.470   0.535   1.892 -0.5570  0.1197 -0.2944
  311SOL     OW 1241   1.906   0.781   1.959 -0.2979 -0.3645  0.1636
  311SOL    HW1 1242   1.887   0.816   2.043  1.3379 -0.3644 -0.8039
  311SOL    HW2 1243   1.949   0.690   1.976  0.6268  0.6242  0.6715
  311SOL     MW 1244   1.909   0.773   1.973  0.0399 -0.2341  0.1029
  312SOL     OW 1245   1.681   2.491   0.063 -0.3726 -0.5256  0.1803
  312SOL    HW1 1246   1.746   2.538   0.120  0.5116  0.9760 -2.0084
  312SOL    HW2 1247   1.612   2.562   0.053 -1.5334 -0.0685 -0.4284
  312SOL     MW 1248   1.680   2.506   0.069 -0.4091 -0.2672 -0.1888
  313SOL     OW 1249   0.126   1.209   2.954 -0.2295  0.8774  0.2017
  313SOL    HW1 1250   0.134   1.165   3.042  0.8778  0.7695  1.2017
  313SOL    HW2 1251   0.221   1.244   2.936  1.2451  1.2407 -0.6109
  313SOL     MW 1252   0.140   1.207   2.963  0.1111  0.9111  0.2265
  314SOL     OW 1253   2.141   2.983   3.003  0.0273 -0.5539  0.1939
  314SOL    HW1 1254   2.079   3.032   2.949 -0.8974 -1.0037 -0.9335
  314SOL    HW2 1255   2.190   3.049   3.049 -3.6591 -0.9959 -0.3082
  314SOL     MW 1256   2.139   2.998   3.002 -0.5811 -0.6716 -0.0211
  315SOL     OW 1257   1.503   1.880   3.075  0.1245  0.2239  0.4392
  315SOL    HW1 1258   1.449   1.957   3.099 -3.2462  1.4452 -1.5819
  315SOL    HW2 1259   1.572   1.924   3.020 -1.8551 -1.6549  2.0428
  315SOL     MW 1260   1.505   1.896   3.071 -0.5814  0.1371  0.3841
  316SOL     OW 1261   1.247   0.605   2.698 -0.1742 -0.1553 -0.5390
  316SOL    HW1 1262   1.331   0.632   2.735 -1.1431  2.6493 -0.4100
  316SOL    HW2 1263   1.204   0.584   2.781  0.8452 -2.8303  2.2497
  316SOL     MW 1264   1.252   0.606   2.714 -0.1676 -0.1382 -0.1541
  317SOL     OW 1265   0.664   1.456   2.594  0.0736  0.3942  0.1412
  317SOL    HW1 1266   0.749   1.408   2.591 -1.0476 -1.4052 -1.1589
  317SOL    HW2 1267   0.673   1.514   2.508 -0.8623 -1.0168 -4.5010
  317SOL     MW 1268   0.676   1.457   2.582 -0.1978 -0.0294 -0.6428
  318SOL     OW 1269   1.360   0.392   2.923 -0.2432 -0.0362  0.1445
  318SOL    HW1 1270   1.284   0.447   2.916  1.7625  0.8802  2.9541
  318SOL    HW2 1271   1.433   0.443   2.884  0.1332  1.3608 -1.5684
  318SOL     MW 1272   1.359   0.406   2.917  0.0711  0.2690  0.2892
  319SOL     OW 1273   0.821   0.448   2.822 -0.5721 -0.6845  0.4185
  319SOL    HW1 1274   0.812   0.369   2.775 -0.2234  0.1392 -0.5705
  319SOL    HW2 1275   0.774   0.426   2.901  0.4733 -4.0712 -0.9717
  319SOL     MW 1276   0.814   0.435   2.826 -0.3882 -1.0227  0.1046
  320SOL     OW 1277   1.033   1.343   1.957 -0.0054  0.1702  0.2418
  320SOL    HW1 1278   1.096   1.300   2.013  0.7032 -0.2614  0.8821
  320SOL    HW2 1279   1.072   1.424   1.936 -2.0172 -0.6500 -0.7285
  320SOL     MW 1280   1.047   1.348   1.962 -0.1774  0.0050  0.1983
  321SOL     OW 1281   1.036   1.014   3.056  0.6739 -0.0690 -0.0203
  321SOL    HW1 1282   0.952   1.005   3.013  0.4332  2.9968  0.9772
  321SOL    HW2 1283   1.061   0.921   3.071 -0.1922 -0.4783  1.1805
  321SOL     MW 1284   1.028   1.001   3.052  0.5279  0.2815  0.2698
  322SOL     OW 1285   1.174   0.828   1.718 -0.0178 -0.0940 -0.4058
  322SOL    HW1 1286   1.259   0.785   1.734  2.3491  0.4139 -2.4298
  322SOL    HW2 1287   1.159   0.881   1.800 -0.2787 -0.0730  1.0273
  322SOL     MW 1288   1.183   0.829   1.731  0.2601 -0.0242 -0.4838
  323SOL     OW 1289   1.214   1.526   1.832  0.2352 -0.0755  0.4173
  323SOL    HW1 1290   1.205   1.439   1.790  0.8957  2.5436  0.2939
  323SOL    HW2 1291   1.152   1.577   1.783 -0.4236 -1.4141 -0.7889
  323SOL     MW 1292   1.205   1.522   1.820  0.2354  0.0935  0.2419
  324SOL     OW 1293   1.493   1.045   2.461 -0.8015 -0.7126 -0.1941
  324SOL    HW1 1294   1.396   1.062   2.482 -2.2812 -1.5720 -1.1249
  324SOL    HW2 1295   1.544   1.128   2.492 -0.9533 -2.1496 -1.5922
  324SOL     MW 1296   1.487   1.058   2.468 -1.0168 -1.0156 -0.5014
  325SOL     OW 1297   1.099   0.496   2.911  0.0634  0.5350  0.1020
  325SOL    HW1 1298   1.058   0.509   3.001  0.0907  0.4596  0.2094
  325SOL    HW2 1299   1.033   0.519   2.851  1.2350  1.8496 -0.8356
  325SOL     MW 1300   1.085   0.501   2.915  0.2216  0.6985 -0.0075
  326SOL     OW 1301   0.470   1.345   2.214 -0.2624  0.1567 -0.2624
  326SOL    HW1 1302   0.533   1.338   2.139  0.7317 -0.5144  0.5012
  326SOL    HW2 1303   0.472   1.436   2.241  1.0913 -0.5268  1.3715
  326SOL     MW 1304   0.478   1.356   2.207  0.0474 -0.0220  0.0539
  327SOL     OW 1305   1.866   0.895   2.472  0.6070 -0.1927 -0.1590
  327SOL    HW1 1306   1.848   0.802   2.514  0.4009  0.0380 -3.6623
  327SOL    HW2 1307   1.962   0.891   2.464  1.2144 -0.1948  0.9132
  327SOL     MW 1308   1.877   0.882   2.477  0.6600 -0.1625 -0.4797
  328SOL     OW 1309   0.212   1.303   2.233 -0.0267 -0.1276  0.2115
  328SOL    HW1 1310   0.172   1.229   2.178 -1.6242  0.5707 -1.9730
  328SOL    HW2 1311   0.310   1.312   2.225 -2.5721  1.5516  0.3590
  328SOL     MW 1312   0.220   1.294   2.225 -0.5733  0.1861 -0.0573
  329SOL     OW 1313   0.108   0.119   1.434  0.0528 -0.3729 -0.3049
  329SOL    HW1 1314   0.090   0.155   1.525 -0.0895  1.8226  2.8013
  329SOL    HW2 1315   0.178   0.177   1.388  0.8569  2.2092 -1.7997
  329SOL     MW 1316   0.115   0.131   1.440  0.1401  0.2575 -0.0923
  330SOL     OW 1317   0.339   3.029   2.078 -0.7312  0.3040  0.2118
  330SOL    HW1 1318   0.393   3.068   2.146  0.1301  5.0519  0.6992
  330SOL    HW2 1319   0.267   2.991   2.127  2.5434  2.2757 -0.7004
  330SOL     MW 1320   0.336   3.029   2.093 -0.1855  1.1906  0.1557
  331SOL     OW 1321   0.775   1.222   2.299  0.6056 -0.1586  0.1372
  331SOL    HW1 1322   0.757   1.270   2.220 -0.7537  4.0580  2.1593
  331SOL    HW2 1323   0.834   1.282   2.349 -0.4740 -2.3681 -0.1454
  331SOL     MW 1324   0.781   1.236   2.296  0.2838  0.1062  0.3667
  332SOL     OW 1325   1.329   1.682   2.974 -0.0034 -0.1970 -0.2400
  332SOL    HW1 1326   1.354   1.679   2.882  0.0952  0.6006 -0.6258
  332SOL    HW2 1327   1.371   1.769   3.008 -1.2418  2.4904  1.0614
  332SOL     MW 1328   1.338   1.693   2.966 -0.1538  0.2628 -0.1192
  333SOL     OW 1329   1.738   1.455   3.007  0.5198 -0.1609 -0.1928
  333SOL    HW1 1330   1.829   1.428   3.014 -0.8834 -1.3863 -1.2658
  333SOL    HW2 1331   1.688   1.460   3.093  2.1930  1.5757 -1.1289
  333SOL     MW 1332   1.743   1.452   3.019  0.5554 -0.0934 -0.4579
  334SOL     OW 1333   1.361   3.068   2.616  0.3923  0.4041 -0.2636
  334SOL    HW1 1334   1.271   3.073   2.646  1.9179 -3.6153  0.9031
  334SOL    HW2 1335   1.401   3.156   2.635  0.0148 -0.9790 -0.2783
  334SOL     MW 1336   1.354   3.081   2.623  0.5438 -0.3087 -0.1116
  335SOL     OW 1337   1.206   0.801   3.070 -0.1393  0.3026  0.3391
  335SOL    HW1 1338   1.267   0.784   3.143 -0.7184  0.2609 -0.7131
  335SOL    HW2 1339   1.271   0.808   3.003  2.5219 -0.8190  2.3895
  335SOL     MW 1340   1.223   0.800   3.071  0.1354  0.1491  0.4708
  336SOL     OW 1341   0.897   1.086   1.923  0.2698 -0.4019 -0.0006
  336SOL    HW1 1342   0.894   1.177   1.935  1.1362 -3.3809 -1.2226
  336SOL    HW2 1343   0.984   1.060   1.946 -1.3969 -1.9801 -0.5136
  336SOL     MW 1344   0.908   1.094   1.928  0.1642 -1.0032 -0.2295
  337SOL     OW 1345   0.526   1.759   2.781  0.5148 -0.9300 -0.2289
  337SOL    HW1 1346   0.508   1.741   2.690  2.1923  1.8829 -3.1248
  337SOL    HW2 1347   0.615   1.719   2.799  0.3939 -1.3985 -2.8936
  337SOL     MW 1348   0.535   1.751   2.771  0.7202 -0.6206 -0.9626
  338SOL     OW 1349   1.113   0.850   2.539  0.0787 -0.1266  0.1854
  338SOL    HW1 1350   1.058   0.773   2.516  0.2190  0.4006 -1.2347
  338SOL    HW2 1351   1.192   0.808   2.577 -1.0897  2.0334  2.1978
  338SOL     MW 1352   1.117   0.834   2.541 -0.0569  0.2279  0.2636
  339SOL     OW 1353   1.558   1.042   1.801 -0.2402  0.2964 -0.2028
  339SOL    HW1 1354   1.469   1.033   1.773 -0.6991  0.5379 -2.3010
  339SOL    HW2 1355   1.561   1.136   1.840 -2.2889  1.8075  1.4934
  339SOL     MW 1356   1.547   1.053   1.803 -0.5710  0.5276 -0.2558
  340SOL     OW 1357   1.386   1.502   0.087  0.7040 -0.0813 -0.0826
  340SOL    HW1 1358   1.376   1.554   0.008  0.0452 -2.0689  1.3668
  340SOL    HW2 1359   1.479   1.468   0.100  1.5461 -2.5600 -1.9671
  340SOL     MW 1360   1.397   1.504   0.078  0.7282 -0.6705 -0.1400
  341SOL     OW 1361   0.141   1.350   2.655 -0.1196 -0.0889 -0.1660
  341SOL    HW1 1362   0.234   1.369   2.639 -1.0162 -0.4638  0.5092
  341SOL    HW2 1363   0.089   1.327   2.578  1.1932  0.1529  0.2477
  341SOL     MW 1364   0.146   1.349   2.643 -0.0646 -0.1065 -0.0223
  342SOL     OW 1365   1.447   0.314   0.064 -0.1038  0.1690  0.3249
  342SOL    HW1 1366   1.467   0.391   0.122  2.4261 -0.5476 -0.5977
  342SOL    HW2 1367   1.419   0.345  -0.023 -1.1181 -1.0958  0.6413
  342SOL     MW 1368   1.446   0.328   0.060  0.0962 -0.0924  0.2449
  343SOL     OW 1369   0.225   0.300   2.236  0.0423  0.5539 -0.0903
  343SOL    HW1 1370   0.249   0.254   2.317 -1.6423  1.0580  3.4210
  343SOL    HW2 1371   0.149   0.254   2.197 -0.2373 -0.1419 -1.3453
  343SOL     MW 1372   0.218   0.288   2.242 -0.2169  0.5286  0.2074
  344SOL     OW 1373   1.679   2.064   0.237  0.1722 -0.0887 -0.3295
  344SOL    HW1 1374   1.687   2.123   0.163 -1.3046 -0.4066 -0.1471
  344SOL    HW2 1375   1.613   2.007   0.213 -1.2251  2.5639 -1.1132
  344SOL     MW 1376   1.671   2.064   0.224 -0.2070  0.2194 -0.4088
  345SOL     OW 1377   0.719   1.608   2.365 -0.2162  1.1790 -0.8666
  345SOL    HW1 1378   0.637   1.618   2.315 -1.6615 -1.3467 -3.1484
  345SOL    HW2 1379   0.784   1.572   2.294 -0.4880 -2.7499  0.5084
  345SOL     MW 1380   0.717   1.605   2.349 -0.4427  0.3274 -0.9862
  346SOL     OW 1381   1.728   1.147   0.033 -0.2726  0.1455  0.1427
  346SOL    HW1 1382   1.825   1.152   0.050  0.1318 -0.7803 -0.5709
  346SOL    HW2 1383   1.697   1.080   0.098  1.0912  0.9585  1.6250
  346SOL     MW 1384   1.737   1.139   0.044 -0.0393  0.1306  0.2441
  347SOL     OW 1385   1.256   0.724   2.306  0.5195  0.1838 -0.0948
  347SOL    HW1 1386   1.338   0.682   2.320 -1.2391  1.4851 -1.9108
  347SOL    HW2 1387   1.250   0.792   2.367 -0.3020 -0.1477 -1.9262
  347SOL     MW 1388   1.266   0.727   2.316  0.1791  0.3118 -0.5761
  348SOL     OW 1389   1.314   2.585   1.881  0.0853 -0.3217 -0.3572
  348SOL    HW1 1390   1.377   2.503   1.898  3.1163  2.0897 -2.1918
  348SOL    HW2 1391   1.367   2.661   1.915 -0.1658  1.5288 -1.3502
  348SOL     MW 1392   1.329   2.584   1.887  0.4521  0.2406 -0.7302
  349SOL     OW 1393   1.445   0.249   2.706 -0.3536 -0.1930  0.6060
  349SOL    HW1 1394   1.393   0.298   2.768 -0.6104 -0.7703  1.7773
  349SOL    HW2 1395   1.533   0.232   2.746  1.9721  1.9656 -0.1261
  349SOL     MW 1396   1.450   0.253   2.719 -0.0806  0.0157  0.6640
  350SOL     OW 1397   1.870   0.651   2.599 -0.2021 -0.2479  0.3385
  350SOL    HW1 1398   1.839   0.588   2.531 -0.4399 -2.0147 -1.2194
  350SOL    HW2 1399   1.954   0.603   2.620 -1.5430  0.1825  0.2347
  350SOL     MW 1400   1.877   0.637   2.593 -0.4104 -0.4242  0.1192
  351SOL     OW 1401   0.125   0.952   1.638  0.4734  0.3924 -0.0138
  351SOL    HW1 1402   0.049   0.998   1.678  0.7033  2.4140  0.4355
  351SOL    HW2 1403   0.184   1.025   1.615  0.4787  1.3711 -2.5999
  351SOL     MW 1404   0.123   0.968   1.640  0.5044  0.7882 -0.2957
  352SOL     OW 1405   0.778   1.641   2.768  0.5642  0.3457 -0.4739
  352SOL    HW1 1406   0.833   1.622   2.846  1.6929  1.7445  1.2313
  352SOL    HW2 1407   0.728   1.565   2.733 -0.5976  1.6881  0.9073
  352SOL     MW 1408   0.779   1.628   2.774  0.5598  0.7074 -0.0667
  353SOL     OW 1409   3.008   2.424   2.688 -0.1624 -0.0804 -0.5186
  353SOL    HW1 1410   3.105   2.411   2.687  2.0768 -0.0630  0.2376
  353SOL    HW2 1411   2.986   2.515   2.655 -3.7167 -1.2685 -1.1325
  353SOL     MW 1412   3.018   2.435   2.683 -0.3359 -0.2349 -0.4999
  354SOL     OW 1413   0.406   2.441   0.842 -0.6281  0.1073 -0.3198
  354SOL    HW1 1414   0.416   2.392   0.924 -0.6598  0.5491  1.8747
  354SOL    HW2 1415   0.338   2.408   0.787 -0.9260  1.0598  2.1991
  354SOL     MW 1416   0.398   2.430   0.845 -0.6716  0.2912  0.3021
  355SOL     OW 1417   0.041   2.179   0.413 -0.2725 -0.1578 -0.3094
  355SOL    HW1 1418  -0.055   2.149   0.397 -0.8777 -1.4223  0.9660
  355SOL    HW2 1419   0.011   2.229   0.489 -1.0086  3.2759 -1.2752
  355SOL     MW 1420   0.024   2.181   0.421 -0.4495  0.1284 -0.2686
  356SOL     OW 1421   0.831   2.897   1.036 -0.5439 -0.9211  0.4076
  356SOL    HW1 1422   0.874   2.884   0.948  1.2887  0.3275 -0.9503
  356SOL    HW2 1423   0.743   2.870   1.025  3.9248 -0.3532  0.6231
  356SOL     MW 1424   0.825   2.892   1.023  0.2875 -0.6815  0.2569
  357SOL     OW 1425   1.774   2.931   0.375  0.4256 -0.7627 -0.6688
  357SOL    HW1 1426   1.719   2.882   0.445  0.1087  2.5210  1.5073
  357SOL    HW2 1427   1.840   2.874   0.335  0.1926  2.5850 -2.4248
  357SOL     MW 1428   1.776   2.917   0.379  0.3530  0.1123 -0.6134
  358SOL     OW 1429   0.403   0.118   1.025 -0.5643 -0.0780 -0.5561
  358SOL    HW1 1430   0.497   0.121   1.045  0.5178  2.6027 -0.3432
  358SOL    HW2 1431   0.390   0.157   0.937 -2.0203 -1.2231 -0.7744
  358SOL     MW 1432   0.414   0.123   1.016 -0.6137  0.1246 -0.5568
  359SOL     OW 1433   0.945   2.886   1.823 -0.5072  0.2273 -0.8271
  359SOL    HW1 1434   0.934   2.800   1.882 -2.1478  0.3337 -1.0633
  359SOL    HW2 1435   0.987   2.867   1.742 -1.8726  0.1011  0.6453
  359SOL     MW 1436   0.949   2.872   1.820 -0.9038  0.2247 -0.6640
  360SOL     OW 1437   0.590   2.784   1.011  0.2125  0.4496  0.1747
  360SOL    HW1 1438   0.620   2.749   0.926  3.2176 -1.1536  0.6810
  360SOL    HW2 1439   0.561   2.714   1.072 -1.3055  0.4026  1.7908
  360SOL     MW 1440   0.590   2.770   1.008  0.4087  0.2318  0.4548
  361SOL     OW 1441   0.188   2.698   1.318  0.4565 -0.1959 -0.4616
  361SOL    HW1 1442   0.181   2.775   1.375 -0.4515  1.1421  1.4380
  361SOL    HW2 1443   0.279   2.689   1.325  0.0017  1.4234 -2.3785
  361SOL     MW 1444   0.199   2.707   1.326  0.2767  0.1943 -0.4639
  362SOL     OW 1445   1.476   2.429   0.613 -0.2695 -0.5027  0.7474
  362SOL    HW1 1446   1.488   2.341   0.656 -0.6218  1.9043 -1.7398
  362SOL    HW2 1447   1.509   2.499   0.672 -0.0085 -1.3818  0.5424
  362SOL     MW 1448   1.482   2.427   0.627 -0.2815 -0.3011  0.3922
  363SOL     OW 1449   0.297   3.028   0.726  0.1193  0.1651 -0.1719
  363SOL    HW1 1450   0.332   3.003   0.812  2.1656  1.6274  0.2563
  363SOL    HW2 1451   0.202   3.035   0.716 -0.7204 -0.6130 -2.2488
  363SOL     MW 1452   0.289   3.026   0.736  0.2785  0.2554 -0.3894
  364SOL     OW 1453   0.746   0.172   0.256  0.3435 -0.0961  0.0218
  364SOL    HW1 1454   0.712   0.088   0.279  0.7534  2.8803 -0.1800
  364SOL    HW2 1455   0.692   0.209   0.191  1.4718  2.0687 -1.9699
  364SOL     MW 1456   0.735   0.166   0.251  0.5465  0.5822 -0.2676
  365SOL     OW 1457   0.936   1.938   1.123  0.7937 -0.0483 -0.2763
  365SOL    HW1 1458   0.886   2.013   1.094 -1.7830 -0.3423  2.5433
  365SOL    HW2 1459   0.891   1.868   1.071 -0.0449  1.2629 -0.3804
  365SOL     MW 1460   0.923   1.938   1.112  0.3431  0.0859  0.0820
  366SOL     OW 1461   2.886   2.615   1.016 -0.3709  0.0142 -0.1414
  366SOL    HW1 1462   2.973   2.645   1.045 -3.1966  1.1926  1.0565
  366SOL    HW2 1463   2.900   2.621   0.914 -0.6212 -0.3150 -1.3814
  366SOL     MW 1464   2.900   2.620   1.006 -0.7767  0.1263 -0.1469
  367SOL     OW 1465   1.249   2.803   0.882 -0.5106  0.2962  0.2245
  367SOL    HW1 1466   1.168   2.846   0.876  1.5245 -2.7219  0.0358
  367SOL    HW2 1467   1.257   2.748   0.806  0.5252 -0.0739 -0.7714
  367SOL     MW 1468   1.240   2.801   0.871 -0.1054 -0.1509  0.0682
  368SOL     OW 1469   1.673   0.463   0.671  0.2986 -0.2783  0.6836
  368SOL    HW1 1470   1.742   0.398   0.635  1.6171 -0.1969  3.2307
  368SOL    HW2 1471   1.709   0.549   0.676 -0.1762 -0.6072  3.1105
  368SOL     MW 1472   1.687   0.466   0.667  0.4099 -0.3109  1.3399
  369SOL     OW 1473   0.152   2.457   1.708  0.0659  0.1950 -0.2545
  369SOL    HW1 1474   0.234   2.449   1.760  1.4537  0.4221  1.2927
  369SOL    HW2 1475   0.104   2.528   1.754 -2.0885 -1.6387  1.1938
  369SOL     MW 1476   0.157   2.465   1.721 -0.0353 -0.0170  0.1407
  370SOL     OW 1477   0.743   0.079   0.995  0.3747  0.0334 -0.1384
  370SOL    HW1 1478   0.791   0.158   1.011  2.0481 -3.0219  1.2860
  370SOL    HW2 1479   0.800   0.006   1.011  0.0576  0.4745  0.6528
  370SOL     MW 1480   0.757   0.079   0.999  0.5536 -0.3115  0.1539
  371SOL     OW 1481   1.327   2.978   1.504  0.4127 -0.5993  0.0201
  371SOL    HW1 1482   1.302   2.908   1.446  1.5425 -0.7639 -0.7180
  371SOL    HW2 1483   1.331   3.055   1.443  2.3719 -2.7653  1.4291
  371SOL     MW 1484   1.324   2.979   1.488  0.8202 -0.9068  0.1086
  372SOL     OW 1485   0.831   2.294   0.468 -0.0668  0.1154  0.0044
  372SOL    HW1 1486   0.802   2.200   0.469  1.3478  0.6569 -0.1631
  372SOL    HW2 1487   0.832   2.325   0.375  1.3627 -0.5028 -0.6300
  372SOL     MW 1488   0.827   2.286   0.456  0.3085  0.1052 -0.1014
  373SOL     OW 1489   2.809   2.997   1.394 -0.5582  0.2639 -0.0851
  373SOL    HW1 1490   2.883   2.957   1.344 -1.1329 -1.9973  0.3336
  373SOL    HW2 1491   2.810   3.085   1.348 -0.2079  1.0065  1.4080
  373SOL     MW 1492   2.819   3.004   1.382 -0.5878  0.0635  0.1672
  374SOL     OW 1493   1.526   0.508   0.252  0.1512  0.3745 -0.2128
  374SOL    HW1 1494   1.616   0.527   0.251 -2.1939 -1.5189  3.1844
  374SOL    HW2 1495   1.499   0.477   0.337  0.2885 -1.2886 -1.7937
  374SOL     MW 1496   1.535   0.506   0.263 -0.1401 -0.0948  0.0268
  375SOL     OW 1497   1.132   2.110   2.303  0.2651 -0.4220 -0.4534
  375SOL    HW1 1498   1.144   2.109   2.400 -0.3053  1.6318 -2.0791
  375SOL    HW2 1499   1.161   2.027   2.267 -0.5876  0.3611  0.0860
  375SOL     MW 1500   1.137   2.099   2.311  0.0773 -0.0477 -0.5968
  376SOL     OW 1501   0.699   2.494   0.050  0.5793 -0.4010 -0.2263
  376SOL    HW1 1502   0.750   2.441   0.108 -2.7576  1.7110  1.6163
  376SOL    HW2 1503   0.639   2.425   0.009 -0.9844 -2.9762  0.5162
  376SOL     MW 1504   0.698   2.478   0.053 -0.0673 -0.4621  0.1148
  377SOL     OW 1505   1.311   1.961   0.862  0.2429  0.3019 -0.0880
  377SOL    HW1 1506   1.230   1.968   0.808 -0.6734 -0.6100  1.3880
  377SOL    HW2 1507   1.278   1.936   0.949  0.6353  0.4214  0.0149
  377SOL     MW 1508   1.296   1.958   0.866  0.1737  0.1973  0.1203
  378SOL     OW 1509   1.053   2.809   1.561  0.2883  0.3685 -0.0234
  378SOL    HW1 1510   1.014   2.719   1.562 -1.0601  0.1962  2.9464
  378SOL    HW2 1511   0.985   2.853   1.503 -0.0621  0.7195 -0.3664
  378SOL     MW 1512   1.039   2.803   1.553  0.0641  0.3921  0.3232
  379SOL     OW 1513   1.117   1.806   2.260  0.3021  0.1835  0.1744
  379SOL    HW1 1514   1.018   1.802   2.278 -2.5966  1.1185  0.9982
  379SOL    HW2 1515   1.129   1.725   2.208  0.6031 -0.0335  0.1820
  379SOL     MW 1516   1.105   1.795   2.256 -0.0407  0.2782  0.2841
  380SOL     OW 1517   0.858   0.044   1.558 -0.6926 -0.7060 -0.0268
  380SOL    HW1 1518   0.877   0.048   1.466  3.4334 -0.3792  1.7578
  380SOL    HW2 1519   0.939   0.078   1.599  1.4515  0.8986  2.4217
  380SOL     MW 1520   0.871   0.049   1.551  0.1347 -0.4512  0.5317
  381SOL     OW 1521   0.792   1.960   0.779  0.2416  0.0001  0.1194
  381SOL    HW1 1522   0.889   1.975   0.774  0.5552  0.8567  0.7190
  381SOL    HW2 1523   0.767   2.005   0.857  1.5615  1.4612  1.4192
  381SOL     MW 1524   0.802   1.968   0.789  0.4571  0.3059  0.3700
  382SOL     OW 1525   0.720   0.068   0.723 -0.0981 -0.2306  0.1559
  382SOL    HW1 1526   0.722   0.099   0.816 -3.8482  1.8095  2.5151
  382SOL    HW2 1527   0.674  -0.021   0.725 -1.6999 -1.0609  0.0974
  382SOL     MW 1528   0.714   0.060   0.735 -0.8042 -0.0710  0.4595
  383SOL     OW 1529   0.456   0.043   0.362  0.5017  0.0341 -0.3614
  383SOL    HW1 1530   0.511   0.006   0.301 -0.7884 -0.8269  1.1779
  383SOL    HW2 1531   0.389  -0.021   0.388 -0.1731 -1.1024 -0.3852
  383SOL     MW 1532   0.455   0.029   0.358  0.2424 -0.2294 -0.1614
  384SOL     OW 1533   0.644   2.907   0.665  0.1524  0.0847  0.1810
  384SOL    HW1 1534   0.672   2.821   0.699 -0.1304 -4.1643  2.2648
  384SOL    HW2 1535   0.559   2.893   0.620  1.9097 -0.5365  1.0536
  384SOL     MW 1536   0.636   2.893   0.663  0.3469 -0.5579  0.5711
  385SOL     OW 1537   1.312   2.059   1.513  0.1254 -0.2060 -0.0517
  385SOL    HW1 1538   1.382   2.069   1.575  0.2880  0.5384 -1.1922
  385SOL    HW2 1539   1.256   1.980   1.545  0.7773  3.0329  1.0477
  385SOL     MW 1540   1.314   2.050   1.526  0.2329  0.3196 -0.0571
  386SOL     OW 1541   1.385   0.330   0.826  0.6380 -0.0755 -0.0202
  386SOL    HW1 1542   1.355   0.342   0.734 -2.1666  0.5031 -3.4522
  386SOL    HW2 1543   1.312   0.347   0.888  1.1722  4.2767  0.1497
  386SOL     MW 1544   1.371   0.334   0.822  0.3385  0.5751 -0.4506
  387SOL     OW 1545   0.819   2.208   1.461  0.0125  0.4385 -0.3217
  387SOL    HW1 1546   0.897   2.265   1.450  1.9334 -0.3420 -0.5427
  387SOL    HW2 1547   0.850   2.123   1.435 -0.9264 -0.6437 -0.3814
  387SOL     MW 1548   0.834   2.204   1.456  0.1421  0.1927 -0.3588
  388SOL     OW 1549   1.566   2.779   1.256 -0.0462  0.3504 -0.6814
  388SOL    HW1 1550   1.480   2.742   1.236  0.7149  0.0398 -0.6584
  388SOL    HW2 1551   1.628   2.717   1.209  0.8479 -1.6499  1.8155
  388SOL     MW 1552   1.563   2.766   1.247  0.1722  0.0455 -0.3489
  389SOL     OW 1553   0.365   0.040   3.056 -0.1261 -0.3163 -0.7686
  389SOL    HW1 1554   0.459   0.057   3.033  0.8449 -2.3639 -0.1176
  389SOL    HW2 1555   0.316   0.068   2.978  2.4400 -1.2821  2.4391
  389SOL     MW 1556   0.371   0.046   3.042  0.3405 -0.7139 -0.2595
  390SOL     OW 1557   1.286   0.013   0.607 -0.6605  0.1281 -0.3627
  390SOL    HW1 1558   1.372   0.050   0.591 -0.2194  2.3407  0.2197
  390SOL    HW2 1559   1.296   0.000   0.700  0.8941  3.1330  0.3081
  390SOL     MW 1560   1.298   0.016   0.617 -0.3972  0.8165 -0.1974
  391SOL     OW 1561   0.284   2.277   1.491 -0.1595 -0.1192 -0.9107
  391SOL    HW1 1562   0.226   2.204   1.511  0.6368 -0.3296 -0.8232
  391SOL    HW2 1563   0.220   2.347   1.462 -0.4968 -0.4923  0.6775
  391SOL     MW 1564   0.268   2.276   1.490 -0.0989 -0.1962 -0.6896
  392SOL     OW 1565   2.035   2.163   0.371  0.5681 -0.3678 -0.4271
  392SOL    HW1 1566   1.996   2.237   0.417  4.2569 -1.6088  1.9291
  392SOL    HW2 1567   2.110   2.135   0.426 -1.8394 -1.1519  0.2518
  392SOL     MW 1568   2.040   2.169   0.385  0.7371 -0.6350 -0.0266
  393SOL     OW 1569   0.221   2.997   2.806 -0.3893  0.0252 -0.1817
  393SOL    HW1 1570   0.281   3.072   2.821 -0.4973  0.5970  2.0198
  393SOL    HW2 1571   0.141   3.034   2.780 -1.5156  3.2873 -0.2316
  393SOL     MW 1572   0.219   3.012   2.804 -0.5522  0.5311  0.1022
  394SOL     OW 1573   0.878   1.689   1.483  0.2171  0.2707  0.1901
  394SOL    HW1 1574   0.837   1.714   1.568 -1.6946  1.7908  0.4207
  394SOL    HW2 1575   0.909   1.772   1.445  0.8085  2.2767  0.9502
  394SOL     MW 1576   0.877   1.703   1.489  0.0429  0.7359  0.3209
  395SOL     OW 1577   0.957   2.851   2.623 -0.5762 -0.0330  0.1108
  395SOL    HW1 1578   0.961   2.935   2.673  0.7903  1.4419  0.2716
  395SOL    HW2 1579   1.055   2.827   2.601  1.5711 -0.0434 -1.7452
  395SOL     MW 1580   0.970   2.859   2.627 -0.1126  0.1602 -0.1128
  396SOL     OW 1581   0.863   1.841   2.382  0.3893 -0.0061  0.1613
  396SOL    HW1 1582   0.886   1.853   2.478 -1.1203  0.4674  1.1364
  396SOL    HW2 1583   0.819   1.759   2.376  2.5311  0.4430  0.2775
  396SOL     MW 1584   0.861   1.832   2.394  0.4727  0.1156  0.3053
  397SOL     OW 1585   1.023   2.371   1.376  0.0507  0.3552 -0.1580
  397SOL    HW1 1586   1.039   2.376   1.281 -2.0242 -1.5330 -0.3202
  397SOL    HW2 1587   1.108   2.357   1.426  0.4041  2.6855  2.7370
  397SOL     MW 1588   1.036   2.370   1.370 -0.1764  0.4136  0.2025
  398SOL     OW 1589   0.657   2.654   0.788 -0.0689  0.8502 -0.2882
  398SOL    HW1 1590   0.574   2.601   0.766 -1.3588 -1.4051  1.8638
  398SOL    HW2 1591   0.734   2.617   0.736  0.1782  2.3847  0.5809
  398SOL     MW 1592   0.656   2.642   0.778 -0.2065  0.7551  0.1104
  399SOL     OW 1593   0.284   2.041   0.448  0.4005  0.8878  0.2681
  399SOL    HW1 1594   0.201   2.101   0.441 -3.8538 -1.1019  2.5175
  399SOL    HW2 1595   0.342   2.067   0.373 -0.3506  2.9467 -0.9260
  399SOL     MW 1596   0.281   2.053   0.437 -0.2599  0.8969  0.4074
  400SOL     OW 1597   0.553   1.832   0.192 -0.4956 -0.0691  0.4971
  400SOL    HW1 1598   0.527   1.920   0.215 -1.1915  1.8444  1.4529
  400SOL    HW2 1599   0.537   1.780   0.266  1.6060  1.2195 -2.5753
  400SOL     MW 1600   0.548   1.837   0.205 -0.3101  0.3534  0.2178
  401SOL     OW 1601   0.912   2.073   0.191  0.0698  0.2747 -0.3679
  401SOL    HW1 1602   0.917   1.980   0.163  0.6768 -3.5416  1.0332
  401SOL    HW2 1603   0.988   2.088   0.240  0.3805  1.1685 -1.9492
  401SOL     MW 1604   0.923   2.063   0.194  0.1909 -0.1109 -0.3917
  402SOL     OW 1605   0.691   2.980   1.672  0.3197  0.3821 -0.3139
  402SOL    HW1 1606   0.755   2.937   1.725 -0.8098 -0.9310  0.6474
  402SOL    HW2 1607   0.744   3.052   1.636  0.5378 -3.5707 -1.5743
  402SOL     MW 1608   0.706   2.984   1.674  0.1994 -0.3127 -0.3534
  403SOL     OW 1609   0.079   0.397   0.424 -0.0738  0.1440 -0.7876
  403SOL    HW1 1610   0.164   0.403   0.473 -2.4363 -3.1989  1.9945
  403SOL    HW2 1611   0.102   0.365   0.339 -0.0877 -0.3972 -0.4013
  403SOL     MW 1612   0.093   0.394   0.419 -0.3874 -0.3685 -0.3696
  404SOL     OW 1613   0.976   2.869   0.794 -0.1037 -0.0311 -0.0120
  404SOL    HW1 1614   1.031   2.809   0.746  0.1778  1.9846 -0.3924
  404SOL    HW2 1615   0.984   2.959   0.752 -0.6930  1.1641  0.7504
  404SOL     MW 1616   0.984   2.873   0.782 -0.1443  0.3925  0.0384
  405SOL     OW 1617   0.512   2.424   1.562  0.5805  0.1273 -0.6052
  405SOL    HW1 1618   0.503   2.501   1.511  0.8920 -0.1984  2.6622
  405SOL    HW2 1619   0.444   2.356   1.526 -1.9333 -3.3936 -0.9194
  405SOL     MW 1620   0.502   2.425   1.550  0.2900 -0.3802 -0.2156
  406SOL     OW 1621   0.380   2.330   1.100 -0.4644  0.5994  0.0563
  406SOL    HW1 1622   0.283   2.362   1.107 -4.2821 -1.9575  0.8877
  406SOL    HW2 1623   0.391   2.257   1.170  0.6505  0.3366 -0.8024
  406SOL     MW 1624   0.368   2.324   1.110 -0.8210  0.2274  0.0527
  407SOL     OW 1625   0.020   2.735   1.102  0.6395  0.3162  0.1193
  407SOL    HW1 1626   0.086   2.739   1.170  1.1362 -0.2011 -2.1043
  407SOL    HW2 1627   0.078   2.722   1.015  0.2270 -0.3577 -2.5798
  407SOL     MW 1628   0.036   2.734   1.100  0.6506  0.1590 -0.5302
  408SOL     OW 1629   2.086   2.053   0.676 -0.0527  0.1320  0.3773
  408SOL    HW1 1630   2.031   2.104   0.738 -0.0837  3.2994 -2.5687
  408SOL    HW2 1631   2.027   2.010   0.613 -2.4152 -2.2737 -1.4362
  408SOL     MW 1632   2.071   2.054   0.676 -0.3685  0.2325 -0.2507
  409SOL     OW 1633   1.385   0.054   0.906  0.2513 -0.5954 -0.1080
  409SOL    HW1 1634   1.410   0.149   0.907  0.2356 -0.6722  3.0959
  409SOL    HW2 1635   1.434   0.014   0.975 -2.2562 -0.9660  0.5926
  409SOL     MW 1636   1.395   0.061   0.915 -0.0816 -0.6544  0.4071
  410SOL     OW 1637   1.101   2.441   1.092 -0.1371 -0.1802 -0.6424
  410SOL    HW1 1638   1.019   2.461   1.052  1.9332  1.3834 -3.5488
  410SOL    HW2 1639   1.155   2.391   1.028 -1.5278  0.0872 -0.6677
  410SOL     MW 1640   1.097   2.437   1.079 -0.0474  0.0614 -1.0292
  411SOL     OW 1641   1.968   0.039   2.877  0.3178  0.0082 -0.2993
  411SOL    HW1 1642   1.899   0.022   2.803  2.9322 -2.9938 -0.0738
  411SOL    HW2 1643   1.918   0.058   2.953 -1.0908  2.1085 -1.2550
  411SOL     MW 1644   1.952   0.039   2.877  0.4769 -0.1108 -0.3957
  412SOL     OW 1645   1.062   2.224   0.588 -0.6240  0.5475 -0.2871
  412SOL    HW1 1646   1.123   2.289   0.624 -2.5846 -1.6341 -1.5200
  412SOL    HW2 1647   0.990   2.273   0.556  1.6879  1.7402 -1.0622
  412SOL     MW 1648   1.061   2.239   0.589 -0.5776  0.4170 -0.5520
  413SOL     OW 1649   0.532   2.769   0.061  0.1297  0.0104 -0.6016
  413SOL    HW1 1650   0.599   2.705   0.072 -0.5259  0.3082 -2.0243
  413SOL    HW2 1651   0.568   2.807  -0.018 -1.6915 -2.6744 -1.7729
  413SOL     MW 1652   0.545   2.766   0.052 -0.1971 -0.3045 -0.9438
  414SOL     OW 1653   1.935   2.996   1.065 -0.4983  0.0135 -0.0445
  414SOL    HW1 1654   1.897   2.979   0.980 -0.2422 -0.6932  1.7583
  414SOL    HW2 1655   2.009   2.931   1.069  0.1023  0.1868  0.6269
  414SOL     MW 1656   1.940   2.985   1.054 -0.3852 -0.0569  0.2819
  415SOL     OW 1657   1.718   2.609   1.118  0.4673 -1.1745  0.4952
  415SOL    HW1 1658   1.696   2.532   1.180 -0.0113 -1.0943 -0.0736
  415SOL    HW2 1659   1.804   2.643   1.159 -0.0572  0.5860  0.4467
  415SOL     MW 1660   1.727   2.603   1.131  0.3350 -0.9316  0.4138
  416SOL     OW 1661   0.587   1.917   1.342 -0.8140  0.1972  0.1150
  416SOL    HW1 1662   0.528   1.995   1.333  0.4316  2.2719 -1.6215
  416SOL    HW2 1663   0.573   1.870   1.261 -1.8451  1.1521 -0.2977
  416SOL     MW 1664   0.578   1.921   1.330 -0.7857  0.5969 -0.1686
  417SOL     OW 1665   0.992   3.025   2.034 -0.4985 -0.7222  0.0785
  417SOL    HW1 1666   0.911   3.004   2.088 -0.8743  3.3646  0.1771
  417SOL    HW2 1667   0.975   2.986   1.943  1.4798  0.2090 -1.5579
  417SOL     MW 1668   0.979   3.017   2.029 -0.2871 -0.0602 -0.1244
  418SOL     OW 1669   0.637   2.996   0.211  0.2602  0.2406 -0.4575
  418SOL    HW1 1670   0.706   2.987   0.138  1.0547 -3.0073  0.9453
  418SOL    HW2 1671   0.583   2.919   0.184  1.4934  2.4845 -0.8374
  418SOL     MW 1672   0.639   2.984   0.198  0.5278  0.1081 -0.3225
  419SOL     OW 1673   0.477   2.639   1.387  0.4289  0.0048 -0.0200
  419SOL    HW1 1674   0.504   2.735   1.398 -0.1533 -0.4838 -1.7062
  419SOL    HW2 1675   0.489   2.614   1.291 -1.0226 -1.5334  0.5094
  419SOL     MW 1676   0.482   2.648   1.376  0.1606 -0.2626 -0.1726
  420SOL     OW 1677   0.758   2.140   0.998  0.3464  0.2633 -0.1142
  420SOL    HW1 1678   0.734   2.165   1.091 -0.6061  0.0754 -1.2985
  420SOL    HW2 1679   0.765   2.227   0.955 -1.4137 -0.2692  0.4811
  420SOL     MW 1680   0.756   2.155   1.004 -0.0115  0.1682 -0.1919
  421SOL     OW 1681   2.944   0.087   0.039 -0.2807  0.2942  0.2777
  421SOL    HW1 1682   2.931   0.071  -0.056 -1.1323  0.4413 -0.2034
  421SOL    HW2 1683   2.926   0.003   0.079  1.3506 -1.4110  2.2664
  421SOL     MW 1684   2.940   0.074   0.032 -0.1779  0.0887  0.4766
  422SOL     OW 1685   0.833   2.446   0.993  0.3128 -0.7430 -0.4294
  422SOL    HW1 1686   0.765   2.512   1.014  2.5123  1.5251 -0.5614
  422SOL    HW2 1687   0.850   2.463   0.901 -0.8186  1.8922  1.0104
  422SOL     MW 1688   0.826   2.457   0.984  0.4537 -0.0960 -0.2569
  423SOL     OW 1689   1.512   0.141   0.516 -0.2637 -0.3194  0.1420
  423SOL    HW1 1690   1.528   0.113   0.422 -0.5556  1.9725 -0.3038
  423SOL    HW2 1691   1.492   0.232   0.514 -0.1057  1.4836 -0.4641
  423SOL     MW 1692   1.511   0.150   0.503 -0.2814  0.2209  0.0032
  424SOL     OW 1693   0.680   2.233   1.231 -0.3675 -0.1956 -0.3038
  424SOL    HW1 1694   0.601   2.195   1.253  0.3518 -1.4149  0.0161
  424SOL    HW2 1695   0.733   2.235   1.310 -1.2094 -1.7687 -1.2513
  424SOL     MW 1696   0.677   2.228   1.244 -0.3837 -0.5640 -0.3866
  425SOL     OW 1697   1.713   2.818   1.925 -0.2829 -0.0117  0.2443
  425SOL    HW1 1698   1.739   2.853   1.835  0.3974 -2.8516 -1.4876
  425SOL    HW2 1699   1.750   2.726   1.920  1.1269  1.5037 -0.2384
  425SOL     MW 1700   1.721   2.810   1.913 -0.0071 -0.1864 -0.0479
  426SOL     OW 1701   0.801   1.708   1.936 -0.7035  0.1470  0.0124
  426SOL    HW1 1702   0.748   1.708   1.859 -0.0711 -2.5618 -0.1046
  426SOL    HW2 1703   0.796   1.786   1.989  0.8190  0.2774 -0.8731
  426SOL     MW 1704   0.793   1.719   1.933 -0.4192 -0.1932 -0.1199
  427SOL     OW 1705   0.333   1.539   1.887  0.0471 -0.0413  0.1996
  427SOL    HW1 1706   0.396   1.480   1.935  1.4659 -2.8257 -1.0385
  427SOL    HW2 1707   0.272   1.561   1.956  3.5830 -0.9971 -0.2601
  427SOL     MW 1708   0.333   1.534   1.902  0.7008 -0.5348 -0.0244
  428SOL     OW 1709   0.537   2.543   1.133 -0.2517 -0.0378  0.3452
  428SOL    HW1 1710   0.617   2.511   1.180 -0.1873 -0.4867 -2.1285
  428SOL    HW2 1711   0.482   2.465   1.121 -0.2588  0.7033 -0.0115
  428SOL     MW 1712   0.540   2.528   1.138 -0.2442  0.0008 -0.0282
  429SOL     OW 1713   1.338   2.608   1.079 -0.3485 -0.0474 -0.3209
  429SOL    HW1 1714   1.262   2.547   1.088 -0.1302  0.9685 -0.5217
  429SOL    HW2 1715   1.292   2.688   1.038  0.6853  1.3015 -0.0323
  429SOL     MW 1716   1.322   2.610   1.075 -0.1833  0.2646 -0.3093
  430SOL     OW 1717   1.118   2.684   0.628  0.0246 -0.1247 -0.0631
  430SOL    HW1 1718   1.110   2.596   0.663  0.2505  1.6392  0.5906
  430SOL    HW2 1719   1.045   2.694   0.565  0.6235 -2.2273  0.6130
  430SOL     MW 1720   1.107   2.673   0.624  0.1334 -0.1694  0.1124
  431SOL     OW 1721   0.327   1.934   1.102 -0.5559 -0.3519 -0.0400
  431SOL    HW1 1722   0.396   1.871   1.072  1.5864 -0.5671 -1.7122
  431SOL    HW2 1723   0.296   1.986   1.026 -1.3188  1.3398 -1.3555
  431SOL     MW 1724   0.332   1.933   1.088 -0.3739 -0.1571 -0.4342
  432SOL     OW 1725   0.027   0.113   1.166 -0.1812  0.5201 -0.4290
  432SOL    HW1 1726   0.057   0.121   1.256  0.1572 -0.0030 -0.5260
  432SOL    HW2 1727  -0.025   0.024   1.166 -0.2046 -1.5597 -1.7938
  432SOL     MW 1728   0.024   0.102   1.178 -0.1396  0.1766 -0.6219
  433SOL     OW 1729   0.605   2.876   1.408 -0.0360 -0.4418  0.1865
  433SOL    HW1 1730   0.619   2.895   1.501 -0.2795 -1.6782 -1.1673
  433SOL    HW2 1731   0.697   2.872   1.382 -2.0062  2.7148  1.1409
  433SOL     MW 1732   0.619   2.878   1.417 -0.3281 -0.1884  0.1338
  434SOL     OW 1733   1.566   2.823   1.534 -0.2832  0.1620  0.0773
  434SOL    HW1 1734   1.484   2.881   1.534  0.9957  4.1378  2.0107
  434SOL    HW2 1735   1.576   2.814   1.440  1.0154  2.2677  2.6743
  434SOL     MW 1736   1.557   2.829   1.522  0.0569  0.9644  0.6750
  435SOL     OW 1737   2.848   1.775   0.167 -0.4166 -0.2107 -0.6587
  435SOL    HW1 1738   2.899   1.851   0.132 -2.1183  1.6535 -0.9292
  435SOL    HW2 1739   2.843   1.714   0.095 -1.4485 -1.4071 -0.3261
  435SOL     MW 1740   2.854   1.777   0.153 -0.7772 -0.1226 -0.6505
  436SOL     OW 1741   1.368   2.736   0.319 -0.8393 -0.2435 -0.3514
  436SOL    HW1 1742   1.437   2.739   0.385  1.3907 -2.2068 -3.0403
  436SOL    HW2 1743   1.306   2.809   0.351  0.3844 -0.2254  0.1753
  436SOL     MW 1744   1.369   2.746   0.332 -0.3836 -0.5002 -0.6367
  437SOL     OW 1745   0.870   2.894   1.373 -0.5094 -0.0073  0.1612
  437SOL    HW1 1746   0.869   2.984   1.336  0.3549  0.3914  0.4116
  437SOL    HW2 1747   0.920   2.849   1.307  1.2081 -0.0277  2.4898
  437SOL     MW 1748   0.877   2.900   1.359 -0.1687  0.0426  0.5015
  438SOL     OW 1749   0.923   2.644   1.945  0.0680 -0.0497 -0.2150
  438SOL    HW1 1750   0.863   2.605   2.015 -1.7548 -1.0997 -1.9422
  438SOL    HW2 1751   0.880   2.594   1.877  0.9709  0.8641 -1.2354
  438SOL     MW 1752   0.909   2.632   1.946 -0.0533 -0.0677 -0.5775
  439SOL     OW 1753   1.141   2.159   0.345 -0.1332 -0.7833  0.1693
  439SOL    HW1 1754   1.110   2.172   0.438 -0.4837  0.0951 -0.4584
  439SOL    HW2 1755   1.131   2.240   0.287  0.6604 -1.2788  0.7438
  439SOL     MW 1756   1.136   2.171   0.350 -0.0747 -0.7328  0.1623
  440SOL     OW 1757   1.594   2.900   3.026 -0.2127 -0.0984  0.0137
  440SOL    HW1 1758   1.546   2.902   3.107  1.5375 -0.2712 -0.4971
  440SOL    HW2 1759   1.659   2.835   3.040 -1.6428  1.8183 -0.5682
  440SOL     MW 1760   1.597   2.892   3.038 -0.1705  0.1317 -0.1305
  441SOL     OW 1761   0.329   2.577   0.535 -0.5743  0.3631  0.4812
  441SOL    HW1 1762   0.318   2.558   0.442  3.1300 -0.1351  0.0268
  441SOL    HW2 1763   0.351   2.669   0.537 -2.6518 -1.4113 -0.0866
  441SOL     MW 1764   0.331   2.587   0.523 -0.3597  0.0632  0.3463
  442SOL     OW 1765   3.053   2.294   0.637 -0.5336  0.4450  0.2729
  442SOL    HW1 1766   3.071   2.388   0.616  1.9291  0.6798  2.1805
  442SOL    HW2 1767   2.966   2.291   0.681 -1.3279  1.3941 -2.7611
  442SOL     MW 1768   3.044   2.306   0.640 -0.3134  0.6012  0.1243
  443SOL     OW 1769   1.384   1.768   1.839  0.7298  0.5208 -0.0820
  443SOL    HW1 1770   1.366   1.803   1.753  1.6555 -1.1572  2.7121
  443SOL    HW2 1771   1.337   1.686   1.827  0.2330  2.4302 -1.1631
  443SOL     MW 1772   1.375   1.762   1.826  0.7864  0.5513  0.1440
  444SOL     OW 1773   0.886   2.579   1.549  0.4069 -0.1185 -0.4128
  444SOL    HW1 1774   0.940   2.493   1.557  2.7590  1.6650  0.6437
  444SOL    HW2 1775   0.844   2.590   1.636  1.4366  0.4388  0.0596
  444SOL     MW 1776   0.887   2.569   1.562  0.8531  0.1903 -0.2111
  445SOL     OW 1777   0.964   0.076   1.269 -0.2911 -0.2540  0.3417
  445SOL    HW1 1778   0.949   0.169   1.288  1.8458  2.6658 -1.3577
  445SOL    HW2 1779   1.046   0.078   1.216 -0.3971 -1.9931 -3.6430
  445SOL     MW 1780   0.973   0.088   1.265 -0.0232 -0.0983 -0.4083
  446SOL     OW 1781   2.693   2.801   1.077 -0.2860 -0.2171  0.7480
  446SOL    HW1 1782   2.640   2.812   0.998  0.9312 -2.3440 -0.2096
  446SOL    HW2 1783   2.775   2.752   1.053  1.3359 -0.2559  0.7966
  446SOL     MW 1784   2.697   2.796   1.063  0.0886 -0.5028  0.6280
  447SOL     OW 1785   3.041   2.028   1.710  0.0914 -0.5503 -0.1107
  447SOL    HW1 1786   3.110   1.966   1.737 -0.7927  1.3805 -1.4713
  447SOL    HW2 1787   2.972   1.976   1.658 -2.3343  0.1192  2.0794
  447SOL     MW 1788   3.041   2.013   1.707 -0.3453 -0.2072 -0.0012
  448SOL     OW 1789   1.671   2.378   1.658 -0.1792  0.6756  0.3646
  448SOL    HW1 1790   1.609   2.306   1.669  1.6006  2.2700 -1.4337
  448SOL    HW2 1791   1.609   2.454   1.670  1.7336 -2.3057 -2.3343
  448SOL     MW 1792   1.655   2.379   1.661  0.3080  0.4926 -0.2287
  449SOL     OW 1793   0.789   2.953   0.433 -0.1700  0.1807 -0.5923
  449SOL    HW1 1794   0.736   2.949   0.351 -0.5667 -2.0822 -0.0947
  449SOL    HW2 1795   0.726   2.950   0.506  0.3178 -2.6670 -0.9381
  449SOL     MW 1796   0.774   2.952   0.432 -0.1580 -0.4936 -0.5723
  450SOL     OW 1797   1.216   2.419   0.708 -0.3039  0.3188  0.3224
  450SOL    HW1 1798   1.215   2.357   0.785 -0.4422 -2.4744 -1.2092
  450SOL    HW2 1799   1.303   2.436   0.664 -1.3245  3.0814  1.5321
  450SOL     MW 1800   1.228   2.413   0.712 -0.4568  0.3148  0.2800
  451SOL     OW 1801   0.588   2.027   1.656 -0.0140 -0.0529  0.0422
  451SOL    HW1 1802   0.651   2.106   1.655  0.7718 -2.1603 -2.6127
  451SOL    HW2 1803   0.572   1.997   1.566  1.1402 -1.3853  1.6388
  451SOL     MW 1804   0.594   2.034   1.644  0.2420 -0.5068 -0.0974
  452SOL     OW 1805   0.258   2.747   0.103 -0.0277  0.3573 -0.1431
  452SOL    HW1 1806   0.350   2.744   0.091  1.6555  1.3738  0.5794
  452SOL    HW2 1807   0.224   2.727   0.010 -1.5198  0.0115 -2.2353
  452SOL     MW 1808   0.266   2.744   0.089 -0.0025  0.4458 -0.3238
  453SOL     OW 1809   0.407   2.996   1.698  0.0214  0.4164 -0.4106
  453SOL    HW1 1810   0.505   3.021   1.714  0.9712  1.6534  1.6472
  453SOL    HW2 1811   0.387   3.008   1.607  0.2629 -0.6549  1.6910
  453SOL     MW 1812   0.417   3.001   1.688  0.1786  0.4382  0.1382
  454SOL     OW 1813   1.009   2.742   1.189 -0.5096 -1.3558  0.3026
  454SOL    HW1 1814   0.957   2.664   1.212 -0.2913 -0.9897 -2.9050
  454SOL    HW2 1815   0.958   2.795   1.129 -0.2199 -0.7844 -0.6830
  454SOL     MW 1816   0.996   2.738   1.184 -0.4426 -1.2321 -0.2507
  455SOL     OW 1817   1.526   2.951   0.204  0.0289 -0.1162  0.2300
  455SOL    HW1 1818   1.610   2.946   0.250 -0.1514  0.5009  0.6279
  455SOL    HW2 1819   1.466   2.908   0.269  0.0530  0.4479 -0.1516
  455SOL     MW 1820   1.529   2.945   0.219  0.0083  0.0397  0.2321
  456SOL     OW 1821   2.884   0.392   1.319 -0.0430  0.3506 -0.4035
  456SOL    HW1 1822   2.856   0.301   1.297 -2.2470 -3.4987  2.1252
  456SOL    HW2 1823   2.947   0.425   1.256 -1.8723 -0.5121 -0.9268
  456SOL     MW 1824   2.888   0.385   1.308 -0.5752 -0.2711 -0.1389
  457SOL     OW 1825   0.906   1.564   3.004  0.7236 -0.2571  0.3290
  457SOL    HW1 1826   0.831   1.549   3.062  1.9566  1.7781 -2.1964
  457SOL    HW2 1827   0.957   1.488   3.022 -1.7074 -1.9195  0.2706
  457SOL     MW 1828   0.903   1.552   3.014  0.5655 -0.2079 -0.0119
  458SOL     OW 1829   1.464   1.419   0.637 -0.4792  0.1507  0.0190
  458SOL    HW1 1830   1.382   1.455   0.679 -1.1914  0.1793  1.1059
  458SOL    HW2 1831   1.435   1.354   0.580  0.1890 -0.7239 -0.6985
  458SOL     MW 1832   1.450   1.415   0.635 -0.4850  0.0391  0.0677
  459SOL     OW 1833   1.581   0.137   0.232  0.0670 -0.5147 -0.4911
  459SOL    HW1 1834   1.546   0.055   0.195  1.6518 -2.0216  1.2634
  459SOL    HW2 1835   1.528   0.201   0.175 -1.2197 -0.4972  1.2168
  459SOL     MW 1836   1.569   0.135   0.220  0.1063 -0.7112 -0.0342
  460SOL     OW 1837   1.734   2.165   0.642  0.6843 -0.0429  0.1091
  460SOL    HW1 1838   1.645   2.146   0.692 -2.4782  3.1368  1.3110
  460SOL    HW2 1839   1.749   2.090   0.577 -0.9632  2.0875 -1.3262
  460SOL     MW 1840   1.724   2.152   0.640  0.0497  0.6577  0.0783
  461SOL     OW 1841   0.549   2.430   0.607 -0.0264 -0.3275 -0.1918
  461SOL    HW1 1842   0.467   2.479   0.592  0.9030  1.8237  2.1627
  461SOL    HW2 1843   0.527   2.390   0.696 -0.8174  0.0856 -1.0037
  461SOL     MW 1844   0.535   2.431   0.617 -0.0081  0.0108  0.0117
  462SOL     OW 1845   0.290   0.245   1.273  0.2950  0.0455  0.6431
  462SOL    HW1 1846   0.290   0.174   1.206 -0.4522 -3.4467 -2.5464
  462SOL    HW2 1847   0.380   0.260   1.288 -2.9297 -0.5911 -3.1594
  462SOL     MW 1848   0.302   0.238   1.266 -0.2291 -0.4993 -0.2794
  463SOL     OW 1849   0.986   0.016   0.697 -0.1538 -0.8875  0.2103
  463SOL    HW1 1850   1.017   0.007   0.606 -1.8507  0.5527 -0.4776
  463SOL    HW2 1851   0.890   0.025   0.695 -0.4122 -0.7545 -0.2558
  463SOL     MW 1852   0.978   0.016   0.684 -0.4118 -0.6799  0.0580
  464SOL     OW 1853   0.777   2.973   2.182  0.5103  0.5488  0.7608
  464SOL    HW1 1854   0.729   2.895   2.202  4.2414  3.5860 -0.3755
  464SOL    HW2 1855   0.810   3.014   2.266 -2.5087  4.7070  4.2831
  464SOL     MW 1856   0.775   2.968   2.196  0.6042  1.4982  1.0756
  465SOL     OW 1857   0.718   0.289   0.537 -0.2410  0.7051  0.1847
  465SOL    HW1 1858   0.713   0.254   0.624 -0.1429  1.6696 -1.1664
  465SOL    HW2 1859   0.740   0.207   0.493 -0.4752  0.2329  0.8103
  465SOL     MW 1860   0.720   0.274   0.542 -0.2589  0.7701  0.0890
  466SOL     OW 1861   1.064   1.982   0.728 -0.1223  0.2514  0.1689
  466SOL    HW1 1862   1.051   1.920   0.652 -1.1124 -1.6959  1.4271
  466SOL    HW2 1863   1.036   2.068   0.691 -1.0324 -0.0022  0.4881
  466SOL     MW 1864   1.058   1.985   0.713 -0.3730 -0.0390  0.3770
  467SOL     OW 1865   1.239   2.243   0.918 -0.0320 -0.4316 -0.7476
  467SOL    HW1 1866   1.335   2.242   0.937  2.1664  3.0723 -0.2383
  467SOL    HW2 1867   1.227   2.148   0.901  1.5327  0.8534  1.3049
  467SOL     MW 1868   1.250   2.231   0.918  0.4645  0.2003 -0.4096
  468SOL     OW 1869   0.349   2.586   2.007 -0.1933  0.3393  0.1246
  468SOL    HW1 1870   0.377   2.517   1.946 -2.6236 -1.4954 -0.9518
  468SOL    HW2 1871   0.399   2.670   1.980  1.1150 -2.5558  3.7489
  468SOL     MW 1872   0.360   2.588   1.996 -0.3414 -0.2848  0.4608
  469SOL     OW 1873   0.370   2.141   1.814 -0.3734 -0.5676 -0.2007
  469SOL    HW1 1874   0.304   2.078   1.796 -0.6209  0.7523  0.7214
  469SOL    HW2 1875   0.437   2.118   1.750 -0.8769  0.3252 -0.8653
  469SOL     MW 1876   0.370   2.130   1.803 -0.4725 -0.2757 -0.1667
  470SOL     OW 1877   3.027   2.567   0.141 -0.0111  0.3815 -0.1219
  470SOL    HW1 1878   2.957   2.508   0.172 -2.3424  1.4462 -2.6612
  470SOL    HW2 1879   3.022   2.578   0.045  0.5156 -0.5786 -1.5167
  470SOL     MW 1880   3.017   2.560   0.133 -0.2492  0.3953 -0.6410
  471SOL     OW 1881   1.258   2.735   1.393  0.3985 -0.1172  0.6659
  471SOL    HW1 1882   1.184   2.771   1.450  0.3812  2.2739  1.2234
  471SOL    HW2 1883   1.224   2.718   1.307 -2.2829  0.4876  2.6515
  471SOL     MW 1884   1.244   2.738   1.389  0.0425  0.2781  1.0014
  472SOL     OW 1885   2.897   2.094   0.340 -0.1812  0.1474  0.8978
  472SOL    HW1 1886   2.952   2.066   0.253 -0.3078 -0.5956 -1.6884
  472SOL    HW2 1887   2.890   2.002   0.382  1.2091 -2.2794  0.5153
  472SOL     MW 1888   2.904   2.078   0.334 -0.0145 -0.2708  0.5061
  473SOL     OW 1889   0.797   2.553   1.258  0.6884  0.1373  0.1815
  473SOL    HW1 1890   0.847   2.473   1.231 -0.5099  1.3924 -2.3860
  473SOL    HW2 1891   0.797   2.560   1.361 -3.1509  0.1287  1.4888
  473SOL     MW 1892   0.804   2.543   1.268  0.0238  0.3018  0.0152
  474SOL     OW 1893   0.761   2.244   1.720 -0.5144  0.1949  0.2441
  474SOL    HW1 1894   0.846   2.218   1.757  0.2262 -1.2550 -0.1141
  474SOL    HW2 1895   0.769   2.256   1.627  0.3604  1.5291 -0.2034
  474SOL     MW 1896   0.773   2.242   1.713 -0.3012  0.1797  0.1378
  475SOL     OW 1897   1.615   0.017   1.441 -0.2867  0.7211 -0.0272
  475SOL    HW1 1898   1.551   0.054   1.376 -0.1830 -0.7336  1.7016
  475SOL    HW2 1899   1.598  -0.075   1.451  2.2188  1.0785  0.6476
  475SOL     MW 1900   1.604   0.009   1.434  0.0576  0.5763  0.2899
  476SOL     OW 1901   1.487   2.618   0.821  0.3190  0.7039  0.3761
  476SOL    HW1 1902   1.464   2.598   0.908  0.1960  4.4509  1.0184
  476SOL    HW2 1903   1.517   2.709   0.816  0.4494  2.0454  1.9071
  476SOL     MW 1904   1.488   2.628   0.832  0.3200  1.3753  0.6628
  477SOL     OW 1905   0.853   2.490   0.687 -0.3767 -0.4981  0.3770
  477SOL    HW1 1906   0.871   2.558   0.620  2.1455  4.3453 -1.5261
  477SOL    HW2 1907   0.829   2.408   0.642  1.2929 -1.4464  0.1742
  477SOL     MW 1908   0.852   2.488   0.673  0.1763  0.0158  0.0992
  478SOL     OW 1909   0.223   2.654   0.907 -0.8038  0.0754  0.1769
  478SOL    HW1 1910   0.282   2.737   0.912 -0.4178  3.0002  0.8214
  478SOL    HW2 1911   0.298   2.595   0.898 -0.0944 -1.2044  0.1760
  478SOL     MW 1912   0.241   2.657   0.907 -0.6593  0.2925  0.2618
  479SOL     OW 1913   1.416   1.931   1.299  0.8257 -0.1651 -0.2361
  479SOL    HW1 1914   1.367   1.979   1.365  0.7088  2.0302  1.2902
  479SOL    HW2 1915   1.494   1.896   1.343  1.3509 -0.5505 -0.0902
  479SOL     MW 1916   1.420   1.933   1.313  0.8796  0.0737 -0.0155
  480SOL     OW 1917   1.845   2.393   1.314 -0.3578 -0.3275  0.4820
  480SOL    HW1 1918   1.856   2.308   1.354  0.8199  2.4674  1.4690
  480SOL    HW2 1919   1.906   2.391   1.238 -0.3450  1.2210  2.1399
  480SOL     MW 1920   1.854   2.381   1.309 -0.2007  0.2456  0.8310
  481SOL     OW 1921   1.183   0.118   1.115 -0.5506 -0.0928  0.5983
  481SOL    HW1 1922   1.235   0.071   1.046  1.2285 -0.6813 -1.0861
  481SOL    HW2 1923   1.193   0.209   1.090  2.3293 -1.1875 -1.5223
  481SOL     MW 1924   1.191   0.124   1.103  0.0641 -0.3149  0.0963
  482SOL     OW 1925   1.027   0.033   0.421 -0.9585 -0.0248 -0.6101
  482SOL    HW1 1926   0.939   0.003   0.403 -1.1500 -1.7436 -1.1481
  482SOL    HW2 1927   1.027   0.128   0.407 -0.8090  0.7435  0.0220
  482SOL     MW 1928   1.015   0.042   0.417 -0.9640 -0.1502 -0.5976
  483SOL     OW 1929   0.408   2.863   0.533  0.4177 -0.1045 -0.7783
  483SOL    HW1 1930   0.336   2.886   0.480 -1.2203 -0.9774 -0.3918
  483SOL    HW2 1931   0.366   2.892   0.615  2.5731  0.4170 -0.0978
  483SOL     MW 1932   0.393   2.870   0.537  0.4860 -0.1508 -0.6375
  484SOL     OW 1933   1.667   1.859   1.439 -0.1166  0.3980 -0.1376
  484SOL    HW1 1934   1.712   1.944   1.413  1.2129  2.5954 -1.8992
  484SOL    HW2 1935   1.666   1.855   1.535  1.0354 -0.1181 -0.4257
  484SOL     MW 1936   1.672   1.870   1.448  0.2108  0.6198 -0.4080
  485SOL     OW 1937   0.553   2.295   0.346  0.0284  0.2680 -0.4214
  485SOL    HW1 1938   0.632   2.345   0.383 -0.8612  3.7975  2.5676
  485SOL    HW2 1939   0.466   2.337   0.370  1.7274  1.8682  1.1173
  485SOL     MW 1940   0.552   2.307   0.354  0.1352  0.9448  0.1760
  486SOL     OW 1941   0.095   2.456   1.436 -0.1807 -0.4796  0.1850
  486SOL    HW1 1942   0.125   2.542   1.391  0.2493  0.2512  1.9101
  486SOL    HW2 1943   0.118   2.452   1.529  1.6137  0.9800 -1.1178
  486SOL     MW 1944   0.102   2.467   1.443  0.1128 -0.1906  0.2407
  487SOL     OW 1945   1.249   1.632   0.998 -0.2423  0.0566  0.6032
  487SOL    HW1 1946   1.235   1.717   1.047 -2.6512  1.4017  1.0261
  487SOL    HW2 1947   1.344   1.623   0.982  1.4594 -0.7808  0.9185
  487SOL     MW 1948   1.260   1.642   1.002 -0.3356  0.1236  0.7006
  488SOL     OW 1949   1.543   1.876   0.557  0.2871 -0.3612 -0.3299
  488SOL    HW1 1950   1.554   1.947   0.495  0.5393  0.3092 -1.1576
  488SOL    HW2 1951   1.454   1.843   0.540 -0.4627 -0.2234 -1.0864
  488SOL     MW 1952   1.533   1.881   0.546  0.2214 -0.2546 -0.5389
  489SOL     OW 1953   0.763   0.793   0.510 -0.0588  0.2511  0.3910
  489SOL    HW1 1954   0.774   0.702   0.502  1.4040  1.6483 -1.9300
  489SOL    HW2 1955   0.745   0.813   0.602  2.2089  0.3934  2.2941
  489SOL     MW 1956   0.762   0.784   0.521  0.4334  0.4543  0.3359
  490SOL     OW 1957   1.399   2.102   0.404 -0.4323  0.1589  0.1517
  490SOL    HW1 1958   1.453   2.181   0.388  0.2491  0.4302  1.9312
  490SOL    HW2 1959   1.310   2.127   0.375 -1.9043 -1.0365 -1.2388
  490SOL     MW 1960   1.394   2.115   0.398 -0.5366  0.0369  0.2030
  491SOL     OW 1961   1.233   2.956   0.396 -0.1769  0.3978  0.2890
  491SOL    HW1 1962   1.260   3.008   0.472 -1.8080 -0.2884  1.5882
  491SOL    HW2 1963   1.138   2.982   0.379 -2.0195 -1.6753  0.9826
  491SOL     MW 1964   1.224   2.966   0.404 -0.6352  0.0337  0.5520
  492SOL     OW 1965   1.472   2.146   0.695  0.1393  0.3629 -0.0127
  492SOL    HW1 1966   1.453   2.099   0.612 -0.4523 -0.9148 -1.3521
  492SOL    HW2 1967   1.447   2.074   0.755  0.1536 -0.7035 -0.4403
  492SOL     MW 1968   1.466   2.130   0.692  0.0631  0.0536 -0.2459
  493SOL     OW 1969   0.168   2.969   0.403 -0.1249 -0.6109  1.3028
  493SOL    HW1 1970   0.116   3.026   0.464  0.2287  0.3673  0.0019
  493SOL    HW2 1971   0.147   3.004   0.313 -0.8436  1.2229  0.4794
  493SOL     MW 1972   0.158   2.981   0.399 -0.1730 -0.2398  1.0225
  494SOL     OW 1973   0.395   2.402   1.804  0.5071 -0.1321 -0.4188
  494SOL    HW1 1974   0.404   2.300   1.813 -0.7837 -1.5015 -0.8289
  494SOL    HW2 1975   0.425   2.419   1.719  0.7275 -1.0353  0.2416
  494SOL     MW 1976   0.400   2.391   1.794  0.3659 -0.4320 -0.3858
  495SOL     OW 1977   2.908   1.653   2.720  0.0638  0.1542  0.2646
  495SOL    HW1 1978   2.878   1.725   2.768  0.7603 -0.4587 -0.4316
  495SOL    HW2 1979   2.901   1.582   2.785 -0.5292 -1.4931 -1.1367
  495SOL     MW 1980   2.903   1.653   2.735  0.0775 -0.1440 -0.0122
  496SOL     OW 1981   2.782   2.279   2.689  0.7096  0.5175 -0.4908
  496SOL    HW1 1982   2.793   2.200   2.744  2.0613  0.3002 -2.2878
  496SOL    HW2 1983   2.874   2.320   2.683  0.9754  3.1962  0.0921
  496SOL     MW 1984   2.796   2.274   2.696  0.9230  0.8422 -0.6510
  497SOL     OW 1985   1.495   2.317   2.512 -0.3849 -0.2983 -0.3255
  497SOL    HW1 1986   1.488   2.267   2.425 -0.3401 -0.7917 -1.9908
  497SOL    HW2 1987   1.468   2.253   2.578  1.2557 -3.6662  1.1469
  497SOL     MW 1988   1.490   2.302   2.510 -0.1626 -0.8077 -0.3509
  498SOL     OW 1989   1.560   2.769   2.262  0.5865 -0.7020 -0.5682
  498SOL    HW1 1990   1.581   2.675   2.239  0.9705 -1.3506  0.8803
  498SOL    HW2 1991   1.628   2.789   2.335  0.8837 -0.9881  0.7528
  498SOL     MW 1992   1.572   2.759   2.268  0.6764 -0.8253 -0.2028
  499SOL     OW 1993   0.915   0.147   0.019 -0.6428 -0.0511 -0.0744
  499SOL    HW1 1994   0.875   0.184   0.095  0.1606  0.1545  0.6154
  499SOL    HW2 1995   0.895   0.056   0.029  2.1683 -1.8009 -0.7720
  499SOL     MW 1996   0.907   0.140   0.030 -0.1659 -0.2549 -0.0755
  500SOL     OW 1997   1.032   2.469   2.761 -0.3383 -0.0767 -0.3807
  500SOL    HW1 1998   1.064   2.445   2.850  0.0557 -0.7379 -0.4964
  500SOL    HW2 1999   0.958   2.530   2.771  0.6058  0.3830 -0.0229
  500SOL     MW 2000   1.026   2.474   2.774 -0.1618 -0.1033 -0.3487
  501SOL     OW 2001   1.737   2.212   0.018 -0.0712  0.3750 -0.0915
  501SOL    HW1 2002   1.711   2.304   0.041 -0.7479 -0.2709 -0.2897
  501SOL    HW2 2003   1.830   2.205   0.049  0.1370 -0.3616 -0.8097
  501SOL     MW 2004   1.746   2.224   0.025 -0.1330  0.1926 -0.2124
  502SOL     OW 2005   0.174   2.753   2.954 -0.1984  0.9838 -0.8714
  502SOL    HW1 2006   0.083   2.757   2.930 -0.7542  1.3003 -0.2586
  502SOL    HW2 2007   0.215   2.833   2.926  0.1536 -0.4919 -2.5142
  502SOL     MW 2008   0.167   2.764   2.947 -0.2253  0.8308 -1.0073
  503SOL     OW 2009   1.152   2.607   2.094  0.2516 -0.1145  0.1154
  503SOL    HW1 2010   1.210   2.598   2.021 -0.2270  1.6717 -0.4030
  503SOL    HW2 2011   1.069   2.612   2.044  1.6696  0.5899 -3.5396
  503SOL     MW 2012   1.148   2.607   2.078  0.3755  0.2141 -0.4352
  504SOL     OW 2013   0.082   2.631   2.082  0.1086  0.3379 -0.2200
  504SOL    HW1 2014   0.173   2.634   2.055  1.5959 -2.7711 -0.2533
  504SOL    HW2 2015   0.071   2.536   2.104 -0.6705 -0.3368 -2.0620
  504SOL     MW 2016   0.092   2.618   2.081  0.2021 -0.1613 -0.4675
  505SOL     OW 2017   1.635   2.665   2.709 -0.0037  0.0792  0.3793
  505SOL    HW1 2018   1.675   2.682   2.617  1.3113  0.7618 -1.5323
  505SOL    HW2 2019   1.581   2.740   2.731  2.5514 -2.4819 -0.2101
  505SOL     MW 2020   1.633   2.677   2.700  0.5069 -0.1686  0.0493
  506SOL     OW 2021   1.599   0.031   2.848  0.1080 -0.2925  0.9492
  506SOL    HW1 2022   1.649   0.008   2.920 -1.5452 -0.1364  0.3169
  506SOL    HW2 2023   1.637  -0.006   2.770 -0.7610 -0.8525  0.5106
  506SOL     MW 2024   1.610   0.023   2.847 -0.2248 -0.3458  0.8079
  507SOL     OW 2025   0.882   2.684   2.852  0.0616 -0.4967  0.0152
  507SOL    HW1 2026   0.918   2.743   2.785  1.1018  0.4573 -0.4720
  507SOL    HW2 2027   0.796   2.664   2.812 -0.2577  3.0123  0.9006
  507SOL     MW 2028   0.875   2.689   2.838  0.1567  0.0922  0.0677
  508SOL     OW 2029   1.166   2.101   2.569  0.8642  0.5806 -0.2557
  508SOL    HW1 2030   1.230   2.100   2.634 -0.3123  0.5143 -3.4859
  508SOL    HW2 2031   1.078   2.127   2.612  0.3117 -1.8653  2.1842
  508SOL     MW 2032   1.163   2.104   2.583  0.6361  0.2492 -0.3599
  509SOL     OW 2033   0.591   2.573   2.826 -0.2303  0.2277 -0.2881
  509SOL    HW1 2034   0.584   2.532   2.738 -0.1497 -2.2941 -0.8283
  509SOL    HW2 2035   0.540   2.655   2.810  1.1821  2.0614 -0.3611
  509SOL     MW 2036   0.583   2.578   2.812 -0.0333  0.1369 -0.3690
  510SOL     OW 2037   1.496   2.593   1.678 -0.1699  0.0411 -0.0378
  510SOL    HW1 2038   1.513   2.691   1.651  1.2598  2.5788  0.3564
  510SOL    HW2 2039   1.413   2.594   1.727 -0.5834 -0.6382  1.7086
  510SOL     MW 2040   1.487   2.606   1.681 -0.0358  0.2863  0.2447
  511SOL     OW 2041   0.322   2.547   2.532 -0.1090  0.1043  0.2061
  511SOL    HW1 2042   0.417   2.537   2.564  0.9863  0.1528  1.2124
  511SOL    HW2 2043   0.341   2.555   2.437  2.2422  1.1469  1.5675
  511SOL     MW 2044   0.337   2.547   2.524  0.3458  0.2482  0.5185
  512SOL     OW 2045   1.028   2.013   2.870 -0.3603  0.2836  0.4539
  512SOL    HW1 2046   0.956   2.048   2.922 -1.4386  1.0873 -1.3618
  512SOL    HW2 2047   1.049   1.922   2.898 -2.8765  0.5942  0.9700
  512SOL     MW 2048   1.021   2.006   2.881 -0.8346  0.4306  0.2824
  513SOL     OW 2049   1.638   2.527   2.179  0.7823 -0.1887  0.5049
  513SOL    HW1 2050   1.725   2.550   2.124 -0.9802 -1.0100  0.1520
  513SOL    HW2 2051   1.669   2.480   2.255  2.8926  2.9004 -1.5851
  513SOL     MW 2052   1.654   2.524   2.182  0.8282  0.1105  0.1826
  514SOL     OW 2053   0.170   2.352   2.658  0.6819 -0.4978  0.1686
  514SOL    HW1 2054   0.234   2.422   2.625 -0.0958  0.4131 -2.3950
  514SOL    HW2 2055   0.215   2.301   2.723 -0.7799  0.0956  1.4557
  514SOL     MW 2056   0.184   2.355   2.663  0.3864 -0.2993  0.0002
  515SOL     OW 2057   1.072   1.951   1.864 -0.3702  1.6070  0.5809
  515SOL    HW1 2058   1.049   2.041   1.862  1.3774 -2.0595  1.8663
  515SOL    HW2 2059   1.147   1.949   1.930  1.8104 -2.6134  2.2334
  515SOL     MW 2060   1.079   1.962   1.872  0.1481  0.5664  0.9685
  516SOL     OW 2061   1.393   2.540   2.941  0.6862 -0.1401  0.3467
  516SOL    HW1 2062   1.388   2.539   2.844 -1.1083  0.8128 -1.0400
  516SOL    HW2 2063   1.303   2.507   2.964 -1.6657 -0.0402 -1.6489
  516SOL     MW 2064   1.381   2.536   2.931  0.1391 -0.0012 -0.0996
  517SOL     OW 2065   0.611   2.360   2.285  0.0644  0.1691  0.0653
  517SOL    HW1 2066   0.545   2.433   2.283 -0.5165 -0.4579 -2.3407
  517SOL    HW2 2067   0.573   2.295   2.230  0.3232  4.7600 -3.5573
  517SOL     MW 2068   0.597   2.361   2.277  0.0219  0.6921 -0.7301
  518SOL     OW 2069   1.782   0.024   3.071 -0.5290 -0.3274 -0.0241
  518SOL    HW1 2070   1.748   0.106   3.110  1.5750  0.1584 -1.8317
  518SOL    HW2 2071   1.747  -0.058   3.106 -0.1618 -0.2089 -2.0440
  518SOL     MW 2072   1.773   0.024   3.081 -0.2029 -0.2477 -0.5291
  519SOL     OW 2073   0.727   2.513   1.775 -0.4500  0.5622 -0.1900
  519SOL    HW1 2074   0.739   2.418   1.762  0.5454 -2.0357 -2.2672
  519SOL    HW2 2075   0.631   2.524   1.785 -0.2645  0.3399 -1.4688
  519SOL     MW 2076   0.716   2.502   1.774 -0.2942  0.1901 -0.6328
  520SOL     OW 2077   1.217   2.199   2.945 -0.0489  0.2376  0.1639
  520SOL    HW1 2078   1.158   2.124   2.909  1.5025 -1.3334 -1.0326
  520SOL    HW2 2079   1.259   2.151   3.020  0.5302 -0.0466 -1.1384
  520SOL     MW 2080   1.215   2.183   2.950  0.2322 -0.0072 -0.1658
  521SOL     OW 2081   1.770   2.065   2.208 -0.1750 -0.7205 -0.2509
  521SOL    HW1 2082   1.760   2.073   2.112 -1.2436  0.7993  0.4861
  521SOL    HW2 2083   1.791   1.969   2.216  0.7661  1.1209 -1.6514
  521SOL     MW 2084   1.772   2.054   2.196 -0.1918 -0.2771 -0.3385
  522SOL     OW 2085   2.899   2.527   2.265  0.2887 -0.2586  0.4883
  522SOL    HW1 2086   2.984   2.489   2.300 -0.8270  0.7132 -0.4895
  522SOL    HW2 2087   2.920   2.617   2.232 -0.5338 -1.9492  0.7112
  522SOL     MW 2088   2.913   2.534   2.265  0.0330 -0.3535  0.3887
  523SOL     OW 2089   0.871   1.510   2.148  0.8236 -0.2451 -0.1313
  523SOL    HW1 2090   0.847   1.572   2.080  1.0301  1.3741 -0.9043
  523SOL    HW2 2091   0.919   1.437   2.107 -1.9301 -1.6180  1.1418
  523SOL     MW 2092   0.874   1.508   2.134  0.4875 -0.2126 -0.0653
  524SOL     OW 2093   0.581   2.336   2.969  0.0736 -0.1313 -0.5314
  524SOL    HW1 2094   0.587   2.424   2.931 -2.7410  1.4142  0.1481
  524SOL    HW2 2095   0.657   2.277   2.944  1.1344  2.3538  2.4259
  524SOL     MW 2096   0.592   2.340   2.961 -0.1578  0.4005 -0.0516
  525SOL     OW 2097   0.481   2.195   2.126 -0.0435 -0.4194 -0.4616
  525SOL    HW1 2098   0.445   2.117   2.156  0.5450 -1.2724  0.2587
  525SOL    HW2 2099   0.544   2.172   2.052 -0.9681 -2.1689  2.1060
  525SOL     MW 2100   0.485   2.182   2.121 -0.0878 -0.7628 -0.0278
  526SOL     OW 2101   0.687   2.148   1.971 -0.0705 -0.0711 -0.0667
  526SOL    HW1 2102   0.704   2.180   1.887 -2.4747 -1.0715 -1.3741
  526SOL    HW2 2103   0.762   2.170   2.033 -2.6923 -0.8247 -1.8059
  526SOL     MW 2104   0.699   2.155   1.968 -0.7336 -0.3025 -0.4687
  527SOL     OW 2105   1.296   1.924   2.056  0.3047  0.6113  0.0238
  527SOL    HW1 2106   1.271   1.881   2.134  1.6986 -0.0508 -1.5275
  527SOL    HW2 2107   1.334   1.856   2.007  1.1540  2.9320 -0.2596
  527SOL     MW 2108   1.297   1.909   2.059  0.6007  0.8302 -0.2183
  528SOL     OW 2109   0.658   2.913   2.922 -0.4191  0.0367 -0.1904
  528SOL    HW1 2110   0.645   3.005   2.946 -1.1609 -0.8764  2.9566
  528SOL    HW2 2111   0.663   2.908   2.825  2.5354 -0.4064 -2.0011
  528SOL     MW 2112   0.657   2.924   2.912 -0.1272 -0.1423 -0.0141
  529SOL     OW 2113   0.996   2.227   1.880 -0.5222  0.2315  1.0693
  529SOL    HW1 2114   1.020   2.250   1.971  0.5191 -2.0375  0.6038
  529SOL    HW2 2115   1.024   2.302   1.825  1.5183 -2.3059  0.2998
  529SOL     MW 2116   1.003   2.240   1.884 -0.1156 -0.4026  0.9064
  530SOL     OW 2117   1.120   2.433   3.023  0.0300  0.3377  0.7269
  530SOL    HW1 2118   1.152   2.433   3.108  0.8582  1.2445  0.9408
  530SOL    HW2 2119   1.127   2.339   2.995 -0.8538  0.9522  3.2170
  530SOL     MW 2120   1.125   2.421   3.031  0.0227  0.5384  1.0836
  531SOL     OW 2121   0.907   1.859   2.646 -0.2691  0.4145 -0.5071
  531SOL    HW1 2122   0.925   1.923   2.713 -2.2408 -2.7837  2.4154
  531SOL    HW2 2123   0.851   1.801   2.694 -2.2259 -0.6926  0.0788
  531SOL     MW 2124   0.902   1.860   2.661 -0.7874 -0.1536 -0.0442
  532SOL     OW 2125   1.698   0.283   2.834  0.1529  0.1605 -0.4386
  532SOL    HW1 2126   1.688   0.184   2.852 -1.0295  0.4307  0.8794
  532SOL    HW2 2127   1.785   0.311   2.864  0.3469 -0.4693  1.3113
  532SOL     MW 2128   1.708   0.274   2.840  0.0225  0.1131 -0.0338
  533SOL     OW 2129   1.765   2.691   2.974  0.1387 -0.8139  0.0202
  533SOL    HW1 2130   1.748   2.609   3.025 -1.0080 -3.5681  0.4097
  533SOL    HW2 2131   1.727   2.659   2.888 -0.5090  2.1603 -2.2620
  533SOL     MW 2132   1.758   2.676   2.969 -0.0980 -0.7849 -0.2295
  534SOL     OW 2133   1.725   2.459   2.430 -0.0048  0.0412  0.0595
  534SOL    HW1 2134   1.652   2.419   2.471  1.1856 -0.7296 -0.5158
  534SOL    HW2 2135   1.805   2.453   2.487 -0.1954 -0.2033 -2.5219
  534SOL     MW 2136   1.726   2.453   2.443  0.1271 -0.0927 -0.3570
  535SOL     OW 2137   1.849   2.326   1.921 -0.1700 -0.0665 -0.1163
  535SOL    HW1 2138   1.780   2.337   1.856  1.2170 -1.5914  1.6889
  535SOL    HW2 2139   1.922   2.379   1.884  0.3529  0.6854 -0.6472
  535SOL     MW 2140   1.849   2.335   1.908  0.0820 -0.1685  0.0518
  536SOL     OW 2141   0.455   1.804   2.018 -0.1206 -0.9220 -0.1539
  536SOL    HW1 2142   0.444   1.746   1.942 -2.2074 -1.6659 -1.6979
  536SOL    HW2 2143   0.543   1.846   2.017  0.0428  1.7206  0.6562
  536SOL     MW 2144   0.465   1.802   2.008 -0.3744 -0.6715 -0.2507
  537SOL     OW 2145   1.072   0.213   2.909  0.1267 -0.3474 -0.4356
  537SOL    HW1 2146   1.002   0.185   2.972  2.1603 -3.2047 -1.2696
  537SOL    HW2 2147   1.064   0.312   2.902 -1.5758  2.7078 -1.9813
  537SOL     MW 2148   1.062   0.222   2.916  0.1704 -0.3213 -0.7496
  538SOL     OW 2149   1.296   0.031   2.975  0.2374 -0.4855  0.0765
  538SOL    HW1 2150   1.238   0.103   2.939  1.7927 -1.0610 -0.7722
  538SOL    HW2 2151   1.370   0.025   2.920 -0.1782 -0.9723  0.3894
  538SOL     MW 2152   1.298   0.040   2.963  0.3877 -0.6257  0.0058
  539SOL     OW 2153   0.758   2.680   2.497  0.3060  0.4394 -0.3711
  539SOL    HW1 2154   0.832   2.722   2.532  0.2863  1.4563 -0.9815
  539SOL    HW2 2155   0.793   2.594   2.494  0.7749  3.3624  0.6886
  539SOL     MW 2156   0.773   2.674   2.501  0.3653  0.9592 -0.3118
  540SOL     OW 2157   0.332   2.267   2.868  0.1757 -0.0256 -0.5088
  540SOL    HW1 2158   0.420   2.290   2.889 -0.8308  2.1190  2.9340
  540SOL    HW2 2159   0.313   2.244   2.957 -0.1941  1.7167  0.7836
  540SOL     MW 2160   0.341   2.267   2.882 -0.0059  0.4872  0.1160
  541SOL     OW 2161   0.160   2.866   2.217  0.3385  0.2550 -0.0044
  541SOL    HW1 2162   0.119   2.785   2.184 -0.7559  0.8472 -1.5626
  541SOL    HW2 2163   0.206   2.839   2.300  0.3271 -0.4880  0.5698
  541SOL     MW 2164   0.160   2.852   2.223  0.1926  0.2351 -0.1343
  542SOL     OW 2165   0.944   2.234   2.670  0.2431 -0.5214 -0.2139
  542SOL    HW1 2166   0.898   2.204   2.754  0.8764 -0.3958 -1.1946
  542SOL    HW2 2167   0.988   2.317   2.697  2.3108 -0.2196  1.0113
  542SOL     MW 2168   0.944   2.241   2.685  0.5995 -0.4650 -0.1817
  543SOL     OW 2169   1.398   2.536   2.663  0.8536 -0.5362  0.2646
  543SOL    HW1 2170   1.411   2.457   2.608  0.3483  1.3770 -0.6567
  543SOL    HW2 2171   1.488   2.563   2.685  1.0898 -0.5027  3.3061
  543SOL     MW 2172   1.411   2.529   2.659  0.8181 -0.2793  0.5444
  544SOL     OW 2173   0.600   0.212   2.725 -0.3550  0.4325 -0.1260
  544SOL    HW1 2174   0.501   0.193   2.716 -4.6923  0.6229  1.8762
  544SOL    HW2 2175   0.644   0.173   2.652 -1.8839 -0.7037  0.3790
  544SOL     MW 2176   0.593   0.204   2.714 -1.1290  0.3077  0.2048
  545SOL     OW 2177   1.516   2.137   2.297 -0.6563 -0.2246 -0.4966
  545SOL    HW1 2178   1.497   2.181   2.217  1.7295  1.2881 -0.5866
  545SOL    HW2 2179   1.609   2.114   2.283 -0.2189  2.0851 -3.0122
  545SOL     MW 2180   1.526   2.140   2.285 -0.2838  0.2798 -0.8404
  546SOL     OW 2181   2.999   1.997   0.108 -0.3469  0.2087 -0.3212
  546SOL    HW1 2182   3.006   2.066   0.046  2.2085 -1.1107  1.4139
  546SOL    HW2 2183   3.087   1.962   0.114 -1.5740  0.2984  0.4960
  546SOL     MW 2184   3.011   2.001   0.100 -0.1716  0.0464  0.0155
  547SOL     OW 2185   0.198   3.001   0.115  0.1044 -0.3851  0.0807
  547SOL    HW1 2186   0.246   3.052   0.047 -0.7313  0.4663 -3.1929
  547SOL    HW2 2187   0.220   2.906   0.100  3.3269 -0.9898 -0.6552
  547SOL     MW 2188   0.207   2.995   0.104  0.4193 -0.3526 -0.4483
  548SOL     OW 2189   0.320   2.534   0.257  0.3068  0.2994 -0.3878
  548SOL    HW1 2190   0.288   2.596   0.189 -2.6387  0.9474  1.2396
  548SOL    HW2 2191   0.254   2.460   0.246  1.3431  0.9382  0.1734
  548SOL     MW 2192   0.307   2.532   0.247  0.0549  0.4692 -0.0990
  549SOL     OW 2193   0.703   1.908   2.069  0.3158  0.1308 -0.4834
  549SOL    HW1 2194   0.705   1.988   2.020  0.6350 -0.6762  1.6206
  549SOL    HW2 2195   0.738   1.942   2.153  0.8530 -0.6375  2.1891
  549SOL     MW 2196   0.708   1.923   2.074  0.4288 -0.0771  0.1468
  550SOL     OW 2197   1.837   1.757   2.567  0.3610  0.2398 -0.6308
  550SOL    HW1 2198   1.867   1.789   2.481  0.0930 -1.4088  0.2956
  550SOL    HW2 2199   1.835   1.833   2.631  1.2653  0.7218 -1.3160
  550SOL     MW 2200   1.840   1.771   2.564  0.4449  0.0859 -0.5990
  551SOL     OW 2201   0.867   2.350   0.205  0.1236  0.0101 -0.3149
  551SOL    HW1 2202   0.955   2.390   0.177  0.9139  1.6436  1.3595
  551SOL    HW2 2203   0.879   2.253   0.210  0.3577 -1.1785  1.0098
  551SOL     MW 2204   0.881   2.342   0.202  0.2587  0.0688  0.0808
  552SOL     OW 2205   1.777   1.812   2.282  0.3906 -0.3442 -0.2030
  552SOL    HW1 2206   1.680   1.810   2.286 -1.2763  0.5546  1.0506
  552SOL    HW2 2207   1.808   1.766   2.197 -0.7583  2.4910  2.7841
  552SOL     MW 2208   1.768   1.806   2.272  0.0191  0.1484  0.3565
  553SOL     OW 2209   1.254   2.324   1.528  0.1682  0.2750  0.1780
  553SOL    HW1 2210   1.289   2.237   1.512 -0.1421  3.1695  0.5675
  553SOL    HW2 2211   1.318   2.386   1.493  1.6406 -2.2321 -1.1415
  553SOL     MW 2212   1.267   2.321   1.521  0.3215  0.3261  0.0553
  554SOL     OW 2213   0.581   2.859   2.658  0.3147  0.0749  0.1838
  554SOL    HW1 2214   0.516   2.919   2.623 -0.6245  1.6552 -1.0558
  554SOL    HW2 2215   0.626   2.820   2.581  2.4058 -1.6893 -1.6439
  554SOL     MW 2216   0.579   2.862   2.643  0.4667  0.0506 -0.2209
  555SOL     OW 2217   0.574   2.446   2.587  0.1159  0.0063  0.0572
  555SOL    HW1 2218   0.573   2.356   2.619 -1.5389  3.7386  3.8214
  555SOL    HW2 2219   0.649   2.458   2.519 -1.3300  2.5377  0.0429
  555SOL     MW 2220   0.584   2.436   2.582 -0.2932  0.8327  0.5520
  556SOL     OW 2221   0.966   1.802   0.164 -0.4250 -0.1518  0.1582
  556SOL    HW1 2222   0.992   1.796   0.072 -0.1542 -3.5346  0.6291
  556SOL    HW2 2223   1.056   1.805   0.204 -0.1244 -0.4931 -0.6940
  556SOL     MW 2224   0.981   1.801   0.158 -0.3496 -0.6432  0.1079
  557SOL     OW 2225   0.889   2.710   0.470 -0.1448  0.3050  0.8307
  557SOL    HW1 2226   0.941   2.675   0.396  0.7089  0.6156 -0.4705
  557SOL    HW2 2227   0.851   2.791   0.448  1.2375 -2.5778 -1.5969
  557SOL     MW 2228   0.891   2.716   0.457  0.1502 -0.0344  0.3387
  558SOL     OW 2229   0.265   2.173   0.053 -0.0608 -0.0737  0.4036
  558SOL    HW1 2230   0.216   2.088   0.080  2.0227 -0.9692  0.9710
  558SOL    HW2 2231   0.236   2.255   0.095 -0.7611 -0.1208  0.8928
  558SOL     MW 2232   0.254   2.173   0.062  0.1217 -0.1981  0.5430
  559SOL     OW 2233   1.182   2.309   2.120 -0.4469 -0.4941 -0.0469
  559SOL    HW1 2234   1.204   2.400   2.141  1.2513  0.9128  2.7642
  559SOL    HW2 2235   1.189   2.256   2.196  0.1770  0.1052  1.4478
  559SOL     MW 2236   1.185   2.314   2.133 -0.1405 -0.2294  0.5212
  560SOL     OW 2237   1.978   2.792   0.043 -0.3824  0.2454 -0.3873
  560SOL    HW1 2238   2.024   2.847  -0.012 -0.3709 -0.8927 -0.3880
  560SOL    HW2 2239   1.896   2.769  -0.001  0.3793  0.4215 -1.1768
  560SOL     MW 2240   1.973   2.796   0.030 -0.2804  0.1185 -0.4916
  561SOL     OW 2241   0.446   2.081   0.228  0.1470 -0.6536  0.2185
  561SOL    HW1 2242   0.405   2.126   0.151 -0.7807  1.1831 -2.2622
  561SOL    HW2 2243   0.498   2.149   0.255  1.0851 -2.7599 -1.1667
  561SOL     MW 2244   0.447   2.096   0.221  0.1484 -0.6891 -0.2916
  562SOL     OW 2245   0.894   2.198   2.172 -0.2822  0.4288  0.1698
  562SOL    HW1 2246   0.931   2.283   2.155 -0.1330  1.5847  1.1990
  562SOL    HW2 2247   0.955   2.155   2.235 -2.7233  0.4476 -2.2927
  562SOL     MW 2248   0.907   2.204   2.178 -0.5846  0.5838 -0.0193
  563SOL     OW 2249   1.200   0.295   0.577 -0.4419  0.1684  0.1160
  563SOL    HW1 2250   1.153   0.283   0.490  1.6203  1.0064 -3.0091
  563SOL    HW2 2251   1.238   0.207   0.589 -0.1015 -0.8817  2.2180
  563SOL     MW 2252   1.199   0.282   0.567 -0.1249  0.1404 -0.0190
  564SOL     OW 2253   1.103   2.554   2.368  0.1114 -0.1083 -0.1319
  564SOL    HW1 2254   1.141   2.599   2.288  1.2536  0.1354  0.7084
  564SOL    HW2 2255   1.135   2.616   2.439  0.5361  0.8551 -1.3676
  564SOL     MW 2256   1.112   2.568   2.367  0.3181  0.0510 -0.1840
  565SOL     OW 2257   2.861   2.683   2.573 -0.9589 -0.2683  0.3363
  565SOL    HW1 2258   2.936   2.730   2.537 -2.1498  0.4322 -0.3614
  565SOL    HW2 2259   2.793   2.681   2.513  2.4953  0.6508  2.7392
  565SOL     MW 2260   2.862   2.689   2.561 -0.6603 -0.0546  0.5613
  566SOL     OW 2261   2.257   1.891   2.375 -0.4566 -0.2829  0.2767
  566SOL    HW1 2262   2.271   1.914   2.282  0.9723 -1.3423  0.2095
  566SOL    HW2 2263   2.291   1.974   2.416  0.9465  1.6099 -0.0914
  566SOL     MW 2264   2.263   1.905   2.368 -0.0829 -0.1729  0.2193
  567SOL     OW 2265   1.139   2.892   0.044 -0.5301  0.4229 -0.4542
  567SOL    HW1 2266   1.177   2.973   0.071  0.8662  1.5553  0.7898
  567SOL    HW2 2267   1.162   2.896  -0.049 -1.2447  0.0909 -0.2160
  567SOL     MW 2268   1.147   2.903   0.035 -0.4402  0.5285 -0.2586
  568SOL     OW 2269   1.640   2.064   2.906 -0.2390 -1.0044  0.7799
  568SOL    HW1 2270   1.671   2.108   2.989 -2.6799 -1.4561  1.1958
  568SOL    HW2 2271   1.712   2.057   2.840 -0.0394 -1.7279 -1.6301
  568SOL     MW 2272   1.654   2.069   2.908 -0.5347 -1.1594  0.5168
  569SOL     OW 2273   0.223   2.200   2.434  0.1189  0.6548  0.2388
  569SOL    HW1 2274   0.180   2.257   2.364 -0.1899  0.2640 -0.7053
  569SOL    HW2 2275   0.218   2.255   2.509 -1.0827 -0.9183 -0.5785
  569SOL     MW 2276   0.217   2.214   2.434 -0.0803  0.3957  0.0064
  570SOL     OW 2277   1.461   0.446   0.506 -0.1340  0.4402 -1.0220
  570SOL    HW1 2278   1.383   0.456   0.554  1.3874  0.9182  0.8393
  570SOL    HW2 2279   1.535   0.445   0.576  1.9101  2.1651 -0.1541
  570SOL     MW 2280   1.461   0.447   0.522  0.3364  0.7308 -0.6619
  571SOL     OW 2281   1.487   2.395   1.965  0.0913  0.5710  0.6819
  571SOL    HW1 2282   1.494   2.445   2.049 -1.3023 -2.3139  0.9391
  571SOL    HW2 2283   1.486   2.301   1.990  2.0134 -0.2284  0.0112
  571SOL     MW 2284   1.488   2.389   1.980  0.1611  0.0849  0.6273
  572SOL     OW 2285   0.930   2.683   0.081 -0.1818  0.1959  0.1015
  572SOL    HW1 2286   0.982   2.699   0.002 -1.4234 -0.5887  0.4729
  572SOL    HW2 2287   0.863   2.627   0.048 -0.1370  2.5102 -0.6462
  572SOL     MW 2288   0.928   2.678   0.066 -0.3397  0.3977  0.0519
  573SOL     OW 2289   1.140   2.386   0.205  0.5984 -0.8132  0.2606
  573SOL    HW1 2290   1.230   2.377   0.183 -4.3116  2.1815  0.2123
  573SOL    HW2 2291   1.134   2.475   0.246 -0.8099 -2.2700  0.8162
  573SOL     MW 2292   1.151   2.396   0.207 -0.2352 -0.6103  0.3275
  574SOL     OW 2293   1.099   2.630   0.290 -0.5626 -0.3440 -0.0895
  574SOL    HW1 2294   1.178   2.689   0.310  0.7331  2.1671  0.6409
  574SOL    HW2 2295   1.044   2.675   0.224  0.7306  0.6390  2.8625
  574SOL     MW 2296   1.102   2.644   0.284 -0.2210  0.1170  0.3964
  575SOL     OW 2297   3.067   2.296   1.800 -0.2581  0.2398 -0.1405
  575SOL    HW1 2298   3.079   2.206   1.765 -1.1783  2.2866  0.1982
  575SOL    HW2 2299   3.137   2.356   1.763  0.6365  0.3815  0.7115
  575SOL     MW 2300   3.077   2.292   1.790 -0.2615  0.5286  0.0166
  576SOL     OW 2301   2.833   1.823   2.052 -0.3248  0.0855 -0.3824
  576SOL    HW1 2302   2.858   1.885   1.986  3.0257 -2.0308  1.5974
  576SOL    HW2 2303   2.756   1.771   2.032  1.2637 -1.2971  2.1977
  576SOL     MW 2304   2.826   1.824   2.040  0.3268 -0.3762  0.2192
  577SOL     OW 2305   2.093   0.316   0.056  0.0765 -0.3372  0.3612
  577SOL    HW1 2306   2.024   0.363   0.007  1.2553  0.6048  0.4033
  577SOL    HW2 2307   2.042   0.249   0.104  1.6796  1.4765 -1.8820
  577SOL     MW 2308   2.077   0.314   0.056  0.4436  0.0264  0.0708
  578SOL     OW 2309   2.001   2.024   2.448 -0.5633 -0.1936  0.6705
  578SOL    HW1 2310   1.951   2.048   2.375  0.3586 -1.7003  3.0088
  578SOL    HW2 2311   2.083   1.981   2.414 -0.5755  0.9400 -0.6945
  578SOL     MW 2312   2.005   2.021   2.434 -0.4432 -0.2428  0.7989
  579SOL     OW 2313   0.869   2.435   2.494  0.4424  0.2760  0.3810
  579SOL    HW1 2314   0.862   2.352   2.543  1.5675  0.2540  0.7490
  579SOL    HW2 2315   0.963   2.455   2.475  1.1315 -1.3872 -0.5255
  579SOL     MW 2316   0.880   2.426   2.498  0.6817  0.0537  0.3099
  580SOL     OW 2317   0.855   2.972   0.037 -0.6567  0.1778  0.5751
  580SOL    HW1 2318   0.949   2.929   0.052  2.1574 -0.5985  2.1774
  580SOL    HW2 2319   0.815   2.930  -0.037  2.1553 -1.1989 -0.0935
  580SOL     MW 2320   0.862   2.961   0.030  0.0856 -0.1063  0.6983
  581SOL     OW 2321   1.072   2.435   1.711  0.7194 -0.3586 -0.1702
  581SOL    HW1 2322   1.100   2.517   1.748  0.7826 -2.3824  2.3890
  581SOL    HW2 2323   1.148   2.401   1.666  0.8192  2.9681  1.6061
  581SOL     MW 2324   1.086   2.441   1.710  0.7409 -0.1867  0.4018
  582SOL     OW 2325   3.092   2.818   2.496  0.2587 -0.1691  0.0665
  582SOL    HW1 2326   3.092   2.891   2.568 -1.6778  1.6843  1.5022
  582SOL    HW2 2327   3.191   2.802   2.494 -1.1001 -0.1709  3.6251
  582SOL     MW 2328   3.105   2.826   2.505 -0.1761  0.0752  0.7254
  583SOL     OW 2329   1.942   2.446   2.641  0.4492  0.0182 -0.1286
  583SOL    HW1 2330   2.027   2.483   2.618  0.1851 -0.2351 -2.5169
  583SOL    HW2 2331   1.972   2.350   2.652  0.2561 -1.2260  2.9065
  583SOL     MW 2332   1.957   2.438   2.640  0.3889 -0.1794 -0.0432
  584SOL     OW 2333   0.205   1.899   2.071 -0.2025 -0.3319 -0.4191
  584SOL    HW1 2334   0.299   1.880   2.066  1.6951  1.9567 -1.3233
  584SOL    HW2 2335   0.191   1.935   2.161  0.2736  0.5065  0.8670
  584SOL     MW 2336   0.216   1.901   2.082  0.1107  0.0807 -0.3687
  585SOL     OW 2337   1.493   2.672   0.063 -0.0314  0.2662 -0.7602
  585SOL    HW1 2338   1.432   2.643  -0.001 -2.7078  1.7339 -1.3551
  585SOL    HW2 2339   1.442   2.708   0.140 -1.2349 -0.4440  3.0293
  585SOL     MW 2340   1.478   2.673   0.065 -0.5433  0.3662 -0.3387
  586SOL     OW 2341   1.341   2.853   2.380  1.0739 -0.7382 -0.3407
  586SOL    HW1 2342   1.417   2.805   2.347 -0.1133 -0.6516 -0.3512
  586SOL    HW2 2343   1.371   2.944   2.409  1.8299  1.2211  0.4810
  586SOL     MW 2344   1.355   2.859   2.379  1.0170 -0.4683 -0.2337
  587SOL     OW 2345   1.277   1.584   2.122  0.3317 -0.8660  0.5460
  587SOL    HW1 2346   1.253   1.512   2.184 -0.3681  0.6731  1.2212
  587SOL    HW2 2347   1.261   1.557   2.034 -2.7970 -1.6620 -1.1680
  587SOL     MW 2348   1.272   1.571   2.119 -0.1734 -0.7679  0.4089
  588SOL     OW 2349   1.416   2.170   2.728 -0.1541  0.1196  0.3387
  588SOL    HW1 2350   1.504   2.158   2.766  1.3003 -0.0666 -2.1663
  588SOL    HW2 2351   1.362   2.190   2.805 -0.4179  1.8525 -2.6352
  588SOL     MW 2352   1.420   2.171   2.743  0.0030  0.3237 -0.3842
  589SOL     OW 2353   1.369   2.101   0.061  0.1747  0.3128 -0.1237
  589SOL    HW1 2354   1.400   2.194   0.060 -1.4063 -0.1252 -0.2724
  589SOL    HW2 2355   1.365   2.075   0.152  1.3190 -0.6795 -0.3514
  589SOL     MW 2356   1.373   2.110   0.073  0.1171  0.1241 -0.1733
  590SOL     OW 2357   0.417   2.568   2.277  0.0495 -0.5166  0.3326
  590SOL    HW1 2358   0.364   2.576   2.194 -2.0980 -2.5709  0.6760
  590SOL    HW2 2359   0.493   2.627   2.269  0.7279 -2.0277 -0.2583
  590SOL     MW 2360   0.420   2.577   2.265 -0.1443 -0.9870  0.2999
  591SOL     OW 2361   2.291   0.701   0.027  0.1101 -0.0369 -0.2642
  591SOL    HW1 2362   2.218   0.744  -0.020  0.4153 -1.1153  0.4567
  591SOL    HW2 2363   2.366   0.713  -0.027 -0.7145 -0.1246  3.0915
  591SOL     MW 2364   2.291   0.708   0.014  0.0416 -0.1907  0.2737
  592SOL     OW 2365   1.879   3.032   0.790 -0.0749 -0.2187 -0.4645
  592SOL    HW1 2366   1.854   3.092   0.718  0.2612 -2.3073 -1.4854
  592SOL    HW2 2367   1.918   2.957   0.739 -0.0967 -0.4489 -0.7529
  592SOL     MW 2368   1.880   3.030   0.774 -0.0334 -0.5246 -0.6373
  593SOL     OW 2369   1.891   0.759   0.855  0.0487  0.2130  0.3650
  593SOL    HW1 2370   1.806   0.752   0.813  1.5151  1.9337  1.1037
  593SOL    HW2 2371   1.907   0.666   0.876 -0.4456 -1.3445 -1.9555
  593SOL     MW 2372   1.882   0.746   0.852  0.1770  0.2345  0.1563
  594SOL     OW 2373   2.744   1.126   1.386  0.3046 -0.0340 -0.4702
  594SOL    HW1 2374   2.828   1.169   1.366  0.5810 -0.4238 -0.6757
  594SOL    HW2 2375   2.714   1.092   1.304  1.7738  0.9875 -1.4998
  594SOL     MW 2376   2.751   1.128   1.373  0.5349  0.0493 -0.6332
  595SOL     OW 2377   0.483   0.942   0.687  0.2211 -0.4101  0.7950
  595SOL    HW1 2378   0.506   1.015   0.630  2.1848  0.8860  0.8791
  595SOL    HW2 2379   0.479   0.978   0.777 -2.8977 -0.4550  1.0543
  595SOL     MW 2380   0.485   0.956   0.691  0.0687 -0.2450  0.8403
  596SOL     OW 2381   2.453   1.394   0.544  0.3449  0.4013 -0.8849
  596SOL    HW1 2382   2.487   1.469   0.498 -1.3576  0.0408  3.3930
  596SOL    HW2 2383   2.496   1.407   0.629 -0.5597 -0.0523  0.5029
  596SOL     MW 2384   2.463   1.406   0.549  0.0009  0.2939 -0.1374
  597SOL     OW 2385   2.201   0.662   1.671 -0.1718 -0.2091 -0.4337
  597SOL    HW1 2386   2.264   0.589   1.700 -1.4021  0.9798  1.1527
  597SOL    HW2 2387   2.121   0.620   1.629 -0.3706 -1.4659 -0.2654
  597SOL     MW 2388   2.199   0.647   1.669 -0.3604 -0.2181 -0.2022
  598SOL     OW 2389   2.633   1.002   2.846  0.3203 -0.0331  0.3538
  598SOL    HW1 2390   2.660   0.995   2.745 -2.0169 -0.1808  1.1228
  598SOL    HW2 2391   2.695   1.055   2.904 -0.9878  0.8696  1.6350
  598SOL     MW 2392   2.644   1.008   2.840 -0.1606  0.0665  0.6243
  599SOL     OW 2393   2.927   0.337   2.082  0.5977  0.2065 -0.0020
  599SOL    HW1 2394   2.904   0.355   2.177  1.0376  0.2516 -0.9863
  599SOL    HW2 2395   2.946   0.425   2.040  0.6125  0.6158 -1.0869
  599SOL     MW 2396   2.927   0.351   2.089  0.6577  0.2664 -0.2750
  600SOL     OW 2397   1.899   1.731   0.884  0.0868  0.7133  0.0540
  600SOL    HW1 2398   1.930   1.766   0.968 -0.5498  0.3914  2.2332
  600SOL    HW2 2399   1.813   1.775   0.875 -0.1084 -0.6710 -1.1678
  600SOL     MW 2400   1.892   1.742   0.894 -0.0230  0.4882  0.1803
  601SOL     OW 2401   2.499   0.809   0.811  0.0774  0.1886  0.1386
  601SOL    HW1 2402   2.516   0.805   0.907  0.0651 -3.8855 -0.5748
  601SOL    HW2 2403   2.454   0.722   0.792  0.6595 -0.1579 -1.7905
  601SOL     MW 2404   2.496   0.797   0.821  0.1526 -0.3947 -0.2100
  602SOL     OW 2405   2.332   1.956   0.801 -0.3050  0.0286  0.2592
  602SOL    HW1 2406   2.279   1.887   0.847 -1.2310 -0.5406  1.0762
  602SOL    HW2 2407   2.265   2.003   0.755  1.1690  0.0084  3.2673
  602SOL     MW 2408   2.316   1.953   0.801 -0.2327 -0.0492  0.7639
  603SOL     OW 2409   3.080   1.386   1.781  0.2418 -0.2321 -0.0785
  603SOL    HW1 2410   3.115   1.427   1.864  3.1134  3.7306 -1.0758
  603SOL    HW2 2411   3.065   1.291   1.802  1.2055  0.3835  0.4240
  603SOL     MW 2412   3.082   1.379   1.795  0.7479  0.3720 -0.1438
  604SOL     OW 2413   2.103   1.573   0.454 -0.0298  0.3439  0.6991
  604SOL    HW1 2414   2.143   1.504   0.500  2.6115  1.9765  0.7045
  604SOL    HW2 2415   2.034   1.617   0.506 -1.2639 -1.5905 -2.2835
  604SOL     MW 2416   2.099   1.570   0.467  0.1559  0.3041  0.3063
  605SOL     OW 2417   2.685   1.547   0.838 -0.8634  0.1727  0.3860
  605SOL    HW1 2418   2.612   1.591   0.792 -0.4022 -1.0742  1.1910
  605SOL    HW2 2419   2.661   1.455   0.839 -2.0967 -1.2189 -3.2360
  605SOL     MW 2420   2.672   1.540   0.832 -0.9653 -0.1754  0.0143
  606SOL     OW 2421   2.568   1.801   1.832 -0.0170  0.5423  0.1486
  606SOL    HW1 2422   2.478   1.783   1.856  0.5756  0.5844 -0.2014
  606SOL    HW2 2423   2.603   1.711   1.820  0.1245 -1.0111  1.3859
  606SOL     MW 2424   2.561   1.787   1.834  0.0799  0.3429  0.2657
  607SOL     OW 2425   2.373   1.010   2.977  0.5110  0.0938  0.3682
  607SOL    HW1 2426   2.463   1.016   2.942 -2.5816  1.1757  0.8778
  607SOL    HW2 2427   2.379   0.973   3.068 -0.8216 -0.8783  2.2963
  607SOL     MW 2428   2.386   1.006   2.984 -0.0728  0.1083  0.6898
  608SOL     OW 2429   1.872   0.310   0.578  0.4294  0.1302  0.2019
  608SOL    HW1 2430   1.889   0.369   0.506  0.8886  1.1560  0.2941
  608SOL    HW2 2431   1.856   0.224   0.526  0.0365  1.4737  0.2905
  608SOL     MW 2432   1.872   0.306   0.562  0.4381  0.4428  0.2258
  609SOL     OW 2433   2.134   1.966   3.060 -0.0513  0.0550 -0.4004
  609SOL    HW1 2434   2.054   1.912   3.050  0.1436 -0.9789  1.3957
  609SOL    HW2 2435   2.172   1.947   3.151  1.0614  1.6404 -1.2185
  609SOL     MW 2436   2.128   1.957   3.071  0.1212  0.1277 -0.2713
  610SOL     OW 2437   1.761   1.016   1.236  0.1590  0.3243  0.1088
  610SOL    HW1 2438   1.776   0.934   1.185  1.2445  0.9047  0.5073
  610SOL    HW2 2439   1.675   1.016   1.266  0.0853 -2.0704 -1.0463
  610SOL     MW 2440   1.752   1.005   1.233  0.2925  0.0850  0.0089
  611SOL     OW 2441   2.468   1.682   0.728  0.8274  0.1324 -0.5732
  611SOL    HW1 2442   2.453   1.770   0.765 -0.1962  0.1613  3.6164
  611SOL    HW2 2443   2.440   1.672   0.640 -2.4570  1.5192 -1.7875
  611SOL     MW 2444   2.463   1.692   0.722  0.2590  0.3192 -0.1807
  612SOL     OW 2445   2.788   2.827   0.426  0.4263 -0.4572 -0.3264
  612SOL    HW1 2446   2.836   2.862   0.503  2.5907  0.0042 -1.7976
  612SOL    HW2 2447   2.860   2.803   0.368 -1.1184 -0.2462 -0.0914
  612SOL     MW 2448   2.804   2.828   0.428  0.5080 -0.3685 -0.4895
  613SOL     OW 2449   1.493   1.013   0.977 -0.4645 -0.4234 -0.0886
  613SOL    HW1 2450   1.533   1.099   0.976  2.4483 -0.6662 -2.6534
  613SOL    HW2 2451   1.522   0.973   1.065 -0.4064 -1.7861 -0.2247
  613SOL     MW 2452   1.502   1.019   0.989 -0.0725 -0.6352 -0.4449
  614SOL     OW 2453   1.983   0.546   1.546  0.1696 -0.6819 -0.1789
  614SOL    HW1 2454   2.004   0.465   1.595 -2.0596 -2.5364  1.2894
  614SOL    HW2 2455   1.994   0.522   1.454  2.6381 -0.0641 -1.4061
  614SOL     MW 2456   1.987   0.532   1.540  0.2012 -0.8451 -0.1471
  615SOL     OW 2457   2.279   0.782   0.296  0.3306 -0.6107  0.0788
  615SOL    HW1 2458   2.353   0.736   0.334  0.0101  0.0667 -1.5476
  615SOL    HW2 2459   2.301   0.778   0.204  0.2764 -3.7166 -0.6651
  615SOL     MW 2460   2.291   0.775   0.289  0.2812 -0.9311 -0.2339
  616SOL     OW 2461   2.543   0.371   1.594 -0.4930  0.0924 -0.4680
  616SOL    HW1 2462   2.487   0.315   1.537 -2.2115  1.7183  0.4768
  616SOL    HW2 2463   2.605   0.414   1.538 -1.2631 -1.8159 -2.2011
  616SOL     MW 2464   2.544   0.369   1.579 -0.8213  0.0551 -0.5720
  617SOL     OW 2465   2.878   0.545   1.713  0.8313  0.3926  0.8798
  617SOL    HW1 2466   2.792   0.556   1.759  1.8116 -1.4997  1.6722
  617SOL    HW2 2467   2.868   0.475   1.646  0.1157  1.3748 -1.8482
  617SOL     MW 2468   2.865   0.537   1.711  0.8662  0.2725  0.6244
  618SOL     OW 2469   2.659   0.335   1.975 -0.5390 -0.2724  0.1635
  618SOL    HW1 2470   2.669   0.420   1.933 -0.4436 -1.5168 -0.1973
  618SOL    HW2 2471   2.745   0.324   2.024  1.1605 -0.4615  1.5703
  618SOL     MW 2472   2.672   0.345   1.976 -0.3022 -0.4616  0.3015
  619SOL     OW 2473   2.647   0.725   0.152  0.3034  0.1038  0.0536
  619SOL    HW1 2474   2.702   0.804   0.152  1.8444 -1.4113 -0.0407
  619SOL    HW2 2475   2.613   0.711   0.236 -0.3058 -2.4280 -0.8710
  619SOL     MW 2476   2.650   0.734   0.163  0.4263 -0.4301 -0.0808
  620SOL     OW 2477   2.333   1.051   0.995 -0.0780 -0.2435  0.1575
  620SOL    HW1 2478   2.415   1.092   0.981  0.3986 -0.4136  0.4510
  620SOL    HW2 2479   2.320   0.983   0.931 -0.6467  1.7978 -2.5262
  620SOL     MW 2480   2.342   1.048   0.985 -0.0901  0.0034 -0.1579
  621SOL     OW 2481   1.461   2.130   1.997 -0.3718 -0.2016  0.3338
  621SOL    HW1 2482   1.396   2.059   2.008 -4.5151 -0.7335  1.5393
  621SOL    HW2 2483   1.547   2.094   1.993 -0.8591 -1.1628  1.9134
  621SOL     MW 2484   1.464   2.116   1.998 -0.9827 -0.3986  0.7013
  622SOL     OW 2485   2.630   0.157   0.271 -0.5040 -0.1644  0.1989
  622SOL    HW1 2486   2.693   0.228   0.272  0.0295 -0.8252  2.0393
  622SOL    HW2 2487   2.655   0.080   0.316 -0.5223 -0.5521 -1.3668
  622SOL     MW 2488   2.641   0.156   0.277 -0.4360 -0.3028  0.2351
  623SOL     OW 2489   2.318   2.741   0.903  0.5040  0.7852  0.2311
  623SOL    HW1 2490   2.398   2.800   0.903  2.1880  2.3969  0.1948
  623SOL    HW2 2491   2.270   2.765   0.986  1.1327 -0.4308  1.0368
  623SOL     MW 2492   2.322   2.752   0.914  0.8092  0.8374  0.3326
  624SOL     OW 2493   2.206   1.677   2.995 -0.1317  0.2689  0.0343
  624SOL    HW1 2494   2.146   1.604   2.974 -2.7792 -0.3580 -0.8274
  624SOL    HW2 2495   2.151   1.745   3.022 -1.6374 -0.4887 -0.6774
  624SOL     MW 2496   2.191   1.676   2.996 -0.6796  0.0862 -0.1733
  625SOL     OW 2497   2.206   2.021   1.120  0.3573  0.2052  0.0635
  625SOL    HW1 2498   2.258   1.945   1.126  0.2081  1.8719 -1.1530
  625SOL    HW2 2499   2.264   2.081   1.071 -1.2663  2.3364  0.3434
  625SOL     MW 2500   2.220   2.019   1.114  0.1234  0.7063 -0.0601
  626SOL     OW 2501   0.221   1.629   2.353  0.6275 -0.5638  0.4144
  626SOL    HW1 2502   0.173   1.562   2.300 -0.6587 -1.4039  0.4876
  626SOL    HW2 2503   0.169   1.621   2.432 -0.7134 -0.1628  1.6122
  626SOL     MW 2504   0.208   1.619   2.356  0.2809 -0.6217  0.5821
  627SOL     OW 2505   2.484   0.817   2.633 -0.6372 -0.4423  0.3165
  627SOL    HW1 2506   2.424   0.887   2.599 -1.4857  0.5477  0.9764
  627SOL    HW2 2507   2.472   0.749   2.562  0.0860  0.1511 -3.7616
  627SOL     MW 2508   2.474   0.817   2.619 -0.6537 -0.2334 -0.1345
  628SOL     OW 2509   2.241   1.356   1.360  0.0454 -0.6335  0.1909
  628SOL    HW1 2510   2.208   1.287   1.303  0.1733 -3.1448 -1.7060
  628SOL    HW2 2511   2.335   1.359   1.356 -1.1104 -0.6381  2.0603
  628SOL     MW 2512   2.249   1.347   1.352 -0.0902 -0.9654  0.1873
  629SOL     OW 2513   1.962   0.570   1.248 -0.4748  0.0781 -0.0930
  629SOL    HW1 2514   2.003   0.652   1.220 -0.3731  0.5789 -1.5011
  629SOL    HW2 2515   1.871   0.587   1.275 -0.7392 -1.5547  0.2189
  629SOL     MW 2516   1.955   0.583   1.248 -0.4963 -0.0713 -0.2376
  630SOL     OW 2517   2.462   1.832   3.062 -0.5157 -0.2052  0.1338
  630SOL    HW1 2518   2.472   1.902   2.999  0.8095 -0.8462 -2.1267
  630SOL    HW2 2519   2.377   1.786   3.030 -2.8790  0.4803  1.8555
  630SOL     MW 2520   2.453   1.835   3.049 -0.6527 -0.1993  0.0627
  631SOL     OW 2521   1.985   1.828   1.573 -0.2872 -0.3406 -0.2786
  631SOL    HW1 2522   1.994   1.740   1.610 -0.7170 -0.8986  0.8199
  631SOL    HW2 2523   1.916   1.827   1.504  0.7470  0.4436 -2.2272
  631SOL     MW 2524   1.977   1.816   1.569 -0.2074 -0.3108 -0.3908
  632SOL     OW 2525   0.080   2.066   1.476 -0.2787 -0.5478 -0.4809
  632SOL    HW1 2526   0.033   2.071   1.556  2.1813 -2.3981 -0.2023
  632SOL    HW2 2527   0.106   1.975   1.475 -2.8726  2.8368  1.7999
  632SOL     MW 2528   0.077   2.055   1.486 -0.2964 -0.3454 -0.1432
  633SOL     OW 2529   2.515   0.664   0.373  0.9326 -0.7113  0.3247
  633SOL    HW1 2530   2.578   0.716   0.423  0.5759 -0.5348 -2.1782
  633SOL    HW2 2531   2.518   0.579   0.408 -1.2501  1.2946  0.4548
  633SOL     MW 2532   2.524   0.660   0.384  0.5975 -0.4233  0.0117
  634SOL     OW 2533   2.655   3.042   0.670  0.3482 -0.5314 -0.4262
  634SOL    HW1 2534   2.707   3.127   0.670  1.4361  1.4333 -0.7257
  634SOL    HW2 2535   2.643   3.019   0.574  0.4559 -1.5290 -1.2222
  634SOL     MW 2536   2.660   3.050   0.657  0.5059 -0.4038 -0.5708
  635SOL     OW 2537   2.588   0.106   1.827 -0.2339 -0.6104  0.1746
  635SOL    HW1 2538   2.672   0.061   1.793  0.4101 -1.2540 -1.2571
  635SOL    HW2 2539   2.615   0.193   1.868  0.7224  0.7901 -0.1967
  635SOL     MW 2540   2.602   0.112   1.828 -0.0227 -0.5106 -0.0633
  636SOL     OW 2541   2.913   1.754   1.054  0.1883 -0.5975  0.6853
  636SOL    HW1 2542   2.842   1.821   1.066  0.5383  1.7365 -0.5893
  636SOL    HW2 2543   2.991   1.794   1.090 -0.2467 -1.4428  0.6230
  636SOL     MW 2544   2.914   1.768   1.060  0.1771 -0.4011  0.5089
  637SOL     OW 2545   2.904   1.515   0.646 -0.0262 -0.3117 -0.6497
  637SOL    HW1 2546   2.952   1.598   0.643  1.1099 -2.5206 -0.5668
  637SOL    HW2 2547   2.844   1.528   0.719  0.7774  0.7239 -1.7133
  637SOL     MW 2548   2.902   1.528   0.655  0.2297 -0.4665 -0.7791
  638SOL     OW 2549   2.740   0.554   0.534  0.4480 -0.3776  0.2590
  638SOL    HW1 2550   2.832   0.570   0.514 -2.4104 -1.6921 -1.9006
  638SOL    HW2 2551   2.731   0.557   0.633  1.7919 -1.5992 -0.4990
  638SOL     MW 2552   2.751   0.557   0.544  0.2482 -0.7122 -0.1259
  639SOL     OW 2553   1.777   0.049   0.531  0.1875 -0.1908  0.9314
  639SOL    HW1 2554   1.684   0.063   0.540 -1.1473 -0.7370 -0.9728
  639SOL    HW2 2555   1.789  -0.036   0.488 -0.1748 -0.8646  2.7293
  639SOL     MW 2556   1.767   0.039   0.526 -0.0364 -0.3517  0.9174
  640SOL     OW 2557   0.349   1.390   0.061  0.4736  0.2395  0.1037
  640SOL    HW1 2558   0.364   1.408  -0.030 -1.1836 -2.3708  0.3478
  640SOL    HW2 2559   0.316   1.300   0.045 -0.9757 -0.1670 -1.9285
  640SOL     MW 2560   0.346   1.381   0.047  0.0637 -0.1585 -0.1323
  641SOL     OW 2561   2.211   0.458   0.390  0.2460 -0.0396 -0.2463
  641SOL    HW1 2562   2.258   0.453   0.311  2.2743  0.7000  1.5371
  641SOL    HW2 2563   2.223   0.371   0.428  1.6527 -2.3080 -1.1868
  641SOL     MW 2564   2.219   0.446   0.385  0.6992 -0.2413 -0.1351
  642SOL     OW 2565   0.013   3.084   0.602 -0.5799 -0.5353  0.1401
  642SOL    HW1 2566  -0.037   3.156   0.559 -1.0965  0.9753  1.5769
  642SOL    HW2 2567  -0.051   3.032   0.645 -1.2538  1.6634  1.8145
  642SOL     MW 2568  -0.002   3.087   0.602 -0.7370 -0.0459  0.5506
  643SOL     OW 2569   2.073   0.353   1.702 -0.1949  0.1434 -0.2112
  643SOL    HW1 2570   2.105   0.303   1.779  1.0141 -2.0821 -1.1943
  643SOL    HW2 2571   2.106   0.294   1.631  1.2620 -0.3134  2.0117
  643SOL     MW 2572   2.082   0.338   1.703  0.1568 -0.2105 -0.0476
  644SOL     OW 2573   2.711   1.962   1.063 -0.2262  0.4914 -0.0859
  644SOL    HW1 2574   2.671   1.879   1.103 -0.6393 -1.4655  2.7028
  644SOL    HW2 2575   2.636   2.001   1.015 -0.9724 -2.2229 -0.1856
  644SOL     MW 2576   2.696   1.957   1.062 -0.3791 -0.1249  0.2689
  645SOL     OW 2577   2.835   0.885   0.680  0.0614 -0.2128  0.2623
  645SOL    HW1 2578   2.918   0.840   0.683 -0.8106  1.3436 -0.8415
  645SOL    HW2 2579   2.771   0.817   0.689  0.7531 -0.0714 -1.3422
  645SOL     MW 2580   2.838   0.870   0.681  0.0376  0.0112 -0.0950
  646SOL     OW 2581   0.169   2.284   0.782  0.2064  0.7153 -0.5863
  646SOL    HW1 2582   0.178   2.184   0.798 -1.4578 -2.8284  1.0926
  646SOL    HW2 2583   0.081   2.302   0.735  0.9697  0.9285  1.2964
  646SOL     MW 2584   0.159   2.273   0.778  0.0876  0.2759 -0.1164
  647SOL     OW 2585   2.725   0.497   2.972  0.1904 -0.1708 -0.3901
  647SOL    HW1 2586   2.690   0.420   3.018 -0.0831  2.1458  0.7526
  647SOL    HW2 2587   2.661   0.576   2.987 -0.3950  0.6905 -1.9418
  647SOL     MW 2588   2.712   0.497   2.980  0.0771  0.2485 -0.4441
  648SOL     OW 2589   2.137   0.753   1.115  0.0656 -0.2235  0.1669
  648SOL    HW1 2590   2.175   0.764   1.028 -0.1808  0.0026  1.0570
  648SOL    HW2 2591   2.185   0.815   1.175  2.3065  0.8048  2.5322
  648SOL     MW 2592   2.148   0.762   1.111  0.3287 -0.0580  0.5964
  649SOL     OW 2593   2.345   2.772   1.299 -0.1101 -0.1600 -0.0469
  649SOL    HW1 2594   2.423   2.829   1.306 -0.5693 -1.1587  1.1009
  649SOL    HW2 2595   2.370   2.693   1.251 -0.1913 -0.1965  1.6245
  649SOL     MW 2596   2.359   2.769   1.294 -0.1814 -0.2966  0.3250
  650SOL     OW 2597   2.827   0.174   0.675 -0.1559 -0.1645  0.0530
  650SOL    HW1 2598   2.815   0.264   0.706 -0.0408  0.8123  2.1526
  650SOL    HW2 2599   2.879   0.186   0.592 -0.8642 -1.5586  0.1387
  650SOL     MW 2600   2.832   0.187   0.668 -0.2342 -0.2196  0.3414
  651SOL     OW 2601   2.996   0.418   0.775  0.4940  0.5004 -0.4841
  651SOL    HW1 2602   3.085   0.435   0.756 -0.4756  0.1061  1.7478
  651SOL    HW2 2603   2.978   0.498   0.821 -0.6676 -0.2715 -1.5203
  651SOL     MW 2604   3.006   0.431   0.778  0.2128  0.3466 -0.3264
  652SOL     OW 2605   2.425   1.485   3.019  0.2112 -0.4551 -0.1628
  652SOL    HW1 2606   2.478   1.475   2.945 -2.9713 -1.0383 -0.9108
  652SOL    HW2 2607   2.355   1.547   2.993 -0.1583 -1.5695  1.8914
  652SOL     MW 2608   2.423   1.492   3.006 -0.2575 -0.6791  0.0096
  653SOL     OW 2609   1.932   0.451   0.340  0.5559  0.1035  0.4076
  653SOL    HW1 2610   1.913   0.388   0.271 -1.1894  0.5788  1.0165
  653SOL    HW2 2611   2.019   0.428   0.356  0.3108  2.0629 -1.3751
  653SOL     MW 2612   1.941   0.440   0.333  0.2933  0.4248  0.2527
  654SOL     OW 2613   2.457   1.062   0.710 -0.1163 -0.0571  0.2746
  654SOL    HW1 2614   2.365   1.055   0.685  0.8450  1.2803 -1.2222
  654SOL    HW2 2615   2.478   0.968   0.732 -2.4145 -1.4714 -0.4774
  654SOL     MW 2616   2.448   1.049   0.710 -0.2927 -0.0672 -0.0221
  655SOL     OW 2617   2.983   0.912   0.392 -0.1420 -0.2140  0.2737
  655SOL    HW1 2618   2.906   0.937   0.443 -0.0152  0.9000 -1.7222
  655SOL    HW2 2619   3.014   0.822   0.424  0.3882 -1.0474 -3.6345
  655SOL     MW 2620   2.977   0.903   0.403 -0.0553 -0.1770 -0.5053
  656SOL     OW 2621   1.959   2.690   1.216 -0.4338  0.3593  0.5376
  656SOL    HW1 2622   1.934   2.775   1.252 -0.6728 -0.5574 -2.5826
  656SOL    HW2 2623   2.006   2.650   1.286  1.2787  0.9999  0.9157
  656SOL     MW 2624   1.962   2.696   1.230 -0.2394  0.3229  0.1758
  657SOL     OW 2625   0.177   1.586   1.278 -0.6176  0.3579 -0.0242
  657SOL    HW1 2626   0.093   1.618   1.254 -0.0479 -0.5935  2.0137
  657SOL    HW2 2627   0.171   1.489   1.275  1.0142  0.0068 -0.9596
  657SOL     MW 2628   0.165   1.577   1.275 -0.3271  0.1860  0.1213
  658SOL     OW 2629   2.684   1.346   0.182  0.2338 -0.1513 -0.3330
  658SOL    HW1 2630   2.627   1.301   0.248  3.3549 -3.3715 -0.1256
  658SOL    HW2 2631   2.755   1.388   0.236  0.2022  0.2339  3.8637
  658SOL     MW 2632   2.686   1.346   0.198  0.6415 -0.5254  0.2481
  659SOL     OW 2633   2.311   1.524   1.029  0.4921 -0.1214  0.2046
  659SOL    HW1 2634   2.399   1.504   1.038 -4.0330  1.2249 -1.5196
  659SOL    HW2 2635   2.290   1.563   1.115 -1.6963  0.3038 -2.2886
  659SOL     MW 2636   2.320   1.526   1.042 -0.3937  0.1123 -0.3518
  660SOL     OW 2637   2.025   1.573   1.688 -0.0891  0.3600 -0.1134
  660SOL    HW1 2638   2.054   1.575   1.783 -0.3064 -0.6242 -1.6262
  660SOL    HW2 2639   1.995   1.485   1.664 -0.1091  1.0928  0.3271
  660SOL     MW 2640   2.025   1.562   1.697 -0.1204  0.3268 -0.2549
  661SOL     OW 2641   2.360   1.025   0.225 -0.1339 -0.4468 -0.0750
  661SOL    HW1 2642   2.443   1.060   0.272  0.4543 -0.0240  1.8031
  661SOL    HW2 2643   2.339   0.945   0.279 -0.3786  0.3853 -1.5815
  661SOL     MW 2644   2.368   1.019   0.238 -0.0886 -0.2813 -0.0260
  662SOL     OW 2645   2.519   2.923   0.890  0.0728  0.2421 -0.0383
  662SOL    HW1 2646   2.475   2.999   0.924 -0.7469 -1.7093 -1.4777
  662SOL    HW2 2647   2.559   2.951   0.808  0.4989 -0.8238 -0.7931
  662SOL     MW 2648   2.519   2.936   0.884  0.0209 -0.1560 -0.3278
  663SOL     OW 2649   2.842   1.488   0.352 -0.3305 -0.3151 -0.0408
  663SOL    HW1 2650   2.859   1.583   0.352  0.3230  1.3021  1.5115
  663SOL    HW2 2651   2.882   1.453   0.433  0.4248 -0.9504 -3.6654
  663SOL     MW 2652   2.850   1.496   0.362 -0.1446 -0.1855 -0.3142
  664SOL     OW 2653   2.473   1.546   1.582  0.0313 -0.4065  0.3774
  664SOL    HW1 2654   2.458   1.644   1.571 -1.9877 -2.7268  0.7690
  664SOL    HW2 2655   2.401   1.515   1.636  1.7147  0.0661  2.2539
  664SOL     MW 2656   2.462   1.555   1.587 -0.0130 -0.6503  0.6766
  665SOL     OW 2657   2.862   0.833   2.048  0.6415  0.6212 -0.8895
  665SOL    HW1 2658   2.840   0.885   1.966 -1.0171  2.4114  0.6441
  665SOL    HW2 2659   2.935   0.781   2.039  0.0171  0.6319  1.6361
  665SOL     MW 2660   2.869   0.833   2.036  0.3403  0.8588 -0.3539
  666SOL     OW 2661   2.731   3.024   1.675 -0.0580 -0.0568 -0.2092
  666SOL    HW1 2662   2.763   3.004   1.583  0.1345 -4.8773 -0.7355
  666SOL    HW2 2663   2.685   2.944   1.709  1.1378 -0.2347 -0.8040
  666SOL     MW 2664   2.729   3.011   1.667  0.1252 -0.7163 -0.3571
  667SOL     OW 2665   1.979   2.670   1.667 -0.0705 -0.4440 -0.1671
  667SOL    HW1 2666   1.988   2.606   1.738 -0.1750  3.2873  0.8924
  667SOL    HW2 2667   2.055   2.729   1.681  0.2413 -1.0332  0.3148
  667SOL     MW 2668   1.990   2.669   1.678 -0.0432 -0.0295  0.0363
  668SOL     OW 2669   2.728   0.633   0.793 -0.1907  0.1429  0.0744
  668SOL    HW1 2670   2.786   0.673   0.864  0.1138  2.4687  1.4546
  668SOL    HW2 2671   2.646   0.672   0.819  1.4100 -0.4881 -1.4681
  668SOL     MW 2672   2.725   0.643   0.806  0.0607  0.3665  0.0530
  669SOL     OW 2673   0.182   0.944   0.656 -0.0233 -0.0235 -0.3158
  669SOL    HW1 2674   0.121   0.979   0.716  4.4417  0.1627  0.8750
  669SOL    HW2 2675   0.271   0.950   0.694  1.5324 -2.1262  2.2066
  669SOL     MW 2676   0.185   0.950   0.669  0.7711 -0.2763  0.1741
  670SOL     OW 2677   2.887   0.312   0.198 -0.2084  0.0020 -0.1304
  670SOL    HW1 2678   2.889   0.237   0.131  2.4408 -0.1245 -0.2099
  670SOL    HW2 2679   2.948   0.383   0.170  1.6121 -0.0147  1.6428
  670SOL     MW 2680   2.895   0.312   0.185  0.3813 -0.0169  0.0930
  671SOL     OW 2681   2.122   3.003   1.532 -0.5230 -1.1633  0.0435
  671SOL    HW1 2682   2.094   3.005   1.445  1.4854  2.4532 -2.5190
  671SOL    HW2 2683   2.051   3.039   1.579 -0.5898 -1.9260 -0.2821
  671SOL     MW 2684   2.109   3.008   1.527 -0.2668 -0.7868 -0.3376
  672SOL     OW 2685   1.850   1.693   1.312  0.1629  0.6766 -0.0355
  672SOL    HW1 2686   1.773   1.744   1.340  0.8366 -0.7499 -1.0677
  672SOL    HW2 2687   1.890   1.746   1.237  1.2959 -1.1134 -1.2252
  672SOL     MW 2688   1.845   1.707   1.306  0.4013  0.2522 -0.3286
  673SOL     OW 2689   2.784   1.095   0.520 -0.1822  0.0863  0.5803
  673SOL    HW1 2690   2.783   1.018   0.577 -0.9139 -1.8095  0.0243
  673SOL    HW2 2691   2.837   1.154   0.578  0.8886 -1.1959 -0.0310
  673SOL     MW 2692   2.791   1.093   0.535 -0.1374 -0.3331  0.4263
  674SOL     OW 2693   2.513   0.092   1.214  0.3306 -0.7252  0.3751
  674SOL    HW1 2694   2.449   0.082   1.141 -2.4487 -3.4973  0.5241
  674SOL    HW2 2695   2.516   0.007   1.252  0.7189  0.3399 -1.2423
  674SOL     MW 2696   2.505   0.079   1.209  0.0151 -0.9504  0.1814
  675SOL     OW 2697   3.015   0.920   1.102  0.1532 -0.5328 -0.0776
  675SOL    HW1 2698   3.081   0.890   1.164  1.1640 -0.9962  0.7258
  675SOL    HW2 2699   3.067   0.960   1.031 -1.7494 -1.8001 -1.8021
  675SOL     MW 2700   3.031   0.921   1.101  0.0355 -0.7611 -0.1991
  676SOL     OW 2701   2.874   1.489   1.662 -1.0556 -0.8505  0.7066
  676SOL    HW1 2702   2.815   1.418   1.643 -1.4294  3.2220  0.3149
  676SOL    HW2 2703   2.944   1.448   1.712 -0.3319  0.3775 -3.0476
  676SOL     MW 2704   2.875   1.474   1.666 -1.0094 -0.1512  0.1596
  677SOL     OW 2705   2.434   0.706   1.948 -0.4116 -0.6531  0.5137
  677SOL    HW1 2706   2.408   0.641   1.890 -0.1625  0.6637  1.6342
  677SOL    HW2 2707   2.355   0.752   1.982 -2.9449  0.9705  0.2345
  677SOL     MW 2708   2.420   0.704   1.945 -0.7130 -0.2651  0.6247
  678SOL     OW 2709   2.540   1.615   0.410  0.4758 -0.2616  0.7444
  678SOL    HW1 2710   2.454   1.671   0.406 -1.2157 -0.1401  0.1067
  678SOL    HW2 2711   2.557   1.607   0.317  2.6331  0.9448 -0.7286
  678SOL     MW 2712   2.531   1.621   0.398  0.5373 -0.0864  0.4659
  679SOL     OW 2713   2.307   0.522   1.180  0.3863  0.5276  0.5793
  679SOL    HW1 2714   2.261   0.441   1.213 -2.0887  0.8096 -0.3805
  679SOL    HW2 2715   2.241   0.588   1.171  0.2392 -0.3470 -1.0823
  679SOL     MW 2716   2.293   0.520   1.183  0.0403  0.4494  0.2335
  680SOL     OW 2717   2.372   0.240   1.409  0.0457 -0.1392  0.4861
  680SOL    HW1 2718   2.281   0.201   1.431 -4.2732 -1.6292  2.7060
  680SOL    HW2 2719   2.405   0.191   1.328  1.5397  2.2367  0.0914
  680SOL     MW 2720   2.365   0.228   1.401 -0.3270 -0.0223  0.7269
  681SOL     OW 2721   0.353   0.600   1.546 -0.1213 -0.0137  0.0742
  681SOL    HW1 2722   0.316   0.529   1.603 -2.2958 -0.7457  1.4647
  681SOL    HW2 2723   0.445   0.566   1.532 -0.1919  0.6052  0.8842
  681SOL     MW 2724   0.361   0.586   1.551 -0.4176 -0.0286  0.3646
  682SOL     OW 2725   0.139   2.950   1.461  0.1505 -0.2483 -0.0250
  682SOL    HW1 2726   0.133   3.045   1.451 -0.6595  2.6575 -0.0063
  682SOL    HW2 2727   0.067   2.915   1.509 -2.1393  0.1128  0.0985
  682SOL     MW 2728   0.129   2.958   1.466 -0.2585  0.1828 -0.0062
  683SOL     OW 2729   2.061   0.866   3.031 -0.7545 -0.3733 -0.1475
  683SOL    HW1 2730   1.970   0.848   3.005 -0.6948 -0.0741  1.7523
  683SOL    HW2 2731   2.048   0.953   3.067  1.2966 -0.1904 -3.4104
  683SOL     MW 2732   2.047   0.875   3.033 -0.4760 -0.3097 -0.3273
  684SOL     OW 2733   2.179   1.753   0.926 -0.2888 -0.4786  0.3036
  684SOL    HW1 2734   2.102   1.711   0.880 -0.2746 -0.1968  1.0548
  684SOL    HW2 2735   2.217   1.675   0.976  1.2161 -0.3682  2.0178
  684SOL     MW 2736   2.174   1.737   0.927 -0.0884 -0.4269  0.6289
  685SOL     OW 2737   2.649   1.745   1.230  0.3211  0.2415 -0.2311
  685SOL    HW1 2738   2.697   1.734   1.311  2.4318 -0.6828 -0.5315
  685SOL    HW2 2739   2.633   1.650   1.209  0.7241 -0.4397  1.3062
  685SOL     MW 2740   2.653   1.731   1.238  0.6527  0.0297 -0.0679
  686SOL     OW 2741   2.885   0.709   1.466  0.4632  0.1427  0.1347
  686SOL    HW1 2742   2.928   0.662   1.541 -0.7586  1.5389  1.4655
  686SOL    HW2 2743   2.965   0.753   1.427  1.6151  0.0988  2.8763
  686SOL     MW 2744   2.902   0.708   1.471  0.4540  0.3211  0.6720
  687SOL     OW 2745   2.121   0.291   1.181 -0.8446  0.1580 -0.9566
  687SOL    HW1 2746   2.149   0.224   1.117 -0.9467  0.5051 -0.3482
  687SOL    HW2 2747   2.059   0.346   1.131 -1.5079 -1.6223  0.4062
  687SOL     MW 2748   2.116   0.290   1.166 -0.9456 -0.0311 -0.6965
  688SOL     OW 2749   2.368   0.638   1.454  0.2498  0.3768 -0.9577
  688SOL    HW1 2750   2.325   0.565   1.413 -0.6126 -0.9606 -1.7371
  688SOL    HW2 2751   2.322   0.643   1.541  0.9772  0.1839  1.9091
  688SOL     MW 2752   2.357   0.629   1.460  0.2320  0.1749 -0.6823
  689SOL     OW 2753   2.544   0.733   3.001 -0.0725 -0.2876  0.3438
  689SOL    HW1 2754   2.591   0.810   2.967 -0.8245  0.1822 -1.6623
  689SOL    HW2 2755   2.573   0.735   3.100  2.8614  0.0469  1.7610
  689SOL     MW 2756   2.554   0.743   3.009  0.2154 -0.1815  0.2661
  690SOL     OW 2757   2.118   0.925   1.914 -0.2930 -0.1847 -0.2812
  690SOL    HW1 2758   2.035   0.878   1.922  1.3124 -0.9057  0.4813
  690SOL    HW2 2759   2.134   0.910   1.821  0.5080 -1.0923  0.4806
  690SOL     MW 2760   2.109   0.917   1.903  0.0245 -0.3996 -0.0801
  691SOL     OW 2761   2.460   0.270   0.819  0.9584 -0.3401 -0.1366
  691SOL    HW1 2762   2.537   0.311   0.864 -1.1598  0.7898 -1.4505
  691SOL    HW2 2763   2.376   0.319   0.847 -2.2325  1.8124 -0.3328
  691SOL     MW 2764   2.459   0.282   0.828  0.2579  0.0930 -0.3358
  692SOL     OW 2765   2.823   1.655   1.443  0.1631 -1.2209 -0.6040
  692SOL    HW1 2766   2.853   1.613   1.517 -0.3803  3.1407 -3.7380
  692SOL    HW2 2767   2.831   1.743   1.471 -1.6978  0.8430 -0.6372
  692SOL     MW 2768   2.828   1.661   1.456 -0.1541 -0.3731 -1.0219
  693SOL     OW 2769   2.323   0.429   0.121  0.0805  0.3189  0.1073
  693SOL    HW1 2770   2.243   0.381   0.103 -0.9623 -1.1115  2.2364
  693SOL    HW2 2771   2.310   0.516   0.096 -2.2402 -2.5675 -1.1257
  693SOL     MW 2772   2.311   0.434   0.115 -0.3633 -0.2506  0.2255
  694SOL     OW 2773   1.917   1.273   1.092 -0.4850 -0.2706  0.0330
  694SOL    HW1 2774   1.993   1.238   1.139 -0.6791  0.1530 -2.3598
  694SOL    HW2 2775   1.845   1.211   1.113 -0.0779 -0.6981  1.8431
  694SOL     MW 2776   1.917   1.260   1.101 -0.4569 -0.2711 -0.0439
  695SOL     OW 2777   2.985   1.442   1.304  0.2396  0.3604  0.5806
  695SOL    HW1 2778   2.981   1.455   1.210 -0.7725 -1.0682 -0.6856
  695SOL    HW2 2779   2.927   1.502   1.354  0.6958 -1.8590  1.4357
  695SOL     MW 2780   2.977   1.452   1.298  0.1663 -0.1209  0.5264
  696SOL     OW 2781   2.099   1.388   0.895 -0.0049 -0.1234 -0.1801
  696SOL    HW1 2782   2.172   1.430   0.948 -0.1782 -0.4988  1.8985
  696SOL    HW2 2783   2.049   1.348   0.966 -0.9250 -0.4004 -0.9376
  696SOL     MW 2784   2.102   1.388   0.911 -0.1492 -0.2095 -0.0058
  697SOL     OW 2785   2.912   1.096   2.128  0.2777 -0.1762  0.0026
  697SOL    HW1 2786   2.860   1.177   2.151 -2.6459  1.4744  1.1546
  697SOL    HW2 2787   2.845   1.022   2.121 -2.0791 -1.3231 -0.1755
  697SOL     MW 2788   2.896   1.097   2.130 -0.4190 -0.1098  0.1311
  698SOL     OW 2789   2.573   0.310   0.010  0.0678  0.3607  0.0576
  698SOL    HW1 2790   2.502   0.368   0.029 -0.9856  1.1802  1.7161
  698SOL    HW2 2791   2.605   0.276   0.101 -0.8518  2.0119  0.3971
  698SOL     MW 2792   2.568   0.313   0.024 -0.1925  0.6867  0.3212
  699SOL     OW 2793   1.826   1.665   2.062  0.3213  0.7771 -0.2595
  699SOL    HW1 2794   1.798   1.570   2.074  3.1448 -0.9083  1.1501
  699SOL    HW2 2795   1.921   1.652   2.041 -0.5880 -0.9047  1.1195
  699SOL     MW 2796   1.835   1.651   2.060  0.5739  0.3329  0.1084
  700SOL     OW 2797   2.726   0.926   1.578 -0.1654  0.1399 -0.4690
  700SOL    HW1 2798   2.743   0.976   1.495  2.3573 -1.2327  1.2533
  700SOL    HW2 2799   2.778   0.847   1.555 -3.3640  0.2072  0.4436
  700SOL     MW 2800   2.735   0.922   1.564 -0.2545 -0.0323 -0.1213
  701SOL     OW 2801   1.627   1.275   2.538 -0.4012 -0.0989 -0.6377
  701SOL    HW1 2802   1.718   1.292   2.560 -0.4373  1.8813 -4.9583
  701SOL    HW2 2803   1.567   1.314   2.603  1.0252  0.7190 -1.5671
  701SOL     MW 2804   1.631   1.283   2.550 -0.2178  0.2703 -1.3304
  702SOL     OW 2805   2.186   0.388   0.856  0.4151  0.1800  0.4100
  702SOL    HW1 2806   2.149   0.349   0.779 -2.3523  0.9325  0.2804
  702SOL    HW2 2807   2.240   0.454   0.814 -0.2557 -3.1846 -2.9586
  702SOL     MW 2808   2.189   0.392   0.840 -0.0385 -0.1647 -0.0516
  703SOL     OW 2809   2.693   1.279   1.035  0.3757 -0.1018  0.1484
  703SOL    HW1 2810   2.690   1.281   0.934  1.8142 -0.8904 -1.6875
  703SOL    HW2 2811   2.712   1.187   1.070  1.2061  0.6022  2.1051
  703SOL     MW 2812   2.695   1.267   1.026  0.6750 -0.1129  0.1643
  704SOL     OW 2813   3.086   1.328   0.265 -0.0206  0.1157 -0.7212
  704SOL    HW1 2814   3.013   1.280   0.231 -0.0422 -0.0887  1.4251
  704SOL    HW2 2815   3.102   1.291   0.355 -1.7356 -3.7480  2.9317
  704SOL     MW 2816   3.079   1.317   0.272 -0.2497 -0.4210  0.0439
  705SOL     OW 2817   2.196   1.615   1.283  0.4645  0.4750  0.5710
  705SOL    HW1 2818   2.151   1.657   1.342  1.7961  1.8134 -2.0744
  705SOL    HW2 2819   2.195   1.522   1.310  0.3587  2.3969  0.6069
  705SOL     MW 2820   2.190   1.608   1.294  0.6262  0.9052  0.2267
  706SOL     OW 2821   2.949   1.230   0.699 -0.0986 -0.2065  0.2776
  706SOL    HW1 2822   3.031   1.226   0.645  2.3386 -1.6879 -2.9799
  706SOL    HW2 2823   2.936   1.325   0.709  1.0632  0.4377 -0.6446
  706SOL     MW 2824   2.958   1.242   0.693  0.3763 -0.3170 -0.2739
  707SOL     OW 2825   2.377   0.064   0.978 -0.0978  0.1571 -0.5244
  707SOL    HW1 2826   2.411   0.139   0.918  0.4028  0.7977 -1.5183
  707SOL    HW2 2827   2.280   0.062   0.974 -0.1555 -0.6423  0.1409
  707SOL     MW 2828   2.369   0.073   0.969 -0.0394  0.1361 -0.5677
  708SOL     OW 2829   2.555   1.566   0.141  0.4148 -0.1060  0.0541
  708SOL    HW1 2830   2.613   1.488   0.155  0.9249  0.3727 -1.0147
  708SOL    HW2 2831   2.506   1.531   0.066 -1.4174 -0.0016 -1.4783
  708SOL     MW 2832   2.557   1.551   0.133  0.2404 -0.0291 -0.2891
  709SOL     OW 2833   1.726   1.726   0.150  0.0533 -0.0301  0.2769
  709SOL    HW1 2834   1.648   1.755   0.105  2.1159 -2.3814  0.6267
  709SOL    HW2 2835   1.687   1.717   0.235 -0.9666 -0.3240  1.8104
  709SOL     MW 2836   1.710   1.729   0.155  0.1909 -0.3791  0.5253
  710SOL     OW 2837   2.150   1.156   1.202  0.6509  0.4393 -0.2081
  710SOL    HW1 2838   2.210   1.137   1.127  0.7094  1.0649  1.3855
  710SOL    HW2 2839   2.166   1.072   1.244 -0.7009  2.9532  1.5114
  710SOL     MW 2840   2.160   1.142   1.197  0.4803  0.8535  0.2290
  711SOL     OW 2841   2.329   0.125   1.774  0.3875  0.0376  0.1451
  711SOL    HW1 2842   2.425   0.122   1.810 -1.7083  0.1268  0.5316
  711SOL    HW2 2843   2.335   0.123   1.679  0.0787  0.3656  1.3681
  711SOL     MW 2844   2.343   0.125   1.766  0.0702  0.0926  0.3574
  712SOL     OW 2845   1.824   0.605   3.062  1.1881  0.2132  0.0864
  712SOL    HW1 2846   1.812   0.662   2.991  0.7223 -1.4306 -0.2142
  712SOL    HW2 2847   1.846   0.671   3.132 -0.3860 -0.0242  0.7885
  712SOL     MW 2848   1.825   0.621   3.062  0.9189 -0.0350  0.1394
  713SOL     OW 2849   2.592   0.825   1.085 -0.2534  0.0932 -0.2222
  713SOL    HW1 2850   2.641   0.748   1.124 -0.2083 -0.1001  0.0530
  713SOL    HW2 2851   2.540   0.855   1.159 -0.1792 -0.1529  1.3045
  713SOL     MW 2852   2.591   0.819   1.100 -0.2376  0.0352  0.0155
  714SOL     OW 2853   2.166   0.215   1.951  0.0381  0.1516  0.5293
  714SOL    HW1 2854   2.201   0.218   2.040  0.5503 -0.1265 -0.5482
  714SOL    HW2 2855   2.237   0.181   1.899  2.4686  0.1320 -0.5069
  714SOL     MW 2856   2.180   0.211   1.956  0.4263  0.1123  0.2504
  715SOL     OW 2857   1.735   1.908   1.733 -0.2851 -0.2001 -0.2210
  715SOL    HW1 2858   1.829   1.903   1.713 -3.0776  1.3763 -0.3086
  715SOL    HW2 2859   1.709   1.817   1.759 -3.5056 -0.4861  2.4352
  715SOL     MW 2860   1.744   1.895   1.734 -1.0785 -0.0298  0.1179
  716SOL     OW 2861   2.395   0.562   0.734 -0.3893  0.0386  0.0564
  716SOL    HW1 2862   2.425   0.497   0.671 -1.8754  1.3458  1.6435
  716SOL    HW2 2863   2.342   0.620   0.674  0.4187  1.1347 -1.6260
  716SOL     MW 2864   2.392   0.561   0.718 -0.4788  0.3557  0.0439
  717SOL     OW 2865   2.864   1.431   2.901  0.4380 -1.0582  0.1680
  717SOL    HW1 2866   2.960   1.429   2.924 -1.7175 -0.1870  0.0869
  717SOL    HW2 2867   2.827   1.495   2.969  0.0171 -0.8702 -0.4386
  717SOL     MW 2868   2.872   1.439   2.913  0.0981 -0.9184  0.0773
  718SOL     OW 2869   2.513   1.352   1.378 -0.4660  0.2444  0.1068
  718SOL    HW1 2870   2.529   1.407   1.456 -0.5915  1.6348 -3.7284
  718SOL    HW2 2871   2.572   1.278   1.390  1.0343  2.7471 -0.6810
  718SOL     MW 2872   2.523   1.350   1.390 -0.2846  0.7581 -0.5032
  719SOL     OW 2873   2.167   1.344   0.573  0.2618  0.3355 -0.3991
  719SOL    HW1 2874   2.256   1.375   0.559  1.0574  0.5740  2.6044
  719SOL    HW2 2875   2.143   1.358   0.665 -0.0931  1.0471  0.5995
  719SOL     MW 2876   2.176   1.350   0.583  0.3199  0.4608  0.1289
  720SOL     OW 2877   2.891   1.184   0.145  0.0454 -0.4279 -0.0820
  720SOL    HW1 2878   2.864   1.094   0.142 -1.4071  1.5493 -0.3473
  720SOL    HW2 2879   2.812   1.230   0.168  2.7745 -1.7541 -0.8228
  720SOL     MW 2880   2.877   1.178   0.147  0.2138 -0.3420 -0.2147
  721SOL     OW 2881   2.511   0.831   1.364 -0.0597  0.5462  0.3171
  721SOL    HW1 2882   2.459   0.758   1.407  0.1884 -4.9375  0.0033
  721SOL    HW2 2883   2.567   0.842   1.436 -0.5545 -1.2070 -2.4656
  721SOL     MW 2884   2.511   0.823   1.379 -0.0922 -0.4087 -0.0915
  722SOL     OW 2885   2.552   1.181   0.356  0.1885 -0.8859 -0.0503
  722SOL    HW1 2886   2.496   1.247   0.409 -2.1617 -0.7054 -0.3167
  722SOL    HW2 2887   2.618   1.152   0.419  1.7159 -2.7005  1.9549
  722SOL     MW 2888   2.553   1.186   0.371  0.0800 -1.1015  0.1791
  723SOL     OW 2889   2.224   1.376   1.649  0.2180  0.0210  0.1074
  723SOL    HW1 2890   2.224   1.339   1.563 -0.0992  1.7403  0.2477
  723SOL    HW2 2891   2.167   1.450   1.648  2.5436  0.2051 -0.4182
  723SOL     MW 2892   2.216   1.381   1.637  0.4830  0.2721  0.0566
  724SOL     OW 2893   2.499   0.387   0.552  0.3089  0.3373 -0.0390
  724SOL    HW1 2894   2.478   0.316   0.615 -2.2440  0.0719  1.1962
  724SOL    HW2 2895   2.594   0.399   0.546  1.0832  2.6456  2.2331
  724SOL     MW 2896   2.509   0.379   0.560  0.0742  0.6068  0.4237
  725SOL     OW 2897   2.576   0.528   1.126 -0.3124  0.1382 -0.1301
  725SOL    HW1 2898   2.601   0.518   1.215 -1.8911  0.9679  4.0818
  725SOL    HW2 2899   2.482   0.518   1.142  0.6435  0.5156  0.7558
  725SOL     MW 2900   2.567   0.526   1.140 -0.3946  0.2975  0.5425
  726SOL     OW 2901   2.589   2.427   0.550  0.1455 -0.2768  0.1940
  726SOL    HW1 2902   2.511   2.446   0.497  3.1315  2.0417  0.9376
  726SOL    HW2 2903   2.566   2.358   0.609  0.9829 -0.0270 -1.2389
  726SOL     MW 2904   2.576   2.421   0.551  0.6500  0.0621  0.1030
  727SOL     OW 2905   2.910   0.266   1.582  0.6693 -0.4688 -0.1642
  727SOL    HW1 2906   2.939   0.308   1.496 -0.1967  0.3446 -1.7270
  727SOL    HW2 2907   2.814   0.279   1.582 -0.1227 -1.2192 -0.3773
  727SOL     MW 2908   2.901   0.273   1.570  0.4506 -0.4605 -0.3985
  728SOL     OW 2909   2.813   1.167   2.977  0.3275  0.4214  0.3182
  728SOL    HW1 2910   2.808   1.255   2.939 -4.6864 -0.1749 -0.8839
  728SOL    HW2 2911   2.859   1.188   3.059 -0.7281  0.0311 -1.9223
  728SOL     MW 2912   2.819   1.181   2.983 -0.4733  0.2912 -0.1360
  729SOL     OW 2913   2.564   1.510   1.152 -0.0853  0.5101 -0.2396
  729SOL    HW1 2914   2.526   1.452   1.219  1.9757 -0.7669 -4.3150
  729SOL    HW2 2915   2.639   1.455   1.117  2.0911  1.0426  0.6731
  729SOL     MW 2916   2.569   1.495   1.156  0.4738  0.4119 -0.6569
  730SOL     OW 2917   2.117   1.116   0.290  0.3384 -0.1741 -0.0187
  730SOL    HW1 2918   2.212   1.104   0.280 -0.2700  2.1118  0.4333
  730SOL    HW2 2919   2.108   1.211   0.303 -3.0530  1.3969 -0.3254
  730SOL     MW 2920   2.128   1.127   0.290 -0.1893  0.3348  0.0005
  731SOL     OW 2921   2.805   1.847   2.883 -0.1921  0.2715 -0.6363
  731SOL    HW1 2922   2.738   1.905   2.846  2.4167  1.3709  1.1276
  731SOL    HW2 2923   2.877   1.909   2.891  1.1181 -2.3498 -0.3743
  731SOL     MW 2924   2.805   1.863   2.880  0.3250  0.0707 -0.3690
  732SOL     OW 2925   2.233   0.917   1.299 -0.1973 -0.9796 -0.3678
  732SOL    HW1 2926   2.176   0.949   1.371 -0.4901  2.1296 -2.3657
  732SOL    HW2 2927   2.323   0.893   1.331 -0.0889  0.2443 -2.9018
  732SOL     MW 2928   2.237   0.918   1.313 -0.2216 -0.4079 -0.9657
  733SOL     OW 2929   2.359   2.814   3.054  0.6489 -0.0192 -0.5296
  733SOL    HW1 2930   2.284   2.864   3.022  0.3197  2.4544 -0.1786
  733SOL    HW2 2931   2.339   2.718   3.054 -1.8793  1.8199  0.1919
  733SOL     MW 2932   2.346   2.808   3.050  0.2719  0.5498 -0.3881
  734SOL     OW 2933   1.493   0.359   2.473  0.2877 -0.2637  0.0434
  734SOL    HW1 2934   1.466   0.334   2.566 -2.1454  0.5587  0.5756
  734SOL    HW2 2935   1.520   0.276   2.428  0.0991  2.4908  1.0250
  734SOL     MW 2936   1.493   0.345   2.480 -0.0582  0.2082  0.2431
  735SOL     OW 2937   3.010   0.962   2.593 -0.4142 -0.7593 -0.4602
  735SOL    HW1 2938   3.000   0.873   2.621 -0.5492  0.2980  0.3460
  735SOL    HW2 2939   3.035   1.010   2.673  0.9920 -2.2502  0.9020
  735SOL     MW 2940   3.012   0.956   2.607 -0.2465 -0.8166 -0.1741
  736SOL     OW 2941   0.061   0.588   2.549  0.2481  0.7455  0.1738
  736SOL    HW1 2942   0.102   0.639   2.476 -0.3925 -0.6054 -2.5556
  736SOL    HW2 2943   0.035   0.503   2.504 -0.2842 -0.0552  0.7741
  736SOL     MW 2944   0.063   0.584   2.533  0.0934  0.4616 -0.1071
  737SOL     OW 2945   2.926   0.696   2.622  0.1691 -0.0451  0.0182
  737SOL    HW1 2946   2.857   0.676   2.555  0.5335  0.6685 -0.1571
  737SOL    HW2 2947   3.008   0.659   2.588 -0.4148 -1.5981  2.1602
  737SOL     MW 2948   2.928   0.688   2.608  0.1402 -0.1559  0.2777
  738SOL     OW 2949   0.168   0.530   1.957  0.1154 -0.0893 -0.0505
  738SOL    HW1 2950   0.239   0.564   2.008 -1.9218  1.0987 -0.7197
  738SOL    HW2 2951   0.210   0.464   1.898 -3.9611  0.1859 -1.0673
  738SOL     MW 2952   0.183   0.526   1.956 -0.6913  0.1038 -0.2730
  739SOL     OW 2953   2.526   0.963   2.159 -0.1274  0.6897  0.2465
  739SOL    HW1 2954   2.432   0.944   2.145  1.2634 -1.5451 -1.1292
  739SOL    HW2 2955   2.549   0.992   2.070 -0.2763  0.7122  0.4913
  739SOL     MW 2956   2.517   0.965   2.145  0.0365  0.3978  0.0973
  740SOL     OW 2957   0.122   1.777   2.955  0.3951 -0.2474  0.1684
  740SOL    HW1 2958   0.075   1.696   2.942 -0.0719  1.8568 -2.7254
  740SOL    HW2 2959   0.209   1.750   2.992 -0.1966  1.6138  1.5591
  740SOL     MW 2960   0.127   1.763   2.958  0.2554  0.2758 -0.0299
  741SOL     OW 2961   2.231   1.224   2.705 -0.0857  0.4747 -0.5700
  741SOL    HW1 2962   2.209   1.309   2.665  2.5042 -2.2747 -2.3034
  741SOL    HW2 2963   2.203   1.235   2.795  1.2614  1.2465 -0.5663
  741SOL     MW 2964   2.225   1.237   2.711  0.4337  0.2138 -0.7982
  742SOL     OW 2965   1.644   1.378   2.276 -0.3278 -0.1209  0.1110
  742SOL    HW1 2966   1.599   1.294   2.267  0.0359 -0.5296  0.3448
  742SOL    HW2 2967   1.636   1.397   2.365 -1.5777 -0.8422 -2.3354
  742SOL     MW 2968   1.637   1.370   2.286 -0.4447 -0.2700 -0.1809
  743SOL     OW 2969   2.509   1.247   2.718  0.4045 -0.2221  0.6690
  743SOL    HW1 2970   2.415   1.227   2.707  2.4458  1.0992 -1.3188
  743SOL    HW2 2971   2.555   1.173   2.743 -1.1751  4.3393 -1.4935
  743SOL     MW 2972   2.503   1.234   2.720  0.4654  0.5541  0.1214
  744SOL     OW 2973   2.798   0.990   1.833  0.3147  0.0019  0.2947
  744SOL    HW1 2974   2.719   1.016   1.882  0.2177 -0.8080  0.2837
  744SOL    HW2 2975   2.763   0.957   1.750  0.1273  1.5397 -0.8015
  744SOL     MW 2976   2.783   0.989   1.829  0.2772  0.0980  0.1486
  745SOL     OW 2977   1.791   0.436   2.461  0.0224 -0.0426  0.1914
  745SOL    HW1 2978   1.802   0.417   2.368  0.0487 -0.7323  0.4033
  745SOL    HW2 2979   1.694   0.452   2.463 -1.0772  0.7216  1.2661
  745SOL     MW 2980   1.780   0.436   2.449 -0.1192 -0.0328  0.3612
  746SOL     OW 2981   1.503   1.476   1.683  0.1828 -0.0583 -0.2205
  746SOL    HW1 2982   1.583   1.527   1.680 -1.4523 -0.0856 -1.5470
  746SOL    HW2 2983   1.495   1.434   1.771 -0.3082 -1.5921  1.0580
  746SOL     MW 2984   1.513   1.477   1.694 -0.0977 -0.2643 -0.2269
  747SOL     OW 2985   2.550   1.128   1.912 -0.2769  0.2900 -0.3837
  747SOL    HW1 2986   2.473   1.151   1.858 -0.5700 -1.0472  2.2665
  747SOL    HW2 2987   2.574   1.211   1.957 -1.0086 -0.0328 -0.9745
  747SOL     MW 2988   2.543   1.142   1.911 -0.4122  0.0710 -0.1120
  748SOL     OW 2989   0.076   3.059   1.914  0.0097 -0.1554 -0.3123
  748SOL    HW1 2990   0.153   3.009   1.936  0.3170  0.0934  1.4434
  748SOL    HW2 2991   0.072   3.130   1.973  1.9445 -0.2122 -2.3135
  748SOL     MW 2992   0.086   3.062   1.925  0.3055 -0.1301 -0.3447
  749SOL     OW 2993   2.462   0.581   2.772  0.2146 -0.5699  0.2074
  749SOL    HW1 2994   2.444   0.673   2.740 -0.1795  1.4326 -1.0143
  749SOL    HW2 2995   2.469   0.593   2.867 -1.5370 -1.3118 -2.9156
  749SOL     MW 2996   2.460   0.595   2.780 -0.0685 -0.4036 -0.3659
  750SOL     OW 2997   2.065   3.060   1.952  0.4881  0.3214 -0.1364
  750SOL    HW1 2998   2.112   3.142   1.959 -1.3814 -2.6974 -3.0576
  750SOL    HW2 2999   2.139   2.993   1.974  0.1495 -1.2399  2.4908
  750SOL     MW 3000   2.081   3.062   1.956  0.1968 -0.2829 -0.1752
  751SOL     OW 3001   0.013   0.382   2.400  0.1111 -0.5443 -0.0298
  751SOL    HW1 3002  -0.076   0.397   2.378 -0.1979 -0.8930 -0.1955
  751SOL    HW2 3003   0.063   0.362   2.319  0.0009  0.2785  0.3864
  751SOL     MW 3004   0.008   0.381   2.386  0.0558 -0.4817  0.0032
  752SOL     OW 3005   2.127   0.902   2.761  0.1715  0.0720 -0.6059
  752SOL    HW1 3006   2.215   0.941   2.746  0.4248 -1.6377 -1.7422
  752SOL    HW2 3007   2.114   0.894   2.859  0.4315 -0.6909 -1.5831
  752SOL     MW 3008   2.137   0.906   2.772  0.2392 -0.2543 -0.8848
  753SOL     OW 3009   2.847   0.430   2.325  0.4817 -0.1057  0.7535
  753SOL    HW1 3010   2.793   0.352   2.327 -0.6295  1.6081  0.3059
  753SOL    HW2 3011   2.785   0.504   2.345  0.9148  1.1476 -1.1438
  753SOL     MW 3012   2.832   0.430   2.328  0.3923  0.2858  0.4441
  754SOL     OW 3013   2.258   3.002   2.601 -0.3840  0.3461 -0.3248
  754SOL    HW1 3014   2.289   3.003   2.505 -0.2522  0.1026 -0.5144
  754SOL    HW2 3015   2.321   2.946   2.656  0.0417 -0.9041  0.4495
  754SOL     MW 3016   2.270   2.995   2.596 -0.3104  0.1490 -0.2476
  755SOL     OW 3017   2.785   1.596   2.489 -0.6957  0.3125  0.1717
  755SOL    HW1 3018   2.779   1.509   2.528  1.0373 -1.3024 -0.7489
  755SOL    HW2 3019   2.832   1.638   2.561  1.0556 -0.0874 -0.8369
  755SOL     MW 3020   2.791   1.590   2.504 -0.2360  0.0467 -0.0828
  756SOL     OW 3021   2.246   1.269   2.975  0.1268 -0.1088  0.3485
  756SOL    HW1 3022   2.316   1.335   3.001  2.3648  2.9433 -0.5547
  756SOL    HW2 3023   2.273   1.178   2.980  1.2411  0.7584 -0.0263
  756SOL     MW 3024   2.259   1.266   2.979  0.5691  0.4083  0.1799
  757SOL     OW 3025   2.196   0.937   1.643 -0.2975  0.2756 -0.0021
  757SOL    HW1 3026   2.209   0.842   1.642 -0.0419 -2.0011  0.0068
  757SOL    HW2 3027   2.123   0.966   1.588  1.6577 -0.6548 -0.2716
  757SOL     MW 3028   2.188   0.928   1.635 -0.0058 -0.1475 -0.0365
  758SOL     OW 3029   2.263   1.792   2.629 -0.2308 -0.2726  0.0944
  758SOL    HW1 3030   2.255   1.805   2.532  0.3102 -0.5970  1.2975
  758SOL    HW2 3031   2.346   1.751   2.640 -0.0112 -1.6218  0.0318
  758SOL     MW 3032   2.273   1.789   2.618 -0.1305 -0.4935  0.2449
  759SOL     OW 3033   1.538   1.425   2.786  0.1457 -0.0978  0.3439
  759SOL    HW1 3034   1.537   1.514   2.738  0.8535  3.2612  1.4298
  759SOL    HW2 3035   1.625   1.408   2.814 -0.6906  0.5784 -1.0647
  759SOL     MW 3036   1.549   1.434   2.783  0.1287  0.4346  0.3014
  760SOL     OW 3037   2.657   1.979   2.675  0.8643 -0.4614 -0.4880
  760SOL    HW1 3038   2.614   1.893   2.681  2.1371  2.6726 -1.3455
  760SOL    HW2 3039   2.733   1.956   2.629  1.1074  3.5991  1.3090
  760SOL     MW 3040   2.661   1.965   2.669  1.0643  0.4878 -0.3641
  761SOL     OW 3041   2.174   0.453   2.445 -0.1650 -0.2797  0.1067
  761SOL    HW1 3042   2.117   0.382   2.420 -1.8664 -0.7839 -2.0397
  761SOL    HW2 3043   2.139   0.494   2.532  0.8533  3.9012  1.0432
  761SOL     MW 3044   2.161   0.449   2.453 -0.2551  0.2054 -0.0530
  762SOL     OW 3045   0.025   0.150   2.088 -0.3804  0.0671  0.3310
  762SOL    HW1 3046   0.007   0.117   2.176  0.9856  1.8968  1.1345
  762SOL    HW2 3047  -0.039   0.219   2.074 -1.3714 -0.6171  1.0075
  762SOL     MW 3048   0.014   0.155   2.098 -0.3309  0.2182  0.5263
  763SOL     OW 3049   2.456   1.160   2.366  0.2876 -0.3206 -0.3669
  763SOL    HW1 3050   2.512   1.101   2.313  0.5300 -1.7096  2.1967
  763SOL    HW2 3051   2.515   1.223   2.406 -0.6783  2.3029 -2.1941
  763SOL     MW 3052   2.471   1.160   2.364  0.1922 -0.1577 -0.2697
  764SOL     OW 3053   0.332   0.182   2.797 -0.2267 -0.0794  0.3212
  764SOL    HW1 3054   0.261   0.214   2.747  2.3733  0.0134  1.0090
  764SOL    HW2 3055   0.367   0.260   2.837 -2.4324  1.8647  3.1643
  764SOL     MW 3056   0.327   0.197   2.796 -0.1747  0.1893  0.7870
  765SOL     OW 3057   2.753   0.175   2.317  0.0943 -0.1607 -0.2898
  765SOL    HW1 3058   2.710   0.120   2.247  0.3582 -1.5395  0.9118
  765SOL    HW2 3059   2.793   0.108   2.375 -1.3636 -0.9462  2.0010
  765SOL     MW 3060   2.752   0.159   2.315 -0.0632 -0.4463  0.1710
  766SOL     OW 3061   1.847   2.999   2.099 -0.1700 -0.1298  0.1892
  766SOL    HW1 3062   1.917   3.009   2.037 -2.2672  0.8865 -0.1474
  766SOL    HW2 3063   1.792   2.948   2.041  0.6543 -0.5050  1.0698
  766SOL     MW 3064   1.849   2.994   2.083 -0.3380 -0.0452  0.2609
  767SOL     OW 3065   2.700   0.620   1.917 -0.2901 -0.2817 -0.8460
  767SOL    HW1 3066   2.756   0.666   1.982 -0.2645  1.3472  0.7516
  767SOL    HW2 3067   2.607   0.641   1.941 -0.4894 -0.2238 -4.2226
  767SOL     MW 3068   2.695   0.629   1.928 -0.3130 -0.0591 -1.0807
  768SOL     OW 3069   0.026   1.473   2.952 -0.2671  0.3091  0.1016
  768SOL    HW1 3070   0.057   1.502   3.040 -1.5001  0.8049 -0.2850
  768SOL    HW2 3071   0.078   1.396   2.930  0.6827  3.5144 -2.4895
  768SOL     MW 3072   0.037   1.466   2.961 -0.3045  0.7974 -0.2913
  769SOL     OW 3073   2.387   0.633   2.471 -0.4961 -0.5960 -0.2294
  769SOL    HW1 3074   2.311   0.567   2.474 -0.4804 -0.3281  1.6799
  769SOL    HW2 3075   2.424   0.631   2.385  0.2807  1.0787  1.2856
  769SOL     MW 3076   2.382   0.624   2.460 -0.3916 -0.3397  0.2224
  770SOL     OW 3077   0.059   1.610   2.611 -0.2200 -0.4789 -1.0000
  770SOL    HW1 3078  -0.029   1.610   2.647  0.0503 -0.4616 -0.9213
  770SOL    HW2 3079   0.089   1.523   2.640  0.6430  2.6597 -0.3290
  770SOL     MW 3080   0.052   1.598   2.620 -0.0705 -0.0625 -0.9011
  771SOL     OW 3081   3.001   0.584   1.972  0.6614  0.3806  0.1759
  771SOL    HW1 3082   2.958   0.557   1.887  0.1783  1.7904 -2.1529
  771SOL    HW2 3083   3.091   0.565   1.969 -2.1077  1.1677 -0.8654
  771SOL     MW 3084   3.008   0.578   1.960  0.2323  0.6704 -0.2687
  772SOL     OW 3085   0.035   3.093   2.307  0.4053  0.4026 -0.0284
  772SOL    HW1 3086  -0.054   3.081   2.339 -0.1754  2.1315 -1.4923
  772SOL    HW2 3087   0.075   3.009   2.280  1.2273  1.2894  0.6428
  772SOL     MW 3088   0.029   3.080   2.308  0.4371  0.7477 -0.1330
  773SOL     OW 3089   2.448   2.862   2.789 -0.7681  1.1504 -0.2305
  773SOL    HW1 3090   2.454   2.773   2.753 -0.7490 -2.0535 -1.3178
  773SOL    HW2 3091   2.411   2.849   2.879 -1.9108 -0.6908 -0.8201
  773SOL     MW 3092   2.444   2.849   2.796 -0.9163  0.4848 -0.4518
  774SOL     OW 3093   2.294   1.172   1.812  0.1776  0.0886 -0.4685
  774SOL    HW1 3094   2.268   1.235   1.742  2.0127  1.3288 -0.4083
  774SOL    HW2 3095   2.269   1.082   1.774 -0.3441  1.0065  1.1444
  774SOL     MW 3096   2.287   1.169   1.798  0.3509  0.3733 -0.2477
  775SOL     OW 3097   2.309   2.987   2.332  0.3884 -0.0261 -0.0630
  775SOL    HW1 3098   2.333   3.052   2.259  2.7208  0.5894  0.5027
  775SOL    HW2 3099   2.351   2.905   2.320 -1.0748  0.3682 -0.0764
  775SOL     MW 3100   2.318   2.985   2.321  0.5031  0.1071  0.0099
  776SOL     OW 3101   0.101   1.497   0.112  0.1071 -0.2001 -0.5575
  776SOL    HW1 3102   0.191   1.456   0.101  0.0995 -1.3712 -2.2793
  776SOL    HW2 3103   0.057   1.436   0.172 -2.7691  1.8522 -1.4825
  776SOL     MW 3104   0.107   1.484   0.119 -0.2734 -0.0838 -0.9067
  777SOL     OW 3105   3.014   1.125   1.717 -0.6213 -0.5430 -0.1642
  777SOL    HW1 3106   2.984   1.122   1.632  0.4451  2.3319  0.7552
  777SOL    HW2 3107   2.939   1.092   1.762 -0.2309 -1.4186 -1.1618
  777SOL     MW 3108   3.000   1.120   1.712 -0.4291 -0.2792 -0.1745
  778SOL     OW 3109   2.813   0.437   2.714  0.7507  0.7442  0.6634
  778SOL    HW1 3110   2.769   0.457   2.795 -0.2916 -2.3051 -1.9733
  778SOL    HW2 3111   2.841   0.523   2.679 -2.1044  0.0529  1.0882
  778SOL     MW 3112   2.811   0.451   2.720  0.2365  0.2507  0.3716
  779SOL     OW 3113   2.245   0.551   2.197  0.0856 -0.2529  0.0463
  779SOL    HW1 3114   2.239   0.647   2.207  0.6902  0.4012  3.9333
  779SOL    HW2 3115   2.195   0.522   2.268  2.5288  1.3093 -0.7660
  779SOL     MW 3116   2.238   0.560   2.208  0.4877  0.0395  0.4520
  780SOL     OW 3117   0.116   0.314   2.671  0.3402 -0.2729 -0.1791
  780SOL    HW1 3118   0.070   0.337   2.754  2.8148  1.7356  0.8606
  780SOL    HW2 3119   0.156   0.404   2.653 -0.1485  0.8640 -0.5613
  780SOL     MW 3120   0.115   0.329   2.679  0.6022  0.1421 -0.0923
  781SOL     OW 3121   3.074   1.295   2.457  0.3060 -0.0736  0.3475
  781SOL    HW1 3122   3.054   1.363   2.396 -1.4084 -1.6099  1.3924
  781SOL    HW2 3123   3.093   1.214   2.407  1.2998 -1.7678  0.1746
  781SOL     MW 3124   3.074   1.293   2.442  0.2110 -0.4998  0.4625
  782SOL     OW 3125   0.656   1.581   0.015  0.2864  0.0321  0.0172
  782SOL    HW1 3126   0.591   1.639  -0.011 -0.4128  1.9376 -1.7801
  782SOL    HW2 3127   0.683   1.615   0.100  0.3757 -1.9607 -2.4629
  782SOL     MW 3128   0.651   1.593   0.023  0.2059  0.0206 -0.5472
  783SOL     OW 3129   2.692   0.639   2.452 -0.4002 -0.0052 -0.2270
  783SOL    HW1 3130   2.658   0.664   2.367  3.1398  0.4610 -2.3603
  783SOL    HW2 3131   2.637   0.568   2.492 -0.7924 -2.4643 -0.2486
  783SOL     MW 3132   2.680   0.633   2.446  0.0151 -0.2682 -0.5113
  784SOL     OW 3133   0.148   0.831   2.862 -0.5478 -0.6426 -0.2515
  784SOL    HW1 3134   0.067   0.867   2.843  2.9899 -0.6007 -1.0553
  784SOL    HW2 3135   0.208   0.864   2.789  1.1026  0.0612  1.2165
  784SOL     MW 3136   0.145   0.840   2.850  0.1367 -0.5442 -0.1639
  785SOL     OW 3137   0.422   0.467   2.175 -0.4976  0.2153 -0.0095
  785SOL    HW1 3138   0.426   0.504   2.088 -1.1965 -2.9126  1.4971
  785SOL    HW2 3139   0.349   0.410   2.181  0.5425  2.7800 -1.1783
  785SOL     MW 3140   0.413   0.464   2.165 -0.4526  0.1410  0.0351
  786SOL     OW 3141   1.915   0.391   2.958  0.1157 -0.0407  0.0629
  786SOL    HW1 3142   1.875   0.464   3.004  0.8779  0.2175  0.0622
  786SOL    HW2 3143   1.979   0.410   2.893  0.0665 -0.5167  0.5233
  786SOL     MW 3144   1.918   0.403   2.956  0.2098 -0.0695  0.1235
  787SOL     OW 3145   2.468   0.088   2.975 -0.3321  0.1551  0.4331
  787SOL    HW1 3146   2.548   0.039   2.942  0.0105  0.1938 -0.1283
  787SOL    HW2 3147   2.512   0.171   2.998  0.2555  0.7081 -2.0088
  787SOL     MW 3148   2.485   0.092   2.974 -0.2094  0.2332  0.0369
  788SOL     OW 3149   2.867   3.035   2.434 -0.3323 -0.3504 -0.2620
  788SOL    HW1 3150   2.919   3.044   2.517  1.5049 -1.0350 -2.0692
  788SOL    HW2 3151   2.868   2.944   2.415  0.7817  1.4131 -1.0560
  788SOL     MW 3152   2.874   3.024   2.442  0.0571 -0.2080 -0.6052
  789SOL     OW 3153   0.064   0.196   3.034  0.1310  0.1277  0.0583
  789SOL    HW1 3154  -0.006   0.137   3.072  1.2920 -1.2578 -0.5147
  789SOL    HW2 3155   0.034   0.245   2.958  1.5677 -2.4244  0.6233
  789SOL     MW 3156   0.051   0.195   3.029  0.4737 -0.3918  0.0573
  790SOL     OW 3157   3.094   1.063   2.340  0.3536  0.3948 -0.4063
  790SOL    HW1 3158   3.074   1.011   2.416  2.1429 -1.0098 -1.9914
  790SOL    HW2 3159   3.012   1.054   2.287 -0.7924 -0.5083 -2.7394
  790SOL     MW 3160   3.080   1.055   2.343  0.4385  0.0903 -0.9233
  791SOL     OW 3161   2.564   0.427   2.575  0.2964 -0.3765 -0.0417
  791SOL    HW1 3162   2.528   0.498   2.640  0.8278  2.5181 -0.9233
  791SOL    HW2 3163   2.644   0.401   2.623  1.0785 -1.9621  2.0604
  791SOL     MW 3164   2.570   0.433   2.590  0.4697 -0.2038  0.1193
  792SOL     OW 3165   2.334   0.191   2.415  0.0243  0.1652 -0.2278
  792SOL    HW1 3166   2.327   0.281   2.429  0.6733 -1.9963  0.6701
  792SOL    HW2 3167   2.348   0.172   2.508  0.7748  0.1382 -1.5901
  792SOL     MW 3168   2.335   0.200   2.429  0.2089 -0.1236 -0.2891
  793SOL     OW 3169   1.959   1.204   1.977  0.3632  0.6135 -0.2885
  793SOL    HW1 3170   1.935   1.202   1.885 -1.3787  2.5193  2.4226
  793SOL    HW2 3171   2.042   1.161   1.991  0.4691 -1.9588  0.1253
  793SOL     MW 3172   1.967   1.198   1.967  0.1473  0.5256  0.1238
  794SOL     OW 3173   1.410   2.371   0.133 -0.2053  0.0780 -0.1246
  794SOL    HW1 3174   1.434   2.456   0.105 -0.2286 -3.2376  1.3946
  794SOL    HW2 3175   1.476   2.357   0.204 -0.4777 -0.7840  0.8042
  794SOL     MW 3176   1.422   2.380   0.139 -0.2443 -0.4732  0.1984
  795SOL     OW 3177   2.311   0.997   2.545 -0.2916  0.1527  0.3494
  795SOL    HW1 3178   2.262   1.062   2.600 -0.4203  1.5127 -2.4427
  795SOL    HW2 3179   2.356   1.046   2.479 -1.1874 -0.3763  0.0145
  795SOL     MW 3180   2.310   1.012   2.544 -0.4268  0.2623 -0.0632
  796SOL     OW 3181   0.245   0.587   2.777 -0.4470 -0.8219  0.3111
  796SOL    HW1 3182   0.222   0.668   2.831 -0.8830  0.9693  1.5912
  796SOL    HW2 3183   0.189   0.597   2.699 -0.4915 -2.5385 -0.7709
  796SOL     MW 3184   0.234   0.599   2.774 -0.5104 -0.8120  0.3372
  797SOL     OW 3185   2.606   0.155   2.582  0.2725 -0.4344 -0.0529
  797SOL    HW1 3186   2.590   0.250   2.567  1.8040  4.4268  1.2290
  797SOL    HW2 3187   2.656   0.123   2.510 -2.2646  1.1943  1.0110
  797SOL     MW 3188   2.611   0.163   2.570  0.1398  0.4218  0.2566
  798SOL     OW 3189   2.319   0.092   2.156 -0.9097  0.6457  0.3730
  798SOL    HW1 3190   2.320   0.138   2.239 -0.0908 -4.4660  2.1316
  798SOL    HW2 3191   2.412   0.090   2.132 -0.7298 -0.2114  2.4937
  798SOL     MW 3192   2.331   0.098   2.164 -0.7780 -0.1418  0.8848
  799SOL     OW 3193   2.561   2.937   0.116  0.0165 -0.3503 -0.1323
  799SOL    HW1 3194   2.485   2.885   0.088 -0.4246 -1.7658  0.1611
  799SOL    HW2 3195   2.551   2.974   0.200  0.0662 -0.2115 -0.1966
  799SOL     MW 3196   2.549   2.935   0.123 -0.0352 -0.5188 -0.1020
  800SOL     OW 3197   1.920   0.031   1.703  0.1837 -0.0225 -0.2471
  800SOL    HW1 3198   1.858  -0.035   1.676  0.6125  0.3414 -0.0687
  800SOL    HW2 3199   1.969  -0.003   1.781 -0.2933 -0.7661 -1.3032
  800SOL     MW 3200   1.918   0.018   1.710  0.1773 -0.0726 -0.3629
  801SOL     OW 3201   2.816   1.255   2.615 -0.0731  0.1370  0.0109
  801SOL    HW1 3202   2.791   1.164   2.634  0.6314  0.4112  0.5968
  801SOL    HW2 3203   2.897   1.245   2.570 -1.0872  1.4335 -2.2219
  801SOL     MW 3204   2.824   1.241   2.612 -0.1139  0.3443 -0.2064
  802SOL     OW 3205   2.582   1.482   2.815  0.0723  0.0875 -0.2791
  802SOL    HW1 3206   2.536   1.395   2.801 -2.4518  1.4937 -1.9410
  802SOL    HW2 3207   2.680   1.460   2.820  1.0571  0.9310 -0.9335
  802SOL     MW 3208   2.589   1.467   2.813 -0.1308  0.3843 -0.5847
  803SOL     OW 3209   2.237   1.400   2.019  0.3591  0.4354 -0.4115
  803SOL    HW1 3210   2.234   1.367   2.109  0.4864 -1.2690 -1.4692
  803SOL    HW2 3211   2.264   1.318   1.979  1.9745  0.7481  2.4829
  803SOL     MW 3212   2.240   1.384   2.026  0.5891  0.2518 -0.1692
  804SOL     OW 3213   2.259   0.098   0.032  0.3332  0.4707 -0.0063
  804SOL    HW1 3214   2.213   0.187   0.037  3.0746  1.3344 -0.5413
  804SOL    HW2 3215   2.328   0.105  -0.035 -2.2918  0.3563  0.8315
  804SOL     MW 3216   2.262   0.111   0.024  0.3485  0.5696  0.0337
  805SOL     OW 3217   2.719   0.967   2.613  0.0411  0.6327 -0.3984
  805SOL    HW1 3218   2.651   0.900   2.594  0.2265  1.2652 -0.1009
  805SOL    HW2 3219   2.808   0.927   2.604  0.0494  1.7520 -0.4049
  805SOL     MW 3220   2.721   0.953   2.609  0.0666  0.8639 -0.3600
  806SOL     OW 3221   2.550   0.626   2.215  0.4074 -0.0014  0.0503
  806SOL    HW1 3222   2.476   0.571   2.209  3.5031 -0.5557  0.7985
  806SOL    HW2 3223   2.533   0.692   2.148  0.6540  1.0882 -0.0330
  806SOL     MW 3224   2.538   0.628   2.206  0.8484  0.0692  0.1381
  807SOL     OW 3225   0.093   1.119   2.062 -0.5616  1.0531  0.4621
  807SOL    HW1 3226   0.141   1.042   2.049 -1.2437  1.1416  3.3432
  807SOL    HW2 3227   0.005   1.099   2.084  2.4477  1.7430 -1.3471
  807SOL     MW 3228   0.088   1.106   2.063 -0.2546  1.1558  0.6035
  808SOL     OW 3229   2.663   3.041   2.794  0.4753 -0.1994  0.2734
  808SOL    HW1 3230   2.584   2.985   2.797 -1.8759 -1.5254  2.5125
  808SOL    HW2 3231   2.644   3.102   2.725 -0.2901 -1.3090  2.5610
  808SOL     MW 3232   2.650   3.042   2.785  0.0641 -0.5207  0.8706
  809SOL     OW 3233   2.592   1.373   2.451  0.4484  0.0981  0.0758
  809SOL    HW1 3234   2.621   1.340   2.536  1.0117 -4.9075  1.2208
  809SOL    HW2 3235   2.675   1.368   2.395 -0.3733  0.7356  1.1192
  809SOL     MW 3236   2.607   1.368   2.455  0.4143 -0.4782  0.3645
  810SOL     OW 3237   2.222   1.323   2.297 -0.2796  0.0858 -0.0571
  810SOL    HW1 3238   2.281   1.254   2.317  0.2583  1.9005 -2.4632
  810SOL    HW2 3239   2.170   1.342   2.373  1.3674 -1.3975 -0.9035
  810SOL     MW 3240   2.223   1.316   2.309  0.0086  0.1296 -0.4862
  811SOL     OW 3241   1.538   0.144   2.309  0.2690 -0.3538 -0.2415
  811SOL    HW1 3242   1.621   0.095   2.325  1.2303  2.1793 -2.8760
  811SOL    HW2 3243   1.528   0.134   2.214 -0.5402  1.7491 -0.6477
  811SOL     MW 3244   1.548   0.136   2.299  0.2891  0.2579 -0.6427
  812SOL     OW 3245   1.448   2.791   2.005  0.1445  0.0879  0.1657
  812SOL    HW1 3246   1.532   2.811   1.960 -1.0354 -2.3149  0.5210
  812SOL    HW2 3247   1.480   2.777   2.094  0.8477 -1.7066 -2.5693
  812SOL     MW 3248   1.463   2.792   2.011  0.0816 -0.4659 -0.1483
  813SOL     OW 3249   1.965   0.672   2.260 -0.4210  1.1290  0.1633
  813SOL    HW1 3250   1.901   0.601   2.239 -1.3692 -2.2322 -0.3082
  813SOL    HW2 3251   1.922   0.756   2.278  2.3119  0.0150  1.6039
  813SOL     MW 3252   1.951   0.674   2.260 -0.1856  0.5385  0.2911
  814SOL     OW 3253   2.694   1.277   1.643  0.0474  0.1897  0.0655
  814SOL    HW1 3254   2.673   1.212   1.715  2.1396  1.7334 -0.0600
  814SOL    HW2 3255   2.701   1.222   1.565  0.8452  2.4050  2.9954
  814SOL     MW 3256   2.692   1.261   1.643  0.4287  0.6856  0.4355
  815SOL     OW 3257   2.575   1.738   2.408 -0.2752 -0.7171  0.2715
  815SOL    HW1 3258   2.504   1.678   2.421 -2.0279  0.5318 -1.3675
  815SOL    HW2 3259   2.657   1.693   2.443  2.0285 -0.0404  3.9013
  815SOL     MW 3260   2.577   1.724   2.414 -0.2025 -0.4630  0.5341
  816SOL     OW 3261   0.714   0.713   2.722  0.3786  0.6500  0.5344
  816SOL    HW1 3262   0.763   0.633   2.743 -0.7548 -2.4421  2.2580
  816SOL    HW2 3263   0.620   0.704   2.704  0.7306 -1.4828 -3.1716
  816SOL     MW 3264   0.708   0.701   2.722  0.2755 -0.0394  0.2729
  817SOL     OW 3265   3.017   1.212   1.455  0.2958  0.1163  0.2246
  817SOL    HW1 3266   3.104   1.239   1.492 -0.7921 -0.2198 -1.0976
  817SOL    HW2 3267   2.994   1.296   1.408 -2.2456 -0.5158 -2.4004
  817SOL     MW 3268   3.025   1.226   1.454 -0.1831 -0.0114 -0.2962
  818SOL     OW 3269   1.897   1.034   2.716 -0.3751  0.4325  0.2771
  818SOL    HW1 3270   1.873   0.996   2.626  0.7521  0.3169 -0.4904
  818SOL    HW2 3271   1.986   0.996   2.734 -0.8296  1.2411  1.3221
  818SOL     MW 3272   1.906   1.024   2.706 -0.2863  0.5239  0.3137
  819SOL     OW 3273   1.978   0.247   2.512 -0.4219 -0.5341 -0.3446
  819SOL    HW1 3274   1.912   0.320   2.527  0.7843 -0.4673 -0.4143
  819SOL    HW2 3275   2.023   0.244   2.596 -0.4572  0.4423 -0.2274
  819SOL     MW 3276   1.975   0.256   2.525 -0.2674 -0.3965 -0.3383
  820SOL     OW 3277   2.526   1.752   2.695  0.4854 -0.3405  0.6135
  820SOL    HW1 3278   2.546   1.678   2.754  0.7968 -0.0171  3.4459
  820SOL    HW2 3279   2.553   1.717   2.607  0.0598  0.6337 -1.8239
  820SOL     MW 3280   2.533   1.737   2.691  0.4704 -0.1693  0.6656
  821SOL     OW 3281   2.585   1.387   2.029  0.0217  1.0177  0.0634
  821SOL    HW1 3282   2.612   1.439   1.948  2.9444 -2.8508  1.7351
  821SOL    HW2 3283   2.522   1.445   2.063  0.1756 -0.5616  2.2807
  821SOL     MW 3284   2.580   1.401   2.023  0.4276  0.2989  0.5765
  822SOL     OW 3285   2.763   2.648   1.385 -0.6028  0.4218  0.1183
  822SOL    HW1 3286   2.795   2.643   1.476 -1.8402  0.8233 -1.4782
  822SOL    HW2 3287   2.683   2.697   1.388  1.0913 -2.2633 -0.1136
  822SOL     MW 3288   2.757   2.654   1.398 -0.5425  0.1205 -0.1230
  823SOL     OW 3289   2.367   0.481   1.755  0.0770 -0.1698 -0.0650
  823SOL    HW1 3290   2.442   0.441   1.723 -2.2588  2.9433  0.4396
  823SOL    HW2 3291   2.312   0.406   1.757 -2.1279 -0.2616 -2.0696
  823SOL     MW 3292   2.369   0.466   1.751 -0.5221  0.2288 -0.2629
  824SOL     OW 3293   2.146   1.460   2.546 -0.4041  0.4472  0.3425
  824SOL    HW1 3294   2.226   1.497   2.507 -0.2807 -0.3466  1.7949
  824SOL    HW2 3295   2.109   1.532   2.594 -0.2374  1.0893 -3.2056
  824SOL     MW 3296   2.152   1.474   2.547 -0.3658  0.4272  0.0660
  825SOL     OW 3297   1.851   2.543   0.262  0.2969 -0.1815  0.4064
  825SOL    HW1 3298   1.840   2.487   0.337 -0.8124 -1.0341  1.9207
  825SOL    HW2 3299   1.929   2.509   0.213 -1.7040 -2.4214 -0.5225
  825SOL     MW 3300   1.860   2.531   0.266 -0.1135 -0.5895  0.4837
  826SOL     OW 3301   1.858   2.384   0.542  0.2457  0.2817  0.2210
  826SOL    HW1 3302   1.816   2.305   0.582  1.8377  0.2848  2.7528
  826SOL    HW2 3303   1.822   2.459   0.589 -1.2464 -2.7456 -0.0600
  826SOL     MW 3304   1.848   2.384   0.554  0.2589 -0.1173  0.5180
  827SOL     OW 3305   1.937   2.171   0.890  0.2446 -0.0648  0.8975
  827SOL    HW1 3306   1.873   2.227   0.843 -1.1342  0.3246  0.1998
  827SOL    HW2 3307   1.881   2.114   0.951  1.5427 -1.4711 -0.8532
  827SOL     MW 3308   1.921   2.171   0.892  0.2339 -0.1990  0.5745
  828SOL     OW 3309   0.056   2.569   0.599  0.3485  0.1442  0.4364
  828SOL    HW1 3310   0.147   2.556   0.617 -1.7140 -0.7807  2.2289
  828SOL    HW2 3311   0.034   2.645   0.549 -0.4674 -2.0095 -1.1113
  828SOL     MW 3312   0.065   2.577   0.595 -0.0313 -0.2620  0.4687
  829SOL     OW 3313   2.983   2.970   1.149 -0.3846  0.1053 -0.1349
  829SOL    HW1 3314   2.901   2.971   1.106 -0.5304  0.2094  0.6743
  829SOL    HW2 3315   3.018   2.881   1.149 -0.4673 -0.2763  1.1520
  829SOL     MW 3316   2.976   2.959   1.143 -0.4148  0.0687  0.1416
  830SOL     OW 3317   2.551   2.840   2.030 -0.2459  0.7176 -0.0254
  830SOL    HW1 3318   2.456   2.845   2.001 -2.8427 -0.7030 -0.3378
  830SOL    HW2 3319   2.592   2.854   1.941 -1.3319  1.7988 -0.7926
  830SOL     MW 3320   2.544   2.842   2.014 -0.7318  0.6728 -0.1678
  831SOL     OW 3321   2.389   2.500   1.226  0.4234 -0.1065  0.1018
  831SOL    HW1 3322   2.369   2.453   1.309  0.7284 -0.9548  2.1691
  831SOL    HW2 3323   2.468   2.454   1.208 -2.8231  1.6642  0.2576
  831SOL     MW 3324   2.397   2.488   1.235  0.0353  0.0152  0.3951
  832SOL     OW 3325   2.375   2.200   1.919 -0.0224  0.0564  0.2427
  832SOL    HW1 3326   2.385   2.293   1.950  0.7720  2.3207  0.0224
  832SOL    HW2 3327   2.469   2.161   1.901 -1.0902  0.3040 -0.9965
  832SOL     MW 3328   2.389   2.207   1.921 -0.0585  0.3878  0.0502
  833SOL     OW 3329   1.746   2.449   0.907  0.1528  0.1236  0.1725
  833SOL    HW1 3330   1.655   2.412   0.908 -0.3822 -2.1830  0.8215
  833SOL    HW2 3331   1.756   2.498   0.983  3.0741 -4.2828 -2.9310
  833SOL     MW 3332   1.735   2.451   0.917  0.4677 -0.7621 -0.1513
  834SOL     OW 3333   2.103   2.461   0.595  0.2592  0.3444 -0.0207
  834SOL    HW1 3334   2.007   2.428   0.585 -0.4377 -0.4941 -2.3577
  834SOL    HW2 3335   2.161   2.446   0.515 -2.0702 -0.8282 -0.4014
  834SOL     MW 3336   2.098   2.454   0.583 -0.1401  0.0791 -0.3793
  835SOL     OW 3337   1.765   2.609   0.692 -0.1648 -0.1537 -0.4608
  835SOL    HW1 3338   1.751   2.558   0.777  1.1156 -0.7894  0.7369
  835SOL    HW2 3339   1.834   2.668   0.709 -1.5649 -4.5576  0.2121
  835SOL     MW 3340   1.773   2.610   0.706 -0.1806 -0.8186 -0.2140
  836SOL     OW 3341   1.907   2.214   1.637 -0.2760 -0.0932 -0.1399
  836SOL    HW1 3342   1.997   2.223   1.671  0.1450 -1.7434  0.5806
  836SOL    HW2 3343   1.864   2.297   1.617 -0.3257 -0.5527  0.5667
  836SOL     MW 3344   1.913   2.226   1.639 -0.2270 -0.3715  0.0484
  837SOL     OW 3345   2.079   0.151   0.688 -0.0808 -0.6653  0.1660
  837SOL    HW1 3346   2.006   0.210   0.653  0.0819  2.8269  1.8644
  837SOL    HW2 3347   2.126   0.119   0.610  3.3056 -1.2551  0.8545
  837SOL     MW 3348   2.075   0.155   0.673  0.3875 -0.2824  0.4810
  838SOL     OW 3349   2.922   2.075   0.928  0.0009  0.2569  0.2051
  838SOL    HW1 3350   2.851   2.023   0.965  0.0921  0.5144  0.1087
  838SOL    HW2 3351   3.001   2.020   0.919  0.7999  1.1426  0.4108
  838SOL     MW 3352   2.924   2.061   0.932  0.1184  0.4077  0.2195
  839SOL     OW 3353   1.507   2.327   0.971  0.3046 -0.3637  0.0057
  839SOL    HW1 3354   1.495   2.401   1.032  0.9351 -1.2970  2.6725
  839SOL    HW2 3355   1.498   2.253   1.032 -0.8243  2.5053  0.4575
  839SOL     MW 3356   1.504   2.327   0.987  0.2388 -0.1083  0.4172
  840SOL     OW 3357   2.376   2.125   2.431 -0.1971 -0.3686 -0.1026
  840SOL    HW1 3358   2.333   2.179   2.371  3.7816 -0.8353  2.6548
  840SOL    HW2 3359   2.386   2.185   2.507  1.0055  0.8503 -0.5170
  840SOL     MW 3360   2.371   2.140   2.433  0.4866 -0.2694  0.2066
  841SOL     OW 3361   2.086   2.443   0.140 -0.5350  0.8087 -0.0125
  841SOL    HW1 3362   2.136   2.495   0.070 -2.3831  0.9645 -1.1544
  841SOL    HW2 3363   2.055   2.359   0.099 -1.5415  1.2950  0.5025
  841SOL     MW 3364   2.088   2.439   0.125 -0.9117  0.8934 -0.0952
  842SOL     OW 3365   2.562   2.077   1.520 -0.0676 -0.1160 -0.0197
  842SOL    HW1 3366   2.531   2.017   1.589 -0.8605 -0.6533  1.5801
  842SOL    HW2 3367   2.519   2.052   1.444  0.3533 -0.2078  0.6833
  842SOL     MW 3368   2.552   2.066   1.519 -0.1167 -0.1990  0.2841
  843SOL     OW 3369   2.650   2.781   1.757 -0.1326  0.6540  0.4525
  843SOL    HW1 3370   2.732   2.727   1.747  2.0493 -3.9290 -1.3278
  843SOL    HW2 3371   2.580   2.710   1.756 -3.9973 -1.0060 -0.9195
  843SOL     MW 3372   2.651   2.764   1.755 -0.3546 -0.1697  0.0366
  844SOL     OW 3373   2.594   2.331   1.161  0.1501  0.0801  0.5648
  844SOL    HW1 3374   2.624   2.375   1.078 -1.2277  1.0530  2.6722
  844SOL    HW2 3375   2.664   2.315   1.226 -0.2011 -0.2255  0.3531
  844SOL     MW 3376   2.608   2.335   1.159 -0.0780  0.1681  0.8149
  845SOL     OW 3377   2.827   2.466   0.305  0.0654  0.5607 -0.3971
  845SOL    HW1 3378   2.765   2.394   0.325 -0.1833  2.6481  1.2283
  845SOL    HW2 3379   2.834   2.503   0.396  3.2001 -0.7835  0.8332
  845SOL     MW 3380   2.820   2.462   0.320  0.4462  0.6588 -0.0203
  846SOL     OW 3381   1.520   2.902   0.735 -0.2358 -0.3042  0.2040
  846SOL    HW1 3382   1.597   2.953   0.763 -2.3913  0.4323  0.6217
  846SOL    HW2 3383   1.454   2.915   0.800  1.4675  0.7552 -3.0628
  846SOL     MW 3384   1.522   2.911   0.747 -0.2955 -0.0672 -0.1719
  847SOL     OW 3385   2.624   1.920   0.182  0.1394  0.0448 -0.1372
  847SOL    HW1 3386   2.712   1.884   0.165  3.1455  1.6215  1.5157
  847SOL    HW2 3387   2.558   1.885   0.114  0.5530  0.4118  1.9815
  847SOL     MW 3388   2.627   1.911   0.171  0.5906  0.3013  0.3604
  848SOL     OW 3389   2.418   2.112   1.290 -0.1844 -0.1613  0.0233
  848SOL    HW1 3390   2.478   2.151   1.226  1.9792 -0.7319 -1.8690
  848SOL    HW2 3391   2.397   2.029   1.249 -0.3569  0.1721 -0.8938
  848SOL     MW 3392   2.423   2.106   1.276  0.0783 -0.1926 -0.3474
  849SOL     OW 3393   1.979   2.772   0.739  0.8086 -0.2186 -0.0148
  849SOL    HW1 3394   2.007   2.749   0.828 -0.7379  1.2132  1.0444
  849SOL    HW2 3395   2.040   2.737   0.677 -3.6623 -0.7619  3.4223
  849SOL     MW 3396   1.991   2.764   0.742  0.0147 -0.1014  0.5784
  850SOL     OW 3397   2.194   1.986   1.697  0.4324  0.5541  0.5999
  850SOL    HW1 3398   2.130   1.936   1.640  0.7372  0.3451 -1.4314
  850SOL    HW2 3399   2.189   2.079   1.685 -1.0576 -0.4987  1.1971
  850SOL     MW 3400   2.185   1.992   1.688  0.2760  0.3876  0.4107
  851SOL     OW 3401   2.252   2.418   0.360  0.1688  0.1060  0.0495
  851SOL    HW1 3402   2.182   2.413   0.284 -1.5873  0.9688 -0.2774
  851SOL    HW2 3403   2.309   2.492   0.327  0.7309  2.2692 -1.2142
  851SOL     MW 3404   2.251   2.427   0.346  0.0113  0.5052 -0.1603
  852SOL     OW 3405   2.316   2.156   0.197  0.3853  0.0134  0.3812
  852SOL    HW1 3406   2.313   2.239   0.236 -1.3769 -0.7576 -1.2720
  852SOL    HW2 3407   2.407   2.153   0.155 -1.2443  0.2245  2.8316
  852SOL     MW 3408   2.328   2.166   0.197 -0.0622 -0.0605  0.4864
  853SOL     OW 3409   2.444   2.455   1.967 -0.3113 -0.2455 -0.0024
  853SOL    HW1 3410   2.460   2.487   1.878  1.2614  0.9800  0.4307
  853SOL    HW2 3411   2.527   2.452   2.012  0.4167  1.8120 -1.2872
  853SOL     MW 3412   2.457   2.459   1.961 -0.0077  0.1877 -0.1148
  854SOL     OW 3413   2.809   2.266   0.772  0.1619 -0.0275 -0.1324
  854SOL    HW1 3414   2.732   2.230   0.729  0.0664 -0.5130  0.6387
  854SOL    HW2 3415   2.848   2.201   0.833  1.7845  1.2698 -1.1133
  854SOL     MW 3416   2.804   2.253   0.775  0.3634  0.0797 -0.1601
  855SOL     OW 3417   2.676   2.251   0.349  0.4761  0.7480  0.5438
  855SOL    HW1 3418   2.654   2.296   0.437 -2.1606  1.6664  0.2327
  855SOL    HW2 3419   2.760   2.204   0.362 -1.7747 -0.7582 -0.3587
  855SOL     MW 3420   2.684   2.251   0.362 -0.1687  0.6704  0.3837
  856SOL     OW 3421   2.189   1.914   0.223  0.4459 -0.0654 -0.5644
  856SOL    HW1 3422   2.096   1.922   0.248 -1.1012  0.2133 -1.6702
  856SOL    HW2 3423   2.219   2.009   0.226 -0.7637  1.1476  3.1661
  856SOL     MW 3424   2.181   1.928   0.227  0.0822  0.1314 -0.2181
  857SOL     OW 3425   2.588   2.010   0.478 -0.2469 -0.4558  0.3371
  857SOL    HW1 3426   2.614   2.082   0.419  1.1487  1.1097 -0.8253
  857SOL    HW2 3427   2.557   1.941   0.410  1.4707 -0.8817 -2.5153
  857SOL     MW 3428   2.587   2.011   0.461  0.1639 -0.3055 -0.1926
  858SOL     OW 3429   2.887   2.641   1.672  0.0363 -0.0562 -0.2916
  858SOL    HW1 3430   2.957   2.695   1.702 -1.8201 -0.2469  0.8924
  858SOL    HW2 3431   2.893   2.563   1.728  1.3204  1.9606  1.7273
  858SOL     MW 3432   2.897   2.638   1.683 -0.0392  0.1848  0.1310
  859SOL     OW 3433   2.113   2.518   0.875 -0.4218  0.6979 -0.0250
  859SOL    HW1 3434   2.094   2.490   0.783 -0.5724 -1.4526  1.3956
  859SOL    HW2 3435   2.206   2.507   0.872 -3.0920 -1.4026  1.3775
  859SOL     MW 3436   2.123   2.513   0.862 -0.7940  0.1370  0.3475
  860SOL     OW 3437   2.653   2.584   0.133 -0.1335 -0.1396  0.2070
  860SOL    HW1 3438   2.705   2.550   0.207 -0.2657 -0.9803 -0.4329
  860SOL    HW2 3439   2.702   2.659   0.096  1.4258 -2.3276 -0.7177
  860SOL     MW 3440   2.666   2.590   0.138  0.0548 -0.5392  0.0006
  861SOL     OW 3441   1.549   2.155   1.172 -0.5172 -0.0853 -0.7846
  861SOL    HW1 3442   1.546   2.229   1.243 -1.2976  3.5525  0.3716
  861SOL    HW2 3443   1.501   2.083   1.205 -1.6434  0.8109  1.3462
  861SOL     MW 3444   1.542   2.155   1.185 -0.7687  0.5129 -0.3509
  862SOL     OW 3445   2.432   1.805   1.556  0.3032 -0.8216  0.6270
  862SOL    HW1 3446   2.350   1.852   1.557  1.3909 -4.0223 -1.0099
  862SOL    HW2 3447   2.462   1.825   1.467 -1.8608 -1.5591  2.2379
  862SOL     MW 3448   2.425   1.814   1.544  0.1612 -1.3412  0.6236
  863SOL     OW 3449   0.039   1.849   1.153  0.7914  0.9913 -0.3531
  863SOL    HW1 3450   0.123   1.890   1.143 -0.9883  2.0130  0.0869
  863SOL    HW2 3451  -0.019   1.911   1.191  1.8720  2.6768  2.3800
  863SOL     MW 3452   0.043   1.862   1.156  0.6991  1.3485  0.0656
  864SOL     OW 3453   0.028   1.858   0.848  0.1248  0.4183  0.2964
  864SOL    HW1 3454  -0.028   1.802   0.904  2.3874  0.0843 -0.0721
  864SOL    HW2 3455  -0.022   1.855   0.758 -2.6468  0.8703  2.9644
  864SOL     MW 3456   0.014   1.850   0.844  0.0577  0.4339  0.5998
  865SOL     OW 3457   2.575   2.163   0.039  0.5823 -0.3347 -0.4236
  865SOL    HW1 3458   2.598   2.084   0.089  0.4338  1.1911 -0.7641
  865SOL    HW2 3459   2.539   2.133  -0.045 -1.2564  1.2230  1.3993
  865SOL     MW 3460   2.573   2.148   0.035  0.3201  0.0721 -0.2280
  866SOL     OW 3461   2.639   2.331   1.631 -0.0822 -0.5885 -0.4763
  866SOL    HW1 3462   2.608   2.238   1.635  0.8589 -0.0980  2.2330
  866SOL    HW2 3463   2.695   2.331   1.552  4.0827 -2.5110  1.3205
  866SOL     MW 3464   2.642   2.319   1.621  0.5915 -0.7775  0.1182
  867SOL     OW 3465   0.033   2.674   1.815 -0.1880 -0.6229 -0.4870
  867SOL    HW1 3466   0.039   2.663   1.912 -2.0383  0.3909  2.3939
  867SOL    HW2 3467   0.034   2.769   1.797  1.1767 -2.7746 -3.0883
  867SOL     MW 3468   0.034   2.685   1.825 -0.2520 -0.7730 -0.4501
  868SOL     OW 3469   2.800   2.587   0.536  0.1155  0.3603  0.0301
  868SOL    HW1 3470   2.717   2.541   0.563  1.4891 -3.6287 -0.9961
  868SOL    HW2 3471   2.769   2.673   0.516  0.7787 -1.1647 -1.2379
  868SOL     MW 3472   2.785   2.592   0.537  0.3843 -0.3672 -0.2726
  869SOL     OW 3473   1.978   2.391   1.081  0.0333  0.4040  0.7456
  869SOL    HW1 3474   2.031   2.457   1.037  1.5168  0.7293 -0.3520
  869SOL    HW2 3475   1.948   2.326   1.012 -2.0040 -1.7553 -2.2905
  869SOL     MW 3476   1.981   2.391   1.066 -0.0397  0.1620  0.2002
  870SOL     OW 3477   2.182   0.017   0.461 -0.1442  0.1711 -0.2969
  870SOL    HW1 3478   2.261   0.048   0.407 -1.4086  2.1295  1.9748
  870SOL    HW2 3479   2.182  -0.081   0.461  1.8584  1.0420  0.7128
  870SOL     MW 3480   2.193   0.008   0.454 -0.0468  0.5444  0.1361
  871SOL     OW 3481   2.514   2.084   0.948  0.2990  0.8154  0.9069
  871SOL    HW1 3482   2.448   2.029   0.905 -0.3643  0.5569  1.8172
  871SOL    HW2 3483   2.458   2.154   0.974 -1.7709 -0.5470  1.4282
  871SOL     MW 3484   2.498   2.086   0.945 -0.0617  0.6015  1.0958
  872SOL     OW 3485   2.058   2.546   1.429  0.1202  0.7061  0.3020
  872SOL    HW1 3486   2.020   2.588   1.511 -1.2204 -0.2813  0.5052
  872SOL    HW2 3487   1.988   2.489   1.400 -0.5342  0.1144 -0.7473
  872SOL     MW 3488   2.043   2.544   1.436 -0.1430  0.4978  0.1904
  873SOL     OW 3489   2.891   2.083   1.943  1.0409  0.2940 -0.3591
  873SOL    HW1 3490   2.938   2.133   2.009  0.4490 -0.7409  1.5638
  873SOL    HW2 3491   2.953   2.080   1.862 -0.0939 -0.8010 -2.2734
  873SOL     MW 3492   2.906   2.089   1.941  0.8131  0.0130 -0.3580
  874SOL     OW 3493   2.374   1.546   2.417  0.4741  0.2027 -0.9687
  874SOL    HW1 3494   2.340   1.511   2.332 -2.4721 -2.2145 -0.7221
  874SOL    HW2 3495   2.435   1.480   2.450  0.1262 -3.0741  2.0464
  874SOL     MW 3496   2.377   1.533   2.410  0.0394 -0.5485 -0.5383
  875SOL     OW 3497   2.281   2.283   1.047  0.2042 -0.1672  0.4539
  875SOL    HW1 3498   2.220   2.322   0.988 -0.9124  0.7038  2.0428
  875SOL    HW2 3499   2.330   2.363   1.070  1.7136  1.2470 -1.8117
  875SOL     MW 3500   2.279   2.298   1.042  0.2560  0.1343  0.3646
  876SOL     OW 3501   3.034   2.339   1.241 -0.1662 -0.3338 -0.1018
  876SOL    HW1 3502   3.094   2.324   1.162  2.6197 -0.5780 -2.1177
  876SOL    HW2 3503   3.077   2.401   1.296 -0.5547  0.4022 -1.0192
  876SOL     MW 3504   3.048   2.345   1.237  0.1501 -0.2689 -0.4888
  877SOL     OW 3505   3.073   2.764   0.397  0.0318  0.3148 -0.0218
  877SOL    HW1 3506   3.097   2.850   0.368  3.1994  0.1818  1.3883
  877SOL    HW2 3507   3.081   2.718   0.315  0.2068 -0.5548  0.8838
  877SOL     MW 3508   3.077   2.769   0.383  0.4728  0.1825  0.2837
  878SOL     OW 3509   2.386   1.836   1.244  0.4679 -0.3283  0.2176
  878SOL    HW1 3510   2.337   1.755   1.230  1.3302 -0.6593 -3.2653
  878SOL    HW2 3511   2.475   1.804   1.238  0.1246 -3.6839 -1.7566
  878SOL     MW 3512   2.391   1.821   1.241  0.5364 -0.8147 -0.5024
  879SOL     OW 3513   2.669   2.456   0.923  0.1440  0.0078  0.3955
  879SOL    HW1 3514   2.725   2.523   0.958 -0.9450  0.9751 -0.3328
  879SOL    HW2 3515   2.734   2.406   0.868  0.4945  0.8074 -4.0384
  879SOL     MW 3516   2.685   2.458   0.921  0.0465  0.2409 -0.2856
  880SOL     OW 3517   2.574   2.204   0.684 -0.2979 -0.1573 -0.5055
  880SOL    HW1 3518   2.545   2.172   0.772 -1.1295  0.6003 -3.4281
  880SOL    HW2 3519   2.565   2.129   0.629 -4.0183 -1.0255 -0.4950
  880SOL     MW 3520   2.569   2.190   0.688 -0.8985 -0.1719 -0.8897
  881SOL     OW 3521   2.954   2.683   0.751 -0.1556 -0.4088 -0.2592
  881SOL    HW1 3522   2.907   2.643   0.674 -1.5328  0.3606 -2.6860
  881SOL    HW2 3523   3.047   2.664   0.738  0.9195 -0.5695 -1.2508
  881SOL     MW 3524   2.960   2.675   0.739 -0.1955 -0.3285 -0.7103
  882SOL     OW 3525   2.276   2.833   1.974 -0.8211  0.3364  0.0639
  882SOL    HW1 3526   2.283   2.817   1.878  1.3543  2.0165  0.7756
  882SOL    HW2 3527   2.231   2.767   2.028  0.8413  1.1168  2.6804
  882SOL     MW 3528   2.271   2.822   1.968 -0.3147  0.6610  0.5030
  883SOL     OW 3529   2.296   2.311   1.433  0.4543 -0.0020 -0.0332
  883SOL    HW1 3530   2.353   2.242   1.397  2.0332  0.3092  0.2184
  883SOL    HW2 3531   2.209   2.301   1.383  0.1446  1.1838  0.9623
  883SOL     MW 3532   2.292   2.301   1.422  0.6217  0.1955  0.1313
  884SOL     OW 3533   1.956   1.865   1.124  0.5404 -0.1783 -0.0364
  884SOL    HW1 3534   1.882   1.931   1.110 -0.2854  0.7492  1.0602
  884SOL    HW2 3535   2.036   1.920   1.112  1.0421 -2.8361 -1.4948
  884SOL     MW 3536   1.957   1.881   1.120  0.4976 -0.4066 -0.0841
  885SOL     OW 3537   2.838   2.420   1.802  0.6310  0.3935  0.3650
  885SOL    HW1 3538   2.924   2.373   1.800 -0.7762  2.0153 -0.2571
  885SOL    HW2 3539   2.778   2.369   1.738 -0.5865 -1.4301 -0.2170
  885SOL     MW 3540   2.841   2.407   1.793  0.2847  0.3669  0.2062
  886SOL     OW 3541   2.785   2.383   1.365  0.7515 -0.3589 -0.8234
  886SOL    HW1 3542   2.865   2.365   1.319 -1.2808 -2.3143 -0.8343
  886SOL    HW2 3543   2.766   2.476   1.357 -1.6906 -0.8006 -0.1613
  886SOL     MW 3544   2.793   2.393   1.358  0.1611 -0.6752 -0.7375
  887SOL     OW 3545   2.328   2.624   1.514 -0.4722 -0.2630  0.5302
  887SOL    HW1 3546   2.323   2.683   1.431 -0.2501  0.6756  3.4225
  887SOL    HW2 3547   2.256   2.561   1.512  2.0262 -1.4215 -0.3754
  887SOL     MW 3548   2.318   2.624   1.503 -0.1132 -0.2920  0.7923
  888SOL     OW 3549   1.882   2.057   1.395 -0.1504  0.2184 -0.5642
  888SOL    HW1 3550   1.945   2.087   1.326  1.7503 -0.8791  0.3303
  888SOL    HW2 3551   1.914   2.106   1.470 -1.3840  2.2102  0.6025
  888SOL     MW 3552   1.894   2.068   1.396 -0.0624  0.3364 -0.2922
  889SOL     OW 3553   2.313   1.987   2.118 -0.5388  0.0230 -0.0709
  889SOL    HW1 3554   2.401   1.996   2.154  0.0924 -0.4027  1.7727
  889SOL    HW2 3555   2.313   2.059   2.056 -0.4310 -0.2243  0.3397
  889SOL     MW 3556   2.324   1.998   2.115 -0.4413 -0.0658  0.2265
  890SOL     OW 3557   0.093   2.348   0.204 -0.4417  0.4580  0.5185
  890SOL    HW1 3558   0.044   2.428   0.190  0.9321  3.8093 -1.3704
  890SOL    HW2 3559   0.062   2.301   0.284  0.3321 -0.1187  0.4089
  890SOL     MW 3560   0.082   2.352   0.212 -0.1583  0.8241  0.2548
  891SOL     OW 3561   2.981   2.034   1.297  0.1547  0.3246  0.0837
  891SOL    HW1 3562   3.051   2.061   1.360 -0.1734 -0.1545 -0.8233
  891SOL    HW2 3563   2.948   2.115   1.250 -0.4278  1.9697 -0.4837
  891SOL     MW 3564   2.986   2.048   1.299  0.0346  0.4784 -0.1108
  892SOL     OW 3565   2.410   2.361   2.886  0.3878  0.2647 -0.8404
  892SOL    HW1 3566   2.427   2.267   2.911  2.1807  0.8619 -0.1915
  892SOL    HW2 3567   2.497   2.394   2.879 -0.9470  1.3415  1.9459
  892SOL     MW 3568   2.424   2.353   2.888  0.4483  0.4856 -0.3871
  893SOL     OW 3569   1.586   2.410   1.250  0.5467 -0.1751  0.2608
  893SOL    HW1 3570   1.512   2.461   1.292  1.2791  0.1984 -0.2094
  893SOL    HW2 3571   1.663   2.404   1.303 -2.6294 -2.2632  0.1582
  893SOL     MW 3572   1.586   2.416   1.262  0.2243 -0.4014  0.1852
  894SOL     OW 3573   2.822   1.837   0.436 -0.1893 -0.7643 -0.0409
  894SOL    HW1 3574   2.746   1.900   0.444 -3.5813  3.9992 -0.8830
  894SOL    HW2 3575   2.818   1.805   0.345  0.9923  1.4001  0.8578
  894SOL     MW 3576   2.812   1.841   0.425 -0.4809  0.1498 -0.0334
  895SOL     OW 3577   2.095   2.222   1.283 -0.6936  0.4088  0.6005
  895SOL    HW1 3578   2.089   2.282   1.209 -0.6343 -1.1509  3.3322
  895SOL    HW2 3579   2.146   2.144   1.247 -0.8278  0.0431  0.8701
  895SOL     MW 3580   2.101   2.220   1.268 -0.7035  0.1547  0.9965
  896SOL     OW 3581   2.170   2.828   1.100 -0.1980 -0.0943 -0.5327
  896SOL    HW1 3582   2.239   2.820   1.160 -3.0002 -1.1139 -1.2324
  896SOL    HW2 3583   2.113   2.749   1.118  0.6328 -0.3231 -0.9364
  896SOL     MW 3584   2.171   2.816   1.110 -0.4581 -0.2591 -0.6783
  897SOL     OW 3585   2.983   2.899   0.107  0.1930 -0.0110 -0.5688
  897SOL    HW1 3586   3.029   2.821   0.088 -0.3131  0.4572 -0.1773
  897SOL    HW2 3587   2.901   2.872   0.062  0.7799  2.9724  3.6432
  897SOL     MW 3588   2.978   2.885   0.098  0.2037  0.4444  0.0386
  898SOL     OW 3589   2.091   0.191   1.434  0.0917  0.8749 -0.1256
  898SOL    HW1 3590   2.031   0.121   1.423  0.1926  1.8267 -2.4537
  898SOL    HW2 3591   2.087   0.243   1.352  0.0559  0.6475 -0.3349
  898SOL     MW 3592   2.083   0.189   1.422  0.1003  0.9704 -0.4604
  899SOL     OW 3593   2.897   2.929   0.663  0.5459 -0.3236 -0.1185
  899SOL    HW1 3594   2.901   2.850   0.719 -0.5016  0.7298  1.3755
  899SOL    HW2 3595   2.816   2.977   0.691  0.3447 -0.4858  0.3739
  899SOL     MW 3596   2.887   2.925   0.674  0.3811 -0.2060  0.1436
  900SOL     OW 3597   0.120   2.392   1.026 -0.1253 -0.0463  0.2327
  900SOL    HW1 3598   0.113   2.488   1.028 -1.2739 -1.2091 -1.6300
  900SOL    HW2 3599   0.123   2.359   0.932 -0.9159 -1.8037  1.2276
  900SOL     MW 3600   0.120   2.400   1.014 -0.3811 -0.4316  0.1182
  901SOL     OW 3601   1.801   2.881   1.665  0.2212 -0.7620  0.0233
  901SOL    HW1 3602   1.865   2.810   1.662 -1.9154 -0.5943 -1.3875
  901SOL    HW2 3603   1.723   2.850   1.613 -0.8046 -1.6181 -1.5777
  901SOL     MW 3604   1.799   2.868   1.658 -0.1961 -0.8528 -0.3740
  902SOL     OW 3605   2.599   2.071   1.863  0.5581  0.3214 -0.0448
  902SOL    HW1 3606   2.575   1.980   1.860 -0.0046  1.8628  0.7226
  902SOL    HW2 3607   2.693   2.073   1.883  1.9852 -0.0704 -0.7526
  902SOL     MW 3608   2.608   2.059   1.866  0.6721  0.4731 -0.0369
  903SOL     OW 3609   1.597   2.768   0.513  0.1325  0.2137  0.6051
  903SOL    HW1 3610   1.648   2.697   0.563  3.1388  0.4377 -1.1437
  903SOL    HW2 3611   1.558   2.821   0.580  2.0475  2.8755 -1.4743
  903SOL     MW 3612   1.599   2.765   0.528  0.7818  0.5945  0.1000
  904SOL     OW 3613   2.497   2.544   1.716 -0.1140 -0.3686  0.1614
  904SOL    HW1 3614   2.453   2.572   1.637  0.6737 -2.2965  1.2542
  904SOL    HW2 3615   2.549   2.471   1.685 -2.2801  1.7599  0.3950
  904SOL     MW 3616   2.498   2.538   1.702 -0.2958 -0.3421  0.3364
  905SOL     OW 3617   2.319   2.496   2.210 -0.0230  0.0887  0.0157
  905SOL    HW1 3618   2.368   2.465   2.135  2.3478  0.6768  0.7678
  905SOL    HW2 3619   2.276   2.414   2.248  1.5499  2.8467 -1.0766
  905SOL     MW 3620   2.320   2.481   2.205  0.4973  0.5302 -0.0292
  906SOL     OW 3621   2.400   2.492   0.859  0.2029  0.2932  0.2575
  906SOL    HW1 3622   2.488   2.484   0.894 -0.3937  0.4302  1.6674
  906SOL    HW2 3623   2.371   2.580   0.883  2.6243  1.9120  2.2517
  906SOL     MW 3624   2.408   2.502   0.867  0.4437  0.5249  0.7066
  907SOL     OW 3625   2.573   2.923   1.275 -0.1611 -0.1423 -0.0575
  907SOL    HW1 3626   2.644   2.948   1.335 -0.0355  1.9039 -0.9877
  907SOL    HW2 3627   2.610   2.872   1.206 -1.7368  2.6427 -0.0618
  907SOL     MW 3628   2.587   2.919   1.274 -0.3524  0.4951 -0.1808
  908SOL     OW 3629   2.761   2.385   3.080 -0.0709  0.4305 -0.0779
  908SOL    HW1 3630   2.702   2.303   3.096  4.1254  0.5715 -1.4841
  908SOL    HW2 3631   2.732   2.447   3.144  1.7863  0.3133  0.3771
  908SOL     MW 3632   2.749   2.382   3.090  0.7278  0.4336 -0.2034
  909SOL     OW 3633   1.589   0.184   1.101  0.5137  0.0570  0.0582
  909SOL    HW1 3634   1.647   0.241   1.051 -2.0285  0.5193  0.8704
  909SOL    HW2 3635   1.530   0.243   1.149 -1.1945  1.2065  1.5816
  909SOL     MW 3636   1.589   0.199   1.101 -0.0471  0.2696  0.3664
  910SOL     OW 3637   2.299   1.745   0.406 -0.6446  0.1281  0.7181
  910SOL    HW1 3638   2.233   1.679   0.419 -0.4417 -0.7889  0.8527
  910SOL    HW2 3639   2.261   1.798   0.331 -2.0718  1.0370 -0.2437
  910SOL     MW 3640   2.285   1.743   0.398 -0.8062  0.1271  0.6090
  911SOL     OW 3641   2.223   2.255   1.695 -0.0885 -0.2168  0.4381
  911SOL    HW1 3642   2.282   2.222   1.762 -2.6932  0.1314 -0.6262
  911SOL    HW2 3643   2.269   2.288   1.611 -0.8952 -0.6092 -1.6430
  911SOL     MW 3644   2.237   2.255   1.693 -0.5386 -0.2226  0.0231
  912SOL     OW 3645   2.837   1.956   1.528  0.2830  0.1864  0.3573
  912SOL    HW1 3646   2.881   1.965   1.445  1.8229 -0.1575 -1.1671
  912SOL    HW2 3647   2.751   1.999   1.526 -0.8666 -2.1490  1.4315
  912SOL     MW 3648   2.831   1.963   1.517  0.3345 -0.1671  0.2979
  913SOL     OW 3649   2.551   2.973   0.413  0.2218  0.3474 -0.5101
  913SOL    HW1 3650   2.613   2.899   0.400  0.0099 -0.8288 -1.5631
  913SOL    HW2 3651   2.464   2.940   0.435  0.9851 -0.2126 -0.4789
  913SOL     MW 3652   2.548   2.959   0.414  0.2945  0.1183 -0.6449
  914SOL     OW 3653   2.751   1.625   3.062 -0.0520  0.3439  0.2416
  914SOL    HW1 3654   2.741   1.711   3.019  1.4099 -2.8581 -0.0464
  914SOL    HW2 3655   2.674   1.624   3.129  3.0035 -2.5270 -1.5836
  914SOL     MW 3656   2.739   1.637   3.065  0.5441 -0.4574 -0.0372
  915SOL     OW 3657   1.812   0.252   0.175 -0.1763  0.1969 -0.4155
  915SOL    HW1 3658   1.861   0.179   0.208  0.2203  2.1985 -1.1620
  915SOL    HW2 3659   1.719   0.233   0.190  0.2057 -0.7609  2.8736
  915SOL     MW 3660   1.806   0.240   0.181 -0.0736  0.3346 -0.0801
  916SOL     OW 3661   1.724   2.087   1.955 -0.1431  0.4840  0.3244
  916SOL    HW1 3662   1.782   2.163   1.927  3.1424 -1.7015  1.8811
  916SOL    HW2 3663   1.752   2.015   1.900  1.4592  0.0451  0.0065
  916SOL     MW 3664   1.735   2.088   1.944  0.5018  0.1378  0.4878
  917SOL     OW 3665   2.446   2.322   2.610 -0.2554 -0.1581 -0.8719
  917SOL    HW1 3666   2.427   2.338   2.702  0.0495 -3.0123  0.5026
  917SOL    HW2 3667   2.541   2.317   2.609 -1.1082 -0.9405 -0.1387
  917SOL     MW 3668   2.456   2.323   2.622 -0.3277 -0.6379 -0.5938
  918SOL     OW 3669   2.056   1.651   2.704 -0.8273 -0.0135  0.2442
  918SOL    HW1 3670   1.975   1.663   2.653  1.8423 -2.8026 -1.2110
  918SOL    HW2 3671   2.126   1.719   2.674  1.3715  3.4453  0.6567
  918SOL     MW 3672   2.054   1.662   2.693 -0.1850  0.0749  0.1066
  919SOL     OW 3673   0.065   2.362   2.257 -0.2429 -0.3326 -0.0193
  919SOL    HW1 3674  -0.022   2.315   2.239  1.3318 -0.5542  0.2179
  919SOL    HW2 3675   0.131   2.338   2.189 -0.1672 -0.1268  1.4979
  919SOL     MW 3676   0.062   2.353   2.246 -0.0252 -0.3347  0.2122
  920SOL     OW 3677   2.763   2.795   3.094 -0.0851  0.3092  0.1925
  920SOL    HW1 3678   2.697   2.867   3.106  1.9732 -0.6301 -0.1042
  920SOL    HW2 3679   2.765   2.773   2.998 -0.1393 -1.2509 -2.5919
  920SOL     MW 3680   2.755   2.801   3.083  0.1793 -0.0206 -0.2140
  921SOL     OW 3681   2.461   2.620   2.671 -0.0551 -0.3521  0.6812
  921SOL    HW1 3682   2.534   2.650   2.609 -2.5202 -0.4872 -0.6501
  921SOL    HW2 3683   2.496   2.556   2.728 -2.4233  1.9626 -0.4694
  921SOL     MW 3684   2.475   2.616   2.670 -0.6928 -0.0645  0.3537
  922SOL     OW 3685   1.984   2.777   0.315 -0.1172  0.1261  0.9092
  922SOL    HW1 3686   1.981   2.800   0.224 -0.2208  1.6684  0.1715
  922SOL    HW2 3687   1.949   2.691   0.315  2.3016  3.0117 -1.2077
  922SOL     MW 3688   1.979   2.768   0.303  0.1883  0.7103  0.5326
  923SOL     OW 3689   2.220   2.813   1.699 -0.1288  0.1067 -0.4573
  923SOL    HW1 3690   2.281   2.767   1.634 -2.0722 -1.0201 -0.8284
  923SOL    HW2 3691   2.194   2.892   1.643  1.6644  2.2615 -0.1901
  923SOL     MW 3692   2.225   2.817   1.683 -0.1486  0.2423 -0.4710
  924SOL     OW 3693   1.207   2.725   2.584 -0.5711 -0.6314 -0.3335
  924SOL    HW1 3694   1.263   2.776   2.521 -0.0220  0.1440  1.9164
  924SOL    HW2 3695   1.271   2.656   2.605  1.2803  0.0154 -0.9190
  924SOL     MW 3696   1.223   2.722   2.578 -0.2544 -0.4437 -0.1139
  925SOL     OW 3697   2.960   0.214   2.580 -0.0270  0.5076 -0.1229
  925SOL    HW1 3698   3.024   0.276   2.536  2.4293  5.6157  0.0177
  925SOL    HW2 3699   2.885   0.272   2.599  1.7931  1.3434 -0.2189
  925SOL     MW 3700   2.958   0.230   2.576  0.5372  1.2918 -0.1170
  926SOL     OW 3701   2.721   2.409   2.070  0.4531  0.0855 -0.4692
  926SOL    HW1 3702   2.770   2.471   2.122  0.5539 -0.5326 -1.5133
  926SOL    HW2 3703   2.748   2.415   1.979 -1.3744 -2.4692  0.4746
  926SOL     MW 3704   2.731   2.418   2.065  0.2253 -0.3331 -0.4825
  927SOL     OW 3705   2.354   0.165   0.314 -0.7240  0.2591 -0.1756
  927SOL    HW1 3706   2.449   0.169   0.314  0.3289  0.7150  1.1619
  927SOL    HW2 3707   2.338   0.144   0.225  0.8123 -0.2626 -0.3084
  927SOL     MW 3708   2.364   0.163   0.302 -0.3824  0.2504 -0.0167
  928SOL     OW 3709   2.074   2.452   1.838  0.0379 -0.4797  0.3470
  928SOL    HW1 3710   2.134   2.393   1.791 -0.3447 -1.8071  1.6263
  928SOL    HW2 3711   2.128   2.492   1.902  0.3122 -1.2378  0.7282
  928SOL     MW 3712   2.089   2.449   1.841  0.0236 -0.7549  0.5661
  929SOL     OW 3713   2.664   2.373   2.440 -0.3753 -0.5243  0.0959
  929SOL    HW1 3714   2.706   2.373   2.355  0.4293  0.3624 -1.8022
  929SOL    HW2 3715   2.714   2.325   2.503 -0.8984  2.0391 -1.6847
  929SOL     MW 3716   2.676   2.367   2.437 -0.3382 -0.0691 -0.3895
  930SOL     OW 3717   2.016   2.894   2.655  0.2301 -0.7136  0.1864
  930SOL    HW1 3718   2.016   2.807   2.708  1.1260 -2.8598  0.5459
  930SOL    HW2 3719   2.101   2.925   2.635 -1.9600 -2.1895 -0.9634
  930SOL     MW 3720   2.027   2.887   2.659  0.0594 -1.1915  0.0821
  931SOL     OW 3721   2.951   2.809   2.253  0.0026  0.2005 -0.0417
  931SOL    HW1 3722   3.022   2.812   2.321 -1.0099 -2.7772  2.4986
  931SOL    HW2 3723   2.981   2.870   2.183  1.3542  1.2858 -2.7250
  931SOL     MW 3724   2.965   2.818   2.252  0.0473 -0.0492 -0.0606
  932SOL     OW 3725   2.904   1.934   2.545  0.4960  0.8949 -0.2714
  932SOL    HW1 3726   3.002   1.945   2.546  1.2378 -2.0193  0.7112
  932SOL    HW2 3727   2.871   1.958   2.458  2.0050 -0.5365 -1.7010
  932SOL     MW 3728   2.913   1.938   2.534  0.7930  0.3215 -0.3304
  933SOL     OW 3729   2.079   2.875   2.229  0.3893  0.5599 -0.1574
  933SOL    HW1 3730   2.162   2.914   2.262  1.5098 -0.5064  0.4638
  933SOL    HW2 3731   2.035   2.949   2.193  0.3518 -0.7317 -1.2682
  933SOL     MW 3732   2.084   2.889   2.229  0.5322  0.2488 -0.2220
  934SOL     OW 3733   1.997   2.736   2.445  0.1740 -0.5914  0.2806
  934SOL    HW1 3734   2.001   2.793   2.528 -0.3799 -0.0751 -0.3614
  934SOL    HW2 3735   2.039   2.794   2.382  1.4262  0.3436  0.4734
  934SOL     MW 3736   2.003   2.751   2.448  0.2661 -0.3999  0.2213
  935SOL     OW 3737   2.646   1.536   1.789  0.3009  0.2064 -0.1375
  935SOL    HW1 3738   2.739   1.540   1.753  0.0413 -0.8610  1.0536
  935SOL    HW2 3739   2.596   1.506   1.710 -0.3143 -2.2925 -2.0314
  935SOL     MW 3740   2.652   1.532   1.774  0.1855 -0.2641 -0.2302
  936SOL     OW 3741   2.996   2.234   3.091  0.3254 -0.2964 -0.0433
  936SOL    HW1 3742   3.047   2.292   3.149 -0.3278 -0.1145  0.4398
  936SOL    HW2 3743   2.920   2.294   3.068 -0.9435 -1.8866 -2.3174
  936SOL     MW 3744   2.993   2.250   3.095  0.0718 -0.4822 -0.2796
  937SOL     OW 3745   2.041   2.183   2.692 -0.3489  0.0670 -0.0028
  937SOL    HW1 3746   2.120   2.140   2.710 -3.7075 -0.9696 -1.5591
  937SOL    HW2 3747   2.016   2.148   2.604  0.2170  0.3116  0.8428
  937SOL     MW 3748   2.048   2.173   2.683 -0.7173 -0.0375 -0.0966
  938SOL     OW 3749   2.298   1.804   1.915 -0.0527 -0.3842 -0.6149
  938SOL    HW1 3750   2.277   1.873   1.846 -0.4442 -0.1506  0.7432
  938SOL    HW2 3751   2.308   1.864   1.987  0.3036 -1.3875  0.4810
  938SOL     MW 3752   2.296   1.821   1.915 -0.0574 -0.4858 -0.2911
  939SOL     OW 3753   2.816   1.992   2.285 -0.1139  0.0286 -0.7882
  939SOL    HW1 3754   2.839   1.909   2.245  3.4262  1.1499 -0.8700
  939SOL    HW2 3755   2.719   1.984   2.294  0.9951 -0.7489 -2.1717
  939SOL     MW 3756   2.806   1.980   2.281  0.4995  0.0740 -0.9815
  940SOL     OW 3757   2.311   0.149   2.702 -0.3711  0.5227 -0.4963
  940SOL    HW1 3758   2.283   0.055   2.677  0.8917 -0.2821 -1.9724
  940SOL    HW2 3759   2.379   0.134   2.772  2.0179 -0.3568  1.6816
  940SOL     MW 3760   2.316   0.134   2.708  0.1107  0.3005 -0.4037
  941SOL     OW 3761   0.209   2.309   2.048  0.1875 -1.0320 -0.0883
  941SOL    HW1 3762   0.275   2.241   2.034 -2.2706  3.8511  1.2669
  941SOL    HW2 3763   0.228   2.370   1.971 -0.7207  2.2903 -1.5497
  941SOL     MW 3764   0.220   2.308   2.036 -0.2566  0.0506 -0.1023
  942SOL     OW 3765   2.944   2.232   2.185  0.1772 -0.1942  0.0762
  942SOL    HW1 3766   2.875   2.291   2.153 -0.9727  1.7342 -0.3836
  942SOL    HW2 3767   2.905   2.151   2.215  2.9244  2.5240 -2.3612
  942SOL     MW 3768   2.929   2.229   2.185  0.3880  0.4189 -0.3060
  943SOL     OW 3769   0.405   1.995   2.280 -0.2722  0.1738  0.5865
  943SOL    HW1 3770   0.359   2.060   2.335 -0.3477  0.0259 -2.6893
  943SOL    HW2 3771   0.493   1.991   2.320  1.8378 -0.4670  1.4811
  943SOL     MW 3772   0.411   2.003   2.293 -0.0037  0.0697  0.2724
  944SOL     OW 3773   2.108   2.644   2.100  0.1554  0.4708 -0.0266
  944SOL    HW1 3774   2.173   2.594   2.153 -0.5406  1.4047 -1.7469
  944SOL    HW2 3775   2.084   2.727   2.141 -0.1649 -0.0664  0.2300
  944SOL     MW 3776   2.113   2.648   2.112  0.0213  0.5231 -0.2197
  945SOL     OW 3777   2.787   2.711   2.829  0.2187 -0.4438 -0.5908
  945SOL    HW1 3778   2.733   2.628   2.821 -2.2858  1.2952 -0.9429
  945SOL    HW2 3779   2.817   2.717   2.738  0.6078 -2.4615  1.3809
  945SOL     MW 3780   2.783   2.701   2.816 -0.0604 -0.4805 -0.3771
  946SOL     OW 3781   2.453   2.732   2.269 -0.0828 -0.2341 -0.2975
  946SOL    HW1 3782   2.479   2.760   2.184 -0.0697  1.4809  0.9212
  946SOL    HW2 3783   2.408   2.652   2.254  0.3431  1.0243  1.9822
  946SOL     MW 3784   2.450   2.725   2.256 -0.0249  0.1582  0.1641
  947SOL     OW 3785   2.002   0.074   0.232  0.0783  0.1956  0.4268
  947SOL    HW1 3786   2.083   0.042   0.180 -0.0925  1.6313 -0.4744
  947SOL    HW2 3787   2.024   0.035   0.315  0.7128  3.0078 -4.0147
  947SOL     MW 3788   2.016   0.065   0.236  0.1394  0.7560 -0.2782
  948SOL     OW 3789   1.795   3.064   2.658 -0.0700  0.0024  0.2357
  948SOL    HW1 3790   1.878   3.007   2.658  0.3424  0.1042  0.1216
  948SOL    HW2 3791   1.784   3.075   2.565 -0.6764 -2.8067  0.8801
  948SOL     MW 3792   1.804   3.058   2.646 -0.0956 -0.3548  0.3057
  949SOL     OW 3793   2.553   1.971   2.290  0.1727  0.3225 -0.2795
  949SOL    HW1 3794   2.562   1.882   2.328  2.6736 -2.2046  1.6529
  949SOL    HW2 3795   2.492   2.022   2.345  0.1978  1.6952  1.0257
  949SOL     MW 3796   2.546   1.966   2.302  0.5060  0.1701  0.1477
  950SOL     OW 3797   2.258   2.559   3.022  0.2195 -0.5669  0.1548
  950SOL    HW1 3798   2.323   2.507   2.967 -1.2376 -1.3021 -1.3226
  950SOL    HW2 3799   2.187   2.581   2.958 -3.6422  0.3932 -0.1503
  950SOL     MW 3800   2.257   2.555   3.006 -0.4823 -0.5372 -0.0804
  951SOL     OW 3801   2.968   2.095   2.832 -0.2467  0.4442 -0.0448
  951SOL    HW1 3802   3.026   2.138   2.896  0.5919  0.6065  2.8345
  951SOL    HW2 3803   3.009   2.077   2.747  0.7222  0.3378 -0.5496
  951SOL     MW 3804   2.981   2.098   2.829 -0.0082  0.4516  0.2685
  952SOL     OW 3805   3.064   1.731   2.124  0.1429  1.2323  0.4534
  952SOL    HW1 3806   2.991   1.782   2.084  0.7554  1.9024  0.9762
  952SOL    HW2 3807   3.139   1.784   2.105 -1.9570 -0.0578  0.0741
  952SOL     MW 3808   3.064   1.745   2.116 -0.0533  1.1505  0.4723
  953SOL     OW 3809   1.932   1.786   2.933 -0.6439 -0.3824 -0.3032
  953SOL    HW1 3810   1.833   1.749   2.940 -0.0421 -1.9171  1.4710
  953SOL    HW2 3811   1.964   1.734   2.854 -1.1176 -1.7813 -2.5391
  953SOL     MW 3812   1.923   1.774   2.923 -0.6270 -0.7694 -0.3641
  954SOL     OW 3813   2.473   2.079   2.881  0.0555 -0.7251 -0.0024
  954SOL    HW1 3814   2.386   2.050   2.848  0.8034  2.6792  1.5263
  954SOL    HW2 3815   2.534   2.073   2.807  2.3259  0.2087  1.0552
  954SOL     MW 3816   2.470   2.075   2.867  0.4537 -0.1527  0.3388
  955SOL     OW 3817   1.591   1.634   2.532  0.5101  0.1531  0.5212
  955SOL    HW1 3818   1.579   1.643   2.435 -0.6800  0.1192  0.5867
  955SOL    HW2 3819   1.675   1.673   2.545 -3.9730 -2.7371 -1.3581
  955SOL     MW 3820   1.600   1.641   2.521 -0.2384 -0.2327  0.2819
  956SOL     OW 3821   2.660   2.466   2.841  0.4841 -0.1975  0.3033
  956SOL    HW1 3822   2.678   2.444   2.934  2.0066 -2.0033 -3.3365
  956SOL    HW2 3823   2.724   2.417   2.792  3.1325  1.8648  1.4483
  956SOL     MW 3824   2.670   2.457   2.847  1.0344 -0.1637 -0.0259
  957SOL     OW 3825   2.251   2.844   0.396 -0.4757  0.7155  0.2618
  957SOL    HW1 3826   2.173   2.804   0.360 -0.5657 -0.9530 -1.4008
  957SOL    HW2 3827   2.257   2.817   0.485  0.5203 -0.6740  0.0027
  957SOL     MW 3828   2.242   2.835   0.403 -0.3561  0.3120  0.0082
  958SOL     OW 3829   2.000   2.663   2.828 -0.4005 -0.3078 -0.1803
  958SOL    HW1 3830   1.949   2.607   2.774  2.9082 -0.0045  3.3557
  958SOL    HW2 3831   1.942   2.705   2.891  1.8862 -0.2374  0.5310
  958SOL     MW 3832   1.986   2.662   2.829  0.3378 -0.2585  0.3801
  959SOL     OW 3833   2.456   2.600   0.321 -0.3819  0.3709  0.8692
  959SOL    HW1 3834   2.525   2.598   0.250  1.7384 -2.3769 -3.7772
  959SOL    HW2 3835   2.402   2.679   0.305  1.1488  1.6142 -0.7225
  959SOL     MW 3836   2.458   2.610   0.310  0.0998  0.1724  0.0462
  960SOL     OW 3837   1.908   2.332   2.277  0.1318  0.3291 -0.2371
  960SOL    HW1 3838   1.871   2.243   2.280 -0.7184 -0.3038 -0.8313
  960SOL    HW2 3839   1.846   2.396   2.302  2.6734  1.3122 -1.5467
  960SOL     MW 3840   1.895   2.328   2.281  0.3549  0.3753 -0.4883
  961SOL     OW 3841   2.170   2.325   2.359  0.4464 -0.0815  0.0972
  961SOL    HW1 3842   2.088   2.322   2.322  1.8666 -0.2047  2.0983
  961SOL    HW2 3843   2.161   2.390   2.429 -0.0064  2.1555 -1.2968
  961SOL     MW 3844   2.158   2.333   2.363  0.5741  0.1974  0.1773
  962SOL     OW 3845   2.243   1.992   2.800 -0.2796 -0.6245  0.0047
  962SOL    HW1 3846   2.200   1.974   2.884  1.1311 -0.5544 -1.7764
  962SOL    HW2 3847   2.251   1.909   2.750  0.9434 -0.8527  2.0400
  962SOL     MW 3848   2.238   1.979   2.805  0.0679 -0.6453  0.0382
  963SOL     OW 3849   1.834   2.581   2.002 -0.3677  0.1611 -0.6411
  963SOL    HW1 3850   1.917   2.602   2.047  0.7867 -2.8930  0.1207
  963SOL    HW2 3851   1.838   2.481   1.985  0.0753  1.0127  2.5146
  963SOL     MW 3852   1.845   2.571   2.006 -0.1569 -0.1295 -0.1243
  964SOL     OW 3853   1.858   1.974   2.746 -0.3715 -0.0028  0.2550
  964SOL    HW1 3854   1.942   2.038   2.755 -1.1600  1.6847 -0.2998
  964SOL    HW2 3855   1.869   1.913   2.821 -0.6024  1.7739 -2.8351
  964SOL     MW 3856   1.870   1.974   2.757 -0.5060  0.4543 -0.2259
  965SOL     OW 3857   2.250   2.740   0.638 -0.1089  0.4807 -0.7865
  965SOL    HW1 3858   2.266   2.644   0.625 -0.2387 -1.3198 -1.1199
  965SOL    HW2 3859   2.272   2.747   0.732  1.7344 -1.8732 -1.4343
  965SOL     MW 3860   2.255   2.729   0.648  0.1172 -0.0675 -0.9159
  966SOL     OW 3861   2.631   2.641   2.459  0.2514  0.4700  0.2732
  966SOL    HW1 3862   2.579   2.668   2.385  2.9361  1.3040  1.2445
  966SOL    HW2 3863   2.652   2.538   2.452 -0.3978 -2.6705 -2.1332
  966SOL     MW 3864   2.627   2.631   2.448  0.5200  0.1657  0.0839
  967SOL     OW 3865   2.913   3.029   2.899  0.0390 -0.3356 -0.0797
  967SOL    HW1 3866   2.915   2.983   2.985  0.8518 -0.1475  1.7361
  967SOL    HW2 3867   2.821   3.015   2.865 -0.5040  0.3253 -1.7156
  967SOL     MW 3868   2.901   3.021   2.906  0.0746 -0.2236 -0.0560
  968SOL     OW 3869   3.008   2.602   2.940 -0.6871 -0.0454  0.3724
  968SOL    HW1 3870   2.916   2.636   2.916 -1.5048  1.2541 -0.6209
  968SOL    HW2 3871   3.037   2.543   2.869  0.1836  2.8155  1.6617
  968SOL     MW 3872   2.999   2.599   2.928 -0.6801  0.5036  0.4114
  969SOL     OW 3873   1.508   2.122   1.689 -0.1239 -0.3283 -0.4395
  969SOL    HW1 3874   1.580   2.053   1.707  1.7126  2.1369 -0.5680
  969SOL    HW2 3875   1.481   2.145   1.778  0.5042 -0.6082  1.4266
  969SOL     MW 3876   1.514   2.116   1.703  0.2013 -0.0400 -0.2102
  970SOL     OW 3877   1.676   1.647   1.813 -0.2834 -0.4403 -0.2898
  970SOL    HW1 3878   1.739   1.645   1.881 -1.6903  0.0488 -1.7051
  970SOL    HW2 3879   1.593   1.674   1.860  1.5626  3.5311 -1.2967
  970SOL     MW 3880   1.673   1.650   1.828 -0.2255  0.1483 -0.6094
  971SOL     OW 3881   1.774   0.013   2.370 -0.5533 -0.2291 -0.0235
  971SOL    HW1 3882   1.827  -0.052   2.309  2.1736 -1.8629 -0.8853
  971SOL    HW2 3883   1.823   0.101   2.386  0.9319  2.8141  1.3733
  971SOL     MW 3884   1.787   0.016   2.364  0.0025 -0.0431  0.0471
  972SOL     OW 3885   0.257   2.817   2.460 -0.2463  0.7132 -0.9753
  972SOL    HW1 3886   0.267   2.734   2.510 -1.4865  0.2731 -1.8296
  972SOL    HW2 3887   0.305   2.893   2.488 -2.0431 -0.0229 -1.2369
  972SOL     MW 3888   0.265   2.816   2.470 -0.6470  0.5580 -1.1225
  973SOL     OW 3889   2.591   0.022   2.121 -0.3979 -0.0102 -0.0490
  973SOL    HW1 3890   2.577  -0.073   2.118  1.8229  0.5973  1.5447
  973SOL    HW2 3891   2.603   0.042   2.031 -0.3580 -3.3885  1.5147
  973SOL     MW 3892   2.590   0.012   2.108 -0.0996 -0.3758  0.3676
  974SOL     OW 3893   2.072   0.280   2.764 -0.2453 -0.4764 -0.6232
  974SOL    HW1 3894   2.166   0.247   2.762  1.4136 -0.0582 -3.0226
  974SOL    HW2 3895   2.018   0.207   2.804 -0.4141  1.0160 -2.1193
  974SOL     MW 3896   2.077   0.266   2.769 -0.0487 -0.2243 -1.1372
  975SOL     OW 3897   2.170   2.545   2.522 -0.2096 -0.5055  0.2700
  975SOL    HW1 3898   2.254   2.590   2.544 -1.5682 -1.4597 -1.1897
  975SOL    HW2 3899   2.109   2.615   2.494 -0.1981 -0.8059 -1.9168
  975SOL     MW 3900   2.173   2.560   2.521 -0.3874 -0.6710 -0.2111
  976SOL     OW 3901   0.261   0.407   1.745  0.3867 -0.1008 -0.0646
  976SOL    HW1 3902   0.325   0.344   1.757 -2.6128  0.9527 -1.3682
  976SOL    HW2 3903   0.196   0.349   1.708 -1.0042 -1.5863  0.8975
  976SOL     MW 3904   0.261   0.391   1.742 -0.1926 -0.1578 -0.1097
  977SOL     OW 3905   1.727   2.732   2.456 -0.8071 -0.6640  0.0378
  977SOL    HW1 3906   1.712   2.640   2.438 -0.5004  1.4925 -0.5064
  977SOL    HW2 3907   1.823   2.740   2.448 -0.1355  0.6137  0.7971
  977SOL     MW 3908   1.738   2.721   2.452 -0.6781 -0.2109  0.0662
   3.10000   3.10000   3.10000
