977 TIP4P/2005f water molecules t=   0.15000 step= 150
 3908
    1SOL     OW    1   0.222   0.744   0.038  0.3428  0.5948  0.4667
    1SOL    HW1    2   0.223   0.796  -0.042 -0.4508 -0.2854  1.3994
    1SOL    HW2    3   0.236   0.651   0.006 -1.2238 -0.4658 -2.9705
    1SOL     MW    4   0.224   0.739   0.023  0.0314  0.3387  0.1362
    2SOL     OW    5   0.368   3.027   1.136  0.4912 -0.3307 -0.4186
    2SOL    HW1    6   0.417   3.104   1.108  1.2248 -1.1349  3.3090
    2SOL    HW2    7   0.279   3.057   1.150 -0.7580 -0.6060  0.6528
    2SOL     MW    8   0.363   3.041   1.134  0.4232 -0.4732  0.2146
    3SOL     OW    9   2.734   0.386   0.876 -0.9996 -0.0590  0.4520
    3SOL    HW1   10   2.725   0.472   0.823 -1.0556  1.5161  0.3187
    3SOL    HW2   11   2.724   0.417   0.970  0.1811  2.4623 -2.1107
    3SOL     MW   12   2.731   0.401   0.882 -0.8512  0.4815  0.0963
    4SOL     OW   13   0.006   1.743   0.669 -0.2577  1.0697 -0.5343
    4SOL    HW1   14  -0.059   1.783   0.609  1.2134 -0.3246  1.5157
    4SOL    HW2   15   0.069   1.700   0.615  1.4695  1.8340  0.2745
    4SOL     MW   16   0.006   1.743   0.654  0.1643  0.9866 -0.1571
    5SOL     OW   17   1.678   1.459   0.510  0.2151  0.3632  0.1921
    5SOL    HW1   18   1.732   1.424   0.586  1.5426 -0.1008 -0.0993
    5SOL    HW2   19   1.586   1.452   0.540  2.0468  2.2412 -2.5553
    5SOL     MW   20   1.673   1.454   0.524  0.6319  0.5497 -0.2088
    6SOL     OW   21   0.840   1.362   0.577 -0.1545  0.4696  0.1934
    6SOL    HW1   22   0.767   1.360   0.641 -2.8229 -1.3172 -0.3214
    6SOL    HW2   23   0.891   1.279   0.603 -1.2674 -1.0327  0.6171
    6SOL     MW   24   0.837   1.351   0.589 -0.6534  0.0356  0.1814
    7SOL     OW   25   1.955   1.056   3.079  0.2953  0.1630  0.3169
    7SOL    HW1   26   1.977   1.136   3.030  0.1758  2.9873  3.7876
    7SOL    HW2   27   1.990   1.093   3.159  1.3619  0.6310 -0.2986
    7SOL     MW   28   1.963   1.072   3.083  0.4202  0.5974  0.6936
    8SOL     OW   29   0.993   1.298   1.071 -0.7030 -0.6726 -0.0366
    8SOL    HW1   30   1.092   1.304   1.084  3.8771  0.8531 -0.5188
    8SOL    HW2   31   0.975   1.207   1.087  0.2764  0.5323  0.9833
    8SOL     MW   32   1.004   1.287   1.074  0.0305 -0.3123  0.0343
    9SOL     OW   33   0.999   0.501   1.418 -0.0069 -0.4405 -0.3436
    9SOL    HW1   34   0.937   0.433   1.420  0.0626  1.1069  0.7570
    9SOL    HW2   35   1.064   0.483   1.485 -0.1124  0.0607 -0.9417
    9SOL     MW   36   0.999   0.490   1.427 -0.0117 -0.1702 -0.2773
   10SOL     OW   37   0.299   0.876   0.464 -0.0310  0.2839  0.7760
   10SOL    HW1   38   0.397   0.882   0.448  0.2421 -1.9479  0.4352
   10SOL    HW2   39   0.282   0.938   0.535 -2.2741 -0.2998  2.3417
   10SOL     MW   40   0.310   0.885   0.472 -0.2909 -0.0876  0.9376
   11SOL     OW   41   0.921   1.088   1.533  0.0428  0.1088 -0.2673
   11SOL    HW1   42   0.927   1.065   1.624  0.8966  1.0342 -0.9604
   11SOL    HW2   43   0.836   1.046   1.502  0.3190 -0.6350  1.8078
   11SOL     MW   44   0.911   1.080   1.540  0.1919  0.1328 -0.0850
   12SOL     OW   45   3.063   1.097   0.843  0.2239  0.2883  0.4416
   12SOL    HW1   46   3.090   1.163   0.901 -2.4554 -0.5327 -1.1073
   12SOL    HW2   47   3.022   1.139   0.765 -1.8155 -0.8473 -2.0723
   12SOL     MW   48   3.061   1.111   0.840 -0.3986  0.0301 -0.0944
   13SOL     OW   49   1.908   1.429   1.438  0.0114  0.4312 -0.0491
   13SOL    HW1   50   1.959   1.398   1.364  1.4882 -0.6918  0.1780
   13SOL    HW2   51   1.900   1.523   1.427  1.5482  1.7623 -0.0390
   13SOL     MW   52   1.914   1.438   1.427  0.4090  0.4587 -0.0178
   14SOL     OW   53   0.589   0.360   1.764 -0.0152 -0.3683  0.0910
   14SOL    HW1   54   0.596   0.275   1.712 -1.9661 -1.9319  1.4259
   14SOL    HW2   55   0.664   0.352   1.820 -0.0886 -0.8441  1.2501
   14SOL     MW   56   0.600   0.348   1.765 -0.2823 -0.6374  0.4200
   15SOL     OW   57   1.994   0.559   0.913 -0.3490 -0.4697 -0.0844
   15SOL    HW1   58   2.009   0.528   1.002 -2.1030 -0.3605 -0.1257
   15SOL    HW2   59   2.073   0.546   0.863 -0.8369 -1.9173 -0.2605
   15SOL     MW   60   2.006   0.553   0.918 -0.6448 -0.6463 -0.1131
   16SOL     OW   61   0.183   1.792   0.269  0.4917  0.6118 -0.0037
   16SOL    HW1   62   0.270   1.746   0.284  0.3215 -0.1135  0.9720
   16SOL    HW2   63   0.195   1.871   0.312  1.6798 -0.8676  1.2978
   16SOL     MW   64   0.196   1.796   0.277  0.6260  0.3209  0.2968
   17SOL     OW   65   1.131   0.791   1.478 -0.8190  0.2158 -0.4100
   17SOL    HW1   66   1.155   0.839   1.560 -0.7149  1.4558 -0.1305
   17SOL    HW2   67   1.040   0.764   1.481 -1.2032  2.4813 -0.0125
   17SOL     MW   68   1.122   0.793   1.489 -0.8560  0.6783 -0.3207
   18SOL     OW   69  -0.001   1.561   0.378  0.0994  0.0907  0.1203
   18SOL    HW1   70   0.053   1.615   0.322  1.3885 -0.6272  2.3873
   18SOL    HW2   71   0.001   1.476   0.339  0.2366 -2.3357  0.9966
   18SOL     MW   72   0.006   1.557   0.366  0.2876 -0.3241  0.5351
   19SOL     OW   73   0.076   1.246   1.031  0.5577  0.2991  0.0072
   19SOL    HW1   74   0.137   1.311   0.985  0.9599 -0.2824 -1.3643
   19SOL    HW2   75  -0.008   1.301   1.036 -0.3561 -2.3174  0.5848
   19SOL     MW   76   0.073   1.262   1.026  0.4902 -0.1228 -0.0975
   20SOL     OW   77   0.500   2.202   1.306 -0.0913 -0.1337 -0.3007
   20SOL    HW1   78   0.456   2.130   1.249 -0.0921 -1.7779 -0.3260
   20SOL    HW2   79   0.432   2.240   1.369 -1.6855 -0.6010 -0.3220
   20SOL     MW   80   0.485   2.198   1.307 -0.3017 -0.4123 -0.3068
   21SOL     OW   81   0.563   0.904   0.345 -0.3187 -0.1471 -0.1761
   21SOL    HW1   82   0.624   0.837   0.391  2.4319 -0.5981  0.7258
   21SOL    HW2   83   0.542   0.875   0.258  0.6430 -0.5930 -1.8095
   21SOL     MW   84   0.568   0.891   0.339  0.1711 -0.2655 -0.2726
   22SOL     OW   85   1.572   0.608   1.137 -0.4254 -0.2071 -0.6221
   22SOL    HW1   86   1.626   0.573   1.061 -0.4194 -1.8717  1.0495
   22SOL    HW2   87   1.502   0.654   1.097  2.4659  0.1933 -0.6202
   22SOL     MW   88   1.570   0.609   1.122 -0.0432 -0.3739 -0.4013
   23SOL     OW   89   3.055   0.736   0.714  0.1431  0.5730  0.2737
   23SOL    HW1   90   3.104   0.650   0.711  1.4586  0.3119 -0.4251
   23SOL    HW2   91   3.127   0.791   0.741 -2.3716 -2.5017 -0.9858
   23SOL     MW   92   3.071   0.732   0.717 -0.0151  0.1329  0.0153
   24SOL     OW   93   2.090   2.200   0.020 -0.1132 -1.5404  0.3127
   24SOL    HW1   94   2.043   2.181   0.102  0.1474 -2.4813  0.3500
   24SOL    HW2   95   2.110   2.115  -0.013  0.0631  0.4283  2.8641
   24SOL     MW   96   2.086   2.186   0.027 -0.0555 -1.4048  0.6543
   25SOL     OW   97   0.184   1.441   0.588  0.0903 -0.5963 -0.0511
   25SOL    HW1   98   0.111   1.438   0.533 -1.2653 -0.8520  1.0034
   25SOL    HW2   99   0.253   1.475   0.533  1.7346  1.5505 -0.5964
   25SOL     MW  100   0.184   1.445   0.573  0.1284 -0.3468  0.0161
   26SOL     OW  101   2.037   1.005   0.411  0.4159 -0.4743 -0.0921
   26SOL    HW1  102   1.961   1.047   0.445  0.9031 -0.7883 -2.0392
   26SOL    HW2  103   2.049   1.036   0.315  1.1634 -0.5037 -0.1346
   26SOL     MW  104   2.028   1.015   0.403  0.5788 -0.5196 -0.3546
   27SOL     OW  105   1.977   1.460   0.239 -0.3602 -0.2749 -0.3223
   27SOL    HW1  106   1.895   1.410   0.258  0.1904 -2.1035  0.5886
   27SOL    HW2  107   2.010   1.485   0.328 -1.8686  0.9253 -0.5874
   27SOL     MW  108   1.971   1.457   0.253 -0.4865 -0.3578 -0.2371
   28SOL     OW  109   0.354   0.953   1.918  0.6458  0.1006 -0.2265
   28SOL    HW1  110   0.274   0.897   1.950 -3.2905  0.9962 -3.0858
   28SOL    HW2  111   0.401   0.902   1.853  0.9313 -0.6741 -2.2097
   28SOL     MW  112   0.350   0.939   1.914  0.1641  0.1165 -0.8654
   29SOL     OW  113   0.211   1.432   0.890 -0.3108  0.7798 -0.4457
   29SOL    HW1  114   0.237   1.524   0.902  1.8903 -2.6839 -0.7188
   29SOL    HW2  115   0.218   1.415   0.797  2.2057  0.7850 -2.4557
   29SOL     MW  116   0.215   1.442   0.880  0.3116  0.3235 -0.7470
   30SOL     OW  117   0.928   1.018   1.155  0.4405  0.5857  0.0977
   30SOL    HW1  118   0.840   1.026   1.197  0.8217 -2.0931 -0.1233
   30SOL    HW2  119   0.998   1.042   1.219  0.8631 -1.1614  0.0503
   30SOL     MW  120   0.926   1.023   1.169  0.5465  0.0018  0.0623
   31SOL     OW  121   0.479   0.256   0.211 -0.2017  0.1314  0.3633
   31SOL    HW1  122   0.488   0.206   0.296  0.4262  1.5035 -0.6444
   31SOL    HW2  123   0.441   0.203   0.136 -1.4677  0.5481  0.9524
   31SOL     MW  124   0.475   0.242   0.213 -0.2859  0.3674  0.3081
   32SOL     OW  125   2.685   1.039   1.107  0.0970 -0.1381 -0.0491
   32SOL    HW1  126   2.654   0.955   1.136  2.5640 -0.8216 -1.0366
   32SOL    HW2  127   2.781   1.034   1.116  0.9708 -0.7910  0.5024
   32SOL     MW  128   2.694   1.027   1.112  0.5378 -0.3144 -0.1066
   33SOL     OW  129   1.789   1.267   0.344 -0.2740 -0.3723 -0.1034
   33SOL    HW1  130   1.777   1.175   0.380 -1.2194 -0.1066  0.2305
   33SOL    HW2  131   1.746   1.329   0.407  1.1712 -0.1473 -0.9878
   33SOL     MW  132   1.782   1.263   0.357 -0.2081 -0.3076 -0.1761
   34SOL     OW  133   1.270   1.845   1.126 -0.1315  0.3243  0.0026
   34SOL    HW1  134   1.176   1.861   1.142 -1.7905  0.0246 -1.9945
   34SOL    HW2  135   1.329   1.861   1.201  0.9009 -2.8051 -0.6935
   34SOL     MW  136   1.265   1.849   1.138 -0.2142 -0.1281 -0.3527
   35SOL     OW  137   0.369   0.034   1.867  0.1191 -0.3195 -0.4455
   35SOL    HW1  138   0.364  -0.033   1.938 -1.3310 -0.4154 -3.4973
   35SOL    HW2  139   0.399  -0.010   1.787  0.3716 -3.2446  1.2115
   35SOL     MW  140   0.372   0.019   1.866 -0.0389 -0.7181 -0.6295
   36SOL     OW  141   1.867   1.924   0.508  0.1729 -0.0272 -0.1447
   36SOL    HW1  142   1.888   1.910   0.411 -1.5111  0.3944  0.8243
   36SOL    HW2  143   1.872   1.841   0.556  0.6910  1.5008  0.5293
   36SOL     MW  144   1.870   1.911   0.501  0.0190  0.2301  0.0721
   37SOL     OW  145   1.789   1.994   0.961 -0.6567  0.3692 -0.1514
   37SOL    HW1  146   1.731   1.923   0.916 -1.4854 -3.7665  0.4694
   37SOL    HW2  147   1.727   2.051   1.021  0.5173 -0.3427  0.3625
   37SOL     MW  148   1.773   1.992   0.963 -0.6111 -0.2704 -0.0017
   38SOL     OW  149   2.853   0.908   0.224  0.0462 -0.0729  0.0352
   38SOL    HW1  150   2.891   0.880   0.311  2.3242  1.5069  1.6379
   38SOL    HW2  151   2.918   0.877   0.154  1.1297 -1.4334 -0.3048
   38SOL     MW  152   2.866   0.900   0.226  0.4897 -0.0440  0.2018
   39SOL     OW  153   1.454   0.679   0.839 -0.1746 -0.1880  0.5732
   39SOL    HW1  154   1.446   0.584   0.870  2.0145 -0.1487  0.7161
   39SOL    HW2  155   1.399   0.733   0.898 -0.3107  2.8519 -0.8353
   39SOL     MW  156   1.446   0.674   0.851  0.0962  0.2182  0.4062
   40SOL     OW  157   1.301   1.891   0.248  0.0470 -0.3835  0.2984
   40SOL    HW1  158   1.312   1.804   0.281 -0.3886  1.7245  0.3385
   40SOL    HW2  159   1.286   1.945   0.327  0.2009  0.6471 -0.2191
   40SOL     MW  160   1.300   1.886   0.263  0.0098  0.0306  0.2354
   41SOL     OW  161   0.617   0.557   1.561 -0.3257  0.1266  0.2311
   41SOL    HW1  162   0.702   0.610   1.582  0.3995 -1.1376  0.0642
   41SOL    HW2  163   0.622   0.484   1.615  1.2984  1.5665  0.0220
   41SOL     MW  164   0.629   0.554   1.571 -0.0158  0.1498  0.1815
   42SOL     OW  165   1.392   3.073   1.955 -0.1293 -0.1138 -0.0644
   42SOL    HW1  166   1.301   3.056   1.989 -2.0020  1.1532  1.0828
   42SOL    HW2  167   1.445   3.003   1.987 -2.4349  1.4791 -1.0594
   42SOL     MW  168   1.387   3.062   1.964 -0.6806  0.2635 -0.0443
   43SOL     OW  169   1.585   0.185   1.571 -0.2664  0.5621  0.1116
   43SOL    HW1  170   1.630   0.133   1.507  2.7612 -0.7081  0.7917
   43SOL    HW2  171   1.508   0.136   1.605  0.4480  1.2186  1.2581
   43SOL     MW  172   1.581   0.172   1.567  0.2273  0.4811  0.3526
   44SOL     OW  173   1.317   0.750   1.055 -0.0646  0.4787 -0.1787
   44SOL    HW1  174   1.317   0.850   1.040 -4.3727  0.3878  0.2664
   44SOL    HW2  175   1.320   0.735   1.150  1.7646 -0.5816  0.6043
   44SOL     MW  176   1.318   0.762   1.065 -0.3917  0.3268 -0.0167
   45SOL     OW  177   1.038   0.790   0.803  0.3369 -0.3996  0.4941
   45SOL    HW1  178   1.024   0.729   0.873  1.3662  2.0550 -0.3725
   45SOL    HW2  179   1.048   0.732   0.722  1.5737 -3.1585 -1.9167
   45SOL     MW  180   1.038   0.774   0.801  0.6359 -0.4398  0.0617
   46SOL     OW  181   0.599   1.125   0.605 -0.0955 -0.1915 -0.1286
   46SOL    HW1  182   0.604   1.135   0.510 -2.1021  0.3801  0.1796
   46SOL    HW2  183   0.684   1.080   0.625  1.6312 -1.1404  0.6970
   46SOL     MW  184   0.611   1.121   0.595 -0.1324 -0.2413  0.0210
   47SOL     OW  185   0.096   1.900   1.834  0.4884  0.4820  0.3160
   47SOL    HW1  186   0.158   1.852   1.783 -1.5218  0.5741  1.0068
   47SOL    HW2  187   0.117   1.896   1.925  0.7033  0.9628  0.6748
   47SOL     MW  188   0.107   1.893   1.840  0.2516  0.5576  0.4545
   48SOL     OW  189   1.062   0.647   1.046  0.3764  0.2600 -0.0377
   48SOL    HW1  190   1.000   0.693   1.107  1.7275 -0.9392  2.6716
   48SOL    HW2  191   1.153   0.689   1.039 -2.4186  0.1760 -1.1857
   48SOL     MW  192   1.066   0.659   1.053  0.1859  0.0907  0.1683
   49SOL     OW  193   1.847   0.775   1.585  0.0635  0.4519 -0.3697
   49SOL    HW1  194   1.781   0.730   1.640 -1.0312 -0.8841  2.3053
   49SOL    HW2  195   1.909   0.701   1.564 -1.3222  2.2616  0.1791
   49SOL     MW  196   1.847   0.759   1.589 -0.2637  0.5144  0.0556
   50SOL     OW  197   1.302   1.010   0.594  0.6389 -0.0743 -0.0488
   50SOL    HW1  198   1.295   1.033   0.682  0.4803  0.3319 -1.7659
   50SOL    HW2  199   1.341   0.917   0.578 -1.2496 -0.2715  0.8240
   50SOL     MW  200   1.306   1.001   0.603  0.3688 -0.0467 -0.1602
   51SOL     OW  201   0.301   2.891   0.922  0.4144 -0.0723  0.3749
   51SOL    HW1  202   0.387   2.839   0.930  0.0162  1.6577 -0.8550
   51SOL    HW2  203   0.307   2.939   1.006 -1.5890  0.4031  0.4385
   51SOL     MW  204   0.313   2.890   0.934  0.0976  0.2187  0.2210
   52SOL     OW  205   0.821   1.892   0.422  0.0882 -0.2734 -0.5035
   52SOL    HW1  206   0.771   1.948   0.480  1.2216  0.7034 -1.2402
   52SOL    HW2  207   0.778   1.909   0.341  0.0387 -2.2975  1.0673
   52SOL     MW  208   0.809   1.902   0.419  0.2312 -0.4116 -0.3935
   53SOL     OW  209   0.343   2.032   0.606 -0.1047  0.5513  0.1110
   53SOL    HW1  210   0.327   2.027   0.513  0.6884  0.8598  1.5575
   53SOL    HW2  211   0.352   2.139   0.620  0.8966 -0.7507  0.2590
   53SOL     MW  212   0.342   2.046   0.596  0.1321  0.4202  0.3214
   54SOL     OW  213   2.201   0.849   0.843  0.2431 -0.3573  0.7979
   54SOL    HW1  214   2.219   0.815   0.755 -0.3936  0.4591 -0.4986
   54SOL    HW2  215   2.105   0.846   0.852 -0.4264  0.4887  0.8213
   54SOL     MW  216   2.191   0.844   0.833  0.0708 -0.1379  0.6299
   55SOL     OW  217   0.509   1.438   1.524 -0.2316  0.1329 -0.2795
   55SOL    HW1  218   0.495   1.485   1.445  0.4264  1.8232 -0.1288
   55SOL    HW2  219   0.603   1.410   1.529  2.2763  0.3843 -0.3807
   55SOL     MW  220   0.519   1.440   1.514  0.1861  0.3891 -0.2730
   56SOL     OW  221   0.465   0.807   0.111  0.0771 -0.5134  0.1211
   56SOL    HW1  222   0.476   0.861   0.038 -0.7584  1.1109  0.5737
   56SOL    HW2  223   0.371   0.786   0.107  0.2885 -0.2941 -1.7863
   56SOL     MW  224   0.454   0.811   0.101 -0.0053 -0.2702 -0.0709
   57SOL     OW  225   1.262   1.229   1.140  0.0977 -0.0580 -0.3838
   57SOL    HW1  226   1.356   1.254   1.153 -1.3671  1.7889  0.5919
   57SOL    HW2  227   1.248   1.157   1.210 -0.0140  0.1552  0.6790
   57SOL     MW  228   1.273   1.223   1.151 -0.1103  0.2138 -0.1149
   58SOL     OW  229   0.690   1.087   1.258  0.1064  0.4003  0.0944
   58SOL    HW1  230   0.642   1.166   1.229  0.0875 -2.1096  0.0838
   58SOL    HW2  231   0.664   1.071   1.349  0.2023  1.3573 -0.2190
   58SOL     MW  232   0.680   1.095   1.266  0.1166  0.1954  0.0517
   59SOL     OW  233   1.549   1.585   0.272 -0.2284  0.2803 -0.0573
   59SOL    HW1  234   1.599   1.525   0.328  1.3322 -2.9881 -0.1374
   59SOL    HW2  235   1.476   1.629   0.317 -1.1551 -0.3905 -0.0389
   59SOL     MW  236   1.546   1.583   0.286 -0.1448 -0.2395 -0.0654
   60SOL     OW  237   0.016   0.158   1.705  0.0515 -0.1421 -0.1742
   60SOL    HW1  238  -0.077   0.180   1.709 -1.9421 -1.3109 -2.2041
   60SOL    HW2  239   0.017   0.061   1.707  1.0957  1.2591 -0.2791
   60SOL     MW  240   0.004   0.148   1.706 -0.0737 -0.1114 -0.4559
   61SOL     OW  241   2.017   1.465   3.055  0.0495 -0.3131  0.0181
   61SOL    HW1  242   2.030   1.453   3.147 -0.2311  2.2796 -1.0441
   61SOL    HW2  243   2.050   1.380   3.010 -0.6418 -1.6752 -1.7082
   61SOL     MW  244   2.023   1.452   3.061 -0.0788 -0.1507 -0.3498
   62SOL     OW  245   0.599   1.651   0.564  0.2769  0.4080 -0.6649
   62SOL    HW1  246   0.658   1.631   0.496 -2.2276 -0.3470 -0.8267
   62SOL    HW2  247   0.599   1.564   0.609 -0.1761 -0.4041  3.2060
   62SOL     MW  248   0.606   1.637   0.561 -0.1133  0.2012 -0.1755
   63SOL     OW  249   1.720   0.761   0.737 -0.0891 -0.4066 -0.0186
   63SOL    HW1  250   1.702   0.728   0.651 -2.8885 -1.8956  1.2494
   63SOL    HW2  251   1.640   0.737   0.779  0.3236  0.9972  1.9447
   63SOL     MW  252   1.707   0.754   0.731 -0.4040 -0.4178  0.4077
   64SOL     OW  253   0.299   1.695   0.985 -0.2645 -0.3220  0.7936
   64SOL    HW1  254   0.344   1.726   0.902  2.8191  0.6742 -0.9490
   64SOL    HW2  255   0.254   1.774   1.006  1.1511 -0.1628 -0.4180
   64SOL     MW  256   0.299   1.710   0.977  0.3291 -0.1695  0.4039
   65SOL     OW  257   1.520   2.214   0.318 -0.5179 -0.2888 -0.0895
   65SOL    HW1  258   1.587   2.180   0.255  1.5606  1.7562 -0.1035
   65SOL    HW2  259   1.577   2.277   0.359  0.5206  3.3873  2.5929
   65SOL     MW  260   1.536   2.218   0.315 -0.1066  0.4660  0.2626
   66SOL     OW  261   0.297   0.583   0.519  0.3172  0.1260  0.1632
   66SOL    HW1  262   0.363   0.564   0.450 -2.6172 -1.8053  1.8570
   66SOL    HW2  263   0.286   0.676   0.513 -0.5695 -1.1353  0.7426
   66SOL     MW  264   0.305   0.593   0.509 -0.1870 -0.2952  0.4631
   67SOL     OW  265   1.548   0.202   2.003 -0.6457 -0.3167  0.4086
   67SOL    HW1  266   1.570   0.253   1.925  3.4185 -0.6550 -1.3021
   67SOL    HW2  267   1.500   0.120   1.980 -1.7608 -1.5678 -0.1739
   67SOL     MW  268   1.544   0.198   1.990 -0.2566 -0.5264  0.1061
   68SOL     OW  269   0.694   0.091   2.981 -0.6156 -0.0698  0.4559
   68SOL    HW1  270   0.740   0.087   2.898  2.5435 -1.2167 -0.5105
   68SOL    HW2  271   0.677   0.187   2.990 -2.8553  2.0647  0.1449
   68SOL     MW  272   0.698   0.103   2.971 -0.4943  0.0605  0.2873
   69SOL     OW  273   1.010   0.162   1.959  0.0140  0.7235 -0.0193
   69SOL    HW1  274   1.065   0.211   2.018 -1.1288 -1.0375  1.9348
   69SOL    HW2  275   1.042   0.066   1.967  2.1043  0.1593  0.8948
   69SOL     MW  276   1.022   0.156   1.968  0.1390  0.4167  0.3592
   70SOL     OW  277   0.571   1.796   1.146 -0.0335 -0.0778 -0.5456
   70SOL    HW1  278   0.582   1.711   1.190 -0.1835  0.1518  0.9225
   70SOL    HW2  279   0.654   1.803   1.086 -1.5925  0.1760 -2.1705
   70SOL     MW  280   0.583   1.786   1.144 -0.2590 -0.0140 -0.5663
   71SOL     OW  281   1.792   0.699   1.303  0.2528  0.3371 -0.5260
   71SOL    HW1  282   1.779   0.711   1.398 -0.6202 -3.3504 -0.4002
   71SOL    HW2  283   1.707   0.683   1.264 -1.1042  1.6150 -1.0062
   71SOL     MW  284   1.779   0.698   1.310 -0.0414  0.0192 -0.5728
   72SOL     OW  285   0.824   1.841   1.025 -0.4059 -0.3164 -0.3143
   72SOL    HW1  286   0.825   1.899   0.949 -0.5771  0.3604 -1.9692
   72SOL    HW2  287   0.849   1.758   0.992 -0.6111  0.9712 -1.3041
   72SOL     MW  288   0.827   1.838   1.011 -0.4556 -0.0572 -0.6633
   73SOL     OW  289   1.319   0.660   1.316 -0.4511  0.4500 -0.1541
   73SOL    HW1  290   1.298   0.568   1.311 -0.5607  0.6270 -0.3528
   73SOL    HW2  291   1.249   0.697   1.374 -1.6150 -0.5464 -1.2848
   73SOL     MW  292   1.307   0.653   1.323 -0.6191  0.3419 -0.3295
   74SOL     OW  293   2.773   0.102   1.010 -0.3650 -0.1492 -0.1656
   74SOL    HW1  294   2.751   0.024   0.964  1.8070  0.5121 -0.3541
   74SOL    HW2  295   2.786   0.172   0.942 -0.3094 -0.3693  0.2161
   74SOL     MW  296   2.772   0.101   0.995 -0.0711 -0.0910 -0.1401
   75SOL     OW  297   1.669   1.291   0.094  0.4729  0.8780 -0.1389
   75SOL    HW1  298   1.717   1.287   0.183  0.5904 -0.6832  0.5605
   75SOL    HW2  299   1.672   1.201   0.058 -2.0088 -2.2759 -1.5240
   75SOL     MW  300   1.676   1.279   0.101  0.1610  0.2559 -0.2294
   76SOL     OW  301   2.942   0.632   0.474 -0.1476  0.0675  0.6332
   76SOL    HW1  302   2.978   0.656   0.562 -2.3006  1.8541 -0.8159
   76SOL    HW2  303   3.020   0.598   0.422 -0.4626 -1.4663 -1.6723
   76SOL     MW  304   2.957   0.631   0.479 -0.4732  0.1009  0.1378
   77SOL     OW  305   0.896   0.432   0.525 -0.1505 -0.3717 -0.1277
   77SOL    HW1  306   0.855   0.516   0.527 -0.3854  0.3809  2.2241
   77SOL    HW2  307   0.826   0.361   0.527  1.0052 -1.5568 -0.5883
   77SOL     MW  308   0.881   0.433   0.526 -0.0290 -0.4287  0.1218
   78SOL     OW  309   0.842   0.758   1.227 -0.6081 -0.1041  0.0007
   78SOL    HW1  310   0.771   0.715   1.176  0.3485  1.8543 -0.0481
   78SOL    HW2  311   0.854   0.847   1.194 -0.3608 -0.0102  1.6642
   78SOL     MW  312   0.835   0.764   1.216 -0.4493  0.1667  0.2137
   79SOL     OW  313   1.823   1.666   0.598 -0.1648 -0.1038  0.1282
   79SOL    HW1  314   1.759   1.601   0.575  1.0083 -0.4363 -1.6335
   79SOL    HW2  315   1.836   1.644   0.690 -1.5641  0.1026 -1.2111
   79SOL     MW  316   1.817   1.654   0.607 -0.1946 -0.1204 -0.2810
   80SOL     OW  317   0.155   1.016   0.254  0.0679 -0.5708 -0.3159
   80SOL    HW1  318   0.089   0.954   0.293 -1.3890 -3.0538  1.0728
   80SOL    HW2  319   0.223   0.997   0.324  1.6893  0.4511  0.8255
   80SOL     MW  320   0.155   1.005   0.269  0.0896 -0.7636  0.0179
   81SOL     OW  321   1.936   1.905   0.237  0.5296 -0.2704  0.5886
   81SOL    HW1  322   1.878   1.828   0.224 -0.6556 -1.1243  3.9551
   81SOL    HW2  323   1.880   1.989   0.229  1.3223 -0.3934 -0.6879
   81SOL     MW  324   1.921   1.906   0.234  0.4778 -0.3993  0.8644
   82SOL     OW  325   0.857   0.915   0.549 -0.8364 -0.1889  0.0353
   82SOL    HW1  326   0.940   0.927   0.496  0.4497 -1.3099  0.0120
   82SOL    HW2  327   0.833   0.825   0.552  0.6557  1.9431 -0.6409
   82SOL     MW  328   0.865   0.905   0.542 -0.4699 -0.0555 -0.0570
   83SOL     OW  329   0.093   0.639   1.387  0.4999  0.2952 -0.0660
   83SOL    HW1  330   0.114   0.714   1.340 -2.4891 -0.0561  0.5405
   83SOL    HW2  331   0.163   0.577   1.416  0.7047 -2.5532 -1.2336
   83SOL     MW  332   0.105   0.640   1.385  0.1325 -0.1269 -0.1400
   84SOL     OW  333   0.041   0.292   1.075 -0.0724 -0.0228 -0.2184
   84SOL    HW1  334  -0.020   0.290   0.999 -0.9834 -0.6247  0.3799
   84SOL    HW2  335   0.056   0.198   1.100 -1.3630 -2.2067 -1.2410
   84SOL     MW  336   0.035   0.279   1.069 -0.3629 -0.3904 -0.2744
   85SOL     OW  337   0.436   0.417   0.724 -0.2673  0.4340  0.2059
   85SOL    HW1  338   0.391   0.478   0.669 -3.6883  0.0907 -2.9471
   85SOL    HW2  339   0.386   0.332   0.727  0.0237 -1.1899 -0.3412
   85SOL     MW  340   0.424   0.414   0.717 -0.6803  0.1745 -0.2823
   86SOL     OW  341   1.146   0.408   1.189  0.0483  0.3280 -0.6165
   86SOL    HW1  342   1.111   0.485   1.131 -0.5360  1.1381 -0.5651
   86SOL    HW2  343   1.071   0.396   1.248  1.9381 -1.9867  0.3667
   86SOL     MW  344   1.131   0.416   1.189  0.2205  0.1295 -0.4800
   87SOL     OW  345   1.262   1.421   1.361 -0.0603  0.5350 -0.3487
   87SOL    HW1  346   1.290   1.470   1.285 -0.3985  0.9051 -0.0372
   87SOL    HW2  347   1.240   1.336   1.323 -2.1061 -0.6370 -0.0355
   87SOL     MW  348   1.263   1.417   1.346 -0.3748  0.4292 -0.2663
   88SOL     OW  349   1.362   1.000   0.999 -0.1534 -0.3474  0.0660
   88SOL    HW1  350   1.453   0.994   1.020 -2.4704 -0.9081 -2.5763
   88SOL    HW2  351   1.336   1.080   1.040  3.0144 -0.4216  0.3902
   88SOL     MW  352   1.371   1.010   1.008 -0.0411 -0.4312 -0.2398
   89SOL     OW  353   1.782   0.573   0.284 -0.7126  0.1893  0.0992
   89SOL    HW1  354   1.839   0.504   0.324 -0.5585 -0.8713 -0.8641
   89SOL    HW2  355   1.834   0.649   0.243 -1.9141  1.2375 -0.1228
   89SOL     MW  356   1.796   0.574   0.284 -0.8508  0.1877 -0.0572
   90SOL     OW  357   0.733   1.253   2.831 -0.7240 -0.1012  0.2709
   90SOL    HW1  358   0.780   1.188   2.776  0.6992  2.5153 -2.9920
   90SOL    HW2  359   0.740   1.217   2.919  1.7003 -1.3159 -4.5491
   90SOL     MW  360   0.740   1.240   2.836 -0.2164  0.0837 -0.7956
   91SOL     OW  361   1.989   0.730   0.467  0.8946 -0.0145 -0.0065
   91SOL    HW1  362   1.995   0.809   0.411  0.8341 -2.0218  1.8973
   91SOL    HW2  363   1.911   0.688   0.443  0.8063 -1.0309  3.3438
   91SOL     MW  364   1.979   0.735   0.457  0.8750 -0.4134  0.6867
   92SOL     OW  365   1.661   0.742   0.455  0.1342  0.0948 -0.2243
   92SOL    HW1  366   1.568   0.724   0.458 -1.4788  2.1051 -2.3985
   92SOL    HW2  367   1.690   0.674   0.385 -1.1790  1.8466 -2.4160
   92SOL     MW  368   1.653   0.731   0.446 -0.2519  0.5911 -0.8003
   93SOL     OW  369   1.032   0.216   0.382  0.4361  0.5524 -0.5092
   93SOL    HW1  370   0.986   0.295   0.416  0.7602 -0.2291 -1.1149
   93SOL    HW2  371   0.998   0.212   0.290 -0.9478  1.1466 -1.0462
   93SOL     MW  372   1.021   0.226   0.374  0.2963  0.5277 -0.6600
   94SOL     OW  373   1.968   1.268   1.695 -0.2453 -0.3671 -0.3361
   94SOL    HW1  374   1.940   1.314   1.617 -0.1022  0.0159 -0.7315
   94SOL    HW2  375   1.904   1.200   1.728 -1.2039  0.0655  2.2356
   94SOL     MW  376   1.956   1.265   1.689 -0.3529 -0.2595 -0.0490
   95SOL     OW  377   0.930   1.552   1.009  0.0088 -0.1708  0.0304
   95SOL    HW1  378   0.957   1.463   1.015  1.7481  1.9302  1.5626
   95SOL    HW2  379   0.878   1.557   1.082 -0.8454 -0.8562 -3.5008
   95SOL     MW  380   0.927   1.541   1.020  0.1256  0.0159 -0.2333
   96SOL     OW  381   1.250   1.783   1.665  0.2743 -0.1232 -0.5779
   96SOL    HW1  382   1.164   1.793   1.704  4.1967  1.7772 -0.8275
   96SOL    HW2  383   1.253   1.699   1.619  1.1339  2.8301 -2.3824
   96SOL     MW  384   1.239   1.773   1.664  0.9053  0.5172 -0.8490
   97SOL     OW  385   1.279   1.445   0.824  0.4763  0.0183 -0.6286
   97SOL    HW1  386   1.302   1.502   0.902  1.6289  1.2228  0.7566
   97SOL    HW2  387   1.199   1.488   0.788  2.2202 -1.6047  0.0521
   97SOL     MW  388   1.271   1.459   0.829  0.8585 -0.0369 -0.3561
   98SOL     OW  389   1.519   1.281   1.163 -0.2001  0.1235  0.2849
   98SOL    HW1  390   1.555   1.349   1.220 -0.9737  0.3138  0.1271
   98SOL    HW2  391   1.557   1.302   1.077  1.0268  0.6798  0.8623
   98SOL     MW  392   1.529   1.293   1.159 -0.1403  0.2220  0.3402
   99SOL     OW  393   1.499   0.348   1.252  0.5795 -1.0332  0.6152
   99SOL    HW1  394   1.514   0.437   1.205  0.9357  1.6692  1.8244
   99SOL    HW2  395   1.486   0.365   1.342  1.3358 -1.9310 -1.3859
   99SOL     MW  396   1.500   0.362   1.258  0.7263 -0.7951  0.5107
  100SOL     OW  397   1.139   1.064   1.336 -0.3730 -0.4089  0.0946
  100SOL    HW1  398   1.074   1.104   1.396  1.4743 -1.1880 -0.1482
  100SOL    HW2  399   1.146   0.970   1.371 -0.8790  0.7026  0.9703
  100SOL     MW  400   1.131   1.057   1.349 -0.1960 -0.3650  0.1781
  101SOL     OW  401   0.629   1.164   0.331 -0.2475  0.2391  0.1168
  101SOL    HW1  402   0.597   1.066   0.322  1.5426 -1.0676  1.3427
  101SOL    HW2  403   0.624   1.202   0.242 -0.6888  0.3417 -1.3719
  101SOL     MW  404   0.624   1.156   0.318 -0.0695  0.0803  0.0822
  102SOL     OW  405   2.948   0.592   0.924  0.4736 -0.1590  0.2337
  102SOL    HW1  406   3.003   0.655   0.868 -0.1084 -0.4079  3.1232
  102SOL    HW2  407   2.974   0.595   1.018 -0.2918 -2.4518  1.6147
  102SOL     MW  408   2.959   0.600   0.929  0.2958 -0.4943  0.7971
  103SOL     OW  409   1.626   0.362   1.791  0.0713  0.6789  0.7667
  103SOL    HW1  410   1.626   0.313   1.711  1.3979  1.6331 -2.7726
  103SOL    HW2  411   1.710   0.352   1.843  0.1191 -0.1555 -1.8305
  103SOL     MW  412   1.637   0.354   1.787  0.2526  0.6947 -0.0430
  104SOL     OW  413   0.091   1.837   1.514  0.0172  0.0241 -0.0505
  104SOL    HW1  414   0.154   1.775   1.480  0.3512 -0.8936  0.5033
  104SOL    HW2  415   0.060   1.793   1.588  2.3411  1.6705 -3.4713
  104SOL     MW  416   0.095   1.823   1.520  0.3679  0.1203 -0.4288
  105SOL     OW  417   0.163   1.165   0.529 -0.0293  0.0836 -0.6694
  105SOL    HW1  418   0.141   1.208   0.449 -0.7686 -0.5427  1.0965
  105SOL    HW2  419   0.200   1.239   0.579 -0.0774  1.9592  0.2567
  105SOL     MW  420   0.165   1.180   0.525 -0.1332  0.2484 -0.3142
  106SOL     OW  421   0.860   0.349   0.932  0.3174 -0.5103  0.0140
  106SOL    HW1  422   0.788   0.407   0.893  1.9499  0.9966 -0.9169
  106SOL    HW2  423   0.935   0.355   0.878  2.5155  0.7773 -0.8334
  106SOL     MW  424   0.861   0.357   0.920  0.8228 -0.1416 -0.2207
  107SOL     OW  425   0.795   2.212   3.059  0.1415  0.0287 -0.1313
  107SOL    HW1  426   0.750   2.162   2.994  0.7099  1.1068  1.3637
  107SOL    HW2  427   0.877   2.161   3.082 -0.4336 -1.2374 -0.2831
  107SOL     MW  428   0.800   2.198   3.054  0.1406  0.0039  0.0459
  108SOL     OW  429   1.408   1.586   1.529  0.0914 -0.1061 -0.3491
  108SOL    HW1  430   1.360   1.509   1.481 -2.6743 -1.7061 -1.2120
  108SOL    HW2  431   1.460   1.548   1.600  2.1130 -2.0450  0.7478
  108SOL     MW  432   1.408   1.571   1.532 -0.0068 -0.5730 -0.3182
  109SOL     OW  433   1.953   0.745   0.156  0.2007 -0.4461 -0.4821
  109SOL    HW1  434   1.937   0.753   0.065 -2.7638 -0.7427 -0.8438
  109SOL    HW2  435   2.035   0.793   0.175  0.2471  0.8754 -0.7784
  109SOL     MW  436   1.961   0.752   0.147 -0.1843 -0.3109 -0.5689
  110SOL     OW  437   0.414   1.772   0.731 -0.4028  0.1407 -0.3775
  110SOL    HW1  438   0.481   1.745   0.665 -0.0569  2.3309  0.7265
  110SOL    HW2  439   0.371   1.851   0.689 -1.0487 -0.1848  0.5333
  110SOL     MW  440   0.417   1.779   0.717 -0.4424  0.3867 -0.1117
  111SOL     OW  441   0.696   0.941   1.522  0.2894  0.2080 -0.0476
  111SOL    HW1  442   0.744   0.856   1.498 -0.1255 -0.6743  0.1590
  111SOL    HW2  443   0.607   0.910   1.552  1.1843 -2.0240  2.0761
  111SOL     MW  444   0.691   0.925   1.523  0.3527 -0.2029  0.2599
  112SOL     OW  445   1.292   1.129   1.602  0.1093 -0.2184  0.0015
  112SOL    HW1  446   1.226   1.190   1.653 -3.2606 -1.1756 -1.0247
  112SOL    HW2  447   1.266   1.042   1.626 -0.2288 -0.6066  0.4400
  112SOL     MW  448   1.280   1.126   1.612 -0.3799 -0.3959 -0.0760
  113SOL     OW  449   1.352   0.063   1.696  0.1467  0.3820 -0.5412
  113SOL    HW1  450   1.371   0.022   1.777  1.7006  2.4703 -2.8299
  113SOL    HW2  451   1.346  -0.009   1.640  0.4887 -1.2476 -1.6158
  113SOL     MW  452   1.354   0.048   1.700  0.3969  0.4425 -0.9850
  114SOL     OW  453   0.456   2.811   1.862 -0.0445  0.0873  0.1238
  114SOL    HW1  454   0.459   2.867   1.942 -0.2773  0.7454  1.6064
  114SOL    HW2  455   0.419   2.857   1.782  0.1228 -0.0089 -0.5294
  114SOL     MW  456   0.451   2.825   1.862 -0.0531  0.1614  0.2333
  115SOL     OW  457   0.394   0.850   1.050  0.3504 -0.1156  0.1354
  115SOL    HW1  458   0.460   0.778   1.057  0.8165  0.6610  2.3354
  115SOL    HW2  459   0.387   0.879   1.140 -0.3784  1.5563 -2.2192
  115SOL     MW  460   0.402   0.844   1.063  0.3157  0.2074  0.1150
  116SOL     OW  461   0.786   0.981   0.902  0.5792  0.4671 -0.1197
  116SOL    HW1  462   0.838   0.992   0.825 -0.4141 -0.1346 -1.4551
  116SOL    HW2  463   0.842   0.987   0.982  1.3641 -0.4201 -2.1274
  116SOL     MW  464   0.800   0.983   0.903  0.5517  0.2707 -0.5608
  117SOL     OW  465   1.213   1.141   0.829  0.1947 -1.0460  0.3950
  117SOL    HW1  466   1.246   1.074   0.892  1.2230 -0.0136 -3.6289
  117SOL    HW2  467   1.230   1.233   0.856  0.7304  0.8361  0.3220
  117SOL     MW  468   1.220   1.144   0.841  0.4010 -0.6615 -0.1455
  118SOL     OW  469   3.091   2.976   1.728 -0.0227  0.4948  0.3331
  118SOL    HW1  470   3.102   3.021   1.808 -2.1246 -0.4964 -0.0590
  118SOL    HW2  471   2.997   2.973   1.722  0.8596  0.9577  1.5086
  118SOL     MW  472   3.080   2.981   1.738 -0.1837  0.4251  0.4365
  119SOL     OW  473   0.515   1.322   1.236  0.3746  0.1507 -0.0030
  119SOL    HW1  474   0.498   1.349   1.142 -0.6966  0.9874  0.8186
  119SOL    HW2  475   0.428   1.309   1.279  2.4840 -0.6812 -1.7542
  119SOL     MW  476   0.501   1.324   1.230  0.5116  0.1513 -0.1256
  120SOL     OW  477   0.181   0.603   0.950  0.1738  0.0114 -0.2167
  120SOL    HW1  478   0.201   0.549   1.024 -0.1822  1.9456  2.8886
  120SOL    HW2  479   0.241   0.679   0.962  1.8203  0.3475  1.3962
  120SOL     MW  480   0.192   0.606   0.962  0.3440  0.3109  0.4058
  121SOL     OW  481   1.789   1.054   1.736 -0.4001  0.2272 -0.1643
  121SOL    HW1  482   1.713   1.042   1.670  1.9485 -0.5458 -0.7370
  121SOL    HW2  483   1.841   0.979   1.735 -1.0060 -1.6141 -1.5706
  121SOL     MW  484   1.786   1.043   1.727 -0.1702 -0.1177 -0.4254
  122SOL     OW  485   0.095   0.495   0.710  0.0937  0.3497 -0.3200
  122SOL    HW1  486   0.159   0.500   0.641  0.5842  1.2360  1.6754
  122SOL    HW2  487   0.145   0.522   0.792 -0.6851  2.8390 -0.7800
  122SOL     MW  488   0.110   0.499   0.712  0.0557  0.7951 -0.1175
  123SOL     OW  489   1.747   1.030   0.482  0.5445  0.0954  0.1517
  123SOL    HW1  490   1.745   0.933   0.473  1.0288 -0.7804 -2.4498
  123SOL    HW2  491   1.802   1.042   0.557 -1.5866 -1.8864  0.3971
  123SOL     MW  492   1.754   1.019   0.490  0.3272 -0.2817 -0.1591
  124SOL     OW  493   0.663   0.517   0.846 -0.3070 -0.0783 -0.6381
  124SOL    HW1  494   0.597   0.461   0.806 -0.1739  0.2051 -0.3718
  124SOL    HW2  495   0.653   0.601   0.803  0.6119 -1.2399 -1.2792
  124SOL     MW  496   0.653   0.521   0.835 -0.1682 -0.1942 -0.6876
  125SOL     OW  497   0.643   1.680   1.665  0.7455  0.4498  0.1365
  125SOL    HW1  498   0.565   1.630   1.634 -3.8234 -0.8776 -1.5652
  125SOL    HW2  499   0.621   1.772   1.670  1.4109 -0.5832  0.8689
  125SOL     MW  500   0.630   1.685   1.661  0.2305  0.1383  0.0086
  126SOL     OW  501   2.121   1.601   2.018 -0.1467 -0.0596  0.2964
  126SOL    HW1  502   2.156   1.686   1.998 -0.5043 -1.0213 -2.4964
  126SOL    HW2  503   2.197   1.536   2.020 -2.3187 -1.6461 -0.7473
  126SOL     MW  504   2.135   1.603   2.015 -0.4805 -0.3958 -0.2098
  127SOL     OW  505   0.606   0.700   1.889  0.1807  0.1686  0.2423
  127SOL    HW1  506   0.663   0.630   1.927  0.2999 -0.9423 -0.2835
  127SOL    HW2  507   0.642   0.781   1.923 -1.2385  3.1142  0.9517
  127SOL     MW  508   0.618   0.701   1.899  0.0092  0.4106  0.2665
  128SOL     OW  509   1.720   0.762   2.870  0.6189  0.1430  0.0662
  128SOL    HW1  510   1.755   0.718   2.794 -0.8310  0.2500  1.7590
  128SOL    HW2  511   1.703   0.858   2.849  0.7556  0.7250 -0.2817
  128SOL     MW  512   1.722   0.769   2.857  0.4457  0.2339  0.2437
  129SOL     OW  513   1.528   0.908   0.215 -0.6211  0.9661  0.2071
  129SOL    HW1  514   1.454   0.852   0.180 -1.1099 -0.9184 -3.7614
  129SOL    HW2  515   1.533   0.879   0.304 -1.1770 -1.8155  0.4907
  129SOL     MW  516   1.519   0.897   0.222 -0.7589  0.3504 -0.2791
  130SOL     OW  517   0.765   1.514   0.358 -0.3890 -0.3954  0.5784
  130SOL    HW1  518   0.795   1.452   0.420 -0.5262 -0.8157  1.4708
  130SOL    HW2  519   0.848   1.542   0.306  0.7622 -1.1223 -0.6671
  130SOL     MW  520   0.780   1.510   0.359 -0.2552 -0.5467  0.5318
  131SOL     OW  521   3.052   0.816   0.059  0.5853  0.0736 -0.4565
  131SOL    HW1  522   3.053   0.903  -0.000 -0.5187 -0.9979 -1.4057
  131SOL    HW2  523   3.145   0.789   0.067  2.5448  0.7803 -1.0634
  131SOL     MW  524   3.065   0.824   0.052  0.6982  0.0255 -0.6618
  132SOL     OW  525   2.683   0.131   1.266 -0.0767  0.7871 -0.1854
  132SOL    HW1  526   2.698   0.122   1.168 -1.0141  0.0642 -0.3371
  132SOL    HW2  527   2.589   0.122   1.276 -0.0376  2.8680 -0.4712
  132SOL     MW  528   2.672   0.129   1.255 -0.1952  0.9662 -0.2431
  133SOL     OW  529   1.138   0.205   1.705  0.1496 -0.4493  0.3268
  133SOL    HW1  530   1.224   0.166   1.698  0.2589  1.0068 -2.3518
  133SOL    HW2  531   1.101   0.197   1.794 -2.0469  2.5176  0.9493
  133SOL     MW  532   1.144   0.199   1.716 -0.1258  0.1343  0.0555
  134SOL     OW  533   1.381   2.512   1.408 -0.1046  0.1152  0.0380
  134SOL    HW1  534   1.316   2.577   1.397  1.6347 -3.1726 -0.7801
  134SOL    HW2  535   1.424   2.544   1.487 -1.2476 -2.5000 -0.2542
  134SOL     MW  536   1.378   2.525   1.417 -0.0259 -0.6636 -0.1085
  135SOL     OW  537   3.043   1.007   2.966  0.1607 -0.0877 -0.1919
  135SOL    HW1  538   3.125   1.058   2.946  1.8935 -2.5802 -0.4175
  135SOL    HW2  539   2.962   1.062   2.968  2.6372 -0.9978 -1.3245
  135SOL     MW  540   3.043   1.021   2.964  0.7161 -0.5366 -0.3711
  136SOL     OW  541   0.256   2.055   0.854  0.2512 -0.7480 -0.0220
  136SOL    HW1  542   0.181   1.996   0.880  0.8474  1.7056  1.8195
  136SOL    HW2  543   0.266   2.047   0.762  3.0989  0.3854 -0.0714
  136SOL     MW  544   0.247   2.046   0.846  0.7056 -0.2747  0.2144
  137SOL     OW  545   0.668   2.065   0.587 -0.4191 -0.7224 -0.2124
  137SOL    HW1  546   0.720   2.055   0.669  2.3244  1.1387 -1.0198
  137SOL    HW2  547   0.584   2.029   0.596  1.0792  0.5577 -1.4311
  137SOL     MW  548   0.664   2.059   0.599  0.1405 -0.3079 -0.4797
  138SOL     OW  549   0.549   0.602   1.079  0.7071 -0.2111  0.0124
  138SOL    HW1  550   0.465   0.556   1.084 -1.6676  0.7502 -2.7948
  138SOL    HW2  551   0.587   0.582   0.993  0.3096 -2.8485  3.2530
  138SOL     MW  552   0.543   0.593   1.068  0.3413 -0.4322  0.0696
  139SOL     OW  553   2.731   0.557   1.423  0.5047  0.1483  0.3238
  139SOL    HW1  554   2.776   0.473   1.426  0.7725  1.8342 -2.5929
  139SOL    HW2  555   2.807   0.623   1.444  1.5322 -0.2510 -2.1430
  139SOL     MW  556   2.747   0.554   1.426  0.6756  0.3181 -0.3865
  140SOL     OW  557   0.850   0.302   2.157 -0.3021 -0.0365 -1.1651
  140SOL    HW1  558   0.896   0.228   2.103  1.8849  1.1997 -0.0700
  140SOL    HW2  559   0.895   0.290   2.239  3.4845 -1.6165  1.7148
  140SOL     MW  560   0.862   0.291   2.160  0.4861 -0.0819 -0.6407
  141SOL     OW  561   1.010   0.660   1.767 -0.2042 -0.4106 -0.2103
  141SOL    HW1  562   1.058   0.583   1.733 -1.2840 -1.6580  0.7872
  141SOL    HW2  563   1.054   0.742   1.759 -0.5248 -0.0345 -0.1994
  141SOL     MW  564   1.022   0.661   1.762 -0.3890 -0.5256 -0.0772
  142SOL     OW  565   0.963   1.118   0.692 -0.4693  0.1564  0.2149
  142SOL    HW1  566   0.938   1.039   0.645  0.8165  2.8335  1.7799
  142SOL    HW2  567   1.050   1.115   0.737 -1.4302  2.2947  0.6341
  142SOL     MW  568   0.971   1.107   0.692 -0.4264  0.7918  0.4767
  143SOL     OW  569   1.903   0.912   1.166  0.0556  0.0380 -0.9028
  143SOL    HW1  570   1.907   0.881   1.073 -0.3905  1.6394 -1.2097
  143SOL    HW2  571   1.862   0.838   1.214 -2.4171 -0.3887 -0.3070
  143SOL     MW  572   1.898   0.898   1.160 -0.3295  0.1930 -0.8647
  144SOL     OW  573   0.189   1.204   1.547  0.1309 -1.0546  0.7296
  144SOL    HW1  574   0.273   1.153   1.542  1.0572  0.1221 -0.7670
  144SOL    HW2  575   0.174   1.198   1.644  0.2328 -0.3345  0.5933
  144SOL     MW  576   0.198   1.196   1.559  0.2666 -0.8043  0.5142
  145SOL     OW  577   0.264   0.436   1.161  0.0864  0.5992  0.0020
  145SOL    HW1  578   0.319   0.373   1.213 -0.5578 -1.0946 -0.8301
  145SOL    HW2  579   0.187   0.389   1.141  1.9949  1.4351 -2.0193
  145SOL     MW  580   0.261   0.422   1.165  0.2532  0.4860 -0.3745
  146SOL     OW  581   0.867   1.939   1.388  0.2005 -0.2987 -0.1315
  146SOL    HW1  582   0.912   1.955   1.299 -1.4200 -1.4229 -1.1680
  146SOL    HW2  583   0.772   1.941   1.363 -0.1516  0.3705  1.3842
  146SOL     MW  584   0.861   1.942   1.373 -0.0598 -0.3588 -0.0683
  147SOL     OW  585   0.401   0.417   2.838 -0.5932 -0.4843 -0.4389
  147SOL    HW1  586   0.369   0.452   2.917  0.4416  0.3222  2.1970
  147SOL    HW2  587   0.353   0.469   2.771  0.5576 -1.9882 -1.8389
  147SOL     MW  588   0.391   0.428   2.840 -0.3049 -0.5763 -0.2758
  148SOL     OW  589   0.032   0.881   1.283 -0.9473  0.2632 -0.1383
  148SOL    HW1  590   0.093   0.949   1.265  2.2487 -2.0511 -0.8930
  148SOL    HW2  591   0.016   0.900   1.374  3.3357  0.5099 -1.1397
  148SOL     MW  592   0.038   0.892   1.293  0.0395 -0.0096 -0.3700
  149SOL     OW  593   1.438   1.098   1.369  0.4889 -0.1699  0.3794
  149SOL    HW1  594   1.374   1.099   1.447  0.0230 -0.6432 -0.6500
  149SOL    HW2  595   1.479   1.185   1.363  0.7640 -1.3916  1.7734
  149SOL     MW  596   1.435   1.110   1.379  0.4637 -0.3936  0.4275
  150SOL     OW  597   1.821   1.359   0.731 -0.5570  0.1267  0.3174
  150SOL    HW1  598   1.876   1.281   0.714 -0.4393 -2.2246  0.2474
  150SOL    HW2  599   1.880   1.404   0.788 -1.4556  0.6458  0.5617
  150SOL     MW  600   1.836   1.355   0.736 -0.6600 -0.1151  0.3404
  151SOL     OW  601   1.624   1.785   0.811 -0.1633 -0.3134 -0.1404
  151SOL    HW1  602   1.571   1.813   0.743  0.3788  1.4571  1.7288
  151SOL    HW2  603   1.578   1.726   0.872 -1.9686  0.6466  0.0233
  151SOL     MW  604   1.611   1.781   0.810 -0.3300  0.0469  0.1278
  152SOL     OW  605   0.764   1.324   1.508 -0.2916  0.0472  0.5112
  152SOL    HW1  606   0.788   1.229   1.519  0.0130 -1.5906 -0.2284
  152SOL    HW2  607   0.845   1.372   1.490 -1.6577 -2.3551  2.8607
  152SOL     MW  608   0.778   1.318   1.507 -0.4316 -0.4858  0.7236
  153SOL     OW  609   2.656   1.195   0.723  0.0068 -0.2572  0.5801
  153SOL    HW1  610   2.718   1.185   0.646  0.2184 -1.7080 -0.4482
  153SOL    HW2  611   2.595   1.127   0.715 -1.0283  2.9616 -1.9686
  153SOL     MW  612   2.656   1.185   0.712 -0.1019 -0.0239  0.1081
  154SOL     OW  613   0.306   1.759   1.706  0.0782  0.5622  0.5465
  154SOL    HW1  614   0.321   1.740   1.611 -2.1098 -1.0080 -3.2563
  154SOL    HW2  615   0.362   1.693   1.747  0.4799 -0.7499 -1.0056
  154SOL     MW  616   0.315   1.748   1.699 -0.1575  0.1819 -0.1601
  155SOL     OW  617   1.107   0.731   0.237  0.0997  0.6136  0.0063
  155SOL    HW1  618   1.145   0.676   0.305  1.0827  1.6777 -0.8354
  155SOL    HW2  619   1.110   0.821   0.279 -1.9557  0.9261 -0.7692
  155SOL     MW  620   1.113   0.736   0.252 -0.0418  0.7952 -0.2071
  156SOL     OW  621   1.580   3.039   0.984 -0.1438  0.6077  0.4224
  156SOL    HW1  622   1.644   3.100   1.013  0.3243 -0.6067 -2.1822
  156SOL    HW2  623   1.557   2.983   1.058 -2.3891  1.1062  1.6611
  156SOL     MW  624   1.585   3.039   0.998 -0.3782  0.5132  0.2422
  157SOL     OW  625   1.407   1.184   0.092  0.0445 -0.0728  0.9790
  157SOL    HW1  626   1.386   1.154   0.177 -1.2688 -2.5314 -0.4034
  157SOL    HW2  627   1.495   1.229   0.097  1.2245  1.1322 -1.2202
  157SOL     MW  628   1.416   1.186   0.104  0.0269 -0.2382  0.5065
  158SOL     OW  629   0.385   1.655   2.289  0.4804  0.1364  0.1514
  158SOL    HW1  630   0.350   1.737   2.254 -3.4846  0.7399  3.4484
  158SOL    HW2  631   0.302   1.624   2.337  0.7061  0.8480  1.2627
  158SOL     MW  632   0.369   1.662   2.291 -0.0130  0.3099  0.7331
  159SOL     OW  633   1.256   1.656   0.414  0.3378 -0.2054  0.3322
  159SOL    HW1  634   1.250   1.564   0.394 -0.6033  2.5875  0.6909
  159SOL    HW2  635   1.179   1.690   0.468 -0.9328  0.9516  1.3777
  159SOL     MW  636   1.245   1.648   0.419  0.0460  0.3157  0.5175
  160SOL     OW  637   0.410   1.056   1.579 -0.4119 -0.2730 -0.2044
  160SOL    HW1  638   0.429   0.973   1.627  0.4426  0.7124  0.8009
  160SOL    HW2  639   0.439   1.122   1.643  1.5382 -0.5912 -0.0553
  160SOL     MW  640   0.416   1.054   1.594 -0.0418 -0.1850 -0.0521
  161SOL     OW  641   0.589   2.127   2.677  0.4103 -0.7008  0.9573
  161SOL    HW1  642   0.516   2.150   2.737  2.5364 -0.2027  0.3486
  161SOL    HW2  643   0.544   2.090   2.597 -3.6422 -1.8407 -0.9100
  161SOL     MW  644   0.573   2.125   2.674  0.1562 -0.7855  0.6306
  162SOL     OW  645   1.015   1.704   1.841  0.1633 -0.3543 -0.0131
  162SOL    HW1  646   0.970   1.785   1.870 -0.2439  1.6184  1.9725
  162SOL    HW2  647   0.941   1.650   1.856  0.9162  3.1643 -1.0832
  162SOL     MW  648   1.000   1.707   1.847  0.2089  0.3703  0.1077
  163SOL     OW  649   2.181   0.145   1.009  0.4439 -0.2805 -0.0769
  163SOL    HW1  650   2.170   0.173   0.915  0.8928  0.5901  0.4075
  163SOL    HW2  651   2.105   0.095   1.022 -2.1441  0.3812 -0.4166
  163SOL     MW  652   2.169   0.142   0.998  0.1616 -0.0783 -0.0578
  164SOL     OW  653   0.303   0.183   0.849 -0.0317 -0.1609  0.2655
  164SOL    HW1  654   0.242   0.225   0.902  0.6793 -0.1949 -1.5626
  164SOL    HW2  655   0.263   0.110   0.801  0.6200 -1.6516  0.0996
  164SOL     MW  656   0.290   0.179   0.850  0.1481 -0.3621  0.0024
  165SOL     OW  657   1.378   1.187   0.402 -0.3068 -0.1307  0.3743
  165SOL    HW1  658   1.343   1.128   0.468  0.5133 -1.2649 -0.0768
  165SOL    HW2  659   1.467   1.166   0.403  0.5385  0.1594 -0.3903
  165SOL     MW  660   1.385   1.176   0.411 -0.0871 -0.2421  0.2139
  166SOL     OW  661   0.539   1.094   0.981 -0.2431 -0.1528 -0.0509
  166SOL    HW1  662   0.481   1.032   1.027 -0.4709 -0.4096 -0.3943
  166SOL    HW2  663   0.630   1.049   0.975  2.6563  1.7951  0.8706
  166SOL     MW  664   0.544   1.080   0.987  0.1094  0.0703  0.0254
  167SOL     OW  665   0.947   1.170   0.337 -0.3194 -0.1203 -0.4590
  167SOL    HW1  666   0.854   1.183   0.354  3.4332  0.7271 -1.4522
  167SOL    HW2  667   0.957   1.169   0.238 -1.8652 -1.8999  0.2505
  167SOL     MW  668   0.936   1.172   0.326 -0.0282 -0.2433 -0.4964
  168SOL     OW  669   1.684   1.779   2.909 -0.5420 -0.2041 -0.0231
  168SOL    HW1  670   1.640   1.854   2.960  0.2341  0.2096 -0.5359
  168SOL    HW2  671   1.628   1.699   2.913 -0.0243  1.1858 -1.9043
  168SOL     MW  672   1.671   1.778   2.917 -0.3713  0.0339 -0.3390
  169SOL     OW  673   0.329   0.972   1.319  0.1356 -0.1757  0.5086
  169SOL    HW1  674   0.370   0.981   1.411 -0.9278  1.8690  1.8983
  169SOL    HW2  675   0.287   1.057   1.293 -0.8281  1.4358  0.4580
  169SOL     MW  676   0.329   0.984   1.328 -0.1319  0.3067  0.6853
  170SOL     OW  677   1.021   1.449   1.498  0.3461  0.0752 -0.3494
  170SOL    HW1  678   0.974   1.532   1.497 -2.8191 -0.1372  0.8480
  170SOL    HW2  679   1.098   1.465   1.437  0.7709  4.8734 -1.3778
  170SOL     MW  680   1.025   1.462   1.490 -0.0155  0.6803 -0.3271
  171SOL     OW  681   0.577   1.386   0.696  0.5224  0.0045  0.4113
  171SOL    HW1  682   0.579   1.392   0.789  1.0679  1.3147  0.7223
  171SOL    HW2  683   0.573   1.288   0.674 -1.4405  0.1515 -1.1413
  171SOL     MW  684   0.576   1.374   0.705  0.3354  0.1968  0.2475
  172SOL     OW  685   0.847   0.321   1.216 -0.3870  0.6263  0.4081
  172SOL    HW1  686   0.849   0.338   1.124  1.7819 -0.4359  1.2902
  172SOL    HW2  687   0.759   0.340   1.243 -0.5486  0.0365 -1.0624
  172SOL     MW  688   0.836   0.326   1.207 -0.1222  0.4083  0.3305
  173SOL     OW  689   0.415   1.677   0.347  0.2225  0.4485  0.0409
  173SOL    HW1  690   0.414   1.578   0.342 -0.1879 -0.5338 -0.6751
  173SOL    HW2  691   0.468   1.683   0.428  2.9644  0.2273 -0.3601
  173SOL     MW  692   0.422   1.665   0.357  0.5301  0.2897 -0.1065
  174SOL     OW  693   2.020   0.970   1.517  0.2732  0.3617 -0.1053
  174SOL    HW1  694   1.967   0.898   1.559  0.6129 -0.3195 -0.6435
  174SOL    HW2  695   1.953   1.014   1.462 -2.6263  0.8096 -2.1173
  174SOL     MW  696   2.004   0.966   1.515 -0.0645  0.3309 -0.4418
  175SOL     OW  697   0.379   1.348   0.374  0.5013 -0.2400 -0.2443
  175SOL    HW1  698   0.387   1.367   0.280 -1.6137  3.4740  0.0401
  175SOL    HW2  699   0.458   1.305   0.395 -0.3780  0.7984  0.5112
  175SOL     MW  700   0.391   1.345   0.364  0.1062  0.3870 -0.1071
  176SOL     OW  701   0.227   1.219   1.251  0.8084 -0.3691 -0.0603
  176SOL    HW1  702   0.163   1.215   1.181 -1.2439 -1.5826  2.0390
  176SOL    HW2  703   0.179   1.226   1.343  0.7691 -0.3867  0.7949
  176SOL     MW  704   0.212   1.219   1.254  0.5324 -0.5315  0.3296
  177SOL     OW  705   0.591   0.432   1.295  0.1893  0.3022 -0.4589
  177SOL    HW1  706   0.587   0.500   1.233 -0.4917 -0.8798 -3.1572
  177SOL    HW2  707   0.599   0.485   1.375 -1.6878  1.4898 -0.9904
  177SOL     MW  708   0.592   0.448   1.298 -0.1482  0.3030 -0.8850
  178SOL     OW  709   3.104   0.422   2.998 -0.4650  0.7316 -0.4933
  178SOL    HW1  710   3.040   0.454   3.064  1.0841 -1.4030 -2.2156
  178SOL    HW2  711   3.063   0.440   2.912 -2.4810 -0.5272 -3.4975
  178SOL     MW  712   3.090   0.429   2.995 -0.5266  0.2839 -1.1169
  179SOL     OW  713   1.654   1.321   1.449  0.0921 -0.4258 -0.1390
  179SOL    HW1  714   1.630   1.323   1.541  0.6654  3.8871 -2.2155
  179SOL    HW2  715   1.737   1.368   1.444 -1.2609  2.4846 -1.6512
  179SOL     MW  716   1.662   1.328   1.460 -0.0108  0.5272 -0.6125
  180SOL     OW  717   3.000   0.295   0.491  0.3806  0.0842 -0.3479
  180SOL    HW1  718   2.939   0.313   0.412  1.9130 -0.6251 -0.4083
  180SOL    HW2  719   3.044   0.378   0.505 -0.6499 -3.2590  1.2007
  180SOL     MW  720   2.998   0.309   0.482  0.4468 -0.4505 -0.1516
  181SOL     OW  721   1.160   1.381   3.045 -0.1820  0.1527  0.3601
  181SOL    HW1  722   1.192   1.406   3.133  0.5321  0.4602  0.3065
  181SOL    HW2  723   1.231   1.410   2.985  1.6452  1.8743  0.7496
  181SOL     MW  724   1.174   1.388   3.049  0.1533  0.4204  0.4045
  182SOL     OW  725   0.471   0.809   1.667  0.3437  0.0894 -0.8378
  182SOL    HW1  726   0.392   0.767   1.641 -0.7000  2.8841  2.9043
  182SOL    HW2  727   0.527   0.752   1.714 -0.3590 -0.7041  1.0770
  182SOL     MW  728   0.468   0.796   1.670  0.1133  0.3534 -0.0914
  183SOL     OW  729   1.582   1.533   1.298  0.1383  0.3900  0.2152
  183SOL    HW1  730   1.559   1.596   1.368  0.7268  0.0388 -0.8692
  183SOL    HW2  731   1.600   1.454   1.360  0.1704 -1.6492  0.9795
  183SOL     MW  732   1.581   1.531   1.316  0.2201  0.0746  0.1730
  184SOL     OW  733   0.780   0.520   1.982  0.1557  0.5557  0.2145
  184SOL    HW1  734   0.872   0.535   1.955 -1.0323 -0.1340 -1.1167
  184SOL    HW2  735   0.793   0.461   2.065 -0.7484 -2.7386  3.3002
  184SOL     MW  736   0.794   0.514   1.989 -0.1203  0.0301  0.4460
  185SOL     OW  737   1.138   0.934   1.961  0.0113 -0.3035 -0.1622
  185SOL    HW1  738   1.122   0.864   2.023  1.3027  1.9814  0.4515
  185SOL    HW2  739   1.162   1.016   2.023  0.1145  0.9406 -0.9134
  185SOL     MW  740   1.139   0.935   1.977  0.1953  0.1621 -0.1803
  186SOL     OW  741   0.347   1.726   1.426 -0.0839 -0.4753 -0.7152
  186SOL    HW1  742   0.409   1.794   1.394  1.6845  1.1159 -0.7191
  186SOL    HW2  743   0.304   1.676   1.355 -3.0371 -3.0643 -0.0420
  186SOL     MW  744   0.350   1.728   1.413 -0.2402 -0.6069 -0.6269
  187SOL     OW  745   1.548   0.684   1.501  0.2735 -0.3173 -0.2622
  187SOL    HW1  746   1.504   0.691   1.586  1.4088 -2.1660 -0.5078
  187SOL    HW2  747   1.486   0.704   1.434  0.4480  1.4239  2.2149
  187SOL     MW  748   1.534   0.687   1.504  0.4463 -0.3315  0.0322
  188SOL     OW  749   1.922   1.092   0.697  0.1164  0.3191 -0.0023
  188SOL    HW1  750   1.907   1.026   0.766 -0.7541 -1.2803 -0.3664
  188SOL    HW2  751   2.020   1.094   0.691  1.7047  1.4031  0.9084
  188SOL     MW  752   1.933   1.084   0.705  0.2111  0.2511  0.0698
  189SOL     OW  753   0.612   0.775   0.759 -0.1221 -0.1768  0.0214
  189SOL    HW1  754   0.534   0.829   0.782  0.6838  4.4675  0.0893
  189SOL    HW2  755   0.670   0.833   0.811  2.4023 -3.2482 -0.4771
  189SOL     MW  756   0.610   0.790   0.769  0.3173  0.0308 -0.0354
  190SOL     OW  757   1.843   0.383   1.970 -0.8396 -0.0835 -0.2253
  190SOL    HW1  758   1.897   0.308   1.966 -1.0594  2.7081 -1.1576
  190SOL    HW2  759   1.906   0.458   1.970 -0.2415 -0.3096 -0.8640
  190SOL     MW  760   1.859   0.383   1.969 -0.7897  0.2550 -0.4326
  191SOL     OW  761   1.643   0.960   1.526 -0.5411  0.1257 -0.2765
  191SOL    HW1  762   1.564   0.993   1.483 -0.0519 -0.6303  2.1357
  191SOL    HW2  763   1.646   0.865   1.514  1.1775  0.5288  1.4135
  191SOL     MW  764   1.633   0.952   1.519 -0.2498  0.0792  0.2647
  192SOL     OW  765   0.703   2.025   2.889  0.7951 -0.1211  0.2835
  192SOL    HW1  766   0.665   2.047   2.800 -0.4666 -2.3044 -0.7915
  192SOL    HW2  767   0.703   1.928   2.886  0.2309 -0.6892  2.6829
  192SOL     MW  768   0.698   2.015   2.877  0.5542 -0.4841  0.4583
  193SOL     OW  769   0.986   1.539   0.709  0.3740 -0.0940  0.0633
  193SOL    HW1  770   0.945   1.550   0.798 -0.8296 -0.3529  2.4339
  193SOL    HW2  771   0.933   1.479   0.653  1.0214  3.4379 -0.9589
  193SOL     MW  772   0.973   1.533   0.713  0.3006  0.3379  0.2412
  194SOL     OW  773   0.504   1.380   0.967 -0.2667 -0.2226 -0.1233
  194SOL    HW1  774   0.514   1.288   0.971  0.1386  4.0180 -0.5515
  194SOL    HW2  775   0.412   1.406   0.970  0.3502  1.2795 -0.9363
  194SOL     MW  776   0.493   1.371   0.968 -0.1319  0.5351 -0.2870
  195SOL     OW  777   1.322   1.149   2.932 -0.0639  0.3335 -0.2996
  195SOL    HW1  778   1.364   1.170   3.016  0.2473 -0.2608 -0.2117
  195SOL    HW2  779   1.233   1.123   2.963 -1.3926 -0.3606 -1.0594
  195SOL     MW  780   1.316   1.148   2.947 -0.1982  0.1635 -0.3883
  196SOL     OW  781   2.213   1.031   0.602 -0.1915 -0.1413 -0.1762
  196SOL    HW1  782   2.178   1.007   0.514  3.3434  1.1900  0.8232
  196SOL    HW2  783   2.218   1.125   0.599 -0.7345 -0.8191  1.1541
  196SOL     MW  784   2.209   1.040   0.590  0.2033 -0.0551  0.1312
  197SOL     OW  785   0.561   1.224   2.013  0.7375  0.0789  1.0122
  197SOL    HW1  786   0.569   1.135   1.999 -0.9967  0.0699  0.0743
  197SOL    HW2  787   0.557   1.250   1.920 -1.6351  1.6855 -1.5460
  197SOL     MW  788   0.561   1.216   1.999  0.1956  0.2897  0.5510
  198SOL     OW  789   2.958   1.374   1.079  0.3472  0.0421  0.3108
  198SOL    HW1  790   2.948   1.468   1.050  0.9317  1.8004  2.3528
  198SOL    HW2  791   2.884   1.325   1.036 -2.7011 -1.6675 -2.4793
  198SOL     MW  792   2.947   1.380   1.070  0.0221  0.0485  0.2121
  199SOL     OW  793   0.449   1.275   1.755  0.8024 -0.5293  0.3164
  199SOL    HW1  794   0.360   1.244   1.782 -0.7342  0.1856  0.8876
  199SOL    HW2  795   0.440   1.333   1.677  0.9951  2.0878 -2.0437
  199SOL     MW  796   0.436   1.278   1.748  0.6251 -0.0897  0.0804
  200SOL     OW  797   1.947   3.037   1.298 -0.2421  0.2296  0.0354
  200SOL    HW1  798   1.954   3.060   1.203  0.4706  1.8235 -0.7638
  200SOL    HW2  799   1.856   3.050   1.332 -1.9388 -2.1678  1.0087
  200SOL     MW  800   1.936   3.042   1.290 -0.3719  0.1236  0.0584
  201SOL     OW  801   1.090   0.312   0.772  0.4405  0.1603  0.2322
  201SOL    HW1  802   1.053   0.225   0.799  2.0508  2.7640  1.8747
  201SOL    HW2  803   1.040   0.333   0.697 -1.8311 -1.2661  1.0771
  201SOL     MW  804   1.078   0.304   0.766  0.3532  0.3156  0.5604
  202SOL     OW  805   1.595   1.570   1.012  0.0731 -0.0235 -0.0793
  202SOL    HW1  806   1.632   1.498   0.964 -0.7495  0.2184  0.6222
  202SOL    HW2  807   1.625   1.567   1.104 -1.9167  0.9835  1.2101
  202SOL     MW  808   1.604   1.560   1.018 -0.2980  0.1413  0.1834
  203SOL     OW  809   3.006   0.498   1.221 -0.1133  0.2739  0.0325
  203SOL    HW1  810   3.054   0.430   1.168 -0.5971  0.0816  2.1199
  203SOL    HW2  811   3.071   0.538   1.284  4.9324  2.7497  2.0874
  203SOL     MW  812   3.021   0.494   1.223  0.4886  0.5752  0.5791
  204SOL     OW  813   1.054   1.763   0.579 -0.0911  0.0874 -0.6529
  204SOL    HW1  814   1.014   1.682   0.625 -0.2674 -0.7120 -0.7632
  204SOL    HW2  815   0.985   1.794   0.519  0.4809 -1.1775 -1.3576
  204SOL     MW  816   1.040   1.757   0.578 -0.0389 -0.1850 -0.7605
  205SOL     OW  817   1.401   0.035   1.255 -0.4321 -0.3377  0.7022
  205SOL    HW1  818   1.366   0.024   1.166  0.5219  0.2887  0.0312
  205SOL    HW2  819   1.419   0.129   1.251 -1.4306 -0.6986  4.0574
  205SOL     MW  820   1.399   0.046   1.242 -0.4380 -0.3026  1.0564
  206SOL     OW  821   0.507   3.094   1.342  0.6039 -0.0480  0.1657
  206SOL    HW1  822   0.453   3.053   1.273  1.1262 -0.5829  0.4922
  206SOL    HW2  823   0.562   3.020   1.371 -3.6247  0.6634  1.0083
  206SOL     MW  824   0.507   3.079   1.337  0.1149 -0.0247  0.3200
  207SOL     OW  825   0.991   1.590   0.220 -0.1869 -0.4859 -0.4435
  207SOL    HW1  826   1.023   1.682   0.208  1.7644 -2.3693  1.7007
  207SOL    HW2  827   1.070   1.532   0.245  0.0543  2.2037  2.3988
  207SOL     MW  828   1.006   1.595   0.222  0.1024 -0.3795  0.2144
  208SOL     OW  829   0.629   1.556   1.280  0.1825  0.0222 -0.2462
  208SOL    HW1  830   0.707   1.568   1.336  1.4777  0.0511 -1.9249
  208SOL    HW2  831   0.609   1.465   1.271  2.5233 -2.9801 -0.2902
  208SOL     MW  832   0.637   1.546   1.286  0.6623 -0.3701 -0.4735
  209SOL     OW  833   1.489   0.520   2.809 -0.5920 -0.5498  0.3222
  209SOL    HW1  834   1.514   0.609   2.788 -1.3130 -0.6247 -2.8837
  209SOL    HW2  835   1.561   0.467   2.780  1.0884 -1.3391  0.3265
  209SOL     MW  836   1.501   0.525   2.802 -0.4654 -0.6638 -0.1002
  210SOL     OW  837   1.637   1.316   0.912 -0.0852 -0.0723 -0.0573
  210SOL    HW1  838   1.713   1.326   0.857 -1.1674 -1.9863 -1.8918
  210SOL    HW2  839   1.568   1.318   0.845 -0.4065 -0.8785  1.4026
  210SOL     MW  840   1.638   1.317   0.896 -0.2704 -0.4312 -0.1067
  211SOL     OW  841   1.713   0.486   0.923  0.3208 -0.3838 -0.1673
  211SOL    HW1  842   1.693   0.456   0.831  1.3765  0.9240  1.6210
  211SOL    HW2  843   1.807   0.511   0.917 -1.2579 -0.2590 -1.6236
  211SOL     MW  844   1.723   0.485   0.910  0.2518 -0.1948 -0.1235
  212SOL     OW  845   0.269   1.113   0.027 -0.7831 -0.1117  0.2560
  212SOL    HW1  846   0.222   1.074   0.105  0.6212  3.3686 -0.0366
  212SOL    HW2  847   0.346   1.050  -0.000 -0.4978  0.0183 -0.2849
  212SOL     MW  848   0.273   1.099   0.034 -0.5602  0.3646  0.1460
  213SOL     OW  849   0.522   1.684   3.072  0.2289 -0.2216  0.0032
  213SOL    HW1  850   0.545   1.748   3.147  0.7812  1.1609  1.6403
  213SOL    HW2  851   0.566   1.725   2.995  2.0533 -0.5199 -0.4421
  213SOL     MW  852   0.531   1.698   3.072  0.5425 -0.0786  0.1604
  214SOL     OW  853   0.615   0.255   2.256  0.0746  0.1121 -0.3253
  214SOL    HW1  854   0.544   0.306   2.208 -0.4022  3.0042 -0.7029
  214SOL    HW2  855   0.694   0.271   2.205  2.1620  0.8663 -1.8420
  214SOL     MW  856   0.616   0.264   2.243  0.2871  0.5932 -0.5752
  215SOL     OW  857   0.504   0.671   2.621 -0.4985  0.2514  0.6337
  215SOL    HW1  858   0.517   0.684   2.526 -0.6611  2.2081  0.0053
  215SOL    HW2  859   0.414   0.632   2.628  2.5333 -0.6011  0.4100
  215SOL     MW  860   0.494   0.667   2.609 -0.1199  0.3971  0.5213
  216SOL     OW  861   3.074   0.002   2.798  0.0926 -0.2081 -0.6235
  216SOL    HW1  862   2.991  -0.012   2.846  2.0342  0.1299 -3.2477
  216SOL    HW2  863   3.061   0.091   2.775 -1.4295 -0.3004  1.3722
  216SOL     MW  864   3.061   0.012   2.801  0.1480 -0.1757 -0.7064
  217SOL     OW  865   0.973   1.163   0.052 -0.0118  0.3029 -0.5962
  217SOL    HW1  866   1.017   1.082   0.009  0.0877 -0.8756 -3.1593
  217SOL    HW2  867   1.026   1.245   0.018  0.6747  2.7262  3.2378
  217SOL     MW  868   0.986   1.163   0.042  0.0919  0.4672 -0.4285
  218SOL     OW  869   0.925   1.329   2.469 -0.2423  0.2170  0.1370
  218SOL    HW1  870   0.900   1.246   2.505 -0.3521  1.1803  2.6874
  218SOL    HW2  871   0.985   1.368   2.541 -0.6199 -0.6046 -0.9659
  218SOL     MW  872   0.929   1.323   2.483 -0.3066  0.2357  0.3280
  219SOL     OW  873   1.029   0.410   2.566 -0.1370  0.2653 -0.3752
  219SOL    HW1  874   1.019   0.487   2.513 -1.2230  1.9066 -0.3771
  219SOL    HW2  875   0.950   0.400   2.619 -2.3928 -0.6272 -0.2138
  219SOL     MW  876   1.017   0.419   2.566 -0.5779  0.3641 -0.3542
  220SOL     OW  877   1.733   0.545   2.177  0.1338 -0.1188  0.8927
  220SOL    HW1  878   1.649   0.589   2.172 -1.5486  0.5661 -3.5350
  220SOL    HW2  879   1.733   0.468   2.117  0.3768  3.7212 -2.1714
  220SOL     MW  880   1.722   0.541   2.169 -0.0561  0.4782 -0.0957
  221SOL     OW  881   0.399   1.441   2.930  0.2491 -0.2060 -0.0506
  221SOL    HW1  882   0.343   1.364   2.897  0.4592 -0.1887 -1.1236
  221SOL    HW2  883   0.416   1.484   2.843 -1.3499 -1.9900 -3.2522
  221SOL     MW  884   0.394   1.436   2.914  0.0658 -0.4391 -0.6146
  222SOL     OW  885   0.395   0.951   2.666 -0.4272 -0.3109  0.0211
  222SOL    HW1  886   0.325   0.948   2.591 -1.8373  2.2720 -2.1378
  222SOL    HW2  887   0.443   0.871   2.655  0.9186 -0.9357  0.8765
  222SOL     MW  888   0.392   0.940   2.655 -0.4357 -0.0526 -0.1509
  223SOL     OW  889   3.070   2.019   2.668 -0.2680  0.2948  0.0567
  223SOL    HW1  890   3.154   1.972   2.677  2.1282 -0.5446  2.0535
  223SOL    HW2  891   3.093   2.091   2.616  1.0412 -2.9324  1.0888
  223SOL     MW  892   3.084   2.022   2.662  0.2209 -0.2418  0.4564
  224SOL     OW  893   1.545   0.800   2.606 -0.0014  0.6555  0.6238
  224SOL    HW1  894   1.491   0.850   2.671  1.3340 -1.1034 -0.5310
  224SOL    HW2  895   1.597   0.871   2.562  0.4402  1.3776 -0.9362
  224SOL     MW  896   1.545   0.816   2.609  0.2331  0.5187  0.2656
  225SOL     OW  897   2.984   1.451   2.267 -0.0266 -0.3593 -0.1987
  225SOL    HW1  898   3.027   1.494   2.192 -1.4400 -1.0739 -0.8186
  225SOL    HW2  899   2.938   1.526   2.305 -2.8037  1.5711 -2.0629
  225SOL     MW  900   2.984   1.467   2.262 -0.5795 -0.1989 -0.5264
  226SOL     OW  901   0.446   1.508   2.668 -0.0727 -0.0608 -0.1070
  226SOL    HW1  902   0.515   1.463   2.625  1.9693 -0.0111 -1.2423
  226SOL    HW2  903   0.435   1.591   2.618 -0.4284 -0.0209 -0.7975
  226SOL     MW  904   0.454   1.513   2.656  0.1498 -0.0490 -0.3479
  227SOL     OW  905   0.407   1.172   2.827 -0.2379  0.2611 -0.0009
  227SOL    HW1  906   0.487   1.226   2.826 -1.1060  3.8280  2.4824
  227SOL    HW2  907   0.420   1.107   2.751 -0.4881  2.7382 -0.3304
  227SOL     MW  908   0.420   1.170   2.817 -0.3854  1.0586  0.2832
  228SOL     OW  909   0.679   0.949   2.002  0.2059  0.7310  0.0797
  228SOL    HW1  910   0.763   0.961   1.964 -0.8181 -1.5209  1.9750
  228SOL    HW2  911   0.680   0.914   2.096 -1.0148  2.5316  0.8355
  228SOL     MW  912   0.691   0.946   2.009 -0.0903  0.6715  0.4295
  229SOL     OW  913   0.253   0.507   3.064  0.0809 -0.2191  0.1932
  229SOL    HW1  914   0.160   0.471   3.044 -5.1998  1.6393 -0.3495
  229SOL    HW2  915   0.280   0.466   3.148  0.5400 -3.1459  0.4867
  229SOL     MW  916   0.244   0.497   3.072 -0.5552 -0.3601  0.1603
  230SOL     OW  917   1.752   1.372   2.112  0.4930 -0.5592 -0.0070
  230SOL    HW1  918   1.718   1.360   2.199  0.0985 -2.9365 -0.8110
  230SOL    HW2  919   1.777   1.286   2.076 -0.2004  2.4014  0.1753
  230SOL     MW  920   1.751   1.359   2.119  0.3494 -0.4822 -0.0890
  231SOL     OW  921   2.811   1.232   2.228  0.0278 -0.1789  0.1067
  231SOL    HW1  922   2.892   1.294   2.239 -3.6825  0.7907 -4.9814
  231SOL    HW2  923   2.765   1.274   2.153  2.2961 -0.1046  0.1556
  231SOL     MW  924   2.816   1.246   2.220 -0.1625 -0.0412 -0.5582
  232SOL     OW  925   2.297   0.999   2.105  0.0952 -0.6810  0.4474
  232SOL    HW1  926   2.243   1.036   2.035 -2.7059  0.8657 -1.9819
  232SOL    HW2  927   2.237   0.981   2.171  1.6071 -1.5775 -0.9857
  232SOL     MW  928   2.282   1.002   2.104 -0.0749 -0.5952 -0.0622
  233SOL     OW  929   2.053   0.565   1.914  0.4772 -0.6158  0.6224
  233SOL    HW1  930   2.099   0.579   1.832  2.1854 -0.2945  1.5084
  233SOL    HW2  931   2.127   0.551   1.979  0.7763  1.7950  0.6565
  233SOL     MW  932   2.069   0.565   1.911  0.7421 -0.2554  0.7438
  234SOL     OW  933   0.215   0.964   2.472  0.0311 -0.4463 -0.0319
  234SOL    HW1  934   0.113   0.962   2.469 -1.1872 -1.3619 -1.4953
  234SOL    HW2  935   0.243   1.059   2.458 -1.3215  1.0109 -1.8243
  234SOL     MW  936   0.205   0.976   2.470 -0.3081 -0.3748 -0.4615
  235SOL     OW  937   1.013   3.017   2.817  0.0413 -0.2811  0.0882
  235SOL    HW1  938   1.074   2.961   2.870  1.7707  0.2249 -1.2202
  235SOL    HW2  939   1.012   3.107   2.848  0.3563 -1.3499 -0.0508
  235SOL     MW  940   1.021   3.021   2.828  0.3110 -0.3553 -0.1027
  236SOL     OW  941   2.924   0.521   0.097 -0.1241 -0.8484 -0.2221
  236SOL    HW1  942   2.856   0.537   0.027  2.1670  1.0236 -0.6887
  236SOL    HW2  943   2.964   0.608   0.115  2.2048  3.7983  0.0953
  236SOL     MW  944   2.921   0.535   0.090  0.4855  0.0116 -0.2418
  237SOL     OW  945   1.753   0.890   2.183 -0.3499  0.0609 -0.1209
  237SOL    HW1  946   1.793   0.965   2.141  0.3159 -1.3295  0.5940
  237SOL    HW2  947   1.808   0.868   2.264  2.5569  1.6736  1.7111
  237SOL     MW  948   1.766   0.897   2.188  0.1215  0.0902  0.2151
  238SOL     OW  949   1.106   1.774   2.974  0.4397 -0.1976  0.3191
  238SOL    HW1  950   1.045   1.702   2.963  0.9627  0.4839 -1.3507
  238SOL    HW2  951   1.190   1.738   2.945  3.2651  1.4691 -0.2987
  238SOL     MW  952   1.109   1.759   2.968  0.8815  0.1123  0.0173
  239SOL     OW  953   1.249   1.403   2.322 -0.2916 -0.1414 -0.2326
  239SOL    HW1  954   1.205   1.435   2.404  0.0365 -0.2847  1.6829
  239SOL    HW2  955   1.329   1.368   2.364  1.4014 -2.7156 -0.1626
  239SOL     MW  956   1.253   1.403   2.338 -0.0250 -0.5000  0.0294
  240SOL     OW  957   0.627   0.810   2.249  0.6177  0.6795 -0.1840
  240SOL    HW1  958   0.592   0.878   2.308 -0.8323 -0.2008  1.8402
  240SOL    HW2  959   0.718   0.799   2.282  1.2753 -1.2672  1.1321
  240SOL     MW  960   0.635   0.817   2.261  0.5132  0.3065  0.2567
  241SOL     OW  961   0.679   0.363   3.013 -0.2132  0.7945 -0.2749
  241SOL    HW1  962   0.704   0.409   3.092  1.0961 -2.9403  0.2296
  241SOL    HW2  963   0.595   0.400   2.981  0.5285  1.0547  0.0832
  241SOL     MW  964   0.672   0.374   3.019  0.0574  0.3361 -0.1611
  242SOL     OW  965   1.433   1.693   2.355 -0.0002  0.0915  0.6286
  242SOL    HW1  966   1.433   1.785   2.367  1.3923 -2.2482  4.5549
  242SOL    HW2  967   1.352   1.680   2.305 -0.4426 -0.1025  0.9030
  242SOL     MW  968   1.423   1.703   2.350  0.1251 -0.2428  1.1829
  243SOL     OW  969   1.059   0.212   2.344 -0.4660  0.2182  0.0470
  243SOL    HW1  970   1.143   0.189   2.308  0.5814  1.0199  0.3490
  243SOL    HW2  971   1.075   0.285   2.402 -1.4462 -0.2220  2.3596
  243SOL     MW  972   1.072   0.219   2.347 -0.4572  0.2659  0.3920
  244SOL     OW  973   0.221   0.757   2.294  0.3010 -0.4584 -0.8904
  244SOL    HW1  974   0.220   0.827   2.360 -1.2348  0.7828 -0.8785
  244SOL    HW2  975   0.301   0.711   2.291 -2.3445  1.1063 -1.3928
  244SOL     MW  976   0.231   0.760   2.302 -0.2507 -0.0882 -0.9551
  245SOL     OW  977   1.340   0.144   2.302  0.2904 -0.2752 -0.2410
  245SOL    HW1  978   1.326   0.049   2.311  0.3324 -1.7115 -1.7318
  245SOL    HW2  979   1.434   0.161   2.313  0.3089  0.0995  0.6200
  245SOL     MW  980   1.351   0.134   2.305  0.2984 -0.4152 -0.3241
  246SOL     OW  981   1.169   1.123   2.127  0.3816 -0.1033 -0.2011
  246SOL    HW1  982   1.108   1.088   2.200  0.9919  2.5271 -0.1321
  246SOL    HW2  983   1.256   1.149   2.173  0.4664 -0.0414  0.1933
  246SOL     MW  984   1.172   1.122   2.143  0.4733  0.2519 -0.1400
  247SOL     OW  985   0.657   0.532   0.121  0.0890 -0.5096  0.0221
  247SOL    HW1  986   0.635   0.607   0.063  0.4309  0.4732  2.1760
  247SOL    HW2  987   0.748   0.551   0.147 -0.4278 -2.0663  0.1690
  247SOL     MW  988   0.666   0.544   0.117  0.0659 -0.5853  0.3257
  248SOL     OW  989   0.379   1.208   2.396  0.2330 -0.0840 -0.2769
  248SOL    HW1  990   0.393   1.254   2.313  0.0936  2.1125 -0.9826
  248SOL    HW2  991   0.338   1.272   2.459  3.3339  4.0673  1.8834
  248SOL     MW  992   0.375   1.222   2.393  0.6238  0.7535 -0.0850
  249SOL     OW  993   0.148   1.803   2.722 -0.0029 -0.5030 -0.1438
  249SOL    HW1  994   0.094   1.725   2.706 -3.3707  0.6031  0.6952
  249SOL    HW2  995   0.187   1.774   2.803 -1.3729  0.3345 -0.6071
  249SOL     MW  996   0.146   1.789   2.730 -0.6280 -0.2465 -0.0943
  250SOL     OW  997   2.155   0.929   2.326  0.4606  0.5338  0.0931
  250SOL    HW1  998   2.186   0.836   2.321  2.5504  1.0471  0.4208
  250SOL    HW2  999   2.200   0.973   2.401 -1.1195  1.6493  0.8247
  250SOL     MW 1000   2.165   0.922   2.335  0.5279  0.7487  0.2328
  251SOL     OW 1001   0.130   0.833   2.042  0.9561  0.4109 -0.1026
  251SOL    HW1 1002   0.156   0.825   2.130 -3.8504  0.6874  0.6591
  251SOL    HW2 1003   0.070   0.759   2.030 -0.4073 -1.7790 -0.2106
  251SOL     MW 1004   0.126   0.822   2.052  0.1421  0.1584 -0.0164
  252SOL     OW 1005   1.693   1.026   2.798 -0.4362  0.4670  0.2144
  252SOL    HW1 1006   1.724   1.067   2.879 -2.4866 -1.0275  1.6425
  252SOL    HW2 1007   1.755   1.048   2.725  4.6365  0.2141  0.9966
  252SOL     MW 1008   1.705   1.034   2.799 -0.0375  0.2365  0.5060
  253SOL     OW 1009   1.155   1.745   2.561  0.0675 -0.4213 -0.5425
  253SOL    HW1 1010   1.125   1.779   2.476  0.5485  0.4333  0.2488
  253SOL    HW2 1011   1.069   1.748   2.610 -0.9965  0.3188  0.3175
  253SOL     MW 1012   1.140   1.750   2.556 -0.0094 -0.2109 -0.3246
  254SOL     OW 1013   0.974   1.050   2.307 -0.1294 -0.2594 -0.0481
  254SOL    HW1 1014   0.950   0.956   2.290  0.3739  0.9498 -1.0697
  254SOL    HW2 1015   0.905   1.108   2.279  3.0867 -1.1153  2.2004
  254SOL     MW 1016   0.961   1.045   2.301  0.3613 -0.2128  0.1138
  255SOL     OW 1017   0.743   2.376   2.277  0.2825  0.4532  0.2543
  255SOL    HW1 1018   0.653   2.349   2.283 -1.0417  0.6205  2.0963
  255SOL    HW2 1019   0.766   2.403   2.365 -0.3883  0.8506 -1.2303
  255SOL     MW 1020   0.734   2.376   2.289  0.0193  0.5277  0.3015
  256SOL     OW 1021   1.190   2.866   2.930  0.0178 -0.1703 -0.5725
  256SOL    HW1 1022   1.207   2.768   2.918 -0.7196  0.2031  0.4093
  256SOL    HW2 1023   1.251   2.913   2.874 -1.5824  3.1922  1.3400
  256SOL     MW 1024   1.200   2.859   2.921 -0.2906  0.3226 -0.1906
  257SOL     OW 1025   0.099   1.870   0.008 -0.4007 -0.4595  0.3543
  257SOL    HW1 1026   0.131   1.830   0.086 -2.6643  1.0156  0.3003
  257SOL    HW2 1027   0.119   1.818  -0.069 -1.2905 -0.8245  0.1009
  257SOL     MW 1028   0.106   1.858   0.008 -0.8167 -0.3130  0.3138
  258SOL     OW 1029   0.599   1.039   2.399  0.5411 -0.1688 -0.0795
  258SOL    HW1 1030   0.633   1.111   2.345 -0.4199  0.2538 -0.6437
  258SOL    HW2 1031   0.511   1.075   2.416  3.9401 -2.0829 -0.2927
  258SOL     MW 1032   0.592   1.054   2.394  0.8628 -0.3656 -0.1821
  259SOL     OW 1033   0.595   0.381   2.488  0.1379  0.4555 -0.0695
  259SOL    HW1 1034   0.506   0.425   2.485 -4.5338  1.9640 -0.9672
  259SOL    HW2 1035   0.606   0.335   2.405  0.8817  1.1623 -1.3233
  259SOL     MW 1036   0.585   0.381   2.477 -0.3803  0.7478 -0.3534
  260SOL     OW 1037   0.599   0.161   1.594  0.0754  0.0090  0.1067
  260SOL    HW1 1038   0.535   0.185   1.525 -0.2646  0.7245 -0.9081
  260SOL    HW2 1039   0.674   0.151   1.539  2.6516  0.5936 -1.1173
  260SOL     MW 1040   0.600   0.163   1.577  0.3704  0.1806 -0.1887
  261SOL     OW 1041   1.086   0.691   2.100  0.5239  0.1984  0.5332
  261SOL    HW1 1042   1.117   0.678   2.193  2.8105 -2.3419  0.7467
  261SOL    HW2 1043   1.160   0.665   2.047  0.9211  2.8316 -1.4847
  261SOL     MW 1044   1.100   0.686   2.105  0.8780  0.2107  0.2951
  262SOL     OW 1045   1.132   0.377   0.116 -0.4233 -0.3280 -0.3805
  262SOL    HW1 1046   1.175   0.303   0.156  2.0513  0.0079  0.3950
  262SOL    HW2 1047   1.173   0.375   0.031 -1.7843 -0.0021 -2.6056
  262SOL     MW 1048   1.143   0.367   0.110 -0.2764 -0.2407 -0.5717
  263SOL     OW 1049   0.429   2.989   2.515 -0.2085  0.3012  0.0806
  263SOL    HW1 1050   0.373   3.067   2.528 -2.2981  1.2778  3.6590
  263SOL    HW2 1051   0.492   3.010   2.451  1.1541 -0.9160 -1.2657
  263SOL     MW 1052   0.430   3.002   2.508 -0.3044  0.2695  0.3751
  264SOL     OW 1053   1.506   1.341   1.979  0.5342  0.4658  0.1486
  264SOL    HW1 1054   1.445   1.359   2.049  0.9788  0.6412 -0.9896
  264SOL    HW2 1055   1.598   1.362   2.011  0.3027 -0.2549 -3.3704
  264SOL     MW 1056   1.510   1.346   1.993  0.5623  0.3939 -0.4658
  265SOL     OW 1057   0.725   2.737   2.215 -0.4388  0.1856  0.0123
  265SOL    HW1 1058   0.795   2.687   2.187 -0.2236  1.1779  1.1777
  265SOL    HW2 1059   0.732   2.742   2.314 -1.1600  1.9424  0.0525
  265SOL     MW 1060   0.735   2.731   2.224 -0.5056  0.5484  0.1714
  266SOL     OW 1061   0.892   0.794   2.281  0.5958 -0.4734  0.2027
  266SOL    HW1 1062   0.938   0.763   2.201  2.7162 -1.4477 -2.9164
  266SOL    HW2 1063   0.899   0.725   2.348 -1.9873 -1.8648  1.6672
  266SOL     MW 1064   0.899   0.781   2.279  0.5347 -0.7855 -0.0156
  267SOL     OW 1065   1.403   1.810   2.677 -0.4453  0.4403  0.2383
  267SOL    HW1 1066   1.477   1.741   2.643  3.4413 -2.2514  2.2233
  267SOL    HW2 1067   1.323   1.771   2.643  1.4785  2.3022  0.2382
  267SOL     MW 1068   1.402   1.796   2.668  0.3213  0.3308  0.5002
  268SOL     OW 1069   0.210   0.745   1.653 -0.0759 -0.0254  0.0551
  268SOL    HW1 1070   0.122   0.789   1.622 -1.3737 -1.5655  1.5944
  268SOL    HW2 1071   0.190   0.653   1.665 -1.6031 -2.4185  0.0559
  268SOL     MW 1072   0.196   0.738   1.651 -0.4486 -0.5443  0.2583
  269SOL     OW 1073   1.408   1.947   2.432 -0.0549  0.0970 -0.0918
  269SOL    HW1 1074   1.423   1.907   2.524 -0.6215  0.7302 -1.7391
  269SOL    HW2 1075   1.339   2.007   2.454 -0.3496 -0.0653  1.9017
  269SOL     MW 1076   1.401   1.950   2.447 -0.1685  0.1591 -0.0461
  270SOL     OW 1077   1.174   0.468   1.617  0.1569 -0.0531 -0.3613
  270SOL    HW1 1078   1.156   0.378   1.645 -1.9294  0.2958  0.3932
  270SOL    HW2 1079   1.263   0.468   1.577 -2.6502 -1.2118  0.9931
  270SOL     MW 1080   1.184   0.456   1.615 -0.4888 -0.1599 -0.0830
  271SOL     OW 1081   0.873   3.095   2.444 -0.4213 -0.1236 -0.8111
  271SOL    HW1 1082   0.916   3.020   2.478 -0.4845  1.4091  1.6032
  271SOL    HW2 1083   0.940   3.162   2.438 -0.6703 -2.7798  1.0931
  271SOL     MW 1084   0.888   3.094   2.448 -0.4625 -0.2719 -0.2413
  272SOL     OW 1085   1.369   3.005   2.764 -0.0778  0.0801 -0.2464
  272SOL    HW1 1086   1.296   3.016   2.709  0.2509  1.0765  1.7994
  272SOL    HW2 1087   1.351   3.056   2.853 -1.6154 -0.0717  2.2790
  272SOL     MW 1088   1.357   3.013   2.769 -0.2373  0.1915  0.3567
  273SOL     OW 1089   1.428   0.928   2.822  0.3678  0.0509  0.4006
  273SOL    HW1 1090   1.516   0.969   2.829  1.0652 -1.3206  2.0404
  273SOL    HW2 1091   1.366   1.000   2.839 -0.8664 -0.9753 -2.2751
  273SOL     MW 1092   1.431   0.943   2.825  0.2970 -0.2654  0.2639
  274SOL     OW 1093   1.334   0.705   0.110 -0.2766  0.1554 -0.6096
  274SOL    HW1 1094   1.386   0.649   0.165  0.8763  0.5616 -0.1663
  274SOL    HW2 1095   1.237   0.715   0.148  1.4206  0.0471 -1.9503
  274SOL     MW 1096   1.328   0.699   0.122  0.0995  0.1947 -0.7280
  275SOL     OW 1097   1.687   0.643   1.773 -0.1520 -0.6469  0.7384
  275SOL    HW1 1098   1.753   0.684   1.837  2.1905 -0.4479 -0.2288
  275SOL    HW2 1099   1.684   0.549   1.801  0.1618  0.9502  1.0751
  275SOL     MW 1100   1.695   0.636   1.786  0.1985 -0.4100  0.6552
  276SOL     OW 1101   0.189   1.170   1.818 -0.0923 -0.2826 -0.0542
  276SOL    HW1 1102   0.243   1.094   1.849  0.6887 -1.9758 -0.2612
  276SOL    HW2 1103   0.117   1.166   1.886  1.1231 -0.4110  4.1279
  276SOL     MW 1104   0.186   1.159   1.831  0.1711 -0.5229  0.4703
  277SOL     OW 1105   1.931   1.377   2.726  0.5022 -0.0552 -0.3996
  277SOL    HW1 1106   1.932   1.467   2.683  4.3330 -1.0732 -0.1694
  277SOL    HW2 1107   2.006   1.331   2.680  0.3108  0.8384  1.8867
  277SOL     MW 1108   1.941   1.383   2.714  0.9824 -0.0716 -0.0676
  278SOL     OW 1109   1.424   0.712   1.769 -0.1360 -0.5605 -0.2125
  278SOL    HW1 1110   1.375   0.651   1.830  1.5855 -2.3015  2.5385
  278SOL    HW2 1111   1.517   0.693   1.793  2.2020 -0.5129  1.9093
  278SOL     MW 1112   1.430   0.702   1.780  0.3996 -0.7839  0.4304
  279SOL     OW 1113   0.591   3.074   2.263  0.1981 -0.0189 -0.1342
  279SOL    HW1 1114   0.656   3.075   2.194 -1.7807 -2.2856 -0.0140
  279SOL    HW2 1115   0.548   3.159   2.258 -0.4410 -1.5148  0.1344
  279SOL     MW 1116   0.594   3.085   2.253 -0.1473 -0.5154 -0.0829
  280SOL     OW 1117   1.431   1.156   2.234 -0.0410 -0.0530 -0.7743
  280SOL    HW1 1118   1.445   1.081   2.166 -0.2868  1.0703 -1.7165
  280SOL    HW2 1119   1.461   1.109   2.318  0.8663 -0.8135  0.1367
  280SOL     MW 1120   1.437   1.140   2.236  0.0463 -0.0051 -0.7784
  281SOL     OW 1121   1.312   1.404   2.827 -0.4257  0.0031  0.8618
  281SOL    HW1 1122   1.403   1.434   2.811  0.9401 -2.0900  0.1195
  281SOL    HW2 1123   1.306   1.309   2.852 -4.1965  1.6825  0.6234
  281SOL     MW 1124   1.323   1.396   2.828 -0.7430 -0.0515  0.7324
  282SOL     OW 1125   1.105   1.285   1.740 -0.5893 -0.4069 -0.5937
  282SOL    HW1 1126   1.052   1.303   1.660  2.6610  2.5210 -0.8802
  282SOL    HW2 1127   1.061   1.214   1.788 -0.1473 -0.5306  0.8408
  282SOL     MW 1128   1.092   1.278   1.736 -0.1021 -0.0369 -0.4422
  283SOL     OW 1129   0.696   1.208   0.006  0.0148  0.6969 -0.8798
  283SOL    HW1 1130   0.789   1.192   0.030 -0.4852 -0.7380  0.1040
  283SOL    HW2 1131   0.669   1.301   0.005  0.1568  2.2901 -0.7551
  283SOL     MW 1132   0.705   1.218   0.009 -0.0324  0.7178 -0.7335
  284SOL     OW 1133   0.472   0.618   2.336 -0.4865 -0.3896 -0.1037
  284SOL    HW1 1134   0.532   0.680   2.283 -0.4470  2.1008 -1.7496
  284SOL    HW2 1135   0.467   0.546   2.273 -1.7322  0.4367 -0.2859
  284SOL     MW 1136   0.479   0.616   2.320 -0.6456  0.0480 -0.3449
  285SOL     OW 1137   0.920   0.910   2.784  0.6299 -0.1132  0.1962
  285SOL    HW1 1138   0.895   0.973   2.714  2.5730  3.2437 -1.3936
  285SOL    HW2 1139   0.854   0.835   2.778  3.0639  0.4852 -0.0259
  285SOL     MW 1140   0.908   0.908   2.774  1.2074  0.4086 -0.0429
  286SOL     OW 1141   1.161   1.464   2.596 -0.0014  0.0403 -0.2131
  286SOL    HW1 1142   1.206   1.436   2.673  0.7813  0.6005  1.1550
  286SOL    HW2 1143   1.158   1.555   2.581 -0.0335  0.0117 -1.4261
  286SOL     MW 1144   1.166   1.473   2.604  0.0977  0.1104 -0.1926
  287SOL     OW 1145   1.079   0.941   0.413 -0.1917 -0.0078  0.1124
  287SOL    HW1 1146   1.144   0.982   0.470 -0.4152  0.2936 -2.3675
  287SOL    HW2 1147   1.024   1.011   0.374 -1.5642  1.9613 -0.9760
  287SOL     MW 1148   1.081   0.956   0.415 -0.4023  0.2918 -0.3584
  288SOL     OW 1149   1.501   0.683   2.160  0.2250 -0.6759 -0.2305
  288SOL    HW1 1150   1.467   0.663   2.251 -2.4987  1.2631  0.9305
  288SOL    HW2 1151   1.505   0.775   2.146  0.9331 -1.9706 -0.5746
  288SOL     MW 1152   1.497   0.692   2.170 -0.0409 -0.5909 -0.1227
  289SOL     OW 1153   0.825   1.087   2.584  0.6197  1.2973  0.6573
  289SOL    HW1 1154   0.857   1.046   2.503 -0.4274 -0.0255  0.5531
  289SOL    HW2 1155   0.742   1.070   2.550  3.2379  1.1954 -1.3643
  289SOL     MW 1156   0.818   1.079   2.569  0.8270  1.1093  0.3768
  290SOL     OW 1157   0.852   0.688   1.545  0.3463 -0.0499 -0.0018
  290SOL    HW1 1158   0.896   0.627   1.481  0.5336 -1.5529 -1.5117
  290SOL    HW2 1159   0.900   0.685   1.632  1.3873  1.3889  2.3832
  290SOL     MW 1160   0.864   0.680   1.548  0.5084 -0.0583  0.1137
  291SOL     OW 1161   0.233   0.375   0.207 -0.4740  0.0223  0.0294
  291SOL    HW1 1162   0.322   0.344   0.222 -2.2773 -0.5723 -0.8021
  291SOL    HW2 1163   0.193   0.301   0.157 -0.7754  0.5806  0.6297
  291SOL     MW 1164   0.239   0.361   0.202 -0.7517  0.0175 -0.0011
  292SOL     OW 1165   0.929   0.574   0.083 -0.0406 -0.0531 -0.6252
  292SOL    HW1 1166   0.990   0.634   0.126 -0.4549  0.1387  0.1737
  292SOL    HW2 1167   0.970   0.487   0.095  0.0616  0.2581 -0.0828
  292SOL     MW 1168   0.943   0.570   0.091 -0.0818  0.0133 -0.4482
  293SOL     OW 1169   0.238   0.104   2.495 -0.1435 -0.1438 -0.2012
  293SOL    HW1 1170   0.156   0.068   2.461  0.3865 -0.7087 -0.0784
  293SOL    HW2 1171   0.207   0.149   2.577 -2.2298 -0.6654  0.9883
  293SOL     MW 1172   0.223   0.105   2.502 -0.3489 -0.2872 -0.0281
  294SOL     OW 1173   1.429   0.632   2.428 -0.1067 -0.2178  0.2092
  294SOL    HW1 1174   1.448   0.707   2.485 -0.8472  2.9772 -3.3307
  294SOL    HW2 1175   1.453   0.550   2.471  3.5757 -0.2850 -0.6241
  294SOL     MW 1176   1.434   0.631   2.441  0.2815  0.1948 -0.3678
  295SOL     OW 1177   0.775   0.616   2.509  0.4454  0.8395 -0.0710
  295SOL    HW1 1178   0.710   0.552   2.471 -0.3657 -1.2826  2.4701
  295SOL    HW2 1179   0.740   0.634   2.604 -0.9114 -0.4483 -1.3119
  295SOL     MW 1180   0.762   0.610   2.517  0.1593  0.3896  0.1006
  296SOL     OW 1181   1.264   0.294   2.069  0.5338  0.1955 -0.0430
  296SOL    HW1 1182   1.335   0.270   2.007 -0.9431 -1.0806 -3.1105
  296SOL    HW2 1183   1.310   0.257   2.146 -0.8710  1.5218 -0.2517
  296SOL     MW 1184   1.279   0.286   2.071  0.1536  0.2021 -0.4753
  297SOL     OW 1185   1.452   0.407   1.501 -0.0970 -0.3489 -0.6079
  297SOL    HW1 1186   1.519   0.474   1.505 -0.2091 -0.6368  1.6774
  297SOL    HW2 1187   1.500   0.333   1.533 -0.8291 -1.8468  0.9690
  297SOL     MW 1188   1.467   0.406   1.506 -0.2084 -0.5845 -0.0983
  298SOL     OW 1189   1.480   0.954   2.068 -0.1756  0.3287 -0.4834
  298SOL    HW1 1190   1.463   0.982   1.978  1.1146  0.5759 -1.0572
  298SOL    HW2 1191   1.576   0.956   2.078 -1.2241 -0.1471 -0.1453
  298SOL     MW 1192   1.490   0.958   2.057 -0.1437  0.2985 -0.5145
  299SOL     OW 1193   0.520   1.000   3.028  0.2620  0.2163  0.4492
  299SOL    HW1 1194   0.574   1.067   3.077  2.2191 -1.5030 -4.2140
  299SOL    HW2 1195   0.511   1.036   2.942 -2.4653  0.9524  1.1309
  299SOL     MW 1196   0.526   1.013   3.023  0.1604  0.0866 -0.0762
  300SOL     OW 1197   1.189   1.099   2.543  0.5549  0.8901 -0.4624
  300SOL    HW1 1198   1.116   1.114   2.475 -1.1057 -2.6057 -0.1578
  300SOL    HW2 1199   1.164   1.011   2.577 -0.0808 -0.4049  2.2731
  300SOL     MW 1200   1.176   1.089   2.538  0.2519  0.2580 -0.0613
  301SOL     OW 1201   1.400   0.744   0.548 -0.2591  0.1402  0.3837
  301SOL    HW1 1202   1.409   0.727   0.644  0.3525  2.0144  2.1161
  301SOL    HW2 1203   1.329   0.691   0.524  1.3354 -0.7380  0.2821
  301SOL     MW 1204   1.392   0.735   0.558  0.0320  0.2716  0.5989
  302SOL     OW 1205   0.130   1.488   1.940 -0.1224 -0.7704 -0.3094
  302SOL    HW1 1206   0.161   1.437   2.013 -0.8462 -0.2340  0.2175
  302SOL    HW2 1207   0.065   1.550   1.978  0.9269 -0.7900 -1.1371
  302SOL     MW 1208   0.126   1.489   1.955 -0.0794 -0.7022 -0.3491
  303SOL     OW 1209   0.421   1.813   2.629  0.3475 -0.4721 -0.7434
  303SOL    HW1 1210   0.422   1.879   2.563  0.7231  0.1297 -0.1953
  303SOL    HW2 1211   0.336   1.793   2.659  1.0408  1.3176 -0.0668
  303SOL     MW 1212   0.410   1.819   2.624  0.4886 -0.1565 -0.5818
  304SOL     OW 1213   0.509   2.015   2.442 -0.6145  0.9303  0.1643
  304SOL    HW1 1214   0.522   2.109   2.421  0.9633  1.9306 -0.8161
  304SOL    HW2 1215   0.597   1.990   2.422  0.3195  1.4020  2.3399
  304SOL     MW 1216   0.522   2.024   2.437 -0.2831  1.1245  0.3220
  305SOL     OW 1217   1.183   0.569   0.462  0.0525  0.0112  0.2908
  305SOL    HW1 1218   1.093   0.535   0.490 -0.8513 -1.2892  0.6043
  305SOL    HW2 1219   1.242   0.499   0.456 -0.6201  0.4253  3.4165
  305SOL     MW 1220   1.179   0.555   0.465 -0.1555 -0.1058  0.7446
  306SOL     OW 1221   1.219   1.413   0.291  0.3946 -0.0712 -0.2102
  306SOL    HW1 1222   1.250   1.329   0.321 -1.1888  1.1055  3.0225
  306SOL    HW2 1223   1.278   1.438   0.211  0.0962 -1.6783 -0.3558
  306SOL     MW 1224   1.231   1.405   0.284  0.1463 -0.1280  0.1971
  307SOL     OW 1225   1.313   0.593   1.983 -0.2763  0.5656  0.6900
  307SOL    HW1 1226   1.288   0.508   2.018 -2.4927 -0.6479 -0.8868
  307SOL    HW2 1227   1.383   0.627   2.043  3.4751  0.5897  1.6911
  307SOL     MW 1228   1.319   0.587   1.995 -0.0738  0.4086  0.6141
  308SOL     OW 1229   2.143   0.573   2.745  0.5950  1.0705 -0.0879
  308SOL    HW1 1230   2.111   0.477   2.755 -2.1099 -1.9794  0.2523
  308SOL    HW2 1231   2.235   0.557   2.740  1.6571 -0.8806 -0.1460
  308SOL     MW 1232   2.151   0.558   2.745  0.3782  0.4106 -0.0507
  309SOL     OW 1233   0.510   0.502   0.383  0.8672 -0.4912  0.1323
  309SOL    HW1 1234   0.546   0.421   0.414  1.0762  1.2856  0.2097
  309SOL    HW2 1235   0.521   0.498   0.289  1.1800  1.7810 -0.6285
  309SOL     MW 1236   0.516   0.491   0.374  0.9361  0.0430  0.0421
  310SOL     OW 1237   0.420   0.510   1.913 -0.0410 -0.2479  0.0744
  310SOL    HW1 1238   0.478   0.449   1.860  2.1320 -1.9488 -0.0731
  310SOL    HW2 1239   0.461   0.599   1.911 -0.2894  2.8036  0.7477
  310SOL     MW 1240   0.433   0.514   1.906  0.2129 -0.0697  0.1437
  311SOL     OW 1241   1.858   0.772   1.939  0.8865  0.2125  0.1564
  311SOL    HW1 1242   1.838   0.784   2.033  1.9323 -1.1075 -1.5300
  311SOL    HW2 1243   1.922   0.704   1.934 -0.5932  4.6118 -2.3061
  311SOL     MW 1244   1.864   0.765   1.951  0.8293  0.6188 -0.3910
  312SOL     OW 1245   1.716   2.606   3.067 -0.4903 -0.6836  0.2567
  312SOL    HW1 1246   1.760   2.620   3.151  2.5457 -0.0768 -1.8517
  312SOL    HW2 1247   1.622   2.601   3.098 -2.6350 -1.2401  1.9739
  312SOL     MW 1248   1.709   2.607   3.082 -0.3727 -0.6769  0.2051
  313SOL     OW 1249   0.125   1.206   2.929 -0.2548  0.2410 -0.2394
  313SOL    HW1 1250   0.203   1.189   2.982 -1.6524  1.7744 -0.1132
  313SOL    HW2 1251   0.160   1.210   2.838 -4.2057 -1.8958  0.8409
  313SOL     MW 1252   0.140   1.204   2.924 -0.9605  0.1614 -0.0802
  314SOL     OW 1253   2.161   3.030   2.977 -0.1216 -0.0004 -0.2020
  314SOL    HW1 1254   2.095   3.077   2.928  2.5818  0.1935  1.8692
  314SOL    HW2 1255   2.203   3.089   3.036  2.5609 -1.2137 -0.1329
  314SOL     MW 1256   2.158   3.044   2.978  0.5891 -0.1349  0.0804
  315SOL     OW 1257   1.580   1.988   3.025  0.1549  0.1863  0.3742
  315SOL    HW1 1258   1.487   2.006   3.061 -0.4379 -0.3990  1.3583
  315SOL    HW2 1259   1.583   2.041   2.941 -0.6101  0.7465  1.5189
  315SOL     MW 1260   1.568   1.997   3.019 -0.0242  0.1830  0.6551
  316SOL     OW 1261   1.236   0.652   2.693  0.2870  0.4564 -0.0299
  316SOL    HW1 1262   1.285   0.572   2.677  0.8947 -0.2145  0.0343
  316SOL    HW2 1263   1.237   0.675   2.790 -1.5265  1.2648 -1.2892
  316SOL     MW 1264   1.243   0.645   2.704  0.1279  0.4746 -0.1876
  317SOL     OW 1265   0.660   1.369   2.599  0.2900  0.2072  0.0734
  317SOL    HW1 1266   0.698   1.330   2.675 -0.7554  0.2979  1.0499
  317SOL    HW2 1267   0.719   1.388   2.528 -1.8399  0.1898  2.2971
  317SOL     MW 1268   0.672   1.367   2.600 -0.1289  0.2169  0.4956
  318SOL     OW 1269   1.269   0.389   2.931  0.1533 -0.6058 -0.1501
  318SOL    HW1 1270   1.183   0.441   2.917 -1.2526 -0.2427 -1.0263
  318SOL    HW2 1271   1.346   0.444   2.913 -1.3443 -2.4835  1.3786
  318SOL     MW 1272   1.268   0.403   2.927 -0.2298 -0.8056 -0.0640
  319SOL     OW 1273   0.767   0.397   2.736  0.5797  0.1846  0.2657
  319SOL    HW1 1274   0.714   0.358   2.668 -0.5336  0.1119 -0.7519
  319SOL    HW2 1275   0.745   0.357   2.819 -0.0456  0.0600 -0.4438
  319SOL     MW 1276   0.757   0.387   2.738  0.3503  0.1586  0.0379
  320SOL     OW 1277   1.022   1.309   2.014 -0.1042 -0.0500  0.0674
  320SOL    HW1 1278   1.080   1.259   2.070  1.0039  3.0886  1.0992
  320SOL    HW2 1279   1.078   1.373   1.975  0.5637 -1.8939  0.1578
  320SOL     MW 1280   1.037   1.311   2.017  0.1301  0.1208  0.2155
  321SOL     OW 1281   1.102   0.976   2.964 -0.2169 -0.3612 -0.1244
  321SOL    HW1 1282   1.023   0.952   2.910  3.0960  3.5389  0.5778
  321SOL    HW2 1283   1.151   0.891   2.953  1.7888 -2.1995 -1.3355
  321SOL     MW 1284   1.098   0.961   2.955  0.4848 -0.0892 -0.1916
  322SOL     OW 1285   1.217   0.886   1.715 -0.4042  0.1314  0.3607
  322SOL    HW1 1286   1.301   0.844   1.733 -0.5665 -2.0714  0.5932
  322SOL    HW2 1287   1.194   0.914   1.803 -1.5623  1.4317  0.9464
  322SOL     MW 1288   1.225   0.885   1.729 -0.5784  0.0123  0.4687
  323SOL     OW 1289   1.196   1.508   1.905 -0.3799 -0.1748 -0.3039
  323SOL    HW1 1290   1.176   1.440   1.837  2.4309  1.5766  1.2363
  323SOL    HW2 1291   1.149   1.582   1.869  3.0227 -1.3423 -1.9205
  323SOL     MW 1292   1.187   1.508   1.891  0.4399 -0.0978 -0.3140
  324SOL     OW 1293   1.500   1.096   2.480  0.2207  0.4698  0.3591
  324SOL    HW1 1294   1.407   1.086   2.504 -2.9720 -2.8369  0.1312
  324SOL    HW2 1295   1.549   1.150   2.541  2.6143 -3.2478 -0.7547
  324SOL     MW 1296   1.494   1.102   2.491  0.1152 -0.4570  0.1821
  325SOL     OW 1297   0.994   0.469   2.927 -0.2069  0.7443  0.4353
  325SOL    HW1 1298   0.943   0.519   2.989  3.3022 -1.3275 -1.7224
  325SOL    HW2 1299   0.933   0.456   2.853  2.3603 -0.3352 -0.1666
  325SOL     MW 1300   0.979   0.474   2.925  0.5948  0.3285  0.0712
  326SOL     OW 1301   0.390   1.351   2.170  0.2856  0.7688 -0.2101
  326SOL    HW1 1302   0.448   1.306   2.105 -0.5411 -1.4513  2.1857
  326SOL    HW2 1303   0.412   1.444   2.162 -1.4971 -0.4793  0.8183
  326SOL     MW 1304   0.401   1.357   2.160 -0.0587  0.3112  0.2417
  327SOL     OW 1305   1.908   0.841   2.413 -0.0760 -0.5785  0.1723
  327SOL    HW1 1306   1.892   0.774   2.482 -0.2832 -0.2227  1.7885
  327SOL    HW2 1307   2.002   0.860   2.394 -2.1812  0.1648 -0.0370
  327SOL     MW 1308   1.918   0.835   2.420 -0.3811 -0.4335  0.3579
  328SOL     OW 1309   0.126   1.292   2.189 -0.2287  1.1830  0.0655
  328SOL    HW1 1310   0.085   1.234   2.126  0.0393  3.2023 -0.8158
  328SOL    HW2 1311   0.219   1.280   2.171 -2.5794 -1.0756  1.0428
  328SOL     MW 1312   0.133   1.283   2.178 -0.5035  1.1514  0.0782
  329SOL     OW 1313   0.141   0.167   1.396  0.1934 -0.0392 -0.6936
  329SOL    HW1 1314   0.072   0.229   1.397 -0.3961  2.2332  1.5534
  329SOL    HW2 1315   0.227   0.213   1.399  3.0308 -1.7616 -0.8762
  329SOL     MW 1316   0.143   0.181   1.397  0.4900  0.0334 -0.4212
  330SOL     OW 1317   0.402   2.948   2.092  0.0629  0.0719  0.4514
  330SOL    HW1 1318   0.467   2.981   2.156  0.8909 -1.2722 -1.3607
  330SOL    HW2 1319   0.318   2.938   2.135 -0.8426 -0.2164  2.6792
  330SOL     MW 1320   0.399   2.951   2.106  0.0527 -0.1435  0.5062
  331SOL     OW 1321   0.719   1.197   2.218  0.1556  0.4634  0.2212
  331SOL    HW1 1322   0.671   1.194   2.139 -0.0584  2.7276  1.3404
  331SOL    HW2 1323   0.750   1.289   2.226  1.1817 -0.0092 -5.0464
  331SOL     MW 1324   0.717   1.209   2.208  0.2627  0.6998 -0.3262
  332SOL     OW 1325   1.357   1.739   2.931  0.4784 -0.2981  0.0850
  332SOL    HW1 1326   1.370   1.760   2.832  1.3734 -1.1606 -2.4639
  332SOL    HW2 1327   1.359   1.822   2.980 -0.2079  0.3176  0.5704
  332SOL     MW 1328   1.359   1.753   2.925  0.5059 -0.3307 -0.1873
  333SOL     OW 1329   1.741   1.496   3.029  0.0030 -0.3540 -0.4059
  333SOL    HW1 1330   1.835   1.503   3.054 -0.0202 -1.0296  3.2256
  333SOL    HW2 1331   1.708   1.434   3.097 -1.2776 -0.7657  1.2892
  333SOL     MW 1332   1.749   1.489   3.042 -0.1690 -0.4974  0.2969
  334SOL     OW 1333   1.172   3.069   2.594  0.5495 -0.2915  0.3063
  334SOL    HW1 1334   1.096   3.073   2.661  0.6881 -0.2883  1.2970
  334SOL    HW2 1335   1.222   3.152   2.602 -0.2510 -0.5336 -0.9253
  334SOL     MW 1336   1.169   3.080   2.604  0.4622 -0.3230  0.2745
  335SOL     OW 1337   1.263   0.745   2.956  0.0469 -0.6135  0.4852
  335SOL    HW1 1338   1.290   0.726   3.044  1.3184 -1.6434  0.0700
  335SOL    HW2 1339   1.331   0.793   2.912  0.7627  1.0229 -0.1192
  335SOL     MW 1340   1.275   0.749   2.962  0.3091 -0.5335  0.3507
  336SOL     OW 1341   0.938   1.071   1.850 -0.2718 -0.2824 -0.0891
  336SOL    HW1 1342   0.927   1.149   1.909 -3.0578  1.5999  0.1855
  336SOL    HW2 1343   1.009   1.019   1.887  0.9486 -1.5843  0.2783
  336SOL     MW 1344   0.946   1.074   1.863 -0.4784 -0.2058 -0.0044
  337SOL     OW 1345   0.608   1.768   2.825 -0.9160 -0.1253 -0.0721
  337SOL    HW1 1346   0.539   1.802   2.768 -1.5773  0.1901  1.5241
  337SOL    HW2 1347   0.635   1.685   2.781  0.4998 -3.6024 -3.7903
  337SOL     MW 1348   0.602   1.761   2.812 -0.8164 -0.5425 -0.3520
  338SOL     OW 1349   1.041   0.789   2.540  0.3230 -0.1844 -0.7646
  338SOL    HW1 1350   0.982   0.814   2.612 -1.3308 -3.6701 -2.7532
  338SOL    HW2 1351   1.117   0.750   2.590  2.5582  2.6200  4.0571
  338SOL     MW 1352   1.043   0.787   2.556  0.3997 -0.2743 -0.3908
  339SOL     OW 1353   1.432   1.090   1.842  0.8020 -0.3011 -0.1465
  339SOL    HW1 1354   1.386   1.116   1.761 -2.5424 -0.2387  1.2575
  339SOL    HW2 1355   1.450   1.165   1.904  1.3660  0.7590  2.5419
  339SOL     MW 1356   1.428   1.104   1.839  0.4352 -0.1530  0.3934
  340SOL     OW 1357   1.352   1.560   0.079 -0.7235  0.3867 -0.2379
  340SOL    HW1 1358   1.370   1.594  -0.013 -0.0775  0.6421  0.5398
  340SOL    HW2 1359   1.428   1.576   0.130 -0.0826  1.3456  0.2781
  340SOL     MW 1360   1.364   1.566   0.073 -0.5537  0.5469 -0.0672
  341SOL     OW 1361   0.160   1.268   2.655 -0.8219  0.5445  0.3542
  341SOL    HW1 1362   0.217   1.343   2.647  1.1111 -2.7126  1.7943
  341SOL    HW2 1363   0.118   1.258   2.570  0.2325 -1.2341 -1.1114
  341SOL     MW 1364   0.162   1.276   2.643 -0.4277 -0.1199  0.3508
  342SOL     OW 1365   1.410   0.270   0.079  0.1390  0.2197 -0.0362
  342SOL    HW1 1366   1.431   0.331   0.150  1.4566 -0.5133  3.1755
  342SOL    HW2 1367   1.399   0.316  -0.005  2.1315 -0.8759 -1.4763
  342SOL     MW 1368   1.412   0.284   0.077  0.5757 -0.0216  0.1975
  343SOL     OW 1369   0.197   0.301   2.284 -0.4078 -0.3613  0.4355
  343SOL    HW1 1370   0.238   0.233   2.334  0.4906 -2.1313 -0.2426
  343SOL    HW2 1371   0.154   0.245   2.217  0.7229 -0.8116  0.3048
  343SOL     MW 1372   0.197   0.284   2.282 -0.1400 -0.6542  0.3288
  344SOL     OW 1373   1.682   2.166   0.099  0.0609 -0.5763  0.3510
  344SOL    HW1 1374   1.717   2.231   0.037  0.5918  1.4628 -2.3520
  344SOL    HW2 1375   1.652   2.089   0.040 -0.2559 -0.0582 -3.2934
  344SOL     MW 1376   1.683   2.164   0.083  0.0891 -0.2389 -0.4865
  345SOL     OW 1377   0.671   1.590   2.362 -0.0492  0.2959 -0.0076
  345SOL    HW1 1378   0.584   1.602   2.324  1.3626 -0.2866  0.6784
  345SOL    HW2 1379   0.725   1.533   2.297 -1.6010 -0.5744 -2.0733
  345SOL     MW 1380   0.667   1.584   2.349 -0.0676  0.1042 -0.1896
  346SOL     OW 1381   1.684   1.026   0.003 -0.2652  0.0091  0.0661
  346SOL    HW1 1382   1.777   1.016   0.012 -1.5635 -1.7726 -2.9064
  346SOL    HW2 1383   1.651   0.960   0.059  1.6385 -0.7685 -0.0485
  346SOL     MW 1384   1.692   1.016   0.012 -0.1854 -0.3286 -0.3412
  347SOL     OW 1385   1.166   0.662   2.342 -0.6861  0.3552  0.0457
  347SOL    HW1 1386   1.259   0.658   2.380  1.0898  0.4702  1.0340
  347SOL    HW2 1387   1.117   0.714   2.403  0.4768 -1.3556 -1.8296
  347SOL     MW 1388   1.172   0.668   2.355 -0.2983  0.1447 -0.0713
  348SOL     OW 1389   1.328   2.663   1.887  0.8009 -0.5894 -0.1857
  348SOL    HW1 1390   1.372   2.586   1.922 -0.5144  2.8103  1.9570
  348SOL    HW2 1391   1.374   2.737   1.926  0.3135  1.5767  0.4169
  348SOL     MW 1392   1.340   2.662   1.897  0.5630  0.1449  0.1765
  349SOL     OW 1393   1.343   0.199   2.685  0.2409 -0.4130 -0.0963
  349SOL    HW1 1394   1.326   0.238   2.771  1.0275 -1.1052  1.2315
  349SOL    HW2 1395   1.438   0.181   2.677  1.5732 -0.4586 -0.5490
  349SOL     MW 1396   1.354   0.201   2.695  0.5205 -0.5104  0.0192
  350SOL     OW 1397   1.888   0.643   2.643 -0.6670 -0.0002  0.0370
  350SOL    HW1 1398   1.856   0.573   2.584  0.3030 -1.3191 -0.2376
  350SOL    HW2 1399   1.971   0.617   2.688  0.9165 -1.8069 -0.6205
  350SOL     MW 1400   1.895   0.631   2.641 -0.3301 -0.4126 -0.0860
  351SOL     OW 1401   0.034   0.961   1.569 -0.7500 -0.1921  0.1641
  351SOL    HW1 1402  -0.038   0.993   1.623  0.1394 -1.9264  0.6107
  351SOL    HW2 1403   0.091   1.036   1.559  1.2894 -1.4910 -0.2024
  351SOL     MW 1404   0.032   0.975   1.575 -0.3636 -0.5923  0.1747
  352SOL     OW 1405   0.807   1.562   2.715 -0.3764 -0.0352  0.0933
  352SOL    HW1 1406   0.833   1.529   2.796 -3.3298  1.5563  0.5824
  352SOL    HW2 1407   0.750   1.494   2.669  0.3858 -0.9681 -0.1558
  352SOL     MW 1408   0.803   1.548   2.720 -0.6655  0.0517  0.1250
  353SOL     OW 1409   3.076   2.429   2.765 -0.5094  0.0111 -0.2767
  353SOL    HW1 1410   3.164   2.432   2.731 -3.6751  0.6365 -0.3404
  353SOL    HW2 1411   3.037   2.511   2.743  1.1341  0.5657 -0.2900
  353SOL     MW 1412   3.083   2.440   2.758 -0.7102  0.1668 -0.2869
  354SOL     OW 1413   0.360   2.456   0.899  0.7465 -0.4023 -0.1509
  354SOL    HW1 1414   0.394   2.424   0.991 -2.1016  1.4591  0.1865
  354SOL    HW2 1415   0.280   2.402   0.887 -1.1912  0.2256  2.7432
  354SOL     MW 1416   0.354   2.445   0.910  0.1151 -0.0739  0.2755
  355SOL     OW 1417   0.086   2.259   0.369  0.2892 -0.3707 -0.2940
  355SOL    HW1 1418   0.014   2.192   0.369 -2.3057  0.7776 -0.3686
  355SOL    HW2 1419   0.063   2.303   0.450 -2.6187  0.0302 -0.1030
  355SOL     MW 1420   0.073   2.256   0.380 -0.4369 -0.1663 -0.2787
  356SOL     OW 1421   0.708   2.939   0.978  0.3203  0.0572  0.0727
  356SOL    HW1 1422   0.797   2.914   0.956 -0.2266  1.1380  0.3934
  356SOL    HW2 1423   0.647   2.865   0.947 -0.1593  1.1585  1.7911
  356SOL     MW 1424   0.712   2.926   0.971  0.1849  0.3451  0.3417
  357SOL     OW 1425   1.779   2.971   0.373  0.0104  0.0724  0.3515
  357SOL    HW1 1426   1.737   2.898   0.424 -2.3685 -2.7058 -1.0322
  357SOL    HW2 1427   1.868   2.944   0.337  0.2622 -0.2829  0.1059
  357SOL     MW 1428   1.785   2.958   0.375 -0.2703 -0.3410  0.1366
  358SOL     OW 1429   0.485   0.149   1.047 -1.1100  0.3123  0.3776
  358SOL    HW1 1430   0.567   0.134   0.991  0.9068 -0.5471 -1.3599
  358SOL    HW2 1431   0.424   0.166   0.975 -0.2629 -0.0487 -0.1120
  358SOL     MW 1432   0.488   0.150   1.030 -0.7322  0.1513  0.0838
  359SOL     OW 1433   0.889   2.737   1.913 -0.2795  0.1572 -0.3190
  359SOL    HW1 1434   0.860   2.659   1.962 -1.2562  3.7064 -1.7983
  359SOL    HW2 1435   0.969   2.712   1.860  1.4408  2.8265  0.7323
  359SOL     MW 1436   0.896   2.723   1.912 -0.1814  0.9777 -0.3755
  360SOL     OW 1437   0.534   2.732   0.921  0.5256  0.3343 -0.0731
  360SOL    HW1 1438   0.516   2.673   0.849  1.8263  2.0547  0.2421
  360SOL    HW2 1439   0.558   2.687   1.007 -0.7357  1.7747 -0.2987
  360SOL     MW 1440   0.535   2.719   0.923  0.5308  0.7514 -0.0613
  361SOL     OW 1441   0.179   2.747   1.375  0.1989  0.3598  0.1267
  361SOL    HW1 1442   0.155   2.820   1.421  0.2344 -2.3535 -2.8680
  361SOL    HW2 1443   0.273   2.739   1.377 -0.1240 -2.5902  0.6029
  361SOL     MW 1444   0.188   2.756   1.381  0.1609 -0.3874 -0.2056
  362SOL     OW 1445   1.494   2.407   0.610  0.3692 -0.0461 -0.5596
  362SOL    HW1 1446   1.500   2.332   0.666  1.1848  1.7404  0.2225
  362SOL    HW2 1447   1.494   2.479   0.674 -0.5949 -0.0372  1.1033
  362SOL     MW 1448   1.495   2.407   0.626  0.3496  0.1908 -0.2370
  363SOL     OW 1449   0.271   3.059   0.690 -0.6129 -0.4087  0.6999
  363SOL    HW1 1450   0.271   3.000   0.759 -1.9217 -0.5554  1.7101
  363SOL    HW2 1451   0.187   3.072   0.645 -0.8714 -0.6310 -3.4954
  363SOL     MW 1452   0.260   3.053   0.693 -0.8197 -0.4574  0.2796
  364SOL     OW 1453   0.747   0.160   0.230  0.2921  0.2352 -0.5558
  364SOL    HW1 1454   0.729   0.067   0.228  2.1857  1.1056  0.0452
  364SOL    HW2 1455   0.666   0.198   0.190 -2.4604  0.5065 -0.6865
  364SOL     MW 1456   0.734   0.153   0.225  0.1787  0.3858 -0.4938
  365SOL     OW 1457   1.030   1.981   1.143 -0.3033 -0.1834  0.5176
  365SOL    HW1 1458   1.027   2.070   1.099  2.2323  0.7117  1.1617
  365SOL    HW2 1459   0.974   1.920   1.102  0.8969  2.6031 -0.2601
  365SOL     MW 1460   1.023   1.984   1.132  0.1896  0.3023  0.5000
  366SOL     OW 1461   2.870   2.636   1.003 -0.3107  0.2033  0.2111
  366SOL    HW1 1462   2.935   2.667   1.063  1.3127 -0.5031  1.5092
  366SOL    HW2 1463   2.895   2.666   0.911  1.5343 -1.9063 -1.4957
  366SOL     MW 1464   2.882   2.644   0.998  0.1469 -0.1682  0.1572
  367SOL     OW 1465   1.281   2.948   0.866  0.0224 -0.0589  0.3231
  367SOL    HW1 1466   1.198   2.984   0.875  1.7747 -1.2194  0.1056
  367SOL    HW2 1467   1.282   2.912   0.782  0.4734 -0.2432 -1.4931
  367SOL     MW 1468   1.270   2.948   0.856  0.3131 -0.2363  0.0547
  368SOL     OW 1469   1.706   0.442   0.664 -0.0805  0.3437  0.3217
  368SOL    HW1 1470   1.777   0.371   0.662 -1.2418 -2.9475 -0.7680
  368SOL    HW2 1471   1.742   0.528   0.687  0.1602 -4.5643  0.3138
  368SOL     MW 1472   1.720   0.444   0.667 -0.2020 -0.7381  0.1768
  369SOL     OW 1473   0.146   2.461   1.742 -0.4098  0.2941  0.3569
  369SOL    HW1 1474   0.235   2.434   1.773  0.5492 -0.9866 -0.8094
  369SOL    HW2 1475   0.133   2.546   1.779  0.2163 -1.9606 -2.8697
  369SOL     MW 1476   0.156   2.469   1.751 -0.2007 -0.1724 -0.2227
  370SOL     OW 1477   0.698   0.094   0.868 -0.5811  0.0062  0.0886
  370SOL    HW1 1478   0.767   0.154   0.903  0.5994  0.0565  0.5837
  370SOL    HW2 1479   0.720   0.002   0.904  1.7336  1.1992 -2.0597
  370SOL     MW 1480   0.710   0.090   0.877 -0.1200  0.1703 -0.1295
  371SOL     OW 1481   1.364   2.992   1.499 -0.5542 -0.2279  0.6113
  371SOL    HW1 1482   1.289   2.928   1.491 -2.8381 -1.4460  0.4947
  371SOL    HW2 1483   1.350   3.059   1.436  2.1912  1.4745  0.1707
  371SOL     MW 1484   1.352   2.992   1.490 -0.4933 -0.1640  0.5378
  372SOL     OW 1485   0.777   2.280   0.472  0.3407 -0.3426  0.3628
  372SOL    HW1 1486   0.746   2.197   0.506 -3.3409 -1.6268 -0.0354
  372SOL    HW2 1487   0.818   2.269   0.389 -0.2106  0.7853 -0.5562
  372SOL     MW 1488   0.779   2.268   0.465 -0.2178 -0.3632  0.1890
  373SOL     OW 1489   2.787   2.981   1.394  0.0155 -0.2787  0.5382
  373SOL    HW1 1490   2.853   2.957   1.326  1.2299  0.4801 -0.1733
  373SOL    HW2 1491   2.751   3.065   1.366  0.1694 -1.1634 -0.7748
  373SOL     MW 1492   2.791   2.989   1.381  0.1960 -0.2953  0.2711
  374SOL     OW 1493   1.475   0.516   0.240 -0.0654  0.1800 -0.1742
  374SOL    HW1 1494   1.544   0.534   0.171 -1.0006 -0.9554  0.3388
  374SOL    HW2 1495   1.516   0.472   0.314  2.1076 -0.0381  1.5503
  374SOL     MW 1496   1.489   0.512   0.240  0.0979  0.0014  0.1210
  375SOL     OW 1497   1.119   2.111   2.258 -0.2262 -0.1263 -0.0463
  375SOL    HW1 1498   1.151   2.113   2.347  0.0872 -2.0495  0.1707
  375SOL    HW2 1499   1.118   2.012   2.247 -0.2424 -1.3469 -0.1341
  375SOL     MW 1500   1.123   2.099   2.268 -0.1869 -0.5411 -0.0293
  376SOL     OW 1501   0.692   2.538   0.154  0.0957 -0.2892 -0.3043
  376SOL    HW1 1502   0.739   2.464   0.198  0.4050 -3.2028 -0.0051
  376SOL    HW2 1503   0.617   2.490   0.113 -1.6704  2.3359 -0.8867
  376SOL     MW 1504   0.688   2.522   0.155 -0.0965 -0.3273 -0.3417
  377SOL     OW 1505   1.311   2.097   0.905 -0.3927 -0.3535  0.2364
  377SOL    HW1 1506   1.241   2.056   0.853  0.7323  2.3663 -0.2974
  377SOL    HW2 1507   1.305   2.058   0.997 -1.2769  0.5643  2.0763
  377SOL     MW 1508   1.301   2.087   0.910 -0.3609  0.1264  0.4087
  378SOL     OW 1509   0.974   2.828   1.501 -0.1762 -0.2219 -0.1363
  378SOL    HW1 1510   0.916   2.752   1.526 -2.3843  1.1088 -0.6963
  378SOL    HW2 1511   0.943   2.856   1.417 -1.2998 -0.6132  1.5432
  378SOL     MW 1512   0.962   2.822   1.493 -0.6157 -0.0980  0.0114
  379SOL     OW 1513   1.034   1.834   2.294 -0.0844  0.0845  0.8603
  379SOL    HW1 1514   0.940   1.844   2.294 -0.2518  1.3233 -2.2328
  379SOL    HW2 1515   1.060   1.764   2.235 -0.4144  3.9899  0.3380
  379SOL     MW 1516   1.025   1.826   2.286 -0.1500  0.7632  0.3833
  380SOL     OW 1517   0.911   0.237   1.528 -0.2113  0.1045  0.8914
  380SOL    HW1 1518   0.931   0.179   1.454  2.6014 -1.3082 -2.4466
  380SOL    HW2 1519   0.978   0.215   1.592 -0.3475  0.3890  1.6530
  380SOL     MW 1520   0.922   0.227   1.527  0.1419 -0.0443  0.5514
  381SOL     OW 1521   0.836   2.020   0.825  0.2834  0.4122  0.2748
  381SOL    HW1 1522   0.921   1.993   0.789 -1.6502  1.4398  1.6549
  381SOL    HW2 1523   0.855   2.104   0.879  1.4473 -0.0561  3.3069
  381SOL     MW 1524   0.850   2.027   0.827  0.1819  0.4860  0.8569
  382SOL     OW 1525   0.678   0.019   0.599  0.4301  0.0128  0.3719
  382SOL    HW1 1526   0.668   0.043   0.689 -0.2722  2.8829 -0.0516
  382SOL    HW2 1527   0.646  -0.073   0.595 -0.9081  0.4005  0.4926
  382SOL     MW 1528   0.672   0.010   0.610  0.1609  0.4427  0.3320
  383SOL     OW 1529   0.496   0.012   0.361 -1.0443 -0.8352  0.2202
  383SOL    HW1 1530   0.495  -0.045   0.438 -3.6470  1.4089 -1.8132
  383SOL    HW2 1531   0.412   0.008   0.330  2.4972 -0.8149  0.3826
  383SOL     MW 1532   0.485   0.004   0.367 -0.9204 -0.5364 -0.0266
  384SOL     OW 1533   0.634   2.858   0.586 -0.1791  0.0264  0.2444
  384SOL    HW1 1534   0.632   2.773   0.633  1.0913 -0.3292  1.0789
  384SOL    HW2 1535   0.544   2.865   0.540  0.3669 -1.8662 -0.0308
  384SOL     MW 1536   0.622   2.848   0.586  0.0606 -0.2702  0.3182
  385SOL     OW 1537   1.321   2.034   1.533 -0.4703 -0.0556  0.1294
  385SOL    HW1 1538   1.398   2.058   1.587 -1.7926 -1.4397  0.0259
  385SOL    HW2 1539   1.286   1.959   1.580  1.3333  2.2976  1.0959
  385SOL     MW 1540   1.326   2.028   1.546 -0.4068  0.0722  0.2433
  386SOL     OW 1541   1.311   0.437   0.927  0.9514 -0.0834 -0.4666
  386SOL    HW1 1542   1.237   0.405   0.880  1.3932 -2.5349 -0.5918
  386SOL    HW2 1543   1.292   0.428   1.019  1.1411  0.1283 -0.4211
  386SOL     MW 1544   1.299   0.432   0.933  1.0347 -0.3789 -0.4771
  387SOL     OW 1545   0.872   2.200   1.437  0.6983 -0.1511  0.7312
  387SOL    HW1 1546   0.957   2.239   1.397  0.8443  0.8189  1.4109
  387SOL    HW2 1547   0.881   2.105   1.430 -0.1582 -1.9620 -0.8424
  387SOL     MW 1548   0.884   2.192   1.431  0.6045 -0.2621  0.6132
  388SOL     OW 1549   1.586   2.861   1.220 -0.0543  0.0543 -0.3600
  388SOL    HW1 1550   1.499   2.819   1.200 -0.4172  1.5978  0.3923
  388SOL    HW2 1551   1.651   2.803   1.171  0.6581 -2.5850  0.0660
  388SOL     MW 1552   1.583   2.848   1.211 -0.0082 -0.0903 -0.2045
  389SOL     OW 1553   0.437   0.100   3.076 -0.3880  0.8296  0.2857
  389SOL    HW1 1554   0.530   0.071   3.061 -0.0834  2.1519 -0.9103
  389SOL    HW2 1555   0.384   0.022   3.111 -0.2312 -0.0328  1.3551
  389SOL     MW 1556   0.442   0.086   3.079 -0.3272  0.8903  0.2690
  390SOL     OW 1557   1.380   0.068   0.640  0.4365 -0.7717 -0.5293
  390SOL    HW1 1558   1.474   0.076   0.621  1.1601  1.6362  0.6519
  390SOL    HW2 1559   1.377   0.081   0.734 -2.2137 -2.4148 -0.2922
  390SOL     MW 1560   1.392   0.071   0.650  0.1823 -0.6708 -0.3421
  391SOL     OW 1561   0.269   2.306   1.424 -0.2933  0.8403 -0.3175
  391SOL    HW1 1562   0.234   2.230   1.476 -1.4759  2.4796  0.8614
  391SOL    HW2 1563   0.210   2.384   1.444  0.5388 -3.0945 -0.0558
  391SOL     MW 1564   0.256   2.306   1.434 -0.3395  0.5374 -0.1274
  392SOL     OW 1565   1.997   2.173   0.285 -0.6783  0.4346  0.3595
  392SOL    HW1 1566   1.941   2.239   0.319 -0.2252  0.6946 -0.7616
  392SOL    HW2 1567   2.028   2.125   0.367  2.8137 -1.7909  1.2248
  392SOL     MW 1568   1.994   2.175   0.300 -0.1578  0.1753  0.3257
  393SOL     OW 1569   0.219   2.999   2.954  0.0144  0.1977  0.1850
  393SOL    HW1 1570   0.277   3.060   2.910 -2.2166 -0.3355  2.8411
  393SOL    HW2 1571   0.141   2.999   2.903  3.2708  1.3785 -0.7942
  393SOL     MW 1572   0.217   3.007   2.941  0.1497  0.2832  0.4063
  394SOL     OW 1573   0.811   1.664   1.449  0.1914 -0.5496 -0.9091
  394SOL    HW1 1574   0.751   1.678   1.530  0.9737  1.5510  1.4827
  394SOL    HW2 1575   0.840   1.745   1.424  1.1229  1.3098  2.2634
  394SOL     MW 1576   0.807   1.677   1.457  0.4175 -0.0271 -0.1749
  395SOL     OW 1577   0.917   2.848   2.610  0.0996 -0.0272 -0.2455
  395SOL    HW1 1578   0.963   2.904   2.681 -0.0990  0.1066  1.5712
  395SOL    HW2 1579   0.979   2.785   2.559  0.5944  0.1736  1.7310
  395SOL     MW 1580   0.931   2.847   2.612  0.1387  0.0169  0.2550
  396SOL     OW 1581   0.749   1.849   2.362  0.2706  0.3649 -0.2203
  396SOL    HW1 1582   0.778   1.871   2.451  0.9695  2.5098  0.6029
  396SOL    HW2 1583   0.723   1.754   2.362  0.8683  1.1379  0.3146
  396SOL     MW 1584   0.749   1.840   2.373  0.4417  0.7499 -0.0411
  397SOL     OW 1585   1.041   2.344   1.293 -0.0883  0.1379  0.1951
  397SOL    HW1 1586   1.064   2.389   1.208 -0.0543  2.7645 -1.7110
  397SOL    HW2 1587   1.100   2.382   1.355 -1.6916 -2.9788  0.6436
  397SOL     MW 1588   1.052   2.355   1.290 -0.2954  0.0732  0.0028
  398SOL     OW 1589   0.571   2.603   0.674 -0.3075  0.0780 -0.4310
  398SOL    HW1 1590   0.492   2.587   0.627 -2.2758 -2.1495  0.5434
  398SOL    HW2 1591   0.653   2.568   0.629  1.0386 -0.8310  1.8672
  398SOL     MW 1592   0.571   2.596   0.662 -0.3896 -0.3358  0.0008
  399SOL     OW 1593   0.258   2.044   0.346  0.0417  0.2417 -0.2297
  399SOL    HW1 1594   0.205   2.118   0.340 -0.2108 -0.3415 -1.6431
  399SOL    HW2 1595   0.323   2.046   0.279  0.6205 -0.3084 -1.0588
  399SOL     MW 1596   0.260   2.054   0.336  0.0847  0.0922 -0.5256
  400SOL     OW 1597   0.604   1.836   0.205  0.7143  0.2612 -0.1237
  400SOL    HW1 1598   0.572   1.928   0.196 -0.5317 -0.7152  0.7587
  400SOL    HW2 1599   0.537   1.792   0.260 -1.3438  0.5399 -0.4987
  400SOL     MW 1600   0.591   1.842   0.211  0.2783  0.1691 -0.0568
  401SOL     OW 1601   1.012   2.103   0.066  0.0981 -0.1437 -0.3918
  401SOL    HW1 1602   1.023   2.010   0.068  0.2164  1.8839 -3.4739
  401SOL    HW2 1603   1.047   2.132   0.151  1.7621 -0.9056  2.1796
  401SOL     MW 1604   1.018   2.094   0.077  0.3332  0.0233 -0.4592
  402SOL     OW 1605   0.688   2.730   1.733  0.6863  0.9133  0.3675
  402SOL    HW1 1606   0.607   2.707   1.772 -0.6406  0.3574 -2.6077
  402SOL    HW2 1607   0.747   2.756   1.803 -1.5490  0.8522 -0.1598
  402SOL     MW 1608   0.685   2.730   1.747  0.2163  0.8319 -0.0946
  403SOL     OW 1609   0.080   0.572   0.349  0.2217 -0.4195 -0.1907
  403SOL    HW1 1610   0.142   0.554   0.419  1.2566  1.8957 -1.3409
  403SOL    HW2 1611   0.127   0.540   0.278 -1.8667  0.7166 -1.9869
  403SOL     MW 1612   0.094   0.565   0.349  0.0827  0.0358 -0.5794
  404SOL     OW 1613   0.979   2.906   0.875  0.0232  0.0602 -0.3550
  404SOL    HW1 1614   1.013   2.829   0.830 -0.9584 -2.8905 -0.9472
  404SOL    HW2 1615   0.961   2.969   0.803 -0.5814 -0.3997  1.0769
  404SOL     MW 1616   0.981   2.904   0.860 -0.1861 -0.3898 -0.2442
  405SOL     OW 1617   0.453   2.456   1.577  0.2190  0.1657 -0.7050
  405SOL    HW1 1618   0.467   2.531   1.528 -0.8022 -2.0337  3.9254
  405SOL    HW2 1619   0.395   2.397   1.524 -1.6139 -0.2645 -0.5112
  405SOL     MW 1620   0.447   2.458   1.564 -0.1576 -0.1812 -0.0685
  406SOL     OW 1621   0.400   2.410   1.162  0.4108  0.1192  0.1778
  406SOL    HW1 1622   0.304   2.398   1.175  1.1709 -0.3867 -2.0839
  406SOL    HW2 1623   0.432   2.335   1.210 -3.0491  0.8905  1.0514
  406SOL     MW 1624   0.392   2.398   1.170  0.0546  0.1542 -0.0053
  407SOL     OW 1625  -0.006   2.698   1.179  0.4007 -0.6374  0.1249
  407SOL    HW1 1626   0.042   2.728   1.258  0.2403  0.5439 -3.3841
  407SOL    HW2 1627   0.061   2.693   1.114 -1.2192  1.7118  2.1089
  407SOL     MW 1628   0.009   2.701   1.181  0.1658 -0.1716 -0.0763
  408SOL     OW 1629   2.079   2.072   0.539  0.7574  0.4902 -0.4236
  408SOL    HW1 1630   2.055   2.132   0.611 -1.7900  1.7317  1.8181
  408SOL    HW2 1631   1.999   2.015   0.529 -1.3870 -2.2121  0.2177
  408SOL     MW 1632   2.065   2.073   0.547  0.1384  0.2975 -0.0432
  409SOL     OW 1633   1.407   0.171   0.900 -0.6317  0.5856 -0.1291
  409SOL    HW1 1634   1.409   0.268   0.905 -0.5174 -0.5830  0.0066
  409SOL    HW2 1635   1.493   0.152   0.935 -2.5661  0.7161  1.5694
  409SOL     MW 1636   1.419   0.181   0.905 -0.8718  0.4486  0.1129
  410SOL     OW 1637   1.071   2.505   1.060 -0.3310 -0.3362  0.3205
  410SOL    HW1 1638   1.009   2.500   0.988  2.5830 -0.4669  2.3842
  410SOL    HW2 1639   1.143   2.487   0.999 -0.6124  2.9477 -0.8210
  410SOL     MW 1640   1.073   2.502   1.042  0.0163  0.0798  0.4421
  411SOL     OW 1641   1.957   0.101   2.880 -0.0661 -0.1824  0.2314
  411SOL    HW1 1642   1.921   0.077   2.793  1.6528  0.9905  0.3762
  411SOL    HW2 1643   1.885   0.122   2.939  2.3862  2.6751  1.8341
  411SOL     MW 1644   1.942   0.101   2.876  0.4843  0.3493  0.4620
  412SOL     OW 1645   1.034   2.209   0.563  0.0882 -0.2901 -0.1348
  412SOL    HW1 1646   1.081   2.292   0.601 -2.0899  0.2021  1.8793
  412SOL    HW2 1647   0.937   2.230   0.555  0.5214 -1.7279  1.9922
  412SOL     MW 1648   1.027   2.223   0.567 -0.1420 -0.4148  0.4116
  413SOL     OW 1649   0.526   2.771   0.116 -0.2720  0.0930  0.0124
  413SOL    HW1 1650   0.594   2.715   0.152 -0.2110 -0.1413  4.0584
  413SOL    HW2 1651   0.553   2.810   0.029  0.0043  1.8342  2.8518
  413SOL     MW 1652   0.538   2.769   0.109 -0.2275  0.2918  0.9209
  414SOL     OW 1653   1.995   3.020   1.016 -0.0892  0.0186  0.0276
  414SOL    HW1 1654   1.931   2.984   0.956  1.6860 -0.0362  1.6457
  414SOL    HW2 1655   2.072   2.969   1.010 -1.5823  0.2860  4.1562
  414SOL     MW 1656   1.996   3.008   1.007 -0.0520  0.0466  0.7858
  415SOL     OW 1657   1.747   2.694   1.093  0.2107  0.3758 -0.7761
  415SOL    HW1 1658   1.703   2.635   1.153 -0.6040 -0.9483  0.5334
  415SOL    HW2 1659   1.841   2.705   1.125  1.5723  0.9964 -0.2377
  415SOL     MW 1660   1.754   2.687   1.105  0.2829  0.2830 -0.5323
  416SOL     OW 1661   0.570   1.949   1.380  0.3580  0.1005  0.3429
  416SOL    HW1 1662   0.555   2.044   1.368 -1.0073 -1.2184 -1.5007
  416SOL    HW2 1663   0.582   1.920   1.287  1.7985  1.1273 -0.8626
  416SOL     MW 1664   0.570   1.958   1.366  0.3679  0.0620 -0.0594
  417SOL     OW 1665   1.089   2.990   1.981  0.2136  0.0270 -0.5255
  417SOL    HW1 1666   1.033   2.980   2.059  1.3203 -2.9657 -1.3527
  417SOL    HW2 1667   1.050   2.929   1.919  0.9508 -0.2389  0.5838
  417SOL     MW 1668   1.076   2.980   1.983  0.4569 -0.4029 -0.4882
  418SOL     OW 1669   0.728   2.984   0.178  0.3057  0.6099  0.1039
  418SOL    HW1 1670   0.783   2.938   0.107  2.1666  1.4992 -0.0372
  418SOL    HW2 1671   0.663   2.914   0.184 -0.6568  0.1008  1.4155
  418SOL     MW 1672   0.727   2.968   0.169  0.4242  0.6601  0.2583
  419SOL     OW 1673   0.465   2.679   1.407 -0.0716  0.2307  0.0262
  419SOL    HW1 1674   0.540   2.741   1.428  2.6433 -0.0325 -0.2537
  419SOL    HW2 1675   0.483   2.659   1.316  0.5066  0.3799  0.0046
  419SOL     MW 1676   0.477   2.685   1.398  0.3629  0.2156 -0.0136
  420SOL     OW 1677   0.900   2.220   1.002  0.0365  0.0650  0.0698
  420SOL    HW1 1678   0.844   2.214   1.082 -1.7619 -2.2608  2.4367
  420SOL    HW2 1679   0.915   2.312   0.975 -0.5868 -0.7262 -2.8079
  420SOL     MW 1680   0.894   2.231   1.009 -0.2830 -0.3463  0.0024
  421SOL     OW 1681   2.951   0.101   0.054  0.3426 -0.1665 -0.2390
  421SOL    HW1 1682   2.899   0.054  -0.016 -1.3872 -0.4928 -3.1714
  421SOL    HW2 1683   2.966   0.028   0.112 -2.0918  2.7255  0.2557
  421SOL     MW 1684   2.946   0.085   0.052 -0.2069  0.1720 -0.5606
  422SOL     OW 1685   0.858   2.493   0.881  0.6212 -0.2443  0.1692
  422SOL    HW1 1686   0.772   2.530   0.908 -0.1514 -1.1246 -0.9054
  422SOL    HW2 1687   0.851   2.488   0.777  1.1671 -2.0812 -0.7631
  422SOL     MW 1688   0.846   2.497   0.871  0.5913 -0.6028 -0.0956
  423SOL     OW 1689   1.617   0.097   0.524 -0.2182  0.1363 -0.2082
  423SOL    HW1 1690   1.595   0.056   0.439  1.3009  2.1741 -1.5256
  423SOL    HW2 1691   1.607   0.187   0.502  1.7033 -0.8489 -0.6122
  423SOL     MW 1692   1.613   0.103   0.510  0.2357  0.2752 -0.4353
  424SOL     OW 1693   0.747   2.183   1.210 -0.2870  0.1647  0.1953
  424SOL    HW1 1694   0.661   2.207   1.238  2.1330 -3.4330  0.5293
  424SOL    HW2 1695   0.791   2.176   1.298 -2.8997  0.1547 -0.3877
  424SOL     MW 1696   0.742   2.186   1.225 -0.3124 -0.3113  0.1624
  425SOL     OW 1697   1.750   2.783   2.067  0.1415 -0.3904  0.0408
  425SOL    HW1 1698   1.757   2.776   1.972 -0.0878 -1.8626 -0.3737
  425SOL    HW2 1699   1.770   2.693   2.102 -0.2886  0.0450 -0.0917
  425SOL     MW 1700   1.753   2.770   2.059  0.0545 -0.5272 -0.0314
  426SOL     OW 1701   0.770   1.606   1.913 -0.3467 -1.0377  0.0322
  426SOL    HW1 1702   0.703   1.603   1.842  0.9940 -0.8274  2.1863
  426SOL    HW2 1703   0.753   1.687   1.968 -1.4204  2.4591 -2.1715
  426SOL     MW 1704   0.759   1.616   1.911 -0.3115 -0.5486  0.0257
  427SOL     OW 1705   0.411   1.525   1.844 -0.0824  0.0976 -0.0613
  427SOL    HW1 1706   0.408   1.447   1.796  0.0736 -2.4782 -1.5234
  427SOL    HW2 1707   0.330   1.536   1.893  0.3663 -0.7039  0.8461
  427SOL     MW 1708   0.400   1.516   1.844 -0.0026 -0.3480 -0.1345
  428SOL     OW 1709   0.585   2.624   1.154 -0.4553  0.2743 -0.1098
  428SOL    HW1 1710   0.655   2.615   1.225  0.5739 -1.2572  0.4165
  428SOL    HW2 1711   0.544   2.533   1.146  1.2666  1.0255 -1.4469
  428SOL     MW 1712   0.589   2.611   1.162 -0.0923  0.1713 -0.2168
  429SOL     OW 1713   1.355   2.748   1.040 -0.3905 -1.0860  0.0086
  429SOL    HW1 1714   1.268   2.727   1.079  0.6851 -0.1056  0.8423
  429SOL    HW2 1715   1.320   2.822   0.991  0.2669  0.3272  0.3397
  429SOL     MW 1716   1.339   2.755   1.039 -0.1619 -0.7702  0.1623
  430SOL     OW 1717   1.143   2.730   0.686  0.1220  0.2590 -0.0227
  430SOL    HW1 1718   1.180   2.641   0.672  1.6348 -0.2524  1.9683
  430SOL    HW2 1719   1.128   2.756   0.593  1.7017  1.4874 -1.8377
  430SOL     MW 1720   1.146   2.722   0.672  0.5300  0.3536  0.0005
  431SOL     OW 1721   0.391   2.003   1.144 -0.2179 -0.1451  0.0309
  431SOL    HW1 1722   0.448   1.923   1.131 -3.3995  0.8068  0.9246
  431SOL    HW2 1723   0.360   2.015   1.057  0.4748 -3.3431 -0.3318
  431SOL     MW 1724   0.394   1.994   1.130 -0.5463 -0.4414  0.1010
  432SOL     OW 1725   0.103   0.048   1.149  0.1682  0.3636 -0.2593
  432SOL    HW1 1726   0.123   0.069   1.243  1.4747  0.8552  3.0046
  432SOL    HW2 1727   0.026  -0.010   1.162  1.5118 -0.2849  0.3684
  432SOL     MW 1728   0.095   0.043   1.163  0.5178  0.3429  0.2542
  433SOL     OW 1729   0.659   2.879   1.449 -0.4044 -0.3619 -0.0867
  433SOL    HW1 1730   0.704   2.833   1.523 -1.9615 -0.4830 -2.3989
  433SOL    HW2 1731   0.726   2.887   1.378  1.5331 -0.6853  1.8653
  433SOL     MW 1732   0.674   2.874   1.450 -0.3542 -0.4206 -0.1342
  434SOL     OW 1733   1.597   2.851   1.507 -0.5032 -0.1099 -0.4736
  434SOL    HW1 1734   1.516   2.902   1.503  0.6128  0.3933  0.0408
  434SOL    HW2 1735   1.624   2.831   1.421 -1.2939  0.4526  1.0952
  434SOL     MW 1736   1.590   2.855   1.495 -0.4603  0.0307 -0.1987
  435SOL     OW 1737   2.841   1.796   0.240 -0.2511 -0.3626 -0.1555
  435SOL    HW1 1738   2.907   1.858   0.209  0.2368  0.3039 -0.5506
  435SOL    HW2 1739   2.832   1.729   0.175  0.8217  1.9811 -0.9777
  435SOL     MW 1740   2.849   1.795   0.227 -0.0452  0.0346 -0.3161
  436SOL     OW 1741   1.486   2.802   0.320  0.0022 -0.2403 -0.0388
  436SOL    HW1 1742   1.555   2.778   0.391 -0.8122  0.3764  0.4809
  436SOL    HW2 1743   1.429   2.870   0.360 -0.8956 -0.6810  0.3068
  436SOL     MW 1744   1.487   2.807   0.335 -0.2237 -0.2171  0.0754
  437SOL     OW 1745   0.826   2.941   1.242 -0.1243  0.2485  0.2763
  437SOL    HW1 1746   0.880   3.017   1.246 -0.5078 -0.0158 -0.6251
  437SOL    HW2 1747   0.778   2.931   1.155  0.9609  0.0060 -2.1069
  437SOL     MW 1748   0.827   2.950   1.231 -0.0317  0.1816 -0.1571
  438SOL     OW 1749   0.818   2.524   2.062  0.4997  0.3861 -0.2955
  438SOL    HW1 1750   0.819   2.484   2.150  0.8817  0.4867 -3.7346
  438SOL    HW2 1751   0.736   2.483   2.030  2.3154  0.0319 -0.5338
  438SOL     MW 1752   0.808   2.513   2.070  0.7897  0.3527 -0.7807
  439SOL     OW 1753   1.146   2.172   0.319  0.3472 -0.6016 -0.6073
  439SOL    HW1 1754   1.091   2.154   0.403  0.1677  0.8205  0.7318
  439SOL    HW2 1755   1.125   2.268   0.303 -0.9191  0.9758 -1.1218
  439SOL     MW 1756   1.136   2.183   0.328  0.1564 -0.2059 -0.4985
  440SOL     OW 1757   1.609   3.045   2.994 -0.0627  0.2122  0.0815
  440SOL    HW1 1758   1.599   3.008   3.079  0.9965  3.3604 -1.2240
  440SOL    HW2 1759   1.651   2.974   2.948 -0.7582 -0.7141  0.5117
  440SOL     MW 1760   1.613   3.031   2.999 -0.0147  0.5053 -0.0340
  441SOL     OW 1761   0.315   2.630   0.551 -0.1817 -0.3380  0.2634
  441SOL    HW1 1762   0.306   2.590   0.467 -3.6699  0.0423  3.0882
  441SOL    HW2 1763   0.330   2.725   0.528 -1.9736  1.3658  0.7229
  441SOL     MW 1764   0.316   2.637   0.537 -0.8784 -0.0630  0.6967
  442SOL     OW 1765   3.099   2.349   0.651 -0.0896 -0.8045  0.6001
  442SOL    HW1 1766   3.086   2.445   0.656 -0.6253  1.8146  1.3413
  442SOL    HW2 1767   3.015   2.317   0.688  0.2912 -0.9769  0.2805
  442SOL     MW 1768   3.086   2.357   0.656 -0.1101 -0.4817  0.6558
  443SOL     OW 1769   1.408   1.737   1.899 -0.1661  0.4658 -0.7910
  443SOL    HW1 1770   1.379   1.768   1.817 -0.8349 -2.3167  0.2096
  443SOL    HW2 1771   1.353   1.658   1.918  0.6095  2.8890 -4.0943
  443SOL     MW 1772   1.397   1.731   1.891 -0.1520  0.4184 -1.0948
  444SOL     OW 1773   0.863   2.603   1.581 -0.2555  0.0107  0.6374
  444SOL    HW1 1774   0.940   2.567   1.636  2.8948 -1.9228  0.8369
  444SOL    HW2 1775   0.786   2.613   1.647  1.0892 -1.4365 -0.9962
  444SOL     MW 1776   0.863   2.600   1.597  0.3376 -0.4354  0.4482
  445SOL     OW 1777   0.972   0.097   1.281 -0.1430  0.2412  0.7819
  445SOL    HW1 1778   0.912   0.162   1.245 -0.0534  0.9728  1.6954
  445SOL    HW2 1779   1.054   0.101   1.231  2.3792  1.2255 -0.0609
  445SOL     MW 1780   0.975   0.106   1.270  0.2016  0.4676  0.7913
  446SOL     OW 1781   2.719   2.877   1.038 -0.0317  0.3064 -0.0466
  446SOL    HW1 1782   2.650   2.887   0.973  1.7060  0.5919  0.6310
  446SOL    HW2 1783   2.761   2.790   1.021 -0.2271  2.5342  1.1685
  446SOL     MW 1784   2.715   2.867   1.027  0.1718  0.6380  0.2031
  447SOL     OW 1785   3.020   2.028   1.688 -0.3181 -0.1712 -0.1948
  447SOL    HW1 1786   3.091   1.982   1.740 -1.5222  0.2374  2.1838
  447SOL    HW2 1787   2.981   1.971   1.619 -0.5374 -2.0069 -2.4214
  447SOL     MW 1788   3.024   2.015   1.686 -0.5059 -0.3595 -0.1747
  448SOL     OW 1789   1.683   2.390   1.688  0.0234 -0.0710  0.2791
  448SOL    HW1 1790   1.608   2.333   1.685  1.7187 -2.7681  0.2101
  448SOL    HW2 1791   1.648   2.480   1.664 -1.5966 -2.5105  1.2590
  448SOL     MW 1792   1.668   2.395   1.685  0.0334 -0.7487  0.3993
  449SOL     OW 1793   0.844   2.882   0.411  0.0700 -0.5269  0.0161
  449SOL    HW1 1794   0.812   2.919   0.325  0.3900  3.3561  2.7164
  449SOL    HW2 1795   0.764   2.867   0.459  0.4374 -1.2292  1.9809
  449SOL     MW 1796   0.830   2.885   0.406  0.1607 -0.1073  0.6316
  450SOL     OW 1797   1.200   2.432   0.650  0.2983  0.0947  0.4304
  450SOL    HW1 1798   1.236   2.412   0.742  0.7384 -3.0248  2.1473
  450SOL    HW2 1799   1.284   2.423   0.602  2.0772  1.2393  3.1191
  450SOL     MW 1800   1.216   2.428   0.656  0.5910 -0.1659  1.0117
  451SOL     OW 1801   0.635   1.958   1.654 -0.0383  0.0456 -0.0149
  451SOL    HW1 1802   0.723   1.988   1.658  2.5263 -2.1811 -1.7786
  451SOL    HW2 1803   0.599   1.981   1.565 -1.3594  1.6932  0.1501
  451SOL     MW 1804   0.642   1.965   1.643  0.1258 -0.0308 -0.2259
  452SOL     OW 1805   0.306   2.681   0.026 -0.3948  0.2096  0.6688
  452SOL    HW1 1806   0.385   2.717   0.067  0.3945 -1.0351  0.9484
  452SOL    HW2 1807   0.308   2.709  -0.064 -2.3264  1.5330  0.1914
  452SOL     MW 1808   0.317   2.689   0.019 -0.5455  0.2200  0.6427
  453SOL     OW 1809   0.421   3.008   1.627 -0.0349  0.2729 -0.0851
  453SOL    HW1 1810   0.494   3.037   1.580 -2.2695 -2.5988 -0.3435
  453SOL    HW2 1811   0.352   3.011   1.559  1.7646  0.3312 -0.6717
  453SOL     MW 1812   0.421   3.012   1.612 -0.0923 -0.0983 -0.1966
  454SOL     OW 1813   1.104   2.739   1.188 -0.6725 -0.1875  0.5134
  454SOL    HW1 1814   1.060   2.664   1.142 -1.5420 -0.1262 -0.4027
  454SOL    HW2 1815   1.037   2.809   1.192 -0.8805 -0.3008 -1.7759
  454SOL     MW 1816   1.089   2.738   1.183 -0.8146 -0.1943  0.0905
  455SOL     OW 1817   1.641   2.935   0.150 -0.2014 -0.2537 -0.4408
  455SOL    HW1 1818   1.714   2.946   0.211 -3.1637  1.1183  0.3244
  455SOL    HW2 1819   1.578   2.885   0.203 -0.6786 -0.3862  0.2207
  455SOL     MW 1820   1.643   2.930   0.165 -0.6552 -0.0902 -0.2525
  456SOL     OW 1821   2.883   0.297   1.385  0.7622 -0.2377 -0.0371
  456SOL    HW1 1822   2.811   0.249   1.334 -1.7208  0.6758 -2.2605
  456SOL    HW2 1823   2.915   0.356   1.315 -3.6987  0.8940 -0.3890
  456SOL     MW 1824   2.878   0.298   1.369 -0.1540  0.0322 -0.3769
  457SOL     OW 1825   0.942   1.538   2.982  0.3447  0.1306  0.3463
  457SOL    HW1 1826   0.878   1.540   3.058 -2.0515  0.5345 -0.6901
  457SOL    HW2 1827   1.010   1.476   3.000 -1.4090  1.8106 -1.2499
  457SOL     MW 1828   0.943   1.530   2.994 -0.2029  0.4055 -0.0011
  458SOL     OW 1829   1.453   1.379   0.626 -0.4998  0.2924  0.2704
  458SOL    HW1 1830   1.399   1.415   0.698  2.3459  0.5493 -1.0712
  458SOL    HW2 1831   1.390   1.329   0.576  2.3550  3.1867 -1.8588
  458SOL     MW 1832   1.437   1.377   0.629  0.2524  0.7081 -0.1875
  459SOL     OW 1833   1.597   0.114   0.228 -0.8475  0.3298  0.4573
  459SOL    HW1 1834   1.571   0.026   0.215  0.3836  1.0257 -2.0270
  459SOL    HW2 1835   1.535   0.164   0.173  0.6557 -0.5471  1.1828
  459SOL     MW 1836   1.585   0.109   0.219 -0.4867  0.3059  0.2252
  460SOL     OW 1837   1.728   2.138   0.599  0.2628 -1.1578 -0.3601
  460SOL    HW1 1838   1.653   2.121   0.666  1.0467 -0.7410 -1.6782
  460SOL    HW2 1839   1.753   2.042   0.586  2.1545  1.3921  3.6767
  460SOL     MW 1840   1.722   2.123   0.606  0.6158 -0.7663 -0.0014
  461SOL     OW 1841   0.373   2.308   0.646  0.0444 -0.2308 -0.5653
  461SOL    HW1 1842   0.314   2.374   0.612  2.6433 -1.5931  0.7742
  461SOL    HW2 1843   0.384   2.346   0.737 -0.1181 -2.0165  1.3324
  461SOL     MW 1844   0.366   2.322   0.654  0.3658 -0.6462 -0.1382
  462SOL     OW 1845   0.393   0.271   1.352 -0.5408 -0.1794 -0.0648
  462SOL    HW1 1846   0.419   0.184   1.323 -0.8549  0.7470 -1.1777
  462SOL    HW2 1847   0.472   0.333   1.325  1.0361  3.4035 -0.9593
  462SOL     MW 1848   0.407   0.267   1.344 -0.3742  0.4156 -0.3296
  463SOL     OW 1849   0.928   3.101   0.682  0.0591  0.3112 -0.0424
  463SOL    HW1 1850   0.977   3.073   0.603 -0.5686  1.0897  1.9681
  463SOL    HW2 1851   0.839   3.104   0.653  1.8559 -1.9508 -0.0139
  463SOL     MW 1852   0.923   3.098   0.668  0.2134  0.1155  0.2266
  464SOL     OW 1853   0.858   2.987   2.174 -0.2438  0.0094 -0.2175
  464SOL    HW1 1854   0.814   2.904   2.157 -1.3208 -0.6235 -3.3795
  464SOL    HW2 1855   0.838   3.025   2.260 -0.9604  2.3216 -1.1069
  464SOL     MW 1856   0.850   2.981   2.183 -0.4805  0.2310 -0.7520
  465SOL     OW 1857   0.689   0.269   0.486 -0.2941 -0.1849 -0.2551
  465SOL    HW1 1858   0.672   0.178   0.517 -0.9661  1.8829  0.3727
  465SOL    HW2 1859   0.715   0.248   0.394 -0.7993 -2.5257  0.3682
  465SOL     MW 1860   0.690   0.255   0.478 -0.4494 -0.2209 -0.0901
  466SOL     OW 1861   1.105   1.995   0.713 -0.1286 -0.0460 -0.1320
  466SOL    HW1 1862   1.096   1.911   0.661  0.7986  0.4247  1.0136
  466SOL    HW2 1863   1.097   2.073   0.654  1.2783  0.7065  0.4732
  466SOL     MW 1864   1.102   1.994   0.698  0.1793  0.1154  0.0990
  467SOL     OW 1865   1.271   2.373   0.918  0.3840  0.2375 -0.2799
  467SOL    HW1 1866   1.361   2.389   0.941 -0.4933  3.7334 -2.0276
  467SOL    HW2 1867   1.262   2.276   0.943 -1.2057 -2.8800  2.1267
  467SOL     MW 1868   1.282   2.362   0.925  0.0585  0.2874 -0.1930
  468SOL     OW 1869   0.321   2.621   1.992  0.0693 -0.4535  0.1918
  468SOL    HW1 1870   0.346   2.534   1.964 -1.5158 -1.0449 -1.1729
  468SOL    HW2 1871   0.380   2.682   1.942 -0.8305  2.5297 -1.3199
  468SOL     MW 1872   0.332   2.617   1.981 -0.2585 -0.1379 -0.1878
  469SOL     OW 1873   0.408   2.070   1.773 -0.5040 -0.2471  0.1207
  469SOL    HW1 1874   0.348   2.066   1.694 -2.3115  1.1790  1.3780
  469SOL    HW2 1875   0.499   2.040   1.749 -0.0980 -1.9554  0.2253
  469SOL     MW 1876   0.412   2.065   1.759 -0.6889 -0.2844  0.3004
  470SOL     OW 1877   3.067   2.579   0.184 -0.1937 -1.0060 -0.3647
  470SOL    HW1 1878   2.988   2.548   0.232 -0.7333 -0.6304  0.2659
  470SOL    HW2 1879   3.049   2.589   0.091 -0.5695  0.3726 -0.7814
  470SOL     MW 1880   3.054   2.576   0.178 -0.3145 -0.7746 -0.3365
  471SOL     OW 1881   1.243   2.747   1.415  0.0314  0.5398 -0.5770
  471SOL    HW1 1882   1.169   2.769   1.469  0.7259  0.0819  0.7224
  471SOL    HW2 1883   1.210   2.753   1.329 -0.2892  1.0150  0.3614
  471SOL     MW 1884   1.229   2.750   1.410  0.0807  0.5421 -0.2817
  472SOL     OW 1885   2.955   2.102   0.391  0.2006 -0.2870 -0.5674
  472SOL    HW1 1886   2.974   2.061   0.310 -0.2096  3.2659  2.3126
  472SOL    HW2 1887   2.927   2.022   0.437 -1.0894  0.1123 -3.4908
  472SOL     MW 1888   2.954   2.086   0.386 -0.0237  0.2345 -0.5731
  473SOL     OW 1889   0.798   2.518   1.330 -0.1424 -0.2024 -0.1501
  473SOL    HW1 1890   0.851   2.441   1.318  0.4782  1.3945 -0.6382
  473SOL    HW2 1891   0.826   2.549   1.420 -0.0486 -0.3020  1.4122
  473SOL     MW 1892   0.809   2.512   1.340 -0.0481 -0.0049 -0.0084
  474SOL     OW 1893   0.819   2.146   1.729 -0.1082  0.7022 -0.1585
  474SOL    HW1 1894   0.911   2.108   1.737  1.4053 -0.8368 -0.1214
  474SOL    HW2 1895   0.812   2.173   1.641  1.6549 -0.2726 -1.5794
  474SOL     MW 1896   0.830   2.144   1.718  0.3241  0.3705 -0.3411
  475SOL     OW 1897   1.681   3.088   1.402  0.2899 -0.2251  0.5716
  475SOL    HW1 1898   1.607   3.076   1.341 -0.4825 -1.1957  3.5557
  475SOL    HW2 1899   1.659   3.016   1.463 -0.4895  1.4784  0.9279
  475SOL     MW 1900   1.668   3.077   1.402  0.0852 -0.1284  1.0123
  476SOL     OW 1901   1.469   2.612   0.803  0.0108  0.1349 -0.0260
  476SOL    HW1 1902   1.416   2.639   0.876  1.6858  0.8522 -2.9720
  476SOL    HW2 1903   1.479   2.701   0.765  1.1866 -1.2918 -0.6666
  476SOL     MW 1904   1.463   2.627   0.807  0.3869  0.0413 -0.4992
  477SOL     OW 1905   0.831   2.515   0.615  0.3180  0.2183 -0.2268
  477SOL    HW1 1906   0.893   2.566   0.555  2.9365  2.5713 -3.6282
  477SOL    HW2 1907   0.813   2.427   0.575 -0.7699 -1.9802  1.8561
  477SOL     MW 1908   0.837   2.510   0.602  0.5200  0.2387 -0.4008
  478SOL     OW 1909   0.191   2.638   1.003  0.5624 -0.5454  0.2439
  478SOL    HW1 1910   0.227   2.723   0.982 -0.7607  0.9722 -0.4511
  478SOL    HW2 1911   0.258   2.576   0.981 -0.0777  0.0070 -0.7496
  478SOL     MW 1912   0.205   2.641   0.997  0.3034 -0.2723  0.0211
  479SOL     OW 1913   1.437   1.913   1.326  0.0494 -0.0320  0.2603
  479SOL    HW1 1914   1.384   1.959   1.397  0.8916 -1.1349  0.7603
  479SOL    HW2 1915   1.511   1.878   1.378 -1.3526 -0.3291 -1.4446
  479SOL     MW 1916   1.440   1.915   1.343 -0.0245 -0.2167  0.1013
  480SOL     OW 1917   1.843   2.409   1.359 -0.0693 -0.3474 -0.0526
  480SOL    HW1 1918   1.880   2.344   1.422 -0.0358  1.4267 -2.7007
  480SOL    HW2 1919   1.881   2.384   1.275  2.4237 -2.4953  1.6095
  480SOL     MW 1920   1.853   2.397   1.356  0.2641 -0.3967 -0.1827
  481SOL     OW 1921   1.160   0.154   1.074  0.5936  0.0130 -0.4730
  481SOL    HW1 1922   1.237   0.133   1.019 -1.7457 -0.8114 -1.4054
  481SOL    HW2 1923   1.180   0.236   1.122  0.2685 -1.2278  1.1365
  481SOL     MW 1924   1.173   0.162   1.073  0.2421 -0.2595 -0.3837
  482SOL     OW 1925   1.055   3.042   0.429 -0.2730 -0.1328  0.0716
  482SOL    HW1 1926   0.974   2.994   0.406 -1.9870  1.2640  1.6572
  482SOL    HW2 1927   1.032   3.135   0.421 -1.4356 -1.1418  1.7940
  482SOL     MW 1928   1.041   3.048   0.425 -0.6525 -0.0816  0.5081
  483SOL     OW 1929   0.363   2.894   0.490 -0.4309 -0.4146 -0.1259
  483SOL    HW1 1930   0.312   2.947   0.422  2.3097 -2.3005  0.1435
  483SOL    HW2 1931   0.334   2.936   0.573 -0.6038 -3.4444  1.4764
  483SOL     MW 1932   0.352   2.907   0.492 -0.0921 -1.0632  0.1211
  484SOL     OW 1933   1.679   1.846   1.448  0.1171 -0.0066 -0.0201
  484SOL    HW1 1934   1.745   1.909   1.408  0.9533  0.4226  0.0015
  484SOL    HW2 1935   1.684   1.870   1.539 -0.1010  2.4170  0.0902
  484SOL     MW 1936   1.688   1.858   1.455  0.1987  0.3698 -0.0027
  485SOL     OW 1937   0.494   2.303   0.316  0.8352  0.2493 -0.0303
  485SOL    HW1 1938   0.543   2.336   0.391  3.4038  0.3214 -1.0828
  485SOL    HW2 1939   0.427   2.370   0.310 -2.3923  0.6975  2.2637
  485SOL     MW 1940   0.492   2.316   0.325  0.7483  0.3180  0.1335
  486SOL     OW 1941   0.099   2.507   1.486  0.1217  0.1240 -0.3860
  486SOL    HW1 1942   0.118   2.597   1.459 -3.1939  1.4116  2.7450
  486SOL    HW2 1943   0.115   2.495   1.584 -2.9855 -0.1968  3.3820
  486SOL     MW 1944   0.104   2.517   1.495 -0.7258  0.2515  0.5243
  487SOL     OW 1945   1.332   1.583   1.115  0.5240  0.0160 -0.1344
  487SOL    HW1 1946   1.312   1.675   1.134 -2.3753  0.0217  0.8220
  487SOL    HW2 1947   1.430   1.581   1.107 -1.2464  0.3197 -1.6277
  487SOL     MW 1948   1.342   1.595   1.116 -0.0921  0.0568 -0.2052
  488SOL     OW 1949   1.426   1.818   0.576  0.4554  0.3913  0.1659
  488SOL    HW1 1950   1.381   1.900   0.559 -1.0195 -1.2235 -1.6959
  488SOL    HW2 1951   1.362   1.747   0.553 -1.6308 -0.5931 -0.4662
  488SOL     MW 1952   1.411   1.819   0.571 -0.0145  0.0484 -0.1631
  489SOL     OW 1953   0.695   0.689   0.519 -0.0187  0.3175  0.3642
  489SOL    HW1 1954   0.626   0.627   0.490 -1.9018  1.7721  2.0602
  489SOL    HW2 1955   0.665   0.717   0.605 -2.0189  1.3616 -0.8407
  489SOL     MW 1956   0.682   0.685   0.527 -0.5311  0.6472  0.4290
  490SOL     OW 1957   1.325   2.063   0.502 -0.3568 -0.2595 -0.0646
  490SOL    HW1 1958   1.408   2.092   0.460  0.8977 -1.5354  0.6516
  490SOL    HW2 1959   1.262   2.114   0.452 -0.1109 -0.2666  1.3270
  490SOL     MW 1960   1.328   2.073   0.490 -0.1588 -0.4288  0.2135
  491SOL     OW 1961   1.336   3.012   0.416  0.3373  0.5856  0.1178
  491SOL    HW1 1962   1.355   3.045   0.504  0.1298 -0.9523  1.2708
  491SOL    HW2 1963   1.241   3.008   0.396  1.3727 -2.1521  3.7731
  491SOL     MW 1964   1.326   3.015   0.425  0.4465  0.0214  0.7522
  492SOL     OW 1965   1.484   2.131   0.711 -0.4707 -0.2589  0.6236
  492SOL    HW1 1966   1.419   2.108   0.645  1.1884 -0.3136  1.4378
  492SOL    HW2 1967   1.438   2.112   0.789 -0.2542  3.5428 -1.5731
  492SOL     MW 1968   1.469   2.125   0.712 -0.2232  0.2354  0.4412
  493SOL     OW 1969   0.209   3.057   0.326  0.6339  0.1997  0.0454
  493SOL    HW1 1970   0.134   3.107   0.351 -1.7641  0.1227 -0.6989
  493SOL    HW2 1971   0.182   3.013   0.244  1.0526  0.6674 -0.9883
  493SOL     MW 1972   0.196   3.058   0.319  0.3727  0.2513 -0.1892
  494SOL     OW 1973   0.391   2.336   1.811  0.4761  0.4361  0.1335
  494SOL    HW1 1974   0.394   2.237   1.792 -0.1314 -1.2353 -0.0190
  494SOL    HW2 1975   0.456   2.381   1.757 -0.3341 -0.7085  3.6157
  494SOL     MW 1976   0.400   2.329   1.802  0.2891  0.0645  0.5728
  495SOL     OW 1977   2.795   1.592   2.670  0.6094 -0.0613  0.5308
  495SOL    HW1 1978   2.806   1.664   2.731 -1.5515 -1.2837  1.5236
  495SOL    HW2 1979   2.757   1.523   2.724 -1.2049 -2.2273 -0.7192
  495SOL     MW 1980   2.792   1.593   2.685  0.0849 -0.5084  0.4968
  496SOL     OW 1981   2.838   2.279   2.717  0.3334 -0.1306 -0.2000
  496SOL    HW1 1982   2.832   2.192   2.758 -0.5863  0.6225 -4.4446
  496SOL    HW2 1983   2.921   2.322   2.738 -1.9298 -0.9072  0.5249
  496SOL     MW 1984   2.848   2.273   2.725 -0.0866 -0.1337 -0.6644
  497SOL     OW 1985   1.504   2.416   2.573  0.5374  0.4513  0.4562
  497SOL    HW1 1986   1.506   2.350   2.504  3.5021  4.2159 -0.2353
  497SOL    HW2 1987   1.445   2.370   2.638 -0.4930  0.1975  0.8832
  497SOL     MW 1988   1.496   2.401   2.572  0.7926  0.9146  0.4213
  498SOL     OW 1989   1.459   2.742   2.331 -0.3263  0.0801  0.1183
  498SOL    HW1 1990   1.411   2.661   2.353 -2.1020 -0.5094 -0.9208
  498SOL    HW2 1991   1.541   2.747   2.383 -1.0556 -0.3049  2.8214
  498SOL     MW 1992   1.463   2.732   2.340 -0.6568 -0.0485  0.3378
  499SOL     OW 1993   0.986   0.065   0.096 -0.0067  0.0313 -0.2894
  499SOL    HW1 1994   0.899   0.086   0.119  1.2989 -2.3624  2.8010
  499SOL    HW2 1995   0.980  -0.026   0.084  1.6697  1.1849  0.6238
  499SOL     MW 1996   0.974   0.056   0.098  0.3867 -0.1323  0.2389
  500SOL     OW 1997   1.036   2.529   2.713  0.3724 -0.0778  0.0747
  500SOL    HW1 1998   1.097   2.524   2.782 -1.7310 -1.0881 -0.9005
  500SOL    HW2 1999   0.983   2.605   2.737  0.2407 -1.4119 -0.6596
  500SOL     MW 2000   1.037   2.538   2.725  0.0775 -0.3871 -0.1508
  501SOL     OW 2001   1.831   2.296   2.944  0.5029 -0.0874  0.5558
  501SOL    HW1 2002   1.840   2.381   2.986 -1.7792  0.7175  0.4820
  501SOL    HW2 2003   1.917   2.265   2.927  0.0396  0.6492 -0.2390
  501SOL     MW 2004   1.843   2.303   2.947  0.1407  0.1160  0.4412
  502SOL     OW 2005   0.321   2.768   2.849  0.1820  0.0533 -0.3669
  502SOL    HW1 2006   0.381   2.786   2.780 -0.8136 -1.7034 -0.9145
  502SOL    HW2 2007   0.281   2.856   2.867  2.1861 -0.8230 -1.7843
  502SOL     MW 2008   0.324   2.782   2.842  0.3150 -0.2941 -0.6262
  503SOL     OW 2009   1.125   2.507   2.066  0.2233  0.1905 -0.6463
  503SOL    HW1 2010   1.164   2.575   2.012  1.4437 -0.4755  3.1373
  503SOL    HW2 2011   1.039   2.464   2.033  0.8068 -0.8904 -0.2632
  503SOL     MW 2012   1.119   2.510   2.054  0.4613 -0.0400 -0.0966
  504SOL     OW 2013   0.053   2.653   2.209 -0.0420  0.1468 -0.1616
  504SOL    HW1 2014   0.094   2.618   2.129  3.9916  0.7760  1.6894
  504SOL    HW2 2015   0.035   2.576   2.255 -1.5650  4.1401 -1.3028
  504SOL     MW 2016   0.056   2.639   2.204  0.2892  0.7567 -0.0679
  505SOL     OW 2017   1.575   2.817   2.731  0.1560  0.1614  0.7621
  505SOL    HW1 2018   1.611   2.820   2.635 -0.6207 -0.0823 -1.9939
  505SOL    HW2 2019   1.512   2.894   2.741  0.2597  0.9098  1.2096
  505SOL     MW 2020   1.571   2.828   2.720  0.0672  0.2280  0.4575
  506SOL     OW 2021   1.613   0.124   2.745  0.3636 -0.4382  0.0280
  506SOL    HW1 2022   1.571   0.068   2.817  0.0783 -1.5990 -1.1468
  506SOL    HW2 2023   1.675   0.072   2.703 -0.6297  1.7286  2.5914
  506SOL     MW 2024   1.615   0.110   2.749  0.1949 -0.3055  0.2112
  507SOL     OW 2025   0.840   2.674   2.831  0.5487  0.3595 -0.2838
  507SOL    HW1 2026   0.840   2.750   2.775 -0.7745  1.2174  0.8623
  507SOL    HW2 2027   0.751   2.641   2.821  1.0824  0.2816  0.1717
  507SOL     MW 2028   0.828   2.680   2.823  0.4445  0.4624 -0.0725
  508SOL     OW 2029   1.218   2.132   2.508  0.3385 -0.5355 -0.4184
  508SOL    HW1 2030   1.262   2.183   2.582  0.7425  0.2636  2.2396
  508SOL    HW2 2031   1.174   2.059   2.554 -0.8218 -1.6701 -0.3328
  508SOL     MW 2032   1.218   2.129   2.524  0.2387 -0.5798 -0.0564
  509SOL     OW 2033   0.591   2.551   2.849  0.2628 -0.3373 -0.1480
  509SOL    HW1 2034   0.590   2.467   2.791 -1.0703 -1.9619 -0.5808
  509SOL    HW2 2035   0.500   2.579   2.857 -1.1944  3.3476  0.4077
  509SOL     MW 2036   0.579   2.544   2.842 -0.1053 -0.0654 -0.1318
  510SOL     OW 2037   1.523   2.602   1.638 -0.3095 -0.3869 -0.2880
  510SOL    HW1 2038   1.542   2.688   1.602 -0.0563 -1.1559  1.0142
  510SOL    HW2 2039   1.476   2.621   1.719 -0.4244 -2.1497  0.6141
  510SOL     MW 2040   1.519   2.616   1.644 -0.2913 -0.7209  0.0029
  511SOL     OW 2041   0.366   2.541   2.506 -0.8302 -0.6207 -0.2530
  511SOL    HW1 2042   0.443   2.491   2.537  1.5444 -0.0433  2.4597
  511SOL    HW2 2043   0.383   2.565   2.413 -0.1998 -1.5827 -1.1917
  511SOL     MW 2044   0.378   2.538   2.498 -0.4337 -0.6715 -0.0189
  512SOL     OW 2045   0.965   1.964   2.832  0.4752  0.2101  0.3288
  512SOL    HW1 2046   0.885   1.998   2.871 -1.9466  0.6551  0.5218
  512SOL    HW2 2047   1.007   1.894   2.883  0.0267  0.5962 -0.9832
  512SOL     MW 2048   0.960   1.959   2.844  0.0965  0.3198  0.1812
  513SOL     OW 2049   1.501   2.453   2.273 -0.1992  0.9961 -0.1016
  513SOL    HW1 2050   1.593   2.483   2.275 -0.5607  2.2126  0.8033
  513SOL    HW2 2051   1.501   2.368   2.316  1.9190 -0.0825  0.1597
  513SOL     MW 2052   1.513   2.446   2.279  0.0326  1.0143  0.0523
  514SOL     OW 2053   0.242   2.374   2.696  0.6912 -0.1775  0.0828
  514SOL    HW1 2054   0.296   2.413   2.628 -0.2247 -1.5112 -0.6464
  514SOL    HW2 2055   0.296   2.327   2.760 -0.0489 -1.2832 -3.3314
  514SOL     MW 2056   0.256   2.373   2.695  0.4727 -0.4994 -0.4639
  515SOL     OW 2057   1.075   2.008   1.871 -0.0050  0.1793 -0.2873
  515SOL    HW1 2058   1.091   2.101   1.878 -0.3374 -3.0714 -0.9769
  515SOL    HW2 2059   1.148   1.964   1.911  1.7161 -2.1075 -0.9423
  515SOL     MW 2060   1.087   2.014   1.878  0.1783 -0.5513 -0.4647
  516SOL     OW 2061   1.304   2.631   2.907 -0.2551  0.2406  0.6306
  516SOL    HW1 2062   1.339   2.652   2.818 -1.3832  0.2297 -0.4921
  516SOL    HW2 2063   1.268   2.537   2.907 -1.0797  2.9443  0.5625
  516SOL     MW 2064   1.304   2.622   2.895 -0.5128  0.5959  0.4735
  517SOL     OW 2065   0.488   2.264   2.298  0.6469 -0.0384 -0.9211
  517SOL    HW1 2066   0.477   2.359   2.294 -1.6520 -2.4652  0.0272
  517SOL    HW2 2067   0.443   2.235   2.213  2.1224  0.6666 -1.1604
  517SOL     MW 2068   0.481   2.273   2.286  0.5383 -0.2656 -0.8276
  518SOL     OW 2069   1.725   0.194   3.045  0.3991 -0.2812 -0.1654
  518SOL    HW1 2070   1.771   0.175   3.123 -1.0195 -1.0109 -1.3947
  518SOL    HW2 2071   1.673   0.114   3.048  0.8599 -0.8034  2.5471
  518SOL     MW 2072   1.724   0.181   3.055  0.2727 -0.4463  0.0303
  519SOL     OW 2073   0.605   2.355   1.979 -0.4496 -0.4727 -0.3765
  519SOL    HW1 2074   0.648   2.266   1.982  2.0282 -1.1483  0.5282
  519SOL    HW2 2075   0.528   2.343   1.923  1.8222  1.4548 -0.4002
  519SOL     MW 2076   0.600   2.341   1.972  0.1771 -0.3075 -0.2602
  520SOL     OW 2077   1.173   2.133   2.884 -0.0768  0.3137 -0.2009
  520SOL    HW1 2078   1.103   2.070   2.869  1.0059  0.9285  2.5898
  520SOL    HW2 2079   1.222   2.104   2.959  0.5363  1.8264 -0.1774
  520SOL     MW 2080   1.170   2.121   2.892  0.1469  0.5944  0.1704
  521SOL     OW 2081   1.738   2.055   2.192  0.6636 -0.2466 -0.1991
  521SOL    HW1 2082   1.747   2.065   2.095  1.8705  0.6736  0.3319
  521SOL    HW2 2083   1.748   1.953   2.202  0.2025 -0.5118 -0.1529
  521SOL     MW 2084   1.741   2.043   2.181  0.7620 -0.1602 -0.1229
  522SOL     OW 2085   2.829   2.568   2.173 -0.2735 -0.1138  0.4236
  522SOL    HW1 2086   2.909   2.538   2.210  0.8213  1.6673 -0.1044
  522SOL    HW2 2087   2.861   2.656   2.144  1.9359  3.8792  1.9087
  522SOL     MW 2088   2.844   2.576   2.174  0.1625  0.6480  0.5499
  523SOL     OW 2089   0.805   1.458   2.162 -0.4784 -0.4245 -0.0592
  523SOL    HW1 2090   0.779   1.508   2.079  0.4880  0.7000 -0.1353
  523SOL    HW2 2091   0.879   1.414   2.124  2.3880  1.5662  1.0067
  523SOL     MW 2092   0.811   1.459   2.146  0.0273 -0.0135  0.0714
  524SOL     OW 2093   0.555   2.360   3.065  0.1497  0.2081  0.5562
  524SOL    HW1 2094   0.589   2.439   3.012  0.0163  0.0387 -0.1510
  524SOL    HW2 2095   0.632   2.300   3.086 -1.6310  2.7435  0.1181
  524SOL     MW 2096   0.570   2.362   3.061 -0.1029  0.5203  0.4051
  525SOL     OW 2097   0.300   2.165   2.109 -0.0850 -0.1402  0.2776
  525SOL    HW1 2098   0.266   2.108   2.187  1.2681  1.2233 -0.7504
  525SOL    HW2 2099   0.338   2.104   2.047  1.1616  0.9279  0.9502
  525SOL     MW 2100   0.300   2.149   2.111  0.2580  0.1806  0.2307
  526SOL     OW 2101   0.706   2.088   1.961  0.5432  0.9282  0.5646
  526SOL    HW1 2102   0.751   2.087   1.879  1.1092  0.7401 -2.9258
  526SOL    HW2 2103   0.773   2.108   2.036  0.6267 -0.8844 -1.2306
  526SOL     MW 2104   0.720   2.091   1.960  0.6289  0.6642 -0.1328
  527SOL     OW 2105   1.283   1.911   2.058  0.0607  0.0632 -0.2910
  527SOL    HW1 2106   1.262   1.873   2.145 -2.1170 -0.7678  0.4858
  527SOL    HW2 2107   1.324   1.847   2.000 -1.4537 -0.7669 -1.5489
  527SOL     MW 2108   1.286   1.898   2.061 -0.4264 -0.1560 -0.3545
  528SOL     OW 2109   0.582   2.896   2.972 -0.1645 -0.3037  0.4613
  528SOL    HW1 2110   0.608   2.984   2.957  0.9410 -0.6361  0.1300
  528SOL    HW2 2111   0.559   2.854   2.892 -1.9976 -1.9397  3.4143
  528SOL     MW 2112   0.583   2.902   2.959 -0.2605 -0.5634  0.8072
  529SOL     OW 2113   1.110   2.281   1.801 -0.1999 -0.2219  0.1996
  529SOL    HW1 2114   1.176   2.271   1.873  2.8079 -0.9608 -1.1782
  529SOL    HW2 2115   1.161   2.289   1.718  0.0222  0.5128 -0.6316
  529SOL     MW 2116   1.125   2.281   1.800  0.2263 -0.2224 -0.0919
  530SOL     OW 2117   1.164   2.415   2.950 -0.3895 -0.9361  0.2197
  530SOL    HW1 2118   1.084   2.439   3.001 -2.5602 -1.7053 -0.2659
  530SOL    HW2 2119   1.153   2.322   2.937 -0.8933  1.8843  0.9701
  530SOL     MW 2120   1.152   2.406   2.955 -0.7424 -0.6654  0.2547
  531SOL     OW 2121   0.884   1.802   2.615 -0.2824 -0.3764 -0.0693
  531SOL    HW1 2122   0.900   1.865   2.679  3.2321 -1.7531  0.1727
  531SOL    HW2 2123   0.858   1.717   2.649 -0.7142 -0.7839 -0.7884
  531SOL     MW 2124   0.883   1.799   2.628  0.1243 -0.6118 -0.1322
  532SOL     OW 2125   1.749   0.357   2.813  0.1356 -0.1019  0.0575
  532SOL    HW1 2126   1.700   0.281   2.776  0.1350 -1.3077 -0.9132
  532SOL    HW2 2127   1.772   0.321   2.902  0.3161 -2.6850 -0.3868
  532SOL     MW 2128   1.746   0.342   2.820  0.1594 -0.6018 -0.1292
  533SOL     OW 2129   1.777   2.819   2.918 -0.2939 -0.0288  0.3564
  533SOL    HW1 2130   1.746   2.736   2.963 -1.0356 -1.7725 -0.2631
  533SOL    HW2 2131   1.717   2.830   2.843  1.5156 -2.4329 -1.2456
  533SOL     MW 2132   1.765   2.810   2.914 -0.1530 -0.5761  0.0633
  534SOL     OW 2133   1.744   2.517   2.502 -0.6749 -0.4975 -0.0422
  534SOL    HW1 2134   1.662   2.479   2.537  3.6036 -0.9335 -2.6729
  534SOL    HW2 2135   1.809   2.495   2.564 -3.5704 -1.3522 -1.1836
  534SOL     MW 2136   1.742   2.509   2.515 -0.4924 -0.6678 -0.5399
  535SOL     OW 2137   1.790   2.386   1.928 -0.5353  0.0298 -0.6439
  535SOL    HW1 2138   1.745   2.392   1.847  0.3707 -1.5773  0.2180
  535SOL    HW2 2139   1.884   2.397   1.915  0.1536  0.6977  1.5154
  535SOL     MW 2140   1.796   2.388   1.915 -0.3249 -0.0941 -0.2453
  536SOL     OW 2141   0.413   1.885   1.995  0.6597 -0.4852  0.5045
  536SOL    HW1 2142   0.401   1.923   1.903 -1.7626  0.7135  0.3239
  536SOL    HW2 2143   0.507   1.878   2.005  1.3920 -0.2483  1.0624
  536SOL     MW 2144   0.424   1.889   1.984  0.4367 -0.2958  0.5543
  537SOL     OW 2145   1.027   0.192   2.946 -0.3762  0.3730 -0.4403
  537SOL    HW1 2146   0.976   0.157   3.019  1.0140 -0.2836  0.3128
  537SOL    HW2 2147   1.012   0.286   2.941  1.3142 -1.8332 -0.0171
  537SOL     MW 2148   1.018   0.200   2.955  0.0302 -0.0047 -0.2851
  538SOL     OW 2149   1.253   0.077   2.988 -0.0653 -0.3760  0.3317
  538SOL    HW1 2150   1.177   0.134   2.980 -0.5583  0.2264  0.2527
  538SOL    HW2 2151   1.276   0.086   3.087  1.0809  1.7727  2.0632
  538SOL     MW 2152   1.246   0.086   3.000  0.0209 -0.0130  0.5497
  539SOL     OW 2153   0.703   2.724   2.482  1.0752 -0.7568  0.4688
  539SOL    HW1 2154   0.769   2.774   2.529  1.3443 -0.1594 -0.7284
  539SOL    HW2 2155   0.753   2.641   2.479  0.1859 -0.4996 -0.1013
  539SOL     MW 2156   0.718   2.720   2.488  0.9934 -0.6440  0.2356
  540SOL     OW 2157   0.401   2.232   2.872 -0.0660 -0.4139 -0.4097
  540SOL    HW1 2158   0.437   2.284   2.953  1.4735 -0.8811  1.9802
  540SOL    HW2 2159   0.347   2.169   2.915  1.3233 -0.5128  0.4436
  540SOL     MW 2160   0.399   2.230   2.888  0.3204 -0.4886  0.0182
  541SOL     OW 2161   0.196   2.908   2.267  0.2635  0.1821  0.5609
  541SOL    HW1 2162   0.144   2.830   2.244 -1.4977  1.3521  0.7655
  541SOL    HW2 2163   0.242   2.888   2.351  0.6047 -1.4248 -1.1918
  541SOL     MW 2164   0.195   2.895   2.275  0.0761  0.1244  0.3566
  542SOL     OW 2165   0.843   2.351   2.745  0.1950 -0.2403 -0.2858
  542SOL    HW1 2166   0.842   2.290   2.822 -2.2427  3.6216 -0.7247
  542SOL    HW2 2167   0.916   2.409   2.755 -1.3751  0.1687 -1.0237
  542SOL     MW 2168   0.853   2.351   2.757 -0.3338  0.3232 -0.4410
  543SOL     OW 2169   1.365   2.667   2.633  0.0671 -0.8524 -0.7075
  543SOL    HW1 2170   1.386   2.578   2.604 -0.1990 -1.9841 -2.2237
  543SOL    HW2 2171   1.444   2.710   2.668 -0.5691  0.0069 -3.0269
  543SOL     MW 2172   1.378   2.661   2.633 -0.0519 -0.8883 -1.2136
  544SOL     OW 2173   0.701   0.117   2.674 -0.1773 -0.0757 -0.4765
  544SOL    HW1 2174   0.617   0.114   2.632  2.1096  0.5454 -1.4217
  544SOL    HW2 2175   0.767   0.122   2.599  2.2577 -2.6582 -3.2026
  544SOL     MW 2176   0.698   0.117   2.658  0.4457 -0.3345 -0.9609
  545SOL     OW 2177   1.537   2.186   2.393  0.1332  0.3448 -0.3263
  545SOL    HW1 2178   1.503   2.100   2.425 -0.1402 -1.1312  1.0119
  545SOL    HW2 2179   1.627   2.163   2.356  3.9069  0.2250 -2.5508
  545SOL     MW 2180   1.544   2.171   2.392  0.5950  0.1342 -0.4432
  546SOL     OW 2181   3.013   1.992   0.144  0.2462  0.5472  0.1928
  546SOL    HW1 2182   2.971   2.052   0.076 -0.1872  1.6654  0.3895
  546SOL    HW2 2183   3.076   1.938   0.095  1.5900  0.0763 -2.1038
  546SOL     MW 2184   3.016   1.993   0.129  0.3663  0.6326 -0.0842
  547SOL     OW 2185   0.156   2.905   0.107 -0.5150  0.6073  0.3427
  547SOL    HW1 2186   0.163   2.944   0.019 -0.6983 -0.7071 -0.0764
  547SOL    HW2 2187   0.212   2.823   0.097 -0.2492  0.9506 -1.7194
  547SOL     MW 2188   0.164   2.899   0.094 -0.5041  0.4792  0.0153
  548SOL     OW 2189   0.263   2.533   0.281  0.0475 -0.4343  0.2794
  548SOL    HW1 2190   0.290   2.581   0.199  0.8160 -0.2444 -1.4285
  548SOL    HW2 2191   0.167   2.537   0.274 -2.1144 -0.7417  0.0473
  548SOL     MW 2192   0.254   2.540   0.269 -0.1363 -0.4498  0.0234
  549SOL     OW 2193   0.700   1.836   2.068 -0.4224 -0.6121 -0.4514
  549SOL    HW1 2194   0.716   1.935   2.034  0.2595  2.2319  3.2453
  549SOL    HW2 2195   0.708   1.856   2.165 -1.2545  2.1841  0.4125
  549SOL     MW 2196   0.703   1.852   2.076 -0.4422  0.1321  0.1503
  550SOL     OW 2197   1.788   1.755   2.494  0.3222 -1.1978  0.5066
  550SOL    HW1 2198   1.734   1.747   2.410  0.1336  0.0566 -2.9058
  550SOL    HW2 2199   1.789   1.854   2.511  1.2036  2.9670 -1.0822
  550SOL     MW 2200   1.781   1.767   2.485  0.4136 -0.4828 -0.1533
  551SOL     OW 2201   0.849   2.345   0.212  0.0687 -0.6896  0.1858
  551SOL    HW1 2202   0.937   2.382   0.197  1.7051  0.7198 -0.4586
  551SOL    HW2 2203   0.840   2.279   0.140  2.9904 -1.3375 -2.0933
  551SOL     MW 2204   0.860   2.341   0.201  0.6701 -0.5891 -0.1999
  552SOL     OW 2205   1.681   1.745   2.246  0.3410 -0.6270  0.1990
  552SOL    HW1 2206   1.591   1.709   2.253 -0.6237 -2.2732  1.2102
  552SOL    HW2 2207   1.721   1.708   2.162  1.6533 -2.4289 -2.2026
  552SOL     MW 2208   1.674   1.735   2.236  0.3869 -1.0819  0.0155
  553SOL     OW 2209   1.189   2.295   1.532 -0.1118 -0.1355 -0.1087
  553SOL    HW1 2210   1.220   2.215   1.488 -1.4274 -0.8127 -0.1923
  553SOL    HW2 2211   1.256   2.360   1.516 -1.2764 -0.5217  1.5771
  553SOL     MW 2212   1.202   2.293   1.524 -0.4390 -0.2758  0.1027
  554SOL     OW 2213   0.541   2.832   2.714 -0.3530 -0.5367  0.4301
  554SOL    HW1 2214   0.517   2.908   2.657 -0.0909 -0.2447  2.9776
  554SOL    HW2 2215   0.568   2.761   2.649 -0.2388 -0.9802  0.7501
  554SOL     MW 2216   0.541   2.832   2.698 -0.3034 -0.5567  0.8084
  555SOL     OW 2217   0.574   2.395   2.609 -0.2000  0.1974 -0.3044
  555SOL    HW1 2218   0.587   2.300   2.622  0.9626  1.4717 -3.4809
  555SOL    HW2 2219   0.657   2.426   2.577  1.5733 -3.3582 -1.8009
  555SOL     MW 2220   0.587   2.387   2.606  0.1874 -0.1036 -0.9210
  556SOL     OW 2221   1.056   1.845   0.128  0.2112  0.0885  0.1241
  556SOL    HW1 2222   1.067   1.818   0.035  0.1733  0.1014  0.0636
  556SOL    HW2 2223   1.145   1.848   0.167 -0.7939  1.7472 -0.6018
  556SOL     MW 2224   1.069   1.842   0.121  0.0736  0.3090  0.0203
  557SOL     OW 2225   1.035   2.680   0.433  0.2159  0.9284  0.2865
  557SOL    HW1 2226   1.092   2.669   0.360  0.4087  0.6270 -2.1302
  557SOL    HW2 2227   0.975   2.756   0.421 -1.1252 -0.1634  1.7699
  557SOL     MW 2228   1.035   2.688   0.422  0.0644  0.7446  0.1633
  558SOL     OW 2229   0.251   2.090   3.074  0.2215 -0.0244  0.1583
  558SOL    HW1 2230   0.208   2.006   3.084  0.2684  3.2132 -1.5371
  558SOL    HW2 2231   0.201   2.156   3.118 -0.3706  2.0134  0.8590
  558SOL     MW 2232   0.239   2.088   3.081  0.1496  0.6716  0.0271
  559SOL     OW 2233   1.252   2.241   2.039 -0.3807  0.5002  0.1372
  559SOL    HW1 2234   1.247   2.339   2.056  0.9227  0.0395  2.2351
  559SOL    HW2 2235   1.208   2.203   2.115  1.3205 -0.4100  2.7595
  559SOL     MW 2236   1.245   2.249   2.051  0.0157  0.3193  0.7600
  560SOL     OW 2237   1.946   2.975   0.044  0.5144  0.1015  0.3723
  560SOL    HW1 2238   2.019   2.990  -0.010 -1.1270 -0.5516 -0.9309
  560SOL    HW2 2239   1.888   2.937  -0.016 -0.8499 -0.3068  2.5105
  560SOL     MW 2240   1.948   2.972   0.029  0.1178 -0.0385  0.4825
  561SOL     OW 2241   0.469   2.075   0.161  0.3266 -0.0258 -0.3491
  561SOL    HW1 2242   0.393   2.088   0.100 -5.6892  2.5492 -0.1331
  561SOL    HW2 2243   0.477   2.160   0.208  0.9899 -4.3181 -0.5572
  561SOL     MW 2244   0.460   2.088   0.159 -0.3796 -0.2524 -0.3481
  562SOL     OW 2245   0.851   2.135   2.194  0.2093  0.1839  0.9006
  562SOL    HW1 2246   0.803   2.214   2.230  0.9071  2.8718  0.5665
  562SOL    HW2 2247   0.944   2.133   2.229 -0.4498 -1.1329 -3.7402
  562SOL     MW 2248   0.857   2.145   2.203  0.2144  0.3648  0.2442
  563SOL     OW 2249   1.272   0.286   0.480 -0.2257  0.0991 -0.0176
  563SOL    HW1 2250   1.189   0.256   0.443  2.0698 -2.0860  3.7265
  563SOL    HW2 2251   1.297   0.216   0.545 -1.6391 -0.7835 -1.5769
  563SOL     MW 2252   1.265   0.273   0.484 -0.1093 -0.3056  0.2706
  564SOL     OW 2253   1.000   2.568   2.320  0.0029  0.5986  0.2869
  564SOL    HW1 2254   1.023   2.549   2.226 -3.6221  1.3703 -0.4363
  564SOL    HW2 2255   1.072   2.617   2.363  0.8224 -1.5708  2.9302
  564SOL     MW 2256   1.013   2.572   2.314 -0.3673  0.4142  0.5402
  565SOL     OW 2257   2.916   2.677   2.716  0.1661 -0.2344  0.1401
  565SOL    HW1 2258   2.972   2.742   2.676  0.2621 -2.2553 -0.7050
  565SOL    HW2 2259   2.854   2.654   2.639 -0.6216 -0.6643 -0.0695
  565SOL     MW 2260   2.915   2.682   2.701  0.0748 -0.5578  0.0009
  566SOL     OW 2261   2.175   2.034   2.369  0.4048 -0.1266 -0.0270
  566SOL    HW1 2262   2.200   2.037   2.278 -0.1960 -1.3264 -0.9630
  566SOL    HW2 2263   2.252   2.078   2.408  1.5217  0.2947 -0.6655
  566SOL     MW 2264   2.189   2.040   2.362  0.4729 -0.2293 -0.2347
  567SOL     OW 2265   1.162   2.883   0.110  0.4768  0.5893 -0.4616
  567SOL    HW1 2266   1.231   2.932   0.147 -0.3474 -0.3752  0.2756
  567SOL    HW2 2267   1.178   2.875   0.016  1.1830 -0.9189 -1.4424
  567SOL     MW 2268   1.173   2.889   0.103  0.4612  0.2631 -0.4938
  568SOL     OW 2269   1.635   2.117   2.798 -0.2363 -0.0345  0.0171
  568SOL    HW1 2270   1.699   2.162   2.852 -1.2553 -2.3186  0.1110
  568SOL    HW2 2271   1.689   2.083   2.720  0.9135  1.5326  0.1634
  568SOL     MW 2272   1.650   2.119   2.794 -0.2190 -0.1291  0.0488
  569SOL     OW 2273   0.046   2.219   2.484  0.7377 -0.5555 -0.5519
  569SOL    HW1 2274   0.008   2.285   2.422  1.0527  2.9571 -1.6378
  569SOL    HW2 2275   0.109   2.272   2.539  0.5286  0.7346  3.5727
  569SOL     MW 2276   0.050   2.235   2.483  0.7517  0.0782 -0.1509
  570SOL     OW 2277   1.539   0.360   0.455 -0.6049 -0.3563 -0.0658
  570SOL    HW1 2278   1.448   0.327   0.460 -0.3945  0.9251 -0.2781
  570SOL    HW2 2279   1.564   0.389   0.540  0.7356  0.2952  0.0683
  570SOL     MW 2280   1.530   0.359   0.467 -0.4003 -0.1013 -0.0761
  571SOL     OW 2281   1.444   2.460   2.009  0.1015  0.0435  0.3568
  571SOL    HW1 2282   1.445   2.468   2.101 -1.9321 -1.9383 -1.5792
  571SOL    HW2 2283   1.439   2.366   2.005  1.6834  1.7653  2.1434
  571SOL     MW 2284   1.443   2.449   2.020  0.0419  0.0092  0.3371
  572SOL     OW 2285   0.909   2.525   3.067  0.2446  0.0748  0.2280
  572SOL    HW1 2286   0.858   2.562   3.000  3.2531 -0.9433 -0.5391
  572SOL    HW2 2287   0.846   2.527   3.140 -1.2445  1.4697 -0.6558
  572SOL     MW 2288   0.894   2.530   3.067  0.4450  0.1245  0.0102
  573SOL     OW 2289   1.117   2.423   0.187 -0.4482  0.0369 -0.4115
  573SOL    HW1 2290   1.189   2.375   0.150 -3.1403 -0.4545  2.2422
  573SOL    HW2 2291   1.145   2.516   0.178  1.5716 -0.2607 -2.4662
  573SOL     MW 2292   1.130   2.429   0.181 -0.5369 -0.0672 -0.3325
  574SOL     OW 2293   1.254   2.667   0.239 -0.0746 -0.0034 -0.3567
  574SOL    HW1 2294   1.327   2.714   0.277 -0.1593 -0.1009 -0.8175
  574SOL    HW2 2295   1.208   2.736   0.190 -0.5486 -4.9947 -0.2465
  574SOL     MW 2296   1.258   2.683   0.238 -0.1483 -0.6748 -0.4030
  575SOL     OW 2297   3.069   2.279   1.822  0.4278  0.9122  0.0464
  575SOL    HW1 2298   3.047   2.208   1.758 -1.2462 -3.5534  0.3792
  575SOL    HW2 2299   3.141   2.343   1.788 -1.3371  2.3936 -2.0237
  575SOL     MW 2300   3.075   2.278   1.809 -0.0259  0.5185 -0.1828
  576SOL     OW 2301   2.828   1.821   2.074 -0.0095  0.2738 -0.0095
  576SOL    HW1 2302   2.828   1.889   2.007 -1.3028 -1.0455  0.4055
  576SOL    HW2 2303   2.761   1.758   2.052 -1.1903  2.1345 -1.4115
  576SOL     MW 2304   2.819   1.822   2.062 -0.3359  0.3453 -0.1397
  577SOL     OW 2305   2.066   0.314   0.064 -0.0329 -0.6501 -0.1448
  577SOL    HW1 2306   2.016   0.371   0.007 -1.7478  2.9498  1.1448
  577SOL    HW2 2307   1.995   0.264   0.110  0.8025 -0.5056 -3.1374
  577SOL     MW 2308   2.050   0.315   0.063 -0.1490 -0.1561 -0.3695
  578SOL     OW 2309   1.914   2.189   2.345  0.3152 -0.1771  0.0406
  578SOL    HW1 2310   1.844   2.159   2.276  1.2389  0.8695 -2.3486
  578SOL    HW2 2311   1.995   2.131   2.333  1.8104  0.4591  0.3152
  578SOL     MW 2312   1.916   2.177   2.334  0.6343  0.0450 -0.2384
  579SOL     OW 2313   0.824   2.487   2.506 -0.1220 -0.0741  0.1189
  579SOL    HW1 2314   0.877   2.438   2.575  1.9307 -0.2508  1.0777
  579SOL    HW2 2315   0.890   2.518   2.444  0.4442 -0.1559 -1.3698
  579SOL     MW 2316   0.840   2.485   2.507  0.2235 -0.1082  0.0490
  580SOL     OW 2317   0.875   2.855   3.083  0.2215 -0.0065  0.3718
  580SOL    HW1 2318   0.962   2.811   3.083  0.9658 -0.0144  1.5664
  580SOL    HW2 2319   0.841   2.829   3.002  1.6324 -0.6274 -1.5188
  580SOL     MW 2320   0.882   2.846   3.072  0.5059 -0.0895  0.2800
  581SOL     OW 2321   1.100   2.587   1.737  0.1871 -0.5437 -0.7147
  581SOL    HW1 2322   1.188   2.617   1.761 -0.6422  0.4312  0.2656
  581SOL    HW2 2323   1.105   2.487   1.746 -0.3474 -0.0047  0.5883
  581SOL     MW 2324   1.112   2.578   1.742  0.0072 -0.3440 -0.4135
  582SOL     OW 2325   3.081   2.883   2.618  0.0799  0.1851 -0.3056
  582SOL    HW1 2326   3.071   2.961   2.680  1.3599  0.9748 -0.8251
  582SOL    HW2 2327   3.175   2.865   2.614 -2.3466 -1.1557  5.0385
  582SOL     MW 2328   3.092   2.891   2.626 -0.0714  0.1124  0.3310
  583SOL     OW 2329   1.955   2.511   2.701 -0.0753 -0.6146 -0.4067
  583SOL    HW1 2330   1.972   2.570   2.617  0.3673  0.2138 -1.3327
  583SOL    HW2 2331   1.964   2.416   2.682 -1.3741 -0.3978 -0.2534
  583SOL     MW 2332   1.958   2.506   2.687 -0.1883 -0.4767 -0.5086
  584SOL     OW 2333   0.163   1.847   2.101 -0.2798  0.0137 -0.0678
  584SOL    HW1 2334   0.247   1.865   2.051 -1.1695 -0.1615 -1.5872
  584SOL    HW2 2335   0.170   1.893   2.186  0.1738  0.0963 -0.2180
  584SOL     MW 2336   0.175   1.856   2.105 -0.3373  0.0015 -0.2881
  585SOL     OW 2337   1.451   2.578   0.043  0.2356  0.5228 -0.3952
  585SOL    HW1 2338   1.410   2.596  -0.045  3.3213  2.0315  1.6336
  585SOL    HW2 2339   1.383   2.593   0.103  0.8113 -0.1359  1.1570
  585SOL     MW 2340   1.436   2.582   0.039  0.7187  0.6349  0.0773
  586SOL     OW 2341   1.296   2.973   2.368  0.5231  0.1013  0.1807
  586SOL    HW1 2342   1.365   2.907   2.391  2.7605  1.6225  3.7411
  586SOL    HW2 2343   1.255   3.000   2.448  0.5628  0.0883 -0.2066
  586SOL     MW 2344   1.300   2.968   2.382  0.8236  0.3003  0.5993
  587SOL     OW 2345   1.189   1.632   2.176  0.0630 -0.1467  0.3870
  587SOL    HW1 2346   1.204   1.546   2.220 -2.2981  0.2190  0.7306
  587SOL    HW2 2347   1.184   1.607   2.078 -1.5596  2.1488  1.0214
  587SOL     MW 2348   1.191   1.617   2.169 -0.4626  0.2045  0.5160
  588SOL     OW 2349   1.376   2.249   2.730  0.2045  0.3642 -0.3520
  588SOL    HW1 2350   1.461   2.212   2.743  0.1820 -2.7141 -1.5738
  588SOL    HW2 2351   1.301   2.206   2.785 -0.7823 -1.9655  0.7753
  588SOL     MW 2352   1.378   2.238   2.739  0.0713 -0.3494 -0.3645
  589SOL     OW 2353   1.339   2.056   0.017  0.3300 -0.3236  0.3919
  589SOL    HW1 2354   1.344   2.148   0.044  0.1529 -1.3417  2.0936
  589SOL    HW2 2355   1.325   2.021   0.105 -1.3599  0.3440  2.5482
  589SOL     MW 2356   1.338   2.063   0.032  0.0837 -0.3698  0.9009
  590SOL     OW 2357   0.490   2.547   2.246  0.1359  0.1670 -0.3738
  590SOL    HW1 2358   0.430   2.584   2.182  0.2102  0.2918  1.3979
  590SOL    HW2 2359   0.567   2.604   2.229 -2.3141  2.6700  0.4474
  590SOL     MW 2360   0.492   2.559   2.235 -0.1775  0.5137 -0.0317
  591SOL     OW 2361   2.198   0.678   3.037 -0.0916 -0.4935  0.0686
  591SOL    HW1 2362   2.107   0.701   3.005  1.2835 -2.5506 -1.2492
  591SOL    HW2 2363   2.246   0.687   2.953  2.6143 -1.4823  2.4228
  591SOL     MW 2364   2.192   0.682   3.022  0.4468 -0.8954  0.2053
  592SOL     OW 2365   1.821   2.897   0.850  0.4486 -0.1701  0.1662
  592SOL    HW1 2366   1.835   2.935   0.761 -1.8953 -0.3935 -0.1132
  592SOL    HW2 2367   1.857   2.804   0.850  2.0009  0.9706  1.4548
  592SOL     MW 2368   1.828   2.889   0.838  0.3441 -0.0491  0.2994
  593SOL     OW 2369   1.925   0.809   0.911  0.2576 -0.0219 -0.3071
  593SOL    HW1 2370   1.868   0.801   0.838  0.4943 -3.2453 -0.0040
  593SOL    HW2 2371   1.935   0.718   0.942 -1.0801 -0.6069 -0.8407
  593SOL     MW 2372   1.919   0.796   0.906  0.1123 -0.5243 -0.3375
  594SOL     OW 2373   2.745   1.124   1.405 -0.4543 -0.2336 -0.0916
  594SOL    HW1 2374   2.830   1.162   1.382  0.0703  1.6681 -3.8512
  594SOL    HW2 2375   2.706   1.090   1.323 -3.3558 -0.0245  0.3493
  594SOL     MW 2376   2.751   1.124   1.391 -0.7679  0.0449 -0.5294
  595SOL     OW 2377   0.430   0.971   0.762 -0.4781 -0.2660  0.3959
  595SOL    HW1 2378   0.478   1.025   0.687  3.5102 -0.1293 -3.1957
  595SOL    HW2 2379   0.446   1.010   0.846 -0.4563 -0.5721 -0.3822
  595SOL     MW 2380   0.438   0.983   0.763  0.0510 -0.2883 -0.1806
  596SOL     OW 2381   2.432   1.320   0.583  0.5732 -0.1167 -0.4877
  596SOL    HW1 2382   2.451   1.415   0.564  1.2114  2.2992 -0.7943
  596SOL    HW2 2383   2.509   1.291   0.634 -1.9798 -3.0935  0.7540
  596SOL     MW 2384   2.444   1.329   0.587  0.3206 -0.1907 -0.3643
  597SOL     OW 2385   2.240   0.673   1.737 -0.4807 -0.4060 -0.1914
  597SOL    HW1 2386   2.297   0.620   1.786 -1.1637 -0.7106 -3.0162
  597SOL    HW2 2387   2.265   0.648   1.651  0.6421  1.4673  0.1200
  597SOL     MW 2388   2.251   0.663   1.732 -0.4226 -0.1990 -0.5230
  598SOL     OW 2389   2.618   1.016   2.856 -0.6574  0.2754 -0.0986
  598SOL    HW1 2390   2.672   0.975   2.792 -1.5946 -0.9646  3.2390
  598SOL    HW2 2391   2.669   1.072   2.912  2.7047 -3.1209  0.7384
  598SOL     MW 2392   2.632   1.018   2.855 -0.3374 -0.3363  0.4522
  599SOL     OW 2393   2.925   0.343   2.047  0.2803  0.0196 -0.2142
  599SOL    HW1 2394   2.887   0.326   2.134  0.9929 -1.1077 -0.8713
  599SOL    HW2 2395   2.974   0.421   2.066  1.6680 -0.6148 -1.2149
  599SOL     MW 2396   2.926   0.351   2.061  0.5574 -0.2128 -0.4329
  600SOL     OW 2397   1.855   1.662   0.890  0.3546  0.4648 -0.5662
  600SOL    HW1 2398   1.867   1.685   0.980  2.0578 -2.1316 -0.7182
  600SOL    HW2 2399   1.764   1.698   0.869 -0.3939  1.5631  1.0472
  600SOL     MW 2400   1.845   1.670   0.899  0.4805  0.2671 -0.3734
  601SOL     OW 2401   2.486   0.761   0.892  0.3695  0.4930  0.0970
  601SOL    HW1 2402   2.505   0.766   0.985  0.7435  2.8090 -1.8811
  601SOL    HW2 2403   2.388   0.756   0.881 -1.5851  0.0776  0.8053
  601SOL     MW 2404   2.476   0.761   0.903  0.1610  0.7438 -0.0705
  602SOL     OW 2405   2.272   1.935   0.696  0.1404  0.2134 -0.0007
  602SOL    HW1 2406   2.213   1.862   0.717  1.1528 -0.3420  1.1161
  602SOL    HW2 2407   2.227   1.973   0.617  0.1650 -0.0407 -0.3018
  602SOL     MW 2408   2.258   1.931   0.689  0.2772  0.1066  0.1070
  603SOL     OW 2409   2.992   1.386   1.844 -0.1660  0.9867 -0.0141
  603SOL    HW1 2410   3.073   1.398   1.890 -1.5775  0.6875 -1.0847
  603SOL    HW2 2411   2.995   1.298   1.811  2.6698 -1.6499 -0.5802
  603SOL     MW 2412   3.003   1.376   1.846  0.0219  0.5994 -0.2300
  604SOL     OW 2413   2.050   1.523   0.499  0.3027  0.6195  0.1562
  604SOL    HW1 2414   2.060   1.459   0.565 -0.7521  1.4966 -0.5558
  604SOL    HW2 2415   1.984   1.579   0.534  0.7340  3.3152  3.6048
  604SOL     MW 2416   2.043   1.522   0.512  0.2205  1.0909  0.5173
  605SOL     OW 2417   2.656   1.539   0.807 -0.0271  0.1974  0.5305
  605SOL    HW1 2418   2.598   1.612   0.785  0.0312 -2.7458  1.2365
  605SOL    HW2 2419   2.613   1.520   0.886  1.0844  0.3648 -1.5538
  605SOL     MW 2420   2.642   1.546   0.815  0.1272 -0.1688  0.3487
  606SOL     OW 2421   2.541   1.827   1.920  0.0669  0.1967  0.9451
  606SOL    HW1 2422   2.443   1.816   1.942  0.1837 -0.9839  0.0300
  606SOL    HW2 2423   2.564   1.737   1.884 -2.5236 -1.9348  0.5834
  606SOL     MW 2424   2.531   1.814   1.918 -0.2595 -0.2403  0.7767
  607SOL     OW 2425   2.349   1.021   2.956  0.2439  0.1484  0.1550
  607SOL    HW1 2426   2.437   1.002   2.924  2.5587 -0.2006  1.2852
  607SOL    HW2 2427   2.361   1.017   3.047 -3.1755 -2.2172  0.1800
  607SOL     MW 2428   2.362   1.018   2.964  0.0982 -0.2098  0.3074
  608SOL     OW 2429   1.894   0.253   0.636  0.3046  0.4217  0.0627
  608SOL    HW1 2430   1.924   0.277   0.547 -3.2008 -1.1715 -3.6607
  608SOL    HW2 2431   1.873   0.160   0.622 -0.2577 -0.0991 -1.4613
  608SOL     MW 2432   1.895   0.244   0.622 -0.2321  0.1428 -0.6297
  609SOL     OW 2433   2.123   1.918   3.021  0.2369  0.0474 -0.1798
  609SOL    HW1 2434   2.045   1.884   2.976 -0.6396 -2.6037 -0.6383
  609SOL    HW2 2435   2.134   1.881   3.109  0.6387 -0.8296  0.8225
  609SOL     MW 2436   2.114   1.909   3.026  0.1742 -0.4181 -0.1080
  610SOL     OW 2437   1.815   1.081   1.360 -0.3664  0.1792  0.2394
  610SOL    HW1 2438   1.825   1.019   1.286 -0.1236 -0.0165  1.5110
  610SOL    HW2 2439   1.735   1.046   1.415  0.8564  1.7658  1.0543
  610SOL     MW 2440   1.806   1.068   1.358 -0.1730  0.3628  0.5147
  611SOL     OW 2441   2.494   1.748   0.720 -0.4904 -0.1982  0.0463
  611SOL    HW1 2442   2.451   1.827   0.692  1.8215 -3.5134 -0.1639
  611SOL    HW2 2443   2.505   1.713   0.633  1.3673 -1.9530  3.7117
  611SOL     MW 2444   2.490   1.754   0.705  0.0598 -0.8671  0.5022
  612SOL     OW 2445   2.781   2.775   0.424 -0.0367  0.4783 -0.1551
  612SOL    HW1 2446   2.829   2.841   0.484  0.1707 -0.0921  1.4321
  612SOL    HW2 2447   2.845   2.759   0.356 -0.6444  2.0441 -0.7938
  612SOL     MW 2448   2.795   2.781   0.423 -0.0895  0.6096 -0.0300
  613SOL     OW 2449   1.624   1.007   1.104  0.4198 -0.1693 -0.1488
  613SOL    HW1 2450   1.593   1.093   1.144 -2.5464 -0.4335  1.5060
  613SOL    HW2 2451   1.716   1.002   1.118 -0.2227  0.6364  2.2277
  613SOL     MW 2452   1.632   1.018   1.111 -0.0563 -0.0979  0.3831
  614SOL     OW 2453   1.976   0.542   1.540  0.3548 -0.0021 -0.1317
  614SOL    HW1 2454   1.992   0.460   1.593 -0.4253  1.0914  1.0820
  614SOL    HW2 2455   2.022   0.525   1.462 -2.5163  1.7338 -1.2187
  614SOL     MW 2456   1.984   0.529   1.537 -0.1269  0.3712 -0.1150
  615SOL     OW 2457   2.237   0.828   0.173 -0.1090  0.3319  0.3609
  615SOL    HW1 2458   2.303   0.785   0.235 -1.2644 -0.2279  1.4639
  615SOL    HW2 2459   2.230   0.767   0.099 -2.0171 -0.5173  2.4993
  615SOL     MW 2460   2.245   0.814   0.171 -0.5132  0.1460  0.7886
  616SOL     OW 2461   2.624   0.386   1.629  0.0606  0.5580  0.0690
  616SOL    HW1 2462   2.561   0.340   1.570  0.6895 -0.5694 -0.3396
  616SOL    HW2 2463   2.599   0.476   1.617  0.6034  1.0863 -2.9241
  616SOL     MW 2464   2.613   0.392   1.619  0.2152  0.4789 -0.3798
  617SOL     OW 2465   2.912   0.555   1.764 -0.1561  0.0925 -0.2106
  617SOL    HW1 2466   2.816   0.581   1.783  0.2716 -1.3929  1.5457
  617SOL    HW2 2467   2.904   0.458   1.748 -3.3649 -0.4290 -0.8518
  617SOL     MW 2468   2.898   0.546   1.765 -0.5230 -0.1723 -0.0635
  618SOL     OW 2469   2.651   0.363   1.943 -0.4285  0.1416  0.1938
  618SOL    HW1 2470   2.630   0.456   1.932 -0.1451 -0.4605  1.3042
  618SOL    HW2 2471   2.745   0.359   1.953 -1.2214  1.8318 -0.2406
  618SOL     MW 2472   2.660   0.375   1.943 -0.4957  0.2852  0.2830
  619SOL     OW 2473   2.590   0.877   0.129  0.1116  0.5899 -0.0316
  619SOL    HW1 2474   2.677   0.889   0.164 -0.8937 -0.2051  0.2239
  619SOL    HW2 2475   2.537   0.860   0.204  0.9162  1.4543 -1.5818
  619SOL     MW 2476   2.595   0.877   0.143  0.0851  0.5990 -0.2024
  620SOL     OW 2477   2.295   1.116   0.921 -0.0216 -0.6160  0.0069
  620SOL    HW1 2478   2.372   1.122   0.868 -0.9449 -0.9368 -1.4673
  620SOL    HW2 2479   2.274   1.026   0.921 -0.0383  2.1124 -1.2262
  620SOL     MW 2480   2.302   1.105   0.914 -0.1456 -0.2983 -0.3503
  621SOL     OW 2481   1.512   2.133   1.992 -0.3794 -0.1929 -0.3423
  621SOL    HW1 2482   1.426   2.090   2.007 -0.4895 -0.9554  0.8489
  621SOL    HW2 2483   1.546   2.141   2.081 -0.6713  1.0018  1.3629
  621SOL     MW 2484   1.505   2.129   2.006 -0.4324 -0.1359  0.0399
  622SOL     OW 2485   2.622   0.204   0.145 -0.0543 -0.1417  0.1905
  622SOL    HW1 2486   2.710   0.236   0.183 -0.7611 -1.4062  1.6642
  622SOL    HW2 2487   2.639   0.111   0.130  3.4899 -0.6716 -0.2138
  622SOL     MW 2488   2.636   0.196   0.148  0.3201 -0.3785  0.3316
  623SOL     OW 2489   2.389   2.766   0.837 -0.0679 -0.0620  0.2611
  623SOL    HW1 2490   2.430   2.854   0.844  1.1802 -1.3556 -0.4296
  623SOL    HW2 2491   2.321   2.756   0.903  1.6040  2.4943 -0.6359
  623SOL     MW 2492   2.385   2.776   0.846  0.3174  0.1046  0.0516
  624SOL     OW 2493   2.206   1.626   2.954  0.2535  0.0604  0.8341
  624SOL    HW1 2494   2.128   1.581   2.990  0.1215  0.1646 -2.7649
  624SOL    HW2 2495   2.179   1.718   2.947  1.9969  1.0789  1.9054
  624SOL     MW 2496   2.192   1.632   2.958  0.4661  0.2085  0.5006
  625SOL     OW 2497   2.202   1.919   1.066  0.2009 -0.1612 -0.3185
  625SOL    HW1 2498   2.267   1.899   1.131  0.4395  0.7528  0.7114
  625SOL    HW2 2499   2.239   1.897   0.985 -0.2978 -2.2551  0.5313
  625SOL     MW 2500   2.215   1.913   1.064  0.1666 -0.3169 -0.0705
  626SOL     OW 2501   0.144   1.580   2.388  0.2711 -0.3470 -0.1801
  626SOL    HW1 2502   0.096   1.499   2.365 -0.7969 -0.1572 -2.0624
  626SOL    HW2 2503   0.119   1.606   2.474 -1.8608  0.4582  0.6345
  626SOL     MW 2504   0.134   1.573   2.397 -0.1511 -0.2157 -0.3210
  627SOL     OW 2505   2.433   0.833   2.564 -0.5304  0.2290 -0.7213
  627SOL    HW1 2506   2.396   0.924   2.563  0.4996 -0.6840 -0.2082
  627SOL    HW2 2507   2.424   0.795   2.472  0.7941 -0.0943 -1.2571
  627SOL     MW 2508   2.427   0.840   2.552 -0.2197  0.0659 -0.7243
  628SOL     OW 2509   2.338   1.368   1.386 -0.0068  0.0693 -0.3609
  628SOL    HW1 2510   2.321   1.291   1.326 -0.7847  0.1691  0.2030
  628SOL    HW2 2511   2.420   1.402   1.352  0.1459  0.0544  2.3378
  628SOL     MW 2512   2.347   1.362   1.374 -0.0893  0.0805  0.0695
  629SOL     OW 2513   2.022   0.569   1.205 -0.4788  0.1519 -0.2470
  629SOL    HW1 2514   2.073   0.645   1.180 -1.7035 -1.2087  2.1559
  629SOL    HW2 2515   1.930   0.596   1.231 -1.0097 -1.2711 -0.7017
  629SOL     MW 2516   2.016   0.583   1.205 -0.7104 -0.2153  0.0101
  630SOL     OW 2517   2.494   1.810   3.093  0.4298  0.2560  0.4066
  630SOL    HW1 2518   2.462   1.894   3.053  0.0712 -0.6777 -0.6802
  630SOL    HW2 2519   2.418   1.769   3.114  0.6895  1.1927 -1.3008
  630SOL     MW 2520   2.480   1.815   3.090  0.4167  0.2564  0.0379
  631SOL     OW 2521   1.979   1.787   1.611 -0.1064  0.5783  0.0997
  631SOL    HW1 2522   1.973   1.700   1.665  2.5976 -0.3161  0.9912
  631SOL    HW2 2523   1.965   1.768   1.518  0.4979  0.7289 -3.9618
  631SOL     MW 2524   1.976   1.773   1.606  0.3301  0.4802 -0.3186
  632SOL     OW 2525   0.217   2.076   1.571  0.4530 -0.4614  0.0556
  632SOL    HW1 2526   0.182   2.104   1.651 -0.4397 -0.2457 -0.7410
  632SOL    HW2 2527   0.175   1.987   1.557  0.8153  2.1155 -0.9902
  632SOL     MW 2528   0.207   2.068   1.580  0.3830 -0.0929 -0.1875
  633SOL     OW 2529   2.424   0.713   0.369  0.0684  0.1037  0.2479
  633SOL    HW1 2530   2.509   0.698   0.414  1.1108 -0.7915 -0.2771
  633SOL    HW2 2531   2.400   0.616   0.361 -1.7705 -2.6019 -0.2010
  633SOL     MW 2532   2.432   0.698   0.374 -0.0367 -0.3714  0.1194
  634SOL     OW 2533   2.632   3.077   0.602 -0.2798 -0.0118  0.0592
  634SOL    HW1 2534   2.637   3.170   0.576  0.2594 -0.0463  1.1792
  634SOL    HW2 2535   2.618   3.028   0.521  2.9156  0.2077  1.8391
  634SOL     MW 2536   2.631   3.083   0.588  0.2129  0.0126  0.4418
  635SOL     OW 2537   2.591   0.115   1.831 -0.5309 -0.0887 -0.5952
  635SOL    HW1 2538   2.673   0.087   1.791 -0.5637  1.1605 -1.3860
  635SOL    HW2 2539   2.594   0.206   1.854 -0.3614  0.1228  0.0507
  635SOL     MW 2540   2.602   0.124   1.829 -0.5129  0.1040 -0.6143
  636SOL     OW 2541   2.915   1.642   1.019 -0.1833 -0.4445 -0.6452
  636SOL    HW1 2542   2.875   1.712   0.970  0.5853  0.0985 -0.6515
  636SOL    HW2 2543   2.926   1.682   1.106 -0.1562 -2.8041 -1.2541
  636SOL     MW 2544   2.911   1.656   1.024 -0.0783 -0.6842 -0.7264
  637SOL     OW 2545   2.903   1.495   0.701 -0.2209  0.0409  0.0791
  637SOL    HW1 2546   2.937   1.581   0.689  0.4099  1.5600  0.8612
  637SOL    HW2 2547   2.814   1.498   0.734  0.1851  0.8452 -0.6864
  637SOL     MW 2548   2.896   1.506   0.703 -0.0841  0.3474  0.0813
  638SOL     OW 2549   2.654   0.682   0.520 -0.3898  0.1692  0.5908
  638SOL    HW1 2550   2.747   0.660   0.496  1.2158  1.9750 -2.7260
  638SOL    HW2 2551   2.653   0.665   0.616  0.6634  0.5834  0.3167
  638SOL     MW 2552   2.666   0.676   0.530 -0.0390  0.4621  0.1170
  639SOL     OW 2553   1.845   3.073   0.619 -0.7296  0.3638  0.3314
  639SOL    HW1 2554   1.749   3.090   0.621 -3.5963 -0.3301 -0.3952
  639SOL    HW2 2555   1.859   3.063   0.521 -1.5406 -2.8218 -2.4033
  639SOL     MW 2556   1.834   3.074   0.606 -1.2148 -0.1480 -0.1253
  640SOL     OW 2557   0.386   1.369   0.095 -0.0283 -0.1453 -0.2259
  640SOL    HW1 2558   0.405   1.416   0.012  1.8006 -1.8083 -0.3383
  640SOL    HW2 2559   0.359   1.278   0.064 -1.9699 -0.7091  1.7881
  640SOL     MW 2560   0.385   1.363   0.080 -0.0431 -0.4391  0.0250
  641SOL     OW 2561   2.313   0.435   0.379 -0.5451 -0.1576  0.1165
  641SOL    HW1 2562   2.346   0.363   0.319  1.9067  1.7248 -1.6838
  641SOL    HW2 2563   2.367   0.410   0.458  1.6751 -0.5286  1.0665
  641SOL     MW 2564   2.325   0.422   0.381  0.0713  0.0418  0.0043
  642SOL     OW 2565   3.090   0.010   0.498  0.4211  0.1431  0.4459
  642SOL    HW1 2566   3.061   0.101   0.504  0.6740  0.0344 -0.7915
  642SOL    HW2 2567   3.025  -0.045   0.542  0.0518 -0.4369 -2.0291
  642SOL     MW 2568   3.078   0.015   0.504  0.4057  0.0522 -0.0439
  643SOL     OW 2569   2.038   0.292   1.631 -0.1387  0.0483  0.3228
  643SOL    HW1 2570   2.114   0.288   1.686 -1.5323 -1.1001  0.7931
  643SOL    HW2 2571   2.049   0.251   1.548 -3.5556  1.1786  0.7157
  643SOL     MW 2572   2.050   0.286   1.627 -0.7734  0.0459  0.4367
  644SOL     OW 2573   2.711   1.863   0.938  0.1177  0.0316  0.6749
  644SOL    HW1 2574   2.671   1.796   0.994 -0.0334  2.5401 -0.5247
  644SOL    HW2 2575   2.640   1.879   0.873 -0.6637  1.1777  0.2074
  644SOL     MW 2576   2.696   1.856   0.936 -0.0053  0.5138  0.4550
  645SOL     OW 2577   2.749   0.910   0.632  0.1800 -0.4656  0.1911
  645SOL    HW1 2578   2.813   0.876   0.694 -0.9943 -1.5233 -1.6036
  645SOL    HW2 2579   2.710   0.834   0.591  0.9967  0.1462 -0.0900
  645SOL     MW 2580   2.752   0.896   0.635  0.1328 -0.5244 -0.0828
  646SOL     OW 2581   0.140   2.303   0.871  0.4664 -0.5622 -0.5088
  646SOL    HW1 2582   0.187   2.223   0.858  2.1782  0.5160 -0.6723
  646SOL    HW2 2583   0.090   2.304   0.790 -0.9119  1.7489  4.1584
  646SOL     MW 2584   0.140   2.292   0.859  0.5104 -0.1150  0.0854
  647SOL     OW 2585   2.744   0.562   2.998  0.2618 -0.4619 -0.3756
  647SOL    HW1 2586   2.679   0.501   3.007 -1.5059  3.4439  1.6159
  647SOL    HW2 2587   2.690   0.647   2.998  3.2132  1.6069 -2.5816
  647SOL     MW 2588   2.728   0.565   2.999  0.4180  0.3264 -0.4039
  648SOL     OW 2589   2.220   0.741   1.098  0.0451  0.2556  0.2328
  648SOL    HW1 2590   2.222   0.769   1.004  2.4642 -1.4857 -3.4531
  648SOL    HW2 2591   2.206   0.824   1.145 -3.2713  0.6942 -1.3433
  648SOL     MW 2592   2.218   0.755   1.091 -0.0733  0.0838 -0.4615
  649SOL     OW 2593   2.374   2.683   1.199  0.1590  0.1350  0.0495
  649SOL    HW1 2594   2.444   2.739   1.236  1.0851 -0.2568 -0.2676
  649SOL    HW2 2595   2.396   2.588   1.200  0.1882  0.4527  1.0991
  649SOL     MW 2596   2.386   2.678   1.204  0.2850  0.1252  0.1462
  650SOL     OW 2597   2.765   0.248   0.615 -0.1795  0.0767 -0.1983
  650SOL    HW1 2598   2.785   0.270   0.704 -0.8783 -1.4501 -1.6465
  650SOL    HW2 2599   2.849   0.253   0.570 -0.7778 -1.2226 -0.1508
  650SOL     MW 2600   2.779   0.252   0.620 -0.3507 -0.2962 -0.3831
  651SOL     OW 2601   2.994   0.301   0.839 -0.4945  0.0622  0.3063
  651SOL    HW1 2602   3.066   0.333   0.779  0.7639  0.6044  0.8123
  651SOL    HW2 2603   2.938   0.377   0.847 -1.0108 -0.6862  1.2745
  651SOL     MW 2604   2.996   0.315   0.832 -0.3966  0.0350  0.5008
  652SOL     OW 2605   2.391   1.426   2.980 -0.5551 -0.0985 -0.5900
  652SOL    HW1 2606   2.456   1.421   2.909  3.3827 -0.2228  0.1731
  652SOL    HW2 2607   2.329   1.497   2.966 -0.7419  0.3250 -1.5248
  652SOL     MW 2608   2.392   1.435   2.968 -0.0602 -0.0591 -0.6127
  653SOL     OW 2609   1.974   0.364   0.392  0.0791 -0.1810 -0.6802
  653SOL    HW1 2610   1.949   0.283   0.348 -1.3542  2.1296 -0.2065
  653SOL    HW2 2611   2.064   0.382   0.354  0.8810 -0.5716 -0.0532
  653SOL     MW 2612   1.982   0.356   0.381 -0.0042  0.0723 -0.5349
  654SOL     OW 2613   2.468   1.021   0.707  0.0365  0.5017  0.0391
  654SOL    HW1 2614   2.383   1.015   0.662  0.3630 -0.6318  0.4590
  654SOL    HW2 2615   2.468   0.955   0.771 -0.3211 -1.1251 -2.1959
  654SOL     MW 2616   2.457   1.012   0.709  0.0324  0.1375 -0.2004
  655SOL     OW 2617   3.069   0.917   0.442 -0.2634  0.3331 -0.0195
  655SOL    HW1 2618   3.132   0.952   0.508  0.4220 -1.6832  1.2187
  655SOL    HW2 2619   3.068   0.821   0.452 -1.3935 -1.8207 -0.5843
  655SOL     MW 2620   3.077   0.909   0.452 -0.3221 -0.2171  0.0694
  656SOL     OW 2621   1.983   2.746   1.208  0.5533  0.7864 -0.1164
  656SOL    HW1 2622   1.957   2.835   1.238  0.0306  4.7089 -3.0808
  656SOL    HW2 2623   1.986   2.690   1.287 -0.3830 -2.0467  1.4234
  656SOL     MW 2624   1.980   2.750   1.222  0.3608  0.9301 -0.3044
  657SOL     OW 2625   0.205   1.581   1.259  0.2893 -0.3518 -0.4952
  657SOL    HW1 2626   0.121   1.540   1.271  1.4530 -0.6368 -1.2620
  657SOL    HW2 2627   0.219   1.597   1.167  4.1108 -1.1904  2.0908
  657SOL     MW 2628   0.196   1.578   1.248  0.9471 -0.5000 -0.2552
  658SOL     OW 2629   2.685   1.367   0.243  0.0433  0.1725  0.4319
  658SOL    HW1 2630   2.621   1.313   0.291 -1.4599  2.6432  2.1868
  658SOL    HW2 2631   2.730   1.410   0.314 -0.9342 -0.2208 -2.0049
  658SOL     MW 2632   2.683   1.366   0.258 -0.2840  0.4466  0.3419
  659SOL     OW 2633   2.205   1.561   1.023  0.0290 -0.0149  0.8084
  659SOL    HW1 2634   2.289   1.516   1.012  2.0355 -3.4363 -0.0038
  659SOL    HW2 2635   2.187   1.573   1.119 -0.7740 -0.3688 -2.2360
  659SOL     MW 2636   2.214   1.556   1.034  0.1878 -0.5130  0.2995
  660SOL     OW 2637   2.015   1.520   1.757 -0.3256 -0.4732 -0.6535
  660SOL    HW1 2638   2.060   1.558   1.836 -1.0044  0.7414 -2.8312
  660SOL    HW2 2639   1.990   1.433   1.760  0.8933  3.9423 -3.2910
  660SOL     MW 2640   2.018   1.514   1.768 -0.2543  0.2696 -1.2888
  661SOL     OW 2641   2.342   1.069   0.143 -0.0150  0.6683  0.1262
  661SOL    HW1 2642   2.402   1.102   0.216  0.6607  2.0749  0.7291
  661SOL    HW2 2643   2.312   0.982   0.164  2.4349  1.2426  2.9452
  661SOL     MW 2644   2.346   1.062   0.155  0.3974  0.9297  0.5777
  662SOL     OW 2645   2.537   3.002   0.863 -0.1693  0.6696 -0.2446
  662SOL    HW1 2646   2.502   3.063   0.930 -1.1400  1.4252  2.0231
  662SOL    HW2 2647   2.553   3.052   0.783 -1.2051 -0.8675 -0.6007
  662SOL     MW 2648   2.535   3.016   0.861 -0.4340  0.5665  0.0076
  663SOL     OW 2649   2.815   1.548   0.458 -0.3666  0.0652  0.2974
  663SOL    HW1 2650   2.906   1.567   0.425  3.5627  1.4831 -0.4420
  663SOL    HW2 2651   2.838   1.524   0.549 -0.6902  0.0686  1.4243
  663SOL     MW 2652   2.830   1.548   0.466  0.1091  0.2527  0.3485
  664SOL     OW 2653   2.461   1.583   1.611  0.2424 -0.3905 -0.6804
  664SOL    HW1 2654   2.437   1.675   1.607  1.2240  1.2856  2.3239
  664SOL    HW2 2655   2.382   1.534   1.607 -0.4010 -3.0551 -1.4913
  664SOL     MW 2656   2.448   1.589   1.610  0.2870 -0.5209 -0.3910
  665SOL     OW 2657   2.876   0.813   2.018  0.8892 -0.5895  0.2972
  665SOL    HW1 2658   2.845   0.866   1.945 -0.3478 -0.5866  1.5487
  665SOL    HW2 2659   2.922   0.737   1.985  0.0586 -0.7012 -2.5469
  665SOL     MW 2660   2.878   0.810   2.004  0.6164 -0.6038  0.0870
  666SOL     OW 2661   2.820   2.992   1.695  0.1086 -0.7677 -0.1145
  666SOL    HW1 2662   2.783   3.004   1.605  1.0594  3.2787  1.7950
  666SOL    HW2 2663   2.758   2.925   1.731  0.8284 -0.3446 -1.1081
  666SOL     MW 2664   2.807   2.985   1.688  0.3290 -0.1780  0.0063
  667SOL     OW 2665   1.937   2.670   1.660  0.4271  0.4698 -0.3571
  667SOL    HW1 2666   1.968   2.612   1.727 -1.2707 -0.7883 -1.7399
  667SOL    HW2 2667   2.009   2.734   1.647 -0.9663  0.4337  1.6654
  667SOL     MW 2668   1.951   2.671   1.667  0.0193  0.2991 -0.2727
  668SOL     OW 2669   2.704   0.651   0.790  0.1119  0.1622  0.4399
  668SOL    HW1 2670   2.770   0.679   0.850  0.1309  0.5659 -2.1339
  668SOL    HW2 2671   2.628   0.703   0.825  3.3306  0.5865  0.0204
  668SOL     MW 2672   2.703   0.661   0.803  0.5391  0.2714  0.0450
  669SOL     OW 2673   0.153   0.933   0.715 -0.3185 -0.5141 -0.3337
  669SOL    HW1 2674   0.108   1.001   0.772  3.1033  1.2024  2.3994
  669SOL    HW2 2675   0.244   0.936   0.740  3.1814 -1.8887 -1.2305
  669SOL     MW 2676   0.159   0.943   0.726  0.5947 -0.4690 -0.0914
  670SOL     OW 2677   2.848   0.293   0.255 -0.1594 -0.3254 -0.0510
  670SOL    HW1 2678   2.870   0.210   0.212 -0.5126 -0.5468  3.0149
  670SOL    HW2 2679   2.888   0.358   0.198  1.4452 -1.3059  0.7829
  670SOL     MW 2680   2.856   0.291   0.242  0.0057 -0.4840  0.4635
  671SOL     OW 2681   2.173   3.092   1.609  0.1362  0.5680  0.0449
  671SOL    HW1 2682   2.143   3.158   1.543  4.4438  3.2675  1.6859
  671SOL    HW2 2683   2.089   3.073   1.657  2.1016 -1.9761  1.4314
  671SOL     MW 2684   2.158   3.098   1.606  0.9639  0.5885  0.4443
  672SOL     OW 2685   1.901   1.702   1.351 -0.4942  0.2462  0.3466
  672SOL    HW1 2686   1.823   1.740   1.387 -0.2685  0.8827 -0.7547
  672SOL    HW2 2687   1.917   1.750   1.266  1.3194  1.0413 -1.7413
  672SOL     MW 2688   1.893   1.714   1.345 -0.2251  0.4351 -0.0742
  673SOL     OW 2689   2.769   1.131   0.484  0.2174 -0.3329 -0.2229
  673SOL    HW1 2690   2.758   1.044   0.524 -2.6828  0.3199 -0.4871
  673SOL    HW2 2691   2.856   1.172   0.486  0.9858  0.7812 -0.7424
  673SOL     MW 2692   2.779   1.125   0.489 -0.0639 -0.0998 -0.3263
  674SOL     OW 2693   2.410   0.024   1.287  0.6019 -0.4329 -0.2096
  674SOL    HW1 2694   2.399   0.063   1.199 -0.2308 -1.4865 -0.3896
  674SOL    HW2 2695   2.424  -0.071   1.270 -0.2278  0.9236  0.5053
  674SOL     MW 2696   2.410   0.017   1.273  0.3826 -0.3930 -0.1390
  675SOL     OW 2697   2.961   1.009   1.101  0.0030  0.6554  0.0168
  675SOL    HW1 2698   3.023   0.952   1.144  1.0434  1.3119  2.8691
  675SOL    HW2 2699   2.992   1.034   1.011  0.3952  0.5893 -3.5598
  675SOL     MW 2700   2.973   1.005   1.095  0.1920  0.7333 -0.0788
  676SOL     OW 2701   2.849   1.505   1.641 -0.2103 -0.4041 -0.5265
  676SOL    HW1 2702   2.793   1.429   1.645  0.6980  2.2061  2.1622
  676SOL    HW2 2703   2.905   1.487   1.715 -0.3901 -3.9830  1.5335
  676SOL     MW 2704   2.849   1.492   1.652 -0.1142 -0.5319  0.1000
  677SOL     OW 2705   2.473   0.850   1.831  0.1120 -0.3593  0.4113
  677SOL    HW1 2706   2.387   0.843   1.796 -2.2108  1.7254  0.7432
  677SOL    HW2 2707   2.474   0.868   1.920 -0.4109  2.6067 -2.6137
  677SOL     MW 2708   2.462   0.851   1.838 -0.2634  0.3071  0.0560
  678SOL     OW 2709   2.508   1.589   0.491 -0.1745 -0.1992 -0.7934
  678SOL    HW1 2710   2.460   1.642   0.429  1.6348  2.0748 -0.4904
  678SOL    HW2 2711   2.597   1.583   0.461 -1.1572  3.2037 -2.1180
  678SOL     MW 2712   2.513   1.595   0.479 -0.0654  0.5498 -0.9282
  679SOL     OW 2713   2.396   0.505   1.185 -0.1917 -0.5510 -0.0094
  679SOL    HW1 2714   2.340   0.425   1.187  0.0796 -0.3615 -0.1547
  679SOL    HW2 2715   2.342   0.570   1.140 -0.7441 -1.6907 -3.1581
  679SOL     MW 2716   2.381   0.503   1.179 -0.2288 -0.6763 -0.4440
  680SOL     OW 2717   2.422   0.251   1.484 -0.6184 -0.0496 -0.3705
  680SOL    HW1 2718   2.389   0.237   1.571  1.3096  3.1662 -1.2963
  680SOL    HW2 2719   2.392   0.181   1.431  1.3440  1.1791  2.3460
  680SOL     MW 2720   2.414   0.240   1.488 -0.1051  0.5368 -0.1342
  681SOL     OW 2721   0.270   0.493   1.556 -0.1121 -0.1063  0.4202
  681SOL    HW1 2722   0.265   0.398   1.590 -0.3532  0.0356 -0.4220
  681SOL    HW2 2723   0.365   0.515   1.562 -0.6684 -0.8344  0.3034
  681SOL     MW 2724   0.282   0.483   1.562 -0.2173 -0.1836  0.2937
  682SOL     OW 2725   0.116   3.005   1.481 -0.5715  0.3344 -0.2335
  682SOL    HW1 2726   0.089   3.100   1.453 -1.9201 -1.7905  2.5042
  682SOL    HW2 2727   0.097   2.997   1.573 -1.4759  0.1921 -1.4480
  682SOL     MW 2728   0.110   3.016   1.489 -0.8687  0.0353 -0.0325
  683SOL     OW 2729   1.967   0.805   2.970  0.4846  0.1862 -0.0480
  683SOL    HW1 2730   1.874   0.797   2.927  0.3887  0.2141 -1.0690
  683SOL    HW2 2731   1.973   0.901   2.996 -0.3821  2.0181  1.3022
  683SOL     MW 2732   1.955   0.817   2.967  0.3576  0.4316 -0.0046
  684SOL     OW 2733   2.110   1.738   0.789  0.0121  0.2013 -0.2881
  684SOL    HW1 2734   2.023   1.724   0.818  1.1792  0.5612  2.8702
  684SOL    HW2 2735   2.157   1.683   0.854  0.5258 -1.1280 -1.5010
  684SOL     MW 2736   2.105   1.729   0.801  0.2339  0.0734 -0.0314
  685SOL     OW 2737   2.638   1.726   1.190 -0.2303 -0.1188  0.0726
  685SOL    HW1 2738   2.715   1.733   1.248 -1.8937  0.7425 -0.4414
  685SOL    HW2 2739   2.622   1.630   1.184  1.0583  1.2198 -1.1266
  685SOL     MW 2740   2.646   1.714   1.197 -0.2798  0.1715 -0.1534
  686SOL     OW 2741   2.961   0.714   1.512 -0.4857  0.1279  0.5743
  686SOL    HW1 2742   2.943   0.665   1.590  1.0108 -0.1537 -0.5066
  686SOL    HW2 2743   3.048   0.690   1.477 -3.0611  1.0334 -1.1830
  686SOL     MW 2744   2.970   0.704   1.518 -0.6280  0.2102  0.1998
  687SOL     OW 2745   2.183   0.334   1.208 -0.1047  0.4130 -0.5705
  687SOL    HW1 2746   2.176   0.276   1.132  2.3487  0.7868 -2.8721
  687SOL    HW2 2747   2.124   0.405   1.194  0.8040 -1.1271 -1.8461
  687SOL     MW 2748   2.174   0.336   1.196  0.3389  0.2591 -1.0425
  688SOL     OW 2749   2.360   0.526   1.481 -0.1592  0.0855 -0.4083
  688SOL    HW1 2750   2.339   0.435   1.482  0.0586  1.8854 -2.3097
  688SOL    HW2 2751   2.364   0.536   1.389 -0.0197  0.5054  0.9336
  688SOL     MW 2752   2.357   0.515   1.469 -0.1121  0.3783 -0.4821
  689SOL     OW 2753   2.562   0.763   2.986 -0.2243 -0.3386  0.1958
  689SOL    HW1 2754   2.591   0.849   2.953 -1.1235 -1.1628  3.2123
  689SOL    HW2 2755   2.540   0.778   3.078 -1.4397 -0.5090  1.2159
  689SOL     MW 2756   2.563   0.776   2.994 -0.5033 -0.4698  0.7284
  690SOL     OW 2757   2.057   1.023   1.980 -0.2340 -0.2894  0.3372
  690SOL    HW1 2758   2.006   0.945   1.997 -0.2979 -1.0971  1.4926
  690SOL    HW2 2759   2.095   1.010   1.895 -1.7247  2.4847  1.8637
  690SOL     MW 2760   2.055   1.011   1.971 -0.4391 -0.0300  0.6911
  691SOL     OW 2761   2.438   0.349   0.852 -0.0520 -0.3547 -0.3691
  691SOL    HW1 2762   2.503   0.408   0.895 -2.1142 -2.3140  1.9801
  691SOL    HW2 2763   2.362   0.400   0.828 -0.0427  0.8257  1.7116
  691SOL     MW 2764   2.437   0.364   0.855 -0.3228 -0.4575  0.2154
  692SOL     OW 2765   2.794   1.654   1.432 -0.5975 -0.0763  0.3652
  692SOL    HW1 2766   2.809   1.615   1.518 -2.7055 -0.2374  3.1978
  692SOL    HW2 2767   2.821   1.750   1.450 -2.0847 -2.4629  1.1614
  692SOL     MW 2768   2.800   1.661   1.446 -1.0718 -0.4124  0.8440
  693SOL     OW 2769   2.308   0.453   0.078 -0.5148  0.3362 -0.5431
  693SOL    HW1 2770   2.226   0.410   0.081 -2.7656  2.1288  0.4485
  693SOL    HW2 2771   2.274   0.531   0.034 -0.2033 -1.5722 -1.3514
  693SOL     MW 2772   2.293   0.458   0.073 -0.7706  0.3209 -0.5189
  694SOL     OW 2773   1.976   1.295   1.208  0.0487  0.5139  0.3329
  694SOL    HW1 2774   2.061   1.257   1.213 -1.3303 -0.4918 -3.2705
  694SOL    HW2 2775   1.916   1.221   1.228  0.5113 -0.4787 -0.7581
  694SOL     MW 2776   1.979   1.280   1.211 -0.0722  0.2502 -0.2865
  695SOL     OW 2777   3.044   1.530   1.328 -0.2597 -0.4112 -0.3093
  695SOL    HW1 2778   3.009   1.463   1.265 -0.4981 -0.3738 -1.4804
  695SOL    HW2 2779   2.969   1.579   1.358 -1.2350  0.7965 -2.7756
  695SOL     MW 2780   3.030   1.527   1.324 -0.4199 -0.2469 -0.7892
  696SOL     OW 2781   2.017   1.376   0.944 -0.0436  0.3192 -0.4589
  696SOL    HW1 2782   2.062   1.453   0.982 -0.4278  0.6696  0.5396
  696SOL    HW2 2783   1.999   1.321   1.020  2.3136  2.3037  2.3044
  696SOL     MW 2784   2.021   1.379   0.959  0.2168  0.6273  0.0374
  697SOL     OW 2785   2.873   0.947   2.256  0.1574 -0.9545  0.1097
  697SOL    HW1 2786   2.844   1.036   2.267 -0.3167  1.2476 -0.1583
  697SOL    HW2 2787   2.883   0.932   2.162 -1.3779 -2.8840  2.3977
  697SOL     MW 2788   2.870   0.956   2.245 -0.1077 -0.9185  0.3763
  698SOL     OW 2789   2.546   0.385   3.064 -0.0150 -0.9732  0.4549
  698SOL    HW1 2790   2.467   0.419   3.109  1.3722 -2.9861 -0.9333
  698SOL    HW2 2791   2.579   0.323   3.130 -3.3238 -3.3827  1.0083
  698SOL     MW 2792   2.540   0.381   3.079 -0.2686 -1.5567  0.3448
  699SOL     OW 2793   1.842   1.619   2.064  0.2468  0.0495  0.2147
  699SOL    HW1 2794   1.829   1.527   2.095  1.8529  1.8186  1.3215
  699SOL    HW2 2795   1.938   1.622   2.064 -0.0997  0.7152  0.7559
  699SOL     MW 2796   1.853   1.607   2.068  0.4130  0.3707  0.4321
  700SOL     OW 2797   2.731   0.882   1.539  0.3448 -0.2112 -0.5297
  700SOL    HW1 2798   2.726   0.978   1.510  0.0563 -0.0707 -1.3846
  700SOL    HW2 2799   2.816   0.859   1.501  1.0069  1.1342 -1.0823
  700SOL     MW 2800   2.742   0.892   1.530  0.3941 -0.0151 -0.7154
  701SOL     OW 2801   1.668   1.276   2.626 -0.1141 -0.6435  0.1458
  701SOL    HW1 2802   1.762   1.294   2.632  0.2204  1.4209 -0.9629
  701SOL    HW2 2803   1.629   1.331   2.700 -1.1089 -0.3531  1.4230
  701SOL     MW 2804   1.675   1.286   2.636 -0.2012 -0.3328  0.1681
  702SOL     OW 2805   2.219   0.484   0.757 -0.0271 -0.5562  0.6656
  702SOL    HW1 2806   2.178   0.405   0.733  0.9292  3.0518  0.8503
  702SOL    HW2 2807   2.218   0.536   0.678 -2.0007 -1.4074  0.1773
  702SOL     MW 2808   2.213   0.480   0.744 -0.1614 -0.1925  0.6256
  703SOL     OW 2809   2.665   1.272   0.986 -0.5471  0.1312 -0.7611
  703SOL    HW1 2810   2.673   1.268   0.887  0.7105  2.4263 -1.5193
  703SOL    HW2 2811   2.672   1.179   1.016  0.7196  0.2259  2.2976
  703SOL     MW 2812   2.667   1.259   0.977 -0.2140  0.4465 -0.4576
  704SOL     OW 2813   0.015   1.299   0.254  0.0867 -0.1878  0.3418
  704SOL    HW1 2814  -0.072   1.280   0.224 -0.6608  0.1668  0.9775
  704SOL    HW2 2815   0.067   1.214   0.244 -0.4821 -2.5780 -0.5325
  704SOL     MW 2816   0.011   1.285   0.248 -0.0870 -0.4563  0.3103
  705SOL     OW 2817   2.215   1.604   1.323 -0.5502 -0.7364 -0.2182
  705SOL    HW1 2818   2.131   1.612   1.372 -0.1353 -1.3000 -0.8782
  705SOL    HW2 2819   2.250   1.530   1.364 -0.7952  2.5338  0.5510
  705SOL     MW 2820   2.208   1.595   1.335 -0.5278 -0.3793 -0.2038
  706SOL     OW 2821   2.999   1.231   0.628  0.2053 -0.0585 -0.9484
  706SOL    HW1 2822   3.087   1.241   0.605 -1.6944  3.9275 -1.3646
  706SOL    HW2 2823   2.994   1.317   0.672  1.1310  0.6868  0.1509
  706SOL     MW 2824   3.010   1.244   0.630  0.0768  0.5658 -0.8583
  707SOL     OW 2825   2.449   0.123   1.024 -0.4902  0.0717  0.0920
  707SOL    HW1 2826   2.465   0.196   0.960 -1.7831 -0.5901 -0.4022
  707SOL    HW2 2827   2.359   0.099   1.009 -1.9588  1.3987  1.4173
  707SOL     MW 2828   2.439   0.129   1.014 -0.8545  0.1595  0.2017
  708SOL     OW 2829   2.539   1.523   0.075 -0.4737 -0.0404 -0.2536
  708SOL    HW1 2830   2.567   1.462   0.143  0.9796  1.4014  1.1188
  708SOL    HW2 2831   2.495   1.466   0.007 -0.2082 -3.4469 -2.1636
  708SOL     MW 2832   2.537   1.508   0.075 -0.2469 -0.2996 -0.3245
  709SOL     OW 2833   1.769   1.707   0.138 -0.4202  0.4136 -0.0510
  709SOL    HW1 2834   1.755   1.695   0.038  2.1432  2.3995 -2.2803
  709SOL    HW2 2835   1.696   1.670   0.183 -1.0369  1.1338  0.0112
  709SOL     MW 2836   1.757   1.701   0.131 -0.1634  0.7707 -0.3370
  710SOL     OW 2837   2.237   1.192   1.184  0.1555  0.0823 -0.8296
  710SOL    HW1 2838   2.254   1.183   1.093 -0.6173 -0.0463  1.8807
  710SOL    HW2 2839   2.234   1.109   1.232  0.8870 -0.5790  2.7498
  710SOL     MW 2840   2.239   1.180   1.178  0.1500 -0.0219  0.0003
  711SOL     OW 2841   2.349   0.157   1.738  0.7714  0.2250 -0.3863
  711SOL    HW1 2842   2.437   0.129   1.760 -1.4924  0.4108 -1.2815
  711SOL    HW2 2843   2.304   0.088   1.695 -1.4786  3.7299 -0.8095
  711SOL     MW 2844   2.354   0.144   1.735  0.1759  0.7120 -0.5602
  712SOL     OW 2845   1.594   0.628   3.087 -0.2160 -0.5381  0.4966
  712SOL    HW1 2846   1.646   0.667   3.015  2.2805 -0.5078 -0.0595
  712SOL    HW2 2847   1.504   0.644   3.056  0.2961 -1.8484  1.6093
  712SOL     MW 2848   1.589   0.635   3.073  0.1809 -0.7070  0.5700
  713SOL     OW 2849   2.593   0.782   1.148 -0.0346 -0.0317 -0.1903
  713SOL    HW1 2850   2.655   0.701   1.151  0.7261 -0.1435 -1.9567
  713SOL    HW2 2851   2.545   0.770   1.232 -1.9555  1.8001 -2.1109
  713SOL     MW 2852   2.595   0.770   1.159 -0.1877  0.1952 -0.6768
  714SOL     OW 2853   2.265   0.173   2.011  0.3696  0.2294 -0.1852
  714SOL    HW1 2854   2.321   0.132   2.078 -0.7638 -0.3557  0.5508
  714SOL    HW2 2855   2.310   0.179   1.923 -1.5467  0.8717  0.4118
  714SOL     MW 2856   2.278   0.168   2.009 -0.0328  0.2370 -0.0093
  715SOL     OW 2857   1.771   1.945   1.736  0.5873  0.3717  0.0295
  715SOL    HW1 2858   1.862   1.933   1.710 -0.6790 -0.3365  0.7809
  715SOL    HW2 2859   1.758   1.863   1.790 -2.3254 -2.4757 -0.0905
  715SOL     MW 2860   1.781   1.933   1.739  0.0359 -0.0975  0.1128
  716SOL     OW 2861   2.253   0.712   0.599  0.6772  0.3810 -0.3260
  716SOL    HW1 2862   2.324   0.709   0.532  2.1990 -2.3300 -2.7319
  716SOL    HW2 2863   2.168   0.740   0.557  0.4245  0.4189  1.2856
  716SOL     MW 2864   2.251   0.715   0.584  0.8446  0.0283 -0.4308
  717SOL     OW 2865   2.868   1.423   2.945 -0.7059 -0.1427 -0.2607
  717SOL    HW1 2866   2.951   1.438   2.900  1.9168  0.0076 -1.2390
  717SOL    HW2 2867   2.870   1.482   3.021  2.5682  0.1541  0.6988
  717SOL     MW 2868   2.879   1.433   2.949  0.0721 -0.0837 -0.2632
  718SOL     OW 2869   2.576   1.475   1.303  0.5860 -0.2403  0.5515
  718SOL    HW1 2870   2.603   1.535   1.367 -0.5340 -1.6161  0.2362
  718SOL    HW2 2871   2.651   1.425   1.283 -2.6629  0.0621 -2.2422
  718SOL     MW 2872   2.589   1.476   1.309  0.0096 -0.3819  0.1413
  719SOL     OW 2873   2.138   1.317   0.691  0.1574 -0.3221 -0.1077
  719SOL    HW1 2874   2.222   1.361   0.678 -0.4929  3.8902  0.3231
  719SOL    HW2 2875   2.130   1.298   0.788 -0.8687 -3.7919  0.4744
  719SOL     MW 2876   2.148   1.320   0.702 -0.0638 -0.2242  0.0260
  720SOL     OW 2877   2.878   1.189   0.161  0.8003 -0.1620  0.6662
  720SOL    HW1 2878   2.852   1.098   0.182  4.3810  2.0317 -1.5652
  720SOL    HW2 2879   2.809   1.253   0.192 -0.2401  1.7643 -1.4289
  720SOL     MW 2880   2.865   1.185   0.168  1.1355  0.3816  0.0954
  721SOL     OW 2881   2.478   0.781   1.396  0.3478  0.0035  0.2174
  721SOL    HW1 2882   2.459   0.691   1.409  0.5567  1.9300  2.1428
  721SOL    HW2 2883   2.551   0.810   1.444  0.2050  0.0270 -2.5565
  721SOL     MW 2884   2.485   0.773   1.404  0.3565  0.2608  0.1055
  722SOL     OW 2885   2.527   1.188   0.368  0.4356  0.3676  0.2929
  722SOL    HW1 2886   2.486   1.246   0.435  1.1065  0.4964  0.5660
  722SOL    HW2 2887   2.597   1.151   0.426  2.3721  0.6470  0.4562
  722SOL     MW 2888   2.531   1.190   0.384  0.7796  0.4215  0.3505
  723SOL     OW 2889   2.257   1.397   1.641  0.2292  0.2544  0.8382
  723SOL    HW1 2890   2.268   1.375   1.547 -0.8715  1.7612 -1.0091
  723SOL    HW2 2891   2.165   1.412   1.661  0.4016  0.0626  1.8235
  723SOL     MW 2892   2.247   1.396   1.631  0.1067  0.4279  0.7244
  724SOL     OW 2893   2.504   0.368   0.555  0.4723  0.0737 -0.1564
  724SOL    HW1 2894   2.466   0.341   0.641  0.0359 -0.1167  2.7601
  724SOL    HW2 2895   2.598   0.360   0.569  1.3583 -0.9918  1.1546
  724SOL     MW 2896   2.511   0.364   0.568  0.5316 -0.0920  0.4014
  725SOL     OW 2897   2.678   0.514   1.125  0.9417  0.2588 -0.0343
  725SOL    HW1 2898   2.715   0.523   1.216  0.4420 -3.0053  0.1737
  725SOL    HW2 2899   2.583   0.507   1.133 -1.6475  1.2353 -1.5489
  725SOL     MW 2900   2.670   0.514   1.138  0.5341 -0.0431 -0.2067
  726SOL     OW 2901   2.562   2.388   0.550 -0.0637 -0.0588  0.0571
  726SOL    HW1 2902   2.515   2.468   0.537 -0.4389  0.4158 -2.0042
  726SOL    HW2 2903   2.554   2.372   0.640 -0.4906 -2.1898 -0.7353
  726SOL     MW 2904   2.555   2.397   0.560 -0.1695 -0.2773 -0.3194
  727SOL     OW 2905   2.882   0.301   1.668 -0.7306  0.6151  0.2448
  727SOL    HW1 2906   2.902   0.330   1.575 -0.7422  1.2320 -0.9369
  727SOL    HW2 2907   2.788   0.307   1.664  1.2559  0.3866  1.7909
  727SOL     MW 2908   2.872   0.306   1.655 -0.4700  0.6664  0.2929
  728SOL     OW 2909   2.825   1.158   2.988  0.8595  0.3765 -0.1706
  728SOL    HW1 2910   2.838   1.244   2.949  2.4725  0.1963 -2.3282
  728SOL    HW2 2911   2.843   1.180   3.085  1.5822 -0.1319 -2.5049
  728SOL     MW 2912   2.829   1.172   2.996  1.1677  0.2857 -0.7633
  729SOL     OW 2913   2.475   1.464   1.032  0.4918  0.0946  0.8482
  729SOL    HW1 2914   2.471   1.472   1.130 -1.9247 -1.2763 -0.4379
  729SOL    HW2 2915   2.522   1.386   1.015 -1.6305 -1.2051  1.2812
  729SOL     MW 2916   2.481   1.455   1.043 -0.1070 -0.2577  0.7356
  730SOL     OW 2917   2.076   1.189   0.193  0.0285 -0.2273  0.4628
  730SOL    HW1 2918   2.167   1.160   0.177  1.1852  0.6820 -2.2673
  730SOL    HW2 2919   2.072   1.283   0.215  1.9272  1.6964  2.4208
  730SOL     MW 2920   2.087   1.198   0.194  0.4316  0.1465  0.3609
  731SOL     OW 2921   2.781   1.786   2.884 -0.5368 -0.6723 -0.0502
  731SOL    HW1 2922   2.691   1.802   2.860 -0.2968  0.4109  2.5852
  731SOL    HW2 2923   2.824   1.872   2.898 -0.5991 -0.2014  1.2200
  731SOL     MW 2924   2.775   1.800   2.883 -0.5133 -0.4672  0.4651
  732SOL     OW 2925   2.223   0.933   1.310 -0.0263 -0.3924  0.7003
  732SOL    HW1 2926   2.155   0.947   1.376 -0.9787  2.1725  2.6338
  732SOL    HW2 2927   2.259   0.848   1.338  0.4822  2.7099 -1.5071
  732SOL     MW 2928   2.219   0.923   1.323 -0.0848  0.3553  0.6642
  733SOL     OW 2929   2.369   2.865   2.988 -0.0300  0.5766 -0.3910
  733SOL    HW1 2930   2.286   2.920   2.994 -0.3480  2.4053 -1.1071
  733SOL    HW2 2931   2.335   2.776   3.006 -3.0262 -0.4370  1.4887
  733SOL     MW 2932   2.353   2.860   2.991 -0.4672  0.6842 -0.2374
  734SOL     OW 2933   1.507   0.373   2.528 -0.1928 -0.3050 -0.2929
  734SOL    HW1 2934   1.424   0.344   2.577  0.4486 -1.1663  0.0806
  734SOL    HW2 2935   1.529   0.298   2.477 -1.5882 -1.8970 -2.6341
  734SOL     MW 2936   1.499   0.359   2.528 -0.2923 -0.6287 -0.5525
  735SOL     OW 2937   2.974   0.868   2.717  0.4245 -0.1385 -0.0596
  735SOL    HW1 2938   2.882   0.847   2.689  2.3799  1.4211 -2.9307
  735SOL    HW2 2939   2.974   0.886   2.810 -0.4423  1.0818 -1.7856
  735SOL     MW 2940   2.962   0.868   2.726  0.5681  0.2283 -0.6662
  736SOL     OW 2941   0.052   0.624   2.470  0.4669 -0.4604  0.0759
  736SOL    HW1 2942   0.100   0.669   2.398 -0.8156  0.8075 -0.2278
  736SOL    HW2 2943   0.022   0.534   2.441 -0.7388 -1.9866  1.0048
  736SOL     MW 2944   0.055   0.618   2.457  0.1386 -0.4945  0.1584
  737SOL     OW 2945   2.886   0.616   2.557 -0.2875 -0.1657 -0.1953
  737SOL    HW1 2946   2.839   0.592   2.480  0.0672  0.3067  1.5423
  737SOL    HW2 2947   2.979   0.640   2.533  0.2562  0.6526  0.4233
  737SOL     MW 2948   2.892   0.616   2.544 -0.1690  0.0046  0.1156
  738SOL     OW 2949   0.166   0.431   1.921  0.0247  0.5704  0.1668
  738SOL    HW1 2950   0.247   0.472   1.924  0.8945 -2.2797  2.0392
  738SOL    HW2 2951   0.162   0.379   1.842 -1.5446 -0.7664  0.7394
  738SOL     MW 2952   0.176   0.429   1.911 -0.0676  0.0180  0.4894
  739SOL     OW 2953   2.552   1.025   2.203 -0.1054 -0.3332 -0.3032
  739SOL    HW1 2954   2.475   1.031   2.148 -1.0082  0.9429  0.5965
  739SOL    HW2 2955   2.616   1.069   2.149 -1.6308  1.2951  1.1875
  739SOL     MW 2956   2.550   1.032   2.189 -0.4258  0.0500  0.0122
  740SOL     OW 2957   0.256   1.702   2.959 -0.1819  0.0229  0.6014
  740SOL    HW1 2958   0.215   1.617   2.976 -1.5772 -0.4195  1.6798
  740SOL    HW2 2959   0.347   1.701   2.997  0.3580 -2.0183 -1.8754
  740SOL     MW 2960   0.263   1.691   2.967 -0.2948 -0.3048  0.4169
  741SOL     OW 2961   2.219   1.279   2.709 -0.2753 -0.3103  0.7076
  741SOL    HW1 2962   2.237   1.368   2.673 -1.0078 -1.0250  0.3419
  741SOL    HW2 2963   2.208   1.277   2.811  0.2975 -0.6913  1.8955
  741SOL     MW 2964   2.220   1.290   2.717 -0.2963 -0.4549  0.8161
  742SOL     OW 2965   1.595   1.375   2.340  0.3513 -0.1484  0.4860
  742SOL    HW1 2966   1.560   1.298   2.298  1.0657  3.1317 -2.2565
  742SOL    HW2 2967   1.620   1.349   2.430 -0.9985  0.2503 -1.5574
  742SOL     MW 2968   1.594   1.361   2.346  0.2675  0.3370 -0.1454
  743SOL     OW 2969   2.495   1.213   2.706  0.4806  0.1565  0.2742
  743SOL    HW1 2970   2.404   1.208   2.695  2.8599  2.5530 -2.5624
  743SOL    HW2 2971   2.520   1.144   2.770 -1.0645 -1.7784  2.2393
  743SOL     MW 2972   2.486   1.204   2.713  0.5906  0.2174  0.1592
  744SOL     OW 2973   2.777   0.930   1.803  0.2740 -0.3843 -0.3204
  744SOL    HW1 2974   2.691   0.961   1.834 -2.7642 -2.3355 -2.0424
  744SOL    HW2 2975   2.767   0.895   1.713  0.1903  0.3659 -0.4768
  744SOL     MW 2976   2.764   0.929   1.795 -0.1379 -0.5427 -0.5682
  745SOL     OW 2977   1.747   0.495   2.448 -0.6788  0.3149 -0.9125
  745SOL    HW1 2978   1.729   0.509   2.351  2.0947 -1.1713  2.3506
  745SOL    HW2 2979   1.664   0.451   2.487  3.1531 -1.9122  3.2783
  745SOL     MW 2980   1.733   0.491   2.441  0.1927 -0.1751  0.0709
  746SOL     OW 2981   1.573   1.452   1.713 -0.4997  0.5388 -0.1002
  746SOL    HW1 2982   1.637   1.521   1.735  1.6366  2.3131 -2.4793
  746SOL    HW2 2983   1.548   1.404   1.794 -0.0130 -2.0923  2.1016
  746SOL     MW 2984   1.578   1.455   1.727 -0.1536  0.4257 -0.1236
  747SOL     OW 2985   2.599   1.135   1.903 -0.4046 -0.0237 -0.3050
  747SOL    HW1 2986   2.513   1.128   1.856 -1.8487 -0.7529 -1.6999
  747SOL    HW2 2987   2.598   1.229   1.936  2.0368  1.8155  0.8047
  747SOL     MW 2988   2.587   1.147   1.901 -0.2730  0.1227 -0.3426
  748SOL     OW 2989   0.107   3.090   1.961 -0.4881  0.3203 -0.7757
  748SOL    HW1 2990   0.189   3.134   1.923 -0.0259  4.4694 -0.6730
  748SOL    HW2 2991   0.076   3.171   2.001 -0.2847  1.8602 -1.3599
  748SOL     MW 2992   0.114   3.107   1.962 -0.4003  1.0709 -0.8392
  749SOL     OW 2993   2.421   0.654   2.763 -0.0599  0.1695 -0.1825
  749SOL    HW1 2994   2.428   0.727   2.698 -2.1041 -1.7347  0.8095
  749SOL    HW2 2995   2.468   0.688   2.849 -0.0549  0.3033 -2.0332
  749SOL     MW 2996   2.428   0.668   2.766 -0.3289 -0.0641 -0.2958
  750SOL     OW 2997   2.121   3.002   1.956  0.4878 -0.4828 -0.4913
  750SOL    HW1 2998   2.165   3.090   1.965 -0.4779 -0.3050 -2.2721
  750SOL    HW2 2999   2.196   2.947   1.929 -1.9703  1.3378 -2.3442
  750SOL     MW 3000   2.137   3.006   1.953  0.0361 -0.2191 -0.9707
  751SOL     OW 3001   3.095   0.367   2.443 -0.4340 -0.2076  0.4580
  751SOL    HW1 3002   3.015   0.336   2.385 -3.6236  2.4938 -0.7148
  751SOL    HW2 3003   3.173   0.351   2.389 -1.0436  0.7183  2.6709
  751SOL     MW 3004   3.095   0.361   2.428 -0.9352  0.2710  0.5953
  752SOL     OW 3005   2.133   0.937   2.812 -0.8672 -0.7286 -0.1149
  752SOL    HW1 3006   2.222   0.942   2.847  0.0296 -0.3946 -0.1612
  752SOL    HW2 3007   2.086   0.856   2.838 -0.5990 -0.2134  2.1947
  752SOL     MW 3008   2.138   0.927   2.820 -0.7135 -0.6165  0.1837
  753SOL     OW 3009   2.874   0.297   2.319 -0.2789 -0.5192 -0.5765
  753SOL    HW1 3010   2.844   0.202   2.330  1.0532  0.4682  1.2734
  753SOL    HW2 3011   2.801   0.356   2.342  2.5150 -0.8706 -0.1322
  753SOL     MW 3012   2.860   0.292   2.323  0.2655 -0.4353 -0.2738
  754SOL     OW 3013   2.257   3.002   2.614 -0.2674 -0.1833  0.0224
  754SOL    HW1 3014   2.302   2.959   2.542  0.4912  1.6853 -0.1753
  754SOL    HW2 3015   2.322   2.981   2.686 -0.8384 -1.3165  0.6209
  754SOL     MW 3016   2.271   2.994   2.614 -0.2427 -0.0863  0.0753
  755SOL     OW 3017   2.766   1.617   2.397  0.4756  0.2210  0.3477
  755SOL    HW1 3018   2.728   1.525   2.398 -0.4938 -0.9629 -1.6813
  755SOL    HW2 3019   2.772   1.637   2.490 -2.5091 -0.6796 -1.9087
  755SOL     MW 3020   2.762   1.608   2.410 -0.0461 -0.0541 -0.2177
  756SOL     OW 3021   2.171   1.257   2.962 -0.4408  0.3940  0.2572
  756SOL    HW1 3022   2.250   1.300   2.992 -0.1840 -0.2440  0.3297
  756SOL    HW2 3023   2.198   1.165   2.956 -0.4559  2.2581  0.2327
  756SOL     MW 3024   2.185   1.250   2.965 -0.4089  0.5558  0.2636
  757SOL     OW 3025   2.194   0.944   1.749 -0.0370 -0.4683  0.2179
  757SOL    HW1 3026   2.184   0.847   1.764  0.3584 -0.3077  4.2488
  757SOL    HW2 3027   2.142   0.972   1.667 -0.6560  0.3205  1.0463
  757SOL     MW 3028   2.186   0.935   1.740 -0.0665 -0.3430  0.8590
  758SOL     OW 3029   2.205   1.833   2.570  0.9242  0.0027  0.9742
  758SOL    HW1 3030   2.189   1.892   2.488 -2.4141  0.0712  2.2597
  758SOL    HW2 3031   2.296   1.809   2.577 -0.5598  0.8591  0.6483
  758SOL     MW 3032   2.215   1.838   2.560  0.2880  0.1248  1.1008
  759SOL     OW 3033   1.584   1.464   2.802 -0.2185  0.0818  0.1837
  759SOL    HW1 3034   1.592   1.528   2.724  1.4243  0.8462 -1.5231
  759SOL    HW2 3035   1.653   1.468   2.870  3.0265  0.3363  0.7840
  759SOL     MW 3036   1.594   1.473   2.801  0.4264  0.2162  0.0377
  760SOL     OW 3037   2.596   1.926   2.713  0.4245 -0.0857  0.3083
  760SOL    HW1 3038   2.547   1.846   2.704 -0.3399  0.3581 -0.0104
  760SOL    HW2 3039   2.665   1.923   2.649 -3.5217  0.6612 -1.3178
  760SOL     MW 3040   2.599   1.915   2.704 -0.1970  0.0714  0.0517
  761SOL     OW 3041   2.287   0.450   2.417 -0.9015  0.2577  0.5148
  761SOL    HW1 3042   2.194   0.423   2.425  0.2125 -0.6444 -1.6305
  761SOL    HW2 3043   2.324   0.432   2.502  3.1637  0.0171 -1.9079
  761SOL     MW 3044   2.280   0.444   2.429 -0.2182  0.1070 -0.0879
  762SOL     OW 3045   0.027   0.176   2.108  0.0705 -0.0331  0.0395
  762SOL    HW1 3046  -0.009   0.110   2.170 -0.1911 -0.0337 -1.4822
  762SOL    HW2 3047  -0.039   0.245   2.091 -0.6116  0.8432  1.9582
  762SOL     MW 3048   0.014   0.176   2.114 -0.0540  0.0824  0.0918
  763SOL     OW 3049   2.458   1.213   2.368  0.4020 -0.5095 -0.4150
  763SOL    HW1 3050   2.488   1.153   2.297  0.4694  0.6146  0.4552
  763SOL    HW2 3051   2.530   1.256   2.408 -2.3810  1.6924  0.1892
  763SOL     MW 3052   2.472   1.210   2.364  0.0437 -0.0707 -0.2205
  764SOL     OW 3053   0.390   0.069   2.812  0.0508  0.5369  0.4730
  764SOL    HW1 3054   0.314   0.116   2.786  0.0587  3.9965 -2.3306
  764SOL    HW2 3055   0.418   0.115   2.894 -0.5936  1.2474 -1.0417
  764SOL     MW 3056   0.384   0.082   2.820 -0.0332  1.0871 -0.0968
  765SOL     OW 3057   2.759   0.029   2.315 -0.3387  0.9543 -0.2896
  765SOL    HW1 3058   2.710   0.022   2.233  0.7573  0.5613 -3.5424
  765SOL    HW2 3059   2.764  -0.059   2.349 -0.0116  0.9711 -1.1747
  765SOL     MW 3060   2.753   0.017   2.309 -0.1509  0.9047 -0.8356
  766SOL     OW 3061   1.904   2.982   2.164  0.0101 -0.0241 -0.3891
  766SOL    HW1 3062   1.961   2.986   2.093  0.2444  2.9800  0.3329
  766SOL    HW2 3063   1.841   2.906   2.148 -2.6099  2.8967 -1.8759
  766SOL     MW 3064   1.904   2.972   2.152 -0.3047  0.7576 -0.4900
  767SOL     OW 3065   2.676   0.646   1.876  0.3831  0.2284 -0.3799
  767SOL    HW1 3066   2.706   0.694   1.956  2.1665 -0.2232 -0.3315
  767SOL    HW2 3067   2.629   0.707   1.821  1.1238  1.3928 -0.3037
  767SOL     MW 3068   2.674   0.661   1.879  0.7162  0.3224 -0.3635
  768SOL     OW 3069   0.062   1.467   2.937 -0.6170  0.0238  0.7909
  768SOL    HW1 3070   0.074   1.501   3.030  3.3323  0.0895  3.7406
  768SOL    HW2 3071   0.085   1.374   2.949 -1.4076  1.1654 -1.6570
  768SOL     MW 3072   0.067   1.459   2.951 -0.2002  0.1831  0.8571
  769SOL     OW 3073   2.393   0.708   2.325 -0.2113 -0.1259 -0.1946
  769SOL    HW1 3074   2.333   0.631   2.323  1.7434  1.2416 -2.2961
  769SOL    HW2 3075   2.450   0.702   2.250 -2.0643  1.9168  2.9583
  769SOL     MW 3076   2.392   0.697   2.315 -0.1979  0.3241 -0.0559
  770SOL     OW 3077   0.004   1.578   2.663  0.4153 -0.1492 -0.3333
  770SOL    HW1 3078  -0.090   1.563   2.659 -1.3501 -1.0292 -1.3076
  770SOL    HW2 3079   0.031   1.515   2.729 -0.0681  1.8245 -0.6127
  770SOL     MW 3080  -0.005   1.568   2.671  0.1186 -0.0049 -0.4987
  771SOL     OW 3081   3.075   0.601   1.984 -0.5160  0.4300 -0.0306
  771SOL    HW1 3082   3.025   0.591   1.898  1.8156  2.4956 -1.4239
  771SOL    HW2 3083   3.146   0.523   1.974 -1.0987 -0.3165 -1.6952
  771SOL     MW 3084   3.077   0.589   1.971 -0.2852  0.6040 -0.4341
  772SOL     OW 3085   0.013   0.016   2.337  1.0062 -0.3335 -0.2649
  772SOL    HW1 3086  -0.066  -0.029   2.378 -3.1926  1.3454  0.0178
  772SOL    HW2 3087   0.065  -0.060   2.311 -0.0493  0.5847  2.4429
  772SOL     MW 3088   0.009  -0.000   2.339  0.3129  0.0091  0.1297
  773SOL     OW 3089   2.467   2.933   2.758  0.0711 -0.0617  0.0549
  773SOL    HW1 3090   2.495   2.854   2.710  2.6697  0.6979 -1.7875
  773SOL    HW2 3091   2.440   2.904   2.851 -0.3400 -1.7851  0.4524
  773SOL     MW 3092   2.467   2.919   2.764  0.3597 -0.1889 -0.1357
  774SOL     OW 3093   2.380   1.154   1.737 -0.0513 -0.0748 -0.3300
  774SOL    HW1 3094   2.343   1.234   1.688  1.6369  2.9748  0.9131
  774SOL    HW2 3095   2.313   1.095   1.761  1.0120 -0.3195  1.0716
  774SOL     MW 3096   2.366   1.157   1.734  0.3118  0.2953  0.0189
  775SOL     OW 3097   2.337   2.864   2.378  0.1729 -0.0145 -0.2301
  775SOL    HW1 3098   2.374   2.943   2.338  0.2266 -0.9987 -1.9289
  775SOL    HW2 3099   2.395   2.787   2.361  0.9264 -2.5910 -0.2749
  775SOL     MW 3100   2.349   2.864   2.370  0.2794 -0.4843 -0.4602
  776SOL     OW 3101   0.141   1.490   0.095 -0.2129 -0.3819  0.2434
  776SOL    HW1 3102   0.224   1.437   0.096  0.8414 -0.1557  3.1192
  776SOL    HW2 3103   0.077   1.429   0.130  0.3754  0.4167  0.3985
  776SOL     MW 3104   0.144   1.475   0.100  0.0038 -0.2467  0.6433
  777SOL     OW 3105   2.948   1.121   1.712 -0.2590  0.1603  0.5425
  777SOL    HW1 3106   2.884   1.170   1.654 -4.1551  2.0171 -1.8199
  777SOL    HW2 3107   2.887   1.071   1.760  1.1938  1.1334 -1.9770
  777SOL     MW 3108   2.932   1.121   1.711 -0.5814  0.5337 -0.1016
  778SOL     OW 3109   2.934   0.496   2.788  0.1960  0.2214 -0.5287
  778SOL    HW1 3110   2.887   0.548   2.852 -2.1502 -0.3025 -1.9873
  778SOL    HW2 3111   2.921   0.540   2.701  1.1021  0.7201 -1.4861
  778SOL     MW 3112   2.926   0.509   2.785  0.0060  0.2181 -0.8474
  779SOL     OW 3113   2.225   0.495   2.114  0.2188 -0.7908  0.0870
  779SOL    HW1 3114   2.162   0.544   2.174 -0.2840 -0.0752  1.0987
  779SOL    HW2 3115   2.257   0.422   2.176  1.8788 -3.0312 -1.6002
  779SOL     MW 3116   2.221   0.492   2.130  0.3715 -0.9920 -0.0022
  780SOL     OW 3117   0.218   0.261   2.702  0.3043  0.2959  0.2683
  780SOL    HW1 3118   0.139   0.309   2.744 -0.3686  0.0521  2.6993
  780SOL    HW2 3119   0.292   0.317   2.730  0.7908 -0.3611  0.7119
  780SOL     MW 3120   0.217   0.275   2.711  0.2797  0.1771  0.6476
  781SOL     OW 3121   0.022   1.241   2.444 -0.1479  0.5376  0.7270
  781SOL    HW1 3122   0.057   1.265   2.354  1.7029  1.7909  1.3829
  781SOL    HW2 3123  -0.023   1.158   2.438  1.1165 -0.8432 -1.6179
  781SOL     MW 3124   0.021   1.233   2.431  0.2631  0.5208  0.5041
  782SOL     OW 3125   0.703   1.494   0.046 -0.6463 -0.3559  0.2004
  782SOL    HW1 3126   0.626   1.557   0.021 -2.2040  0.8992 -0.1705
  782SOL    HW2 3127   0.734   1.511   0.135  1.0554  1.0811 -1.0359
  782SOL     MW 3128   0.697   1.505   0.054 -0.6273 -0.0007 -0.0117
  783SOL     OW 3129   2.699   0.501   2.370  0.4561 -0.0492 -0.1428
  783SOL    HW1 3130   2.691   0.582   2.321 -1.0898 -2.1638  1.2523
  783SOL    HW2 3131   2.622   0.495   2.429  2.2461 -0.6682 -0.9246
  783SOL     MW 3132   2.688   0.511   2.371  0.4883 -0.4099 -0.0618
  784SOL     OW 3133   0.175   0.823   2.820  0.3508  0.6239  0.2472
  784SOL    HW1 3134   0.084   0.843   2.792 -1.6052  1.7086  0.6378
  784SOL    HW2 3135   0.238   0.874   2.771  2.1580 -2.1660  0.1198
  784SOL     MW 3136   0.171   0.832   2.810  0.3311  0.3989  0.2820
  785SOL     OW 3137   0.424   0.400   2.160 -0.5437 -0.4786 -0.1628
  785SOL    HW1 3138   0.416   0.439   2.072  0.4062  0.7680  0.3810
  785SOL    HW2 3139   0.333   0.375   2.189 -0.6432 -1.4555  1.8679
  785SOL     MW 3140   0.411   0.402   2.152 -0.4315 -0.4431  0.1769
  786SOL     OW 3141   1.877   0.491   3.071 -0.2279 -0.2157  0.8294
  786SOL    HW1 3142   1.878   0.525   3.155 -0.4992 -1.1751  1.5716
  786SOL    HW2 3143   1.791   0.497   3.037  2.7528  0.9892  1.2343
  786SOL     MW 3144   1.866   0.496   3.077  0.1296 -0.1833  0.9807
  787SOL     OW 3145   2.411   0.200   2.923  0.3583  0.3951 -0.0980
  787SOL    HW1 3146   2.482   0.135   2.913  2.2523 -1.3845  1.9760
  787SOL    HW2 3147   2.464   0.271   2.966  1.9189  0.9272  1.7586
  787SOL     MW 3148   2.427   0.201   2.927  0.8141  0.2305  0.4206
  788SOL     OW 3149   2.910   2.914   2.420 -0.1597  0.6446  0.8950
  788SOL    HW1 3150   2.969   2.887   2.497  0.2099  0.5968  1.2109
  788SOL    HW2 3151   2.925   2.843   2.360 -3.2115  1.2759  1.3244
  788SOL     MW 3152   2.920   2.901   2.423 -0.5136  0.7216  0.9933
  789SOL     OW 3153   0.105   0.188   0.044  0.1113 -0.5679 -0.0909
  789SOL    HW1 3154   0.023   0.133   0.046  0.5659  2.7017 -2.2218
  789SOL    HW2 3155   0.063   0.259  -0.007 -0.1529 -1.3583  0.5055
  789SOL     MW 3156   0.089   0.190   0.038  0.1364 -0.2408 -0.2934
  790SOL     OW 3157   3.035   0.978   2.471  0.0597  0.6001  0.2019
  790SOL    HW1 3158   2.998   0.941   2.544  0.5990  1.6166 -1.7216
  790SOL    HW2 3159   2.974   0.947   2.395  2.9262 -0.4492 -0.7680
  790SOL     MW 3160   3.022   0.969   2.470  0.5091  0.5957 -0.1799
  791SOL     OW 3161   2.540   0.482   2.588  0.1248 -0.6233  0.6249
  791SOL    HW1 3162   2.505   0.538   2.666 -0.4625  2.8048 -0.7966
  791SOL    HW2 3163   2.568   0.397   2.625 -1.1716 -3.1279 -0.2111
  791SOL     MW 3164   2.539   0.478   2.604 -0.1238 -0.5015  0.3270
  792SOL     OW 3165   2.463   0.203   2.458 -0.2644 -0.1194 -0.0273
  792SOL    HW1 3166   2.446   0.282   2.408  1.0860 -0.2550  2.3798
  792SOL    HW2 3167   2.394   0.212   2.528 -2.6580 -1.1639  0.7813
  792SOL     MW 3168   2.451   0.215   2.461 -0.4021 -0.2751  0.3970
  793SOL     OW 3169   1.787   1.117   2.026 -0.4385 -0.1619 -0.6879
  793SOL    HW1 3170   1.757   1.094   1.937 -1.0673  0.7333 -2.4400
  793SOL    HW2 3171   1.882   1.102   2.022 -2.4596 -1.4209  1.3962
  793SOL     MW 3172   1.796   1.112   2.014 -0.7882 -0.2099 -0.6441
  794SOL     OW 3173   1.376   2.317   0.110 -0.2815  0.3130 -0.1704
  794SOL    HW1 3174   1.436   2.378   0.053  0.4542 -0.8735  1.0870
  794SOL    HW2 3175   1.434   2.296   0.183  4.2867 -1.0473  0.2073
  794SOL     MW 3176   1.391   2.322   0.112  0.4183 -0.0230  0.0453
  795SOL     OW 3177   2.282   1.066   2.520  0.0071  0.4201  0.4145
  795SOL    HW1 3178   2.241   1.134   2.571  0.5986  1.9843 -0.5655
  795SOL    HW2 3179   2.351   1.115   2.482  0.8907  0.2731 -0.8336
  795SOL     MW 3180   2.286   1.081   2.521  0.2018  0.6071  0.1205
  796SOL     OW 3181   0.253   0.593   2.671  0.1020 -0.0202 -0.3928
  796SOL    HW1 3182   0.231   0.658   2.735  1.1520  0.8923 -1.5276
  796SOL    HW2 3183   0.170   0.588   2.617 -1.1977 -1.9680  0.6298
  796SOL     MW 3184   0.239   0.601   2.672  0.0690 -0.1568 -0.4076
  797SOL     OW 3185   2.729   0.215   2.627 -0.6778  0.0581 -0.2582
  797SOL    HW1 3186   2.728   0.184   2.541  0.5650 -0.5819 -0.8152
  797SOL    HW2 3187   2.817   0.245   2.636 -1.1071 -2.2544 -2.7286
  797SOL     MW 3188   2.740   0.215   2.617 -0.5705 -0.3315 -0.6577
  798SOL     OW 3189   2.432   0.018   2.267  0.0995  0.1571 -0.2392
  798SOL    HW1 3190   2.455   0.082   2.343 -0.6545 -0.6244  0.8679
  798SOL    HW2 3191   2.504   0.023   2.202  0.2917  0.7885 -2.3767
  798SOL     MW 3192   2.445   0.027   2.269  0.0254  0.1373 -0.3751
  799SOL     OW 3193   2.563   3.043   0.091 -0.1238 -0.3037  0.3389
  799SOL    HW1 3194   2.481   3.031   0.038 -0.2554  0.1288 -0.6816
  799SOL    HW2 3195   2.532   3.032   0.186  0.9126  1.8016  0.4415
  799SOL     MW 3196   2.548   3.040   0.097 -0.0044  0.0311  0.2178
  800SOL     OW 3197   1.940   2.993   1.759 -0.2035  0.1574  0.5505
  800SOL    HW1 3198   1.859   2.954   1.794 -2.3425  0.5964  0.1711
  800SOL    HW2 3199   2.001   2.985   1.836  3.2392  1.0001  1.4853
  800SOL     MW 3200   1.937   2.987   1.774 -0.0315  0.3265  0.6238
  801SOL     OW 3201   2.892   1.226   2.607 -0.2329 -0.3956  0.3538
  801SOL    HW1 3202   2.913   1.139   2.638 -1.1907  1.1754 -1.0168
  801SOL    HW2 3203   2.966   1.258   2.553 -0.6510 -0.9817 -0.8804
  801SOL     MW 3204   2.905   1.219   2.604 -0.4145 -0.2657  0.0101
  802SOL     OW 3205   2.622   1.435   2.803 -0.7226  0.3309 -0.5678
  802SOL    HW1 3206   2.614   1.343   2.764 -2.4441  2.5292  0.4167
  802SOL    HW2 3207   2.704   1.436   2.867  1.4000  1.0678  2.8586
  802SOL     MW 3208   2.632   1.423   2.806 -0.6697  0.7182  0.0142
  803SOL     OW 3209   2.318   1.422   2.001 -0.3008 -0.2187  0.0919
  803SOL    HW1 3210   2.300   1.390   2.087  0.7369  1.7043  0.4045
  803SOL    HW2 3211   2.294   1.352   1.942  1.4147 -1.6039  1.6807
  803SOL     MW 3212   2.312   1.408   2.004  0.0625 -0.1477  0.3428
  804SOL     OW 3213   2.270   0.135   0.043  0.3416 -0.1167 -0.2267
  804SOL    HW1 3214   2.190   0.185   0.045 -1.9840 -1.3485 -0.1048
  804SOL    HW2 3215   2.326   0.163  -0.036 -0.0312 -1.2984  2.2651
  804SOL     MW 3216   2.267   0.145   0.033 -0.0144 -0.4352  0.1181
  805SOL     OW 3217   2.717   0.839   2.648 -0.1114  0.5001  0.0161
  805SOL    HW1 3218   2.630   0.862   2.617  0.3248  1.6090 -0.7355
  805SOL    HW2 3219   2.739   0.747   2.630 -0.2920 -1.4374  0.0602
  805SOL     MW 3220   2.709   0.830   2.642 -0.0776  0.3907 -0.0772
  806SOL     OW 3221   2.670   0.725   2.212 -0.3821 -0.2074  0.5009
  806SOL    HW1 3222   2.743   0.752   2.155  0.0959  0.4636  0.4691
  806SOL    HW2 3223   2.650   0.799   2.267  1.0518  0.5738  1.0911
  806SOL     MW 3224   2.677   0.738   2.212 -0.1298 -0.0158  0.5746
  807SOL     OW 3225   0.019   1.088   2.039  0.7001 -0.3701 -0.5952
  807SOL    HW1 3226   0.043   0.990   2.036  2.1222 -0.5110  1.2594
  807SOL    HW2 3227  -0.057   1.103   1.994  1.3942  0.1528  3.1437
  807SOL     MW 3228   0.013   1.077   2.033  0.9793 -0.3197  0.1428
  808SOL     OW 3229   2.604   0.047   2.823  0.4315  0.0846 -0.2300
  808SOL    HW1 3230   2.540  -0.017   2.787 -1.2946  2.8742  0.6128
  808SOL    HW2 3231   2.626   0.104   2.752 -3.4366 -3.1145  2.7847
  808SOL     MW 3232   2.599   0.046   2.809 -0.3066  0.0306  0.2790
  809SOL     OW 3233   2.678   1.351   2.423  0.2978 -0.1295  0.2512
  809SOL    HW1 3234   2.723   1.318   2.497 -1.5845  0.7581 -1.4757
  809SOL    HW2 3235   2.741   1.322   2.353 -1.0875 -0.1077 -0.0031
  809SOL     MW 3236   2.692   1.343   2.424 -0.1334 -0.0095 -0.0102
  810SOL     OW 3237   2.235   1.305   2.247 -0.3632  0.4608  0.0164
  810SOL    HW1 3238   2.311   1.275   2.298 -1.4369 -1.3474 -0.1563
  810SOL    HW2 3239   2.165   1.247   2.271  0.1688  1.1179  1.2100
  810SOL     MW 3240   2.235   1.294   2.257 -0.4346  0.3089  0.1511
  811SOL     OW 3241   1.617   0.176   2.286 -0.2527 -0.3667  0.6914
  811SOL    HW1 3242   1.701   0.139   2.321 -1.1631  1.3033  0.0362
  811SOL    HW2 3243   1.634   0.187   2.186 -3.5654 -2.1043 -0.8476
  811SOL     MW 3244   1.631   0.172   2.277 -0.8099 -0.3756  0.4019
  812SOL     OW 3245   1.477   2.832   2.045 -0.3306  0.7534  0.1631
  812SOL    HW1 3246   1.564   2.796   2.046 -0.6986  2.4541  0.2295
  812SOL    HW2 3247   1.456   2.836   2.139 -0.1191  1.1295 -0.5131
  812SOL     MW 3248   1.485   2.828   2.058 -0.3513  1.0274  0.0827
  813SOL     OW 3249   2.025   0.630   2.248 -0.1199  0.0619 -0.1950
  813SOL    HW1 3250   1.931   0.614   2.216  2.1661 -0.7133 -0.3931
  813SOL    HW2 3251   2.011   0.679   2.326 -1.0020  0.6759  1.3520
  813SOL     MW 3252   2.010   0.634   2.254  0.0654  0.0406 -0.0170
  814SOL     OW 3253   2.707   1.288   1.643 -0.1938 -0.1172  0.1154
  814SOL    HW1 3254   2.641   1.241   1.698  0.1887 -2.8150 -0.9101
  814SOL    HW2 3255   2.712   1.242   1.558  3.1967 -3.0659  0.9706
  814SOL     MW 3256   2.699   1.276   1.639  0.3040 -0.8622  0.0929
  815SOL     OW 3257   2.521   1.764   2.407 -0.5338 -0.0430  0.5387
  815SOL    HW1 3258   2.479   1.692   2.353 -0.8834 -0.9722 -1.8527
  815SOL    HW2 3259   2.617   1.754   2.398  0.1330  1.5318  2.4545
  815SOL     MW 3260   2.528   1.753   2.399 -0.4919  0.0422  0.4759
  816SOL     OW 3261   0.729   0.676   2.808  0.3221 -0.2383  0.2658
  816SOL    HW1 3262   0.737   0.590   2.770 -2.7902 -0.3108 -2.4694
  816SOL    HW2 3263   0.645   0.691   2.769  1.9265 -3.4434 -1.3198
  816SOL     MW 3264   0.719   0.666   2.798  0.1231 -0.6707 -0.3043
  817SOL     OW 3265   2.993   1.261   1.441 -0.1487 -0.4683  0.3261
  817SOL    HW1 3266   3.072   1.245   1.489  1.3332  2.7848 -2.4350
  817SOL    HW2 3267   2.991   1.360   1.442  1.4024  2.9337 -1.6001
  817SOL     MW 3268   3.004   1.272   1.447  0.2515  0.4098 -0.2923
  818SOL     OW 3269   1.941   1.040   2.639  0.0382  0.0664 -0.2470
  818SOL    HW1 3270   1.976   0.978   2.586 -2.7365 -0.3312  4.9051
  818SOL    HW2 3271   2.009   1.042   2.704 -0.5015  1.2745 -2.6054
  818SOL     MW 3272   1.955   1.032   2.641 -0.3991  0.1733  0.1216
  819SOL     OW 3273   2.002   0.356   2.443 -0.6122  0.2770  0.4688
  819SOL    HW1 3274   1.922   0.409   2.432  0.1875  0.7527  0.9217
  819SOL    HW2 3275   1.995   0.333   2.532 -4.2553  0.2725 -2.4302
  819SOL     MW 3276   1.990   0.360   2.453 -0.9873  0.3392  0.1460
  820SOL     OW 3277   2.478   1.681   2.669 -0.2438 -0.1711 -0.0729
  820SOL    HW1 3278   2.543   1.626   2.712 -2.3930 -1.8476 -0.2753
  820SOL    HW2 3279   2.506   1.689   2.579  0.6024  0.3598  1.4698
  820SOL     MW 3280   2.490   1.675   2.663 -0.4157 -0.3223  0.1039
  821SOL     OW 3281   2.606   1.386   1.992 -0.5972 -0.1209 -0.4372
  821SOL    HW1 3282   2.627   1.461   1.936  0.0249  2.1298  0.3886
  821SOL    HW2 3283   2.510   1.409   2.009 -0.3816 -1.4598  1.6646
  821SOL     MW 3284   2.596   1.399   1.987 -0.4867 -0.0006 -0.0509
  822SOL     OW 3285   2.943   2.731   1.508 -0.2640  0.5681 -0.1941
  822SOL    HW1 3286   2.948   2.695   1.601 -0.0309  0.7445 -2.4735
  822SOL    HW2 3287   2.925   2.825   1.519  0.6556 -0.9788 -0.3637
  822SOL     MW 3288   2.941   2.739   1.522 -0.1119  0.3873 -0.5172
  823SOL     OW 3289   2.364   0.471   1.859 -0.1158  0.1852 -0.1405
  823SOL    HW1 3290   2.433   0.415   1.844 -2.8612  1.1567  0.9117
  823SOL    HW2 3291   2.328   0.448   1.948 -0.4746 -1.7952  0.1671
  823SOL     MW 3292   2.368   0.460   1.869 -0.5254  0.0521  0.0389
  824SOL     OW 3293   2.281   1.491   2.573  0.3299 -0.2904  1.1914
  824SOL    HW1 3294   2.347   1.549   2.610 -0.7643 -0.1366  1.2979
  824SOL    HW2 3295   2.206   1.547   2.567  0.7014  2.1370  1.2701
  824SOL     MW 3296   2.280   1.506   2.577  0.2346  0.0502  1.2158
  825SOL     OW 3297   1.876   2.618   0.234 -0.3494 -0.0173 -0.0465
  825SOL    HW1 3298   1.876   2.553   0.310 -1.2459 -2.5422  0.5686
  825SOL    HW2 3299   1.921   2.563   0.172 -3.7936 -1.6957  3.5015
  825SOL     MW 3300   1.882   2.602   0.236 -0.9221 -0.5719  0.5028
  826SOL     OW 3301   1.842   2.327   0.448  0.1206  0.6493  0.2801
  826SOL    HW1 3302   1.790   2.263   0.503 -0.3342  2.0630 -1.0840
  826SOL    HW2 3303   1.822   2.420   0.474 -2.3506  1.3597 -1.2381
  826SOL     MW 3304   1.833   2.331   0.458 -0.2654  0.9295 -0.1002
  827SOL     OW 3305   1.965   2.209   0.767 -0.5642  0.4391  0.8411
  827SOL    HW1 3306   1.883   2.226   0.712 -1.7048  2.5878  0.1981
  827SOL    HW2 3307   1.928   2.157   0.833  2.5051  3.4818  3.3711
  827SOL     MW 3308   1.949   2.204   0.768 -0.3097  1.1241  1.0901
  828SOL     OW 3309   0.054   2.628   0.600  0.3493  0.3988 -0.4279
  828SOL    HW1 3310   0.146   2.616   0.574  1.2328  0.6829 -1.0061
  828SOL    HW2 3311   0.027   2.693   0.535 -1.5447 -1.1108 -1.3082
  828SOL     MW 3312   0.063   2.635   0.588  0.2160  0.2371 -0.6203
  829SOL     OW 3313   2.992   2.962   1.172  0.1328 -0.5057 -0.1775
  829SOL    HW1 3314   2.911   2.950   1.122 -3.1200 -1.5859 -1.8393
  829SOL    HW2 3315   3.027   2.879   1.175  0.3125 -0.2648  2.4379
  829SOL     MW 3316   2.986   2.950   1.166 -0.2726 -0.6165 -0.0517
  830SOL     OW 3317   2.536   2.832   2.011  0.2090  0.0438  0.0235
  830SOL    HW1 3318   2.457   2.794   1.971 -0.2899 -0.6765  0.2721
  830SOL    HW2 3319   2.600   2.803   1.942 -1.1665  0.5326  0.2192
  830SOL     MW 3320   2.534   2.823   1.996 -0.0383  0.0133  0.0821
  831SOL     OW 3321   2.416   2.415   1.215  0.1922  0.5932 -0.7960
  831SOL    HW1 3322   2.371   2.376   1.288  0.9417 -0.2360  0.4014
  831SOL    HW2 3323   2.506   2.400   1.235 -0.5797 -1.7116 -0.8822
  831SOL     MW 3324   2.422   2.408   1.227  0.1892  0.1797 -0.6494
  832SOL     OW 3325   2.335   2.193   1.827  0.3688  0.1213 -0.1058
  832SOL    HW1 3326   2.370   2.284   1.856  3.7362  0.1945  3.2975
  832SOL    HW2 3327   2.411   2.133   1.819  1.6828  0.0861 -0.5763
  832SOL     MW 3328   2.350   2.197   1.830  0.9864  0.1263  0.2812
  833SOL     OW 3329   1.731   2.510   0.881  0.2988  0.3862 -0.2294
  833SOL    HW1 3330   1.637   2.487   0.876 -0.7646 -1.9767  1.3363
  833SOL    HW2 3331   1.728   2.577   0.947  2.2956 -4.3549 -2.1850
  833SOL     MW 3332   1.718   2.516   0.889  0.4220 -0.5511 -0.2809
  834SOL     OW 3333   2.113   2.439   0.555 -0.1053 -0.1700 -0.0716
  834SOL    HW1 3334   2.099   2.359   0.607 -1.0589 -2.2164  0.0704
  834SOL    HW2 3335   2.165   2.412   0.476  0.5646 -1.3007 -1.2438
  834SOL     MW 3336   2.118   2.425   0.551 -0.1428 -0.5892 -0.2075
  835SOL     OW 3337   1.806   2.584   0.608  0.0029  0.0930 -0.0469
  835SOL    HW1 3338   1.760   2.545   0.683 -2.0552 -1.0123  2.0571
  835SOL    HW2 3339   1.888   2.622   0.643 -1.1005 -3.2634 -2.3571
  835SOL     MW 3340   1.811   2.584   0.622 -0.4142 -0.4957 -0.0741
  836SOL     OW 3341   1.872   2.243   1.558 -0.5272 -0.4406 -0.0223
  836SOL    HW1 3342   1.961   2.235   1.587  0.0477 -0.4117  1.0093
  836SOL    HW2 3343   1.821   2.300   1.615 -0.6790  0.0710 -2.8166
  836SOL     MW 3344   1.877   2.250   1.569 -0.4714 -0.3693 -0.2549
  837SOL     OW 3345   2.164   0.218   0.731 -0.5119 -0.4721  0.1543
  837SOL    HW1 3346   2.077   0.206   0.699 -1.0914 -1.5179 -0.6771
  837SOL    HW2 3347   2.205   0.165   0.660  0.4562  0.8331  1.7743
  837SOL     MW 3348   2.158   0.210   0.717 -0.4606 -0.4378  0.2583
  838SOL     OW 3349   2.919   2.060   0.940 -0.5155 -0.6574 -0.1525
  838SOL    HW1 3350   2.854   1.995   0.960 -0.7293 -1.1302 -0.9223
  838SOL    HW2 3351   3.002   2.018   0.935  1.0562  3.0981 -1.4312
  838SOL     MW 3352   2.922   2.046   0.942 -0.3364 -0.2243 -0.4228
  839SOL     OW 3353   1.502   2.358   1.039 -0.2541 -0.2970  0.0026
  839SOL    HW1 3354   1.512   2.402   1.122 -0.1762 -2.6010  0.8092
  839SOL    HW2 3355   1.524   2.273   1.062  0.6588  0.6320 -2.2366
  839SOL     MW 3356   1.506   2.352   1.053 -0.1233 -0.4785 -0.1864
  840SOL     OW 3357   2.371   2.241   2.433 -0.5194 -0.2789  0.5587
  840SOL    HW1 3358   2.324   2.294   2.374  0.9079 -4.2757  0.5076
  840SOL    HW2 3359   2.348   2.275   2.527 -0.3095 -1.3823  2.2719
  840SOL     MW 3360   2.362   2.253   2.438 -0.3034 -0.9518  0.7780
  841SOL     OW 3361   2.066   2.468   0.091 -0.4617  0.0491  0.3762
  841SOL    HW1 3362   2.135   2.530   0.060  2.4718 -2.5311  2.2258
  841SOL    HW2 3363   2.085   2.377   0.059  1.8209  1.6001 -0.1114
  841SOL     MW 3364   2.077   2.464   0.083  0.2265 -0.0867  0.5559
  842SOL     OW 3365   2.659   2.072   1.536  0.1651 -0.2521 -0.1361
  842SOL    HW1 3366   2.612   2.037   1.613  2.9215 -0.1927 -0.1808
  842SOL    HW2 3367   2.609   2.060   1.457 -0.5421 -0.4841  0.4620
  842SOL     MW 3368   2.646   2.065   1.536  0.4354 -0.2749 -0.0631
  843SOL     OW 3369   2.674   2.771   1.772  0.0309 -0.2126  0.1636
  843SOL    HW1 3370   2.757   2.725   1.761 -0.7034 -0.5558 -1.5078
  843SOL    HW2 3371   2.619   2.736   1.708  0.6632  6.1375  0.9437
  843SOL     MW 3372   2.678   2.760   1.762  0.0174  0.5800  0.0460
  844SOL     OW 3373   2.678   2.342   1.221 -1.2267  0.1440 -0.2940
  844SOL    HW1 3374   2.694   2.363   1.129  1.4538 -1.5932 -2.1849
  844SOL    HW2 3375   2.739   2.410   1.264  0.2844  0.5967  1.8438
  844SOL     MW 3376   2.688   2.354   1.214 -0.6736 -0.0254 -0.2614
  845SOL     OW 3377   2.861   2.484   0.330  0.1586  0.1202 -0.6326
  845SOL    HW1 3378   2.828   2.390   0.337  1.7700 -1.1156  0.3649
  845SOL    HW2 3379   2.872   2.510   0.423  0.6201 -0.6514 -2.5289
  845SOL     MW 3380   2.858   2.475   0.343  0.4321 -0.1447 -0.7512
  846SOL     OW 3381   1.539   2.886   0.742  0.4631  0.1992  0.4506
  846SOL    HW1 3382   1.622   2.842   0.772  1.0248 -1.0960 -1.0720
  846SOL    HW2 3383   1.500   2.939   0.809 -1.5676 -0.8478 -0.0183
  846SOL     MW 3384   1.545   2.887   0.755  0.2693 -0.1098  0.1878
  847SOL     OW 3385   2.615   1.987   0.175 -0.0710 -0.4262 -0.3442
  847SOL    HW1 3386   2.676   1.944   0.231 -0.6025 -1.2944 -1.1596
  847SOL    HW2 3387   2.585   1.912   0.120  0.3509 -4.1314 -2.6187
  847SOL     MW 3388   2.619   1.972   0.175 -0.0855 -1.0296 -0.7519
  848SOL     OW 3389   2.543   2.136   1.310  0.3374  0.6007  0.2495
  848SOL    HW1 3390   2.618   2.199   1.291 -0.3605  1.6509 -0.8933
  848SOL    HW2 3391   2.533   2.075   1.242 -0.0718  1.1120 -0.5167
  848SOL     MW 3392   2.552   2.136   1.299  0.1913  0.8067 -0.0024
  849SOL     OW 3393   2.005   2.683   0.795 -0.7788  0.0761  0.3187
  849SOL    HW1 3394   2.027   2.608   0.846  1.6312  1.2808 -2.7148
  849SOL    HW2 3395   2.081   2.703   0.737 -0.9937 -1.7033  1.1365
  849SOL     MW 3396   2.018   2.676   0.794 -0.4892  0.0002  0.0264
  850SOL     OW 3397   2.187   1.922   1.695 -0.4181  0.2313 -0.6207
  850SOL    HW1 3398   2.113   1.867   1.665 -0.2437 -0.4232  1.8124
  850SOL    HW2 3399   2.171   2.012   1.657 -0.9133  1.2774 -0.8125
  850SOL     MW 3400   2.175   1.927   1.686 -0.4604  0.2830 -0.3250
  851SOL     OW 3401   2.245   2.374   0.327 -0.6348 -0.2171  0.2245
  851SOL    HW1 3402   2.170   2.378   0.264 -1.3218 -0.6037 -1.4259
  851SOL    HW2 3403   2.314   2.438   0.310 -3.1052  0.6993  0.5562
  851SOL     MW 3404   2.244   2.383   0.317 -1.0514 -0.1472  0.0505
  852SOL     OW 3405   2.347   2.099   0.295 -0.6430  0.1376  0.1060
  852SOL    HW1 3406   2.300   2.173   0.330  2.3881  0.1521 -0.6957
  852SOL    HW2 3407   2.392   2.136   0.219  0.0137 -0.0037  0.3743
  852SOL     MW 3408   2.346   2.114   0.290 -0.1564  0.1209  0.0357
  853SOL     OW 3409   2.438   2.416   1.907 -0.1189  0.1739  0.4365
  853SOL    HW1 3410   2.479   2.440   1.820  2.3810  0.7323 -0.4444
  853SOL    HW2 3411   2.521   2.390   1.954  0.4998 -0.4457 -2.1830
  853SOL     MW 3412   2.455   2.416   1.902  0.2926  0.1658 -0.0254
  854SOL     OW 3413   2.860   2.233   0.732  0.5930 -0.3169  0.1864
  854SOL    HW1 3414   2.799   2.179   0.682  0.9897  1.1659 -0.4985
  854SOL    HW2 3415   2.896   2.166   0.797  1.6062 -1.5046 -1.8622
  854SOL     MW 3416   2.857   2.217   0.734  0.7790 -0.2780 -0.1742
  855SOL     OW 3417   2.720   2.246   0.338  0.3345 -0.0214 -0.6230
  855SOL    HW1 3418   2.670   2.280   0.408 -0.5754  1.4720  0.1890
  855SOL    HW2 3419   2.787   2.182   0.371 -0.8722  0.6478  0.3769
  855SOL     MW 3420   2.722   2.242   0.352  0.0552  0.2640 -0.3840
  856SOL     OW 3421   2.206   1.894   0.170 -0.1861  0.0476  0.0816
  856SOL    HW1 3422   2.117   1.894   0.209  0.6135  0.8153  0.0633
  856SOL    HW2 3423   2.253   1.975   0.201  3.1949 -0.5726 -0.7873
  856SOL     MW 3424   2.200   1.904   0.179  0.3654  0.0671 -0.0354
  857SOL     OW 3425   2.487   1.904   0.458  0.4801  0.2606  0.3742
  857SOL    HW1 3426   2.451   1.972   0.391  1.0964  0.6698 -1.5370
  857SOL    HW2 3427   2.413   1.843   0.463 -1.7027 -1.3473 -1.0754
  857SOL     MW 3428   2.472   1.905   0.450  0.2734  0.1024 -0.0692
  858SOL     OW 3429   2.927   2.661   1.777  0.3331 -0.2339  0.1743
  858SOL    HW1 3430   3.015   2.660   1.820 -1.3327 -1.0297 -1.4960
  858SOL    HW2 3431   2.883   2.574   1.795 -3.2325  0.0718  1.3240
  858SOL     MW 3432   2.933   2.649   1.785 -0.3572 -0.2986  0.1056
  859SOL     OW 3433   2.076   2.424   0.899 -0.0885  0.0004  0.3591
  859SOL    HW1 3434   2.027   2.360   0.842 -1.7514  1.7797 -1.0993
  859SOL    HW2 3435   2.166   2.391   0.907 -1.5763  2.3806 -0.6837
  859SOL     MW 3436   2.081   2.412   0.893 -0.5042  0.5492  0.0291
  860SOL     OW 3437   2.671   2.602   0.186 -0.1089  0.5484  0.1515
  860SOL    HW1 3438   2.737   2.561   0.236 -1.1212  1.1086 -3.0231
  860SOL    HW2 3439   2.711   2.672   0.140 -0.8886 -0.9790  2.1075
  860SOL     MW 3440   2.685   2.606   0.186 -0.3454  0.4208 -0.0093
  861SOL     OW 3441   1.626   2.071   1.154 -0.4625 -0.1817 -0.3852
  861SOL    HW1 3442   1.681   2.079   1.241 -0.2073  1.0388  0.8454
  861SOL    HW2 3443   1.546   2.017   1.176  0.0586 -0.7396 -2.6144
  861SOL     MW 3444   1.622   2.065   1.169 -0.3601 -0.0943 -0.5169
  862SOL     OW 3445   2.426   1.861   1.578 -0.5855  0.4175 -0.0516
  862SOL    HW1 3446   2.344   1.898   1.616 -0.3393  0.0114 -1.5520
  862SOL    HW2 3447   2.416   1.869   1.482 -2.2432  0.0833  1.4143
  862SOL     MW 3448   2.414   1.867   1.570 -0.7717  0.3198 -0.0562
  863SOL     OW 3449   3.030   1.792   1.224  0.7637  0.2205 -0.3991
  863SOL    HW1 3450   3.051   1.748   1.305 -0.9232  0.0879 -0.5072
  863SOL    HW2 3451   3.030   1.887   1.233  2.0565  2.2964 -2.4799
  863SOL     MW 3452   3.033   1.799   1.236  0.7117  0.4769 -0.6879
  864SOL     OW 3453   0.058   1.874   0.918 -0.5534 -0.2354  0.1130
  864SOL    HW1 3454   0.034   1.817   0.992 -2.2995  1.6826 -1.2784
  864SOL    HW2 3455   0.040   1.833   0.835  1.9314 -0.4565 -1.8345
  864SOL     MW 3456   0.052   1.861   0.917 -0.4560 -0.0115 -0.3275
  865SOL     OW 3457   2.483   2.171   0.037  0.2500 -0.1839  0.0958
  865SOL    HW1 3458   2.526   2.104   0.093 -3.0500  0.5127 -2.7272
  865SOL    HW2 3459   2.472   2.113  -0.041  0.7823  0.7260  3.3330
  865SOL     MW 3460   2.487   2.155   0.034 -0.1152  0.0280  0.1505
  866SOL     OW 3461   2.731   2.347   1.583 -0.2100 -0.1490  0.3100
  866SOL    HW1 3462   2.708   2.256   1.563  0.7851  0.6252  1.6591
  866SOL    HW2 3463   2.783   2.379   1.509  0.4792 -1.5165 -2.2138
  866SOL     MW 3464   2.735   2.339   1.570  0.0122 -0.2273  0.1550
  867SOL     OW 3465   0.098   2.714   1.859 -0.3818 -0.0433  0.1476
  867SOL    HW1 3466   0.184   2.708   1.904  1.8234 -1.2175 -1.7943
  867SOL    HW2 3467   0.078   2.800   1.817 -1.5361  1.5988  0.5620
  867SOL     MW 3468   0.107   2.724   1.860 -0.2431  0.0185 -0.0540
  868SOL     OW 3469   2.792   2.545   0.580 -0.0478 -0.5917 -0.2316
  868SOL    HW1 3470   2.733   2.474   0.560  2.3120 -1.0606  2.2733
  868SOL    HW2 3471   2.769   2.624   0.529  0.4800 -1.4317  2.1942
  868SOL     MW 3472   2.781   2.546   0.571  0.3332 -0.7644  0.4190
  869SOL     OW 3473   1.894   2.337   1.095 -0.1248  0.4569 -0.5774
  869SOL    HW1 3474   1.955   2.374   1.029 -0.2325  3.6338 -0.0678
  869SOL    HW2 3475   1.819   2.381   1.064  3.2796 -1.0766  1.0585
  869SOL     MW 3476   1.892   2.347   1.082  0.3102  0.6737 -0.2943
  870SOL     OW 3477   2.311   0.092   0.533 -0.4881 -0.8076 -0.1824
  870SOL    HW1 3478   2.370   0.124   0.461  1.2661 -2.2119 -0.3396
  870SOL    HW2 3479   2.372   0.033   0.578  0.3551  0.6714 -0.4482
  870SOL     MW 3480   2.327   0.089   0.529 -0.1454 -0.7977 -0.2383
  871SOL     OW 3481   2.464   2.122   0.805 -0.0111 -0.9217  0.1334
  871SOL    HW1 3482   2.383   2.063   0.797  0.4178  0.2202  2.2428
  871SOL    HW2 3483   2.428   2.208   0.836 -0.5823  0.5231  1.8499
  871SOL     MW 3484   2.449   2.125   0.808 -0.0299 -0.5804  0.6382
  872SOL     OW 3485   2.011   2.585   1.422 -0.2933 -0.4727 -1.2721
  872SOL    HW1 3486   1.976   2.625   1.506  0.9381 -1.2222 -0.1358
  872SOL    HW2 3487   1.945   2.514   1.400 -0.9678 -1.9116 -0.5210
  872SOL     MW 3488   1.998   2.581   1.430 -0.2198 -0.7614 -1.0231
  873SOL     OW 3489   2.839   2.048   1.889  0.0049 -0.1180 -0.1234
  873SOL    HW1 3490   2.866   2.125   1.949 -1.1029  0.7634  0.9473
  873SOL    HW2 3491   2.894   2.047   1.810  0.6994 -0.8772  0.5968
  873SOL     MW 3492   2.850   2.058   1.887 -0.0496 -0.1019  0.1129
  874SOL     OW 3493   2.450   1.513   2.280  0.1965 -0.2703  0.2632
  874SOL    HW1 3494   2.357   1.489   2.293 -2.8436  0.0819  0.8186
  874SOL    HW2 3495   2.514   1.440   2.287  0.5184 -0.6508  1.0369
  874SOL     MW 3496   2.446   1.500   2.283 -0.1622 -0.2740  0.4385
  875SOL     OW 3497   2.339   2.368   0.931 -0.2466 -0.9644  0.1462
  875SOL    HW1 3498   2.408   2.430   0.899  2.8976 -0.3628 -0.2782
  875SOL    HW2 3499   2.343   2.383   1.027  0.1089 -1.5105  0.1379
  875SOL     MW 3500   2.348   2.378   0.940  0.2151 -0.9571  0.0891
  876SOL     OW 3501   3.043   2.346   1.340 -0.4415  0.9215  0.6768
  876SOL    HW1 3502   3.103   2.360   1.265  3.0532  0.1439 -1.3695
  876SOL    HW2 3503   3.075   2.407   1.406  0.4324  0.5482  0.0827
  876SOL     MW 3504   3.055   2.356   1.339  0.1349  0.7697  0.3285
  877SOL     OW 3505   3.070   2.792   0.381 -0.1386 -0.1145  0.1722
  877SOL    HW1 3506   3.067   2.885   0.351 -1.4125 -0.2239 -1.2647
  877SOL    HW2 3507   3.109   2.752   0.304 -0.4593  0.1061  0.3043
  877SOL     MW 3508   3.075   2.799   0.367 -0.3490 -0.0998  0.0000
  878SOL     OW 3509   2.376   1.837   1.283 -0.4917  0.3581  0.5269
  878SOL    HW1 3510   2.321   1.759   1.296 -0.9315 -1.2903  0.2299
  878SOL    HW2 3511   2.457   1.797   1.261  2.4502  2.8508  0.0057
  878SOL     MW 3512   2.379   1.821   1.282 -0.1616  0.4695  0.4189
  879SOL     OW 3513   2.722   2.394   0.945  0.9652  0.3632 -0.2520
  879SOL    HW1 3514   2.784   2.455   0.982  0.6095 -3.0110 -1.4176
  879SOL    HW2 3515   2.773   2.341   0.882  0.2525  1.0796 -1.3650
  879SOL     MW 3516   2.737   2.395   0.941  0.8242  0.0126 -0.5526
  880SOL     OW 3517   2.647   1.998   0.648 -0.4851  0.0199  0.3635
  880SOL    HW1 3518   2.580   2.045   0.697  0.0342  2.5263  1.5980
  880SOL    HW2 3519   2.601   1.970   0.566 -0.7538 -0.2899  0.8440
  880SOL     MW 3520   2.632   2.001   0.643 -0.4520  0.3097  0.5898
  881SOL     OW 3521   2.931   2.708   0.739  0.2732 -0.1166  0.5022
  881SOL    HW1 3522   2.870   2.650   0.689 -0.8328 -1.9833 -2.7417
  881SOL    HW2 3523   3.019   2.673   0.715 -0.4756  0.2445  0.4005
  881SOL     MW 3524   2.935   2.696   0.729  0.0284 -0.3152  0.0608
  882SOL     OW 3525   2.273   2.827   1.863  0.2472 -0.4274 -0.2184
  882SOL    HW1 3526   2.253   2.813   1.770 -0.2828 -1.3997  0.1576
  882SOL    HW2 3527   2.217   2.774   1.920 -0.2219  0.9823  0.3199
  882SOL     MW 3528   2.263   2.818   1.858  0.1154 -0.3697 -0.0978
  883SOL     OW 3529   2.293   2.220   1.361  0.3423 -0.0289 -0.1681
  883SOL    HW1 3530   2.378   2.180   1.339 -1.5076  1.2968  0.3003
  883SOL    HW2 3531   2.229   2.186   1.299 -2.8051 -0.5031 -0.6422
  883SOL     MW 3532   2.296   2.210   1.350 -0.3170  0.0834 -0.1689
  884SOL     OW 3533   1.929   1.806   1.098 -0.4778  0.6057  0.2853
  884SOL    HW1 3534   1.876   1.875   1.050 -0.9102 -0.8809  3.2821
  884SOL    HW2 3535   2.015   1.821   1.060 -0.4978  0.2671  1.2297
  884SOL     MW 3536   1.933   1.817   1.087 -0.5375  0.3649  0.8053
  885SOL     OW 3537   2.819   2.425   1.821 -0.2041  0.3028  0.4714
  885SOL    HW1 3538   2.892   2.360   1.846 -0.5557  1.6708 -0.8038
  885SOL    HW2 3539   2.792   2.406   1.727  1.5177 -0.8010  1.4247
  885SOL     MW 3540   2.825   2.414   1.812 -0.0233  0.3377  0.4289
  886SOL     OW 3541   2.846   2.526   1.329 -0.2843 -0.1162 -0.0137
  886SOL    HW1 3542   2.926   2.510   1.279  0.8844 -1.1848  1.0570
  886SOL    HW2 3543   2.875   2.586   1.395  1.7914 -1.3490 -0.7869
  886SOL     MW 3544   2.861   2.532   1.331  0.1438 -0.4199  0.0256
  887SOL     OW 3545   2.291   2.617   1.454  0.1852 -0.1208 -0.0478
  887SOL    HW1 3546   2.319   2.646   1.371 -1.7681 -1.8513  0.3682
  887SOL    HW2 3547   2.208   2.570   1.440  0.3031  0.0380  0.5875
  887SOL     MW 3548   2.284   2.615   1.441 -0.0570 -0.3282  0.0909
  888SOL     OW 3549   1.826   2.055   1.356 -0.5155  0.3764  0.4337
  888SOL    HW1 3550   1.906   2.068   1.300 -1.3316  0.3946 -0.3612
  888SOL    HW2 3551   1.845   2.100   1.443  0.0157 -0.9108  1.2525
  888SOL     MW 3552   1.839   2.062   1.360 -0.5531  0.2090  0.4369
  889SOL     OW 3553   2.294   2.080   2.101  0.3754 -0.0104  0.3605
  889SOL    HW1 3554   2.377   2.104   2.140 -0.5462 -0.7158 -0.1139
  889SOL    HW2 3555   2.295   2.142   2.026  1.8997 -0.6484 -1.3057
  889SOL     MW 3556   2.305   2.091   2.096  0.4549 -0.1877  0.0781
  890SOL     OW 3557   0.096   2.305   0.075 -0.1481 -0.0620  0.1373
  890SOL    HW1 3558   0.101   2.394   0.046  3.7872 -1.8282 -0.6396
  890SOL    HW2 3559   0.087   2.305   0.171 -0.8596 -0.3339  1.0437
  890SOL     MW 3560   0.095   2.317   0.084  0.2772 -0.3309  0.1544
  891SOL     OW 3561   3.041   2.063   1.338  0.0559 -0.1017 -0.2381
  891SOL    HW1 3562   3.105   2.048   1.403 -1.7201 -0.8049  0.0619
  891SOL    HW2 3563   3.036   2.163   1.319  2.8816  0.3891 -1.9976
  891SOL     MW 3564   3.049   2.074   1.344  0.1944 -0.1297 -0.4307
  892SOL     OW 3565   2.340   2.365   2.949 -0.0828  0.0907  0.4342
  892SOL    HW1 3566   2.344   2.311   3.031 -0.4392  1.6274  1.7538
  892SOL    HW2 3567   2.422   2.354   2.905 -1.1838 -1.7965  1.0885
  892SOL     MW 3568   2.351   2.356   2.954 -0.2751  0.0445  0.6947
  893SOL     OW 3569   1.600   2.510   1.248  0.1241  0.2908 -0.4961
  893SOL    HW1 3570   1.523   2.515   1.303 -2.0910  2.4973  0.0294
  893SOL    HW2 3571   1.660   2.456   1.295 -2.1546 -0.4097  1.3312
  893SOL     MW 3572   1.598   2.504   1.262 -0.4688  0.4895 -0.1857
  894SOL     OW 3573   2.900   1.871   0.531  0.0371  0.3964 -0.4406
  894SOL    HW1 3574   2.818   1.895   0.590 -3.6769  2.4938  1.9693
  894SOL    HW2 3575   2.874   1.834   0.453  2.0577  5.0179  0.7756
  894SOL     MW 3576   2.886   1.869   0.529 -0.1863  1.2829  0.0378
  895SOL     OW 3577   2.050   2.116   1.208  0.4187 -0.1061 -0.4854
  895SOL    HW1 3578   2.005   2.184   1.157 -0.4593 -2.3719 -0.4046
  895SOL    HW2 3579   2.084   2.051   1.145  1.5217  1.5001 -0.5631
  895SOL     MW 3580   2.048   2.117   1.193  0.4484 -0.1932 -0.4850
  896SOL     OW 3581   2.196   2.803   1.015 -0.2475  0.0229  0.5460
  896SOL    HW1 3582   2.255   2.763   1.079 -1.9425  0.0158  0.4246
  896SOL    HW2 3583   2.113   2.797   1.073 -1.1995 -0.0275  2.4842
  896SOL     MW 3584   2.193   2.797   1.031 -0.5968  0.0153  0.7857
  897SOL     OW 3585   2.990   2.957   0.169 -0.1273  0.3250 -0.7586
  897SOL    HW1 3586   3.074   2.946   0.124  1.1934 -3.5506 -0.6647
  897SOL    HW2 3587   2.923   2.895   0.133  0.9720  2.1413 -1.4610
  897SOL     MW 3588   2.992   2.947   0.158  0.1920  0.0533 -0.8389
  898SOL     OW 3589   2.077   0.153   1.395 -0.2287  0.3094  0.2327
  898SOL    HW1 3590   2.026   0.079   1.354  3.2805 -3.6653 -0.1188
  898SOL    HW2 3591   2.110   0.210   1.324 -2.0064  0.2655 -1.8816
  898SOL     MW 3592   2.075   0.151   1.380 -0.0002 -0.2208 -0.0926
  899SOL     OW 3593   2.901   2.960   0.605  0.2759 -0.0742  0.4610
  899SOL    HW1 3594   2.904   2.885   0.665  2.4581  2.2237  2.9476
  899SOL    HW2 3595   2.823   3.013   0.625 -0.5228 -0.9415  1.2034
  899SOL     MW 3596   2.891   2.957   0.616  0.4584  0.1146  0.8870
  900SOL     OW 3597   0.137   2.385   1.130  0.2148 -0.6224 -0.4245
  900SOL    HW1 3598   0.131   2.481   1.113 -0.1288  0.2112 -0.1307
  900SOL    HW2 3599   0.114   2.348   1.043 -0.9256  1.1660  0.0621
  900SOL     MW 3600   0.133   2.393   1.116  0.0190 -0.2764 -0.3216
  901SOL     OW 3601   1.732   2.830   1.794 -0.1243 -0.1865 -0.0682
  901SOL    HW1 3602   1.797   2.769   1.752  1.4101  0.6400 -1.6792
  901SOL    HW2 3603   1.668   2.865   1.729  0.8139 -1.3132  1.9781
  901SOL     MW 3604   1.732   2.827   1.780  0.2019 -0.2261 -0.0108
  902SOL     OW 3605   2.564   2.057   1.812 -0.3843 -0.2858 -0.3585
  902SOL    HW1 3606   2.557   1.962   1.845  1.3163 -1.6157 -0.5929
  902SOL    HW2 3607   2.655   2.083   1.811  0.3204 -2.3886 -0.6501
  902SOL     MW 3608   2.575   2.048   1.817 -0.0669 -0.7387 -0.4279
  903SOL     OW 3609   1.650   2.791   0.524  0.1001 -0.1262 -0.4292
  903SOL    HW1 3610   1.712   2.720   0.568 -3.2432  0.8295 -0.2939
  903SOL    HW2 3611   1.592   2.819   0.598  0.2695  1.9441  0.5244
  903SOL     MW 3612   1.650   2.785   0.540 -0.3187  0.2731 -0.2855
  904SOL     OW 3613   2.506   2.525   1.640 -0.0147 -0.3383  0.3219
  904SOL    HW1 3614   2.435   2.576   1.590 -1.6281  3.0737  1.8106
  904SOL    HW2 3615   2.547   2.460   1.580 -0.8910 -1.1605  0.2930
  904SOL     MW 3616   2.502   2.523   1.625 -0.3432  0.0034  0.5145
  905SOL     OW 3617   2.370   2.572   2.119  0.1165  0.1540 -0.0589
  905SOL    HW1 3618   2.397   2.519   2.044 -2.2654 -0.7114  0.0747
  905SOL    HW2 3619   2.351   2.503   2.186 -1.8037 -0.6559 -0.5056
  905SOL     MW 3620   2.371   2.556   2.118 -0.4511 -0.0670 -0.1002
  906SOL     OW 3621   2.512   2.533   0.810 -0.0871  0.4043  0.2176
  906SOL    HW1 3622   2.595   2.507   0.848 -0.3420 -0.4451 -1.3041
  906SOL    HW2 3623   2.486   2.625   0.841  0.1879  2.0201  2.8536
  906SOL     MW 3624   2.520   2.542   0.819 -0.0844  0.5054  0.3646
  907SOL     OW 3625   2.565   2.855   1.281  0.1274 -0.4637 -0.0780
  907SOL    HW1 3626   2.643   2.867   1.336 -0.6275 -0.6401 -0.6344
  907SOL    HW2 3627   2.608   2.845   1.197  0.3667  0.8426  0.0257
  907SOL     MW 3628   2.581   2.855   1.277  0.0594 -0.3147 -0.1377
  908SOL     OW 3629   2.675   2.370   0.013  0.2308  0.4184 -0.0628
  908SOL    HW1 3630   2.622   2.299   0.035  3.5810 -1.6295 -1.2291
  908SOL    HW2 3631   2.655   2.446   0.073 -1.2427  1.3784  2.5343
  908SOL     MW 3632   2.666   2.371   0.024  0.4784  0.2748  0.1259
  909SOL     OW 3633   1.699   0.219   1.028 -0.7317  0.6425  0.0186
  909SOL    HW1 3634   1.733   0.303   0.993 -1.4740 -1.2224 -0.2495
  909SOL    HW2 3635   1.661   0.250   1.111 -3.8712  1.8130 -2.1983
  909SOL     MW 3636   1.699   0.234   1.034 -1.2439  0.5509 -0.3093
  910SOL     OW 3637   2.259   1.699   0.406 -0.5423  0.1862 -0.2513
  910SOL    HW1 3638   2.184   1.642   0.431  1.3047  0.0168 -0.3204
  910SOL    HW2 3639   2.254   1.710   0.310 -2.2909  1.0191 -0.1260
  910SOL     MW 3640   2.248   1.693   0.397 -0.5293  0.2738 -0.2439
  911SOL     OW 3641   2.158   2.193   1.608  0.3651  0.3564  0.1836
  911SOL    HW1 3642   2.231   2.208   1.667  0.1665  0.4106  1.1685
  911SOL    HW2 3643   2.195   2.199   1.522 -2.7624  0.3478  1.2139
  911SOL     MW 3644   2.173   2.195   1.604 -0.0737  0.3624  0.4495
  912SOL     OW 3645   2.870   1.911   1.489 -0.1517  0.1182  0.1456
  912SOL    HW1 3646   2.927   1.966   1.432  2.2764 -0.1235 -1.5649
  912SOL    HW2 3647   2.782   1.961   1.502 -0.8864  0.6294  2.6426
  912SOL     MW 3648   2.866   1.925   1.483  0.0717  0.1538  0.2494
  913SOL     OW 3649   2.562   2.950   0.373  0.0847  0.2210  0.3257
  913SOL    HW1 3650   2.614   2.871   0.374 -0.2596 -0.4791  0.3542
  913SOL    HW2 3651   2.471   2.920   0.377  1.4047 -1.4711 -1.4967
  913SOL     MW 3652   2.557   2.936   0.373  0.2134 -0.0946  0.0890
  914SOL     OW 3653   2.794   1.633   0.024  0.2333  0.1417 -0.5697
  914SOL    HW1 3654   2.777   1.705  -0.028  1.0291 -0.6272 -0.1223
  914SOL    HW2 3655   2.709   1.600   0.040  2.9235  2.2748 -1.1091
  914SOL     MW 3656   2.780   1.638   0.020  0.6932  0.3217 -0.5818
  915SOL     OW 3657   1.872   0.177   0.223 -0.1443  0.2092  0.0461
  915SOL    HW1 3658   1.915   0.092   0.235  3.2100  1.1094  0.1736
  915SOL    HW2 3659   1.776   0.156   0.227 -0.3696  0.1248  1.0754
  915SOL     MW 3660   1.865   0.163   0.225  0.2686  0.3169  0.1987
  916SOL     OW 3661   1.815   2.123   1.952 -0.2403 -0.3146 -0.1271
  916SOL    HW1 3662   1.789   2.216   1.945 -1.9942  1.7926  1.2982
  916SOL    HW2 3663   1.770   2.082   1.879 -1.0466 -2.0366  0.6171
  916SOL     MW 3664   1.806   2.130   1.941 -0.5781 -0.2638  0.1591
  917SOL     OW 3665   2.270   2.335   2.672  0.4710 -0.3988 -0.3257
  917SOL    HW1 3666   2.250   2.339   2.767  2.3142  3.0023 -0.3990
  917SOL    HW2 3667   2.284   2.426   2.637 -0.7423  0.5184 -0.4612
  917SOL     MW 3668   2.269   2.348   2.680  0.5541  0.1709 -0.3532
  918SOL     OW 3669   2.015   1.653   2.624  0.5448 -0.1439  0.4955
  918SOL    HW1 3670   1.951   1.675   2.553  1.6021  1.9860 -1.2660
  918SOL    HW2 3671   2.086   1.715   2.617 -1.5183 -0.0801  2.1383
  918SOL     MW 3672   2.016   1.664   2.614  0.4121  0.1456  0.4799
  919SOL     OW 3673   3.034   2.388   2.274  0.1920 -0.1577 -0.1438
  919SOL    HW1 3674   2.952   2.355   2.254  3.7193  2.7498 -0.1046
  919SOL    HW2 3675   3.093   2.363   2.188  0.9191  1.0604  0.0971
  919SOL     MW 3676   3.031   2.380   2.260  0.7533  0.3866 -0.1068
  920SOL     OW 3677   2.768   2.835   0.016 -0.0422  0.3219 -0.4391
  920SOL    HW1 3678   2.681   2.872   0.040 -1.6404 -0.0923  0.6566
  920SOL    HW2 3679   2.753   2.760  -0.047 -0.5078 -1.5050  0.6727
  920SOL     MW 3680   2.754   2.830   0.011 -0.3145  0.0262 -0.1478
  921SOL     OW 3681   2.532   2.671   2.693 -0.6019  0.2211  0.2464
  921SOL    HW1 3682   2.610   2.641   2.655 -1.5994 -1.3868  2.6101
  921SOL    HW2 3683   2.520   2.610   2.772  1.4873 -1.9895  3.1780
  921SOL     MW 3684   2.541   2.659   2.698 -0.4579 -0.2827  0.9451
  922SOL     OW 3685   2.013   2.870   0.287  0.4987  0.1611 -1.0486
  922SOL    HW1 3686   2.000   2.921   0.210 -1.5719 -1.6110  0.5250
  922SOL    HW2 3687   1.974   2.786   0.270  1.9963 -1.5920 -1.0991
  922SOL     MW 3688   2.006   2.866   0.275  0.4231 -0.3040 -0.8477
  923SOL     OW 3689   2.173   2.822   1.611 -0.2212 -0.0030  0.6149
  923SOL    HW1 3690   2.229   2.778   1.551 -1.3179 -2.2880  3.2876
  923SOL    HW2 3691   2.155   2.913   1.575  1.7746  1.3627 -2.1476
  923SOL     MW 3692   2.178   2.828   1.598 -0.1026 -0.1243  0.6031
  924SOL     OW 3693   1.159   2.739   2.460 -0.2800 -0.0683 -0.0325
  924SOL    HW1 3694   1.186   2.814   2.410 -1.7817  1.1173  2.2058
  924SOL    HW2 3695   1.237   2.715   2.511 -0.6547  0.3347  0.4593
  924SOL     MW 3696   1.173   2.745   2.460 -0.5276  0.1413  0.3278
  925SOL     OW 3697   3.009   0.262   2.707 -0.4069 -0.4800 -0.0960
  925SOL    HW1 3698   3.035   0.284   2.622 -3.2615 -0.9212  1.8268
  925SOL    HW2 3699   2.981   0.353   2.735  0.5726 -1.0500  0.0891
  925SOL     MW 3700   3.009   0.277   2.699 -0.6543 -0.6134  0.1821
  926SOL     OW 3701   2.668   2.391   2.033 -0.2228 -0.4570  0.6853
  926SOL    HW1 3702   2.722   2.452   2.083 -1.9537  1.0504  2.2566
  926SOL    HW2 3703   2.718   2.399   1.944 -0.7353  0.0597 -0.1402
  926SOL     MW 3704   2.681   2.400   2.028 -0.5188 -0.1899  0.7837
  927SOL     OW 3705   2.413   0.159   0.286 -0.2199  0.1473  0.0823
  927SOL    HW1 3706   2.502   0.188   0.254  1.0786  1.0166  2.5014
  927SOL    HW2 3707   2.368   0.154   0.196  0.2123  0.2352  3.4445
  927SOL     MW 3708   2.419   0.162   0.270  0.0084  0.2736  0.8451
  928SOL     OW 3709   2.040   2.476   1.836 -0.1995  0.9946 -0.0324
  928SOL    HW1 3710   2.096   2.401   1.801 -0.3359 -0.7471 -2.4135
  928SOL    HW2 3711   2.091   2.505   1.913  1.8833  1.9493  0.5046
  928SOL     MW 3712   2.054   2.470   1.841  0.0573  0.8908 -0.2757
  929SOL     OW 3713   2.727   2.330   2.463  0.2407  0.3680 -0.2394
  929SOL    HW1 3714   2.692   2.246   2.446  1.8811 -0.6515 -1.1620
  929SOL    HW2 3715   2.770   2.312   2.545 -1.3970  0.5010 -3.4313
  929SOL     MW 3716   2.728   2.317   2.472  0.2411  0.2510 -0.7823
  930SOL     OW 3717   2.005   2.874   2.665 -0.3614 -0.1634 -0.4925
  930SOL    HW1 3718   2.008   2.820   2.742  1.4788  2.9795  0.2560
  930SOL    HW2 3719   2.093   2.922   2.649  0.4842 -1.7027 -4.6527
  930SOL     MW 3720   2.017   2.873   2.673 -0.0070  0.0482 -0.9426
  931SOL     OW 3721   2.930   2.829   2.154 -0.2604  0.0484  0.0202
  931SOL    HW1 3722   3.009   2.779   2.184 -0.6397 -2.1942  0.1281
  931SOL    HW2 3723   2.969   2.902   2.102  2.5167  1.7700  2.4890
  931SOL     MW 3724   2.945   2.832   2.151  0.0560 -0.0204  0.3602
  932SOL     OW 3725   2.803   1.915   2.544  0.3492  0.0098 -0.5090
  932SOL    HW1 3726   2.886   1.923   2.594 -0.8964 -0.8785  0.4636
  932SOL    HW2 3727   2.817   1.941   2.454 -0.2362  0.2293  1.8090
  932SOL     MW 3728   2.816   1.920   2.539  0.1076 -0.0784 -0.0748
  933SOL     OW 3729   2.084   2.793   2.266 -0.4503 -0.0094 -0.1026
  933SOL    HW1 3730   2.163   2.839   2.297 -0.6939 -3.0316 -0.8255
  933SOL    HW2 3731   2.023   2.866   2.265  1.2083 -1.3240 -0.1697
  933SOL     MW 3732   2.086   2.809   2.270 -0.2636 -0.5816 -0.2069
  934SOL     OW 3733   2.026   2.667   2.492 -1.1966 -0.2050 -0.2686
  934SOL    HW1 3734   2.019   2.740   2.554  1.1407  1.0750  0.2809
  934SOL    HW2 3735   2.056   2.711   2.405  2.7003  3.7020 -0.9960
  934SOL     MW 3736   2.029   2.682   2.489 -0.3741  0.4794 -0.2921
  935SOL     OW 3737   2.631   1.587   1.817 -0.1313  0.0919 -0.4021
  935SOL    HW1 3738   2.714   1.576   1.772  1.5347  1.2650 -1.2312
  935SOL    HW2 3739   2.570   1.567   1.750 -1.1846 -1.8366 -0.2467
  935SOL     MW 3740   2.634   1.583   1.802 -0.0505 -0.0078 -0.4910
  936SOL     OW 3741   2.931   2.215   0.001  0.4900  0.4075 -0.0479
  936SOL    HW1 3742   3.000   2.285  -0.003  3.6309 -0.9733 -1.0587
  936SOL    HW2 3743   2.848   2.248   0.036  1.8606  0.2756 -1.2116
  936SOL     MW 3744   2.929   2.229   0.005  1.0853  0.2079 -0.3348
  937SOL     OW 3745   1.977   2.259   2.621  0.1239  0.1257 -0.3324
  937SOL    HW1 3746   2.070   2.234   2.628  2.2807 -2.1704  0.8843
  937SOL    HW2 3747   1.952   2.254   2.529 -2.1291 -3.0317  0.9203
  937SOL     MW 3748   1.986   2.255   2.610  0.1112 -0.5939 -0.0066
  938SOL     OW 3749   2.257   1.845   1.957 -0.2001  0.1035 -0.5911
  938SOL    HW1 3750   2.226   1.857   1.869  2.6676  1.4841  0.3169
  938SOL    HW2 3751   2.240   1.934   1.997 -0.7216 -1.1431 -2.4169
  938SOL     MW 3752   2.250   1.858   1.951  0.1095  0.1212 -0.7122
  939SOL     OW 3753   2.790   2.008   2.254  0.5096 -0.9268  0.1288
  939SOL    HW1 3754   2.802   1.937   2.193 -0.4281 -1.1516  2.1058
  939SOL    HW2 3755   2.696   2.032   2.244 -1.6953  0.1005 -1.0873
  939SOL     MW 3756   2.779   2.002   2.245  0.0950 -0.8209  0.2292
  940SOL     OW 3757   2.285   0.182   2.666 -0.3587  0.0151  0.3512
  940SOL    HW1 3758   2.268   0.085   2.650 -0.6011  2.3453  1.1152
  940SOL    HW2 3759   2.326   0.188   2.757  1.0216 -0.2861  1.1451
  940SOL     MW 3760   2.288   0.170   2.676 -0.2085  0.2828  0.5568
  941SOL     OW 3761   0.090   2.353   2.038  0.4860  0.1461  0.0776
  941SOL    HW1 3762   0.161   2.306   2.069 -0.9442 -0.6068  1.7052
  941SOL    HW2 3763   0.050   2.302   1.967  1.4073  2.4479  0.7429
  941SOL     MW 3764   0.094   2.340   2.033  0.4189  0.3504  0.3801
  942SOL     OW 3765   2.873   2.234   2.101 -0.1497  0.4447  0.4487
  942SOL    HW1 3766   2.792   2.274   2.076 -1.6676  1.1338  1.7538
  942SOL    HW2 3767   2.847   2.167   2.166 -0.2159  1.5119  0.5892
  942SOL     MW 3768   2.859   2.230   2.107 -0.3587  0.6764  0.6395
  943SOL     OW 3769   0.222   2.016   2.317  0.3222 -0.0801 -0.1484
  943SOL    HW1 3770   0.146   2.062   2.362 -1.0945  1.3016  0.7182
  943SOL    HW2 3771   0.300   2.042   2.364 -1.0295  0.0962  0.6622
  943SOL     MW 3772   0.222   2.025   2.329 -0.0431  0.1255  0.0729
  944SOL     OW 3773   2.130   2.658   2.035 -0.7128 -0.0150 -0.5332
  944SOL    HW1 3774   2.214   2.624   2.076 -0.9147 -0.3259  2.4231
  944SOL    HW2 3775   2.095   2.704   2.112  0.8339 -0.8155 -0.7449
  944SOL     MW 3776   2.136   2.659   2.050 -0.5354 -0.1616 -0.1711
  945SOL     OW 3777   2.771   2.630   2.931  0.0240 -0.1488 -0.0787
  945SOL    HW1 3778   2.710   2.567   2.901 -1.2345 -0.3697  3.1433
  945SOL    HW2 3779   2.827   2.645   2.850 -2.1896 -0.6266  1.8729
  945SOL     MW 3780   2.771   2.624   2.916 -0.4341 -0.2409  0.6039
  946SOL     OW 3781   2.534   2.708   2.291  0.0033  0.1448 -0.1968
  946SOL    HW1 3782   2.589   2.765   2.241 -0.7630  0.0799  3.5770
  946SOL    HW2 3783   2.488   2.661   2.222 -0.5917  2.5378  1.9732
  946SOL     MW 3784   2.535   2.710   2.276 -0.1763  0.4520  0.5874
  947SOL     OW 3785   2.061   0.052   0.408  0.1522  0.0089 -0.3023
  947SOL    HW1 3786   2.065  -0.037   0.392 -1.9022  0.4332  2.1502
  947SOL    HW2 3787   2.140   0.076   0.444 -1.3586  2.8798 -2.0696
  947SOL     MW 3788   2.072   0.043   0.410 -0.3182  0.4437 -0.2119
  948SOL     OW 3789   1.819   3.102   2.641  0.2357 -0.0866 -0.6075
  948SOL    HW1 3790   1.871   3.023   2.657  2.1858 -0.7592  2.7313
  948SOL    HW2 3791   1.839   3.141   2.558  0.5131 -0.4377  0.3111
  948SOL     MW 3792   1.829   3.096   2.632  0.5296 -0.2217 -0.0458
  949SOL     OW 3793   2.521   2.062   2.277  0.5447  0.3825  0.1204
  949SOL    HW1 3794   2.508   1.974   2.315 -1.0648 -3.0750 -0.2759
  949SOL    HW2 3795   2.495   2.128   2.340 -1.1398 -0.7818 -0.3404
  949SOL     MW 3796   2.516   2.059   2.291  0.1101 -0.2273  0.0073
  950SOL     OW 3797   2.251   2.613   3.052  0.1757  0.2083  0.3160
  950SOL    HW1 3798   2.292   2.528   3.030 -0.8659  0.4267 -0.0070
  950SOL    HW2 3799   2.174   2.636   2.991 -0.9620  1.0270 -0.3718
  950SOL     MW 3800   2.246   2.605   3.041 -0.1119  0.3451  0.1826
  951SOL     OW 3801   2.864   2.058   2.878  0.3745  0.1966 -0.2649
  951SOL    HW1 3802   2.888   2.106   2.960 -0.5021 -0.4412 -3.4122
  951SOL    HW2 3803   2.945   2.042   2.823 -0.3022  0.1546  0.4426
  951SOL     MW 3804   2.878   2.062   2.881  0.1696  0.1069 -0.5868
  952SOL     OW 3805   3.049   1.646   2.057  0.8555 -0.6370  0.3994
  952SOL    HW1 3806   2.969   1.703   2.050  0.6075  0.6673 -1.6157
  952SOL    HW2 3807   3.112   1.718   2.071 -0.2466 -0.6801 -1.6159
  952SOL     MW 3808   3.046   1.663   2.058  0.6773 -0.4706 -0.1324
  953SOL     OW 3809   1.933   1.851   2.827  0.3403  0.0742 -0.1847
  953SOL    HW1 3810   1.849   1.822   2.869  0.1146  2.0836 -0.0843
  953SOL    HW2 3811   1.964   1.781   2.769  1.4537 -0.4944 -2.2505
  953SOL     MW 3812   1.926   1.838   2.825  0.4574  0.2643 -0.4440
  954SOL     OW 3813   2.432   2.024   2.930  0.1782  0.0404  0.1852
  954SOL    HW1 3814   2.350   2.062   2.890  0.9652 -0.6773  1.0937
  954SOL    HW2 3815   2.488   1.995   2.850  1.6554  0.1525  0.9940
  954SOL     MW 3816   2.428   2.025   2.914  0.4770 -0.0395  0.4118
  955SOL     OW 3817   1.570   1.639   2.591  0.2138  0.4357 -0.2586
  955SOL    HW1 3818   1.525   1.629   2.505 -0.5874 -1.8530 -0.0804
  955SOL    HW2 3819   1.659   1.664   2.571 -0.3866 -2.6734 -1.4931
  955SOL     MW 3820   1.576   1.641   2.577  0.0289 -0.2765 -0.3980
  956SOL     OW 3821   2.596   2.400   2.854  0.3543  0.4863 -0.0991
  956SOL    HW1 3822   2.619   2.392   2.944 -0.7615  1.3514  2.1078
  956SOL    HW2 3823   2.650   2.335   2.809 -0.0357 -0.1250  1.9862
  956SOL     MW 3824   2.606   2.391   2.860  0.1556  0.5198  0.4672
  957SOL     OW 3825   2.277   2.837   0.389 -0.4909 -0.0124 -0.1699
  957SOL    HW1 3826   2.195   2.845   0.340  0.2435 -1.1552  4.0578
  957SOL    HW2 3827   2.260   2.784   0.472  2.6271  1.4940  1.8325
  957SOL     MW 3828   2.264   2.831   0.393  0.0173  0.0356  0.6521
  958SOL     OW 3829   2.041   2.693   2.888 -0.0544  0.3130 -0.4308
  958SOL    HW1 3830   2.025   2.628   2.820  2.9785 -0.5685 -1.0011
  958SOL    HW2 3831   1.956   2.727   2.919 -0.6215  0.0473 -3.9109
  958SOL     MW 3832   2.028   2.689   2.883  0.2709  0.1616 -0.9652
  959SOL     OW 3833   2.440   2.591   0.362 -0.5282  0.0540  0.1906
  959SOL    HW1 3834   2.517   2.595   0.302 -0.1942  2.6385 -1.3667
  959SOL    HW2 3835   2.391   2.675   0.357  0.2980 -1.4681 -0.0707
  959SOL     MW 3836   2.444   2.603   0.354 -0.3751  0.1942 -0.0493
  960SOL     OW 3837   1.970   2.469   2.282  0.1247 -0.3835  0.1726
  960SOL    HW1 3838   1.945   2.380   2.282 -0.9420  1.9989  2.4846
  960SOL    HW2 3839   1.940   2.504   2.360  1.1312  0.1641 -1.8145
  960SOL     MW 3840   1.963   2.462   2.292  0.1167  0.0031  0.2155
  961SOL     OW 3841   2.238   2.459   2.327 -0.3391  0.1138  0.3486
  961SOL    HW1 3842   2.142   2.474   2.325 -1.7051  0.5785 -0.1379
  961SOL    HW2 3843   2.264   2.509   2.405  0.6365 -1.1261 -0.6042
  961SOL     MW 3844   2.229   2.468   2.337 -0.3906  0.0116  0.1587
  962SOL     OW 3845   2.194   2.055   2.767 -0.2429  0.2334  0.2625
  962SOL    HW1 3846   2.147   2.007   2.837 -0.9896 -0.0996  1.6158
  962SOL    HW2 3847   2.215   1.984   2.701 -1.1532 -2.9299 -0.4972
  962SOL     MW 3848   2.190   2.039   2.768 -0.4615 -0.2279  0.3408
  963SOL     OW 3849   1.745   2.532   2.140  0.0606  0.8992 -0.3221
  963SOL    HW1 3850   1.826   2.507   2.177  2.0723  0.7591  0.7048
  963SOL    HW2 3851   1.747   2.485   2.058 -1.6820 -2.7003  0.2359
  963SOL     MW 3852   1.756   2.523   2.134  0.0961  0.4058 -0.1130
  964SOL     OW 3853   1.811   2.010   2.614 -0.2762 -0.3954  0.2171
  964SOL    HW1 3854   1.876   2.081   2.620 -1.0039  0.0392  0.2811
  964SOL    HW2 3855   1.831   1.956   2.692 -0.4849  4.0478 -1.0531
  964SOL     MW 3856   1.822   2.012   2.625 -0.3997  0.2482  0.0579
  965SOL     OW 3857   2.225   2.681   0.610 -0.4890 -0.0115  0.1928
  965SOL    HW1 3858   2.173   2.596   0.601 -4.4624 -0.0718 -1.0505
  965SOL    HW2 3859   2.281   2.668   0.684 -3.5848 -1.5846  0.0360
  965SOL     MW 3860   2.225   2.668   0.618 -1.4217 -0.2270  0.0081
  966SOL     OW 3861   2.740   2.596   2.527  0.2101  0.0698  0.1103
  966SOL    HW1 3862   2.688   2.657   2.477  2.0255  0.6281  1.2117
  966SOL    HW2 3863   2.736   2.512   2.485  0.0577  0.3447  1.3754
  966SOL     MW 3864   2.733   2.593   2.515  0.4295  0.1797  0.4225
  967SOL     OW 3865   2.856   3.043   2.949  0.6185 -0.2335 -0.5507
  967SOL    HW1 3866   2.839   2.953   2.981  3.4025 -0.3338  1.7569
  967SOL    HW2 3867   2.790   3.076   2.888  1.6465 -2.2688 -0.0888
  967SOL     MW 3868   2.845   3.036   2.945  1.1215 -0.5153 -0.1853
  968SOL     OW 3869   3.022   2.522   3.033 -0.1272  0.6311 -0.4549
  968SOL    HW1 3870   2.928   2.518   3.010 -3.2577 -0.0667 -0.2897
  968SOL    HW2 3871   3.071   2.496   2.951 -1.2719 -1.5109  2.1858
  968SOL     MW 3872   3.016   2.518   3.019 -0.6913  0.2564 -0.0847
  969SOL     OW 3873   1.554   2.132   1.724  0.2877  0.0218  0.2515
  969SOL    HW1 3874   1.635   2.070   1.717  0.5081 -2.2449 -2.0785
  969SOL    HW2 3875   1.530   2.146   1.815 -0.3774  1.9461  1.2588
  969SOL     MW 3876   1.562   2.126   1.735  0.2290 -0.0234  0.0770
  970SOL     OW 3877   1.699   1.695   1.823  0.1088  0.2625  0.4027
  970SOL    HW1 3878   1.744   1.673   1.904 -0.3217 -0.7604  0.2486
  970SOL    HW2 3879   1.607   1.696   1.843  0.0626 -0.2950 -2.1712
  970SOL     MW 3880   1.693   1.693   1.836  0.0459  0.0540  0.0428
  971SOL     OW 3881   1.867   0.085   2.388 -0.3471 -0.0268  0.7458
  971SOL    HW1 3882   1.903   0.044   2.303 -0.6715  0.8801 -2.7631
  971SOL    HW2 3883   1.891   0.179   2.381 -1.1439  2.9795 -0.3513
  971SOL     MW 3884   1.875   0.092   2.376 -0.4950  0.4895  0.1381
  972SOL     OW 3885   0.236   2.780   2.527  0.1348  0.6308 -0.5967
  972SOL    HW1 3886   0.286   2.699   2.516 -3.8639  1.8044 -0.1954
  972SOL    HW2 3887   0.311   2.841   2.537  1.4821 -0.7548  2.5591
  972SOL     MW 3888   0.253   2.777   2.527 -0.2150  0.6028 -0.1274
  973SOL     OW 3889   2.604   3.095   2.072 -0.3963  0.0954  0.2716
  973SOL    HW1 3890   2.561   3.016   2.052 -0.9263  2.6748 -1.9633
  973SOL    HW2 3891   2.591   3.158   2.000 -1.5190  0.0419  1.3711
  973SOL     MW 3892   2.596   3.093   2.060 -0.6144  0.4286  0.1218
  974SOL     OW 3893   2.047   0.313   2.716  0.3887  0.1171  0.1768
  974SOL    HW1 3894   2.112   0.245   2.719  1.2881  1.0939 -1.6857
  974SOL    HW2 3895   1.973   0.290   2.771 -1.4673 -2.7953  0.6054
  974SOL     MW 3896   2.046   0.301   2.724  0.2625 -0.1383 -0.0124
  975SOL     OW 3897   2.319   2.576   2.565 -0.1307 -0.0927 -0.3503
  975SOL    HW1 3898   2.393   2.627   2.603  0.2718 -2.8858 -1.6313
  975SOL    HW2 3899   2.254   2.643   2.549  0.2883 -0.4971 -0.7752
  975SOL     MW 3900   2.320   2.592   2.568 -0.0223 -0.5146 -0.5754
  976SOL     OW 3901   0.262   0.255   1.686 -0.2608 -0.1313  0.2236
  976SOL    HW1 3902   0.314   0.195   1.746  0.6236 -0.9705 -0.7484
  976SOL    HW2 3903   0.179   0.208   1.670 -2.3148  0.3891  0.3631
  976SOL     MW 3904   0.258   0.241   1.692 -0.4151 -0.1734  0.1137
  977SOL     OW 3905   1.678   2.783   2.491 -0.1992 -0.3329 -0.5670
  977SOL    HW1 3906   1.710   2.690   2.510 -0.5300  1.7317 -1.4204
  977SOL    HW2 3907   1.746   2.843   2.460  0.0648 -0.8200  1.1033
  977SOL     MW 3908   1.691   2.779   2.490 -0.2080 -0.1248 -0.4592
   3.10000   3.10000   3.10000
