977 TIP4P/2005f water molecules t=   1.47000 step= 1470
 3908
    1SOL     OW    1   0.357   0.874   0.074 -0.0819 -0.2495  0.3863
    1SOL    HW1    2   0.355   0.899  -0.016  0.6888 -3.4138  0.8583
    1SOL    HW2    3   0.353   0.780   0.057 -1.2809 -0.5545 -0.0428
    1SOL     MW    4   0.356   0.865   0.060 -0.1384 -0.7072  0.3920
    2SOL     OW    5   0.302   3.049   1.105 -0.1733 -0.4331 -0.2692
    2SOL    HW1    6   0.342   3.126   1.069 -2.0536  0.7651  0.8461
    2SOL    HW2    7   0.208   3.060   1.104  1.7931  1.0425 -1.7747
    2SOL     MW    8   0.295   3.060   1.100 -0.1619 -0.0803 -0.3207
    3SOL     OW    9   2.638   0.339   0.967 -0.0839  0.7240 -0.3687
    3SOL    HW1   10   2.695   0.401   0.921 -0.0806 -4.1424  3.6507
    3SOL    HW2   11   2.624   0.370   1.052 -2.7209 -1.2490 -0.6899
    3SOL     MW   12   2.643   0.351   0.972 -0.4314 -0.1784  0.1193
    4SOL     OW   13   3.067   1.726   0.539 -0.2222 -0.1958 -0.4384
    4SOL    HW1   14   3.025   1.777   0.468 -0.7398 -0.5417 -0.6169
    4SOL    HW2   15   3.133   1.678   0.492 -2.2778 -2.6569 -0.8462
    4SOL     MW   16   3.070   1.726   0.523 -0.5617 -0.5661 -0.5158
    5SOL     OW   17   1.640   1.471   0.625  0.2179 -0.2777 -0.1021
    5SOL    HW1   18   1.667   1.442   0.710  0.6124  0.2954  2.8513
    5SOL    HW2   19   1.539   1.467   0.640 -2.3374 -2.9307  0.5184
    5SOL     MW   20   1.630   1.467   0.638 -0.0672 -0.5521  0.3694
    6SOL     OW   21   0.792   1.428   0.598 -0.0743  0.2005 -0.2597
    6SOL    HW1   22   0.700   1.406   0.602 -1.3658 -1.2046  0.8287
    6SOL    HW2   23   0.822   1.355   0.648  1.2502  3.7185  0.0724
    6SOL     MW   24   0.784   1.415   0.605 -0.0699  0.4793 -0.0723
    7SOL     OW   25   1.983   1.056   0.014 -0.5539 -0.2441  0.1654
    7SOL    HW1   26   2.061   1.113   0.000  3.8893  0.3131  0.9620
    7SOL    HW2   27   1.977   1.053   0.109  0.3448  0.3277 -0.1747
    7SOL     MW   28   1.993   1.063   0.025  0.1509 -0.0951  0.2256
    8SOL     OW   29   0.782   1.504   1.162  0.0345 -0.1291 -0.3344
    8SOL    HW1   30   0.876   1.524   1.146 -0.8699 -0.0935 -1.3646
    8SOL    HW2   31   0.790   1.425   1.216  2.5825 -0.1575 -0.7720
    8SOL     MW   32   0.795   1.497   1.167  0.2513 -0.1281 -0.5281
    9SOL     OW   33   1.025   0.464   1.321 -0.0956  0.2445 -0.7103
    9SOL    HW1   34   0.977   0.397   1.269 -0.2349  1.4885  1.3486
    9SOL    HW2   35   1.030   0.418   1.406  1.4496 -1.9773  0.2141
    9SOL     MW   36   1.019   0.449   1.326  0.0899  0.1155 -0.3167
   10SOL     OW   37   0.278   0.847   0.516  0.2686  0.6722  0.1262
   10SOL    HW1   38   0.375   0.849   0.504 -0.2700  0.5695 -1.0482
   10SOL    HW2   39   0.250   0.878   0.603 -0.7487  3.1074 -2.3525
   10SOL     MW   40   0.287   0.851   0.526  0.0633  0.9800 -0.3558
   11SOL     OW   41   0.760   1.134   1.573 -0.1885 -0.0548 -0.4282
   11SOL    HW1   42   0.832   1.137   1.646  0.7325  0.8133 -0.7815
   11SOL    HW2   43   0.793   1.055   1.522 -0.0220 -4.0906  1.1030
   11SOL     MW   44   0.774   1.124   1.576 -0.0450 -0.4728 -0.2728
   12SOL     OW   45   3.065   1.130   0.862  0.8032 -0.1401  0.0857
   12SOL    HW1   46   3.102   1.208   0.902  1.2969  1.7272 -0.3834
   12SOL    HW2   47   3.013   1.178   0.792 -1.7375  0.6095 -1.8658
   12SOL     MW   48   3.063   1.146   0.858  0.5331  0.2052 -0.2337
   13SOL     OW   49   1.844   1.416   1.272  0.3886  0.1008 -0.0926
   13SOL    HW1   50   1.902   1.374   1.217 -0.9812 -0.0893  1.7108
   13SOL    HW2   51   1.848   1.510   1.251 -0.6173 -1.5838  0.3886
   13SOL     MW   52   1.852   1.423   1.262  0.0751 -0.1466  0.2088
   14SOL     OW   53   0.569   0.333   1.872  0.1485  0.4842  0.7306
   14SOL    HW1   54   0.486   0.277   1.870 -0.1424 -0.3898 -0.2384
   14SOL    HW2   55   0.579   0.353   1.779 -3.8169  0.2676  1.4915
   14SOL     MW   56   0.559   0.328   1.859 -0.4131  0.3403  0.7032
   15SOL     OW   57   1.994   0.366   1.064  0.1850  0.3559  0.2684
   15SOL    HW1   58   2.038   0.423   1.126 -1.8067  0.2107  1.2354
   15SOL    HW2   59   2.042   0.391   0.986 -0.8487  1.6257  1.3080
   15SOL     MW   60   2.006   0.377   1.062 -0.2141  0.5043  0.5332
   16SOL     OW   61   0.244   1.824   0.252  0.5316  0.4766 -0.6070
   16SOL    HW1   62   0.338   1.826   0.242 -1.4848  0.8864 -2.1693
   16SOL    HW2   63   0.214   1.916   0.268 -0.4570  1.1226  0.3006
   16SOL     MW   64   0.252   1.836   0.253  0.1351  0.6159 -0.6934
   17SOL     OW   65   1.077   0.906   1.410  0.1603  0.3517 -0.1394
   17SOL    HW1   66   1.109   0.914   1.503  0.4972  2.8202 -0.7203
   17SOL    HW2   67   0.981   0.914   1.419  0.5163  2.6302 -0.9577
   17SOL     MW   68   1.069   0.908   1.423  0.2517  0.9780 -0.3240
   18SOL     OW   69   0.123   1.594   0.350 -0.4478  0.2882  0.0437
   18SOL    HW1   70   0.188   1.662   0.329  2.1346  0.9888 -2.6647
   18SOL    HW2   71   0.082   1.572   0.262 -3.7325 -1.0958 -2.1838
   18SOL     MW   72   0.126   1.600   0.335 -0.5405  0.1980 -0.6075
   19SOL     OW   73   0.087   1.378   0.932 -0.2623 -0.5313 -0.3337
   19SOL    HW1   74   0.144   1.393   0.855  0.6904 -0.8693 -0.6001
   19SOL    HW2   75   0.002   1.422   0.934  2.2787 -2.7332 -0.6405
   19SOL     MW   76   0.083   1.386   0.922  0.1986 -0.8664 -0.4093
   20SOL     OW   77   0.430   2.161   1.239  0.0858  0.0683  0.5566
   20SOL    HW1   78   0.383   2.091   1.189  0.2441 -0.6005 -2.8142
   20SOL    HW2   79   0.407   2.162   1.334  1.0200 -1.8668  0.8719
   20SOL     MW   80   0.421   2.152   1.245  0.2300 -0.2752  0.1534
   21SOL     OW   81   0.534   0.885   0.433  0.4463 -0.4223  0.5088
   21SOL    HW1   82   0.600   0.845   0.489  2.5413  2.4496  1.3001
   21SOL    HW2   83   0.549   0.846   0.351  1.2401 -0.0314 -1.4252
   21SOL     MW   84   0.545   0.874   0.430  0.8275  0.0082  0.3580
   22SOL     OW   85   1.587   0.704   0.978 -0.1333 -0.3162  0.4168
   22SOL    HW1   86   1.554   0.659   0.904 -0.9987 -1.1273 -1.1088
   22SOL    HW2   87   1.518   0.763   1.005 -0.5846  2.1577  2.2864
   22SOL     MW   88   1.574   0.706   0.972 -0.3070 -0.0968  0.4622
   23SOL     OW   89   3.084   0.724   0.701  0.6472  0.4900  0.6253
   23SOL    HW1   90   3.122   0.651   0.748 -0.1544  0.6774 -0.0282
   23SOL    HW2   91   3.135   0.803   0.726 -1.5896  0.9202 -1.6061
   23SOL     MW   92   3.096   0.725   0.711  0.2463  0.5715  0.2447
   24SOL     OW   93   2.091   2.199   0.015 -0.0746  0.1768  0.9268
   24SOL    HW1   94   2.058   2.211   0.104 -1.0218 -2.6793 -2.3156
   24SOL    HW2   95   2.133   2.115   0.002 -0.4125  1.1148  2.4764
   24SOL     MW   96   2.092   2.189   0.025 -0.2441 -0.0763  0.7035
   25SOL     OW   97   0.224   1.338   0.423 -0.6122 -0.2790  0.3154
   25SOL    HW1   98   0.197   1.430   0.396  0.1356  0.8972 -0.8021
   25SOL    HW2   99   0.293   1.304   0.372 -2.0811  0.0765 -0.4725
   25SOL     MW  100   0.230   1.346   0.412 -0.7073 -0.0769  0.0640
   26SOL     OW  101   2.033   1.003   0.310 -0.2080  0.2151  0.3759
   26SOL    HW1  102   1.971   1.046   0.368 -0.1369 -0.6324 -0.7555
   26SOL    HW2  103   2.108   1.053   0.302 -2.5353 -6.0586 -0.5185
   26SOL     MW  104   2.034   1.015   0.317 -0.5057 -0.7244  0.1086
   27SOL     OW  105   1.866   1.353   0.163  0.2358 -0.5018 -0.7406
   27SOL    HW1  106   1.798   1.422   0.155 -1.0582 -1.3268  0.8989
   27SOL    HW2  107   1.902   1.374   0.249 -0.5835 -1.8994 -1.1531
   27SOL     MW  108   1.862   1.365   0.173 -0.0430 -0.7950 -0.5787
   28SOL     OW  109   0.450   0.963   1.997 -0.9475 -0.2201 -0.3470
   28SOL    HW1  110   0.490   0.955   2.083 -0.2639 -0.3792 -2.4594
   28SOL    HW2  111   0.360   0.962   2.021  1.0037  0.5144 -0.9056
   28SOL     MW  112   0.444   0.961   2.011 -0.5999 -0.1442 -0.6994
   29SOL     OW  113   0.263   1.388   0.715  0.0213 -0.1511  0.3184
   29SOL    HW1  114   0.260   1.485   0.718 -1.0492  2.3353 -0.3141
   29SOL    HW2  115   0.246   1.360   0.623  1.0419 -2.0369  1.7788
   29SOL     MW  116   0.260   1.397   0.703  0.0147 -0.0719  0.4276
   30SOL     OW  117   0.805   1.243   1.238  0.2045  0.1006  0.4539
   30SOL    HW1  118   0.721   1.217   1.280  2.9373 -3.2270  3.9757
   30SOL    HW2  119   0.871   1.228   1.300 -2.8373  1.0176 -1.5561
   30SOL     MW  120   0.802   1.237   1.251  0.1637 -0.2175  0.6533
   31SOL     OW  121   0.456   0.289   0.145 -0.7272  0.3224  0.3351
   31SOL    HW1  122   0.459   0.226   0.218  3.1233 -0.5182 -0.7704
   31SOL    HW2  123   0.484   0.234   0.068 -0.0156  0.5527  0.2093
   31SOL     MW  124   0.460   0.273   0.144 -0.1253  0.2418  0.1727
   32SOL     OW  125   2.694   0.991   1.151  0.4240  0.3455 -0.4388
   32SOL    HW1  126   2.622   0.920   1.147 -1.3984  0.5777  1.3593
   32SOL    HW2  127   2.772   0.949   1.119 -0.7989 -1.7675  0.0584
   32SOL     MW  128   2.695   0.976   1.146  0.0222  0.0973 -0.1359
   33SOL     OW  129   1.648   1.305   0.413  0.3254 -0.4229 -0.0036
   33SOL    HW1  130   1.728   1.249   0.428  0.2850 -1.2867 -0.5760
   33SOL    HW2  131   1.643   1.375   0.477  0.6146 -0.6634 -1.0063
   33SOL     MW  132   1.658   1.307   0.424  0.3582 -0.5686 -0.2114
   34SOL     OW  133   1.218   1.936   1.144 -0.0605 -0.4557  0.5430
   34SOL    HW1  134   1.143   1.992   1.134  2.5626 -1.7446  3.1602
   34SOL    HW2  135   1.280   1.984   1.207  2.1381  1.9160  1.3170
   34SOL     MW  136   1.216   1.950   1.151  0.5757 -0.3128  0.9904
   35SOL     OW  137   0.322   0.157   1.829  0.4416 -0.3756  0.2787
   35SOL    HW1  138   0.340   0.100   1.905 -0.6951  0.2880 -0.1761
   35SOL    HW2  139   0.316   0.099   1.752  0.1015  0.0359  0.8446
   35SOL     MW  140   0.324   0.142   1.829  0.2467 -0.2337  0.2933
   36SOL     OW  141   1.930   1.938   0.588  0.2652  0.2691 -0.1450
   36SOL    HW1  142   1.903   1.927   0.496 -1.9580  0.1167 -0.4016
   36SOL    HW2  143   1.933   1.853   0.635 -0.0235  2.9007 -0.3562
   36SOL     MW  144   1.927   1.926   0.582 -0.0662  0.5962 -0.2067
   37SOL     OW  145   1.835   2.021   1.040  0.6339  0.2952  0.4034
   37SOL    HW1  146   1.785   1.998   0.963  0.2382  3.1758 -0.6244
   37SOL    HW2  147   1.778   2.088   1.087 -4.3727  0.1300 -2.0523
   37SOL     MW  148   1.821   2.026   1.036 -0.0789  0.6535 -0.0562
   38SOL     OW  149   2.845   0.919   0.157  0.5053  0.4571  1.0589
   38SOL    HW1  150   2.854   0.921   0.254 -1.2141 -0.0482 -0.1954
   38SOL    HW2  151   2.924   0.871   0.119  1.2295  1.4175 -3.6489
   38SOL     MW  152   2.857   0.913   0.165  0.3740  0.5171  0.2722
   39SOL     OW  153   1.479   0.589   0.739  0.2490  0.4988  0.0000
   39SOL    HW1  154   1.457   0.505   0.780  3.4853 -1.3169  0.2304
   39SOL    HW2  155   1.402   0.645   0.746 -1.2779  1.6950 -1.0894
   39SOL     MW  156   1.466   0.585   0.745  0.4745  0.4170 -0.1133
   40SOL     OW  157   1.273   1.902   0.269  0.1409  0.3691 -0.2282
   40SOL    HW1  158   1.287   1.809   0.279  0.3442 -1.1177  0.5729
   40SOL    HW2  159   1.237   1.935   0.353  2.4286 -0.8170  0.0558
   40SOL     MW  160   1.270   1.894   0.282  0.4696  0.0164 -0.0850
   41SOL     OW  161   0.569   0.535   1.620 -0.4030  0.0910  0.0813
   41SOL    HW1  162   0.637   0.584   1.573 -0.2036  0.9538 -1.7385
   41SOL    HW2  163   0.495   0.592   1.609 -2.2090  4.0497 -1.4045
   41SOL     MW  164   0.568   0.549   1.612 -0.6150  0.7271 -0.3549
   42SOL     OW  165   1.269   3.006   1.937 -0.4588 -0.4940 -0.1472
   42SOL    HW1  166   1.181   2.998   1.977  0.5927  3.2105 -0.8093
   42SOL    HW2  167   1.328   2.937   1.968 -0.9525 -0.4315  1.5457
   42SOL     MW  168   1.265   2.996   1.947 -0.3852  0.0030 -0.0112
   43SOL     OW  169   1.499   0.137   1.691  0.1056 -0.2071  0.2613
   43SOL    HW1  170   1.552   0.118   1.612 -2.2066  0.1903 -1.1213
   43SOL    HW2  171   1.433   0.073   1.682 -1.1793  0.2970  0.9937
   43SOL     MW  172   1.498   0.126   1.679 -0.3690 -0.0882  0.1755
   44SOL     OW  173   1.276   0.753   1.062 -0.3383  0.7655 -0.2591
   44SOL    HW1  174   1.259   0.851   1.050  2.0141  2.6652 -1.1534
   44SOL    HW2  175   1.272   0.719   1.152 -2.2593 -1.4089 -0.2168
   44SOL     MW  176   1.273   0.761   1.072 -0.2814  0.7292 -0.3715
   45SOL     OW  177   1.275   0.767   0.765 -0.0037  0.3514 -0.0538
   45SOL    HW1  178   1.251   0.760   0.857  0.2256 -0.6405  0.0533
   45SOL    HW2  179   1.199   0.738   0.698 -1.2247 -1.8310 -1.3640
   45SOL     MW  180   1.262   0.762   0.768 -0.1346 -0.0674 -0.2125
   46SOL     OW  181   0.512   1.099   0.644 -0.0642 -0.7167 -0.2258
   46SOL    HW1  182   0.523   1.082   0.548  1.1560 -1.2824 -1.3416
   46SOL    HW2  183   0.540   1.191   0.667 -5.2507  1.9644  1.2463
   46SOL     MW  184   0.517   1.109   0.634 -0.5875 -0.4376 -0.1788
   47SOL     OW  185   0.155   1.972   1.957 -0.5120  0.2813 -0.2350
   47SOL    HW1  186   0.134   1.907   1.889  0.9806 -2.8134 -0.2098
   47SOL    HW2  187   0.104   1.958   2.033 -0.3420 -0.1519 -1.3830
   47SOL     MW  188   0.146   1.961   1.958 -0.2927 -0.1842 -0.3831
   48SOL     OW  189   1.168   0.500   1.022  0.1932 -0.3189  0.2801
   48SOL    HW1  190   1.078   0.517   0.985  0.2924 -0.4073 -1.2087
   48SOL    HW2  191   1.201   0.590   1.039  1.7478  1.6980 -0.0569
   48SOL     MW  192   1.160   0.514   1.019  0.4114 -0.0644  0.0392
   49SOL     OW  193   1.690   0.635   1.550  0.0840  0.4606  0.5730
   49SOL    HW1  194   1.716   0.602   1.636 -0.4243 -0.3381  0.0884
   49SOL    HW2  195   1.731   0.578   1.488 -0.8692  0.7125 -0.2398
   49SOL     MW  196   1.699   0.623   1.553 -0.1089  0.3884  0.4018
   50SOL     OW  197   1.271   1.228   0.590  0.6336  0.8556 -0.1019
   50SOL    HW1  198   1.198   1.220   0.657 -3.4797  3.3961  1.7453
   50SOL    HW2  199   1.326   1.161   0.620  0.1004  1.7485  0.0244
   50SOL     MW  200   1.268   1.218   0.603  0.0205  1.3086  0.1585
   51SOL     OW  201   0.313   2.910   0.875 -0.0582  0.2626 -0.9732
   51SOL    HW1  202   0.404   2.868   0.866 -1.0363 -1.8201  0.6816
   51SOL    HW2  203   0.300   2.946   0.965 -0.9790 -2.1163  0.3258
   51SOL     MW  204   0.323   2.909   0.886 -0.3087 -0.3261 -0.5835
   52SOL     OW  205   0.814   1.833   0.463 -0.0767 -0.2359 -0.1855
   52SOL    HW1  206   0.775   1.923   0.476  1.0779  0.0122  0.6048
   52SOL    HW2  207   0.804   1.803   0.374  1.9296  0.1090  0.0248
   52SOL     MW  208   0.808   1.841   0.453  0.3403 -0.1576 -0.0535
   53SOL     OW  209   0.439   2.160   0.493  0.1644  0.4712  0.4969
   53SOL    HW1  210   0.363   2.144   0.440  1.0362  1.5085 -0.9319
   53SOL    HW2  211   0.425   2.249   0.523  0.6484 -1.0749  0.4246
   53SOL     MW  212   0.427   2.169   0.490  0.3433  0.4041  0.2989
   54SOL     OW  213   2.061   0.955   0.756 -0.0702  0.3536 -0.5488
   54SOL    HW1  214   2.129   0.933   0.693 -0.3536  0.7171 -1.7044
   54SOL    HW2  215   2.022   0.868   0.768  0.9428  1.0328 -0.0770
   54SOL     MW  216   2.065   0.941   0.749  0.0261  0.4912 -0.6390
   55SOL     OW  217   0.494   1.555   1.679 -0.5366 -0.4570  0.2155
   55SOL    HW1  218   0.441   1.602   1.616  0.9952 -1.2586  1.9664
   55SOL    HW2  219   0.540   1.482   1.638  1.3785  2.8899  1.7801
   55SOL     MW  220   0.493   1.552   1.665 -0.0818 -0.1212  0.6530
   56SOL     OW  221   0.642   0.884   0.173  0.4065  0.3466  0.3930
   56SOL    HW1  222   0.666   0.978   0.184 -0.0947  1.6607  0.0768
   56SOL    HW2  223   0.559   0.881   0.128  0.7728 -2.9602  0.6584
   56SOL     MW  224   0.634   0.896   0.169  0.3887  0.0837  0.3863
   57SOL     OW  225   1.144   1.250   1.162 -0.5097  0.5190 -0.6541
   57SOL    HW1  226   1.236   1.272   1.171 -0.7842  1.8182  0.9119
   57SOL    HW2  227   1.124   1.235   1.255  2.4701 -1.2627  0.2608
   57SOL     MW  228   1.154   1.251   1.175 -0.1528  0.4553 -0.3268
   58SOL     OW  229   0.524   1.259   1.273 -0.9459  0.1236 -0.2906
   58SOL    HW1  230   0.503   1.351   1.252  0.5573  2.3961  0.3615
   58SOL    HW2  231   0.511   1.267   1.365  1.3015 -0.8208 -1.8864
   58SOL     MW  232   0.519   1.272   1.282 -0.4511  0.2988 -0.4151
   59SOL     OW  233   1.462   1.669   0.329 -0.6201  0.1798  0.2430
   59SOL    HW1  234   1.517   1.715   0.389  0.4534  0.8076  0.5664
   59SOL    HW2  235   1.395   1.629   0.379 -0.0678 -2.1918 -0.2725
   59SOL     MW  236   1.461   1.670   0.344 -0.4056 -0.0503  0.2176
   60SOL     OW  237   3.058   0.171   1.707 -0.3184  0.5039 -0.3404
   60SOL    HW1  238   2.974   0.207   1.746 -0.3111  0.9523 -0.6626
   60SOL    HW2  239   3.088   0.097   1.764 -1.1898 -4.1072  2.9089
   60SOL     MW  240   3.051   0.166   1.720 -0.4324 -0.0453  0.0458
   61SOL     OW  241   1.974   1.384   3.022 -0.3741  0.3936 -0.0396
   61SOL    HW1  242   1.934   1.358   3.113  1.1139  1.4650  1.3189
   61SOL    HW2  243   2.013   1.296   3.001 -0.1736 -2.2400  2.2497
   61SOL     MW  244   1.974   1.369   3.031 -0.1513  0.1875  0.4417
   62SOL     OW  245   0.542   1.738   0.563  0.3082 -0.3980  0.7310
   62SOL    HW1  246   0.633   1.757   0.577  0.7818  1.9622  1.0483
   62SOL    HW2  247   0.527   1.647   0.560  0.4581  2.5029  2.9781
   62SOL     MW  248   0.552   1.728   0.564  0.3905  0.2961  1.0694
   63SOL     OW  249   1.719   0.662   0.652 -0.2311  0.3244  0.0617
   63SOL    HW1  250   1.721   0.742   0.596  1.1967  0.5888 -1.5347
   63SOL    HW2  251   1.624   0.650   0.677 -0.2168 -0.0325 -0.4143
   63SOL     MW  252   1.707   0.671   0.648 -0.0408  0.3122 -0.2117
   64SOL     OW  253   0.250   1.649   0.758 -0.4919 -0.1885  0.2485
   64SOL    HW1  254   0.325   1.689   0.804  0.2858 -1.4126 -1.1307
   64SOL    HW2  255   0.178   1.710   0.765 -0.0929 -2.3653 -3.0925
   64SOL     MW  256   0.250   1.662   0.765 -0.3366 -0.6372 -0.3743
   65SOL     OW  257   1.535   2.311   0.356 -0.4153 -0.0680 -0.4236
   65SOL    HW1  258   1.626   2.328   0.384 -0.9552  2.6162 -2.1724
   65SOL    HW2  259   1.479   2.359   0.422 -2.8710  0.6488  3.4983
   65SOL     MW  260   1.540   2.319   0.368 -0.8105  0.3808 -0.1369
   66SOL     OW  261   0.341   0.574   0.478 -0.2772 -0.0396 -0.4007
   66SOL    HW1  262   0.368   0.569   0.387 -1.2255  0.9758 -0.0843
   66SOL    HW2  263   0.301   0.668   0.480 -3.2949 -0.3547  0.0616
   66SOL     MW  264   0.339   0.586   0.467 -0.8005  0.0528 -0.2980
   67SOL     OW  265   1.473   0.080   1.960  0.1817 -0.3117 -0.2368
   67SOL    HW1  266   1.511   0.083   1.876 -0.2025 -1.7881  1.0723
   67SOL    HW2  267   1.398   0.014   1.950 -1.7421 -0.5959  1.6950
   67SOL     MW  268   1.468   0.071   1.948 -0.1228 -0.5440  0.1908
   68SOL     OW  269   0.773   3.091   2.978  0.4234 -0.4537  0.1713
   68SOL    HW1  270   0.786   3.152   2.906 -0.9696 -2.4955 -0.6421
   68SOL    HW2  271   0.853   3.100   3.027 -1.4953  3.3244 -2.3691
   68SOL     MW  272   0.785   3.101   2.975 -0.0136 -0.2246 -0.2712
   69SOL     OW  273   0.952   0.197   1.962  0.1822  0.4272 -0.0661
   69SOL    HW1  274   1.044   0.203   1.933 -0.6660 -0.6246  0.3770
   69SOL    HW2  275   0.954   0.115   2.016  0.1972 -1.1029  0.4152
   69SOL     MW  276   0.965   0.187   1.965  0.0723  0.0866  0.0559
   70SOL     OW  277   0.483   1.711   1.071  0.4466  0.6848 -0.1871
   70SOL    HW1  278   0.533   1.786   1.093 -1.3659  0.5671 -0.5774
   70SOL    HW2  279   0.536   1.658   1.006 -1.7296 -0.5631 -1.2440
   70SOL     MW  280   0.497   1.714   1.066 -0.0797  0.5046 -0.3781
   71SOL     OW  281   1.483   0.544   1.179 -0.4996 -0.4257  0.0855
   71SOL    HW1  282   1.489   0.618   1.237 -0.4185 -0.1097 -2.4819
   71SOL    HW2  283   1.507   0.586   1.096 -1.6246  0.1073  0.2660
   71SOL     MW  284   1.487   0.559   1.176 -0.6373 -0.3136 -0.2294
   72SOL     OW  285   0.746   1.862   1.020 -0.5404 -0.0993  0.2478
   72SOL    HW1  286   0.720   1.909   0.944  1.7564 -2.1054 -0.3790
   72SOL    HW2  287   0.795   1.782   0.996  0.7581 -1.1498  2.1467
   72SOL     MW  288   0.749   1.857   1.007 -0.0660 -0.5026  0.4157
   73SOL     OW  289   1.231   0.674   1.343  0.0059 -0.0583  0.3118
   73SOL    HW1  290   1.183   0.596   1.328 -0.5637 -3.1577 -0.0458
   73SOL    HW2  291   1.169   0.750   1.356  0.9009  1.8310 -0.4098
   73SOL     MW  292   1.216   0.673   1.342  0.0488 -0.2179  0.1695
   74SOL     OW  293   2.889   0.209   1.052  0.1396 -0.9481 -0.0925
   74SOL    HW1  294   2.967   0.184   0.994  1.2173  2.9636 -0.8825
   74SOL    HW2  295   2.807   0.220   0.999 -0.1371 -2.3527 -1.3808
   74SOL     MW  296   2.888   0.207   1.037  0.2453 -0.6173 -0.3667
   75SOL     OW  297   1.591   1.334   0.114  0.2240  0.3592  0.4210
   75SOL    HW1  298   1.661   1.275   0.085 -1.4545  1.3869  1.2787
   75SOL    HW2  299   1.591   1.323   0.212 -0.0289 -0.3551 -1.2155
   75SOL     MW  300   1.600   1.325   0.123 -0.0308  0.4006  0.3182
   76SOL     OW  301   2.980   0.637   0.455 -0.2815  0.6880 -0.1946
   76SOL    HW1  302   3.024   0.673   0.534 -0.3974  2.4132 -0.6061
   76SOL    HW2  303   3.059   0.598   0.415 -2.3871  2.7032 -1.1620
   76SOL     MW  304   2.996   0.637   0.460 -0.5746  1.1815 -0.3766
   77SOL     OW  305   0.894   0.579   0.404 -0.6375  0.5043 -0.0664
   77SOL    HW1  306   0.852   0.617   0.327 -0.4152  2.7106  0.7973
   77SOL    HW2  307   0.882   0.485   0.410 -1.0582  1.1662 -2.3335
   77SOL     MW  308   0.887   0.571   0.395 -0.6636  0.8828 -0.2516
   78SOL     OW  309   0.737   0.868   1.146 -0.6809 -0.2552 -0.0527
   78SOL    HW1  310   0.754   0.956   1.100 -0.4785  2.1903  0.1225
   78SOL    HW2  311   0.643   0.856   1.151 -1.3480 -2.3825  2.3502
   78SOL     MW  312   0.727   0.878   1.140 -0.7422 -0.2132  0.2874
   79SOL     OW  313   1.864   1.629   0.597 -0.4365 -0.7464 -0.5031
   79SOL    HW1  314   1.773   1.595   0.604 -3.3122 -1.2516 -0.5728
   79SOL    HW2  315   1.896   1.618   0.684  1.9230 -0.3490 -3.2453
   79SOL     MW  316   1.856   1.623   0.610 -0.5046 -0.7606 -0.8741
   80SOL     OW  317   0.071   0.972   0.374  0.3620  0.6902 -0.4128
   80SOL    HW1  318  -0.013   0.931   0.372  0.9054 -0.4449  1.4624
   80SOL    HW2  319   0.131   0.910   0.409 -0.9910  0.0785  2.5150
   80SOL     MW  320   0.068   0.958   0.378  0.2552  0.4597  0.2209
   81SOL     OW  321   1.851   1.853   0.334 -0.4472 -0.8147  0.1274
   81SOL    HW1  322   1.810   1.771   0.317 -1.9481 -2.9045  0.3286
   81SOL    HW2  323   1.806   1.913   0.274  0.0224 -0.5152 -0.0805
   81SOL     MW  324   1.840   1.850   0.324 -0.5833 -1.0509  0.1265
   82SOL     OW  325   0.876   1.026   0.514  0.1510 -0.4254  0.1970
   82SOL    HW1  326   0.830   1.030   0.430 -1.2313  1.2254 -0.3250
   82SOL    HW2  327   0.844   0.936   0.537  0.5000 -0.5129  1.0290
   82SOL     MW  328   0.866   1.015   0.506  0.0146 -0.2191  0.2379
   83SOL     OW  329   0.045   0.768   1.483 -0.2162  0.7793  0.2594
   83SOL    HW1  330   0.044   0.808   1.396  0.4154  1.8094 -1.5786
   83SOL    HW2  331   0.110   0.699   1.492 -1.0971 -3.5329  1.7946
   83SOL     MW  332   0.053   0.764   1.473 -0.2491  0.3463  0.2195
   84SOL     OW  333   0.038   0.201   0.901  0.0558 -0.1018  0.0189
   84SOL    HW1  334   0.027   0.289   0.943  0.7527  0.4468  2.6472
   84SOL    HW2  335   0.062   0.133   0.969  0.6153 -1.5355  1.0076
   84SOL     MW  336   0.040   0.203   0.916  0.2216 -0.2186  0.4961
   85SOL     OW  337   0.400   0.449   0.719  0.2308  0.3914  0.3742
   85SOL    HW1  338   0.368   0.480   0.637  0.7518 -0.4589  1.9253
   85SOL    HW2  339   0.384   0.354   0.726  1.6461  1.6224 -1.0391
   85SOL     MW  340   0.393   0.441   0.709  0.4863  0.4416  0.3924
   86SOL     OW  341   1.201   0.250   1.146  0.5363  0.2938  0.0515
   86SOL    HW1  342   1.187   0.332   1.102 -1.1505 -0.3362 -0.0615
   86SOL    HW2  343   1.283   0.256   1.192  2.1848 -0.1614 -2.5044
   86SOL     MW  344   1.210   0.262   1.147  0.5312  0.1506 -0.3007
   87SOL     OW  345   1.049   1.503   1.204 -0.0491  0.5804 -0.3327
   87SOL    HW1  346   1.100   1.568   1.156 -0.1116 -2.7223  0.4607
   87SOL    HW2  347   1.077   1.418   1.168 -1.0761 -0.9707 -1.8224
   87SOL     MW  348   1.059   1.500   1.193 -0.1928 -0.0600 -0.4245
   88SOL     OW  349   1.247   1.024   1.002  0.2498  0.0066  0.2474
   88SOL    HW1  350   1.334   1.060   0.998  0.5270  0.1402  1.6303
   88SOL    HW2  351   1.208   1.067   1.081 -1.4115  1.3892  0.8164
   88SOL     MW  352   1.253   1.034   1.012  0.0672  0.2067  0.5049
   89SOL     OW  353   1.747   0.730   0.345  0.4489  0.1530 -0.9651
   89SOL    HW1  354   1.690   0.653   0.344 -0.0726  0.3371 -1.3171
   89SOL    HW2  355   1.842   0.703   0.336 -0.4543  0.3694 -2.0008
   89SOL     MW  356   1.752   0.717   0.343  0.2609  0.2058 -1.1482
   90SOL     OW  357   0.858   1.182   2.878  0.0248  1.0276  0.0260
   90SOL    HW1  358   0.865   1.087   2.868 -0.6722  2.0277  1.3205
   90SOL    HW2  359   0.878   1.215   2.968 -0.8509  0.0103 -0.9247
   90SOL     MW  360   0.862   1.174   2.889 -0.1827  1.0253  0.0714
   91SOL     OW  361   2.192   0.666   0.451 -0.4675  0.0760  0.0488
   91SOL    HW1  362   2.283   0.693   0.415  2.1757  0.0864  0.7589
   91SOL    HW2  363   2.184   0.575   0.421  0.5400  3.4679 -2.4734
   91SOL     MW  364   2.203   0.657   0.442  0.0141  0.5249 -0.1903
   92SOL     OW  365   1.650   0.921   0.578 -0.3180 -0.0157  0.3638
   92SOL    HW1  366   1.572   0.953   0.628  1.4089  1.4538  0.4619
   92SOL    HW2  367   1.617   0.905   0.492  1.2681  2.9475  0.7893
   92SOL     MW  368   1.636   0.923   0.574  0.1191  0.5691  0.4329
   93SOL     OW  369   1.128   0.196   0.407 -0.5893 -0.1337 -0.0820
   93SOL    HW1  370   1.036   0.210   0.410  0.4230  2.0033 -0.9681
   93SOL    HW2  371   1.141   0.259   0.335  1.7164 -1.5679 -1.5649
   93SOL     MW  372   1.117   0.206   0.398 -0.1515 -0.0410 -0.3946
   94SOL     OW  373   1.853   1.378   1.574 -0.5320 -0.3497 -0.7765
   94SOL    HW1  374   1.861   1.397   1.480 -0.4479  3.2277 -2.5598
   94SOL    HW2  375   1.863   1.284   1.584  1.5134  0.2756 -0.6644
   94SOL     MW  376   1.855   1.368   1.563 -0.2511  0.2048 -0.9970
   95SOL     OW  377   0.638   1.532   0.911  0.6403 -0.0127  0.2654
   95SOL    HW1  378   0.674   1.488   0.989 -5.2997  1.2089  0.5454
   95SOL    HW2  379   0.593   1.457   0.864 -1.1593  1.1711 -0.7304
   95SOL     MW  380   0.637   1.516   0.915 -0.3808  0.3047  0.1709
   96SOL     OW  381   1.332   1.858   1.731  0.5481 -0.1616  0.0031
   96SOL    HW1  382   1.240   1.881   1.715 -1.7103 -0.6752 -2.1401
   96SOL    HW2  383   1.330   1.778   1.679 -1.4629 -1.6475  0.0980
   96SOL     MW  384   1.319   1.851   1.722 -0.0152 -0.4254 -0.2672
   97SOL     OW  385   1.101   1.458   0.882 -0.5062  0.0730  0.6808
   97SOL    HW1  386   1.161   1.521   0.923 -1.0397 -0.0950  2.6214
   97SOL    HW2  387   1.021   1.510   0.862 -2.6927  0.6606 -0.3763
   97SOL     MW  388   1.098   1.474   0.885 -0.8651  0.1283  0.7974
   98SOL     OW  389   1.409   1.358   1.153 -0.9131 -0.1092 -0.1335
   98SOL    HW1  390   1.456   1.402   1.228  1.3880  0.7205 -1.0458
   98SOL    HW2  391   1.438   1.402   1.074  0.5717 -0.2922  2.6838
   98SOL     MW  392   1.419   1.370   1.152 -0.4136 -0.0239  0.1178
   99SOL     OW  393   1.436   0.284   1.263 -0.3546  0.3824  0.0055
   99SOL    HW1  394   1.444   0.374   1.232  0.8565 -2.3574  1.0393
   99SOL    HW2  395   1.402   0.292   1.349 -4.0375 -0.9338 -1.6522
   99SOL     MW  396   1.433   0.297   1.270 -0.6807 -0.1528 -0.0768
  100SOL     OW  397   1.021   1.163   1.386 -0.0150 -0.0235  0.0476
  100SOL    HW1  398   1.069   1.193   1.466  2.5917  1.4658 -1.4289
  100SOL    HW2  399   1.048   1.069   1.380 -1.0320 -2.3163  0.4307
  100SOL     MW  400   1.031   1.155   1.395  0.1947 -0.1295 -0.0967
  101SOL     OW  401   0.547   1.178   0.360  0.0841  0.0977  0.0974
  101SOL    HW1  402   0.504   1.149   0.280 -1.7956  1.5389  0.9967
  101SOL    HW2  403   0.635   1.151   0.363 -2.2986  0.8715  2.3107
  101SOL     MW  404   0.553   1.171   0.350 -0.4783  0.3899  0.5081
  102SOL     OW  405   2.888   0.658   1.054 -0.1409  0.3272  0.3695
  102SOL    HW1  406   2.912   0.754   1.060  0.7799  2.6420  1.0960
  102SOL    HW2  407   2.871   0.638   1.147  3.7306 -0.1461 -1.8878
  102SOL     MW  408   2.889   0.668   1.067  0.4914  0.5701  0.1675
  103SOL     OW  409   1.830   0.226   1.802  0.0206  0.3450 -0.2451
  103SOL    HW1  410   1.819   0.135   1.781 -1.0431 -1.0793  0.6181
  103SOL    HW2  411   1.839   0.224   1.898  0.0478 -0.4593  0.6587
  103SOL     MW  412   1.830   0.213   1.812 -0.1161  0.0510 -0.0120
  104SOL     OW  413   0.097   1.520   1.613 -0.8868 -0.3270  0.5649
  104SOL    HW1  414   0.162   1.468   1.660  2.6252  1.1547  2.6622
  104SOL    HW2  415   0.001   1.500   1.625 -0.4905  2.3515  1.6839
  104SOL     MW  416   0.093   1.511   1.621 -0.3711  0.2219  0.9892
  105SOL     OW  417   3.082   1.220   0.404 -0.0873 -0.2521  0.0234
  105SOL    HW1  418   3.082   1.123   0.389 -0.8431  0.3123  2.0274
  105SOL    HW2  419   3.173   1.243   0.403 -1.0234  1.4284  1.2436
  105SOL     MW  420   3.094   1.210   0.402 -0.3105  0.0441  0.4488
  106SOL     OW  421   0.754   0.413   0.897 -0.2414  0.1610 -0.2198
  106SOL    HW1  422   0.668   0.438   0.933  0.5633  0.0826  0.8654
  106SOL    HW2  423   0.770   0.473   0.822 -1.3388  1.5328 -0.5221
  106SOL     MW  424   0.745   0.424   0.892 -0.2800  0.3316 -0.1165
  107SOL     OW  425   0.805   2.114   2.899 -0.9756  0.4617  0.1516
  107SOL    HW1  426   0.715   2.135   2.872  0.1998 -2.8878 -0.3432
  107SOL    HW2  427   0.810   2.113   2.993  1.5854  2.9451 -0.3596
  107SOL     MW  428   0.794   2.117   2.908 -0.4826  0.3474  0.0188
  108SOL     OW  429   1.354   1.597   1.642 -0.1210 -0.3021 -0.3844
  108SOL    HW1  430   1.321   1.576   1.551  1.1627  1.2370 -0.6894
  108SOL    HW2  431   1.434   1.552   1.639  0.9143 -0.3351  0.7516
  108SOL     MW  432   1.360   1.589   1.630  0.1850 -0.1034 -0.2748
  109SOL     OW  433   2.013   0.706   0.255 -0.1399 -0.2165  0.1727
  109SOL    HW1  434   2.039   0.798   0.238 -0.6969  2.0797  0.3202
  109SOL    HW2  435   2.068   0.686   0.333 -1.4840 -1.2337  2.0471
  109SOL     MW  436   2.024   0.716   0.263 -0.3908 -0.0478  0.4394
  110SOL     OW  437   0.415   1.939   0.711  0.2337  0.6380 -0.3150
  110SOL    HW1  438   0.426   1.875   0.644 -1.3988 -1.6713  0.8893
  110SOL    HW2  439   0.419   2.021   0.671  1.3608 -1.7314  2.7010
  110SOL     MW  440   0.417   1.941   0.697  0.1670  0.0207  0.2419
  111SOL     OW  441   0.810   0.891   1.403  0.3703 -0.0820 -0.7593
  111SOL    HW1  442   0.806   0.893   1.306  3.4708  2.4698  0.4607
  111SOL    HW2  443   0.799   0.795   1.430 -1.0054  0.8837 -1.2879
  111SOL     MW  444   0.808   0.879   1.394  0.5979  0.3821 -0.6681
  112SOL     OW  445   1.367   1.072   1.611 -0.7921 -0.5365  0.0101
  112SOL    HW1  446   1.301   1.140   1.611 -0.3138 -3.0270 -2.4833
  112SOL    HW2  447   1.313   0.992   1.616 -1.4099  0.3565 -0.8575
  112SOL     MW  448   1.351   1.070   1.612 -0.8105 -0.7473 -0.4334
  113SOL     OW  449   1.250   3.065   1.674  0.2866  0.1139  0.0025
  113SOL    HW1  450   1.243   3.020   1.763 -0.9167 -0.9196  1.0681
  113SOL    HW2  451   1.255   2.988   1.614  3.2229 -1.1174  0.6324
  113SOL     MW  452   1.249   3.049   1.678  0.5152 -0.1849  0.2262
  114SOL     OW  453   0.262   2.878   1.875 -0.0649 -0.2263  0.0937
  114SOL    HW1  454   0.335   2.907   1.923  3.4979 -0.2385 -2.7043
  114SOL    HW2  455   0.200   2.959   1.891 -0.3326  0.0715  4.2110
  114SOL     MW  456   0.263   2.892   1.884  0.3699 -0.1886  0.2678
  115SOL     OW  457   0.473   0.792   1.159  0.4871  0.0144  0.5475
  115SOL    HW1  458   0.490   0.697   1.179 -3.8734 -0.4763  0.7333
  115SOL    HW2  459   0.402   0.825   1.213  2.2710 -0.9562 -2.0050
  115SOL     MW  460   0.466   0.784   1.169  0.1471 -0.1784  0.2352
  116SOL     OW  461   0.820   1.098   1.008 -0.2689  0.0514  0.0826
  116SOL    HW1  462   0.839   1.128   0.916 -2.7162 -2.8583 -1.9644
  116SOL    HW2  463   0.838   1.161   1.077 -0.1960 -3.3637 -1.1331
  116SOL     MW  464   0.825   1.110   1.005 -0.5822 -0.7831 -0.3479
  117SOL     OW  465   1.124   1.195   0.812  0.3049  0.3571  0.7636
  117SOL    HW1  466   1.161   1.128   0.868 -0.3063 -1.3693  0.0275
  117SOL    HW2  467   1.142   1.288   0.855 -2.7804  2.4480 -0.2895
  117SOL     MW  468   1.131   1.198   0.825 -0.1828  0.4052  0.5276
  118SOL     OW  469   3.047   2.944   1.684 -0.5524 -0.5656  0.4218
  118SOL    HW1  470   3.090   2.951   1.766 -3.2428  0.6806 -0.5814
  118SOL    HW2  471   2.957   2.949   1.703  2.3632 -1.8532  0.3268
  118SOL     MW  472   3.041   2.946   1.697 -0.5227 -0.5711  0.2769
  119SOL     OW  473   0.413   1.511   1.263 -0.0256 -0.0078 -0.0728
  119SOL    HW1  474   0.428   1.592   1.217  0.4230  0.4027  3.5825
  119SOL    HW2  475   0.330   1.476   1.233 -0.9703 -0.3089 -2.0111
  119SOL     MW  476   0.404   1.517   1.253 -0.0910  0.0067  0.1538
  120SOL     OW  477   0.227   0.774   1.004  0.5769  0.0674 -0.7721
  120SOL    HW1  478   0.164   0.817   1.061  0.6647 -1.6652  1.0674
  120SOL    HW2  479   0.291   0.739   1.063 -1.9632 -1.1270  2.7071
  120SOL     MW  480   0.227   0.775   1.019  0.2534 -0.3188 -0.0703
  121SOL     OW  481   1.762   1.097   1.664  0.4890 -0.4138  0.2093
  121SOL    HW1  482   1.693   1.136   1.598 -0.5120  3.0154  0.9370
  121SOL    HW2  483   1.796   1.018   1.626 -3.9609 -0.7127 -2.0754
  121SOL     MW  484   1.757   1.091   1.650 -0.2302 -0.0008  0.0039
  122SOL     OW  485   0.174   0.554   0.826 -0.1079  0.1520  0.2263
  122SOL    HW1  486   0.253   0.507   0.790 -1.0272  0.4461  1.1599
  122SOL    HW2  487   0.206   0.643   0.855 -1.0494  1.3130  2.1439
  122SOL     MW  488   0.188   0.560   0.825 -0.3534  0.3440  0.6025
  123SOL     OW  489   1.844   1.114   0.493  0.3703  0.5698  0.5177
  123SOL    HW1  490   1.784   1.051   0.538 -0.9519 -1.6241 -3.4826
  123SOL    HW2  491   1.921   1.119   0.549 -0.3115 -0.7643 -1.0628
  123SOL     MW  492   1.846   1.106   0.506  0.1059  0.1043 -0.2187
  124SOL     OW  493   0.516   0.551   0.939  0.2114 -0.6803  0.1209
  124SOL    HW1  494   0.478   0.533   0.850  1.2741  0.4270 -2.1310
  124SOL    HW2  495   0.567   0.630   0.920  0.7017 -1.3654 -1.2691
  124SOL     MW  496   0.518   0.559   0.924  0.4163 -0.6246 -0.3596
  125SOL     OW  497   0.736   1.765   1.741 -0.4393 -0.6317  0.2913
  125SOL    HW1  498   0.716   1.683   1.695  2.4490 -1.3887  0.5897
  125SOL    HW2  499   0.654   1.814   1.719  1.1282 -0.9454 -1.0183
  125SOL     MW  500   0.722   1.760   1.732  0.1486 -0.7729  0.1579
  126SOL     OW  501   2.159   1.491   1.951 -0.2598 -0.3238  0.2343
  126SOL    HW1  502   2.232   1.556   1.953 -2.9962  0.7068 -1.4506
  126SOL    HW2  503   2.204   1.407   1.951  1.1497  1.7489  0.4445
  126SOL     MW  504   2.175   1.489   1.951 -0.4348  0.0856  0.0398
  127SOL     OW  505   0.579   0.868   1.780 -0.3874 -0.0652 -0.1948
  127SOL    HW1  506   0.664   0.826   1.804  1.4521  1.1619  0.2966
  127SOL    HW2  507   0.545   0.907   1.867  1.1293 -0.5919  0.8414
  127SOL     MW  508   0.586   0.867   1.794  0.0554  0.0272  0.0068
  128SOL     OW  509   1.687   0.716   2.898  0.5270  0.1878 -0.1576
  128SOL    HW1  510   1.703   0.683   2.806  0.1348 -0.0647 -3.3296
  128SOL    HW2  511   1.687   0.811   2.895  1.2223 -0.2002  2.9244
  128SOL     MW  512   1.689   0.724   2.885  0.5670  0.1033 -0.1694
  129SOL     OW  513   1.605   0.933   0.203 -0.0619  0.0362  0.3649
  129SOL    HW1  514   1.547   0.858   0.180 -0.8338 -0.2656 -1.3190
  129SOL    HW2  515   1.675   0.882   0.237 -0.6278 -1.4660 -0.3702
  129SOL     MW  516   1.607   0.917   0.204 -0.2384 -0.2018  0.0458
  130SOL     OW  517   0.764   1.411   0.307  0.1411 -0.2943  0.2685
  130SOL    HW1  518   0.782   1.411   0.406  0.2149  0.1580 -1.6292
  130SOL    HW2  519   0.844   1.445   0.260 -0.7007  3.8204  0.6061
  130SOL     MW  520   0.777   1.416   0.314  0.0398  0.3083  0.0627
  131SOL     OW  521   3.056   0.811   0.022  0.5881 -0.1793 -0.2078
  131SOL    HW1  522   3.051   0.844  -0.074 -0.7065 -1.9549 -0.0804
  131SOL    HW2  523   3.154   0.796   0.026  2.8503  0.8583  0.3939
  131SOL     MW  524   3.068   0.813   0.010  0.7158 -0.2767 -0.1116
  132SOL     OW  525   2.744   0.155   1.276 -0.1296 -0.4953 -0.1131
  132SOL    HW1  526   2.814   0.162   1.213  1.3462  0.9133 -0.0630
  132SOL    HW2  527   2.684   0.076   1.261 -0.5834  1.3732 -1.3867
  132SOL     MW  528   2.745   0.145   1.266  0.0052 -0.0629 -0.2745
  133SOL     OW  529   1.033   0.138   1.684 -0.8940 -0.7856 -0.1500
  133SOL    HW1  530   1.102   0.070   1.693  0.7081 -1.6679  0.2018
  133SOL    HW2  531   0.991   0.149   1.769  2.6872 -0.6754  1.8775
  133SOL     MW  532   1.037   0.131   1.696 -0.2101 -0.8874  0.1639
  134SOL     OW  533   1.425   2.432   1.476  0.1574 -0.8748  0.5867
  134SOL    HW1  534   1.352   2.492   1.449 -2.3056  0.1117  0.6109
  134SOL    HW2  535   1.473   2.463   1.558  1.1311 -2.5692  0.0798
  134SOL     MW  536   1.422   2.444   1.483 -0.0391 -0.9682  0.5230
  135SOL     OW  537   3.047   0.981   2.892 -0.5495 -0.0034  0.8823
  135SOL    HW1  538   3.117   1.034   2.925  1.4887  0.3342 -1.3160
  135SOL    HW2  539   2.980   1.055   2.882  0.1497  1.6550 -0.0749
  135SOL     MW  540   3.047   0.998   2.895 -0.1883  0.2600  0.4660
  136SOL     OW  541   0.223   2.038   0.884 -0.2680 -0.4592  0.2670
  136SOL    HW1  542   0.157   1.973   0.850  1.3944  0.5920 -0.5409
  136SOL    HW2  543   0.295   2.009   0.834  0.8757 -0.2691  1.5438
  136SOL     MW  544   0.224   2.026   0.873  0.1023 -0.2954  0.3288
  137SOL     OW  545   0.688   2.067   0.534  0.0763  0.1018  0.3380
  137SOL    HW1  546   0.676   2.067   0.628  2.4929  1.1768 -1.4190
  137SOL    HW2  547   0.597   2.077   0.497  0.4475  0.3062 -1.3885
  137SOL     MW  548   0.674   2.068   0.542  0.4441  0.2706 -0.1216
  138SOL     OW  549   0.432   0.514   1.210 -0.4006  0.3531  0.0456
  138SOL    HW1  550   0.342   0.521   1.251  0.2175  1.6519 -1.2422
  138SOL    HW2  551   0.438   0.526   1.117  1.8601  1.4524  2.2816
  138SOL     MW  552   0.421   0.517   1.203 -0.0208  0.6695  0.1707
  139SOL     OW  553   2.799   0.574   1.317 -0.1590 -0.0250  0.7434
  139SOL    HW1  554   2.852   0.491   1.337  1.0630 -0.5603 -1.0122
  139SOL    HW2  555   2.833   0.629   1.389  1.3056  0.2100  1.6019
  139SOL     MW  556   2.810   0.570   1.329  0.1955 -0.0646  0.6250
  140SOL     OW  557   0.866   0.480   2.005 -0.3596  0.1350  0.0262
  140SOL    HW1  558   0.869   0.387   1.986 -0.3153  0.7286  2.1294
  140SOL    HW2  559   0.851   0.492   2.104  1.1295 -0.9064  0.4057
  140SOL     MW  560   0.864   0.469   2.016 -0.1573  0.0759  0.3537
  141SOL     OW  561   0.995   0.649   1.667  0.0050 -0.2717 -0.2814
  141SOL    HW1  562   1.048   0.574   1.652  0.8733  1.5031 -0.2797
  141SOL    HW2  563   1.056   0.724   1.681 -1.5172  2.6865  0.6073
  141SOL     MW  564   1.010   0.649   1.667 -0.0813  0.3527 -0.1639
  142SOL     OW  565   0.850   1.185   0.742  0.0512  0.7158 -0.3460
  142SOL    HW1  566   0.836   1.110   0.682  2.2863 -0.7597  0.0622
  142SOL    HW2  567   0.947   1.185   0.752 -1.0546  0.4636 -3.2580
  142SOL     MW  568   0.861   1.175   0.735  0.2002  0.4878 -0.6763
  143SOL     OW  569   1.825   0.690   1.079  0.4573 -0.0109 -0.6023
  143SOL    HW1  570   1.890   0.695   1.007  2.4114 -3.4806  0.0990
  143SOL    HW2  571   1.743   0.727   1.049  1.2656 -0.0091 -1.7088
  143SOL     MW  572   1.823   0.696   1.065  0.8217 -0.4685 -0.6558
  144SOL     OW  573   0.278   1.349   1.711  0.0815 -0.6161  0.1515
  144SOL    HW1  574   0.372   1.386   1.697  0.0515  0.0663 -1.5243
  144SOL    HW2  575   0.293   1.291   1.786 -2.2477  0.4937 -1.6304
  144SOL     MW  576   0.293   1.346   1.719 -0.2298 -0.3796 -0.3047
  145SOL     OW  577   0.152   0.451   1.232  0.0298 -0.5732 -0.1939
  145SOL    HW1  578   0.219   0.379   1.245 -0.2934  1.0839 -0.4792
  145SOL    HW2  579   0.112   0.442   1.143  1.0783  2.6877  1.1720
  145SOL     MW  580   0.155   0.440   1.222  0.1255  0.0757 -0.0513
  146SOL     OW  581   0.891   1.895   1.361 -0.2642 -0.2462 -0.3200
  146SOL    HW1  582   0.933   1.940   1.289 -1.8806 -0.4410 -2.7789
  146SOL    HW2  583   0.816   1.854   1.316 -0.6554 -1.8982  1.6522
  146SOL     MW  584   0.887   1.895   1.346 -0.5290 -0.4898 -0.3842
  147SOL     OW  585   0.432   0.508   2.941 -0.3035 -0.2157 -0.4646
  147SOL    HW1  586   0.365   0.528   3.010  1.2755 -1.2724  0.8261
  147SOL    HW2  587   0.409   0.565   2.865  0.2704  2.3395  0.7157
  147SOL     MW  588   0.420   0.518   2.940 -0.0194 -0.0180 -0.1386
  148SOL     OW  589   0.029   0.928   1.271  0.3734  0.1620 -0.1236
  148SOL    HW1  590   0.113   0.954   1.309  0.3666 -1.0835  0.3405
  148SOL    HW2  591  -0.012   0.997   1.332 -2.8608 -0.6055 -0.9859
  148SOL     MW  592   0.034   0.940   1.284 -0.0542 -0.1036 -0.1761
  149SOL     OW  593   1.572   1.169   1.473  0.2624  0.1748 -0.4360
  149SOL    HW1  594   1.508   1.129   1.538  0.6732  0.0495 -2.2306
  149SOL    HW2  595   1.544   1.256   1.444  0.6054 -1.0834 -0.8056
  149SOL     MW  596   1.560   1.175   1.478  0.3618 -0.0077 -0.7215
  150SOL     OW  597   1.732   1.365   0.882 -0.0512  0.2896  0.4784
  150SOL    HW1  598   1.806   1.305   0.868  1.4312  1.3996 -4.1534
  150SOL    HW2  599   1.777   1.451   0.900  2.4411  1.2273  0.8962
  150SOL     MW  600   1.748   1.369   0.883  0.4732  0.5597 -0.0776
  151SOL     OW  601   1.689   1.831   0.804 -0.2047 -0.2715  0.5026
  151SOL    HW1  602   1.657   1.848   0.715 -0.3188 -0.2380 -0.6639
  151SOL    HW2  603   1.614   1.840   0.856 -0.6530  0.1271 -0.1077
  151SOL     MW  604   1.675   1.834   0.799 -0.2789 -0.2145  0.2682
  152SOL     OW  605   0.765   1.447   1.632 -0.1558  0.1401  0.0806
  152SOL    HW1  606   0.758   1.492   1.544 -1.6694 -1.2834 -0.7387
  152SOL    HW2  607   0.751   1.359   1.606 -1.9143  2.3969 -1.0373
  152SOL     MW  608   0.763   1.441   1.617 -0.5875  0.2501 -0.1750
  153SOL     OW  609   2.548   1.209   0.760  0.1893 -0.5358 -0.3384
  153SOL    HW1  610   2.622   1.169   0.713 -1.3256 -0.3033 -2.7152
  153SOL    HW2  611   2.488   1.132   0.751  0.5187  1.4565  1.0037
  153SOL     MW  612   2.550   1.194   0.753  0.0329 -0.2423 -0.4749
  154SOL     OW  613   0.107   1.758   1.757 -0.2269 -0.2123  0.6098
  154SOL    HW1  614   0.076   1.679   1.722  0.5025  3.0353  3.2645
  154SOL    HW2  615   0.197   1.726   1.770 -2.6594  1.4126 -2.3035
  154SOL     MW  616   0.115   1.744   1.754 -0.4516  0.4306  0.5757
  155SOL     OW  617   1.182   0.739   0.320  0.2149  0.1557 -0.0984
  155SOL    HW1  618   1.164   0.708   0.413 -1.5546 -0.5835  1.7763
  155SOL    HW2  619   1.192   0.831   0.335  2.6282 -0.1267 -1.4303
  155SOL     MW  620   1.181   0.747   0.334  0.2998  0.0209 -0.0268
  156SOL     OW  621   1.553   3.042   1.115  0.2059  0.1028 -0.0038
  156SOL    HW1  622   1.632   3.092   1.142  0.2789 -0.6493 -2.8543
  156SOL    HW2  623   1.585   2.955   1.090  1.5959  0.5652 -0.4616
  156SOL     MW  624   1.568   3.037   1.115  0.3989  0.0646 -0.4403
  157SOL     OW  625   1.383   1.159   0.092  0.4180 -0.2687  0.0848
  157SOL    HW1  626   1.396   1.096   0.155  0.3822  1.9248  2.2843
  157SOL    HW2  627   1.444   1.230   0.093 -2.7320  0.7911  0.4710
  157SOL     MW  628   1.393   1.160   0.100 -0.0023  0.1605  0.4260
  158SOL     OW  629   0.443   1.702   2.289 -0.3423  0.0435  0.0912
  158SOL    HW1  630   0.466   1.735   2.201  2.4685 -0.4603  1.6659
  158SOL    HW2  631   0.361   1.743   2.308 -0.1320  1.8271 -0.6282
  158SOL     MW  632   0.435   1.712   2.280  0.0563  0.2124  0.2040
  159SOL     OW  633   1.235   1.604   0.479 -0.3847 -0.1553  0.1244
  159SOL    HW1  634   1.183   1.589   0.398 -1.4934 -0.8689 -0.1078
  159SOL    HW2  635   1.201   1.690   0.515 -1.9736 -0.3572  0.8180
  159SOL     MW  636   1.224   1.613   0.473 -0.7406 -0.2761  0.1853
  160SOL     OW  637   0.516   1.253   1.539  0.3390 -0.1423  0.2444
  160SOL    HW1  638   0.450   1.193   1.573 -0.5081 -2.6465 -1.0430
  160SOL    HW2  639   0.593   1.194   1.553  1.1127  1.7490 -0.9558
  160SOL     MW  640   0.517   1.237   1.545  0.3293 -0.2232 -0.0838
  161SOL     OW  641   0.458   2.223   2.572  0.4186  0.8517  0.1913
  161SOL    HW1  642   0.364   2.231   2.573 -3.2948  0.1445 -2.7452
  161SOL    HW2  643   0.476   2.135   2.525 -0.0919 -1.9364  0.1007
  161SOL     MW  644   0.448   2.212   2.566 -0.1387  0.3905 -0.2081
  162SOL     OW  645   1.066   1.836   1.826  0.5572  0.1189 -0.2844
  162SOL    HW1  646   1.069   1.928   1.834 -0.6866  0.1528 -0.0377
  162SOL    HW2  647   0.980   1.808   1.857  0.2692  1.0386 -3.2581
  162SOL     MW  648   1.055   1.844   1.831  0.3551  0.2447 -0.6442
  163SOL     OW  649   2.086   3.066   0.882  0.5561  0.2247 -0.3327
  163SOL    HW1  650   2.077   3.139   0.812  0.0722 -1.0617 -1.4421
  163SOL    HW2  651   2.030   2.994   0.855  0.6552  0.2135  0.1194
  163SOL     MW  652   2.077   3.066   0.869  0.5053  0.0535 -0.4194
  164SOL     OW  653   0.312   0.205   0.798 -0.2478  0.0243 -0.4516
  164SOL    HW1  654   0.217   0.207   0.813 -2.6006 -0.1643  0.8621
  164SOL    HW2  655   0.314   0.126   0.749  0.4750  0.9122  1.0010
  164SOL     MW  656   0.299   0.195   0.793 -0.4629  0.1165 -0.0866
  165SOL     OW  657   1.196   1.324   0.339 -0.3345  0.2027 -0.5037
  165SOL    HW1  658   1.217   1.292   0.426 -0.6738  0.1007  1.9554
  165SOL    HW2  659   1.213   1.244   0.287  2.2523 -1.5265 -1.0304
  165SOL     MW  660   1.201   1.309   0.343 -0.0380 -0.0389 -0.2487
  166SOL     OW  661   0.532   1.126   1.010 -0.0663  0.2204 -0.1115
  166SOL    HW1  662   0.519   1.154   1.098  0.6279  0.9818 -3.1184
  166SOL    HW2  663   0.633   1.116   0.996 -0.2245  1.2038 -0.5080
  166SOL     MW  664   0.544   1.128   1.020  0.0044  0.4506 -0.5606
  167SOL     OW  665   0.800   1.120   0.250 -0.0439  0.6551 -0.3077
  167SOL    HW1  666   0.820   1.216   0.266  0.0956 -2.0159  0.6025
  167SOL    HW2  667   0.882   1.090   0.207  0.9811 -0.6037  0.9095
  167SOL     MW  668   0.814   1.129   0.247  0.1097  0.1366 -0.0270
  168SOL     OW  669   1.767   1.674   3.044  0.2941  0.2009  0.0424
  168SOL    HW1  670   1.691   1.722   3.008 -1.8826  0.6998 -0.7466
  168SOL    HW2  671   1.751   1.582   3.012  0.4360 -0.7961 -2.0765
  168SOL     MW  672   1.755   1.668   3.035  0.0256  0.1352 -0.3413
  169SOL     OW  673   0.286   0.948   1.345 -0.1122 -0.2692  0.1084
  169SOL    HW1  674   0.337   0.933   1.427  3.7526 -1.1152  1.1247
  169SOL    HW2  675   0.293   1.043   1.333  0.0902  1.4522  2.6827
  169SOL     MW  676   0.293   0.958   1.354  0.4244 -0.1537  0.5822
  170SOL     OW  677   1.174   1.494   1.448  0.3293  0.0083 -0.1147
  170SOL    HW1  678   1.120   1.563   1.474  3.1959 -0.5235 -4.5859
  170SOL    HW2  679   1.155   1.500   1.357  2.1976 -2.2307  1.5160
  170SOL     MW  680   1.164   1.504   1.439  0.9541 -0.3573 -0.4894
  171SOL     OW  681   0.497   1.420   0.529  0.7387  0.4231 -0.4494
  171SOL    HW1  682   0.412   1.397   0.578 -2.8142 -0.4162 -1.7727
  171SOL    HW2  683   0.503   1.353   0.461  0.2271 -1.5179 -0.0364
  171SOL     MW  684   0.487   1.408   0.527  0.2024  0.0563 -0.5695
  172SOL     OW  685   0.823   0.281   1.239 -0.6923 -0.8186 -0.3360
  172SOL    HW1  686   0.790   0.230   1.171 -3.1050 -0.7412  0.4274
  172SOL    HW2  687   0.859   0.218   1.303 -1.2560 -1.3852  2.2103
  172SOL     MW  688   0.823   0.266   1.239 -1.0850 -0.8831  0.1007
  173SOL     OW  689   0.531   1.775   0.297 -0.0271 -0.5702 -0.0528
  173SOL    HW1  690   0.541   1.683   0.264 -0.8562  1.1380  0.2248
  173SOL    HW2  691   0.531   1.777   0.393 -1.8516  0.1136 -1.2044
  173SOL     MW  692   0.532   1.763   0.305 -0.3772 -0.2546 -0.1681
  174SOL     OW  693   1.849   0.889   1.485 -0.2433 -0.3306 -0.3425
  174SOL    HW1  694   1.786   0.821   1.517  0.5586 -1.5179  0.9455
  174SOL    HW2  695   1.817   0.918   1.397  0.3422 -2.5390 -1.4301
  174SOL     MW  696   1.836   0.884   1.478 -0.0603 -0.7786 -0.3160
  175SOL     OW  697   0.563   1.529   0.190  0.7297  0.4340 -0.4427
  175SOL    HW1  698   0.502   1.454   0.205 -0.0262 -1.5410 -1.2657
  175SOL    HW2  699   0.638   1.506   0.248 -3.6297  1.5885 -1.3672
  175SOL     MW  700   0.565   1.516   0.200  0.0548  0.3257 -0.6733
  176SOL     OW  701   0.158   1.461   1.181  0.4567  0.2166 -0.2295
  176SOL    HW1  702   0.130   1.435   1.086 -1.3552 -1.1122 -2.2514
  176SOL    HW2  703   0.082   1.434   1.239 -2.1283 -1.3279 -2.2066
  176SOL     MW  704   0.144   1.454   1.176 -0.1234 -0.1625 -0.7571
  177SOL     OW  705   0.524   0.317   1.450 -0.7774  0.0132 -0.1033
  177SOL    HW1  706   0.588   0.346   1.382 -0.1005 -0.0667  0.3701
  177SOL    HW2  707   0.536   0.380   1.520 -1.2026  0.1849 -1.9462
  177SOL     MW  708   0.534   0.329   1.450 -0.7442  0.0253 -0.2840
  178SOL     OW  709   3.096   0.501   2.997  0.1492 -0.5372 -0.0928
  178SOL    HW1  710   3.048   0.506   3.085  1.1591 -0.3448 -0.5467
  178SOL    HW2  711   3.020   0.490   2.935  2.2008 -0.1928 -2.7479
  178SOL     MW  712   3.080   0.501   3.000  0.5532 -0.4664 -0.5030
  179SOL     OW  713   1.551   1.425   1.383 -0.1471  0.1250  0.1968
  179SOL    HW1  714   1.551   1.454   1.472 -2.0718 -0.5520  0.9236
  179SOL    HW2  715   1.637   1.404   1.344 -1.9447 -1.4542  1.9083
  179SOL     MW  716   1.562   1.426   1.390 -0.6382 -0.1727  0.5185
  180SOL     OW  717   2.999   0.280   0.504  0.1482 -0.1037 -0.1286
  180SOL    HW1  718   2.985   0.253   0.409  0.8981 -0.3497  0.7227
  180SOL    HW2  719   3.007   0.378   0.501  0.6063  1.7279 -1.3301
  180SOL     MW  720   2.998   0.290   0.491  0.3076  0.1055 -0.1748
  181SOL     OW  721   1.147   1.291   3.079 -0.1930 -0.1014 -0.2435
  181SOL    HW1  722   1.209   1.357   3.110  0.2561 -1.5826  3.0891
  181SOL    HW2  723   1.181   1.242   3.002  1.3314 -2.1519  3.1315
  181SOL     MW  724   1.159   1.293   3.073  0.0674 -0.5674  0.6415
  182SOL     OW  725   0.378   0.998   1.616  0.1952 -0.2720 -0.0405
  182SOL    HW1  726   0.298   0.977   1.667 -1.4939 -0.5266  1.6519
  182SOL    HW2  727   0.450   0.961   1.667 -1.2225  1.9322  1.0781
  182SOL     MW  728   0.377   0.991   1.630 -0.2147 -0.0148  0.3304
  183SOL     OW  729   1.526   1.731   1.283 -0.0494  0.0719 -0.0968
  183SOL    HW1  730   1.620   1.725   1.284 -0.1619 -0.0661  1.5191
  183SOL    HW2  731   1.479   1.667   1.333  1.5191  0.0636 -0.9513
  183SOL     MW  732   1.532   1.722   1.289  0.1427  0.0526  0.0036
  184SOL     OW  733   0.789   0.708   1.865  0.1325  0.2146 -0.7374
  184SOL    HW1  734   0.870   0.701   1.810  0.4034 -0.4964  0.5769
  184SOL    HW2  735   0.799   0.626   1.917 -0.6671 -2.2758 -1.1649
  184SOL     MW  736   0.801   0.696   1.865  0.0628 -0.2078 -0.6204
  185SOL     OW  737   1.068   0.938   1.883 -0.5107 -0.0065 -0.3495
  185SOL    HW1  738   1.067   0.851   1.920  3.1477  0.2508 -0.6633
  185SOL    HW2  739   1.135   0.982   1.932 -0.4776  1.1645 -0.6207
  185SOL     MW  740   1.077   0.932   1.894 -0.0236  0.1820 -0.4267
  186SOL     OW  741   0.305   1.642   1.472  0.3097  0.3373 -0.2368
  186SOL    HW1  742   0.357   1.599   1.402 -1.6191 -1.4879  1.2040
  186SOL    HW2  743   0.223   1.588   1.497  0.1721 -0.5139 -2.5270
  186SOL     MW  744   0.301   1.629   1.466  0.0370 -0.0158 -0.3489
  187SOL     OW  745   1.507   0.745   1.369 -0.3649  0.3286  0.5767
  187SOL    HW1  746   1.553   0.693   1.434 -0.0713 -0.4116 -0.8641
  187SOL    HW2  747   1.412   0.744   1.385 -1.3699 -0.5699 -1.7097
  187SOL     MW  748   1.501   0.738   1.380 -0.4588  0.1124  0.0849
  188SOL     OW  749   1.951   1.210   0.815  0.4285  0.4933  0.0993
  188SOL    HW1  750   1.934   1.169   0.907  1.2766 -0.4474  0.2267
  188SOL    HW2  751   1.998   1.136   0.778 -2.8412  1.1189 -0.0856
  188SOL     MW  752   1.955   1.194   0.822  0.1090  0.4517  0.0917
  189SOL     OW  753   0.693   0.760   0.835  0.4449 -0.1693 -0.3799
  189SOL    HW1  754   0.622   0.822   0.848 -1.6945  1.9067  2.1610
  189SOL    HW2  755   0.752   0.771   0.907 -1.6942 -2.9707  0.8777
  189SOL     MW  756   0.692   0.769   0.847 -0.1196 -0.2650  0.1213
  190SOL     OW  757   1.863   0.330   2.129  0.6165 -0.2442 -0.6525
  190SOL    HW1  758   1.880   0.265   2.195  2.2915 -0.6385 -1.0245
  190SOL    HW2  759   1.946   0.379   2.116 -0.5932 -2.3150  3.4043
  190SOL     MW  760   1.876   0.328   2.136  0.6779 -0.5695 -0.1663
  191SOL     OW  761   1.523   1.010   1.252  0.0982  0.6509  0.4909
  191SOL    HW1  762   1.539   1.074   1.321  0.8118 -1.8683  1.4191
  191SOL    HW2  763   1.516   0.924   1.295 -1.3768  0.1928  0.2218
  191SOL     MW  764   1.524   1.007   1.267 -0.0022  0.2581  0.5779
  192SOL     OW  765   0.541   2.128   2.864  0.1649  0.4733  0.5088
  192SOL    HW1  766   0.475   2.150   2.794 -1.1394  1.7853  1.1008
  192SOL    HW2  767   0.553   2.034   2.859  0.9718  2.3400  0.6807
  192SOL     MW  768   0.534   2.119   2.854  0.0993  0.8927  0.6096
  193SOL     OW  769   0.874   1.604   0.785  0.0804 -0.2564  0.6868
  193SOL    HW1  770   0.795   1.605   0.827  0.6010 -0.2869  1.3302
  193SOL    HW2  771   0.867   1.549   0.703  0.2798 -1.2550  0.4845
  193SOL     MW  772   0.863   1.597   0.780  0.1754 -0.3921  0.7450
  194SOL     OW  773   0.513   1.333   0.799 -0.5217 -0.6336  0.3279
  194SOL    HW1  774   0.524   1.257   0.857 -0.9582 -0.3855  0.7943
  194SOL    HW2  775   0.418   1.346   0.779  0.2329 -1.1343 -0.6071
  194SOL     MW  776   0.502   1.324   0.804 -0.4797 -0.6669  0.2661
  195SOL     OW  777   1.296   1.118   2.938 -0.0490  0.1966 -0.0543
  195SOL    HW1  778   1.335   1.135   3.027  2.3564 -4.7490 -1.2149
  195SOL    HW2  779   1.234   1.045   2.945  1.3068 -2.8303 -1.1563
  195SOL     MW  780   1.293   1.110   2.950  0.4473 -0.8553 -0.3528
  196SOL     OW  781   2.258   0.970   0.545 -0.0157 -0.1526  0.4205
  196SOL    HW1  782   2.305   0.942   0.464  2.6116 -0.7026 -1.4524
  196SOL    HW2  783   2.232   1.062   0.525 -1.5758 -0.4679 -0.1064
  196SOL     MW  784   2.260   0.979   0.532  0.1251 -0.2668  0.1039
  197SOL     OW  785   0.594   1.269   2.227 -0.5250 -0.0953 -0.2601
  197SOL    HW1  786   0.615   1.198   2.164 -0.7471  1.7538 -0.8777
  197SOL    HW2  787   0.664   1.325   2.192 -2.4947  1.8202  0.6157
  197SOL     MW  788   0.606   1.267   2.214 -0.8142  0.4014 -0.2261
  198SOL     OW  789   2.933   1.450   1.011  0.1902 -0.1269  0.4083
  198SOL    HW1  790   2.909   1.534   0.975  0.7289 -0.1489  1.1327
  198SOL    HW2  791   2.851   1.392   1.006 -1.1533 -1.8359 -1.5350
  198SOL     MW  792   2.919   1.453   1.006  0.0840 -0.3553  0.2475
  199SOL     OW  793   0.738   1.324   1.868  0.2863 -0.3200 -0.3791
  199SOL    HW1  794   0.648   1.298   1.878  0.5449  0.3380 -1.0657
  199SOL    HW2  795   0.731   1.389   1.794  3.3181 -1.3295 -2.7680
  199SOL     MW  796   0.725   1.329   1.859  0.7204 -0.3664 -0.7849
  200SOL     OW  797   1.841   2.922   1.381 -0.7603  0.5500  0.1936
  200SOL    HW1  798   1.910   2.945   1.319 -1.9091 -1.3631 -3.5552
  200SOL    HW2  799   1.777   2.994   1.390  4.3194 -1.8027 -1.4516
  200SOL     MW  800   1.842   2.935   1.374 -0.2417 -0.0128 -0.5181
  201SOL     OW  801   1.070   0.330   0.730  0.4518 -0.2437  0.0511
  201SOL    HW1  802   1.046   0.238   0.722  2.4413 -0.3878 -0.3647
  201SOL    HW2  803   1.154   0.339   0.785  1.3503  0.9386  0.0889
  201SOL     MW  804   1.078   0.319   0.736  0.8328 -0.1067  0.0012
  202SOL     OW  805   1.471   1.796   0.978  0.2477  0.1475  0.2359
  202SOL    HW1  806   1.494   1.703   0.971 -1.5152 -0.7325  0.2937
  202SOL    HW2  807   1.475   1.815   1.076 -0.5613 -0.4105  0.1447
  202SOL     MW  808   1.475   1.787   0.990 -0.0917 -0.0422  0.2315
  203SOL     OW  809   2.985   0.372   1.424  0.1038 -0.2509 -1.0051
  203SOL    HW1  810   3.056   0.347   1.357 -0.8270 -1.9843 -3.0699
  203SOL    HW2  811   3.039   0.397   1.497 -2.0342  0.0542  0.9585
  203SOL     MW  812   3.001   0.372   1.425 -0.3011 -0.4393 -1.0185
  204SOL     OW  813   1.042   1.801   0.630  0.3354 -0.3543  0.0082
  204SOL    HW1  814   0.985   1.735   0.674 -0.3828  0.4528 -1.7645
  204SOL    HW2  815   0.977   1.837   0.570  1.2857 -0.5526 -0.6869
  204SOL     MW  816   1.026   1.797   0.628  0.3660 -0.2740 -0.3174
  205SOL     OW  817   1.361   3.036   1.336 -0.7018 -0.2971 -0.1003
  205SOL    HW1  818   1.415   3.047   1.259 -0.7058  0.8497  1.5999
  205SOL    HW2  819   1.292   3.105   1.339 -2.0281 -0.3977  1.2716
  205SOL     MW  820   1.359   3.047   1.326 -0.8773 -0.1591  0.3050
  206SOL     OW  821   0.453   3.067   1.350 -0.6683 -0.1268  0.0681
  206SOL    HW1  822   0.413   3.042   1.264 -1.6424 -2.5286  0.3862
  206SOL    HW2  823   0.529   3.017   1.373 -0.3807  1.8538  1.6186
  206SOL     MW  824   0.457   3.057   1.342 -0.7589 -0.1824  0.3146
  207SOL     OW  825   0.875   1.710   0.186 -0.1711  0.2112 -0.6062
  207SOL    HW1  826   0.909   1.795   0.168  0.2744 -1.1287  1.8578
  207SOL    HW2  827   0.950   1.655   0.182 -0.0648  0.7322  0.4729
  207SOL     MW  828   0.890   1.714   0.183 -0.0983  0.1032 -0.1387
  208SOL     OW  829   0.728   1.599   1.419  0.5761 -0.3478  0.0606
  208SOL    HW1  830   0.814   1.629   1.449 -2.5777  0.9939 -1.2951
  208SOL    HW2  831   0.748   1.581   1.321 -0.8055 -2.2343 -2.0455
  208SOL     MW  832   0.742   1.600   1.410 -0.0223 -0.4197 -0.3962
  209SOL     OW  833   1.523   0.515   2.831 -0.0367  0.2744  0.4365
  209SOL    HW1  834   1.572   0.595   2.863  2.7611  1.2672  0.8682
  209SOL    HW2  835   1.587   0.444   2.829 -0.8722 -1.2220  0.8735
  209SOL     MW  836   1.538   0.516   2.835  0.2222  0.2079  0.5511
  210SOL     OW  837   1.463   1.494   0.922  0.2233  0.4358  0.3273
  210SOL    HW1  838   1.553   1.461   0.903  0.2735  1.5857  2.9468
  210SOL    HW2  839   1.412   1.476   0.839  0.0265 -2.4348 -1.6802
  210SOL     MW  840   1.468   1.488   0.909  0.2039  0.2088  0.4080
  211SOL     OW  841   1.722   0.298   0.990  0.0269  0.0881 -0.2232
  211SOL    HW1  842   1.732   0.324   0.902 -1.5049 -0.9592  0.6618
  211SOL    HW2  843   1.804   0.325   1.028  1.5062 -2.0835  1.1787
  211SOL     MW  844   1.734   0.305   0.984  0.0200 -0.3366  0.0785
  212SOL     OW  845   0.301   1.092   0.211  0.4418  0.3877  0.4681
  212SOL    HW1  846   0.235   1.047   0.265  0.0522 -2.4247 -0.0503
  212SOL    HW2  847   0.326   1.018   0.146  0.7189  1.4817 -1.5227
  212SOL     MW  848   0.295   1.076   0.209  0.4270  0.1610  0.1370
  213SOL     OW  849   0.406   1.801   3.008 -0.5369  0.2627  0.1971
  213SOL    HW1  850   0.444   1.852   3.074 -0.9781  0.4722  0.7301
  213SOL    HW2  851   0.466   1.818   2.931 -2.0985 -0.1134  1.0633
  213SOL     MW  852   0.419   1.810   3.007 -0.8012  0.2407  0.3817
  214SOL     OW  853   0.624   0.316   2.130  0.3338  0.2459 -0.0039
  214SOL    HW1  854   0.562   0.383   2.144  0.6830 -2.4415  0.3589
  214SOL    HW2  855   0.627   0.289   2.036  0.6647 -0.1063 -0.4316
  214SOL     MW  856   0.616   0.321   2.120  0.4235 -0.1551 -0.0124
  215SOL     OW  857   0.497   0.596   2.574 -0.1940 -0.6935 -0.1187
  215SOL    HW1  858   0.473   0.636   2.492  0.6926 -1.0553 -2.3351
  215SOL    HW2  859   0.408   0.576   2.615 -0.4238 -0.8367  2.5183
  215SOL     MW  860   0.482   0.598   2.568 -0.1073 -0.7601 -0.0632
  216SOL     OW  861   2.974   3.050   2.708  0.0787 -0.2861  0.1355
  216SOL    HW1  862   2.899   3.045   2.768 -0.5728 -0.3993  1.0146
  216SOL    HW2  863   2.998   3.147   2.697 -1.0327  3.1529 -1.1096
  216SOL     MW  864   2.968   3.062   2.714 -0.1539  0.1527  0.0872
  217SOL     OW  865   1.044   1.064   0.122 -0.6684  0.0081  0.5939
  217SOL    HW1  866   1.055   1.005   0.038  0.0427  1.9463 -1.0346
  217SOL    HW2  867   1.067   1.148   0.087 -1.1285  0.0206  0.4315
  217SOL     MW  868   1.048   1.067   0.106 -0.6353  0.2655  0.3576
  218SOL     OW  869   0.879   1.365   2.692 -0.1844  0.3277  0.2338
  218SOL    HW1  870   0.902   1.291   2.748  2.0678 -0.7215  0.3284
  218SOL    HW2  871   0.964   1.403   2.659  0.2067  3.5942  0.0945
  218SOL     MW  872   0.893   1.360   2.695  0.1644  0.6202  0.2279
  219SOL     OW  873   1.053   0.377   2.634 -0.0606  0.5579 -0.2669
  219SOL    HW1  874   1.128   0.435   2.664 -3.5155 -0.9991  1.2855
  219SOL    HW2  875   0.973   0.426   2.632  0.3024  1.9028 -0.7984
  219SOL     MW  876   1.052   0.391   2.637 -0.4685  0.5299 -0.1322
  220SOL     OW  877   1.683   0.505   2.230  0.4378  1.0032 -0.1658
  220SOL    HW1  878   1.619   0.512   2.155 -1.8241 -1.0294 -1.8130
  220SOL    HW2  879   1.750   0.445   2.188  2.2196 -1.2164  1.0604
  220SOL     MW  880   1.683   0.498   2.215  0.3744  0.4422 -0.2213
  221SOL     OW  881   0.344   1.283   2.908  0.4915  0.5311 -0.0587
  221SOL    HW1  882   0.432   1.241   2.897 -0.3959 -0.9089  1.5579
  221SOL    HW2  883   0.342   1.355   2.844  1.0754 -2.9522  0.5379
  221SOL     MW  884   0.356   1.287   2.898  0.4515 -0.1185  0.2333
  222SOL     OW  885   0.511   0.923   2.691  0.0196  0.5432 -0.4606
  222SOL    HW1  886   0.433   0.956   2.651 -3.5406  0.5633  2.5329
  222SOL    HW2  887   0.497   0.830   2.719  1.7912  1.2299  1.9655
  222SOL     MW  888   0.499   0.915   2.689 -0.2164  0.6365  0.2545
  223SOL     OW  889   0.004   2.011   2.569 -0.3763  0.6080  0.1852
  223SOL    HW1  890  -0.037   1.995   2.652 -0.5723 -1.0415  0.5854
  223SOL    HW2  891   0.037   2.104   2.579 -0.3895 -0.7295 -1.6627
  223SOL     MW  892   0.003   2.021   2.581 -0.4039  0.2139 -0.0058
  224SOL     OW  893   1.455   0.734   2.505 -0.2192 -0.2842 -0.4194
  224SOL    HW1  894   1.445   0.753   2.597  0.1286 -3.2424 -1.3295
  224SOL    HW2  895   1.459   0.821   2.463  0.0087  1.1048 -4.0468
  224SOL     MW  896   1.454   0.748   2.511 -0.1433 -0.4912 -1.0181
  225SOL     OW  897   2.950   1.434   2.300  0.2028  0.2040 -0.6257
  225SOL    HW1  898   2.996   1.493   2.239  0.7684 -3.2375 -1.7566
  225SOL    HW2  899   2.898   1.477   2.366  2.5500  0.8796  1.2562
  225SOL     MW  900   2.949   1.448   2.301  0.5871 -0.1609 -0.5266
  226SOL     OW  901   0.401   1.504   2.741  0.1185  0.3135 -0.8784
  226SOL    HW1  902   0.471   1.506   2.805 -2.4292 -0.7655  1.0953
  226SOL    HW2  903   0.391   1.594   2.698  0.9744  2.6387 -0.7325
  226SOL     MW  904   0.409   1.516   2.744 -0.1047  0.4779 -0.5987
  227SOL     OW  905   0.569   1.140   2.887  0.0517  0.0971  0.7626
  227SOL    HW1  906   0.645   1.179   2.841 -0.0279 -0.4553  0.0817
  227SOL    HW2  907   0.541   1.065   2.840  1.0944  0.9811  2.1880
  227SOL     MW  908   0.575   1.136   2.875  0.1787  0.1408  0.8608
  228SOL     OW  909   0.756   1.128   2.053 -0.0536  0.9556 -0.7519
  228SOL    HW1  910   0.775   1.198   1.988  0.4661 -1.6060 -0.8746
  228SOL    HW2  911   0.822   1.140   2.124 -0.8153  0.5595  1.0368
  228SOL     MW  912   0.767   1.139   2.054 -0.0856  0.5654 -0.5321
  229SOL     OW  913   0.242   0.608   0.010  0.3275 -0.3690 -0.3668
  229SOL    HW1  914   0.154   0.590  -0.032 -3.7648  0.9154 -0.3272
  229SOL    HW2  915   0.246   0.550   0.088 -0.6911  1.1443  0.3520
  229SOL     MW  916   0.231   0.598   0.014 -0.3469  0.0001 -0.2667
  230SOL     OW  917   1.804   1.353   1.984  0.0163  0.2019 -0.7706
  230SOL    HW1  918   1.788   1.305   2.066  0.2819 -2.7305  0.7441
  230SOL    HW2  919   1.891   1.339   1.951  2.7867 -1.3323  0.7575
  230SOL     MW  920   1.813   1.345   1.991  0.4169 -0.3874 -0.3691
  231SOL     OW  921   2.732   1.274   2.208 -0.0744  0.4418  0.0229
  231SOL    HW1  922   2.801   1.331   2.247 -0.4094 -1.3629 -1.9785
  231SOL    HW2  923   2.687   1.323   2.137  2.3643  2.1149  1.7181
  231SOL     MW  924   2.735   1.288   2.204  0.2031  0.4244 -0.0175
  232SOL     OW  925   2.286   0.797   1.984 -0.0681  0.3123 -0.4342
  232SOL    HW1  926   2.224   0.822   1.912  2.0337  1.8764 -1.4663
  232SOL    HW2  927   2.246   0.817   2.068 -0.1683  1.1725  0.4540
  232SOL     MW  928   2.273   0.803   1.985  0.1960  0.6321 -0.4532
  233SOL     OW  929   2.097   0.466   2.082  0.4739 -0.2470 -0.1671
  233SOL    HW1  930   2.176   0.414   2.067  1.2636 -0.8016  0.8060
  233SOL    HW2  931   2.126   0.535   2.131  0.5302 -1.5003  0.8577
  233SOL     MW  932   2.111   0.469   2.087  0.5855 -0.4855  0.0965
  234SOL     OW  933   0.258   1.042   2.611  0.0354 -0.3487 -0.3223
  234SOL    HW1  934   0.197   1.024   2.539  0.1704  0.6868 -2.5436
  234SOL    HW2  935   0.289   1.128   2.586 -0.3390 -0.4585  0.8495
  234SOL     MW  936   0.254   1.051   2.598  0.0038 -0.2265 -0.4608
  235SOL     OW  937   1.009   3.034   2.801  0.3072  0.2175  0.2209
  235SOL    HW1  938   1.069   3.012   2.879 -0.0258 -3.3959 -1.5614
  235SOL    HW2  939   1.022   3.131   2.815 -1.0105 -0.1422  2.7520
  235SOL     MW  940   1.019   3.044   2.813  0.0894 -0.3067  0.3197
  236SOL     OW  941   2.935   0.588   0.136 -0.4707  0.2059  0.4476
  236SOL    HW1  942   2.940   0.606   0.227  1.9081  1.4590  0.2545
  236SOL    HW2  943   2.960   0.666   0.086  2.2543  0.5990  0.7495
  236SOL     MW  944   2.939   0.600   0.141  0.2027  0.4231  0.4620
  237SOL     OW  945   1.957   1.058   2.175  0.6239 -0.6826  0.1509
  237SOL    HW1  946   1.905   1.060   2.093  0.1633 -0.2287 -1.2728
  237SOL    HW2  947   2.015   0.982   2.159 -1.7077  1.8554 -0.3248
  237SOL     MW  948   1.957   1.048   2.162  0.2555 -0.2878 -0.0997
  238SOL     OW  949   1.084   1.762   2.964 -0.1212 -0.3206 -0.1131
  238SOL    HW1  950   1.037   1.704   2.908 -2.8294 -1.4077  2.0027
  238SOL    HW2  951   1.173   1.729   2.940  0.0533 -2.3781 -1.3329
  238SOL     MW  952   1.090   1.750   2.954 -0.4555 -0.7355  0.0051
  239SOL     OW  953   1.179   1.296   2.275 -0.2774 -0.6442  0.2215
  239SOL    HW1  954   1.095   1.254   2.264 -1.1833  0.7017 -1.6170
  239SOL    HW2  955   1.197   1.249   2.359 -0.8795  0.4823 -0.9375
  239SOL     MW  956   1.170   1.284   2.285 -0.4763 -0.3180 -0.1740
  240SOL     OW  957   0.600   0.878   2.215  0.2907 -0.4104 -0.5061
  240SOL    HW1  958   0.640   0.925   2.298  0.6647 -1.4873  1.7704
  240SOL    HW2  959   0.681   0.844   2.180 -0.5490 -3.1754 -1.5129
  240SOL     MW  960   0.616   0.880   2.221  0.2292 -0.9173 -0.3386
  241SOL     OW  961   0.680   0.481   3.059  0.0730 -0.2835 -0.6174
  241SOL    HW1  962   0.703   0.561   3.113  0.8955 -0.5195  1.3193
  241SOL    HW2  963   0.595   0.495   3.023  1.0981 -1.1498  0.0116
  241SOL     MW  964   0.672   0.493   3.062  0.3168 -0.4289 -0.2789
  242SOL     OW  965   1.506   1.688   2.268 -0.2681 -0.4994 -0.0281
  242SOL    HW1  966   1.448   1.760   2.269  1.5885 -2.5187  1.5942
  242SOL    HW2  967   1.459   1.627   2.214 -0.2498  0.9051  2.2007
  242SOL     MW  968   1.492   1.690   2.261 -0.0207 -0.5805  0.4800
  243SOL     OW  969   0.991   0.309   2.356 -0.0049  0.7474 -0.1405
  243SOL    HW1  970   1.064   0.258   2.324 -1.3416  3.6892 -1.3537
  243SOL    HW2  971   1.027   0.359   2.435 -0.6985  3.8214  2.3815
  243SOL     MW  972   1.005   0.309   2.362 -0.2728  1.5412  0.0322
  244SOL     OW  973   0.142   0.784   2.372  0.1569 -0.3309 -0.0146
  244SOL    HW1  974   0.110   0.871   2.355  3.0983 -2.6500  1.1849
  244SOL    HW2  975   0.232   0.788   2.338  1.0224 -1.2054  0.6831
  244SOL     MW  976   0.150   0.796   2.365  0.6592 -0.7522  0.2357
  245SOL     OW  977   1.250   0.200   2.322  0.3867 -0.1025  0.5096
  245SOL    HW1  978   1.321   0.141   2.293  2.8629 -0.0757  2.8564
  245SOL    HW2  979   1.289   0.233   2.406 -0.3532  0.1201  1.6542
  245SOL     MW  980   1.264   0.197   2.329  0.6158 -0.0696  0.9702
  246SOL     OW  981   1.210   1.121   2.046  0.3904 -0.2540 -0.3949
  246SOL    HW1  982   1.146   1.154   2.102  0.6919 -1.5540 -2.6573
  246SOL    HW2  983   1.301   1.132   2.095  0.5326 -1.3183  0.8850
  246SOL     MW  984   1.214   1.127   2.060  0.4489 -0.5660 -0.5245
  247SOL     OW  985   0.775   0.650   0.159  0.7020 -0.1159  0.2402
  247SOL    HW1  986   0.750   0.742   0.149 -0.8856  1.7816  1.9733
  247SOL    HW2  987   0.857   0.640   0.108 -1.0308  2.5325  0.3446
  247SOL     MW  988   0.783   0.661   0.151  0.2639  0.4839  0.4826
  248SOL     OW  989   0.338   1.290   2.538 -0.1968  0.3080 -0.4149
  248SOL    HW1  990   0.328   1.317   2.448  1.4236 -1.9344  0.6326
  248SOL    HW2  991   0.386   1.358   2.589  1.0522 -0.0088  3.4257
  248SOL     MW  992   0.343   1.303   2.533  0.1818 -0.0297  0.2301
  249SOL     OW  993   3.011   1.909   2.840 -0.4733  0.0754  0.0520
  249SOL    HW1  994   2.957   1.842   2.881 -0.7959  0.6567 -0.5193
  249SOL    HW2  995   3.100   1.876   2.847  0.3114  2.1180 -0.2496
  249SOL     MW  996   3.015   1.896   2.847 -0.4124  0.4216 -0.0631
  250SOL     OW  997   2.132   0.853   2.205  0.3018 -0.0546  0.1347
  250SOL    HW1  998   2.166   0.771   2.242 -3.2870  1.5597 -2.2459
  250SOL    HW2  999   2.171   0.919   2.261 -3.3874  1.5067 -1.0872
  250SOL     MW 1000   2.142   0.851   2.217 -0.6584  0.3644 -0.3406
  251SOL     OW 1001   0.156   0.894   2.015  0.3757 -0.0292  0.3197
  251SOL    HW1 1002   0.110   0.806   2.028 -2.4563 -0.2671 -0.8900
  251SOL    HW2 1003   0.144   0.906   1.922 -1.7848 -2.0169  0.1166
  251SOL     MW 1004   0.148   0.884   2.005 -0.2830 -0.3229  0.1333
  252SOL     OW 1005   1.637   0.982   2.818 -0.3912 -0.8244 -0.0098
  252SOL    HW1 1006   1.652   1.024   2.904 -0.7470  0.8591 -0.6983
  252SOL    HW2 1007   1.715   1.000   2.769  0.3867 -1.4930 -3.4221
  252SOL     MW 1008   1.650   0.990   2.823 -0.3355 -0.6905 -0.5509
  253SOL     OW 1009   1.152   1.700   2.445  0.1944 -0.1080  0.1244
  253SOL    HW1 1010   1.163   1.656   2.353 -1.8971 -4.1178 -2.2880
  253SOL    HW2 1011   1.066   1.735   2.462  2.2315 -1.1234  1.2706
  253SOL     MW 1012   1.142   1.699   2.435  0.1872 -0.7710 -0.0427
  254SOL     OW 1013   0.952   1.137   2.240  0.2174 -0.0167  0.0354
  254SOL    HW1 1014   0.974   1.048   2.233  3.0078  0.2380  0.8024
  254SOL    HW2 1015   0.920   1.149   2.330  1.1521 -0.2585  0.9362
  254SOL     MW 1016   0.951   1.127   2.251  0.7089 -0.0150  0.2555
  255SOL     OW 1017   0.880   2.576   2.173 -0.1629  0.2593  0.7129
  255SOL    HW1 1018   0.799   2.515   2.160 -3.0422 -1.6045 -3.2104
  255SOL    HW2 1019   0.936   2.512   2.209 -0.0768  2.1844  0.3187
  255SOL     MW 1020   0.877   2.559   2.176 -0.5314  0.2674  0.1432
  256SOL     OW 1021   1.214   2.770   2.994  0.3542 -0.1286  0.0720
  256SOL    HW1 1022   1.156   2.729   2.930  0.2527  0.4326 -1.5950
  256SOL    HW2 1023   1.303   2.774   2.946  2.0726  0.4593 -0.4028
  256SOL     MW 1024   1.218   2.765   2.979  0.5676  0.0230 -0.2106
  257SOL     OW 1025   0.038   1.904   0.080  0.3250 -0.0962  1.2937
  257SOL    HW1 1026   0.079   1.868   0.151 -1.8014 -0.1030  0.4441
  257SOL    HW2 1027   0.078   1.867   0.001  0.3852 -0.3857  1.7972
  257SOL     MW 1028   0.049   1.894   0.079  0.0524 -0.1353  1.2480
  258SOL     OW 1029   0.698   0.972   2.472 -0.4365  0.3086  0.2658
  258SOL    HW1 1030   0.712   1.061   2.452 -2.1938 -3.3242 -0.9114
  258SOL    HW2 1031   0.655   0.961   2.550 -0.9822  1.7856 -1.2706
  258SOL     MW 1032   0.694   0.982   2.479 -0.7404  0.0242 -0.0922
  259SOL     OW 1033   0.801   0.473   2.263 -0.2433 -0.7132 -0.8883
  259SOL    HW1 1034   0.735   0.413   2.221  0.6030 -1.5897 -1.6116
  259SOL    HW2 1035   0.869   0.409   2.294 -2.6011 -1.2441  0.1410
  259SOL     MW 1036   0.801   0.457   2.262 -0.4427 -0.8989 -0.8480
  260SOL     OW 1037   0.639   0.082   1.572  0.3056  0.1193 -0.6228
  260SOL    HW1 1038   0.608   0.156   1.516  2.7665 -1.9551 -0.9638
  260SOL    HW2 1039   0.712   0.045   1.519 -0.5549 -2.2163  0.2989
  260SOL     MW 1040   0.644   0.087   1.557  0.5168 -0.4626 -0.5461
  261SOL     OW 1041   1.101   0.675   1.965 -0.6627  0.0315  0.2153
  261SOL    HW1 1042   1.115   0.700   2.064  0.6772  0.9300  0.3389
  261SOL    HW2 1043   1.062   0.591   1.972  2.8589  1.1288  1.5444
  261SOL     MW 1044   1.098   0.668   1.979 -0.0213  0.2948  0.4070
  262SOL     OW 1045   1.129   0.347   0.169 -0.6483  0.3690 -0.8123
  262SOL    HW1 1046   1.227   0.340   0.159  1.8467 -0.6343  0.7008
  262SOL    HW2 1047   1.081   0.297   0.100  0.8042  3.1600 -1.6443
  262SOL     MW 1048   1.136   0.340   0.159 -0.1275  0.6049 -0.7224
  263SOL     OW 1049   0.363   0.001   2.477  0.0719 -0.5743  0.8426
  263SOL    HW1 1050   0.288   0.050   2.508  0.8670 -2.4731 -1.0280
  263SOL    HW2 1051   0.400   0.045   2.402 -1.1922 -2.0405 -1.6042
  263SOL     MW 1052   0.358   0.013   2.471  0.0100 -1.0183  0.2730
  264SOL     OW 1053   1.521   1.385   1.947 -0.2140  0.7054 -0.4981
  264SOL    HW1 1054   1.480   1.302   1.925  0.4879 -0.7964  1.3556
  264SOL    HW2 1055   1.614   1.360   1.971  1.4968  0.0701 -1.5616
  264SOL     MW 1056   1.528   1.371   1.948  0.1043  0.4234 -0.3938
  265SOL     OW 1057   0.728   2.760   2.303  0.0110  0.0495  0.0290
  265SOL    HW1 1058   0.785   2.686   2.285  0.5511  1.5622 -1.5527
  265SOL    HW2 1059   0.692   2.735   2.388  1.5477  0.3174 -0.3478
  265SOL     MW 1060   0.731   2.747   2.312  0.2850  0.2845 -0.2294
  266SOL     OW 1061   0.883   0.865   2.152 -0.6700  0.4329 -0.0304
  266SOL    HW1 1062   0.829   0.904   2.086  1.0985  2.5309  0.0628
  266SOL    HW2 1063   0.922   0.787   2.105 -0.3085  2.3696 -1.4360
  266SOL     MW 1064   0.881   0.860   2.137 -0.3889  0.9652 -0.2036
  267SOL     OW 1065   1.329   1.733   2.630  0.8815 -0.3516  0.1780
  267SOL    HW1 1066   1.401   1.702   2.579  0.3836  0.4220  2.0962
  267SOL    HW2 1067   1.260   1.735   2.561  0.3031  0.8462 -0.1846
  267SOL     MW 1068   1.329   1.729   2.614  0.7395 -0.0915  0.3832
  268SOL     OW 1069   0.117   0.925   1.753 -0.1161 -0.0899  0.1354
  268SOL    HW1 1070   0.080   1.011   1.728  1.7612 -1.3166  0.8178
  268SOL    HW2 1071   0.076   0.866   1.683 -1.2185 -2.8683  0.7409
  268SOL     MW 1072   0.107   0.929   1.740 -0.0139 -0.6184  0.3053
  269SOL     OW 1073   1.337   1.948   2.294 -0.3822 -0.2726  0.2199
  269SOL    HW1 1074   1.386   2.021   2.324  1.7876  1.3580  0.1033
  269SOL    HW2 1075   1.277   1.917   2.363  0.8414 -2.2647 -1.3403
  269SOL     MW 1076   1.336   1.953   2.307  0.0655 -0.3203 -0.0014
  270SOL     OW 1077   1.124   0.427   1.587 -0.4134  0.2986  0.0923
  270SOL    HW1 1078   1.122   0.362   1.660  0.5174  0.6021  1.3312
  270SOL    HW2 1079   1.218   0.437   1.569 -0.9335  2.4484  1.0505
  270SOL     MW 1080   1.136   0.420   1.594 -0.3592  0.6223  0.3822
  271SOL     OW 1081   0.835   0.097   2.467  0.4997  0.4710  0.0128
  271SOL    HW1 1082   0.895   0.031   2.503 -1.1364  1.4976  2.1180
  271SOL    HW2 1083   0.886   0.179   2.446  0.5513  4.2786  2.0324
  271SOL     MW 1084   0.850   0.099   2.469  0.2906  1.1088  0.5570
  272SOL     OW 1085   1.441   2.830   2.837 -0.4527  0.1475 -0.1597
  272SOL    HW1 1086   1.425   2.812   2.744 -1.2253 -0.7777  1.7679
  272SOL    HW2 1087   1.489   2.915   2.835 -2.8374 -0.4465  1.3302
  272SOL     MW 1088   1.445   2.839   2.824 -0.8693 -0.0529  0.2912
  273SOL     OW 1089   1.423   0.829   2.769 -0.1861 -0.7616  0.7620
  273SOL    HW1 1090   1.500   0.892   2.772  1.8711  0.6599 -0.7777
  273SOL    HW2 1091   1.354   0.891   2.755  1.2545  2.4750  1.1161
  273SOL     MW 1092   1.424   0.846   2.767  0.2754 -0.1470  0.6056
  274SOL     OW 1093   1.427   0.709   0.184 -0.1618 -0.2596 -0.2970
  274SOL    HW1 1094   1.460   0.623   0.219  0.4823 -0.3653 -0.4213
  274SOL    HW2 1095   1.354   0.728   0.239  0.4740  0.2784 -1.7577
  274SOL     MW 1096   1.422   0.700   0.196  0.0070 -0.2026 -0.5061
  275SOL     OW 1097   1.765   0.509   1.779  0.2949 -0.1761 -0.4495
  275SOL    HW1 1098   1.835   0.528   1.838 -0.1623 -0.5778 -0.7389
  275SOL    HW2 1099   1.761   0.411   1.781  0.1403 -0.4695 -0.6359
  275SOL     MW 1100   1.774   0.499   1.787  0.2141 -0.2678 -0.5123
  276SOL     OW 1101   0.486   1.230   1.929 -0.1567 -0.8695  0.1071
  276SOL    HW1 1102   0.511   1.140   1.936 -1.7359  1.8114  2.6169
  276SOL    HW2 1103   0.414   1.237   1.996  0.5503 -3.2429 -0.1811
  276SOL     MW 1104   0.480   1.219   1.939 -0.2717 -0.8289  0.4003
  277SOL     OW 1105   1.989   1.076   2.446  0.3126  0.4264 -0.5970
  277SOL    HW1 1106   2.047   1.151   2.461  2.5390 -1.3226  1.4898
  277SOL    HW2 1107   1.949   1.082   2.358  0.9323  1.8630  0.0585
  277SOL     MW 1108   1.991   1.087   2.436  0.6882  0.3852 -0.2352
  278SOL     OW 1109   1.421   0.665   1.763  0.7654 -0.0918 -0.3208
  278SOL    HW1 1110   1.363   0.601   1.813 -2.9080 -1.7594  1.1149
  278SOL    HW2 1111   1.502   0.655   1.802  0.3775 -0.1751 -0.7872
  278SOL     MW 1112   1.424   0.656   1.775  0.2296 -0.3228 -0.1929
  279SOL     OW 1113   0.535   0.115   2.271  0.3140  0.5120 -0.5779
  279SOL    HW1 1114   0.614   0.070   2.300 -1.4834 -2.3912  1.1299
  279SOL    HW2 1115   0.570   0.182   2.214  0.3042 -2.7782  0.0689
  279SOL     MW 1116   0.550   0.118   2.267  0.0756 -0.3052 -0.2672
  280SOL     OW 1117   1.459   1.114   2.175 -0.2575  0.2259  0.5644
  280SOL    HW1 1118   1.508   1.054   2.117 -0.9358  2.5341 -1.1713
  280SOL    HW2 1119   1.471   1.077   2.269  2.8100 -0.7261  2.2432
  280SOL     MW 1120   1.467   1.101   2.180  0.0577  0.4048  0.5569
  281SOL     OW 1121   1.381   1.146   2.679  0.3453 -0.4628 -0.1519
  281SOL    HW1 1122   1.437   1.227   2.664 -0.6415  4.2668  1.3506
  281SOL    HW2 1123   1.367   1.151   2.775  1.9458  0.6807 -0.8350
  281SOL     MW 1124   1.387   1.157   2.690  0.4263  0.3121 -0.0438
  282SOL     OW 1125   1.172   1.254   1.602  0.0697 -0.0060 -0.6679
  282SOL    HW1 1126   1.177   1.347   1.574  3.1486 -4.1101 -1.2757
  282SOL    HW2 1127   1.097   1.238   1.666 -0.3114 -0.6520 -0.1037
  282SOL     MW 1128   1.163   1.264   1.607  0.4257 -0.6327 -0.6736
  283SOL     OW 1129   0.874   1.340   0.005 -0.3489  0.2844  0.2278
  283SOL    HW1 1130   0.968   1.368   0.007  1.5896 -0.2324 -0.5309
  283SOL    HW2 1131   0.853   1.402  -0.065 -0.8746  3.0943 -1.0782
  283SOL     MW 1132   0.884   1.352  -0.004 -0.1625  0.5869 -0.0446
  284SOL     OW 1133   0.404   0.739   2.321 -0.3630  0.5095 -0.6960
  284SOL    HW1 1134   0.480   0.787   2.289 -0.9232 -0.9224 -1.3822
  284SOL    HW2 1135   0.402   0.655   2.269  1.1717 -1.3087  2.0070
  284SOL     MW 1136   0.414   0.734   2.310 -0.2344  0.0807 -0.4299
  285SOL     OW 1137   0.885   0.900   2.848  0.6336 -0.3782  0.1676
  285SOL    HW1 1138   0.916   0.942   2.765 -1.0005 -0.8901  0.7047
  285SOL    HW2 1139   0.821   0.828   2.822 -2.7580  0.5412 -0.3445
  285SOL     MW 1140   0.881   0.896   2.834 -0.0295 -0.3244  0.1709
  286SOL     OW 1141   1.103   1.468   2.620  0.1114 -0.1947 -0.2206
  286SOL    HW1 1142   1.131   1.421   2.539 -0.2726 -0.5155 -2.9534
  286SOL    HW2 1143   1.090   1.563   2.597 -2.0553 -2.1356  1.6516
  286SOL     MW 1144   1.105   1.474   2.606 -0.2251 -0.4931 -0.3341
  287SOL     OW 1145   1.203   1.042   0.350 -0.0751  0.2026  0.6083
  287SOL    HW1 1146   1.172   1.097   0.424 -0.0658 -1.5424  0.5460
  287SOL    HW2 1147   1.155   1.042   0.272  1.3393 -0.1936  1.0063
  287SOL     MW 1148   1.193   1.049   0.350  0.1127 -0.0799  0.6526
  288SOL     OW 1149   1.475   0.617   2.081  0.0501 -0.0747  0.1789
  288SOL    HW1 1150   1.397   0.603   2.145 -0.5304  1.1980 -1.2780
  288SOL    HW2 1151   1.509   0.711   2.073  1.7154  3.3679  0.9711
  288SOL     MW 1152   1.469   0.627   2.089  0.1932  0.5474  0.0912
  289SOL     OW 1153   0.928   0.992   2.591 -0.3924 -0.0131  0.5054
  289SOL    HW1 1154   0.973   0.904   2.571  1.6715 -1.4692 -0.0632
  289SOL    HW2 1155   0.848   0.991   2.540 -0.4199 -2.3892  0.2380
  289SOL     MW 1156   0.924   0.980   2.581 -0.1237 -0.5187  0.3951
  290SOL     OW 1157   0.811   0.637   1.471  0.5531  0.3954  0.0668
  290SOL    HW1 1158   0.840   0.569   1.409 -0.9268  1.4451 -2.3053
  290SOL    HW2 1159   0.872   0.633   1.545  0.8012  0.7357 -1.0291
  290SOL     MW 1160   0.823   0.627   1.472  0.3906  0.5788 -0.3908
  291SOL     OW 1161   0.190   0.371   0.144  0.4922 -0.0887  0.2044
  291SOL    HW1 1162   0.287   0.345   0.137  1.4988 -0.3903  1.0132
  291SOL    HW2 1163   0.147   0.285   0.137  0.2213 -0.7833 -1.0282
  291SOL     MW 1164   0.197   0.356   0.142  0.5893 -0.2201  0.1485
  292SOL     OW 1165   1.051   0.598   0.127 -0.0602 -0.0412 -0.3143
  292SOL    HW1 1166   1.083   0.672   0.187  2.3564  1.8011 -0.9620
  292SOL    HW2 1167   1.096   0.519   0.154 -2.3577 -1.4256 -0.3853
  292SOL     MW 1168   1.061   0.598   0.139 -0.0445  0.0192 -0.4091
  293SOL     OW 1169   0.121   0.171   2.519 -0.1215 -0.4864  0.6122
  293SOL    HW1 1170   0.072   0.122   2.450 -2.1117  0.3873 -0.2460
  293SOL    HW2 1171   0.058   0.211   2.574  0.2954  0.6273  2.0049
  293SOL     MW 1172   0.106   0.170   2.517 -0.3291 -0.2242  0.6827
  294SOL     OW 1173   1.312   0.522   2.319 -0.4169  0.0085  0.6511
  294SOL    HW1 1174   1.369   0.574   2.375  1.9615 -0.9558 -1.8139
  294SOL    HW2 1175   1.340   0.433   2.347 -0.3822 -1.2164 -2.1529
  294SOL     MW 1176   1.323   0.517   2.330 -0.0985 -0.2803 -0.0441
  295SOL     OW 1177   0.857   0.545   2.519 -0.2362  0.4512  0.0707
  295SOL    HW1 1178   0.814   0.537   2.434 -0.8702  1.0641  0.8493
  295SOL    HW2 1179   0.802   0.596   2.581  0.2556  0.1921 -2.0880
  295SOL     MW 1180   0.844   0.551   2.516 -0.2550  0.4978 -0.1114
  296SOL     OW 1181   1.229   0.212   2.039  0.4736 -0.4065  0.0090
  296SOL    HW1 1182   1.318   0.188   2.018  0.1030  1.5577  1.5664
  296SOL    HW2 1183   1.229   0.242   2.129 -0.8037  1.2957  1.0549
  296SOL     MW 1184   1.241   0.212   2.048  0.2561  0.0772  0.3525
  297SOL     OW 1185   1.401   0.377   1.526  0.5042  0.0241  0.5050
  297SOL    HW1 1186   1.453   0.441   1.565  1.3102 -0.1075 -4.0528
  297SOL    HW2 1187   1.408   0.301   1.583  0.5087  0.0592 -0.4145
  297SOL     MW 1188   1.409   0.375   1.539  0.6111  0.0113 -0.2177
  298SOL     OW 1189   1.593   0.899   2.070 -0.3385 -0.0954 -0.0450
  298SOL    HW1 1190   1.662   0.946   2.018 -0.9806 -0.6217 -0.7576
  298SOL    HW2 1191   1.632   0.888   2.158  0.9433  0.0530  1.7172
  298SOL     MW 1192   1.607   0.904   2.075 -0.2541 -0.1452  0.0934
  299SOL     OW 1193   0.562   1.146   0.055 -0.3544  0.3902 -0.2018
  299SOL    HW1 1194   0.567   1.125  -0.040  3.7488  1.5777  3.9441
  299SOL    HW2 1195   0.644   1.198   0.070  0.6358 -0.4221  0.0998
  299SOL     MW 1196   0.574   1.150   0.044  0.3176  0.4397  0.3850
  300SOL     OW 1197   1.162   1.159   2.505 -0.7835  0.5576 -0.2296
  300SOL    HW1 1198   1.086   1.104   2.526 -4.0864  1.0021  0.2467
  300SOL    HW2 1199   1.218   1.146   2.581 -3.9005  0.4427  0.4077
  300SOL     MW 1200   1.159   1.150   2.518 -1.6305  0.6011 -0.0827
  301SOL     OW 1201   1.409   1.002   0.723 -0.0394  0.6621  0.2981
  301SOL    HW1 1202   1.448   1.025   0.806 -0.1087  0.5804  0.9866
  301SOL    HW2 1203   1.349   0.930   0.734  0.7359 -1.7791 -0.6184
  301SOL     MW 1204   1.406   0.996   0.735  0.0537  0.3292  0.2680
  302SOL     OW 1205   0.204   1.553   2.041 -0.2195  0.3623 -0.1246
  302SOL    HW1 1206   0.209   1.463   2.018 -2.2164  1.0737 -0.8160
  302SOL    HW2 1207   0.114   1.556   2.070 -0.4969  1.7674 -0.3274
  302SOL     MW 1208   0.193   1.542   2.041 -0.5196  0.6416 -0.2426
  303SOL     OW 1209   0.339   1.785   2.668  1.0043 -0.3815  0.4336
  303SOL    HW1 1210   0.291   1.790   2.585 -0.5123  2.1508 -0.6921
  303SOL    HW2 1211   0.261   1.771   2.728 -1.4317 -1.3450  0.0992
  303SOL     MW 1212   0.322   1.784   2.665  0.4828 -0.1745  0.2410
  304SOL     OW 1213   0.507   2.027   2.365  0.0799  0.3722  0.8500
  304SOL    HW1 1214   0.565   2.101   2.336 -0.2596 -2.9869 -2.1391
  304SOL    HW2 1215   0.572   1.956   2.376 -0.7200  1.1902  0.9837
  304SOL     MW 1216   0.523   2.028   2.363 -0.0704  0.0369  0.4733
  305SOL     OW 1217   1.114   0.674   0.572  0.4042 -0.0672  0.2837
  305SOL    HW1 1218   1.020   0.663   0.539 -1.2944  0.2455 -2.3747
  305SOL    HW2 1219   1.159   0.596   0.536  1.9706 -1.4993 -0.3290
  305SOL     MW 1220   1.108   0.663   0.563  0.3867 -0.2149 -0.1479
  306SOL     OW 1221   1.114   1.552   0.219 -0.4058 -0.2204  0.5427
  306SOL    HW1 1222   1.129   1.472   0.277  1.3707  0.8840  2.0001
  306SOL    HW2 1223   1.186   1.563   0.159 -1.9848  0.5256 -1.0961
  306SOL     MW 1224   1.126   1.543   0.219 -0.3798  0.0238  0.5188
  307SOL     OW 1225   1.344   0.436   1.891  0.5228  0.3149  0.0080
  307SOL    HW1 1226   1.310   0.352   1.926 -0.6181 -0.0554 -1.8041
  307SOL    HW2 1227   1.376   0.485   1.968  0.4154 -0.9521  2.2341
  307SOL     MW 1228   1.344   0.431   1.906  0.3581  0.0989  0.0626
  308SOL     OW 1229   2.241   0.503   2.667 -0.0215  0.2135 -0.3099
  308SOL    HW1 1230   2.329   0.530   2.691  0.6038 -0.4712  1.4057
  308SOL    HW2 1231   2.193   0.589   2.659  0.6245 -0.2989 -0.2996
  308SOL     MW 1232   2.246   0.518   2.669  0.1463  0.0556 -0.0822
  309SOL     OW 1233   0.480   0.573   0.232  0.1807  0.1770  0.2196
  309SOL    HW1 1234   0.566   0.602   0.264 -0.8704  2.6006  1.7630
  309SOL    HW2 1235   0.486   0.484   0.201  2.3192  0.9760 -1.9788
  309SOL     MW 1236   0.492   0.565   0.233  0.3241  0.6022  0.1332
  310SOL     OW 1237   0.477   0.643   1.917 -0.5879 -0.0371 -0.2740
  310SOL    HW1 1238   0.567   0.602   1.892  1.7466  0.5140  1.6191
  310SOL    HW2 1239   0.496   0.722   1.871  0.2018 -1.1453 -0.2445
  310SOL     MW 1240   0.492   0.648   1.908 -0.1757 -0.1106 -0.0203
  311SOL     OW 1241   1.953   0.644   1.941 -0.2419 -0.0766  0.2976
  311SOL    HW1 1242   1.904   0.676   2.018  2.1942 -0.9980  3.7667
  311SOL    HW2 1243   2.009   0.569   1.979 -0.1827 -0.3407  4.1859
  311SOL     MW 1244   1.954   0.638   1.956  0.0873 -0.2330  1.2683
  312SOL     OW 1245   1.793   2.443   0.148 -0.3526 -0.0109 -0.5104
  312SOL    HW1 1246   1.816   2.418   0.234  0.6378 -0.2503 -2.0670
  312SOL    HW2 1247   1.716   2.498   0.150 -0.5677 -0.3035 -0.3862
  312SOL     MW 1248   1.786   2.447   0.160 -0.2503 -0.0811 -0.6994
  313SOL     OW 1249   0.146   1.139   3.029 -0.3484 -0.0344  0.0434
  313SOL    HW1 1250   0.105   1.183   3.106 -1.5048 -1.1744  0.8438
  313SOL    HW2 1251   0.217   1.194   2.992 -1.3319 -3.6106  1.2338
  313SOL     MW 1252   0.150   1.152   3.034 -0.6307 -0.6567  0.3060
  314SOL     OW 1253   2.163   2.935   3.082 -0.0527 -1.0873  0.5930
  314SOL    HW1 1254   2.095   2.964   3.005 -0.3239  0.0048  0.8371
  314SOL    HW2 1255   2.203   3.021   3.109 -1.4815  0.2555 -2.4437
  314SOL     MW 1256   2.159   2.950   3.076 -0.2770 -0.7661  0.2245
  315SOL     OW 1257   1.546   1.824   2.963  0.2730  0.2490 -0.2514
  315SOL    HW1 1258   1.495   1.869   3.040 -0.9290 -2.0073 -1.6328
  315SOL    HW2 1259   1.562   1.905   2.911 -3.5694  0.2118  1.4105
  315SOL     MW 1260   1.541   1.840   2.967 -0.3926 -0.0536 -0.2144
  316SOL     OW 1261   1.240   0.567   2.723 -0.3520  0.1783 -0.1761
  316SOL    HW1 1262   1.333   0.575   2.742 -1.9682 -0.8235  2.6575
  316SOL    HW2 1263   1.203   0.571   2.815 -0.0367  0.5559  0.2018
  316SOL     MW 1264   1.247   0.568   2.738 -0.5237  0.0959  0.2477
  317SOL     OW 1265   0.690   1.591   2.662 -0.3788 -0.1222  0.2958
  317SOL    HW1 1266   0.748   1.519   2.669 -0.5982 -1.1371  0.3009
  317SOL    HW2 1267   0.654   1.586   2.578  0.1545 -2.3376  0.7886
  317SOL     MW 1268   0.693   1.581   2.652 -0.3374 -0.5484  0.3615
  318SOL     OW 1269   1.332   0.350   2.952 -0.1215  0.1143  0.1562
  318SOL    HW1 1270   1.242   0.393   2.953 -1.7687  3.4442  1.7323
  318SOL    HW2 1271   1.388   0.421   2.918 -3.3557 -1.3163  1.1935
  318SOL     MW 1272   1.328   0.365   2.947 -0.7656  0.3649  0.5010
  319SOL     OW 1273   0.871   0.362   2.901  0.4695  0.0851 -0.8863
  319SOL    HW1 1274   0.834   0.305   2.828  0.5023  1.6686 -3.3231
  319SOL    HW2 1275   0.790   0.375   2.956 -2.4311  1.3093  3.1359
  319SOL     MW 1276   0.855   0.356   2.899  0.0911  0.4556 -0.6771
  320SOL     OW 1277   1.073   1.403   1.976 -0.0619  0.2289 -0.2561
  320SOL    HW1 1278   1.137   1.339   2.004  0.1612  3.2949 -1.2577
  320SOL    HW2 1279   1.131   1.461   1.931 -0.4375 -0.6028 -1.4791
  320SOL     MW 1280   1.089   1.402   1.974 -0.0820  0.5237 -0.5496
  321SOL     OW 1281   1.111   0.917   2.997 -0.3947  0.3065 -0.1551
  321SOL    HW1 1282   1.037   0.890   2.944  1.7309 -0.7580  3.2274
  321SOL    HW2 1283   1.174   0.843   2.989 -1.0339 -2.0322  0.4338
  321SOL     MW 1284   1.110   0.904   2.989 -0.1986 -0.1425  0.3689
  322SOL     OW 1285   1.215   0.848   1.660  0.5507  0.4578  0.1427
  322SOL    HW1 1286   1.296   0.799   1.682  1.1695  0.4531  2.7006
  322SOL    HW2 1287   1.188   0.879   1.750 -0.2098  0.0362  3.8904
  322SOL     MW 1288   1.222   0.846   1.675  0.5320  0.4015  0.9746
  323SOL     OW 1289   1.241   1.621   1.892 -0.3522 -0.5559  0.3774
  323SOL    HW1 1290   1.268   1.598   1.802 -0.1535  2.3514  0.3360
  323SOL    HW2 1291   1.173   1.687   1.884 -0.4641 -0.5192  1.0864
  323SOL     MW 1292   1.235   1.627   1.879 -0.3408 -0.1675  0.4655
  324SOL     OW 1293   1.481   1.001   2.418 -0.6368 -0.1501  0.3736
  324SOL    HW1 1294   1.412   1.040   2.468  1.3697  0.0220  0.0477
  324SOL    HW2 1295   1.554   1.050   2.461 -1.2273  1.9772  2.5040
  324SOL     MW 1296   1.482   1.013   2.431 -0.4500  0.1533  0.6117
  325SOL     OW 1297   1.112   0.501   2.978 -0.3251 -0.1575 -0.0882
  325SOL    HW1 1298   1.097   0.542   3.067  1.2235  0.9783 -1.8581
  325SOL    HW2 1299   1.033   0.457   2.954 -0.7629  0.8490 -0.0775
  325SOL     MW 1300   1.100   0.500   2.986 -0.1785  0.1251 -0.3203
  326SOL     OW 1301   0.351   1.363   2.280  0.2417 -0.1434 -0.1092
  326SOL    HW1 1302   0.449   1.341   2.261  3.2613 -1.4667 -1.1811
  326SOL    HW2 1303   0.355   1.456   2.276  0.1664  1.2002 -0.5631
  326SOL     MW 1304   0.365   1.372   2.277  0.6302 -0.1407 -0.3105
  327SOL     OW 1305   1.953   0.791   2.450  0.2564 -0.2147 -0.1812
  327SOL    HW1 1306   1.918   0.766   2.542  1.7991 -0.3803 -1.0722
  327SOL    HW2 1307   1.971   0.888   2.443  3.3418  1.6456  0.8477
  327SOL     MW 1308   1.950   0.800   2.461  0.8670  0.0089 -0.1630
  328SOL     OW 1309   0.238   1.254   2.038 -0.1522 -0.3941 -0.2510
  328SOL    HW1 1310   0.160   1.200   2.049 -0.5173  1.8546  0.1690
  328SOL    HW2 1311   0.261   1.283   2.126  1.1498  2.1040  0.6536
  328SOL     MW 1312   0.231   1.251   2.051 -0.0286  0.2322 -0.0762
  329SOL     OW 1313   0.076   0.160   1.344 -0.5229 -0.5861 -0.1632
  329SOL    HW1 1314   0.073   0.137   1.439 -1.4557 -0.2854  1.3262
  329SOL    HW2 1315   0.175   0.172   1.333  1.4631  0.7036  4.0050
  329SOL     MW 1316   0.089   0.158   1.355 -0.3840 -0.3762  0.5833
  330SOL     OW 1317   0.400   3.093   2.026  0.0165 -0.0413  0.0397
  330SOL    HW1 1318   0.485   3.104   2.070 -0.3551  3.4685  0.7595
  330SOL    HW2 1319   0.350   3.031   2.081 -0.4434 -1.1096  1.9797
  330SOL     MW 1320   0.404   3.086   2.039 -0.0932  0.2808  0.3906
  331SOL     OW 1321   0.788   1.244   2.464  0.2174 -0.4301 -0.1701
  331SOL    HW1 1322   0.739   1.318   2.429  0.1320  0.5119 -0.2424
  331SOL    HW2 1323   0.821   1.277   2.549  1.0484 -0.2358 -1.1089
  331SOL     MW 1324   0.786   1.258   2.470  0.3157 -0.2802 -0.3035
  332SOL     OW 1325   1.332   1.658   2.899 -0.0447 -0.3061  0.1926
  332SOL    HW1 1326   1.342   1.660   2.805 -0.0552 -2.9015  0.0691
  332SOL    HW2 1327   1.401   1.723   2.928 -0.6085  2.9646  0.6637
  332SOL     MW 1328   1.342   1.667   2.890 -0.1205 -0.2170  0.2385
  333SOL     OW 1329   1.709   1.399   2.919 -0.3344 -0.1825  0.3848
  333SOL    HW1 1330   1.811   1.397   2.931  2.1736 -1.4024 -0.2844
  333SOL    HW2 1331   1.680   1.319   2.955 -0.7452  0.5383  0.0828
  333SOL     MW 1332   1.719   1.388   2.925 -0.0577 -0.2483  0.2567
  334SOL     OW 1333   1.254   3.063   2.656  0.0504  0.3065  0.6015
  334SOL    HW1 1334   1.161   3.053   2.680 -1.5246 -1.0841  2.4513
  334SOL    HW2 1335   1.297   3.141   2.706  0.1408  2.6317 -0.3356
  334SOL     MW 1336   1.247   3.072   2.666 -0.1455  0.4298  0.7219
  335SOL     OW 1337   1.328   0.726   2.990  0.3537 -0.5440  0.2080
  335SOL    HW1 1338   1.370   0.696   3.074  1.9802  2.7854 -1.1847
  335SOL    HW2 1339   1.382   0.773   2.925  0.6528  0.7215  3.2081
  335SOL     MW 1340   1.341   0.728   2.992  0.6078  0.0623  0.4201
  336SOL     OW 1341   0.965   1.192   1.769  0.1606 -0.3869  0.2233
  336SOL    HW1 1342   0.919   1.257   1.813 -0.0185 -0.3097 -1.6129
  336SOL    HW2 1343   0.961   1.111   1.820  0.1595 -0.2812 -1.6250
  336SOL     MW 1344   0.958   1.190   1.782  0.1368 -0.3627 -0.2628
  337SOL     OW 1345   0.576   1.860   2.798  0.0080 -0.1552  0.3943
  337SOL    HW1 1346   0.519   1.846   2.723 -1.1981  1.4057  1.2887
  337SOL    HW2 1347   0.660   1.816   2.785 -2.5562 -0.7172 -0.4876
  337SOL     MW 1348   0.579   1.852   2.787 -0.4895 -0.0234  0.3959
  338SOL     OW 1349   1.036   0.756   2.536 -0.3969 -0.4098 -0.9419
  338SOL    HW1 1350   0.984   0.677   2.511  1.3679  0.7410  0.2113
  338SOL    HW2 1351   1.109   0.716   2.588  1.5649 -2.4239  2.9135
  338SOL     MW 1352   1.039   0.740   2.539  0.0948 -0.5237 -0.2811
  339SOL     OW 1353   1.454   1.119   1.865 -0.1596  0.4332  0.2604
  339SOL    HW1 1354   1.440   1.089   1.775 -0.5888 -1.0133  1.1329
  339SOL    HW2 1355   1.369   1.107   1.907 -0.9142  0.7951 -1.7266
  339SOL     MW 1356   1.441   1.114   1.859 -0.3158  0.2901  0.1133
  340SOL     OW 1357   1.324   1.505   0.038 -0.9766  0.0671 -0.1992
  340SOL    HW1 1358   1.316   1.539  -0.051  0.0473  1.8377  1.3125
  340SOL    HW2 1359   1.397   1.438   0.038  2.5196  0.4449 -0.1155
  340SOL     MW 1360   1.332   1.500   0.026 -0.3802  0.3506  0.0113
  341SOL     OW 1361   0.032   1.355   2.765  0.2772 -0.4855  0.6341
  341SOL    HW1 1362   0.104   1.317   2.814  0.0455  0.6337 -0.1437
  341SOL    HW2 1363   0.022   1.306   2.689  0.3676  1.3144  0.2573
  341SOL     MW 1364   0.040   1.343   2.761  0.2586 -0.1003  0.4818
  342SOL     OW 1365   1.388   0.326   0.123  0.7288 -0.4140 -0.3376
  342SOL    HW1 1366   1.443   0.382   0.187  0.3566  0.0183  1.2663
  342SOL    HW2 1367   1.389   0.360   0.035  1.3321 -0.4811 -1.1664
  342SOL     MW 1368   1.395   0.338   0.119  0.7593 -0.3658 -0.2353
  343SOL     OW 1369   0.300   0.292   2.227 -0.1084 -0.2215  0.1421
  343SOL    HW1 1370   0.371   0.224   2.235  1.6217 -1.4055  2.0624
  343SOL    HW2 1371   0.252   0.269   2.149 -0.9463  1.5103  0.6489
  343SOL     MW 1372   0.303   0.280   2.217  0.0093 -0.1493  0.4624
  344SOL     OW 1373   1.719   2.027   0.161  0.0179 -0.0996 -0.1230
  344SOL    HW1 1374   1.752   2.094   0.100  2.0378 -1.8050  0.7496
  344SOL    HW2 1375   1.633   2.023   0.134 -1.1350 -1.9751 -2.7596
  344SOL     MW 1376   1.712   2.036   0.149  0.1323 -0.5721 -0.3557
  345SOL     OW 1377   0.689   1.565   2.366  0.3814  0.1654 -0.0048
  345SOL    HW1 1378   0.598   1.582   2.333 -1.5362 -0.4979  0.2770
  345SOL    HW2 1379   0.740   1.584   2.289 -1.0507 -0.0629 -1.0707
  345SOL     MW 1380   0.684   1.570   2.352 -0.0605  0.0478 -0.1082
  346SOL     OW 1381   1.711   1.103   3.055 -0.0973 -0.4144 -0.3660
  346SOL    HW1 1382   1.803   1.091   3.057 -2.0803 -0.7316  0.1333
  346SOL    HW2 1383   1.686   1.056   3.139 -2.6163 -0.2118 -0.6260
  346SOL     MW 1384   1.720   1.095   3.066 -0.6913 -0.4295 -0.3344
  347SOL     OW 1385   1.139   0.745   2.263  0.0181 -0.4980 -0.1527
  347SOL    HW1 1386   1.176   0.659   2.292 -1.5955 -2.4989  0.4706
  347SOL    HW2 1387   1.073   0.774   2.332 -1.7774  1.2666 -1.1784
  347SOL     MW 1388   1.135   0.737   2.276 -0.4317 -0.5292 -0.2058
  348SOL     OW 1389   1.364   2.558   1.909 -0.0475  0.1293  0.1111
  348SOL    HW1 1390   1.360   2.486   1.980  1.8300 -1.4334  0.5888
  348SOL    HW2 1391   1.370   2.641   1.960  0.0407  0.3277 -0.4675
  348SOL     MW 1392   1.364   2.559   1.925  0.2118 -0.0507  0.0978
  349SOL     OW 1393   1.392   0.178   2.762 -0.3104  0.4153 -0.0561
  349SOL    HW1 1394   1.363   0.230   2.836  0.6148 -1.4857 -0.1364
  349SOL    HW2 1395   1.460   0.115   2.789 -0.4665  1.1599  1.5783
  349SOL     MW 1396   1.397   0.177   2.775 -0.2089  0.2627  0.1490
  350SOL     OW 1397   1.827   0.654   2.652 -0.2570  0.1715 -0.8746
  350SOL    HW1 1398   1.800   0.596   2.574 -0.8187  1.8984  1.7347
  350SOL    HW2 1399   1.884   0.601   2.705  0.5942 -2.5963 -2.1636
  350SOL     MW 1400   1.831   0.640   2.649 -0.2188  0.0342 -0.7004
  351SOL     OW 1401   0.062   1.160   1.634 -0.0515 -0.5564 -0.2911
  351SOL    HW1 1402  -0.021   1.190   1.675 -1.1132  1.3797  1.6291
  351SOL    HW2 1403   0.129   1.225   1.655 -2.3126 -1.5966 -1.2026
  351SOL     MW 1404   0.060   1.173   1.642 -0.4899 -0.4382 -0.1580
  352SOL     OW 1405   0.848   1.754   2.803  0.2563  0.3863  0.6192
  352SOL    HW1 1406   0.840   1.710   2.893 -1.2465  0.6262 -1.1129
  352SOL    HW2 1407   0.810   1.691   2.737 -0.1117 -0.0388 -2.7042
  352SOL     MW 1408   0.842   1.739   2.806  0.0094  0.3619 -0.0478
  353SOL     OW 1409   0.014   2.558   2.736 -0.1806  0.7784 -0.0380
  353SOL    HW1 1410   0.102   2.543   2.701 -0.9974  0.7709  1.9806
  353SOL    HW2 1411   0.002   2.652   2.719  1.1775  1.3277 -2.6405
  353SOL     MW 1412   0.024   2.569   2.729 -0.1092  0.8499 -0.1151
  354SOL     OW 1413   0.335   2.453   0.852  0.6168 -0.6352  0.4480
  354SOL    HW1 1414   0.362   2.424   0.940  2.7136  2.5201 -1.7512
  354SOL    HW2 1415   0.268   2.393   0.814  0.1341  1.0300 -0.2221
  354SOL     MW 1416   0.329   2.441   0.858  0.8297  0.0008  0.0694
  355SOL     OW 1417   3.044   2.186   0.337 -0.3402 -0.6507  0.3984
  355SOL    HW1 1418   2.956   2.164   0.354  2.1519  1.0662 -0.6843
  355SOL    HW2 1419   3.063   2.238   0.419  0.2943 -1.3455  0.5276
  355SOL     MW 1420   3.035   2.190   0.350  0.0723 -0.5159  0.2726
  356SOL     OW 1421   0.829   2.791   0.960  0.1977  0.7555  0.5765
  356SOL    HW1 1422   0.873   2.826   0.879 -0.1639  0.8125 -0.3391
  356SOL    HW2 1423   0.737   2.790   0.936  0.8549 -1.1079  1.4048
  356SOL     MW 1424   0.823   2.796   0.946  0.2367  0.5171  0.5650
  357SOL     OW 1425   1.798   2.807   0.488  0.4601 -0.1936 -0.1414
  357SOL    HW1 1426   1.793   2.742   0.558 -0.1027  0.0149 -1.0541
  357SOL    HW2 1427   1.885   2.790   0.448  2.9030 -0.5906  0.8915
  357SOL     MW 1428   1.809   2.796   0.492  0.7081 -0.2185 -0.1256
  358SOL     OW 1429   0.448   0.174   1.035  0.1258  0.3735  0.4701
  358SOL    HW1 1430   0.543   0.172   1.006 -0.0195  2.0121  0.4229
  358SOL    HW2 1431   0.404   0.194   0.953  0.2453 -0.6641  0.8677
  358SOL     MW 1432   0.455   0.177   1.020  0.1224  0.4528  0.5164
  359SOL     OW 1433   0.804   2.960   1.841  1.2119  0.4653  0.0011
  359SOL    HW1 1434   0.803   2.874   1.886  1.9034  0.3489  1.1842
  359SOL    HW2 1435   0.850   2.944   1.755  1.1876  2.1680 -3.4603
  359SOL     MW 1436   0.810   2.946   1.836  1.2999  0.6746 -0.2995
  360SOL     OW 1437   0.555   2.751   0.867 -0.0965 -0.0968  0.0974
  360SOL    HW1 1438   0.585   2.747   0.777  0.2654  1.2283 -0.4801
  360SOL    HW2 1439   0.526   2.658   0.885 -0.6438 -0.5797 -1.2540
  360SOL     MW 1440   0.555   2.738   0.858 -0.1210  0.0144 -0.1571
  361SOL     OW 1441   0.208   2.638   1.418 -0.0976  0.7620  0.3233
  361SOL    HW1 1442   0.184   2.727   1.441  0.0389  0.5717 -0.0072
  361SOL    HW2 1443   0.299   2.642   1.411  1.2091 -0.9745 -2.5127
  361SOL     MW 1444   0.217   2.650   1.420  0.0928  0.5077 -0.0945
  362SOL     OW 1445   1.402   2.389   0.577 -0.6057  0.1062 -0.0002
  362SOL    HW1 1446   1.439   2.314   0.620  0.3774 -0.4285 -4.4300
  362SOL    HW2 1447   1.458   2.462   0.617 -0.8325  0.2437  1.3281
  362SOL     MW 1448   1.414   2.389   0.588 -0.5059  0.0538 -0.4094
  363SOL     OW 1449   0.314   3.056   0.642 -0.0957 -0.2035 -0.0118
  363SOL    HW1 1450   0.316   2.998   0.718  1.2512 -1.4998 -0.3496
  363SOL    HW2 1451   0.223   3.082   0.624  1.7780  1.8468  3.4682
  363SOL     MW 1452   0.302   3.052   0.650  0.3292 -0.1040  0.4028
  364SOL     OW 1453   0.774   0.249   0.151 -0.1130  0.2236 -0.8160
  364SOL    HW1 1454   0.694   0.192   0.160  0.6749  0.9531  1.5321
  364SOL    HW2 1455   0.748   0.329   0.105  0.6825  0.2311  0.6307
  364SOL     MW 1456   0.760   0.252   0.146  0.0959  0.3208 -0.3153
  365SOL     OW 1457   0.953   2.031   1.122 -0.8429  0.0150  0.1911
  365SOL    HW1 1458   0.913   2.117   1.124  0.9724 -1.5018 -1.2408
  365SOL    HW2 1459   0.891   1.978   1.075  1.4792  2.0758  4.1493
  365SOL     MW 1460   0.940   2.036   1.116 -0.2970  0.0868  0.5244
  366SOL     OW 1461   2.955   2.658   0.948  0.3018  0.0711 -0.3242
  366SOL    HW1 1462   3.041   2.670   0.987  1.4202 -3.0255  1.4129
  366SOL    HW2 1463   2.972   2.682   0.851  2.0880  0.9580 -0.1807
  366SOL     MW 1464   2.969   2.663   0.941  0.6851 -0.2204 -0.0760
  367SOL     OW 1465   1.223   2.971   0.925 -0.2030  0.2664  0.3928
  367SOL    HW1 1466   1.231   3.034   0.858  0.8487  0.1343  0.3492
  367SOL    HW2 1467   1.176   2.894   0.891 -0.3312  2.0229  1.2096
  367SOL     MW 1468   1.218   2.969   0.911 -0.0811  0.4807  0.4948
  368SOL     OW 1469   1.737   0.396   0.725  0.5630  0.0650 -0.3977
  368SOL    HW1 1470   1.779   0.343   0.661 -1.8416  2.5536  1.3194
  368SOL    HW2 1471   1.732   0.485   0.691 -0.5408 -0.3376  1.0904
  368SOL     MW 1472   1.742   0.401   0.712  0.1001  0.3403  0.0252
  369SOL     OW 1473   0.120   2.428   1.789  0.0909  0.2313  0.0946
  369SOL    HW1 1474   0.222   2.418   1.783  0.8591 -2.0210  0.8996
  369SOL    HW2 1475   0.119   2.525   1.779  0.9400 -0.9482 -3.2325
  369SOL     MW 1476   0.133   2.440   1.787  0.3042 -0.2215 -0.2381
  370SOL     OW 1477   0.739   0.153   0.965 -0.3494 -0.1260  0.3219
  370SOL    HW1 1478   0.755   0.240   0.927 -2.5121  0.5244 -0.8090
  370SOL    HW2 1479   0.817   0.101   0.962  3.2209 -0.9990  1.6809
  370SOL     MW 1480   0.752   0.158   0.959 -0.1637 -0.1554  0.3520
  371SOL     OW 1481   1.237   2.836   1.513 -0.6685 -0.2051  0.1117
  371SOL    HW1 1482   1.226   2.740   1.500 -0.7632 -0.0596 -3.3198
  371SOL    HW2 1483   1.208   2.879   1.429 -1.1185  1.6432  2.5053
  371SOL     MW 1484   1.232   2.829   1.500 -0.7404  0.0580 -0.0253
  372SOL     OW 1485   0.820   2.306   0.504  0.1340 -0.4360  0.8131
  372SOL    HW1 1486   0.790   2.216   0.509 -0.8083 -0.0277  1.8619
  372SOL    HW2 1487   0.843   2.302   0.406  0.2728  0.0937 -2.9021
  372SOL     MW 1488   0.819   2.294   0.492  0.0280 -0.3122  0.4613
  373SOL     OW 1489   2.867   3.014   1.391  0.0178 -0.0588  0.2973
  373SOL    HW1 1490   2.927   2.969   1.327  2.5917  0.7693 -1.3994
  373SOL    HW2 1491   2.845   3.096   1.343  0.4284  0.2035 -0.3062
  373SOL     MW 1492   2.872   3.019   1.376  0.4116  0.0851 -0.0062
  374SOL     OW 1493   1.536   0.488   0.269  0.7761 -0.4279 -0.1350
  374SOL    HW1 1494   1.626   0.454   0.255  0.7728 -1.6901  0.6331
  374SOL    HW2 1495   1.511   0.454   0.358  0.5993 -4.8905  1.6587
  374SOL     MW 1496   1.545   0.479   0.279  0.7524 -1.1832  0.2030
  375SOL     OW 1497   0.948   2.135   2.344 -0.2170  0.4482  0.2003
  375SOL    HW1 1498   1.019   2.134   2.406 -1.3328  1.3071  3.8016
  375SOL    HW2 1499   0.938   2.046   2.298 -2.2808 -1.1153  0.3857
  375SOL     MW 1500   0.956   2.123   2.346 -0.6365  0.3553  0.7000
  376SOL     OW 1501   0.701   2.482   0.052 -0.4083  0.4320 -0.0219
  376SOL    HW1 1502   0.674   2.416   0.113  1.6879  1.2767  0.3099
  376SOL    HW2 1503   0.749   2.433  -0.015  3.0798  0.1847 -2.1328
  376SOL     MW 1504   0.704   2.467   0.051  0.3285  0.5108 -0.2567
  377SOL     OW 1505   1.257   2.094   0.914  0.1910 -0.1363 -0.2822
  377SOL    HW1 1506   1.175   2.074   0.868  1.6266 -1.2378 -0.9737
  377SOL    HW2 1507   1.260   2.033   0.989  0.1677 -0.6889  1.3331
  377SOL     MW 1508   1.247   2.083   0.918  0.3773 -0.3546 -0.1603
  378SOL     OW 1509   0.924   2.902   1.592  0.2703  0.2171 -0.2673
  378SOL    HW1 1510   0.946   2.812   1.567  3.3115  0.1352  0.1309
  378SOL    HW2 1511   1.009   2.934   1.555 -0.2343  0.6239  0.2755
  378SOL     MW 1512   0.938   2.894   1.584  0.6050  0.2600 -0.1431
  379SOL     OW 1513   1.114   1.652   2.163 -0.1360  0.1043  0.1715
  379SOL    HW1 1514   1.027   1.609   2.150 -0.9721  0.5228 -0.0426
  379SOL    HW2 1515   1.167   1.614   2.096 -1.5707 -0.5531 -0.1609
  379SOL     MW 1516   1.110   1.641   2.152 -0.4356  0.0728  0.0994
  380SOL     OW 1517   0.907   0.068   1.454  0.1337 -0.4199 -0.2263
  380SOL    HW1 1518   0.954  -0.006   1.415 -0.6114  1.5875 -4.5206
  380SOL    HW2 1519   0.950   0.085   1.540 -1.4561  2.0317 -1.7113
  380SOL     MW 1520   0.919   0.060   1.460 -0.1744  0.1684 -0.9888
  381SOL     OW 1521   0.763   2.081   0.837  0.8111 -0.4540 -0.5643
  381SOL    HW1 1522   0.855   2.066   0.822 -0.1835 -0.0110 -0.3467
  381SOL    HW2 1523   0.758   2.142   0.912  0.4513  2.4754  1.6969
  381SOL     MW 1524   0.774   2.087   0.845  0.6324 -0.0091 -0.2372
  382SOL     OW 1525   0.761   0.149   0.634  0.4377 -0.1816  0.4706
  382SOL    HW1 1526   0.711   0.205   0.692 -0.6629  0.6061  0.4950
  382SOL    HW2 1527   0.734   0.058   0.646  0.6817  1.7643  1.0085
  382SOL     MW 1528   0.751   0.144   0.643  0.3247  0.1791  0.5448
  383SOL     OW 1529   0.566   0.046   0.281  0.2734 -0.0157  0.1185
  383SOL    HW1 1530   0.599  -0.028   0.234  0.1291 -0.4180 -0.9935
  383SOL    HW2 1531   0.548   0.001   0.364 -0.8578  1.3241  0.1391
  383SOL     MW 1532   0.568   0.030   0.285  0.1051  0.1080 -0.0255
  384SOL     OW 1533   0.753   2.969   0.598 -0.6181 -0.5130 -0.2007
  384SOL    HW1 1534   0.821   2.937   0.660  1.6144 -0.3576  0.7356
  384SOL    HW2 1535   0.700   2.891   0.578  0.9680  2.3712  0.4211
  384SOL     MW 1536   0.755   2.955   0.604 -0.1142 -0.1119  0.0049
  385SOL     OW 1537   1.451   2.043   1.547  0.0873  0.1889  0.2184
  385SOL    HW1 1538   1.521   2.096   1.589 -0.4608 -0.4676 -0.2509
  385SOL    HW2 1539   1.411   1.997   1.625 -0.9962  0.1861 -1.1915
  385SOL     MW 1540   1.455   2.044   1.562 -0.1280  0.1019 -0.0296
  386SOL     OW 1541   1.306   0.352   0.848  0.7615  0.1599  0.2366
  386SOL    HW1 1542   1.264   0.414   0.910  1.1852  0.2653 -0.7479
  386SOL    HW2 1543   1.325   0.271   0.898 -1.5566 -0.5692 -0.9279
  386SOL     MW 1544   1.303   0.349   0.863  0.5116  0.0776 -0.0469
  387SOL     OW 1545   0.789   2.143   1.489 -0.0893 -0.3336 -0.1054
  387SOL    HW1 1546   0.865   2.201   1.491 -2.9646 -2.5041  2.5713
  387SOL    HW2 1547   0.814   2.057   1.460 -1.5313  0.8076  1.8893
  387SOL     MW 1548   0.802   2.139   1.485 -0.6589 -0.4694  0.5109
  388SOL     OW 1549   1.517   2.750   1.301 -0.5749 -0.0801  0.5069
  388SOL    HW1 1550   1.434   2.789   1.316 -1.6375  0.6801  1.0047
  388SOL    HW2 1551   1.483   2.669   1.262 -0.6690  3.3834  2.0303
  388SOL     MW 1552   1.502   2.744   1.298 -0.7275  0.4771  0.7736
  389SOL     OW 1553   0.566   0.149   3.046  0.1516 -0.4053 -0.2091
  389SOL    HW1 1554   0.648   0.092   3.063  1.8311 -0.2006 -1.7537
  389SOL    HW2 1555   0.561   0.147   2.948  0.3039 -0.7597  2.2580
  389SOL     MW 1556   0.576   0.141   3.036  0.3933 -0.4251 -0.0874
  390SOL     OW 1557   1.349   0.048   0.695  0.4146  0.2351  0.0281
  390SOL    HW1 1558   1.372   0.058   0.606 -0.6503  2.0271 -0.5497
  390SOL    HW2 1559   1.418   0.095   0.745 -1.2771 -3.1586  2.1243
  390SOL     MW 1560   1.361   0.055   0.690  0.0509  0.0237  0.2284
  391SOL     OW 1561   0.402   2.189   1.491 -0.3435  0.3181 -0.0597
  391SOL    HW1 1562   0.369   2.101   1.515 -0.3756 -0.5067 -1.0179
  391SOL    HW2 1563   0.322   2.242   1.502 -0.7945  0.1496  0.1686
  391SOL     MW 1564   0.387   2.184   1.496 -0.4073  0.1870 -0.1560
  392SOL     OW 1565   2.068   2.227   0.282 -0.1104 -0.1874 -0.6282
  392SOL    HW1 1566   2.149   2.207   0.329  0.8740  1.3617  1.6201
  392SOL    HW2 1567   2.015   2.266   0.347 -2.0038  2.1946 -2.6451
  392SOL     MW 1568   2.071   2.229   0.297 -0.2303  0.3312 -0.5977
  393SOL     OW 1569   0.291   2.936   2.839 -0.6878  0.3518  0.4777
  393SOL    HW1 1570   0.361   2.921   2.777  1.6989  1.1389  1.4867
  393SOL    HW2 1571   0.274   3.032   2.834 -2.2520  1.6518  1.9264
  393SOL     MW 1572   0.298   2.947   2.830 -0.5793  0.6272  0.8020
  394SOL     OW 1573   0.983   1.700   1.549 -0.3374  0.5243  0.2164
  394SOL    HW1 1574   0.956   1.711   1.643  2.6257 -1.5619  2.9502
  394SOL    HW2 1575   0.956   1.776   1.503  1.9339 -0.7182  1.7803
  394SOL     MW 1576   0.976   1.712   1.555  0.3532  0.0851  0.7834
  395SOL     OW 1577   0.972   2.967   2.536 -0.2609 -0.5378  0.0388
  395SOL    HW1 1578   0.978   3.008   2.623  0.9779 -0.9706 -0.7010
  395SOL    HW2 1579   1.025   2.891   2.547  1.8750  0.9362 -0.5497
  395SOL     MW 1580   0.980   2.962   2.549  0.1843 -0.4004 -0.1365
  396SOL     OW 1581   0.709   1.879   2.438  0.5587  0.1920  0.0046
  396SOL    HW1 1582   0.781   1.905   2.498  0.2563  2.5626  0.8453
  396SOL    HW2 1583   0.712   1.784   2.424  1.1907  0.2446 -0.1329
  396SOL     MW 1584   0.719   1.870   2.444  0.6022  0.5117  0.0974
  397SOL     OW 1585   1.011   2.322   1.434 -0.4393 -0.0269  0.0051
  397SOL    HW1 1586   1.014   2.332   1.335  0.3721  0.4061 -2.8121
  397SOL    HW2 1587   1.097   2.279   1.456 -0.6655 -0.7672  0.3501
  397SOL     MW 1588   1.023   2.318   1.424 -0.3621 -0.0674 -0.3211
  398SOL     OW 1589   0.612   2.729   0.604 -0.6733  0.2309 -0.4971
  398SOL    HW1 1590   0.522   2.691   0.585 -0.6964 -0.5274 -0.4440
  398SOL    HW2 1591   0.671   2.651   0.608  1.8109 -0.0063  0.6210
  398SOL     MW 1592   0.608   2.713   0.602 -0.3486  0.0996 -0.3426
  399SOL     OW 1593   0.218   2.094   0.337 -0.4463  0.0950 -0.4667
  399SOL    HW1 1594   0.128   2.114   0.333  2.5638 -2.6558 -0.8584
  399SOL    HW2 1595   0.254   2.129   0.249 -2.3361  0.7410 -2.4067
  399SOL     MW 1596   0.211   2.101   0.325 -0.2985 -0.1827 -0.7744
  400SOL     OW 1597   0.566   1.983   0.092  0.2341 -0.9700  0.5311
  400SOL    HW1 1598   0.495   2.045   0.105 -1.9795 -1.1408 -0.6977
  400SOL    HW2 1599   0.559   1.914   0.154  0.2172 -0.8783 -2.6951
  400SOL     MW 1600   0.556   1.982   0.102 -0.0602 -0.9805 -0.0567
  401SOL     OW 1601   0.818   2.098   0.073  0.3639 -0.0268 -0.6663
  401SOL    HW1 1602   0.902   2.061   0.109 -1.1439 -1.5884  3.7725
  401SOL    HW2 1603   0.742   2.040   0.092  1.5222 -1.3621 -1.6811
  401SOL     MW 1604   0.819   2.086   0.081  0.3178 -0.4090 -0.2146
  402SOL     OW 1605   0.564   2.979   1.716 -0.3679 -0.0280  0.1428
  402SOL    HW1 1606   0.642   2.965   1.773 -0.2715 -0.3675 -2.4892
  402SOL    HW2 1607   0.583   3.065   1.668  1.7458  0.9329  1.2336
  402SOL     MW 1608   0.577   2.989   1.717 -0.0763  0.0540 -0.0605
  403SOL     OW 1609   0.095   0.493   0.368  0.4976  0.5770 -0.0230
  403SOL    HW1 1610   0.182   0.503   0.418  1.8360  0.8286  1.6544
  403SOL    HW2 1611   0.117   0.440   0.294  0.7882  3.0193  1.8353
  403SOL     MW 1612   0.110   0.487   0.365  0.7125  0.9325  0.4435
  404SOL     OW 1613   0.973   2.907   0.757  0.2189  0.1136  0.2540
  404SOL    HW1 1614   1.042   2.848   0.733  1.5593  1.9280  1.5085
  404SOL    HW2 1615   0.983   3.002   0.738 -1.4223 -0.8868  3.0231
  404SOL     MW 1616   0.984   2.912   0.751  0.1792  0.2210  0.7849
  405SOL     OW 1617   0.493   2.464   1.524 -0.4123  0.6356 -0.3578
  405SOL    HW1 1618   0.479   2.539   1.469  0.4593 -0.6296  2.5218
  405SOL    HW2 1619   0.547   2.399   1.483  1.7355 -0.8174  1.2567
  405SOL     MW 1620   0.498   2.465   1.511 -0.0139  0.2769  0.2351
  406SOL     OW 1621   0.359   2.402   1.122  0.3477 -0.2924  0.7765
  406SOL    HW1 1622   0.265   2.386   1.155 -0.0300 -1.5993  3.2839
  406SOL    HW2 1623   0.398   2.317   1.153  0.5529 -0.8319 -1.6217
  406SOL     MW 1624   0.352   2.388   1.131  0.3250 -0.5360  0.7909
  407SOL     OW 1625   0.073   2.669   1.157  0.0322 -0.1654 -0.3179
  407SOL    HW1 1626   0.130   2.653   1.235  1.7142 -1.8231  0.5394
  407SOL    HW2 1627   0.137   2.691   1.093  0.4345  1.5261  1.3647
  407SOL     MW 1628   0.089   2.670   1.159  0.3072 -0.1609  0.0172
  408SOL     OW 1629   2.134   2.112   0.685 -0.7762 -0.3504  0.7877
  408SOL    HW1 1630   2.097   2.158   0.755 -0.8796 -0.3090 -2.8707
  408SOL    HW2 1631   2.064   2.068   0.639  0.6254  3.2501  1.4835
  408SOL     MW 1632   2.120   2.112   0.688 -0.6049  0.1301  0.3968
  409SOL     OW 1633   1.504   0.139   0.905  0.6281  0.1691 -0.6218
  409SOL    HW1 1634   1.589   0.192   0.913  1.7537  0.7037 -0.0798
  409SOL    HW2 1635   1.504   0.089   0.986  1.3749  1.0460  1.4287
  409SOL     MW 1636   1.515   0.139   0.917  0.8751  0.3553 -0.2797
  410SOL     OW 1637   1.047   2.435   1.177 -0.1783  0.5200  0.0057
  410SOL    HW1 1638   0.987   2.480   1.114 -1.6677  1.4286  1.1936
  410SOL    HW2 1639   1.127   2.400   1.130  0.8433  0.6251 -1.8688
  410SOL     MW 1640   1.050   2.436   1.163 -0.2400  0.6537 -0.0849
  411SOL     OW 1641   1.979   3.056   2.904  0.4054 -0.2328 -0.1906
  411SOL    HW1 1642   1.902   3.019   2.863 -1.0149  0.5568 -0.2757
  411SOL    HW2 1643   1.946   3.127   2.958  0.1980 -0.8451  0.6798
  411SOL     MW 1644   1.964   3.061   2.905  0.1907 -0.2095 -0.0870
  412SOL     OW 1645   1.067   2.257   0.611  0.0735  0.3158 -0.4885
  412SOL    HW1 1646   1.098   2.321   0.673 -3.0712 -0.2288 -2.1960
  412SOL    HW2 1647   0.985   2.297   0.585  0.5671 -0.0343  0.2055
  412SOL     MW 1648   1.060   2.271   0.616 -0.2763  0.1977 -0.6223
  413SOL     OW 1649   0.581   2.751   0.054  0.1372  0.7856 -0.0445
  413SOL    HW1 1650   0.604   2.654   0.049  1.1344 -1.9179 -1.5982
  413SOL    HW2 1651   0.594   2.786  -0.032 -1.0948  2.4005  3.1759
  413SOL     MW 1652   0.585   2.743   0.042  0.1062  0.6420  0.1754
  414SOL     OW 1653   2.042   2.993   1.176  0.1289  0.0593 -0.2894
  414SOL    HW1 1654   2.065   3.090   1.189  1.4283  0.3087 -2.5243
  414SOL    HW2 1655   2.021   2.984   1.081 -0.6863 -0.1220 -0.5334
  414SOL     MW 1656   2.042   3.005   1.165  0.1928  0.0683 -0.6164
  415SOL     OW 1657   1.671   2.807   1.077 -0.9964  0.1262  0.1116
  415SOL    HW1 1658   1.630   2.786   1.161 -0.5801 -1.8943 -0.1783
  415SOL    HW2 1659   1.766   2.804   1.090 -0.3261  2.1017 -1.8697
  415SOL     MW 1660   1.678   2.804   1.090 -0.8530  0.1203 -0.1880
  416SOL     OW 1661   0.567   1.817   1.430  0.4436 -0.7902  0.2736
  416SOL    HW1 1662   0.494   1.824   1.484  0.2108 -3.4851  1.5757
  416SOL    HW2 1663   0.606   1.733   1.442 -0.2741 -1.4088  0.4523
  416SOL     MW 1664   0.563   1.807   1.439  0.3182 -1.2274  0.4690
  417SOL     OW 1665   0.991   3.032   2.044 -0.1343 -0.1443 -0.1393
  417SOL    HW1 1666   0.931   3.011   2.115 -2.1218  1.2077 -0.5627
  417SOL    HW2 1667   0.927   3.028   1.972  2.1411  0.4170  3.2733
  417SOL     MW 1668   0.974   3.028   2.044 -0.0963  0.1081  0.2551
  418SOL     OW 1669   0.739   2.960   0.164  0.1380  0.4158  0.5330
  418SOL    HW1 1670   0.812   2.913   0.119 -1.3143 -2.1875 -0.0876
  418SOL    HW2 1671   0.663   2.912   0.130  1.5568 -1.9720  0.3557
  418SOL     MW 1672   0.739   2.948   0.154  0.1336 -0.2427  0.4278
  419SOL     OW 1673   0.519   2.685   1.357  0.3931  0.0043 -0.1654
  419SOL    HW1 1674   0.553   2.740   1.426 -2.5952 -1.4937 -0.2791
  419SOL    HW2 1675   0.587   2.623   1.331  0.3158 -2.2254  0.0306
  419SOL     MW 1676   0.533   2.684   1.363 -0.0114 -0.4876 -0.1545
  420SOL     OW 1677   0.766   2.223   1.083 -0.3726 -0.0076  0.0820
  420SOL    HW1 1678   0.718   2.248   1.165  1.2201  0.9110  1.0167
  420SOL    HW2 1679   0.791   2.310   1.039  0.3745  0.3856 -0.2415
  420SOL     MW 1680   0.763   2.238   1.088 -0.0639  0.1655  0.1627
  421SOL     OW 1681   2.944   0.164   3.094 -0.3320 -0.4402 -0.0181
  421SOL    HW1 1682   2.884   0.131   3.027 -0.6180 -1.2326 -1.6114
  421SOL    HW2 1683   2.978   0.086   3.139  1.8243  2.2023  2.0883
  421SOL     MW 1684   2.940   0.150   3.091 -0.0852 -0.1961  0.0496
  422SOL     OW 1685   0.815   2.488   0.951  0.3345  0.3463  0.3231
  422SOL    HW1 1686   0.753   2.558   0.982 -1.5331  1.7905 -0.6196
  422SOL    HW2 1687   0.845   2.522   0.867 -0.9829 -1.7612 -0.9848
  422SOL     MW 1688   0.811   2.502   0.944 -0.0858  0.2588  0.0261
  423SOL     OW 1689   1.484   0.068   0.453 -0.2893 -0.6889 -0.1233
  423SOL    HW1 1690   1.484   0.071   0.357 -0.3396  3.3568 -3.3527
  423SOL    HW2 1691   1.476   0.165   0.468 -0.5776  0.3927 -1.1844
  423SOL     MW 1692   1.483   0.081   0.443 -0.3340 -0.0124 -0.6894
  424SOL     OW 1693   0.654   2.302   1.313 -0.0035 -0.0392  0.4988
  424SOL    HW1 1694   0.574   2.250   1.285 -2.6762  2.0535  0.9599
  424SOL    HW2 1695   0.705   2.236   1.363  2.0291  1.1547 -1.2995
  424SOL     MW 1696   0.650   2.286   1.316 -0.0879  0.3944  0.3224
  425SOL     OW 1697   1.712   2.762   2.054 -0.2166  0.3592 -0.0391
  425SOL    HW1 1698   1.717   2.776   1.959 -2.8555 -1.0939 -1.2745
  425SOL    HW2 1699   1.747   2.670   2.080 -0.2762  0.3663  1.2637
  425SOL     MW 1700   1.717   2.752   2.045 -0.5726  0.1684 -0.0302
  426SOL     OW 1701   0.845   1.743   1.996  0.3220  0.1780  0.4446
  426SOL    HW1 1702   0.787   1.771   1.926  0.2333 -1.4355 -2.8725
  426SOL    HW2 1703   0.869   1.822   2.052  0.1774  3.8107 -0.5237
  426SOL     MW 1704   0.840   1.757   1.994  0.2912  0.4444 -0.1208
  427SOL     OW 1705   0.364   1.694   1.867  0.0654  0.1781  0.5756
  427SOL    HW1 1706   0.416   1.628   1.823  0.7682 -1.0953 -0.7618
  427SOL    HW2 1707   0.310   1.643   1.935  2.7122 -0.3216 -0.9206
  427SOL     MW 1708   0.364   1.679   1.871  0.5073 -0.0559  0.2018
  428SOL     OW 1709   0.553   2.576   1.090 -0.3178 -0.2008  0.4218
  428SOL    HW1 1710   0.479   2.533   1.133  0.6696 -1.5813  2.2116
  428SOL    HW2 1711   0.558   2.665   1.134  1.2204  3.7040  2.3266
  428SOL     MW 1712   0.544   2.582   1.101  0.0154  0.1323  0.9092
  429SOL     OW 1713   1.215   2.771   1.150  0.0560 -0.8310 -0.1129
  429SOL    HW1 1714   1.124   2.780   1.166  0.3195  0.9312  0.7244
  429SOL    HW2 1715   1.230   2.845   1.091  0.5511 -0.7957  0.4390
  429SOL     MW 1716   1.205   2.782   1.144  0.1561 -0.5938  0.0704
  430SOL     OW 1717   1.160   2.718   0.698  0.4383 -0.2172  0.6177
  430SOL    HW1 1718   1.182   2.631   0.725  1.2397 -0.6942 -1.1757
  430SOL    HW2 1719   1.102   2.687   0.618  1.3588 -0.5378 -2.0139
  430SOL     MW 1720   1.155   2.702   0.691  0.6655 -0.3224  0.0339
  431SOL     OW 1721   0.318   1.950   1.121 -0.2317  0.1051  0.4004
  431SOL    HW1 1722   0.377   1.870   1.115  1.7675 -0.6261  1.8239
  431SOL    HW2 1723   0.292   1.984   1.032 -1.5863  1.8189  2.3487
  431SOL     MW 1724   0.322   1.944   1.109 -0.1466  0.2347  0.8453
  432SOL     OW 1725   0.043   0.015   1.114 -0.2397  0.3979  0.3456
  432SOL    HW1 1726   0.068   0.055   1.198  0.8119  0.1431 -2.0775
  432SOL    HW2 1727  -0.007  -0.063   1.142 -0.7419 -0.6781  1.1452
  432SOL     MW 1728   0.040   0.010   1.129 -0.1672  0.2223  0.1314
  433SOL     OW 1729   0.670   2.885   1.482 -0.0259  0.2493 -0.3911
  433SOL    HW1 1730   0.618   2.917   1.565  1.0893 -0.7865  1.9528
  433SOL    HW2 1731   0.757   2.874   1.522  3.4470  2.8577  1.3536
  433SOL     MW 1732   0.674   2.888   1.498  0.5794  0.4568  0.1483
  434SOL     OW 1733   1.556   2.787   1.549  0.0884 -0.1377 -0.1970
  434SOL    HW1 1734   1.472   2.827   1.555  1.7829  0.1352  1.3465
  434SOL    HW2 1735   1.562   2.755   1.456 -0.6075 -1.6829 -0.2255
  434SOL     MW 1736   1.546   2.788   1.538  0.2202 -0.3055  0.0029
  435SOL     OW 1737   2.755   1.768   0.205 -0.1439  0.1233  0.0652
  435SOL    HW1 1738   2.826   1.832   0.169  2.1430 -1.6846 -0.4068
  435SOL    HW2 1739   2.680   1.779   0.145  3.4448  0.1695  0.0923
  435SOL     MW 1740   2.755   1.778   0.192  0.6313 -0.1092  0.0065
  436SOL     OW 1741   1.416   2.697   0.367 -0.0614  0.2392 -0.2268
  436SOL    HW1 1742   1.446   2.682   0.459 -0.9802  1.9224  1.4023
  436SOL    HW2 1743   1.376   2.789   0.363  0.7092  0.5436 -0.2540
  436SOL     MW 1744   1.415   2.707   0.379 -0.0809  0.5015 -0.0154
  437SOL     OW 1745   1.043   2.957   1.324  0.7707 -0.0598 -0.1020
  437SOL    HW1 1746   1.048   3.002   1.237  1.1007  0.6556  1.6354
  437SOL    HW2 1747   0.984   2.886   1.294 -0.6544  3.5032 -1.0747
  437SOL     MW 1748   1.036   2.953   1.308  0.6262  0.5047 -0.0011
  438SOL     OW 1749   0.848   2.690   1.907  0.5861  1.0850  0.1785
  438SOL    HW1 1750   0.864   2.674   1.998  3.7187  0.6094  0.5878
  438SOL    HW2 1751   0.764   2.646   1.876  1.4183  0.3240 -0.4909
  438SOL     MW 1752   0.839   2.682   1.915  1.1092  0.9219  0.1442
  439SOL     OW 1753   1.162   2.100   0.412 -0.2882  0.0504  0.6873
  439SOL    HW1 1754   1.121   2.144   0.487 -0.8209 -1.5851  1.1703
  439SOL    HW2 1755   1.169   2.163   0.335  1.0368 -1.8490  0.2630
  439SOL     MW 1756   1.157   2.114   0.412 -0.1836 -0.4160  0.6951
  440SOL     OW 1757   1.714   2.952   3.068  1.0823 -0.1628  0.1099
  440SOL    HW1 1758   1.649   2.978   3.132  0.4073  0.9534 -0.0672
  440SOL    HW2 1759   1.793   2.933   3.118  2.0429  0.8838  2.1452
  440SOL     MW 1760   1.716   2.953   3.083  1.1200  0.1226  0.3551
  441SOL     OW 1761   0.362   2.654   0.509  0.1013 -0.2165  0.0089
  441SOL    HW1 1762   0.378   2.605   0.423  0.8689 -1.6885 -1.2433
  441SOL    HW2 1763   0.366   2.750   0.485  0.8789 -2.4649  1.5522
  441SOL     MW 1764   0.365   2.660   0.494  0.3052 -0.7074  0.0473
  442SOL     OW 1765   3.080   2.348   0.595 -0.0483 -0.8113  0.2889
  442SOL    HW1 1766   3.095   2.441   0.598  0.6717  2.1072 -3.0612
  442SOL    HW2 1767   2.990   2.335   0.620  2.1943  0.7131 -0.8562
  442SOL     MW 1768   3.070   2.358   0.599  0.3426 -0.2251 -0.3042
  443SOL     OW 1769   1.515   1.748   1.936 -0.3086  0.2630 -0.9514
  443SOL    HW1 1770   1.489   1.772   1.845 -1.6303 -1.1671 -2.1945
  443SOL    HW2 1771   1.454   1.677   1.949 -2.1923  1.6061 -3.3149
  443SOL     MW 1772   1.504   1.742   1.926 -0.7316  0.2515 -1.4272
  444SOL     OW 1773   0.933   2.599   1.578  0.1617  0.0778  0.4217
  444SOL    HW1 1774   1.006   2.575   1.635  1.6723  1.1257 -0.0437
  444SOL    HW2 1775   0.856   2.610   1.637 -2.9028 -0.0887 -1.0414
  444SOL     MW 1776   0.932   2.598   1.593 -0.0434  0.1941  0.1673
  445SOL     OW 1777   1.202   0.164   1.403  0.4843 -0.3594  0.6192
  445SOL    HW1 1778   1.133   0.182   1.466 -1.1488  2.7398  0.8417
  445SOL    HW2 1779   1.168   0.203   1.321 -1.9386 -1.7714  0.5142
  445SOL     MW 1780   1.188   0.171   1.401 -0.0508 -0.1368  0.6347
  446SOL     OW 1781   2.797   2.857   1.029  0.2015 -0.1174  0.0462
  446SOL    HW1 1782   2.745   2.887   0.950  0.5233  0.3515 -0.9725
  446SOL    HW2 1783   2.858   2.783   1.006 -0.6224  0.5530 -0.2246
  446SOL     MW 1784   2.798   2.851   1.015  0.1352  0.0329 -0.1239
  447SOL     OW 1785   0.018   1.981   1.622 -0.2288 -0.1424 -0.6279
  447SOL    HW1 1786   0.038   1.912   1.680 -0.6733  2.3209 -0.2184
  447SOL    HW2 1787  -0.038   1.943   1.547 -1.3135 -1.5963 -0.1746
  447SOL     MW 1788   0.014   1.967   1.620 -0.4305 -0.0092 -0.5140
  448SOL     OW 1789   1.769   2.440   1.671  0.2988  0.3671 -0.0205
  448SOL    HW1 1790   1.749   2.348   1.644  0.4563 -1.7462 -0.8067
  448SOL    HW2 1791   1.686   2.485   1.679  0.4993 -1.5347 -0.2506
  448SOL     MW 1792   1.756   2.434   1.669  0.3460 -0.1626 -0.1546
  449SOL     OW 1793   0.905   2.921   0.383 -0.3295  0.9957 -0.1365
  449SOL    HW1 1794   0.837   2.940   0.321  1.5575  1.4398 -0.0061
  449SOL    HW2 1795   0.859   2.920   0.467 -0.7351 -1.3908 -3.7339
  449SOL     MW 1796   0.890   2.923   0.386 -0.1340  0.7394 -0.5940
  450SOL     OW 1797   1.187   2.436   0.757 -0.2342  0.0180  0.6946
  450SOL    HW1 1798   1.226   2.411   0.840  0.0742  1.6053  1.3469
  450SOL    HW2 1799   1.256   2.422   0.691 -0.1702 -0.6843 -0.0121
  450SOL     MW 1800   1.202   2.431   0.759 -0.1851  0.1348  0.6874
  451SOL     OW 1801   0.598   1.999   1.697 -0.3418 -0.0377  0.4512
  451SOL    HW1 1802   0.658   2.073   1.720 -0.1787  1.8747 -0.0714
  451SOL    HW2 1803   0.616   1.983   1.601 -2.4096 -2.8362 -0.4282
  451SOL     MW 1804   0.608   2.007   1.688 -0.5931 -0.1546  0.2662
  452SOL     OW 1805   0.335   2.626   0.045  0.9438  0.1681 -0.0029
  452SOL    HW1 1806   0.425   2.669   0.036 -2.2429 -1.6280 -0.2487
  452SOL    HW2 1807   0.274   2.704   0.027 -2.4872  0.6064  0.5038
  452SOL     MW 1808   0.339   2.642   0.041  0.0706 -0.0110  0.0315
  453SOL     OW 1809   0.331   3.069   1.615 -0.5951  0.3895 -0.3241
  453SOL    HW1 1810   0.386   3.020   1.673  1.1680  1.2533 -2.1397
  453SOL    HW2 1811   0.385   3.082   1.531  0.0584 -0.7948 -3.4144
  453SOL     MW 1812   0.346   3.064   1.611 -0.2763  0.3473 -0.9714
  454SOL     OW 1813   0.933   2.735   1.198  0.1058  0.1687  0.1551
  454SOL    HW1 1814   0.884   2.668   1.237 -3.3871  2.9084  0.7065
  454SOL    HW2 1815   0.880   2.762   1.119 -0.5856  1.3873 -0.3208
  454SOL     MW 1816   0.919   2.730   1.192 -0.4463  0.6910  0.1650
  455SOL     OW 1817   1.657   2.880   0.257  0.0806  0.1902  0.0104
  455SOL    HW1 1818   1.693   2.858   0.340 -0.8908 -2.7876  0.2894
  455SOL    HW2 1819   1.654   2.794   0.222  1.7311  0.8805  1.0978
  455SOL     MW 1820   1.661   2.866   0.264  0.1702 -0.1116  0.1907
  456SOL     OW 1821   2.722   0.299   1.524  0.6924 -0.2057 -0.4629
  456SOL    HW1 1822   2.743   0.239   1.454 -1.1250  0.7442 -0.1642
  456SOL    HW2 1823   2.755   0.384   1.498 -1.4848 -2.1916  0.1889
  456SOL     MW 1824   2.729   0.302   1.511  0.1653 -0.3424 -0.3375
  457SOL     OW 1825   0.791   1.600   3.032 -0.3715  0.4427  0.3194
  457SOL    HW1 1826   0.692   1.591   3.024 -0.2832  4.1859  0.0213
  457SOL    HW2 1827   0.790   1.640   3.123  3.5193  3.6506 -1.3317
  457SOL     MW 1828   0.778   1.604   3.043  0.1535  1.3598  0.0622
  458SOL     OW 1829   1.357   1.463   0.687  0.2780 -0.0099  0.0304
  458SOL    HW1 1830   1.305   1.517   0.625 -3.1050 -1.7292 -2.3045
  458SOL    HW2 1831   1.339   1.374   0.657  0.0835  0.1570 -0.1365
  458SOL     MW 1832   1.348   1.459   0.675 -0.1940 -0.2147 -0.2997
  459SOL     OW 1833   1.542   0.040   0.197 -0.0659  0.2634  0.0068
  459SOL    HW1 1834   1.557  -0.051   0.223  0.7546 -1.1455 -3.1758
  459SOL    HW2 1835   1.491   0.038   0.114 -0.0839  2.0723  1.1649
  459SOL     MW 1836   1.538   0.028   0.190  0.0400  0.3162 -0.2603
  460SOL     OW 1837   1.801   2.174   0.654 -0.0953  0.3988  0.7302
  460SOL    HW1 1838   1.709   2.158   0.684 -0.2625  0.8929  0.1491
  460SOL    HW2 1839   1.838   2.086   0.653  0.1863  1.1764  1.7612
  460SOL     MW 1840   1.794   2.160   0.658 -0.0802  0.5666  0.7895
  461SOL     OW 1841   0.468   2.435   0.621  0.0506  0.1918 -0.0672
  461SOL    HW1 1842   0.416   2.505   0.588 -1.0737 -2.9735  1.0271
  461SOL    HW2 1843   0.432   2.421   0.708 -0.1707 -0.6866 -2.2357
  461SOL     MW 1844   0.456   2.443   0.628 -0.1269 -0.3417 -0.2090
  462SOL     OW 1845   0.328   0.237   1.270  0.7926 -0.1755  0.8275
  462SOL    HW1 1846   0.371   0.213   1.184  1.1978  1.3003  1.6119
  462SOL    HW2 1847   0.397   0.258   1.337 -1.0993 -2.2374 -1.1956
  462SOL     MW 1848   0.343   0.237   1.268  0.5964 -0.2528  0.6640
  463SOL     OW 1849   1.009   0.067   0.703  0.3801  0.0579  0.2210
  463SOL    HW1 1850   1.075   0.067   0.633 -1.0091 -1.2598  1.7817
  463SOL    HW2 1851   0.926   0.103   0.668  2.1528 -3.3305  2.5987
  463SOL     MW 1852   1.007   0.072   0.689  0.4307 -0.5630  0.7406
  464SOL     OW 1853   0.789   3.034   2.229 -0.0576  0.1018  0.0824
  464SOL    HW1 1854   0.767   2.948   2.266  1.4396 -0.7816 -0.1972
  464SOL    HW2 1855   0.815   3.084   2.301 -0.8030  1.3625 -1.5356
  464SOL     MW 1856   0.790   3.029   2.243  0.0416  0.1515 -0.1680
  465SOL     OW 1857   0.863   0.304   0.413  0.2321  1.0453  0.0575
  465SOL    HW1 1858   0.816   0.258   0.483  0.3518  1.3463 -1.4829
  465SOL    HW2 1859   0.817   0.270   0.333 -1.4814 -3.0450 -1.4557
  465SOL     MW 1860   0.851   0.293   0.412  0.0218  0.5453 -0.3454
  466SOL     OW 1861   1.027   2.049   0.781  0.0831  0.2902 -0.6293
  466SOL    HW1 1862   1.025   1.968   0.736  1.1227  1.8889 -0.6796
  466SOL    HW2 1863   1.042   2.114   0.707  2.0737 -0.9051  0.1148
  466SOL     MW 1864   1.028   2.047   0.765  0.4829  0.3434 -0.5377
  467SOL     OW 1865   1.251   2.350   1.010  0.1901  0.5071 -0.3368
  467SOL    HW1 1866   1.342   2.376   0.997 -0.2787  1.0180  0.0177
  467SOL    HW2 1867   1.249   2.256   0.980 -0.6720 -1.6394  1.9498
  467SOL     MW 1868   1.263   2.341   1.004  0.0145  0.2913  0.0117
  468SOL     OW 1869   0.474   2.668   1.907 -0.8410  0.2785 -0.4575
  468SOL    HW1 1870   0.482   2.588   1.851 -0.0509 -0.0395 -0.7563
  468SOL    HW2 1871   0.410   2.722   1.866  1.5744  1.9804 -0.5765
  468SOL     MW 1872   0.467   2.665   1.894 -0.4181  0.4611 -0.5126
  469SOL     OW 1873   0.389   2.132   1.856  0.3503  0.5197  0.5378
  469SOL    HW1 1874   0.315   2.070   1.868 -2.4838  0.6289 -3.6984
  469SOL    HW2 1875   0.460   2.079   1.814 -1.6749  0.4042  1.0599
  469SOL     MW 1876   0.389   2.117   1.852 -0.2909  0.5189  0.0478
  470SOL     OW 1877   3.097   2.574   0.174  0.0179  0.0745 -0.3389
  470SOL    HW1 1878   3.014   2.570   0.230  0.3550  1.1438 -0.2757
  470SOL    HW2 1879   3.064   2.603   0.087 -2.7546 -0.6760 -3.4304
  470SOL     MW 1880   3.082   2.577   0.170 -0.3034  0.1166 -0.7384
  471SOL     OW 1881   1.197   2.567   1.385 -0.3816 -0.5767 -0.1678
  471SOL    HW1 1882   1.122   2.535   1.438 -2.5455 -1.9884  0.3408
  471SOL    HW2 1883   1.150   2.559   1.302 -0.1758 -1.0435 -3.0359
  471SOL     MW 1884   1.181   2.562   1.381 -0.6399 -0.8245 -0.4791
  472SOL     OW 1885   2.788   2.078   0.352 -0.0378  0.0473  0.4830
  472SOL    HW1 1886   2.824   2.043   0.266  1.5824 -1.0924 -1.8571
  472SOL    HW2 1887   2.788   1.997   0.408  1.3938 -0.4752 -0.5909
  472SOL     MW 1888   2.793   2.063   0.348  0.3649 -0.1720  0.0325
  473SOL     OW 1889   0.790   2.542   1.343 -0.3333 -0.1964  0.3321
  473SOL    HW1 1890   0.751   2.455   1.330  0.4880 -1.8127  0.5906
  473SOL    HW2 1891   0.860   2.529   1.403 -0.5287 -1.2847  1.0175
  473SOL     MW 1892   0.794   2.529   1.349 -0.2507 -0.5533  0.4567
  474SOL     OW 1893   0.738   2.267   1.772 -0.4736  0.7518 -0.3785
  474SOL    HW1 1894   0.820   2.299   1.814 -0.1450  1.0773  0.6316
  474SOL    HW2 1895   0.766   2.245   1.681  0.3110  0.2859 -3.2473
  474SOL     MW 1896   0.752   2.268   1.766 -0.3268  0.7332 -0.6237
  475SOL     OW 1897   1.625   3.075   1.439  0.5370  0.2996  0.2453
  475SOL    HW1 1898   1.542   3.097   1.403  0.0562  1.7523  1.4717
  475SOL    HW2 1899   1.613   2.985   1.464 -1.7647  2.1467  0.7671
  475SOL     MW 1900   1.612   3.066   1.437  0.1698  0.7350  0.4760
  476SOL     OW 1901   1.417   2.619   1.043  0.0479 -0.6287  0.7924
  476SOL    HW1 1902   1.337   2.661   1.075  0.7055  0.7574  1.9491
  476SOL    HW2 1903   1.452   2.685   0.984 -1.9376  1.6961  0.9527
  476SOL     MW 1904   1.411   2.633   1.039 -0.1273 -0.1391  0.9662
  477SOL     OW 1905   0.766   2.521   0.646  0.3915  0.7061 -0.4932
  477SOL    HW1 1906   0.846   2.558   0.614  0.5290 -0.5364  0.9123
  477SOL    HW2 1907   0.745   2.435   0.599 -0.0503 -0.7550  1.0522
  477SOL     MW 1908   0.774   2.515   0.636  0.3514  0.3494 -0.1039
  478SOL     OW 1909   0.163   2.685   0.879 -1.1293  0.2487  0.3080
  478SOL    HW1 1910   0.212   2.762   0.845  1.1084 -3.1498 -0.5863
  478SOL    HW2 1911   0.211   2.603   0.861 -0.0092  1.9515  1.0073
  478SOL     MW 1912   0.176   2.685   0.872 -0.6863  0.0249  0.2823
  479SOL     OW 1913   1.464   1.982   1.275 -0.3573  0.1181 -0.2300
  479SOL    HW1 1914   1.451   1.995   1.372  0.5197  0.3876  1.8228
  479SOL    HW2 1915   1.488   1.884   1.276  2.7488 -1.7200  1.5468
  479SOL     MW 1916   1.465   1.971   1.288  0.1682 -0.0889  0.2753
  480SOL     OW 1917   1.951   2.443   1.277  0.7709 -0.0843  0.3240
  480SOL    HW1 1918   1.916   2.358   1.304  0.1857  0.7452 -0.2909
  480SOL    HW2 1919   1.996   2.427   1.196  1.7689 -1.3795 -0.5264
  480SOL     MW 1920   1.952   2.430   1.270  0.8253 -0.1458  0.1307
  481SOL     OW 1921   1.050   3.099   1.098 -0.0944  0.1591 -0.2049
  481SOL    HW1 1922   1.099   3.049   1.029  2.5283  0.8027  0.1271
  481SOL    HW2 1923   1.113   3.166   1.125  1.5180 -0.0773  0.2394
  481SOL     MW 1924   1.065   3.101   1.092  0.4644  0.2129 -0.1025
  482SOL     OW 1925   1.073   3.093   0.239  0.3516  0.7173  0.1598
  482SOL    HW1 1926   1.012   3.031   0.285  0.7238 -2.2968  1.7663
  482SOL    HW2 1927   1.094   3.159   0.300 -0.7356 -0.6766 -0.0982
  482SOL     MW 1928   1.067   3.093   0.253  0.2573  0.1357  0.3377
  483SOL     OW 1929   0.403   2.908   0.431  0.7640 -0.1627 -0.7166
  483SOL    HW1 1930   0.342   2.948   0.365 -1.8462  1.7556  0.5361
  483SOL    HW2 1931   0.387   2.964   0.509 -0.6913 -0.3903 -1.4136
  483SOL     MW 1932   0.393   2.921   0.432  0.2276  0.0604 -0.6433
  484SOL     OW 1933   1.896   1.898   1.482 -0.0324  0.9688 -0.3047
  484SOL    HW1 1934   1.888   1.988   1.465  1.1624 -0.8059  1.9520
  484SOL    HW2 1935   1.879   1.899   1.576  3.3385  0.6306 -1.3724
  484SOL     MW 1936   1.893   1.910   1.492  0.5700  0.6900 -0.1478
  485SOL     OW 1937   0.515   2.335   0.215  0.4510 -0.2244  0.8843
  485SOL    HW1 1938   0.539   2.294   0.292 -1.3648 -0.6880 -1.8423
  485SOL    HW2 1939   0.448   2.404   0.242 -0.2256  0.8825  3.3376
  485SOL     MW 1940   0.509   2.339   0.229  0.1221 -0.1395  0.8482
  486SOL     OW 1941   0.162   2.343   1.488 -0.2557 -0.3290 -0.2242
  486SOL    HW1 1942   0.200   2.426   1.468  0.3446 -0.5307  1.3478
  486SOL    HW2 1943   0.157   2.341   1.583 -0.0435 -1.6724 -0.9010
  486SOL     MW 1944   0.166   2.354   1.498 -0.1485 -0.5329 -0.1061
  487SOL     OW 1945   1.212   1.674   1.069  0.0289 -0.2059  0.4151
  487SOL    HW1 1946   1.208   1.766   1.105  0.1761 -2.4635 -3.2541
  487SOL    HW2 1947   1.290   1.669   1.016 -0.0257  0.6826 -1.2353
  487SOL     MW 1948   1.222   1.686   1.067  0.0411 -0.3866 -0.2868
  488SOL     OW 1949   1.620   1.883   0.513  0.0580 -0.1655  0.4926
  488SOL    HW1 1950   1.691   1.889   0.446  1.3783  2.0275 -1.2261
  488SOL    HW2 1951   1.562   1.948   0.471  0.9558  0.7231  0.1843
  488SOL     MW 1952   1.622   1.893   0.498  0.3506  0.2411  0.2251
  489SOL     OW 1953   0.744   0.782   0.543 -0.0541 -0.0491 -0.1056
  489SOL    HW1 1954   0.787   0.702   0.514 -1.3884 -1.3332 -1.5445
  489SOL    HW2 1955   0.719   0.776   0.642  2.1347 -1.6443  0.9062
  489SOL     MW 1956   0.746   0.771   0.553  0.0587 -0.4290 -0.1620
  490SOL     OW 1957   1.417   2.081   0.465  0.2373  0.0553  0.5271
  490SOL    HW1 1958   1.464   2.160   0.429 -1.2521 -1.3099 -1.5711
  490SOL    HW2 1959   1.328   2.109   0.444 -1.9021 -1.6797 -0.5861
  490SOL     MW 1960   1.412   2.095   0.458 -0.2415 -0.3538  0.1034
  491SOL     OW 1961   1.288   2.953   0.381 -0.4332 -0.4709  0.3182
  491SOL    HW1 1962   1.346   3.021   0.407  0.6769 -1.2237  1.3570
  491SOL    HW2 1963   1.215   2.996   0.332 -2.5419 -1.5012  0.4171
  491SOL     MW 1964   1.286   2.968   0.378 -0.5649 -0.7061  0.4683
  492SOL     OW 1965   1.501   2.143   0.729 -0.0551 -0.1778 -0.4514
  492SOL    HW1 1966   1.454   2.108   0.655  1.7275 -0.2320 -0.8197
  492SOL    HW2 1967   1.451   2.120   0.809  2.4521  2.1364 -1.2455
  492SOL     MW 1968   1.488   2.135   0.730  0.5109  0.1204 -0.6048
  493SOL     OW 1969   0.188   3.011   0.299 -0.0764  0.1112 -0.0327
  493SOL    HW1 1970   0.152   3.060   0.374  1.2039 -0.1193  0.0353
  493SOL    HW2 1971   0.182   3.065   0.216 -0.6589 -2.1785 -0.2093
  493SOL     MW 1972   0.182   3.025   0.298  0.0157 -0.2213 -0.0470
  494SOL     OW 1973   0.389   2.421   1.776  0.6804 -0.3287  0.0558
  494SOL    HW1 1974   0.408   2.327   1.790 -1.8623  1.1581  1.9676
  494SOL    HW2 1975   0.424   2.443   1.687 -2.1943 -0.7771 -0.0575
  494SOL     MW 1976   0.396   2.411   1.766 -0.0344 -0.1917  0.2931
  495SOL     OW 1977   2.900   1.642   2.621 -0.3732 -0.0841 -0.0593
  495SOL    HW1 1978   2.894   1.732   2.582  0.9794  1.9322 -1.7323
  495SOL    HW2 1979   2.856   1.643   2.708  1.0517 -2.3025  0.1446
  495SOL     MW 1980   2.893   1.654   2.628 -0.0067 -0.1108 -0.2531
  496SOL     OW 1981   2.921   2.383   2.673 -0.6500  0.2423  0.3295
  496SOL    HW1 1982   2.961   2.314   2.734  4.0205 -1.0251  2.2605
  496SOL    HW2 1983   2.984   2.454   2.694 -0.2496 -1.3450 -0.1557
  496SOL     MW 1984   2.935   2.383   2.684  0.0191 -0.1344  0.5202
  497SOL     OW 1985   1.625   2.238   2.622  0.2582 -0.5520 -0.8069
  497SOL    HW1 1986   1.552   2.210   2.563 -1.5230  1.0204  0.5495
  497SOL    HW2 1987   1.607   2.176   2.690  0.7848  1.3660 -1.5867
  497SOL     MW 1988   1.613   2.226   2.623  0.0927 -0.0915 -0.7308
  498SOL     OW 1989   1.442   2.706   2.331 -0.2013 -0.1961 -0.2998
  498SOL    HW1 1990   1.470   2.608   2.330 -0.7186 -2.8876  2.3270
  498SOL    HW2 1991   1.526   2.756   2.342 -0.9253  0.7246 -0.9411
  498SOL     MW 1992   1.457   2.700   2.332 -0.3650 -0.4297 -0.0378
  499SOL     OW 1993   0.989   0.139   0.009  0.4720  0.3021 -0.7448
  499SOL    HW1 1994   0.910   0.180   0.059  0.0052 -1.0764 -0.5134
  499SOL    HW2 1995   1.041   0.091   0.080  0.4352 -3.9356  0.2112
  499SOL     MW 1996   0.985   0.138   0.025  0.4056 -0.4389 -0.5881
  500SOL     OW 1997   1.060   2.554   2.809 -0.1916 -0.1403 -0.6017
  500SOL    HW1 1998   1.102   2.510   2.887 -0.2543 -0.4932  1.5242
  500SOL    HW2 1999   0.986   2.607   2.845  0.2878  1.4388 -0.2776
  500SOL     MW 2000   1.056   2.555   2.824 -0.1366  0.0215 -0.2784
  501SOL     OW 2001   1.813   2.194   3.067  0.5568  0.5248 -0.3082
  501SOL    HW1 2002   1.805   2.287   3.105  0.8809  2.4038  1.4435
  501SOL    HW2 2003   1.902   2.181   3.048 -1.2292 -0.3303 -0.9553
  501SOL     MW 2004   1.824   2.204   3.069  0.3639  0.6599 -0.1625
  502SOL     OW 2005   0.152   2.800   3.058  0.3631  0.4133  0.1308
  502SOL    HW1 2006   0.094   2.735   3.020  1.0439 -0.6903  1.6649
  502SOL    HW2 2007   0.195   2.827   2.974  0.6350 -0.6933 -0.8145
  502SOL     MW 2008   0.150   2.795   3.042  0.4888  0.1217  0.2085
  503SOL     OW 2009   1.110   2.779   2.148 -0.8359 -0.0302  0.1067
  503SOL    HW1 2010   1.046   2.712   2.153  0.7440 -0.1926  1.7917
  503SOL    HW2 2011   1.070   2.839   2.085  1.9482  0.2222 -0.7557
  503SOL     MW 2012   1.096   2.778   2.140 -0.2601 -0.0183  0.2152
  504SOL     OW 2013   0.106   2.702   2.140 -0.4251 -0.0754 -0.2731
  504SOL    HW1 2014   0.148   2.619   2.138  0.2370  0.2457 -2.1070
  504SOL    HW2 2015   0.021   2.679   2.163  0.7399 -0.3287  2.4013
  504SOL     MW 2016   0.100   2.688   2.143 -0.1840 -0.0665 -0.1622
  505SOL     OW 2017   1.684   2.700   2.734  0.4687 -0.9424 -0.3124
  505SOL    HW1 2018   1.669   2.730   2.641 -2.8630  0.4999 -2.1337
  505SOL    HW2 2019   1.600   2.712   2.778  0.0818  1.7911  0.6074
  505SOL     MW 2020   1.671   2.706   2.727 -0.0219 -0.3915 -0.4313
  506SOL     OW 2021   1.581   3.074   2.832  0.0852 -0.6005 -0.1454
  506SOL    HW1 2022   1.617   3.068   2.922  0.0381 -0.9778  0.3024
  506SOL    HW2 2023   1.651   3.031   2.781  2.7682 -0.2072  0.9890
  506SOL     MW 2024   1.595   3.067   2.837  0.4329 -0.5984  0.0633
  507SOL     OW 2025   0.900   2.787   2.858 -0.2656 -0.5240 -0.4414
  507SOL    HW1 2026   0.922   2.889   2.841 -0.8345 -0.1667  3.8601
  507SOL    HW2 2027   0.812   2.790   2.895  0.0463 -1.3840  0.2068
  507SOL     MW 2028   0.891   2.801   2.860 -0.2995 -0.5903  0.2117
  508SOL     OW 2029   1.142   2.080   2.519  0.1303  0.0010  0.1145
  508SOL    HW1 2030   1.228   2.058   2.558 -1.0313 -0.5469 -0.3793
  508SOL    HW2 2031   1.123   2.164   2.569  1.5734 -1.8864  1.4100
  508SOL     MW 2032   1.151   2.088   2.531  0.1674 -0.3203  0.2203
  509SOL     OW 2033   0.598   2.560   2.774 -0.5621 -0.6729  0.8211
  509SOL    HW1 2034   0.605   2.511   2.696  0.5648 -0.1516 -0.1071
  509SOL    HW2 2035   0.524   2.527   2.823 -1.8412  1.5847 -0.8597
  509SOL     MW 2036   0.589   2.549   2.770 -0.5822 -0.3062  0.4769
  510SOL     OW 2037   1.513   2.544   1.687 -0.0454  0.2521  0.3199
  510SOL    HW1 2038   1.511   2.640   1.665  1.0830  2.6957  0.0949
  510SOL    HW2 2039   1.458   2.548   1.774  0.2171  2.4030 -0.5201
  510SOL     MW 2040   1.506   2.557   1.696  0.1381  0.8583  0.1794
  511SOL     OW 2041   0.473   2.645   2.436 -0.1350  0.5321  0.2560
  511SOL    HW1 2042   0.534   2.575   2.450  0.0430 -1.2808 -0.8439
  511SOL    HW2 2043   0.496   2.645   2.344 -0.2610 -0.5819  1.2260
  511SOL     MW 2044   0.484   2.636   2.425 -0.1281  0.1459  0.2388
  512SOL     OW 2045   1.070   2.004   2.813  0.3825  0.1381  0.0487
  512SOL    HW1 2046   0.973   2.004   2.815  0.8174  1.6481  0.8491
  512SOL    HW2 2047   1.089   1.925   2.868  0.0046 -1.5497  0.8726
  512SOL     MW 2048   1.060   1.994   2.820  0.3900  0.1146  0.2630
  513SOL     OW 2049   1.549   2.453   2.299 -0.5134 -0.0890  0.6493
  513SOL    HW1 2050   1.616   2.437   2.234 -3.4552 -2.3706  1.8329
  513SOL    HW2 2051   1.597   2.411   2.371 -1.3771 -0.2619  0.4924
  513SOL     MW 2052   1.565   2.446   2.300 -1.0155 -0.4128  0.7848
  514SOL     OW 2053   0.281   2.539   2.629  0.0051 -0.0057 -0.8302
  514SOL    HW1 2054   0.346   2.584   2.570 -1.4890 -1.1652 -2.4512
  514SOL    HW2 2055   0.318   2.546   2.718  1.1990  2.7590 -0.5083
  514SOL     MW 2056   0.294   2.546   2.633 -0.0345  0.2061 -1.0016
  515SOL     OW 2057   1.112   2.111   1.785 -0.5830 -0.8058 -0.6024
  515SOL    HW1 2058   1.089   2.203   1.806 -0.8375  0.8901  2.0749
  515SOL    HW2 2059   1.194   2.099   1.826 -1.7350  0.4236  0.2796
  515SOL     MW 2060   1.120   2.122   1.793 -0.7686 -0.4198 -0.1328
  516SOL     OW 2061   1.481   2.454   3.038 -0.1403  0.4183  0.2165
  516SOL    HW1 2062   1.513   2.443   2.952 -3.1596  1.7373  2.3402
  516SOL    HW2 2063   1.389   2.469   3.019  0.4582 -0.5027  0.7460
  516SOL     MW 2064   1.473   2.454   3.024 -0.4597  0.4708  0.5665
  517SOL     OW 2065   0.621   2.457   2.161  0.2992 -0.2181  0.2119
  517SOL    HW1 2066   0.570   2.540   2.142  0.2496  2.1177  0.7617
  517SOL    HW2 2067   0.556   2.398   2.121  2.8628 -0.1287  0.8384
  517SOL     MW 2068   0.605   2.460   2.153  0.6309  0.1019  0.3671
  518SOL     OW 2069   1.875   0.184   3.012  0.4222 -0.8015 -0.5813
  518SOL    HW1 2070   1.820   0.237   2.954 -0.6568  0.9072  2.5680
  518SOL    HW2 2071   1.828   0.170   3.100 -0.5046 -2.2412 -1.9047
  518SOL     MW 2072   1.862   0.189   3.016  0.1575 -0.7660 -0.3403
  519SOL     OW 2073   0.680   2.549   1.721  0.3646 -0.2058 -0.3727
  519SOL    HW1 2074   0.703   2.464   1.749 -0.5251  2.1178  0.6943
  519SOL    HW2 2075   0.644   2.533   1.632  0.5577  1.8101 -3.5666
  519SOL     MW 2076   0.678   2.535   1.713  0.2727  0.3667 -0.6533
  520SOL     OW 2077   1.291   2.136   2.912  0.0845  0.2679  0.0219
  520SOL    HW1 2078   1.209   2.091   2.877 -0.6240  0.2781  0.0738
  520SOL    HW2 2079   1.319   2.069   2.976  0.5976 -1.2847  1.6967
  520SOL     MW 2080   1.284   2.121   2.916  0.0587  0.0644  0.2497
  521SOL     OW 2081   1.689   2.067   2.283  0.3121  0.5253 -0.0631
  521SOL    HW1 2082   1.709   2.112   2.196  0.8882 -1.2412 -1.1505
  521SOL    HW2 2083   1.679   1.972   2.260 -0.5512 -0.2408  0.5598
  521SOL     MW 2084   1.690   2.060   2.269  0.2742  0.1912 -0.1244
  522SOL     OW 2085   2.850   2.569   2.168 -0.1277  0.1242  0.0495
  522SOL    HW1 2086   2.928   2.520   2.183  0.8859 -0.9877  0.1378
  522SOL    HW2 2087   2.800   2.571   2.252 -3.0201 -1.1794  2.3033
  522SOL     MW 2088   2.853   2.563   2.181 -0.3756 -0.1945  0.3585
  523SOL     OW 2089   0.871   1.527   2.147  0.1185 -0.1469 -0.3934
  523SOL    HW1 2090   0.860   1.596   2.083  3.0204  0.4244 -0.2794
  523SOL    HW2 2091   0.917   1.458   2.097 -0.7694  0.3091  0.7043
  523SOL     MW 2092   0.876   1.527   2.132  0.3842 -0.0114 -0.2335
  524SOL     OW 2093   0.840   2.410   2.929  1.0221  0.4047 -0.6534
  524SOL    HW1 2094   0.775   2.469   2.892  0.5849 -0.0834 -0.8426
  524SOL    HW2 2095   0.818   2.320   2.897  2.2684  1.2125 -0.3648
  524SOL     MW 2096   0.828   2.406   2.920  1.1289  0.4469 -0.6403
  525SOL     OW 2097   0.389   2.260   2.116 -0.5532 -0.0565  0.2239
  525SOL    HW1 2098   0.348   2.201   2.175 -1.6123  0.6031  1.6309
  525SOL    HW2 2099   0.406   2.212   2.032  1.1056 -0.7910  0.2559
  525SOL     MW 2100   0.386   2.246   2.113 -0.4741 -0.0664  0.4138
  526SOL     OW 2101   0.673   2.045   2.031 -0.1073 -0.3580 -0.3857
  526SOL    HW1 2102   0.717   2.086   1.957  0.7576 -0.2068 -3.3083
  526SOL    HW2 2103   0.641   2.122   2.086 -0.3225  0.2189  1.7336
  526SOL     MW 2104   0.675   2.060   2.028 -0.0216 -0.2619 -0.4917
  527SOL     OW 2105   1.335   1.986   1.999 -0.2781 -0.0953 -0.0491
  527SOL    HW1 2106   1.326   1.957   2.089 -3.0895 -0.3730 -0.1496
  527SOL    HW2 2107   1.389   1.912   1.964 -0.7751 -0.5898 -0.0496
  527SOL     MW 2108   1.341   1.973   2.006 -0.7146 -0.1972 -0.0624
  528SOL     OW 2109   0.625   2.875   2.911  0.2685 -0.1799  0.1811
  528SOL    HW1 2110   0.673   2.957   2.921 -1.9935 -0.1600 -2.1298
  528SOL    HW2 2111   0.585   2.888   2.828 -2.1058 -0.5559  2.3808
  528SOL     MW 2112   0.626   2.887   2.901 -0.3432 -0.2269  0.1664
  529SOL     OW 2113   0.958   2.359   1.888 -0.2365  0.2967  0.3860
  529SOL    HW1 2114   0.936   2.342   1.981 -0.1405 -0.6827  2.0121
  529SOL    HW2 2115   1.016   2.442   1.890  0.9432  0.9995  1.7797
  529SOL     MW 2116   0.963   2.368   1.901 -0.0682  0.2602  0.7844
  530SOL     OW 2117   1.194   2.423   3.034 -0.3083 -0.2538  0.2514
  530SOL    HW1 2118   1.108   2.450   3.065  1.9037 -1.3542 -1.4512
  530SOL    HW2 2119   1.199   2.330   3.020 -1.8006  1.6499 -2.3594
  530SOL     MW 2120   1.183   2.414   3.036 -0.2133 -0.1478 -0.3177
  531SOL     OW 2121   0.952   1.865   2.555 -0.4562 -0.1582  0.2139
  531SOL    HW1 2122   1.014   1.934   2.572  1.0895 -0.1784 -1.6812
  531SOL    HW2 2123   0.934   1.835   2.639  1.1432  0.7186 -4.7449
  531SOL     MW 2124   0.958   1.870   2.569 -0.0412 -0.0452 -0.6904
  532SOL     OW 2125   1.753   0.334   2.828 -0.3666 -0.2317  0.1626
  532SOL    HW1 2126   1.753   0.263   2.765 -1.1300 -0.2763  1.7006
  532SOL    HW2 2127   1.841   0.364   2.825 -0.8292  2.0992 -0.7970
  532SOL     MW 2128   1.764   0.329   2.819 -0.5284  0.0700  0.2389
  533SOL     OW 2129   1.849   2.653   3.035 -0.4522 -0.1369 -0.1159
  533SOL    HW1 2130   1.840   2.570   3.083  0.0168  2.3806 -3.0803
  533SOL    HW2 2131   1.758   2.683   3.022 -1.4574  1.9386  0.6781
  533SOL     MW 2132   1.836   2.646   3.040 -0.5230  0.4691 -0.4022
  534SOL     OW 2133   1.779   2.427   2.531  0.6798  0.7057 -0.6874
  534SOL    HW1 2134   1.747   2.337   2.559 -1.8714 -1.9095 -0.3590
  534SOL    HW2 2135   1.861   2.439   2.581 -0.1621 -1.0213 -1.5061
  534SOL     MW 2136   1.785   2.417   2.542  0.2321  0.1328 -0.7521
  535SOL     OW 2137   1.911   2.408   1.917  0.1102  0.0651 -0.6071
  535SOL    HW1 2138   1.868   2.426   1.835  2.1011  1.7730  1.4943
  535SOL    HW2 2139   2.004   2.408   1.903 -0.4953 -2.7841  0.1108
  535SOL     MW 2140   1.918   2.410   1.904  0.2930 -0.0855 -0.2351
  536SOL     OW 2141   0.511   1.821   2.048  0.8638  0.3286 -1.0526
  536SOL    HW1 2142   0.446   1.797   1.978 -0.9153  0.8509  2.3926
  536SOL    HW2 2143   0.551   1.908   2.034  0.2261  2.3885  0.6043
  536SOL     MW 2144   0.507   1.829   2.037  0.5449  0.6693 -0.3794
  537SOL     OW 2145   1.093   0.181   2.824 -0.2562  0.2082  0.0967
  537SOL    HW1 2146   1.038   0.217   2.896  0.3680 -0.2167 -0.3766
  537SOL    HW2 2147   1.078   0.247   2.751  1.3097  0.8374 -0.8315
  537SOL     MW 2148   1.084   0.195   2.824  0.0327  0.2352 -0.0882
  538SOL     OW 2149   1.409   0.091   3.080  0.5523  0.0002  0.3023
  538SOL    HW1 2150   1.382   0.179   3.114  1.5309 -0.7338  0.3004
  538SOL    HW2 2151   1.331   0.051   3.042 -1.3335  0.0966  0.8424
  538SOL     MW 2152   1.395   0.097   3.079  0.4326 -0.0839  0.3733
  539SOL     OW 2153   0.750   2.815   2.580 -0.0968  0.1800 -0.5061
  539SOL    HW1 2154   0.837   2.853   2.562  1.0046 -0.2077  3.3650
  539SOL    HW2 2155   0.761   2.761   2.660  2.1896 -1.4574  0.9464
  539SOL     MW 2156   0.763   2.813   2.588  0.3502 -0.0872  0.1963
  540SOL     OW 2157   0.362   2.517   2.906  0.1571 -0.6766  0.3566
  540SOL    HW1 2158   0.351   2.565   2.991 -0.7672  1.0929  0.8502
  540SOL    HW2 2159   0.299   2.438   2.915 -3.5734 -2.6312 -2.0618
  540SOL     MW 2160   0.352   2.513   2.918 -0.4571 -0.7010  0.1027
  541SOL     OW 2161   0.182   2.941   2.218  0.4720 -0.5351 -0.5529
  541SOL    HW1 2162   0.157   2.857   2.176 -0.1336  1.6873 -2.2200
  541SOL    HW2 2163   0.227   2.914   2.301 -0.0440  1.9766  0.5636
  541SOL     MW 2164   0.185   2.926   2.223  0.3240  0.0896 -0.6255
  542SOL     OW 2165   1.065   2.302   2.675 -0.4625 -0.5433 -0.1126
  542SOL    HW1 2166   1.039   2.234   2.737  0.3919 -0.3026 -0.2963
  542SOL    HW2 2167   1.079   2.382   2.728 -0.1761  0.8936  0.3049
  542SOL     MW 2168   1.063   2.304   2.690 -0.3120 -0.3220 -0.0818
  543SOL     OW 2169   1.700   2.441   2.832  0.6040  0.0883 -0.5109
  543SOL    HW1 2170   1.689   2.399   2.747 -0.0260  0.3540 -2.5333
  543SOL    HW2 2171   1.712   2.532   2.810  0.9554  1.4373 -0.8735
  543SOL     MW 2172   1.700   2.447   2.818  0.5672  0.3013 -0.8256
  544SOL     OW 2173   0.747   0.146   2.723  0.7742 -0.4758  0.7394
  544SOL    HW1 2174   0.656   0.156   2.711 -0.9904 -0.1222  2.2472
  544SOL    HW2 2175   0.792   0.135   2.640  0.1911 -0.9424  2.2552
  544SOL     MW 2176   0.741   0.146   2.711  0.4644 -0.4907  1.1383
  545SOL     OW 2177   1.475   2.176   2.407 -0.3062  0.3832 -0.2781
  545SOL    HW1 2178   1.443   2.236   2.345  0.5169 -0.8960 -3.3168
  545SOL    HW2 2179   1.560   2.132   2.370  2.3788 -0.4943  0.6652
  545SOL     MW 2180   1.482   2.178   2.394  0.1566  0.0987 -0.5546
  546SOL     OW 2181   2.889   2.002   0.128  0.6358  0.1151  0.2265
  546SOL    HW1 2182   2.882   2.079   0.067  3.0167  0.0767 -0.3445
  546SOL    HW2 2183   2.982   1.981   0.118  0.3285 -1.5874 -0.2716
  546SOL     MW 2184   2.901   2.009   0.118  0.9094 -0.1146  0.0855
  547SOL     OW 2185   0.160   0.107   0.098  0.5016 -0.4697  0.1644
  547SOL    HW1 2186   0.217   0.150   0.038 -3.4025 -3.5997 -0.1216
  547SOL    HW2 2187   0.102   0.054   0.043 -0.5544 -0.9206  1.3461
  547SOL     MW 2188   0.160   0.106   0.083 -0.1528 -0.9422  0.2826
  548SOL     OW 2189   0.330   2.508   0.290  0.3637 -0.2917 -0.6777
  548SOL    HW1 2190   0.320   2.559   0.213 -1.6566 -2.5446  2.9155
  548SOL    HW2 2191   0.246   2.455   0.276 -0.7186 -0.3761  0.4099
  548SOL     MW 2192   0.318   2.508   0.278 -0.0457 -0.6001 -0.0601
  549SOL     OW 2193   0.842   1.934   2.203  0.1578  0.1026  0.2465
  549SOL    HW1 2194   0.785   1.990   2.150  2.2334 -1.0402 -2.8868
  549SOL    HW2 2195   0.793   1.918   2.281 -1.6466 -0.9579  2.3838
  549SOL     MW 2196   0.828   1.939   2.206  0.1936 -0.1881  0.1151
  550SOL     OW 2197   1.826   1.754   2.545  0.3374  0.4423  0.3550
  550SOL    HW1 2198   1.807   1.780   2.455 -2.8152  0.9659 -1.6505
  550SOL    HW2 2199   1.809   1.835   2.596 -1.8777 -0.9607  1.5805
  550SOL     MW 2200   1.821   1.768   2.540 -0.3708  0.3263  0.2521
  551SOL     OW 2201   0.891   2.279   0.245 -0.1034 -0.5284  0.1312
  551SOL    HW1 2202   0.988   2.282   0.227  2.6337 -2.7971 -0.3279
  551SOL    HW2 2203   0.862   2.220   0.178  2.3022 -2.1881 -0.5472
  551SOL     MW 2204   0.900   2.272   0.234  0.5751 -1.0467 -0.0189
  552SOL     OW 2205   1.779   1.789   2.284 -0.0809 -0.1458  0.2057
  552SOL    HW1 2206   1.688   1.756   2.286  1.3747 -0.2720  4.3784
  552SOL    HW2 2207   1.827   1.722   2.245 -2.2257 -2.7359  0.3115
  552SOL     MW 2208   1.773   1.776   2.279 -0.1718 -0.5042  0.7702
  553SOL     OW 2209   1.249   2.243   1.540 -0.0960  0.4557 -0.0378
  553SOL    HW1 2210   1.304   2.160   1.540 -2.6110 -0.2168 -1.2792
  553SOL    HW2 2211   1.315   2.314   1.511 -1.2739 -1.9374 -0.5855
  553SOL     MW 2212   1.265   2.241   1.536 -0.5832  0.0512 -0.2739
  554SOL     OW 2213   0.513   2.927   2.670 -0.6509  0.2042  0.0306
  554SOL    HW1 2214   0.479   2.988   2.603 -0.5789 -1.6086  1.1891
  554SOL    HW2 2215   0.597   2.893   2.629 -1.4427  1.1394 -2.7570
  554SOL     MW 2216   0.520   2.930   2.656 -0.7459  0.0884 -0.1843
  555SOL     OW 2217   0.617   2.441   2.537 -0.4234 -0.1245  0.3110
  555SOL    HW1 2218   0.558   2.365   2.534 -0.8406  0.5705  0.8270
  555SOL    HW2 2219   0.710   2.420   2.531  0.1995 -1.4187 -1.4580
  555SOL     MW 2220   0.621   2.429   2.536 -0.3963 -0.2035  0.1457
  556SOL     OW 2221   1.051   1.917   0.109  0.3090  0.4638  0.0122
  556SOL    HW1 2222   1.073   1.861   0.031  1.5506  3.4844  0.9680
  556SOL    HW2 2223   1.127   1.913   0.165  2.4546 -0.9608 -1.5224
  556SOL     MW 2224   1.064   1.909   0.106  0.7559  0.6744 -0.0642
  557SOL     OW 2225   0.974   2.671   0.494 -0.4066  0.1600  0.1688
  557SOL    HW1 2226   1.033   2.626   0.426 -1.3441 -0.7066 -0.6516
  557SOL    HW2 2227   0.967   2.765   0.462  1.8454  1.5159 -1.2438
  557SOL     MW 2228   0.981   2.678   0.481 -0.2332  0.2246 -0.1258
  558SOL     OW 2229   0.224   2.289   2.975  0.4798  0.1555  0.3514
  558SOL    HW1 2230   0.150   2.262   2.922 -0.2852 -0.5514 -1.6386
  558SOL    HW2 2231   0.169   2.325   3.051 -1.1280  0.6442  1.1293
  558SOL     MW 2232   0.207   2.291   2.978  0.1667  0.1267  0.1915
  559SOL     OW 2233   1.031   2.329   2.161  0.0511  0.6079 -0.3966
  559SOL    HW1 2234   1.128   2.329   2.162 -0.4248  0.2922  2.3992
  559SOL    HW2 2235   1.000   2.261   2.222 -0.9563  3.5832 -0.4975
  559SOL     MW 2236   1.039   2.320   2.169 -0.1446  0.9588 -0.0410
  560SOL     OW 2237   1.946   2.855   0.102  0.2835 -0.4544  0.4955
  560SOL    HW1 2238   2.032   2.886   0.066  1.3430 -0.7182  2.0664
  560SOL    HW2 2239   1.931   2.772   0.050  1.8740 -2.1205 -0.5858
  560SOL     MW 2240   1.956   2.848   0.090  0.6331 -0.7091  0.5601
  561SOL     OW 2241   0.347   2.150   0.098 -0.0956  0.3320  0.2681
  561SOL    HW1 2242   0.294   2.188   0.028 -1.5569 -3.8116 -2.2777
  561SOL    HW2 2243   0.420   2.215   0.114  0.9496  1.0500 -1.1391
  561SOL     MW 2244   0.350   2.163   0.091 -0.1505 -0.1200 -0.2535
  562SOL     OW 2245   0.691   2.213   2.258 -0.3678 -0.1816 -0.0298
  562SOL    HW1 2246   0.662   2.305   2.278 -1.5753 -1.8086 -3.8708
  562SOL    HW2 2247   0.763   2.203   2.317 -1.8534  0.3627  0.8285
  562SOL     MW 2248   0.697   2.224   2.269 -0.7231 -0.3244 -0.4233
  563SOL     OW 2249   1.223   0.432   0.521 -0.6723 -0.1330 -0.4740
  563SOL    HW1 2250   1.211   0.350   0.475 -0.1796 -0.4539  0.1960
  563SOL    HW2 2251   1.186   0.410   0.605  1.4038 -0.7821  3.2799
  563SOL     MW 2252   1.217   0.418   0.526 -0.3334 -0.2610  0.1097
  564SOL     OW 2253   1.086   2.614   2.388 -0.9776 -0.8504 -0.0101
  564SOL    HW1 2254   1.092   2.688   2.323 -2.5753  3.4760 -1.5883
  564SOL    HW2 2255   1.094   2.666   2.469  0.7354 -1.8871 -2.6058
  564SOL     MW 2256   1.088   2.631   2.390 -0.9624 -0.4163 -0.5608
  565SOL     OW 2257   2.744   2.792   2.570  0.1341  0.9239 -0.2976
  565SOL    HW1 2258   2.803   2.831   2.504  0.6782 -0.1476 -0.9515
  565SOL    HW2 2259   2.726   2.707   2.528 -0.8339 -1.2868 -2.2602
  565SOL     MW 2260   2.750   2.786   2.556  0.0782  0.4908 -0.6428
  566SOL     OW 2261   2.166   1.898   2.374 -0.0772  0.0049 -0.9639
  566SOL    HW1 2262   2.176   1.870   2.283  0.6456  1.3445 -1.1284
  566SOL    HW2 2263   2.214   1.977   2.387  1.1828 -1.3628 -2.3669
  566SOL     MW 2264   2.173   1.905   2.364  0.1844  0.0012 -1.1707
  567SOL     OW 2265   1.195   3.006  -0.001  0.2224  0.3744  0.9993
  567SOL    HW1 2266   1.167   3.004   0.090  1.1118 -1.0294 -1.2363
  567SOL    HW2 2267   1.236   2.917  -0.028 -0.3789 -0.5649  1.7562
  567SOL     MW 2268   1.197   2.994   0.008  0.2604  0.0652  0.8042
  568SOL     OW 2269   1.609   2.049   2.828 -0.0645 -0.2663  0.6162
  568SOL    HW1 2270   1.637   2.122   2.889  2.1356 -0.5688  0.3606
  568SOL    HW2 2271   1.691   2.008   2.807  0.4270 -1.8062  1.4208
  568SOL     MW 2272   1.624   2.053   2.833  0.2906 -0.5094  0.6887
  569SOL     OW 2273   0.122   2.314   2.460 -0.5383  0.3191 -0.3079
  569SOL    HW1 2274   0.049   2.329   2.398 -0.6990 -0.6173 -1.5629
  569SOL    HW2 2275   0.162   2.400   2.467  0.9426  0.3131 -0.4847
  569SOL     MW 2276   0.118   2.327   2.453 -0.3641  0.1948 -0.4968
  570SOL     OW 2277   1.479   0.344   0.513  0.0072  0.6262  0.4171
  570SOL    HW1 2278   1.388   0.361   0.522 -1.6945  0.5395 -1.2888
  570SOL    HW2 2279   1.524   0.376   0.591 -1.4039 -0.0378  1.6379
  570SOL     MW 2280   1.473   0.351   0.524 -0.4035  0.5271  0.3531
  571SOL     OW 2281   1.331   2.347   2.136 -0.0665  0.0889  0.1862
  571SOL    HW1 2282   1.395   2.389   2.192  2.2651 -1.3751 -2.6977
  571SOL    HW2 2283   1.384   2.283   2.083  0.0298 -1.5022  1.2390
  571SOL     MW 2284   1.347   2.344   2.136  0.2539 -0.3142 -0.0554
  572SOL     OW 2285   0.968   2.569   0.068  0.1594  0.4105 -0.2826
  572SOL    HW1 2286   0.940   2.656   0.056  1.0119 -2.0485  1.6802
  572SOL    HW2 2287   0.892   2.516   0.064  2.8214 -0.5554  0.9295
  572SOL     MW 2288   0.955   2.573   0.066  0.6231 -0.0414  0.1363
  573SOL     OW 2289   1.187   2.269   0.210 -0.0428 -0.2971 -0.0143
  573SOL    HW1 2290   1.276   2.262   0.172 -0.1580  4.4891 -1.5746
  573SOL    HW2 2291   1.171   2.362   0.239 -0.5501 -0.2563 -5.2214
  573SOL     MW 2292   1.196   2.280   0.209 -0.1249  0.3398 -0.9072
  574SOL     OW 2293   1.132   2.535   0.284  0.3601  0.1086 -0.2547
  574SOL    HW1 2294   1.206   2.593   0.261 -1.3823 -3.0352  1.7891
  574SOL    HW2 2295   1.078   2.542   0.203 -1.7748  1.9711 -2.1359
  574SOL     MW 2296   1.135   2.543   0.270 -0.1515 -0.0604 -0.2332
  575SOL     OW 2297   3.029   2.228   1.717 -0.3652 -0.1788 -0.4841
  575SOL    HW1 2298   3.073   2.150   1.675  1.9166  1.6794 -1.3852
  575SOL    HW2 2299   3.107   2.274   1.741 -0.2462 -1.1162  1.4768
  575SOL     MW 2300   3.045   2.224   1.715 -0.0484 -0.0573 -0.3443
  576SOL     OW 2301   2.855   1.860   2.020 -0.1440  0.1307 -0.4542
  576SOL    HW1 2302   2.889   1.930   1.965 -1.2988 -1.0274  1.8863
  576SOL    HW2 2303   2.767   1.843   1.988  0.1959 -1.9319  2.6810
  576SOL     MW 2304   2.848   1.867   2.009 -0.2515 -0.2942  0.2683
  577SOL     OW 2305   2.071   0.254   0.093  0.2551  0.2733 -0.3337
  577SOL    HW1 2306   2.007   0.246   0.026  0.9959  0.7888  1.5751
  577SOL    HW2 2307   2.046   0.187   0.150  1.7416  3.2564  1.3945
  577SOL     MW 2308   2.059   0.244   0.092  0.5490  0.7349  0.1462
  578SOL     OW 2309   1.933   2.061   2.473  0.2136  0.1963 -0.5609
  578SOL    HW1 2310   1.845   2.035   2.441  3.0336  0.9594  1.8515
  578SOL    HW2 2311   1.990   1.989   2.438  1.2699 -0.9866  1.2018
  578SOL     MW 2312   1.929   2.048   2.464  0.7250  0.1409 -0.0100
  579SOL     OW 2313   0.908   2.418   2.489  0.1977 -0.0599  0.2685
  579SOL    HW1 2314   0.955   2.373   2.557  0.3623  3.0208 -1.7949
  579SOL    HW2 2315   0.975   2.481   2.440 -1.0986  2.6870  0.9857
  579SOL     MW 2316   0.923   2.420   2.492  0.0484  0.7090  0.0909
  580SOL     OW 2317   0.940   2.841   0.016  0.2807 -0.0685 -0.0175
  580SOL    HW1 2318   1.034   2.863   0.029 -0.2998  0.3484  0.0615
  580SOL    HW2 2319   0.941   2.820  -0.075  0.8767 -1.7437  0.4549
  580SOL     MW 2320   0.953   2.841   0.005  0.2827 -0.2345  0.0552
  581SOL     OW 2321   1.171   2.476   1.708  0.2879 -0.9487  0.3223
  581SOL    HW1 2322   1.231   2.499   1.786  1.4911  2.4785  0.9670
  581SOL    HW2 2323   1.194   2.390   1.681  1.3001  0.8047  0.9426
  581SOL     MW 2324   1.182   2.468   1.715  0.5802 -0.2651  0.4892
  582SOL     OW 2325   0.047   2.852   2.749 -0.5801  0.4549 -0.4966
  582SOL    HW1 2326  -0.001   2.934   2.723  0.2659 -1.2216 -1.8117
  582SOL    HW2 2327   0.137   2.881   2.772 -0.7666  3.2050  2.6191
  582SOL     MW 2328   0.052   2.867   2.749 -0.4930  0.5965 -0.2590
  583SOL     OW 2329   2.015   2.430   2.681  0.1589 -0.0534 -0.0281
  583SOL    HW1 2330   2.077   2.417   2.609  0.0844  0.4375  1.9342
  583SOL    HW2 2331   1.999   2.341   2.707 -0.4630  1.7457  1.8170
  583SOL     MW 2332   2.021   2.417   2.675  0.0670  0.2487  0.4743
  584SOL     OW 2333   0.071   1.895   2.191  0.1050 -0.1730 -0.9350
  584SOL    HW1 2334   0.082   1.830   2.268  0.7276  1.2429  3.3907
  584SOL    HW2 2335   0.132   1.969   2.219  1.3325  1.0688 -0.0326
  584SOL     MW 2336   0.081   1.896   2.205  0.3491  0.1776 -0.2452
  585SOL     OW 2337   1.578   2.638   0.130  0.0561  0.2952 -0.5080
  585SOL    HW1 2338   1.545   2.573   0.062  0.7823 -1.8356  0.0540
  585SOL    HW2 2339   1.514   2.663   0.194 -0.5361 -0.6648  0.1865
  585SOL     MW 2340   1.565   2.633   0.129  0.0737 -0.1126 -0.3422
  586SOL     OW 2341   1.385   2.792   2.577 -0.7018 -0.1677 -0.0521
  586SOL    HW1 2342   1.403   2.765   2.481  0.4458  1.6666 -1.0203
  586SOL    HW2 2343   1.363   2.879   2.568  0.1218 -2.5353  1.5516
  586SOL     MW 2344   1.384   2.800   2.563 -0.4417 -0.2380  0.0318
  587SOL     OW 2345   1.390   1.476   2.155  0.0514  0.1393  0.4938
  587SOL    HW1 2346   1.321   1.413   2.186 -1.3303  0.3722  1.0541
  587SOL    HW2 2347   1.443   1.440   2.079  1.3349  0.0846  1.8425
  587SOL     MW 2348   1.388   1.463   2.149  0.0385  0.1628  0.7456
  588SOL     OW 2349   1.375   2.012   2.627 -0.1653 -0.3631 -0.4652
  588SOL    HW1 2350   1.368   1.913   2.638 -3.2085 -2.4112  0.7700
  588SOL    HW2 2351   1.389   2.050   2.714 -0.0062 -2.3134  0.2097
  588SOL     MW 2352   1.376   2.004   2.640 -0.5458 -0.8906 -0.2132
  589SOL     OW 2353   1.410   1.988   0.050 -0.4389 -0.8299  0.4601
  589SOL    HW1 2354   1.434   2.080   0.059 -0.4534 -0.1564 -0.9448
  589SOL    HW2 2355   1.356   1.967   0.127 -0.2090  1.2707 -1.0581
  589SOL     MW 2356   1.406   1.997   0.061 -0.4105 -0.4639  0.0745
  590SOL     OW 2357   0.491   2.730   2.158  0.0375 -0.7547 -0.0552
  590SOL    HW1 2358   0.487   2.717   2.059  1.1222  0.0846 -0.3143
  590SOL    HW2 2359   0.583   2.737   2.192 -0.3334 -1.3308  0.5298
  590SOL     MW 2360   0.503   2.729   2.150  0.1316 -0.7200 -0.0122
  591SOL     OW 2361   2.298   0.719   0.059 -0.2184  0.1117  0.7150
  591SOL    HW1 2362   2.212   0.743   0.019 -2.5012  3.4732 -2.6790
  591SOL    HW2 2363   2.365   0.726  -0.013  1.8638 -0.9753  0.8668
  591SOL     MW 2364   2.296   0.723   0.044 -0.2449  0.4118  0.2872
  592SOL     OW 2365   1.754   2.910   0.790  0.1627  0.0131  0.3665
  592SOL    HW1 2366   1.775   2.959   0.707  0.8866 -1.1300  1.6363
  592SOL    HW2 2367   1.798   2.826   0.791  0.5945 -1.2972  1.9165
  592SOL     MW 2368   1.763   2.905   0.779  0.3151 -0.3106  0.7385
  593SOL     OW 2369   1.961   0.668   0.819 -0.0725 -0.1683  0.2175
  593SOL    HW1 2370   1.870   0.673   0.782  0.1208 -1.6532 -0.0427
  593SOL    HW2 2371   1.975   0.576   0.801 -0.0199  1.3582 -2.3434
  593SOL     MW 2372   1.951   0.657   0.811 -0.0401 -0.1628 -0.1547
  594SOL     OW 2373   2.772   1.062   1.399 -0.2942  0.0296  0.2110
  594SOL    HW1 2374   2.864   1.068   1.383 -0.7071  0.9273 -0.4454
  594SOL    HW2 2375   2.736   1.033   1.315  2.9278 -4.7210  3.4403
  594SOL     MW 2376   2.780   1.059   1.386  0.0765 -0.4788  0.5504
  595SOL     OW 2377   0.465   0.904   0.840 -0.1520  0.0348  0.2372
  595SOL    HW1 2378   0.489   0.987   0.799  0.7326 -1.3882  1.0781
  595SOL    HW2 2379   0.438   0.933   0.924 -2.7866  0.0042  0.0619
  595SOL     MW 2380   0.465   0.919   0.846 -0.3829 -0.1570  0.3250
  596SOL     OW 2381   2.471   1.346   0.525  0.1000 -0.1565  0.0670
  596SOL    HW1 2382   2.541   1.411   0.507 -0.2538  3.6893 -1.0098
  596SOL    HW2 2383   2.486   1.314   0.614  0.1705 -0.8351  2.1206
  596SOL     MW 2384   2.482   1.351   0.535  0.0626  0.2614  0.1959
  597SOL     OW 2385   2.204   0.669   1.598 -0.0600 -0.3395 -0.6691
  597SOL    HW1 2386   2.247   0.622   1.665 -3.1170 -0.9278 -0.1938
  597SOL    HW2 2387   2.135   0.599   1.572  1.2554  0.2051 -0.8476
  597SOL     MW 2388   2.201   0.654   1.603 -0.2898 -0.3453 -0.6299
  598SOL     OW 2389   2.599   1.036   2.865  0.1626 -0.4302 -0.2752
  598SOL    HW1 2390   2.603   0.944   2.842  1.7389 -0.6001  3.3781
  598SOL    HW2 2391   2.683   1.067   2.830  1.4396 -3.3637  0.0035
  598SOL     MW 2392   2.610   1.028   2.857  0.5390 -0.8396  0.2436
  599SOL     OW 2393   2.959   0.431   2.142  0.4701 -0.1650  0.0287
  599SOL    HW1 2394   2.958   0.449   2.232 -0.7824  1.9592  1.5369
  599SOL    HW2 2395   3.005   0.503   2.102 -1.7053  0.5840  0.5179
  599SOL     MW 2396   2.965   0.443   2.148  0.0178  0.2141  0.2922
  600SOL     OW 2397   1.853   1.620   0.908 -0.4068 -0.0698  0.1165
  600SOL    HW1 2398   1.924   1.645   0.965  0.8824  0.4180 -1.6266
  600SOL    HW2 2399   1.803   1.702   0.889 -0.5392  1.6504 -2.2905
  600SOL     MW 2400   1.856   1.634   0.913 -0.2542  0.2215 -0.4311
  601SOL     OW 2401   2.545   0.716   0.808 -0.1277 -0.3929 -0.1265
  601SOL    HW1 2402   2.538   0.713   0.904 -0.7646 -1.3970  0.5599
  601SOL    HW2 2403   2.467   0.660   0.776 -2.9339 -1.2348 -1.5393
  601SOL     MW 2404   2.533   0.708   0.816 -0.5820 -0.6365 -0.2223
  602SOL     OW 2405   2.313   1.920   0.786 -0.1842  0.1757 -0.3504
  602SOL    HW1 2406   2.281   1.829   0.770  1.6836 -0.7655 -0.0413
  602SOL    HW2 2407   2.245   1.970   0.748  0.9346 -2.3533 -0.1839
  602SOL     MW 2408   2.300   1.914   0.779  0.2098 -0.2822 -0.2876
  603SOL     OW 2409   2.964   1.341   1.983 -0.0457  0.1886  0.1456
  603SOL    HW1 2410   2.903   1.340   2.052 -0.4162 -0.6853 -0.9286
  603SOL    HW2 2411   3.020   1.261   1.978 -0.7447 -0.0904 -0.1864
  603SOL     MW 2412   2.963   1.331   1.992 -0.1868  0.0365 -0.0399
  604SOL     OW 2413   2.043   1.459   0.443  0.0160 -0.3477  0.0336
  604SOL    HW1 2414   2.066   1.372   0.478 -0.3710  0.8835 -1.0851
  604SOL    HW2 2415   1.969   1.503   0.498 -2.5646 -0.5827  0.9750
  604SOL     MW 2416   2.036   1.453   0.455 -0.3755 -0.2163  0.0102
  605SOL     OW 2417   2.476   1.471   0.880 -0.2084 -0.6252 -0.0976
  605SOL    HW1 2418   2.469   1.537   0.808 -3.0505 -1.9314  1.3365
  605SOL    HW2 2419   2.488   1.383   0.840  0.4068  0.6694  0.9609
  605SOL     MW 2420   2.476   1.468   0.865 -0.5022 -0.6267  0.2313
  606SOL     OW 2421   2.604   1.815   1.913  0.3833 -0.1265 -0.6488
  606SOL    HW1 2422   2.509   1.803   1.924  1.5795 -0.5371 -2.1382
  606SOL    HW2 2423   2.632   1.730   1.874  0.0379  0.9741  0.8386
  606SOL     MW 2424   2.595   1.803   1.910  0.4955 -0.0355 -0.6490
  607SOL     OW 2425   2.387   1.007   3.056 -0.0233  0.5424  0.0860
  607SOL    HW1 2426   2.470   1.031   3.021 -1.0406  0.6733  3.2677
  607SOL    HW2 2427   2.402   0.977   3.145 -0.6703  0.5940 -0.5515
  607SOL     MW 2428   2.400   1.006   3.063 -0.2429  0.5665  0.4217
  608SOL     OW 2429   1.864   0.248   0.536  0.4038 -0.1595 -0.0571
  608SOL    HW1 2430   1.868   0.310   0.460 -0.4652  0.2785  0.5663
  608SOL    HW2 2431   1.815   0.164   0.531 -0.6394  0.0107  4.0122
  608SOL     MW 2432   1.858   0.245   0.525  0.1515 -0.0793  0.5621
  609SOL     OW 2433   2.132   1.914   3.028 -0.2525 -0.1215 -0.6695
  609SOL    HW1 2434   2.060   1.862   2.979  1.4639 -1.8903  2.4136
  609SOL    HW2 2435   2.111   1.907   3.120 -1.0937 -0.7856  0.4015
  609SOL     MW 2436   2.120   1.906   3.034 -0.1370 -0.4425 -0.1214
  610SOL     OW 2437   1.779   0.922   1.212 -0.1182 -0.0169  0.2508
  610SOL    HW1 2438   1.813   0.840   1.167  1.0389 -0.6776  3.4689
  610SOL    HW2 2439   1.683   0.919   1.197  1.4753  1.2377  1.8650
  610SOL     MW 2440   1.771   0.910   1.204  0.2447  0.0615  0.8884
  611SOL     OW 2441   2.475   1.667   0.664  0.9479 -0.1824 -0.5244
  611SOL    HW1 2442   2.537   1.633   0.600 -0.0886 -1.7841 -2.7961
  611SOL    HW2 2443   2.389   1.641   0.641  2.2768  4.2501 -0.4985
  611SOL     MW 2444   2.472   1.659   0.652  0.9864  0.1911 -0.8207
  612SOL     OW 2445   2.907   2.962   0.333  0.4257  0.3854  0.1228
  612SOL    HW1 2446   2.923   2.969   0.426 -0.1033 -1.0362 -3.2719
  612SOL    HW2 2447   2.976   2.902   0.316 -1.5916  0.4942  1.3928
  612SOL     MW 2448   2.918   2.955   0.343  0.0897  0.2122 -0.1576
  613SOL     OW 2449   1.519   1.086   0.974  0.0594  0.9703  0.3491
  613SOL    HW1 2450   1.591   1.141   0.951  0.7607 -1.3687 -0.6200
  613SOL    HW2 2451   1.543   1.062   1.066  1.0187 -1.9908  1.7935
  613SOL     MW 2452   1.531   1.090   0.983  0.2785  0.2710  0.4118
  614SOL     OW 2453   2.028   0.479   1.434  0.2954 -0.3302  0.4111
  614SOL    HW1 2454   2.020   0.420   1.504  0.1115  0.4354  0.0962
  614SOL    HW2 2455   1.943   0.483   1.387  1.5245 -1.0057 -0.4019
  614SOL     MW 2456   2.016   0.472   1.437  0.4333 -0.3183  0.2623
  615SOL     OW 2457   2.414   0.713   0.294  0.5267 -0.1184  0.1468
  615SOL    HW1 2458   2.502   0.663   0.296  0.4996  1.2022  0.7379
  615SOL    HW2 2459   2.375   0.703   0.205  1.8977  2.3863 -1.6072
  615SOL     MW 2460   2.420   0.705   0.282  0.7040  0.3863 -0.0066
  616SOL     OW 2461   2.498   0.435   1.614  0.2095 -0.3781  0.1777
  616SOL    HW1 2462   2.571   0.385   1.579 -1.7290  1.0722 -2.5518
  616SOL    HW2 2463   2.457   0.471   1.534  0.5688  0.9654 -0.3887
  616SOL     MW 2464   2.502   0.433   1.599  0.0012 -0.0095 -0.2572
  617SOL     OW 2465   2.870   0.606   1.820  0.3488 -0.2041  1.0666
  617SOL    HW1 2466   2.796   0.615   1.880 -0.5743 -2.2487 -1.8048
  617SOL    HW2 2467   2.865   0.513   1.792 -2.0897 -1.4874 -1.2347
  617SOL     MW 2468   2.859   0.595   1.824 -0.0947 -0.6432  0.3841
  618SOL     OW 2469   2.745   0.322   2.022 -0.0860 -0.6911 -0.1312
  618SOL    HW1 2470   2.709   0.412   2.008 -0.1659  1.5568 -0.6078
  618SOL    HW2 2471   2.834   0.335   2.060  2.0735  1.2554  1.3126
  618SOL     MW 2472   2.752   0.335   2.025  0.1884 -0.1377 -0.0036
  619SOL     OW 2473   2.641   0.728   0.105  0.1618  0.1424  0.0014
  619SOL    HW1 2474   2.705   0.804   0.117  1.3285  2.2164  1.6738
  619SOL    HW2 2475   2.660   0.668   0.174  0.2785 -0.6433 -1.5009
  619SOL     MW 2476   2.652   0.730   0.116  0.3311  0.3124  0.0239
  620SOL     OW 2477   2.241   1.081   0.933  0.0613 -0.3420 -0.4153
  620SOL    HW1 2478   2.323   1.046   0.900  0.1457 -0.2696 -0.0383
  620SOL    HW2 2479   2.172   1.024   0.888 -2.5721  0.4073  1.7590
  620SOL     MW 2480   2.243   1.069   0.923 -0.2750 -0.2336 -0.0786
  621SOL     OW 2481   1.471   2.212   1.935 -0.5162 -0.2366  0.4512
  621SOL    HW1 2482   1.430   2.123   1.953 -0.4865  1.3746 -1.1578
  621SOL    HW2 2483   1.561   2.217   1.979 -0.9777  0.7244  1.5137
  621SOL     MW 2484   1.477   2.201   1.943 -0.5732  0.1028  0.3791
  622SOL     OW 2485   2.649   0.252   0.285 -0.1378 -0.3980 -0.4568
  622SOL    HW1 2486   2.739   0.279   0.247  1.7791 -1.0448  0.0799
  622SOL    HW2 2487   2.661   0.158   0.291  0.3794  0.7965 -1.0717
  622SOL     MW 2488   2.663   0.243   0.281  0.1833 -0.3257 -0.4671
  623SOL     OW 2489   2.396   2.764   0.889  0.2609 -0.0570 -0.3044
  623SOL    HW1 2490   2.461   2.832   0.901 -1.3838 -3.2262 -2.0881
  623SOL    HW2 2491   2.325   2.792   0.951 -0.0692  2.3180  2.4266
  623SOL     MW 2492   2.395   2.777   0.899  0.0003 -0.1618 -0.1794
  624SOL     OW 2493   2.168   1.596   3.040 -0.0681 -0.3874  0.0592
  624SOL    HW1 2494   2.084   1.556   3.035 -0.1907  3.3413  1.1487
  624SOL    HW2 2495   2.164   1.689   3.013 -2.0337  2.6144 -0.8813
  624SOL     MW 2496   2.156   1.603   3.036 -0.3436  0.5006  0.0789
  625SOL     OW 2497   2.262   1.896   1.040  0.1233 -0.0265  0.2484
  625SOL    HW1 2498   2.315   1.833   1.086 -2.6420  1.3648  0.3575
  625SOL    HW2 2499   2.279   1.881   0.947  0.6374 -0.4992  0.1840
  625SOL     MW 2500   2.271   1.886   1.034 -0.1737  0.0947  0.2543
  626SOL     OW 2501   0.134   1.795   2.430 -0.5545 -0.3433 -0.4409
  626SOL    HW1 2502   0.106   1.721   2.479 -0.4205  0.7651 -1.0692
  626SOL    HW2 2503   0.105   1.875   2.478 -1.0883 -0.3432  2.6423
  626SOL     MW 2504   0.127   1.796   2.443 -0.6072 -0.1970 -0.1170
  627SOL     OW 2505   2.490   0.831   2.573 -0.2360  0.3170  0.2466
  627SOL    HW1 2506   2.406   0.875   2.585 -1.0463  1.0514  3.0186
  627SOL    HW2 2507   2.481   0.778   2.490 -0.7330  0.1226 -0.5990
  627SOL     MW 2508   2.478   0.830   2.563 -0.4085  0.3882  0.5008
  628SOL     OW 2509   2.260   1.367   1.311  0.3665 -0.1331 -0.1307
  628SOL    HW1 2510   2.225   1.289   1.273 -1.5029  0.8706 -2.4021
  628SOL    HW2 2511   2.324   1.405   1.246  1.4443  1.0320  0.2572
  628SOL     MW 2512   2.264   1.361   1.298  0.2621  0.1531 -0.3792
  629SOL     OW 2513   1.764   0.523   1.287  0.1010  0.5080  0.1536
  629SOL    HW1 2514   1.822   0.567   1.219  0.2900 -0.7127 -0.8926
  629SOL    HW2 2515   1.677   0.518   1.253 -0.3310  2.2239 -1.7660
  629SOL     MW 2516   1.760   0.528   1.274  0.0689  0.5733 -0.2377
  630SOL     OW 2517   2.398   1.874   2.998  0.1613 -0.2687  0.3256
  630SOL    HW1 2518   2.438   1.960   2.972  0.4025  2.4615  0.1342
  630SOL    HW2 2519   2.303   1.879   3.000  0.0797 -2.1211  1.4284
  630SOL     MW 2520   2.391   1.886   2.995  0.1824 -0.1529  0.4459
  631SOL     OW 2521   2.093   1.715   1.530  0.2675 -0.1579 -0.0417
  631SOL    HW1 2522   2.071   1.635   1.578  0.0572  0.2674 -0.6871
  631SOL    HW2 2523   2.016   1.771   1.527  2.9231  0.1596 -0.7011
  631SOL     MW 2524   2.080   1.712   1.536  0.5901 -0.0599 -0.2138
  632SOL     OW 2525   0.276   1.932   1.501 -0.0346 -0.5160  0.0703
  632SOL    HW1 2526   0.191   1.940   1.545  3.8175  0.7538 -0.6454
  632SOL    HW2 2527   0.274   1.838   1.491 -0.2721 -0.1178  1.6892
  632SOL     MW 2528   0.264   1.921   1.505  0.4423 -0.2959  0.1895
  633SOL     OW 2529   2.636   0.533   0.317 -0.0042 -0.2181  0.8298
  633SOL    HW1 2530   2.668   0.567   0.402  0.9169  0.5824  0.4123
  633SOL    HW2 2531   2.651   0.441   0.325 -2.1619  2.5711  3.2302
  633SOL     MW 2532   2.642   0.526   0.329 -0.1673  0.2555  1.0915
  634SOL     OW 2533   2.667   3.035   0.630 -0.2811  0.4429  0.3075
  634SOL    HW1 2534   2.687   3.130   0.639  1.0223 -0.5176  0.0930
  634SOL    HW2 2535   2.637   3.027   0.538  2.4183 -2.8478  0.2488
  634SOL     MW 2536   2.666   3.046   0.619  0.2471 -0.1180  0.2714
  635SOL     OW 2537   2.628   0.102   1.892 -0.0939  0.0190 -0.4275
  635SOL    HW1 2538   2.687   0.052   1.828  0.5711 -2.1017  0.7232
  635SOL    HW2 2539   2.669   0.184   1.936 -0.8905 -1.9526  0.5728
  635SOL     MW 2540   2.641   0.106   1.889 -0.1113 -0.5210 -0.1437
  636SOL     OW 2541   2.726   1.612   0.880 -0.5433  0.7507 -0.0170
  636SOL    HW1 2542   2.677   1.529   0.902 -0.5939  0.0001 -2.3134
  636SOL    HW2 2543   2.683   1.683   0.923 -0.5949  0.9525 -2.1043
  636SOL     MW 2544   2.714   1.610   0.889 -0.5568  0.6783 -0.5954
  637SOL     OW 2545   2.882   1.532   0.638  0.1059  0.2362  0.0225
  637SOL    HW1 2546   2.948   1.603   0.619  0.6345 -0.5143 -0.8982
  637SOL    HW2 2547   2.843   1.551   0.724 -1.0262 -1.0712  0.7567
  637SOL     MW 2548   2.885   1.544   0.647  0.0263 -0.0353 -0.0021
  638SOL     OW 2549   2.764   0.496   0.566  0.5378 -0.1088  0.7856
  638SOL    HW1 2550   2.833   0.546   0.524 -0.0612  0.2188  1.1709
  638SOL    HW2 2551   2.755   0.528   0.653  2.0331  1.9436 -1.2856
  638SOL     MW 2552   2.772   0.507   0.572  0.6561  0.2052  0.5632
  639SOL     OW 2553   1.761   3.093   0.535 -0.3365 -0.1322  0.1570
  639SOL    HW1 2554   1.666   3.092   0.515  1.4709 -3.1266  2.2456
  639SOL    HW2 2555   1.796   3.009   0.498  2.2448  1.7496  0.2102
  639SOL     MW 2556   1.753   3.082   0.527  0.2426 -0.2790  0.4396
  640SOL     OW 2557   0.342   1.334   0.106 -0.3472 -0.0377  0.3486
  640SOL    HW1 2558   0.380   1.331   0.019 -1.6032  2.2409  1.1946
  640SOL    HW2 2559   0.326   1.236   0.126 -3.3156  0.5449  0.7280
  640SOL     MW 2560   0.345   1.321   0.097 -0.9045  0.3398  0.5102
  641SOL     OW 2561   2.145   0.411   0.372 -1.0360 -0.4080  0.3557
  641SOL    HW1 2562   2.183   0.396   0.284 -0.5690 -1.2238 -0.9770
  641SOL    HW2 2563   2.187   0.345   0.427 -2.0878  1.7534  0.1241
  641SOL     MW 2564   2.156   0.400   0.367 -1.1132 -0.2305  0.1493
  642SOL     OW 2565   0.067   0.057   0.534 -0.3587  0.5118  0.6174
  642SOL    HW1 2566   0.028   0.139   0.518 -3.2947  1.5392  1.5566
  642SOL    HW2 2567  -0.010   0.025   0.584 -1.4839  1.1770  0.2846
  642SOL     MW 2568   0.051   0.064   0.538 -0.8945  0.7351  0.6974
  643SOL     OW 2569   2.061   0.314   1.661 -0.2456 -0.3175 -1.0422
  643SOL    HW1 2570   2.005   0.272   1.722  0.0572 -0.0663 -1.3720
  643SOL    HW2 2571   2.080   0.250   1.596  3.1884  0.4275 -0.8518
  643SOL     MW 2572   2.056   0.300   1.661  0.2474 -0.1861 -1.0606
  644SOL     OW 2573   2.682   1.892   0.992 -0.1032  0.3303 -0.1109
  644SOL    HW1 2574   2.651   1.836   1.066  0.3718 -1.9044  1.5322
  644SOL    HW2 2575   2.607   1.932   0.953  0.9212 -0.3832  1.2838
  644SOL     MW 2576   2.668   1.890   0.997  0.0946 -0.0586  0.2899
  645SOL     OW 2577   2.838   0.825   0.708 -0.0785  0.3412 -0.4671
  645SOL    HW1 2578   2.913   0.774   0.730  0.0278 -0.2904  4.3746
  645SOL    HW2 2579   2.766   0.779   0.757 -0.8360 -1.0190 -2.0594
  645SOL     MW 2580   2.838   0.813   0.717 -0.1644  0.0784 -0.0384
  646SOL     OW 2581   0.110   2.289   0.847  0.2360 -0.4644 -0.2081
  646SOL    HW1 2582   0.145   2.202   0.858  1.8459  0.2266 -3.1666
  646SOL    HW2 2583   0.073   2.284   0.759  2.0954 -0.5656  0.9749
  646SOL     MW 2584   0.109   2.277   0.837  0.6938 -0.3866 -0.4423
  647SOL     OW 2585   2.717   0.510   3.019  0.3926 -0.0960  0.0027
  647SOL    HW1 2586   2.665   0.435   3.042 -0.7674  0.2775  1.2896
  647SOL    HW2 2587   2.735   0.563   3.095 -2.1278 -0.1452  0.3138
  647SOL     MW 2588   2.712   0.507   3.032 -0.0930 -0.0532  0.2136
  648SOL     OW 2589   2.264   0.699   1.096 -0.3705 -0.2506  0.0750
  648SOL    HW1 2590   2.247   0.621   1.156  2.5974 -2.4295  1.1538
  648SOL    HW2 2591   2.246   0.782   1.143 -4.2680 -0.6659  0.9834
  648SOL     MW 2592   2.259   0.700   1.110 -0.4932 -0.5929  0.3372
  649SOL     OW 2593   2.441   2.714   1.238  0.1640 -0.2483 -0.3102
  649SOL    HW1 2594   2.523   2.761   1.265  1.6779  0.4573  1.1865
  649SOL    HW2 2595   2.465   2.634   1.191 -0.2527 -1.0290  3.1533
  649SOL     MW 2596   2.455   2.709   1.235  0.3088 -0.2582  0.3442
  650SOL     OW 2597   2.766   0.221   0.667 -0.1630  0.0975  0.3151
  650SOL    HW1 2598   2.747   0.314   0.655  1.0937 -0.2129 -2.8099
  650SOL    HW2 2599   2.853   0.219   0.622 -0.3139 -0.6371 -0.9041
  650SOL     MW 2600   2.775   0.233   0.660 -0.0171 -0.0404 -0.2581
  651SOL     OW 2601   0.022   0.460   1.019 -0.0289  0.1841 -0.0937
  651SOL    HW1 2602   0.090   0.494   0.956 -0.1771 -1.9589 -1.4311
  651SOL    HW2 2603  -0.041   0.535   1.038 -1.8732 -0.6210  0.6143
  651SOL     MW 2604   0.023   0.474   1.013 -0.2918 -0.2049 -0.1768
  652SOL     OW 2605   2.352   1.405   3.002  0.2333  0.0727  0.3142
  652SOL    HW1 2606   2.403   1.419   2.921  2.6643 -1.1274  0.8125
  652SOL    HW2 2607   2.290   1.482   3.007  2.4697 -1.0285 -1.3862
  652SOL     MW 2608   2.351   1.417   2.992  0.8491 -0.2310  0.1556
  653SOL     OW 2609   1.815   0.391   0.299  0.6649 -0.2932 -0.0120
  653SOL    HW1 2610   1.811   0.307   0.258 -0.9627  0.9811 -2.2110
  653SOL    HW2 2611   1.885   0.430   0.246  1.3324 -1.0563 -0.4420
  653SOL     MW 2612   1.824   0.385   0.287  0.5383 -0.2257 -0.3589
  654SOL     OW 2613   2.426   0.965   0.757  0.5087  0.6608  0.5120
  654SOL    HW1 2614   2.359   0.959   0.682  1.4068 -1.0623 -1.0147
  654SOL    HW2 2615   2.472   0.879   0.771 -2.1868  0.5126  1.6153
  654SOL     MW 2616   2.423   0.953   0.749  0.2715  0.4139  0.4562
  655SOL     OW 2617   2.911   0.883   0.414 -0.0268 -0.1450  0.6687
  655SOL    HW1 2618   2.888   0.918   0.500 -1.7186 -1.4610  0.8207
  655SOL    HW2 2619   2.935   0.792   0.436 -0.8368 -1.7561  0.7742
  655SOL     MW 2620   2.911   0.876   0.428 -0.3569 -0.5312  0.7027
  656SOL     OW 2621   1.791   2.637   1.401  0.4530 -0.3897  0.4637
  656SOL    HW1 2622   1.796   2.730   1.376  1.9247 -1.4157  0.2320
  656SOL    HW2 2623   1.842   2.586   1.337 -1.4797 -2.4549 -1.7702
  656SOL     MW 2624   1.798   2.643   1.389  0.3922 -0.7976  0.1384
  657SOL     OW 2625   0.097   1.810   1.221 -0.8958  0.5315  0.7315
  657SOL    HW1 2626   0.180   1.838   1.186 -2.8427 -0.5254  0.6158
  657SOL    HW2 2627   0.101   1.716   1.235  1.2698  2.1376  0.0627
  657SOL     MW 2628   0.108   1.801   1.218 -0.8670  0.6039  0.6280
  658SOL     OW 2629   2.736   1.330   0.251  0.0282 -0.0979  0.0004
  658SOL    HW1 2630   2.688   1.254   0.290  1.8113  1.0263 -2.6306
  658SOL    HW2 2631   2.734   1.397   0.324  0.9593  4.4888 -0.9751
  658SOL     MW 2632   2.729   1.329   0.266  0.3863  0.6556 -0.4755
  659SOL     OW 2633   2.188   1.527   1.016 -0.0622 -0.3701 -0.1426
  659SOL    HW1 2634   2.269   1.500   1.069  0.9782  0.4224 -0.3049
  659SOL    HW2 2635   2.145   1.600   1.068 -2.4841 -3.5247  1.4552
  659SOL     MW 2636   2.193   1.533   1.030 -0.2445 -0.6818  0.0468
  660SOL     OW 2637   2.089   1.463   1.687  0.1601  0.6296 -0.3706
  660SOL    HW1 2638   2.105   1.485   1.780  3.6766  2.7137  2.0673
  660SOL    HW2 2639   2.003   1.425   1.680 -0.2617 -0.2358  2.1806
  660SOL     MW 2640   2.080   1.461   1.698  0.5684  0.7904  0.2876
  661SOL     OW 2641   2.416   0.980   0.222  0.0408 -0.0291 -0.2203
  661SOL    HW1 2642   2.492   1.025   0.254  0.3113 -0.3064  2.3176
  661SOL    HW2 2643   2.418   0.889   0.260 -1.3074 -3.9182  2.3135
  661SOL     MW 2644   2.427   0.974   0.231 -0.1014 -0.5789  0.4489
  662SOL     OW 2645   2.586   2.960   0.880 -0.0710  0.3978  0.2377
  662SOL    HW1 2646   2.514   3.023   0.893 -2.5778  0.7697 -0.8637
  662SOL    HW2 2647   2.624   2.981   0.789  0.3974  0.8200 -0.6604
  662SOL     MW 2648   2.581   2.971   0.870 -0.3400  0.5026 -0.0261
  663SOL     OW 2649   2.680   1.528   0.447 -0.2629 -0.3353  0.3731
  663SOL    HW1 2650   2.671   1.596   0.383  1.3328 -1.8170  0.1314
  663SOL    HW2 2651   2.760   1.544   0.503  1.3548 -0.5001  1.8364
  663SOL     MW 2652   2.689   1.539   0.446  0.1611 -0.5525  0.5343
  664SOL     OW 2653   2.548   1.523   1.605  0.2615 -0.6572 -0.3387
  664SOL    HW1 2654   2.526   1.590   1.542 -0.0999 -3.1113  0.4458
  664SOL    HW2 2655   2.474   1.468   1.613  1.6931 -4.4990 -0.3101
  664SOL     MW 2656   2.536   1.525   1.598  0.4027 -1.4879 -0.2314
  665SOL     OW 2657   2.807   0.774   2.080  0.4817  0.2482  0.3844
  665SOL    HW1 2658   2.794   0.840   2.007 -1.2614 -2.0672 -0.3932
  665SOL    HW2 2659   2.897   0.739   2.064  2.0060  1.6033 -0.2383
  665SOL     MW 2660   2.817   0.778   2.068  0.4529  0.1215  0.1996
  666SOL     OW 2661   2.748   3.029   1.698 -0.0991 -0.1162 -0.1708
  666SOL    HW1 2662   2.786   3.010   1.610 -0.4978 -1.7280 -0.3571
  666SOL    HW2 2663   2.688   2.959   1.724 -2.4958 -1.0066 -1.6762
  666SOL     MW 2664   2.745   3.017   1.690 -0.4679 -0.4463 -0.3940
  667SOL     OW 2665   1.995   2.699   1.760 -0.8661  0.2989 -0.2467
  667SOL    HW1 2666   2.024   2.665   1.846 -1.4391 -1.3027 -1.4311
  667SOL    HW2 2667   2.066   2.764   1.739 -0.7673  0.6898 -0.4139
  667SOL     MW 2668   2.008   2.703   1.769 -0.9287  0.1392 -0.4250
  668SOL     OW 2669   2.760   0.542   0.830 -0.4607 -0.4069  0.1688
  668SOL    HW1 2670   2.816   0.570   0.908  0.7557 -1.2975  4.9581
  668SOL    HW2 2671   2.671   0.569   0.844  2.1849  0.1837  1.1191
  668SOL     MW 2672   2.756   0.549   0.842  0.0488 -0.4465  0.9261
  669SOL     OW 2673   0.163   0.942   0.743 -0.3426  0.7308 -0.4591
  669SOL    HW1 2674   0.106   1.008   0.781 -1.2611  3.7155 -2.9230
  669SOL    HW2 2675   0.251   0.946   0.779 -0.4639 -0.7725 -2.7140
  669SOL     MW 2676   0.167   0.952   0.753 -0.4798  0.9262 -1.0817
  670SOL     OW 2677   2.902   0.315   0.199  0.3288  0.1243 -0.4346
  670SOL    HW1 2678   2.897   0.272   0.112 -0.8381 -2.1776  0.2233
  670SOL    HW2 2679   2.901   0.412   0.179 -1.6751 -0.7406  0.4469
  670SOL     MW 2680   2.901   0.322   0.185 -0.0895 -0.2935 -0.2315
  671SOL     OW 2681   2.012   3.027   1.557  0.3257 -0.0259 -0.2172
  671SOL    HW1 2682   1.943   2.981   1.508  0.9540 -0.4162  2.5977
  671SOL    HW2 2683   1.961   3.049   1.637  2.1650  1.9010 -0.6410
  671SOL     MW 2684   1.996   3.024   1.561  0.6513  0.1769  0.0983
  672SOL     OW 2685   1.806   1.745   1.273 -0.1208  0.0179 -0.0018
  672SOL    HW1 2686   1.836   1.801   1.347  0.4472 -1.2137  2.6882
  672SOL    HW2 2687   1.869   1.745   1.200 -1.2418 -0.5928  0.1205
  672SOL     MW 2688   1.818   1.752   1.273 -0.1938 -0.2252  0.3692
  673SOL     OW 2689   2.746   1.079   0.596 -0.3689  0.8116 -0.8381
  673SOL    HW1 2690   2.775   0.999   0.639 -2.6882 -1.4613 -1.9895
  673SOL    HW2 2691   2.818   1.150   0.607 -3.1264  1.5472  0.0941
  673SOL     MW 2692   2.760   1.078   0.603 -1.0387  0.6088 -0.8670
  674SOL     OW 2693   2.476   0.016   1.260  0.5652  0.5174 -0.1744
  674SOL    HW1 2694   2.427  -0.013   1.182 -0.4636  1.3736  0.3574
  674SOL    HW2 2695   2.495  -0.068   1.304 -1.4272  1.0147  0.0644
  674SOL     MW 2696   2.472   0.001   1.255  0.1666  0.6960 -0.0727
  675SOL     OW 2697   2.966   0.931   1.047  0.5529 -0.1586  0.2563
  675SOL    HW1 2698   3.026   0.943   1.120  0.3170  1.3255  0.9090
  675SOL    HW2 2699   2.981   1.003   0.983  0.8779 -0.9947  3.3000
  675SOL     MW 2700   2.976   0.942   1.048  0.5646 -0.0731  0.7440
  676SOL     OW 2701   2.931   1.469   1.694 -0.7662  0.5360 -0.0106
  676SOL    HW1 2702   2.883   1.403   1.643 -0.0495 -0.2178  0.4581
  676SOL    HW2 2703   2.963   1.441   1.775  0.9281  0.1972  2.4229
  676SOL     MW 2704   2.929   1.457   1.698 -0.4481  0.3919  0.3723
  677SOL     OW 2705   2.368   0.540   2.045 -0.3857 -0.5275 -0.4092
  677SOL    HW1 2706   2.357   0.499   1.957  2.4589 -0.5251  0.9752
  677SOL    HW2 2707   2.352   0.632   2.017  0.2440  1.8214  0.8590
  677SOL     MW 2708   2.365   0.546   2.030  0.0727 -0.2173 -0.0592
  678SOL     OW 2709   2.432   1.666   0.289 -0.8804  0.2096 -0.4243
  678SOL    HW1 2710   2.345   1.659   0.341  0.6608 -2.8018  1.4482
  678SOL    HW2 2711   2.438   1.566   0.269 -0.4193 -1.0939 -1.0292
  678SOL     MW 2712   2.421   1.652   0.293 -0.6162 -0.3597 -0.2570
  679SOL     OW 2713   2.241   0.438   1.248 -0.1956 -0.3311 -0.4574
  679SOL    HW1 2714   2.278   0.353   1.228  2.1525  1.3962 -0.2101
  679SOL    HW2 2715   2.207   0.438   1.339  1.1670 -1.4646 -0.4564
  679SOL     MW 2716   2.242   0.427   1.258  0.2940 -0.2528 -0.4247
  680SOL     OW 2717   2.305   0.146   1.469  0.2147 -0.5308 -0.4318
  680SOL    HW1 2718   2.213   0.146   1.449 -1.3997 -0.1480 -0.9983
  680SOL    HW2 2719   2.361   0.103   1.399 -0.6223 -0.5790  2.8851
  680SOL     MW 2720   2.301   0.141   1.457 -0.1087 -0.4866 -0.0689
  681SOL     OW 2721   0.232   0.541   1.492  0.2138 -0.0999 -0.0372
  681SOL    HW1 2722   0.221   0.468   1.549 -1.3409  0.4787  3.1147
  681SOL    HW2 2723   0.198   0.518   1.401 -0.1936 -0.6861 -1.2651
  681SOL     MW 2724   0.226   0.528   1.488 -0.0451 -0.1009  0.2166
  682SOL     OW 2725   0.124   2.877   1.508 -0.2383  0.0360 -0.7415
  682SOL    HW1 2726   0.196   2.933   1.543 -0.0294  1.6289  0.3129
  682SOL    HW2 2727   0.042   2.899   1.559  0.6050 -0.8901 -0.9891
  682SOL     MW 2728   0.123   2.887   1.519 -0.0995  0.1240 -0.6351
  683SOL     OW 2729   2.078   0.842   2.978 -0.4507  0.1652 -0.0995
  683SOL    HW1 2730   2.035   0.768   3.017  1.2161  1.6131 -1.9046
  683SOL    HW2 2731   2.041   0.918   3.025 -0.7215 -1.1285  2.2562
  683SOL     MW 2732   2.068   0.842   2.989 -0.2665  0.1855 -0.0268
  684SOL     OW 2733   2.160   1.695   0.687 -0.7543  0.4720 -0.2150
  684SOL    HW1 2734   2.175   1.680   0.590  1.5291  1.0604  1.1130
  684SOL    HW2 2735   2.125   1.606   0.706 -2.0031  0.1675 -1.5514
  684SOL     MW 2736   2.158   1.681   0.677 -0.6178  0.5094 -0.2161
  685SOL     OW 2737   2.724   1.656   1.187 -0.1685 -0.1332 -0.0755
  685SOL    HW1 2738   2.751   1.685   1.272 -0.5812  1.7985 -2.8571
  685SOL    HW2 2739   2.730   1.563   1.204  1.3763  1.4938 -1.7268
  685SOL     MW 2740   2.728   1.648   1.200 -0.0191  0.3364 -0.6604
  686SOL     OW 2741   2.879   0.698   1.551  0.1464 -0.8246  1.2313
  686SOL    HW1 2742   2.865   0.673   1.645  0.0906  1.9115  1.3431
  686SOL    HW2 2743   2.972   0.712   1.533  3.5326  0.4708  1.0689
  686SOL     MW 2744   2.889   0.697   1.561  0.5858 -0.2927  1.2247
  687SOL     OW 2745   2.145   0.158   1.173  0.3878  0.5066 -0.0165
  687SOL    HW1 2746   2.214   0.153   1.104 -0.1418 -0.3615 -1.5193
  687SOL    HW2 2747   2.073   0.216   1.128 -1.2980  2.6067  0.4959
  687SOL     MW 2748   2.145   0.165   1.158  0.0955  0.6691 -0.1472
  688SOL     OW 2749   2.384   0.606   1.414 -0.2314 -0.3032 -0.7648
  688SOL    HW1 2750   2.347   0.546   1.355  0.1115  1.0822 -0.8656
  688SOL    HW2 2751   2.326   0.622   1.489  2.2424 -0.4125 -1.9938
  688SOL     MW 2752   2.371   0.600   1.416  0.1403 -0.1348 -0.9403
  689SOL     OW 2753   2.459   0.761   2.955 -0.0669  0.7641 -0.8023
  689SOL    HW1 2754   2.430   0.847   2.990 -0.8612 -0.3812 -2.7196
  689SOL    HW2 2755   2.547   0.736   2.983  0.2713  3.0246  1.9106
  689SOL     MW 2756   2.467   0.769   2.963 -0.1271  0.9112 -0.6973
  690SOL     OW 2757   2.034   0.902   1.886 -0.7041  0.2661 -0.0366
  690SOL    HW1 2758   2.007   0.816   1.918  1.6801  2.2612  1.2526
  690SOL    HW2 2759   2.051   0.887   1.792  0.9029 -0.1855  1.9480
  690SOL     MW 2760   2.032   0.889   1.878 -0.1775  0.4698  0.3954
  691SOL     OW 2761   2.418   0.231   0.849  0.1843  0.5416  0.0570
  691SOL    HW1 2762   2.501   0.267   0.888 -0.9160 -1.9038 -2.4416
  691SOL    HW2 2763   2.348   0.297   0.867  1.5461  1.3531  3.2252
  691SOL     MW 2764   2.419   0.245   0.857  0.2188  0.3260  0.1453
  692SOL     OW 2765   2.882   1.597   1.407  0.0838 -0.2086 -0.1641
  692SOL    HW1 2766   2.886   1.562   1.494 -1.6203  0.7317 -1.7692
  692SOL    HW2 2767   2.906   1.689   1.424  0.5514 -1.2390 -0.8572
  692SOL     MW 2768   2.885   1.605   1.421 -0.0793 -0.2205 -0.4673
  693SOL     OW 2769   2.318   0.437   0.105 -0.1134 -0.4736 -0.3326
  693SOL    HW1 2770   2.246   0.400   0.052 -0.7697  0.8147 -0.4624
  693SOL    HW2 2771   2.326   0.527   0.079  0.7581 -1.7671  0.8732
  693SOL     MW 2772   2.310   0.444   0.095 -0.0850 -0.4743 -0.1907
  694SOL     OW 2773   1.905   1.112   1.065 -0.5132  0.1694  0.2340
  694SOL    HW1 2774   1.991   1.116   1.120 -0.1403  0.5582  1.7952
  694SOL    HW2 2775   1.856   1.035   1.106 -0.4644 -2.6971  2.2764
  694SOL     MW 2776   1.910   1.103   1.078 -0.4575 -0.1575  0.7095
  695SOL     OW 2777   2.985   1.373   1.293 -0.6047 -0.2217  0.2877
  695SOL    HW1 2778   2.982   1.393   1.200  0.4267  1.9184 -2.0956
  695SOL    HW2 2779   2.935   1.450   1.341 -2.8264 -0.3866 -1.3175
  695SOL     MW 2780   2.978   1.386   1.287 -0.7618  0.0389 -0.2385
  696SOL     OW 2781   2.100   1.443   0.756  0.0043 -0.5768 -0.0463
  696SOL    HW1 2782   2.145   1.468   0.832 -0.0973 -0.4972 -1.0864
  696SOL    HW2 2783   2.041   1.370   0.779  0.1150  2.2593 -0.8845
  696SOL     MW 2784   2.098   1.436   0.769  0.0055 -0.1921 -0.2942
  697SOL     OW 2785   2.865   0.977   2.260  0.3595  0.1219 -0.0773
  697SOL    HW1 2786   2.807   1.050   2.227  2.2510 -1.9823  0.7002
  697SOL    HW2 2787   2.829   0.897   2.211 -0.7596  0.5876 -0.4965
  697SOL     MW 2788   2.852   0.976   2.249  0.4614 -0.0943 -0.0300
  698SOL     OW 2789   2.567   0.289   0.015  0.6771 -0.5793  0.3012
  698SOL    HW1 2790   2.485   0.340   0.028 -0.7517 -1.2260 -0.5744
  698SOL    HW2 2791   2.603   0.273   0.109 -0.2489 -2.6188  1.1718
  698SOL     MW 2792   2.561   0.294   0.029  0.3664 -0.9337  0.3005
  699SOL     OW 2793   1.912   1.627   2.092  0.9784  0.0344 -0.3930
  699SOL    HW1 2794   1.863   1.548   2.075 -4.9305  0.7495  0.8848
  699SOL    HW2 2795   2.002   1.605   2.110  2.1129  0.5714  3.1048
  699SOL     MW 2796   1.917   1.614   2.092  0.3485  0.1996  0.2371
  700SOL     OW 2797   2.707   0.891   1.593  0.4724 -0.1057 -0.8177
  700SOL    HW1 2798   2.725   0.957   1.518  2.3580 -0.6816 -0.5742
  700SOL    HW2 2799   2.762   0.814   1.564 -1.8090 -2.1881 -1.8414
  700SOL     MW 2800   2.716   0.889   1.579  0.4202 -0.4564 -0.9206
  701SOL     OW 2801   1.686   1.164   2.501 -0.1937  0.1164 -0.0139
  701SOL    HW1 2802   1.775   1.174   2.526 -1.3181 -0.2625  2.7501
  701SOL    HW2 2803   1.650   1.239   2.549 -1.5787 -1.3758 -2.0371
  701SOL     MW 2804   1.693   1.175   2.510 -0.5248 -0.1305  0.0838
  702SOL     OW 2805   2.148   0.419   0.836  0.6087  0.7372 -0.1339
  702SOL    HW1 2806   2.131   0.345   0.778  0.2627  0.7692  0.4262
  702SOL    HW2 2807   2.193   0.483   0.783 -1.0699 -1.4911 -1.7309
  702SOL     MW 2808   2.152   0.418   0.821  0.3416  0.4474 -0.2707
  703SOL     OW 2809   2.726   1.244   0.992 -0.0604 -0.3113 -0.4868
  703SOL    HW1 2810   2.662   1.224   0.927  0.6809 -1.3126  0.5004
  703SOL    HW2 2811   2.732   1.167   1.045 -0.7443  1.4368 -0.7356
  703SOL     MW 2812   2.719   1.231   0.991 -0.0528 -0.2128 -0.3894
  704SOL     OW 2813   3.034   1.273   0.155  0.3683  0.0026 -0.2284
  704SOL    HW1 2814   2.949   1.239   0.127 -2.4870  0.2932 -0.2118
  704SOL    HW2 2815   3.034   1.271   0.254 -0.7150 -0.4973  0.5070
  704SOL     MW 2816   3.023   1.269   0.164 -0.1514 -0.0250 -0.1292
  705SOL     OW 2817   2.135   1.611   1.285 -0.9299 -0.2350  0.2268
  705SOL    HW1 2818   2.110   1.655   1.372  3.2114  1.1497 -0.0408
  705SOL    HW2 2819   2.152   1.522   1.301 -0.3226 -0.0627  2.5794
  705SOL     MW 2820   2.134   1.605   1.299 -0.3034 -0.0295  0.5019
  706SOL     OW 2821   2.940   1.258   0.630  0.7382  0.0741  0.1369
  706SOL    HW1 2822   2.999   1.229   0.558 -0.8555 -1.4992 -0.3543
  706SOL    HW2 2823   2.934   1.360   0.623 -3.1059 -2.0537 -1.0784
  706SOL     MW 2824   2.947   1.268   0.619  0.0208 -0.4142 -0.0883
  707SOL     OW 2825   2.337   0.017   1.003 -0.0421 -0.6935 -0.5513
  707SOL    HW1 2826   2.395   0.081   0.957 -0.8268 -1.7166  1.5199
  707SOL    HW2 2827   2.270  -0.015   0.942  1.3962  0.9342  0.2407
  707SOL     MW 2828   2.336   0.022   0.989  0.0441 -0.6137 -0.1735
  708SOL     OW 2829   2.452   1.394   0.174  0.3982 -0.1174 -0.3668
  708SOL    HW1 2830   2.547   1.374   0.164  0.0507 -0.2656  0.2077
  708SOL    HW2 2831   2.431   1.437   0.093  2.3265 -1.6604 -0.8204
  708SOL     MW 2832   2.462   1.397   0.162  0.6068 -0.3405 -0.3508
  709SOL     OW 2833   1.715   1.633   0.213 -0.4823  0.2179 -0.0642
  709SOL    HW1 2834   1.739   1.647   0.122  0.5453 -2.0152  0.2766
  709SOL    HW2 2835   1.627   1.610   0.221  1.1917 -2.6873  2.0971
  709SOL     MW 2836   1.707   1.631   0.202 -0.1259 -0.4601  0.2660
  710SOL     OW 2837   2.143   1.171   1.163  0.1273  0.2889  0.0794
  710SOL    HW1 2838   2.153   1.140   1.070  0.5579  1.5532  0.8819
  710SOL    HW2 2839   2.176   1.094   1.219 -1.8152 -2.8034  1.8526
  710SOL     MW 2840   2.149   1.156   1.158 -0.0722  0.0477  0.4193
  711SOL     OW 2841   2.350   0.112   1.795  0.7401  0.5337  0.2835
  711SOL    HW1 2842   2.441   0.115   1.817 -1.1708 -0.8505  0.8101
  711SOL    HW2 2843   2.346   0.141   1.701 -0.6555  2.6237 -0.1925
  711SOL     MW 2844   2.362   0.116   1.785  0.3038  0.6268  0.2902
  712SOL     OW 2845   1.916   0.627   3.067 -0.6050 -0.1782  0.1727
  712SOL    HW1 2846   1.830   0.630   3.027 -1.8646  1.5806  0.4358
  712SOL    HW2 2847   1.898   0.660   3.153 -0.2109 -0.7807 -2.6684
  712SOL     MW 2848   1.902   0.631   3.073 -0.7192 -0.0256 -0.1675
  713SOL     OW 2849   2.548   0.708   1.088  0.2740  0.0793  0.0359
  713SOL    HW1 2850   2.578   0.665   1.169  1.5075 -1.9592 -0.3010
  713SOL    HW2 2851   2.457   0.722   1.097  1.0824 -2.0578  0.9826
  713SOL     MW 2852   2.540   0.704   1.100  0.5434 -0.4716  0.1163
  714SOL     OW 2853   2.199   0.197   1.999  0.2237  0.8875  0.2130
  714SOL    HW1 2854   2.247   0.156   2.073 -1.5702  0.3884 -0.8905
  714SOL    HW2 2855   2.248   0.156   1.922  1.0539 -0.8393 -1.0300
  714SOL     MW 2856   2.212   0.186   1.999  0.0965  0.5938 -0.0966
  715SOL     OW 2857   1.820   2.048   1.742 -0.1669  0.3289  0.0488
  715SOL    HW1 2858   1.904   2.083   1.726 -0.4119 -0.3607  1.9892
  715SOL    HW2 2859   1.830   1.967   1.798 -1.1002  0.1389  0.8756
  715SOL     MW 2860   1.832   2.042   1.747 -0.3224  0.2128  0.4139
  716SOL     OW 2861   2.326   0.546   0.653  0.1148 -0.1046 -0.2179
  716SOL    HW1 2862   2.379   0.468   0.625  0.8814  1.9092  3.6279
  716SOL    HW2 2863   2.285   0.599   0.577 -2.3019  0.3403 -0.6308
  716SOL     MW 2864   2.327   0.543   0.639 -0.1029  0.2198  0.2350
  717SOL     OW 2865   2.817   1.641   2.895  0.3941 -0.3594  0.0689
  717SOL    HW1 2866   2.892   1.621   2.954 -0.3634  0.7250  3.0177
  717SOL    HW2 2867   2.776   1.717   2.952  0.1746 -1.0249 -0.3428
  717SOL     MW 2868   2.821   1.649   2.911  0.2652 -0.3042  0.4036
  718SOL     OW 2869   2.677   1.394   1.323  0.2595 -0.1713  0.1779
  718SOL    HW1 2870   2.670   1.388   1.419 -1.5458 -2.3893  0.5378
  718SOL    HW2 2871   2.741   1.330   1.303 -0.0805 -0.8994  0.7495
  718SOL     MW 2872   2.685   1.385   1.333 -0.0236 -0.5600  0.3008
  719SOL     OW 2873   2.184   1.241   0.573  0.1477  0.6921  0.2357
  719SOL    HW1 2874   2.264   1.280   0.543  0.2347  1.0784 -0.1272
  719SOL    HW2 2875   2.161   1.306   0.652  0.6315  0.1137  1.2839
  719SOL     MW 2876   2.191   1.254   0.580  0.2230  0.6667  0.3261
  720SOL     OW 2877   2.782   1.152   0.043 -0.1327  0.4110 -0.4480
  720SOL    HW1 2878   2.814   1.070   0.087  1.1805  1.0931  0.1238
  720SOL    HW2 2879   2.740   1.207   0.114  0.4367 -2.1402 -0.2869
  720SOL     MW 2880   2.781   1.149   0.058  0.1157  0.1644 -0.3513
  721SOL     OW 2881   2.487   0.861   1.405 -0.1990 -0.7724 -0.4489
  721SOL    HW1 2882   2.454   0.772   1.388  0.9748  0.3683  0.8387
  721SOL    HW2 2883   2.528   0.860   1.484  0.1336  0.9540 -1.5680
  721SOL     MW 2884   2.488   0.849   1.413 -0.0003 -0.3941 -0.4266
  722SOL     OW 2885   2.608   1.118   0.373 -0.0749  0.0373  0.4591
  722SOL    HW1 2886   2.546   1.169   0.412  0.0935 -0.0543 -0.2290
  722SOL    HW2 2887   2.671   1.091   0.446  1.4693  2.0782 -2.0002
  722SOL     MW 2888   2.608   1.121   0.388  0.1511  0.2945  0.0438
  723SOL     OW 2889   2.321   1.364   1.590 -0.3579 -0.2833 -0.1411
  723SOL    HW1 2890   2.305   1.335   1.499  0.6529  0.5933 -1.8524
  723SOL    HW2 2891   2.235   1.378   1.630  1.1586  0.0673  1.0909
  723SOL     MW 2892   2.308   1.362   1.584 -0.0244 -0.1214 -0.2044
  724SOL     OW 2893   2.477   0.320   0.590  0.3051 -0.1735  0.0374
  724SOL    HW1 2894   2.460   0.267   0.667  0.3328  0.6618  1.1129
  724SOL    HW2 2895   2.551   0.276   0.551  0.7473 -2.3465  1.5477
  724SOL     MW 2896   2.484   0.307   0.595  0.3671 -0.3500  0.3786
  725SOL     OW 2897   2.592   0.420   1.222 -0.0857  0.0203 -0.0374
  725SOL    HW1 2898   2.658   0.480   1.247 -1.5735  0.9158  0.6185
  725SOL    HW2 2899   2.621   0.335   1.253  1.2966  1.1329 -2.0314
  725SOL     MW 2900   2.604   0.417   1.230 -0.0996  0.2853 -0.2139
  726SOL     OW 2901   2.526   2.517   0.531  0.0410  0.4165 -0.2188
  726SOL    HW1 2902   2.504   2.612   0.533  2.2640  2.1185  0.4809
  726SOL    HW2 2903   2.520   2.494   0.626  3.0917 -0.8814 -0.7077
  726SOL     MW 2904   2.522   2.526   0.543  0.7368  0.4698 -0.1910
  727SOL     OW 2905   2.850   0.341   1.767  0.1062  0.0323 -0.0180
  727SOL    HW1 2906   2.793   0.279   1.714 -2.2271  0.7385 -2.5036
  727SOL    HW2 2907   2.813   0.330   1.858  0.2642 -1.3568 -0.6738
  727SOL     MW 2908   2.837   0.331   1.772 -0.1808 -0.0578 -0.4325
  728SOL     OW 2909   2.848   1.158   2.856  0.1304  0.5528 -0.0570
  728SOL    HW1 2910   2.841   1.238   2.798  0.0751 -1.3984  1.1435
  728SOL    HW2 2911   2.818   1.172   2.947  0.6228 -0.9291  2.0809
  728SOL     MW 2912   2.843   1.170   2.860  0.1881  0.0998  0.3835
  729SOL     OW 2913   2.440   1.462   1.164  0.0097 -0.0287 -0.2996
  729SOL    HW1 2914   2.517   1.432   1.213  0.0562 -0.2920 -3.7846
  729SOL    HW2 2915   2.468   1.463   1.070 -1.1724  0.1669 -1.0554
  729SOL     MW 2916   2.454   1.458   1.158 -0.1401 -0.0376 -0.8591
  730SOL     OW 2917   2.245   1.187   0.296 -0.8978  0.3787  0.2399
  730SOL    HW1 2918   2.298   1.116   0.260 -0.6206 -1.8634 -0.3712
  730SOL    HW2 2919   2.288   1.272   0.268 -0.8347  0.4810 -1.7040
  730SOL     MW 2920   2.258   1.189   0.287 -0.8529  0.0963 -0.0972
  731SOL     OW 2921   2.791   2.070   2.870 -0.0256  0.1075  0.0316
  731SOL    HW1 2922   2.738   2.052   2.793 -0.2399 -1.0250 -1.5042
  731SOL    HW2 2923   2.864   2.018   2.846 -1.8316 -0.8624 -0.4032
  731SOL     MW 2924   2.794   2.061   2.857 -0.2922 -0.1699 -0.2284
  732SOL     OW 2925   2.227   0.948   1.328 -0.2629  0.9126 -0.6086
  732SOL    HW1 2926   2.175   0.963   1.408 -2.7231  2.5056  0.6418
  732SOL    HW2 2927   2.318   0.932   1.345 -0.4691  0.7064  1.8059
  732SOL     MW 2928   2.232   0.948   1.341 -0.6147  1.0956 -0.1250
  733SOL     OW 2929   2.403   2.824   3.021 -0.9260 -0.0234  0.0706
  733SOL    HW1 2930   2.310   2.855   3.041 -0.9238 -1.2113 -0.9702
  733SOL    HW2 2931   2.383   2.728   3.025  0.6812 -0.6537 -1.3247
  733SOL     MW 2932   2.388   2.815   3.024 -0.7136 -0.2633 -0.2508
  734SOL     OW 2933   1.520   0.275   2.535  0.5499 -0.4372 -0.3110
  734SOL    HW1 2934   1.484   0.242   2.618  0.0758 -1.1299  1.1415
  734SOL    HW2 2935   1.530   0.207   2.467 -3.4909 -0.0442 -0.0689
  734SOL     MW 2936   1.517   0.262   2.537 -0.0458 -0.4767 -0.0874
  735SOL     OW 2937   2.939   0.921   2.652  0.2571  0.8963  0.2635
  735SOL    HW1 2938   2.926   0.823   2.645 -2.5231  1.3469  2.6667
  735SOL    HW2 2939   2.987   0.926   2.738  0.4813 -1.0824 -0.2841
  735SOL     MW 2940   2.944   0.909   2.663 -0.0801  0.6947  0.5083
  736SOL     OW 2941   0.080   0.631   2.579 -0.0472 -0.3534  0.3164
  736SOL    HW1 2942   0.104   0.689   2.500  1.6773 -1.0100 -0.9325
  736SOL    HW2 2943   0.066   0.546   2.545  0.2356 -0.2596  2.0461
  736SOL     MW 2944   0.081   0.627   2.564  0.2176 -0.4276  0.3798
  737SOL     OW 2945   2.921   0.648   2.643  0.1761  0.2990 -0.0541
  737SOL    HW1 2946   2.875   0.606   2.573 -0.0920  0.2186 -0.1127
  737SOL    HW2 2947   3.015   0.649   2.623 -1.7624 -1.1509 -0.2909
  737SOL     MW 2948   2.928   0.643   2.631 -0.1150  0.0971 -0.0931
  738SOL     OW 2949   0.207   0.594   1.911 -0.3677 -0.2778 -0.3709
  738SOL    HW1 2950   0.299   0.623   1.901  0.9042  0.9861  0.1995
  738SOL    HW2 2951   0.204   0.507   1.871 -0.0123  0.1325  0.4003
  738SOL     MW 2952   0.218   0.587   1.904 -0.1530 -0.0569 -0.1939
  739SOL     OW 2953   2.479   1.016   2.070 -0.4568 -0.0333  0.0138
  739SOL    HW1 2954   2.405   0.972   2.034  2.1898 -2.8165  4.0533
  739SOL    HW2 2955   2.534   1.047   2.000 -0.8650  2.4229 -0.4377
  739SOL     MW 2956   2.477   1.014   2.056 -0.1614 -0.0765  0.4872
  740SOL     OW 2957   0.148   1.804   2.919 -0.5330  0.5598  0.0866
  740SOL    HW1 2958   0.112   1.715   2.916 -1.4380 -0.0454 -0.5877
  740SOL    HW2 2959   0.233   1.801   2.969 -2.1019  2.2737 -0.4952
  740SOL     MW 2960   0.155   1.792   2.925 -0.8594  0.7061 -0.0791
  741SOL     OW 2961   2.211   1.185   2.716  0.3540  0.0088 -0.2099
  741SOL    HW1 2962   2.148   1.239   2.674  0.5520  0.1397  1.1364
  741SOL    HW2 2963   2.204   1.192   2.817  2.0018 -1.1433  0.2475
  741SOL     MW 2964   2.202   1.193   2.724  0.5975 -0.1259  0.0281
  742SOL     OW 2965   1.699   1.254   2.233  0.3403 -0.0674  0.7494
  742SOL    HW1 2966   1.613   1.218   2.207 -1.2537  1.3890 -1.9062
  742SOL    HW2 2967   1.704   1.218   2.322 -0.4295 -1.0792 -0.0413
  742SOL     MW 2968   1.688   1.245   2.241  0.0284 -0.0087  0.2947
  743SOL     OW 2969   2.495   1.261   2.720  0.3907  0.2535 -0.2541
  743SOL    HW1 2970   2.428   1.220   2.671 -2.6980 -1.0700  0.6353
  743SOL    HW2 2971   2.525   1.177   2.761  1.9565 -3.3175 -1.9814
  743SOL     MW 2972   2.490   1.244   2.719  0.1897 -0.3923 -0.3646
  744SOL     OW 2973   2.792   0.932   1.847  0.6267  0.5381  0.2615
  744SOL    HW1 2974   2.713   0.982   1.856 -1.5146  1.5990 -1.3407
  744SOL    HW2 2975   2.764   0.901   1.759 -1.3275 -1.4513  2.0395
  744SOL     MW 2976   2.778   0.935   1.836  0.0863  0.4156  0.2847
  745SOL     OW 2977   1.736   0.448   2.485 -0.3256  0.4847 -0.1516
  745SOL    HW1 2978   1.704   0.469   2.393  1.8150 -3.1923 -1.5101
  745SOL    HW2 2979   1.660   0.419   2.536 -0.4100  0.3551 -1.1640
  745SOL     MW 2980   1.721   0.447   2.479 -0.0543 -0.0175 -0.4644
  746SOL     OW 2981   1.601   1.461   1.656 -0.4812 -0.3155  0.1672
  746SOL    HW1 2982   1.692   1.432   1.636 -2.0607  1.7620  0.7996
  746SOL    HW2 2983   1.591   1.429   1.746  2.5377 -0.0029  1.9679
  746SOL     MW 2984   1.612   1.453   1.665 -0.2913 -0.0001  0.4882
  747SOL     OW 2985   2.580   1.122   1.800  0.0589 -0.4477 -0.1900
  747SOL    HW1 2986   2.484   1.097   1.794 -0.3343 -0.3412  2.1287
  747SOL    HW2 2987   2.583   1.208   1.841  2.4412 -0.5307  1.8160
  747SOL     MW 2988   2.568   1.130   1.804  0.3213 -0.4446  0.3806
  748SOL     OW 2989   0.090   0.000   1.917  0.1988  0.0702 -0.0218
  748SOL    HW1 2990   0.151   0.052   1.874 -0.0790 -0.6339 -0.0493
  748SOL    HW2 2991   0.078   0.039   2.006 -2.8644  2.6190  2.7944
  748SOL     MW 2992   0.096   0.012   1.923 -0.2420  0.3136  0.3461
  749SOL     OW 2993   2.487   0.598   2.731 -0.2081 -0.2557  0.1343
  749SOL    HW1 2994   2.481   0.678   2.677  0.7975  0.2442 -1.1716
  749SOL    HW2 2995   2.443   0.631   2.812  0.9506 -2.7468  0.1638
  749SOL     MW 2996   2.480   0.613   2.735  0.0774 -0.5184 -0.0341
  750SOL     OW 2997   2.055   3.058   1.963 -0.2946  0.4608  0.0525
  750SOL    HW1 2998   2.095   3.139   1.983 -1.1941 -0.1386 -0.2301
  750SOL    HW2 2999   2.134   3.004   1.958  0.4276  1.3905  0.8157
  750SOL     MW 3000   2.070   3.061   1.965 -0.3180  0.5044  0.1159
  751SOL     OW 3001   0.082   0.402   2.374  0.6048  0.2647  0.3903
  751SOL    HW1 3002   0.106   0.322   2.425 -1.4529  0.4321 -0.9754
  751SOL    HW2 3003   0.156   0.412   2.310  0.1807 -0.6898 -1.5275
  751SOL     MW 3004   0.095   0.393   2.372  0.2774  0.1609 -0.0430
  752SOL     OW 3005   2.135   0.751   2.715  0.0706  0.0399  0.1163
  752SOL    HW1 3006   2.166   0.824   2.658 -0.9571  0.4001 -2.1430
  752SOL    HW2 3007   2.124   0.795   2.799 -0.1420 -0.4334  0.1622
  752SOL     MW 3008   2.137   0.766   2.718 -0.0931  0.0250 -0.1757
  753SOL     OW 3009   2.907   0.225   2.453 -0.0570  0.3925 -0.2876
  753SOL    HW1 3010   2.874   0.150   2.401 -2.4046 -2.9979  0.6552
  753SOL    HW2 3011   2.865   0.305   2.440 -3.2523 -0.4800  1.3039
  753SOL     MW 3012   2.897   0.226   2.444 -0.7883 -0.1699  0.0468
  754SOL     OW 3013   2.244   2.966   2.577 -0.9393  0.0033  0.0716
  754SOL    HW1 3014   2.262   2.931   2.491  2.3025 -1.6949  1.3270
  754SOL    HW2 3015   2.310   2.909   2.622  0.8091  0.4672  1.4005
  754SOL     MW 3016   2.255   2.954   2.572 -0.2809 -0.1595  0.4126
  755SOL     OW 3017   2.740   1.512   2.470 -0.4865  0.2219  0.0203
  755SOL    HW1 3018   2.729   1.425   2.521 -5.2351 -0.5081  2.8690
  755SOL    HW2 3019   2.804   1.571   2.522 -1.0726  1.2197 -1.5615
  755SOL     MW 3020   2.747   1.508   2.483 -1.1904  0.2573  0.1875
  756SOL     OW 3021   2.182   1.186   2.973 -0.4278 -0.6181  0.1917
  756SOL    HW1 3022   2.220   1.273   3.007  1.0242 -0.4293 -1.5802
  756SOL    HW2 3023   2.254   1.127   2.990  1.0942  1.9761  0.4868
  756SOL     MW 3024   2.196   1.190   2.980 -0.0354 -0.2509 -0.0032
  757SOL     OW 3025   2.097   0.910   1.615  0.2935  0.0455  0.4507
  757SOL    HW1 3026   2.147   0.829   1.595  0.2663  0.0872  0.6280
  757SOL    HW2 3027   2.015   0.897   1.558 -0.6186 -0.1739  1.7971
  757SOL     MW 3028   2.093   0.897   1.605  0.1695  0.0220  0.6518
  758SOL     OW 3029   2.226   1.780   2.618 -0.1428  0.4142 -0.4943
  758SOL    HW1 3030   2.215   1.811   2.529 -0.1455 -1.9578  1.0489
  758SOL    HW2 3031   2.319   1.743   2.649  4.9015 -0.6988 -0.1705
  758SOL     MW 3032   2.237   1.779   2.610  0.5224 -0.0456 -0.2479
  759SOL     OW 3033   1.555   1.358   2.660 -0.2664  0.2941 -0.0863
  759SOL    HW1 3034   1.550   1.443   2.617 -0.1412  0.1883  0.6249
  759SOL    HW2 3035   1.588   1.374   2.751 -0.0822 -0.1947  2.0077
  759SOL     MW 3036   1.559   1.371   2.667 -0.2256  0.2156  0.2839
  760SOL     OW 3037   2.578   2.003   2.706 -0.1320 -0.2757 -0.0775
  760SOL    HW1 3038   2.557   1.921   2.663  2.8087 -0.8195 -1.1533
  760SOL    HW2 3039   2.578   2.066   2.632 -1.0328 -2.5140  1.8654
  760SOL     MW 3040   2.575   2.000   2.690  0.1371 -0.6428  0.0369
  761SOL     OW 3041   2.186   0.358   2.427  0.3885 -0.4101  0.2470
  761SOL    HW1 3042   2.098   0.319   2.429 -1.1178 -1.9350 -1.8097
  761SOL    HW2 3043   2.214   0.379   2.518 -2.2187 -2.3263 -0.0796
  761SOL     MW 3044   2.178   0.355   2.439 -0.1543 -0.8642 -0.0675
  762SOL     OW 3045   0.050   0.195   2.129 -0.8042  0.1598 -0.4691
  762SOL    HW1 3046   0.042   0.141   2.203  0.3218 -0.5252  0.1311
  762SOL    HW2 3047   0.000   0.277   2.145 -1.3997 -1.8373 -0.3020
  762SOL     MW 3048   0.042   0.199   2.141 -0.7342 -0.1941 -0.3679
  763SOL     OW 3049   2.345   1.022   2.348 -0.2339  0.2180 -0.2145
  763SOL    HW1 3050   2.419   0.960   2.324 -0.2294 -0.6596 -1.7061
  763SOL    HW2 3051   2.386   1.112   2.367  0.0486 -2.0680 -0.4097
  763SOL     MW 3052   2.360   1.026   2.348 -0.1961 -0.1994 -0.4371
  764SOL     OW 3053   0.484   0.227   2.810  0.5537 -0.1178 -0.2359
  764SOL    HW1 3054   0.405   0.187   2.782 -0.9839 -0.7932  2.4448
  764SOL    HW2 3055   0.456   0.309   2.859 -1.9108 -0.1748 -1.1452
  764SOL     MW 3056   0.470   0.233   2.813  0.0256 -0.2144 -0.0022
  765SOL     OW 3057   2.762   0.014   2.350 -0.6820 -0.6509 -0.0549
  765SOL    HW1 3058   2.692  -0.000   2.280  1.0166 -1.1941  0.4818
  765SOL    HW2 3059   2.797  -0.077   2.368  3.3210  0.0486  1.9670
  765SOL     MW 3060   2.757  -0.000   2.343  0.0702 -0.6302  0.2827
  766SOL     OW 3061   1.860   2.978   2.159  0.2619 -0.1201  0.2221
  766SOL    HW1 3062   1.920   3.006   2.099 -2.1033 -1.2510 -0.1734
  766SOL    HW2 3063   1.819   2.898   2.122  1.5700 -0.8529 -0.3579
  766SOL     MW 3064   1.863   2.971   2.146  0.1224 -0.3660  0.0934
  767SOL     OW 3065   2.649   0.560   1.993  0.7374 -0.3871  0.6109
  767SOL    HW1 3066   2.693   0.633   2.037  0.0472  0.7163  1.5236
  767SOL    HW2 3067   2.566   0.565   2.039 -0.2201  0.3448  0.4164
  767SOL     MW 3068   2.644   0.570   2.005  0.5200 -0.1450  0.7057
  768SOL     OW 3069   3.086   1.557   2.966 -0.3275  0.6190  0.1791
  768SOL    HW1 3070   3.146   1.526   3.041  1.7816  1.9995  0.3884
  768SOL    HW2 3071   3.095   1.492   2.895 -3.7495  3.8587  3.5740
  768SOL     MW 3072   3.095   1.545   2.966 -0.5007  1.2286  0.6546
  769SOL     OW 3073   2.431   0.681   2.328 -0.4150  0.2340 -0.6040
  769SOL    HW1 3074   2.344   0.634   2.337 -0.0880  0.6627  3.9985
  769SOL    HW2 3075   2.484   0.630   2.264  0.9958 -1.3824 -1.3185
  769SOL     MW 3076   2.427   0.668   2.321 -0.1857  0.0773 -0.0910
  770SOL     OW 3077   0.079   1.598   2.605 -0.5184 -0.4509  0.0242
  770SOL    HW1 3078  -0.017   1.606   2.625  0.7162  1.9330 -2.9083
  770SOL    HW2 3079   0.103   1.505   2.625 -1.5158  0.0016  1.7442
  770SOL     MW 3080   0.070   1.587   2.610 -0.4871 -0.0767 -0.1358
  771SOL     OW 3081   3.052   0.673   2.020  0.3023 -0.1338 -0.4404
  771SOL    HW1 3082   3.006   0.661   1.936 -0.6109 -2.1719 -1.8544
  771SOL    HW2 3083   3.134   0.634   1.987 -1.1765 -0.4190  4.2068
  771SOL     MW 3084   3.057   0.666   2.005 -0.0133 -0.4403 -0.0138
  772SOL     OW 3085   3.092   0.012   2.327 -0.1955 -0.0088  0.3342
  772SOL    HW1 3086   3.006  -0.031   2.320 -0.2408 -1.5813 -0.9433
  772SOL    HW2 3087   3.154  -0.056   2.286 -1.6915 -2.5327 -2.3613
  772SOL     MW 3088   3.089  -0.003   2.321 -0.3989 -0.5493 -0.1900
  773SOL     OW 3089   2.441   2.838   2.746 -0.2292  0.1106  0.6160
  773SOL    HW1 3090   2.439   2.767   2.686 -0.8700  1.0619 -0.2656
  773SOL    HW2 3091   2.429   2.807   2.837 -0.2558  1.8518 -0.5577
  773SOL     MW 3092   2.439   2.824   2.750 -0.3173  0.4659  0.3448
  774SOL     OW 3093   2.294   1.077   1.746  0.0645 -0.3583 -0.2982
  774SOL    HW1 3094   2.271   1.141   1.679 -1.0767  0.2299 -1.4780
  774SOL    HW2 3095   2.240   0.995   1.730 -1.5889 -2.9594  0.9524
  774SOL     MW 3096   2.284   1.075   1.735 -0.3043 -0.6239 -0.2889
  775SOL     OW 3097   2.267   2.873   2.325  0.5205 -0.1907 -0.5714
  775SOL    HW1 3098   2.282   2.952   2.269 -1.5776 -0.7272 -1.6884
  775SOL    HW2 3099   2.335   2.801   2.304 -0.5300  0.5732 -0.7455
  775SOL     MW 3100   2.278   2.874   2.315  0.1051 -0.1607 -0.7418
  776SOL     OW 3101   0.110   1.482   0.095  0.2600 -0.1894 -0.1853
  776SOL    HW1 3102   0.194   1.432   0.108 -3.6406  2.0231  0.5163
  776SOL    HW2 3103   0.032   1.423   0.115 -0.5562  1.4714  1.6990
  776SOL     MW 3104   0.111   1.468   0.099 -0.3623  0.3217  0.1559
  777SOL     OW 3105   2.934   1.157   1.770  0.1400  0.1908 -0.5075
  777SOL    HW1 3106   2.858   1.182   1.714 -1.8890  1.6469  1.7817
  777SOL    HW2 3107   2.913   1.077   1.820  2.2198  0.1214 -2.6192
  777SOL     MW 3108   2.921   1.150   1.769  0.1467  0.3738 -0.4841
  778SOL     OW 3109   2.884   0.451   2.821  0.1161  0.7314 -0.2918
  778SOL    HW1 3110   2.828   0.466   2.903  0.3533  2.8366  1.6224
  778SOL    HW2 3111   2.887   0.531   2.767  1.4435  1.9887  0.7967
  778SOL     MW 3112   2.877   0.463   2.825  0.3225  1.1750  0.1044
  779SOL     OW 3113   2.175   0.614   2.351  0.0190 -0.3484  0.0015
  779SOL    HW1 3114   2.089   0.636   2.381 -2.7219  4.1126  0.7575
  779SOL    HW2 3115   2.193   0.517   2.354  1.1889  1.1594  2.8797
  779SOL     MW 3116   2.166   0.604   2.355 -0.1882  0.4391  0.4810
  780SOL     OW 3117   0.227   0.093   2.761  0.1205  0.1698  0.5400
  780SOL    HW1 3118   0.182   0.154   2.823  3.2570  0.4073 -0.7897
  780SOL    HW2 3119   0.179   0.106   2.679 -1.0808 -1.6287  0.1061
  780SOL     MW 3120   0.214   0.103   2.758  0.3758 -0.0362  0.3073
  781SOL     OW 3121   3.068   1.287   2.507  0.3851 -0.0517 -0.1106
  781SOL    HW1 3122   3.037   1.341   2.434  1.3368 -0.6795 -1.4147
  781SOL    HW2 3123   3.076   1.196   2.477 -1.0466 -1.9944  0.6607
  781SOL     MW 3124   3.065   1.282   2.494  0.3218 -0.3908 -0.1809
  782SOL     OW 3125   0.529   1.527   2.993 -0.1096  0.8325 -0.3087
  782SOL    HW1 3126   0.491   1.618   2.992  0.6259 -0.0830  1.3193
  782SOL    HW2 3127   0.506   1.499   3.078 -1.5862  1.4173  0.9555
  782SOL     MW 3128   0.521   1.535   3.004 -0.2074  0.7888  0.0729
  783SOL     OW 3129   2.790   0.487   2.476  0.5736 -0.1657 -0.1708
  783SOL    HW1 3130   2.733   0.501   2.399  0.4151 -1.1299  1.5849
  783SOL    HW2 3131   2.738   0.448   2.551  2.4583  0.1137  0.1941
  783SOL     MW 3132   2.776   0.484   2.476  0.8013 -0.2561  0.1090
  784SOL     OW 3133   0.231   0.920   2.907 -0.2541 -0.8479 -0.1851
  784SOL    HW1 3134   0.204   0.993   2.974  2.5309  1.7594  3.0775
  784SOL    HW2 3135   0.227   0.968   2.819 -0.8231  0.4277  0.4217
  784SOL     MW 3136   0.227   0.936   2.904  0.0383 -0.3356  0.3254
  785SOL     OW 3137   0.452   0.527   2.172 -0.0663  0.2104 -0.4232
  785SOL    HW1 3138   0.420   0.557   2.087  2.2263  0.7194  1.0003
  785SOL    HW2 3139   0.385   0.458   2.194  2.6596 -2.4438 -1.8050
  785SOL     MW 3140   0.439   0.522   2.163  0.5959 -0.0727 -0.4177
  786SOL     OW 3141   1.972   0.471   2.824  0.6828 -0.0311  0.8385
  786SOL    HW1 3142   1.978   0.527   2.908 -1.1993  3.7957 -0.1840
  786SOL    HW2 3143   2.065   0.488   2.794  1.4022 -0.5633  1.6062
  786SOL     MW 3144   1.985   0.481   2.831  0.5294  0.4036  0.8049
  787SOL     OW 3145   2.454   0.117   2.914 -0.2786 -0.2849 -0.7406
  787SOL    HW1 3146   2.500   0.045   2.865  1.0685 -0.8312  1.5313
  787SOL    HW2 3147   2.525   0.166   2.964  0.7873  1.2983  1.1215
  787SOL     MW 3148   2.469   0.114   2.914  0.0398 -0.1481 -0.1951
  788SOL     OW 3149   2.883   2.861   2.345  1.0252 -0.3871 -0.2358
  788SOL    HW1 3150   2.839   2.798   2.284 -0.0845  0.7827  1.0289
  788SOL    HW2 3151   2.972   2.819   2.370  0.5660  2.0378 -1.4120
  788SOL     MW 3152   2.889   2.847   2.340  0.8182  0.0872 -0.2241
  789SOL     OW 3153   0.088   0.235   2.937 -0.2522 -0.2915  0.0918
  789SOL    HW1 3154   0.033   0.206   3.004  0.7748 -0.7336  1.6796
  789SOL    HW2 3155   0.082   0.327   2.954 -0.2811  0.6374  0.5783
  789SOL     MW 3156   0.080   0.243   2.948 -0.1205 -0.2273  0.3655
  790SOL     OW 3157   0.015   1.023   2.436  0.4338  0.0889  0.3293
  790SOL    HW1 3158  -0.029   0.985   2.519 -0.5722  0.9853  2.5988
  790SOL    HW2 3159  -0.061   1.013   2.379 -1.3602 -0.4286 -2.4395
  790SOL     MW 3160  -0.001   1.017   2.440  0.0644  0.1389  0.2634
  791SOL     OW 3161   2.661   0.387   2.674 -0.1488  0.8702  0.4165
  791SOL    HW1 3162   2.595   0.460   2.681 -1.5927 -1.0837  1.6553
  791SOL    HW2 3163   2.728   0.394   2.744 -0.5653 -0.7045 -0.8506
  791SOL     MW 3164   2.661   0.398   2.684 -0.3943  0.4046  0.4128
  792SOL     OW 3165   2.441   0.232   2.358 -0.2366  0.7012 -0.0964
  792SOL    HW1 3166   2.363   0.284   2.382 -1.9208  1.6631 -1.5758
  792SOL    HW2 3167   2.493   0.198   2.438 -0.6914 -0.9910  2.5242
  792SOL     MW 3168   2.438   0.234   2.372 -0.5188  0.6048  0.0542
  793SOL     OW 3169   1.787   1.023   1.920 -0.1781 -0.3446 -1.0996
  793SOL    HW1 3170   1.769   1.060   1.836  1.7480  1.7960  1.3673
  793SOL    HW2 3171   1.869   0.968   1.903  1.8420 -1.2127 -0.9326
  793SOL     MW 3172   1.795   1.020   1.907  0.3426 -0.1767 -0.7521
  794SOL     OW 3173   1.447   2.247   0.109 -0.8420  0.0392 -0.3335
  794SOL    HW1 3174   1.476   2.318   0.046  1.8528  0.4999  0.1174
  794SOL    HW2 3175   1.492   2.268   0.194  0.3585  0.6000  0.4771
  794SOL     MW 3176   1.457   2.259   0.112 -0.3281  0.1740 -0.1671
  795SOL     OW 3177   2.260   0.959   2.605 -0.7947 -0.2633 -0.2940
  795SOL    HW1 3178   2.257   1.030   2.670  0.5137  0.4672  0.5448
  795SOL    HW2 3179   2.278   0.993   2.515  0.6884 -0.6051  1.5443
  795SOL     MW 3180   2.262   0.972   2.602 -0.4264 -0.2120  0.0592
  796SOL     OW 3181   0.311   0.680   2.753  0.7207  0.5718  0.0124
  796SOL    HW1 3182   0.274   0.736   2.821 -0.8279 -1.0110 -0.2052
  796SOL    HW2 3183   0.228   0.661   2.704  2.2774  2.1894 -0.3569
  796SOL     MW 3184   0.295   0.685   2.756  0.7218  0.5764 -0.0651
  797SOL     OW 3185   2.603   0.143   2.547  0.4825  0.0725 -0.3540
  797SOL    HW1 3186   2.635   0.215   2.607 -2.2716 -2.2772 -2.5436
  797SOL    HW2 3187   2.677   0.112   2.496 -1.4835  1.1637 -0.5357
  797SOL     MW 3188   2.617   0.149   2.548 -0.1403 -0.0935 -0.6669
  798SOL     OW 3189   2.347   0.028   2.206  0.0555 -0.1195  0.5433
  798SOL    HW1 3190   2.375   0.082   2.279 -0.9791 -1.1924 -4.7895
  798SOL    HW2 3191   2.434   0.003   2.172 -0.0548  0.5302 -1.6778
  798SOL     MW 3192   2.362   0.032   2.211 -0.0955 -0.1753 -0.4533
  799SOL     OW 3193   2.447   2.950   0.192 -0.3333 -0.4025  0.0725
  799SOL    HW1 3194   2.443   2.904   0.105  1.1751  1.7761 -0.8767
  799SOL    HW2 3195   2.368   3.002   0.201  3.4345  1.4938  0.7172
  799SOL     MW 3196   2.436   2.951   0.181  0.3628  0.1352  0.0323
  800SOL     OW 3197   1.853   3.051   1.773  0.2591  0.5599 -0.0937
  800SOL    HW1 3198   1.789   2.985   1.804  1.8686  0.2878  0.5542
  800SOL    HW2 3199   1.920   3.064   1.841 -0.8815  0.8186  1.4621
  800SOL     MW 3200   1.854   3.044   1.786  0.3210  0.5581  0.1971
  801SOL     OW 3201   2.808   1.297   2.619 -0.1237 -0.1800  0.0999
  801SOL    HW1 3202   2.776   1.204   2.607 -0.9538  0.3089  0.9782
  801SOL    HW2 3203   2.900   1.292   2.581 -2.0241 -0.6732 -1.7602
  801SOL     MW 3204   2.816   1.284   2.612 -0.4840 -0.1805 -0.0296
  802SOL     OW 3205   2.543   1.506   2.822 -0.1706  0.2087  0.2719
  802SOL    HW1 3206   2.529   1.417   2.774  0.2679 -0.7872  0.2715
  802SOL    HW2 3207   2.630   1.500   2.846  0.1579 -3.4033 -0.7055
  802SOL     MW 3208   2.552   1.493   2.818 -0.0694 -0.3993  0.1429
  803SOL     OW 3209   2.310   1.273   1.945 -0.4252 -0.0980  0.3884
  803SOL    HW1 3210   2.270   1.236   2.024 -1.4182 -0.4542  0.3914
  803SOL    HW2 3211   2.298   1.207   1.880  1.2187  1.7151  1.1613
  803SOL     MW 3212   2.303   1.259   1.947 -0.3393  0.0942  0.4907
  804SOL     OW 3213   2.293   0.067   0.050  0.2320  0.2599 -0.2079
  804SOL    HW1 3214   2.220   0.125   0.040  1.9529  0.4947 -3.2145
  804SOL    HW2 3215   2.351   0.067  -0.026 -0.0441  0.1865 -0.6648
  804SOL     MW 3216   2.291   0.075   0.039  0.4226  0.2812 -0.6649
  805SOL     OW 3217   2.710   1.046   2.598  1.0552  0.3951  0.4677
  805SOL    HW1 3218   2.647   0.982   2.563  1.9529  1.2625  1.1220
  805SOL    HW2 3219   2.787   0.998   2.631 -1.1538  0.6396 -0.2762
  805SOL     MW 3220   2.711   1.031   2.598  0.8822  0.5418  0.4559
  806SOL     OW 3221   2.619   0.422   2.276 -0.0667 -0.3907 -0.0919
  806SOL    HW1 3222   2.539   0.365   2.292  0.5919  1.6098  0.1133
  806SOL    HW2 3223   2.670   0.375   2.213  2.9856 -0.8642  1.7594
  806SOL     MW 3224   2.615   0.408   2.270  0.4229 -0.1893  0.1794
  807SOL     OW 3225   3.079   1.105   2.121 -0.3680  0.3720  0.0171
  807SOL    HW1 3226   3.137   1.041   2.083 -2.4701 -2.2165 -0.4733
  807SOL    HW2 3227   3.012   1.050   2.156  1.1010 -0.6520  0.8045
  807SOL     MW 3228   3.078   1.089   2.121 -0.4515 -0.1046  0.0563
  808SOL     OW 3229   2.624   3.055   2.770 -0.2370 -0.7276  0.2997
  808SOL    HW1 3230   2.582   2.977   2.741  1.3005 -0.0445  0.1588
  808SOL    HW2 3231   2.616   3.120   2.693  1.6706 -1.9787  0.7955
  808SOL     MW 3232   2.618   3.053   2.756  0.2175 -0.8025  0.3466
  809SOL     OW 3233   2.526   1.225   2.395 -0.7619 -0.2529 -0.1153
  809SOL    HW1 3234   2.581   1.194   2.468  0.2147 -0.6067  3.7193
  809SOL    HW2 3235   2.584   1.272   2.331 -1.4180  0.1977  1.2165
  809SOL     MW 3236   2.541   1.227   2.396 -0.7196 -0.2401  0.5663
  810SOL     OW 3237   2.195   1.187   2.207  0.1020 -0.5991 -0.2092
  810SOL    HW1 3238   2.253   1.117   2.239  3.6516  2.0608 -0.0477
  810SOL    HW2 3239   2.109   1.153   2.192  2.5063  0.3415  0.4873
  810SOL     MW 3240   2.191   1.173   2.209  0.8876 -0.1241 -0.0960
  811SOL     OW 3241   1.540   0.104   2.284 -0.3496  0.5725  0.2094
  811SOL    HW1 3242   1.613   0.038   2.313  2.6043 -3.0622  0.9497
  811SOL    HW2 3243   1.550   0.101   2.191 -2.0722  1.3631 -2.7805
  811SOL     MW 3244   1.551   0.095   2.276 -0.1871  0.1973 -0.0874
  812SOL     OW 3245   1.429   2.790   2.043 -0.3491 -0.2619  0.1620
  812SOL    HW1 3246   1.518   2.771   2.074 -0.5893  1.5371 -2.4785
  812SOL    HW2 3247   1.377   2.765   2.120  0.2906  0.1203  1.5436
  812SOL     MW 3248   1.434   2.784   2.057 -0.2964  0.0259 -0.0041
  813SOL     OW 3249   1.832   0.746   2.193  0.1944 -0.2115 -0.2798
  813SOL    HW1 3250   1.786   0.677   2.241 -0.1124  1.0009 -1.9725
  813SOL    HW2 3251   1.892   0.783   2.258  2.2846 -0.1739 -1.1881
  813SOL     MW 3252   1.834   0.741   2.208  0.4297 -0.0466 -0.6230
  814SOL     OW 3253   2.742   1.255   1.582 -0.0398  0.2308 -0.3556
  814SOL    HW1 3254   2.686   1.230   1.653 -0.9174 -0.9635 -0.3941
  814SOL    HW2 3255   2.740   1.189   1.514  1.3105 -0.2846  0.7623
  814SOL     MW 3256   2.734   1.243   1.583  0.0226  0.0052 -0.2132
  815SOL     OW 3257   2.489   1.668   2.398  0.1758  0.2622 -0.2692
  815SOL    HW1 3258   2.426   1.600   2.379 -1.3808 -1.8163  1.1859
  815SOL    HW2 3259   2.573   1.623   2.420 -0.9186 -0.9767 -0.5186
  815SOL     MW 3260   2.492   1.653   2.398 -0.1740 -0.1755 -0.1101
  816SOL     OW 3261   0.718   0.641   2.741 -0.6960 -0.2851  0.7367
  816SOL    HW1 3262   0.737   0.566   2.792 -1.9744 -1.5344 -2.6173
  816SOL    HW2 3263   0.645   0.623   2.676  0.2328 -1.8477 -3.5066
  816SOL     MW 3264   0.711   0.629   2.739 -0.7421 -0.6561 -0.2657
  817SOL     OW 3265   3.037   1.127   1.400 -0.6244  0.4872  1.0995
  817SOL    HW1 3266   3.070   1.141   1.487 -1.3739 -0.9395 -0.2903
  817SOL    HW2 3267   3.005   1.214   1.371  1.0900 -1.9480  1.1062
  817SOL     MW 3268   3.037   1.140   1.407 -0.4971 -0.0223  0.9171
  818SOL     OW 3269   1.912   1.025   2.725  0.3533 -0.2275  0.4422
  818SOL    HW1 3270   1.947   0.986   2.645  0.4076 -1.1649  0.4054
  818SOL    HW2 3271   1.975   0.994   2.790 -0.9093 -0.9732 -0.8002
  818SOL     MW 3272   1.925   1.015   2.723  0.1939 -0.4495  0.2734
  819SOL     OW 3273   1.868   0.210   2.415 -0.8210  0.8345  0.0417
  819SOL    HW1 3274   1.817   0.289   2.426  0.9306  1.4166 -1.2713
  819SOL    HW2 3275   1.905   0.190   2.509  1.3131 -0.8389  0.7365
  819SOL     MW 3276   1.866   0.218   2.429 -0.3083  0.6905 -0.0399
  820SOL     OW 3277   2.498   1.731   2.671  0.0622  0.0848  0.0315
  820SOL    HW1 3278   2.518   1.649   2.719 -1.0861 -2.9644 -0.5506
  820SOL    HW2 3279   2.480   1.704   2.584  2.8578 -0.0870  1.8797
  820SOL     MW 3280   2.498   1.717   2.666  0.2795 -0.3402  0.1985
  821SOL     OW 3281   2.590   1.366   1.976  0.0891  0.1018  0.9967
  821SOL    HW1 3282   2.603   1.444   1.921 -0.2570 -2.1017 -0.3437
  821SOL    HW2 3283   2.496   1.342   1.971  0.3029  0.7298 -0.1410
  821SOL     MW 3284   2.579   1.373   1.968  0.0717 -0.1061  0.6697
  822SOL     OW 3285   2.853   2.695   1.441  0.2047 -0.3360 -0.2779
  822SOL    HW1 3286   2.907   2.770   1.455 -2.9585 -1.8273 -1.7702
  822SOL    HW2 3287   2.780   2.727   1.390  0.6527 -1.3672 -0.3015
  822SOL     MW 3288   2.850   2.709   1.436 -0.1536 -0.6688 -0.4779
  823SOL     OW 3289   2.285   0.479   1.778  0.0468  0.0305  0.8137
  823SOL    HW1 3290   2.370   0.463   1.735  2.6928  0.0232  1.0970
  823SOL    HW2 3291   2.233   0.400   1.758  0.8493  1.8357 -0.6303
  823SOL     MW 3292   2.290   0.467   1.770  0.5018  0.2677  0.6606
  824SOL     OW 3293   2.086   1.383   2.502  0.1022 -0.9649 -0.0166
  824SOL    HW1 3294   2.144   1.428   2.432  1.6662 -0.9345  1.9417
  824SOL    HW2 3295   2.067   1.465   2.549  0.4398 -1.4947 -1.1404
  824SOL     MW 3296   2.091   1.400   2.499  0.3531 -1.0307  0.0935
  825SOL     OW 3297   2.146   2.506   0.390  0.4045 -0.4557  0.0390
  825SOL    HW1 3298   2.153   2.448   0.317  1.9735 -0.0077  2.7997
  825SOL    HW2 3299   2.173   2.456   0.467 -1.0123 -3.2728  1.7408
  825SOL     MW 3300   2.150   2.492   0.390  0.4246 -0.7683  0.6278
  826SOL     OW 3301   1.784   2.378   0.468 -0.1749 -0.2234 -0.0645
  826SOL    HW1 3302   1.807   2.296   0.511  4.0690  1.1835 -3.7365
  826SOL    HW2 3303   1.815   2.446   0.522 -1.8632 -0.6829  2.1642
  826SOL     MW 3304   1.791   2.376   0.481  0.1623 -0.0984 -0.2549
  827SOL     OW 3305   1.933   2.242   0.892 -0.1442  0.1180  0.2775
  827SOL    HW1 3306   1.876   2.263   0.821  1.5201 -0.2813 -0.4514
  827SOL    HW2 3307   1.904   2.162   0.930 -3.0790  1.6969 -1.9641
  827SOL     MW 3308   1.922   2.234   0.888 -0.3118  0.2737 -0.1144
  828SOL     OW 3309   0.088   2.622   0.542 -0.5227  1.0195  0.4809
  828SOL    HW1 3310   0.184   2.609   0.547  0.7935 -0.3945  2.1718
  828SOL    HW2 3311   0.072   2.672   0.462  1.3361 -0.0873 -2.7348
  828SOL     MW 3312   0.098   2.627   0.532 -0.1038  0.6869  0.2797
  829SOL     OW 3313   3.014   2.889   1.194  0.2360  0.0287 -0.4852
  829SOL    HW1 3314   2.945   2.870   1.141  0.0436  0.2041 -1.0992
  829SOL    HW2 3315   3.078   2.820   1.182 -1.8230  0.3440  1.7184
  829SOL     MW 3316   3.014   2.878   1.186 -0.0610  0.0935 -0.2755
  830SOL     OW 3317   2.548   2.804   2.019  0.1615 -0.0209  0.2767
  830SOL    HW1 3318   2.453   2.824   1.991 -2.0256 -0.1156 -3.2828
  830SOL    HW2 3319   2.589   2.798   1.933  2.2946  0.0153  2.7524
  830SOL     MW 3320   2.541   2.806   2.004  0.1544 -0.0286  0.1337
  831SOL     OW 3321   2.482   2.445   1.203  0.2820  0.4241 -0.3060
  831SOL    HW1 3322   2.442   2.410   1.279 -1.4718 -0.2966  1.2987
  831SOL    HW2 3323   2.574   2.413   1.201  1.1660 -3.4592 -1.7431
  831SOL     MW 3324   2.489   2.436   1.213  0.1672 -0.1834 -0.2839
  832SOL     OW 3325   2.418   2.109   1.793  0.9172  0.0540  0.0368
  832SOL    HW1 3326   2.436   2.199   1.838  0.0598  0.9129 -1.6682
  832SOL    HW2 3327   2.501   2.096   1.749 -1.3421  2.4703 -1.6927
  832SOL     MW 3328   2.431   2.120   1.793  0.5060  0.4861 -0.4163
  833SOL     OW 3329   1.745   2.567   0.929 -0.7539  0.4740  0.2081
  833SOL    HW1 3330   1.677   2.511   0.950  4.9471  2.5603 -2.9140
  833SOL    HW2 3331   1.719   2.643   0.980 -1.4379  0.4276 -3.0351
  833SOL     MW 3332   1.733   2.570   0.938 -0.0920  0.7431 -0.6317
  834SOL     OW 3333   2.289   2.336   0.623  0.1554  0.3023  0.5515
  834SOL    HW1 3334   2.255   2.262   0.675 -2.1627 -1.7335 -0.9871
  834SOL    HW2 3335   2.387   2.315   0.622  3.6855  0.0322  2.1112
  834SOL     MW 3336   2.297   2.323   0.630  0.3153 -0.0019  0.5543
  835SOL     OW 3337   1.846   2.580   0.655 -0.6435 -0.3704 -0.1778
  835SOL    HW1 3338   1.822   2.559   0.745  0.1377 -1.1604 -0.6680
  835SOL    HW2 3339   1.915   2.645   0.657  2.3612 -1.8747 -1.5897
  835SOL     MW 3340   1.852   2.586   0.667 -0.1440 -0.6731 -0.4287
  836SOL     OW 3341   2.045   2.187   1.642  0.0259 -0.4183  0.3490
  836SOL    HW1 3342   2.123   2.138   1.602 -0.1849 -0.5661  0.0938
  836SOL    HW2 3343   2.085   2.256   1.695 -2.7645 -0.9825  1.1036
  836SOL     MW 3344   2.061   2.190   1.644 -0.3701 -0.5122  0.4149
  837SOL     OW 3345   2.077   0.202   0.692 -0.0439 -0.3731 -0.7454
  837SOL    HW1 3346   2.005   0.227   0.640  2.7748 -1.7906  1.9530
  837SOL    HW2 3347   2.126   0.149   0.632 -2.1946  2.5328 -1.4263
  837SOL     MW 3348   2.074   0.198   0.677  0.0442 -0.1767 -0.4792
  838SOL     OW 3349   2.860   2.093   0.965  0.0678  0.3258 -0.0306
  838SOL    HW1 3350   2.795   2.025   0.963  0.7032  0.9456 -0.6796
  838SOL    HW2 3351   2.904   2.069   1.044  1.4989 -1.3464 -2.7867
  838SOL     MW 3352   2.857   2.081   0.975  0.3404  0.1869 -0.4798
  839SOL     OW 3353   1.536   2.402   0.982  0.2316 -0.0892  0.3520
  839SOL    HW1 3354   1.509   2.482   1.026 -0.5371 -2.3757 -2.2055
  839SOL    HW2 3355   1.578   2.340   1.039 -1.2159  3.8628 -2.3788
  839SOL     MW 3356   1.538   2.404   0.996 -0.0608  0.1305 -0.3458
  840SOL     OW 3357   2.308   2.114   2.434  0.9533  0.0683  0.1838
  840SOL    HW1 3358   2.282   2.188   2.368  3.6775  0.5937 -1.6997
  840SOL    HW2 3359   2.391   2.142   2.482  3.2186 -2.4621  1.0099
  840SOL     MW 3360   2.316   2.127   2.432  1.6116 -0.1962  0.0443
  841SOL     OW 3361   2.268   2.383   0.052  0.3000 -0.1218  0.0888
  841SOL    HW1 3362   2.269   2.447  -0.018 -0.0936 -0.0069 -3.0316
  841SOL    HW2 3363   2.198   2.317   0.029  1.1340 -1.8213  2.9506
  841SOL     MW 3364   2.259   2.382   0.040  0.3581 -0.3309  0.0546
  842SOL     OW 3365   2.661   1.993   1.416  0.4724 -0.2108  0.1758
  842SOL    HW1 3366   2.620   1.910   1.449 -1.0429  2.5762  1.7183
  842SOL    HW2 3367   2.618   2.025   1.327 -0.3366  3.2386 -3.3360
  842SOL     MW 3368   2.650   1.987   1.409  0.1658  0.6120 -0.0840
  843SOL     OW 3369   2.648   2.774   1.768 -0.1519  0.1984 -0.4514
  843SOL    HW1 3370   2.734   2.734   1.778 -0.0486 -0.1609 -0.7590
  843SOL    HW2 3371   2.583   2.702   1.755  1.3210  0.5570 -0.6324
  843SOL     MW 3372   2.651   2.759   1.767  0.0560  0.1983 -0.5159
  844SOL     OW 3373   2.737   2.324   1.153  0.7143 -0.0381  0.1988
  844SOL    HW1 3374   2.765   2.340   1.060  0.1640 -1.1832 -1.8979
  844SOL    HW2 3375   2.797   2.369   1.212 -0.4528 -1.4618 -4.1468
  844SOL     MW 3376   2.749   2.332   1.149  0.4877 -0.3770 -0.6512
  845SOL     OW 3377   2.861   2.600   0.301  0.1965 -0.1530 -0.3562
  845SOL    HW1 3378   2.837   2.515   0.342 -1.0339 -1.3840 -2.4592
  845SOL    HW2 3379   2.838   2.664   0.375 -1.3844  2.0951 -1.2150
  845SOL     MW 3380   2.855   2.597   0.316 -0.1744 -0.0188 -0.7470
  846SOL     OW 3381   1.491   2.801   0.848 -0.5769  0.5132 -0.7137
  846SOL    HW1 3382   1.562   2.861   0.862 -0.1273  0.8438 -1.1026
  846SOL    HW2 3383   1.424   2.858   0.818 -0.6893  0.8899 -2.1793
  846SOL     MW 3384   1.492   2.816   0.846 -0.5324  0.6065 -0.9584
  847SOL     OW 3385   2.477   1.887   0.164 -0.1912  0.1293  0.2260
  847SOL    HW1 3386   2.468   1.798   0.217 -0.6803  0.9600  0.4223
  847SOL    HW2 3387   2.447   1.879   0.071  2.8839 -1.1029  0.7979
  847SOL     MW 3388   2.472   1.874   0.159  0.1500  0.0764  0.3273
  848SOL     OW 3389   2.581   2.116   1.202 -0.1214 -0.0428 -0.5111
  848SOL    HW1 3390   2.637   2.194   1.180 -1.8070  2.5241 -1.0990
  848SOL    HW2 3391   2.581   2.066   1.120  4.3300 -2.0212 -0.5736
  848SOL     MW 3392   2.588   2.120   1.188  0.2435  0.0348 -0.5969
  849SOL     OW 3393   1.998   2.786   0.794 -0.0699  1.1469 -0.5055
  849SOL    HW1 3394   1.995   2.764   0.888  0.0715 -1.6634  1.4462
  849SOL    HW2 3395   2.082   2.764   0.752 -3.6187  1.1613 -2.0352
  849SOL     MW 3396   2.009   2.780   0.801 -0.5195  0.7780 -0.4498
  850SOL     OW 3397   2.317   1.799   1.626  0.5159  0.1130 -0.3081
  850SOL    HW1 3398   2.227   1.768   1.606 -3.1520  0.8867  2.1769
  850SOL    HW2 3399   2.311   1.894   1.597  1.9540  0.4557 -0.0080
  850SOL     MW 3400   2.305   1.807   1.620  0.2217  0.2603  0.0594
  851SOL     OW 3401   2.370   2.350   0.323 -0.0088 -0.5921 -0.0929
  851SOL    HW1 3402   2.365   2.388   0.237  0.2304 -0.2666  0.4906
  851SOL    HW2 3403   2.429   2.406   0.376  2.3699  1.0859 -0.1320
  851SOL     MW 3404   2.377   2.362   0.319  0.3366 -0.3278 -0.0211
  852SOL     OW 3405   2.341   2.052   0.316  0.1966 -0.6125  0.0231
  852SOL    HW1 3406   2.374   2.139   0.297 -2.8225  0.2605 -0.3266
  852SOL    HW2 3407   2.386   2.001   0.247  1.9799  1.1157  2.3854
  852SOL     MW 3408   2.351   2.057   0.304  0.0336 -0.2693  0.2887
  853SOL     OW 3409   2.470   2.350   1.915  0.7678  0.0790 -0.2849
  853SOL    HW1 3410   2.470   2.427   1.859 -0.2218 -1.5483  1.9752
  853SOL    HW2 3411   2.549   2.355   1.963 -0.4418 -1.6630  0.4688
  853SOL     MW 3412   2.480   2.361   1.914  0.4776 -0.3656  0.1127
  854SOL     OW 3413   2.857   2.218   0.707 -0.1441 -0.3862 -0.1206
  854SOL    HW1 3414   2.766   2.196   0.679 -0.9456  0.9013 -1.8374
  854SOL    HW2 3415   2.873   2.165   0.787 -0.3326  0.5434 -0.4828
  854SOL     MW 3416   2.847   2.208   0.714 -0.2747 -0.0937 -0.3949
  855SOL     OW 3417   2.745   2.362   0.397  0.4911 -0.2332  0.6943
  855SOL    HW1 3418   2.691   2.354   0.471 -0.8995 -1.1933 -0.9188
  855SOL    HW2 3419   2.754   2.271   0.368 -0.5471 -0.3940  0.0690
  855SOL     MW 3420   2.739   2.349   0.403  0.1706 -0.3811  0.3990
  856SOL     OW 3421   2.094   1.885   0.199 -0.1134 -0.0606  0.7598
  856SOL    HW1 3422   2.003   1.883   0.235 -0.8029  0.4443 -0.9205
  856SOL    HW2 3423   2.155   1.938   0.253  0.8848  0.7112 -3.0570
  856SOL     MW 3424   2.090   1.892   0.211 -0.0727  0.1078  0.0345
  857SOL     OW 3425   2.498   1.945   0.546  0.1295 -0.1537 -0.2058
  857SOL    HW1 3426   2.440   1.972   0.473  0.1930 -0.4464 -0.8138
  857SOL    HW2 3427   2.445   1.879   0.584 -1.0725 -1.7763 -1.4953
  857SOL     MW 3428   2.483   1.940   0.541 -0.0207 -0.4064 -0.4562
  858SOL     OW 3429   2.917   2.656   1.793  0.0709 -0.0748  0.2504
  858SOL    HW1 3430   3.011   2.665   1.775 -0.6360 -0.9891 -3.0240
  858SOL    HW2 3431   2.893   2.569   1.757  0.6503  1.7700 -1.6580
  858SOL     MW 3432   2.926   2.646   1.786  0.0541  0.0480 -0.4334
  859SOL     OW 3433   1.947   2.743   1.064 -0.6945  0.1015  0.0685
  859SOL    HW1 3434   1.924   2.651   1.059  2.0808  0.7560 -0.7523
  859SOL    HW2 3435   2.041   2.749   1.057 -2.5120  0.5959 -0.9945
  859SOL     MW 3436   1.956   2.732   1.063 -0.5681  0.2531 -0.1800
  860SOL     OW 3437   2.612   2.662   0.149 -0.4454  0.1974 -0.4681
  860SOL    HW1 3438   2.689   2.642   0.217  0.9297  0.3403  3.6513
  860SOL    HW2 3439   2.650   2.726   0.091 -2.0278 -1.0127 -0.9883
  860SOL     MW 3440   2.628   2.668   0.150 -0.4727  0.0566  0.0067
  861SOL     OW 3441   1.644   2.184   1.162  0.1391 -0.7794  0.4460
  861SOL    HW1 3442   1.639   2.251   1.232  0.0369 -1.2574  3.4358
  861SOL    HW2 3443   1.594   2.110   1.202 -1.5017  0.1923  1.1877
  861SOL     MW 3444   1.637   2.183   1.177 -0.0909 -0.7142  0.9383
  862SOL     OW 3445   2.531   1.769   1.453  0.0843  0.0188 -0.1661
  862SOL    HW1 3446   2.456   1.769   1.516 -1.7128 -2.8582 -1.8097
  862SOL    HW2 3447   2.488   1.747   1.364 -0.0296  1.8592 -1.1089
  862SOL     MW 3448   2.515   1.766   1.450 -0.1679 -0.1180 -0.5073
  863SOL     OW 3449   3.005   1.767   1.015  0.2360 -0.3652 -0.3241
  863SOL    HW1 3450   3.065   1.800   1.080 -2.0273  1.4677  1.2603
  863SOL    HW2 3451   2.925   1.812   1.040 -0.2084 -3.3883  2.1159
  863SOL     MW 3452   3.002   1.777   1.027 -0.1212 -0.5222  0.2069
  864SOL     OW 3453   0.038   1.845   0.787 -0.2674  0.0841 -0.6931
  864SOL    HW1 3454  -0.018   1.842   0.862  1.8923 -0.0710 -1.9148
  864SOL    HW2 3455  -0.008   1.807   0.715 -0.4051 -1.0775  0.3241
  864SOL     MW 3456   0.025   1.840   0.788 -0.0006 -0.0896 -0.7201
  865SOL     OW 3457   2.637   2.156   0.068  0.1051  0.0890 -0.3194
  865SOL    HW1 3458   2.644   2.076   0.117  0.5758  0.9342  3.1962
  865SOL    HW2 3459   2.576   2.154  -0.004 -0.9770  0.6279  1.1279
  865SOL     MW 3460   2.630   2.145   0.065  0.0244  0.2716  0.3354
  866SOL     OW 3461   2.631   2.364   1.557  0.5303  0.2572 -0.8092
  866SOL    HW1 3462   2.634   2.270   1.596 -0.0983 -0.8722  0.2517
  866SOL    HW2 3463   2.704   2.369   1.499 -0.5508  0.6589 -1.5756
  866SOL     MW 3464   2.641   2.352   1.554  0.3047  0.1612 -0.7704
  867SOL     OW 3465   0.077   2.690   1.763  0.3207  0.3641  0.2322
  867SOL    HW1 3466   0.129   2.735   1.827  0.0066  0.0316 -0.4436
  867SOL    HW2 3467   0.100   2.739   1.688  2.0481 -1.9543  3.6479
  867SOL     MW 3468   0.087   2.702   1.761  0.5072  0.0143  0.5937
  868SOL     OW 3469   2.742   2.686   0.564  0.8729 -0.2073  0.1546
  868SOL    HW1 3470   2.694   2.610   0.543 -0.2144  0.6576 -1.9554
  868SOL    HW2 3471   2.665   2.745   0.541 -0.5245 -0.9168 -2.5033
  868SOL     MW 3472   2.726   2.684   0.558  0.5451 -0.1868 -0.4745
  869SOL     OW 3473   2.081   2.431   1.007 -0.4841  0.4206  0.3421
  869SOL    HW1 3474   2.164   2.430   0.962  0.8356 -0.4098  2.7004
  869SOL    HW2 3475   2.029   2.365   0.963 -1.5662  1.6433  2.0335
  869SOL     MW 3476   2.085   2.422   0.995 -0.4528  0.4723  0.8764
  870SOL     OW 3477   2.186   0.072   0.471  0.2261 -0.8900  0.1580
  870SOL    HW1 3478   2.249   0.115   0.406  0.6689  3.3054 -1.8984
  870SOL    HW2 3479   2.224  -0.015   0.469 -1.2548  1.3014 -0.2109
  870SOL     MW 3480   2.199   0.066   0.462  0.0892 -0.0473 -0.1620
  871SOL     OW 3481   2.502   2.104   0.888  0.4450  0.0736  0.5059
  871SOL    HW1 3482   2.440   2.054   0.827 -0.4554 -0.3929 -1.3594
  871SOL    HW2 3483   2.449   2.166   0.938  0.5590 -1.1639  0.0992
  871SOL     MW 3484   2.487   2.105   0.887  0.3412 -0.1512  0.2061
  872SOL     OW 3485   2.066   2.575   1.500  0.2405  0.3004 -0.1566
  872SOL    HW1 3486   1.996   2.623   1.546  2.3254  1.2234  1.6360
  872SOL    HW2 3487   2.031   2.535   1.421 -1.4305 -2.9445 -0.5675
  872SOL     MW 3488   2.052   2.576   1.496  0.2951 -0.0060  0.0257
  873SOL     OW 3489   2.827   2.076   1.876 -0.2877 -0.1297 -0.6809
  873SOL    HW1 3490   2.805   2.141   1.940  1.2658 -2.2722 -2.4115
  873SOL    HW2 3491   2.912   2.110   1.849 -0.0381 -1.4114  2.3189
  873SOL     MW 3492   2.835   2.089   1.881 -0.0498 -0.5815 -0.5134
  874SOL     OW 3493   2.320   1.427   2.331 -0.3559 -0.0832 -0.1950
  874SOL    HW1 3494   2.274   1.377   2.262  0.0104 -0.5882 -1.0616
  874SOL    HW2 3495   2.379   1.363   2.368 -0.2129  0.1352 -2.6845
  874SOL     MW 3496   2.322   1.412   2.327 -0.2887 -0.1210 -0.6378
  875SOL     OW 3497   2.364   2.343   0.970  0.2655  0.3673 -0.4319
  875SOL    HW1 3498   2.402   2.383   0.893 -0.1906 -0.0873  1.0692
  875SOL    HW2 3499   2.400   2.388   1.051 -1.4600 -0.6027  0.3737
  875SOL     MW 3500   2.374   2.354   0.971 -0.0223  0.1793 -0.1275
  876SOL     OW 3501   3.065   2.249   1.275  0.0706 -0.0926  0.6280
  876SOL    HW1 3502   3.098   2.298   1.203 -0.6476 -1.6228  0.0457
  876SOL    HW2 3503   3.140   2.258   1.338  2.0456  4.0041 -1.5540
  876SOL     MW 3504   3.079   2.256   1.274  0.2364  0.2460  0.2633
  877SOL     OW 3505   0.033   2.790   0.331  0.9595 -0.0934  0.6539
  877SOL    HW1 3506   0.095   2.859   0.317 -0.4517  0.0024  1.4733
  877SOL    HW2 3507   0.030   2.721   0.263 -0.2262  0.9123  0.2478
  877SOL     MW 3508   0.041   2.790   0.320  0.6169  0.0519  0.7084
  878SOL     OW 3509   2.404   1.734   1.218 -0.8224  0.1818 -0.7692
  878SOL    HW1 3510   2.325   1.694   1.255  0.0048 -2.0749  0.3152
  878SOL    HW2 3511   2.447   1.656   1.185  0.6800 -1.2561  0.5702
  878SOL     MW 3512   2.400   1.718   1.219 -0.5150 -0.3057 -0.4494
  879SOL     OW 3513   2.757   2.419   0.897 -0.1629  0.7655  0.0438
  879SOL    HW1 3514   2.822   2.488   0.874  0.3730  2.3332 -2.0221
  879SOL    HW2 3515   2.787   2.353   0.836 -0.8040 -1.4705 -0.2205
  879SOL     MW 3516   2.770   2.419   0.886 -0.1768  0.6774 -0.2636
  880SOL     OW 3517   2.568   2.200   0.637  0.6360  0.4427 -0.5519
  880SOL    HW1 3518   2.569   2.182   0.734 -1.7272  0.7948  1.3699
  880SOL    HW2 3519   2.548   2.109   0.598 -0.9981 -4.1697 -3.2709
  880SOL     MW 3520   2.565   2.186   0.645  0.1086 -0.1194 -0.6571
  881SOL     OW 3521   2.978   2.749   0.687 -0.6133 -0.3596 -0.0706
  881SOL    HW1 3522   2.907   2.742   0.628  0.4630  1.1201 -2.0245
  881SOL    HW2 3523   3.052   2.708   0.635 -0.6837 -0.2652  2.1535
  881SOL     MW 3524   2.978   2.743   0.672 -0.4806 -0.1519 -0.0349
  882SOL     OW 3525   2.284   2.852   1.970  0.4577 -0.3767 -0.1798
  882SOL    HW1 3526   2.285   2.875   1.875 -0.3374 -0.1321 -2.6454
  882SOL    HW2 3527   2.227   2.773   1.969  0.8039 -0.0544 -0.3227
  882SOL     MW 3528   2.277   2.844   1.958  0.3985 -0.3019 -0.5240
  883SOL     OW 3529   2.360   2.239   1.347 -0.0757  0.5057  0.1699
  883SOL    HW1 3530   2.437   2.184   1.309  1.6296 -0.2397 -3.1633
  883SOL    HW2 3531   2.285   2.225   1.283 -0.9148  1.3875 -3.2231
  883SOL     MW 3532   2.360   2.229   1.333  0.0386  0.5237 -0.7175
  884SOL     OW 3533   1.987   1.799   1.089 -0.4506  0.3423 -0.1307
  884SOL    HW1 3534   1.927   1.873   1.084  0.8368  1.4256  1.7420
  884SOL    HW2 3535   2.071   1.843   1.103  0.3578  0.7713 -0.3330
  884SOL     MW 3536   1.990   1.815   1.090 -0.1740  0.5418  0.0897
  885SOL     OW 3537   2.809   2.390   1.765  0.2135 -0.1282 -0.3449
  885SOL    HW1 3538   2.888   2.332   1.740 -0.8741 -1.5036  0.5916
  885SOL    HW2 3539   2.745   2.385   1.696  0.7991  0.5629  0.2256
  885SOL     MW 3540   2.811   2.381   1.753  0.1473 -0.2185 -0.1461
  886SOL     OW 3541   2.851   2.388   1.400 -0.3862  0.0125  0.1417
  886SOL    HW1 3542   2.923   2.341   1.357  1.4285  1.3566 -0.1341
  886SOL    HW2 3543   2.901   2.466   1.422  0.6676 -1.3555  1.5133
  886SOL     MW 3544   2.867   2.392   1.397 -0.0077  0.0093  0.2863
  887SOL     OW 3545   2.329   2.697   1.496  0.5019 -0.2922  0.2001
  887SOL    HW1 3546   2.375   2.666   1.415  2.0976 -0.3775  1.5261
  887SOL    HW2 3547   2.259   2.632   1.497 -0.2914  0.5123 -1.3342
  887SOL     MW 3548   2.326   2.684   1.485  0.6078 -0.1973  0.1726
  888SOL     OW 3549   1.935   2.191   1.381  0.8512 -0.5017 -0.1240
  888SOL    HW1 3550   2.002   2.170   1.319 -1.2054  1.2874 -0.5108
  888SOL    HW2 3551   1.984   2.216   1.462 -0.1497  0.4412 -0.8048
  888SOL     MW 3552   1.951   2.192   1.383  0.4478 -0.1413 -0.2649
  889SOL     OW 3553   2.329   1.994   2.051 -0.4445 -0.6720  0.5666
  889SOL    HW1 3554   2.399   2.000   2.113 -0.9728  0.9729  0.0059
  889SOL    HW2 3555   2.360   2.029   1.965  1.0193  0.6274  0.1087
  889SOL     MW 3556   2.342   1.999   2.048 -0.3211 -0.2835  0.4322
  890SOL     OW 3557   0.109   2.347   0.133 -0.2035 -0.3320 -0.3723
  890SOL    HW1 3558   0.078   2.437   0.148 -2.0255 -0.0897  0.7734
  890SOL    HW2 3559   0.074   2.296   0.202 -0.7288 -0.1569 -1.7101
  890SOL     MW 3560   0.101   2.352   0.144 -0.5132 -0.2769 -0.3976
  891SOL     OW 3561   2.989   1.995   1.206  0.1177  0.0976 -0.2760
  891SOL    HW1 3562   3.062   1.941   1.225  0.4014  0.2783 -1.7124
  891SOL    HW2 3563   3.013   2.075   1.247 -0.7346 -0.5134 -3.5884
  891SOL     MW 3564   3.002   1.998   1.214  0.0427  0.0408 -0.9026
  892SOL     OW 3565   2.458   2.378   2.795 -0.1230  0.5882  0.4371
  892SOL    HW1 3566   2.444   2.310   2.859 -2.8492 -3.1715 -1.9739
  892SOL    HW2 3567   2.553   2.409   2.801  3.6056 -0.0803 -0.7578
  892SOL     MW 3568   2.469   2.373   2.804  0.0093  0.0039 -0.0387
  893SOL     OW 3569   1.655   2.398   1.333  0.2128  0.2177  0.5126
  893SOL    HW1 3570   1.585   2.398   1.399  0.1143 -1.2470 -2.1616
  893SOL    HW2 3571   1.703   2.473   1.366 -0.6266 -1.1466  2.6226
  893SOL     MW 3572   1.652   2.408   1.346  0.0890 -0.1556  0.4382
  894SOL     OW 3573   2.745   1.830   0.478  0.4046  0.2359  0.0639
  894SOL    HW1 3574   2.660   1.874   0.512 -2.5009  0.4206  0.3120
  894SOL    HW2 3575   2.732   1.801   0.384 -0.0851 -1.8973  4.3085
  894SOL     MW 3576   2.732   1.832   0.470 -0.0434 -0.0212  0.6567
  895SOL     OW 3577   2.165   2.177   1.158  0.5967  0.1682 -0.7199
  895SOL    HW1 3578   2.171   2.235   1.083  0.9947 -1.1086 -1.9709
  895SOL    HW2 3579   2.191   2.097   1.113 -1.4780 -2.7418  0.4773
  895SOL     MW 3580   2.169   2.174   1.142  0.3755 -0.3842 -0.7270
  896SOL     OW 3581   2.221   2.824   1.085 -0.8249 -0.0746  0.2598
  896SOL    HW1 3582   2.277   2.802   1.162  0.3866 -0.3036  0.7860
  896SOL    HW2 3583   2.182   2.913   1.103  1.8148 -0.5626  0.6076
  896SOL     MW 3584   2.224   2.833   1.098 -0.3168 -0.1692  0.3751
  897SOL     OW 3585   3.092   3.029   3.071 -0.0719  0.3334  0.4191
  897SOL    HW1 3586   3.123   2.941   3.080  0.3048 -2.1651 -1.8070
  897SOL    HW2 3587   3.029   3.035   2.994 -1.1991 -1.2952 -1.4244
  897SOL     MW 3588   3.088   3.018   3.062 -0.1709 -0.2111 -0.1178
  898SOL     OW 3589   2.042   0.159   1.440  0.3993  0.3103  0.3094
  898SOL    HW1 3590   2.029   0.070   1.479 -0.3905 -0.4983 -1.5994
  898SOL    HW2 3591   2.053   0.151   1.343  0.1327 -0.7843  1.4069
  898SOL     MW 3592   2.042   0.147   1.432  0.2599  0.0592  0.2023
  899SOL     OW 3593   2.937   3.007   0.615 -0.7183  0.1047 -0.3259
  899SOL    HW1 3594   2.977   2.921   0.632 -0.0112 -2.6888  1.3721
  899SOL    HW2 3595   2.844   3.002   0.644 -0.5487 -1.1829 -0.5592
  899SOL     MW 3596   2.930   2.995   0.621 -0.6026 -0.4337 -0.1326
  900SOL     OW 3597   0.078   2.406   1.089  0.3312 -0.3499 -0.1291
  900SOL    HW1 3598   0.042   2.495   1.107  0.2838 -0.3700 -1.4554
  900SOL    HW2 3599   0.080   2.394   0.993  2.5971  1.5201  0.4552
  900SOL     MW 3600   0.073   2.416   1.079  0.6239 -0.1058 -0.2270
  901SOL     OW 3601   1.738   2.797   1.794  0.1336 -0.7416 -0.0736
  901SOL    HW1 3602   1.832   2.771   1.781 -3.8973  1.3250 -1.2181
  901SOL    HW2 3603   1.697   2.809   1.709  1.0888  0.9945 -0.2190
  901SOL     MW 3604   1.745   2.795   1.781 -0.2722 -0.2399 -0.2438
  902SOL     OW 3605   2.655   2.112   1.646 -0.1782  0.2146 -0.6674
  902SOL    HW1 3606   2.658   2.048   1.568  0.8266  0.2776  0.2860
  902SOL    HW2 3607   2.719   2.072   1.711 -1.8664 -0.8665 -0.6995
  902SOL     MW 3608   2.664   2.098   1.645 -0.2684  0.0802 -0.5458
  903SOL     OW 3609   1.523   2.637   0.633 -0.4805  0.5956 -0.0738
  903SOL    HW1 3610   1.617   2.649   0.617 -0.5640  3.2038 -1.4440
  903SOL    HW2 3611   1.520   2.695   0.709  2.4203 -1.2888 -2.1345
  903SOL     MW 3612   1.535   2.646   0.641 -0.1088  0.6911 -0.5264
  904SOL     OW 3613   2.472   2.558   1.723 -0.4188  0.2199 -0.2764
  904SOL    HW1 3614   2.425   2.620   1.662 -0.5538  0.6766  0.8562
  904SOL    HW2 3615   2.504   2.486   1.662 -0.0305  2.7873  0.0377
  904SOL     MW 3616   2.470   2.557   1.707 -0.3854  0.6189 -0.0855
  905SOL     OW 3617   2.297   2.483   2.089 -0.0701 -0.0309 -0.2645
  905SOL    HW1 3618   2.344   2.409   2.049 -2.2048 -2.8614  0.2147
  905SOL    HW2 3619   2.265   2.425   2.172 -1.3416 -1.9143  2.0937
  905SOL     MW 3620   2.299   2.466   2.095 -0.5195 -0.6528  0.1099
  906SOL     OW 3621   2.506   2.498   0.799 -0.3926  0.0286  0.0861
  906SOL    HW1 3622   2.595   2.472   0.831  2.0469 -2.4353  0.6108
  906SOL    HW2 3623   2.484   2.585   0.835 -3.8516  0.4668  0.0787
  906SOL     MW 3624   2.515   2.506   0.808 -0.5271 -0.2387  0.1544
  907SOL     OW 3625   2.669   2.881   1.274 -0.0597  0.0496 -0.0169
  907SOL    HW1 3626   2.733   2.937   1.317 -0.2756  0.4478  0.6165
  907SOL    HW2 3627   2.696   2.891   1.182 -2.7398 -3.3021 -0.9882
  907SOL     MW 3628   2.681   2.890   1.268 -0.4418 -0.3401 -0.0615
  908SOL     OW 3629   2.741   2.425   0.015  0.0143  0.2461  0.6071
  908SOL    HW1 3630   2.708   2.335   0.044  1.2291 -0.3972  1.1102
  908SOL    HW2 3631   2.693   2.493   0.062  0.1466  0.7609  0.7193
  908SOL     MW 3632   2.730   2.422   0.025  0.1921  0.2292  0.6883
  909SOL     OW 3633   1.757   0.129   1.227 -0.3134  0.1591  0.3274
  909SOL    HW1 3634   1.708   0.194   1.177 -2.9621  1.2403 -0.7215
  909SOL    HW2 3635   1.701   0.107   1.307 -0.0508  0.9376  0.9097
  909SOL     MW 3636   1.744   0.134   1.231 -0.6282  0.4045  0.2658
  910SOL     OW 3637   2.196   1.665   0.406 -0.5397 -0.1908 -0.3528
  910SOL    HW1 3638   2.130   1.593   0.402 -0.5809 -0.8337 -0.6623
  910SOL    HW2 3639   2.155   1.729   0.350  0.1332 -1.6271 -0.6262
  910SOL     MW 3640   2.182   1.664   0.398 -0.4563 -0.4651 -0.4297
  911SOL     OW 3641   2.297   2.058   1.559 -0.0794  0.4419  0.0812
  911SOL    HW1 3642   2.340   2.075   1.646 -1.1061  2.4661  0.5493
  911SOL    HW2 3643   2.325   2.137   1.501  0.3762  1.5856 -1.9503
  911SOL     MW 3644   2.306   2.071   1.563 -0.1547  0.8599 -0.1251
  912SOL     OW 3645   2.913   1.857   1.436  0.2209 -0.3530 -0.3762
  912SOL    HW1 3646   2.932   1.883   1.337  0.5116 -1.0487 -1.1800
  912SOL    HW2 3647   2.850   1.925   1.449  0.4057 -2.3216  0.1571
  912SOL     MW 3648   2.907   1.869   1.425  0.2836 -0.7045 -0.4119
  913SOL     OW 3649   2.665   3.088   0.297  0.6059  0.3548 -0.4643
  913SOL    HW1 3650   2.749   3.051   0.277 -0.3373 -0.9880 -2.6980
  913SOL    HW2 3651   2.595   3.032   0.254  1.6465 -0.2508  0.2691
  913SOL     MW 3652   2.667   3.076   0.289  0.6188  0.0977 -0.6622
  914SOL     OW 3653   2.673   1.841   3.004 -0.0528 -0.4730 -1.1505
  914SOL    HW1 3654   2.684   1.923   2.953 -1.7989  3.2383  2.0243
  914SOL    HW2 3655   2.583   1.816   2.998 -2.2184 -1.3446 -1.1828
  914SOL     MW 3656   2.663   1.848   2.996 -0.5689 -0.0983 -0.7359
  915SOL     OW 3657   1.773   0.164   0.159  0.0676 -0.1897 -0.7785
  915SOL    HW1 3658   1.839   0.100   0.192 -0.5917  0.5342 -2.8673
  915SOL    HW2 3659   1.686   0.120   0.170 -1.0938 -1.2960  1.6332
  915SOL     MW 3660   1.770   0.150   0.165 -0.1726 -0.2401 -0.7359
  916SOL     OW 3661   1.729   2.176   2.041 -0.2875  0.1024  0.6778
  916SOL    HW1 3662   1.775   2.259   2.032 -0.3192  0.1764 -0.4410
  916SOL    HW2 3663   1.797   2.120   2.002  1.0814 -1.5512  1.6405
  916SOL     MW 3664   1.744   2.179   2.035 -0.1111 -0.1060  0.6572
  917SOL     OW 3665   2.507   2.235   2.568 -0.5391  0.8644  0.2140
  917SOL    HW1 3666   2.500   2.259   2.661  0.9374 -2.1993  0.3358
  917SOL    HW2 3667   2.584   2.268   2.529  0.1060 -0.3296  1.9475
  917SOL     MW 3668   2.516   2.242   2.575 -0.2592  0.3026  0.4588
  918SOL     OW 3669   2.029   1.615   2.677  0.0394  0.3940 -0.0931
  918SOL    HW1 3670   1.951   1.664   2.640 -0.9370  0.6250  0.2990
  918SOL    HW2 3671   2.104   1.669   2.646  1.1721  0.1120 -1.0146
  918SOL     MW 3672   2.029   1.629   2.668  0.0600  0.3873 -0.1629
  919SOL     OW 3673   3.080   2.399   2.245  0.3211 -0.3162 -0.6603
  919SOL    HW1 3674   3.021   2.323   2.238 -0.1142 -0.9655  0.3134
  919SOL    HW2 3675   3.152   2.394   2.168  2.7540 -0.4289 -0.4393
  919SOL     MW 3676   3.082   2.389   2.234  0.5846 -0.4168 -0.5027
  920SOL     OW 3677   2.704   2.841   3.046  0.0285 -0.3817  0.2501
  920SOL    HW1 3678   2.619   2.838   3.007 -0.2233  0.1720  0.0336
  920SOL    HW2 3679   2.743   2.788   2.982  0.5119  2.4403  2.1074
  920SOL     MW 3680   2.698   2.834   3.033  0.0591  0.0637  0.4666
  921SOL     OW 3681   2.427   2.582   2.617  0.3331  0.1577  0.1911
  921SOL    HW1 3682   2.496   2.596   2.554  1.2842 -0.2712  0.5130
  921SOL    HW2 3683   2.449   2.509   2.677 -0.9804 -2.2268  0.4542
  921SOL     MW 3684   2.439   2.574   2.617  0.2853 -0.2135  0.2683
  922SOL     OW 3685   2.042   2.778   0.348  0.2016 -0.1842  0.3134
  922SOL    HW1 3686   2.011   2.790   0.260 -0.8151  0.8329  1.2969
  922SOL    HW2 3687   2.061   2.683   0.358  0.3962 -2.7341  2.3446
  922SOL     MW 3688   2.040   2.767   0.338  0.0931 -0.3865  0.7112
  923SOL     OW 3689   2.193   2.857   1.673  0.1260 -0.3123 -0.0762
  923SOL    HW1 3690   2.242   2.817   1.603 -1.6949  2.3115  0.0383
  923SOL    HW2 3691   2.137   2.922   1.634 -0.4648 -0.1690  2.1884
  923SOL     MW 3692   2.192   2.861   1.659 -0.1922  0.0528  0.2377
  924SOL     OW 3693   1.114   2.755   2.632  0.0293 -0.0152  0.1280
  924SOL    HW1 3694   1.206   2.740   2.620 -2.2774 -1.9974 -0.9191
  924SOL    HW2 3695   1.085   2.686   2.691 -2.9973 -1.6739  2.4742
  924SOL     MW 3696   1.122   2.744   2.638 -0.6744 -0.4956  0.2994
  925SOL     OW 3697   3.000   0.230   2.698 -0.3497 -0.2620  0.1873
  925SOL    HW1 3698   2.969   0.236   2.604  0.3392 -0.0380 -0.5147
  925SOL    HW2 3699   2.976   0.308   2.740 -0.1470  1.9031  0.6526
  925SOL     MW 3700   2.993   0.241   2.691 -0.2320  0.0532  0.1561
  926SOL     OW 3701   2.751   2.333   2.020  0.7942 -0.4777 -0.0668
  926SOL    HW1 3702   2.771   2.419   2.062  0.2532  0.1639  2.0364
  926SOL    HW2 3703   2.772   2.367   1.932  0.6245  1.7609 -0.5592
  926SOL     MW 3704   2.756   2.349   2.014  0.7004 -0.0977  0.1457
  927SOL     OW 3705   2.375   0.172   0.290  0.5276 -0.1003  0.2782
  927SOL    HW1 3706   2.469   0.200   0.292  0.5773 -0.8776 -0.2364
  927SOL    HW2 3707   2.354   0.130   0.200  0.3257 -1.2396 -0.2388
  927SOL     MW 3708   2.385   0.170   0.278  0.5075 -0.3532  0.1421
  928SOL     OW 3709   2.181   2.417   1.752 -0.0330 -0.5159 -0.1753
  928SOL    HW1 3710   2.118   2.477   1.712 -1.4313 -1.0360 -1.1944
  928SOL    HW2 3711   2.269   2.444   1.737 -0.1286  1.0971 -2.0698
  928SOL     MW 3712   2.184   2.429   1.745 -0.2301 -0.3717 -0.5597
  929SOL     OW 3713   2.734   2.366   2.475  0.1592 -0.1351 -0.3924
  929SOL    HW1 3714   2.766   2.323   2.399  1.0723 -1.2328 -0.3328
  929SOL    HW2 3715   2.802   2.367   2.541  1.2328 -2.3998 -0.9218
  929SOL     MW 3716   2.747   2.360   2.474  0.4214 -0.5787 -0.4544
  930SOL     OW 3717   2.014   2.826   2.607  0.2895 -0.2568  0.1132
  930SOL    HW1 3718   2.024   2.769   2.691 -1.3858  0.2884  2.1920
  930SOL    HW2 3719   2.099   2.873   2.591  3.3009  2.3848  1.8477
  930SOL     MW 3720   2.027   2.824   2.616  0.4658  0.1636  0.6163
  931SOL     OW 3721   0.001   2.771   2.476  0.2160  0.5034  0.2656
  931SOL    HW1 3722  -0.001   2.820   2.559 -1.7006 -0.8394 -1.7415
  931SOL    HW2 3723   0.089   2.792   2.451  2.2007  2.8565 -1.2049
  931SOL     MW 3724   0.012   2.780   2.484  0.2250  0.6367 -0.1932
  932SOL     OW 3725   2.890   1.864   2.487 -0.3304  0.2775  0.3726
  932SOL    HW1 3726   2.971   1.918   2.483  1.2383 -0.0687 -3.0194
  932SOL    HW2 3727   2.845   1.893   2.406  0.4904  0.8795 -1.3566
  932SOL     MW 3728   2.895   1.875   2.476 -0.0151  0.3112 -0.3031
  933SOL     OW 3729   2.032   2.784   2.227  0.0918 -0.0637  0.3561
  933SOL    HW1 3730   2.120   2.830   2.261 -1.5421  1.0435 -2.3424
  933SOL    HW2 3731   1.970   2.854   2.201 -2.0328 -2.4699 -0.0690
  933SOL     MW 3732   2.036   2.800   2.228 -0.4041 -0.2351 -0.0561
  934SOL     OW 3733   1.983   2.615   2.441 -0.6364 -0.0708 -0.2285
  934SOL    HW1 3734   2.015   2.687   2.491  1.0267  0.3530  1.5726
  934SOL    HW2 3735   1.969   2.649   2.355  1.0976 -0.0831  1.6167
  934SOL     MW 3736   1.985   2.629   2.437 -0.1882 -0.0165  0.2526
  935SOL     OW 3737   2.702   1.583   1.811  0.8470 -0.1518  0.0063
  935SOL    HW1 3738   2.781   1.565   1.762 -0.5178 -0.1236 -1.6197
  935SOL    HW2 3739   2.634   1.570   1.730 -2.6211  0.9585 -5.1863
  935SOL     MW 3740   2.703   1.579   1.794  0.2093 -0.0016 -0.8934
  936SOL     OW 3741   2.977   2.283   3.090 -0.6103 -0.0379 -0.3475
  936SOL    HW1 3742   3.059   2.280   3.146  0.7127  0.3057  0.9155
  936SOL    HW2 3743   2.927   2.361   3.113 -1.2754  0.1440 -0.7716
  936SOL     MW 3744   2.981   2.293   3.100 -0.5235  0.0315 -0.2368
  937SOL     OW 3745   2.017   2.172   2.693 -0.3143  0.5504 -0.2076
  937SOL    HW1 3746   2.097   2.132   2.731 -0.2267  0.0313  4.1510
  937SOL    HW2 3747   2.009   2.144   2.600  0.0001  0.2828  2.0156
  937SOL     MW 3748   2.027   2.163   2.686 -0.2613  0.4466  0.6608
  938SOL     OW 3749   2.295   1.745   1.918  0.6007 -0.1068  0.4150
  938SOL    HW1 3750   2.284   1.765   1.827  0.5107 -1.5315  1.1013
  938SOL    HW2 3751   2.291   1.825   1.969  1.8024 -1.1902  0.8207
  938SOL     MW 3752   2.293   1.758   1.913  0.7473 -0.4377  0.5591
  939SOL     OW 3753   2.800   1.970   2.254 -0.5602  0.0560  0.0250
  939SOL    HW1 3754   2.820   1.914   2.173  1.2644  1.2059  0.0336
  939SOL    HW2 3755   2.711   1.950   2.279  1.9067  0.7713 -1.2232
  939SOL     MW 3756   2.791   1.960   2.246  0.0060  0.3021 -0.1385
  940SOL     OW 3757   2.250   0.153   2.676 -0.7765  0.4340 -0.4599
  940SOL    HW1 3758   2.241   0.065   2.637  1.2455  0.6191  1.2612
  940SOL    HW2 3759   2.304   0.147   2.757 -0.7008 -1.4135  0.5194
  940SOL     MW 3760   2.256   0.140   2.682 -0.4997  0.2146 -0.1036
  941SOL     OW 3761   0.167   2.406   2.057  0.3468 -0.1356 -0.0425
  941SOL    HW1 3762   0.245   2.350   2.063  3.4503 -2.4025  2.6022
  941SOL    HW2 3763   0.135   2.395   1.970 -2.0438 -0.2540  2.4821
  941SOL     MW 3764   0.173   2.397   2.046  0.4408 -0.4503  0.6395
  942SOL     OW 3765   2.859   2.237   2.244  0.2649  0.4357 -0.0979
  942SOL    HW1 3766   2.799   2.253   2.174 -1.0036  1.5688  0.5640
  942SOL    HW2 3767   2.842   2.138   2.241  0.3275 -3.1882 -0.9837
  942SOL     MW 3768   2.849   2.226   2.234  0.1058  0.1071 -0.1275
  943SOL     OW 3769   0.240   2.108   2.285  0.0742 -0.2957 -0.3112
  943SOL    HW1 3770   0.207   2.176   2.345  2.0275  1.6281  2.0257
  943SOL    HW2 3771   0.291   2.045   2.344  1.0242  1.6899 -1.5669
  943SOL     MW 3772   0.242   2.109   2.301  0.4573  0.2201 -0.1685
  944SOL     OW 3773   2.114   2.635   2.004  0.3018  0.2972  0.1976
  944SOL    HW1 3774   2.178   2.559   2.021 -2.5364 -0.2245  1.1842
  944SOL    HW2 3775   2.090   2.671   2.089 -1.1009  0.4780  0.2062
  944SOL     MW 3776   2.119   2.630   2.018 -0.2577  0.2522  0.3289
  945SOL     OW 3777   2.828   2.718   2.826  0.7857 -0.2554 -0.6908
  945SOL    HW1 3778   2.761   2.650   2.828  2.2197  3.2483  0.0310
  945SOL    HW2 3779   2.807   2.767   2.747 -0.4014 -0.4578 -1.3188
  945SOL     MW 3780   2.816   2.715   2.816  0.8183  0.1802 -0.6784
  946SOL     OW 3781   2.436   2.667   2.240  0.5295  0.1554  0.4013
  946SOL    HW1 3782   2.483   2.724   2.161 -2.0994  0.0565  1.5754
  946SOL    HW2 3783   2.385   2.611   2.177  0.3058  0.8338 -2.0771
  946SOL     MW 3784   2.435   2.667   2.221  0.1531  0.2319  0.2292
  947SOL     OW 3785   2.011   0.020   0.256  0.3019  0.6755 -0.3187
  947SOL    HW1 3786   1.972  -0.071   0.242  1.7149  2.2392  0.5793
  947SOL    HW2 3787   2.051   0.029   0.341  0.8904 -1.3094  0.3056
  947SOL     MW 3788   2.011   0.009   0.265  0.5660  0.6199 -0.1178
  948SOL     OW 3789   1.799   3.002   2.698  0.1324 -0.0123 -0.4065
  948SOL    HW1 3790   1.860   2.927   2.683 -0.0276  1.3714 -1.1063
  948SOL    HW2 3791   1.754   3.023   2.616 -2.1956  0.0277 -1.6322
  948SOL     MW 3792   1.801   2.995   2.685 -0.1958  0.1756 -0.6606
  949SOL     OW 3793   2.501   1.962   2.300 -0.3827 -0.3369 -0.8778
  949SOL    HW1 3794   2.481   1.871   2.328  0.9688  1.5913  1.4087
  949SOL    HW2 3795   2.431   2.018   2.339  0.1333  0.7634  2.0144
  949SOL     MW 3796   2.489   1.958   2.309 -0.1363  0.0627 -0.1945
  950SOL     OW 3797   2.290   2.584   2.935  0.0856 -0.0087  0.1300
  950SOL    HW1 3798   2.328   2.532   2.864  0.7889 -0.3441 -0.2776
  950SOL    HW2 3799   2.196   2.613   2.894  0.3623  0.4498 -0.9556
  950SOL     MW 3800   2.283   2.581   2.920  0.2149  0.0075 -0.0670
  951SOL     OW 3801   3.074   2.220   2.860  0.0344 -0.1085  0.2492
  951SOL    HW1 3802   3.014   2.249   2.938  2.0004  2.1804  0.0325
  951SOL    HW2 3803   3.077   2.127   2.875 -0.4756 -1.0605 -1.8745
  951SOL     MW 3804   3.066   2.212   2.872  0.2265  0.0679 -0.0596
  952SOL     OW 3805   3.038   1.662   2.115 -0.3072  0.1564  0.3803
  952SOL    HW1 3806   2.956   1.670   2.072  0.0616 -1.4706  2.6968
  952SOL    HW2 3807   3.077   1.754   2.123 -0.6583  1.0708  1.7379
  952SOL     MW 3808   3.032   1.675   2.110 -0.3048  0.0624  0.8651
  953SOL     OW 3809   1.960   1.778   2.901  0.0692 -0.2797  0.1645
  953SOL    HW1 3810   1.894   1.734   2.958  2.7691 -3.3221  3.0281
  953SOL    HW2 3811   2.009   1.701   2.855 -0.5462  0.9811  0.3083
  953SOL     MW 3812   1.958   1.762   2.902  0.3443 -0.5148  0.5613
  954SOL     OW 3813   2.470   2.124   2.920 -0.0968  0.1922  0.1496
  954SOL    HW1 3814   2.385   2.110   2.865 -2.1827  1.2978 -1.1481
  954SOL    HW2 3815   2.534   2.100   2.863 -1.0235 -0.1651  1.0995
  954SOL     MW 3816   2.467   2.119   2.905 -0.4943  0.2909  0.1037
  955SOL     OW 3817   1.551   1.606   2.534  0.2015 -0.4461  0.3595
  955SOL    HW1 3818   1.547   1.584   2.439 -0.2108 -0.0847 -1.2212
  955SOL    HW2 3819   1.641   1.649   2.541 -0.3537  0.4625  0.7387
  955SOL     MW 3820   1.563   1.609   2.522  0.0739 -0.2785  0.2010
  956SOL     OW 3821   2.711   2.472   2.827 -0.2108  0.6886 -0.0504
  956SOL    HW1 3822   2.731   2.439   2.924  4.6669 -1.5645  2.7091
  956SOL    HW2 3823   2.786   2.438   2.775 -0.9201 -1.0858 -1.3552
  956SOL     MW 3824   2.723   2.463   2.833  0.3392  0.1572  0.1416
  957SOL     OW 3825   2.263   2.905   0.483  0.1432 -0.5769  0.5551
  957SOL    HW1 3826   2.182   2.870   0.438 -1.3737 -1.3763  1.5013
  957SOL    HW2 3827   2.275   2.855   0.563 -3.0488 -0.8372  1.7114
  957SOL     MW 3828   2.254   2.894   0.488 -0.4781 -0.7167  0.8325
  958SOL     OW 3829   2.050   2.664   2.827  0.1753 -0.2693 -0.3041
  958SOL    HW1 3830   2.021   2.585   2.769  0.6625 -2.2566  1.7043
  958SOL    HW2 3831   1.978   2.682   2.893  1.3633  0.1617  0.7898
  958SOL     MW 3832   2.037   2.656   2.828  0.3964 -0.4747  0.1052
  959SOL     OW 3833   2.514   2.798   0.459  0.0125 -0.0644  0.0983
  959SOL    HW1 3834   2.533   2.809   0.366 -1.5902  0.2180  0.7562
  959SOL    HW2 3835   2.416   2.821   0.451 -0.4394  2.5183  1.0569
  959SOL     MW 3836   2.503   2.803   0.446 -0.2586  0.3136  0.3116
  960SOL     OW 3837   1.947   2.313   2.337  0.0157  0.9048 -0.1494
  960SOL    HW1 3838   1.922   2.221   2.348 -1.1277  1.8750  0.8856
  960SOL    HW2 3839   1.900   2.363   2.406 -0.6220  0.6476  0.2821
  960SOL     MW 3840   1.938   2.307   2.347 -0.2193  0.9988  0.0441
  961SOL     OW 3841   2.220   2.320   2.291 -0.2183 -0.0354  0.6501
  961SOL    HW1 3842   2.126   2.303   2.279  0.8130 -3.1860  1.9831
  961SOL    HW2 3843   2.215   2.383   2.360 -1.1224 -1.6896 -1.7591
  961SOL     MW 3844   2.207   2.326   2.299 -0.2015 -0.6694  0.5081
  962SOL     OW 3845   2.240   2.044   2.800  0.5448  0.3480  1.1959
  962SOL    HW1 3846   2.200   2.002   2.878 -0.3656 -0.2103  2.5545
  962SOL    HW2 3847   2.263   1.978   2.743  1.1486  5.5161 -0.2939
  962SOL     MW 3848   2.237   2.030   2.803  0.5043  0.9562  1.1786
  963SOL     OW 3849   1.787   2.496   2.146  0.5594  0.4264  0.3544
  963SOL    HW1 3850   1.836   2.452   2.220 -0.6626  0.9686  2.9520
  963SOL    HW2 3851   1.826   2.468   2.061  0.0515  2.1333 -0.8415
  963SOL     MW 3852   1.798   2.487   2.145  0.3312  0.7231  0.5393
  964SOL     OW 3853   1.826   1.944   2.720  0.2126 -1.0909  0.5191
  964SOL    HW1 3854   1.894   2.012   2.711  0.7820  0.7456 -1.7949
  964SOL    HW2 3855   1.863   1.872   2.785 -0.4205 -1.8510 -0.7836
  964SOL     MW 3856   1.840   1.944   2.728  0.2042 -0.9489  0.0419
  965SOL     OW 3857   2.240   2.707   0.685 -0.3575 -0.3195  0.3036
  965SOL    HW1 3858   2.238   2.612   0.675 -0.5722 -0.9080 -0.3588
  965SOL    HW2 3859   2.285   2.731   0.771  1.3135  0.7985 -1.7303
  965SOL     MW 3860   2.246   2.697   0.695 -0.1654 -0.2496 -0.0522
  966SOL     OW 3861   2.672   2.606   2.370 -0.2257  0.2675 -0.4619
  966SOL    HW1 3862   2.591   2.623   2.322  0.4913 -2.5985 -0.3840
  966SOL    HW2 3863   2.686   2.515   2.396  3.4916  0.8853 -0.7322
  966SOL     MW 3864   2.663   2.596   2.367  0.3594 -0.0291 -0.4873
  967SOL     OW 3865   2.827   3.057   2.949 -0.0468 -0.3321  0.3318
  967SOL    HW1 3866   2.794   2.980   3.004  0.4380  2.9630  1.0924
  967SOL    HW2 3867   2.753   3.057   2.883  0.9085 -2.2230 -0.5133
  967SOL     MW 3868   2.813   3.047   2.947  0.1432 -0.1469  0.3206
  968SOL     OW 3869   3.033   2.631   3.006 -0.1136 -0.1707  0.1641
  968SOL    HW1 3870   2.960   2.675   2.956  0.8458  1.3553 -2.0724
  968SOL    HW2 3871   3.076   2.577   2.940 -2.7387  0.0466 -1.3776
  968SOL     MW 3872   3.029   2.630   2.991 -0.3333  0.0593 -0.3344
  969SOL     OW 3873   1.612   2.209   1.691  0.2496  0.2108 -0.2730
  969SOL    HW1 3874   1.686   2.146   1.699 -0.1998  0.0969  0.5956
  969SOL    HW2 3875   1.558   2.209   1.776 -0.4286 -1.0690 -2.5423
  969SOL     MW 3876   1.615   2.201   1.704  0.1008  0.0269 -0.4578
  970SOL     OW 3877   1.786   1.832   1.904  0.1730 -0.2561  0.1163
  970SOL    HW1 3878   1.852   1.783   1.956  3.0299  0.2979 -0.7813
  970SOL    HW2 3879   1.700   1.789   1.902  0.1226  1.4878  1.9774
  970SOL     MW 3880   1.784   1.820   1.911  0.5433  0.0471  0.2435
  971SOL     OW 3881   1.780   3.037   2.409  0.0184 -0.5965  0.2458
  971SOL    HW1 3882   1.820   2.992   2.331  0.0679  0.7920 -0.0216
  971SOL    HW2 3883   1.816   3.121   2.412 -2.0164 -2.1573 -1.9826
  971SOL     MW 3884   1.790   3.042   2.399 -0.2436 -0.6192 -0.0835
  972SOL     OW 3885   0.272   2.844   2.455  0.4232 -0.7902 -0.2907
  972SOL    HW1 3886   0.340   2.775   2.449  2.8830 -2.1822  1.9393
  972SOL    HW2 3887   0.314   2.928   2.493  2.0847  0.6640  1.5824
  972SOL     MW 3888   0.286   2.846   2.459  0.9669 -0.7820  0.2507
  973SOL     OW 3889   2.603   3.062   2.117 -0.4425 -0.7854  0.6545
  973SOL    HW1 3890   2.598   2.972   2.079 -0.8711  0.7165  0.5871
  973SOL    HW2 3891   2.612   3.119   2.041 -1.0367 -0.2935  2.9665
  973SOL     MW 3892   2.604   3.057   2.102 -0.5775 -0.5223  0.9506
  974SOL     OW 3893   1.979   0.142   2.651 -0.2968 -0.1402 -0.7983
  974SOL    HW1 3894   2.077   0.155   2.658  0.0207 -0.0727 -1.1947
  974SOL    HW2 3895   1.958   0.055   2.685  0.5132  0.8086 -1.5095
  974SOL     MW 3896   1.989   0.132   2.657 -0.1480 -0.0061 -0.9444
  975SOL     OW 3897   2.206   2.487   2.491  0.3931 -0.2586 -0.1626
  975SOL    HW1 3898   2.276   2.524   2.544 -0.9784 -2.0360  1.1222
  975SOL    HW2 3899   2.136   2.553   2.474 -0.2463  0.0898 -2.1114
  975SOL     MW 3900   2.206   2.501   2.496  0.1278 -0.4472 -0.2502
  976SOL     OW 3901   0.170   0.354   1.724  0.3043  0.3626 -0.6485
  976SOL    HW1 3902   0.215   0.304   1.787 -2.6859  2.2574 -0.8013
  976SOL    HW2 3903   0.098   0.288   1.700 -1.6719  0.8987  0.5537
  976SOL     MW 3904   0.167   0.339   1.729 -0.3509  0.6833 -0.5100
  977SOL     OW 3905   1.702   2.710   2.452  0.4111 -0.2961 -0.5313
  977SOL    HW1 3906   1.717   2.616   2.458 -0.5691  1.0077 -1.4655
  977SOL    HW2 3907   1.784   2.760   2.463  0.1482  2.3019  0.3059
  977SOL     MW 3908   1.715   2.704   2.454  0.2471  0.2187 -0.5441
   3.10000   3.10000   3.10000
