977 TIP4P/2005f water molecules t=   1.16000 step= 1160
 3908
    1SOL     OW    1   0.414   0.786   3.078 -0.0426  0.1024 -0.3429
    1SOL    HW1    2   0.373   0.835   3.008  0.3830  0.9549  1.5427
    1SOL    HW2    3   0.338   0.728   3.102  1.2570 -0.2015  0.3719
    1SOL     MW    4   0.398   0.785   3.072  0.1850  0.1748  0.0002
    2SOL     OW    5   0.329   3.046   1.151  0.0133  0.2585  0.3008
    2SOL    HW1    6   0.363   3.123   1.097  2.3183  0.3408 -4.0021
    2SOL    HW2    7   0.244   3.073   1.192 -1.0589  1.3188 -2.0130
    2SOL     MW    8   0.322   3.059   1.149  0.1760  0.4092 -0.5722
    3SOL     OW    9   2.571   0.391   0.993 -0.2110 -0.6767  0.4495
    3SOL    HW1   10   2.625   0.435   0.936 -2.0754 -0.8615 -1.2638
    3SOL    HW2   11   2.557   0.439   1.075  1.5326 -2.7450 -2.9134
    3SOL     MW   12   2.576   0.403   0.996 -0.2270 -0.9740 -0.2202
    4SOL     OW   13   2.971   1.718   0.534  0.8279  0.2206  0.4301
    4SOL    HW1   14   2.888   1.756   0.506  0.9326  1.7143 -1.4906
    4SOL    HW2   15   2.999   1.681   0.452  3.2819 -1.5116  0.9116
    4SOL     MW   16   2.964   1.718   0.520  1.1655  0.1891  0.2402
    5SOL     OW   17   1.706   1.503   0.518 -0.7042  0.0905 -0.4138
    5SOL    HW1   18   1.725   1.451   0.597  1.9358  1.5848  0.9306
    5SOL    HW2   19   1.613   1.522   0.505  1.4265  0.4361  0.0225
    5SOL     MW   20   1.696   1.498   0.527 -0.0747  0.3332 -0.1788
    6SOL     OW   21   0.812   1.353   0.587  0.3509  0.7811 -0.7191
    6SOL    HW1   22   0.717   1.359   0.605 -0.5963  0.1944  2.1256
    6SOL    HW2   23   0.844   1.275   0.635  2.1177  1.8848  1.5638
    6SOL     MW   24   0.804   1.343   0.595  0.4591  0.8493 -0.0425
    7SOL     OW   25   2.075   1.033   0.014 -0.0670  0.3207 -0.4827
    7SOL    HW1   26   2.132   1.104  -0.002  1.5828 -1.9141  0.6705
    7SOL    HW2   27   2.091   1.011   0.109 -3.7582 -1.0994  0.3598
    7SOL     MW   28   2.085   1.040   0.025 -0.3363 -0.1615 -0.2193
    8SOL     OW   29   0.916   1.460   1.189 -0.0069 -0.1716  0.3651
    8SOL    HW1   30   1.007   1.448   1.179 -0.6846  1.7639  0.2681
    8SOL    HW2   31   0.875   1.377   1.198 -0.1932 -1.0139 -0.1598
    8SOL     MW   32   0.923   1.448   1.189 -0.1209 -0.0274  0.2830
    9SOL     OW   33   1.000   0.521   1.394 -0.3131 -0.1780  0.4394
    9SOL    HW1   34   0.952   0.448   1.350  1.7334  0.7270  0.6920
    9SOL    HW2   35   1.067   0.486   1.450  2.0709  0.4807 -3.6257
    9SOL     MW   36   1.003   0.507   1.396  0.2714  0.0283 -0.0636
   10SOL     OW   37   0.230   0.783   0.484 -0.1289  0.3468  0.2001
   10SOL    HW1   38   0.315   0.824   0.462  0.4018  0.9108 -0.3965
   10SOL    HW2   39   0.195   0.818   0.567  2.5657 -0.4330 -0.1519
   10SOL     MW   40   0.236   0.793   0.493  0.2967  0.3183  0.0749
   11SOL     OW   41   0.786   1.133   1.603 -0.1116 -0.3668  0.3712
   11SOL    HW1   42   0.820   1.109   1.684 -3.9177 -2.8117 -0.7839
   11SOL    HW2   43   0.785   1.058   1.546 -3.0464  1.5586 -0.9791
   11SOL     MW   44   0.790   1.120   1.606 -1.0010 -0.4353  0.0407
   12SOL     OW   45   0.004   1.057   0.893 -0.3220 -0.0095 -0.0444
   12SOL    HW1   46   0.028   1.140   0.932 -0.2177  0.0700  0.9309
   12SOL    HW2   47  -0.036   1.092   0.810 -0.1433  3.9572 -1.5581
   12SOL     MW   48   0.002   1.073   0.887 -0.2846  0.5244 -0.1154
   13SOL     OW   49   1.862   1.416   1.373  0.1485 -0.4673  1.1354
   13SOL    HW1   50   1.889   1.357   1.303 -2.5029  1.0545 -1.8002
   13SOL    HW2   51   1.877   1.503   1.331  0.4360 -2.6260 -1.0464
   13SOL     MW   52   1.868   1.420   1.358 -0.1634 -0.5513  0.4602
   14SOL     OW   53   0.559   0.368   1.860  0.1712 -0.9174 -0.1252
   14SOL    HW1   54   0.494   0.307   1.887 -0.7667  0.9658 -1.5150
   14SOL    HW2   55   0.571   0.346   1.765 -1.2498 -1.8929 -2.4119
   14SOL     MW   56   0.552   0.357   1.851 -0.1400 -0.7976 -0.6103
   15SOL     OW   57   1.963   0.344   1.063 -0.0970 -0.1279  0.2253
   15SOL    HW1   58   1.935   0.427   1.107 -0.9699  1.3278 -1.4921
   15SOL    HW2   59   2.035   0.363   1.002 -0.8614 -2.2927  1.6300
   15SOL     MW   60   1.969   0.358   1.060 -0.3130 -0.2215  0.1840
   16SOL     OW   61   0.186   1.811   0.282 -0.0234  0.4294 -0.7638
   16SOL    HW1   62   0.279   1.788   0.262 -0.1282  2.8347 -0.8000
   16SOL    HW2   63   0.178   1.910   0.303  1.1398  2.8147  0.5572
   16SOL     MW   64   0.197   1.821   0.282  0.1162  1.0614 -0.5943
   17SOL     OW   65   1.045   0.936   1.453 -0.7148  0.2475  0.4306
   17SOL    HW1   66   1.098   0.894   1.518  0.1000 -0.9841 -2.2184
   17SOL    HW2   67   0.954   0.899   1.461 -0.6333 -0.9438 -1.8244
   17SOL     MW   68   1.040   0.926   1.463 -0.5965 -0.0722 -0.2164
   18SOL     OW   69   0.061   1.575   0.357  0.4446  0.2146 -0.4485
   18SOL    HW1   70   0.115   1.652   0.345  1.4540 -4.0672 -2.4065
   18SOL    HW2   71   0.053   1.543   0.266  2.5790  3.1234  1.3142
   18SOL     MW   72   0.067   1.581   0.343  0.8594  0.0334 -0.4743
   19SOL     OW   73   0.078   1.276   1.035  0.1198 -0.2058 -0.4685
   19SOL    HW1   74   0.104   1.332   0.956  3.0478 -0.4856  0.9577
   19SOL    HW2   75  -0.014   1.301   1.055 -0.0889  1.6381  2.1263
   19SOL     MW   76   0.069   1.287   1.027  0.4785  0.0006  0.0620
   20SOL     OW   77   0.431   2.172   1.168 -0.5614  0.4805 -0.1037
   20SOL    HW1   78   0.410   2.087   1.133  0.1232 -0.3459 -1.6032
   20SOL    HW2   79   0.366   2.192   1.238 -1.7517 -1.9896 -1.2192
   20SOL     MW   80   0.420   2.163   1.172 -0.6281  0.0456 -0.4487
   21SOL     OW   81   0.481   0.882   0.417  0.4840  0.1257  0.1009
   21SOL    HW1   82   0.532   0.847   0.491 -0.1607 -0.1282 -0.2819
   21SOL    HW2   83   0.535   0.877   0.339 -1.4506  1.2678 -1.9987
   21SOL     MW   84   0.495   0.877   0.417  0.1436  0.2429 -0.2267
   22SOL     OW   85   1.559   0.676   1.029 -0.4691  0.4928 -0.2879
   22SOL    HW1   86   1.516   0.654   0.947  0.2828  1.6976  2.1549
   22SOL    HW2   87   1.490   0.725   1.076 -2.5676  1.0476 -0.8009
   22SOL     MW   88   1.544   0.680   1.024 -0.6468  0.7250 -0.0333
   23SOL     OW   89   3.037   0.685   0.721  0.3378 -0.2904  0.1439
   23SOL    HW1   90   3.098   0.609   0.739 -1.0415  0.5964  2.4064
   23SOL    HW2   91   3.102   0.753   0.709  0.6865  0.2162  1.9640
   23SOL     MW   92   3.054   0.684   0.722  0.2018 -0.1065  0.6826
   24SOL     OW   93   2.035   2.215   0.041 -0.1227  0.7368 -0.1696
   24SOL    HW1   94   2.021   2.228   0.136  4.8470  0.2956  0.6099
   24SOL    HW2   95   2.055   2.119   0.029  0.9514 -1.1446 -0.2184
   24SOL     MW   96   2.035   2.204   0.052  0.6747  0.4303 -0.0732
   25SOL     OW   97   0.208   1.417   0.552 -0.4661 -0.1686 -0.3197
   25SOL    HW1   98   0.157   1.465   0.491 -2.0143 -0.9240 -0.9163
   25SOL    HW2   99   0.303   1.434   0.524  0.2551  1.7259 -0.9240
   25SOL     MW  100   0.214   1.426   0.540 -0.5752 -0.0183 -0.4781
   26SOL     OW  101   2.066   1.034   0.308 -0.0890  0.0890 -0.3914
   26SOL    HW1  102   1.994   1.081   0.355 -0.4863  0.1348 -1.5408
   26SOL    HW2  103   2.121   1.113   0.288 -2.9697 -1.6657  1.3400
   26SOL     MW  104   2.064   1.051   0.312 -0.5215 -0.1364 -0.3146
   27SOL     OW  105   1.979   1.463   0.221 -0.0253  0.0203 -0.0622
   27SOL    HW1  106   1.899   1.499   0.255  2.3446  2.9325  0.2231
   27SOL    HW2  107   2.044   1.473   0.290 -0.9913 -0.2495  0.6592
   27SOL     MW  108   1.977   1.469   0.234  0.1599  0.3689  0.0706
   28SOL     OW  109   0.448   0.995   1.958  0.0017  0.0986 -0.1064
   28SOL    HW1  110   0.502   0.992   2.037  1.7664  1.8409  3.5744
   28SOL    HW2  111   0.367   0.953   1.980  0.8535  1.3503 -0.4016
   28SOL     MW  112   0.444   0.989   1.971  0.3469  0.4936  0.3403
   29SOL     OW  113   0.214   1.450   0.851  0.0306  0.2498 -0.6368
   29SOL    HW1  114   0.214   1.543   0.867  1.0323 -1.6227  0.5860
   29SOL    HW2  115   0.193   1.435   0.756  2.8391  1.3720 -0.6588
   29SOL     MW  116   0.211   1.460   0.841  0.5333  0.1508 -0.4783
   30SOL     OW  117   0.796   1.212   1.249 -0.4884  0.7378 -0.3691
   30SOL    HW1  118   0.722   1.213   1.315  0.0305  0.3008  0.7787
   30SOL    HW2  119   0.876   1.192   1.305  2.1561 -2.5590  0.9561
   30SOL     MW  120   0.797   1.209   1.265 -0.0710  0.2452 -0.0428
   31SOL     OW  121   0.424   0.251   0.161 -0.7176 -0.0843  0.0379
   31SOL    HW1  122   0.458   0.169   0.203 -0.3349 -2.2116  0.7619
   31SOL    HW2  123   0.400   0.220   0.073 -0.5358 -0.2736  0.5520
   31SOL     MW  124   0.425   0.236   0.155 -0.6432 -0.3899  0.2012
   32SOL     OW  125   2.799   0.974   1.181 -0.8019  0.5585 -0.0738
   32SOL    HW1  126   2.727   0.908   1.157 -0.2465 -0.3943 -2.6303
   32SOL    HW2  127   2.876   0.925   1.148 -2.1172 -0.2283 -0.5354
   32SOL     MW  128   2.800   0.959   1.173 -0.9021  0.3289 -0.4720
   33SOL     OW  129   1.681   1.306   0.332 -0.5170 -0.0851  0.2543
   33SOL    HW1  130   1.757   1.251   0.360 -1.3649 -0.7439  1.6638
   33SOL    HW2  131   1.685   1.377   0.398 -0.0166  2.7135 -0.8165
   33SOL     MW  132   1.692   1.308   0.344 -0.5628  0.1972  0.2990
   34SOL     OW  133   1.220   1.926   1.103  0.3323  0.0944  0.0021
   34SOL    HW1  134   1.142   1.971   1.136 -1.2881 -1.2770 -0.9833
   34SOL    HW2  135   1.293   1.964   1.155  0.5141  2.3730 -1.0754
   34SOL     MW  136   1.219   1.937   1.114  0.1425  0.2141 -0.2701
   35SOL     OW  137   0.378   0.139   1.840 -0.4060 -0.3415  0.0707
   35SOL    HW1  138   0.405   0.078   1.908 -1.3114 -0.4100 -1.5521
   35SOL    HW2  139   0.440   0.125   1.762  0.4210  0.0142  2.2271
   35SOL     MW  140   0.390   0.129   1.839 -0.4163 -0.3036  0.1411
   36SOL     OW  141   1.974   1.949   0.581  0.0544 -0.5598 -0.7075
   36SOL    HW1  142   1.982   1.912   0.493 -0.3739  2.4325 -0.0546
   36SOL    HW2  143   1.929   1.876   0.626 -0.0281 -1.1403  1.2283
   36SOL     MW  144   1.969   1.934   0.575 -0.0130 -0.2416 -0.3660
   37SOL     OW  145   1.782   2.000   0.974 -0.1414  1.0437  0.0175
   37SOL    HW1  146   1.717   1.965   0.912  0.1964  2.0225  2.8918
   37SOL    HW2  147   1.739   2.072   1.028 -1.7908 -0.5195  0.4562
   37SOL     MW  148   1.768   2.005   0.973 -0.3145  0.9666  0.4546
   38SOL     OW  149   2.809   0.939   0.147  0.0229  0.5254 -0.6132
   38SOL    HW1  150   2.835   0.920   0.239  0.1931 -0.2252 -0.1506
   38SOL    HW2  151   2.886   0.917   0.091  2.6338 -3.6027  1.6297
   38SOL     MW  152   2.822   0.934   0.151  0.3899 -0.1183 -0.2562
   39SOL     OW  153   1.423   0.607   0.808 -0.3601 -0.0439 -0.3554
   39SOL    HW1  154   1.371   0.524   0.815  0.3141  0.3477 -2.4782
   39SOL    HW2  155   1.358   0.665   0.772 -2.6942  1.8050  1.6612
   39SOL     MW  156   1.407   0.604   0.804 -0.5791  0.2517 -0.3694
   40SOL     OW  157   1.169   1.905   0.312 -0.3388 -0.5848 -0.0526
   40SOL    HW1  158   1.211   1.839   0.374  0.2382 -2.1100 -0.3304
   40SOL    HW2  159   1.165   1.988   0.362  0.4558  1.6004 -1.4674
   40SOL     MW  160   1.174   1.907   0.327 -0.1578 -0.4977 -0.2759
   41SOL     OW  161   0.556   0.506   1.566 -0.4609  0.0044  0.2969
   41SOL    HW1  162   0.642   0.550   1.573 -0.2049 -1.1889 -0.4191
   41SOL    HW2  163   0.517   0.535   1.639  0.0835 -0.1456 -0.9376
   41SOL     MW  164   0.562   0.515   1.576 -0.3553 -0.1728  0.0396
   42SOL     OW  165   1.251   3.005   2.017 -0.1777  0.1754 -0.2925
   42SOL    HW1  166   1.159   2.997   2.052 -3.0887  0.3603 -1.1158
   42SOL    HW2  167   1.302   2.936   2.056 -0.4386  0.7974  1.6272
   42SOL     MW  168   1.246   2.995   2.027 -0.5962  0.2818 -0.1478
   43SOL     OW  169   1.499   0.125   1.708 -0.7006  0.1663 -0.4027
   43SOL    HW1  170   1.570   0.065   1.677 -1.4421 -3.1003 -1.1503
   43SOL    HW2  171   1.416   0.074   1.721 -2.0836 -1.9839  0.0456
   43SOL     MW  172   1.498   0.111   1.706 -0.9809 -0.5484 -0.4422
   44SOL     OW  173   1.135   0.779   0.990  0.4199 -0.6060 -0.0252
   44SOL    HW1  174   1.121   0.873   0.974  1.9653  0.8086 -1.6046
   44SOL    HW2  175   1.172   0.779   1.082  2.0026 -1.5231  1.8194
   44SOL     MW  176   1.138   0.791   1.000  0.8326 -0.5403  0.0098
   45SOL     OW  177   1.227   0.751   0.641  0.0866 -0.2127  0.5450
   45SOL    HW1  178   1.158   0.766   0.705  0.5687 -0.1033  3.3646
   45SOL    HW2  179   1.172   0.691   0.585 -0.9419 -1.3866  0.3932
   45SOL     MW  180   1.211   0.745   0.642  0.0145 -0.3532  0.8970
   46SOL     OW  181   0.575   1.130   0.583 -0.5120 -0.4102 -0.5422
   46SOL    HW1  182   0.546   1.100   0.499  0.5090  0.2618  0.0830
   46SOL    HW2  183   0.669   1.107   0.570  1.1945  1.7963  1.5590
   46SOL     MW  184   0.584   1.123   0.571 -0.1521 -0.0304 -0.1825
   47SOL     OW  185   0.230   1.997   1.966 -0.3145 -0.1381  0.1303
   47SOL    HW1  186   0.314   1.955   2.002 -0.1480 -2.1172  0.6096
   47SOL    HW2  187   0.193   2.033   2.044 -1.9249 -2.4425 -2.8437
   47SOL     MW  188   0.237   1.996   1.981 -0.5050 -0.7032 -0.1988
   48SOL     OW  189   1.096   0.521   1.082  0.6420  0.0359 -0.0824
   48SOL    HW1  190   0.998   0.522   1.098 -2.6580  0.4164  1.3877
   48SOL    HW2  191   1.113   0.610   1.048 -1.2972 -1.4419 -1.8383
   48SOL     MW  192   1.085   0.533   1.079 -0.0493 -0.1089 -0.1201
   49SOL     OW  193   1.700   0.692   1.558  0.5071  0.0132 -0.8126
   49SOL    HW1  194   1.682   0.632   1.632 -0.2589 -0.4378  0.8168
   49SOL    HW2  195   1.771   0.640   1.515  0.6324 -1.2227  1.1992
   49SOL     MW  196   1.707   0.677   1.562  0.4225 -0.2094 -0.3322
   50SOL     OW  197   1.303   1.107   0.511 -0.3184  0.2826  0.3101
   50SOL    HW1  198   1.258   1.128   0.593 -0.5103 -0.1749 -0.6388
   50SOL    HW2  199   1.376   1.060   0.548  0.1641  1.6962  1.4959
   50SOL     MW  200   1.307   1.103   0.527 -0.2800  0.4088  0.3413
   51SOL     OW  201   0.344   2.942   0.914 -0.3323 -0.1665 -0.2398
   51SOL    HW1  202   0.434   2.896   0.910  0.8465 -1.2846 -0.3975
   51SOL    HW2  203   0.332   2.979   1.008 -1.3431 -0.6010  1.4034
   51SOL     MW  204   0.354   2.941   0.926 -0.3101 -0.3714 -0.0438
   52SOL     OW  205   0.820   1.736   0.413  0.2907  0.3643 -0.3607
   52SOL    HW1  206   0.776   1.816   0.381 -0.0767  3.2767  1.3802
   52SOL    HW2  207   0.860   1.690   0.333  0.9409  0.8903  0.4051
   52SOL     MW  208   0.820   1.741   0.398  0.3280  0.8180 -0.0299
   53SOL     OW  209   0.443   2.134   0.464 -0.4374  0.3352  0.0943
   53SOL    HW1  210   0.364   2.123   0.407 -3.1497  1.4500 -1.2656
   53SOL    HW2  211   0.416   2.218   0.511  0.0091 -2.3812  1.4743
   53SOL     MW  212   0.429   2.144   0.463 -0.7363  0.1239  0.0969
   54SOL     OW  213   1.992   0.908   0.796  0.1553 -0.2104 -0.3007
   54SOL    HW1  214   2.051   0.913   0.721 -0.0401  0.3806 -0.4302
   54SOL    HW2  215   1.973   0.811   0.804  0.7840 -2.0729  0.8663
   54SOL     MW  216   1.998   0.895   0.787  0.2125 -0.3781 -0.1638
   55SOL     OW  217   0.541   1.559   1.600  0.4756 -0.1924  0.0537
   55SOL    HW1  218   0.484   1.583   1.523 -1.3606  2.3404  1.3781
   55SOL    HW2  219   0.614   1.507   1.562  0.0465 -2.1643 -0.0765
   55SOL     MW  220   0.543   1.556   1.585  0.1767 -0.1184  0.2112
   56SOL     OW  221   0.624   0.846   0.193  0.3916 -0.3219  0.1445
   56SOL    HW1  222   0.666   0.924   0.161 -1.6416 -0.0017 -2.6606
   56SOL    HW2  223   0.564   0.820   0.125  1.8622 -0.6205  1.5529
   56SOL     MW  224   0.622   0.853   0.179  0.3174 -0.3191 -0.0397
   57SOL     OW  225   1.189   1.288   1.152 -0.2013  0.4856 -0.3541
   57SOL    HW1  226   1.284   1.278   1.139 -3.9271 -0.8450 -1.5303
   57SOL    HW2  227   1.154   1.243   1.232 -1.9078  0.4413  0.7720
   57SOL     MW  228   1.197   1.280   1.161 -0.9180  0.3042 -0.3607
   58SOL     OW  229   0.538   1.231   1.349  0.6570 -0.2971 -0.5728
   58SOL    HW1  230   0.506   1.320   1.327 -0.2428 -0.6198  2.5208
   58SOL    HW2  231   0.521   1.224   1.446 -0.3553  1.4049 -1.8251
   58SOL     MW  232   0.531   1.242   1.359  0.4047 -0.1151 -0.3298
   59SOL     OW  233   1.535   1.694   0.351 -0.5006  0.1160 -0.2444
   59SOL    HW1  234   1.586   1.743   0.419  0.2285 -2.1173  0.7807
   59SOL    HW2  235   1.451   1.676   0.379  0.7797 -0.9647 -2.2307
   59SOL     MW  236   1.531   1.698   0.363 -0.2355 -0.3213 -0.3713
   60SOL     OW  237   0.034   0.237   1.677 -0.2691  0.5147  0.1083
   60SOL    HW1  238  -0.059   0.266   1.677  3.7540 -3.4767 -0.3645
   60SOL    HW2  239   0.030   0.150   1.721  0.5954 -0.5227 -1.0055
   60SOL     MW  240   0.021   0.229   1.683  0.3758 -0.1488 -0.1010
   61SOL     OW  241   1.994   1.403   3.047 -0.3138 -0.2182 -0.3799
   61SOL    HW1  242   1.984   1.432   3.140  0.4086 -0.2015  1.0693
   61SOL    HW2  243   2.074   1.354   3.043 -1.1231  0.1787  1.6668
   61SOL     MW  244   2.003   1.400   3.059 -0.3252 -0.1636  0.0813
   62SOL     OW  245   0.588   1.666   0.565 -0.4499  0.3951 -0.8558
   62SOL    HW1  246   0.672   1.668   0.517 -0.3190 -4.4290  1.6247
   62SOL    HW2  247   0.588   1.577   0.590  1.8446 -2.1171 -2.2483
   62SOL     MW  248   0.599   1.655   0.562 -0.1299 -0.5728 -0.7122
   63SOL     OW  249   1.706   0.680   0.712  0.5461 -0.5871  0.0380
   63SOL    HW1  250   1.733   0.761   0.666 -0.4880 -0.7104  0.4151
   63SOL    HW2  251   1.619   0.701   0.743  0.3169  0.0129 -1.6340
   63SOL     MW  252   1.698   0.693   0.710  0.3795 -0.5242 -0.1329
   64SOL     OW  253   0.220   1.728   0.857  0.0858 -0.4236  0.1777
   64SOL    HW1  254   0.257   1.755   0.772  2.3417 -0.9142 -1.0826
   64SOL    HW2  255   0.127   1.750   0.859 -1.6730 -0.6601  0.1052
   64SOL     MW  256   0.213   1.735   0.846  0.1514 -0.5195  0.0018
   65SOL     OW  257   1.589   2.295   0.424 -0.1483  0.2427  0.2295
   65SOL    HW1  258   1.663   2.274   0.476 -2.5507 -2.1934  1.5469
   65SOL    HW2  259   1.539   2.333   0.493  1.6616 -2.1850 -0.8932
   65SOL     MW  260   1.592   2.297   0.440 -0.2265 -0.3990  0.2551
   66SOL     OW  261   0.311   0.523   0.524  0.0496  0.3134 -0.0391
   66SOL    HW1  262   0.368   0.515   0.452 -0.7706  0.3171 -1.2462
   66SOL    HW2  263   0.273   0.609   0.510  2.1399  1.3935 -2.1146
   66SOL     MW  264   0.313   0.533   0.512  0.2172  0.4564 -0.4722
   67SOL     OW  265   1.478   0.119   1.970  0.0028  0.8926  0.2595
   67SOL    HW1  266   1.489   0.105   1.873 -0.3167 -0.4248 -1.2231
   67SOL    HW2  267   1.414   0.056   2.014  0.1896 -3.5933 -0.2357
   67SOL     MW  268   1.471   0.109   1.963 -0.0147  0.1269 -0.0015
   68SOL     OW  269   0.713   0.054   2.992  0.3219  0.9215  0.6188
   68SOL    HW1  270   0.705   0.124   2.923  1.8123  1.4892 -2.2757
   68SOL    HW2  271   0.800   0.062   3.042 -0.1835 -1.6690 -1.0356
   68SOL     MW  272   0.724   0.064   2.990  0.4519  0.6546  0.0186
   69SOL     OW  273   1.012   0.192   1.975 -0.3936 -0.1528  0.1116
   69SOL    HW1  274   1.101   0.216   2.003 -2.1929  2.0436  0.1944
   69SOL    HW2  275   0.995   0.103   2.009  2.1928 -2.9400  0.5989
   69SOL     MW  276   1.021   0.184   1.983 -0.2897 -0.2308  0.1868
   70SOL     OW  277   0.569   1.779   1.170 -0.3100  0.6666 -0.1521
   70SOL    HW1  278   0.621   1.722   1.232  0.3627  3.4389 -1.2626
   70SOL    HW2  279   0.635   1.814   1.106  0.7122  1.3499  0.3181
   70SOL     MW  280   0.585   1.776   1.170 -0.0864  1.1226 -0.2366
   71SOL     OW  281   1.592   0.479   1.240 -0.0387 -0.0455 -0.2515
   71SOL    HW1  282   1.550   0.548   1.297 -0.1665 -0.1221 -1.0546
   71SOL    HW2  283   1.559   0.516   1.157  2.3886  2.2537 -0.3043
   71SOL     MW  284   1.582   0.493   1.237  0.2647  0.2477 -0.3645
   72SOL     OW  285   0.800   1.860   1.040 -0.2427 -0.0287 -0.0818
   72SOL    HW1  286   0.772   1.896   0.954 -0.9282 -3.2915  1.0484
   72SOL    HW2  287   0.833   1.770   1.014  1.2455 -1.6679  2.5373
   72SOL     MW  288   0.800   1.853   1.025 -0.1368 -0.6754  0.4129
   73SOL     OW  289   1.173   0.739   1.297  0.3063 -0.2587 -0.4228
   73SOL    HW1  290   1.129   0.652   1.311 -0.3233 -2.3255  1.9954
   73SOL    HW2  291   1.122   0.813   1.337 -0.7917 -1.4222  1.6397
   73SOL     MW  292   1.160   0.737   1.304  0.0783 -0.6849  0.1684
   74SOL     OW  293   2.772   0.207   1.117  0.4251  0.5110  0.0966
   74SOL    HW1  294   2.798   0.136   1.057  0.1098  0.7677  2.0171
   74SOL    HW2  295   2.704   0.266   1.081  0.6778  0.3613  1.8150
   74SOL     MW  296   2.766   0.205   1.105  0.4168  0.5251  0.5767
   75SOL     OW  297   1.570   1.454   0.129  0.2085 -0.2500 -0.2317
   75SOL    HW1  298   1.635   1.517   0.156  1.0502 -1.5395 -2.6520
   75SOL    HW2  299   1.574   1.388   0.193  2.2457  0.9684 -1.5733
   75SOL     MW  300   1.579   1.454   0.141  0.5884 -0.2594 -0.7280
   76SOL     OW  301   2.949   0.553   0.477 -0.0229  0.6091 -0.0740
   76SOL    HW1  302   2.974   0.584   0.564  1.0346  0.4833 -0.4529
   76SOL    HW2  303   3.031   0.519   0.439  1.5711  3.6766 -0.3558
   76SOL     MW  304   2.963   0.553   0.483  0.3270  0.9972 -0.1611
   77SOL     OW  305   0.830   0.569   0.479 -0.3133 -0.3861 -0.0516
   77SOL    HW1  306   0.815   0.572   0.383 -1.9689 -1.8680  0.3604
   77SOL    HW2  307   0.806   0.479   0.502  0.2624  1.5233 -0.1180
   77SOL     MW  308   0.825   0.558   0.469 -0.4558 -0.3297 -0.0060
   78SOL     OW  309   0.761   0.894   1.203  0.0868 -0.5677 -0.3514
   78SOL    HW1  310   0.800   0.942   1.129  0.9433  2.3014 -2.9323
   78SOL    HW2  311   0.677   0.859   1.177 -1.2052  1.1813 -1.7598
   78SOL     MW  312   0.755   0.896   1.190  0.0294  0.0416 -0.8777
   79SOL     OW  313   1.901   1.663   0.614  0.2170  0.1456  0.2777
   79SOL    HW1  314   1.825   1.619   0.577 -0.0070 -1.1041 -0.2378
   79SOL    HW2  315   1.894   1.648   0.708 -2.1426 -1.2828  0.2951
   79SOL     MW  316   1.890   1.655   0.621 -0.1239 -0.2078  0.2120
   80SOL     OW  317   0.055   0.925   0.318  0.0483  0.0110  0.2250
   80SOL    HW1  318  -0.031   0.890   0.349  1.4814 -1.5094  0.8484
   80SOL    HW2  319   0.110   0.880   0.379  0.7810 -0.0813 -1.1170
   80SOL     MW  320   0.051   0.914   0.330  0.3340 -0.2018  0.1302
   81SOL     OW  321   1.888   1.867   0.318 -0.1095  0.6762  0.4077
   81SOL    HW1  322   1.861   1.780   0.276  0.4157  2.0533 -1.9086
   81SOL    HW2  323   1.836   1.929   0.258  0.1509 -0.0184 -0.0779
   81SOL     MW  324   1.878   1.863   0.305 -0.0058  0.7662  0.0380
   82SOL     OW  325   0.811   0.996   0.547  0.4188 -0.5104  0.0127
   82SOL    HW1  326   0.840   1.009   0.454 -1.5536  0.3693  0.2380
   82SOL    HW2  327   0.765   0.914   0.544 -1.6434 -1.4907  1.2074
   82SOL     MW  328   0.809   0.987   0.534 -0.1135 -0.5236  0.2001
   83SOL     OW  329   0.090   0.688   1.453 -0.1168  0.5504  0.2326
   83SOL    HW1  330   0.127   0.747   1.388 -0.7229 -0.9988 -0.9558
   83SOL    HW2  331   0.152   0.623   1.478  1.3438  3.1538  0.6431
   83SOL     MW  332   0.103   0.687   1.448 -0.0041  0.6895  0.1299
   84SOL     OW  333   0.098   0.190   0.971 -0.2311 -0.3051 -0.4979
   84SOL    HW1  334   0.028   0.258   0.980 -0.2339  0.4851 -1.9307
   84SOL    HW2  335   0.108   0.150   1.060  0.5574 -1.1786  0.7308
   84SOL     MW  336   0.090   0.193   0.984 -0.1274 -0.3161 -0.5249
   85SOL     OW  337   0.452   0.469   0.750 -0.2291 -0.1406  0.2250
   85SOL    HW1  338   0.418   0.499   0.663 -1.1674  0.1696 -0.5756
   85SOL    HW2  339   0.432   0.380   0.753  1.6093 -0.9769  0.2419
   85SOL     MW  340   0.445   0.461   0.739 -0.1104 -0.2100  0.1216
   86SOL     OW  341   1.165   0.255   1.120 -0.1746  0.4434  0.2590
   86SOL    HW1  342   1.127   0.342   1.113 -1.7314  2.0735  0.5336
   86SOL    HW2  343   1.251   0.275   1.152 -1.8006  1.8877  2.0836
   86SOL     MW  344   1.171   0.269   1.123 -0.5945  0.8491  0.5360
   87SOL     OW  345   1.185   1.525   1.261 -0.7075 -0.7833 -0.4865
   87SOL    HW1  346   1.245   1.583   1.220 -1.3366 -0.9669 -0.4397
   87SOL    HW2  347   1.196   1.442   1.221  0.0525 -0.4475  0.8606
   87SOL     MW  348   1.195   1.521   1.250 -0.6902 -0.7632 -0.3026
   88SOL     OW  349   1.189   1.053   0.972 -0.5468  0.1001  0.5541
   88SOL    HW1  350   1.284   1.060   0.949  1.9878  1.0433 -3.5814
   88SOL    HW2  351   1.163   1.128   1.027 -0.2243 -0.8034 -0.3611
   88SOL     MW  352   1.198   1.064   0.976 -0.1698  0.1054 -0.1123
   89SOL     OW  353   1.752   0.755   0.351 -0.0143  0.0587 -0.6963
   89SOL    HW1  354   1.744   0.661   0.358  0.6663  0.4443 -1.1603
   89SOL    HW2  355   1.848   0.771   0.330  2.2124 -1.4141  0.7310
   89SOL     MW  356   1.764   0.745   0.349  0.3693 -0.0847 -0.5692
   90SOL     OW  357   0.810   1.072   2.793 -0.1304  0.3619 -0.2294
   90SOL    HW1  358   0.855   1.004   2.833 -2.3639  1.5652 -2.9681
   90SOL    HW2  359   0.839   1.145   2.848  1.9855 -1.4992  2.2816
   90SOL     MW  360   0.819   1.072   2.805 -0.1459  0.2751 -0.2595
   91SOL     OW  361   2.164   0.664   0.502  0.0516  0.3784  0.5371
   91SOL    HW1  362   2.226   0.737   0.477  2.6156 -1.2705  1.3724
   91SOL    HW2  363   2.187   0.579   0.471 -0.2343  1.3562 -0.5423
   91SOL     MW  364   2.175   0.663   0.494  0.3522  0.2898  0.5049
   92SOL     OW  365   1.743   0.919   0.574 -0.6094  0.3625  0.6688
   92SOL    HW1  366   1.653   0.926   0.600  1.8226 -1.6768  1.0960
   92SOL    HW2  367   1.738   0.881   0.483  0.7979  0.0258 -0.3443
   92SOL     MW  368   1.731   0.915   0.565 -0.1028  0.0490  0.5915
   93SOL     OW  369   1.005   0.221   0.423  0.8999 -0.4066 -0.4030
   93SOL    HW1  370   0.923   0.255   0.456  1.2220 -0.6822 -0.0001
   93SOL    HW2  371   1.008   0.252   0.328  1.6905 -0.4441 -1.2246
   93SOL     MW  372   0.995   0.230   0.415  1.0467 -0.4479 -0.4582
   94SOL     OW  373   1.866   1.387   1.645 -0.0577  0.3707 -1.5600
   94SOL    HW1  374   1.880   1.386   1.548  1.8497 -2.2021  2.5838
   94SOL    HW2  375   1.827   1.299   1.660  0.8084  0.1176 -0.6936
   94SOL     MW  376   1.863   1.375   1.635  0.3082 -0.0021 -0.8990
   95SOL     OW  377   0.805   1.557   0.953  0.0075 -0.2030  0.2021
   95SOL    HW1  378   0.846   1.535   1.034 -0.6185  0.4507  0.6147
   95SOL    HW2  379   0.725   1.505   0.939 -1.0321  1.9315 -0.1194
   95SOL     MW  380   0.800   1.547   0.962 -0.2122  0.1649  0.2142
   96SOL     OW  381   1.298   1.889   1.694  0.2537  0.0185  0.4829
   96SOL    HW1  382   1.212   1.891   1.738  0.2915  0.8768  3.8957
   96SOL    HW2  383   1.309   1.795   1.657 -1.9597  4.2681 -0.6818
   96SOL     MW  384   1.288   1.877   1.695 -0.0334  0.6925  0.7795
   97SOL     OW  385   1.159   1.441   0.869 -0.8388 -0.0247  0.2483
   97SOL    HW1  386   1.199   1.508   0.924 -0.4805  0.0952  1.4318
   97SOL    HW2  387   1.075   1.484   0.849  1.9431 -1.1220 -0.9277
   97SOL     MW  388   1.153   1.455   0.873 -0.4245 -0.1536  0.2493
   98SOL     OW  389   1.462   1.287   1.098  0.8393  0.0692 -0.0404
   98SOL    HW1  390   1.515   1.343   1.154  1.1174  0.3532  0.6334
   98SOL    HW2  391   1.464   1.327   1.017  0.2755 -1.9028  0.6281
   98SOL     MW  392   1.470   1.299   1.095  0.8016 -0.1535  0.1367
   99SOL     OW  393   1.385   0.279   1.279  0.5400 -0.1769  0.2183
   99SOL    HW1  394   1.470   0.300   1.239 -1.1271  0.5543  1.2154
   99SOL    HW2  395   1.388   0.308   1.373  0.4490  1.1466 -0.6918
   99SOL     MW  396   1.396   0.286   1.286  0.3080  0.0942  0.2297
  100SOL     OW  397   1.032   1.200   1.374 -0.1121  0.3255 -0.4748
  100SOL    HW1  398   1.037   1.237   1.465  0.1722  1.1313 -1.3903
  100SOL    HW2  399   1.060   1.105   1.388  1.7001  0.4615  0.9825
  100SOL     MW  400   1.037   1.193   1.388  0.1645  0.4498 -0.4033
  101SOL     OW  401   0.498   1.180   0.300 -0.1949  0.1785 -0.2114
  101SOL    HW1  402   0.411   1.166   0.260 -2.6740  1.4677  1.6120
  101SOL    HW2  403   0.551   1.137   0.235 -3.0197  0.3950  1.9777
  101SOL     MW  404   0.494   1.173   0.286 -0.8947  0.3772  0.3180
  102SOL     OW  405   2.910   0.651   0.976  0.2096  0.0590  0.0327
  102SOL    HW1  406   2.975   0.719   0.958  1.8623  2.0257 -1.6899
  102SOL    HW2  407   2.892   0.639   1.071 -0.2448 -1.0765 -0.0911
  102SOL     MW  408   2.916   0.659   0.986  0.3677  0.1686 -0.2109
  103SOL     OW  409   1.682   0.285   1.869 -0.0110 -0.4760  0.3799
  103SOL    HW1  410   1.702   0.209   1.812  1.6897 -1.8633 -0.3530
  103SOL    HW2  411   1.609   0.257   1.916  3.2110 -0.7056 -1.2224
  103SOL     MW  412   1.675   0.271   1.868  0.6385 -0.6893  0.0718
  104SOL     OW  413   0.146   1.500   1.610 -0.0102  0.0933 -0.5598
  104SOL    HW1  414   0.194   1.428   1.638 -0.9451  0.9920 -0.5766
  104SOL    HW2  415   0.063   1.470   1.590  1.8183  1.3420  2.1148
  104SOL     MW  416   0.142   1.487   1.611  0.1077  0.3766 -0.2092
  105SOL     OW  417   0.051   1.215   0.404 -0.2406 -0.2919  0.1972
  105SOL    HW1  418   0.084   1.119   0.384 -0.3673 -3.5999  0.3738
  105SOL    HW2  419   0.129   1.270   0.417  1.0781  0.6950  1.2114
  105SOL     MW  420   0.066   1.210   0.403 -0.0833 -0.5981  0.3543
  106SOL     OW  421   0.819   0.367   1.012 -0.0229  0.6615  0.2309
  106SOL    HW1  422   0.750   0.423   0.974 -0.3150  0.2190  1.7572
  106SOL    HW2  423   0.896   0.363   0.950 -1.4535 -0.0024 -0.5280
  106SOL     MW  424   0.820   0.373   0.999 -0.2502  0.5155  0.3322
  107SOL     OW  425   0.794   2.183   2.918 -0.1953 -0.6514 -0.4221
  107SOL    HW1  426   0.726   2.155   2.855 -0.9137 -1.1988  0.2180
  107SOL    HW2  427   0.791   2.130   3.001  1.8829  1.1903  1.2258
  107SOL     MW  428   0.785   2.173   2.920 -0.0159 -0.4807 -0.1202
  108SOL     OW  429   1.341   1.618   1.628  0.9271 -0.8752 -0.1933
  108SOL    HW1  430   1.265   1.599   1.560 -2.3595  2.8870 -0.9179
  108SOL    HW2  431   1.415   1.567   1.601 -0.7081  1.2469 -0.2346
  108SOL     MW  432   1.340   1.609   1.616  0.2777 -0.0989 -0.2943
  109SOL     OW  433   2.009   0.791   0.252  0.4978 -0.2485 -0.2084
  109SOL    HW1  434   2.039   0.885   0.261  2.4976  0.7793  3.2411
  109SOL    HW2  435   2.063   0.748   0.317 -0.3024  0.2579 -2.0030
  109SOL     MW  436   2.020   0.798   0.262  0.6561 -0.0460  0.0099
  110SOL     OW  437   0.389   1.889   0.624  0.5071  0.7726 -0.1623
  110SOL    HW1  438   0.464   1.841   0.603 -2.2273  1.9333 -1.9431
  110SOL    HW2  439   0.393   1.966   0.565  1.4430 -0.8265  0.5856
  110SOL     MW  440   0.399   1.893   0.613  0.2698  0.7148 -0.2986
  111SOL     OW  441   0.783   0.882   1.480 -0.7568 -0.4775  0.0157
  111SOL    HW1  442   0.775   0.886   1.382  2.1556 -1.1645 -1.1471
  111SOL    HW2  443   0.780   0.789   1.493 -0.1072 -0.9890 -0.4411
  111SOL     MW  444   0.781   0.870   1.469 -0.2868 -0.6356 -0.1980
  112SOL     OW  445   1.302   1.111   1.630  0.5986 -0.2544 -0.0445
  112SOL    HW1  446   1.224   1.167   1.642  1.0403 -1.2419 -0.2660
  112SOL    HW2  447   1.277   1.020   1.619 -0.7146 -0.4745  1.1229
  112SOL     MW  448   1.289   1.106   1.630  0.4836 -0.4137  0.0803
  113SOL     OW  449   1.273   3.076   1.736  0.0325  0.4983  0.3957
  113SOL    HW1  450   1.271   3.016   1.813  2.3471 -3.5049 -1.2351
  113SOL    HW2  451   1.289   3.019   1.657  0.2886  2.6427 -4.2104
  113SOL     MW  452   1.275   3.061   1.736  0.3717  0.2531 -0.4272
  114SOL     OW  453   0.264   2.837   1.914 -0.2886 -0.1940 -0.9850
  114SOL    HW1  454   0.338   2.891   1.948  1.5299  1.8296 -0.3529
  114SOL    HW2  455   0.222   2.899   1.859 -1.5056  1.8734  1.8338
  114SOL     MW  456   0.268   2.852   1.911 -0.2093  0.3458 -0.5297
  115SOL     OW  457   0.494   0.863   1.125 -0.2632  0.2198 -0.1971
  115SOL    HW1  458   0.483   0.771   1.147 -4.3029 -0.3490  0.0255
  115SOL    HW2  459   0.449   0.911   1.200 -0.5448  1.9269  0.3436
  115SOL     MW  460   0.487   0.858   1.137 -0.8334  0.3700 -0.0964
  116SOL     OW  461   0.785   1.063   0.991 -0.2142  0.2254  0.7149
  116SOL    HW1  462   0.825   1.093   0.907 -1.0865  0.6876  2.2218
  116SOL    HW2  463   0.784   1.138   1.060 -0.2772  0.3190 -0.3557
  116SOL     MW  464   0.790   1.077   0.989 -0.3376  0.2987  0.7724
  117SOL     OW  465   1.170   1.202   0.733 -0.5987 -0.2741  0.3772
  117SOL    HW1  466   1.189   1.138   0.806 -2.0665 -0.1471 -0.2201
  117SOL    HW2  467   1.194   1.287   0.774 -0.6152  3.3749 -0.7048
  117SOL     MW  468   1.175   1.205   0.748 -0.7945  0.2241  0.1556
  118SOL     OW  469   3.038   2.962   1.649  0.0107  0.1461 -0.2594
  118SOL    HW1  470   3.078   2.993   1.736  0.1260  2.8712  0.6559
  118SOL    HW2  471   2.964   3.017   1.632  0.3729 -1.2697  2.1591
  118SOL     MW  472   3.034   2.973   1.658  0.0737  0.3188  0.1804
  119SOL     OW  473   0.462   1.495   1.205  0.0058  0.2038  0.3213
  119SOL    HW1  474   0.494   1.577   1.168 -0.8550 -1.6956  0.7270
  119SOL    HW2  475   0.364   1.501   1.196 -0.0507  1.4459 -1.1473
  119SOL     MW  476   0.453   1.507   1.199 -0.1152  0.1171  0.1810
  120SOL     OW  477   0.298   0.768   0.947 -0.7142 -0.1540 -0.4145
  120SOL    HW1  478   0.239   0.797   1.014 -0.3046  0.9944  0.6432
  120SOL    HW2  479   0.379   0.808   0.975  0.8814 -2.0049 -0.3708
  120SOL     MW  480   0.301   0.777   0.959 -0.4496 -0.2467 -0.2692
  121SOL     OW  481   1.771   1.110   1.702  0.2137 -0.5882 -0.0768
  121SOL    HW1  482   1.690   1.066   1.716  3.9202  1.0204 -0.9712
  121SOL    HW2  483   1.823   1.053   1.642  1.5672 -0.2388 -2.1755
  121SOL     MW  484   1.767   1.096   1.696  0.8813 -0.3298 -0.4717
  122SOL     OW  485   0.154   0.508   0.805  0.4813 -0.6010  0.2175
  122SOL    HW1  486   0.212   0.446   0.757  1.9989  0.8033  0.0955
  122SOL    HW2  487   0.218   0.568   0.848 -0.8424 -0.3453 -0.2643
  122SOL     MW  488   0.170   0.508   0.804  0.5069 -0.3820  0.1378
  123SOL     OW  489   1.887   1.142   0.503 -0.2448  0.3886 -0.0930
  123SOL    HW1  490   1.832   1.065   0.534 -1.6211  0.9916 -0.9656
  123SOL    HW2  491   1.905   1.179   0.586 -2.7515 -1.6551  0.1606
  123SOL     MW  492   1.882   1.137   0.518 -0.7572  0.1985 -0.1747
  124SOL     OW  493   0.617   0.570   0.922 -0.1684 -0.0828 -0.3558
  124SOL    HW1  494   0.574   0.549   0.840 -0.8387  0.6552  0.2458
  124SOL    HW2  495   0.658   0.660   0.908  0.5849 -1.4197  0.8639
  124SOL     MW  496   0.617   0.579   0.909 -0.1574 -0.1618 -0.1155
  125SOL     OW  497   0.675   1.780   1.724  0.4172 -0.0606  0.1359
  125SOL    HW1  498   0.614   1.712   1.694  2.0089 -0.3653 -0.2137
  125SOL    HW2  499   0.624   1.868   1.719  0.0402  1.8637  1.5845
  125SOL     MW  500   0.660   1.782   1.720  0.5774  0.1531  0.2809
  126SOL     OW  501   2.112   1.595   1.963 -0.0632  0.5308  0.2757
  126SOL    HW1  502   2.158   1.680   1.959  0.6839 -0.1259 -1.0163
  126SOL    HW2  503   2.186   1.535   1.979 -1.0649  1.7323 -0.0386
  126SOL     MW  504   2.128   1.598   1.965 -0.0968  0.6027  0.0638
  127SOL     OW  505   0.596   0.793   1.836 -0.4319 -0.1314 -0.0231
  127SOL    HW1  506   0.679   0.796   1.886 -0.1375  2.8952  0.8113
  127SOL    HW2  507   0.552   0.876   1.858 -0.8037  0.2602  0.7624
  127SOL     MW  508   0.601   0.804   1.846 -0.4421  0.3196  0.1906
  128SOL     OW  509   1.719   0.717   2.907 -0.3101 -0.6304 -0.4282
  128SOL    HW1  510   1.732   0.687   2.819  0.7165  1.3890  0.8935
  128SOL    HW2  511   1.707   0.814   2.910  1.0387  0.7932 -1.5062
  128SOL     MW  512   1.719   0.726   2.896  0.0033 -0.1761 -0.3961
  129SOL     OW  513   1.616   0.929   0.166  0.4433 -0.5448 -0.2115
  129SOL    HW1  514   1.540   0.884   0.126 -0.5308 -1.0714 -1.6416
  129SOL    HW2  515   1.658   0.873   0.234  1.2510 -1.8925 -2.2858
  129SOL     MW  516   1.612   0.916   0.170  0.4214 -0.7921 -0.6739
  130SOL     OW  517   0.751   1.386   0.317  0.5593 -0.3947  0.0152
  130SOL    HW1  518   0.767   1.381   0.411 -2.0507 -0.0522 -1.5333
  130SOL    HW2  519   0.816   1.451   0.280  1.6259  2.1365  0.1058
  130SOL     MW  520   0.762   1.394   0.324  0.3557 -0.0155 -0.1772
  131SOL     OW  521   3.049   0.851   0.035  0.1807  0.4755 -0.0517
  131SOL    HW1  522   3.073   0.891  -0.044  0.3961 -1.5491 -0.7459
  131SOL    HW2  523   3.125   0.804   0.067 -3.6771  0.7505  0.6109
  131SOL     MW  524   3.062   0.850   0.029 -0.2999  0.2447 -0.0558
  132SOL     OW  525   2.670   0.132   1.350  0.0860 -0.6710  0.5811
  132SOL    HW1  526   2.721   0.159   1.270  0.3997  1.9783 -1.5423
  132SOL    HW2  527   2.585   0.108   1.310 -2.2803 -1.6748  2.0114
  132SOL     MW  528   2.665   0.132   1.335 -0.1848 -0.4539  0.4897
  133SOL     OW  529   1.063   0.156   1.722  0.4681  0.1918  0.0713
  133SOL    HW1  530   1.134   0.090   1.732 -0.6800 -2.3683  2.1998
  133SOL    HW2  531   1.025   0.155   1.811  1.3636  0.3611  0.4855
  133SOL     MW  532   1.068   0.147   1.735  0.4348 -0.1236  0.4067
  134SOL     OW  533   1.420   2.535   1.403 -0.1665 -0.1195 -0.1527
  134SOL    HW1  534   1.335   2.580   1.399 -2.6959 -0.3415 -1.6752
  134SOL    HW2  535   1.445   2.546   1.494 -2.3576 -1.4676 -0.2223
  134SOL     MW  536   1.412   2.542   1.414 -0.7893 -0.3267 -0.3627
  135SOL     OW  537   3.016   0.997   2.887  0.1693 -0.0706 -0.3732
  135SOL    HW1  538   3.098   1.062   2.906  2.4459 -0.0402  1.7826
  135SOL    HW2  539   2.937   1.055   2.884  0.2204 -1.1778 -0.4206
  135SOL     MW  540   3.016   1.013   2.889  0.4764 -0.2127 -0.0950
  136SOL     OW  541   0.179   2.022   0.790  0.1605  0.2776 -0.0753
  136SOL    HW1  542   0.111   1.955   0.761 -0.2845 -0.4373 -2.8759
  136SOL    HW2  543   0.251   2.010   0.731  1.2179  1.2745  0.6295
  136SOL     MW  544   0.180   2.012   0.779  0.2413  0.3148 -0.3518
  137SOL     OW  545   0.688   2.011   0.518  0.0089 -0.2030 -0.5066
  137SOL    HW1  546   0.727   1.995   0.606 -0.0652  1.4637 -0.0737
  137SOL    HW2  547   0.598   2.041   0.519 -0.8798 -0.3618  1.3167
  137SOL     MW  548   0.682   2.013   0.529 -0.1181 -0.0041 -0.2089
  138SOL     OW  549   0.504   0.588   1.174  0.4324  0.1319  0.4050
  138SOL    HW1  550   0.413   0.556   1.168 -1.4074  2.3858 -2.5516
  138SOL    HW2  551   0.539   0.579   1.083  0.6349 -0.6748 -0.7504
  138SOL     MW  552   0.497   0.583   1.161  0.2164  0.3228 -0.1375
  139SOL     OW  553   2.837   0.590   1.226  0.8617 -0.1515 -0.5828
  139SOL    HW1  554   2.897   0.518   1.259  1.9833 -1.3691 -0.7685
  139SOL    HW2  555   2.825   0.633   1.309 -1.4931 -1.7949 -1.2679
  139SOL     MW  556   2.843   0.586   1.241  0.6990 -0.5290 -0.6977
  140SOL     OW  557   0.948   0.475   2.047  0.0813  0.7913 -0.0702
  140SOL    HW1  558   0.953   0.390   2.007  1.2250 -2.0811  1.9964
  140SOL    HW2  559   0.940   0.450   2.136  2.1691  4.2334 -0.5028
  140SOL     MW  560   0.947   0.460   2.053  0.5076  0.8665  0.1454
  141SOL     OW  561   1.019   0.624   1.758 -0.1249  0.2352 -0.6469
  141SOL    HW1  562   1.079   0.555   1.735  0.1022  1.0308  1.4700
  141SOL    HW2  563   1.064   0.695   1.711 -1.1937  0.0885  1.6044
  141SOL     MW  564   1.032   0.624   1.749 -0.2359  0.3208 -0.0705
  142SOL     OW  565   0.895   1.147   0.749  0.1337 -0.7443  0.2477
  142SOL    HW1  566   0.893   1.071   0.680  0.0814 -0.5993  1.0427
  142SOL    HW2  567   0.984   1.187   0.741  0.5216 -2.0663  0.8859
  142SOL     MW  568   0.907   1.142   0.739  0.1779 -0.8996  0.4368
  143SOL     OW  569   1.822   0.760   1.070 -0.2241 -0.0623 -0.0924
  143SOL    HW1  570   1.876   0.736   0.994  2.5106 -0.9676 -0.0641
  143SOL    HW2  571   1.733   0.736   1.042  0.2842  1.1858  1.4705
  143SOL     MW  572   1.818   0.754   1.056  0.2038 -0.0171  0.1176
  144SOL     OW  573   0.305   1.287   1.657  0.3929  0.1118  0.7081
  144SOL    HW1  574   0.396   1.253   1.649 -1.5012 -2.7227  2.2445
  144SOL    HW2  575   0.282   1.266   1.750  1.5705 -0.3888  0.2109
  144SOL     MW  576   0.314   1.279   1.668  0.2984 -0.3283  0.8452
  145SOL     OW  577   0.250   0.499   1.179 -0.5428  0.1566  0.0278
  145SOL    HW1  578   0.296   0.421   1.216 -0.6098  0.0296 -1.8832
  145SOL    HW2  579   0.159   0.477   1.172  5.7378 -3.3677  2.1017
  145SOL     MW  580   0.244   0.486   1.183  0.2771 -0.3252  0.0493
  146SOL     OW  581   0.841   1.978   1.409 -0.9488  0.1355  0.1824
  146SOL    HW1  582   0.903   2.001   1.337  1.0549  0.3827 -0.7865
  146SOL    HW2  583   0.755   2.000   1.368 -0.1282 -1.7591  1.1985
  146SOL     MW  584   0.838   1.984   1.394 -0.5761 -0.0819  0.1886
  147SOL     OW  585   0.374   0.460   3.016 -0.4369  0.4641 -0.0085
  147SOL    HW1  586   0.321   0.447   3.097 -1.2112 -1.8932  0.4912
  147SOL    HW2  587   0.318   0.507   2.955  0.2650  1.1698  1.2723
  147SOL     MW  588   0.360   0.465   3.019 -0.4464  0.2462  0.2264
  148SOL     OW  589   0.113   0.954   1.314 -0.5436 -0.1633 -0.3041
  148SOL    HW1  590   0.205   0.970   1.301 -2.3545  1.0120  3.8958
  148SOL    HW2  591   0.086   1.011   1.386  0.7623  2.5062  0.7717
  148SOL     MW  592   0.122   0.963   1.322 -0.6102  0.3440  0.3919
  149SOL     OW  593   1.423   1.135   1.378  0.3960 -0.5314  0.6026
  149SOL    HW1  594   1.360   1.128   1.449 -0.5926 -2.4538 -2.5494
  149SOL    HW2  595   1.469   1.214   1.390  0.0558 -1.4671  0.1394
  149SOL     MW  596   1.420   1.144   1.389  0.2207 -0.9085  0.1256
  150SOL     OW  597   1.744   1.377   0.757  0.0879  0.0609  0.3794
  150SOL    HW1  598   1.799   1.304   0.779 -1.0380  2.3270 -1.3850
  150SOL    HW2  599   1.768   1.449   0.814 -0.8178 -2.0851 -0.6781
  150SOL     MW  600   1.754   1.377   0.768 -0.1801  0.0767  0.0071
  151SOL     OW  601   1.667   1.780   0.805 -0.0397 -0.0159 -0.7066
  151SOL    HW1  602   1.664   1.821   0.718 -0.0181  2.1080 -2.8806
  151SOL    HW2  603   1.583   1.730   0.813  1.0628 -0.6516 -1.5568
  151SOL     MW  604   1.656   1.779   0.795  0.1086  0.1804 -1.1056
  152SOL     OW  605   0.780   1.422   1.597  0.1456  0.4449  1.0136
  152SOL    HW1  606   0.787   1.337   1.558 -2.3130  1.2235 -0.5857
  152SOL    HW2  607   0.866   1.461   1.599 -2.2331  0.2133 -3.1215
  152SOL     MW  608   0.792   1.416   1.592 -0.4926  0.5171  0.2570
  153SOL     OW  609   2.620   1.212   0.802 -0.3221 -0.2203 -0.0323
  153SOL    HW1  610   2.698   1.176   0.750  0.7860 -0.5195 -3.5611
  153SOL    HW2  611   2.554   1.150   0.780 -1.3162 -0.4185 -1.8793
  153SOL     MW  612   2.622   1.200   0.792 -0.3071 -0.2859 -0.7416
  154SOL     OW  613   0.175   1.761   1.711  0.1021 -0.2138 -0.1190
  154SOL    HW1  614   0.185   1.680   1.668  0.2147  1.5083  0.5421
  154SOL    HW2  615   0.207   1.743   1.797 -4.0514  1.3933  2.2123
  154SOL     MW  616   0.180   1.748   1.717 -0.4310  0.2255  0.2758
  155SOL     OW  617   1.174   0.665   0.241 -0.2385  0.5103  0.6073
  155SOL    HW1  618   1.156   0.588   0.287  2.2311  1.8608 -0.0309
  155SOL    HW2  619   1.159   0.741   0.303 -1.1412  1.6931  0.0753
  155SOL     MW  620   1.170   0.665   0.255 -0.0318  0.8446  0.4529
  156SOL     OW  621   1.514   3.006   1.083  0.0678  0.0152 -0.2605
  156SOL    HW1  622   1.589   3.057   1.114  0.5347  0.7023 -1.4597
  156SOL    HW2  623   1.538   2.919   1.111  2.4265 -0.1262 -0.1132
  156SOL     MW  624   1.527   3.001   1.091  0.4406  0.0872 -0.3993
  157SOL     OW  625   1.439   1.182   0.105 -0.2414  0.2252 -0.0524
  157SOL    HW1  626   1.481   1.102   0.157 -0.8635 -1.1142 -0.2044
  157SOL    HW2  627   1.509   1.234   0.062 -1.8371  2.4430  0.0492
  157SOL     MW  628   1.454   1.178   0.106 -0.5340  0.3411 -0.0590
  158SOL     OW  629   0.440   1.623   2.231 -0.6936  0.4152  0.4290
  158SOL    HW1  630   0.409   1.685   2.167 -1.9105 -0.2648  1.5313
  158SOL    HW2  631   0.398   1.654   2.310 -0.5035 -0.0368 -1.9395
  158SOL     MW  632   0.430   1.635   2.233 -0.8291  0.2658  0.2619
  159SOL     OW  633   1.254   1.700   0.457 -0.4794  0.7962  0.2252
  159SOL    HW1  634   1.222   1.629   0.390  0.3849  0.0684 -3.0154
  159SOL    HW2  635   1.180   1.720   0.512  1.0978  0.3338 -0.9168
  159SOL     MW  636   1.240   1.693   0.455 -0.1572  0.6391 -0.3530
  160SOL     OW  637   0.516   1.133   1.600  0.0531  0.4766 -0.5616
  160SOL    HW1  638   0.491   1.042   1.625  0.2830  0.4505  0.6259
  160SOL    HW2  639   0.611   1.128   1.606 -0.7539  2.8128  4.5352
  160SOL     MW  640   0.525   1.120   1.604 -0.0230  0.7814  0.2676
  161SOL     OW  641   0.507   2.280   2.549 -0.3616 -0.0560  0.1650
  161SOL    HW1  642   0.416   2.295   2.557  2.0429 -0.1199 -0.5637
  161SOL    HW2  643   0.514   2.206   2.488  0.6318 -0.8630 -1.0875
  161SOL     MW  644   0.496   2.273   2.542  0.0867 -0.1709 -0.0964
  162SOL     OW  645   1.105   1.780   1.894  0.7930 -0.3441 -0.6419
  162SOL    HW1  646   1.102   1.858   1.960 -0.3554 -1.5646  0.9401
  162SOL    HW2  647   1.018   1.747   1.920  2.9160  0.5728  1.2192
  162SOL     MW  648   1.093   1.786   1.906  0.9216 -0.3842 -0.1876
  163SOL     OW  649   2.120   3.036   0.855  0.1116 -0.6493  0.2265
  163SOL    HW1  650   2.082   3.117   0.805 -0.0946  1.8591  0.8611
  163SOL    HW2  651   2.099   2.957   0.808  1.4721 -0.7486 -0.9681
  163SOL     MW  652   2.112   3.036   0.842  0.2639 -0.3314  0.1526
  164SOL     OW  653   0.321   0.216   0.823 -0.4434  0.1608  0.2456
  164SOL    HW1  654   0.234   0.206   0.872  1.0366  1.6846  0.0226
  164SOL    HW2  655   0.326   0.139   0.773 -0.7754 -0.2845 -0.0436
  164SOL     MW  656   0.310   0.204   0.823 -0.2919  0.3031  0.1780
  165SOL     OW  657   1.352   1.314   0.354 -0.5515  0.2219 -0.2275
  165SOL    HW1  658   1.334   1.236   0.414  0.0615  0.2055 -3.2986
  165SOL    HW2  659   1.366   1.269   0.271 -0.8069  0.7592  0.6460
  165SOL     MW  660   1.352   1.298   0.351 -0.5043  0.2906 -0.5175
  166SOL     OW  661   0.524   1.200   0.988  0.4107  0.0030 -0.2365
  166SOL    HW1  662   0.522   1.150   1.065  0.8459 -2.2717 -0.9456
  166SOL    HW2  663   0.597   1.162   0.941 -0.9586 -1.7467  0.6875
  166SOL     MW  664   0.534   1.188   0.992  0.2875 -0.5279 -0.2082
  167SOL     OW  665   0.811   1.082   0.277  0.0327 -0.1007 -0.5279
  167SOL    HW1  666   0.791   1.170   0.319 -2.3250  1.3855  2.7672
  167SOL    HW2  667   0.892   1.077   0.231  3.3258  2.7457  2.4387
  167SOL     MW  668   0.819   1.093   0.276  0.1561  0.4710  0.2983
  168SOL     OW  669   1.698   1.658   3.045  0.5207  0.0358  0.6848
  168SOL    HW1  670   1.630   1.723   3.039 -2.1088 -2.3071  1.5226
  168SOL    HW2  671   1.671   1.568   3.047 -1.4906  0.6069  0.8442
  168SOL     MW  672   1.685   1.655   3.045 -0.0916 -0.1980  0.8164
  169SOL     OW  673   0.387   0.992   1.319 -0.1525 -0.0709 -0.1062
  169SOL    HW1  674   0.421   0.943   1.397  2.6901  1.2701 -0.0425
  169SOL    HW2  675   0.426   1.082   1.329 -2.6949  1.4776 -0.4232
  169SOL     MW  676   0.397   0.997   1.331 -0.1129  0.3103 -0.1396
  170SOL     OW  677   1.071   1.569   1.525 -0.1284 -0.4346  0.2461
  170SOL    HW1  678   0.996   1.628   1.518  1.1326 -1.7118  0.3513
  170SOL    HW2  679   1.091   1.539   1.438  1.1928 -1.3204 -0.6699
  170SOL     MW  680   1.064   1.572   1.513  0.2123 -0.7200  0.1391
  171SOL     OW  681   0.549   1.402   0.640  0.1268 -0.6068  0.4301
  171SOL    HW1  682   0.547   1.413   0.737 -1.7153  3.0730  0.0590
  171SOL    HW2  683   0.546   1.305   0.622 -1.8260 -2.4059  2.9481
  171SOL     MW  684   0.548   1.390   0.650 -0.3739 -0.3587  0.7133
  172SOL     OW  685   0.888   0.284   1.276 -0.1041  0.2304 -0.1760
  172SOL    HW1  686   0.850   0.324   1.191 -4.5124 -0.1290 -0.7932
  172SOL    HW2  687   0.814   0.279   1.333  0.3001 -0.2215 -0.1911
  172SOL     MW  688   0.873   0.289   1.273 -0.6324  0.1233 -0.2594
  173SOL     OW  689   0.458   1.747   0.296  0.4006  0.6009 -0.6352
  173SOL    HW1  690   0.496   1.662   0.273  0.1726  0.2979  1.7180
  173SOL    HW2  691   0.461   1.746   0.394 -0.4564  0.3104  2.0184
  173SOL     MW  692   0.464   1.736   0.306  0.2574  0.5226  0.0254
  174SOL     OW  693   1.847   0.907   1.495 -0.1372 -0.2443  0.0756
  174SOL    HW1  694   1.788   0.833   1.516 -2.0994  0.0930 -0.2153
  174SOL    HW2  695   1.838   0.918   1.401  0.4270 -1.6565 -2.3348
  174SOL     MW  696   1.838   0.899   1.485 -0.3216 -0.3862 -0.2808
  175SOL     OW  697   0.494   1.473   0.215 -0.2914  0.4195 -0.4325
  175SOL    HW1  698   0.431   1.403   0.177 -0.9686  2.3747 -1.8575
  175SOL    HW2  699   0.551   1.431   0.275  2.4456  0.2946  0.5420
  175SOL     MW  700   0.493   1.458   0.218 -0.0196  0.6610 -0.4920
  176SOL     OW  701   0.199   1.489   1.175 -0.5661 -0.2044  0.3641
  176SOL    HW1  702   0.169   1.408   1.118  0.5683 -1.2271 -4.0192
  176SOL    HW2  703   0.122   1.505   1.239  1.9601  0.5272  1.4264
  176SOL     MW  704   0.185   1.480   1.176 -0.0832 -0.2428 -0.0741
  177SOL     OW  705   0.619   0.393   1.320 -0.5712 -0.9370 -0.7726
  177SOL    HW1  706   0.600   0.470   1.252  0.3428 -2.1793  0.2290
  177SOL    HW2  707   0.609   0.442   1.402 -2.1746  0.1322 -2.2088
  177SOL     MW  708   0.615   0.410   1.321 -0.6622 -0.9598 -0.8299
  178SOL     OW  709   3.065   0.578   2.942  0.1215 -0.2604 -0.1881
  178SOL    HW1  710   2.996   0.598   3.006  0.9666 -0.2619  2.3316
  178SOL    HW2  711   3.024   0.558   2.857  0.6142 -0.6622  1.9987
  178SOL     MW  712   3.051   0.578   2.940  0.2980 -0.3136  0.4328
  179SOL     OW  713   1.573   1.393   1.320 -0.2073  0.3367  0.6632
  179SOL    HW1  714   1.540   1.402   1.413  2.0479 -2.5543 -1.5996
  179SOL    HW2  715   1.662   1.405   1.346 -2.0564 -0.9453  0.8498
  179SOL     MW  716   1.580   1.396   1.336 -0.1537 -0.2139  0.3892
  180SOL     OW  717   2.989   0.250   0.459 -0.3991 -0.0840  0.0370
  180SOL    HW1  718   2.957   0.245   0.365 -0.9570 -0.4357 -1.1615
  180SOL    HW2  719   3.076   0.304   0.450  2.8087 -2.2164 -0.6016
  180SOL     MW  720   2.996   0.256   0.445 -0.0495 -0.4118 -0.2054
  181SOL     OW  721   1.104   1.346   3.069  0.0754  0.3939 -0.3395
  181SOL    HW1  722   1.167   1.404   3.105 -0.7419  0.1955 -2.2897
  181SOL    HW2  723   1.158   1.280   3.027 -1.8793 -1.5556  2.5993
  181SOL     MW  724   1.119   1.345   3.068 -0.2903  0.1105 -0.2091
  182SOL     OW  725   0.454   0.840   1.572  0.1569 -0.0922  0.0664
  182SOL    HW1  726   0.367   0.821   1.621 -1.2963  2.4317  2.4216
  182SOL    HW2  727   0.523   0.801   1.628  4.6411  1.2950 -1.3226
  182SOL     MW  728   0.452   0.833   1.586  0.5568  0.4238  0.1939
  183SOL     OW  729   1.587   1.648   1.179 -0.0191  1.2192  0.5647
  183SOL    HW1  730   1.659   1.687   1.230  3.2826  0.4750 -0.2660
  183SOL    HW2  731   1.546   1.577   1.229 -0.7005  0.0800 -0.3965
  183SOL     MW  732   1.591   1.644   1.192  0.3266  0.9707  0.3283
  184SOL     OW  733   0.838   0.698   1.938 -0.2219  0.3235 -0.0138
  184SOL    HW1  734   0.907   0.683   1.877 -0.0012  1.0942  1.6103
  184SOL    HW2  735   0.847   0.613   1.989 -1.0748  1.3841 -1.4266
  184SOL     MW  736   0.848   0.685   1.937 -0.3053  0.5651  0.0141
  185SOL     OW  737   1.139   0.972   1.911 -0.3153  0.0570  0.1188
  185SOL    HW1  738   1.151   0.887   1.965  0.8771 -1.0056 -0.6712
  185SOL    HW2  739   1.192   1.033   1.955 -2.5357  1.6421 -0.9144
  185SOL     MW  740   1.148   0.969   1.924 -0.4510  0.1260 -0.1218
  186SOL     OW  741   0.375   1.641   1.410 -0.1501 -0.1686 -0.0429
  186SOL    HW1  742   0.423   1.580   1.354 -1.2838  0.3674  2.4049
  186SOL    HW2  743   0.306   1.584   1.448 -1.1716 -2.6239 -2.4034
  186SOL     MW  744   0.373   1.626   1.408 -0.4345 -0.4218 -0.0314
  187SOL     OW  745   1.495   0.716   1.333  0.4151  0.0414  0.3238
  187SOL    HW1  746   1.554   0.758   1.396 -2.0888  2.0612  2.0232
  187SOL    HW2  747   1.409   0.714   1.374  2.0481  1.4837  0.5871
  187SOL     MW  748   1.491   0.721   1.347  0.3002  0.4982  0.5828
  188SOL     OW  749   1.887   1.152   0.917 -0.0055 -0.1788  0.1152
  188SOL    HW1  750   1.902   1.172   1.008 -0.6184  1.3984  0.1544
  188SOL    HW2  751   1.908   1.061   0.911  0.5841  0.0021 -2.3214
  188SOL     MW  752   1.892   1.142   0.928 -0.0086  0.0531 -0.2011
  189SOL     OW  753   0.680   0.835   0.881  0.2416 -0.1944  0.3998
  189SOL    HW1  754   0.586   0.873   0.873  2.0279 -0.4969  1.3819
  189SOL    HW2  755   0.719   0.909   0.932 -3.0975  0.3193 -1.4964
  189SOL     MW  756   0.672   0.850   0.887  0.0367 -0.1665  0.2792
  190SOL     OW  757   1.910   0.239   2.166 -0.2027  0.2833 -0.1799
  190SOL    HW1  758   1.891   0.226   2.261 -0.9312  0.0899  0.5108
  190SOL    HW2  759   1.971   0.318   2.161 -0.9241 -0.7752 -2.4938
  190SOL     MW  760   1.915   0.248   2.178 -0.3940  0.1181 -0.3941
  191SOL     OW  761   1.522   0.946   1.168  0.6556  0.2188 -0.4418
  191SOL    HW1  762   1.509   1.026   1.216  2.5159 -1.5423 -0.2445
  191SOL    HW2  763   1.511   0.875   1.233  1.4444 -0.0968 -2.2796
  191SOL     MW  764   1.519   0.947   1.183  1.0051 -0.0552 -0.6582
  192SOL     OW  765   0.590   2.103   2.757  0.0025  0.4149  0.1985
  192SOL    HW1  766   0.574   2.127   2.669 -2.1586  1.7647 -0.0256
  192SOL    HW2  767   0.572   2.006   2.761 -0.6800  0.4452 -1.3457
  192SOL     MW  768   0.586   2.094   2.746 -0.3727  0.5970 -0.0348
  193SOL     OW  769   0.938   1.561   0.727 -0.0883  0.4956  0.3718
  193SOL    HW1  770   0.887   1.557   0.805 -2.3531  2.0809 -3.2879
  193SOL    HW2  771   0.903   1.489   0.663 -0.7911 -1.5537  0.7801
  193SOL     MW  772   0.926   1.551   0.729 -0.4799  0.4344 -0.0572
  194SOL     OW  773   0.524   1.482   0.911 -0.1252 -0.6422 -1.0587
  194SOL    HW1  774   0.508   1.391   0.948 -1.2510 -0.8701  1.9370
  194SOL    HW2  775   0.440   1.524   0.902  0.0949  1.4082 -3.0653
  194SOL     MW  776   0.511   1.476   0.915 -0.2447 -0.4017 -0.9282
  195SOL     OW  777   1.300   1.168   2.954  0.2270 -0.4209  0.0969
  195SOL    HW1  778   1.346   1.174   3.036 -2.9067 -0.8571  2.1669
  195SOL    HW2  779   1.244   1.089   2.968 -1.5643  2.1438  0.3581
  195SOL     MW  780   1.299   1.158   2.966 -0.4228 -0.1401  0.4045
  196SOL     OW  781   2.190   1.000   0.564  0.3027 -0.1849 -0.4616
  196SOL    HW1  782   2.142   0.994   0.485 -2.6554 -1.6087 -1.7413
  196SOL    HW2  783   2.185   1.094   0.586  0.5887  1.8587  0.4426
  196SOL     MW  784   2.183   1.011   0.556 -0.0499 -0.1031 -0.5112
  197SOL     OW  785   0.670   1.362   2.112  0.1390  1.0201  0.8109
  197SOL    HW1  786   0.697   1.270   2.074  1.3323  0.3982 -1.4985
  197SOL    HW2  787   0.624   1.397   2.031  2.2082 -0.7208 -0.2126
  197SOL     MW  788   0.667   1.354   2.096  0.5694  0.7084  0.3711
  198SOL     OW  789   2.922   1.399   1.050 -0.1095  0.6312  0.1593
  198SOL    HW1  790   2.883   1.475   1.012 -1.6759 -0.7388  1.7545
  198SOL    HW2  791   2.853   1.335   1.052  0.9337  0.7298  0.6707
  198SOL     MW  792   2.908   1.400   1.045 -0.1785  0.4635  0.4373
  199SOL     OW  793   0.535   1.403   1.888  0.8212 -0.1467 -0.2955
  199SOL    HW1  794   0.459   1.350   1.902 -0.1906  0.9300  0.0146
  199SOL    HW2  795   0.557   1.398   1.797 -1.7439  4.1198  0.8328
  199SOL     MW  796   0.528   1.396   1.878  0.3493  0.5583 -0.1057
  200SOL     OW  797   1.890   2.898   1.391 -0.7626 -0.2788  0.1823
  200SOL    HW1  798   1.932   2.926   1.301  2.0908 -0.7903 -1.6391
  200SOL    HW2  799   1.824   2.964   1.404 -0.5788 -1.7600  0.2918
  200SOL     MW  800   1.887   2.910   1.381 -0.3619 -0.5417 -0.0436
  201SOL     OW  801   1.006   0.341   0.796 -0.4699  1.0884  0.1099
  201SOL    HW1  802   1.025   0.262   0.748  2.0643 -0.3635 -0.9971
  201SOL    HW2  803   1.088   0.383   0.821 -1.9480 -1.1355 -0.4585
  201SOL     MW  804   1.019   0.336   0.793 -0.3306  0.6034 -0.1111
  202SOL     OW  805   1.515   1.570   0.900 -0.2812  0.3431  0.1880
  202SOL    HW1  806   1.534   1.494   0.846 -1.4745  1.3035  1.4091
  202SOL    HW2  807   1.562   1.559   0.982 -0.4729 -1.7549 -0.1931
  202SOL     MW  808   1.523   1.558   0.904 -0.4639  0.1930  0.2988
  203SOL     OW  809   3.013   0.450   1.400  0.8275 -0.3704  0.5318
  203SOL    HW1  810   3.091   0.396   1.403 -2.6983  0.1917  1.3397
  203SOL    HW2  811   3.042   0.540   1.424  0.2149  1.0261 -1.5106
  203SOL     MW  812   3.027   0.455   1.404  0.2815 -0.1120  0.3689
  204SOL     OW  813   1.019   1.767   0.595  0.5025  0.1890  0.3173
  204SOL    HW1  814   0.990   1.695   0.654 -0.0464 -1.0311  1.2345
  204SOL    HW2  815   0.952   1.750   0.526 -0.6018 -2.2093  3.1146
  204SOL     MW  816   1.006   1.755   0.593  0.2844 -0.2884  0.8074
  205SOL     OW  817   1.391   0.003   1.334  0.3055 -0.6269  0.0609
  205SOL    HW1  818   1.395  -0.046   1.252  3.2399 -2.2549 -1.3893
  205SOL    HW2  819   1.407   0.096   1.314  0.4543  0.2634  2.4023
  205SOL     MW  820   1.394   0.009   1.321  0.7123 -0.7242  0.1785
  206SOL     OW  821   0.489   3.057   1.395  0.1739  0.6894  0.0211
  206SOL    HW1  822   0.435   3.058   1.314  0.1128 -1.3202  1.6754
  206SOL    HW2  823   0.542   2.975   1.389  0.2343  0.8316 -0.9601
  206SOL     MW  824   0.489   3.046   1.384  0.1738  0.4430  0.1099
  207SOL     OW  825   0.928   1.603   0.202  0.1355  0.7696  0.2105
  207SOL    HW1  826   0.937   1.691   0.157  2.2359  1.3047 -0.6037
  207SOL    HW2  827   1.019   1.575   0.225  0.4962  2.8569 -0.3597
  207SOL     MW  828   0.941   1.611   0.199  0.4602  1.1156  0.0278
  208SOL     OW  829   0.749   1.632   1.320  0.1048  0.1168 -0.3196
  208SOL    HW1  830   0.779   1.671   1.402 -0.1984  0.6368  0.3210
  208SOL    HW2  831   0.825   1.581   1.301 -2.3586  1.2106 -1.2107
  208SOL     MW  832   0.763   1.631   1.328 -0.2602  0.3297 -0.3527
  209SOL     OW  833   1.568   0.493   2.917 -0.0185  0.7251 -0.5604
  209SOL    HW1  834   1.635   0.564   2.932  0.7190  0.9763  2.7096
  209SOL    HW2  835   1.627   0.423   2.875  1.4806 -0.2704 -0.3293
  209SOL     MW  836   1.585   0.493   2.913  0.2766  0.6269 -0.0985
  210SOL     OW  837   1.483   1.297   0.763 -0.7779  0.3788  0.2270
  210SOL    HW1  838   1.580   1.301   0.746  1.4777  0.0307 -0.0756
  210SOL    HW2  839   1.443   1.350   0.694 -2.3503  0.3464  1.6143
  210SOL     MW  840   1.490   1.305   0.751 -0.6878  0.3286  0.3701
  211SOL     OW  841   1.725   0.241   0.964 -0.1237  0.2963  0.2280
  211SOL    HW1  842   1.697   0.292   0.886 -0.5189 -0.6498 -2.0010
  211SOL    HW2  843   1.818   0.265   0.981  1.5450 -0.6428 -0.2474
  211SOL     MW  844   1.734   0.251   0.956  0.0444  0.0476 -0.1288
  212SOL     OW  845   0.274   1.044   0.175 -0.3503  0.0267  0.5116
  212SOL    HW1  846   0.208   0.988   0.223 -0.7802  0.5808  1.0093
  212SOL    HW2  847   0.337   0.983   0.133 -0.4488  1.0442 -2.4481
  212SOL     MW  848   0.273   1.029   0.176 -0.4200  0.2340  0.1868
  213SOL     OW  849   0.504   1.720   3.008 -0.4005  0.3069 -0.7632
  213SOL    HW1  850   0.504   1.780   3.089 -1.7621 -0.0139  1.5683
  213SOL    HW2  851   0.571   1.758   2.948 -0.7449 -0.4569  0.1787
  213SOL     MW  852   0.513   1.733   3.011 -0.6256  0.1638 -0.3313
  214SOL     OW  853   0.670   0.372   2.160  0.1067  0.3358  0.4358
  214SOL    HW1  854   0.587   0.421   2.194 -0.3726  0.1201  0.4712
  214SOL    HW2  855   0.679   0.378   2.062  0.3123  0.4294 -1.3388
  214SOL     MW  856   0.660   0.379   2.152  0.0706  0.3197  0.2063
  215SOL     OW  857   0.502   0.704   2.652  0.2899 -0.2422 -0.1454
  215SOL    HW1  858   0.491   0.713   2.564 -1.4680 -0.7412 -1.3427
  215SOL    HW2  859   0.425   0.650   2.672  0.6762 -0.6999 -2.5405
  215SOL     MW  860   0.490   0.698   2.643  0.1089 -0.3684 -0.6194
  216SOL     OW  861   2.965   3.002   2.718  0.5891 -0.4519  0.4203
  216SOL    HW1  862   2.922   3.005   2.808  0.7712 -0.3685  2.8470
  216SOL    HW2  863   2.986   3.091   2.689 -3.5459  0.5792 -1.7917
  216SOL     MW  864   2.962   3.014   2.726  0.0675 -0.3048  0.4487
  217SOL     OW  865   1.059   1.119   0.129  0.2522  0.2064 -0.3727
  217SOL    HW1  866   1.080   1.052   0.064  0.9285 -0.5161  0.6816
  217SOL    HW2  867   1.061   1.206   0.094  1.1885 -1.9302  0.4269
  217SOL     MW  868   1.062   1.122   0.116  0.4650 -0.1708 -0.1281
  218SOL     OW  869   0.923   1.359   2.602  0.0239  0.1326  0.6973
  218SOL    HW1  870   0.968   1.287   2.637 -1.2172 -0.2475 -0.5181
  218SOL    HW2  871   0.991   1.426   2.616 -0.5856  0.3041 -0.2210
  218SOL     MW  872   0.938   1.358   2.609 -0.2203  0.1051  0.4158
  219SOL     OW  873   1.118   0.368   2.619  0.0530  0.4905 -0.6233
  219SOL    HW1  874   1.203   0.413   2.643  3.3949  1.5787  0.4626
  219SOL    HW2  875   1.064   0.442   2.594 -1.2533 -2.5534  0.7363
  219SOL     MW  876   1.122   0.383   2.619  0.3216  0.2325 -0.3007
  220SOL     OW  877   1.748   0.455   2.217 -0.2100 -0.3734 -0.0116
  220SOL    HW1  878   1.676   0.465   2.151 -0.6653  0.0259  0.8545
  220SOL    HW2  879   1.800   0.380   2.197  1.0181  0.9593 -0.4317
  220SOL     MW  880   1.746   0.447   2.206 -0.1080 -0.1449  0.0473
  221SOL     OW  881   0.349   1.312   2.937 -0.3468  0.1084  0.1241
  221SOL    HW1  882   0.423   1.258   2.909 -0.2778  0.4420 -0.9877
  221SOL    HW2  883   0.357   1.398   2.892  2.8259 -0.3527 -1.7475
  221SOL     MW  884   0.360   1.316   2.927  0.0809  0.0915 -0.2695
  222SOL     OW  885   0.428   0.982   2.671  0.0080 -0.0346 -0.1127
  222SOL    HW1  886   0.366   1.009   2.604  2.4944  1.0523 -1.0049
  222SOL    HW2  887   0.445   0.892   2.653 -0.6508  1.3371  3.0742
  222SOL     MW  888   0.422   0.974   2.660  0.2491  0.2898  0.1901
  223SOL     OW  889   0.081   2.022   2.505  0.2766 -0.1239  0.0681
  223SOL    HW1  890   0.115   1.984   2.587 -0.7200  1.3862  1.0518
  223SOL    HW2  891   0.116   2.109   2.495  0.2878 -0.1826  0.8990
  223SOL     MW  892   0.090   2.029   2.515  0.1466  0.0676  0.3075
  224SOL     OW  893   1.575   0.754   2.558 -0.0540 -0.4469 -0.7046
  224SOL    HW1  894   1.585   0.801   2.640  1.1437  1.1529 -0.3897
  224SOL    HW2  895   1.534   0.826   2.505 -2.1025  1.8982  0.3095
  224SOL     MW  896   1.571   0.770   2.562 -0.1663  0.0736 -0.5292
  225SOL     OW  897   2.948   1.457   2.277  0.5122 -0.1595  0.6167
  225SOL    HW1  898   2.980   1.537   2.234  0.1072  1.0978 -0.4179
  225SOL    HW2  899   2.892   1.494   2.338 -0.7519 -2.3399  1.0887
  225SOL     MW  900   2.945   1.472   2.280  0.2920 -0.2813  0.5424
  226SOL     OW  901   0.416   1.501   2.753 -0.2542  0.2925  0.6967
  226SOL    HW1  902   0.500   1.471   2.711  0.3573 -0.3983 -0.9317
  226SOL    HW2  903   0.426   1.590   2.794 -0.8132  3.2078 -0.1037
  226SOL     MW  904   0.429   1.509   2.753 -0.2473  0.5860  0.3763
  227SOL     OW  905   0.555   1.138   2.874  0.0988  0.2115 -0.3969
  227SOL    HW1  906   0.644   1.108   2.855 -0.5789 -0.3878  0.4887
  227SOL    HW2  907   0.515   1.112   2.794  2.3638 -0.8780  1.1551
  227SOL     MW  908   0.562   1.130   2.861  0.3082 -0.0113 -0.0753
  228SOL     OW  909   0.725   1.094   2.028  0.3601  0.1941 -0.0822
  228SOL    HW1  910   0.796   1.099   1.962 -0.5267  0.6051  0.3302
  228SOL    HW2  911   0.741   1.023   2.092  0.0416 -0.8522 -0.0720
  228SOL     MW  912   0.737   1.085   2.028  0.2010  0.1103 -0.0265
  229SOL     OW  913   0.149   0.650   0.043 -0.5125  0.1317  0.4617
  229SOL    HW1  914   0.103   0.605  -0.023  1.1155  1.1392  1.4365
  229SOL    HW2  915   0.155   0.587   0.115 -0.1124 -1.0599  1.2135
  229SOL     MW  916   0.144   0.636   0.044 -0.2449  0.1074  0.6895
  230SOL     OW  917   1.706   1.332   2.015  0.6069  0.2508  0.0816
  230SOL    HW1  918   1.655   1.300   2.093 -0.8936  0.6453  2.0563
  230SOL    HW2  919   1.732   1.253   1.970  0.4041  1.8366 -0.7959
  230SOL     MW  920   1.703   1.317   2.020  0.3822  0.5121  0.2264
  231SOL     OW  921   2.771   1.276   2.208  0.7245  0.4006 -0.2953
  231SOL    HW1  922   2.836   1.337   2.232  1.0233 -0.2563 -2.1747
  231SOL    HW2  923   2.699   1.321   2.168  1.0763 -3.0885 -0.8804
  231SOL     MW  924   2.770   1.290   2.206  0.8104 -0.1464 -0.6205
  232SOL     OW  925   2.248   0.853   2.001 -0.1449 -0.5600 -0.2206
  232SOL    HW1  926   2.180   0.843   1.932  0.8917 -2.2372  0.4151
  232SOL    HW2  927   2.202   0.848   2.082 -0.8616  3.1755  1.3055
  232SOL     MW  928   2.233   0.851   2.002 -0.1027 -0.2884  0.0646
  233SOL     OW  929   2.087   0.429   2.077 -0.8341  0.0521 -0.1681
  233SOL    HW1  930   2.136   0.351   2.046  1.8663 -0.8400 -0.5192
  233SOL    HW2  931   2.147   0.485   2.123  0.8377 -3.1507 -1.8823
  233SOL     MW  932   2.101   0.426   2.079 -0.2573 -0.4882 -0.4406
  234SOL     OW  933   0.211   1.056   2.498  0.2957 -0.4329  0.5812
  234SOL    HW1  934   0.118   1.052   2.466 -0.1622 -0.1089 -2.9639
  234SOL    HW2  935   0.226   1.151   2.488 -2.9379  0.0276 -1.2089
  234SOL     MW  936   0.201   1.068   2.492 -0.1913 -0.3294 -0.1227
  235SOL     OW  937   1.121   3.057   2.765 -0.0219  0.2005  0.0027
  235SOL    HW1  938   1.160   3.014   2.843 -2.7883 -1.0948 -1.5862
  235SOL    HW2  939   1.097   3.146   2.796  1.8837 -0.2301  2.4662
  235SOL     MW  940   1.123   3.063   2.779 -0.1355 -0.0272  0.1181
  236SOL     OW  941   2.916   0.604   0.131 -0.1176 -0.4052 -0.3907
  236SOL    HW1  942   2.827   0.629   0.120  0.9813 -1.6097  2.8148
  236SOL    HW2  943   2.977   0.681   0.122  0.3974  0.3081  0.8119
  236SOL     MW  944   2.913   0.617   0.129  0.0954 -0.4700  0.1909
  237SOL     OW  945   2.019   1.158   2.221  0.1650  0.2261  0.2706
  237SOL    HW1  946   1.960   1.163   2.143 -0.3341  1.6115 -1.5731
  237SOL    HW2  947   2.055   1.064   2.225 -1.5413 -0.0201 -2.2872
  237SOL     MW  948   2.016   1.146   2.211 -0.1260  0.3764 -0.3101
  238SOL     OW  949   1.081   1.806   2.961  0.2107 -0.3020  0.0895
  238SOL    HW1  950   1.037   1.721   2.957 -1.5498  1.4866  3.8878
  238SOL    HW2  951   1.172   1.783   2.968  0.3621  0.5164  0.9695
  238SOL     MW  952   1.087   1.792   2.961 -0.0016  0.0420  0.7068
  239SOL     OW  953   1.280   1.436   2.390 -0.5020  0.2316 -0.0587
  239SOL    HW1  954   1.215   1.464   2.456  3.5943 -1.6589  2.1116
  239SOL    HW2  955   1.310   1.347   2.407 -2.6722  2.0963 -1.0611
  239SOL     MW  956   1.276   1.428   2.401 -0.2479  0.2282  0.0954
  240SOL     OW  957   0.627   0.911   2.320  0.0320  0.2585 -0.0773
  240SOL    HW1  958   0.687   0.965   2.381 -1.5706  0.9196 -2.0269
  240SOL    HW2  959   0.690   0.846   2.290 -0.9515  0.4159 -0.1058
  240SOL     MW  960   0.644   0.909   2.324 -0.3092  0.3665 -0.3383
  241SOL     OW  961   0.682   0.399   0.010  0.0910  0.4111  0.0797
  241SOL    HW1  962   0.697   0.479   0.065  1.9845  1.8367  0.1926
  241SOL    HW2  963   0.589   0.369   0.028 -0.8533 -3.5355  0.9568
  241SOL     MW  964   0.672   0.405   0.020  0.2162  0.0785  0.2104
  242SOL     OW  965   1.483   1.739   2.325 -0.3246  0.1773 -0.3219
  242SOL    HW1  966   1.465   1.834   2.312  3.1476  1.0896 -0.2462
  242SOL    HW2  967   1.444   1.693   2.251  0.9446 -2.3266  1.8980
  242SOL     MW  968   1.476   1.746   2.313  0.3010 -0.0327 -0.0190
  243SOL     OW  969   0.991   0.166   2.470 -0.5124 -0.3352 -0.0621
  243SOL    HW1  970   1.059   0.148   2.404  0.0349  1.7374  0.2000
  243SOL    HW2  971   1.040   0.235   2.525 -0.2677  0.0135 -0.7468
  243SOL     MW  972   1.006   0.172   2.468 -0.4079 -0.0157 -0.1178
  244SOL     OW  973   0.195   0.805   2.356 -0.5120 -0.1915 -0.2031
  244SOL    HW1  974   0.201   0.886   2.403 -1.3566  0.6419  0.6508
  244SOL    HW2  975   0.284   0.768   2.357 -0.7514  0.1011  2.0384
  244SOL     MW  976   0.208   0.811   2.362 -0.6550 -0.0429  0.2053
  245SOL     OW  977   1.226   0.166   2.291  0.3925  0.0081 -0.0030
  245SOL    HW1  978   1.272   0.082   2.305 -0.0294 -2.1571  1.1253
  245SOL    HW2  979   1.228   0.216   2.373  1.6360 -1.3090 -2.6850
  245SOL     MW  980   1.232   0.161   2.304  0.5009 -0.4514 -0.2080
  246SOL     OW  981   1.250   1.164   2.087  0.6422 -0.2424  0.2589
  246SOL    HW1  982   1.187   1.133   2.153 -0.0470  1.6598  1.0495
  246SOL    HW2  983   1.329   1.158   2.137 -3.5218 -0.7465 -0.8683
  246SOL     MW  984   1.252   1.159   2.102  0.0019 -0.0580  0.2145
  247SOL     OW  985   0.749   0.587   0.203 -0.4006  0.2565  0.0651
  247SOL    HW1  986   0.697   0.665   0.221 -1.7373  0.0035  1.3905
  247SOL    HW2  987   0.827   0.613   0.145  0.7766  2.8233 -1.6566
  247SOL     MW  988   0.752   0.601   0.198 -0.4216  0.5618  0.0128
  248SOL     OW  989   0.307   1.284   2.603  0.0156 -0.4574 -0.2593
  248SOL    HW1  990   0.390   1.303   2.558 -0.9253  1.9370 -0.2916
  248SOL    HW2  991   0.303   1.360   2.655  1.0402 -1.6435 -1.7320
  248SOL     MW  992   0.318   1.297   2.604  0.0267 -0.2980 -0.4579
  249SOL     OW  993   0.142   1.860   2.752 -0.6395 -0.6171 -0.1353
  249SOL    HW1  994   0.119   1.772   2.713 -2.0238  0.3517  1.3620
  249SOL    HW2  995   0.190   1.828   2.827  0.2342  1.9956 -0.4011
  249SOL     MW  996   0.145   1.844   2.756 -0.7069 -0.1445  0.0272
  250SOL     OW  997   2.176   0.919   2.300  0.4050 -0.0914  0.1065
  250SOL    HW1  998   2.211   0.845   2.344 -4.5287 -1.3923  3.0535
  250SOL    HW2  999   2.250   0.978   2.279  0.4627 -0.7765 -3.8812
  250SOL     MW 1000   2.191   0.917   2.303 -0.2383 -0.3534 -0.0308
  251SOL     OW 1001   0.176   0.916   1.933 -0.0906 -0.4136 -0.3103
  251SOL    HW1 1002   0.082   0.885   1.923 -0.2477  1.9527 -0.7191
  251SOL    HW2 1003   0.214   0.922   1.845 -2.2306 -0.4834  1.9806
  251SOL     MW 1004   0.169   0.913   1.920 -0.3937 -0.1106 -0.0620
  252SOL     OW 1005   1.747   0.997   2.896  0.1779 -0.3885  0.4421
  252SOL    HW1 1006   1.766   1.049   2.978  0.4183 -0.8835  1.9973
  252SOL    HW2 1007   1.827   0.996   2.837  1.3650 -0.8634 -0.5525
  252SOL     MW 1008   1.760   1.004   2.899  0.3662 -0.5165  0.5161
  253SOL     OW 1009   1.142   1.766   2.534 -0.4818 -0.6756 -0.1170
  253SOL    HW1 1010   1.139   1.746   2.436  0.9633  2.4111  1.1096
  253SOL    HW2 1011   1.057   1.814   2.549 -0.7708  0.1668 -2.2581
  253SOL     MW 1012   1.131   1.770   2.523 -0.3293 -0.1572 -0.2376
  254SOL     OW 1013   1.025   1.061   2.247 -0.5350  0.2181  0.1905
  254SOL    HW1 1014   0.993   0.976   2.216 -0.4830  0.8180 -2.7969
  254SOL    HW2 1015   0.945   1.112   2.283 -1.0377  0.4463 -1.1552
  254SOL     MW 1016   1.010   1.056   2.248 -0.5945  0.3274 -0.3812
  255SOL     OW 1017   0.816   2.559   2.129  0.8267 -0.4318  0.7815
  255SOL    HW1 1018   0.731   2.515   2.121  0.3296  2.1534 -0.3116
  255SOL    HW2 1019   0.882   2.494   2.148 -0.0217  1.0533  0.5931
  255SOL     MW 1020   0.814   2.545   2.130  0.6492  0.1052  0.6124
  256SOL     OW 1021   1.325   2.709   2.935 -0.4855 -0.0406  0.1829
  256SOL    HW1 1022   1.274   2.651   2.873  1.2219 -1.9076  2.2444
  256SOL    HW2 1023   1.403   2.724   2.884 -0.0036 -1.1091 -2.8710
  256SOL     MW 1024   1.329   2.703   2.920 -0.1967 -0.4279  0.0520
  257SOL     OW 1025   0.185   1.922   0.046 -0.2189  0.0705  0.1335
  257SOL    HW1 1026   0.190   1.881   0.135 -0.0924 -2.1658  2.9968
  257SOL    HW2 1027   0.191   1.852  -0.018  0.4064 -0.5016 -0.1006
  257SOL     MW 1028   0.186   1.907   0.049 -0.1197 -0.3001  0.4804
  258SOL     OW 1029   0.812   1.024   2.524  0.0769 -0.6722  1.0173
  258SOL    HW1 1030   0.806   1.109   2.488 -0.3876 -1.8662 -1.8055
  258SOL    HW2 1031   0.804   1.038   2.621  0.4046 -0.4931 -1.2750
  258SOL     MW 1032   0.810   1.037   2.532  0.0588 -0.8061  0.3424
  259SOL     OW 1033   0.909   0.381   2.313  0.2428  0.4116 -0.9995
  259SOL    HW1 1034   0.816   0.355   2.287 -0.8644 -2.9440  2.3953
  259SOL    HW2 1035   0.940   0.308   2.365 -0.3648  0.5297  1.1117
  259SOL     MW 1036   0.901   0.368   2.316  0.0165 -0.0156 -0.2731
  260SOL     OW 1037   0.549   0.125   1.639  0.8507  0.6423 -0.0999
  260SOL    HW1 1038   0.511   0.074   1.562  0.0618  0.3612  0.5121
  260SOL    HW2 1039   0.646   0.148   1.619  1.7952  0.5653 -2.7538
  260SOL     MW 1040   0.557   0.121   1.626  0.8712  0.5951 -0.3693
  261SOL     OW 1041   1.175   0.739   2.038  0.0683  0.4086 -0.0982
  261SOL    HW1 1042   1.165   0.702   2.125 -1.0367 -3.2373  0.5715
  261SOL    HW2 1043   1.183   0.662   1.985  0.2990 -1.4845 -1.5080
  261SOL     MW 1044   1.175   0.724   2.042 -0.0470 -0.3222 -0.1959
  262SOL     OW 1045   1.053   0.301   0.163 -0.0810  0.2385  0.2397
  262SOL    HW1 1046   1.151   0.297   0.169  1.8666 -1.2701 -2.8900
  262SOL    HW2 1047   1.043   0.233   0.096 -1.0692  0.9416  1.0265
  262SOL     MW 1048   1.064   0.291   0.155  0.0456  0.1322 -0.0694
  263SOL     OW 1049   0.439   0.030   2.473  0.0487  0.1292  0.2773
  263SOL    HW1 1050   0.348   0.067   2.474  0.8813  0.0436 -0.6638
  263SOL    HW2 1051   0.494   0.073   2.406  0.1394 -0.3720 -0.7406
  263SOL     MW 1052   0.434   0.041   2.464  0.1705  0.0518  0.0188
  264SOL     OW 1053   1.504   1.341   1.818  0.1954 -0.0017  0.4978
  264SOL    HW1 1054   1.470   1.255   1.835  2.4275  0.4209  2.4606
  264SOL    HW2 1055   1.561   1.357   1.891  0.2406 -1.9615 -0.7433
  264SOL     MW 1056   1.507   1.332   1.830  0.4959 -0.2045  0.5930
  265SOL     OW 1057   0.795   2.814   2.214  0.5204 -0.1736 -0.1300
  265SOL    HW1 1058   0.818   2.728   2.173 -0.0809  0.4180 -1.0105
  265SOL    HW2 1059   0.798   2.795   2.308  2.5313  3.0122  0.3316
  265SOL     MW 1060   0.798   2.800   2.221  0.7064  0.3248 -0.1853
  266SOL     OW 1061   0.837   0.766   2.219 -0.4019  0.2839  0.0551
  266SOL    HW1 1062   0.842   0.741   2.127  1.0852 -0.5310 -0.3925
  266SOL    HW2 1063   0.920   0.730   2.252  1.3364 -0.5250 -0.2905
  266SOL     MW 1064   0.848   0.758   2.211  0.0236  0.0697 -0.0495
  267SOL     OW 1065   1.374   1.770   2.672 -0.5916  0.3830 -0.2369
  267SOL    HW1 1066   1.434   1.712   2.620  1.2338 -1.1606 -1.8937
  267SOL    HW2 1067   1.282   1.771   2.632 -3.2907 -5.0120 -1.9763
  267SOL     MW 1068   1.370   1.763   2.660 -0.7069 -0.5325 -0.6850
  268SOL     OW 1069   0.199   0.876   1.663 -0.7155  0.6636  0.2041
  268SOL    HW1 1070   0.168   0.963   1.632  0.5551  0.6632 -0.7384
  268SOL    HW2 1071   0.160   0.805   1.615  2.4599  0.0780  1.0345
  268SOL     MW 1072   0.190   0.878   1.652 -0.1289  0.5863  0.1893
  269SOL     OW 1073   1.383   2.005   2.344 -0.5887 -0.1251  0.5167
  269SOL    HW1 1074   1.428   2.085   2.362 -1.5963  0.6997 -2.7124
  269SOL    HW2 1075   1.293   2.009   2.363  2.3556  1.8795 -5.2807
  269SOL     MW 1076   1.377   2.016   2.349 -0.3332  0.2482 -0.6743
  270SOL     OW 1077   1.149   0.421   1.612  0.2804 -0.5784 -0.2178
  270SOL    HW1 1078   1.122   0.329   1.631  0.0418 -0.2811 -2.5086
  270SOL    HW2 1079   1.244   0.419   1.611  2.3437  0.0390 -1.7086
  270SOL     MW 1080   1.158   0.409   1.614  0.5212 -0.4577 -0.7168
  271SOL     OW 1081   0.814   0.015   2.585 -0.9296 -0.3580 -0.2341
  271SOL    HW1 1082   0.853  -0.074   2.606 -0.0832 -1.3127 -2.2534
  271SOL    HW2 1083   0.885   0.064   2.532  0.4073 -0.0989  0.2148
  271SOL     MW 1084   0.829   0.010   2.581 -0.6416 -0.4498 -0.4413
  272SOL     OW 1085   1.516   2.828   2.787  0.0272 -0.1603  0.7120
  272SOL    HW1 1086   1.469   2.822   2.700  0.5320 -0.2577 -3.2180
  272SOL    HW2 1087   1.517   2.924   2.799  0.1653 -1.7457  0.3374
  272SOL     MW 1088   1.510   2.840   2.777  0.1120 -0.3823  0.1441
  273SOL     OW 1089   1.502   0.913   2.799 -0.3478 -0.2626 -0.0091
  273SOL    HW1 1090   1.583   0.958   2.837 -0.7527  0.9515 -1.4485
  273SOL    HW2 1091   1.452   0.978   2.749 -0.1365  1.3763  0.3033
  273SOL     MW 1092   1.506   0.927   2.798 -0.3734  0.1138 -0.1578
  274SOL     OW 1093   1.412   0.718   0.125 -0.1309  0.2253 -0.2050
  274SOL    HW1 1094   1.478   0.649   0.139 -2.5454 -2.0130  1.6550
  274SOL    HW2 1095   1.325   0.685   0.160 -0.1402  3.0068 -0.6486
  274SOL     MW 1096   1.409   0.705   0.132 -0.4507  0.2970 -0.0181
  275SOL     OW 1097   1.647   0.536   1.787  0.1351 -0.1032  0.1013
  275SOL    HW1 1098   1.719   0.573   1.840  0.8607 -0.0536  0.0005
  275SOL    HW2 1099   1.643   0.445   1.820  0.6246 -0.1233 -2.2233
  275SOL     MW 1100   1.656   0.529   1.798  0.2954 -0.0993 -0.2187
  276SOL     OW 1101   0.308   1.249   1.931  0.1827  0.0987  0.2081
  276SOL    HW1 1102   0.354   1.168   1.930  1.3997  1.1498 -1.7778
  276SOL    HW2 1103   0.302   1.276   2.023 -1.5168  2.0299 -1.7546
  276SOL     MW 1104   0.313   1.242   1.943  0.1190  0.4922 -0.3129
  277SOL     OW 1105   1.926   1.149   2.489  0.7217 -0.1283  1.2844
  277SOL    HW1 1106   1.975   1.234   2.493  1.4533  0.9826 -1.1969
  277SOL    HW2 1107   1.950   1.112   2.404  3.7047 -0.2418  1.5129
  277SOL     MW 1108   1.936   1.155   2.478  1.2118  0.0033  0.9871
  278SOL     OW 1109   1.416   0.690   1.663 -0.6553 -0.1001 -0.3824
  278SOL    HW1 1110   1.386   0.618   1.725  1.3563 -0.4443 -0.9070
  278SOL    HW2 1111   1.502   0.702   1.696 -1.2714  1.8867  0.3410
  278SOL     MW 1112   1.423   0.682   1.676 -0.4712  0.1166 -0.3562
  279SOL     OW 1113   0.578   0.120   2.234 -0.6793 -0.0261 -0.3439
  279SOL    HW1 1114   0.667   0.078   2.257  0.1650 -2.3210  2.8023
  279SOL    HW2 1115   0.601   0.212   2.243 -0.4198  1.9871 -0.5421
  279SOL     MW 1116   0.593   0.127   2.238 -0.5337 -0.0633  0.0451
  280SOL     OW 1117   1.468   0.964   2.161 -0.3210  0.5217 -0.0367
  280SOL    HW1 1118   1.526   0.906   2.112  0.5594  2.1656  1.8974
  280SOL    HW2 1119   1.476   0.937   2.251  2.1930 -1.1347 -3.6352
  280SOL     MW 1120   1.477   0.953   2.166  0.1268  0.5200 -0.2563
  281SOL     OW 1121   1.338   1.322   2.740 -0.0987  0.2978 -0.3984
  281SOL    HW1 1122   1.423   1.362   2.736 -1.6602  1.0962 -1.8036
  281SOL    HW2 1123   1.328   1.268   2.823 -1.6607 -0.9135 -0.4487
  281SOL     MW 1124   1.348   1.320   2.751 -0.5108  0.2433 -0.5904
  282SOL     OW 1125   1.084   1.297   1.632 -0.0265  0.4241 -0.1145
  282SOL    HW1 1126   1.107   1.391   1.617 -0.4772  0.4024 -0.4015
  282SOL    HW2 1127   1.015   1.285   1.696  2.2926  3.4776  1.9250
  282SOL     MW 1128   1.078   1.308   1.639  0.2200  0.8241  0.1167
  283SOL     OW 1129   0.825   1.256   3.015  0.3425  0.2377  0.3389
  283SOL    HW1 1130   0.836   1.226   3.102 -0.5021  1.6577 -1.5825
  283SOL    HW2 1131   0.775   1.334   3.014  0.9705 -1.1779  2.5885
  283SOL     MW 1132   0.820   1.262   3.026  0.3139  0.2383  0.3822
  284SOL     OW 1133   0.454   0.703   2.383 -0.4981  0.4715 -0.1318
  284SOL    HW1 1134   0.523   0.769   2.371 -2.3691  0.6336 -0.1497
  284SOL    HW2 1135   0.454   0.632   2.315  0.9994  0.2336 -2.4700
  284SOL     MW 1136   0.463   0.702   2.373 -0.5474  0.4615 -0.4426
  285SOL     OW 1137   0.959   0.829   2.825 -0.4356  0.4009  0.4948
  285SOL    HW1 1138   1.025   0.825   2.760 -0.7261  0.3149  0.9240
  285SOL    HW2 1139   0.882   0.790   2.777  1.1824  1.1182 -0.6654
  285SOL     MW 1140   0.958   0.824   2.810 -0.2605  0.4842  0.3984
  286SOL     OW 1141   1.143   1.493   2.674  0.7035  0.0384 -0.1802
  286SOL    HW1 1142   1.219   1.443   2.703 -1.5730 -0.4649 -1.4033
  286SOL    HW2 1143   1.171   1.588   2.667  0.8004  1.2403  1.9017
  286SOL     MW 1144   1.157   1.499   2.677  0.4159  0.1306 -0.0669
  287SOL     OW 1145   1.149   0.927   0.357  0.3416 -0.1827 -0.4139
  287SOL    HW1 1146   1.207   0.973   0.418 -1.6809 -1.1301  0.4699
  287SOL    HW2 1147   1.116   1.005   0.307 -1.0618  2.2686 -0.6940
  287SOL     MW 1148   1.153   0.943   0.359 -0.1104  0.0157 -0.3342
  288SOL     OW 1149   1.532   0.568   2.058 -0.8423 -0.0076  0.2135
  288SOL    HW1 1150   1.485   0.591   2.141  1.3038 -0.0067  3.5715
  288SOL    HW2 1151   1.557   0.653   2.028  1.0833  1.5722 -1.2317
  288SOL     MW 1152   1.529   0.582   2.065 -0.3051  0.2009  0.4659
  289SOL     OW 1153   1.088   0.978   2.594 -0.3891  0.1171 -0.2849
  289SOL    HW1 1154   1.105   0.886   2.590  0.1943 -0.1320 -0.5073
  289SOL    HW2 1155   0.997   0.993   2.564  1.1070 -2.2401  0.9934
  289SOL     MW 1156   1.078   0.968   2.590 -0.1148 -0.2268 -0.1456
  290SOL     OW 1157   0.801   0.609   1.578 -0.0863  0.1142 -0.3135
  290SOL    HW1 1158   0.854   0.580   1.500 -1.7845 -0.3495 -4.2768
  290SOL    HW2 1159   0.867   0.599   1.643 -1.2356 -1.9860  1.0020
  290SOL     MW 1160   0.817   0.604   1.576 -0.4620 -0.2241 -0.6628
  291SOL     OW 1161   0.185   0.379   0.130 -0.1676  0.0258 -0.2590
  291SOL    HW1 1162   0.248   0.310   0.141 -0.2746 -0.5982 -1.0221
  291SOL    HW2 1163   0.132   0.355   0.054  2.5872 -0.1258  0.0298
  291SOL     MW 1164   0.186   0.367   0.121  0.1818 -0.0766 -0.3216
  292SOL     OW 1165   1.003   0.549   0.081  0.1166 -0.4768  0.2034
  292SOL    HW1 1166   1.068   0.604   0.122 -0.6814  1.5748  0.0466
  292SOL    HW2 1167   1.023   0.455   0.098  0.0408  1.7489  1.1001
  292SOL     MW 1168   1.015   0.544   0.088  0.0013  0.0876  0.3010
  293SOL     OW 1169   0.172   0.119   2.444  0.5594  0.1623  0.3455
  293SOL    HW1 1170   0.109   0.082   2.380  0.0771 -0.3241  3.6354
  293SOL    HW2 1171   0.115   0.158   2.507  3.0501 -0.6076  2.3360
  293SOL     MW 1172   0.156   0.119   2.444  0.8244 -0.0034  1.0422
  294SOL     OW 1173   1.453   0.578   2.330 -0.1109 -0.1883 -0.0653
  294SOL    HW1 1174   1.463   0.641   2.396 -2.1843  1.4613 -0.8574
  294SOL    HW2 1175   1.453   0.491   2.369  1.4338 -0.6087 -3.3649
  294SOL     MW 1176   1.454   0.575   2.344 -0.1806 -0.0261 -0.6051
  295SOL     OW 1177   0.927   0.536   2.540  0.1737  0.1667  0.1823
  295SOL    HW1 1178   0.900   0.482   2.466 -1.5651  1.2328 -0.1537
  295SOL    HW2 1179   0.851   0.553   2.596 -3.5862  2.5553  1.3253
  295SOL     MW 1180   0.913   0.531   2.538 -0.5518  0.6225  0.2888
  296SOL     OW 1181   1.269   0.281   2.033 -0.2075  0.0612 -0.4160
  296SOL    HW1 1182   1.348   0.241   1.996 -0.7372  0.7369 -0.4212
  296SOL    HW2 1183   1.270   0.249   2.127 -1.2348  0.2416 -0.8049
  296SOL     MW 1184   1.279   0.271   2.041 -0.4129  0.1742 -0.4680
  297SOL     OW 1185   1.410   0.415   1.565  0.5220 -0.0385 -0.2429
  297SOL    HW1 1186   1.438   0.504   1.597 -2.1146  0.7089 -2.8992
  297SOL    HW2 1187   1.456   0.358   1.624 -0.3419  0.4664 -1.3175
  297SOL     MW 1188   1.420   0.419   1.577  0.0602  0.1267 -0.7351
  298SOL     OW 1189   1.639   0.831   1.995  0.3540  0.5466  0.5455
  298SOL    HW1 1190   1.661   0.918   1.957 -3.7564  1.1425 -0.4333
  298SOL    HW2 1191   1.712   0.798   2.056 -2.8400 -3.3209  2.9477
  298SOL     MW 1192   1.651   0.838   1.998 -0.6097  0.1150  0.7333
  299SOL     OW 1193   0.561   1.100   0.047  0.0664  0.2244 -0.0795
  299SOL    HW1 1194   0.539   1.070  -0.045 -0.3504 -5.0008 -1.3673
  299SOL    HW2 1195   0.598   1.189   0.038  3.8984  1.3478  2.0601
  299SOL     MW 1196   0.563   1.108   0.034  0.5170 -0.3168  0.0329
  300SOL     OW 1197   1.305   1.160   2.503  0.0766  0.2243 -0.6987
  300SOL    HW1 1198   1.245   1.100   2.548  0.7958 -2.2713 -1.3829
  300SOL    HW2 1199   1.321   1.221   2.574 -1.2082 -0.1253 -1.4553
  300SOL     MW 1200   1.299   1.160   2.518  0.0020 -0.1511 -0.8888
  301SOL     OW 1201   1.487   0.927   0.662  0.6333  1.1668  0.3067
  301SOL    HW1 1202   1.471   0.963   0.752  1.1140 -1.2121 -0.3339
  301SOL    HW2 1203   1.406   0.880   0.645 -1.5805  0.8939 -4.4548
  301SOL     MW 1204   1.474   0.926   0.671  0.4046  0.8169 -0.4060
  302SOL     OW 1205   0.127   1.595   2.010 -0.2834  0.5260  0.0785
  302SOL    HW1 1206   0.164   1.535   2.077  2.6120 -0.1346 -1.5492
  302SOL    HW2 1207   0.042   1.627   2.035 -1.4314  0.6930 -0.5980
  302SOL     MW 1208   0.120   1.591   2.022 -0.0529  0.4609 -0.2255
  303SOL     OW 1209   0.427   1.806   2.667 -0.8125 -0.3850 -0.1665
  303SOL    HW1 1210   0.402   1.764   2.587  0.8622  0.9176  1.4778
  303SOL    HW2 1211   0.358   1.861   2.694  1.1654  0.9173  1.1447
  303SOL     MW 1212   0.414   1.808   2.660 -0.3306 -0.0413  0.2235
  304SOL     OW 1213   0.524   2.056   2.377  0.0004 -0.5827 -0.7607
  304SOL    HW1 1214   0.569   2.125   2.325 -2.3777  0.7724  0.4563
  304SOL    HW2 1215   0.579   1.978   2.375 -3.2901  0.5387 -0.0739
  304SOL     MW 1216   0.537   2.055   2.370 -0.7475 -0.2559 -0.5095
  305SOL     OW 1217   1.107   0.551   0.493 -0.3683 -0.2338 -0.0179
  305SOL    HW1 1218   1.010   0.556   0.491  0.2132  0.2654  2.0461
  305SOL    HW2 1219   1.124   0.466   0.533 -1.4884 -0.1773  0.3561
  305SOL     MW 1220   1.097   0.540   0.498 -0.4394 -0.1605  0.3038
  306SOL     OW 1221   1.180   1.524   0.290  0.2862  0.3834  0.3668
  306SOL    HW1 1222   1.208   1.432   0.318  0.1603  0.6784 -1.1506
  306SOL    HW2 1223   1.213   1.533   0.203  0.1357 -0.1573  0.7243
  306SOL     MW 1224   1.188   1.513   0.282  0.2497  0.3510  0.2138
  307SOL     OW 1225   1.344   0.491   1.871 -0.2961 -0.7622 -0.3354
  307SOL    HW1 1226   1.304   0.418   1.915 -0.1395  0.4458 -1.7755
  307SOL    HW2 1227   1.412   0.521   1.939  2.6516  1.4849 -1.3054
  307SOL     MW 1228   1.348   0.486   1.885  0.1135 -0.3064 -0.6534
  308SOL     OW 1229   2.178   0.565   2.717  0.7778 -0.2794 -0.1732
  308SOL    HW1 1230   2.278   0.547   2.728  1.3401 -4.0752  0.4419
  308SOL    HW2 1231   2.159   0.639   2.664 -0.8905  1.9377  2.5935
  308SOL     MW 1232   2.188   0.572   2.712  0.6318 -0.4877  0.2730
  309SOL     OW 1233   0.471   0.502   0.317  0.3056  0.4648 -0.8144
  309SOL    HW1 1234   0.566   0.510   0.322 -0.4969  0.6020 -0.6473
  309SOL    HW2 1235   0.457   0.441   0.246  0.5855 -0.3702 -0.5463
  309SOL     MW 1236   0.481   0.495   0.308  0.2366  0.3728 -0.7570
  310SOL     OW 1237   0.431   0.604   1.929 -0.3411  0.0644 -0.3700
  310SOL    HW1 1238   0.475   0.514   1.900  2.1674 -2.8892  2.9277
  310SOL    HW2 1239   0.488   0.674   1.896  0.1850 -1.1967 -2.1174
  310SOL     MW 1240   0.444   0.601   1.921  0.0592 -0.4917 -0.1655
  311SOL     OW 1241   1.870   0.586   1.935  0.4565 -0.5302 -0.3928
  311SOL    HW1 1242   1.827   0.621   2.014  0.3657  3.6259 -0.1400
  311SOL    HW2 1243   1.939   0.524   1.968  3.9551  0.1597 -2.0157
  311SOL     MW 1244   1.874   0.582   1.950  0.9062  0.1092 -0.5735
  312SOL     OW 1245   1.804   2.501   0.152 -0.3904 -0.4697  0.2157
  312SOL    HW1 1246   1.868   2.510   0.225 -1.5391 -0.0272  2.9387
  312SOL    HW2 1247   1.725   2.553   0.180  1.3409  0.0726 -1.2613
  312SOL     MW 1248   1.802   2.509   0.165 -0.3135 -0.3398  0.3801
  313SOL     OW 1249   0.131   1.125   2.952 -0.4745  0.6310 -0.1581
  313SOL    HW1 1250   0.093   1.139   3.046 -1.3075 -0.6325  0.4822
  313SOL    HW2 1251   0.193   1.192   2.925 -2.4941 -0.5357 -3.7472
  313SOL     MW 1252   0.134   1.136   2.961 -0.8509  0.3104 -0.5472
  314SOL     OW 1253   2.161   3.007   2.947 -0.0032  0.1227  0.1007
  314SOL    HW1 1254   2.088   3.068   2.933  0.6062 -0.1557 -1.3145
  314SOL    HW2 1255   2.208   3.045   3.020 -3.5176  1.2892  0.7484
  314SOL     MW 1256   2.157   3.020   2.955 -0.3865  0.2399 -0.0006
  315SOL     OW 1257   1.534   1.870   3.045 -0.3376 -0.2430 -0.5379
  315SOL    HW1 1258   1.486   1.912   3.110 -1.0796 -1.9237 -1.0930
  315SOL    HW2 1259   1.558   1.943   2.986  1.1401  0.2541  0.1601
  315SOL     MW 1260   1.531   1.885   3.046 -0.2405 -0.3992 -0.5190
  316SOL     OW 1261   1.327   0.531   2.706  0.2412 -0.4963  0.0135
  316SOL    HW1 1262   1.420   0.557   2.732  0.0814 -2.9193 -0.2520
  316SOL    HW2 1263   1.287   0.560   2.793 -2.2803  0.6392  0.5705
  316SOL     MW 1264   1.334   0.539   2.721 -0.1126 -0.6662  0.0520
  317SOL     OW 1265   0.668   1.456   2.596 -0.2754  0.1511  0.7228
  317SOL    HW1 1266   0.740   1.399   2.611  0.2491 -0.5470  0.0723
  317SOL    HW2 1267   0.673   1.496   2.503  0.0440  2.1667 -1.4553
  317SOL     MW 1268   0.678   1.454   2.586 -0.1641  0.3249  0.3496
  318SOL     OW 1269   1.320   0.347   2.970  0.1667  0.6581 -0.0032
  318SOL    HW1 1270   1.236   0.389   2.933 -1.3196  0.2756  1.4090
  318SOL    HW2 1271   1.389   0.416   2.973 -0.0574 -1.3378  1.4427
  318SOL     MW 1272   1.318   0.362   2.965 -0.0590  0.3443  0.3739
  319SOL     OW 1273   0.838   0.434   2.871  0.3392 -0.4675  0.3441
  319SOL    HW1 1274   0.782   0.378   2.814 -1.0623  1.8799 -1.3284
  319SOL    HW2 1275   0.796   0.445   2.953  0.3341 -0.6747 -1.8676
  319SOL     MW 1276   0.825   0.428   2.874  0.1536 -0.1851 -0.1684
  320SOL     OW 1277   1.068   1.352   2.011 -0.4138 -0.1214 -0.5592
  320SOL    HW1 1278   1.144   1.311   2.052  0.2354 -0.0648  0.1257
  320SOL    HW2 1279   1.105   1.407   1.942 -0.4868 -0.9037  0.7757
  320SOL     MW 1280   1.083   1.354   2.007 -0.3378 -0.2171 -0.2927
  321SOL     OW 1281   1.131   0.948   2.999 -0.3028 -0.1262 -0.1610
  321SOL    HW1 1282   1.076   0.915   2.929 -1.7675 -0.3739 -0.0838
  321SOL    HW2 1283   1.174   0.873   3.031 -2.9044  3.3743  1.5084
  321SOL     MW 1284   1.129   0.934   2.994 -0.8393  0.3030  0.0695
  322SOL     OW 1285   1.194   0.847   1.674 -0.0716 -0.1869  0.1938
  322SOL    HW1 1286   1.273   0.792   1.676 -1.9084  1.0529  0.5607
  322SOL    HW2 1287   1.171   0.888   1.758 -1.0002  1.3253 -0.4891
  322SOL     MW 1288   1.201   0.845   1.685 -0.4365  0.1762  0.1521
  323SOL     OW 1289   1.223   1.547   1.880  0.1160  0.9624  0.1227
  323SOL    HW1 1290   1.267   1.547   1.795  1.4526  0.2212  0.6481
  323SOL    HW2 1291   1.163   1.621   1.888  0.2521 -2.1340 -0.6799
  323SOL     MW 1292   1.221   1.557   1.870  0.3103  0.4560  0.0862
  324SOL     OW 1293   1.478   0.966   2.430 -0.2309  0.1207  0.3319
  324SOL    HW1 1294   1.407   1.025   2.448 -4.2673  0.4096 -0.8394
  324SOL    HW2 1295   1.557   1.022   2.448  1.8783 -1.9064 -3.2024
  324SOL     MW 1296   1.479   0.981   2.435 -0.4851 -0.1086 -0.2890
  325SOL     OW 1297   1.113   0.516   2.912  0.4541 -0.2140  0.0281
  325SOL    HW1 1298   1.082   0.538   3.000 -0.7899  0.7900  0.4477
  325SOL    HW2 1299   1.049   0.450   2.871  0.8300  1.7047 -0.6345
  325SOL     MW 1300   1.101   0.510   2.918  0.3396  0.1716 -0.0039
  326SOL     OW 1301   0.466   1.353   2.339 -0.0972 -0.2906  0.0807
  326SOL    HW1 1302   0.535   1.334   2.273 -2.2943  2.0789  2.1845
  326SOL    HW2 1303   0.442   1.440   2.304  0.5339 -2.7063  2.7227
  326SOL     MW 1304   0.472   1.362   2.325 -0.3038 -0.2967  0.7069
  327SOL     OW 1305   1.909   0.797   2.434  0.0125 -0.0640 -0.0637
  327SOL    HW1 1306   1.877   0.735   2.504 -0.3974 -0.8341 -1.5295
  327SOL    HW2 1307   1.980   0.836   2.483 -1.1310 -1.5578 -1.3198
  327SOL     MW 1308   1.914   0.794   2.450 -0.1925 -0.3627 -0.4229
  328SOL     OW 1309   0.196   1.402   2.182 -0.0549 -0.6984 -0.2579
  328SOL    HW1 1310   0.130   1.337   2.163 -0.1349  1.1327  0.0100
  328SOL    HW2 1311   0.223   1.390   2.272 -2.8731 -1.1352  1.8328
  328SOL     MW 1312   0.191   1.392   2.191 -0.4373 -0.5145  0.0533
  329SOL     OW 1313   0.110   0.246   1.408 -0.5091  0.3341 -0.1365
  329SOL    HW1 1314   0.081   0.235   1.502  1.9678  1.8221  1.3864
  329SOL    HW2 1315   0.199   0.283   1.404 -2.0076 -0.3505  1.5713
  329SOL     MW 1316   0.118   0.250   1.420 -0.3800  0.4401  0.2897
  330SOL     OW 1317   0.390   3.082   2.083  0.1462 -0.3684  0.1923
  330SOL    HW1 1318   0.451   3.130   2.143 -0.8723  0.2776 -1.0726
  330SOL    HW2 1319   0.338   3.032   2.146 -0.5862  2.1430  1.4800
  330SOL     MW 1320   0.391   3.082   2.099 -0.0848  0.0482  0.1953
  331SOL     OW 1321   0.835   1.246   2.324 -0.3241  0.5302  0.6426
  331SOL    HW1 1322   0.790   1.304   2.259 -2.3257  1.6062  0.7168
  331SOL    HW2 1323   0.855   1.297   2.402 -0.5972 -2.7271  1.2426
  331SOL     MW 1324   0.832   1.261   2.326 -0.6242  0.2424  0.7315
  332SOL     OW 1325   1.357   1.701   2.942 -0.1870  0.0038 -0.3330
  332SOL    HW1 1326   1.364   1.719   2.846 -0.6689 -0.7323 -1.6000
  332SOL    HW2 1327   1.416   1.764   2.986  1.6343 -0.6920 -2.5045
  332SOL     MW 1328   1.366   1.711   2.935 -0.0103 -0.1852 -0.7867
  333SOL     OW 1329   1.733   1.377   2.971  0.0033 -0.5572  0.0888
  333SOL    HW1 1330   1.824   1.401   2.963  3.3057 -1.9965 -0.0621
  333SOL    HW2 1331   1.735   1.313   3.040  1.5816 -1.1141 -1.2675
  333SOL     MW 1332   1.745   1.372   2.979  0.6472 -0.8205 -0.1101
  334SOL     OW 1333   1.302   0.060   2.556 -0.6037  0.1164  0.3232
  334SOL    HW1 1334   1.241   0.007   2.607  0.5958  1.4298 -1.0379
  334SOL    HW2 1335   1.346   0.120   2.618  1.4867  2.1033 -1.3312
  334SOL     MW 1336   1.300   0.061   2.571 -0.1697  0.5519 -0.0747
  335SOL     OW 1337   1.329   0.764   2.952  0.3017 -0.3988  0.3482
  335SOL    HW1 1338   1.373   0.738   3.035 -0.7910 -2.4982 -1.9048
  335SOL    HW2 1339   1.390   0.820   2.895 -1.0313  0.2301 -2.0405
  335SOL     MW 1340   1.343   0.768   2.956 -0.0184 -0.5928 -0.2642
  336SOL     OW 1341   0.946   1.165   1.872 -0.2281  0.5596 -0.2789
  336SOL    HW1 1342   0.982   1.235   1.920 -0.8651 -1.9985 -2.3498
  336SOL    HW2 1343   1.016   1.100   1.863 -0.1966  0.0156 -0.0101
  336SOL     MW 1344   0.960   1.165   1.877 -0.3080  0.1503 -0.5167
  337SOL     OW 1345   0.658   1.816   2.785  0.5335 -0.1938  0.1331
  337SOL    HW1 1346   0.592   1.790   2.721 -0.1037 -0.7399  0.5524
  337SOL    HW2 1347   0.726   1.755   2.769  0.2684 -0.4015 -1.4164
  337SOL     MW 1348   0.659   1.804   2.774  0.4144 -0.2932 -0.0160
  338SOL     OW 1349   1.136   0.707   2.593 -0.3523 -0.7846  0.5409
  338SOL    HW1 1350   1.054   0.655   2.573 -0.8454  0.7795 -1.0099
  338SOL    HW2 1351   1.194   0.659   2.656  0.4294 -1.0886 -0.6728
  338SOL     MW 1352   1.133   0.694   2.599 -0.3142 -0.6183  0.1761
  339SOL     OW 1353   1.490   1.073   1.843 -0.1463 -0.1965  0.2419
  339SOL    HW1 1354   1.435   1.083   1.766  2.1447 -0.5445 -1.5645
  339SOL    HW2 1355   1.440   1.044   1.919  0.8633  0.7640 -0.1062
  339SOL     MW 1356   1.476   1.070   1.843  0.2892 -0.1157 -0.0424
  340SOL     OW 1357   1.296   1.530   0.049  0.0173 -0.2209  0.1601
  340SOL    HW1 1358   1.311   1.576  -0.036 -2.4097 -4.7165 -0.0248
  340SOL    HW2 1359   1.383   1.490   0.066  1.3484 -1.4342  0.6699
  340SOL     MW 1360   1.310   1.530   0.040 -0.1273 -0.9742  0.2030
  341SOL     OW 1361   0.042   1.354   2.757 -0.4760 -0.6694 -0.0791
  341SOL    HW1 1362   0.098   1.275   2.764  2.4583  1.1719  1.4232
  341SOL    HW2 1363  -0.004   1.351   2.668  0.7319  0.5154 -0.9473
  341SOL     MW 1364   0.043   1.343   2.746  0.0705 -0.2701  0.0045
  342SOL     OW 1365   1.312   0.339   0.143  0.1056  0.4388  0.2900
  342SOL    HW1 1366   1.379   0.398   0.170 -2.3999  0.3771 -3.6196
  342SOL    HW2 1367   1.318   0.341   0.044 -0.1050 -0.0423 -2.6273
  342SOL     MW 1368   1.322   0.347   0.133 -0.2527  0.3672 -0.6108
  343SOL     OW 1369   0.263   0.291   2.094  0.5154  0.9770  0.6597
  343SOL    HW1 1370   0.319   0.211   2.102  0.6097  3.6371 -1.1351
  343SOL    HW2 1371   0.175   0.260   2.060  0.7885 -5.2341  1.4778
  343SOL     MW 1372   0.259   0.276   2.091  0.5639  0.5084  0.5309
  344SOL     OW 1373   1.692   2.037   0.179  0.0726  0.5432 -0.1048
  344SOL    HW1 1374   1.705   2.103   0.109 -0.4464  0.1510 -0.2325
  344SOL    HW2 1375   1.612   1.982   0.157  0.4333  0.7871  0.4696
  344SOL     MW 1376   1.683   2.038   0.167  0.0517  0.5236 -0.0459
  345SOL     OW 1377   0.707   1.562   2.343 -0.3535  0.3280 -0.5084
  345SOL    HW1 1378   0.645   1.551   2.273 -0.5776  0.0995  1.4745
  345SOL    HW2 1379   0.794   1.537   2.306  2.2482  0.4559  1.0644
  345SOL     MW 1380   0.710   1.557   2.329 -0.0398  0.3148 -0.0393
  346SOL     OW 1381   1.766   1.148   0.053 -0.0026  0.6085 -0.1715
  346SOL    HW1 1382   1.854   1.175   0.082 -0.0996 -0.8650  0.2601
  346SOL    HW2 1383   1.736   1.074   0.103  0.9942  1.5415  2.9725
  346SOL     MW 1384   1.774   1.142   0.063  0.1161  0.5371  0.3003
  347SOL     OW 1385   1.166   0.639   2.298 -0.0403 -0.2197 -0.2186
  347SOL    HW1 1386   1.249   0.601   2.286 -0.4202  1.0175  0.6933
  347SOL    HW2 1387   1.157   0.659   2.398 -1.5092 -1.2660  2.9407
  347SOL     MW 1388   1.175   0.637   2.310 -0.2842 -0.1945  0.3186
  348SOL     OW 1389   1.317   2.643   1.891 -0.4669 -0.0064 -0.2598
  348SOL    HW1 1390   1.353   2.557   1.923 -0.7745 -0.0759  0.0577
  348SOL    HW2 1391   1.365   2.687   1.956 -1.8361 -0.7099 -2.4130
  348SOL     MW 1392   1.328   2.637   1.904 -0.6881 -0.1084 -0.5020
  349SOL     OW 1393   1.454   0.222   2.725  0.0157 -0.4371 -0.5449
  349SOL    HW1 1394   1.420   0.280   2.796 -0.9591 -0.9512 -0.3823
  349SOL    HW2 1395   1.506   0.145   2.764 -0.6261 -0.6110 -0.5372
  349SOL     MW 1396   1.456   0.219   2.740 -0.1976 -0.5278 -0.5224
  350SOL     OW 1397   1.848   0.607   2.662  0.2778  0.0934  0.4185
  350SOL    HW1 1398   1.788   0.560   2.606  2.1049 -0.0855  1.0132
  350SOL    HW2 1399   1.887   0.550   2.728 -3.2852  2.2023 -0.4634
  350SOL     MW 1400   1.845   0.593   2.664  0.0488  0.3480  0.3806
  351SOL     OW 1401   0.114   1.117   1.561 -0.1754  0.3117 -0.1471
  351SOL    HW1 1402   0.046   1.105   1.629 -0.8176 -0.0496  2.7508
  351SOL    HW2 1403   0.195   1.154   1.609  0.0114  1.7812  0.5273
  351SOL     MW 1404   0.116   1.121   1.576 -0.2355  0.4579  0.3243
  352SOL     OW 1405   0.854   1.649   2.722  0.6421  0.1009  0.6986
  352SOL    HW1 1406   0.891   1.598   2.790  0.0513 -1.3792 -2.2593
  352SOL    HW2 1407   0.795   1.592   2.672  0.7486 -2.6531 -0.3627
  352SOL     MW 1408   0.851   1.635   2.724  0.5782 -0.4578  0.1683
  353SOL     OW 1409   3.073   2.523   2.702  0.3066 -0.5152  0.5774
  353SOL    HW1 1410   3.168   2.494   2.685  1.4637 -1.4780 -1.4507
  353SOL    HW2 1411   3.070   2.609   2.659  1.5485  1.8109  0.8688
  353SOL     MW 1412   3.085   2.531   2.694  0.6231 -0.3353  0.3482
  354SOL     OW 1413   0.271   2.462   0.817  0.0482 -0.5478 -0.1991
  354SOL    HW1 1414   0.322   2.455   0.896  0.3039 -1.1208 -1.3800
  354SOL    HW2 1415   0.200   2.396   0.813 -0.8341  1.1797 -0.7608
  354SOL     MW 1416   0.269   2.453   0.827 -0.0345 -0.3955 -0.4290
  355SOL     OW 1417   0.010   2.243   0.390  0.1091 -0.4215 -0.6099
  355SOL    HW1 1418  -0.065   2.185   0.398  1.6937 -0.2346 -1.5034
  355SOL    HW2 1419   0.009   2.302   0.467 -2.6892 -2.4751 -2.5713
  355SOL     MW 1420  -0.000   2.243   0.401 -0.0511 -0.6678 -0.9866
  356SOL     OW 1421   0.849   2.785   0.981  0.2954 -0.0295 -0.5945
  356SOL    HW1 1422   0.905   2.830   0.908  0.5580 -2.2002 -0.7671
  356SOL    HW2 1423   0.758   2.804   0.957 -0.2363  1.1087 -1.2725
  356SOL     MW 1424   0.844   2.793   0.968  0.2599 -0.1657 -0.7067
  357SOL     OW 1425   1.775   2.916   0.373 -0.0395 -0.4146 -0.2524
  357SOL    HW1 1426   1.752   2.827   0.401 -0.0576 -0.8221 -0.2451
  357SOL    HW2 1427   1.869   2.906   0.345 -2.2637 -1.9379 -2.1342
  357SOL     MW 1428   1.785   2.903   0.373 -0.3353 -0.6693 -0.4997
  358SOL     OW 1429   0.451   0.166   1.046 -0.1751 -0.5296 -0.1067
  358SOL    HW1 1430   0.537   0.131   1.025  1.0785  3.0059 -0.1016
  358SOL    HW2 1431   0.407   0.174   0.965  1.1627  0.4955  0.3046
  358SOL     MW 1432   0.456   0.163   1.033  0.1668  0.0721 -0.0517
  359SOL     OW 1433   0.867   2.889   1.846 -0.0699 -0.1655  0.2413
  359SOL    HW1 1434   0.832   2.807   1.878 -1.7958  0.0403 -0.3995
  359SOL    HW2 1435   0.891   2.865   1.753 -1.1457  1.0178 -3.4497
  359SOL     MW 1436   0.866   2.875   1.838 -0.4395  0.0177 -0.3302
  360SOL     OW 1437   0.570   2.794   0.924 -0.1296  0.3668  0.3146
  360SOL    HW1 1438   0.574   2.768   0.832  1.5858  0.5586  1.2402
  360SOL    HW2 1439   0.564   2.706   0.968  0.6317  2.2246 -0.5765
  360SOL     MW 1440   0.570   2.779   0.918  0.1971  0.6372  0.3191
  361SOL     OW 1441   0.184   2.627   1.357  0.4026  0.4864 -0.4240
  361SOL    HW1 1442   0.168   2.704   1.411 -0.7703 -0.6969  2.1546
  361SOL    HW2 1443   0.281   2.623   1.336  0.0369 -0.8517  0.4316
  361SOL     MW 1444   0.194   2.636   1.361  0.1996  0.1537  0.0291
  362SOL     OW 1445   1.458   2.440   0.656 -0.1988  0.7753 -0.4093
  362SOL    HW1 1446   1.473   2.402   0.746 -1.7865  1.0689  0.3564
  362SOL    HW2 1447   1.499   2.527   0.656 -0.6605 -0.1224 -1.3102
  362SOL     MW 1448   1.465   2.447   0.668 -0.4692  0.6956 -0.4272
  363SOL     OW 1449   0.298   3.064   0.682 -0.0336  0.3971  0.5442
  363SOL    HW1 1450   0.316   3.022   0.766 -0.4388  1.3822 -1.7953
  363SOL    HW2 1451   0.205   3.072   0.685  1.3232 -0.4117 -1.8062
  363SOL     MW 1452   0.288   3.059   0.694  0.0920  0.4204 -0.0746
  364SOL     OW 1453   0.744   0.201   0.221  0.1055  0.0178  0.3940
  364SOL    HW1 1454   0.674   0.134   0.229  1.3482  1.6423 -1.4005
  364SOL    HW2 1455   0.720   0.270   0.156 -0.7117  0.0912  1.9245
  364SOL     MW 1456   0.732   0.201   0.214  0.1616  0.2418  0.3592
  365SOL     OW 1457   0.959   2.029   1.173  0.1605  0.2726  0.1381
  365SOL    HW1 1458   0.945   2.111   1.133 -0.4185  1.4886  0.2014
  365SOL    HW2 1459   0.901   1.959   1.126  3.0054 -2.2288  0.1939
  365SOL     MW 1460   0.950   2.031   1.162  0.4595  0.1030  0.1538
  366SOL     OW 1461   2.872   2.693   1.000  0.4293 -0.2438 -0.3784
  366SOL    HW1 1462   2.950   2.675   1.060 -1.3680  0.1274 -0.2106
  366SOL    HW2 1463   2.923   2.708   0.918  1.6058  1.6587 -1.0279
  366SOL     MW 1464   2.889   2.693   0.997  0.3474  0.0562 -0.4419
  367SOL     OW 1465   1.227   2.978   0.899  0.2241 -0.2867  0.1625
  367SOL    HW1 1466   1.249   3.037   0.821  1.7055  0.7691 -0.1648
  367SOL    HW2 1467   1.176   2.915   0.853 -1.3547 -0.0292  1.0745
  367SOL     MW 1468   1.223   2.978   0.883  0.2113 -0.1134  0.2396
  368SOL     OW 1469   1.654   0.381   0.738  0.0027 -0.8890  0.0057
  368SOL    HW1 1470   1.726   0.341   0.687  1.2819  0.6705  2.0758
  368SOL    HW2 1471   1.657   0.478   0.732 -2.0519 -0.0140  3.2309
  368SOL     MW 1472   1.664   0.388   0.731 -0.0996 -0.5678  0.7044
  369SOL     OW 1473   0.159   2.449   1.793 -0.3091 -0.1600 -0.2346
  369SOL    HW1 1474   0.257   2.458   1.783 -1.9401  0.3917  0.2201
  369SOL    HW2 1475   0.123   2.540   1.779 -1.8139  3.8499  1.7308
  369SOL     MW 1476   0.167   2.462   1.790 -0.7228  0.4419  0.0847
  370SOL     OW 1477   0.718   0.103   0.971  0.1275  0.6183 -0.2142
  370SOL    HW1 1478   0.762   0.184   0.991  1.0652 -4.3472 -1.0634
  370SOL    HW2 1479   0.787   0.045   0.996  0.0614 -0.6052  1.5844
  370SOL     MW 1480   0.733   0.106   0.977  0.2425 -0.1983 -0.0889
  371SOL     OW 1481   1.341   2.926   1.517  0.2721  0.0229 -0.1426
  371SOL    HW1 1482   1.298   2.842   1.494  1.1627 -0.6246 -1.2685
  371SOL    HW2 1483   1.339   2.996   1.449  2.3492  0.5243  1.5065
  371SOL     MW 1484   1.335   2.924   1.505  0.6637  0.0036 -0.0736
  372SOL     OW 1485   0.757   2.290   0.462  0.4403 -0.4000  0.4807
  372SOL    HW1 1486   0.722   2.202   0.470 -0.4497 -1.4635  1.3489
  372SOL    HW2 1487   0.791   2.299   0.370  1.0839  0.7780 -4.5410
  372SOL     MW 1488   0.757   2.280   0.451  0.4078 -0.3849 -0.0673
  373SOL     OW 1489   2.811   3.020   1.452  0.3485  0.3510  0.0618
  373SOL    HW1 1490   2.873   2.979   1.394  2.4047 -0.1370  2.3711
  373SOL    HW2 1491   2.773   3.091   1.406  0.4394 -1.3683 -0.6899
  373SOL     MW 1492   2.814   3.024   1.438  0.6318  0.0597  0.2673
  374SOL     OW 1493   1.534   0.466   0.222 -0.3032  0.7383  0.3054
  374SOL    HW1 1494   1.600   0.397   0.205  1.2299  2.1735  0.0399
  374SOL    HW2 1495   1.517   0.455   0.314 -1.6043 -1.1334  1.2155
  374SOL     MW 1496   1.541   0.455   0.232 -0.2726  0.6807  0.3905
  375SOL     OW 1497   0.972   2.119   2.258 -0.2636  0.1750  0.1519
  375SOL    HW1 1498   1.031   2.114   2.337  1.0926  3.4699 -1.1178
  375SOL    HW2 1499   1.003   2.040   2.212 -3.2972 -1.3436 -3.1911
  375SOL     MW 1500   0.984   2.108   2.262 -0.4849  0.4093 -0.4567
  376SOL     OW 1501   0.763   2.552   0.091  0.5112  0.0447  0.0774
  376SOL    HW1 1502   0.768   2.469   0.131  1.4326  1.4665 -0.6345
  376SOL    HW2 1503   0.740   2.537  -0.000  1.7525  1.4853 -4.8371
  376SOL     MW 1504   0.761   2.539   0.084  0.7965  0.4224 -0.6649
  377SOL     OW 1505   1.266   2.016   0.858 -0.7683 -0.1600  0.2474
  377SOL    HW1 1506   1.186   1.998   0.797  1.1838 -1.1062  1.2703
  377SOL    HW2 1507   1.249   1.981   0.945 -0.6492  1.1743  0.3786
  377SOL     MW 1508   1.253   2.009   0.862 -0.4951 -0.1088  0.3996
  378SOL     OW 1509   0.875   2.842   1.569 -0.3273 -0.0243 -0.0759
  378SOL    HW1 1510   0.909   2.753   1.550 -0.1801 -2.0692  0.2245
  378SOL    HW2 1511   0.893   2.890   1.486  1.7749  1.4500  1.9224
  378SOL     MW 1512   0.882   2.837   1.555 -0.0305 -0.0996  0.2274
  379SOL     OW 1513   1.165   1.742   2.268 -0.0591 -0.4852  0.2005
  379SOL    HW1 1514   1.084   1.695   2.245  0.3504 -0.6386 -0.7526
  379SOL    HW2 1515   1.241   1.707   2.223  0.1008 -3.3378 -1.0970
  379SOL     MW 1516   1.164   1.731   2.259  0.0161 -0.8819 -0.0964
  380SOL     OW 1517   0.824   0.119   1.577  0.3746  0.1294 -0.8044
  380SOL    HW1 1518   0.823   0.031   1.547 -1.7827 -1.8676 -1.8125
  380SOL    HW2 1519   0.898   0.125   1.638 -0.4861 -1.8999  0.1969
  380SOL     MW 1520   0.833   0.108   1.581 -0.0236 -0.4018 -0.8053
  381SOL     OW 1521   0.788   2.004   0.799 -0.4160 -0.0896  0.1775
  381SOL    HW1 1522   0.883   1.990   0.803  1.0230  2.4613  1.8709
  381SOL    HW2 1523   0.782   2.081   0.855  0.0009  0.2999  3.8760
  381SOL     MW 1524   0.800   2.012   0.807 -0.1711  0.2983  0.8889
  382SOL     OW 1525   0.723   0.083   0.704 -0.2802 -0.0126 -1.0640
  382SOL    HW1 1526   0.719   0.073   0.800  0.8532  0.4578 -0.5176
  382SOL    HW2 1527   0.692  -0.003   0.685  0.8524  3.0506 -0.7307
  382SOL     MW 1528   0.718   0.071   0.714  0.0188  0.4536 -0.9479
  383SOL     OW 1529   0.551   0.024   0.256  0.2423  0.8284 -0.0799
  383SOL    HW1 1530   0.584  -0.044   0.195 -1.8309  1.0424  0.5840
  383SOL    HW2 1531   0.511  -0.027   0.326 -0.9084 -0.2931  2.3199
  383SOL     MW 1532   0.550   0.008   0.257 -0.1830  0.7087  0.3243
  384SOL     OW 1533   0.696   2.913   0.626  0.1434  0.1529 -0.0637
  384SOL    HW1 1534   0.781   2.881   0.661  0.4163 -0.4570  0.3042
  384SOL    HW2 1535   0.642   2.836   0.618  0.0063 -0.2714 -1.1275
  384SOL     MW 1536   0.700   2.899   0.630  0.1613  0.0165 -0.1555
  385SOL     OW 1537   1.387   2.084   1.514  0.4351  0.1408 -0.3804
  385SOL    HW1 1538   1.472   2.078   1.561  1.6601  1.5045 -3.1921
  385SOL    HW2 1539   1.336   2.025   1.567 -1.5961  3.1927 -3.2472
  385SOL     MW 1540   1.391   2.076   1.528  0.3288  0.7234 -1.1296
  386SOL     OW 1541   1.288   0.385   0.882 -0.5648  0.0147 -0.5326
  386SOL    HW1 1542   1.250   0.396   0.973 -0.5899 -0.5360  1.4328
  386SOL    HW2 1543   1.346   0.312   0.892 -0.5694  1.1329  3.0814
  386SOL     MW 1544   1.291   0.377   0.896 -0.5688  0.0896  0.2036
  387SOL     OW 1545   0.850   2.218   1.533  0.1721  0.1725 -0.0561
  387SOL    HW1 1546   0.908   2.268   1.468 -0.4642  0.4686  0.3641
  387SOL    HW2 1547   0.835   2.136   1.484  0.9559  2.0840 -2.2298
  387SOL     MW 1548   0.856   2.214   1.518  0.1915  0.4638 -0.2875
  388SOL     OW 1549   1.531   2.761   1.192 -0.1269 -0.1584  0.3838
  388SOL    HW1 1550   1.434   2.774   1.204  1.5037  0.3298  2.7915
  388SOL    HW2 1551   1.540   2.683   1.144  2.0307  0.2770  2.6898
  388SOL     MW 1552   1.519   2.753   1.187  0.3729 -0.0365  1.0058
  389SOL     OW 1553   0.433   0.136   3.008 -0.0726  0.1267  0.1062
  389SOL    HW1 1554   0.519   0.099   2.996 -1.5534  0.0731 -0.1165
  389SOL    HW2 1555   0.440   0.201   2.930  0.9509 -0.8473  0.9526
  389SOL     MW 1556   0.445   0.140   2.996 -0.1330 -0.0089  0.1885
  390SOL     OW 1557   1.311   0.083   0.721  0.5985 -0.2263  0.6940
  390SOL    HW1 1558   1.378   0.080   0.649  0.8103  1.7472  2.0817
  390SOL    HW2 1559   1.358   0.108   0.801  0.0348  0.4039 -2.1203
  390SOL     MW 1560   1.326   0.086   0.722  0.5521  0.1172  0.5058
  391SOL     OW 1561   0.333   2.234   1.418 -0.0210  0.0302 -0.0697
  391SOL    HW1 1562   0.311   2.138   1.430  3.4403  1.0293  1.4286
  391SOL    HW2 1563   0.287   2.290   1.476 -2.2582 -0.9002  0.1525
  391SOL     MW 1564   0.324   2.229   1.428  0.1405  0.0392  0.1573
  392SOL     OW 1565   2.015   2.200   0.317  0.0876 -0.4523  0.7139
  392SOL    HW1 1566   2.108   2.188   0.318  0.2286 -0.4943 -4.4401
  392SOL    HW2 1567   1.989   2.239   0.400  1.7640 -0.0346 -1.4024
  392SOL     MW 1568   2.024   2.204   0.328  0.3274 -0.4027 -0.2454
  393SOL     OW 1569   0.271   2.960   2.794  0.7612 -0.5173 -0.2418
  393SOL    HW1 1570   0.351   2.945   2.735 -2.1079 -0.0294 -0.8373
  393SOL    HW2 1571   0.235   3.046   2.775  1.0544 -2.1725 -0.5282
  393SOL     MW 1572   0.277   2.969   2.784  0.4213 -0.6713 -0.3582
  394SOL     OW 1573   0.887   1.745   1.539  0.2796  0.2254 -0.0082
  394SOL    HW1 1574   0.838   1.752   1.625  0.0550 -1.7562  1.6105
  394SOL    HW2 1575   0.889   1.838   1.498  2.0896 -0.1362  1.4363
  394SOL     MW 1576   0.881   1.758   1.545  0.4888 -0.0838  0.3960
  395SOL     OW 1577   0.950   2.889   2.667 -0.1346  0.7438  0.0402
  395SOL    HW1 1578   1.010   2.951   2.708 -1.1878  0.9414 -0.7782
  395SOL    HW2 1579   1.002   2.832   2.609  0.4046  1.1256  0.5282
  395SOL     MW 1580   0.965   2.890   2.664 -0.2024  0.8203 -0.0034
  396SOL     OW 1581   0.709   1.842   2.382 -0.2356 -0.4168  0.0443
  396SOL    HW1 1582   0.766   1.876   2.455  0.9377  2.1990  1.0720
  396SOL    HW2 1583   0.717   1.751   2.374  1.5315  2.2133 -0.6197
  396SOL     MW 1584   0.717   1.835   2.391  0.1523  0.2754  0.0923
  397SOL     OW 1585   1.019   2.343   1.377  0.5150  0.3811  0.4631
  397SOL    HW1 1586   1.023   2.389   1.293 -2.4338  2.2196  0.0825
  397SOL    HW2 1587   1.108   2.338   1.411 -3.0616  1.5322  2.1385
  397SOL     MW 1588   1.031   2.349   1.370 -0.3460  0.7755  0.6339
  398SOL     OW 1589   0.560   2.665   0.676  0.6924  0.1136 -0.2149
  398SOL    HW1 1590   0.505   2.651   0.595 -0.3126 -0.5989 -2.2491
  398SOL    HW2 1591   0.640   2.609   0.665 -2.0571  1.5418 -0.9631
  398SOL     MW 1592   0.563   2.656   0.664  0.1970  0.2081 -0.5820
  399SOL     OW 1593   0.222   2.088   0.281  0.0066 -0.0896 -0.0587
  399SOL    HW1 1594   0.151   2.143   0.318 -0.8982  1.9140 -0.9514
  399SOL    HW2 1595   0.236   2.119   0.192  0.3929 -3.2404  1.9060
  399SOL     MW 1596   0.215   2.099   0.274 -0.0618 -0.2409  0.0827
  400SOL     OW 1597   0.520   1.928   0.092  0.4372 -0.0419  0.1244
  400SOL    HW1 1598   0.474   2.014   0.087 -1.4493  1.1125  1.4889
  400SOL    HW2 1599   0.492   1.885   0.175 -1.9064 -2.8591 -2.5967
  400SOL     MW 1600   0.510   1.933   0.102 -0.1209 -0.2613 -0.0546
  401SOL     OW 1601   0.778   2.046   0.056  0.2342 -0.2265 -0.0655
  401SOL    HW1 1602   0.851   1.979   0.054 -0.5908  1.0061  0.0156
  401SOL    HW2 1603   0.702   1.985   0.065 -0.2871 -0.3010  0.2662
  401SOL     MW 1604   0.777   2.029   0.057  0.0565 -0.0737 -0.0110
  402SOL     OW 1605   0.612   2.957   1.736  0.1218 -0.5955 -0.2297
  402SOL    HW1 1606   0.691   2.939   1.780 -0.3026 -1.3462  0.0852
  402SOL    HW2 1607   0.612   3.052   1.722  1.7928  0.7007  2.0393
  402SOL     MW 1608   0.622   2.967   1.740  0.2863 -0.5235  0.1112
  403SOL     OW 1609   0.094   0.411   0.397 -0.2739 -0.2926  0.1170
  403SOL    HW1 1610   0.161   0.445   0.460  0.3318 -1.7152  0.0124
  403SOL    HW2 1611   0.133   0.422   0.312 -1.3247  2.7874  1.2277
  403SOL     MW 1612   0.108   0.417   0.394 -0.3326 -0.0739  0.2497
  404SOL     OW 1613   0.956   2.908   0.753 -0.4033 -0.4827 -0.0212
  404SOL    HW1 1614   1.028   2.847   0.739  0.3777 -0.5349 -1.6906
  404SOL    HW2 1615   0.990   2.999   0.740 -0.6153  0.6596 -0.1782
  404SOL     MW 1616   0.970   2.912   0.750 -0.3282 -0.3389 -0.2622
  405SOL     OW 1617   0.548   2.432   1.542  0.3973 -0.1160  0.1503
  405SOL    HW1 1618   0.516   2.488   1.472 -0.4824 -0.2255  0.1649
  405SOL    HW2 1619   0.500   2.350   1.523  0.8821 -0.1631  0.5289
  405SOL     MW 1620   0.537   2.429   1.530  0.3452 -0.1367  0.2022
  406SOL     OW 1621   0.359   2.407   1.059 -0.1561  0.2232 -0.1186
  406SOL    HW1 1622   0.270   2.406   1.097 -0.7420 -0.7820  1.7950
  406SOL    HW2 1623   0.387   2.314   1.065  0.7287  0.5888 -0.7774
  406SOL     MW 1624   0.351   2.395   1.065 -0.1167  0.1388  0.0470
  407SOL     OW 1625   0.021   2.684   1.149 -0.0282  0.6314 -0.2866
  407SOL    HW1 1626   0.082   2.671   1.230  3.3228  3.8047  0.2800
  407SOL    HW2 1627   0.083   2.701   1.072 -0.8969  2.3893  0.0198
  407SOL     MW 1628   0.037   2.685   1.150  0.2993  1.2820 -0.1714
  408SOL     OW 1629   2.161   2.166   0.625 -0.2404 -0.2629 -0.2595
  408SOL    HW1 1630   2.106   2.205   0.695 -3.6193 -2.4337 -2.4514
  408SOL    HW2 1631   2.105   2.123   0.565  1.0885 -0.5100 -0.6568
  408SOL     MW 1632   2.146   2.165   0.626 -0.5109 -0.5819 -0.6011
  409SOL     OW 1633   1.438   0.141   0.937  0.6222 -0.3670  0.2422
  409SOL    HW1 1634   1.531   0.157   0.957 -0.8865  2.0960 -2.2031
  409SOL    HW2 1635   1.415   0.063   0.989  0.0581 -1.3804 -0.7661
  409SOL     MW 1636   1.447   0.133   0.946  0.3487 -0.1758 -0.2135
  410SOL     OW 1637   1.095   2.439   1.121 -0.2930 -0.0167  0.7695
  410SOL    HW1 1638   1.027   2.452   1.054 -2.0865 -0.7583 -1.4961
  410SOL    HW2 1639   1.148   2.365   1.080  0.1471 -0.7950  1.3649
  410SOL     MW 1640   1.093   2.431   1.107 -0.4716 -0.2172  0.5491
  411SOL     OW 1641   1.956   0.064   2.863 -0.1996  0.2681 -0.0090
  411SOL    HW1 1642   1.907   0.013   2.802  1.1335 -0.6156  0.9030
  411SOL    HW2 1643   1.880   0.091   2.918 -1.4075 -2.1251  0.4338
  411SOL     MW 1644   1.939   0.061   2.863 -0.1831 -0.1642  0.1698
  412SOL     OW 1645   1.060   2.272   0.568 -0.1616 -0.0399 -0.4418
  412SOL    HW1 1646   1.088   2.348   0.625  1.5798 -1.7803  1.7823
  412SOL    HW2 1647   0.975   2.291   0.545  4.3405  2.9410  0.1567
  412SOL     MW 1648   1.052   2.284   0.572  0.6622  0.1237 -0.0694
  413SOL     OW 1649   0.562   2.717   3.068 -0.9942  0.0129 -0.0353
  413SOL    HW1 1650   0.625   2.656   3.114  3.0147 -1.8837  0.9278
  413SOL    HW2 1651   0.606   2.757   2.997 -1.0553  0.8329 -2.1999
  413SOL     MW 1652   0.576   2.714   3.065 -0.4733 -0.1292 -0.1938
  414SOL     OW 1653   1.916   2.970   1.106  0.8613 -0.2002  0.5197
  414SOL    HW1 1654   1.845   3.026   1.131  0.9868  1.3382 -0.0909
  414SOL    HW2 1655   1.951   3.002   1.024  0.9938 -2.0451 -1.5937
  414SOL     MW 1656   1.911   2.981   1.098  0.8953 -0.2406  0.1603
  415SOL     OW 1657   1.851   2.719   1.067 -0.0581  0.1960 -0.1751
  415SOL    HW1 1658   1.804   2.707   1.151 -1.9424 -0.8790 -1.6372
  415SOL    HW2 1659   1.870   2.813   1.076  2.1243  0.0508  1.4291
  415SOL     MW 1660   1.847   2.730   1.079 -0.0188  0.0350 -0.1564
  416SOL     OW 1661   0.563   1.980   1.349  0.6047 -0.4895 -0.3983
  416SOL    HW1 1662   0.505   2.046   1.317  2.5925 -0.2027  0.5754
  416SOL    HW2 1663   0.560   1.900   1.289 -0.1177 -2.6727 -2.8948
  416SOL     MW 1664   0.555   1.978   1.337  0.7716 -0.7397 -0.5992
  417SOL     OW 1665   0.982   3.013   2.049  0.2708 -0.5573 -0.1445
  417SOL    HW1 1666   0.922   3.026   2.123 -3.2710 -0.3956  1.5180
  417SOL    HW2 1667   0.935   2.978   1.967 -1.8700 -0.4359  0.9887
  417SOL     MW 1668   0.968   3.010   2.048 -0.4790 -0.5200  0.2244
  418SOL     OW 1669   0.664   2.935   0.103 -0.5868  0.0972  0.4040
  418SOL    HW1 1670   0.752   2.924   0.061  0.1017 -0.3578  1.1027
  418SOL    HW2 1671   0.607   2.867   0.054  1.8284 -1.9576 -2.3668
  418SOL     MW 1672   0.668   2.924   0.091 -0.1773 -0.2339  0.1306
  419SOL     OW 1673   0.498   2.618   1.350  0.4110  0.6150 -0.2960
  419SOL    HW1 1674   0.538   2.696   1.386 -3.8448  0.8821 -0.8242
  419SOL    HW2 1675   0.552   2.586   1.277 -2.0713 -0.9033 -0.9219
  419SOL     MW 1676   0.510   2.624   1.345 -0.4780  0.4499 -0.4483
  420SOL     OW 1677   0.863   2.240   1.018 -0.1670 -0.7897  0.3435
  420SOL    HW1 1678   0.795   2.261   1.080  2.3419 -1.7070  2.3612
  420SOL    HW2 1679   0.901   2.327   0.992 -0.2883 -0.9409  2.8793
  420SOL     MW 1680   0.859   2.254   1.023  0.1481 -0.9307  0.9443
  421SOL     OW 1681   2.950   0.194   3.050  0.6138  0.6677  0.2826
  421SOL    HW1 1682   2.874   0.182   3.000 -0.0424  2.9199  4.1399
  421SOL    HW2 1683   2.991   0.110   3.051  0.3873  2.3941  0.7161
  421SOL     MW 1684   2.945   0.181   3.043  0.4973  1.1926  0.8488
  422SOL     OW 1685   0.897   2.529   0.941 -0.1984  0.1913 -0.1380
  422SOL    HW1 1686   0.889   2.623   0.959  0.3699  1.5687  1.2348
  422SOL    HW2 1687   0.874   2.525   0.845 -0.5937  1.1681 -0.0753
  422SOL     MW 1688   0.893   2.541   0.931 -0.1756  0.5019  0.0514
  423SOL     OW 1689   1.450   0.090   0.463 -0.3272  0.2740 -0.1696
  423SOL    HW1 1690   1.421   0.073   0.376 -1.4314  1.9810 -0.7542
  423SOL    HW2 1691   1.491   0.172   0.462  0.0618  1.6522 -0.5091
  423SOL     MW 1692   1.452   0.099   0.451 -0.4215  0.6810 -0.2915
  424SOL     OW 1693   0.680   2.308   1.223  0.0992  0.5134  0.3594
  424SOL    HW1 1694   0.596   2.270   1.182  0.0279 -1.1925  0.1083
  424SOL    HW2 1695   0.661   2.339   1.313  0.2013 -0.7684  1.2783
  424SOL     MW 1696   0.666   2.307   1.229  0.1033  0.1192  0.4475
  425SOL     OW 1697   1.714   2.802   2.033  0.1537 -0.1359 -0.2349
  425SOL    HW1 1698   1.747   2.806   1.939  2.9706 -3.6825 -0.3766
  425SOL    HW2 1699   1.739   2.711   2.041 -0.5437  1.3887 -0.4905
  425SOL     MW 1700   1.721   2.790   2.022  0.4333 -0.4027 -0.2873
  426SOL     OW 1701   0.825   1.682   1.966 -0.0501 -0.2638 -0.3384
  426SOL    HW1 1702   0.760   1.710   1.898  0.1332 -1.4591 -0.7274
  426SOL    HW2 1703   0.839   1.758   2.024 -3.8982 -2.3834  1.6646
  426SOL     MW 1704   0.819   1.696   1.965 -0.5336 -0.7012 -0.1254
  427SOL     OW 1705   0.395   1.668   1.882  0.1938  0.3814 -0.0523
  427SOL    HW1 1706   0.449   1.601   1.844 -0.0843 -0.6610 -2.8904
  427SOL    HW2 1707   0.327   1.615   1.922  1.0749  1.1333  1.2448
  427SOL     MW 1708   0.393   1.652   1.882  0.2734  0.3431 -0.2556
  428SOL     OW 1709   0.589   2.567   1.058 -0.9395 -0.4235 -0.8379
  428SOL    HW1 1710   0.670   2.538   1.018 -1.1233 -3.1965 -3.7991
  428SOL    HW2 1711   0.528   2.490   1.040 -0.7932 -2.1606  1.7957
  428SOL     MW 1712   0.592   2.553   1.051 -0.9444 -1.0186 -0.8812
  429SOL     OW 1713   1.251   2.790   1.142 -0.1608  0.4681 -0.0284
  429SOL    HW1 1714   1.163   2.756   1.158  1.2669  1.0536 -2.1477
  429SOL    HW2 1715   1.236   2.861   1.082  0.1720 -1.2420 -1.2000
  429SOL     MW 1716   1.238   2.795   1.136  0.0715  0.3197 -0.4626
  430SOL     OW 1717   1.154   2.721   0.713  0.3275 -0.1796  0.2768
  430SOL    HW1 1718   1.195   2.639   0.734  0.4669 -2.5767 -1.8482
  430SOL    HW2 1719   1.103   2.718   0.629 -0.0184  0.3835  2.0669
  430SOL     MW 1720   1.153   2.709   0.705  0.3002 -0.4216  0.2326
  431SOL     OW 1721   0.361   1.948   1.031 -0.1474  0.1111 -0.3401
  431SOL    HW1 1722   0.395   1.856   1.015 -0.9856 -0.1977  0.0688
  431SOL    HW2 1723   0.293   1.956   0.960  0.4714  1.2928 -0.1420
  431SOL     MW 1724   0.357   1.937   1.019 -0.1763  0.2262 -0.2600
  432SOL     OW 1725   0.085   0.034   1.214  0.0710 -0.0236 -0.4967
  432SOL    HW1 1726   0.088   0.112   1.274  1.1255  0.6618 -4.5465
  432SOL    HW2 1727   0.020  -0.026   1.249  3.0048  1.3538 -0.3714
  432SOL     MW 1728   0.077   0.037   1.227  0.5972  0.2486 -1.0145
  433SOL     OW 1729   0.598   2.802   1.510  0.2480 -0.2687  0.1259
  433SOL    HW1 1730   0.589   2.827   1.607 -3.0476  4.2347  0.6814
  433SOL    HW2 1731   0.688   2.823   1.494  1.1720  1.2388 -1.2558
  433SOL     MW 1732   0.609   2.808   1.520 -0.0649  0.5244  0.0169
  434SOL     OW 1733   1.607   2.808   1.522  0.4111 -0.0688  0.0332
  434SOL    HW1 1734   1.516   2.846   1.526 -1.0294 -1.2274  1.2166
  434SOL    HW2 1735   1.613   2.745   1.447  2.0183  0.2290  0.7670
  434SOL     MW 1736   1.596   2.805   1.512  0.4331 -0.1824  0.2862
  435SOL     OW 1737   2.849   1.787   0.187 -0.5517  0.2091 -0.3286
  435SOL    HW1 1738   2.919   1.849   0.165 -0.5734 -0.6457 -1.4592
  435SOL    HW2 1739   2.815   1.769   0.091  1.4292 -0.0296 -0.9373
  435SOL     MW 1740   2.854   1.793   0.172 -0.2932  0.0648 -0.5581
  436SOL     OW 1741   1.388   2.667   0.452  0.4688 -0.1462 -0.0127
  436SOL    HW1 1742   1.463   2.691   0.506  1.5514 -1.3343 -0.3511
  436SOL    HW2 1743   1.343   2.746   0.467 -1.1530  1.0165 -0.5561
  436SOL     MW 1744   1.392   2.681   0.461  0.3977 -0.1495 -0.1291
  437SOL     OW 1745   0.874   2.987   1.353  0.0499  0.3224  0.1387
  437SOL    HW1 1746   0.938   3.060   1.339  0.2454  0.3132 -1.0324
  437SOL    HW2 1747   0.889   2.918   1.288  0.1393 -3.2424  1.4974
  437SOL     MW 1748   0.885   2.988   1.343  0.0875 -0.1492  0.1634
  438SOL     OW 1749   0.811   2.603   1.867  0.0567 -0.2221 -0.5760
  438SOL    HW1 1750   0.832   2.575   1.956 -3.0698  1.1881  2.2059
  438SOL    HW2 1751   0.761   2.525   1.839  0.7724  1.4375  1.5255
  438SOL     MW 1752   0.807   2.589   1.875 -0.2614  0.1830  0.0683
  439SOL     OW 1753   1.244   2.151   0.406 -0.3060 -0.2546 -0.0365
  439SOL    HW1 1754   1.198   2.190   0.481  1.7420  1.5372 -1.2142
  439SOL    HW2 1755   1.198   2.184   0.328  0.5012 -1.2387 -0.8442
  439SOL     MW 1756   1.232   2.161   0.406  0.0707 -0.1481 -0.2985
  440SOL     OW 1757   1.760   3.023   3.062 -0.1842 -0.5202  0.0502
  440SOL    HW1 1758   1.698   3.001   3.135 -2.2198  0.3889  0.7041
  440SOL    HW2 1759   1.840   2.978   3.083 -0.5896  1.6219 -1.9108
  440SOL     MW 1760   1.762   3.014   3.075 -0.5063 -0.1176 -0.1223
  441SOL     OW 1761   0.328   2.651   0.464  0.5973  0.2924 -0.2311
  441SOL    HW1 1762   0.309   2.605   0.375 -1.2802 -1.0886 -2.8385
  441SOL    HW2 1763   0.359   2.742   0.451  0.5113 -1.1069  3.9975
  441SOL     MW 1764   0.330   2.657   0.450  0.3382 -0.0745 -0.0172
  442SOL     OW 1765   0.008   2.404   0.622 -0.1848 -0.6194  0.5783
  442SOL    HW1 1766   0.037   2.490   0.599  1.7923  1.5747 -0.1216
  442SOL    HW2 1767  -0.081   2.410   0.660  0.8213  2.1414  0.9462
  442SOL     MW 1768  -0.000   2.416   0.624  0.2088  0.0343  0.5345
  443SOL     OW 1769   1.428   1.785   1.930  0.4766 -0.2373  0.8494
  443SOL    HW1 1770   1.400   1.829   1.850  0.5702  0.8097  1.2107
  443SOL    HW2 1771   1.352   1.737   1.963  1.5647  0.0121 -1.7466
  443SOL     MW 1772   1.414   1.784   1.924  0.6325 -0.0663  0.5546
  444SOL     OW 1773   0.849   2.570   1.538 -0.2410  0.2572  0.7864
  444SOL    HW1 1774   0.910   2.536   1.610  0.6670  1.8572  0.6310
  444SOL    HW2 1775   0.768   2.577   1.585  1.2186 -1.0496  2.4681
  444SOL     MW 1776   0.846   2.566   1.554  0.0714  0.2959  0.9878
  445SOL     OW 1777   1.067   0.072   1.331  0.7811  0.2048 -0.1618
  445SOL    HW1 1778   0.992   0.132   1.327 -0.1807 -0.7684  1.7679
  445SOL    HW2 1779   1.122   0.114   1.261  2.6316 -2.4555 -3.0593
  445SOL     MW 1780   1.065   0.085   1.321  0.8984 -0.2746 -0.2895
  446SOL     OW 1781   2.741   2.911   1.113  0.0550 -0.1049 -0.2256
  446SOL    HW1 1782   2.699   2.961   1.040  1.1948 -0.2716  0.0312
  446SOL    HW2 1783   2.780   2.831   1.073  1.2974 -2.2330 -0.8057
  446SOL     MW 1784   2.741   2.907   1.098  0.3693 -0.4077 -0.2683
  447SOL     OW 1785   0.058   2.007   1.636  0.2582 -0.2960  0.1986
  447SOL    HW1 1786   0.089   1.920   1.661 -0.3291 -0.3387  0.2830
  447SOL    HW2 1787  -0.031   1.974   1.600  0.3002 -0.9387 -4.8146
  447SOL     MW 1788   0.050   1.991   1.635  0.1862 -0.3865 -0.4517
  448SOL     OW 1789   1.747   2.423   1.633 -0.5836 -0.0346  0.1628
  448SOL    HW1 1790   1.689   2.342   1.632 -0.1328 -1.0634  1.0640
  448SOL    HW2 1791   1.678   2.493   1.650  0.2741 -0.3847 -0.4550
  448SOL     MW 1792   1.730   2.422   1.635 -0.4109 -0.2165  0.2002
  449SOL     OW 1793   0.829   2.890   0.347  0.1490  0.0382 -0.0423
  449SOL    HW1 1794   0.761   2.869   0.284  0.9554  2.4870 -0.5435
  449SOL    HW2 1795   0.764   2.924   0.415  0.1635  1.4796  1.9219
  449SOL     MW 1796   0.811   2.892   0.348  0.2573  0.5514  0.1507
  450SOL     OW 1797   1.193   2.449   0.716 -0.5242  0.1758 -0.5209
  450SOL    HW1 1798   1.216   2.393   0.795  1.2960 -4.3772  0.5309
  450SOL    HW2 1799   1.275   2.448   0.671  0.9812  0.3482  0.2343
  450SOL     MW 1800   1.207   2.442   0.720 -0.0854 -0.4022 -0.2825
  451SOL     OW 1801   0.545   2.067   1.618 -0.2186 -0.2491  0.3813
  451SOL    HW1 1802   0.640   2.073   1.621  1.3009 -0.9829 -1.0718
  451SOL    HW2 1803   0.537   2.008   1.538 -0.0824 -1.8585 -0.2098
  451SOL     MW 1804   0.556   2.060   1.608 -0.0002 -0.5583  0.1116
  452SOL     OW 1805   0.282   2.690   0.027  0.1960 -0.1149  0.5162
  452SOL    HW1 1806   0.374   2.697   0.002 -1.2382 -3.8941 -1.9945
  452SOL    HW2 1807   0.223   2.733  -0.040  1.9246 -0.6366  0.7586
  452SOL     MW 1808   0.286   2.697   0.015  0.2349 -0.6823  0.2169
  453SOL     OW 1809   0.340   2.989   1.638  0.0172 -0.1255 -0.6640
  453SOL    HW1 1810   0.413   2.974   1.699 -1.0584 -1.9950  3.7499
  453SOL    HW2 1811   0.381   3.008   1.550  0.6702 -0.1019  0.7622
  453SOL     MW 1812   0.355   2.989   1.634 -0.0386 -0.3690  0.1065
  454SOL     OW 1813   0.981   2.778   1.214 -0.1925 -0.3564  0.2043
  454SOL    HW1 1814   0.970   2.684   1.245 -1.8456 -0.2932 -1.4826
  454SOL    HW2 1815   0.915   2.774   1.145 -1.2958 -1.5829  1.5136
  454SOL     MW 1816   0.971   2.765   1.209 -0.5561 -0.5099  0.1545
  455SOL     OW 1817   1.608   2.923   0.153 -0.2531 -0.8858  0.3400
  455SOL    HW1 1818   1.658   2.931   0.239  1.5174 -1.4352  0.2527
  455SOL    HW2 1819   1.588   2.826   0.162 -1.7264 -1.2225 -1.4474
  455SOL     MW 1820   1.612   2.911   0.166 -0.2139 -1.0027  0.0926
  456SOL     OW 1821   2.744   0.350   1.479 -0.3342  0.5987  0.2936
  456SOL    HW1 1822   2.701   0.274   1.438 -2.3619 -2.2053 -1.7240
  456SOL    HW2 1823   2.837   0.344   1.440  0.8647 -1.6179  1.1770
  456SOL     MW 1824   2.751   0.339   1.469 -0.4435 -0.0637  0.1440
  457SOL     OW 1825   0.963   1.544   2.954 -0.4722  0.0323  0.7281
  457SOL    HW1 1826   0.880   1.561   3.006 -3.2980  2.8594  1.9741
  457SOL    HW2 1827   1.003   1.472   3.006 -3.9097 -0.9344  0.3584
  457SOL     MW 1828   0.957   1.536   2.968 -1.2986  0.2778  0.8437
  458SOL     OW 1829   1.410   1.472   0.571 -0.7364  0.0534  0.2133
  458SOL    HW1 1830   1.335   1.533   0.561 -3.5344 -0.8942 -0.3038
  458SOL    HW2 1831   1.411   1.422   0.488 -1.5876 -0.6829 -0.3652
  458SOL     MW 1832   1.400   1.474   0.559 -1.2179 -0.1688  0.0688
  459SOL     OW 1833   1.490   0.048   0.196 -0.1679 -1.1446  0.0682
  459SOL    HW1 1834   1.532  -0.040   0.177  3.1930 -0.2281  0.7260
  459SOL    HW2 1835   1.445   0.076   0.118 -0.5365  0.4707  1.5639
  459SOL     MW 1836   1.490   0.040   0.183  0.2269 -0.8105  0.3524
  460SOL     OW 1837   1.757   2.156   0.603  0.4960 -0.1768 -0.1775
  460SOL    HW1 1838   1.701   2.096   0.654  1.2097 -1.1001  0.4049
  460SOL    HW2 1839   1.834   2.098   0.592 -0.2745 -1.1365 -1.3997
  460SOL     MW 1840   1.759   2.141   0.609  0.4885 -0.4252 -0.2619
  461SOL     OW 1841   0.371   2.375   0.570  0.0596  0.1364 -0.2120
  461SOL    HW1 1842   0.320   2.452   0.544 -0.0107 -0.9529  2.0861
  461SOL    HW2 1843   0.361   2.379   0.662  2.7053 -1.0332  0.6459
  461SOL     MW 1844   0.363   2.386   0.579  0.3994 -0.1616  0.2044
  462SOL     OW 1845   0.385   0.274   1.281 -0.9107 -0.2922  0.2800
  462SOL    HW1 1846   0.425   0.248   1.193 -0.5746 -1.3198 -0.4982
  462SOL    HW2 1847   0.463   0.302   1.328 -0.4942 -0.7327 -1.1560
  462SOL     MW 1848   0.400   0.275   1.276 -0.8114 -0.4859 -0.0121
  463SOL     OW 1849   0.998   0.080   0.665 -0.1128  0.2754  0.6716
  463SOL    HW1 1850   1.026   0.090   0.571  3.4617 -1.8828  0.9599
  463SOL    HW2 1851   0.902   0.082   0.674  2.0724 -3.0819 -0.4991
  463SOL     MW 1852   0.989   0.082   0.654  0.6471 -0.4523  0.5552
  464SOL     OW 1853   0.811   3.062   2.294 -0.1208 -0.2230 -0.1932
  464SOL    HW1 1854   0.790   2.972   2.268  0.2222  1.4385 -0.9464
  464SOL    HW2 1855   0.834   3.061   2.390 -2.3549  0.1960 -1.9377
  464SOL     MW 1856   0.811   3.050   2.303 -0.3703  0.0515 -0.5228
  465SOL     OW 1857   0.737   0.294   0.495  0.5550  0.1193 -0.0361
  465SOL    HW1 1858   0.714   0.235   0.569  2.3985 -0.7723  0.6848
  465SOL    HW2 1859   0.717   0.231   0.423  0.2465  0.3922  1.6598
  465SOL     MW 1860   0.731   0.278   0.495  0.7575  0.0376  0.2828
  466SOL     OW 1861   1.041   2.002   0.706 -0.6703 -0.2077 -0.0086
  466SOL    HW1 1862   1.019   1.920   0.659  3.2836 -0.4786 -1.7920
  466SOL    HW2 1863   1.036   2.075   0.642  1.8686  0.2067 -1.5405
  466SOL     MW 1864   1.038   2.001   0.692  0.1864 -0.1888 -0.4460
  467SOL     OW 1865   1.220   2.265   0.929 -0.1397 -0.3929  0.1840
  467SOL    HW1 1866   1.314   2.293   0.937  0.5456  0.0625  0.3525
  467SOL    HW2 1867   1.227   2.171   0.906 -0.5106 -1.3758 -2.0008
  467SOL     MW 1868   1.233   2.256   0.927 -0.0982 -0.4625 -0.0820
  468SOL     OW 1869   0.372   2.619   2.030  0.2687  0.3587 -0.4165
  468SOL    HW1 1870   0.401   2.559   1.958  0.3161  1.9059  1.6207
  468SOL    HW2 1871   0.354   2.703   1.977 -1.3885  0.4984  2.2205
  468SOL     MW 1872   0.373   2.622   2.013  0.0563  0.5812  0.2002
  469SOL     OW 1873   0.364   2.182   1.810  0.1733 -0.6898  0.2731
  469SOL    HW1 1874   0.315   2.108   1.847 -1.2287 -0.3593  0.0032
  469SOL    HW2 1875   0.435   2.139   1.752  0.9034 -0.5305 -0.3515
  469SOL     MW 1876   0.367   2.166   1.807  0.0847 -0.6252  0.1551
  470SOL     OW 1877   3.024   2.606   0.105  0.2441  0.4427  0.1756
  470SOL    HW1 1878   2.934   2.583   0.112  2.0949  2.1058  1.3751
  470SOL    HW2 1879   3.039   2.621   0.008  0.7079 -0.4936 -0.1397
  470SOL     MW 1880   3.014   2.605   0.093  0.5495  0.5386  0.2923
  471SOL     OW 1881   1.186   2.700   1.459  0.1593 -0.7551 -0.2514
  471SOL    HW1 1882   1.148   2.632   1.516 -0.1884  1.7752 -1.6478
  471SOL    HW2 1883   1.123   2.721   1.392 -0.8094  0.4376  2.6300
  471SOL     MW 1884   1.173   2.694   1.458 -0.0144 -0.2639 -0.0555
  472SOL     OW 1885   2.859   2.087   0.337 -0.4372  0.0003 -0.1152
  472SOL    HW1 1886   2.878   2.070   0.242  2.7349  0.3528 -2.3439
  472SOL    HW2 1887   2.821   2.010   0.380  0.0247 -0.2776 -0.9573
  472SOL     MW 1888   2.856   2.075   0.330  0.0423  0.0102 -0.5203
  473SOL     OW 1889   0.836   2.530   1.271  0.4128 -0.4175 -0.2275
  473SOL    HW1 1890   0.784   2.461   1.223 -2.6759 -1.2710  1.0376
  473SOL    HW2 1891   0.843   2.498   1.361  1.5479  2.0589 -0.4108
  473SOL     MW 1892   0.830   2.517   1.277  0.1550 -0.2034 -0.0848
  474SOL     OW 1893   0.864   2.113   1.799  0.0574 -0.2202  0.0628
  474SOL    HW1 1894   0.940   2.144   1.843  0.0888  0.9307 -2.2765
  474SOL    HW2 1895   0.878   2.147   1.708  1.8933  0.2977  1.5704
  474SOL     MW 1896   0.876   2.121   1.793  0.3038 -0.0000 -0.0469
  475SOL     OW 1897   1.640   3.067   1.481 -0.1659 -0.6593 -0.4283
  475SOL    HW1 1898   1.561   3.084   1.418 -1.9174  0.3255 -0.3607
  475SOL    HW2 1899   1.640   2.970   1.492 -0.2107 -1.9361 -1.9317
  475SOL     MW 1900   1.629   3.057   1.474 -0.4029 -0.6978 -0.6177
  476SOL     OW 1901   1.427   2.607   0.992  0.5931 -0.1259  0.4881
  476SOL    HW1 1902   1.345   2.641   1.022 -1.0282  1.5982 -1.2120
  476SOL    HW2 1903   1.457   2.679   0.940 -1.7203 -2.7511 -0.6887
  476SOL     MW 1904   1.420   2.621   0.989  0.0740 -0.2448  0.1085
  477SOL     OW 1905   0.774   2.509   0.674  0.5189  0.3234  0.3991
  477SOL    HW1 1906   0.837   2.564   0.628  0.9481  1.2307 -0.0720
  477SOL    HW2 1907   0.759   2.435   0.614 -2.6679 -2.1189  2.9997
  477SOL     MW 1908   0.780   2.506   0.660  0.1551  0.1209  0.6801
  478SOL     OW 1909   0.170   2.720   0.924  0.0812 -0.4608  0.1209
  478SOL    HW1 1910   0.227   2.798   0.921  2.4821  1.9094 -1.4186
  478SOL    HW2 1911   0.221   2.644   0.894  2.5468  4.0807  1.2619
  478SOL     MW 1912   0.185   2.721   0.920  0.7233  0.4511  0.0683
  479SOL     OW 1913   1.448   1.988   1.259  0.3079 -0.0196 -0.2038
  479SOL    HW1 1914   1.424   2.013   1.352  1.2574  2.8149  1.3887
  479SOL    HW2 1915   1.486   1.903   1.265 -0.6833 -0.6134 -1.7181
  479SOL     MW 1916   1.450   1.980   1.272  0.3024  0.2760 -0.1935
  480SOL     OW 1917   1.878   2.407   1.280 -0.2799  0.5647 -0.5339
  480SOL    HW1 1918   1.889   2.316   1.307  0.2691 -1.3403 -3.4053
  480SOL    HW2 1919   1.923   2.416   1.199 -1.1153  1.7032 -0.4336
  480SOL     MW 1920   1.885   2.397   1.273 -0.3177  0.4635 -0.8995
  481SOL     OW 1921   1.002   0.037   0.972  0.1308 -0.6411 -0.8618
  481SOL    HW1 1922   1.079  -0.019   0.965  0.1164  0.2474  0.1084
  481SOL    HW2 1923   1.029   0.122   1.004 -0.0830  1.7393 -1.0372
  481SOL     MW 1924   1.016   0.041   0.975  0.1007 -0.2098 -0.7569
  482SOL     OW 1925   1.045   3.026   0.262  0.5387  0.5398  0.2137
  482SOL    HW1 1926   0.973   2.979   0.302  1.7254 -1.2026 -0.4552
  482SOL    HW2 1927   1.035   3.116   0.290  0.3315  0.5829 -3.3737
  482SOL     MW 1928   1.035   3.031   0.271  0.6679  0.3156 -0.3479
  483SOL     OW 1929   0.420   2.904   0.462  0.2862  0.1414 -0.3842
  483SOL    HW1 1930   0.349   2.947   0.411 -0.1989 -1.2049  1.2547
  483SOL    HW2 1931   0.395   2.932   0.549 -0.4688  0.4432 -1.4692
  483SOL     MW 1932   0.407   2.913   0.467  0.1226  0.0036 -0.3111
  484SOL     OW 1933   1.710   1.877   1.394  0.7169  0.3991  0.3279
  484SOL    HW1 1934   1.748   1.965   1.383 -0.7415  0.2431 -0.2091
  484SOL    HW2 1935   1.697   1.861   1.487  2.5257 -2.7757  0.5428
  484SOL     MW 1936   1.713   1.886   1.405  0.7632 -0.0404  0.2854
  485SOL     OW 1937   0.544   2.355   0.231 -0.7755 -0.6667  0.2614
  485SOL    HW1 1938   0.531   2.317   0.312 -0.8537 -1.7743 -2.8825
  485SOL    HW2 1939   0.495   2.440   0.227  0.5786 -0.6382 -1.2340
  485SOL     MW 1940   0.536   2.361   0.241 -0.6071 -0.8090 -0.3507
  486SOL     OW 1941   0.157   2.392   1.531  0.0006 -0.3831  0.6412
  486SOL    HW1 1942   0.156   2.480   1.484 -0.4242 -1.9179 -0.2971
  486SOL    HW2 1943   0.151   2.414   1.627  0.6090 -2.1580  1.1161
  486SOL     MW 1944   0.156   2.407   1.537  0.0248 -0.8198  0.5800
  487SOL     OW 1945   1.292   1.654   1.034 -0.2789  0.0693 -0.3257
  487SOL    HW1 1946   1.272   1.746   1.038  0.9223  1.2642 -0.8249
  487SOL    HW2 1947   1.379   1.648   0.985  3.9865  3.4066 -1.6945
  487SOL     MW 1948   1.301   1.665   1.028  0.4424  0.6673 -0.5722
  488SOL     OW 1949   1.676   1.846   0.541  0.3025  0.0835  0.3587
  488SOL    HW1 1950   1.750   1.858   0.488  1.2561 -1.0211 -0.9396
  488SOL    HW2 1951   1.625   1.923   0.512  1.9717 -1.4908 -1.1506
  488SOL     MW 1952   1.679   1.858   0.530  0.6485 -0.2700 -0.0117
  489SOL     OW 1953   0.653   0.783   0.604  0.5211  0.1331 -0.4567
  489SOL    HW1 1954   0.687   0.697   0.606  0.9082 -0.4485  3.2445
  489SOL    HW2 1955   0.669   0.805   0.696  1.0760 -0.2561 -1.7333
  489SOL     MW 1956   0.659   0.775   0.617  0.6454  0.0050 -0.1368
  490SOL     OW 1957   1.497   2.042   0.424  0.4521  0.3015  0.4950
  490SOL    HW1 1958   1.541   2.124   0.412 -2.0869  1.9481  1.2548
  490SOL    HW2 1959   1.401   2.072   0.415  0.2909 -0.9949 -0.7727
  490SOL     MW 1960   1.491   2.057   0.422  0.0959  0.3477  0.4280
  491SOL     OW 1961   1.241   2.938   0.452  0.7935 -0.3723 -0.6282
  491SOL    HW1 1962   1.278   3.027   0.456 -1.0960  0.9682  0.1111
  491SOL    HW2 1963   1.174   2.950   0.386  1.8374  2.1368 -1.9713
  491SOL     MW 1964   1.237   2.952   0.444  0.6819  0.1356 -0.7078
  492SOL     OW 1965   1.514   2.092   0.742  0.2709  0.0578 -0.2786
  492SOL    HW1 1966   1.476   2.114   0.660  1.4153  0.8839 -0.7733
  492SOL    HW2 1967   1.439   2.067   0.803 -1.6249 -1.1980  0.3603
  492SOL     MW 1968   1.499   2.092   0.739  0.1718  0.0011 -0.2596
  493SOL     OW 1969   0.214   2.984   0.307 -0.2728  0.0371 -0.6396
  493SOL    HW1 1970   0.154   3.035   0.362  2.7516  0.9057  0.1105
  493SOL    HW2 1971   0.226   3.029   0.221 -0.1717  2.3137  0.6161
  493SOL     MW 1972   0.208   2.996   0.303  0.1396  0.4521 -0.3750
  494SOL     OW 1973   0.424   2.454   1.793 -0.4688 -0.0650  0.0335
  494SOL    HW1 1974   0.404   2.363   1.820  0.8024  0.5058  1.1614
  494SOL    HW2 1975   0.484   2.435   1.720  3.4522 -0.7637 -1.3474
  494SOL     MW 1976   0.429   2.440   1.787  0.2162 -0.0819  0.0001
  495SOL     OW 1977   2.910   1.679   2.598  0.5653  0.3726  0.5697
  495SOL    HW1 1978   2.905   1.771   2.571  1.3114 -1.4306 -0.1628
  495SOL    HW2 1979   2.901   1.683   2.692  2.6313 -1.3509 -2.8430
  495SOL     MW 1980   2.908   1.692   2.607  0.9364 -0.0927  0.0228
  496SOL     OW 1981   2.917   2.292   2.675  0.1367 -0.0889 -0.3466
  496SOL    HW1 1982   2.974   2.218   2.707  0.3050 -2.3825  0.5347
  496SOL    HW2 1983   2.989   2.354   2.667 -0.9040 -1.0144  1.7860
  496SOL     MW 1984   2.934   2.291   2.678  0.0216 -0.5136  0.0511
  497SOL     OW 1985   1.558   2.264   2.635 -0.6608  0.5724  0.0213
  497SOL    HW1 1986   1.507   2.214   2.573  1.6422 -1.9723 -0.0693
  497SOL    HW2 1987   1.551   2.207   2.714 -1.1755 -1.7387 -0.6564
  497SOL     MW 1988   1.550   2.250   2.637 -0.4249 -0.0683 -0.0800
  498SOL     OW 1989   1.551   2.736   2.388  0.1092  0.1346 -0.0655
  498SOL    HW1 1990   1.549   2.651   2.345 -3.0123  1.6885  0.9194
  498SOL    HW2 1991   1.633   2.725   2.437  3.3898 -0.2298 -1.1331
  498SOL     MW 1992   1.561   2.724   2.389  0.1302  0.2915 -0.0764
  499SOL     OW 1993   0.942   0.089   0.019 -0.3934 -0.1722  0.1332
  499SOL    HW1 1994   0.888   0.142   0.081  1.2119  1.0369  0.1565
  499SOL    HW2 1995   0.949   0.005   0.058 -1.1169  4.3594  2.2590
  499SOL     MW 1996   0.936   0.085   0.032 -0.2771  0.5852  0.4167
  500SOL     OW 1997   1.147   2.553   2.781 -0.1280  0.1823  0.8904
  500SOL    HW1 1998   1.176   2.498   2.856  0.8173 -0.7922  0.7849
  500SOL    HW2 1999   1.062   2.597   2.805 -2.0017 -1.0407  1.5156
  500SOL     MW 2000   1.139   2.552   2.794 -0.2505 -0.1076  0.9590
  501SOL     OW 2001   1.761   2.224   3.077 -0.1581  0.3087  0.6618
  501SOL    HW1 2002   1.755   2.315   3.124 -0.5850 -1.3576  2.5871
  501SOL    HW2 2003   1.855   2.226   3.059  1.2056 -1.1359 -1.0033
  501SOL     MW 2004   1.772   2.236   3.081 -0.0345 -0.1018  0.6961
  502SOL     OW 2005   0.089   2.806   2.965 -0.0131  0.2615 -0.1551
  502SOL    HW1 2006   0.036   2.739   2.932  1.6808 -0.5464 -2.7163
  502SOL    HW2 2007   0.132   2.847   2.891  0.0351 -1.2096  2.5075
  502SOL     MW 2008   0.087   2.802   2.951  0.2168 -0.0392 -0.1418
  503SOL     OW 2009   1.116   2.688   2.094  0.2399  0.2078  0.5519
  503SOL    HW1 2010   1.154   2.710   2.009  0.2706  1.1404 -1.5968
  503SOL    HW2 2011   1.064   2.767   2.119  2.0135  1.8202  0.1094
  503SOL     MW 2012   1.114   2.701   2.086  0.4780  0.5435  0.2100
  504SOL     OW 2013   3.095   2.705   2.089  0.1840  0.0158  0.3820
  504SOL    HW1 2014   3.154   2.636   2.060  0.0191 -1.1580  0.8263
  504SOL    HW2 2015   3.024   2.648   2.107 -0.2239  1.4081  0.8467
  504SOL     MW 2016   3.093   2.688   2.088  0.1084  0.0447  0.5019
  505SOL     OW 2017   1.724   2.619   2.844  0.0515  0.3842 -0.6260
  505SOL    HW1 2018   1.761   2.642   2.759  0.8147 -1.7912 -2.2837
  505SOL    HW2 2019   1.652   2.685   2.853 -0.6682  1.6003 -1.4123
  505SOL     MW 2020   1.719   2.631   2.834  0.0572  0.2577 -0.9485
  506SOL     OW 2021   1.579   3.085   2.871  0.0829 -0.3533 -0.3600
  506SOL    HW1 2022   1.639   3.045   2.937  0.5097  1.5857  0.1203
  506SOL    HW2 2023   1.624   3.071   2.786 -0.5699  1.3181 -0.2478
  506SOL     MW 2024   1.593   3.078   2.868  0.0531  0.1230 -0.2818
  507SOL     OW 2025   0.889   2.662   2.837  0.2524  0.8774 -0.5841
  507SOL    HW1 2026   0.891   2.747   2.793 -0.5373  4.5579  1.2536
  507SOL    HW2 2027   0.804   2.618   2.811  0.4312 -3.5652 -0.1404
  507SOL     MW 2028   0.878   2.668   2.827  0.1718  0.7768 -0.2831
  508SOL     OW 2029   1.128   2.092   2.475 -0.2123 -0.3118 -0.1547
  508SOL    HW1 2030   1.188   2.072   2.542 -0.7747  0.4075  0.9688
  508SOL    HW2 2031   1.083   2.174   2.523  0.6302  2.5052 -0.9184
  508SOL     MW 2032   1.130   2.100   2.490 -0.1754  0.1548 -0.1072
  509SOL     OW 2033   0.640   2.606   2.734  0.3663  0.0356 -0.3631
  509SOL    HW1 2034   0.658   2.554   2.656  0.6444  1.6764 -0.3947
  509SOL    HW2 2035   0.546   2.585   2.760  0.1559  1.3795 -1.9484
  509SOL     MW 2036   0.630   2.596   2.727  0.3752  0.4294 -0.5764
  510SOL     OW 2037   1.490   2.600   1.655  0.1927 -0.2776  0.2393
  510SOL    HW1 2038   1.533   2.674   1.623  0.1775  1.5036  1.7279
  510SOL    HW2 2039   1.427   2.622   1.725 -0.0088 -4.7503  0.4792
  510SOL     MW 2040   1.487   2.613   1.660  0.1641 -0.6327  0.4674
  511SOL     OW 2041   0.429   2.626   2.453  0.6766 -0.1916  0.1292
  511SOL    HW1 2042   0.507   2.565   2.452 -2.6117  4.4139 -1.1624
  511SOL    HW2 2043   0.446   2.685   2.376  0.3419 -0.9086 -0.2755
  511SOL     MW 2044   0.441   2.625   2.443  0.1986  0.3214 -0.0946
  512SOL     OW 2045   0.983   2.012   2.792  0.4913 -0.5988  0.3571
  512SOL    HW1 2046   0.911   2.043   2.844  1.0372 -0.7983  0.9552
  512SOL    HW2 2047   1.020   1.929   2.820 -1.6746 -2.0476 -2.1418
  512SOL     MW 2048   0.978   2.005   2.802  0.2775 -0.8163  0.1063
  513SOL     OW 2049   1.574   2.472   2.292  0.2194  0.4179  0.1841
  513SOL    HW1 2050   1.656   2.480   2.240  3.3466 -3.9559  0.7334
  513SOL    HW2 2051   1.612   2.449   2.379 -1.8078 -2.8686  2.0328
  513SOL     MW 2052   1.590   2.470   2.297  0.3646 -0.5928  0.5005
  514SOL     OW 2053   0.277   2.485   2.632  0.6955 -0.1993  0.0365
  514SOL    HW1 2054   0.334   2.544   2.575 -0.2298 -0.2208  1.6304
  514SOL    HW2 2055   0.320   2.461   2.719 -0.6623 -0.7857  2.2338
  514SOL     MW 2056   0.290   2.490   2.636  0.3943 -0.2795  0.5367
  515SOL     OW 2057   1.150   2.017   2.020  0.3728 -0.2621 -0.2809
  515SOL    HW1 2058   1.111   2.096   1.971  1.0746  2.7894 -0.5259
  515SOL    HW2 2059   1.245   2.031   2.039  1.3706  0.2339  0.4485
  515SOL     MW 2060   1.157   2.029   2.016  0.5971  0.2059 -0.2170
  516SOL     OW 2061   1.466   2.533   0.010 -0.8404 -0.0844 -0.6792
  516SOL    HW1 2062   1.498   2.476  -0.060  1.9519  2.5349 -1.0118
  516SOL    HW2 2063   1.401   2.588  -0.039 -0.1130 -0.3493 -0.6770
  516SOL     MW 2064   1.462   2.533  -0.006 -0.3760  0.2262 -0.7228
  517SOL     OW 2065   0.571   2.436   2.105 -0.1785 -0.0826 -0.3810
  517SOL    HW1 2066   0.516   2.504   2.066 -0.6513 -1.5621 -1.0894
  517SOL    HW2 2067   0.512   2.358   2.110 -1.5169 -4.5766  1.6770
  517SOL     MW 2068   0.556   2.434   2.101 -0.4175 -0.8707 -0.2029
  518SOL     OW 2069   1.743   0.209   3.064  0.1444  0.3145 -0.2564
  518SOL    HW1 2070   1.723   0.201   3.162  1.0730 -1.8354  3.6147
  518SOL    HW2 2071   1.764   0.117   3.047  0.7413  0.6299 -2.3519
  518SOL     MW 2072   1.743   0.196   3.075  0.3457  0.0725 -0.0222
  519SOL     OW 2073   0.735   2.335   1.782  0.0321  0.0065 -0.1684
  519SOL    HW1 2074   0.788   2.264   1.824  0.1587 -3.0787 -0.8218
  519SOL    HW2 2075   0.748   2.326   1.688  2.2668 -2.1068  2.0313
  519SOL     MW 2076   0.744   2.324   1.775  0.3436 -0.6794  0.0356
  520SOL     OW 2077   1.243   2.113   2.972  0.9792 -0.2431 -0.0670
  520SOL    HW1 2078   1.160   2.073   2.961  2.1404  0.1856  1.1942
  520SOL    HW2 2079   1.272   2.071   3.049  2.1380  2.9613  0.9051
  520SOL     MW 2080   1.236   2.102   2.980  1.2853  0.2363  0.2276
  521SOL     OW 2081   1.752   2.034   2.178 -0.5945 -0.0597  0.2420
  521SOL    HW1 2082   1.797   2.088   2.106  1.2280 -2.2181  0.7622
  521SOL    HW2 2083   1.740   1.955   2.125  1.6245 -1.6978  1.1469
  521SOL     MW 2084   1.756   2.031   2.162 -0.0613 -0.5606  0.4300
  522SOL     OW 2085   2.884   2.541   2.233  0.3473 -0.0469  0.0146
  522SOL    HW1 2086   2.951   2.470   2.231 -0.0637 -0.9650 -1.9405
  522SOL    HW2 2087   2.928   2.604   2.290  3.9047  2.1824  0.5282
  522SOL     MW 2088   2.899   2.540   2.241  0.7625  0.1261 -0.1756
  523SOL     OW 2089   0.961   1.529   2.192 -0.3496 -0.1741  0.0332
  523SOL    HW1 2090   0.889   1.563   2.136 -2.3977 -2.7763  2.3861
  523SOL    HW2 2091   1.004   1.461   2.143  0.1250 -2.5859  0.8003
  523SOL     MW 2092   0.957   1.525   2.178 -0.5572 -0.8357  0.4448
  524SOL     OW 2093   0.688   2.428   2.947 -0.2592 -0.2334  0.7087
  524SOL    HW1 2094   0.714   2.460   2.864  0.9593 -0.2127 -1.8466
  524SOL    HW2 2095   0.742   2.344   2.960 -0.6768 -1.7245  0.8104
  524SOL     MW 2096   0.699   2.421   2.938 -0.1536 -0.4274  0.3850
  525SOL     OW 2097   0.325   2.288   2.092 -0.2411  0.1000  0.1547
  525SOL    HW1 2098   0.317   2.213   2.147 -0.0415 -1.3402 -0.2239
  525SOL    HW2 2099   0.331   2.257   2.005  0.3770  1.5234  3.3723
  525SOL     MW 2100   0.325   2.274   2.088 -0.1332  0.0978  0.5293
  526SOL     OW 2101   0.647   2.031   1.991 -0.3290  0.6754  1.0045
  526SOL    HW1 2102   0.673   2.065   1.905  0.5436  0.0983  0.9268
  526SOL    HW2 2103   0.644   2.113   2.041 -0.6451 -0.2065 -2.3686
  526SOL     MW 2104   0.650   2.047   1.986 -0.2556  0.4829  0.5492
  527SOL     OW 2105   1.431   2.015   2.056 -0.6588 -0.2731 -0.6234
  527SOL    HW1 2106   1.433   2.016   2.151 -1.1693  1.3738 -2.7364
  527SOL    HW2 2107   1.448   1.924   2.029  1.1605  1.7676 -2.3426
  527SOL     MW 2108   1.434   2.003   2.065 -0.4862  0.2135 -1.1290
  528SOL     OW 2109   0.675   2.918   2.853 -0.2650 -0.2835  0.0099
  528SOL    HW1 2110   0.704   3.000   2.894 -1.3831 -1.0706  2.2844
  528SOL    HW2 2111   0.602   2.947   2.796 -0.5747  0.0925  1.5716
  528SOL     MW 2112   0.669   2.932   2.851 -0.4534 -0.3377  0.5161
  529SOL     OW 2113   1.093   2.239   1.883 -0.1997  0.0156 -0.7122
  529SOL    HW1 2114   1.075   2.286   1.969 -0.0510  3.2774  2.2328
  529SOL    HW2 2115   1.094   2.310   1.826 -2.6759 -1.1922  2.2304
  529SOL     MW 2116   1.091   2.254   1.887 -0.5068  0.2866  0.0646
  530SOL     OW 2117   1.156   2.406   3.012  0.3835  0.6723 -0.4576
  530SOL    HW1 2118   1.134   2.451   3.097 -0.1284  0.8176  0.8589
  530SOL    HW2 2119   1.205   2.328   3.035 -0.5833 -0.3935  1.4663
  530SOL     MW 2120   1.159   2.402   3.026  0.1884  0.5508 -0.0300
  531SOL     OW 2121   0.900   1.879   2.580  0.3084  0.2409 -0.2549
  531SOL    HW1 2122   0.913   1.944   2.652  0.5516 -1.2354 -2.6814
  531SOL    HW2 2123   0.878   1.800   2.629  2.3535  0.1628  1.8362
  531SOL     MW 2124   0.899   1.877   2.596  0.6103  0.0358 -0.2992
  532SOL     OW 2125   1.763   0.298   2.805 -0.3109 -0.0901 -0.5653
  532SOL    HW1 2126   1.749   0.260   2.892 -0.3260  0.5537 -0.9284
  532SOL    HW2 2127   1.819   0.369   2.819 -1.0428 -2.0209 -0.0693
  532SOL     MW 2128   1.768   0.302   2.819 -0.4095 -0.2599 -0.5477
  533SOL     OW 2129   1.932   2.628   3.038  0.6606  0.1696  0.1936
  533SOL    HW1 2130   1.903   2.571   3.110  0.7306 -0.2967  0.6031
  533SOL    HW2 2131   1.854   2.630   2.972  3.0008 -0.2045  1.5999
  533SOL     MW 2132   1.918   2.620   3.039  0.9786  0.0587  0.4332
  534SOL     OW 2133   1.749   2.415   2.512 -0.0889 -0.2119  0.5124
  534SOL    HW1 2134   1.685   2.350   2.550  0.8014 -0.1995  1.6831
  534SOL    HW2 2135   1.836   2.404   2.557 -1.4752 -2.2360 -0.7141
  534SOL     MW 2136   1.752   2.405   2.523 -0.1543 -0.4773  0.5050
  535SOL     OW 2137   1.904   2.370   1.846  0.4151  0.0925  0.3251
  535SOL    HW1 2138   1.846   2.402   1.775  0.2323  1.3840  0.9628
  535SOL    HW2 2139   1.993   2.406   1.822 -0.4359  0.9551 -0.3566
  535SOL     MW 2140   1.908   2.379   1.834  0.2787  0.3767  0.3193
  536SOL     OW 2141   0.453   1.868   2.050  0.5318 -0.4125  0.0604
  536SOL    HW1 2142   0.445   1.787   1.986 -0.6159  0.5835 -0.2686
  536SOL    HW2 2143   0.518   1.924   2.009  2.4756 -2.2302 -0.1751
  536SOL     MW 2144   0.461   1.864   2.036  0.6368 -0.5209 -0.0141
  537SOL     OW 2145   1.069   0.221   2.851  0.2975 -0.1846  0.1070
  537SOL    HW1 2146   0.981   0.247   2.866  2.7602 -0.8093  0.3478
  537SOL    HW2 2147   1.084   0.262   2.762  1.0499 -3.3152 -1.4716
  537SOL     MW 2148   1.060   0.229   2.841  0.7217 -0.6800 -0.0695
  538SOL     OW 2149   1.342   0.068   3.046 -0.4221 -0.1337  0.8057
  538SOL    HW1 2150   1.320   0.156   3.013 -1.0071  0.3051  1.8358
  538SOL    HW2 2151   1.414   0.035   2.990 -0.2590  1.6651  3.1292
  538SOL     MW 2152   1.349   0.075   3.034 -0.4778  0.1615  1.2481
  539SOL     OW 2153   0.731   2.789   2.485 -0.4066  0.0746  0.0132
  539SOL    HW1 2154   0.784   2.791   2.561 -0.7725 -0.3482 -1.6924
  539SOL    HW2 2155   0.663   2.725   2.496 -0.6233  0.4313 -1.8255
  539SOL     MW 2156   0.729   2.781   2.497 -0.4835  0.0659 -0.4544
  540SOL     OW 2157   0.426   2.470   2.858 -0.1039  0.3784  0.1899
  540SOL    HW1 2158   0.518   2.458   2.886 -0.0472  3.0554 -0.2636
  540SOL    HW2 2159   0.369   2.423   2.921 -0.6611  2.6681  2.8873
  540SOL     MW 2160   0.430   2.463   2.870 -0.1699  1.0337  0.4860
  541SOL     OW 2161   0.177   2.902   2.201 -0.1206  0.3528  0.4159
  541SOL    HW1 2162   0.164   2.844   2.130 -1.7293 -1.0260 -0.2972
  541SOL    HW2 2163   0.227   2.851   2.267 -0.3083 -2.0323  1.1610
  541SOL     MW 2164   0.182   2.888   2.201 -0.3576 -0.1438  0.4201
  542SOL     OW 2165   1.017   2.285   2.655  0.1778  0.1851 -0.0772
  542SOL    HW1 2166   1.022   2.207   2.709 -0.3229  0.6227 -0.3528
  542SOL    HW2 2167   1.044   2.360   2.713 -1.6698  0.4046 -2.5326
  542SOL     MW 2168   1.021   2.284   2.670 -0.1321  0.2718 -0.4376
  543SOL     OW 2169   1.519   2.432   2.853  1.0904 -0.0905  0.0788
  543SOL    HW1 2170   1.517   2.381   2.767 -0.9463  1.9793 -1.1567
  543SOL    HW2 2171   1.606   2.482   2.846  0.7061  1.2502  2.1377
  543SOL     MW 2172   1.530   2.432   2.841  0.7710  0.3595  0.1875
  544SOL     OW 2173   0.714   0.201   2.768  0.0859  0.5878 -0.2059
  544SOL    HW1 2174   0.620   0.221   2.746 -2.6197  0.6877  0.0513
  544SOL    HW2 2175   0.727   0.130   2.705 -3.7588  0.0823  0.3648
  544SOL     MW 2176   0.704   0.194   2.757 -0.7784  0.5343 -0.0966
  545SOL     OW 2177   1.578   2.197   2.336 -0.3883 -0.2024  0.4246
  545SOL    HW1 2178   1.561   2.274   2.285  2.1926 -1.9419 -1.1529
  545SOL    HW2 2179   1.648   2.156   2.286 -0.3204 -0.3406  0.1619
  545SOL     MW 2180   1.585   2.202   2.323 -0.0388 -0.4502  0.1818
  546SOL     OW 2181   3.037   1.986   0.142 -0.1863 -0.2558  0.1780
  546SOL    HW1 2182   3.032   2.063   0.082  0.7837  3.0396  2.1349
  546SOL    HW2 2183   3.127   1.955   0.115  1.0765  1.1832  0.6519
  546SOL     MW 2184   3.049   1.992   0.131  0.1083  0.3689  0.4987
  547SOL     OW 2185   0.218   3.076   0.025  0.4605  0.7487 -0.2093
  547SOL    HW1 2186   0.273   3.096  -0.043  1.4529  0.8769 -1.3551
  547SOL    HW2 2187   0.129   3.053  -0.014 -0.5937  2.3555  2.9612
  547SOL     MW 2188   0.213   3.075   0.011  0.4523  0.9776  0.0578
  548SOL     OW 2189   0.303   2.515   0.229  0.1621 -0.2579  0.9174
  548SOL    HW1 2190   0.288   2.581   0.157 -1.7012  2.1041 -0.4765
  548SOL    HW2 2191   0.240   2.451   0.207  0.3453 -0.5788  2.6891
  548SOL     MW 2192   0.293   2.515   0.217 -0.0596  0.0114  0.9672
  549SOL     OW 2193   0.835   1.891   2.132 -0.8119  0.1700 -0.2052
  549SOL    HW1 2194   0.769   1.935   2.078 -0.4247  0.8856 -3.9465
  549SOL    HW2 2195   0.792   1.884   2.223 -0.2630 -2.0838  0.5423
  549SOL     MW 2196   0.820   1.896   2.137 -0.6884 -0.0330 -0.6002
  550SOL     OW 2197   1.781   1.734   2.581  0.0014  0.1764 -1.1251
  550SOL    HW1 2198   1.792   1.726   2.487  0.0062  0.2706 -1.2072
  550SOL    HW2 2199   1.755   1.826   2.579 -1.7601  3.1508  0.0993
  550SOL     MW 2200   1.779   1.745   2.569 -0.2304  0.5813 -0.9743
  551SOL     OW 2201   0.830   2.287   0.205  0.1652  0.0688 -0.1333
  551SOL    HW1 2202   0.925   2.273   0.189  0.6246  0.1021  0.5962
  551SOL    HW2 2203   0.799   2.209   0.160  2.1826 -0.5606 -0.7163
  551SOL     MW 2204   0.839   2.275   0.197  0.4920 -0.0099 -0.1140
  552SOL     OW 2205   1.759   1.680   2.303  0.1999 -0.0352 -0.4404
  552SOL    HW1 2206   1.670   1.708   2.300  2.9718 -2.5560  0.6299
  552SOL    HW2 2207   1.792   1.629   2.225 -3.6333  4.0678  1.7622
  552SOL     MW 2208   1.751   1.677   2.292  0.0599  0.1735 -0.0086
  553SOL     OW 2209   1.251   2.315   1.506  0.3187 -0.1513  0.4136
  553SOL    HW1 2210   1.297   2.229   1.501 -0.7755  1.3321  1.4931
  553SOL    HW2 2211   1.322   2.372   1.471  0.5391 -0.9926 -1.2507
  553SOL     MW 2212   1.266   2.311   1.501  0.2034 -0.0666  0.3364
  554SOL     OW 2213   0.510   2.935   2.629 -0.3636  0.3490 -0.0912
  554SOL    HW1 2214   0.498   3.006   2.560 -0.9630 -1.5690  1.1145
  554SOL    HW2 2215   0.588   2.880   2.599 -0.0253  0.4167  0.1157
  554SOL     MW 2216   0.519   2.937   2.616 -0.3981  0.1049  0.0952
  555SOL     OW 2217   0.652   2.486   2.489 -0.8893  0.2980 -0.5113
  555SOL    HW1 2218   0.603   2.398   2.513 -1.2118 -0.3005  0.3594
  555SOL    HW2 2219   0.733   2.447   2.464  0.7479 -1.5272 -1.3004
  555SOL     MW 2220   0.656   2.469   2.489 -0.7158 -0.0218 -0.5005
  556SOL     OW 2221   0.976   1.865   0.110  0.2456 -0.6454 -0.5556
  556SOL    HW1 2222   1.032   1.887   0.035  0.0098  2.1717 -1.6579
  556SOL    HW2 2223   1.028   1.888   0.193  0.4253 -1.4204  1.6458
  556SOL     MW 2224   0.991   1.871   0.111  0.2382 -0.3760 -0.4106
  557SOL     OW 2225   0.946   2.673   0.501  0.2519 -0.9156 -0.0779
  557SOL    HW1 2226   1.002   2.612   0.459 -0.6143  1.7448  0.2998
  557SOL    HW2 2227   0.905   2.731   0.429 -2.4842 -0.1424 -1.1071
  557SOL     MW 2228   0.948   2.673   0.486 -0.2234 -0.4626 -0.1638
  558SOL     OW 2229   0.199   2.338   3.010 -0.2762 -0.0800 -0.2842
  558SOL    HW1 2230   0.137   2.268   2.989  2.1295 -0.5676 -0.9135
  558SOL    HW2 2231   0.170   2.388   3.090  1.1110  0.9978 -1.1258
  558SOL     MW 2232   0.187   2.335   3.018  0.2243 -0.0021 -0.4783
  559SOL     OW 2233   1.011   2.336   2.112  0.8577  0.4458  0.3833
  559SOL    HW1 2234   1.063   2.393   2.166  0.6086  1.5582  0.4326
  559SOL    HW2 2235   0.999   2.257   2.175  0.9234 -2.8831 -1.1204
  559SOL     MW 2236   1.017   2.333   2.128  0.8335  0.1533  0.1914
  560SOL     OW 2237   1.998   2.891   0.015  0.2683 -0.3778 -0.2861
  560SOL    HW1 2238   2.063   2.911  -0.057 -1.4204  0.9262  1.2407
  560SOL    HW2 2239   1.960   2.807  -0.024 -1.0044 -0.3280 -0.7919
  560SOL     MW 2240   2.001   2.882   0.000 -0.1224 -0.1992 -0.1514
  561SOL     OW 2241   0.401   2.178   0.041 -0.3272 -0.3741 -0.4218
  561SOL    HW1 2242   0.338   2.221  -0.017 -0.2582 -2.1150  1.0335
  561SOL    HW2 2243   0.449   2.243   0.099 -0.8715 -1.2111  0.2126
  561SOL     MW 2244   0.399   2.192   0.041 -0.3899 -0.7142 -0.1461
  562SOL     OW 2245   0.702   2.198   2.207  0.6770 -0.1242  0.6142
  562SOL    HW1 2246   0.723   2.294   2.214  1.7396  1.5454  1.6830
  562SOL    HW2 2247   0.793   2.157   2.207 -1.0296  1.5097 -0.6178
  562SOL     MW 2248   0.717   2.206   2.208  0.5920  0.3117  0.5927
  563SOL     OW 2249   1.222   0.313   0.571 -0.0752  0.1315 -0.2665
  563SOL    HW1 2250   1.153   0.271   0.516  2.9949 -2.4821  0.7740
  563SOL    HW2 2251   1.248   0.244   0.628 -0.6286  0.6127  1.8033
  563SOL     MW 2252   1.216   0.298   0.571  0.2569 -0.1498  0.1439
  564SOL     OW 2253   1.137   2.506   2.296  0.5696 -0.3388  0.1297
  564SOL    HW1 2254   1.144   2.566   2.221 -1.1573  1.4820  1.1213
  564SOL    HW2 2255   1.141   2.567   2.375 -0.4064 -1.7145 -1.7323
  564SOL     MW 2256   1.138   2.522   2.296  0.2130 -0.2801  0.0148
  565SOL     OW 2257   2.822   2.749   2.656 -0.3655  0.5058  0.2074
  565SOL    HW1 2258   2.851   2.840   2.664 -0.6137 -0.4413  2.1569
  565SOL    HW2 2259   2.760   2.748   2.582  0.9796  0.8561  2.6642
  565SOL     MW 2260   2.818   2.761   2.647 -0.2208  0.4271  0.7888
  566SOL     OW 2261   2.137   1.848   2.363 -0.2623 -0.1790  0.4220
  566SOL    HW1 2262   2.182   1.795   2.299  0.1518  0.2542  1.1116
  566SOL    HW2 2263   2.193   1.927   2.390 -1.9446 -3.2764  1.0700
  566SOL     MW 2264   2.150   1.852   2.358 -0.4296 -0.5305  0.5985
  567SOL     OW 2265   1.187   2.935   3.025  0.0136  0.4710  0.7637
  567SOL    HW1 2266   1.239   3.004   3.067  0.0986  2.0623 -1.7395
  567SOL    HW2 2267   1.255   2.857   3.013 -0.8125 -1.0711 -1.0851
  567SOL     MW 2268   1.203   2.934   3.029 -0.0841  0.4775  0.1895
  568SOL     OW 2269   1.597   2.118   2.899  0.2218 -0.1904  0.2283
  568SOL    HW1 2270   1.656   2.174   2.945  0.2238 -1.9336 -0.2814
  568SOL    HW2 2271   1.655   2.071   2.843  2.8220 -1.6213  0.9641
  568SOL     MW 2272   1.613   2.119   2.898  0.5652 -0.6092  0.2581
  569SOL     OW 2273   0.174   2.308   2.466 -0.3468  0.1392 -0.0321
  569SOL    HW1 2274   0.096   2.337   2.417  0.4598  1.3879  1.2403
  569SOL    HW2 2275   0.192   2.389   2.517 -0.7609 -1.4730 -1.2311
  569SOL     MW 2276   0.166   2.323   2.466 -0.2951  0.0913 -0.0224
  570SOL     OW 2277   1.495   0.368   0.506  0.7706 -0.3737  0.3899
  570SOL    HW1 2278   1.397   0.361   0.528 -1.1531 -0.3051 -0.2271
  570SOL    HW2 2279   1.537   0.394   0.588  2.4879 -0.9813  0.4785
  570SOL     MW 2280   1.488   0.371   0.520  0.7434 -0.4448  0.3202
  571SOL     OW 2281   1.468   2.447   2.003 -0.6539 -0.0081  0.0222
  571SOL    HW1 2282   1.477   2.442   2.098 -1.9721 -1.3259  0.1008
  571SOL    HW2 2283   1.485   2.359   1.968 -1.0067 -2.9018  0.2819
  571SOL     MW 2284   1.471   2.434   2.011 -0.8744 -0.5637  0.0668
  572SOL     OW 2285   1.073   2.585   0.109 -0.1285 -0.3471  0.2912
  572SOL    HW1 2286   1.083   2.680   0.098 -1.6231 -0.4987 -1.1474
  572SOL    HW2 2287   0.970   2.578   0.113  0.8812  1.5585  0.0631
  572SOL     MW 2288   1.061   2.597   0.108 -0.1925 -0.1157  0.0713
  573SOL     OW 2289   1.113   2.278   0.195  0.5666 -0.0025  0.2916
  573SOL    HW1 2290   1.197   2.264   0.157  1.0893 -0.1734  0.6465
  573SOL    HW2 2291   1.112   2.348   0.268 -0.0710  1.4155  0.2623
  573SOL     MW 2292   1.124   2.286   0.200  0.5514  0.1620  0.3346
  574SOL     OW 2293   1.126   2.511   0.367 -0.0070 -0.0069  0.0966
  574SOL    HW1 2294   1.217   2.534   0.389  1.4753  0.1900 -0.3685
  574SOL    HW2 2295   1.107   2.550   0.277 -0.3375 -2.7205  0.1857
  574SOL     MW 2296   1.136   2.519   0.358  0.1450 -0.3389  0.0470
  575SOL     OW 2297   3.060   2.199   1.815 -0.2223 -0.1696  0.0350
  575SOL    HW1 2298   3.083   2.130   1.750  0.9689  0.8757 -0.1047
  575SOL    HW2 2299   3.140   2.251   1.817  1.8974 -1.0204 -1.1547
  575SOL     MW 2300   3.074   2.196   1.807  0.2145 -0.1440 -0.1404
  576SOL     OW 2301   2.788   1.772   2.103 -0.2644  0.7115 -0.3307
  576SOL    HW1 2302   2.813   1.835   2.034  1.6696 -3.1229 -1.1269
  576SOL    HW2 2303   2.699   1.744   2.082  0.4357  1.3251  1.6605
  576SOL     MW 2304   2.780   1.777   2.091  0.0831  0.2866 -0.1730
  577SOL     OW 2305   2.047   0.208   0.091 -0.5476 -0.2425 -0.1673
  577SOL    HW1 2306   1.984   0.240   0.033  0.0717 -0.5992 -2.1009
  577SOL    HW2 2307   2.001   0.167   0.165 -2.7779  2.2596  0.9093
  577SOL     MW 2308   2.033   0.207   0.093 -0.7601  0.0406 -0.2804
  578SOL     OW 2309   1.938   2.039   2.350  0.2329  0.4462  0.2628
  578SOL    HW1 2310   1.877   2.023   2.269 -0.5613 -0.5030 -1.1555
  578SOL    HW2 2311   2.000   1.965   2.349  2.2852  0.3841  4.2245
  578SOL     MW 2312   1.938   2.027   2.339  0.3989  0.3128  0.5984
  579SOL     OW 2313   0.906   2.383   2.430 -0.2583  0.0640  0.4213
  579SOL    HW1 2314   0.926   2.337   2.509  1.3256  2.6890 -0.9886
  579SOL    HW2 2315   0.991   2.407   2.394  0.5630  1.1248  2.7514
  579SOL     MW 2316   0.920   2.380   2.435  0.0590  0.5503  0.5427
  580SOL     OW 2317   0.923   2.885   3.081  0.0735 -0.2845  0.6750
  580SOL    HW1 2318   1.017   2.909   3.078  0.5225 -1.9408  0.1376
  580SOL    HW2 2319   0.904   2.840   2.995 -1.0807 -1.8916 -0.1463
  580SOL     MW 2320   0.933   2.882   3.069 -0.0196 -0.7151  0.4957
  581SOL     OW 2321   1.130   2.477   1.691  0.0765  0.7056  0.0289
  581SOL    HW1 2322   1.203   2.512   1.753  0.0541 -0.7593  0.5392
  581SOL    HW2 2323   1.168   2.406   1.628  0.4365  0.9323 -5.0829
  581SOL     MW 2324   1.145   2.472   1.690  0.1211  0.5422 -0.5782
  582SOL     OW 2325   0.057   2.785   2.606 -0.1265  0.2798  0.1128
  582SOL    HW1 2326  -0.007   2.838   2.649 -1.5783 -2.0666 -2.0999
  582SOL    HW2 2327   0.130   2.840   2.578  0.6497  1.5917  0.6638
  582SOL     MW 2328   0.058   2.799   2.608 -0.2156  0.1433 -0.1064
  583SOL     OW 2329   1.982   2.392   2.647 -0.8253 -0.1375 -0.3600
  583SOL    HW1 2330   2.052   2.435   2.588  3.1460 -0.1785  0.7841
  583SOL    HW2 2331   1.991   2.292   2.639  1.5815 -0.2991  1.4634
  583SOL     MW 2332   1.992   2.385   2.638  0.0162 -0.1643  0.0315
  584SOL     OW 2333   0.104   1.875   2.247  0.0951  0.6270  0.3963
  584SOL    HW1 2334   0.141   1.845   2.164  1.6456  0.4840  3.5962
  584SOL    HW2 2335   0.148   1.961   2.255 -1.5969  1.2309 -1.0583
  584SOL     MW 2336   0.115   1.882   2.237  0.0764  0.6878  0.6266
  585SOL     OW 2337   1.593   2.646   0.232  0.7662 -0.1473  0.5553
  585SOL    HW1 2338   1.531   2.619   0.163 -0.9515  2.6353  0.3907
  585SOL    HW2 2339   1.542   2.635   0.320 -1.3317 -0.7511  0.5932
  585SOL     MW 2340   1.578   2.641   0.235  0.2628  0.1401  0.5386
  586SOL     OW 2341   1.362   2.863   2.563  0.0442 -0.1005  0.1848
  586SOL    HW1 2342   1.413   2.820   2.488 -0.4033 -0.7822  2.3182
  586SOL    HW2 2343   1.374   2.955   2.554  3.0160 -1.7215  0.4163
  586SOL     MW 2344   1.371   2.870   2.552  0.3772 -0.4043  0.4968
  587SOL     OW 2345   1.341   1.600   2.114 -0.0384 -0.1890 -0.3455
  587SOL    HW1 2346   1.323   1.526   2.178 -1.0477  0.6347  0.5163
  587SOL    HW2 2347   1.321   1.560   2.030  1.0632  0.2269  1.5236
  587SOL     MW 2348   1.336   1.585   2.112 -0.0262 -0.0255  0.0148
  588SOL     OW 2349   1.311   2.075   2.692  0.1814 -0.1791 -0.5000
  588SOL    HW1 2350   1.361   1.990   2.688  0.8960 -0.8235 -1.3522
  588SOL    HW2 2351   1.294   2.092   2.788 -1.6024 -2.7045  2.0964
  588SOL     MW 2352   1.316   2.066   2.704  0.0403 -0.5973 -0.2699
  589SOL     OW 2353   1.368   1.997   0.104  0.2503 -0.1324 -0.1598
  589SOL    HW1 2354   1.406   2.073   0.146  0.4248  1.3957 -0.9081
  589SOL    HW2 2355   1.327   1.952   0.177  0.7756 -2.5198  0.6174
  589SOL     MW 2356   1.367   2.001   0.119  0.3427 -0.2458 -0.1560
  590SOL     OW 2357   0.486   2.769   2.238 -0.2625  0.0820  0.7091
  590SOL    HW1 2358   0.456   2.709   2.166  0.2970  1.1165 -0.4057
  590SOL    HW2 2359   0.570   2.788   2.206 -1.7770 -0.3354 -1.9676
  590SOL     MW 2360   0.493   2.763   2.225 -0.3885  0.1635  0.2089
  591SOL     OW 2361   2.257   0.644   3.096 -0.3942  0.3421 -0.4241
  591SOL    HW1 2362   2.183   0.667   3.050  1.6211 -1.0434  2.5075
  591SOL    HW2 2363   2.339   0.663   3.051  2.4562  1.2719  0.4327
  591SOL     MW 2364   2.258   0.650   3.084  0.2477  0.2820  0.0757
  592SOL     OW 2365   1.757   2.953   0.774 -0.0589  0.1340 -0.2949
  592SOL    HW1 2366   1.755   3.014   0.706  0.2028  0.5825  3.1042
  592SOL    HW2 2367   1.842   2.914   0.769 -0.6115 -2.0581  0.5074
  592SOL     MW 2368   1.768   2.956   0.765 -0.0973 -0.0961  0.2594
  593SOL     OW 2369   1.962   0.646   0.823  0.0788 -0.0156  0.7014
  593SOL    HW1 2370   1.886   0.637   0.760 -0.5366 -1.0921  1.2317
  593SOL    HW2 2371   2.017   0.566   0.827 -0.0048 -0.6848  0.2868
  593SOL     MW 2372   1.959   0.634   0.815 -0.0134 -0.2460  0.7167
  594SOL     OW 2373   2.779   1.169   1.395  0.0039 -0.0759 -0.0772
  594SOL    HW1 2374   2.870   1.185   1.384  0.4948 -2.7738 -0.0367
  594SOL    HW2 2375   2.764   1.121   1.312 -0.0736 -0.5951  0.1409
  594SOL     MW 2376   2.789   1.165   1.383  0.0585 -0.5003 -0.0431
  595SOL     OW 2377   0.444   0.988   0.817  0.2958  0.0848  0.4044
  595SOL    HW1 2378   0.497   1.012   0.746  2.3204 -0.5798  0.1495
  595SOL    HW2 2379   0.421   1.073   0.866 -1.0381  1.2899 -0.7164
  595SOL     MW 2380   0.448   1.002   0.814  0.3870  0.1561  0.2229
  596SOL     OW 2381   2.482   1.319   0.567  0.1123 -0.5017 -0.3449
  596SOL    HW1 2382   2.547   1.371   0.520 -0.4711 -2.5124 -0.2287
  596SOL    HW2 2383   2.523   1.286   0.649 -1.2226 -0.2437  2.8344
  596SOL     MW 2384   2.496   1.322   0.571 -0.1408 -0.7330  0.0899
  597SOL     OW 2385   2.193   0.669   1.631 -0.3832 -0.4608  0.0493
  597SOL    HW1 2386   2.224   0.596   1.686  2.2862  2.9220 -0.8508
  597SOL    HW2 2387   2.130   0.632   1.573  2.7488  1.0645  0.6517
  597SOL     MW 2388   2.189   0.655   1.631  0.3822  0.1868  0.0100
  598SOL     OW 2389   2.558   1.050   2.768  0.0691  0.5173 -0.2358
  598SOL    HW1 2390   2.577   1.035   2.674 -0.2964 -1.4950  0.0831
  598SOL    HW2 2391   2.647   1.075   2.806  0.7437 -0.0325  1.6523
  598SOL     MW 2392   2.572   1.052   2.760  0.1099  0.1793  0.0554
  599SOL     OW 2393   2.985   0.392   2.057  0.4243  0.1625  0.7747
  599SOL    HW1 2394   3.046   0.433   2.118  0.8505 -1.3590  1.2689
  599SOL    HW2 2395   2.974   0.462   1.990 -1.6075  0.0742 -1.4175
  599SOL     MW 2396   2.992   0.407   2.056  0.2125 -0.0499  0.5506
  600SOL     OW 2397   1.854   1.598   0.883 -0.2723  0.2819  0.3486
  600SOL    HW1 2398   1.896   1.635   0.959  0.6122 -3.1363  0.1511
  600SOL    HW2 2399   1.769   1.646   0.866 -0.7461  2.6709 -1.9296
  600SOL     MW 2400   1.848   1.609   0.891 -0.2181  0.1461  0.0219
  601SOL     OW 2401   2.512   0.764   0.805  0.1242 -0.1525 -0.3602
  601SOL    HW1 2402   2.514   0.787   0.899 -0.0328  0.3360 -0.8705
  601SOL    HW2 2403   2.429   0.718   0.784 -2.2899 -1.8546 -0.6229
  601SOL     MW 2404   2.502   0.761   0.815 -0.2150 -0.3126 -0.4622
  602SOL     OW 2405   2.271   1.946   0.766 -0.6640  0.7348  0.1987
  602SOL    HW1 2406   2.265   1.851   0.750  0.0822  1.1794 -0.5296
  602SOL    HW2 2407   2.194   1.989   0.724  1.6012  1.1823 -4.1183
  602SOL     MW 2408   2.260   1.939   0.758 -0.2667  0.8525 -0.4670
  603SOL     OW 2409   0.009   1.347   1.839  0.0499  0.2150  1.1372
  603SOL    HW1 2410   0.042   1.427   1.878 -0.8470  1.5019 -0.8666
  603SOL    HW2 2411   0.019   1.285   1.909 -1.9169 -1.3378 -0.7805
  603SOL     MW 2412   0.014   1.350   1.854 -0.3279  0.1799  0.6198
  604SOL     OW 2413   2.104   1.545   0.462 -0.8576  0.3799 -0.0845
  604SOL    HW1 2414   2.114   1.464   0.508  3.3172  1.7681  0.8130
  604SOL    HW2 2415   2.034   1.591   0.501  2.6014 -1.3386 -1.0162
  604SOL     MW 2416   2.096   1.540   0.473  0.1496  0.3363 -0.0890
  605SOL     OW 2417   2.526   1.487   0.880 -0.3605  0.5592  0.6241
  605SOL    HW1 2418   2.533   1.536   0.803  1.3844 -2.7480  2.4598
  605SOL    HW2 2419   2.555   1.403   0.857 -2.0199  0.2059  1.0550
  605SOL     MW 2420   2.531   1.482   0.867 -0.3492  0.0762  0.9231
  606SOL     OW 2421   2.535   1.691   2.023  0.2512  0.2963 -0.0070
  606SOL    HW1 2422   2.456   1.740   1.994  0.6228 -0.4215  0.0836
  606SOL    HW2 2423   2.558   1.636   1.948 -0.5663  1.1569  1.8148
  606SOL     MW 2424   2.528   1.690   2.009  0.1924  0.3151  0.2453
  607SOL     OW 2425   2.437   1.057   3.020 -0.0563 -0.4729 -0.1931
  607SOL    HW1 2426   2.503   1.041   2.947  0.5444  0.0246  0.9219
  607SOL    HW2 2427   2.477   1.019   3.098 -0.2271 -1.5406 -3.7702
  607SOL     MW 2428   2.451   1.050   3.021  0.0004 -0.5481 -0.5180
  608SOL     OW 2429   1.856   0.285   0.575 -0.0698  0.1411  0.0050
  608SOL    HW1 2430   1.869   0.321   0.486 -1.3434  0.3405 -2.9767
  608SOL    HW2 2431   1.794   0.210   0.569 -1.7556 -0.8230  2.4930
  608SOL     MW 2432   1.850   0.280   0.562 -0.4603  0.0402 -0.0601
  609SOL     OW 2433   2.062   1.956   3.053  0.4292 -0.3800  0.3333
  609SOL    HW1 2434   1.982   1.906   3.038  2.1441  1.4173  0.6543
  609SOL    HW2 2435   2.095   1.948   3.148 -1.1360 -1.2308  0.5849
  609SOL     MW 2436   2.056   1.949   3.063  0.4489 -0.2552  0.4089
  610SOL     OW 2437   1.808   0.965   1.234  0.5996 -0.5068 -0.3905
  610SOL    HW1 2438   1.842   0.910   1.161 -2.8057 -0.3863 -0.0381
  610SOL    HW2 2439   1.713   0.973   1.225 -0.3319  1.3700  0.6437
  610SOL     MW 2440   1.800   0.959   1.224  0.0274 -0.2433 -0.2076
  611SOL     OW 2441   2.534   1.690   0.668  0.1470 -0.1954 -0.1645
  611SOL    HW1 2442   2.508   1.752   0.602  1.4297  1.1646 -1.4488
  611SOL    HW2 2443   2.449   1.673   0.713  1.1163 -0.9113 -2.2507
  611SOL     MW 2444   2.519   1.696   0.666  0.4441 -0.1104 -0.6092
  612SOL     OW 2445   2.861   2.897   0.366 -0.0093 -0.0236  0.2419
  612SOL    HW1 2446   2.903   2.920   0.451 -0.8381  1.2663  0.1114
  612SOL    HW2 2447   2.927   2.843   0.327 -1.5023  0.7184 -1.2105
  612SOL     MW 2448   2.875   2.893   0.372 -0.3156  0.2445  0.0331
  613SOL     OW 2449   1.451   1.034   0.900  0.1042  0.5011  0.1543
  613SOL    HW1 2450   1.479   1.125   0.914  1.2045 -0.1382  0.8163
  613SOL    HW2 2451   1.497   0.990   0.973  1.4100 -2.4138  0.9058
  613SOL     MW 2452   1.461   1.040   0.911  0.4217  0.0322  0.3408
  614SOL     OW 2453   1.984   0.532   1.485  0.0749 -0.1548  0.3593
  614SOL    HW1 2454   1.954   0.446   1.531 -2.2901 -1.5091 -0.0902
  614SOL    HW2 2455   1.942   0.531   1.397 -0.1638  0.6192 -0.8698
  614SOL     MW 2456   1.974   0.521   1.479 -0.2686 -0.2314  0.1378
  615SOL     OW 2457   2.315   0.772   0.257 -0.4724  0.0351  0.2158
  615SOL    HW1 2458   2.393   0.721   0.268  0.8244  2.8755  0.8461
  615SOL    HW2 2459   2.273   0.743   0.181  0.6935 -0.8018  2.6876
  615SOL     MW 2460   2.319   0.762   0.248 -0.1475  0.2994  0.6251
  616SOL     OW 2461   2.498   0.412   1.672  0.0977  0.2441  0.0827
  616SOL    HW1 2462   2.538   0.334   1.639  1.0639  2.3119  3.2203
  616SOL    HW2 2463   2.473   0.470   1.596 -2.3450  0.0481 -0.2500
  616SOL     MW 2464   2.500   0.409   1.658 -0.0971  0.4911  0.4528
  617SOL     OW 2465   2.791   0.618   1.697 -0.3144 -0.3028 -0.3263
  617SOL    HW1 2466   2.735   0.661   1.765  2.8493 -2.5563 -0.3164
  617SOL    HW2 2467   2.740   0.537   1.692  2.5397 -2.5869  0.9533
  617SOL     MW 2468   2.777   0.613   1.706  0.4795 -0.9015 -0.1561
  618SOL     OW 2469   2.703   0.357   1.957 -0.4693  0.2329  0.4045
  618SOL    HW1 2470   2.663   0.447   1.954  3.1702  1.6301 -0.8345
  618SOL    HW2 2471   2.742   0.349   2.045  0.2163  2.9119  1.8976
  618SOL     MW 2472   2.703   0.368   1.968  0.1014  0.7707  0.4380
  619SOL     OW 2473   2.641   0.742   0.042 -0.0961  0.2029 -0.0037
  619SOL    HW1 2474   2.676   0.826   0.071  0.8260 -0.9781 -1.1099
  619SOL    HW2 2475   2.605   0.705   0.121  1.0162  0.7483 -1.4299
  619SOL     MW 2476   2.641   0.749   0.056  0.1723  0.1190 -0.3378
  620SOL     OW 2477   2.214   1.041   0.912  0.3396  0.0082  0.0910
  620SOL    HW1 2478   2.274   1.014   0.839 -0.8317  0.0669 -1.6008
  620SOL    HW2 2479   2.142   0.985   0.883 -0.6429  1.8363 -0.5224
  620SOL     MW 2480   2.212   1.030   0.899  0.0554  0.2571 -0.2132
  621SOL     OW 2481   1.562   2.198   1.926  0.0186  0.0405 -0.0484
  621SOL    HW1 2482   1.511   2.126   1.979  3.7837 -0.7947  0.6539
  621SOL    HW2 2483   1.657   2.178   1.942  1.0851 -1.0632  1.3622
  621SOL     MW 2484   1.568   2.186   1.935  0.6561 -0.2153  0.2304
  622SOL     OW 2485   2.636   0.201   0.242  0.3862  0.1671  0.0170
  622SOL    HW1 2486   2.725   0.227   0.223  0.2082 -0.4643 -2.2459
  622SOL    HW2 2487   2.645   0.112   0.283  0.5277  0.6148  1.2746
  622SOL     MW 2488   2.649   0.193   0.245  0.3814  0.1429 -0.1157
  623SOL     OW 2489   2.452   2.755   0.844  0.7069 -0.2591 -0.1153
  623SOL    HW1 2490   2.524   2.819   0.830  0.2431  1.2269 -0.4731
  623SOL    HW2 2491   2.418   2.796   0.922 -0.9582 -1.3888 -1.0373
  623SOL     MW 2492   2.457   2.769   0.853  0.4260 -0.2121 -0.2841
  624SOL     OW 2493   2.153   1.635   3.033 -0.3354 -0.3816  0.3609
  624SOL    HW1 2494   2.106   1.555   3.018 -0.3670 -3.4404 -3.5669
  624SOL    HW2 2495   2.089   1.708   3.009 -4.4039  1.1389 -1.0821
  624SOL     MW 2496   2.138   1.634   3.028 -0.8763 -0.5846 -0.3477
  625SOL     OW 2497   2.219   1.883   1.065  0.4436  1.1088  0.4273
  625SOL    HW1 2498   2.295   1.863   1.123 -0.6755 -1.3387 -2.1358
  625SOL    HW2 2499   2.254   1.886   0.976  3.2029 -2.0384  0.9403
  625SOL     MW 2500   2.233   1.880   1.061  0.6600  0.3706  0.1568
  626SOL     OW 2501   0.282   1.740   2.428 -0.0117  0.6559 -0.1046
  626SOL    HW1 2502   0.228   1.690   2.486  1.1617  1.1633  0.2749
  626SOL    HW2 2503   0.223   1.804   2.385  0.5619  1.5399  0.7327
  626SOL     MW 2504   0.267   1.742   2.430  0.2188  0.8395  0.0559
  627SOL     OW 2505   2.499   0.726   2.547  0.7548  0.1313  0.3384
  627SOL    HW1 2506   2.449   0.807   2.571 -1.8873 -0.9386  1.1786
  627SOL    HW2 2507   2.458   0.684   2.473  1.1194 -1.5518 -0.6564
  627SOL     MW 2508   2.487   0.731   2.541  0.4543 -0.2320  0.3180
  628SOL     OW 2509   2.270   1.376   1.303 -0.3501 -0.6837 -0.4573
  628SOL    HW1 2510   2.231   1.295   1.267  2.1961 -0.0660  0.1179
  628SOL    HW2 2511   2.335   1.405   1.232 -0.2230  0.0145 -3.1695
  628SOL     MW 2512   2.273   1.370   1.289  0.0026 -0.5101 -0.7392
  629SOL     OW 2513   1.874   0.539   1.228  0.2546 -0.6427 -0.0075
  629SOL    HW1 2514   1.855   0.607   1.167  0.7040 -0.2654  1.1490
  629SOL    HW2 2515   1.784   0.505   1.240 -0.7258  2.1682 -1.0100
  629SOL     MW 2516   1.860   0.544   1.221  0.1846 -0.2220  0.0129
  630SOL     OW 2517   2.372   1.879   3.053  0.2768  0.1600 -0.4234
  630SOL    HW1 2518   2.355   1.955   2.990  2.4702  0.0440  0.3002
  630SOL    HW2 2519   2.286   1.836   3.056 -1.4673 -1.2325  1.6562
  630SOL     MW 2520   2.359   1.883   3.045  0.3361 -0.0390 -0.0535
  631SOL     OW 2521   2.053   1.722   1.546 -0.6768 -0.7865 -0.2428
  631SOL    HW1 2522   2.061   1.639   1.595 -0.5305 -4.5465  2.1875
  631SOL    HW2 2523   2.005   1.703   1.466  1.5397  0.7414  0.6560
  631SOL     MW 2524   2.047   1.708   1.542 -0.3650 -1.0810  0.1964
  632SOL     OW 2525   0.236   1.981   1.423 -0.3210 -0.3397  0.4616
  632SOL    HW1 2526   0.192   1.987   1.512  1.5999  1.9867 -1.0752
  632SOL    HW2 2527   0.274   1.898   1.410  0.8331 -1.9765  0.8992
  632SOL     MW 2528   0.235   1.971   1.433  0.0847 -0.2487  0.3166
  633SOL     OW 2529   2.540   0.614   0.254 -0.9454 -0.3467  0.1189
  633SOL    HW1 2530   2.557   0.642   0.342  1.8379  0.3039 -0.8240
  633SOL    HW2 2531   2.509   0.524   0.264 -0.1247  1.0466 -2.4686
  633SOL     MW 2532   2.538   0.606   0.267 -0.4699 -0.0770 -0.3469
  634SOL     OW 2533   2.678   0.027   0.655 -0.2143 -0.7830  0.2242
  634SOL    HW1 2534   2.736   0.105   0.665  2.7624  1.0300 -1.0297
  634SOL    HW2 2535   2.675   0.007   0.560  1.5175 -0.4808 -1.0780
  634SOL     MW 2536   2.685   0.035   0.644  0.4069 -0.5039 -0.1130
  635SOL     OW 2537   2.581   0.137   1.831 -0.2008 -0.1527 -0.2671
  635SOL    HW1 2538   2.650   0.086   1.777 -0.6425 -1.6912  0.8540
  635SOL    HW2 2539   2.637   0.200   1.884  0.3049  3.0125  1.9319
  635SOL     MW 2540   2.597   0.138   1.831 -0.1924  0.0619  0.1709
  636SOL     OW 2541   2.826   1.583   0.883 -0.3228 -0.3741 -0.6081
  636SOL    HW1 2542   2.747   1.630   0.902 -1.3296 -1.7197 -0.6351
  636SOL    HW2 2543   2.893   1.631   0.928  0.0884  0.4206 -1.1792
  636SOL     MW 2544   2.824   1.596   0.892 -0.4014 -0.4468 -0.6870
  637SOL     OW 2545   2.877   1.482   0.626  0.3702  0.3278 -0.6933
  637SOL    HW1 2546   2.912   1.571   0.611  0.8178  0.0011  2.1678
  637SOL    HW2 2547   2.848   1.475   0.720 -0.8709  1.5057  0.5268
  637SOL     MW 2548   2.878   1.493   0.636  0.2655  0.4401 -0.1548
  638SOL     OW 2549   2.663   0.504   0.507  0.2798 -0.0515 -0.2369
  638SOL    HW1 2550   2.752   0.503   0.476  1.0107 -1.8566  1.3048
  638SOL    HW2 2551   2.675   0.511   0.606  1.2304 -0.9774 -0.5943
  638SOL     MW 2552   2.676   0.505   0.516  0.5017 -0.4118 -0.0806
  639SOL     OW 2553   1.706   0.030   0.559  0.4771  0.0264 -0.0698
  639SOL    HW1 2554   1.609   0.030   0.532 -1.8797  0.5855 -1.0861
  639SOL    HW2 2555   1.750  -0.045   0.517  0.4490  1.5629  1.5825
  639SOL     MW 2556   1.699   0.020   0.550  0.1625  0.3029  0.0141
  640SOL     OW 2557   0.266   1.326   0.091  0.1209  0.3185 -0.5479
  640SOL    HW1 2558   0.314   1.326   0.005 -0.3155  0.3863 -0.3545
  640SOL    HW2 2559   0.252   1.236   0.115  1.5354  1.2865  0.0346
  640SOL     MW 2560   0.270   1.314   0.083  0.2500  0.4551 -0.4456
  641SOL     OW 2561   2.241   0.427   0.401  0.2791  0.1575  0.0118
  641SOL    HW1 2562   2.235   0.406   0.310 -0.3483 -0.9605  1.3103
  641SOL    HW2 2563   2.310   0.380   0.435 -1.9090 -0.1434 -0.0410
  641SOL     MW 2564   2.249   0.418   0.393 -0.0924 -0.0297  0.1761
  642SOL     OW 2565   0.048   0.017   0.506  0.4833  0.2733 -0.6360
  642SOL    HW1 2566  -0.001   0.096   0.498 -0.8788 -1.4233 -2.5749
  642SOL    HW2 2567  -0.010  -0.054   0.545  1.4496 -0.9089  1.3332
  642SOL     MW 2568   0.034   0.018   0.510  0.4311 -0.1065 -0.6320
  643SOL     OW 2569   2.006   0.350   1.694 -0.3194 -0.1314  0.4136
  643SOL    HW1 2570   1.958   0.314   1.763 -0.2006 -0.1621  1.8625
  643SOL    HW2 2571   2.054   0.278   1.648  2.5886 -1.2310  3.5808
  643SOL     MW 2572   2.006   0.336   1.697  0.0800 -0.2805  1.0226
  644SOL     OW 2573   2.675   1.902   1.035 -0.1874 -0.8140 -0.2624
  644SOL    HW1 2574   2.676   1.839   1.108 -3.8344  0.8761  0.3211
  644SOL    HW2 2575   2.588   1.941   1.030 -0.8986 -0.3008  0.1309
  644SOL     MW 2576   2.664   1.899   1.044 -0.7624 -0.5233 -0.1335
  645SOL     OW 2577   2.816   0.844   0.654 -0.2832 -0.0593  0.5715
  645SOL    HW1 2578   2.876   0.782   0.688 -1.5043 -0.1680 -0.0043
  645SOL    HW2 2579   2.737   0.797   0.645  0.7460  2.3436  0.3108
  645SOL     MW 2580   2.814   0.830   0.657 -0.3085  0.2434  0.4612
  646SOL     OW 2581   0.069   2.266   0.861  0.2690  0.2266 -0.4374
  646SOL    HW1 2582   0.105   2.178   0.844  3.1841 -0.6302 -0.1496
  646SOL    HW2 2583   0.048   2.282   0.771 -0.3661  0.6201 -0.2202
  646SOL     MW 2584   0.071   2.256   0.847  0.5698  0.1655 -0.3708
  647SOL     OW 2585   2.717   0.499   2.940  0.0900 -0.0323  0.0498
  647SOL    HW1 2586   2.656   0.430   2.973 -0.3864 -1.3420  0.6695
  647SOL    HW2 2587   2.694   0.585   2.971 -0.1532 -1.2630  3.4265
  647SOL     MW 2588   2.706   0.501   2.949 -0.0049 -0.3674  0.5770
  648SOL     OW 2589   2.200   0.723   1.139  0.1982  0.4833 -1.1877
  648SOL    HW1 2590   2.221   0.643   1.190 -1.4325 -1.7990  1.2253
  648SOL    HW2 2591   2.213   0.794   1.203  1.9030  0.6785  1.4257
  648SOL     MW 2592   2.204   0.722   1.154  0.2080  0.2079 -0.5245
  649SOL     OW 2593   2.385   2.690   1.341  0.7023  0.2391  0.0230
  649SOL    HW1 2594   2.471   2.726   1.358  0.9062  0.0621 -2.1918
  649SOL    HW2 2595   2.380   2.593   1.330 -1.0376 -1.2008  2.0739
  649SOL     MW 2596   2.396   2.682   1.342  0.4996  0.0257  0.0014
  650SOL     OW 2597   2.842   0.237   0.684 -0.0860  0.2607  0.2881
  650SOL    HW1 2598   2.855   0.321   0.726 -1.0907 -0.1528  0.8823
  650SOL    HW2 2599   2.900   0.235   0.604 -1.4720  2.6430  1.3266
  650SOL     MW 2600   2.851   0.248   0.679 -0.4014  0.5204  0.5035
  651SOL     OW 2601   3.079   0.440   0.999  0.6963 -0.1264  0.2590
  651SOL    HW1 2602   3.155   0.462   0.937  0.5551 -0.6705  0.9414
  651SOL    HW2 2603   3.014   0.512   0.988 -0.1996  0.2787 -0.7291
  651SOL     MW 2604   3.080   0.452   0.990  0.5594 -0.1447  0.2186
  652SOL     OW 2605   2.397   1.553   3.047 -0.2920 -0.3356 -0.3517
  652SOL    HW1 2606   2.459   1.569   2.976  1.4037  1.6807 -1.3318
  652SOL    HW2 2607   2.310   1.605   3.041  1.1948 -1.5054  0.6434
  652SOL     MW 2608   2.393   1.562   3.037  0.1279 -0.2239 -0.3497
  653SOL     OW 2609   1.801   0.462   0.329 -0.1122 -0.2131 -0.3284
  653SOL    HW1 2610   1.725   0.400   0.335  2.2399  0.7923  1.8893
  653SOL    HW2 2611   1.843   0.469   0.245 -0.5612  1.1678  0.7323
  653SOL     MW 2612   1.797   0.455   0.318  0.1389  0.1017  0.1041
  654SOL     OW 2613   2.440   1.004   0.730  0.4756 -0.0696 -0.4313
  654SOL    HW1 2614   2.386   0.997   0.650  1.0372  1.1543  1.2694
  654SOL    HW2 2615   2.456   0.913   0.758 -3.3856  2.2733 -0.6185
  654SOL     MW 2616   2.435   0.992   0.723  0.0403  0.4010 -0.2316
  655SOL     OW 2617   2.898   0.852   0.390  0.3362 -0.5748  0.0169
  655SOL    HW1 2618   2.867   0.852   0.479 -2.0723  1.0508 -0.2726
  655SOL    HW2 2619   2.894   0.758   0.367 -0.4650  1.5094  1.2519
  655SOL     MW 2620   2.893   0.840   0.399 -0.0873 -0.0853  0.1416
  656SOL     OW 2621   1.759   2.664   1.362 -0.1008 -0.1684 -0.1948
  656SOL    HW1 2622   1.816   2.742   1.388 -2.5382 -0.1015 -1.2081
  656SOL    HW2 2623   1.810   2.586   1.350  0.1897  0.2735 -0.2139
  656SOL     MW 2624   1.773   2.664   1.364 -0.3840 -0.1013 -0.3311
  657SOL     OW 2625   0.151   1.760   1.168  0.2908  0.0334 -0.1019
  657SOL    HW1 2626   0.229   1.819   1.167 -2.3464  1.5323  0.7447
  657SOL    HW2 2627   0.175   1.672   1.158  1.7630  0.9307  0.2537
  657SOL     MW 2628   0.164   1.756   1.166  0.1371  0.3496  0.0567
  658SOL     OW 2629   2.646   1.298   0.250  0.1127 -0.1030 -0.1159
  658SOL    HW1 2630   2.617   1.223   0.306 -3.3452 -1.9111  2.4835
  658SOL    HW2 2631   2.684   1.367   0.312  0.1339  1.8611 -0.6335
  658SOL     MW 2632   2.647   1.297   0.266 -0.3408 -0.0824  0.1588
  659SOL     OW 2633   2.251   1.545   0.974 -0.2372 -0.1927 -0.0672
  659SOL    HW1 2634   2.340   1.505   0.979 -2.3979 -0.8139 -2.4207
  659SOL    HW2 2635   2.239   1.607   1.056 -0.0267  1.8433  1.1012
  659SOL     MW 2636   2.261   1.548   0.985 -0.4945 -0.0060 -0.2235
  660SOL     OW 2637   2.108   1.504   1.714  0.0087 -0.1990  0.6830
  660SOL    HW1 2638   2.112   1.540   1.805  1.0462 -1.5073 -0.1188
  660SOL    HW2 2639   2.015   1.475   1.707  0.7657 -0.9053 -2.9145
  660SOL     MW 2640   2.097   1.505   1.725  0.2455 -0.4648  0.1026
  661SOL     OW 2641   2.497   0.957   0.173  0.1298 -0.4680  1.4729
  661SOL    HW1 2642   2.546   1.002   0.240  2.3346  0.5585 -0.6761
  661SOL    HW2 2643   2.430   0.901   0.223  1.6745 -2.6656 -1.0025
  661SOL     MW 2644   2.494   0.956   0.189  0.6245 -0.6225  0.8627
  662SOL     OW 2645   2.591   3.013   0.905  0.1426 -0.4487 -0.0629
  662SOL    HW1 2646   2.510   3.057   0.937  0.5940 -2.1401  0.8750
  662SOL    HW2 2647   2.617   3.046   0.820  1.5057 -0.0834  0.2059
  662SOL     MW 2648   2.584   3.024   0.898  0.3820 -0.6237  0.0963
  663SOL     OW 2649   2.673   1.478   0.436 -0.3982  0.0753 -0.0860
  663SOL    HW1 2650   2.633   1.565   0.427 -0.5681  1.2776 -2.3911
  663SOL    HW2 2651   2.740   1.491   0.503 -0.5805 -2.0788 -2.6661
  663SOL     MW 2652   2.677   1.491   0.444 -0.4446 -0.0503 -0.7306
  664SOL     OW 2653   2.566   1.538   1.598 -0.4771 -0.2562  0.3424
  664SOL    HW1 2654   2.551   1.629   1.578 -0.5147 -0.2008  0.0202
  664SOL    HW2 2655   2.475   1.503   1.607  3.0496  0.1873  0.6610
  664SOL     MW 2656   2.552   1.545   1.597 -0.0167 -0.1904  0.3419
  665SOL     OW 2657   2.772   0.814   2.031 -0.1602 -0.6473 -0.0073
  665SOL    HW1 2658   2.742   0.871   1.960  0.0597  0.4085  0.9674
  665SOL    HW2 2659   2.852   0.771   1.998  0.9720  2.3589  0.7041
  665SOL     MW 2660   2.779   0.816   2.017  0.0182 -0.1114  0.2152
  666SOL     OW 2661   2.763   3.085   1.717 -0.1708 -0.2534 -0.0124
  666SOL    HW1 2662   2.749   3.083   1.620 -0.0510  1.4700 -0.2403
  666SOL    HW2 2663   2.717   3.008   1.755  0.5171 -0.6859  0.7731
  666SOL     MW 2664   2.755   3.074   1.709 -0.0643 -0.0831  0.0612
  667SOL     OW 2665   1.951   2.695   1.755  0.2679  0.4108 -0.4501
  667SOL    HW1 2666   1.978   2.660   1.839 -0.6564  0.1466 -0.5791
  667SOL    HW2 2667   2.022   2.758   1.737  0.1747  0.4764  1.5525
  667SOL     MW 2668   1.964   2.699   1.764  0.1336  0.3846 -0.2029
  668SOL     OW 2669   2.697   0.572   0.794 -0.6254 -0.2046 -0.1193
  668SOL    HW1 2670   2.777   0.598   0.839 -1.4671 -0.4575  2.4006
  668SOL    HW2 2671   2.631   0.658   0.807 -0.4740 -1.1965  1.4021
  668SOL     MW 2672   2.699   0.587   0.802 -0.7165 -0.3689  0.4139
  669SOL     OW 2673   0.137   0.868   0.748  0.3694 -0.4807  0.7606
  669SOL    HW1 2674   0.101   0.932   0.814 -1.0535  2.1143 -0.2995
  669SOL    HW2 2675   0.202   0.827   0.813 -1.3162  0.5764  2.4380
  669SOL     MW 2676   0.141   0.871   0.765 -0.0407  0.0012  0.8420
  670SOL     OW 2677   2.879   0.289   0.194  0.6363  0.1186 -0.2765
  670SOL    HW1 2678   2.907   0.254   0.103  0.8017  1.5239 -1.3461
  670SOL    HW2 2679   2.901   0.388   0.191  1.6547  1.5389 -0.2435
  670SOL     MW 2680   2.886   0.298   0.182  0.7925  0.4914 -0.4133
  671SOL     OW 2681   2.007   3.065   1.571 -0.4268  0.2295  0.3586
  671SOL    HW1 2682   1.976   2.988   1.522  1.1784  0.7071 -1.4817
  671SOL    HW2 2683   1.943   3.073   1.644 -2.4448 -2.9773 -0.3138
  671SOL     MW 2684   1.995   3.056   1.574 -0.4813 -0.1306  0.0271
  672SOL     OW 2685   1.906   1.690   1.317  0.0203 -0.3394  0.7981
  672SOL    HW1 2686   1.851   1.763   1.355  0.6848  1.9031  0.7723
  672SOL    HW2 2687   1.922   1.717   1.223 -1.5990 -0.4804 -1.8207
  672SOL     MW 2688   1.901   1.703   1.310 -0.1057 -0.0621  0.4492
  673SOL     OW 2689   2.795   1.107   0.634 -0.0582 -0.5518  0.1958
  673SOL    HW1 2690   2.813   1.018   0.664  1.8609  1.0841  1.1864
  673SOL    HW2 2691   2.882   1.150   0.627  1.6989 -1.2346 -0.5459
  673SOL     MW 2692   2.809   1.101   0.637  0.4269 -0.4261  0.2286
  674SOL     OW 2693   2.451   3.095   1.249 -0.4063  0.6182 -0.4843
  674SOL    HW1 2694   2.403   3.133   1.170  0.8147  0.1770  1.2508
  674SOL    HW2 2695   2.444   3.000   1.248  1.3217  1.3380 -3.0436
  674SOL     MW 2696   2.444   3.087   1.239 -0.0172  0.6549 -0.5930
  675SOL     OW 2697   3.045   0.880   1.092 -0.2499 -0.0316  0.4623
  675SOL    HW1 2698   3.101   0.888   1.172  0.7668 -0.5155 -0.0060
  675SOL    HW2 2699   3.074   0.949   1.040 -1.1507 -2.6316  2.1676
  675SOL     MW 2700   3.056   0.890   1.096 -0.2346 -0.4385  0.6255
  676SOL     OW 2701   2.950   1.481   1.644  0.0885  0.4000 -0.0616
  676SOL    HW1 2702   2.876   1.424   1.653 -0.0857 -1.5555 -1.4892
  676SOL    HW2 2703   3.021   1.455   1.697 -0.0938  1.1450 -1.0951
  676SOL     MW 2704   2.949   1.470   1.652  0.0414  0.2403 -0.3863
  677SOL     OW 2705   2.370   0.620   2.023  0.2629  0.7146  0.3311
  677SOL    HW1 2706   2.326   0.578   1.952  0.2874  0.1265  1.2857
  677SOL    HW2 2707   2.311   0.703   2.034 -1.4976 -0.2156  0.7021
  677SOL     MW 2708   2.356   0.625   2.015  0.0339  0.5143  0.5060
  678SOL     OW 2709   2.490   1.679   0.319 -0.4262  0.1793  0.1896
  678SOL    HW1 2710   2.428   1.718   0.375 -0.9447  1.6077 -2.9517
  678SOL    HW2 2711   2.456   1.594   0.292  2.3021  1.2664  2.1417
  678SOL     MW 2712   2.477   1.673   0.323 -0.1347  0.5112  0.0327
  679SOL     OW 2713   2.218   0.470   1.299 -0.5243 -0.1163  0.3647
  679SOL    HW1 2714   2.216   0.380   1.270  0.4708 -1.0185  1.9501
  679SOL    HW2 2715   2.152   0.459   1.369 -0.0584 -2.2069  2.7868
  679SOL     MW 2716   2.209   0.457   1.305 -0.3316 -0.5112  0.8935
  680SOL     OW 2717   2.376   0.178   1.453  0.1125 -0.2297 -0.2439
  680SOL    HW1 2718   2.280   0.196   1.466 -0.4690  1.2412 -1.0500
  680SOL    HW2 2719   2.371   0.118   1.389  0.3294  1.2273  1.9610
  680SOL     MW 2720   2.363   0.172   1.447  0.0644  0.1566 -0.0593
  681SOL     OW 2721   0.272   0.555   1.570 -0.0981  0.6626  0.4323
  681SOL    HW1 2722   0.263   0.496   1.653 -0.5078 -0.6536  2.7686
  681SOL    HW2 2723   0.360   0.536   1.534  1.7785 -0.9107 -1.8025
  681SOL     MW 2724   0.282   0.545   1.577  0.0954  0.2814  0.4457
  682SOL     OW 2725   0.131   2.824   1.537  0.1270 -0.7404  0.2454
  682SOL    HW1 2726   0.217   2.866   1.558 -0.9327  2.2404  0.7470
  682SOL    HW2 2727   0.063   2.882   1.568  0.2034 -1.5175 -1.1746
  682SOL     MW 2728   0.134   2.837   1.544 -0.0027 -0.4496  0.1242
  683SOL     OW 2729   2.063   0.791   2.944 -0.0327  0.1441 -0.0663
  683SOL    HW1 2730   1.973   0.779   2.928  2.0704  1.7059  1.3016
  683SOL    HW2 2731   2.071   0.882   2.976  1.0020 -1.2320  0.3770
  683SOL     MW 2732   2.053   0.801   2.946  0.3813  0.1686  0.1726
  684SOL     OW 2733   2.258   1.679   0.732 -0.2016 -0.4940 -0.5106
  684SOL    HW1 2734   2.201   1.633   0.673 -0.0774  2.3567  0.5167
  684SOL    HW2 2735   2.243   1.629   0.814 -1.3583 -2.3025 -1.8966
  684SOL     MW 2736   2.248   1.667   0.735 -0.3378 -0.3565 -0.5580
  685SOL     OW 2737   2.641   1.703   1.240  0.0935  0.1015  0.4702
  685SOL    HW1 2738   2.723   1.674   1.279  0.4031  1.5781  0.9561
  685SOL    HW2 2739   2.604   1.623   1.212  0.6263 -0.9221  2.1510
  685SOL     MW 2740   2.647   1.689   1.242  0.2047  0.1612  0.7561
  686SOL     OW 2741   2.908   0.741   1.474  0.1489 -0.0597 -0.4573
  686SOL    HW1 2742   2.872   0.690   1.544 -1.5214  0.1931  0.5099
  686SOL    HW2 2743   3.008   0.742   1.477 -0.7524  3.0135 -1.1039
  686SOL     MW 2744   2.917   0.735   1.483 -0.1904  0.3791 -0.4150
  687SOL     OW 2745   2.151   0.211   1.211 -0.0694  0.1331 -0.2022
  687SOL    HW1 2746   2.202   0.156   1.154  0.2970  0.2329  1.7913
  687SOL    HW2 2747   2.089   0.251   1.155 -0.2903 -0.7905  1.7666
  687SOL     MW 2748   2.149   0.209   1.196 -0.0502  0.0244  0.3206
  688SOL     OW 2749   2.430   0.595   1.465  0.4848 -0.3672  0.0240
  688SOL    HW1 2750   2.354   0.560   1.417 -0.6431 -0.6450  1.4003
  688SOL    HW2 2751   2.376   0.650   1.522 -0.6689  0.5310 -0.4513
  688SOL     MW 2752   2.412   0.598   1.466  0.1838 -0.2854  0.1428
  689SOL     OW 2753   2.485   0.697   2.952 -0.4868 -0.0131 -0.0371
  689SOL    HW1 2754   2.475   0.791   2.929  1.0312 -1.5233 -1.0954
  689SOL    HW2 2755   2.542   0.697   3.035  1.5814  1.3072 -2.3847
  689SOL     MW 2756   2.491   0.710   2.960 -0.0137 -0.0381 -0.4865
  690SOL     OW 2757   1.989   0.829   1.880  0.1568  0.2446  0.5312
  690SOL    HW1 2758   1.953   0.749   1.917  0.8395  2.2216  1.6814
  690SOL    HW2 2759   1.997   0.821   1.782  2.7452  0.4406  0.6261
  690SOL     MW 2760   1.985   0.818   1.872  0.5884  0.5313  0.6955
  691SOL     OW 2761   2.384   0.238   0.851 -0.3319 -0.4584 -0.0851
  691SOL    HW1 2762   2.460   0.263   0.899 -0.1935  0.4435 -3.3971
  691SOL    HW2 2763   2.341   0.324   0.854 -1.9948 -1.7609  3.3924
  691SOL     MW 2764   2.388   0.253   0.858 -0.5330 -0.5113 -0.0633
  692SOL     OW 2765   2.882   1.655   1.459  0.7411 -0.5338  0.0461
  692SOL    HW1 2766   2.897   1.602   1.537  1.3055 -0.7808  2.1923
  692SOL    HW2 2767   2.918   1.749   1.476  1.7380  0.4138 -0.2989
  692SOL     MW 2768   2.889   1.660   1.471  0.9471 -0.4413  0.2838
  693SOL     OW 2769   2.248   0.391   0.142 -0.2761  0.5743 -0.1893
  693SOL    HW1 2770   2.173   0.339   0.117 -2.6475  0.5312 -0.4728
  693SOL    HW2 2771   2.234   0.477   0.104  2.3079 -0.3131  1.8159
  693SOL     MW 2772   2.236   0.396   0.134 -0.2481  0.4515  0.0378
  694SOL     OW 2773   1.914   1.213   1.174 -0.3663 -0.1508 -0.4023
  694SOL    HW1 2774   2.006   1.180   1.161  1.2283  3.1248 -2.1588
  694SOL    HW2 2775   1.860   1.132   1.181  0.0049 -0.6325 -0.3537
  694SOL     MW 2776   1.919   1.198   1.173 -0.1069  0.2178 -0.6277
  695SOL     OW 2777   3.045   1.515   1.300 -1.0605  0.0739 -0.0348
  695SOL    HW1 2778   2.987   1.487   1.229  0.0306 -0.4631  1.9938
  695SOL    HW2 2779   2.986   1.570   1.364 -1.7234 -1.2858  0.6820
  695SOL     MW 2780   3.029   1.518   1.299 -1.0040 -0.1764  0.3274
  696SOL     OW 2781   2.067   1.356   0.806  0.2067  0.0002 -0.3329
  696SOL    HW1 2782   2.100   1.419   0.867  0.3361  3.1113  1.9163
  696SOL    HW2 2783   2.015   1.297   0.854  0.7017 -0.7208 -0.8678
  696SOL     MW 2784   2.064   1.356   0.821  0.2891  0.3155 -0.1067
  697SOL     OW 2785   2.907   1.028   2.170 -0.9279 -0.0952  0.2225
  697SOL    HW1 2786   2.870   1.109   2.162  0.2121 -2.5092 -0.2766
  697SOL    HW2 2787   2.866   0.970   2.106 -0.1094 -2.6612  1.9581
  697SOL     MW 2788   2.897   1.031   2.160 -0.6695 -0.7523  0.3856
  698SOL     OW 2789   2.503   0.341   0.035  0.9454 -0.0556  0.2350
  698SOL    HW1 2790   2.414   0.349   0.067 -1.6280 -0.5429 -0.5063
  698SOL    HW2 2791   2.563   0.306   0.107  4.2976 -0.4743  1.6224
  698SOL     MW 2792   2.499   0.337   0.048  1.0481 -0.1752  0.3203
  699SOL     OW 2793   1.841   1.556   2.069  0.1406  0.4417  0.0855
  699SOL    HW1 2794   1.804   1.467   2.053 -1.9494  0.4738 -0.3277
  699SOL    HW2 2795   1.928   1.570   2.034  3.4903 -1.2676 -1.7063
  699SOL     MW 2796   1.848   1.546   2.063  0.3068  0.2205 -0.2054
  700SOL     OW 2797   2.707   0.919   1.534  0.2662  0.1322  0.8213
  700SOL    HW1 2798   2.750   0.997   1.499 -1.2038  0.7801 -2.8299
  700SOL    HW2 2799   2.775   0.852   1.511 -1.7781 -1.8671  4.5587
  700SOL     MW 2800   2.722   0.921   1.526 -0.1975 -0.0461  0.8326
  701SOL     OW 2801   1.658   1.200   2.480  0.1679  0.2105 -0.6549
  701SOL    HW1 2802   1.752   1.184   2.468 -2.2834  0.5643 -2.1054
  701SOL    HW2 2803   1.647   1.259   2.558  1.3258  1.3554  2.0180
  701SOL     MW 2804   1.669   1.206   2.489 -0.0028  0.4082 -0.4936
  702SOL     OW 2805   2.153   0.411   0.843  0.0341  0.0363 -0.0952
  702SOL    HW1 2806   2.150   0.332   0.789  0.9617  0.6874  1.7901
  702SOL    HW2 2807   2.211   0.479   0.796 -1.1187  0.8320 -2.7491
  702SOL     MW 2808   2.160   0.410   0.830  0.0044  0.2272 -0.1966
  703SOL     OW 2809   2.721   1.221   1.069 -0.0030 -0.3006  0.1467
  703SOL    HW1 2810   2.689   1.208   0.983 -0.8606  0.3698  1.9425
  703SOL    HW2 2811   2.750   1.134   1.103 -1.6020  2.6465 -0.0397
  703SOL     MW 2812   2.721   1.208   1.062 -0.3271  0.1767  0.3590
  704SOL     OW 2813   3.079   1.163   0.085  0.4364  0.0891  0.4413
  704SOL    HW1 2814   2.981   1.176   0.100  1.9265  0.3480  3.6513
  704SOL    HW2 2815   3.110   1.131   0.174  3.7170 -0.6095  1.0315
  704SOL     MW 2816   3.070   1.160   0.098  1.0658  0.0311  0.9427
  705SOL     OW 2817   2.183   1.631   1.241 -0.1616  0.5945  0.5334
  705SOL    HW1 2818   2.112   1.662   1.300  0.2933  0.8919 -0.3859
  705SOL    HW2 2819   2.201   1.537   1.259 -3.5044 -0.5203 -1.5058
  705SOL     MW 2820   2.176   1.622   1.251 -0.5426  0.4867  0.1431
  706SOL     OW 2821   3.029   1.254   0.653  0.3055  0.2800 -0.1552
  706SOL    HW1 2822   3.076   1.248   0.564 -2.6923  3.0242  0.0341
  706SOL    HW2 2823   2.996   1.342   0.643  2.3846 -1.3762  0.1891
  706SOL     MW 2824   3.031   1.265   0.640  0.1843  0.4236 -0.0848
  707SOL     OW 2825   2.302   0.052   1.036 -0.3904 -0.4255  0.1141
  707SOL    HW1 2826   2.316   0.120   0.973  2.6979 -0.0948  0.5309
  707SOL    HW2 2827   2.241  -0.011   1.002 -1.1053  2.0642 -0.2953
  707SOL     MW 2828   2.296   0.053   1.023 -0.0773 -0.0534  0.1151
  708SOL     OW 2829   2.426   1.446   0.218 -0.3937  0.2867  0.1644
  708SOL    HW1 2830   2.513   1.401   0.206  0.5142 -1.0565  3.2648
  708SOL    HW2 2831   2.398   1.486   0.137  1.0200 -1.4383  1.5868
  708SOL     MW 2832   2.433   1.446   0.206 -0.0874 -0.1181  0.7612
  709SOL     OW 2833   1.758   1.636   0.198 -0.7801 -0.3483 -0.0855
  709SOL    HW1 2834   1.740   1.668   0.104  1.8834  0.8798 -1.9359
  709SOL    HW2 2835   1.679   1.666   0.247 -1.1307 -1.1012 -1.1982
  709SOL     MW 2836   1.745   1.644   0.192 -0.4749 -0.2856 -0.4765
  710SOL     OW 2837   2.172   1.159   1.166 -0.5580 -0.0979  0.0093
  710SOL    HW1 2838   2.189   1.135   1.074  1.9624 -0.3784  2.0879
  710SOL    HW2 2839   2.220   1.082   1.207  0.7410  1.0424  2.6593
  710SOL     MW 2840   2.180   1.146   1.159 -0.0541  0.0156  0.6332
  711SOL     OW 2841   2.334   0.179   1.728 -0.0253 -0.5287  0.5787
  711SOL    HW1 2842   2.424   0.168   1.767 -0.2320 -1.2170  1.7247
  711SOL    HW2 2843   2.353   0.188   1.638  0.6203  2.4877  0.3520
  711SOL     MW 2844   2.348   0.178   1.721  0.0326 -0.2216  0.7000
  712SOL     OW 2845   1.912   0.581   0.093 -0.2034  1.3088 -0.5742
  712SOL    HW1 2846   1.840   0.620   0.043  0.8546  1.3219  3.4527
  712SOL    HW2 2847   1.954   0.652   0.137  3.6886 -1.6937  0.8059
  712SOL     MW 2848   1.908   0.596   0.092  0.4497  0.9144  0.1392
  713SOL     OW 2849   2.561   0.830   1.083  0.2575  0.0799  0.1549
  713SOL    HW1 2850   2.555   0.751   1.126  1.2206  1.5390 -2.4159
  713SOL    HW2 2851   2.538   0.890   1.160 -0.3985 -1.2423  0.1799
  713SOL     MW 2852   2.557   0.827   1.099  0.2980  0.0980 -0.1810
  714SOL     OW 2853   2.204   0.196   1.995 -0.1825 -0.2164  0.1041
  714SOL    HW1 2854   2.260   0.128   2.044  2.1231 -1.3314  1.5011
  714SOL    HW2 2855   2.255   0.195   1.912 -1.8993 -1.3395  0.9369
  714SOL     MW 2856   2.218   0.187   1.990 -0.1048 -0.5117  0.3983
  715SOL     OW 2857   1.748   1.924   1.718  0.1966  0.4988  0.3162
  715SOL    HW1 2858   1.838   1.895   1.699 -1.7568  2.5513 -0.5705
  715SOL    HW2 2859   1.720   1.874   1.795 -0.7426 -2.0085  0.5979
  715SOL     MW 2860   1.756   1.914   1.726 -0.1851  0.4388  0.2364
  716SOL     OW 2861   2.295   0.592   0.711  0.6443  0.1097 -0.2017
  716SOL    HW1 2862   2.348   0.528   0.664 -1.5074 -1.2048 -0.8361
  716SOL    HW2 2863   2.236   0.630   0.642 -1.6154 -2.0479 -0.7221
  716SOL     MW 2864   2.294   0.589   0.696  0.0623 -0.3484 -0.3540
  717SOL     OW 2865   2.877   1.607   2.857 -0.4477 -0.0216 -0.0988
  717SOL    HW1 2866   2.952   1.577   2.905 -0.7875 -2.3956 -2.1137
  717SOL    HW2 2867   2.833   1.675   2.910 -0.2916  0.8974 -2.9686
  717SOL     MW 2868   2.881   1.612   2.870 -0.4719 -0.2136 -0.7433
  718SOL     OW 2869   2.700   1.424   1.330 -0.0174 -0.4035 -0.0600
  718SOL    HW1 2870   2.679   1.482   1.405  0.1461  1.7915  0.2860
  718SOL    HW2 2871   2.715   1.334   1.361 -2.1922 -0.1420 -0.4958
  718SOL     MW 2872   2.699   1.420   1.344 -0.2828 -0.0794 -0.0719
  719SOL     OW 2873   2.218   1.258   0.613  0.2028 -0.2600  0.0173
  719SOL    HW1 2874   2.302   1.301   0.609 -1.7762 -1.5416 -0.5269
  719SOL    HW2 2875   2.176   1.298   0.691 -0.2855  0.6088  0.6822
  719SOL     MW 2876   2.224   1.269   0.623 -0.1227 -0.3144  0.0332
  720SOL     OW 2877   2.810   1.207   0.064  0.3225  0.4055 -0.0606
  720SOL    HW1 2878   2.798   1.108   0.075  2.2104  0.8087 -0.3888
  720SOL    HW2 2879   2.769   1.252   0.143  1.3121 -0.2626  0.3675
  720SOL     MW 2880   2.803   1.199   0.076  0.7021  0.3706 -0.0474
  721SOL     OW 2881   2.496   0.840   1.394  0.7152  0.8241  0.7116
  721SOL    HW1 2882   2.496   0.743   1.415  0.4713  1.8679  1.2224
  721SOL    HW2 2883   2.575   0.880   1.433  0.5070  1.8668 -1.8227
  721SOL     MW 2884   2.506   0.832   1.402  0.6555  1.0994  0.4447
  722SOL     OW 2885   2.578   1.111   0.414 -0.5450 -0.1199 -0.5281
  722SOL    HW1 2886   2.511   1.165   0.457 -1.1251 -2.5270  2.8164
  722SOL    HW2 2887   2.642   1.089   0.477 -3.6417  0.8123  1.7693
  722SOL     MW 2888   2.578   1.115   0.428 -1.0301 -0.3145  0.2163
  723SOL     OW 2889   2.310   1.409   1.574  0.3802  0.4513  0.2844
  723SOL    HW1 2890   2.288   1.401   1.481  1.1547  0.4782  1.3554
  723SOL    HW2 2891   2.231   1.437   1.620 -1.0694 -0.8123  0.5982
  723SOL     MW 2892   2.297   1.412   1.567  0.2911  0.2881  0.4671
  724SOL     OW 2893   2.437   0.388   0.611  0.1104  0.5614 -0.1890
  724SOL    HW1 2894   2.420   0.320   0.676  1.1723 -1.8005 -1.8860
  724SOL    HW2 2895   2.529   0.389   0.588 -1.6077  0.6439 -0.8901
  724SOL     MW 2896   2.447   0.380   0.617  0.0238  0.2607 -0.5054
  725SOL     OW 2897   2.561   0.568   1.211  0.3352 -0.7087 -0.2221
  725SOL    HW1 2898   2.655   0.577   1.214 -2.8006  1.5433 -1.3709
  725SOL    HW2 2899   2.529   0.578   1.298 -0.6807 -3.9338  0.3969
  725SOL     MW 2900   2.569   0.570   1.223 -0.2126 -0.8371 -0.2920
  726SOL     OW 2901   2.560   2.469   0.571  0.2125 -0.2379  0.3851
  726SOL    HW1 2902   2.512   2.531   0.519 -0.2388 -1.1904 -0.9167
  726SOL    HW2 2903   2.515   2.471   0.658 -0.9892  2.1325 -3.2890
  726SOL     MW 2904   2.548   2.478   0.575 -0.0056 -0.0508 -0.2714
  727SOL     OW 2905   2.893   0.325   1.723 -0.2185 -0.1663  0.7836
  727SOL    HW1 2906   2.829   0.318   1.650  0.8231 -0.9144  2.9594
  727SOL    HW2 2907   2.845   0.335   1.803  2.1971 -0.9821 -2.9012
  727SOL     MW 2908   2.878   0.325   1.724  0.2376 -0.3726  0.5845
  728SOL     OW 2909   2.772   1.147   2.895 -0.5838 -0.7873 -0.0236
  728SOL    HW1 2910   2.783   1.221   2.835 -2.1551  0.7313 -0.2471
  728SOL    HW2 2911   2.779   1.181   2.983 -0.2859  1.4764 -1.4233
  728SOL     MW 2912   2.774   1.161   2.899 -0.7518 -0.2883 -0.2377
  729SOL     OW 2913   2.498   1.477   1.159  0.5187 -0.6197  0.6080
  729SOL    HW1 2914   2.559   1.417   1.215 -0.8510 -0.6603  0.3522
  729SOL    HW2 2915   2.557   1.506   1.088 -1.0658 -0.3507 -1.9945
  729SOL     MW 2916   2.514   1.473   1.157  0.1289 -0.5896  0.2308
  730SOL     OW 2917   2.286   1.194   0.176  0.2998  0.0292  0.3495
  730SOL    HW1 2918   2.340   1.139   0.128 -0.3714  1.5130 -0.3882
  730SOL    HW2 2919   2.324   1.282   0.162  1.2638  0.6731 -4.6025
  730SOL     MW 2920   2.298   1.198   0.168  0.3384  0.3099 -0.4012
  731SOL     OW 2921   2.775   1.970   2.884  0.1197  0.2565  0.6596
  731SOL    HW1 2922   2.728   1.966   2.799 -0.1602  2.9960  2.4787
  731SOL    HW2 2923   2.857   2.011   2.871 -0.3603  0.5456  0.7079
  731SOL     MW 2924   2.779   1.975   2.871  0.0195  0.6561  0.9060
  732SOL     OW 2925   2.216   0.902   1.345  0.3154 -0.9417  0.1050
  732SOL    HW1 2926   2.178   0.939   1.425 -1.3221 -0.9317 -0.4231
  732SOL    HW2 2927   2.311   0.900   1.364 -3.4822 -0.0428  2.7077
  732SOL     MW 2928   2.224   0.907   1.358 -0.4017 -0.8218  0.3787
  733SOL     OW 2929   2.354   2.777   3.005  0.1290  1.0178  0.3266
  733SOL    HW1 2930   2.273   2.830   2.998 -0.0399  1.9797 -2.4325
  733SOL    HW2 2931   2.343   2.688   2.975 -0.1708  0.8592  1.8451
  733SOL     MW 2932   2.342   2.773   3.000  0.0672  1.1238  0.1629
  734SOL     OW 2933   1.432   0.341   2.448  0.5772 -0.4495 -0.5662
  734SOL    HW1 2934   1.455   0.315   2.535  1.1429  1.1595 -0.2568
  734SOL    HW2 2935   1.436   0.261   2.393 -0.6614 -0.1822 -1.7148
  734SOL     MW 2936   1.436   0.327   2.452  0.4884 -0.2019 -0.6769
  735SOL     OW 2937   2.916   0.910   2.645 -0.1635  0.0727 -0.4716
  735SOL    HW1 2938   2.944   0.819   2.644  0.1843 -3.1191  0.9707
  735SOL    HW2 2939   2.951   0.929   2.731  0.3394 -0.4108 -0.7784
  735SOL     MW 2940   2.924   0.901   2.657 -0.0512 -0.4122 -0.3218
  736SOL     OW 2941   0.101   0.597   2.506  0.0880  0.3984 -0.3810
  736SOL    HW1 2942   0.124   0.675   2.459 -0.2256  1.3008  2.4776
  736SOL    HW2 2943   0.105   0.528   2.436  0.9314  3.0027 -2.2284
  736SOL     MW 2944   0.104   0.598   2.491  0.1579  0.8610 -0.2476
  737SOL     OW 2945   2.929   0.626   2.597  0.1443 -0.3410  0.2740
  737SOL    HW1 2946   2.873   0.607   2.524 -1.3446 -0.7070 -0.5066
  737SOL    HW2 2947   3.021   0.627   2.563  1.2072  2.2430 -0.7785
  737SOL     MW 2948   2.934   0.624   2.583  0.0881 -0.0484  0.0322
  738SOL     OW 2949   0.119   0.579   1.925 -0.3088  0.3182  0.7140
  738SOL    HW1 2950   0.186   0.640   1.960  2.1518  1.2602 -3.2538
  738SOL    HW2 2951   0.169   0.513   1.873  0.5127 -1.0221  2.7086
  738SOL     MW 2952   0.135   0.578   1.923  0.1242  0.2656  0.4537
  739SOL     OW 2953   2.494   0.990   2.028  0.1758 -0.3126 -0.0913
  739SOL    HW1 2954   2.415   0.940   2.009  0.0621 -1.2503 -0.0942
  739SOL    HW2 2955   2.520   1.048   1.956 -1.5635  1.0954 -0.2790
  739SOL     MW 2956   2.487   0.991   2.016 -0.0687 -0.2506 -0.1164
  740SOL     OW 2957   0.241   1.741   2.962 -0.1508  0.4731  0.2551
  740SOL    HW1 2958   0.202   1.652   2.960  0.8871  1.2253 -1.7910
  740SOL    HW2 2959   0.336   1.730   2.988  1.8444 -0.9896  0.0676
  740SOL     MW 2960   0.248   1.728   2.965  0.2494  0.3794 -0.0396
  741SOL     OW 2961   2.211   1.094   2.760 -0.4793 -0.1875  0.3543
  741SOL    HW1 2962   2.117   1.113   2.747  0.4059  3.2388  0.1745
  741SOL    HW2 2963   2.236   1.149   2.837  1.2708  0.6906 -2.6951
  741SOL     MW 2964   2.202   1.104   2.769 -0.1316  0.3804 -0.0717
  742SOL     OW 2965   1.544   1.217   2.213  0.2412 -0.5933  0.0020
  742SOL    HW1 2966   1.524   1.123   2.199  0.1250 -1.2280  0.9884
  742SOL    HW2 2967   1.568   1.232   2.307  1.1611 -2.7755 -0.8811
  742SOL     MW 2968   1.544   1.207   2.223  0.3472 -0.9649  0.0156
  743SOL     OW 2969   2.471   1.299   2.715  0.4229  0.2836  0.3837
  743SOL    HW1 2970   2.383   1.293   2.696  3.9188  0.6747 -0.9240
  743SOL    HW2 2971   2.498   1.209   2.738  1.1173 -3.0128  0.1809
  743SOL     MW 2972   2.463   1.286   2.715  0.9758 -0.0998  0.1844
  744SOL     OW 2973   2.750   0.936   1.793  0.7014 -0.8121 -0.4164
  744SOL    HW1 2974   2.676   1.008   1.802 -4.3489 -3.3800  0.8052
  744SOL    HW2 2975   2.736   0.903   1.702  0.1692 -0.6923  0.7898
  744SOL     MW 2976   2.739   0.941   1.782 -0.0351 -1.1351 -0.0961
  745SOL     OW 2977   1.691   0.461   2.484 -0.2868 -0.4474  0.2790
  745SOL    HW1 2978   1.718   0.472   2.393 -1.2579  0.3629 -1.5039
  745SOL    HW2 2979   1.607   0.416   2.478 -0.0413 -2.8630  1.3939
  745SOL     MW 2980   1.683   0.456   2.471 -0.3825 -0.6592  0.1909
  746SOL     OW 2981   1.555   1.455   1.570 -0.1697  0.9610  0.1112
  746SOL    HW1 2982   1.645   1.474   1.587 -0.3035  1.5337 -0.1673
  746SOL    HW2 2983   1.536   1.408   1.654 -0.5375 -2.6139 -0.6616
  746SOL     MW 2984   1.564   1.451   1.583 -0.2359  0.5649 -0.0275
  747SOL     OW 2985   2.548   1.136   1.814  0.3092  0.0054  0.1139
  747SOL    HW1 2986   2.463   1.158   1.768 -1.4244  0.4451 -1.2368
  747SOL    HW2 2987   2.539   1.211   1.878  1.7281  2.9967 -1.1406
  747SOL     MW 2988   2.536   1.149   1.816  0.2677  0.4581 -0.2298
  748SOL     OW 2989   0.103  -0.000   1.834 -0.4402 -0.7358  0.0099
  748SOL    HW1 2990   0.193   0.033   1.813  1.3262 -0.3181 -3.8655
  748SOL    HW2 2991   0.075   0.063   1.908  0.5346  1.2063  0.6477
  748SOL     MW 2992   0.111   0.012   1.841 -0.0785 -0.4245 -0.4173
  749SOL     OW 2993   2.456   0.515   2.743 -0.0991 -0.0563 -0.5337
  749SOL    HW1 2994   2.486   0.569   2.667 -4.0585  1.0393 -1.4667
  749SOL    HW2 2995   2.485   0.565   2.821 -0.6986  2.0135 -3.6797
  749SOL     MW 2996   2.464   0.529   2.743 -0.7006  0.3613 -1.0719
  750SOL     OW 2997   2.024   3.072   2.003  0.0500 -0.5029 -0.0229
  750SOL    HW1 2998   2.054   3.161   2.004 -1.5636 -1.2820 -1.4016
  750SOL    HW2 2999   2.102   3.027   1.979  0.6584 -1.4176  0.7762
  750SOL     MW 3000   2.038   3.078   2.000 -0.0826 -0.7264 -0.0994
  751SOL     OW 3001   0.058   0.409   2.307 -0.3107  0.1999  0.2940
  751SOL    HW1 3002  -0.018   0.362   2.336  1.4083  1.7039 -1.1712
  751SOL    HW2 3003   0.121   0.349   2.264 -1.4706 -2.0612 -1.3957
  751SOL     MW 3004   0.057   0.395   2.306 -0.2369  0.1000 -0.1222
  752SOL     OW 3005   2.137   0.822   2.683  0.4968  0.0649  0.2516
  752SOL    HW1 3006   2.207   0.885   2.662 -0.2834  1.1535 -0.5711
  752SOL    HW2 3007   2.138   0.807   2.780 -0.8550  0.2382 -0.6921
  752SOL     MW 3008   2.146   0.828   2.693  0.2155  0.2314  0.0185
  753SOL     OW 3009   2.919   0.276   2.405 -0.2902  0.7207 -0.1759
  753SOL    HW1 3010   2.876   0.206   2.350 -1.4679 -2.3616 -1.3597
  753SOL    HW2 3011   2.837   0.330   2.416 -2.3584  2.8275  0.8537
  753SOL     MW 3012   2.902   0.274   2.399 -0.7184  0.5920 -0.1963
  754SOL     OW 3013   2.268   2.980   2.608  0.1275 -0.1412  0.6911
  754SOL    HW1 3014   2.291   2.977   2.515 -0.5399  3.3507 -0.7333
  754SOL    HW2 3015   2.328   2.919   2.653 -2.3708  0.0791 -0.7401
  754SOL     MW 3016   2.279   2.971   2.601 -0.2901  0.3486  0.3144
  755SOL     OW 3017   2.719   1.520   2.507 -0.1038 -0.2046  0.0605
  755SOL    HW1 3018   2.714   1.444   2.557 -2.9303 -0.0312  0.4798
  755SOL    HW2 3019   2.780   1.581   2.555  1.3213 -1.3652  0.5760
  755SOL     MW 3020   2.726   1.518   2.520 -0.2887 -0.3348  0.1838
  756SOL     OW 3021   2.273   1.284   2.982 -0.5806  0.0398  0.1062
  756SOL    HW1 3022   2.326   1.363   3.002  0.4895  0.1364  2.1197
  756SOL    HW2 3023   2.327   1.208   3.013 -0.3190 -2.8944 -0.5590
  756SOL     MW 3024   2.287   1.285   2.989 -0.4049 -0.3346  0.2841
  757SOL     OW 3025   2.105   0.941   1.612 -0.4920  0.7317  0.0707
  757SOL    HW1 3026   2.148   0.856   1.615 -0.4434  0.3815 -1.4638
  757SOL    HW2 3027   2.033   0.927   1.547 -1.2243 -0.2852 -0.9539
  757SOL     MW 3028   2.101   0.928   1.604 -0.5822  0.5513 -0.2670
  758SOL     OW 3029   2.188   1.762   2.625 -0.0681 -0.7106  0.5305
  758SOL    HW1 3030   2.180   1.781   2.529  0.1139  2.1351  0.9748
  758SOL    HW2 3031   2.281   1.747   2.640  0.1019  0.9688 -2.0461
  758SOL     MW 3032   2.199   1.762   2.614 -0.0217 -0.1136  0.2492
  759SOL     OW 3033   1.617   1.360   2.705  0.1821 -0.2002  0.1652
  759SOL    HW1 3034   1.584   1.447   2.662  0.9105 -0.0141 -0.6882
  759SOL    HW2 3035   1.650   1.369   2.797 -0.3334 -0.4083 -0.1424
  759SOL     MW 3036   1.617   1.373   2.711  0.2102 -0.2031  0.0120
  760SOL     OW 3037   2.575   2.009   2.677 -0.2913 -0.1407 -0.1590
  760SOL    HW1 3038   2.550   1.913   2.660  1.3097  0.6080  1.4768
  760SOL    HW2 3039   2.550   2.059   2.601  0.0658  2.2001  0.2871
  760SOL     MW 3040   2.568   2.003   2.664 -0.0329  0.2669  0.1157
  761SOL     OW 3041   2.153   0.419   2.487  0.6776 -0.4613 -0.1531
  761SOL    HW1 3042   2.090   0.356   2.514 -0.9365 -0.2646 -0.6420
  761SOL    HW2 3043   2.142   0.486   2.554  1.1586  1.8298  0.1965
  761SOL     MW 3044   2.144   0.420   2.499  0.5281 -0.1331 -0.1715
  762SOL     OW 3045   0.028   0.162   2.041  0.0983  0.1461  0.4037
  762SOL    HW1 3046   0.001   0.101   2.111  0.4390 -0.3416 -0.1928
  762SOL    HW2 3047  -0.040   0.230   2.050 -0.3094 -1.6528 -0.5555
  762SOL     MW 3048   0.016   0.163   2.051  0.0895 -0.1556  0.1984
  763SOL     OW 3049   2.409   1.079   2.296 -0.8322  0.0378 -0.1574
  763SOL    HW1 3050   2.449   1.047   2.212  0.7275 -0.7187 -0.3365
  763SOL    HW2 3051   2.480   1.128   2.342 -4.2588 -0.4430 -0.6431
  763SOL     MW 3052   2.424   1.081   2.291 -1.0785 -0.1254 -0.2451
  764SOL     OW 3053   0.452   0.291   2.794  0.3830  0.0875 -0.0005
  764SOL    HW1 3054   0.374   0.250   2.771  0.4142  0.2314  2.3012
  764SOL    HW2 3055   0.445   0.363   2.856  1.1743  1.4030 -1.2319
  764SOL     MW 3056   0.441   0.295   2.799  0.4915  0.2800  0.1407
  765SOL     OW 3057   2.774   0.091   2.287  0.5571  0.2669  0.5470
  765SOL    HW1 3058   2.709   0.078   2.217  1.1235  1.5466  0.9344
  765SOL    HW2 3059   2.803  -0.002   2.311  0.8356 -1.2232 -0.6622
  765SOL     MW 3060   2.769   0.077   2.281  0.6686  0.2391  0.4386
  766SOL     OW 3061   1.876   3.000   2.230  0.0870 -0.1236  0.3673
  766SOL    HW1 3062   1.934   3.042   2.163 -0.6705  1.8144 -0.5683
  766SOL    HW2 3063   1.800   2.993   2.180 -0.8770 -1.0674  0.1443
  766SOL     MW 3064   1.873   3.004   2.215 -0.1402  0.0076  0.2145
  767SOL     OW 3065   2.632   0.622   1.928 -0.5265  0.1002 -0.3006
  767SOL    HW1 3066   2.678   0.687   1.987  0.3495 -1.6283  1.6853
  767SOL    HW2 3067   2.537   0.628   1.946 -0.1356 -0.7309 -0.3983
  767SOL     MW 3068   2.625   0.631   1.938 -0.3594 -0.2375 -0.0515
  768SOL     OW 3069   0.038   1.530   2.951  0.2648 -0.6125  0.2016
  768SOL    HW1 3070   0.010   1.492   3.036 -0.5658  2.6741  0.2015
  768SOL    HW2 3071   0.047   1.459   2.878  2.3696  0.7032 -1.2657
  768SOL     MW 3072   0.035   1.516   2.953  0.4329 -0.0052  0.0080
  769SOL     OW 3073   2.361   0.688   2.274  0.0440 -0.1669 -0.2276
  769SOL    HW1 3074   2.274   0.661   2.281  2.4691  0.9884 -0.3419
  769SOL    HW2 3075   2.381   0.670   2.183  1.2703 -0.7112  2.0576
  769SOL     MW 3076   2.352   0.682   2.263  0.5258 -0.0863  0.0588
  770SOL     OW 3077   0.083   1.601   2.595 -0.4865 -0.0711  0.1053
  770SOL    HW1 3078  -0.010   1.630   2.586 -0.0891 -2.1354  1.8824
  770SOL    HW2 3079   0.086   1.529   2.654  0.0872  2.7649 -0.6273
  770SOL     MW 3080   0.071   1.596   2.602 -0.3583  0.0307  0.2431
  771SOL     OW 3081   2.950   0.633   1.934 -0.1164  0.6024 -0.1625
  771SOL    HW1 3082   2.909   0.627   1.850  0.0786 -2.7843  2.2065
  771SOL    HW2 3083   3.046   0.628   1.927 -0.6150  0.1707 -0.5289
  771SOL     MW 3084   2.957   0.632   1.922 -0.1564  0.0986  0.1017
  772SOL     OW 3085   0.002   3.103   2.258  0.3728 -0.7249 -0.0438
  772SOL    HW1 3086  -0.071   3.063   2.300 -0.7369  0.0959 -0.8855
  772SOL    HW2 3087   0.060   3.023   2.227 -3.2288  0.9885 -0.1344
  772SOL     MW 3088   0.000   3.087   2.260 -0.2488 -0.3905 -0.1668
  773SOL     OW 3089   2.454   2.850   2.734  0.2227  0.5374  0.1684
  773SOL    HW1 3090   2.448   2.773   2.678 -2.2410 -0.1908 -0.0041
  773SOL    HW2 3091   2.432   2.823   2.823  0.2109  1.2192  1.0481
  773SOL     MW 3092   2.450   2.836   2.738 -0.1039  0.5313  0.2617
  774SOL     OW 3093   2.292   1.162   1.739 -0.3519  0.2028  0.1141
  774SOL    HW1 3094   2.271   1.247   1.692 -0.9305 -0.2957 -3.6043
  774SOL    HW2 3095   2.235   1.098   1.690  0.0882  1.7365  2.3940
  774SOL     MW 3096   2.281   1.165   1.726 -0.3701  0.3394 -0.0757
  775SOL     OW 3097   2.311   2.917   2.318 -0.5511 -0.1406 -0.3428
  775SOL    HW1 3098   2.346   2.982   2.257  1.3886 -4.1551  0.6648
  775SOL    HW2 3099   2.371   2.844   2.292  0.2903  2.1011 -1.0559
  775SOL     MW 3100   2.324   2.916   2.306 -0.1842 -0.3745 -0.3040
  776SOL     OW 3101   0.022   1.452   0.125  0.3697 -0.1660 -0.3370
  776SOL    HW1 3102   0.105   1.411   0.108 -2.4988  1.4065  1.6430
  776SOL    HW2 3103  -0.031   1.393   0.171  1.3261  3.0028 -0.5158
  776SOL     MW 3104   0.026   1.439   0.129  0.1174  0.4596 -0.0994
  777SOL     OW 3105   3.012   1.075   1.760 -0.4855 -0.4303  0.1328
  777SOL    HW1 3106   2.998   1.166   1.790  1.2940  1.5277 -1.3171
  777SOL    HW2 3107   2.929   1.033   1.765 -1.2860  0.7024  2.2250
  777SOL     MW 3108   3.000   1.082   1.764 -0.3563 -0.0225  0.2175
  778SOL     OW 3109   2.899   0.406   2.757 -0.3315 -0.0883  0.1254
  778SOL    HW1 3110   2.839   0.443   2.823  1.4554  0.4558 -1.0852
  778SOL    HW2 3111   2.911   0.471   2.691 -3.2423  0.9151 -0.0786
  778SOL     MW 3112   2.893   0.419   2.757 -0.4798  0.1158 -0.0612
  779SOL     OW 3113   2.090   0.613   2.295  0.0768  0.0777 -0.0302
  779SOL    HW1 3114   2.017   0.665   2.339 -1.9823  0.8952  1.3865
  779SOL    HW2 3115   2.109   0.553   2.360 -1.3368  2.3159 -1.8160
  779SOL     MW 3116   2.083   0.612   2.309 -0.3814  0.4809 -0.0789
  780SOL     OW 3117   0.211   0.127   2.780  0.2122 -0.0352  0.7336
  780SOL    HW1 3118   0.171   0.177   2.849 -1.2843 -2.1880  1.1139
  780SOL    HW2 3119   0.140   0.138   2.717 -1.5639 -0.4234  2.0874
  780SOL     MW 3120   0.196   0.135   2.780 -0.2196 -0.3704  0.9624
  781SOL     OW 3121   3.040   1.336   2.504 -0.8276  0.2538 -0.5390
  781SOL    HW1 3122   3.045   1.384   2.423  0.4385  0.6244  0.4494
  781SOL    HW2 3123   3.046   1.245   2.476 -0.5137 -3.2151 -1.5073
  781SOL     MW 3124   3.042   1.330   2.490 -0.6192 -0.1550 -0.5364
  782SOL     OW 3125   0.702   1.557   3.093 -0.8842  0.1391  0.4960
  782SOL    HW1 3126   0.626   1.603   3.056 -0.0057  0.3479 -0.7800
  782SOL    HW2 3127   0.661   1.526   3.171 -1.6418  0.4200  3.1133
  782SOL     MW 3128   0.686   1.559   3.099 -0.8682  0.2037  0.6730
  783SOL     OW 3129   2.713   0.471   2.425  0.2484 -0.0888  0.2527
  783SOL    HW1 3130   2.646   0.452   2.354 -0.2992  0.2682  1.2195
  783SOL    HW2 3131   2.658   0.459   2.501 -2.4275 -1.2702 -2.2718
  783SOL     MW 3132   2.697   0.467   2.425 -0.1769 -0.1976  0.0472
  784SOL     OW 3133   0.278   0.898   2.887  0.7622  0.2694 -0.7679
  784SOL    HW1 3134   0.224   0.976   2.901  2.9900  1.7377  1.1304
  784SOL    HW2 3135   0.337   0.929   2.821 -1.8143 -1.0072  3.6314
  784SOL     MW 3136   0.278   0.912   2.880  0.7162  0.2947  0.0630
  785SOL     OW 3137   0.419   0.502   2.193 -0.2205  0.0587  0.0896
  785SOL    HW1 3138   0.429   0.555   2.116  1.2009 -1.0099 -2.3015
  785SOL    HW2 3139   0.364   0.429   2.158  0.9547  0.0300  0.2370
  785SOL     MW 3140   0.413   0.499   2.178  0.1221 -0.0861 -0.2065
  786SOL     OW 3141   1.943   0.493   2.894  0.0021  0.4717 -0.1451
  786SOL    HW1 3142   1.954   0.517   2.992  1.5568 -1.2745 -2.3931
  786SOL    HW2 3143   2.027   0.463   2.855 -3.8098 -1.5116  0.9769
  786SOL     MW 3144   1.956   0.492   2.902 -0.2957 -0.0204 -0.2937
  787SOL     OW 3145   2.425   0.148   2.950 -0.1286 -0.7293  0.5397
  787SOL    HW1 3146   2.491   0.101   2.893 -1.5162 -0.6229  1.4883
  787SOL    HW2 3147   2.476   0.200   3.018 -0.1672  1.2291  1.7770
  787SOL     MW 3148   2.441   0.149   2.952 -0.3167 -0.4569  0.8281
  788SOL     OW 3149   2.871   2.944   2.363 -0.3138 -0.3095  0.3542
  788SOL    HW1 3150   2.818   2.937   2.440  0.7359  1.1644 -1.9393
  788SOL    HW2 3151   2.921   2.859   2.372  2.3260  0.0938 -1.3738
  788SOL     MW 3152   2.870   2.932   2.374  0.1730 -0.0618 -0.1764
  789SOL     OW 3153   0.090   0.315   2.951  0.3529  0.0124  0.0936
  789SOL    HW1 3154  -0.001   0.285   2.961 -0.3926 -1.2928  1.2498
  789SOL    HW2 3155   0.070   0.405   2.928  2.6329 -2.7652 -2.4224
  789SOL     MW 3156   0.076   0.323   2.949  0.5554 -0.5263 -0.0858
  790SOL     OW 3157   3.039   1.059   2.431 -0.2935  0.1991 -0.0813
  790SOL    HW1 3158   3.004   1.019   2.508  1.6040 -0.1287  0.3851
  790SOL    HW2 3159   2.986   1.032   2.354 -1.3099 -2.9781  0.5525
  790SOL     MW 3160   3.028   1.050   2.431 -0.1773 -0.2633  0.0638
  791SOL     OW 3161   2.629   0.319   2.645  1.0168 -0.2155  0.3722
  791SOL    HW1 3162   2.577   0.366   2.711 -0.2776 -2.2222 -0.2918
  791SOL    HW2 3163   2.714   0.340   2.671 -0.6603  0.0374  1.3756
  791SOL     MW 3164   2.633   0.328   2.658  0.6248 -0.4469  0.4170
  792SOL     OW 3165   2.363   0.268   2.368  0.0925 -0.0589 -0.2070
  792SOL    HW1 3166   2.286   0.328   2.380  0.2595  1.0622  0.3169
  792SOL    HW2 3167   2.388   0.237   2.457 -1.3017 -1.2697 -1.9108
  792SOL     MW 3168   2.356   0.271   2.381 -0.0694 -0.0707 -0.3627
  793SOL     OW 3169   1.850   1.078   1.973  0.1636  0.1473 -0.4891
  793SOL    HW1 3170   1.820   1.098   1.891  1.7430 -0.8430 -1.8072
  793SOL    HW2 3171   1.913   1.008   1.951 -1.0273 -1.1605  0.1734
  793SOL     MW 3172   1.854   1.071   1.960  0.2149 -0.1559 -0.5756
  794SOL     OW 3173   1.449   2.262   0.179  0.2068  0.1307 -0.3207
  794SOL    HW1 3174   1.463   2.339   0.132  0.7146 -0.6263  2.1265
  794SOL    HW2 3175   1.480   2.284   0.267 -0.2444  1.1756  0.3894
  794SOL     MW 3176   1.455   2.275   0.184  0.2143  0.1687  0.0959
  795SOL     OW 3177   2.354   0.970   2.562 -0.0721  0.1805 -0.1775
  795SOL    HW1 3178   2.303   1.036   2.614  1.8077 -0.2221  1.4369
  795SOL    HW2 3179   2.362   1.005   2.479  0.0620  0.5014  2.3704
  795SOL     MW 3180   2.348   0.983   2.558  0.1936  0.1697  0.3717
  796SOL     OW 3181   0.251   0.598   2.754 -0.7589  0.0895  0.7032
  796SOL    HW1 3182   0.194   0.673   2.789  0.3260  0.6253  2.1529
  796SOL    HW2 3183   0.215   0.583   2.665  0.1183 -1.3849  1.2987
  796SOL     MW 3184   0.239   0.606   2.747 -0.5000 -0.0343  0.9730
  797SOL     OW 3185   2.563   0.092   2.508 -0.3893 -0.5299  0.3815
  797SOL    HW1 3186   2.584   0.173   2.545  2.5165  2.1828  0.0562
  797SOL    HW2 3187   2.605   0.102   2.423  1.9242 -0.8198 -1.1728
  797SOL     MW 3188   2.571   0.104   2.502  0.2993 -0.2103  0.1335
  798SOL     OW 3189   2.341   0.050   2.177  0.1184 -0.0672 -0.7717
  798SOL    HW1 3190   2.330   0.119   2.246  0.2081 -2.1094  0.6899
  798SOL    HW2 3191   2.429   0.056   2.149  0.7341  1.0574 -2.1327
  798SOL     MW 3192   2.351   0.060   2.182  0.2115 -0.1882 -0.7584
  799SOL     OW 3193   2.454   2.916   0.127 -0.1581 -0.3604 -0.2133
  799SOL    HW1 3194   2.420   2.849   0.068  1.0595  1.2180 -0.9103
  799SOL    HW2 3195   2.385   2.982   0.128  1.5982 -0.3081 -0.3016
  799SOL     MW 3196   2.441   2.916   0.119  0.2343 -0.1453 -0.3169
  800SOL     OW 3197   1.834   3.087   1.788 -0.1527 -0.1307  0.1966
  800SOL    HW1 3198   1.801   2.993   1.776 -2.6031  0.4542  1.9206
  800SOL    HW2 3199   1.880   3.083   1.869 -0.3297  0.2728 -0.5918
  800SOL     MW 3200   1.836   3.074   1.797 -0.4994 -0.0003  0.3201
  801SOL     OW 3201   2.801   1.269   2.650  0.3603  0.1962 -0.3171
  801SOL    HW1 3202   2.771   1.193   2.610 -0.0266 -2.1315  1.8234
  801SOL    HW2 3203   2.869   1.299   2.595 -1.6847  0.2282  1.8120
  801SOL     MW 3204   2.806   1.263   2.638  0.0394 -0.1067  0.2462
  802SOL     OW 3205   2.576   1.539   2.810 -0.3171 -0.3333 -0.3599
  802SOL    HW1 3206   2.554   1.454   2.766  0.3075  1.7088  1.2924
  802SOL    HW2 3207   2.663   1.531   2.842 -0.5411  1.0093  0.9842
  802SOL     MW 3208   2.585   1.527   2.808 -0.2642  0.1133  0.0354
  803SOL     OW 3209   2.279   1.386   1.964  0.1552 -0.9200 -0.7989
  803SOL    HW1 3210   2.278   1.380   2.057 -4.0547  0.5621 -4.9709
  803SOL    HW2 3211   2.273   1.299   1.933 -0.1351 -0.4317  0.5100
  803SOL     MW 3212   2.278   1.374   1.972 -0.4386 -0.6600 -1.1766
  804SOL     OW 3213   2.282   0.043   0.056  0.5823 -0.4681  0.1316
  804SOL    HW1 3214   2.198   0.096   0.057 -0.5560 -0.7226  0.1408
  804SOL    HW2 3215   2.331   0.088  -0.017  2.2182  2.7461  0.6421
  804SOL     MW 3216   2.277   0.056   0.046  0.6480 -0.0776  0.2002
  805SOL     OW 3217   2.699   1.013   2.503 -0.0774  0.4385  0.0115
  805SOL    HW1 3218   2.708   0.968   2.419  4.5591  1.3566  0.2540
  805SOL    HW2 3219   2.754   0.964   2.562 -0.3321  0.8022  0.4323
  805SOL     MW 3220   2.707   1.001   2.500  0.5007  0.6076  0.0990
  806SOL     OW 3221   2.553   0.391   2.213  0.2291  0.0605 -0.1672
  806SOL    HW1 3222   2.482   0.344   2.260 -1.0741 -1.3003  2.4138
  806SOL    HW2 3223   2.514   0.423   2.134  1.9765  0.7237 -0.0447
  806SOL     MW 3224   2.539   0.389   2.209  0.2877 -0.0316  0.1895
  807SOL     OW 3225   0.047   1.150   2.093  0.3465 -0.2115 -0.5828
  807SOL    HW1 3226   0.107   1.086   2.045  0.6387 -0.9199 -2.5122
  807SOL    HW2 3227  -0.035   1.099   2.124 -0.6903  1.9486 -1.6306
  807SOL     MW 3228   0.044   1.135   2.091  0.2483 -0.0200 -0.9756
  808SOL     OW 3229   2.578   3.092   2.770  0.1243  0.1945  0.6570
  808SOL    HW1 3230   2.537   3.004   2.769  1.2052 -0.7312  1.4831
  808SOL    HW2 3231   2.577   3.123   2.677  1.7345  1.2849 -4.7830
  808SOL     MW 3232   2.573   3.085   2.758  0.4794  0.2162  0.0482
  809SOL     OW 3233   2.565   1.271   2.413 -0.2030 -0.2370  0.0655
  809SOL    HW1 3234   2.597   1.246   2.501 -0.2014  1.6744 -1.9295
  809SOL    HW2 3235   2.641   1.282   2.361 -0.8331 -1.2999  2.3209
  809SOL     MW 3236   2.579   1.269   2.418 -0.2859 -0.1250  0.0999
  810SOL     OW 3237   2.263   1.297   2.234  0.0018 -0.1748 -0.0686
  810SOL    HW1 3238   2.320   1.218   2.258  0.8518 -1.4102  1.3487
  810SOL    HW2 3239   2.168   1.274   2.237 -1.8273 -0.5471  0.0887
  810SOL     MW 3240   2.258   1.284   2.237 -0.1274 -0.3869  0.1392
  811SOL     OW 3241   1.543   0.134   2.271 -0.4919  0.0601  0.3204
  811SOL    HW1 3242   1.617   0.098   2.336  0.6447 -0.2275  0.1320
  811SOL    HW2 3243   1.592   0.126   2.191 -1.2561 -0.6641 -1.4125
  811SOL     MW 3244   1.560   0.128   2.269 -0.4428 -0.0734  0.0669
  812SOL     OW 3245   1.446   2.804   2.118 -0.4776 -0.8778 -0.2968
  812SOL    HW1 3246   1.541   2.810   2.086 -0.3247  0.9384 -0.8944
  812SOL    HW2 3247   1.460   2.815   2.213 -0.8696 -0.2936  0.9419
  812SOL     MW 3248   1.460   2.806   2.126 -0.5091 -0.5611 -0.2122
  813SOL     OW 3249   1.788   0.715   2.191 -0.6208 -0.1141  0.1863
  813SOL    HW1 3250   1.763   0.622   2.210 -0.2903  0.9957  1.5159
  813SOL    HW2 3251   1.804   0.760   2.276 -0.2652  2.9134 -0.5114
  813SOL     MW 3252   1.787   0.709   2.205 -0.5303  0.4318  0.2697
  814SOL     OW 3253   2.794   1.268   1.674 -0.2640 -0.7569  0.0289
  814SOL    HW1 3254   2.705   1.281   1.703  1.6710  0.1266 -0.7750
  814SOL    HW2 3255   2.801   1.232   1.586  3.0541  2.0475  0.7391
  814SOL     MW 3256   2.783   1.265   1.666  0.4291 -0.2704  0.0166
  815SOL     OW 3257   2.484   1.647   2.431  0.1907  0.5235 -0.1412
  815SOL    HW1 3258   2.417   1.578   2.432  0.2209 -2.9750 -1.0376
  815SOL    HW2 3259   2.562   1.596   2.449  3.1721 -3.1483 -2.0504
  815SOL     MW 3260   2.485   1.631   2.433  0.5881 -0.4226 -0.5114
  816SOL     OW 3261   0.763   0.687   2.717  0.5834 -1.0048  0.0554
  816SOL    HW1 3262   0.774   0.612   2.771  0.6121  1.4429 -1.2349
  816SOL    HW2 3263   0.666   0.700   2.706 -0.5387  0.7199  1.0377
  816SOL     MW 3264   0.752   0.679   2.723  0.4391 -0.4543  0.0148
  817SOL     OW 3265   3.029   1.261   1.394  0.0230 -0.9110 -0.0518
  817SOL    HW1 3266   3.110   1.236   1.435 -1.8412 -0.5541  0.3838
  817SOL    HW2 3267   3.042   1.355   1.378  0.1063 -1.5083  1.6106
  817SOL     MW 3268   3.042   1.270   1.397 -0.2120 -0.9427  0.2250
  818SOL     OW 3269   1.946   1.002   2.730 -0.4367  0.1305  0.2606
  818SOL    HW1 3270   1.929   1.045   2.646 -1.1487 -1.8918 -0.4527
  818SOL    HW2 3271   2.016   0.932   2.714 -0.4549 -2.1702  1.7972
  818SOL     MW 3272   1.953   0.999   2.717 -0.5330 -0.4398  0.3692
  819SOL     OW 3273   1.898   0.280   2.472 -0.0268  0.2799  0.2150
  819SOL    HW1 3274   1.823   0.338   2.476  0.4848 -3.3630 -0.2143
  819SOL    HW2 3275   1.934   0.287   2.567  0.8604  0.9693  2.1071
  819SOL     MW 3276   1.893   0.289   2.485  0.1578 -0.1098  0.4080
  820SOL     OW 3277   2.458   1.761   2.678  0.0504  0.2949 -0.0821
  820SOL    HW1 3278   2.498   1.684   2.727 -1.8145  1.2521  2.1049
  820SOL    HW2 3279   2.468   1.733   2.589 -0.8200 -0.6942  0.0769
  820SOL     MW 3280   2.465   1.747   2.673 -0.3105  0.2907  0.2275
  821SOL     OW 3281   2.569   1.351   2.000 -0.0295  0.0254  0.3336
  821SOL    HW1 3282   2.610   1.416   1.941  1.5225 -1.0362  0.5057
  821SOL    HW2 3283   2.474   1.371   2.005  0.6623 -1.6028 -1.8204
  821SOL     MW 3284   2.562   1.362   1.993  0.2666 -0.3295  0.0721
  822SOL     OW 3285   2.818   2.615   1.487 -0.3117  0.8565 -0.0075
  822SOL    HW1 3286   2.854   2.641   1.573  2.4226  2.3355 -0.2822
  822SOL    HW2 3287   2.774   2.688   1.454  0.2088 -1.4333  0.6890
  822SOL     MW 3288   2.817   2.628   1.494  0.1177  0.7495  0.0482
  823SOL     OW 3289   2.251   0.462   1.791 -0.1388 -0.3665  0.3330
  823SOL    HW1 3290   2.327   0.422   1.745  0.8869  0.1399 -0.1136
  823SOL    HW2 3291   2.173   0.431   1.750  2.7035  0.4369 -1.9435
  823SOL     MW 3292   2.251   0.453   1.780  0.3716 -0.1937 -0.0263
  824SOL     OW 3293   2.071   1.380   2.538 -0.3136 -0.3611 -0.9075
  824SOL    HW1 3294   2.165   1.410   2.521  0.0550 -0.5739 -1.6402
  824SOL    HW2 3295   2.050   1.427   2.625  1.3385  0.5272 -1.5160
  824SOL     MW 3296   2.081   1.390   2.547 -0.0470 -0.2719 -1.0844
  825SOL     OW 3297   2.099   2.565   0.291  0.2696 -0.2279  0.2773
  825SOL    HW1 3298   2.135   2.547   0.378  0.2469  3.0439 -0.9381
  825SOL    HW2 3299   2.137   2.511   0.219 -0.5395 -1.1797  1.1403
  825SOL     MW 3300   2.109   2.555   0.293  0.1599  0.0782  0.2308
  826SOL     OW 3301   1.934   2.330   0.550 -0.3165  0.0881  0.2532
  826SOL    HW1 3302   1.865   2.267   0.581 -1.5550  0.3704  1.4237
  826SOL    HW2 3303   1.925   2.412   0.608  1.0401  1.1392  1.6152
  826SOL     MW 3304   1.924   2.332   0.562 -0.3010  0.2640  0.5873
  827SOL     OW 3305   1.977   2.186   0.840  0.0373  0.0073 -0.2044
  827SOL    HW1 3306   1.892   2.220   0.812 -0.1409 -1.9574 -2.2993
  827SOL    HW2 3307   1.954   2.106   0.881 -0.3209 -1.3103 -1.1334
  827SOL     MW 3308   1.963   2.180   0.842 -0.0335 -0.4257 -0.6034
  828SOL     OW 3309   0.048   2.674   0.546 -0.1271 -0.5137 -0.4907
  828SOL    HW1 3310   0.143   2.679   0.553  1.8958 -0.5758 -2.8730
  828SOL    HW2 3311   0.028   2.702   0.453 -0.7994  3.7956 -1.3426
  828SOL     MW 3312   0.058   2.679   0.535  0.0511  0.0467 -0.9174
  829SOL     OW 3313   2.991   2.932   1.254  0.2857  0.1991 -0.3606
  829SOL    HW1 3314   2.927   2.934   1.183 -3.4086 -1.5359  0.3025
  829SOL    HW2 3315   3.047   2.859   1.234 -2.5972 -0.9321  1.3972
  829SOL     MW 3316   2.990   2.923   1.242 -0.5821 -0.1791 -0.0412
  830SOL     OW 3317   2.499   2.873   2.037 -0.2194  0.1065  0.0313
  830SOL    HW1 3318   2.406   2.854   2.006 -3.0240  0.9374  0.8632
  830SOL    HW2 3319   2.551   2.868   1.960 -0.2463 -1.0573  1.3482
  830SOL     MW 3320   2.494   2.870   2.023 -0.5930  0.0626  0.3148
  831SOL     OW 3321   2.385   2.422   1.238  0.0435  0.4465 -0.3514
  831SOL    HW1 3322   2.342   2.349   1.289 -0.7688 -0.5644  1.4631
  831SOL    HW2 3323   2.477   2.402   1.255 -0.2620  1.9498 -1.3963
  831SOL     MW 3324   2.392   2.409   1.247 -0.1040  0.5115 -0.2499
  832SOL     OW 3325   2.435   2.217   1.893 -0.0180 -0.6427 -0.4410
  832SOL    HW1 3326   2.435   2.317   1.875  0.6938 -0.4172 -0.0816
  832SOL    HW2 3327   2.529   2.183   1.884 -0.4324 -4.1384  1.3874
  832SOL     MW 3328   2.448   2.225   1.889  0.0212 -1.0741 -0.1524
  833SOL     OW 3329   1.786   2.467   0.917  0.6398  0.7656 -0.5195
  833SOL    HW1 3330   1.713   2.426   0.969 -0.9914 -0.5622  0.4869
  833SOL    HW2 3331   1.782   2.549   0.967 -2.3911  3.9939  2.8279
  833SOL     MW 3332   1.776   2.472   0.931  0.0247  1.0164  0.0550
  834SOL     OW 3333   2.223   2.450   0.512 -0.3723 -0.0022 -0.2482
  834SOL    HW1 3334   2.156   2.387   0.531  1.3981 -1.7115 -1.0487
  834SOL    HW2 3335   2.283   2.399   0.447 -0.1300 -2.5087 -1.5006
  834SOL     MW 3336   2.222   2.435   0.506 -0.1067 -0.5584 -0.5191
  835SOL     OW 3337   1.861   2.588   0.690  0.3104  0.2506  0.2278
  835SOL    HW1 3338   1.851   2.541   0.779  1.5048 -2.1541 -1.1704
  835SOL    HW2 3339   1.929   2.641   0.728  0.8439  2.0840  0.2566
  835SOL     MW 3340   1.868   2.589   0.707  0.5383  0.1753  0.0471
  836SOL     OW 3341   1.976   2.144   1.663  0.5147  0.3478 -0.2510
  836SOL    HW1 3342   2.071   2.150   1.659  1.1047  0.4193  0.9297
  836SOL    HW2 3343   1.964   2.206   1.734  0.5528 -0.5646 -0.5552
  836SOL     MW 3344   1.987   2.153   1.672  0.5975  0.2369 -0.1353
  837SOL     OW 3345   2.083   0.189   0.705 -0.1671 -0.1166 -0.3825
  837SOL    HW1 3346   2.004   0.234   0.658 -0.3198  1.3663 -1.2529
  837SOL    HW2 3347   2.135   0.135   0.641 -0.7215 -0.9260  1.7239
  837SOL     MW 3348   2.080   0.188   0.691 -0.2604 -0.0277 -0.2195
  838SOL     OW 3349   2.915   2.023   0.910 -0.1451  0.1627  0.1505
  838SOL    HW1 3350   2.838   1.978   0.947  0.7873  0.7545  0.3119
  838SOL    HW2 3351   2.959   1.961   0.854 -0.2457 -0.6318 -1.3762
  838SOL     MW 3352   2.910   2.009   0.908 -0.0354  0.1360 -0.0297
  839SOL     OW 3353   1.477   2.352   0.922  0.0967  0.3901  0.2049
  839SOL    HW1 3354   1.476   2.439   0.963  0.3193 -0.2487  2.0492
  839SOL    HW2 3355   1.524   2.286   0.976  1.6509  1.3113  1.5959
  839SOL     MW 3356   1.483   2.355   0.935  0.3311  0.4274  0.6318
  840SOL     OW 3357   2.289   2.066   2.403 -0.4737 -0.2434 -0.3928
  840SOL    HW1 3358   2.241   2.144   2.372  2.1359 -1.0595  3.1404
  840SOL    HW2 3359   2.372   2.090   2.437 -0.8520  0.3234  2.4606
  840SOL     MW 3360   2.293   2.079   2.404 -0.1793 -0.2763  0.4498
  841SOL     OW 3361   2.182   2.437   0.051  0.1939  0.1199 -0.4251
  841SOL    HW1 3362   2.214   2.451  -0.040  3.3954 -0.9265 -2.1155
  841SOL    HW2 3363   2.124   2.356   0.042 -1.2191  1.4340 -1.6885
  841SOL     MW 3364   2.178   2.428   0.038  0.4299  0.1552 -0.8148
  842SOL     OW 3365   2.678   1.998   1.569  0.4894 -0.3629  0.8024
  842SOL    HW1 3366   2.611   1.931   1.574 -0.5645  1.5596 -1.4341
  842SOL    HW2 3367   2.656   2.049   1.484 -1.2842 -1.4548 -5.1286
  842SOL     MW 3368   2.666   1.996   1.558  0.1164 -0.2533 -0.2752
  843SOL     OW 3369   2.665   2.853   1.818  0.2069 -0.6442 -0.6206
  843SOL    HW1 3370   2.750   2.815   1.821  0.7226  1.5115  1.8069
  843SOL    HW2 3371   2.622   2.774   1.780 -1.2273 -1.9528  0.6158
  843SOL     MW 3372   2.670   2.837   1.813  0.0857 -0.5325 -0.1372
  844SOL     OW 3373   2.655   2.339   1.210 -0.4239  0.2776  0.1409
  844SOL    HW1 3374   2.696   2.383   1.135 -2.1216  0.4407  2.9645
  844SOL    HW2 3375   2.728   2.334   1.275  3.3512  1.2889 -3.7291
  844SOL     MW 3376   2.670   2.344   1.208 -0.1498  0.4325  0.0029
  845SOL     OW 3377   2.828   2.519   0.333 -0.3399 -0.0391  0.4886
  845SOL    HW1 3378   2.764   2.445   0.347 -1.3896  0.8660 -1.7821
  845SOL    HW2 3379   2.836   2.574   0.419  1.2548  4.4079  1.4437
  845SOL     MW 3380   2.821   2.516   0.346 -0.2680  0.6671  0.3150
  846SOL     OW 3381   1.513   2.812   0.840 -0.7077 -0.5646  0.4138
  846SOL    HW1 3382   1.590   2.875   0.838 -3.2387  0.9942 -1.6565
  846SOL    HW2 3383   1.441   2.867   0.869  2.0804  1.0724  1.5128
  846SOL     MW 3384   1.514   2.828   0.844 -0.6738 -0.1429  0.2856
  847SOL     OW 3385   2.513   1.942   0.177 -0.2429 -0.2325  0.0425
  847SOL    HW1 3386   2.559   1.860   0.202 -1.8858 -4.2484 -0.4507
  847SOL    HW2 3387   2.450   1.914   0.108  1.9021 -1.1131  0.3977
  847SOL     MW 3388   2.511   1.928   0.171 -0.1767 -0.8785  0.0243
  848SOL     OW 3389   2.573   2.102   1.342  0.1512  0.5069 -0.8238
  848SOL    HW1 3390   2.621   2.158   1.286 -0.6790 -3.9760 -0.8376
  848SOL    HW2 3391   2.572   2.014   1.299  2.9044 -0.8589 -0.9111
  848SOL     MW 3392   2.580   2.098   1.329  0.4049 -0.2648 -0.8371
  849SOL     OW 3393   2.037   2.794   0.781 -0.3719 -0.1909  0.1553
  849SOL    HW1 3394   2.045   2.750   0.867  3.7725  0.7714 -1.3111
  849SOL    HW2 3395   2.118   2.763   0.732  0.3400 -3.3734 -0.7950
  849SOL     MW 3396   2.049   2.784   0.786  0.2688 -0.4838 -0.1636
  850SOL     OW 3397   2.252   1.857   1.696 -0.1440 -0.3860 -0.3394
  850SOL    HW1 3398   2.193   1.803   1.640  4.1619  1.8080 -1.3113
  850SOL    HW2 3399   2.246   1.950   1.667  0.5229 -1.3803 -1.6718
  850SOL     MW 3400   2.243   1.862   1.684  0.5121 -0.2277 -0.6434
  851SOL     OW 3401   2.361   2.356   0.296  0.1390  0.3460 -0.6070
  851SOL    HW1 3402   2.347   2.350   0.202  1.0787  0.0629 -2.9516
  851SOL    HW2 3403   2.460   2.359   0.300  1.1287 -2.3727 -0.6598
  851SOL     MW 3404   2.372   2.356   0.284  0.3936 -0.0501 -0.9233
  852SOL     OW 3405   2.314   2.091   0.332 -0.0430  0.2118 -0.0761
  852SOL    HW1 3406   2.335   2.183   0.323  0.9630 -1.5481  1.3694
  852SOL    HW2 3407   2.388   2.049   0.282 -1.8301  0.8000 -1.3406
  852SOL     MW 3408   2.326   2.097   0.324 -0.1460  0.0572 -0.0523
  853SOL     OW 3409   2.460   2.493   1.943  0.4682 -0.5969 -0.8005
  853SOL    HW1 3410   2.473   2.538   1.856 -3.2768  0.2064 -2.1793
  853SOL    HW2 3411   2.546   2.475   1.983  0.7193  2.0461 -0.0652
  853SOL     MW 3412   2.473   2.497   1.936  0.0072 -0.1422 -0.8854
  854SOL     OW 3413   2.865   2.280   0.777 -0.1648  0.6000 -0.2279
  854SOL    HW1 3414   2.785   2.234   0.747 -1.8364  1.2836  0.5839
  854SOL    HW2 3415   2.909   2.220   0.847  3.2608  0.0935  0.9883
  854SOL     MW 3416   2.861   2.266   0.782  0.0666  0.6233  0.0397
  855SOL     OW 3417   2.640   2.324   0.352 -0.3684  0.6076 -0.0640
  855SOL    HW1 3418   2.624   2.344   0.447 -0.2107  0.0209  2.6552
  855SOL    HW2 3419   2.710   2.256   0.335 -0.0019 -2.8776 -2.8108
  855SOL     MW 3420   2.647   2.317   0.362 -0.2992  0.0704 -0.0676
  856SOL     OW 3421   2.135   1.949   0.192 -0.6018  0.4374 -0.0175
  856SOL    HW1 3422   2.054   1.948   0.243  1.3168  1.4726 -1.0658
  856SOL    HW2 3423   2.192   2.012   0.243 -1.3453  2.9537  0.6978
  856SOL     MW 3424   2.132   1.957   0.206 -0.4467  0.9060 -0.0615
  857SOL     OW 3425   2.478   1.978   0.554 -0.1584 -0.3190  0.1489
  857SOL    HW1 3426   2.395   1.998   0.499 -2.0573  1.0248  0.7005
  857SOL    HW2 3427   2.429   1.975   0.632 -1.6988  0.0094 -2.0977
  857SOL     MW 3428   2.461   1.980   0.557 -0.6122 -0.0983 -0.0747
  858SOL     OW 3429   2.866   2.680   1.746 -0.0960  0.9980 -0.0648
  858SOL    HW1 3430   2.956   2.719   1.763 -0.1447 -1.2704 -2.6172
  858SOL    HW2 3431   2.874   2.589   1.762  1.2276  3.2747  0.4764
  858SOL     MW 3432   2.879   2.673   1.750  0.0722  0.9991 -0.3302
  859SOL     OW 3433   2.143   2.581   0.908  0.0778  0.3083 -0.1750
  859SOL    HW1 3434   2.084   2.514   0.935  0.5063 -1.4063 -0.1249
  859SOL    HW2 3435   2.231   2.550   0.899 -0.0181  0.7562  2.7264
  859SOL     MW 3436   2.147   2.568   0.911  0.1217  0.1412  0.2144
  860SOL     OW 3437   2.690   2.587   0.120  0.3564 -0.4674 -0.1507
  860SOL    HW1 3438   2.741   2.592   0.208 -2.7439  3.6244 -0.0674
  860SOL    HW2 3439   2.658   2.672   0.096  1.2173  0.8237  2.2129
  860SOL     MW 3440   2.693   2.599   0.129  0.0609  0.2428  0.1721
  861SOL     OW 3441   1.616   2.171   1.110  0.1412 -0.1078  0.0929
  861SOL    HW1 3442   1.615   2.247   1.171  0.9545  1.5697  0.5355
  861SOL    HW2 3443   1.549   2.117   1.152  1.1587  0.2360  2.3394
  861SOL     MW 3444   1.607   2.174   1.123  0.3827  0.1589  0.4477
  862SOL     OW 3445   2.476   1.810   1.541 -0.2480 -0.2336 -0.5676
  862SOL    HW1 3446   2.398   1.814   1.600 -0.4522  0.6121  1.4006
  862SOL    HW2 3447   2.441   1.806   1.451  0.6740  1.9736 -1.8120
  862SOL     MW 3448   2.462   1.810   1.537 -0.1533  0.1692 -0.4721
  863SOL     OW 3449   3.003   1.752   1.034 -0.0215  0.0409  0.4680
  863SOL    HW1 3450   3.088   1.747   1.084 -0.9976 -0.4335 -0.1233
  863SOL    HW2 3451   2.971   1.834   1.067 -0.5892  0.7649 -3.6406
  863SOL     MW 3452   3.010   1.762   1.045 -0.2252  0.0738 -0.1521
  864SOL     OW 3453   3.069   1.843   0.781  0.6377 -0.1250  0.7611
  864SOL    HW1 3454   3.038   1.800   0.865 -1.6959 -1.9926  1.1320
  864SOL    HW2 3455   3.013   1.796   0.713  1.4487 -1.5085 -1.9431
  864SOL     MW 3456   3.057   1.831   0.783  0.4369 -0.5539  0.4533
  865SOL     OW 3457   2.475   2.201   0.051 -0.3184 -0.0859  0.2797
  865SOL    HW1 3458   2.492   2.106   0.059  3.3987  2.4860  2.8413
  865SOL    HW2 3459   2.409   2.216  -0.013 -1.8563 -0.2571  4.6864
  865SOL     MW 3460   2.468   2.190   0.044 -0.0309  0.2308  1.1991
  866SOL     OW 3461   2.679   2.335   1.664  0.0058  0.0349 -0.4150
  866SOL    HW1 3462   2.669   2.255   1.719  1.2127 -1.0011 -2.0597
  866SOL    HW2 3463   2.741   2.318   1.587  1.0003 -1.1768 -1.3418
  866SOL     MW 3464   2.686   2.322   1.661  0.2963 -0.2617 -0.7543
  867SOL     OW 3465   0.056   2.687   1.780  0.4975 -0.7452 -0.3058
  867SOL    HW1 3466   0.084   2.748   1.844 -0.4981  3.2976 -0.3019
  867SOL    HW2 3467   0.069   2.725   1.694  2.7578 -1.4709  0.3967
  867SOL     MW 3468   0.061   2.700   1.777  0.6644 -0.3076 -0.2126
  868SOL     OW 3469   2.775   2.667   0.553 -0.1506  0.8037  0.4725
  868SOL    HW1 3470   2.696   2.619   0.538  0.2290  1.7353 -0.5305
  868SOL    HW2 3471   2.765   2.747   0.506 -0.5789  0.8092  0.3743
  868SOL     MW 3472   2.763   2.671   0.545 -0.1570  0.9274  0.3272
  869SOL     OW 3473   2.061   2.308   1.056  0.3490  0.2213  0.1633
  869SOL    HW1 3474   2.158   2.318   1.051  1.8041  0.1041  0.8442
  869SOL    HW2 3475   2.028   2.264   0.971 -1.5573  0.0608  0.0840
  869SOL     MW 3476   2.070   2.304   1.044  0.2895  0.1847  0.2427
  870SOL     OW 3477   2.127   0.021   0.484  0.2781 -0.5710  0.5235
  870SOL    HW1 3478   2.203   0.062   0.433  2.4215 -0.8024  0.1828
  870SOL    HW2 3479   2.166  -0.060   0.515 -2.2070  0.5381  1.5147
  870SOL     MW 3480   2.142   0.015   0.482  0.2330 -0.4552  0.6094
  871SOL     OW 3481   2.445   2.036   0.965 -0.7458  0.3154 -0.0974
  871SOL    HW1 3482   2.388   2.025   0.890  1.6513  0.7935 -0.2214
  871SOL    HW2 3483   2.400   2.109   1.012 -0.5232  0.6185  2.6602
  871SOL     MW 3484   2.431   2.044   0.962 -0.4002  0.4185  0.2501
  872SOL     OW 3485   2.039   2.495   1.551  0.3502  0.2053 -0.0849
  872SOL    HW1 3486   1.967   2.547   1.576 -0.4941 -0.9811 -1.6304
  872SOL    HW2 3487   1.996   2.435   1.495  4.0389 -0.6841 -0.1900
  872SOL     MW 3488   2.024   2.494   1.547  0.7255 -0.0686 -0.3027
  873SOL     OW 3489   2.903   2.047   1.963 -0.6012 -0.0028  0.2677
  873SOL    HW1 3490   2.879   2.107   2.035  2.6857  1.1646  1.2064
  873SOL    HW2 3491   2.987   2.078   1.919  2.7601  0.5592  1.9909
  873SOL     MW 3492   2.911   2.059   1.967  0.2760  0.2254  0.6189
  874SOL     OW 3493   2.333   1.430   2.467 -0.0475  0.1157  0.4345
  874SOL    HW1 3494   2.301   1.394   2.385  2.0439 -1.7153 -0.3912
  874SOL    HW2 3495   2.425   1.399   2.477  0.7861  0.0340  0.5682
  874SOL     MW 3496   2.341   1.421   2.457  0.3384 -0.1366  0.3432
  875SOL     OW 3497   2.338   2.295   0.998  0.1392 -0.0073 -0.6734
  875SOL    HW1 3498   2.382   2.361   0.944  0.9905  0.6471  2.0774
  875SOL    HW2 3499   2.365   2.323   1.087 -1.9066  1.1048  0.4494
  875SOL     MW 3500   2.347   2.308   1.002 -0.0184  0.2258 -0.1623
  876SOL     OW 3501   3.061   2.291   1.346  0.6473 -0.4957  1.0472
  876SOL    HW1 3502   3.098   2.318   1.254  0.9938 -0.8147  0.4608
  876SOL    HW2 3503   3.135   2.311   1.408 -2.8376  0.8671  2.8707
  876SOL     MW 3504   3.075   2.297   1.342  0.2332 -0.3580  1.2104
  877SOL     OW 3505   0.013   2.790   0.302 -0.1128  0.2635 -0.5860
  877SOL    HW1 3506   0.083   2.857   0.291  1.2423 -0.7624 -0.5366
  877SOL    HW2 3507   0.027   2.737   0.225 -0.4957  0.3901  1.2107
  877SOL     MW 3508   0.024   2.792   0.290  0.0155  0.1449 -0.3424
  878SOL     OW 3509   2.380   1.810   1.262  0.6593 -0.4864 -0.3726
  878SOL    HW1 3510   2.317   1.733   1.268 -0.5038  3.0660 -1.9631
  878SOL    HW2 3511   2.467   1.764   1.244  1.3347 -1.3957  2.3971
  878SOL     MW 3512   2.383   1.794   1.261  0.5950 -0.1377 -0.2170
  879SOL     OW 3513   2.749   2.439   0.972 -0.0015 -0.0407 -0.1101
  879SOL    HW1 3514   2.788   2.525   0.966 -1.7649 -1.7579 -1.8226
  879SOL    HW2 3515   2.806   2.387   0.913 -0.0881 -1.5075 -1.0380
  879SOL     MW 3516   2.762   2.443   0.964 -0.2456 -0.4608 -0.4585
  880SOL     OW 3517   2.610   2.158   0.729 -0.2154  0.0494  0.1372
  880SOL    HW1 3518   2.570   2.130   0.813  0.1999 -0.8182 -3.3463
  880SOL    HW2 3519   2.607   2.084   0.661  0.8799 -1.4984 -2.5466
  880SOL     MW 3520   2.605   2.144   0.731 -0.0161 -0.2693 -0.6765
  881SOL     OW 3521   2.958   2.702   0.740  0.3963 -0.3708 -0.1358
  881SOL    HW1 3522   2.891   2.681   0.678 -0.1901  0.3766 -1.7404
  881SOL    HW2 3523   3.036   2.687   0.689 -0.0085  1.1071  2.3632
  881SOL     MW 3524   2.960   2.698   0.725  0.2655 -0.0772 -0.0178
  882SOL     OW 3525   2.232   2.895   1.957  0.1768 -0.0613  0.2683
  882SOL    HW1 3526   2.229   2.895   1.857  0.7684 -0.7520  2.4361
  882SOL    HW2 3527   2.172   2.813   1.977 -2.9252 -3.1393  0.6521
  882SOL     MW 3528   2.224   2.884   1.946 -0.1544 -0.5585  0.6049
  883SOL     OW 3529   2.330   2.204   1.397  0.3820  0.0918  0.1603
  883SOL    HW1 3530   2.416   2.157   1.371  1.5197  0.0624 -0.5498
  883SOL    HW2 3531   2.262   2.171   1.337 -2.2110  1.6196 -0.5714
  883SOL     MW 3532   2.332   2.193   1.385  0.1900  0.2895 -0.0299
  884SOL     OW 3533   1.947   1.801   1.064  0.0847  0.2584 -0.0766
  884SOL    HW1 3534   1.883   1.874   1.048 -2.1155  2.5106  2.5967
  884SOL    HW2 3535   2.039   1.843   1.076  2.7177  3.6037 -1.6170
  884SOL     MW 3536   1.950   1.817   1.063  0.1418  0.9969  0.0729
  885SOL     OW 3537   2.875   2.400   1.832 -0.3918 -0.0043 -0.2990
  885SOL    HW1 3538   2.932   2.322   1.829 -0.8961  0.7591  0.8127
  885SOL    HW2 3539   2.813   2.385   1.763 -0.1318 -0.2104  1.0089
  885SOL     MW 3540   2.874   2.388   1.822 -0.4241  0.0693  0.0202
  886SOL     OW 3541   2.827   2.351   1.426 -0.3149  0.3439 -0.9682
  886SOL    HW1 3542   2.915   2.329   1.407 -0.4035 -0.5992  3.6239
  886SOL    HW2 3543   2.824   2.449   1.431  2.5439  1.7264 -1.0510
  886SOL     MW 3544   2.838   2.361   1.424  0.0506  0.4019 -0.3732
  887SOL     OW 3545   2.275   2.629   1.575 -0.2530 -0.5306 -0.1594
  887SOL    HW1 3546   2.309   2.667   1.491  0.1425  4.1126  0.4272
  887SOL    HW2 3547   2.191   2.586   1.555 -1.0245 -0.0078  1.4432
  887SOL     MW 3548   2.268   2.628   1.562 -0.3026  0.1510  0.1294
  888SOL     OW 3549   1.860   2.131   1.407 -0.5421  0.4017  0.4374
  888SOL    HW1 3550   1.944   2.089   1.400 -0.4299 -1.2611  1.6968
  888SOL    HW2 3551   1.869   2.155   1.498  0.4518 -0.0452  0.7621
  888SOL     MW 3552   1.873   2.129   1.418 -0.3961  0.1233  0.6464
  889SOL     OW 3553   2.339   2.038   2.076  0.3736  0.3282  0.2077
  889SOL    HW1 3554   2.420   2.040   2.128  0.1200 -1.1025 -1.5722
  889SOL    HW2 3555   2.338   2.122   2.028  0.0590  0.4978  0.6801
  889SOL     MW 3556   2.349   2.049   2.077  0.2986  0.1618  0.0352
  890SOL     OW 3557   0.051   2.388   0.144  0.4077  0.3030  0.4368
  890SOL    HW1 3558  -0.006   2.472   0.141 -0.8891  1.2357  1.2897
  890SOL    HW2 3559   0.025   2.342   0.227  0.1688  2.4070  1.1412
  890SOL     MW 3560   0.040   2.393   0.155  0.2051  0.7037  0.6423
  891SOL     OW 3561   3.060   2.005   1.295  0.4004 -0.0394 -0.0874
  891SOL    HW1 3562   3.149   1.982   1.327 -0.9384  0.8458  1.1662
  891SOL    HW2 3563   3.069   2.097   1.295  0.9061  0.7449  0.0216
  891SOL     MW 3564   3.073   2.014   1.299  0.2905  0.1808  0.0923
  892SOL     OW 3565   2.449   2.320   2.760  0.2150  0.3400  0.5865
  892SOL    HW1 3566   2.399   2.251   2.800  0.2596  1.3166 -0.3944
  892SOL    HW2 3567   2.537   2.322   2.791 -2.0139 -0.6047 -1.3652
  892SOL     MW 3568   2.454   2.311   2.770 -0.0732  0.3442  0.1996
  893SOL     OW 3569   1.598   2.411   1.212 -0.1220  0.3207 -0.4749
  893SOL    HW1 3570   1.535   2.465   1.254  2.3201  0.0655  1.1086
  893SOL    HW2 3571   1.680   2.425   1.258 -0.9291 -1.7021  1.0219
  893SOL     MW 3572   1.601   2.420   1.223  0.0937  0.0202 -0.0685
  894SOL     OW 3573   2.747   1.877   0.452  0.0529  0.3085 -0.3509
  894SOL    HW1 3574   2.659   1.909   0.482 -2.7937 -0.3666  2.0368
  894SOL    HW2 3575   2.748   1.837   0.361 -2.6385 -3.1566  0.0413
  894SOL     MW 3576   2.736   1.876   0.444 -0.6778 -0.2378  0.0159
  895SOL     OW 3577   2.132   2.100   1.225 -0.2426 -0.2346 -0.4781
  895SOL    HW1 3578   2.096   2.163   1.153  0.2982  0.8603 -1.3972
  895SOL    HW2 3579   2.173   2.028   1.170  1.7821 -1.5411 -1.4838
  895SOL     MW 3580   2.133   2.098   1.208  0.0959 -0.2625 -0.7321
  896SOL     OW 3581   2.314   2.819   1.111  0.2197  0.2739  0.3751
  896SOL    HW1 3582   2.347   2.777   1.185 -0.0695 -0.5783 -0.6878
  896SOL    HW2 3583   2.242   2.758   1.096 -4.1996 -2.4770  0.6931
  896SOL     MW 3584   2.309   2.805   1.119 -0.4016 -0.2015  0.2768
  897SOL     OW 3585   3.069   3.032   3.080 -0.1337  0.4298 -0.2252
  897SOL    HW1 3586   3.067   2.948   3.033 -2.9346 -2.5142 -3.3102
  897SOL    HW2 3587   3.033   2.997   3.158 -1.7614  1.1255  0.1483
  897SOL     MW 3588   3.064   3.016   3.084 -0.7180  0.1332 -0.5829
  898SOL     OW 3589   2.109   0.201   1.493  0.0866 -0.0468 -0.3632
  898SOL    HW1 3590   2.079   0.119   1.533  0.8990  0.8361 -0.2410
  898SOL    HW2 3591   2.119   0.181   1.401 -0.1102 -0.2248  1.7802
  898SOL     MW 3592   2.106   0.187   1.486  0.1679  0.0462 -0.0643
  899SOL     OW 3593   2.911   2.973   0.643 -0.3777  0.0877 -0.3812
  899SOL    HW1 3594   2.919   2.896   0.700  1.6641 -1.8606  1.0730
  899SOL    HW2 3595   2.835   3.030   0.659  0.4554  0.1028 -0.3007
  899SOL     MW 3596   2.902   2.971   0.652  0.0016 -0.1674 -0.1787
  900SOL     OW 3597   0.060   2.395   1.122  0.1626 -0.0170  0.2575
  900SOL    HW1 3598   0.041   2.486   1.108 -2.0675  0.8998  1.0575
  900SOL    HW2 3599   0.048   2.348   1.038 -1.6796  0.0424  0.2754
  900SOL     MW 3600   0.056   2.401   1.109 -0.3747  0.1118  0.3654
  901SOL     OW 3601   1.742   2.845   1.756  0.1032  0.1840 -0.2868
  901SOL    HW1 3602   1.826   2.787   1.745 -1.2059 -0.9254 -1.3021
  901SOL    HW2 3603   1.691   2.828   1.673 -1.3151  0.2942  2.0145
  901SOL     MW 3604   1.746   2.836   1.744 -0.2567  0.0522 -0.1171
  902SOL     OW 3605   2.677   2.116   1.824 -0.5748 -0.3431  0.2396
  902SOL    HW1 3606   2.675   2.063   1.744 -1.8914  0.2879  1.9484
  902SOL    HW2 3607   2.764   2.116   1.866 -0.4079 -2.4967 -1.7862
  902SOL     MW 3608   2.688   2.109   1.819 -0.7265 -0.5440  0.1978
  903SOL     OW 3609   1.614   2.685   0.621  0.5737 -1.0118  0.5581
  903SOL    HW1 3610   1.693   2.644   0.648 -0.3275 -0.1645 -0.4015
  903SOL    HW2 3611   1.574   2.717   0.702  0.1421 -0.1086  0.7189
  903SOL     MW 3612   1.619   2.684   0.636  0.3978 -0.7809  0.4527
  904SOL     OW 3613   2.527   2.587   1.706 -0.0343  0.4867 -0.4805
  904SOL    HW1 3614   2.441   2.599   1.665 -0.3982 -1.9193  0.2821
  904SOL    HW2 3615   2.573   2.516   1.669 -0.0266 -1.1865  0.5669
  904SOL     MW 3616   2.522   2.579   1.696 -0.0813 -0.0515 -0.2417
  905SOL     OW 3617   2.281   2.513   2.135 -0.5598 -0.0523  0.0387
  905SOL    HW1 3618   2.344   2.477   2.063 -1.1053 -0.5589  1.3182
  905SOL    HW2 3619   2.248   2.436   2.178 -0.8401  1.3528  0.6797
  905SOL     MW 3620   2.285   2.498   2.131 -0.6688  0.0663  0.2921
  906SOL     OW 3621   2.469   2.488   0.822  1.0598  0.3488 -0.4275
  906SOL    HW1 3622   2.558   2.455   0.845  0.8857 -2.3698  2.2340
  906SOL    HW2 3623   2.472   2.579   0.834 -3.6812 -2.0581  1.0919
  906SOL     MW 3624   2.481   2.496   0.827  0.4113 -0.3275  0.1241
  907SOL     OW 3625   2.639   2.804   1.345 -0.0337  0.2547  0.0927
  907SOL    HW1 3626   2.679   2.881   1.379  1.8474  0.0806 -2.5131
  907SOL    HW2 3627   2.659   2.820   1.253 -0.1978 -1.4199  0.7201
  907SOL     MW 3628   2.647   2.816   1.338  0.1928  0.0107 -0.1683
  908SOL     OW 3629   2.714   2.352   0.004  0.1900  0.1712  0.4520
  908SOL    HW1 3630   2.652   2.286   0.040  2.6299  1.0418 -0.4871
  908SOL    HW2 3631   2.697   2.437   0.054  2.6206  1.7397 -1.4523
  908SOL     MW 3632   2.703   2.355   0.015  0.8326  0.4930  0.0768
  909SOL     OW 3633   1.731   0.062   1.197 -0.2373  0.0417  0.1205
  909SOL    HW1 3634   1.740   0.134   1.131 -1.9910  2.0456  1.9014
  909SOL    HW2 3635   1.702   0.104   1.274 -2.5145  1.9772  1.1620
  909SOL     MW 3636   1.729   0.077   1.199 -0.7691  0.5615  0.4929
  910SOL     OW 3637   2.246   1.796   0.412 -0.3347 -0.7225  0.2572
  910SOL    HW1 3638   2.185   1.721   0.420  0.1046 -1.8175  0.9702
  910SOL    HW2 3639   2.235   1.830   0.322 -0.7898 -2.6215 -0.8973
  910SOL     MW 3640   2.237   1.790   0.401 -0.3368 -1.1175  0.1989
  911SOL     OW 3641   2.250   2.126   1.651 -0.1641 -0.6882 -0.6738
  911SOL    HW1 3642   2.324   2.131   1.712  0.0863 -1.4561  1.9647
  911SOL    HW2 3643   2.280   2.151   1.560  0.1306 -1.9411 -0.6201
  911SOL     MW 3644   2.264   2.130   1.647 -0.0922 -0.9548 -0.3186
  912SOL     OW 3645   2.940   1.911   1.512 -0.5604 -0.5066 -0.5483
  912SOL    HW1 3646   2.973   1.967   1.433  3.9860 -0.1749 -2.5021
  912SOL    HW2 3647   2.855   1.956   1.535 -2.5205  1.5021 -0.3306
  912SOL     MW 3648   2.933   1.925   1.504 -0.2191 -0.1978 -0.7773
  913SOL     OW 3649   2.632   3.043   0.357 -0.0173  0.3879  0.0493
  913SOL    HW1 3650   2.715   2.987   0.354 -1.2635 -1.6882 -1.6670
  913SOL    HW2 3651   2.576   2.988   0.297 -0.6948 -1.3103 -3.1572
  913SOL     MW 3652   2.636   3.029   0.348 -0.2711 -0.1101 -0.6002
  914SOL     OW 3653   2.723   1.748   3.034  0.3801 -0.0656 -0.1453
  914SOL    HW1 3654   2.734   1.835   2.990  0.8110  1.8551 -2.4588
  914SOL    HW2 3655   2.625   1.737   3.052 -2.0846  2.1009  2.3693
  914SOL     MW 3656   2.711   1.758   3.031  0.1117  0.4737 -0.1188
  915SOL     OW 3657   1.688   0.224   0.244 -0.1278  0.4219  0.5667
  915SOL    HW1 3658   1.763   0.168   0.276  0.9853 -0.6530  0.6385
  915SOL    HW2 3659   1.617   0.156   0.228  2.5437 -0.6698 -1.6410
  915SOL     MW 3660   1.689   0.207   0.246  0.3716  0.1360  0.2849
  916SOL     OW 3661   1.834   2.128   1.933  0.3672  0.6429 -0.0502
  916SOL    HW1 3662   1.878   2.211   1.914  2.1901 -1.0211  2.0191
  916SOL    HW2 3663   1.836   2.075   1.854 -1.1484 -0.4065  0.4056
  916SOL     MW 3664   1.840   2.132   1.920  0.4078  0.2849  0.2830
  917SOL     OW 3665   2.492   2.210   2.512  0.1022 -0.2684  0.0870
  917SOL    HW1 3666   2.467   2.260   2.592 -1.9798 -0.5108 -0.5046
  917SOL    HW2 3667   2.570   2.249   2.470 -0.7128  0.5364 -0.0963
  917SOL     MW 3668   2.499   2.222   2.517 -0.2800 -0.1942 -0.0153
  918SOL     OW 3669   1.988   1.612   2.709  0.2047  0.1705 -0.3774
  918SOL    HW1 3670   1.910   1.651   2.670  2.1873 -2.1947 -1.1858
  918SOL    HW2 3671   2.062   1.662   2.676 -0.1863 -0.8014  2.2619
  918SOL     MW 3672   1.988   1.624   2.699  0.4147 -0.2698 -0.1358
  919SOL     OW 3673   3.081   2.346   2.266  0.1470  0.6517 -0.0943
  919SOL    HW1 3674   3.021   2.277   2.239  1.7971  2.2990  0.4736
  919SOL    HW2 3675   3.129   2.379   2.182 -2.0230 -2.1090  2.0981
  919SOL     MW 3676   3.079   2.342   2.251  0.0784  0.5048  0.2699
  920SOL     OW 3677   2.700   2.876   0.006 -0.2222 -0.0723  0.2194
  920SOL    HW1 3678   2.611   2.889   0.040 -1.5891 -0.0560 -1.4624
  920SOL    HW2 3679   2.693   2.812  -0.073  1.6985 -0.9156 -0.3144
  920SOL     MW 3680   2.688   2.869  -0.000 -0.1491 -0.1814 -0.0729
  921SOL     OW 3681   2.424   2.587   2.640  0.0822  0.5441 -0.7541
  921SOL    HW1 3682   2.479   2.580   2.567  0.3417 -0.5351  0.9584
  921SOL    HW2 3683   2.457   2.517   2.688 -1.3401 -0.7344  0.7014
  921SOL     MW 3684   2.436   2.577   2.636 -0.0712  0.2330 -0.3361
  922SOL     OW 3685   2.014   2.842   0.290  0.1977 -0.5361 -0.1228
  922SOL    HW1 3686   2.006   2.875   0.198  0.9130 -0.8110 -0.3878
  922SOL    HW2 3687   2.033   2.748   0.280 -1.4491  0.7081 -1.2685
  922SOL     MW 3688   2.015   2.834   0.277  0.0748 -0.4082 -0.3089
  923SOL     OW 3689   2.169   2.855   1.707  0.2480  0.1234  0.0886
  923SOL    HW1 3690   2.226   2.785   1.676 -0.9325 -0.2673 -0.0008
  923SOL    HW2 3691   2.171   2.923   1.641  0.5766  1.3371 -0.2744
  923SOL     MW 3692   2.177   2.855   1.694  0.1356  0.2320  0.0289
  924SOL     OW 3693   1.126   2.698   2.516  0.3239  0.3460  0.0697
  924SOL    HW1 3694   1.201   2.759   2.500 -0.6085  3.1456 -2.0590
  924SOL    HW2 3695   1.136   2.646   2.594 -2.2444  1.0739  0.2153
  924SOL     MW 3696   1.137   2.699   2.525 -0.1380  0.8114 -0.1919
  925SOL     OW 3697   3.068   0.178   2.615  0.0342  0.0339 -0.1713
  925SOL    HW1 3698   3.011   0.215   2.545  3.0453 -1.0372 -1.4591
  925SOL    HW2 3699   3.045   0.231   2.696 -0.5252  0.6113  1.0072
  925SOL     MW 3700   3.057   0.190   2.616  0.3577 -0.0313 -0.1857
  926SOL     OW 3701   2.714   2.413   2.048  0.0160  0.2140  0.1848
  926SOL    HW1 3702   2.747   2.443   2.131 -1.0074 -1.6712  0.2909
  926SOL    HW2 3703   2.787   2.424   1.979 -1.1097  1.1603 -3.1839
  926SOL     MW 3704   2.728   2.418   2.050 -0.2675  0.0901 -0.2457
  927SOL     OW 3705   2.328   0.119   0.318 -0.5077  0.0356 -0.1230
  927SOL    HW1 3706   2.417   0.149   0.320  1.7854  0.7450  1.0959
  927SOL    HW2 3707   2.309   0.114   0.222  0.1376  0.3085  2.3746
  927SOL     MW 3708   2.337   0.122   0.305 -0.1200  0.1652  0.3674
  928SOL     OW 3709   2.183   2.386   1.775  0.3273 -0.1586 -0.3830
  928SOL    HW1 3710   2.142   2.414   1.695 -3.6294 -2.9708 -1.5881
  928SOL    HW2 3711   2.214   2.299   1.765  1.1018  0.5055  0.8384
  928SOL     MW 3712   2.182   2.378   1.763 -0.0926 -0.4420 -0.3808
  929SOL     OW 3713   2.755   2.336   2.454  0.0178 -0.7706  0.0733
  929SOL    HW1 3714   2.804   2.321   2.374 -2.8240 -0.8089  0.7260
  929SOL    HW2 3715   2.813   2.302   2.522  0.1807 -2.3605  0.4276
  929SOL     MW 3716   2.769   2.330   2.452 -0.3357 -0.9854  0.2061
  930SOL     OW 3717   2.011   2.852   2.738  0.0013 -0.1249 -0.4060
  930SOL    HW1 3718   2.035   2.763   2.765  0.0739 -1.7943  1.7068
  930SOL    HW2 3719   2.097   2.900   2.742  2.1344  0.7756  2.1496
  930SOL     MW 3720   2.026   2.846   2.743  0.2923 -0.2263  0.2100
  931SOL     OW 3721   3.024   2.720   2.373  0.0832 -0.2797  0.3657
  931SOL    HW1 3722   3.081   2.748   2.447  0.4790  0.8497  0.7336
  931SOL    HW2 3723   3.080   2.729   2.295 -5.4518  1.2126 -0.0928
  931SOL     MW 3724   3.039   2.724   2.372 -0.5949  0.0662  0.3537
  932SOL     OW 3725   2.923   1.941   2.523  0.2285 -0.4007 -0.8012
  932SOL    HW1 3726   3.012   1.971   2.506 -1.0121 -0.9559  0.0608
  932SOL    HW2 3727   2.871   1.958   2.442  0.6749  0.1856 -0.2167
  932SOL     MW 3728   2.928   1.947   2.510  0.1237 -0.3966 -0.6103
  933SOL     OW 3729   2.067   2.807   2.245  0.0542 -0.7591 -0.4078
  933SOL    HW1 3730   2.153   2.847   2.251  1.1014  2.2335 -4.1636
  933SOL    HW2 3731   2.007   2.883   2.252  0.6761  3.2113 -1.5698
  933SOL     MW 3732   2.071   2.823   2.247  0.2744  0.1596 -1.0567
  934SOL     OW 3733   2.014   2.744   2.490 -0.7007  0.2056 -0.2073
  934SOL    HW1 3734   2.042   2.815   2.548  2.5446  3.3484 -3.5198
  934SOL    HW2 3735   2.041   2.767   2.399 -1.4730  1.0246  0.6822
  934SOL     MW 3736   2.021   2.756   2.486 -0.3744  0.7283 -0.5270
  935SOL     OW 3737   2.694   1.536   1.843 -0.2175  0.7192  0.3988
  935SOL    HW1 3738   2.787   1.523   1.850  1.1013  0.8024  0.1864
  935SOL    HW2 3739   2.688   1.541   1.751  4.1015  0.8004  3.0246
  935SOL     MW 3740   2.706   1.535   1.832  0.5264  0.7409  0.7173
  936SOL     OW 3741   2.987   2.221   3.078 -0.7735  0.3713  0.0827
  936SOL    HW1 3742   3.046   2.282   3.121 -1.6001 -0.9164  0.5184
  936SOL    HW2 3743   2.894   2.252   3.076 -1.2703 -0.9547 -0.2048
  936SOL     MW 3744   2.983   2.233   3.083 -0.9481  0.0265  0.1023
  937SOL     OW 3745   1.968   2.137   2.608  0.5014 -0.1907  0.2885
  937SOL    HW1 3746   2.032   2.079   2.662  0.7100 -1.9866 -1.7721
  937SOL    HW2 3747   1.969   2.104   2.516  0.8394 -0.1941 -2.2268
  937SOL     MW 3748   1.977   2.125   2.603  0.5736 -0.4281 -0.3152
  938SOL     OW 3749   2.297   1.797   1.939 -0.2452  0.1778 -0.6718
  938SOL    HW1 3750   2.265   1.815   1.847 -1.1611 -0.3802  0.5485
  938SOL    HW2 3751   2.317   1.878   1.982 -0.4976  0.4795  0.1601
  938SOL     MW 3752   2.295   1.810   1.933 -0.3994  0.1440 -0.4010
  939SOL     OW 3753   2.759   1.989   2.293  0.1852 -0.4112 -0.3334
  939SOL    HW1 3754   2.785   1.918   2.237  1.1399  0.8790 -1.1248
  939SOL    HW2 3755   2.661   1.969   2.321 -1.6845 -0.3492  0.6633
  939SOL     MW 3756   2.749   1.977   2.290  0.0645 -0.2328 -0.3063
  940SOL     OW 3757   2.279   0.164   2.686 -0.0334 -0.1046 -0.4121
  940SOL    HW1 3758   2.266   0.074   2.660  1.2067 -0.4307 -0.9315
  940SOL    HW2 3759   2.325   0.180   2.772  0.6919 -1.6061 -0.3042
  940SOL     MW 3760   2.284   0.154   2.694  0.2259 -0.3457 -0.4664
  941SOL     OW 3761   0.109   2.457   2.055 -0.5793 -0.0621  0.0817
  941SOL    HW1 3762   0.195   2.438   2.081 -1.4396 -0.1898  0.1234
  941SOL    HW2 3763   0.112   2.453   1.957 -1.1496 -0.3299 -1.1741
  941SOL     MW 3764   0.121   2.454   2.046 -0.7680 -0.1143 -0.0785
  942SOL     OW 3765   2.834   2.214   2.171 -0.0762 -0.0568  0.0683
  942SOL    HW1 3766   2.776   2.272   2.120 -0.8968 -0.0644  2.1946
  942SOL    HW2 3767   2.780   2.148   2.210  0.7198  0.7205 -2.7440
  942SOL     MW 3768   2.819   2.213   2.169 -0.0794  0.0447 -0.0222
  943SOL     OW 3769   0.277   2.087   2.270 -0.2252 -0.4472 -0.3715
  943SOL    HW1 3770   0.250   2.155   2.328  1.1022  1.4622  0.5842
  943SOL    HW2 3771   0.352   2.043   2.316 -1.4147  0.4116 -1.1184
  943SOL     MW 3772   0.283   2.090   2.284 -0.2070 -0.0820 -0.3440
  944SOL     OW 3773   2.089   2.668   2.008  0.2179  0.3993 -0.4806
  944SOL    HW1 3774   2.157   2.610   2.034  0.1130  2.6969  0.4036
  944SOL    HW2 3775   2.069   2.704   2.098 -0.1802  0.8506 -0.3581
  944SOL     MW 3776   2.095   2.665   2.024  0.1515  0.7620 -0.3478
  945SOL     OW 3777   2.687   2.697   2.881  0.9549  0.1634 -0.5541
  945SOL    HW1 3778   2.680   2.599   2.881  0.3220 -1.9410  0.4260
  945SOL    HW2 3779   2.712   2.721   2.791 -3.5721 -1.0845 -1.4448
  945SOL     MW 3780   2.690   2.687   2.869  0.2741 -0.2789 -0.5423
  946SOL     OW 3781   2.479   2.679   2.238  0.1244  0.3877 -0.5631
  946SOL    HW1 3782   2.484   2.724   2.151  1.5950 -1.6178  1.7152
  946SOL    HW2 3783   2.398   2.621   2.225 -1.6705 -2.4212 -0.0055
  946SOL     MW 3784   2.469   2.677   2.225  0.0816 -0.2475 -0.1889
  947SOL     OW 3785   1.920   0.078   0.291  0.3924  0.0528 -0.4317
  947SOL    HW1 3786   1.877  -0.012   0.307 -2.0677 -1.7602  0.4882
  947SOL    HW2 3787   1.975   0.086   0.370  0.4067  0.4588  1.9113
  947SOL     MW 3788   1.922   0.067   0.304  0.0697 -0.1328 -0.0012
  948SOL     OW 3789   1.794   3.029   2.708 -0.3111  0.0225 -0.5544
  948SOL    HW1 3790   1.848   2.947   2.700  1.2670 -0.0553 -0.9052
  948SOL    HW2 3791   1.780   3.056   2.613 -0.5012 -0.0766  1.7346
  948SOL     MW 3792   1.799   3.022   2.694 -0.1280 -0.0008 -0.2986
  949SOL     OW 3793   2.494   1.911   2.271  0.7819 -0.1324  0.3415
  949SOL    HW1 3794   2.463   1.818   2.269 -0.0275 -2.2467  0.4337
  949SOL    HW2 3795   2.429   1.948   2.326  0.2013 -0.4481 -0.0909
  949SOL     MW 3796   2.482   1.904   2.278  0.5985 -0.4530  0.2966
  950SOL     OW 3797   2.324   2.502   2.914  0.0240 -0.0832  0.3110
  950SOL    HW1 3798   2.383   2.438   2.877  0.7868  1.3241 -0.5658
  950SOL    HW2 3799   2.255   2.524   2.844 -2.0831  1.0988  0.1861
  950SOL     MW 3800   2.322   2.496   2.900 -0.1533  0.2584  0.1789
  951SOL     OW 3801   3.019   2.088   2.831  0.5253  0.5941  0.2324
  951SOL    HW1 3802   3.017   2.149   2.908  2.3292  0.2445 -0.7607
  951SOL    HW2 3803   3.104   2.049   2.820  0.3741  0.0031 -0.8430
  951SOL     MW 3804   3.030   2.091   2.839  0.7434  0.4700 -0.0405
  952SOL     OW 3805   3.028   1.681   2.179  0.1889 -0.1781 -0.2753
  952SOL    HW1 3806   2.944   1.720   2.161  1.9779 -1.3692  0.8450
  952SOL    HW2 3807   3.072   1.734   2.247  1.7067 -1.8839 -0.2509
  952SOL     MW 3808   3.023   1.693   2.185  0.6252 -0.5603 -0.1242
  953SOL     OW 3809   1.905   1.767   2.908  0.5806  0.2969  0.1792
  953SOL    HW1 3810   1.827   1.728   2.949 -0.2291  1.7336  1.7791
  953SOL    HW2 3811   1.934   1.705   2.846  0.8743  0.6328 -1.9229
  953SOL     MW 3812   1.898   1.754   2.906  0.5125  0.5308  0.1129
  954SOL     OW 3813   2.377   2.079   2.857  0.1950  0.1361 -0.5334
  954SOL    HW1 3814   2.289   2.063   2.827  3.8464 -4.0435 -0.0904
  954SOL    HW2 3815   2.437   2.037   2.783  1.0243 -1.9685 -1.9993
  954SOL     MW 3816   2.373   2.072   2.843  0.7861 -0.6930 -0.6684
  955SOL     OW 3817   1.560   1.582   2.566 -0.2492  0.7330 -0.1534
  955SOL    HW1 3818   1.522   1.609   2.484 -2.6646 -1.9692  0.5590
  955SOL    HW2 3819   1.648   1.626   2.577 -0.8886  0.3402  1.3015
  955SOL     MW 3820   1.566   1.591   2.557 -0.6523  0.3247  0.1326
  956SOL     OW 3821   2.689   2.406   2.842  0.1423 -0.1205  0.4733
  956SOL    HW1 3822   2.692   2.361   2.930 -0.0426  0.5864 -1.4109
  956SOL    HW2 3823   2.760   2.357   2.797  0.9028 -5.4452 -0.8161
  956SOL     MW 3824   2.699   2.394   2.848  0.2182 -0.7298  0.0546
  957SOL     OW 3825   2.290   2.843   0.402 -0.3511  0.3814  0.3443
  957SOL    HW1 3826   2.214   2.831   0.344 -0.8911 -0.5463  2.3719
  957SOL    HW2 3827   2.266   2.805   0.493 -1.9739 -1.8534  2.3471
  957SOL     MW 3828   2.277   2.836   0.406 -0.6364 -0.0358  0.8761
  958SOL     OW 3829   2.085   2.585   2.812 -0.4297 -0.1243  1.2221
  958SOL    HW1 3830   2.050   2.513   2.760  0.2510 -0.2836 -4.0860
  958SOL    HW2 3831   2.042   2.587   2.902  0.7769  0.2662  0.3112
  958SOL     MW 3832   2.075   2.576   2.817 -0.1807 -0.0938  0.4016
  959SOL     OW 3833   2.512   2.654   0.375 -0.7327  0.7515  0.3791
  959SOL    HW1 3834   2.510   2.640   0.278  1.5048  0.8039 -2.3107
  959SOL    HW2 3835   2.475   2.740   0.384  0.9068  1.0960 -0.0532
  959SOL     MW 3836   2.507   2.663   0.364 -0.2212  0.8039 -0.0328
  960SOL     OW 3837   1.913   2.303   2.307 -0.4103  0.4286  0.3565
  960SOL    HW1 3838   1.925   2.212   2.327  0.6942  1.1946  0.6416
  960SOL    HW2 3839   1.856   2.317   2.380 -0.9441 -2.3786  0.5037
  960SOL     MW 3840   1.907   2.293   2.319 -0.3350  0.1592  0.4135
  961SOL     OW 3841   2.182   2.314   2.299 -0.3669 -0.6403  0.0987
  961SOL    HW1 3842   2.089   2.302   2.291  1.0790  0.9244  0.2951
  961SOL    HW2 3843   2.188   2.390   2.359 -0.8396  0.9422  0.3274
  961SOL     MW 3844   2.170   2.322   2.306 -0.2385 -0.2251  0.1548
  962SOL     OW 3845   2.140   1.990   2.768 -0.3683  0.2411  0.1543
  962SOL    HW1 3846   2.101   1.975   2.856 -0.7362  0.7811  2.0398
  962SOL    HW2 3847   2.163   1.898   2.731  0.5017  0.0447 -0.0637
  962SOL     MW 3848   2.138   1.976   2.775 -0.3021  0.2865  0.3743
  963SOL     OW 3849   1.813   2.501   2.075 -0.7263 -0.4460  0.3242
  963SOL    HW1 3850   1.885   2.496   2.134  2.1490 -1.4456 -0.8592
  963SOL    HW2 3851   1.833   2.439   2.002 -2.1561 -0.3785  0.1248
  963SOL     MW 3852   1.825   2.492   2.073 -0.5356 -0.5690  0.1418
  964SOL     OW 3853   1.770   1.998   2.723  0.7144 -0.6632  0.1300
  964SOL    HW1 3854   1.827   2.063   2.681 -1.2775 -0.5683 -0.5983
  964SOL    HW2 3855   1.821   1.927   2.756 -3.8257 -1.1826  1.4735
  964SOL     MW 3856   1.785   1.997   2.722 -0.1474 -0.7192  0.2112
  965SOL     OW 3857   2.238   2.694   0.638  0.2814  0.0133  0.6186
  965SOL    HW1 3858   2.255   2.605   0.609  0.3938 -0.6315 -0.2939
  965SOL    HW2 3859   2.322   2.712   0.683  0.3730 -3.2532  1.3237
  965SOL     MW 3860   2.251   2.685   0.640  0.3083 -0.5027  0.5913
  966SOL     OW 3861   2.643   2.621   2.474 -0.0081 -0.2655  0.0413
  966SOL    HW1 3862   2.597   2.633   2.383  1.1507 -0.3653  0.5169
  966SOL    HW2 3863   2.705   2.552   2.462 -2.1732  0.3051  2.2765
  966SOL     MW 3864   2.645   2.614   2.461 -0.1409 -0.2034  0.3990
  967SOL     OW 3865   2.779   3.094   2.955 -0.4314 -0.0583 -0.2944
  967SOL    HW1 3866   2.761   3.027   3.022 -2.6597  1.0955  0.1514
  967SOL    HW2 3867   2.710   3.098   2.891  4.0208  1.9546 -0.3180
  967SOL     MW 3868   2.767   3.086   2.955 -0.1380  0.3595 -0.2387
  968SOL     OW 3869   2.970   2.618   2.939  0.1671  0.2033  0.8430
  968SOL    HW1 3870   2.885   2.661   2.907 -0.4128  1.1308 -0.1148
  968SOL    HW2 3871   2.990   2.558   2.870  1.2580  0.5951  0.9163
  968SOL     MW 3872   2.962   2.616   2.926  0.2345  0.3773  0.7263
  969SOL     OW 3873   1.606   2.144   1.662 -0.1396 -0.0222 -0.0970
  969SOL    HW1 3874   1.669   2.065   1.669  0.1633  0.0130  0.9096
  969SOL    HW2 3875   1.583   2.168   1.754 -0.8990 -1.1735  0.0825
  969SOL     MW 3876   1.612   2.137   1.675 -0.1998 -0.1694  0.0595
  970SOL     OW 3877   1.692   1.777   1.951 -0.0872 -0.1307 -0.2981
  970SOL    HW1 3878   1.727   1.705   2.001  0.1655  3.9226 -1.7189
  970SOL    HW2 3879   1.599   1.767   1.935  2.0713 -1.5680  2.2856
  970SOL     MW 3880   1.684   1.766   1.955  0.2309  0.2145 -0.1447
  971SOL     OW 3881   1.764   0.059   2.433  0.5086  0.0436 -0.0680
  971SOL    HW1 3882   1.812   0.016   2.363  0.4816  0.1617  0.5642
  971SOL    HW2 3883   1.825   0.120   2.472  0.8916 -1.3037  0.6834
  971SOL     MW 3884   1.779   0.061   2.429  0.5556 -0.1186  0.1146
  972SOL     OW 3885   0.275   2.863   2.457  0.2487 -0.0817 -0.4089
  972SOL    HW1 3886   0.347   2.801   2.468 -0.6258 -2.1072 -2.6353
  972SOL    HW2 3887   0.316   2.949   2.453  1.0132  1.9744  0.4976
  972SOL     MW 3888   0.290   2.866   2.458  0.2341 -0.0776 -0.5830
  973SOL     OW 3889   2.593   0.018   2.106  0.1379  0.3017 -0.5723
  973SOL    HW1 3890   2.570  -0.074   2.087  1.2630 -0.5840 -1.0085
  973SOL    HW2 3891   2.593   0.069   2.024 -0.1070  0.8524 -0.5234
  973SOL     MW 3892   2.590   0.012   2.092  0.2540  0.2575 -0.6234
  974SOL     OW 3893   2.029   0.282   2.699  0.2018 -0.0608  0.6278
  974SOL    HW1 3894   2.120   0.259   2.689  0.2677 -1.9668  0.7139
  974SOL    HW2 3895   2.000   0.211   2.755  0.2478  1.0524 -0.9264
  974SOL     MW 3896   2.037   0.270   2.705  0.2166 -0.1654  0.4341
  975SOL     OW 3897   2.183   2.519   2.515  0.3474 -0.0400  0.1370
  975SOL    HW1 3898   2.263   2.547   2.552 -0.3125  0.9755  0.1999
  975SOL    HW2 3899   2.133   2.599   2.507 -0.2224  0.3287 -1.8365
  975SOL     MW 3900   2.187   2.533   2.519  0.1852  0.1426 -0.1151
  976SOL     OW 3901   0.257   0.393   1.773 -0.0762  0.3081 -0.3635
  976SOL    HW1 3902   0.299   0.318   1.806  2.6805  0.5853  0.5688
  976SOL    HW2 3903   0.179   0.352   1.733 -2.7936  1.2760  0.2001
  976SOL     MW 3904   0.253   0.378   1.772 -0.0710  0.4723 -0.1661
  977SOL     OW 3905   1.760   2.686   2.554  0.0130 -0.1759  0.2699
  977SOL    HW1 3906   1.766   2.592   2.544 -0.3564  2.1872  1.5436
  977SOL    HW2 3907   1.844   2.722   2.522  0.1091  3.2541  0.4222
  977SOL     MW 3908   1.772   2.678   2.548 -0.0230  0.5884  0.4580
   3.10000   3.10000   3.10000
