977 TIP4P/2005f water molecules t=   0.26000 step= 260
 3908
    1SOL     OW    1   0.267   0.758   0.019  0.8380 -0.8405  0.4281
    1SOL    HW1    2   0.261   0.783  -0.070  0.4035 -0.0109  1.8319
    1SOL    HW2    3   0.255   0.659   0.015  2.6068 -2.2096  0.3946
    1SOL     MW    4   0.265   0.748   0.007  1.0140 -0.9117  0.6089
    2SOL     OW    5   0.359   3.029   1.148 -0.0514  0.1979 -0.0234
    2SOL    HW1    6   0.387   3.115   1.116 -1.2650 -1.8043 -1.7038
    2SOL    HW2    7   0.267   3.037   1.177  0.3223  0.5337 -0.5313
    2SOL     MW    8   0.351   3.041   1.147 -0.1623 -0.0220 -0.3121
    3SOL     OW    9   2.673   0.398   0.919 -0.2822 -0.0251  0.5060
    3SOL    HW1   10   2.702   0.478   0.877 -0.0552  3.2083 -0.9343
    3SOL    HW2   11   2.675   0.425   1.009 -3.5172  0.4373  0.5434
    3SOL     MW   12   2.677   0.412   0.926 -0.6791  0.4625  0.3209
    4SOL     OW   13   3.074   1.821   0.637 -0.3118  0.0518 -0.1764
    4SOL    HW1   14   2.994   1.864   0.615  1.9743 -1.8177 -1.8456
    4SOL    HW2   15   3.097   1.780   0.556 -1.4868  1.0574 -1.3474
    4SOL     MW   16   3.067   1.822   0.623 -0.1652 -0.0622 -0.5511
    5SOL     OW   17   1.711   1.443   0.517  0.2412 -0.1460  0.1423
    5SOL    HW1   18   1.748   1.410   0.598 -0.5184 -1.4959  1.0459
    5SOL    HW2   19   1.615   1.444   0.525 -0.5193 -2.6653  1.8556
    5SOL     MW   20   1.703   1.439   0.529  0.0407 -0.6565  0.4876
    6SOL     OW   21   0.869   1.402   0.608  0.5788  0.8360  0.2372
    6SOL    HW1   22   0.795   1.423   0.668 -0.2437  2.9350  0.9579
    6SOL    HW2   23   0.904   1.313   0.641  0.3906 -0.8599 -0.9585
    6SOL     MW   24   0.864   1.393   0.620  0.4454  0.8892  0.1745
    7SOL     OW   25   1.953   1.070   0.013  0.3478 -0.0900  0.6622
    7SOL    HW1   26   2.021   1.126  -0.023 -0.7620 -0.7601 -5.2238
    7SOL    HW2   27   1.979   1.064   0.106 -0.9877 -0.6299  0.7401
    7SOL     MW   28   1.965   1.076   0.020  0.0252 -0.2496 -0.1041
    8SOL     OW   29   1.008   1.300   1.050  0.2682  0.3199 -0.2585
    8SOL    HW1   30   1.087   1.252   1.075  0.0403  3.9254 -1.5637
    8SOL    HW2   31   0.933   1.239   1.071  0.9360 -0.2024  0.1467
    8SOL     MW   32   1.009   1.286   1.056  0.3262  0.7267 -0.3772
    9SOL     OW   33   1.019   0.477   1.373  0.6334  0.1766 -0.8349
    9SOL    HW1   34   0.955   0.418   1.326 -1.7772  0.8410  0.5313
    9SOL    HW2   35   1.056   0.428   1.444 -0.5813 -2.0959 -0.1099
    9SOL     MW   36   1.016   0.463   1.376  0.1551 -0.0356 -0.5590
   10SOL     OW   37   0.302   0.856   0.469  0.3238 -0.3461  0.0397
   10SOL    HW1   38   0.385   0.890   0.434 -3.0750 -1.3790 -1.8948
   10SOL    HW2   39   0.266   0.897   0.549 -0.0196  0.3217 -0.5163
   10SOL     MW   40   0.308   0.866   0.475 -0.1700 -0.3943 -0.2889
   11SOL     OW   41   0.909   1.098   1.569 -0.4663 -0.1558  1.2981
   11SOL    HW1   42   0.891   1.095   1.666 -2.0800 -0.3573  0.3376
   11SOL    HW2   43   0.841   1.030   1.533  0.5066 -1.0721  0.3796
   11SOL     MW   44   0.897   1.089   1.577 -0.5508 -0.3033  1.0502
   12SOL     OW   45   0.005   1.111   0.840  0.1955  0.8172 -0.4230
   12SOL    HW1   46   0.061   1.152   0.906 -0.1777  2.5333  4.0968
   12SOL    HW2   47  -0.056   1.181   0.814  1.1886  0.8811  2.6242
   12SOL     MW   48   0.004   1.126   0.845  0.2773  1.0520  0.5754
   13SOL     OW   49   1.935   1.436   1.423 -0.0029 -0.2449 -0.6380
   13SOL    HW1   50   1.949   1.390   1.342  0.5109  0.0496 -1.8941
   13SOL    HW2   51   1.910   1.526   1.392  1.3278  0.1742  0.2158
   13SOL     MW   52   1.934   1.442   1.408  0.2404 -0.1507 -0.6911
   14SOL     OW   53   0.622   0.343   1.760  0.3299 -0.2025 -0.1533
   14SOL    HW1   54   0.608   0.270   1.701 -1.4929 -0.1189  1.7808
   14SOL    HW2   55   0.697   0.326   1.815  0.2368 -1.4044  1.5176
   14SOL     MW   56   0.630   0.331   1.760  0.0771 -0.3501  0.3224
   15SOL     OW   57   1.984   0.542   0.919 -0.0694  0.6425 -0.3297
   15SOL    HW1   58   1.992   0.528   1.015  2.0913  1.0701  0.7240
   15SOL    HW2   59   2.052   0.494   0.870  0.6722  0.0264  0.9706
   15SOL     MW   60   1.994   0.534   0.925  0.3135  0.6176 -0.0191
   16SOL     OW   61   0.202   1.791   0.309  0.4275 -0.4619  0.8803
   16SOL    HW1   62   0.283   1.740   0.319 -2.6621  0.0223 -1.0026
   16SOL    HW2   63   0.222   1.879   0.336 -0.3534  0.6233 -2.2584
   16SOL     MW   64   0.216   1.796   0.314 -0.0832 -0.2548  0.2177
   17SOL     OW   65   1.082   0.820   1.455  0.0739  0.0951  0.3800
   17SOL    HW1   66   1.114   0.825   1.550 -1.1278  2.6052  0.4717
   17SOL    HW2   67   1.009   0.760   1.454 -2.3597 -0.7376 -0.7706
   17SOL     MW   68   1.077   0.813   1.467 -0.4057  0.3165  0.2403
   18SOL     OW   69   0.026   1.541   0.415 -0.0447 -0.0113 -0.0260
   18SOL    HW1   70   0.062   1.615   0.358  0.6984  0.4423 -0.7622
   18SOL    HW2   71  -0.014   1.481   0.351  0.4967  0.7275  1.6504
   18SOL     MW   72   0.025   1.543   0.399  0.1248  0.1460  0.0981
   19SOL     OW   73   0.132   1.288   1.024 -0.0458  0.1655  0.0765
   19SOL    HW1   74   0.171   1.348   0.958 -1.9042 -1.7231 -0.6019
   19SOL    HW2   75   0.043   1.318   1.039  0.8414  2.8590 -1.1701
   19SOL     MW   76   0.126   1.300   1.017 -0.1740  0.2717 -0.1775
   20SOL     OW   77   0.456   2.160   1.290  0.1244  0.0623  0.2015
   20SOL    HW1   78   0.399   2.096   1.242  0.9290  0.1286  3.3739
   20SOL    HW2   79   0.387   2.207   1.338  0.4529 -1.1038 -0.8196
   20SOL     MW   80   0.439   2.158   1.290  0.2739 -0.0828  0.4853
   21SOL     OW   81   0.550   0.904   0.361 -0.0525  0.0324 -0.0702
   21SOL    HW1   82   0.601   0.855   0.424 -3.2642  2.5013 -0.9417
   21SOL    HW2   83   0.563   0.858   0.280  2.1129 -0.5403 -0.5780
   21SOL     MW   84   0.558   0.891   0.358 -0.1905  0.2826 -0.2522
   22SOL     OW   85   1.548   0.563   1.139 -0.5444 -0.4964  0.1697
   22SOL    HW1   86   1.590   0.541   1.052 -1.4847 -0.0281 -1.5801
   22SOL    HW2   87   1.494   0.640   1.121 -0.3205 -2.2470  2.9984
   22SOL     MW   88   1.546   0.570   1.125 -0.6390 -0.6656  0.3120
   23SOL     OW   89   3.033   0.739   0.735 -0.1521  0.4963  0.4174
   23SOL    HW1   90   3.061   0.647   0.754  1.0105 -1.5343  0.4383
   23SOL    HW2   91   3.110   0.795   0.734 -1.8641 -3.4476 -0.2792
   23SOL     MW   92   3.047   0.734   0.738 -0.2246 -0.2920  0.3282
   24SOL     OW   93   2.044   2.176   0.037 -0.6816  1.0173 -0.0744
   24SOL    HW1   94   2.041   2.149   0.129 -3.4883 -0.3724  0.8567
   24SOL    HW2   95   2.108   2.118  -0.012 -0.6469  0.3436 -2.8278
   24SOL     MW   96   2.052   2.165   0.043 -1.0473  0.7451 -0.3148
   25SOL     OW   97   0.235   1.443   0.553  1.3740 -0.3022 -0.2709
   25SOL    HW1   98   0.176   1.497   0.497 -1.9963  1.9848 -2.3809
   25SOL    HW2   99   0.313   1.425   0.499  0.9825  0.7090 -0.2338
   25SOL     MW  100   0.237   1.448   0.539  0.8776  0.1330 -0.5444
   26SOL     OW  101   2.048   0.960   0.383  0.5811 -0.1236  0.2148
   26SOL    HW1  102   1.953   0.967   0.404 -1.0500 -1.4721 -2.5750
   26SOL    HW2  103   2.069   1.041   0.321  0.2310 -0.6844 -0.8124
   26SOL     MW  104   2.038   0.971   0.377  0.3197 -0.3755 -0.2888
   27SOL     OW  105   1.972   1.411   0.251 -0.1283  0.3082  0.4948
   27SOL    HW1  106   1.889   1.391   0.294  0.6664  2.1164  1.0292
   27SOL    HW2  107   2.028   1.455   0.317  2.9597 -0.4408  0.7651
   27SOL     MW  108   1.968   1.414   0.266  0.3839  0.4480  0.6010
   28SOL     OW  109   0.399   0.951   1.872 -0.0424 -0.0616  0.4147
   28SOL    HW1  110   0.335   0.896   1.920 -1.2255  4.8458  1.7735
   28SOL    HW2  111   0.451   0.894   1.820  1.1127  1.4385  0.0234
   28SOL     MW  112   0.397   0.936   1.872 -0.0461  0.7838  0.5424
   29SOL     OW  113   0.244   1.453   0.831  0.2407 -0.0600 -0.4852
   29SOL    HW1  114   0.249   1.546   0.844 -1.7147  1.6410  0.1493
   29SOL    HW2  115   0.245   1.447   0.734 -1.6934 -1.3123 -2.3772
   29SOL     MW  116   0.245   1.465   0.820 -0.2725 -0.0008 -0.6512
   30SOL     OW  117   0.907   1.014   1.146 -0.1557  0.4337  0.2173
   30SOL    HW1  118   0.836   1.036   1.208  0.1262 -0.1607  0.5486
   30SOL    HW2  119   0.990   1.036   1.195  1.1917 -0.1307 -0.9678
   30SOL     MW  120   0.909   1.020   1.161  0.0593  0.2808  0.1047
   31SOL     OW  121   0.459   0.267   0.240  0.1969  0.8378  0.4144
   31SOL    HW1  122   0.467   0.183   0.296 -1.5814 -1.5618 -2.2164
   31SOL    HW2  123   0.424   0.232   0.154 -2.0605  0.5623 -2.1578
   31SOL     MW  124   0.455   0.252   0.236 -0.3356  0.4848 -0.2721
   32SOL     OW  125   2.690   1.040   1.122  0.0774 -0.4435 -0.2004
   32SOL    HW1  126   2.649   0.951   1.125  0.5528 -1.8591  0.0182
   32SOL    HW2  127   2.785   1.025   1.120 -2.4135 -0.5487  0.2869
   32SOL     MW  128   2.697   1.026   1.122 -0.1885 -0.6441 -0.1073
   33SOL     OW  129   1.755   1.251   0.323 -0.1595 -0.3934 -0.3874
   33SOL    HW1  130   1.768   1.170   0.379 -2.1700  0.0118 -1.0020
   33SOL    HW2  131   1.733   1.314   0.392 -1.0645  1.0007  0.0454
   33SOL     MW  132   1.754   1.249   0.339 -0.5442 -0.1560 -0.4114
   34SOL     OW  133   1.256   1.854   1.128 -0.4370 -0.1937  0.5066
   34SOL    HW1  134   1.170   1.899   1.132  0.4811 -3.2057  0.5569
   34SOL    HW2  135   1.313   1.884   1.206 -0.7625  1.6675  1.6133
   34SOL     MW  136   1.253   1.864   1.139 -0.3588 -0.3455  0.6593
   35SOL     OW  137   0.378   0.055   1.865  0.2336  0.3630  0.5724
   35SOL    HW1  138   0.397  -0.010   1.938 -0.6230  1.3663  2.8319
   35SOL    HW2  139   0.410   0.019   1.781  0.5348 -0.4622 -2.9589
   35SOL     MW  140   0.384   0.042   1.864  0.1604  0.3865  0.4046
   36SOL     OW  141   1.908   1.945   0.543  0.0472  0.7748  0.6883
   36SOL    HW1  142   1.907   1.928   0.446  2.1821  1.0664  0.6424
   36SOL    HW2  143   1.883   1.859   0.579 -0.3068  1.0681  0.8145
   36SOL     MW  144   1.905   1.931   0.535  0.2822  0.8520  0.6989
   37SOL     OW  145   1.746   2.000   0.940 -0.5591  0.3896  0.4714
   37SOL    HW1  146   1.696   1.937   0.889  3.4368  0.9762  0.5332
   37SOL    HW2  147   1.671   2.018   1.011 -0.0622  0.8535 -1.4105
   37SOL     MW  148   1.729   1.994   0.942  0.0337  0.5282  0.2313
   38SOL     OW  149   2.864   0.941   0.209 -0.1379  0.4545 -0.1602
   38SOL    HW1  150   2.904   0.954   0.295 -2.2836  1.5156 -1.8507
   38SOL    HW2  151   2.926   0.878   0.166  1.4464 -1.9497 -0.1656
   38SOL     MW  152   2.877   0.934   0.215 -0.2120  0.2773 -0.3840
   39SOL     OW  153   1.459   0.695   0.858  0.0205  0.0355  0.4768
   39SOL    HW1  154   1.429   0.602   0.853 -1.8667  0.6707 -0.1564
   39SOL    HW2  155   1.398   0.727   0.930  1.7232  1.3489  0.3328
   39SOL     MW  156   1.447   0.687   0.867 -0.0039  0.2926  0.3743
   40SOL     OW  157   1.290   1.875   0.273 -0.1093  0.1792 -0.1952
   40SOL    HW1  158   1.299   1.798   0.327 -0.3834 -0.2399 -0.3866
   40SOL    HW2  159   1.310   1.946   0.336 -0.6739 -0.8667  0.2834
   40SOL     MW  160   1.294   1.875   0.289 -0.2200 -0.0141 -0.1573
   41SOL     OW  161   0.587   0.522   1.580 -0.2358 -0.0019  0.5146
   41SOL    HW1  162   0.667   0.569   1.583  1.0708  1.7075 -0.2271
   41SOL    HW2  163   0.602   0.441   1.633 -1.0975 -1.9735  2.1249
   41SOL     MW  164   0.600   0.518   1.588 -0.1771 -0.0365  0.6292
   42SOL     OW  165   1.336   3.069   1.941 -0.0084 -0.1738  0.2221
   42SOL    HW1  166   1.245   3.029   1.937  1.8717 -0.4259  3.1091
   42SOL    HW2  167   1.385   2.998   1.986 -1.9775 -0.0081 -1.3060
   42SOL     MW  168   1.330   3.055   1.946 -0.0202 -0.1852  0.4014
   43SOL     OW  169   1.614   0.230   1.596 -0.2277  0.1732 -0.0464
   43SOL    HW1  170   1.666   0.168   1.539 -0.8793  0.6920 -1.0676
   43SOL    HW2  171   1.531   0.172   1.613 -0.3570  0.2457  0.6315
   43SOL     MW  172   1.610   0.214   1.591 -0.3308  0.2512 -0.0917
   44SOL     OW  173   1.325   0.759   1.082  0.1953 -0.2661  0.4545
   44SOL    HW1  174   1.314   0.855   1.072 -1.8274 -0.6749 -1.3174
   44SOL    HW2  175   1.308   0.743   1.175 -1.2529  0.9651  2.6487
   44SOL     MW  176   1.321   0.770   1.093 -0.2626 -0.1576  0.5102
   45SOL     OW  177   1.090   0.737   0.795  0.7114 -0.6234 -0.4743
   45SOL    HW1  178   1.050   0.730   0.882 -1.9119  1.2592  0.4938
   45SOL    HW2  179   1.144   0.655   0.775 -1.7181 -0.4658  0.6285
   45SOL     MW  180   1.092   0.725   0.804  0.0448 -0.3542 -0.2011
   46SOL     OW  181   0.594   1.122   0.598 -0.3397  0.7724 -0.0511
   46SOL    HW1  182   0.582   1.148   0.501 -0.1759  0.0419 -1.6568
   46SOL    HW2  183   0.679   1.080   0.599 -1.5454  1.2052 -0.2454
   46SOL     MW  184   0.604   1.120   0.585 -0.4771  0.7331 -0.2886
   47SOL     OW  185   0.131   1.932   1.830  0.3652 -0.1072  0.0191
   47SOL    HW1  186   0.187   1.872   1.785 -0.5178  1.5620  1.2507
   47SOL    HW2  187   0.133   1.898   1.921 -0.2305 -1.4432 -0.6062
   47SOL     MW  188   0.139   1.920   1.836  0.1701 -0.0632  0.0991
   48SOL     OW  189   1.020   0.659   1.052  0.4790 -0.2644 -0.3689
   48SOL    HW1  190   0.944   0.668   1.111  0.3785  1.9936 -0.0678
   48SOL    HW2  191   1.090   0.712   1.086 -1.3305 -1.3561 -2.2735
   48SOL     MW  192   1.019   0.667   1.064  0.2270 -0.1105 -0.5805
   49SOL     OW  193   1.868   0.755   1.601  0.4724 -0.4558 -0.1148
   49SOL    HW1  194   1.838   0.718   1.694 -0.1376  0.5825 -0.3552
   49SOL    HW2  195   1.930   0.687   1.567  1.2039 -0.4147  1.7128
   49SOL     MW  196   1.872   0.741   1.609  0.4884 -0.3134  0.0947
   50SOL     OW  197   1.297   0.987   0.547 -0.1467 -0.4017 -0.7421
   50SOL    HW1  198   1.273   1.013   0.638  0.8808  1.0497  0.3501
   50SOL    HW2  199   1.319   0.896   0.550 -2.9106  3.6292 -2.2075
   50SOL     MW  200   1.297   0.979   0.560 -0.3758  0.3216 -0.7914
   51SOL     OW  201   0.320   2.850   0.924  0.7519 -0.0752  0.6324
   51SOL    HW1  202   0.413   2.817   0.917 -2.0681 -0.8786  2.8835
   51SOL    HW2  203   0.326   2.904   1.006 -2.5839  0.1615  1.1330
   51SOL     MW  204   0.333   2.853   0.934 -0.0603 -0.1500  0.9954
   52SOL     OW  205   0.814   1.853   0.389 -0.4092 -0.4332 -0.2243
   52SOL    HW1  206   0.762   1.893   0.457  0.6414  0.5706  0.0616
   52SOL    HW2  207   0.767   1.858   0.303 -0.2570  1.9862 -0.0564
   52SOL     MW  208   0.801   1.859   0.387 -0.2505  0.0184 -0.1644
   53SOL     OW  209   0.406   2.046   0.593  0.6395  0.1835 -0.6371
   53SOL    HW1  210   0.363   2.042   0.509  1.5044 -1.1554  2.7235
   53SOL    HW2  211   0.406   2.134   0.628  1.9372  3.9964  1.8503
   53SOL     MW  212   0.401   2.057   0.587  0.9248  0.5100  0.1345
   54SOL     OW  213   2.215   0.825   0.865  0.0307 -0.1297  0.9165
   54SOL    HW1  214   2.240   0.777   0.785  0.1785 -0.5223  0.6633
   54SOL    HW2  215   2.122   0.830   0.858 -0.7141 -0.9124  0.8162
   54SOL     MW  216   2.206   0.819   0.854 -0.0481 -0.2848  0.8698
   55SOL     OW  217   0.528   1.463   1.559  0.6652  0.8762  0.1725
   55SOL    HW1  218   0.489   1.483   1.477  1.6910  0.5032  0.2209
   55SOL    HW2  219   0.605   1.410   1.537 -1.0927 -0.7751  0.4993
   55SOL     MW  220   0.533   1.459   1.545  0.5686  0.6091  0.2220
   56SOL     OW  221   0.538   0.769   0.090  0.0108  0.5563 -0.4004
   56SOL    HW1  222   0.586   0.831   0.031  0.7069  0.8702 -0.9201
   56SOL    HW2  223   0.449   0.775   0.068  1.1645  0.6456  2.2788
   56SOL     MW  224   0.533   0.778   0.079  0.2549  0.6095 -0.1155
   57SOL     OW  225   1.253   1.214   1.177 -0.0563  0.6019 -0.1047
   57SOL    HW1  226   1.345   1.226   1.202  0.6095  0.2647  0.2668
   57SOL    HW2  227   1.206   1.161   1.249 -1.9794 -0.1077  1.7460
   57SOL     MW  228   1.259   1.209   1.190 -0.2222  0.4638  0.1885
   58SOL     OW  229   0.697   1.096   1.294 -0.2004  0.2662  0.1876
   58SOL    HW1  230   0.642   1.173   1.279  2.1328 -1.1177 -1.1931
   58SOL    HW2  231   0.642   1.027   1.333 -0.0583 -0.8034  0.5352
   58SOL     MW  232   0.683   1.097   1.297  0.1262 -0.0575  0.0513
   59SOL     OW  233   1.521   1.620   0.272 -0.1480  0.5539 -0.1532
   59SOL    HW1  234   1.590   1.578   0.320  0.6882  0.7388  1.8929
   59SOL    HW2  235   1.465   1.654   0.344  1.6599 -0.9060  1.3646
   59SOL     MW  236   1.523   1.619   0.287  0.2009  0.3857  0.3170
   60SOL     OW  237   3.080   0.171   1.628 -0.0131  0.3066 -0.5904
   60SOL    HW1  238   3.023   0.244   1.650  0.7510 -2.1878 -0.1636
   60SOL    HW2  239   3.028   0.093   1.654 -1.9934  0.4819 -2.1355
   60SOL     MW  240   3.066   0.170   1.634 -0.1736  0.0006 -0.7380
   61SOL     OW  241   2.016   1.505   3.074  0.2859  0.3223  0.1773
   61SOL    HW1  242   1.988   1.522   3.163  0.7677 -0.1227  2.2973
   61SOL    HW2  243   2.055   1.423   3.066 -3.3109  1.3081  0.3725
   61SOL     MW  244   2.017   1.496   3.085 -0.1251  0.3936  0.4827
   62SOL     OW  245   0.605   1.630   0.577 -0.4664 -0.4662  0.5723
   62SOL    HW1  246   0.666   1.629   0.513 -0.2627  0.9161  1.6648
   62SOL    HW2  247   0.603   1.544   0.619  1.7905  1.8455 -2.0393
   62SOL     MW  248   0.613   1.619   0.574 -0.1417  0.0212  0.3719
   63SOL     OW  249   1.710   0.710   0.699  0.2052 -0.0626 -0.8869
   63SOL    HW1  250   1.711   0.765   0.622  1.6258  0.3670 -0.9855
   63SOL    HW2  251   1.625   0.707   0.743  1.2781  2.6560  2.7321
   63SOL     MW  252   1.699   0.717   0.694  0.5342  0.3528 -0.4224
   64SOL     OW  253   0.255   1.704   0.986 -0.3447  0.3659 -0.3572
   64SOL    HW1  254   0.322   1.721   0.928 -0.7987 -2.2415 -0.5901
   64SOL    HW2  255   0.182   1.762   0.961 -1.2622 -4.8538 -0.6763
   64SOL     MW  256   0.254   1.714   0.975 -0.5257 -0.6668 -0.4300
   65SOL     OW  257   1.523   2.250   0.324  0.8195  1.2096  0.2818
   65SOL    HW1  258   1.613   2.226   0.290  0.1832 -1.5103 -3.1504
   65SOL    HW2  259   1.527   2.317   0.392 -0.4043 -1.5093 -1.7783
   65SOL     MW  260   1.536   2.256   0.329  0.5741  0.4920 -0.4429
   66SOL     OW  261   0.313   0.582   0.517 -0.2107 -0.4772 -0.3253
   66SOL    HW1  262   0.385   0.542   0.474 -0.6843 -2.5041  0.6409
   66SOL    HW2  263   0.322   0.676   0.497  4.7807 -2.7853 -2.1654
   66SOL     MW  264   0.324   0.589   0.509  0.3854 -1.0492 -0.4406
   67SOL     OW  265   1.531   0.187   2.038  0.4077 -0.3022 -0.1528
   67SOL    HW1  266   1.552   0.236   1.953  1.2036  0.3513 -1.7977
   67SOL    HW2  267   1.490   0.101   2.007 -0.0312 -1.8111  0.4477
   67SOL     MW  268   1.528   0.182   2.023  0.4548 -0.4151 -0.2906
   68SOL     OW  269   0.640   0.070   2.972 -0.2396  0.1863 -0.4387
   68SOL    HW1  270   0.661   0.067   2.880 -0.6992  0.2490  0.5619
   68SOL    HW2  271   0.674   0.148   3.017 -0.6669 -2.6323 -1.4085
   68SOL     MW  272   0.648   0.080   2.966 -0.3566 -0.1773 -0.4346
   69SOL     OW  273   1.077   0.181   1.969 -0.2670 -0.1183 -0.2321
   69SOL    HW1  274   1.159   0.228   1.989 -0.5752  2.4917 -2.5995
   69SOL    HW2  275   1.092   0.087   1.979 -2.9433  1.7878  1.2099
   69SOL     MW  276   1.090   0.175   1.973 -0.6608  0.4776 -0.3542
   70SOL     OW  277   0.579   1.819   1.124  0.7714 -0.0268 -0.6832
   70SOL    HW1  278   0.593   1.736   1.171  1.6370 -1.0875  0.2799
   70SOL    HW2  279   0.660   1.821   1.067 -1.5308 -1.1202  0.4909
   70SOL     MW  280   0.592   1.808   1.123  0.5819 -0.3110 -0.4012
   71SOL     OW  281   1.762   0.702   1.238  0.0953 -0.0927 -0.1357
   71SOL    HW1  282   1.749   0.703   1.334  0.2210  0.7240  0.2674
   71SOL    HW2  283   1.689   0.650   1.207 -2.4837  0.3166 -0.8463
   71SOL     MW  284   1.750   0.695   1.247 -0.2284  0.0691 -0.1763
   72SOL     OW  285   0.823   1.827   0.991 -0.2336 -0.2323 -0.1228
   72SOL    HW1  286   0.818   1.874   0.909  1.0795  1.5087 -0.5378
   72SOL    HW2  287   0.860   1.737   0.980  0.6755 -0.0547  0.0784
   72SOL     MW  288   0.827   1.821   0.979  0.0596  0.0208 -0.1510
   73SOL     OW  289   1.285   0.668   1.350 -0.1720 -0.3215  0.0915
   73SOL    HW1  290   1.290   0.577   1.375  0.5820  0.3336 -0.0998
   73SOL    HW2  291   1.218   0.705   1.409  1.4906  0.1921 -0.4775
   73SOL     MW  292   1.277   0.661   1.361  0.1469 -0.1673 -0.0088
   74SOL     OW  293   2.756   0.119   1.012  0.2450  0.2999  0.2515
   74SOL    HW1  294   2.769   0.032   0.979  0.9070 -0.7968 -0.2888
   74SOL    HW2  295   2.812   0.180   0.960 -1.6161  1.2885  0.0070
   74SOL     MW  296   2.765   0.116   1.000  0.0868  0.2857  0.1480
   75SOL     OW  297   1.637   1.309   0.085 -0.5022  0.4662 -0.0194
   75SOL    HW1  298   1.675   1.295   0.174  1.4755  0.8454 -0.7876
   75SOL    HW2  299   1.669   1.232   0.047 -0.6899  1.8358  0.4233
   75SOL     MW  300   1.647   1.297   0.092 -0.2660  0.6969 -0.0623
   76SOL     OW  301   2.922   0.670   0.478 -0.1787  0.1925 -0.5408
   76SOL    HW1  302   2.956   0.684   0.566 -0.0662 -0.6438  0.7550
   76SOL    HW2  303   2.971   0.589   0.450  0.0408 -0.3481  0.0048
   76SOL     MW  304   2.933   0.661   0.486 -0.1349  0.0109 -0.2979
   77SOL     OW  305   0.895   0.408   0.520  0.0976 -0.0779 -0.1830
   77SOL    HW1  306   0.846   0.484   0.546  0.2706  1.0231  0.2263
   77SOL    HW2  307   0.819   0.343   0.514 -0.0230  1.4987 -1.8039
   77SOL     MW  308   0.879   0.409   0.523  0.1045  0.2754 -0.3429
   78SOL     OW  309   0.820   0.768   1.201 -1.0536 -0.2271  0.0046
   78SOL    HW1  310   0.751   0.761   1.136  1.3219  0.3644  1.1486
   78SOL    HW2  311   0.844   0.860   1.198 -0.1347 -0.3137 -0.7183
   78SOL     MW  312   0.814   0.779   1.192 -0.6189 -0.1605  0.0601
   79SOL     OW  313   1.840   1.658   0.594  0.5805  0.0683 -0.0199
   79SOL    HW1  314   1.775   1.597   0.568 -0.0934  3.1196 -0.2769
   79SOL    HW2  315   1.847   1.658   0.688 -2.4558  3.1538 -0.2669
   79SOL     MW  316   1.832   1.650   0.603  0.0910  0.8780 -0.0864
   80SOL     OW  317   0.157   0.985   0.295 -0.2381 -0.0403  0.2463
   80SOL    HW1  318   0.072   0.946   0.332  0.6127 -1.5772  0.8719
   80SOL    HW2  319   0.231   0.936   0.334 -1.0238  0.9844 -0.3728
   80SOL     MW  320   0.156   0.973   0.305 -0.2295 -0.1079  0.2472
   81SOL     OW  321   1.921   1.893   0.233 -0.3756  0.3149 -0.1422
   81SOL    HW1  322   1.846   1.861   0.174  0.3024  2.7981 -5.0069
   81SOL    HW2  323   1.905   1.985   0.242 -1.2335  0.0863 -0.2805
   81SOL     MW  324   1.909   1.901   0.226 -0.3993  0.6124 -0.8023
   82SOL     OW  325   0.824   0.970   0.561  0.8116  0.7301 -0.2228
   82SOL    HW1  326   0.903   0.986   0.509 -1.0116  2.1903  2.0274
   82SOL    HW2  327   0.827   0.876   0.569  0.4626 -2.1299 -0.7845
   82SOL     MW  328   0.835   0.959   0.555  0.5250  0.5454 -0.0000
   83SOL     OW  329   0.083   0.629   1.385  0.6060 -0.3367 -0.3528
   83SOL    HW1  330   0.108   0.724   1.366  2.5737 -1.3256  2.6611
   83SOL    HW2  331   0.157   0.593   1.431  1.9269  3.0335  0.1222
   83SOL     MW  332   0.096   0.637   1.389  1.0399 -0.0225  0.1075
   84SOL     OW  333   0.067   0.296   1.046  0.5254 -0.6724 -0.6995
   84SOL    HW1  334   0.003   0.294   0.973  0.1414  1.2759 -0.3714
   84SOL    HW2  335   0.068   0.206   1.083  1.3547 -1.2148  0.1460
   84SOL     MW  336   0.059   0.284   1.041  0.5841 -0.4869 -0.5447
   85SOL     OW  337   0.410   0.429   0.749  0.0774  0.2182  0.1097
   85SOL    HW1  338   0.360   0.471   0.679  4.1302 -0.3694  3.5177
   85SOL    HW2  339   0.359   0.347   0.764 -0.4633 -0.0476  0.5133
   85SOL     MW  340   0.397   0.424   0.742  0.5408  0.1056  0.6126
   86SOL     OW  341   1.185   0.435   1.132  0.3932  0.1289 -0.1259
   86SOL    HW1  342   1.119   0.483   1.074 -2.5544  0.2989 -2.4826
   86SOL    HW2  343   1.151   0.432   1.223 -1.3663 -0.5599  0.4067
   86SOL     MW  344   1.172   0.441   1.136 -0.2278  0.0604 -0.3665
   87SOL     OW  345   1.214   1.454   1.296 -0.7266 -0.2434 -0.3626
   87SOL    HW1  346   1.229   1.525   1.237 -0.9445  1.3204  0.0527
   87SOL    HW2  347   1.233   1.376   1.247  1.0403  1.2937 -0.5390
   87SOL     MW  348   1.218   1.453   1.282 -0.5222  0.1657 -0.3311
   88SOL     OW  349   1.361   1.016   1.002 -0.5269  0.1749 -0.4525
   88SOL    HW1  350   1.444   0.991   1.038 -1.9303  0.9384 -0.5793
   88SOL    HW2  351   1.329   1.088   1.060 -2.5775  0.7505 -1.3655
   88SOL     MW  352   1.368   1.022   1.014 -0.9826  0.3516 -0.5897
   89SOL     OW  353   1.749   0.584   0.298 -0.6717  0.5131  0.9015
   89SOL    HW1  354   1.802   0.541   0.363 -2.2063  3.2842  0.1898
   89SOL    HW2  355   1.813   0.649   0.266  0.7658 -0.1213 -2.4024
   89SOL     MW  356   1.764   0.587   0.302 -0.6845  0.7950  0.3717
   90SOL     OW  357   0.677   1.212   2.789  0.5299 -0.0495 -0.5921
   90SOL    HW1  358   0.749   1.149   2.777 -0.5521 -3.8851  0.1899
   90SOL    HW2  359   0.682   1.245   2.875 -0.3729 -0.3873 -1.7143
   90SOL     MW  360   0.688   1.208   2.798  0.2680 -0.6001 -0.6370
   91SOL     OW  361   2.060   0.702   0.496  0.2935 -0.5836  0.4614
   91SOL    HW1  362   2.081   0.788   0.469  1.7333 -1.6578 -1.2865
   91SOL    HW2  363   2.070   0.654   0.415  3.6774 -0.2920 -1.3996
   91SOL     MW  364   2.064   0.707   0.482  0.9300 -0.6868 -0.0148
   92SOL     OW  365   1.604   0.804   0.459 -0.3763  0.1548 -0.0913
   92SOL    HW1  366   1.529   0.761   0.503 -2.6070 -0.1039 -0.3609
   92SOL    HW2  367   1.647   0.738   0.402 -2.6604  2.2012 -1.0633
   92SOL     MW  368   1.600   0.789   0.457 -0.9720  0.3907 -0.2551
   93SOL     OW  369   1.065   0.250   0.323  0.5160  0.2235 -0.2943
   93SOL    HW1  370   0.986   0.298   0.345  0.7062  0.4228  1.6799
   93SOL    HW2  371   1.085   0.277   0.233  1.0507 -1.2259  1.2108
   93SOL     MW  372   1.058   0.260   0.314  0.6117  0.0586  0.1647
   94SOL     OW  373   1.936   1.287   1.644 -0.2461  0.4143 -0.1950
   94SOL    HW1  374   1.944   1.313   1.553 -1.4194  2.5963  1.5205
   94SOL    HW2  375   1.864   1.226   1.644  2.4107  2.4724  2.2046
   94SOL     MW  376   1.927   1.282   1.632 -0.0504  0.9737  0.3479
   95SOL     OW  377   0.876   1.535   0.976 -1.1237 -0.2461 -0.1132
   95SOL    HW1  378   0.921   1.453   0.986  0.5900 -1.7751  1.4351
   95SOL    HW2  379   0.805   1.533   1.033  2.5281  1.5936 -0.3909
   95SOL     MW  380   0.873   1.524   0.985 -0.4158 -0.2051  0.0544
   96SOL     OW  381   1.256   1.801   1.589 -0.2928  0.0436 -0.1126
   96SOL    HW1  382   1.168   1.753   1.586 -0.7162  1.2580 -3.3086
   96SOL    HW2  383   1.305   1.766   1.515 -3.0002  2.8079 -1.1556
   96SOL     MW  384   1.251   1.790   1.579 -0.7059  0.5686 -0.6719
   97SOL     OW  385   1.264   1.425   0.841  0.2513 -0.9920 -0.1094
   97SOL    HW1  386   1.279   1.492   0.909 -1.6799 -1.7607 -3.4222
   97SOL    HW2  387   1.189   1.464   0.794  0.5981 -0.5558 -0.2677
   97SOL     MW  388   1.256   1.439   0.843  0.0423 -1.0359 -0.5674
   98SOL     OW  389   1.508   1.317   1.179  0.2645  0.5305 -0.4263
   98SOL    HW1  390   1.528   1.407   1.208  0.2277  1.4223  0.3200
   98SOL    HW2  391   1.500   1.321   1.083  0.4358 -1.3740 -0.6317
   98SOL     MW  392   1.509   1.330   1.170  0.2822  0.3969 -0.3549
   99SOL     OW  393   1.523   0.299   1.279  0.2700  0.1361 -0.0351
   99SOL    HW1  394   1.507   0.374   1.231 -0.1026 -2.7153 -3.4345
   99SOL    HW2  395   1.513   0.332   1.369 -1.1546  3.6637  1.4178
   99SOL     MW  396   1.519   0.313   1.284  0.0329  0.2253 -0.2919
  100SOL     OW  397   1.092   1.068   1.333 -1.0609 -0.1415  0.4233
  100SOL    HW1  398   1.035   1.096   1.407 -0.5923  1.3367  0.4424
  100SOL    HW2  399   1.111   0.975   1.357 -1.0974  1.1044  0.5605
  100SOL     MW  400   1.087   1.060   1.346 -1.0039  0.2179  0.4439
  101SOL     OW  401   0.607   1.172   0.320 -0.0437 -0.3392 -0.2368
  101SOL    HW1  402   0.595   1.073   0.322 -0.0580 -0.9274 -0.2625
  101SOL    HW2  403   0.575   1.205   0.234 -0.3002  0.5015 -1.3205
  101SOL     MW  404   0.601   1.163   0.309 -0.0794 -0.3059 -0.3832
  102SOL     OW  405   2.953   0.588   0.975 -0.0936  0.0691  0.0700
  102SOL    HW1  406   3.011   0.671   0.968  1.9239  2.5376  0.9089
  102SOL    HW2  407   2.956   0.565   1.069  0.3669  0.1027 -2.2597
  102SOL     MW  408   2.961   0.596   0.986  0.2333  0.3992 -0.1267
  103SOL     OW  409   1.599   0.357   1.843  0.0056  0.0353  1.1953
  103SOL    HW1  410   1.631   0.326   1.756  1.5835 -1.8076 -1.7368
  103SOL    HW2  411   1.681   0.379   1.881  0.4170 -4.4379  2.1353
  103SOL     MW  412   1.614   0.356   1.837  0.2680 -0.7981  0.9324
  104SOL     OW  413   0.110   1.838   1.430 -0.0143  0.0987 -0.8667
  104SOL    HW1  414   0.202   1.807   1.422  0.2303 -0.2439 -0.5110
  104SOL    HW2  415   0.048   1.765   1.428  1.5355  4.0925 -0.4377
  104SOL     MW  416   0.114   1.824   1.428  0.2225  0.5804 -0.7632
  105SOL     OW  417   0.158   1.134   0.531  0.5167 -0.4256  0.5311
  105SOL    HW1  418   0.172   1.064   0.461 -0.3399 -0.3798  0.7265
  105SOL    HW2  419   0.199   1.217   0.506 -2.1806  1.9278  1.7763
  105SOL     MW  420   0.165   1.136   0.519  0.0478 -0.1090  0.7212
  106SOL     OW  421   0.833   0.315   0.939 -0.3051  0.6662 -0.4057
  106SOL    HW1  422   0.783   0.381   0.894  0.2818  0.7561 -0.8053
  106SOL    HW2  423   0.917   0.314   0.888 -1.1917 -1.6656  1.0076
  106SOL     MW  424   0.837   0.324   0.926 -0.3447  0.3704 -0.2719
  107SOL     OW  425   0.801   2.206   3.040  0.0931 -0.6107 -0.1268
  107SOL    HW1  426   0.770   2.120   3.010  1.3100 -0.5655 -2.7293
  107SOL    HW2  427   0.878   2.177   3.089  0.2927 -1.3496 -2.0156
  107SOL     MW  428   0.807   2.191   3.042  0.2800 -0.7022 -0.7194
  108SOL     OW  429   1.410   1.587   1.477  0.1607  0.0198 -0.8996
  108SOL    HW1  430   1.344   1.520   1.459  0.2219  1.3724 -1.6870
  108SOL    HW2  431   1.466   1.541   1.545  0.1965 -2.3902  3.2145
  108SOL     MW  432   1.409   1.572   1.483  0.1735 -0.1197 -0.4607
  109SOL     OW  433   1.960   0.757   0.205  0.1868  0.5689  1.2063
  109SOL    HW1  434   1.991   0.722   0.116 -0.2373 -0.2474 -1.5823
  109SOL    HW2  435   2.035   0.807   0.234  0.7457  3.0829 -1.7000
  109SOL     MW  436   1.974   0.759   0.197  0.2046  0.7929  0.4549
  110SOL     OW  437   0.395   1.795   0.707  0.3210  0.3427 -0.2505
  110SOL    HW1  438   0.467   1.745   0.670 -0.4143 -2.0297  0.0144
  110SOL    HW2  439   0.398   1.879   0.668  0.8484 -1.7058 -0.4847
  110SOL     MW  440   0.405   1.800   0.697  0.2936 -0.2406 -0.2464
  111SOL     OW  441   0.728   0.899   1.493  0.0194 -0.7054 -0.2100
  111SOL    HW1  442   0.769   0.813   1.486  0.5530  0.7969 -0.9206
  111SOL    HW2  443   0.674   0.885   1.571  0.2125  1.0991  2.3182
  111SOL     MW  444   0.726   0.886   1.502  0.1152 -0.2691  0.0298
  112SOL     OW  445   1.304   1.103   1.627  0.2078  0.1693  0.3186
  112SOL    HW1  446   1.255   1.183   1.665  0.9984  0.5071  0.1856
  112SOL    HW2  447   1.257   1.016   1.641 -1.1802 -2.0070  2.2198
  112SOL     MW  448   1.291   1.102   1.634  0.1289 -0.0733  0.5519
  113SOL     OW  449   1.365   0.092   1.687 -0.2289  0.1885 -0.1164
  113SOL    HW1  450   1.371   0.062   1.781  1.0581 -0.7967 -2.1062
  113SOL    HW2  451   1.347   0.009   1.637 -0.9060  3.1835  2.3372
  113SOL     MW  452   1.363   0.077   1.693 -0.1484  0.4537 -0.0552
  114SOL     OW  453   0.440   2.809   1.851  0.1496 -0.3196 -0.4394
  114SOL    HW1  454   0.423   2.854   1.933 -2.4587 -0.7322 -0.2982
  114SOL    HW2  455   0.422   2.868   1.779 -0.4761  1.1878 -1.5852
  114SOL     MW  456   0.435   2.822   1.852 -0.2771 -0.1751 -0.5719
  115SOL     OW  457   0.452   0.852   1.089  0.7681  0.1764 -0.2060
  115SOL    HW1  458   0.486   0.765   1.070 -0.8983  1.2449 -1.2863
  115SOL    HW2  459   0.425   0.848   1.179 -1.4516 -0.8611 -0.8717
  115SOL     MW  460   0.453   0.840   1.098  0.2553  0.1805 -0.4363
  116SOL     OW  461   0.767   1.009   0.914 -0.5117  0.1492  0.0135
  116SOL    HW1  462   0.835   1.049   0.854 -2.2976 -0.5192 -1.5362
  116SOL    HW2  463   0.820   1.006   0.993  0.3570 -1.8300  0.9032
  116SOL     MW  464   0.783   1.014   0.917 -0.6327 -0.2001 -0.0736
  117SOL     OW  465   1.194   1.125   0.780  0.4516  0.2817  0.0371
  117SOL    HW1  466   1.245   1.071   0.836 -3.3305  3.4154 -2.0600
  117SOL    HW2  467   1.219   1.209   0.813 -0.0222 -0.8309 -0.0315
  117SOL     MW  468   1.204   1.129   0.792 -0.1099  0.5484 -0.2487
  118SOL     OW  469   3.091   2.955   1.720  0.0921  0.0761  0.4357
  118SOL    HW1  470   3.120   3.014   1.799 -1.1480  0.5268  0.7826
  118SOL    HW2  471   2.994   2.947   1.711  1.1689 -1.9831  1.3058
  118SOL     MW  472   3.082   2.962   1.729  0.0705 -0.1361  0.5963
  119SOL     OW  473   0.555   1.320   1.206  0.2060  0.2915 -0.2160
  119SOL    HW1  474   0.532   1.327   1.108  2.2803  0.3019  0.4415
  119SOL    HW2  475   0.472   1.290   1.239  2.1611  2.7471  1.6773
  119SOL     MW  476   0.541   1.317   1.197  0.7376  0.6169  0.1206
  120SOL     OW  477   0.215   0.662   0.933  0.1108  0.4994 -0.1633
  120SOL    HW1  478   0.236   0.638   1.025 -1.7507  1.2184  1.4937
  120SOL    HW2  479   0.266   0.743   0.917  1.9450  1.5317 -1.4713
  120SOL     MW  480   0.225   0.669   0.943  0.1072  0.7304 -0.1173
  121SOL     OW  481   1.788   1.034   1.718  0.7318 -0.4426 -0.0541
  121SOL    HW1  482   1.698   1.022   1.700  2.5127  1.6936 -0.2639
  121SOL    HW2  483   1.816   0.948   1.699 -0.6972  2.0644 -0.1663
  121SOL     MW  484   1.780   1.021   1.713  0.7782  0.1700 -0.0966
  122SOL     OW  485   0.104   0.515   0.724  0.1264 -0.0947  0.3797
  122SOL    HW1  486   0.152   0.545   0.648  1.3793 -2.8615 -0.6972
  122SOL    HW2  487   0.154   0.554   0.797  0.3678  1.0524  0.5253
  122SOL     MW  488   0.117   0.524   0.724  0.3236 -0.3084  0.2568
  123SOL     OW  489   1.797   1.018   0.466 -0.3052  0.0139 -0.0329
  123SOL    HW1  490   1.710   0.979   0.474 -1.5590  3.3711  2.2977
  123SOL    HW2  491   1.832   1.044   0.555  3.0394  0.6610  0.0931
  123SOL     MW  492   1.790   1.016   0.479 -0.0293  0.5422  0.2912
  124SOL     OW  493   0.669   0.499   0.820  0.0001  0.0406  0.2745
  124SOL    HW1  494   0.576   0.483   0.799  1.0625  1.8187  0.0951
  124SOL    HW2  495   0.693   0.592   0.818 -0.0012 -2.6244  0.9449
  124SOL     MW  496   0.660   0.509   0.817  0.1401 -0.0764  0.3392
  125SOL     OW  497   0.696   1.666   1.651 -0.5024 -0.3015  0.0668
  125SOL    HW1  498   0.620   1.608   1.644  3.7022  2.0356  1.3083
  125SOL    HW2  499   0.668   1.757   1.636 -0.7152  0.8601 -2.4434
  125SOL     MW  500   0.683   1.671   1.648  0.0242  0.1602 -0.1006
  126SOL     OW  501   2.129   1.613   1.950  0.1710 -0.1839 -0.5060
  126SOL    HW1  502   2.168   1.705   1.949  1.4943  0.0977 -0.4040
  126SOL    HW2  503   2.201   1.555   1.971 -0.9867  1.0774 -2.0500
  126SOL     MW  504   2.144   1.617   1.953  0.1928  0.0196 -0.6963
  127SOL     OW  505   0.606   0.726   1.902  0.1007 -0.4743 -0.1147
  127SOL    HW1  506   0.681   0.673   1.924  2.2534 -1.4199  0.5949
  127SOL    HW2  507   0.630   0.817   1.927  0.9139  2.1777  1.4197
  127SOL     MW  508   0.619   0.731   1.908  0.4920 -0.2492  0.1814
  128SOL     OW  509   1.749   0.747   2.885  0.1315  0.2119  0.3416
  128SOL    HW1  510   1.784   0.726   2.799  0.4123  1.4599  2.1179
  128SOL    HW2  511   1.713   0.836   2.873  0.7634 -1.1070 -2.3792
  128SOL     MW  512   1.749   0.756   2.872  0.2519  0.2025  0.2170
  129SOL     OW  513   1.481   0.959   0.202  0.0756  0.1958  0.0392
  129SOL    HW1  514   1.417   0.904   0.156  0.7738 -1.0467  1.4996
  129SOL    HW2  515   1.501   0.932   0.290  2.0435 -0.0943  0.3826
  129SOL     MW  516   1.475   0.948   0.207  0.4274 -0.0064  0.2772
  130SOL     OW  517   0.751   1.491   0.359 -0.5329 -0.4419  0.1294
  130SOL    HW1  518   0.788   1.452   0.438  2.6256 -0.8512  2.8917
  130SOL    HW2  519   0.832   1.525   0.310 -0.4906  2.2955 -0.7599
  130SOL     MW  520   0.767   1.491   0.363 -0.1106 -0.1347  0.3765
  131SOL     OW  521   3.035   0.778   0.059 -0.2392 -0.5857  0.2498
  131SOL    HW1  522   3.053   0.852  -0.009 -0.0565 -0.7563 -3.1327
  131SOL    HW2  523   3.129   0.752   0.086  2.6209 -1.5438  0.2320
  131SOL     MW  524   3.050   0.784   0.054  0.1623 -0.7346 -0.1988
  132SOL     OW  525   2.728   0.170   1.273  0.9362 -0.2194  0.2722
  132SOL    HW1  526   2.732   0.155   1.177  1.1481  0.7686 -0.5458
  132SOL    HW2  527   2.638   0.133   1.294  0.7653  0.4312  0.0699
  132SOL     MW  528   2.716   0.163   1.263  0.9416 -0.0032  0.1376
  133SOL     OW  529   1.122   0.208   1.693  0.2015 -0.5981 -0.4493
  133SOL    HW1  530   1.206   0.161   1.702 -0.1686 -0.3132  0.9563
  133SOL    HW2  531   1.083   0.190   1.778  0.6805 -0.1588  0.0893
  133SOL     MW  532   1.128   0.199   1.705  0.2159 -0.5026 -0.1928
  134SOL     OW  533   1.352   2.505   1.402  0.2847  0.4948 -0.5748
  134SOL    HW1  534   1.295   2.577   1.383  1.0455 -2.1631  2.5436
  134SOL    HW2  535   1.393   2.530   1.486  1.1084  0.5929 -4.9865
  134SOL     MW  536   1.350   2.518   1.411  0.4938  0.1571 -0.7455
  135SOL     OW  537   3.039   0.971   2.962 -0.2103 -0.2908  0.3209
  135SOL    HW1  538   3.098   1.051   2.978  0.4318  0.4216  0.8781
  135SOL    HW2  539   2.949   1.019   2.979 -1.7203  2.4064  2.6182
  135SOL     MW  540   3.035   0.988   2.966 -0.3248  0.1591  0.6975
  136SOL     OW  541   0.263   1.991   0.859  0.9540  0.3724 -0.4576
  136SOL    HW1  542   0.170   1.962   0.855  2.4092 -2.5143 -1.6852
  136SOL    HW2  543   0.309   1.947   0.780 -1.0153 -1.9114 -3.2921
  136SOL     MW  544   0.256   1.982   0.848  0.8862 -0.3098 -0.9936
  137SOL     OW  545   0.672   1.997   0.567  0.8617 -0.0918 -0.4267
  137SOL    HW1  546   0.690   1.968   0.656 -1.5928  0.1426  1.0861
  137SOL    HW2  547   0.576   2.026   0.572 -1.0422 -1.0870  1.0890
  137SOL     MW  548   0.662   1.997   0.579  0.2867 -0.1922 -0.0271
  138SOL     OW  549   0.540   0.598   1.058 -0.5239 -0.6774  0.1200
  138SOL    HW1  550   0.477   0.531   1.065  0.0646  1.9760  2.0421
  138SOL    HW2  551   0.598   0.565   0.991  1.7058  1.4928  0.0795
  138SOL     MW  552   0.539   0.584   1.050 -0.1520 -0.0410  0.3682
  139SOL     OW  553   2.755   0.526   1.417 -0.3277 -0.1135 -0.0885
  139SOL    HW1  554   2.814   0.457   1.394  0.8920 -0.0693  2.1729
  139SOL    HW2  555   2.818   0.607   1.438 -1.7156  1.4212  1.6480
  139SOL     MW  556   2.771   0.527   1.417 -0.3499  0.0949  0.4390
  140SOL     OW  557   0.865   0.315   2.136 -0.0240  0.1479 -0.1480
  140SOL    HW1  558   0.930   0.284   2.074  0.9594  0.2356  1.0245
  140SOL    HW2  559   0.890   0.274   2.225 -0.0546  1.1397  5.9892
  140SOL     MW  560   0.877   0.305   2.140  0.1017  0.2903  0.8164
  141SOL     OW  561   1.011   0.606   1.765 -0.4113  0.1464  0.0534
  141SOL    HW1  562   1.074   0.547   1.708  1.9733  2.0835  0.6633
  141SOL    HW2  563   1.059   0.685   1.759 -0.3679 -1.3856 -0.4709
  141SOL     MW  564   1.026   0.609   1.757 -0.0909  0.1998  0.0647
  142SOL     OW  565   0.928   1.138   0.727  0.0200  0.0250  0.3498
  142SOL    HW1  566   0.903   1.076   0.660  0.8263 -0.1290  1.0485
  142SOL    HW2  567   1.030   1.131   0.736 -1.3855 -3.3826  0.9683
  142SOL     MW  568   0.938   1.129   0.719 -0.0591 -0.4449  0.5236
  143SOL     OW  569   1.883   0.920   1.121  0.1776 -0.2287 -0.1008
  143SOL    HW1  570   1.909   0.893   1.033  1.8152 -0.5013 -0.3476
  143SOL    HW2  571   1.846   0.841   1.160 -0.4388 -0.8967 -0.7689
  143SOL     MW  572   1.881   0.906   1.114  0.3123 -0.3528 -0.2215
  144SOL     OW  573   0.138   1.169   1.549 -0.0320  0.0655 -0.4965
  144SOL    HW1  574   0.232   1.149   1.556 -0.8603 -1.1061  1.2847
  144SOL    HW2  575   0.115   1.209   1.633  0.2138  0.6058 -0.0577
  144SOL     MW  576   0.148   1.172   1.561 -0.1088 -0.0178 -0.2036
  145SOL     OW  577   0.281   0.457   1.137  0.4482  0.2935 -0.2991
  145SOL    HW1  578   0.338   0.405   1.189  2.3628  2.3175 -2.1191
  145SOL    HW2  579   0.212   0.401   1.101 -0.9868 -2.1969 -3.0786
  145SOL     MW  580   0.280   0.442   1.139  0.5115  0.2319 -0.9059
  146SOL     OW  581   0.896   1.901   1.401  0.2956 -0.2220 -0.0429
  146SOL    HW1  582   0.944   1.921   1.311  0.5732 -0.4859 -1.5543
  146SOL    HW2  583   0.802   1.920   1.385 -0.5322 -1.9965  1.2010
  146SOL     MW  584   0.890   1.906   1.387  0.2230 -0.4909 -0.0782
  147SOL     OW  585   0.400   0.448   2.852 -0.6167  0.2814  0.1689
  147SOL    HW1  586   0.350   0.454   2.929 -0.0086  1.2156 -3.7640
  147SOL    HW2  587   0.355   0.493   2.783  0.3405  0.0370 -1.6292
  147SOL     MW  588   0.388   0.454   2.853 -0.4102  0.3724 -0.5872
  148SOL     OW  589   0.039   0.935   1.298  0.6080  0.1826  0.1287
  148SOL    HW1  590   0.133   0.934   1.304 -0.3772  2.6469  0.3006
  148SOL    HW2  591   0.004   0.952   1.382 -1.3826  0.4253  2.4089
  148SOL     MW  592   0.047   0.937   1.310  0.2154  0.5398  0.4523
  149SOL     OW  593   1.421   1.121   1.386 -0.1460 -0.0998  0.8888
  149SOL    HW1  594   1.359   1.117   1.464  0.2260 -1.3259  0.6440
  149SOL    HW2  595   1.462   1.208   1.393 -0.4918  1.4849  0.6463
  149SOL     MW  596   1.418   1.132   1.397 -0.1425 -0.0525  0.8246
  150SOL     OW  597   1.824   1.343   0.744 -0.0359 -0.3315  0.2537
  150SOL    HW1  598   1.855   1.252   0.750 -0.9862 -0.0613  2.7216
  150SOL    HW2  599   1.874   1.393   0.803 -1.0475  0.4716  0.4777
  150SOL     MW  600   1.834   1.337   0.752 -0.2947 -0.1899  0.6089
  151SOL     OW  601   1.618   1.789   0.841  0.2770  0.1497  0.8136
  151SOL    HW1  602   1.547   1.787   0.779  1.8189  0.3697 -0.6517
  151SOL    HW2  603   1.588   1.722   0.903 -1.3267  0.6047 -0.8400
  151SOL     MW  604   1.605   1.780   0.841  0.2688  0.2388  0.4021
  152SOL     OW  605   0.769   1.339   1.545  0.2097  0.6183  0.0019
  152SOL    HW1  606   0.798   1.252   1.546  0.4401 -0.1324 -2.2673
  152SOL    HW2  607   0.855   1.381   1.519  1.7780  0.5896  0.5389
  152SOL     MW  608   0.784   1.333   1.542  0.4470  0.5155 -0.2266
  153SOL     OW  609   2.664   1.225   0.689 -0.0950 -0.0120 -0.2354
  153SOL    HW1  610   2.724   1.216   0.618 -0.6565  1.2138  1.4476
  153SOL    HW2  611   2.597   1.156   0.679  3.0512  1.5086  0.3029
  153SOL     MW  612   2.663   1.215   0.678  0.2461  0.3503  0.0577
  154SOL     OW  613   0.320   1.776   1.706 -0.0295  0.1740 -0.4113
  154SOL    HW1  614   0.364   1.760   1.629  0.2962  0.8769  2.3752
  154SOL    HW2  615   0.337   1.700   1.765  0.2985 -0.2969 -1.6959
  154SOL     MW  616   0.328   1.764   1.703  0.0567  0.2046 -0.2132
  155SOL     OW  617   1.102   0.729   0.263 -0.0562 -0.4718  0.6756
  155SOL    HW1  618   1.134   0.664   0.328  0.5541  0.1750  0.0734
  155SOL    HW2  619   1.091   0.815   0.308  2.0825 -0.3109  2.3659
  155SOL     MW  620   1.105   0.732   0.278  0.3065 -0.3653  0.8192
  156SOL     OW  621   1.517   3.068   1.032 -0.9057 -1.1406  0.2433
  156SOL    HW1  622   1.589   3.133   1.045  1.2656 -0.5851  2.6987
  156SOL    HW2  623   1.545   2.988   1.075 -0.7578 -1.0381 -1.0865
  156SOL     MW  624   1.530   3.066   1.039 -0.5997 -1.0538  0.3918
  157SOL     OW  625   1.387   1.211   0.126 -0.9298  0.9296 -0.0184
  157SOL    HW1  626   1.415   1.120   0.139  0.5901 -1.8622  0.4283
  157SOL    HW2  627   1.474   1.252   0.108 -0.5729 -0.5057 -0.3132
  157SOL     MW  628   1.402   1.205   0.125 -0.6822  0.3719  0.0017
  158SOL     OW  629   0.385   1.644   2.286 -0.5633  0.0206 -0.1912
  158SOL    HW1  630   0.369   1.733   2.256  0.6808  2.2107  0.7019
  158SOL    HW2  631   0.298   1.617   2.329 -3.0255 -4.0996 -5.0624
  158SOL     MW  632   0.371   1.652   2.287 -0.7240 -0.2340 -0.7161
  159SOL     OW  633   1.302   1.654   0.438  0.2292 -0.2485  0.2809
  159SOL    HW1  634   1.277   1.566   0.412  0.9468  3.4013  1.0189
  159SOL    HW2  635   1.215   1.695   0.459 -0.0574  1.6504 -0.0698
  159SOL     MW  636   1.287   1.648   0.437  0.2861  0.4836  0.3320
  160SOL     OW  637   0.445   1.073   1.547  0.2464  0.0450 -0.0810
  160SOL    HW1  638   0.438   0.996   1.602 -0.5801  0.5664 -2.3282
  160SOL    HW2  639   0.477   1.142   1.607  0.7849 -0.5518 -0.8690
  160SOL     MW  640   0.448   1.072   1.562  0.2084  0.0351 -0.4815
  161SOL     OW  641   0.595   2.118   2.705 -0.4425  0.1439 -0.0727
  161SOL    HW1  642   0.519   2.117   2.764 -0.6307 -0.4023  1.4835
  161SOL    HW2  643   0.559   2.107   2.617  2.6092  0.3670  2.3249
  161SOL     MW  644   0.580   2.116   2.701 -0.0647  0.1013  0.4489
  162SOL     OW  645   1.036   1.712   1.822 -0.1758 -0.1239 -0.7078
  162SOL    HW1  646   1.048   1.814   1.815 -1.0801 -0.1501  3.6118
  162SOL    HW2  647   0.937   1.696   1.832  0.9165 -2.4413  1.5473
  162SOL     MW  648   1.025   1.723   1.822 -0.1510 -0.4331  0.1597
  163SOL     OW  649   2.134   0.149   0.981 -0.1097  0.2446 -0.5779
  163SOL    HW1  650   2.131   0.171   0.884 -2.0037  0.2472  1.4461
  163SOL    HW2  651   2.068   0.084   0.998  0.0431  1.8675  2.1068
  163SOL     MW  652   2.125   0.144   0.970 -0.3394  0.4591  0.0434
  164SOL     OW  653   0.251   0.198   0.819 -0.7570  0.1595  0.1139
  164SOL    HW1  654   0.170   0.229   0.846 -0.5702 -1.8018 -2.2586
  164SOL    HW2  655   0.239   0.112   0.775  2.1217  1.0957 -1.8378
  164SOL     MW  656   0.239   0.191   0.817 -0.3525  0.0242 -0.4567
  165SOL     OW  657   1.370   1.218   0.416 -0.2245 -0.1074 -0.3862
  165SOL    HW1  658   1.340   1.129   0.436  1.8851  0.1328  0.1916
  165SOL    HW2  659   1.421   1.212   0.338  0.1480  0.6661  1.9595
  165SOL     MW  660   1.373   1.206   0.408  0.1030  0.0263 -0.0005
  166SOL     OW  661   0.525   1.077   0.968 -0.4650 -0.1901  0.0984
  166SOL    HW1  662   0.487   1.012   1.031  2.0505 -0.8735  1.4352
  166SOL    HW2  663   0.624   1.066   0.968 -1.9980 -1.8868  3.8006
  166SOL     MW  664   0.533   1.067   0.976 -0.3354 -0.5041  0.7633
  167SOL     OW  665   0.917   1.149   0.266 -0.4871 -0.1716 -0.4790
  167SOL    HW1  666   0.822   1.161   0.256  1.6446 -1.8829  1.6102
  167SOL    HW2  667   0.954   1.180   0.185  1.7914  1.7435  0.4175
  167SOL     MW  668   0.909   1.155   0.254  0.0948 -0.1447 -0.0851
  168SOL     OW  669   1.688   1.752   2.886  0.0049 -0.5457  0.0505
  168SOL    HW1  670   1.649   1.823   2.939 -0.3933 -1.7216 -1.5797
  168SOL    HW2  671   1.677   1.668   2.941 -1.3243 -0.3941  0.4848
  168SOL     MW  672   1.681   1.750   2.900 -0.2230 -0.6808 -0.1073
  169SOL     OW  673   0.308   0.922   1.329 -0.6557 -0.0120  0.3936
  169SOL    HW1  674   0.370   0.945   1.396  1.6658  0.5406  0.3798
  169SOL    HW2  675   0.294   1.016   1.304  0.0939  1.3802 -0.5989
  169SOL     MW  676   0.315   0.938   1.334 -0.2505  0.2446  0.2608
  170SOL     OW  677   1.030   1.464   1.485  0.5701  0.1891 -0.8385
  170SOL    HW1  678   0.963   1.534   1.475 -0.2684  1.6046  1.2069
  170SOL    HW2  679   1.083   1.462   1.407 -1.1988 -2.0249  1.1967
  170SOL     MW  680   1.028   1.473   1.474  0.2261  0.0837 -0.3001
  171SOL     OW  681   0.595   1.399   0.714  0.1099 -0.0949 -0.3267
  171SOL    HW1  682   0.549   1.381   0.798 -1.9925 -0.6899  0.4961
  171SOL    HW2  683   0.602   1.314   0.675  0.9031 -1.9428  2.1101
  171SOL     MW  684   0.590   1.385   0.720 -0.0628 -0.4172  0.1034
  172SOL     OW  685   0.833   0.322   1.215 -0.3134  0.1805  0.3167
  172SOL    HW1  686   0.840   0.337   1.120  1.0672 -0.4930 -0.6356
  172SOL    HW2  687   0.759   0.371   1.245  2.2061 -1.5400 -1.9177
  172SOL     MW  688   0.824   0.331   1.206  0.2012 -0.1353 -0.1038
  173SOL     OW  689   0.460   1.675   0.321  0.2320 -0.0078  0.0232
  173SOL    HW1  690   0.466   1.581   0.298 -0.0044 -2.4734 -0.5161
  173SOL    HW2  691   0.484   1.681   0.414  1.5167  0.3380 -0.9887
  173SOL     MW  692   0.464   1.663   0.330  0.3703 -0.2875 -0.1814
  174SOL     OW  693   2.028   0.963   1.524 -0.0968 -0.0612 -0.7166
  174SOL    HW1  694   1.975   0.879   1.538 -0.1129 -2.3198  4.6694
  174SOL    HW2  695   1.959   1.032   1.499 -1.0732 -2.2218  0.8101
  174SOL     MW  696   2.012   0.961   1.522 -0.2278 -0.6442  0.1955
  175SOL     OW  697   0.424   1.404   0.357  0.2812  0.7874 -0.0127
  175SOL    HW1  698   0.403   1.390   0.262  1.3427  1.8261 -3.5728
  175SOL    HW2  699   0.515   1.371   0.374 -0.5538  1.8787 -1.3468
  175SOL     MW  700   0.433   1.398   0.347  0.3111  1.0685 -0.6585
  176SOL     OW  701   0.297   1.219   1.261  0.3203 -0.5411 -0.3925
  176SOL    HW1  702   0.238   1.227   1.187 -1.3926  0.0981  0.0001
  176SOL    HW2  703   0.259   1.281   1.325 -0.7662  3.3785  3.1286
  176SOL     MW  704   0.284   1.228   1.260 -0.0490  0.0604  0.1239
  177SOL     OW  705   0.616   0.460   1.316  0.6991 -0.1468 -0.1182
  177SOL    HW1  706   0.572   0.527   1.260 -1.2419  0.9046 -2.6335
  177SOL    HW2  707   0.604   0.482   1.410  0.1479  0.7392 -2.4085
  177SOL     MW  708   0.608   0.472   1.321  0.3703  0.1088 -0.7522
  178SOL     OW  709   3.098   0.442   2.953 -0.1077 -0.1452 -0.2725
  178SOL    HW1  710   3.043   0.468   3.029  0.9620 -0.4853 -1.9064
  178SOL    HW2  711   3.038   0.456   2.876 -0.7727 -1.0218 -0.4205
  178SOL     MW  712   3.083   0.447   2.953 -0.0543 -0.3058 -0.5076
  179SOL     OW  713   1.619   1.334   1.491 -0.0385  0.2037  0.1334
  179SOL    HW1  714   1.586   1.377   1.573 -1.2282  2.4266  2.7976
  179SOL    HW2  715   1.711   1.337   1.508 -0.4560 -0.9946  0.0715
  179SOL     MW  716   1.627   1.340   1.504 -0.2506  0.3389  0.4768
  180SOL     OW  717   3.030   0.272   0.486  0.3581  0.3341  0.3221
  180SOL    HW1  718   2.987   0.278   0.395 -1.6648  0.9134 -1.2340
  180SOL    HW2  719   3.088   0.348   0.495 -2.2038  0.1390 -1.0761
  180SOL     MW  720   3.032   0.283   0.475 -0.2468  0.3848 -0.0677
  181SOL     OW  721   1.125   1.420   3.084 -0.0626  0.3050 -0.4896
  181SOL    HW1  722   1.152   1.479   3.154 -0.4970  1.9224 -1.3077
  181SOL    HW2  723   1.198   1.446   3.023 -1.5684 -0.9543 -0.9442
  181SOL     MW  724   1.138   1.431   3.085 -0.3186  0.3522 -0.6575
  182SOL     OW  725   0.475   0.803   1.663  0.1578  0.0428 -0.6281
  182SOL    HW1  726   0.387   0.773   1.650  1.9210  0.7868  0.2455
  182SOL    HW2  727   0.512   0.741   1.729  1.4884 -1.6034 -1.0013
  182SOL     MW  728   0.468   0.791   1.670  0.5660 -0.0763 -0.5621
  183SOL     OW  729   1.618   1.541   1.304  0.4761 -0.1660  0.1375
  183SOL    HW1  730   1.544   1.581   1.358 -3.0016 -1.8032  2.2386
  183SOL    HW2  731   1.642   1.458   1.348  0.7921 -0.5938  0.4994
  183SOL     MW  732   1.611   1.536   1.317  0.0590 -0.4384  0.4625
  184SOL     OW  733   0.829   0.584   1.979  0.2286  0.9572 -0.4918
  184SOL    HW1  734   0.910   0.593   1.922  2.6438 -1.3761 -1.9116
  184SOL    HW2  735   0.838   0.511   2.049  0.9678  0.1021  1.8533
  184SOL     MW  736   0.841   0.576   1.981  0.6448  0.5365 -0.3697
  185SOL     OW  737   1.114   0.960   1.941  0.0081  0.0602 -0.3452
  185SOL    HW1  738   1.094   0.886   1.994  1.8235  2.1237 -1.4252
  185SOL    HW2  739   1.150   1.026   2.010  1.0740  0.3265  0.8540
  185SOL     MW  740   1.116   0.959   1.957  0.3883  0.3676 -0.3294
  186SOL     OW  741   0.363   1.694   1.414  0.4868 -0.6884  0.0742
  186SOL    HW1  742   0.420   1.752   1.364  0.0099 -0.6581 -3.4674
  186SOL    HW2  743   0.332   1.631   1.349  0.2511  0.4918 -1.1631
  186SOL     MW  744   0.366   1.693   1.399  0.3928 -0.5287 -0.5564
  187SOL     OW  745   1.508   0.667   1.481 -0.1644  0.2320 -0.3436
  187SOL    HW1  746   1.490   0.688   1.571 -0.8176  2.4195 -1.6125
  187SOL    HW2  747   1.424   0.682   1.432 -0.8533  0.3214 -0.4823
  187SOL     MW  748   1.495   0.672   1.486 -0.3414  0.5325 -0.5293
  188SOL     OW  749   1.921   1.079   0.719  0.0357 -0.7494  0.2103
  188SOL    HW1  750   1.902   1.007   0.782  0.5099 -1.4217  0.8471
  188SOL    HW2  751   2.013   1.078   0.697 -2.6695 -0.6445 -2.8426
  188SOL     MW  752   1.930   1.069   0.725 -0.2587 -0.8242 -0.1085
  189SOL     OW  753   0.658   0.784   0.802  0.1251  0.2582  0.1213
  189SOL    HW1  754   0.562   0.798   0.800  1.1778 -4.8651 -1.6515
  189SOL    HW2  755   0.697   0.861   0.841  3.0739 -0.9967  0.1436
  189SOL     MW  756   0.650   0.796   0.807  0.6530 -0.5833 -0.1097
  190SOL     OW  757   1.857   0.367   1.968  0.1858 -0.6349 -0.0596
  190SOL    HW1  758   1.869   0.279   1.948 -2.7808  0.9363 -0.8497
  190SOL    HW2  759   1.945   0.411   1.953  0.7511 -0.7449 -1.4753
  190SOL     MW  760   1.871   0.361   1.963 -0.1310 -0.4421 -0.3506
  191SOL     OW  761   1.607   0.935   1.499 -0.4766 -0.2600 -1.2780
  191SOL    HW1  762   1.536   0.971   1.439  0.1036 -0.5749 -1.7504
  191SOL    HW2  763   1.591   0.841   1.488 -4.7138  0.3317  0.0201
  191SOL     MW  764   1.596   0.928   1.490 -0.9591 -0.2235 -1.1691
  192SOL     OW  765   0.747   1.964   2.924  0.2347  0.2808 -0.1538
  192SOL    HW1  766   0.739   1.988   2.831  3.1974 -1.1424 -0.7486
  192SOL    HW2  767   0.668   1.908   2.930  0.8644 -1.7252 -1.6935
  192SOL     MW  768   0.735   1.959   2.913  0.7087 -0.1717 -0.4354
  193SOL     OW  769   1.037   1.555   0.740 -0.0171  0.4155 -0.4842
  193SOL    HW1  770   1.001   1.558   0.832 -0.7543  1.3800 -1.9785
  193SOL    HW2  771   0.972   1.509   0.683 -2.4639  0.5476 -0.3282
  193SOL     MW  772   1.024   1.550   0.745 -0.4372  0.5602 -0.6608
  194SOL     OW  773   0.459   1.343   0.953  0.1898 -0.1786  0.1875
  194SOL    HW1  774   0.453   1.244   0.944 -1.8250  0.1935 -1.3991
  194SOL    HW2  775   0.374   1.378   0.925  0.2607 -2.4239 -1.3010
  194SOL     MW  776   0.447   1.334   0.948 -0.0667 -0.4258 -0.2182
  195SOL     OW  777   1.306   1.162   2.955 -0.0539  0.6228  0.4307
  195SOL    HW1  778   1.323   1.189   3.048 -0.5178 -0.7770  2.4369
  195SOL    HW2  779   1.236   1.095   2.958 -1.1152 -1.4463  2.0224
  195SOL     MW  780   1.299   1.157   2.968 -0.2551  0.1651  0.9054
  196SOL     OW  781   2.170   1.050   0.602 -0.4656  0.0899 -0.1282
  196SOL    HW1  782   2.147   1.008   0.520 -1.4662 -2.0707  0.7007
  196SOL    HW2  783   2.173   1.146   0.595  0.5313 -0.3375 -0.7060
  196SOL     MW  784   2.167   1.057   0.590 -0.4660 -0.2516 -0.0951
  197SOL     OW  785   0.567   1.240   2.008 -0.0709  0.5097 -0.0939
  197SOL    HW1  786   0.599   1.154   2.011 -1.0340  1.7270  0.1195
  197SOL    HW2  787   0.534   1.254   1.921  2.1446  0.9152  2.7579
  197SOL     MW  788   0.567   1.231   1.997  0.0943  0.7238  0.3105
  198SOL     OW  789   2.914   1.372   1.057 -0.0271  0.0507 -0.5031
  198SOL    HW1  790   2.909   1.455   1.002  0.9077  1.1432 -1.2612
  198SOL    HW2  791   2.834   1.325   1.037  0.0415  4.8205  2.6764
  198SOL     MW  792   2.903   1.377   1.047  0.1053  0.8242 -0.1836
  199SOL     OW  793   0.478   1.274   1.741  0.2290  0.3352 -0.1422
  199SOL    HW1  794   0.382   1.258   1.766 -0.0617 -3.4291  1.8646
  199SOL    HW2  795   0.497   1.341   1.681  1.9582  1.3101  2.1834
  199SOL     MW  796   0.468   1.280   1.736  0.4188 -0.0328  0.4294
  200SOL     OW  797   1.932   3.075   1.319  0.1460  0.8378  0.4901
  200SOL    HW1  798   1.946   3.056   1.223  0.0114 -0.6830 -0.5707
  200SOL    HW2  799   1.835   3.077   1.330 -0.1204  2.0626 -0.0790
  200SOL     MW  800   1.921   3.073   1.308  0.0931  0.7988  0.2750
  201SOL     OW  801   1.133   0.319   0.811 -0.4988 -0.4208 -0.4050
  201SOL    HW1  802   1.145   0.221   0.832  2.9982 -3.7569  2.4455
  201SOL    HW2  803   1.132   0.332   0.719 -0.6150  0.8606  0.7164
  201SOL     MW  804   1.135   0.307   0.802 -0.0527 -0.6919  0.1190
  202SOL     OW  805   1.584   1.590   1.024 -0.0812  0.0162 -0.0256
  202SOL    HW1  806   1.589   1.499   0.990  1.0050  0.2486 -0.6432
  202SOL    HW2  807   1.623   1.588   1.113 -2.3201 -0.9514  0.3052
  202SOL     MW  808   1.590   1.578   1.031 -0.2333 -0.0808 -0.0634
  203SOL     OW  809   3.026   0.469   1.227  0.6578 -0.3235  0.1836
  203SOL    HW1  810   3.079   0.422   1.163 -2.6243 -0.3399  0.9500
  203SOL    HW2  811   3.087   0.515   1.272 -1.3444 -2.6519  1.0192
  203SOL     MW  812   3.041   0.469   1.224 -0.0394 -0.6329  0.3950
  204SOL     OW  813   1.067   1.769   0.529  0.6511 -0.4473  0.2079
  204SOL    HW1  814   1.024   1.705   0.586  1.3399  1.2380 -1.2105
  204SOL    HW2  815   0.997   1.794   0.468 -0.1752  1.5900  1.7074
  204SOL     MW  816   1.052   1.764   0.528  0.6330  0.0439  0.2186
  205SOL     OW  817   1.394   0.072   1.319 -0.1299  0.5700  0.2438
  205SOL    HW1  818   1.357   0.050   1.231  0.4450 -0.8459 -0.0413
  205SOL    HW2  819   1.445   0.154   1.314  2.3522 -1.9066 -0.1814
  205SOL     MW  820   1.395   0.080   1.306  0.2734  0.0564  0.1501
  206SOL     OW  821   0.529   3.085   1.367 -0.2690 -0.4796 -0.1641
  206SOL    HW1  822   0.460   3.056   1.306 -0.9033 -0.8150  1.1636
  206SOL    HW2  823   0.578   3.000   1.390 -0.7607  2.1039  1.9784
  206SOL     MW  824   0.526   3.070   1.362 -0.4176 -0.1830  0.2938
  207SOL     OW  825   0.975   1.548   0.213  0.6939  0.1721 -0.0838
  207SOL    HW1  826   0.987   1.643   0.188 -0.7848  1.7884  2.5483
  207SOL    HW2  827   1.066   1.518   0.234  2.3678 -3.2672  0.9630
  207SOL     MW  828   0.988   1.557   0.212  0.7196 -0.0684  0.4016
  208SOL     OW  829   0.646   1.569   1.237 -0.0428  0.2190 -0.2448
  208SOL    HW1  830   0.703   1.579   1.310  1.5199 -0.4681 -0.7841
  208SOL    HW2  831   0.621   1.469   1.233  0.8725 -2.4425 -3.0684
  208SOL     MW  832   0.650   1.557   1.246  0.2841 -0.2228 -0.6885
  209SOL     OW  833   1.488   0.483   2.802 -0.6236  0.4630 -0.2825
  209SOL    HW1  834   1.518   0.563   2.845  0.1654  0.1128  2.2860
  209SOL    HW2  835   1.566   0.424   2.822  1.2545 -1.9614 -0.5633
  209SOL     MW  836   1.502   0.486   2.810 -0.2717  0.0969  0.0194
  210SOL     OW  837   1.578   1.342   0.897 -0.6069  0.9804 -0.3473
  210SOL    HW1  838   1.655   1.338   0.845  1.4979  0.7603  0.8725
  210SOL    HW2  839   1.508   1.350   0.831 -0.3223 -1.2835 -0.7140
  210SOL     MW  840   1.579   1.343   0.882 -0.2916  0.6527 -0.2348
  211SOL     OW  841   1.715   0.460   0.917 -0.3063  0.3445  0.0739
  211SOL    HW1  842   1.694   0.458   0.817 -0.4207 -1.5643  0.6732
  211SOL    HW2  843   1.811   0.488   0.929  2.4808  0.4629  1.3970
  211SOL     MW  844   1.725   0.464   0.905  0.0463  0.1083  0.3275
  212SOL     OW  845   0.254   1.096   0.043 -0.7530 -0.1882  0.1499
  212SOL    HW1  846   0.236   1.043   0.124  2.5772  0.4252  0.0729
  212SOL    HW2  847   0.333   1.054   0.004 -2.2937 -0.4581  1.8678
  212SOL     MW  848   0.262   1.084   0.048 -0.5169 -0.1429  0.3664
  213SOL     OW  849   0.500   1.689   3.096 -0.8957 -0.3690  0.0853
  213SOL    HW1  850   0.531   1.758   3.157  0.4092  0.5752 -1.0820
  213SOL    HW2  851   0.517   1.715   3.009 -0.2547  1.9174 -0.3981
  213SOL     MW  852   0.507   1.701   3.093 -0.6389  0.0572 -0.1325
  214SOL     OW  853   0.625   0.246   2.268  0.1409  0.2602  0.2736
  214SOL    HW1  854   0.542   0.282   2.238 -1.1997  2.5065  2.2092
  214SOL    HW2  855   0.696   0.276   2.214  1.7122  1.5971 -0.0436
  214SOL     MW  856   0.624   0.255   2.257  0.1713  0.7330  0.4871
  215SOL     OW  857   0.503   0.735   2.644 -0.2998  0.5063 -0.2760
  215SOL    HW1  858   0.502   0.704   2.555 -0.4804 -1.8219 -0.1536
  215SOL    HW2  859   0.435   0.681   2.688  0.9280  3.1044 -0.1598
  215SOL     MW  860   0.494   0.724   2.638 -0.1616  0.5419 -0.2445
  216SOL     OW  861   3.103   3.083   2.773 -0.3446 -0.3048 -0.4151
  216SOL    HW1  862   3.026   3.046   2.830 -0.4884 -2.1153  2.4367
  216SOL    HW2  863   3.053   3.154   2.723 -2.7172 -1.0547 -3.1632
  216SOL     MW  864   3.086   3.088   2.774 -0.6766 -0.6426 -0.4014
  217SOL     OW  865   0.983   1.188   3.103 -0.1690 -0.2498 -0.1257
  217SOL    HW1  866   1.017   1.096   3.067  2.2015  0.5903 -0.7395
  217SOL    HW2  867   1.050   1.261   3.078  3.1769  0.6778 -2.1763
  217SOL     MW  868   0.996   1.185   3.095  0.5852 -0.0166 -0.4772
  218SOL     OW  869   0.918   1.396   2.482  0.0713 -0.0695  0.3480
  218SOL    HW1  870   0.913   1.309   2.524 -3.3417 -0.1451 -3.2064
  218SOL    HW2  871   0.991   1.431   2.529 -1.5538  0.4305 -2.7672
  218SOL     MW  872   0.927   1.389   2.493 -0.5934 -0.0135 -0.5320
  219SOL     OW  873   0.997   0.425   2.519  0.1820  0.1947 -0.7310
  219SOL    HW1  874   1.041   0.483   2.460  1.6709 -1.6673 -2.4221
  219SOL    HW2  875   0.935   0.479   2.563  2.2475  0.8756 -1.7682
  219SOL     MW  876   0.994   0.439   2.517  0.6509  0.0388 -1.0910
  220SOL     OW  877   1.759   0.541   2.179 -0.2300 -0.4006  0.1906
  220SOL    HW1  878   1.670   0.567   2.166 -0.1487 -0.9094  3.0302
  220SOL    HW2  879   1.772   0.472   2.119 -2.6755  2.8177  0.8884
  220SOL     MW  880   1.749   0.535   2.169 -0.5419 -0.0431  0.6573
  221SOL     OW  881   0.408   1.424   2.916  0.0036 -0.5787 -0.6309
  221SOL    HW1  882   0.366   1.348   2.880 -0.1814 -2.0378  1.4136
  221SOL    HW2  883   0.418   1.480   2.834  1.8051  1.3542  2.3112
  221SOL     MW  884   0.403   1.421   2.900  0.2169 -0.5162  0.0270
  222SOL     OW  885   0.341   0.961   2.655 -0.6351  0.0709 -0.2115
  222SOL    HW1  886   0.297   0.953   2.573 -1.5203 -2.0436 -1.4480
  222SOL    HW2  887   0.408   0.896   2.649  0.0714  0.2756 -1.0569
  222SOL     MW  888   0.344   0.951   2.643 -0.6587 -0.1811 -0.4862
  223SOL     OW  889   3.089   1.993   2.639  0.1408 -0.2955 -0.6761
  223SOL    HW1  890   3.125   1.907   2.673  0.1660  0.5742  0.2650
  223SOL    HW2  891   3.129   2.023   2.551  2.0917  0.4918 -0.0246
  223SOL     MW  892   3.099   1.985   2.632  0.4015 -0.0769 -0.4660
  224SOL     OW  893   1.517   0.838   2.582 -0.4329  0.3630 -0.0864
  224SOL    HW1  894   1.477   0.834   2.669 -2.2657 -1.8194  0.7600
  224SOL    HW2  895   1.510   0.926   2.549 -0.2715 -1.6643  1.8354
  224SOL     MW  896   1.511   0.849   2.589 -0.6535 -0.1924  0.2789
  225SOL     OW  897   2.910   1.483   2.230 -0.3843 -0.0618 -0.3970
  225SOL    HW1  898   2.987   1.519   2.184  0.4975  0.1262 -1.2944
  225SOL    HW2  899   2.881   1.549   2.296 -0.6249  2.6872  0.7185
  225SOL     MW  900   2.917   1.496   2.232 -0.2997  0.3257 -0.3683
  226SOL     OW  901   0.398   1.496   2.628 -0.6097 -0.3527 -0.2976
  226SOL    HW1  902   0.483   1.460   2.599  2.2743 -1.7821  0.3238
  226SOL    HW2  903   0.403   1.588   2.614 -0.5532 -1.2195  0.7915
  226SOL     MW  904   0.410   1.503   2.623 -0.2217 -0.6557 -0.0719
  227SOL     OW  905   0.431   1.142   2.837 -0.0565 -0.0992  0.2994
  227SOL    HW1  906   0.526   1.161   2.810 -1.6320 -4.2270 -1.0364
  227SOL    HW2  907   0.390   1.089   2.774 -0.8583  1.5677  0.7499
  227SOL     MW  908   0.438   1.137   2.825 -0.3702 -0.4239  0.1826
  228SOL     OW  909   0.687   0.980   1.985  0.0200  0.0454 -0.3586
  228SOL    HW1  910   0.777   1.017   1.964 -1.3394  1.4171  0.6741
  228SOL    HW2  911   0.703   0.921   2.061  1.8824  0.8764 -3.0026
  228SOL     MW  912   0.701   0.977   1.992  0.0864  0.3360 -0.5712
  229SOL     OW  913   0.247   0.495   3.083 -0.0944  0.5609  0.5299
  229SOL    HW1  914   0.160   0.492   3.041  1.8799  1.0717  3.2651
  229SOL    HW2  915   0.237   0.449   3.169  0.7862 -0.0496 -0.3190
  229SOL     MW  916   0.234   0.489   3.089  0.2823  0.5478  0.7787
  230SOL     OW  917   1.770   1.345   2.113  0.0914 -0.0332 -0.0716
  230SOL    HW1  918   1.724   1.343   2.200  0.1060 -1.4572  1.2423
  230SOL    HW2  919   1.762   1.254   2.076 -0.4301  1.5774 -0.5304
  230SOL     MW  920   1.763   1.333   2.119  0.0245 -0.0086  0.0412
  231SOL     OW  921   2.808   1.236   2.173 -0.3075  0.2992 -0.3965
  231SOL    HW1  922   2.863   1.311   2.171  1.8455  0.1939 -0.6603
  231SOL    HW2  923   2.755   1.273   2.102 -0.3471 -0.2076 -0.0562
  231SOL     MW  924   2.808   1.251   2.163 -0.0287  0.2185 -0.3864
  232SOL     OW  925   2.278   0.944   2.097  0.1309 -0.4308 -0.1438
  232SOL    HW1  926   2.194   0.982   2.062  0.9254 -2.5903  1.8891
  232SOL    HW2  927   2.249   0.898   2.176 -1.0357 -0.9164  1.8334
  232SOL     MW  928   2.263   0.943   2.102  0.0818 -0.7798  0.3853
  233SOL     OW  929   2.074   0.544   1.935  0.4405 -0.2338  0.0401
  233SOL    HW1  930   2.121   0.568   1.850 -1.3932 -0.8249 -2.0350
  233SOL    HW2  931   2.148   0.519   1.996 -0.3938 -0.3912 -0.7627
  233SOL     MW  932   2.090   0.544   1.932  0.0885 -0.3326 -0.3396
  234SOL     OW  933   0.249   0.968   2.397  0.4464  0.3723 -0.7985
  234SOL    HW1  934   0.158   1.006   2.409 -1.7389 -0.3807 -2.3214
  234SOL    HW2  935   0.309   1.040   2.383  1.6243  1.0547  0.2771
  234SOL     MW  936   0.245   0.983   2.397  0.3135  0.3630 -0.8575
  235SOL     OW  937   0.983   3.050   2.793  0.2669 -0.1151 -0.3736
  235SOL    HW1  938   0.999   2.996   2.872 -0.8919 -2.5667 -0.5005
  235SOL    HW2  939   0.976   3.139   2.826 -0.0621 -0.7520  0.6472
  235SOL     MW  940   0.984   3.055   2.808  0.0706 -0.5226 -0.2556
  236SOL     OW  941   2.938   0.512   0.075 -0.2114  0.6666 -0.4348
  236SOL    HW1  942   2.849   0.528   0.038  0.3340  0.6286 -0.1795
  236SOL    HW2  943   2.966   0.605   0.101  1.2840 -2.9552 -2.3871
  236SOL     MW  944   2.930   0.526   0.074  0.0579  0.1837 -0.6587
  237SOL     OW  945   1.762   0.874   2.171  0.4959  0.0727  0.3343
  237SOL    HW1  946   1.803   0.957   2.137  2.2978  1.0453  0.3452
  237SOL    HW2  947   1.801   0.865   2.259 -0.5071 -2.7000 -2.2766
  237SOL     MW  948   1.773   0.883   2.178  0.6013 -0.1648 -0.0087
  238SOL     OW  949   1.108   1.756   2.975 -0.0408  0.0224 -0.0061
  238SOL    HW1  950   1.029   1.699   2.970  0.8013 -1.2081 -0.5502
  238SOL    HW2  951   1.193   1.706   2.959 -0.0282 -1.3456  1.4446
  238SOL     MW  952   1.109   1.742   2.972  0.0720 -0.3204  0.1136
  239SOL     OW  953   1.206   1.382   2.309 -0.4414 -0.1111 -0.3445
  239SOL    HW1  954   1.237   1.386   2.397 -2.7817  1.2844  0.1727
  239SOL    HW2  955   1.123   1.333   2.306 -2.0942 -0.6630 -0.2456
  239SOL     MW  956   1.199   1.376   2.320 -0.9683  0.0002 -0.2632
  240SOL     OW  957   0.619   0.833   2.244 -0.6606  0.0415  0.5294
  240SOL    HW1  958   0.622   0.906   2.306  1.1114 -0.0170 -0.3641
  240SOL    HW2  959   0.700   0.790   2.250 -3.1324  0.5336  0.8873
  240SOL     MW  960   0.630   0.837   2.253 -0.7529  0.0987  0.4587
  241SOL     OW  961   0.651   0.381   2.951  0.2958 -0.4383  0.1096
  241SOL    HW1  962   0.639   0.449   3.019  1.0866  0.3201 -1.1330
  241SOL    HW2  963   0.562   0.383   2.911 -0.1066  3.3706  3.1475
  241SOL     MW  964   0.637   0.390   2.955  0.3470  0.1643  0.3465
  242SOL     OW  965   1.431   1.678   2.353  0.5727  0.0683 -0.2137
  242SOL    HW1  966   1.419   1.771   2.369  0.9269  3.3176 -2.3133
  242SOL    HW2  967   1.369   1.654   2.285  0.2417  3.1627 -1.9526
  242SOL     MW  968   1.421   1.687   2.346  0.5758  0.9053 -0.7202
  243SOL     OW  969   0.998   0.207   2.341 -0.5763 -0.2099 -0.0939
  243SOL    HW1  970   1.083   0.174   2.311 -2.0129 -0.6887 -1.9249
  243SOL    HW2  971   1.012   0.272   2.403  2.2492 -1.0158 -1.4381
  243SOL     MW  972   1.011   0.211   2.345 -0.3930 -0.3794 -0.5128
  244SOL     OW  973   0.202   0.717   2.275 -0.0409 -0.3046  0.1714
  244SOL    HW1  974   0.211   0.805   2.324  1.7180 -0.1055 -1.4883
  244SOL    HW2  975   0.282   0.677   2.305 -2.3842  2.2628 -1.8880
  244SOL     MW  976   0.214   0.724   2.286 -0.1180  0.0604 -0.3193
  245SOL     OW  977   1.249   0.159   2.276 -1.5415  0.5420  0.4690
  245SOL    HW1  978   1.249   0.065   2.295  2.2951 -0.3733  0.5206
  245SOL    HW2  979   1.317   0.184   2.335 -0.6472  1.0363 -1.7194
  245SOL     MW  980   1.258   0.150   2.286 -0.9173  0.4864  0.1871
  246SOL     OW  981   1.161   1.146   2.156 -0.3041 -0.0498 -0.1169
  246SOL    HW1  982   1.125   1.093   2.228 -0.3871  0.8932 -0.7997
  246SOL    HW2  983   1.255   1.160   2.186  2.9563 -0.8453  1.4638
  246SOL     MW  984   1.168   1.141   2.169  0.1151 -0.0304  0.0016
  247SOL     OW  985   0.664   0.528   0.133  0.3788 -0.2634 -0.3963
  247SOL    HW1  986   0.629   0.616   0.122  1.7884 -1.6951  0.1280
  247SOL    HW2  987   0.758   0.542   0.132  0.2794  0.0787  0.0561
  247SOL     MW  988   0.671   0.542   0.131  0.5517 -0.4071 -0.2674
  248SOL     OW  989   0.434   1.212   2.422  0.5092 -0.1016 -0.0995
  248SOL    HW1  990   0.436   1.283   2.355 -0.3854  0.0336  1.2306
  248SOL    HW2  991   0.365   1.240   2.480 -1.9776 -1.0643  3.0219
  248SOL     MW  992   0.425   1.225   2.421  0.0630 -0.2108  0.4878
  249SOL     OW  993   0.169   1.793   2.712 -0.0847 -0.3561  0.0456
  249SOL    HW1  994   0.117   1.717   2.685 -1.3014  0.2058 -0.0266
  249SOL    HW2  995   0.204   1.773   2.799 -0.2333 -1.1296  0.4444
  249SOL     MW  996   0.167   1.780   2.720 -0.2648 -0.3840  0.0887
  250SOL     OW  997   2.159   0.885   2.364 -0.1970 -0.6243  0.2075
  250SOL    HW1  998   2.222   0.809   2.355 -2.2796  2.3095  1.5275
  250SOL    HW2  999   2.197   0.944   2.435 -2.4957  0.2249 -1.5532
  250SOL     MW 1000   2.172   0.883   2.372 -0.7751 -0.1252  0.1494
  251SOL     OW 1001   0.186   0.825   1.996  0.2196 -0.3973 -0.2541
  251SOL    HW1 1002   0.166   0.782   2.080 -1.9147 -0.7381  0.7970
  251SOL    HW2 1003   0.163   0.773   1.925  2.4502  3.1583 -0.0299
  251SOL     MW 1004   0.180   0.812   1.998  0.2323  0.0269 -0.0858
  252SOL     OW 1005   1.692   1.016   2.833  0.9353 -0.4359 -0.5113
  252SOL    HW1 1006   1.706   1.038   2.928  0.0570  0.6917  0.3369
  252SOL    HW2 1007   1.766   1.055   2.789 -1.3936  0.3078 -1.7373
  252SOL     MW 1008   1.704   1.024   2.839  0.5121 -0.1890 -0.5611
  253SOL     OW 1009   1.151   1.728   2.554  0.0087  0.2244  0.3030
  253SOL    HW1 1010   1.153   1.751   2.463 -1.9540  0.1525 -0.0035
  253SOL    HW2 1011   1.060   1.756   2.588  1.1434 -1.4394 -1.0119
  253SOL     MW 1012   1.139   1.735   2.546 -0.1005 -0.0046  0.0890
  254SOL     OW 1013   1.016   1.032   2.350  0.5282 -0.3007 -0.2848
  254SOL    HW1 1014   0.988   0.940   2.347 -0.4571  0.9460  0.6112
  254SOL    HW2 1015   0.939   1.080   2.317  3.6386 -1.5789 -2.1266
  254SOL     MW 1016   1.002   1.026   2.345  0.8086 -0.3049 -0.4096
  255SOL     OW 1017   0.789   2.408   2.245  0.3769  0.3036 -0.0827
  255SOL    HW1 1018   0.705   2.369   2.220  0.1911 -1.5451 -2.6408
  255SOL    HW2 1019   0.792   2.412   2.340  1.8943 -0.3943  0.2387
  255SOL     MW 1020   0.778   2.403   2.254  0.5526 -0.0324 -0.3778
  256SOL     OW 1021   1.168   2.840   2.908 -0.6244 -0.7849 -0.3766
  256SOL    HW1 1022   1.220   2.755   2.917 -0.1537  0.1206 -0.1460
  256SOL    HW2 1023   1.226   2.883   2.844  1.4716 -0.6547 -1.5453
  256SOL     MW 1024   1.182   2.834   2.901 -0.2858 -0.6483 -0.5004
  257SOL     OW 1025   0.111   1.864   0.041  0.5991  0.0624  0.1609
  257SOL    HW1 1026   0.156   1.829   0.124 -1.6292  1.5802 -1.6995
  257SOL    HW2 1027   0.134   1.794  -0.023  1.3576 -0.0650  2.7376
  257SOL     MW 1028   0.120   1.850   0.043  0.4051  0.2458  0.2554
  258SOL     OW 1029   0.662   1.056   2.463  0.4183  0.2515  0.4091
  258SOL    HW1 1030   0.680   1.104   2.384 -0.3880 -2.4261  0.4137
  258SOL    HW2 1031   0.580   1.088   2.496 -0.7943  1.7455  4.2683
  258SOL     MW 1032   0.653   1.067   2.457  0.1519  0.0953  0.9189
  259SOL     OW 1033   0.648   0.472   2.465  0.7011  0.6307 -0.4481
  259SOL    HW1 1034   0.584   0.522   2.410  1.6936  0.8568  1.1653
  259SOL    HW2 1035   0.657   0.383   2.418  3.5013 -0.2039 -1.4383
  259SOL     MW 1036   0.640   0.467   2.451  1.2015  0.5504 -0.3659
  260SOL     OW 1037   0.619   0.143   1.586 -0.8310 -0.3711  0.5169
  260SOL    HW1 1038   0.601   0.099   1.504 -0.9274  1.5862  0.0187
  260SOL    HW2 1039   0.716   0.162   1.587  0.9046 -0.4895 -1.5451
  260SOL     MW 1040   0.630   0.140   1.575 -0.6147 -0.1284  0.1791
  261SOL     OW 1041   1.111   0.675   2.113  0.5790 -0.4716  0.0336
  261SOL    HW1 1042   1.140   0.643   2.200 -2.2384 -3.0713  0.5118
  261SOL    HW2 1043   1.157   0.620   2.054  2.3157  2.0420  1.2049
  261SOL     MW 1044   1.121   0.663   2.117  0.4364 -0.4829  0.2512
  262SOL     OW 1045   1.128   0.350   0.080  0.1751 -0.1233 -0.0542
  262SOL    HW1 1046   1.219   0.323   0.066 -1.0267 -0.8577  2.6900
  262SOL    HW2 1047   1.072   0.313   0.016  1.4217  1.1832  1.0527
  262SOL     MW 1048   1.132   0.341   0.070  0.1810 -0.0478  0.4539
  263SOL     OW 1049   0.480   3.015   2.517  0.8896  0.0185  0.0782
  263SOL    HW1 1050   0.403   3.069   2.508 -1.6602  0.5446 -0.0297
  263SOL    HW2 1051   0.524   3.051   2.435 -0.1217  3.2273 -0.2000
  263SOL     MW 1052   0.476   3.027   2.505  0.4197  0.5113  0.0273
  264SOL     OW 1053   1.554   1.363   1.948 -0.1054 -0.0266 -0.0274
  264SOL    HW1 1054   1.478   1.396   1.993  2.4691  2.1037 -0.4245
  264SOL    HW2 1055   1.630   1.367   2.011 -1.0503  1.6694  1.3265
  264SOL     MW 1056   1.554   1.368   1.962  0.1096  0.4782  0.0989
  265SOL     OW 1057   0.676   2.744   2.240  0.2041 -0.2654  0.4153
  265SOL    HW1 1058   0.745   2.682   2.211 -2.7804  1.6941 -0.7501
  265SOL    HW2 1059   0.689   2.746   2.335  0.9371 -2.3263  0.0496
  265SOL     MW 1060   0.686   2.736   2.249 -0.0930 -0.2788  0.2133
  266SOL     OW 1061   0.892   0.776   2.268  0.1930  0.6454 -0.2258
  266SOL    HW1 1062   0.964   0.741   2.205 -0.0188  0.4249 -2.3804
  266SOL    HW2 1063   0.870   0.704   2.334  0.6793 -2.0698  0.9666
  266SOL     MW 1064   0.899   0.762   2.269  0.2292  0.2581 -0.3528
  267SOL     OW 1065   1.375   1.809   2.686  0.1080 -0.4754  0.0816
  267SOL    HW1 1066   1.443   1.754   2.642  2.9969 -2.4513  0.2656
  267SOL    HW2 1067   1.291   1.780   2.660  1.3302 -1.5956 -1.3860
  267SOL     MW 1068   1.373   1.798   2.677  0.6504 -0.8839 -0.0877
  268SOL     OW 1069   0.199   0.764   1.701 -0.3978 -0.2348 -0.2055
  268SOL    HW1 1070   0.136   0.820   1.660 -0.2680  0.5734  1.9895
  268SOL    HW2 1071   0.189   0.681   1.651  1.8084  0.7711  4.7965
  268SOL     MW 1072   0.189   0.760   1.689 -0.0896  0.0046  0.7440
  269SOL     OW 1073   1.450   1.961   2.444 -0.1629  0.1476  0.3268
  269SOL    HW1 1074   1.438   1.935   2.538  3.1489  0.2391 -4.0865
  269SOL    HW2 1075   1.357   1.979   2.414  0.5566 -0.2307  1.5951
  269SOL     MW 1076   1.436   1.960   2.453  0.3690  0.1097 -0.0882
  270SOL     OW 1077   1.178   0.460   1.620  0.0313 -0.0065 -0.5311
  270SOL    HW1 1078   1.162   0.369   1.662  1.3647 -1.2733  1.4902
  270SOL    HW2 1079   1.262   0.447   1.576 -2.1952 -0.4397  1.9765
  270SOL     MW 1080   1.187   0.446   1.620 -0.0865 -0.2308  0.0665
  271SOL     OW 1081   0.871   3.082   2.399  0.1323  0.0861 -0.1591
  271SOL    HW1 1082   0.908   3.021   2.469 -1.9006  0.2334  1.0661
  271SOL    HW2 1083   0.930   3.158   2.377  1.3271  0.1046 -4.2274
  271SOL     MW 1084   0.884   3.084   2.406  0.0217  0.1080 -0.5342
  272SOL     OW 1085   1.386   3.000   2.824 -0.0854 -0.3621 -0.0794
  272SOL    HW1 1086   1.326   3.039   2.760 -2.1941  1.7224  0.7282
  272SOL    HW2 1087   1.361   3.039   2.915 -0.3564 -2.2055  1.4837
  272SOL     MW 1088   1.374   3.010   2.827 -0.3994 -0.3303  0.2334
  273SOL     OW 1089   1.445   0.927   2.882  0.0076  0.0832  0.2982
  273SOL    HW1 1090   1.536   0.964   2.865 -2.2157  1.8229 -1.2890
  273SOL    HW2 1091   1.408   1.007   2.919 -2.2933 -1.0886  0.1771
  273SOL     MW 1092   1.452   0.942   2.885 -0.5893  0.1581  0.0728
  274SOL     OW 1093   1.349   0.731   0.137 -0.2662  0.0185 -0.0333
  274SOL    HW1 1094   1.399   0.656   0.173  0.7804 -1.1526 -0.2083
  274SOL    HW2 1095   1.252   0.719   0.170 -1.0887 -0.0605  2.9780
  274SOL     MW 1096   1.343   0.719   0.146 -0.2366 -0.1464  0.3409
  275SOL     OW 1097   1.704   0.692   1.815 -0.0735  0.9742  0.4825
  275SOL    HW1 1098   1.769   0.721   1.883  1.3194 -0.9271 -2.4469
  275SOL    HW2 1099   1.700   0.598   1.830  2.8709 -0.0758 -1.1737
  275SOL     MW 1100   1.712   0.683   1.826  0.4987  0.5848 -0.1225
  276SOL     OW 1101   0.256   1.168   1.813 -0.2943  0.3284 -0.0986
  276SOL    HW1 1102   0.302   1.086   1.825  2.5754  1.4828 -0.2875
  276SOL    HW2 1103   0.187   1.178   1.876  2.7921 -0.4973  1.1978
  276SOL     MW 1104   0.253   1.158   1.823  0.4916  0.3718  0.0475
  277SOL     OW 1105   1.949   1.372   2.658 -0.2132  0.0424 -0.5096
  277SOL    HW1 1106   1.978   1.460   2.677  1.1068  2.7493  0.4990
  277SOL    HW2 1107   2.004   1.303   2.695 -1.1509 -3.6326 -1.5063
  277SOL     MW 1108   1.960   1.375   2.666 -0.1628 -0.0853 -0.5081
  278SOL     OW 1109   1.422   0.662   1.733  0.0676 -0.3059  0.0467
  278SOL    HW1 1110   1.375   0.617   1.807  0.6676 -0.6855  0.3734
  278SOL    HW2 1111   1.515   0.687   1.763  0.9465 -0.4605  0.4390
  278SOL     MW 1112   1.428   0.659   1.746  0.2628 -0.3764  0.1416
  279SOL     OW 1113   0.576   3.060   2.281 -0.3910 -0.4482  0.1335
  279SOL    HW1 1114   0.641   2.990   2.258  1.7040  1.4875 -0.3062
  279SOL    HW2 1115   0.605   3.138   2.236  0.0882 -0.9913 -1.2464
  279SOL     MW 1116   0.588   3.061   2.272 -0.0513 -0.2645 -0.1066
  280SOL     OW 1117   1.484   1.155   2.233  0.6418 -0.3618  0.0129
  280SOL    HW1 1118   1.506   1.087   2.166  0.4016 -1.0683  0.2083
  280SOL    HW2 1119   1.481   1.122   2.323  1.7475 -1.2752  1.3825
  280SOL     MW 1120   1.486   1.142   2.236  0.7560 -0.5755  0.2194
  281SOL     OW 1121   1.262   1.424   2.839 -0.4533 -0.2163  0.2887
  281SOL    HW1 1122   1.349   1.468   2.826 -0.5946 -0.8217  0.6353
  281SOL    HW2 1123   1.295   1.336   2.849  2.4184  0.1412  1.4666
  281SOL     MW 1124   1.278   1.418   2.838 -0.0930 -0.2490  0.4898
  282SOL     OW 1125   1.106   1.300   1.692  0.8779  0.1818  0.2067
  282SOL    HW1 1126   1.063   1.360   1.628 -2.4181 -1.5260 -1.0375
  282SOL    HW2 1127   1.066   1.220   1.663  0.2728 -0.2220  0.6587
  282SOL     MW 1128   1.095   1.298   1.680  0.3632 -0.0968  0.1022
  283SOL     OW 1129   0.708   1.223   3.084  0.0091  0.4885  0.0450
  283SOL    HW1 1130   0.800   1.193   3.088 -1.0145 -1.5744 -2.6684
  283SOL    HW2 1131   0.720   1.310   3.120 -0.3789 -1.9487  0.6585
  283SOL     MW 1132   0.722   1.230   3.089 -0.1772 -0.1053 -0.2321
  284SOL     OW 1133   0.470   0.621   2.334  0.4671  0.5808  0.0990
  284SOL    HW1 1134   0.516   0.698   2.281 -2.7182  2.4192  0.8297
  284SOL    HW2 1135   0.472   0.537   2.281  0.3416  1.1817 -3.7839
  284SOL     MW 1136   0.477   0.620   2.320  0.0303  0.9027 -0.3169
  285SOL     OW 1137   0.899   0.918   2.828 -0.4488  0.5977  0.7175
  285SOL    HW1 1138   0.903   0.960   2.745  0.1104 -1.0135  2.8098
  285SOL    HW2 1139   0.845   0.834   2.827 -2.1465 -3.1803 -1.7630
  285SOL     MW 1140   0.892   0.913   2.817 -0.5990 -0.1134  0.6662
  286SOL     OW 1141   1.170   1.459   2.592  0.3971  0.0910  0.4286
  286SOL    HW1 1142   1.191   1.458   2.690  2.2224 -1.7167 -0.2195
  286SOL    HW2 1143   1.177   1.553   2.578 -1.8160  0.6296  1.5988
  286SOL     MW 1144   1.174   1.471   2.603  0.3459 -0.0764  0.4975
  287SOL     OW 1145   1.052   0.965   0.424 -0.8197 -0.0815 -0.2305
  287SOL    HW1 1146   1.123   1.002   0.477 -0.8366  0.2141 -0.6435
  287SOL    HW2 1147   1.033   1.037   0.369 -0.1356 -0.9280  0.3833
  287SOL     MW 1148   1.059   0.979   0.424 -0.7317 -0.1542 -0.2040
  288SOL     OW 1149   1.511   0.651   2.152 -0.4582 -0.3970 -0.6202
  288SOL    HW1 1150   1.484   0.637   2.244  2.0091 -1.7628 -2.6620
  288SOL    HW2 1151   1.500   0.744   2.140  2.3440 -1.0555  2.1085
  288SOL     MW 1152   1.506   0.662   2.163  0.2371 -0.6641 -0.5296
  289SOL     OW 1153   0.902   1.088   2.576  0.2602 -0.0902 -0.0846
  289SOL    HW1 1154   0.953   1.042   2.503  2.2457 -2.1134  1.5116
  289SOL    HW2 1155   0.807   1.072   2.548 -2.6683 -0.4362  0.1293
  289SOL     MW 1156   0.896   1.080   2.563  0.1358 -0.4028  0.1543
  290SOL     OW 1157   0.859   0.644   1.528 -0.2422 -1.2514 -0.0294
  290SOL    HW1 1158   0.895   0.577   1.472  0.8865 -0.3640  1.7259
  290SOL    HW2 1159   0.910   0.627   1.608  1.1968 -1.9150  0.8533
  290SOL     MW 1160   0.870   0.633   1.531  0.0966 -1.2219  0.3187
  291SOL     OW 1161   0.202   0.345   0.214 -0.3913 -0.2848  0.2905
  291SOL    HW1 1162   0.293   0.336   0.239 -0.0649 -1.0313 -1.9593
  291SOL    HW2 1163   0.166   0.270   0.166 -2.7018  2.1483  1.8439
  291SOL     MW 1164   0.209   0.334   0.211 -0.6531 -0.0623  0.1986
  292SOL     OW 1165   0.943   0.574   0.087  0.3417 -0.2135  0.2614
  292SOL    HW1 1166   1.004   0.638   0.130  0.2298 -0.6305 -0.4612
  292SOL    HW2 1167   0.992   0.491   0.091 -0.8620  0.8223  0.1895
  292SOL     MW 1168   0.958   0.572   0.093  0.1681 -0.1318  0.1566
  293SOL     OW 1169   0.237   0.074   2.496 -0.3158 -0.1633  0.2712
  293SOL    HW1 1170   0.159   0.022   2.476  0.4679 -1.9052 -1.5026
  293SOL    HW2 1171   0.208   0.130   2.569  0.5515 -2.1121 -0.1959
  293SOL     MW 1172   0.223   0.075   2.503 -0.0980 -0.6503 -0.0245
  294SOL     OW 1173   1.469   0.631   2.428  0.0928 -0.0251 -0.2652
  294SOL    HW1 1174   1.494   0.706   2.489  3.1007  1.6369  1.4745
  294SOL    HW2 1175   1.490   0.552   2.481 -2.2234  0.6892 -0.4037
  294SOL     MW 1176   1.475   0.631   2.443  0.1841  0.2884 -0.0539
  295SOL     OW 1177   0.824   0.663   2.510  0.7459  0.1081 -0.8739
  295SOL    HW1 1178   0.761   0.589   2.487  3.4605 -0.1142 -1.7606
  295SOL    HW2 1179   0.810   0.690   2.603  1.6527 -0.4109  0.4270
  295SOL     MW 1180   0.814   0.657   2.519  1.2237  0.0103 -0.8193
  296SOL     OW 1181   1.291   0.311   2.070  0.6653 -0.2788  0.5553
  296SOL    HW1 1182   1.380   0.295   2.053  1.5433  4.6418  1.8535
  296SOL    HW2 1183   1.277   0.277   2.159 -4.6234  0.9848  1.6260
  296SOL     MW 1184   1.300   0.304   2.079  0.0834  0.5371  0.8679
  297SOL     OW 1185   1.415   0.419   1.499 -0.0196  0.2631  0.6880
  297SOL    HW1 1186   1.456   0.510   1.494 -0.4932 -1.1793  2.3683
  297SOL    HW2 1187   1.469   0.370   1.558  0.2145 -0.4766 -1.6186
  297SOL     MW 1188   1.428   0.425   1.506 -0.0512 -0.0248  0.6053
  298SOL     OW 1189   1.512   0.918   2.071  0.2953  0.2580  0.2231
  298SOL    HW1 1190   1.515   0.958   1.984 -0.1498 -1.9000 -1.4835
  298SOL    HW2 1191   1.602   0.920   2.104 -1.7773 -0.4567 -1.2446
  298SOL     MW 1192   1.524   0.924   2.064 -0.0369 -0.1210 -0.1957
  299SOL     OW 1193   0.525   1.032   3.083  0.2798 -0.1204  0.6342
  299SOL    HW1 1194   0.590   1.100   3.099  1.7250 -0.7397  4.6606
  299SOL    HW2 1195   0.486   1.052   2.993  0.2883 -0.5713 -0.7698
  299SOL     MW 1196   0.528   1.044   3.074  0.4716 -0.2616  0.9802
  300SOL     OW 1197   1.229   1.126   2.503  0.0809  0.2748 -0.0130
  300SOL    HW1 1198   1.173   1.052   2.483 -1.5636 -2.5345 -1.3648
  300SOL    HW2 1199   1.164   1.180   2.550 -1.9563  3.2247  0.1276
  300SOL     MW 1200   1.213   1.124   2.507 -0.4049  0.2934 -0.1728
  301SOL     OW 1201   1.377   0.714   0.578 -0.2765 -0.0512 -0.3851
  301SOL    HW1 1202   1.389   0.706   0.673  0.7899 -0.0621  0.7149
  301SOL    HW2 1203   1.298   0.668   0.549 -1.6593 -2.1308 -0.7378
  301SOL     MW 1204   1.368   0.707   0.586 -0.3183 -0.3270 -0.2865
  302SOL     OW 1205   0.143   1.448   1.930 -0.7376  0.3110  0.5983
  302SOL    HW1 1206   0.123   1.414   2.017  0.8945  0.6065 -0.0935
  302SOL    HW2 1207   0.102   1.532   1.936  0.0020 -2.0772  0.4335
  302SOL     MW 1208   0.135   1.455   1.942 -0.4247  0.0349  0.4853
  303SOL     OW 1209   0.396   1.775   2.581 -0.1132  0.0132 -0.1741
  303SOL    HW1 1210   0.371   1.736   2.499 -0.0848 -0.9734 -0.0595
  303SOL    HW2 1211   0.310   1.794   2.620  0.3517 -4.2364 -0.2892
  303SOL     MW 1212   0.381   1.773   2.576 -0.0481 -0.6777 -0.1742
  304SOL     OW 1213   0.496   2.072   2.425  1.0921  0.1388 -0.1438
  304SOL    HW1 1214   0.511   2.159   2.386 -1.8766  0.3466  1.9260
  304SOL    HW2 1215   0.569   2.008   2.406  0.4169  0.6602 -1.3018
  304SOL     MW 1216   0.508   2.075   2.418  0.6113  0.2350 -0.0235
  305SOL     OW 1217   1.168   0.552   0.507 -0.1475 -0.2314  0.1814
  305SOL    HW1 1218   1.083   0.546   0.550 -3.8206  0.3777  1.9938
  305SOL    HW2 1219   1.194   0.462   0.527 -2.0554 -1.0404  0.4190
  305SOL     MW 1220   1.160   0.540   0.515 -0.8838 -0.2578  0.4519
  306SOL     OW 1221   1.236   1.440   0.310 -0.5784  0.0593  0.4226
  306SOL    HW1 1222   1.249   1.359   0.360  0.5507  0.5613 -3.0248
  306SOL    HW2 1223   1.269   1.419   0.219  2.7948  1.8094 -3.1890
  306SOL     MW 1224   1.242   1.426   0.305  0.0156  0.3564 -0.5088
  307SOL     OW 1225   1.315   0.559   1.958  0.2433  0.3484 -0.7912
  307SOL    HW1 1226   1.309   0.467   1.996  3.4567  0.5156  0.3397
  307SOL    HW2 1227   1.382   0.596   2.012  0.5534  0.1127 -0.1212
  307SOL     MW 1228   1.323   0.552   1.971  0.7082  0.3394 -0.5536
  308SOL     OW 1229   2.107   0.606   2.705 -0.5673  0.1039 -0.6216
  308SOL    HW1 1230   2.111   0.509   2.726  3.7074 -1.0091  0.3431
  308SOL    HW2 1231   2.188   0.659   2.714 -1.1626 -0.9806 -1.2267
  308SOL     MW 1232   2.118   0.600   2.709 -0.0818 -0.1860 -0.5742
  309SOL     OW 1233   0.560   0.487   0.409 -0.2621  0.4622  0.4087
  309SOL    HW1 1234   0.578   0.396   0.434  1.0025 -1.0172 -0.4418
  309SOL    HW2 1235   0.605   0.498   0.323 -0.6385 -0.4616 -0.7796
  309SOL     MW 1236   0.569   0.476   0.401 -0.1449  0.1451  0.1397
  310SOL     OW 1237   0.422   0.526   1.916  0.1198  0.2305 -0.0116
  310SOL    HW1 1238   0.489   0.470   1.874  2.2044  0.5116  0.0912
  310SOL    HW2 1239   0.460   0.614   1.913 -0.3645 -0.1383 -0.1292
  310SOL     MW 1240   0.436   0.530   1.910  0.3309  0.2189 -0.0135
  311SOL     OW 1241   1.906   0.757   1.983 -0.2443 -0.4624  0.4215
  311SOL    HW1 1242   1.857   0.747   2.066 -0.6559 -0.8665  0.6532
  311SOL    HW2 1243   1.978   0.691   1.989 -1.0934  2.8000  1.1592
  311SOL     MW 1244   1.909   0.747   1.995 -0.4106 -0.0853  0.5494
  312SOL     OW 1245   1.751   2.549   0.002  0.3554 -0.3793 -0.0855
  312SOL    HW1 1246   1.805   2.550   0.079  0.4567  0.8254 -1.1978
  312SOL    HW2 1247   1.656   2.563   0.024 -1.9897 -0.5406  2.8735
  312SOL     MW 1248   1.746   2.551   0.015  0.0594 -0.2416  0.1582
  313SOL     OW 1249   0.083   1.235   2.960  0.1993  0.1835  0.3081
  313SOL    HW1 1250   0.141   1.173   3.008  2.9267  1.0524 -0.3186
  313SOL    HW2 1251   0.129   1.264   2.880 -0.9979 -0.6415  0.2169
  313SOL     MW 1252   0.097   1.231   2.956  0.4012  0.1893  0.2134
  314SOL     OW 1253   2.154   3.044   2.967 -0.0161 -0.1390 -0.2854
  314SOL    HW1 1254   2.114   3.104   2.893  0.1455 -1.3673 -1.5034
  314SOL    HW2 1255   2.204   3.107   3.019  0.7584 -0.6085  1.1034
  314SOL     MW 1256   2.156   3.060   2.964  0.1074 -0.3630 -0.2629
  315SOL     OW 1257   1.562   1.969   3.026 -0.1766  0.0517  0.0529
  315SOL    HW1 1258   1.483   2.007   3.058 -1.3751 -0.1571 -0.6507
  315SOL    HW2 1259   1.600   2.031   2.959 -0.5068  0.4779 -2.4031
  315SOL     MW 1260   1.557   1.982   3.022 -0.3783  0.0804 -0.3640
  316SOL     OW 1261   1.235   0.671   2.673 -0.2218 -0.1204  0.1156
  316SOL    HW1 1262   1.301   0.615   2.631 -0.0154  0.8950 -0.7499
  316SOL    HW2 1263   1.234   0.644   2.762 -0.0327  0.0556 -3.8474
  316SOL     MW 1264   1.244   0.660   2.679 -0.1696  0.0368 -0.5215
  317SOL     OW 1265   0.635   1.394   2.569 -0.1651  0.2596  0.1993
  317SOL    HW1 1266   0.656   1.316   2.614 -0.6170  2.5698 -1.6763
  317SOL    HW2 1267   0.717   1.413   2.525 -3.9690  1.8251  0.3932
  317SOL     MW 1268   0.648   1.386   2.569 -0.7266  0.7710 -0.0226
  318SOL     OW 1269   1.278   0.333   2.900  0.5290  0.1399 -0.3116
  318SOL    HW1 1270   1.189   0.384   2.893 -0.2760 -2.8097  0.0301
  318SOL    HW2 1271   1.342   0.404   2.882  0.1313  0.7351  0.9773
  318SOL     MW 1272   1.275   0.349   2.897  0.3703 -0.1707 -0.0964
  319SOL     OW 1273   0.818   0.404   2.753  0.0801 -0.1105  0.4008
  319SOL    HW1 1274   0.779   0.340   2.693  0.7501  1.4187  1.3659
  319SOL    HW2 1275   0.756   0.398   2.829  0.0257 -3.5524  1.3988
  319SOL     MW 1276   0.805   0.395   2.755  0.1613 -0.3628  0.6598
  320SOL     OW 1277   1.007   1.323   2.024 -0.1548  0.0999 -0.1465
  320SOL    HW1 1278   1.057   1.262   2.085 -1.5307 -1.2378  3.3311
  320SOL    HW2 1279   1.074   1.378   1.976  0.3447  2.6809  1.3017
  320SOL     MW 1280   1.022   1.322   2.025 -0.2704  0.2639  0.5034
  321SOL     OW 1281   1.099   0.957   3.001 -0.1630 -0.0984  0.4222
  321SOL    HW1 1282   1.027   0.950   2.930 -2.9263 -2.2631  2.0756
  321SOL    HW2 1283   1.147   0.870   3.002 -0.4503  1.0541 -2.2554
  321SOL     MW 1284   1.096   0.945   2.991 -0.5655 -0.2319  0.2871
  322SOL     OW 1285   1.202   0.822   1.701 -0.4997 -0.4137  0.1166
  322SOL    HW1 1286   1.279   0.770   1.715 -1.2214  0.1614  0.2482
  322SOL    HW2 1287   1.198   0.867   1.785  0.2702 -2.3321  1.7436
  322SOL     MW 1288   1.212   0.821   1.714 -0.4934 -0.5909  0.3486
  323SOL     OW 1289   1.182   1.501   1.887 -0.0045 -0.1996  0.0279
  323SOL    HW1 1290   1.149   1.444   1.819 -1.2068 -1.1957 -3.3556
  323SOL    HW2 1291   1.127   1.585   1.867  2.0430  0.5029 -0.8586
  323SOL     MW 1292   1.170   1.505   1.875  0.1070 -0.2383 -0.5354
  324SOL     OW 1293   1.500   1.082   2.484  0.5419  0.0589 -0.3934
  324SOL    HW1 1294   1.409   1.116   2.504 -1.2048  0.3945  1.8620
  324SOL    HW2 1295   1.537   1.132   2.557  2.8857  1.2430 -1.4224
  324SOL     MW 1296   1.493   1.093   2.496  0.6207  0.2594 -0.2316
  325SOL     OW 1297   1.048   0.483   2.916  0.5945 -0.0247 -0.3822
  325SOL    HW1 1298   0.998   0.529   2.979 -1.0352 -0.7515 -1.2966
  325SOL    HW2 1299   0.986   0.450   2.845 -1.7728  1.5410  0.0849
  325SOL     MW 1300   1.033   0.485   2.915  0.0672  0.0860 -0.4412
  326SOL     OW 1301   0.389   1.392   2.192 -0.1929 -0.4932  0.6038
  326SOL    HW1 1302   0.441   1.364   2.118  1.2474 -2.7025  0.3212
  326SOL    HW2 1303   0.382   1.489   2.200  0.4804  1.1841 -2.7260
  326SOL     MW 1304   0.395   1.401   2.183  0.0860 -0.5634  0.1272
  327SOL     OW 1305   1.911   0.829   2.408 -0.1054  0.7234 -0.6200
  327SOL    HW1 1306   1.896   0.779   2.492 -0.1122  0.5106  1.5630
  327SOL    HW2 1307   2.006   0.856   2.412  2.0025 -3.0509 -1.1303
  327SOL     MW 1308   1.922   0.826   2.419  0.1718  0.1974 -0.3993
  328SOL     OW 1309   0.119   1.330   2.185  0.6023 -0.0281  0.2374
  328SOL    HW1 1310   0.102   1.238   2.157 -1.5529 -0.3438  2.0024
  328SOL    HW2 1311   0.213   1.339   2.178 -0.8205 -1.5328  0.3949
  328SOL     MW 1312   0.129   1.319   2.180  0.1302 -0.2683  0.4910
  329SOL     OW 1313   0.118   0.170   1.390 -0.2059 -0.1438 -0.2636
  329SOL    HW1 1314   0.062   0.193   1.458  2.3024 -3.3434 -1.7090
  329SOL    HW2 1315   0.181   0.244   1.383 -0.8237  0.6126  3.0210
  329SOL     MW 1316   0.119   0.183   1.398  0.0435 -0.4662 -0.0210
  330SOL     OW 1317   0.399   2.968   2.075  0.3953  0.6104 -0.5638
  330SOL    HW1 1318   0.463   3.000   2.136 -2.8524 -0.7377 -0.9212
  330SOL    HW2 1319   0.336   2.925   2.142 -2.6161 -0.2117 -0.4743
  330SOL     MW 1320   0.399   2.967   2.092 -0.4305  0.3241 -0.5991
  331SOL     OW 1321   0.811   1.202   2.261  0.5453  0.0255  0.2175
  331SOL    HW1 1322   0.773   1.205   2.171  0.1518 -0.9752 -3.0468
  331SOL    HW2 1323   0.818   1.297   2.272  1.3587  1.1124  1.2001
  331SOL     MW 1324   0.807   1.215   2.251  0.6007  0.0369 -0.0836
  332SOL     OW 1325   1.414   1.750   2.968 -0.5302  0.4107  0.1683
  332SOL    HW1 1326   1.410   1.754   2.871 -2.0450  0.8731  0.0409
  332SOL    HW2 1327   1.449   1.833   2.994 -0.2137  0.2371 -1.0887
  332SOL     MW 1328   1.418   1.762   2.958 -0.6883  0.4488 -0.0144
  333SOL     OW 1329   1.726   1.499   3.017 -0.2241  0.5680 -0.1399
  333SOL    HW1 1330   1.821   1.501   3.028 -1.3385 -1.3615  1.3984
  333SOL    HW2 1331   1.686   1.442   3.084 -1.5118  0.1421 -1.1522
  333SOL     MW 1332   1.734   1.492   3.027 -0.5410  0.2572 -0.0705
  334SOL     OW 1333   1.217  -0.004   2.632  0.2595 -0.1293  0.6848
  334SOL    HW1 1334   1.139  -0.001   2.683  4.6465  0.9076 -1.5495
  334SOL    HW2 1335   1.258   0.085   2.642 -0.2974  0.0442 -0.1076
  334SOL     MW 1336   1.212   0.008   2.640  0.7648  0.0304  0.2855
  335SOL     OW 1337   1.267   0.745   2.972 -0.0731 -0.1007  0.6550
  335SOL    HW1 1338   1.313   0.722   3.056  2.4365  2.2378  3.0476
  335SOL    HW2 1339   1.333   0.800   2.930 -1.9735 -0.1887  1.2456
  335SOL     MW 1340   1.282   0.749   2.978  0.0073  0.1962  1.0486
  336SOL     OW 1341   0.899   1.104   1.862 -0.3408  0.7248 -0.0851
  336SOL    HW1 1342   0.917   1.189   1.896  0.9651  0.0483  1.5361
  336SOL    HW2 1343   0.966   1.061   1.908  1.2912  0.0911  1.3027
  336SOL     MW 1344   0.910   1.110   1.872  0.0468  0.5520  0.3119
  337SOL     OW 1345   0.550   1.763   2.838 -0.7629  0.4164  0.3448
  337SOL    HW1 1346   0.510   1.782   2.750 -0.3744  1.3841 -2.1112
  337SOL    HW2 1347   0.620   1.691   2.825 -1.9475 -2.7345 -0.2632
  337SOL     MW 1348   0.554   1.756   2.825 -0.8680  0.1283 -0.0594
  338SOL     OW 1349   1.057   0.836   2.524  0.3933 -0.0978 -0.1766
  338SOL    HW1 1350   0.982   0.776   2.499 -1.2988  2.3228 -1.5639
  338SOL    HW2 1351   1.107   0.800   2.601  1.4460 -0.7841  4.1398
  338SOL     MW 1352   1.054   0.823   2.531  0.3089  0.1311  0.2099
  339SOL     OW 1353   1.513   1.126   1.831  0.5396 -0.1499  0.0874
  339SOL    HW1 1354   1.450   1.115   1.758 -0.6774 -0.4499  0.7055
  339SOL    HW2 1355   1.502   1.214   1.864  2.0953 -2.4521 -0.5198
  339SOL     MW 1356   1.503   1.136   1.826  0.5843 -0.4932  0.0888
  340SOL     OW 1357   1.330   1.599   0.070  0.3218  0.5915  0.5010
  340SOL    HW1 1358   1.373   1.662   0.018 -0.1411 -1.5329 -0.4083
  340SOL    HW2 1359   1.384   1.601   0.152  0.6220 -2.5593 -1.3734
  340SOL     MW 1360   1.342   1.607   0.074  0.3003 -0.1045  0.1337
  341SOL     OW 1361   0.177   1.349   2.669  0.4500  0.4915 -0.2029
  341SOL    HW1 1362   0.261   1.388   2.635  2.3562 -1.3147  0.0983
  341SOL    HW2 1363   0.123   1.311   2.598 -2.5314 -0.7251 -1.2066
  341SOL     MW 1364   0.181   1.349   2.655  0.3081  0.0927 -0.2956
  342SOL     OW 1365   1.412   0.289   0.083 -0.2629 -0.3343 -0.5499
  342SOL    HW1 1366   1.434   0.374   0.127  0.9128  1.8823 -1.3305
  342SOL    HW2 1367   1.417   0.318  -0.008 -0.5687  0.8801 -1.1249
  342SOL     MW 1368   1.415   0.304   0.077 -0.1481  0.1184 -0.7288
  343SOL     OW 1369   0.188   0.302   2.321  0.4441  0.0529 -0.2238
  343SOL    HW1 1370   0.232   0.226   2.360  2.9900 -0.5799 -1.5218
  343SOL    HW2 1371   0.141   0.269   2.238 -0.4147  0.6596  0.1131
  343SOL     MW 1372   0.188   0.288   2.315  0.6667  0.0494 -0.3506
  344SOL     OW 1373   1.719   2.154   0.146 -0.2176 -0.5321  0.5756
  344SOL    HW1 1374   1.742   2.175   0.056 -0.9355 -0.6203  1.8280
  344SOL    HW2 1375   1.646   2.088   0.138  0.3069  1.0226  2.8558
  344SOL     MW 1376   1.712   2.148   0.133 -0.2431 -0.3386  1.0416
  345SOL     OW 1377   0.674   1.619   2.352  0.3036 -0.1975 -0.2421
  345SOL    HW1 1378   0.582   1.608   2.324 -2.2105  0.4039  0.6872
  345SOL    HW2 1379   0.725   1.577   2.279  0.7544  1.2364  0.4408
  345SOL     MW 1380   0.668   1.612   2.339  0.0314  0.0711 -0.0294
  346SOL     OW 1381   1.698   1.041   0.016  0.4256  0.0420  0.7593
  346SOL    HW1 1382   1.793   1.049   0.025 -1.5940  0.2140 -0.3152
  346SOL    HW2 1383   1.651   1.027   0.099 -1.1231  0.7358 -2.1001
  346SOL     MW 1384   1.704   1.040   0.028 -0.0452  0.1562  0.2403
  347SOL     OW 1385   1.181   0.615   2.377 -0.0215 -0.3779  0.3923
  347SOL    HW1 1386   1.277   0.590   2.394 -0.1811  0.0584 -0.4911
  347SOL    HW2 1387   1.162   0.679   2.441  0.1831 -0.9282 -0.0036
  347SOL     MW 1388   1.191   0.620   2.388 -0.0156 -0.3930  0.2235
  348SOL     OW 1389   1.365   2.634   1.874 -0.0017  0.0851  0.5510
  348SOL    HW1 1390   1.404   2.557   1.924  1.3622 -2.4617  1.6181
  348SOL    HW2 1391   1.399   2.706   1.930 -2.9595  1.2798 -0.8086
  348SOL     MW 1392   1.375   2.634   1.888 -0.2120 -0.0933  0.5124
  349SOL     OW 1393   1.365   0.209   2.683  0.3431  0.7068 -0.2779
  349SOL    HW1 1394   1.347   0.279   2.747 -1.1292 -1.0166  0.9504
  349SOL    HW2 1395   1.448   0.166   2.719  1.2345 -0.0657 -1.7624
  349SOL     MW 1396   1.374   0.212   2.696  0.2665  0.3775 -0.3117
  350SOL     OW 1397   1.867   0.680   2.638 -0.1780  0.4476 -0.3158
  350SOL    HW1 1398   1.819   0.598   2.622  1.1960 -2.1917  0.3318
  350SOL    HW2 1399   1.956   0.656   2.674  1.8893  2.7103  0.1981
  350SOL     MW 1400   1.872   0.666   2.641  0.2761  0.3979 -0.1625
  351SOL     OW 1401   3.092   0.928   1.579  0.2647  0.0254  0.4381
  351SOL    HW1 1402   3.006   0.950   1.613  0.1723 -0.6752 -0.1921
  351SOL    HW2 1403   3.142   1.007   1.599 -2.1073  2.0364  0.6535
  351SOL     MW 1404   3.087   0.942   1.586 -0.0604  0.1983  0.3834
  352SOL     OW 1405   0.778   1.607   2.761  0.1478  0.5604 -0.2400
  352SOL    HW1 1406   0.840   1.556   2.825  0.4220 -2.1907  3.0338
  352SOL    HW2 1407   0.733   1.540   2.714 -2.0538  1.4051  0.9646
  352SOL     MW 1408   0.780   1.591   2.763 -0.1065  0.3088  0.3509
  353SOL     OW 1409   3.042   2.403   2.754 -0.4786 -0.2614  0.2908
  353SOL    HW1 1410   3.129   2.379   2.725 -2.1213 -1.8413 -2.4634
  353SOL    HW2 1411   3.014   2.485   2.711 -2.2777 -0.7521  1.6263
  353SOL     MW 1412   3.049   2.411   2.745 -0.9327 -0.5346  0.1036
  354SOL     OW 1413   0.405   2.407   0.880 -0.0749 -0.4813  0.0506
  354SOL    HW1 1414   0.438   2.399   0.974  0.4880  0.5676 -1.9680
  354SOL    HW2 1415   0.327   2.348   0.877 -1.6601 -1.4043 -1.2534
  354SOL     MW 1416   0.399   2.398   0.892 -0.2098 -0.4647 -0.3878
  355SOL     OW 1417   0.083   2.257   0.377  0.2744 -0.3136  0.7223
  355SOL    HW1 1418   0.000   2.204   0.376 -2.6427 -0.0815  1.4727
  355SOL    HW2 1419   0.088   2.287   0.468 -0.8581  1.4952 -1.9598
  355SOL     MW 1420   0.073   2.254   0.389 -0.2599 -0.0443  0.4675
  356SOL     OW 1421   0.787   2.984   1.005  0.0055  0.0159  0.7950
  356SOL    HW1 1422   0.863   2.955   0.954  1.1027  1.0739 -2.0312
  356SOL    HW2 1423   0.716   2.924   0.978  2.5131 -0.3116  1.6468
  356SOL     MW 1424   0.787   2.972   0.994  0.4811  0.1123  0.5345
  357SOL     OW 1425   1.809   2.949   0.363 -0.3940 -0.5782  0.1052
  357SOL    HW1 1426   1.758   2.882   0.408 -1.2429 -0.2821  2.3994
  357SOL    HW2 1427   1.877   2.891   0.330 -2.4903  0.5400  0.2906
  357SOL     MW 1428   1.811   2.932   0.365 -0.7826 -0.3916  0.4324
  358SOL     OW 1429   0.436   0.181   1.056 -1.0329  0.0894 -0.5276
  358SOL    HW1 1430   0.524   0.163   1.015  2.5504 -2.0736 -2.0708
  358SOL    HW2 1431   0.374   0.173   0.983 -0.8169 -0.4604 -1.6974
  358SOL     MW 1432   0.440   0.178   1.041 -0.5317 -0.2685 -0.8855
  359SOL     OW 1433   0.973   2.774   1.863  1.0937  0.0803 -0.8782
  359SOL    HW1 1434   0.929   2.730   1.931 -0.2969 -0.1946 -2.7245
  359SOL    HW2 1435   0.996   2.694   1.816 -0.8821 -1.7349  0.5431
  359SOL     MW 1436   0.970   2.757   1.866  0.6495 -0.1954 -0.9343
  360SOL     OW 1437   0.595   2.775   0.916  0.8145  0.1076  0.5893
  360SOL    HW1 1438   0.608   2.704   0.854  2.1027  0.8189 -2.6038
  360SOL    HW2 1439   0.597   2.721   1.000  1.0525  0.4177 -0.3765
  360SOL     MW 1440   0.597   2.759   0.919  1.0159  0.2424  0.0406
  361SOL     OW 1441   0.170   2.763   1.366 -0.7198  0.0062 -0.6322
  361SOL    HW1 1442   0.133   2.844   1.399  0.4283 -3.0464 -2.2470
  361SOL    HW2 1443   0.261   2.786   1.343 -0.4334 -0.7543  1.9788
  361SOL     MW 1444   0.177   2.777   1.367 -0.5306 -0.4969 -0.5007
  362SOL     OW 1445   1.484   2.394   0.591  0.0236  0.0640 -0.1070
  362SOL    HW1 1446   1.463   2.310   0.639 -1.9044  0.6343  1.8344
  362SOL    HW2 1447   1.516   2.461   0.652 -0.7334  0.0972 -2.2016
  362SOL     MW 1448   1.486   2.392   0.606 -0.3307  0.1436 -0.1272
  363SOL     OW 1449   0.211   3.022   0.728 -0.0551  0.2008  0.6488
  363SOL    HW1 1450   0.202   2.967   0.802 -0.9393  2.4761 -1.7013
  363SOL    HW2 1451   0.128   3.063   0.709  0.7746  1.5889  1.7664
  363SOL     MW 1452   0.199   3.020   0.735 -0.0623  0.6841  0.4862
  364SOL     OW 1453   0.735   0.197   0.174 -0.2309  0.1351 -0.6458
  364SOL    HW1 1454   0.707   0.105   0.188  0.6514 -2.8710  1.0263
  364SOL    HW2 1455   0.648   0.245   0.181  0.8253 -0.4976 -2.0786
  364SOL     MW 1456   0.720   0.192   0.177  0.0248 -0.3450 -0.6142
  365SOL     OW 1457   0.988   1.971   1.134  0.2909 -0.0513 -0.4967
  365SOL    HW1 1458   0.970   2.055   1.100 -2.0795 -1.1963 -0.5386
  365SOL    HW2 1459   0.918   1.921   1.100  0.9544 -1.8913  0.7540
  365SOL     MW 1460   0.977   1.976   1.125  0.0657 -0.4451 -0.3372
  366SOL     OW 1461   2.866   2.677   1.033  0.1722  0.3275  0.3796
  366SOL    HW1 1462   2.937   2.667   1.105  0.6120 -0.7220 -0.1354
  366SOL    HW2 1463   2.917   2.691   0.953  0.3709  0.4386 -1.0835
  366SOL     MW 1464   2.882   2.677   1.032  0.2564  0.2037  0.1186
  367SOL     OW 1465   1.289   2.910   0.891  0.2262  0.4258 -0.0029
  367SOL    HW1 1466   1.201   2.937   0.923  4.2820 -3.0015  2.0718
  367SOL    HW2 1467   1.264   2.862   0.807 -1.2942 -0.6366 -1.0600
  367SOL     MW 1468   1.274   2.907   0.884  0.5607 -0.1666  0.1314
  368SOL     OW 1469   1.691   0.449   0.659  0.0476 -0.2262 -0.4666
  368SOL    HW1 1470   1.768   0.391   0.648 -0.1800 -0.3215 -1.8334
  368SOL    HW2 1471   1.724   0.538   0.667  2.0902  1.0300  3.1041
  368SOL     MW 1472   1.706   0.453   0.658  0.2871 -0.0730 -0.1758
  369SOL     OW 1473   0.128   2.482   1.750 -0.3722  0.4068  0.1582
  369SOL    HW1 1474   0.218   2.445   1.770 -0.1996 -0.9529 -1.8894
  369SOL    HW2 1475   0.115   2.554   1.803 -0.3680 -0.6522  0.5592
  369SOL     MW 1476   0.138   2.487   1.759 -0.3489  0.0876 -0.0591
  370SOL     OW 1477   0.666   0.110   0.943  0.0838 -0.4333  0.6525
  370SOL    HW1 1478   0.735   0.182   0.951 -0.5305  2.3677  0.4576
  370SOL    HW2 1479   0.719   0.027   0.962  1.8758 -1.5031 -1.9995
  370SOL     MW 1480   0.682   0.109   0.947  0.2392 -0.2049  0.2769
  371SOL     OW 1481   1.335   2.978   1.532 -0.0535 -0.1250  0.3467
  371SOL    HW1 1482   1.274   2.901   1.509 -0.1929  1.1888 -2.5409
  371SOL    HW2 1483   1.335   3.031   1.453  0.6554 -1.3276  0.3867
  371SOL     MW 1484   1.327   2.975   1.519  0.0216 -0.1104 -0.0290
  372SOL     OW 1485   0.800   2.259   0.506  0.2934 -0.2891  0.5313
  372SOL    HW1 1486   0.766   2.166   0.522 -0.2128 -2.0447 -2.2723
  372SOL    HW2 1487   0.808   2.250   0.411 -0.2382 -1.5584  1.7692
  372SOL     MW 1488   0.797   2.245   0.496  0.1565 -0.6882  0.3248
  373SOL     OW 1489   2.826   3.015   1.391  0.3606  0.8143 -0.3025
  373SOL    HW1 1490   2.896   2.993   1.326 -0.8415 -1.6039 -0.2751
  373SOL    HW2 1491   2.809   3.108   1.380  0.6668  0.8152 -1.0860
  373SOL     MW 1492   2.833   3.024   1.381  0.2424  0.4954 -0.4022
  374SOL     OW 1493   1.490   0.531   0.224  0.2700  0.7243 -0.1389
  374SOL    HW1 1494   1.580   0.532   0.239 -0.9109 -0.8511  0.3478
  374SOL    HW2 1495   1.468   0.497   0.307 -0.4741 -0.9804 -2.0786
  374SOL     MW 1496   1.499   0.526   0.237  0.0160  0.2916 -0.3306
  375SOL     OW 1497   1.141   2.103   2.269  0.4605  0.2374  0.5702
  375SOL    HW1 1498   1.161   2.126   2.366  0.1797 -1.4769  2.3379
  375SOL    HW2 1499   1.099   2.010   2.273  1.1815 -1.0849 -3.4541
  375SOL     MW 1500   1.138   2.094   2.282  0.5186 -0.1632  0.2725
  376SOL     OW 1501   0.690   2.543   0.134 -0.5204 -0.2127  0.2769
  376SOL    HW1 1502   0.701   2.502   0.222 -0.0739  2.0073 -0.0387
  376SOL    HW2 1503   0.649   2.474   0.079 -2.1086 -1.4243  0.6879
  376SOL     MW 1504   0.686   2.528   0.139 -0.6710 -0.0797  0.2895
  377SOL     OW 1505   1.224   2.075   0.940 -0.3248  0.2904 -0.1273
  377SOL    HW1 1506   1.158   2.023   0.890  0.5723 -2.3588 -0.1643
  377SOL    HW2 1507   1.247   2.021   1.013 -1.7206 -0.1643 -2.1203
  377SOL     MW 1508   1.218   2.061   0.943 -0.3906 -0.1191 -0.3951
  378SOL     OW 1509   0.962   2.807   1.496 -0.2717 -0.1505  0.3350
  378SOL    HW1 1510   0.914   2.721   1.512  0.3742 -1.5640  2.0635
  378SOL    HW2 1511   0.950   2.838   1.403 -0.1325  0.3425  0.2999
  378SOL     MW 1512   0.954   2.799   1.486 -0.1681 -0.2719  0.5584
  379SOL     OW 1513   1.051   1.838   2.308  0.3468 -0.1823 -0.4009
  379SOL    HW1 1514   0.956   1.833   2.323 -0.4398 -1.0439  1.9179
  379SOL    HW2 1515   1.065   1.767   2.246 -0.7870 -1.6674 -2.5778
  379SOL     MW 1516   1.041   1.828   2.302  0.0934 -0.4919 -0.3822
  380SOL     OW 1517   0.879   0.217   1.555  0.5053  0.0805  0.1390
  380SOL    HW1 1518   0.917   0.174   1.472  1.4559  0.5762 -3.2809
  380SOL    HW2 1519   0.952   0.207   1.617  2.3058 -0.3276  1.8981
  380SOL     MW 1520   0.894   0.210   1.552  0.8683  0.0921 -0.0801
  381SOL     OW 1521   0.820   2.023   0.800 -0.4432 -0.2690 -0.2021
  381SOL    HW1 1522   0.905   2.002   0.759 -2.0003 -0.0438 -0.1672
  381SOL    HW2 1523   0.839   2.076   0.880 -0.4466 -0.0295  0.0336
  381SOL     MW 1524   0.834   2.027   0.805 -0.6491 -0.2077 -0.1664
  382SOL     OW 1525   0.689   0.039   0.655  0.3682 -0.3502  0.3823
  382SOL    HW1 1526   0.642   0.051   0.737  1.2536  1.0555  1.7306
  382SOL    HW2 1527   0.694  -0.056   0.638 -1.3801  1.0768  3.6263
  382SOL     MW 1528   0.684   0.028   0.663  0.2543  0.0236  0.9882
  383SOL     OW 1529   0.496   0.009   0.350 -0.2657 -0.2335  0.5660
  383SOL    HW1 1530   0.522   0.017   0.443  0.5646 -2.3582 -2.6925
  383SOL    HW2 1531   0.407  -0.024   0.356  2.3030  1.5078 -0.8262
  383SOL     MW 1532   0.488   0.005   0.363  0.1828 -0.2841 -0.0477
  384SOL     OW 1533   0.598   2.875   0.578 -0.2134  0.3287 -0.2530
  384SOL    HW1 1534   0.591   2.786   0.616  0.7726  1.6293  0.5987
  384SOL    HW2 1535   0.505   2.893   0.566  2.5879 -0.1333  2.2663
  384SOL     MW 1536   0.585   2.866   0.581  0.2863  0.4394  0.1918
  385SOL     OW 1537   1.339   2.062   1.557 -0.1722 -0.0966 -0.7561
  385SOL    HW1 1538   1.417   2.070   1.617  2.6561  1.5542 -2.3315
  385SOL    HW2 1539   1.275   1.997   1.590 -1.5844  0.3288 -1.6634
  385SOL     MW 1540   1.341   2.054   1.569  0.0146  0.1773 -1.0837
  386SOL     OW 1541   1.364   0.432   0.900  0.5151  0.2001  0.3856
  386SOL    HW1 1542   1.288   0.387   0.860  0.2900 -3.6228  0.9739
  386SOL    HW2 1543   1.330   0.439   0.989  1.6819 -2.4807  1.3429
  386SOL     MW 1544   1.350   0.427   0.906  0.6393 -0.6580  0.5895
  387SOL     OW 1545   0.889   2.149   1.470 -0.5873  0.2532  0.3354
  387SOL    HW1 1546   0.952   2.202   1.424 -1.1855 -1.5312  3.7681
  387SOL    HW2 1547   0.898   2.059   1.428  1.1423 -2.7857 -1.4201
  387SOL     MW 1548   0.898   2.144   1.458 -0.4380 -0.3832  0.5567
  388SOL     OW 1549   1.551   2.843   1.178 -0.3577 -0.3898 -0.1983
  388SOL    HW1 1550   1.469   2.813   1.140 -1.8762 -1.9030  0.5166
  388SOL    HW2 1551   1.625   2.803   1.134 -0.5761 -1.6290  0.2459
  388SOL     MW 1552   1.550   2.834   1.167 -0.5869 -0.7530 -0.0454
  389SOL     OW 1553   0.400   0.177   3.102 -0.3753  0.7914  0.0310
  389SOL    HW1 1554   0.462   0.111   3.067 -1.1711 -1.8446  1.0987
  389SOL    HW2 1555   0.312   0.139   3.099 -3.6344 -1.1817  0.9803
  389SOL     MW 1556   0.397   0.163   3.097 -0.9103  0.1833  0.2971
  390SOL     OW 1557   1.373   0.059   0.604 -0.1727 -0.1914 -1.0510
  390SOL    HW1 1558   1.459   0.096   0.581 -1.5953 -0.2859 -1.3064
  390SOL    HW2 1559   1.378   0.052   0.700 -2.5223 -1.1931 -0.1509
  390SOL     MW 1560   1.385   0.063   0.614 -0.6704 -0.3361 -0.9659
  391SOL     OW 1561   0.261   2.308   1.439  0.1642  0.1231  0.1763
  391SOL    HW1 1562   0.218   2.233   1.489  0.0748 -2.8778 -0.8200
  391SOL    HW2 1563   0.193   2.376   1.454  0.7076  1.4988  0.0699
  391SOL     MW 1564   0.246   2.307   1.448  0.2241 -0.0913  0.0308
  392SOL     OW 1565   1.977   2.158   0.315  0.1624 -0.5408  0.3440
  392SOL    HW1 1566   1.914   2.235   0.322 -0.2555 -2.2170 -0.4693
  392SOL    HW2 1567   2.046   2.164   0.387  1.0634  2.3065  0.3597
  392SOL     MW 1568   1.978   2.169   0.326  0.2261 -0.3863  0.2387
  393SOL     OW 1569   0.218   3.015   2.927  0.8049 -0.3508 -0.4270
  393SOL    HW1 1570   0.297   3.041   2.884 -0.3569 -4.3008  1.9413
  393SOL    HW2 1571   0.146   3.046   2.871  1.3333 -1.1622 -0.7289
  393SOL     MW 1572   0.219   3.023   2.914  0.7213 -0.9790 -0.1544
  394SOL     OW 1573   0.834   1.641   1.425  0.0111 -0.1562 -0.3844
  394SOL    HW1 1574   0.767   1.636   1.500 -3.9419  0.2960 -2.1176
  394SOL    HW2 1575   0.873   1.730   1.423 -0.6079 -4.9247 -2.5317
  394SOL     MW 1576   0.830   1.652   1.435 -0.5921 -0.7257 -0.8964
  395SOL     OW 1577   0.930   2.897   2.577 -0.2643  0.5915 -0.2381
  395SOL    HW1 1578   0.935   2.960   2.650  0.9444  0.8497  2.5036
  395SOL    HW2 1579   1.022   2.865   2.581  0.0494 -1.7532 -1.6344
  395SOL     MW 1580   0.943   2.901   2.587 -0.0634  0.3162 -0.0606
  396SOL     OW 1581   0.768   1.873   2.383  0.3724  0.2445  0.3850
  396SOL    HW1 1582   0.822   1.878   2.461 -1.4791  1.1219  0.3458
  396SOL    HW2 1583   0.731   1.784   2.394 -0.8707 -0.0981  2.0856
  396SOL     MW 1584   0.770   1.862   2.395 -0.0359  0.3151  0.6042
  397SOL     OW 1585   1.019   2.353   1.325 -0.1812 -0.1254  0.3105
  397SOL    HW1 1586   1.054   2.367   1.234  1.6156 -2.2038  1.2221
  397SOL    HW2 1587   1.093   2.347   1.394  2.1875  0.1817  1.2372
  397SOL     MW 1588   1.034   2.354   1.322  0.3684 -0.3591  0.5530
  398SOL     OW 1589   0.603   2.605   0.691  0.9040  0.4949  0.3515
  398SOL    HW1 1590   0.544   2.525   0.708  3.2163 -0.2695  0.6757
  398SOL    HW2 1591   0.682   2.571   0.649  2.8218 -2.8257  0.2816
  398SOL     MW 1592   0.606   2.590   0.688  1.4621 -0.0441  0.3851
  399SOL     OW 1593   0.284   2.059   0.358  0.1643  0.1336  0.5305
  399SOL    HW1 1594   0.229   2.132   0.373  0.8470 -1.7934 -2.4877
  399SOL    HW2 1595   0.350   2.080   0.289 -1.4783 -4.0044  1.7109
  399SOL     MW 1596   0.285   2.071   0.351  0.0377 -0.6666  0.2880
  400SOL     OW 1597   0.626   1.853   0.181  0.0204  0.2983 -0.2159
  400SOL    HW1 1598   0.604   1.947   0.181 -2.1569 -0.1292 -0.7151
  400SOL    HW2 1599   0.568   1.801   0.239  1.4210 -0.4910  1.0099
  400SOL     MW 1600   0.616   1.859   0.189 -0.0821  0.1378 -0.1200
  401SOL     OW 1601   1.020   2.090   0.047 -0.4150 -0.3221  0.2406
  401SOL    HW1 1602   1.006   2.000   0.087 -0.6529 -2.3135  1.9378
  401SOL    HW2 1603   1.068   2.126   0.124 -1.2870  0.6157 -0.8015
  401SOL     MW 1604   1.024   2.083   0.062 -0.5614 -0.4611  0.3271
  402SOL     OW 1605   0.704   2.841   1.725  0.4826  0.8213  0.6556
  402SOL    HW1 1606   0.631   2.812   1.783  1.2902 -0.1060 -0.9502
  402SOL    HW2 1607   0.786   2.824   1.766 -1.4710 -2.0319  0.8530
  402SOL     MW 1608   0.705   2.835   1.738  0.3314  0.3225  0.4698
  403SOL     OW 1609   0.049   0.548   0.377 -0.2082 -0.6859  0.7559
  403SOL    HW1 1610   0.139   0.580   0.401  1.5808  1.0289 -0.0885
  403SOL    HW2 1611   0.067   0.465   0.320  1.5263  0.6761 -1.3942
  403SOL     MW 1612   0.063   0.541   0.373  0.2567 -0.2800  0.3608
  404SOL     OW 1613   0.973   2.891   0.827  0.1382  0.1068 -0.7238
  404SOL    HW1 1614   1.025   2.819   0.787 -2.6355 -0.2274  0.0118
  404SOL    HW2 1615   0.984   2.968   0.767  1.9850 -1.1125  0.0927
  404SOL     MW 1616   0.982   2.892   0.814  0.0159 -0.0982 -0.5190
  405SOL     OW 1617   0.472   2.465   1.554  0.2159 -0.0997 -0.2032
  405SOL    HW1 1618   0.463   2.535   1.490 -3.0877  1.4281 -3.0692
  405SOL    HW2 1619   0.412   2.399   1.511  1.7974  2.0885  1.7399
  405SOL     MW 1620   0.463   2.465   1.540 -0.0113  0.3905 -0.3250
  406SOL     OW 1621   0.414   2.392   1.148 -0.1844 -0.2550  0.0935
  406SOL    HW1 1622   0.324   2.399   1.177 -0.1973 -0.5232 -0.2888
  406SOL    HW2 1623   0.443   2.301   1.184  2.1493 -3.0538 -2.1842
  406SOL     MW 1624   0.406   2.381   1.156  0.1218 -0.6597 -0.2574
  407SOL     OW 1625   0.011   2.676   1.158  0.6307  0.4632 -0.0981
  407SOL    HW1 1626   0.053   2.707   1.237 -2.4194 -3.9267 -1.6710
  407SOL    HW2 1627   0.080   2.658   1.097 -1.4546 -2.8009 -1.8482
  407SOL     MW 1628   0.026   2.678   1.160 -0.0469 -0.5466 -0.5365
  408SOL     OW 1629   2.116   2.139   0.555  0.2566  0.5305  0.0120
  408SOL    HW1 1630   2.093   2.213   0.606 -0.0970 -1.0865  0.1607
  408SOL    HW2 1631   2.029   2.080   0.560 -2.5020 -1.7659  2.1790
  408SOL     MW 1632   2.102   2.141   0.562 -0.1540  0.0142  0.3175
  409SOL     OW 1633   1.375   0.131   0.890 -0.5747 -0.3733  0.1838
  409SOL    HW1 1634   1.436   0.197   0.911 -0.7963 -1.6086 -2.0615
  409SOL    HW2 1635   1.409   0.051   0.931  0.5062 -0.2810 -0.3847
  409SOL     MW 1636   1.388   0.129   0.898 -0.4613 -0.5241 -0.1875
  410SOL     OW 1637   1.086   2.492   1.077  0.1700  0.0774 -0.1075
  410SOL    HW1 1638   1.016   2.475   1.019  2.5328 -0.6377 -1.6363
  410SOL    HW2 1639   1.156   2.429   1.043 -1.8535 -1.6181  0.6712
  410SOL     MW 1640   1.086   2.481   1.065  0.2148 -0.2407 -0.2064
  411SOL     OW 1641   1.972   0.133   2.843  0.8325  0.8810 -0.2291
  411SOL    HW1 1642   1.919   0.125   2.763 -0.0022 -0.8322 -0.4732
  411SOL    HW2 1643   1.909   0.156   2.915 -0.1724 -0.3923  1.6388
  411SOL     MW 1644   1.957   0.135   2.842  0.5898  0.4869 -0.0148
  412SOL     OW 1645   1.082   2.209   0.561  0.4242  0.0596  0.2831
  412SOL    HW1 1646   1.140   2.285   0.582  1.3094 -0.3901  1.3071
  412SOL    HW2 1647   0.997   2.255   0.551 -1.9217 -2.5656 -0.2836
  412SOL     MW 1648   1.078   2.225   0.563  0.2315 -0.3461  0.3434
  413SOL     OW 1649   0.547   2.788   0.175 -0.3390  0.1367 -0.0155
  413SOL    HW1 1650   0.591   2.696   0.171  0.8399 -1.1514 -1.7946
  413SOL    HW2 1651   0.557   2.818   0.082  0.1471 -0.9520 -0.2665
  413SOL     MW 1652   0.554   2.780   0.162 -0.1193 -0.1769 -0.2833
  414SOL     OW 1653   1.997   3.026   1.054 -0.2252  0.6573  1.0266
  414SOL    HW1 1654   1.952   2.994   0.970  0.3806 -0.3719  2.2781
  414SOL    HW2 1655   2.071   2.963   1.057  0.9356 -0.6921 -3.3262
  414SOL     MW 1656   2.001   3.013   1.043  0.0079  0.3435  0.6174
  415SOL     OW 1657   1.747   2.689   1.062 -0.5229 -0.2329 -0.0829
  415SOL    HW1 1658   1.711   2.636   1.134  0.6588  0.7512  1.1707
  415SOL    HW2 1659   1.832   2.717   1.100 -1.7808  0.5910 -3.3073
  415SOL     MW 1660   1.753   2.686   1.076 -0.5330  0.0056 -0.3430
  416SOL     OW 1661   0.606   1.935   1.371 -0.0594  0.0114  0.3221
  416SOL    HW1 1662   0.560   2.021   1.363 -0.2106  0.2098  1.9280
  416SOL    HW2 1663   0.610   1.903   1.278  1.4323  0.6733 -1.1908
  416SOL     MW 1664   0.601   1.943   1.358  0.1174  0.1249  0.3344
  417SOL     OW 1665   1.047   3.016   1.974 -1.1349 -0.2965  0.3764
  417SOL    HW1 1666   0.973   2.993   2.036 -2.9830 -0.6791 -0.0112
  417SOL    HW2 1667   1.024   2.948   1.908  0.9239  0.7874 -1.0748
  417SOL     MW 1668   1.034   3.004   1.974 -1.1071 -0.2040  0.1338
  418SOL     OW 1669   0.734   3.000   0.195 -0.3567  0.4692  0.1480
  418SOL    HW1 1670   0.786   2.952   0.127  0.4242  0.3380  2.8392
  418SOL    HW2 1671   0.655   2.949   0.218  1.4794 -1.7025  0.4833
  418SOL     MW 1672   0.731   2.987   0.189 -0.0114  0.1653  0.5473
  419SOL     OW 1673   0.448   2.700   1.398  0.5305  0.3020 -0.0565
  419SOL    HW1 1674   0.502   2.758   1.455 -0.3855 -0.5224 -0.4049
  419SOL    HW2 1675   0.491   2.699   1.311  1.6916  1.8084 -0.7477
  419SOL     MW 1676   0.461   2.708   1.394  0.5629  0.3920 -0.1936
  420SOL     OW 1677   0.907   2.208   1.020 -0.2412 -0.6120  0.0243
  420SOL    HW1 1678   0.867   2.228   1.105 -0.4599  0.9971  0.5830
  420SOL    HW2 1679   0.913   2.295   0.984 -0.6899 -0.9955  0.4339
  420SOL     MW 1680   0.902   2.222   1.027 -0.3293 -0.4503  0.1521
  421SOL     OW 1681   2.937   0.096   0.031  0.0538 -0.5957 -0.7326
  421SOL    HW1 1682   2.915   0.083  -0.056  0.5192 -3.8493  3.0618
  421SOL    HW2 1683   2.916   0.020   0.084  1.4853  2.0325  1.9758
  421SOL     MW 1684   2.931   0.085   0.026  0.3040 -0.6782  0.1253
  422SOL     OW 1685   0.871   2.462   0.870  0.1050  0.1700 -0.3408
  422SOL    HW1 1686   0.787   2.501   0.891  0.4770 -1.2314 -1.4103
  422SOL    HW2 1687   0.888   2.478   0.776 -2.4556 -2.7700  2.3629
  422SOL     MW 1688   0.862   2.469   0.860 -0.1837 -0.4028 -0.1252
  423SOL     OW 1689   1.598   0.141   0.499 -0.0811  0.4849 -0.3910
  423SOL    HW1 1690   1.593   0.101   0.413 -1.9887  0.8055 -0.6029
  423SOL    HW2 1691   1.601   0.234   0.481  1.9972 -1.1478  1.6192
  423SOL     MW 1692   1.598   0.148   0.485 -0.0585  0.3118 -0.1537
  424SOL     OW 1693   0.742   2.202   1.246 -0.1196  0.2241  0.5418
  424SOL    HW1 1694   0.644   2.204   1.256 -0.4374 -0.1455 -1.6288
  424SOL    HW2 1695   0.783   2.198   1.332  2.9304  1.6878 -0.0649
  424SOL     MW 1696   0.734   2.202   1.259  0.2409  0.3684  0.1754
  425SOL     OW 1697   1.738   2.851   2.033  0.2900  0.3032 -0.1729
  425SOL    HW1 1698   1.747   2.845   1.936 -0.2759  0.8518 -1.0677
  425SOL    HW2 1699   1.754   2.765   2.066 -0.0402  2.1661 -0.5323
  425SOL     MW 1700   1.742   2.839   2.025  0.1717  0.6214 -0.3384
  426SOL     OW 1701   0.735   1.607   1.917  0.0395  0.4836  0.3210
  426SOL    HW1 1702   0.718   1.645   1.830 -1.9214 -0.3575 -2.8341
  426SOL    HW2 1703   0.741   1.688   1.972  0.1208 -0.1191 -0.5448
  426SOL     MW 1704   0.733   1.623   1.913 -0.2085  0.2931 -0.2095
  427SOL     OW 1705   0.387   1.551   1.855  0.7144  0.2354  0.0818
  427SOL    HW1 1706   0.455   1.495   1.836 -1.8971  0.2061  2.3827
  427SOL    HW2 1707   0.316   1.486   1.873  1.4689 -0.0202 -0.3059
  427SOL     MW 1708   0.387   1.535   1.855  0.4694  0.1978  0.3342
  428SOL     OW 1709   0.592   2.636   1.154 -0.4070  0.1629 -0.3673
  428SOL    HW1 1710   0.662   2.584   1.201  3.1984 -1.6280 -2.4377
  428SOL    HW2 1711   0.520   2.573   1.160  0.9289 -0.4660 -0.0065
  428SOL     MW 1712   0.591   2.621   1.161  0.2449 -0.1564 -0.5929
  429SOL     OW 1713   1.326   2.699   1.056  0.1154 -0.3155  0.3793
  429SOL    HW1 1714   1.243   2.649   1.067 -0.5065 -1.9649  0.9257
  429SOL    HW2 1715   1.307   2.783   1.012  0.9728 -2.1076  1.1445
  429SOL     MW 1716   1.313   2.704   1.051  0.1465 -0.7696  0.5524
  430SOL     OW 1717   1.177   2.730   0.699  0.3945 -0.5172 -0.2160
  430SOL    HW1 1718   1.224   2.649   0.721  1.4864 -1.2219 -0.6610
  430SOL    HW2 1719   1.135   2.723   0.612 -0.6445  0.0309  1.1854
  430SOL     MW 1720   1.177   2.718   0.691  0.4015 -0.5378 -0.0898
  431SOL     OW 1721   0.337   1.957   1.138 -0.6040 -0.3015  0.3297
  431SOL    HW1 1722   0.417   1.913   1.120 -3.4606 -4.4695  1.8794
  431SOL    HW2 1723   0.302   1.974   1.049 -1.3723 -2.9861 -1.2582
  431SOL     MW 1724   0.343   1.953   1.124 -1.0823 -1.2056  0.3246
  432SOL     OW 1725   0.084   0.019   1.152 -1.0449  0.1145  0.5075
  432SOL    HW1 1726   0.089   0.048   1.238 -0.2718  1.1910 -0.3288
  432SOL    HW2 1727   0.012  -0.039   1.142  0.0425 -1.6310 -0.1728
  432SOL     MW 1728   0.075   0.015   1.162 -0.7994  0.0262  0.3074
  433SOL     OW 1729   0.660   2.871   1.457  0.6384 -0.1434 -0.4966
  433SOL    HW1 1730   0.684   2.861   1.552 -2.6244 -0.2257 -0.8325
  433SOL    HW2 1731   0.741   2.859   1.409 -2.6850 -2.8366  0.5438
  433SOL     MW 1732   0.674   2.868   1.463 -0.2306 -0.5096 -0.4037
  434SOL     OW 1733   1.553   2.806   1.487 -0.2682 -0.1771 -0.2366
  434SOL    HW1 1734   1.488   2.875   1.507  1.6381 -0.7163 -2.5589
  434SOL    HW2 1735   1.537   2.786   1.394 -1.4798  0.2653 -1.6880
  434SOL     MW 1736   1.542   2.813   1.478 -0.1765 -0.1898 -0.7345
  435SOL     OW 1737   2.862   1.801   0.234  0.3023 -0.2227  0.0232
  435SOL    HW1 1738   2.914   1.873   0.200  1.1033 -0.1032  0.4608
  435SOL    HW2 1739   2.840   1.747   0.160 -1.3002  0.0412  2.4409
  435SOL     MW 1740   2.866   1.803   0.220  0.1966 -0.1721  0.4000
  436SOL     OW 1741   1.449   2.782   0.311 -0.1321 -0.0557  0.1854
  436SOL    HW1 1742   1.524   2.770   0.377 -0.9557 -3.3408 -0.2943
  436SOL    HW2 1743   1.390   2.839   0.357 -0.2571  0.0744 -1.3415
  436SOL     MW 1744   1.451   2.788   0.326 -0.2573 -0.4720 -0.0794
  437SOL     OW 1745   0.870   2.952   1.275  0.2105 -0.2560  0.1296
  437SOL    HW1 1746   0.879   3.040   1.318  1.2418  1.6174  1.0006
  437SOL    HW2 1747   0.826   2.962   1.189  1.7470  0.3663 -0.2432
  437SOL     MW 1748   0.866   2.965   1.269  0.5493  0.0733  0.1953
  438SOL     OW 1749   0.856   2.540   2.003  0.3649  0.4121 -0.3148
  438SOL    HW1 1750   0.845   2.502   2.096  2.2576  1.2991 -3.1394
  438SOL    HW2 1751   0.776   2.511   1.958  1.8257  1.3076 -1.1350
  438SOL     MW 1752   0.844   2.531   2.010  0.8074  0.6473 -0.7957
  439SOL     OW 1753   1.150   2.159   0.306  0.1089 -0.2808  0.3645
  439SOL    HW1 1754   1.098   2.190   0.383  2.3395 -0.4217 -0.3716
  439SOL    HW2 1755   1.156   2.241   0.249  0.1599 -0.5974  0.5808
  439SOL     MW 1756   1.144   2.174   0.308  0.4099 -0.3411  0.2959
  440SOL     OW 1757   1.649   3.031   2.988  0.7589 -0.0737  0.2783
  440SOL    HW1 1758   1.621   3.021   3.079  1.4136 -3.1104  0.9386
  440SOL    HW2 1759   1.704   2.953   2.977 -1.2333 -0.1628  0.4546
  440SOL     MW 1760   1.653   3.019   2.999  0.5825 -0.4861  0.3887
  441SOL     OW 1761   0.327   2.569   0.540 -0.2204  0.2214 -0.0436
  441SOL    HW1 1762   0.303   2.541   0.446 -0.1108  1.2061  1.1746
  441SOL    HW2 1763   0.356   2.663   0.545  2.1165 -0.5355  1.3418
  441SOL     MW 1764   0.327   2.578   0.528  0.1024  0.2515  0.2999
  442SOL     OW 1765   0.030   2.337   0.624  0.3394  0.4446  0.0117
  442SOL    HW1 1766   0.024   2.421   0.583 -0.1901 -2.3640  0.5744
  442SOL    HW2 1767  -0.056   2.297   0.643  3.1240 -1.4333 -2.1845
  442SOL     MW 1768   0.018   2.343   0.621  0.6369 -0.1738 -0.2038
  443SOL     OW 1769   1.395   1.720   1.847 -0.8085 -0.5016 -0.0296
  443SOL    HW1 1770   1.379   1.756   1.765 -0.3401  1.9875  1.0150
  443SOL    HW2 1771   1.345   1.634   1.848 -2.8581 -2.1586  1.0926
  443SOL     MW 1772   1.386   1.714   1.836 -1.0171 -0.3918  0.2563
  444SOL     OW 1773   0.853   2.575   1.576 -0.2410 -0.0655 -0.6009
  444SOL    HW1 1774   0.924   2.542   1.644  0.1883  2.3074  0.6010
  444SOL    HW2 1775   0.767   2.586   1.615 -1.3170  0.5034  1.1650
  444SOL     MW 1776   0.851   2.572   1.591 -0.3263  0.3227 -0.2094
  445SOL     OW 1777   0.952   0.106   1.317  0.0719 -0.0892 -0.3201
  445SOL    HW1 1778   0.898   0.178   1.282  0.4559 -4.4780 -0.9030
  445SOL    HW2 1779   1.017   0.093   1.253  0.3606 -1.9216  0.8210
  445SOL     MW 1780   0.953   0.114   1.304  0.1607 -0.9100 -0.2465
  446SOL     OW 1781   2.747   2.922   1.018  0.5446  0.6064 -0.4423
  446SOL    HW1 1782   2.671   2.930   0.958 -1.4902 -1.4732  0.6338
  446SOL    HW2 1783   2.774   2.825   1.019 -0.1763  0.6106 -0.4199
  446SOL     MW 1784   2.740   2.910   1.011  0.1810  0.3325 -0.2974
  447SOL     OW 1785   3.027   2.056   1.700  0.1052  0.1025  0.4333
  447SOL    HW1 1786   3.097   2.000   1.735 -0.9461 -0.4485  0.6485
  447SOL    HW2 1787   2.997   2.000   1.626  0.4575 -1.8900 -2.1064
  447SOL     MW 1788   3.032   2.041   1.695  0.0129 -0.2331  0.1266
  448SOL     OW 1789   1.662   2.361   1.657 -0.0017 -0.1209  0.0992
  448SOL    HW1 1790   1.597   2.289   1.645  2.2804 -0.5813 -0.6641
  448SOL    HW2 1791   1.612   2.441   1.647  2.3831 -2.8126 -1.4918
  448SOL     MW 1792   1.647   2.362   1.654  0.6141 -0.5368 -0.2115
  449SOL     OW 1793   0.834   2.872   0.413  0.5911  0.2506  0.1821
  449SOL    HW1 1794   0.807   2.926   0.340  0.8067 -1.2509  0.0149
  449SOL    HW2 1795   0.750   2.858   0.459 -1.4331  0.2411  0.3726
  449SOL     MW 1796   0.819   2.877   0.409  0.3525  0.0512  0.1852
  450SOL     OW 1797   1.222   2.425   0.636  0.0753  0.0003  0.0430
  450SOL    HW1 1798   1.232   2.408   0.735 -0.3843 -2.3620  0.6077
  450SOL    HW2 1799   1.310   2.430   0.599 -0.1363 -1.5446 -0.0335
  450SOL     MW 1800   1.235   2.423   0.644 -0.0132 -0.5152  0.1075
  451SOL     OW 1801   0.618   1.956   1.673  0.0850  0.0131  0.2719
  451SOL    HW1 1802   0.667   2.036   1.695 -1.1381 -2.1189 -0.1496
  451SOL    HW2 1803   0.613   1.946   1.577  0.4907  0.7875 -0.9189
  451SOL     MW 1804   0.624   1.965   1.664 -0.0228 -0.1660  0.0592
  452SOL     OW 1805   0.279   2.692   0.089  0.7932  0.0541  0.3617
  452SOL    HW1 1806   0.351   2.758   0.107  0.7715  3.0345  2.2522
  452SOL    HW2 1807   0.283   2.679  -0.007  0.9311  2.3021  1.5617
  452SOL     MW 1808   0.289   2.699   0.078  0.8085  0.7440  0.7695
  453SOL     OW 1809   0.402   2.983   1.630 -0.5045 -0.3844  0.0029
  453SOL    HW1 1810   0.459   3.036   1.567  1.5999 -0.3278 -0.1707
  453SOL    HW2 1811   0.316   3.017   1.599 -0.9817  1.3383  1.4940
  453SOL     MW 1812   0.398   2.995   1.617 -0.2898 -0.1497  0.1767
  454SOL     OW 1813   1.049   2.774   1.165 -0.0824  0.3292 -0.4834
  454SOL    HW1 1814   1.026   2.694   1.121  0.9672  2.4673  1.0517
  454SOL    HW2 1815   0.966   2.822   1.186 -0.0677  2.3422  0.4583
  454SOL     MW 1816   1.035   2.769   1.162  0.0580  0.8769 -0.1566
  455SOL     OW 1817   1.595   2.944   0.158 -0.2344 -0.3421  0.4617
  455SOL    HW1 1818   1.677   2.931   0.198  2.9579 -1.1659 -2.2175
  455SOL    HW2 1819   1.535   2.893   0.218 -1.1856 -0.8577  0.6801
  455SOL     MW 1820   1.598   2.935   0.171  0.0613 -0.5188  0.1370
  456SOL     OW 1821   2.923   0.295   1.392  0.6917 -0.6756  0.2111
  456SOL    HW1 1822   2.860   0.237   1.349 -2.1215 -1.6534 -1.6538
  456SOL    HW2 1823   2.959   0.352   1.324 -1.5414  0.8402  2.9917
  456SOL     MW 1824   2.920   0.295   1.377  0.0259 -0.6046  0.3319
  457SOL     OW 1825   0.897   1.550   3.003 -0.5626 -0.1180  0.5003
  457SOL    HW1 1826   0.828   1.530   3.065  0.6673 -2.3954 -1.5711
  457SOL    HW2 1827   0.967   1.493   3.036 -2.5692  0.8829  0.3715
  457SOL     MW 1828   0.897   1.540   3.015 -0.6651 -0.2864  0.2100
  458SOL     OW 1829   1.449   1.404   0.616 -0.0551  0.6638  0.6498
  458SOL    HW1 1830   1.384   1.438   0.673 -2.6671 -1.5323  0.6274
  458SOL    HW2 1831   1.403   1.342   0.560 -2.5248 -1.6158  1.7346
  458SOL     MW 1832   1.434   1.400   0.616 -0.7255  0.0733  0.7899
  459SOL     OW 1833   1.582   0.106   0.226 -0.0442  0.3618  0.0760
  459SOL    HW1 1834   1.572   0.013   0.196 -1.7019  0.1994 -1.1048
  459SOL    HW2 1835   1.512   0.161   0.196 -0.1346  2.6753  1.0490
  459SOL     MW 1836   1.571   0.101   0.218 -0.2748  0.6456  0.0486
  460SOL     OW 1837   1.731   2.156   0.598 -0.6808  0.2863 -0.1733
  460SOL    HW1 1838   1.646   2.145   0.628  1.6441 -1.0071 -4.0702
  460SOL    HW2 1839   1.782   2.067   0.577 -2.4160 -0.9425  1.0104
  460SOL     MW 1840   1.727   2.142   0.599 -0.6030 -0.0465 -0.5313
  461SOL     OW 1841   0.425   2.325   0.614  0.8871 -0.0619 -0.2177
  461SOL    HW1 1842   0.373   2.401   0.574 -2.0139 -1.2414  1.4563
  461SOL    HW2 1843   0.428   2.335   0.706  2.2207 -1.4585 -0.7193
  461SOL     MW 1844   0.419   2.336   0.620  0.6803 -0.4018 -0.0630
  462SOL     OW 1845   0.398   0.289   1.299 -0.6281  0.8611 -0.1267
  462SOL    HW1 1846   0.411   0.240   1.218  0.7887 -1.8670 -0.5076
  462SOL    HW2 1847   0.494   0.306   1.326  0.6346 -1.5026  0.2845
  462SOL     MW 1848   0.413   0.285   1.292 -0.2746  0.1893 -0.1227
  463SOL     OW 1849   0.999   0.044   0.709  0.4444  0.5263  0.1628
  463SOL    HW1 1850   1.027   0.038   0.616 -0.1752 -0.7040  2.3259
  463SOL    HW2 1851   0.911   0.081   0.714 -0.2241  1.4941  2.6472
  463SOL     MW 1852   0.991   0.048   0.697  0.2744  0.4917  0.7760
  464SOL     OW 1853   0.848   2.976   2.151 -0.1487 -0.2179  0.3029
  464SOL    HW1 1854   0.802   2.899   2.183  1.2012  0.9359  0.5720
  464SOL    HW2 1855   0.866   3.010   2.241 -0.2720 -1.8319 -2.7413
  464SOL     MW 1856   0.844   2.971   2.167  0.0132 -0.2786 -0.0632
  465SOL     OW 1857   0.706   0.223   0.465  0.7927 -0.4748  0.4770
  465SOL    HW1 1858   0.716   0.167   0.542 -0.1007 -1.4387 -1.4821
  465SOL    HW2 1859   0.723   0.177   0.380  0.2245 -0.1543  0.5536
  465SOL     MW 1860   0.709   0.210   0.464  0.5998 -0.5597  0.2286
  466SOL     OW 1861   1.089   1.978   0.704 -0.2248 -0.0603 -0.9705
  466SOL    HW1 1862   1.086   1.909   0.638 -1.6941 -1.2925  1.5035
  466SOL    HW2 1863   1.091   2.061   0.645  0.7382  0.2267 -1.8219
  466SOL     MW 1864   1.089   1.980   0.687 -0.2916 -0.1850 -0.7564
  467SOL     OW 1865   1.289   2.328   0.960  0.2031 -0.6439  0.2838
  467SOL    HW1 1866   1.375   2.318   0.994  1.8667 -2.5172  0.3569
  467SOL    HW2 1867   1.240   2.239   0.971 -0.7464  0.6536  2.1082
  467SOL     MW 1868   1.294   2.315   0.966  0.2974 -0.7199  0.5342
  468SOL     OW 1869   0.318   2.603   1.997 -0.3456  0.5712 -0.3525
  468SOL    HW1 1870   0.304   2.508   1.991  0.1939  0.7026 -1.2322
  468SOL    HW2 1871   0.365   2.636   1.916  1.8825 -0.0612  0.3898
  468SOL     MW 1872   0.322   2.595   1.985  0.0196  0.5051 -0.3706
  469SOL     OW 1873   0.403   2.078   1.835  0.1181  0.3441  0.5468
  469SOL    HW1 1874   0.319   2.049   1.803  0.2365  1.2276  3.0225
  469SOL    HW2 1875   0.465   2.015   1.784 -0.2262 -1.0363 -1.2971
  469SOL     MW 1876   0.400   2.066   1.824  0.0883  0.2785  0.6302
  470SOL     OW 1877   3.091   2.534   0.176 -0.6911 -0.5438 -0.4784
  470SOL    HW1 1878   3.007   2.515   0.219 -1.1243 -0.6198  0.8492
  470SOL    HW2 1879   3.052   2.544   0.086 -1.8202 -0.7770 -1.0267
  470SOL     MW 1880   3.075   2.533   0.169 -0.8972 -0.5846 -0.3755
  471SOL     OW 1881   1.193   2.714   1.393 -0.2981 -0.6831 -0.3386
  471SOL    HW1 1882   1.115   2.737   1.443 -0.9411 -1.3399 -0.5636
  471SOL    HW2 1883   1.161   2.730   1.306 -3.0186  2.0100  0.6014
  471SOL     MW 1884   1.179   2.719   1.388 -0.7419 -0.4144 -0.2442
  472SOL     OW 1885   2.931   2.126   0.381 -0.2573 -0.0100 -0.5168
  472SOL    HW1 1886   2.948   2.093   0.285 -1.4712 -2.9081  0.9812
  472SOL    HW2 1887   2.905   2.051   0.432  1.2490 -1.0091 -0.0197
  472SOL     MW 1888   2.930   2.112   0.375 -0.2187 -0.5242 -0.2535
  473SOL     OW 1889   0.793   2.520   1.312  0.1456  0.2753  0.2458
  473SOL    HW1 1890   0.865   2.454   1.303  0.9299  0.4702  0.1556
  473SOL    HW2 1891   0.783   2.529   1.406 -1.0736 -1.0777 -0.7133
  473SOL     MW 1892   0.801   2.513   1.323  0.0882  0.1225  0.1073
  474SOL     OW 1893   0.854   2.196   1.777  0.3421  0.3122  0.4066
  474SOL    HW1 1894   0.936   2.237   1.786 -2.0512 -0.5007  0.0444
  474SOL    HW2 1895   0.848   2.199   1.682  1.3639  2.8059 -2.5931
  474SOL     MW 1896   0.864   2.202   1.765  0.1611  0.5340 -0.0369
  475SOL     OW 1897   1.669   3.089   1.444 -0.7175 -0.2456  0.0476
  475SOL    HW1 1898   1.593   3.095   1.381 -0.3501  2.5625 -2.3509
  475SOL    HW2 1899   1.658   3.003   1.483 -0.7281 -0.5537  3.4808
  475SOL     MW 1900   1.658   3.079   1.441 -0.6704  0.0843  0.1841
  476SOL     OW 1901   1.466   2.611   0.796 -0.2433 -0.1959  0.1146
  476SOL    HW1 1902   1.426   2.597   0.885 -2.8808 -1.8056  0.4526
  476SOL    HW2 1903   1.534   2.675   0.810  1.8304 -1.8900 -1.6365
  476SOL     MW 1904   1.470   2.618   0.810 -0.3177 -0.6318 -0.0718
  477SOL     OW 1905   0.859   2.534   0.587 -0.1631  0.3065  0.5101
  477SOL    HW1 1906   0.919   2.586   0.521  0.2918 -2.5611  0.8522
  477SOL    HW2 1907   0.822   2.449   0.545 -1.5512 -1.5097 -1.2133
  477SOL     MW 1908   0.862   2.530   0.573 -0.2862 -0.3115  0.3278
  478SOL     OW 1909   0.231   2.598   0.993  0.1859 -0.6355 -0.1398
  478SOL    HW1 1910   0.267   2.689   0.974 -2.9010  0.7388 -2.3859
  478SOL    HW2 1911   0.307   2.551   0.952  1.3372  1.9093 -1.0082
  478SOL     MW 1912   0.246   2.603   0.985 -0.0695 -0.1184 -0.5507
  479SOL     OW 1913   1.422   1.928   1.332 -0.6606  0.7161  0.3132
  479SOL    HW1 1914   1.381   1.978   1.402  1.4326 -3.2262  0.1267
  479SOL    HW2 1915   1.503   1.888   1.367 -0.8111 -1.1695 -1.5109
  479SOL     MW 1916   1.427   1.929   1.346 -0.4043 -0.0528  0.0479
  480SOL     OW 1917   1.793   2.364   1.299 -0.1242 -0.0249 -0.3391
  480SOL    HW1 1918   1.783   2.276   1.337 -0.8527 -2.6303  0.9672
  480SOL    HW2 1919   1.836   2.352   1.211 -0.1595  2.2659 -1.2263
  480SOL     MW 1920   1.797   2.351   1.293 -0.2250 -0.0664 -0.2838
  481SOL     OW 1921   1.175   0.156   1.100 -0.0469  0.1447  0.7651
  481SOL    HW1 1922   1.220   0.154   1.014 -1.3755  0.9280  1.1916
  481SOL    HW2 1923   1.170   0.251   1.117  2.4315  1.1397 -0.7263
  481SOL     MW 1924   1.180   0.168   1.091  0.1048  0.3793  0.6246
  482SOL     OW 1925   1.041   3.078   0.435 -0.7138  0.3975 -0.5119
  482SOL    HW1 1926   0.963   3.021   0.425 -0.4978  1.3433  0.9373
  482SOL    HW2 1927   1.027   3.148   0.371 -0.1605  2.3646  1.6868
  482SOL     MW 1928   1.029   3.080   0.425 -0.6123  0.7818 -0.0306
  483SOL     OW 1929   0.321   2.850   0.545 -0.5174 -0.4122  0.2324
  483SOL    HW1 1930   0.261   2.880   0.475 -2.1064  0.8093 -2.6535
  483SOL    HW2 1931   0.290   2.914   0.617 -1.7968  0.6129 -1.4023
  483SOL     MW 1932   0.309   2.863   0.545 -0.8959 -0.1158 -0.3641
  484SOL     OW 1933   1.656   1.858   1.461 -0.4932  0.2579 -0.5212
  484SOL    HW1 1934   1.713   1.929   1.429 -1.1099 -0.4496 -0.6034
  484SOL    HW2 1935   1.661   1.867   1.556 -0.4025  0.5652 -2.1109
  484SOL     MW 1936   1.664   1.868   1.469 -0.5626  0.2051 -0.7418
  485SOL     OW 1937   0.557   2.315   0.288  0.0860  0.1824 -0.0366
  485SOL    HW1 1938   0.565   2.265   0.368  0.5447  0.7792 -1.4319
  485SOL    HW2 1939   0.481   2.369   0.285  1.6246  3.6918 -2.1317
  485SOL     MW 1940   0.548   2.316   0.298  0.3495  0.7241 -0.4971
  486SOL     OW 1941   0.093   2.519   1.482  0.0803 -0.8168 -0.2009
  486SOL    HW1 1942   0.137   2.597   1.458 -1.6717 -1.6501 -0.9939
  486SOL    HW2 1943   0.105   2.525   1.577 -1.4357 -0.3754 -0.0560
  486SOL     MW 1944   0.101   2.530   1.491 -0.3509 -0.8685 -0.2864
  487SOL     OW 1945   1.302   1.604   1.044 -0.2239  0.6785 -0.5476
  487SOL    HW1 1946   1.275   1.700   1.047 -2.2430  1.6078 -3.7104
  487SOL    HW2 1947   1.392   1.607   1.020 -1.7024  2.0686 -0.1790
  487SOL     MW 1948   1.310   1.617   1.041 -0.6853  0.9845 -0.9162
  488SOL     OW 1949   1.470   1.806   0.605 -0.0677 -0.1155 -0.2122
  488SOL    HW1 1950   1.419   1.887   0.593  2.3790  0.5821  2.3664
  488SOL    HW2 1951   1.415   1.739   0.572  0.7443  0.4621  1.2352
  488SOL     MW 1952   1.456   1.808   0.599  0.3623  0.0527  0.3190
  489SOL     OW 1953   0.692   0.727   0.529  0.0370  0.4071  0.3261
  489SOL    HW1 1954   0.652   0.647   0.490  0.1498 -0.2667  0.8525
  489SOL    HW2 1955   0.674   0.722   0.624  2.1635  2.0680  1.2132
  489SOL     MW 1956   0.684   0.716   0.536  0.3324  0.5373  0.5126
  490SOL     OW 1957   1.363   2.059   0.467  0.2696 -0.1570  0.0606
  490SOL    HW1 1958   1.435   2.112   0.427  1.2001  1.4687  1.0119
  490SOL    HW2 1959   1.281   2.108   0.453 -0.2110 -0.2629 -0.6335
  490SOL     MW 1960   1.362   2.072   0.460  0.3290  0.0435  0.0945
  491SOL     OW 1961   1.300   3.008   0.387 -0.1900  0.0956 -0.1033
  491SOL    HW1 1962   1.344   3.055   0.460 -0.2801 -1.1583  1.0886
  491SOL    HW2 1963   1.209   3.029   0.391 -2.5418 -1.5074  0.0925
  491SOL     MW 1964   1.294   3.017   0.397 -0.5122 -0.2814  0.0798
  492SOL     OW 1965   1.462   2.159   0.713 -0.0629  0.2259 -0.2566
  492SOL    HW1 1966   1.408   2.108   0.655 -0.0210  0.0826 -1.5614
  492SOL    HW2 1967   1.429   2.150   0.805 -0.3957 -1.3264  1.3511
  492SOL     MW 1968   1.451   2.151   0.718 -0.1013  0.0022 -0.2166
  493SOL     OW 1969   0.215   3.041   0.333  0.7901 -0.5803  0.2411
  493SOL    HW1 1970   0.133   3.075   0.375 -1.5704 -1.0700  0.3320
  493SOL    HW2 1971   0.200   3.036   0.239  2.0327  1.2433  0.4732
  493SOL     MW 1972   0.202   3.044   0.326  0.6426 -0.4043  0.2838
  494SOL     OW 1973   0.394   2.374   1.794  0.1415 -0.2018  0.2249
  494SOL    HW1 1974   0.394   2.276   1.809  1.7803  1.2185  0.2789
  494SOL    HW2 1975   0.431   2.385   1.702  1.6905  1.1266 -0.7887
  494SOL     MW 1976   0.399   2.363   1.784  0.5621  0.1609  0.0983
  495SOL     OW 1977   2.870   1.627   2.686  0.4185  0.3185  0.0040
  495SOL    HW1 1978   2.841   1.695   2.745 -0.4066 -0.4220  0.2092
  495SOL    HW2 1979   2.858   1.549   2.734  1.1673  2.4948  0.9625
  495SOL     MW 1980   2.864   1.626   2.700  0.4084  0.5079  0.1575
  496SOL     OW 1981   2.798   2.280   2.713 -0.3455 -0.1272  0.4202
  496SOL    HW1 1982   2.802   2.199   2.765 -0.3333  1.2061 -1.5460
  496SOL    HW2 1983   2.882   2.328   2.738 -2.0934 -0.4249 -0.8086
  496SOL     MW 1984   2.810   2.276   2.723 -0.5745  0.0094 -0.0013
  497SOL     OW 1985   1.521   2.375   2.577 -0.1365 -0.5487 -0.4719
  497SOL    HW1 1986   1.531   2.307   2.503  0.2538 -2.3743  1.3105
  497SOL    HW2 1987   1.471   2.326   2.644  0.3260 -2.8305 -0.6129
  497SOL     MW 1988   1.516   2.360   2.576 -0.0240 -1.0906 -0.2553
  498SOL     OW 1989   1.440   2.754   2.325  0.3565 -0.1212  0.1218
  498SOL    HW1 1990   1.452   2.657   2.320 -1.1596 -0.7257 -0.1430
  498SOL    HW2 1991   1.520   2.779   2.379  1.3394  1.5071  1.0378
  498SOL     MW 1992   1.452   2.745   2.331  0.2861  0.0139  0.2077
  499SOL     OW 1993   0.988   0.076   0.079 -0.7011 -0.4670  0.3566
  499SOL    HW1 1994   0.913   0.126   0.126 -0.5761  1.5122 -1.3057
  499SOL    HW2 1995   0.960  -0.018   0.061  1.5355  0.4422 -2.2990
  499SOL     MW 1996   0.974   0.070   0.082 -0.3895 -0.0859 -0.2131
  500SOL     OW 1997   1.060   2.510   2.726 -0.4778 -0.0334 -0.2863
  500SOL    HW1 1998   1.106   2.480   2.800  1.1427  1.6448 -1.5476
  500SOL    HW2 1999   1.012   2.583   2.764 -1.6522 -0.2389  1.9189
  500SOL     MW 2000   1.060   2.516   2.741 -0.4189  0.1609 -0.1618
  501SOL     OW 2001   1.812   2.266   3.022 -0.3063 -0.3410  0.4523
  501SOL    HW1 2002   1.805   2.362   3.021 -0.4547 -0.1781  3.3446
  501SOL    HW2 2003   1.901   2.242   3.056 -0.8237  0.7781  0.3291
  501SOL     MW 2004   1.823   2.275   3.026 -0.3942 -0.1718  0.8176
  502SOL     OW 2005   0.280   2.736   2.904 -0.3725 -0.1781  0.6843
  502SOL    HW1 2006   0.262   2.716   2.816 -1.8909  0.2851  1.6984
  502SOL    HW2 2007   0.246   2.822   2.921  1.7270  2.6887  0.4855
  502SOL     MW 2008   0.273   2.745   2.894 -0.2958  0.2613  0.7919
  503SOL     OW 2009   1.122   2.549   2.072 -0.2675  0.4265  0.6162
  503SOL    HW1 2010   1.191   2.581   2.012 -4.0380  0.3905 -2.9989
  503SOL    HW2 2011   1.045   2.535   2.015  1.8551  3.2753 -2.6074
  503SOL     MW 2012   1.121   2.551   2.057 -0.4849  0.7976 -0.2861
  504SOL     OW 2013   0.097   2.639   2.161  0.1745 -0.5552 -0.2947
  504SOL    HW1 2014   0.175   2.631   2.105  0.9319 -0.3899 -2.3345
  504SOL    HW2 2015   0.084   2.552   2.205 -0.5068 -1.3231 -1.3464
  504SOL     MW 2016   0.106   2.626   2.159  0.1845 -0.6347 -0.7026
  505SOL     OW 2017   1.582   2.804   2.738  0.4203 -0.7854  0.1379
  505SOL    HW1 2018   1.575   2.779   2.642  0.6619  1.4635  1.4595
  505SOL    HW2 2019   1.532   2.888   2.747 -0.6385  1.5145 -1.4060
  505SOL     MW 2020   1.574   2.812   2.726  0.3125 -0.1852  0.1086
  506SOL     OW 2021   1.611   0.092   2.749 -0.2010 -0.1179  0.3694
  506SOL    HW1 2022   1.602   0.027   2.816  0.8983  2.3329 -3.3490
  506SOL    HW2 2023   1.672   0.054   2.690  1.0987  2.7298  1.0041
  506SOL     MW 2024   1.617   0.078   2.750  0.1155  0.5812 -0.0375
  507SOL     OW 2025   0.872   2.711   2.834  0.0054  0.3109 -0.3705
  507SOL    HW1 2026   0.882   2.763   2.755  0.9673  0.4103 -0.1540
  507SOL    HW2 2027   0.785   2.665   2.831 -1.2541 -1.3054  0.0022
  507SOL     MW 2028   0.861   2.712   2.823 -0.0339  0.1108 -0.2927
  508SOL     OW 2029   1.178   2.122   2.529 -0.3991 -0.0703  0.2181
  508SOL    HW1 2030   1.257   2.146   2.584 -2.1055  1.3491  1.1536
  508SOL    HW2 2031   1.112   2.085   2.592 -2.7037  0.0818 -0.5330
  508SOL     MW 2032   1.179   2.120   2.544 -0.9284  0.1371  0.2424
  509SOL     OW 2033   0.626   2.549   2.824  0.4157  0.5153 -0.4370
  509SOL    HW1 2034   0.617   2.495   2.742  0.9976  3.4145 -2.4247
  509SOL    HW2 2035   0.579   2.624   2.803  3.3570  0.9760  0.2518
  509SOL     MW 2036   0.619   2.552   2.810  0.8805  0.9586 -0.6084
  510SOL     OW 2037   1.493   2.579   1.625  0.0653 -0.1119 -0.4798
  510SOL    HW1 2038   1.518   2.662   1.577  0.7959  1.5527  2.2231
  510SOL    HW2 2039   1.458   2.600   1.716  0.0660 -1.2758  0.7437
  510SOL     MW 2040   1.492   2.593   1.631  0.1618 -0.0458  0.0383
  511SOL     OW 2041   0.345   2.514   2.480  0.0348  0.0909  0.4656
  511SOL    HW1 2042   0.417   2.454   2.508 -0.3968  0.3838  2.9774
  511SOL    HW2 2043   0.367   2.531   2.388 -0.1764 -1.8936  1.9254
  511SOL     MW 2044   0.358   2.509   2.471 -0.0500 -0.1323  0.9896
  512SOL     OW 2045   1.025   1.955   2.805  0.5471  0.2607  0.2924
  512SOL    HW1 2046   0.954   1.975   2.868 -0.3385  0.0241  0.6824
  512SOL    HW2 2047   1.075   1.885   2.863  1.5204  2.0212  0.0173
  512SOL     MW 2048   1.022   1.948   2.821  0.5587  0.4618  0.3075
  513SOL     OW 2049   1.503   2.485   2.284 -0.2613 -0.0537 -0.4543
  513SOL    HW1 2050   1.585   2.518   2.241  0.7256 -2.6289  0.1327
  513SOL    HW2 2051   1.509   2.388   2.294  1.2913  1.4240 -2.5024
  513SOL     MW 2052   1.515   2.477   2.280  0.0737 -0.1985 -0.6470
  514SOL     OW 2053   0.193   2.336   2.677 -0.1684 -0.0318  0.2423
  514SOL    HW1 2054   0.230   2.370   2.596 -0.4018  0.2730 -0.1234
  514SOL    HW2 2055   0.273   2.300   2.719  1.7338 -1.4882 -0.4367
  514SOL     MW 2056   0.208   2.336   2.672  0.0518 -0.1838  0.1044
  515SOL     OW 2057   1.076   1.974   1.845 -0.2394 -0.1846 -0.4509
  515SOL    HW1 2058   1.050   2.074   1.845  1.1417  0.7828 -0.3344
  515SOL    HW2 2059   1.150   1.966   1.911  1.7403  0.0619 -0.0803
  515SOL     MW 2060   1.083   1.986   1.853  0.2040 -0.0245 -0.3866
  516SOL     OW 2061   1.297   2.580   2.909  0.0005  0.0143  0.2941
  516SOL    HW1 2062   1.302   2.588   2.810  1.5412 -0.7325  0.3026
  516SOL    HW2 2063   1.228   2.511   2.937 -0.3953 -0.4587  0.2220
  516SOL     MW 2064   1.289   2.572   2.900  0.1516 -0.1466  0.2857
  517SOL     OW 2065   0.520   2.310   2.240 -0.2950  0.6288  0.0766
  517SOL    HW1 2066   0.496   2.401   2.262  0.8413  2.9681  0.2228
  517SOL    HW2 2067   0.460   2.292   2.171  1.1313  0.2720 -1.7903
  517SOL     MW 2068   0.509   2.320   2.234  0.0431  0.8904 -0.1504
  518SOL     OW 2069   1.782   0.166   3.047 -0.1495 -0.7057 -0.1217
  518SOL    HW1 2070   1.811   0.175   3.143  1.7618  0.6088 -0.4591
  518SOL    HW2 2071   1.726   0.090   3.040  1.2472 -0.5595  0.3692
  518SOL     MW 2072   1.779   0.157   3.059  0.2870 -0.5129 -0.1015
  519SOL     OW 2073   0.622   2.384   1.961  0.0999  0.3998 -0.8750
  519SOL    HW1 2074   0.649   2.301   1.998  0.4746  2.6307 -0.2925
  519SOL    HW2 2075   0.553   2.366   1.894 -2.0333 -0.9442 -0.3929
  519SOL     MW 2076   0.616   2.371   1.957 -0.1321  0.5168 -0.7346
  520SOL     OW 2077   1.212   2.120   2.921  0.2720 -0.1327  0.3323
  520SOL    HW1 2078   1.134   2.076   2.892 -0.6840  0.4372  1.1002
  520SOL    HW2 2079   1.237   2.075   3.007  2.6205 -0.9371 -0.0844
  520SOL     MW 2080   1.205   2.109   2.929  0.4557 -0.1636  0.3786
  521SOL     OW 2081   1.761   2.027   2.241  0.5590  0.3325  0.1929
  521SOL    HW1 2082   1.782   2.047   2.146 -0.1871 -2.1029 -0.2324
  521SOL    HW2 2083   1.753   1.935   2.250  0.4847  0.6422  1.7720
  521SOL     MW 2084   1.763   2.018   2.230  0.4508  0.0520  0.3451
  522SOL     OW 2085   2.818   2.570   2.231  0.7056  0.1497  0.6848
  522SOL    HW1 2086   2.879   2.500   2.252 -1.2864  1.1780 -0.8671
  522SOL    HW2 2087   2.835   2.645   2.283 -2.9814 -3.7997 -0.3383
  522SOL     MW 2088   2.828   2.571   2.241 -0.0437 -0.2357  0.3450
  523SOL     OW 2089   0.807   1.484   2.153  0.4260  0.1959 -0.0749
  523SOL    HW1 2090   0.753   1.495   2.072 -0.5191  0.8329  0.6072
  523SOL    HW2 2091   0.888   1.435   2.126 -1.8729 -0.8381 -1.5628
  523SOL     MW 2092   0.811   1.479   2.139 -0.0020  0.1435 -0.1813
  524SOL     OW 2093   0.572   2.376   3.029  0.9297  0.1790 -0.0739
  524SOL    HW1 2094   0.587   2.442   2.959  0.1070  3.2679 -3.5271
  524SOL    HW2 2095   0.654   2.328   3.023 -1.1944  1.5954 -1.0507
  524SOL     MW 2096   0.584   2.378   3.019  0.5409  0.7734 -0.6584
  525SOL     OW 2097   0.335   2.152   2.086  0.4905  0.0203  0.0335
  525SOL    HW1 2098   0.304   2.085   2.148  1.1344  2.1529 -1.6575
  525SOL    HW2 2099   0.371   2.102   2.012  0.1058  0.7978  0.4110
  525SOL     MW 2100   0.336   2.137   2.084  0.5247  0.4043 -0.1398
  526SOL     OW 2101   0.740   2.086   1.991  0.0006  0.3144 -0.0119
  526SOL    HW1 2102   0.791   2.115   1.924 -4.9834 -1.6416  2.9342
  526SOL    HW2 2103   0.787   2.094   2.074 -0.3710 -1.9686  0.6315
  526SOL     MW 2104   0.753   2.091   1.993 -0.7060 -0.2449  0.4617
  527SOL     OW 2105   1.294   1.913   2.012  0.4155  0.2290 -0.2189
  527SOL    HW1 2106   1.280   1.883   2.104  0.7615 -2.3428 -0.4041
  527SOL    HW2 2107   1.323   1.833   1.967  1.6358  0.6520 -1.1991
  527SOL     MW 2108   1.296   1.898   2.018  0.6221 -0.0545 -0.3727
  528SOL     OW 2109   0.603   2.905   3.018  0.2928 -0.2717  0.3095
  528SOL    HW1 2110   0.635   3.002   3.020 -0.3047 -0.0285  0.0020
  528SOL    HW2 2111   0.558   2.902   2.935  1.8908  0.8400  0.9108
  528SOL     MW 2112   0.602   2.918   3.007  0.4248 -0.0929  0.3483
  529SOL     OW 2113   1.100   2.276   1.790  0.2737  0.0760 -0.5729
  529SOL    HW1 2114   1.137   2.264   1.882 -1.9973  2.1273  2.0534
  529SOL    HW2 2115   1.156   2.219   1.738 -0.1595 -0.6543  2.6658
  529SOL     MW 2116   1.112   2.267   1.796 -0.0831  0.2503  0.2009
  530SOL     OW 2117   1.113   2.400   2.987  0.4190 -0.5506  0.4564
  530SOL    HW1 2118   1.038   2.425   3.050  0.8242  1.5164  1.8915
  530SOL    HW2 2119   1.134   2.308   2.987 -2.8161  0.2179 -1.4771
  530SOL     MW 2120   1.106   2.391   2.995  0.0456 -0.1765  0.3906
  531SOL     OW 2121   0.900   1.816   2.617 -0.3715 -0.2827 -0.1918
  531SOL    HW1 2122   0.942   1.872   2.681  0.9631 -1.7909 -2.5365
  531SOL    HW2 2123   0.841   1.764   2.668 -0.5721  2.1598 -0.3299
  531SOL     MW 2124   0.898   1.817   2.632 -0.2218 -0.1594 -0.5194
  532SOL     OW 2125   1.700   0.330   2.854 -0.1076 -0.9203  0.5943
  532SOL    HW1 2126   1.687   0.249   2.805 -0.1455  2.5625 -0.1100
  532SOL    HW2 2127   1.734   0.286   2.932  0.3008 -1.2675  0.1142
  532SOL     MW 2128   1.703   0.314   2.858 -0.0587 -0.5066  0.4380
  533SOL     OW 2129   1.779   2.785   2.959  0.1299 -0.6382  0.0993
  533SOL    HW1 2130   1.757   2.716   3.020 -1.2501 -0.8746  2.0431
  533SOL    HW2 2131   1.715   2.777   2.885 -0.4173  2.4068 -3.3704
  533SOL     MW 2132   1.768   2.775   2.957 -0.1243 -0.2676 -0.1020
  534SOL     OW 2133   1.746   2.485   2.498 -0.6584 -0.3956  0.0671
  534SOL    HW1 2134   1.660   2.437   2.517  2.5190  0.0480  0.2984
  534SOL    HW2 2135   1.793   2.497   2.584  2.4591 -0.3949  1.3008
  534SOL     MW 2136   1.741   2.480   2.512  0.1722 -0.3370  0.2604
  535SOL     OW 2137   1.795   2.384   1.925 -0.1313 -0.2776 -0.2092
  535SOL    HW1 2138   1.729   2.357   1.866 -1.0587 -2.9374  0.8362
  535SOL    HW2 2139   1.855   2.439   1.872  0.1046 -1.2399 -1.2625
  535SOL     MW 2140   1.794   2.388   1.911 -0.2226 -0.7555 -0.2102
  536SOL     OW 2141   0.413   1.873   2.030  0.5247 -0.4484 -0.1209
  536SOL    HW1 2142   0.415   1.930   1.954  0.8789 -0.4449 -0.4763
  536SOL    HW2 2143   0.510   1.860   2.059  2.7017  2.4048 -1.1699
  536SOL     MW 2144   0.426   1.879   2.023  0.8587 -0.0715 -0.3062
  537SOL     OW 2145   0.975   0.183   2.929 -0.1997  0.6924  0.0492
  537SOL    HW1 2146   0.954   0.132   3.008 -0.2947 -0.1405 -0.8891
  537SOL    HW2 2147   0.888   0.221   2.906 -2.7830 -1.2943  0.4440
  537SOL     MW 2148   0.961   0.181   2.936 -0.5531  0.3204 -0.0225
  538SOL     OW 2149   1.296   0.064   3.035  0.2007  0.2206  0.4880
  538SOL    HW1 2150   1.220   0.112   3.013  2.3097  0.9787 -0.7698
  538SOL    HW2 2151   1.350   0.125   3.093  1.6034  2.0821  4.1496
  538SOL     MW 2152   1.293   0.078   3.040  0.6640  0.5663  0.8052
  539SOL     OW 2153   0.741   2.712   2.505 -0.0500 -0.5405 -0.4254
  539SOL    HW1 2154   0.809   2.779   2.505  1.1636 -0.9688 -1.0917
  539SOL    HW2 2155   0.777   2.626   2.519  1.1196  1.4568  1.2105
  539SOL     MW 2156   0.754   2.709   2.507  0.2645 -0.3334 -0.2975
  540SOL     OW 2157   0.405   2.220   2.887 -0.5863  0.0019 -0.5884
  540SOL    HW1 2158   0.462   2.277   2.948  1.9888  1.2257  0.6141
  540SOL    HW2 2159   0.360   2.158   2.945  0.6919 -1.0243  0.4686
  540SOL     MW 2160   0.407   2.219   2.903 -0.0779  0.0280 -0.2903
  541SOL     OW 2161   0.197   2.888   2.252 -0.0431  0.0242  0.0628
  541SOL    HW1 2162   0.155   2.806   2.225  1.2395 -0.1703  0.5014
  541SOL    HW2 2163   0.220   2.863   2.342  0.0126 -0.6391 -2.3944
  541SOL     MW 2164   0.194   2.874   2.260  0.1334 -0.0890 -0.2035
  542SOL     OW 2165   0.877   2.309   2.778  0.1767 -0.3603  0.1052
  542SOL    HW1 2166   0.863   2.312   2.878  0.6980  0.2235  0.6470
  542SOL    HW2 2167   0.961   2.350   2.774  1.8856 -0.1593  0.3991
  542SOL     MW 2168   0.886   2.315   2.790  0.4709 -0.2567  0.2155
  543SOL     OW 2169   1.357   2.651   2.658  0.2365  0.2868  0.4103
  543SOL    HW1 2170   1.403   2.574   2.622  1.7936 -1.6029  1.7785
  543SOL    HW2 2171   1.425   2.688   2.718  0.9102  1.1096  0.9379
  543SOL     MW 2172   1.372   2.645   2.661  0.5308  0.1460  0.6604
  544SOL     OW 2173   0.697   0.088   2.602 -0.2853 -0.3437 -0.8680
  544SOL    HW1 2174   0.620   0.049   2.570  0.8135  0.8922  2.3456
  544SOL    HW2 2175   0.755   0.062   2.536 -0.4131 -1.0797  0.6501
  544SOL     MW 2176   0.695   0.079   2.589 -0.1572 -0.2777 -0.2437
  545SOL     OW 2177   1.572   2.230   2.331  0.1054 -0.3766 -0.0466
  545SOL    HW1 2178   1.531   2.144   2.353  0.2022  1.6811 -3.2636
  545SOL    HW2 2179   1.661   2.214   2.322 -2.6681  0.7746  0.6312
  545SOL     MW 2180   1.578   2.217   2.333 -0.2477  0.0468 -0.3816
  546SOL     OW 2181   2.978   2.014   0.113 -0.6370  0.4878 -0.0660
  546SOL    HW1 2182   2.953   2.068   0.034  1.1923 -1.2689 -2.7871
  546SOL    HW2 2183   3.067   1.980   0.087  1.8138 -2.4424 -0.4076
  546SOL     MW 2184   2.987   2.017   0.099 -0.0723 -0.1306 -0.4701
  547SOL     OW 2185   0.121   2.935   0.061 -0.5197  0.0550 -0.4348
  547SOL    HW1 2186   0.155   2.985  -0.015 -1.0558  1.8811 -0.8369
  547SOL    HW2 2187   0.161   2.847   0.055 -0.1797 -0.8235  2.2830
  547SOL     MW 2188   0.131   2.930   0.051 -0.5455  0.1800 -0.1293
  548SOL     OW 2189   0.263   2.495   0.287  0.5774 -0.2502 -0.2883
  548SOL    HW1 2190   0.278   2.565   0.224 -1.9861 -0.5763 -1.0759
  548SOL    HW2 2191   0.168   2.474   0.284  3.3270 -1.7106  0.0870
  548SOL     MW 2192   0.253   2.501   0.278  0.6020 -0.4859 -0.3427
  549SOL     OW 2193   0.702   1.832   2.055 -0.2070 -0.3741  0.7237
  549SOL    HW1 2194   0.726   1.912   2.005  3.1715 -0.3637 -5.0754
  549SOL    HW2 2195   0.738   1.854   2.139  1.3880  1.8631  0.7476
  549SOL     MW 2196   0.710   1.845   2.060  0.4492 -0.0775 -0.0383
  550SOL     OW 2197   1.865   1.739   2.518  0.2675  0.4300  0.5340
  550SOL    HW1 2198   1.819   1.743   2.436 -1.3527  0.7611 -2.2656
  550SOL    HW2 2199   1.826   1.820   2.559 -0.7397 -0.5035  1.3753
  550SOL     MW 2200   1.854   1.750   2.512 -0.0792  0.3505  0.2756
  551SOL     OW 2201   0.853   2.292   0.242 -0.0745  0.1143  0.0893
  551SOL    HW1 2202   0.930   2.332   0.198  0.5402 -1.4563 -1.3140
  551SOL    HW2 2203   0.790   2.264   0.177 -1.1214  1.8734  0.6294
  551SOL     MW 2204   0.855   2.294   0.228 -0.1315  0.1392 -0.0246
  552SOL     OW 2205   1.729   1.749   2.276  0.4089  0.1288  0.3665
  552SOL    HW1 2206   1.645   1.713   2.288  0.7094  1.5460 -1.3953
  552SOL    HW2 2207   1.756   1.694   2.198  0.4856 -1.0064 -1.5993
  552SOL     MW 2208   1.721   1.737   2.267  0.4587  0.1660 -0.1253
  553SOL     OW 2209   1.213   2.312   1.520 -0.3678  0.1626  0.1066
  553SOL    HW1 2210   1.268   2.238   1.548  0.3853 -0.2095 -0.8727
  553SOL    HW2 2211   1.271   2.381   1.484  1.0801 -0.4896  1.2226
  553SOL     MW 2212   1.228   2.311   1.519 -0.0774  0.0275  0.1247
  554SOL     OW 2213   0.531   2.812   2.703 -0.4626 -0.2199  0.5906
  554SOL    HW1 2214   0.528   2.894   2.654  3.6619  0.9751 -0.2120
  554SOL    HW2 2215   0.588   2.761   2.643 -0.8315  3.0315  0.7385
  554SOL     MW 2216   0.538   2.816   2.689  0.0329  0.3667  0.5042
  555SOL     OW 2217   0.564   2.379   2.609 -0.3529 -0.4145  0.1547
  555SOL    HW1 2218   0.575   2.293   2.654  0.1167 -3.5158  2.3163
  555SOL    HW2 2219   0.648   2.376   2.552  1.4907  1.7984 -1.8602
  555SOL     MW 2220   0.577   2.367   2.607 -0.0477 -0.5317  0.1741
  556SOL     OW 2221   1.049   1.799   0.143  0.0955 -0.4048 -0.0992
  556SOL    HW1 2222   1.084   1.789   0.053 -0.6037 -0.4183 -0.1716
  556SOL    HW2 2223   1.121   1.838   0.194 -3.4074 -0.6534 -1.4808
  556SOL     MW 2224   1.063   1.803   0.138 -0.4589 -0.4393 -0.2910
  557SOL     OW 2225   1.051   2.697   0.455 -0.1186 -0.1960 -0.4124
  557SOL    HW1 2226   1.095   2.710   0.373 -1.7134  1.4700  1.8756
  557SOL    HW2 2227   0.985   2.770   0.453  0.2606  3.3895  1.8088
  557SOL     MW 2228   1.048   2.708   0.444 -0.2790  0.4969  0.1825
  558SOL     OW 2229   0.249   2.076   3.079 -0.0101 -0.4858  0.2860
  558SOL    HW1 2230   0.194   2.004   3.097 -1.1148  3.0525 -1.7160
  558SOL    HW2 2231   0.196   2.147   3.100  1.5218 -0.4935  0.4561
  558SOL     MW 2232   0.235   2.076   3.084  0.0462 -0.0200  0.0443
  559SOL     OW 2233   1.203   2.269   2.040 -0.1368  0.3036 -0.4609
  559SOL    HW1 2234   1.180   2.359   2.061 -2.1960 -0.5936 -0.5387
  559SOL    HW2 2235   1.181   2.210   2.117  1.1563 -2.6630  1.9243
  559SOL     MW 2236   1.197   2.273   2.053 -0.2379 -0.2062 -0.1565
  560SOL     OW 2237   1.932   2.973   0.035 -0.2462 -0.7350  0.0387
  560SOL    HW1 2238   1.993   3.008  -0.031  0.0881  0.4089  0.3395
  560SOL    HW2 2239   1.873   2.915  -0.007  1.5096 -0.4075  0.3671
  560SOL     MW 2240   1.932   2.970   0.021  0.0296 -0.5409  0.1217
  561SOL     OW 2241   0.481   2.090   0.163  0.2851  0.2632  0.0845
  561SOL    HW1 2242   0.413   2.084   0.084 -1.4849  0.4770 -0.5310
  561SOL    HW2 2243   0.504   2.183   0.182 -0.4297 -3.9124  1.0030
  561SOL     MW 2244   0.475   2.101   0.155 -0.0427 -0.2595  0.1244
  562SOL     OW 2245   0.864   2.134   2.234  0.1338  0.0538  0.0581
  562SOL    HW1 2246   0.856   2.232   2.243  0.4169  1.3516  0.2651
  562SOL    HW2 2247   0.959   2.127   2.251  0.2916 -1.1400 -1.5351
  562SOL     MW 2248   0.876   2.146   2.237  0.1920  0.0675 -0.1248
  563SOL     OW 2249   1.248   0.283   0.540 -0.5198  0.2730  0.5399
  563SOL    HW1 2250   1.188   0.263   0.464 -0.2583  1.6750  0.2065
  563SOL    HW2 2251   1.286   0.198   0.581 -2.3816  0.3518  2.2074
  563SOL     MW 2252   1.245   0.269   0.535 -0.7309  0.4684  0.7160
  564SOL     OW 2253   1.008   2.606   2.322  0.2613  0.4110  0.1826
  564SOL    HW1 2254   1.061   2.568   2.253  2.1784 -1.0326  1.5444
  564SOL    HW2 2255   1.081   2.652   2.368 -0.1876 -1.3424  0.4577
  564SOL     MW 2256   1.024   2.607   2.319  0.4550 -0.0108  0.3986
  565SOL     OW 2257   2.920   2.662   2.697 -0.5301 -0.3451 -0.6064
  565SOL    HW1 2258   2.991   2.721   2.670 -0.8776  4.0646 -1.7028
  565SOL    HW2 2259   2.854   2.662   2.618  0.3534 -0.5867 -2.4023
  565SOL     MW 2260   2.921   2.670   2.683 -0.4594  0.2048 -0.9880
  566SOL     OW 2261   2.205   1.978   2.339  0.8625 -0.7959 -0.2820
  566SOL    HW1 2262   2.240   1.962   2.250  0.8395 -2.4226  0.1076
  566SOL    HW2 2263   2.265   2.044   2.378  3.5575 -1.1340  0.3106
  566SOL     MW 2264   2.218   1.985   2.332  1.2150 -1.0551 -0.1524
  567SOL     OW 2265   1.192   2.929   0.088  0.0839 -0.0043  0.5801
  567SOL    HW1 2266   1.177   3.019   0.106  0.8460  0.2408 -2.6902
  567SOL    HW2 2267   1.196   2.930  -0.008  0.4373 -0.9719 -0.7238
  567SOL     MW 2268   1.191   2.941   0.077  0.2311 -0.0996 -0.0234
  568SOL     OW 2269   1.641   2.144   2.825  0.6922 -0.2927  0.5479
  568SOL    HW1 2270   1.717   2.201   2.853  2.4227 -0.6527  1.3959
  568SOL    HW2 2271   1.679   2.076   2.764 -2.1117  2.9580 -0.9166
  568SOL     MW 2272   1.656   2.143   2.821  0.5506  0.0887  0.4665
  569SOL     OW 2273   0.110   2.212   2.456 -0.4168 -0.0244 -0.6223
  569SOL    HW1 2274   0.060   2.285   2.416  1.9547 -1.7086  1.5510
  569SOL    HW2 2275   0.131   2.240   2.545  0.0051 -1.0280 -1.2348
  569SOL     MW 2276   0.106   2.225   2.463 -0.0482 -0.3790 -0.4163
  570SOL     OW 2277   1.507   0.399   0.477 -0.8252  0.5099  0.9209
  570SOL    HW1 2278   1.417   0.382   0.501  1.9789 -0.6925  0.0502
  570SOL    HW2 2279   1.550   0.430   0.555 -1.2362 -1.6188 -1.7160
  570SOL     MW 2280   1.501   0.401   0.490 -0.5094  0.0704  0.4581
  571SOL     OW 2281   1.471   2.417   1.993  0.2378 -0.6657 -0.1515
  571SOL    HW1 2282   1.428   2.434   2.077 -1.2405 -0.1884  0.3424
  571SOL    HW2 2283   1.461   2.325   1.970 -0.1902  0.6545 -2.1281
  571SOL     MW 2284   1.464   2.407   2.001 -0.0137 -0.4285 -0.3472
  572SOL     OW 2285   0.898   2.565   3.063  0.2283  0.3382 -0.0016
  572SOL    HW1 2286   0.876   2.627   2.991 -0.7565 -0.0686  0.0262
  572SOL    HW2 2287   0.831   2.561   3.132 -1.4648  0.5075  1.4462
  572SOL     MW 2288   0.886   2.573   3.063 -0.1250  0.3069  0.1931
  573SOL     OW 2289   1.114   2.403   0.177 -0.2142  0.2085  0.2432
  573SOL    HW1 2290   1.203   2.401   0.136  2.1170  1.1844 -0.8852
  573SOL    HW2 2291   1.102   2.492   0.194 -0.0195  1.0092 -0.6624
  573SOL     MW 2292   1.124   2.414   0.174  0.1191  0.4429 -0.0252
  574SOL     OW 2293   1.190   2.681   0.204 -1.0839  0.6046  0.2414
  574SOL    HW1 2294   1.280   2.686   0.241  0.4915  0.5195 -1.8095
  574SOL    HW2 2295   1.186   2.763   0.160 -0.2095 -2.3380 -0.0636
  574SOL     MW 2296   1.201   2.692   0.203 -0.7607  0.2052 -0.0695
  575SOL     OW 2297   3.053   2.300   1.829  0.1458  0.2899  0.7923
  575SOL    HW1 2298   3.061   2.209   1.790 -0.7076  2.7851 -3.0703
  575SOL    HW2 2299   3.122   2.366   1.791  1.3473  0.3411 -0.9180
  575SOL     MW 2300   3.063   2.297   1.819  0.1917  0.6259  0.0570
  576SOL     OW 2301   2.819   1.810   2.033  0.2753  0.0869  0.3318
  576SOL    HW1 2302   2.821   1.895   1.986 -3.1025  0.4571 -0.3404
  576SOL    HW2 2303   2.725   1.784   2.041  0.3517 -0.8572 -2.8999
  576SOL     MW 2304   2.807   1.818   2.028 -0.1603  0.0112 -0.1833
  577SOL     OW 2305   2.062   0.243   0.058  0.2281 -0.6818  0.3557
  577SOL    HW1 2306   1.997   0.302   0.024  0.5844  1.3367  0.2460
  577SOL    HW2 2307   2.007   0.179   0.089  0.4231 -1.9340 -0.2365
  577SOL     MW 2308   2.046   0.243   0.058  0.3009 -0.5807  0.2631
  578SOL     OW 2309   1.995   2.157   2.326 -0.2608 -1.1957 -0.1309
  578SOL    HW1 2310   1.915   2.103   2.302  1.6983  2.1861 -0.6718
  578SOL    HW2 2311   2.066   2.089   2.311  1.9530 -0.6263 -0.0561
  578SOL     MW 2312   1.993   2.141   2.321  0.2898 -0.6744 -0.1924
  579SOL     OW 2313   0.830   2.444   2.516  0.0033 -0.2607  0.0931
  579SOL    HW1 2314   0.854   2.394   2.599  1.4439  0.9530 -0.6536
  579SOL    HW2 2315   0.915   2.478   2.486  1.3471  0.3734  0.4650
  579SOL     MW 2316   0.845   2.442   2.523  0.3706 -0.0169  0.0436
  580SOL     OW 2317   0.908   2.893   0.027  0.1812  0.5688 -0.1719
  580SOL    HW1 2318   0.990   2.850   0.064  0.2073  2.2879  2.7206
  580SOL    HW2 2319   0.867   2.835  -0.029  1.6637  1.9208  1.5737
  580SOL     MW 2320   0.913   2.879   0.025  0.3802  0.9740  0.4401
  581SOL     OW 2321   1.100   2.542   1.750 -0.3499 -0.0689  0.4965
  581SOL    HW1 2322   1.191   2.558   1.740 -0.6140  1.8649  1.1747
  581SOL    HW2 2323   1.097   2.454   1.785 -0.3532  0.0076  0.7437
  581SOL     MW 2324   1.112   2.532   1.753 -0.3852  0.1964  0.6186
  582SOL     OW 2325   0.001   2.854   2.610  0.1806  0.0081 -0.3014
  582SOL    HW1 2326  -0.006   2.938   2.670 -2.1112  1.6028 -1.8106
  582SOL    HW2 2327   0.090   2.835   2.588  0.5596 -0.0423 -0.5713
  582SOL     MW 2328   0.012   2.862   2.615 -0.0718  0.2119 -0.5361
  583SOL     OW 2329   1.959   2.484   2.682  0.5846 -0.1664  0.0751
  583SOL    HW1 2330   2.019   2.521   2.614 -0.8827 -0.5236  0.6077
  583SOL    HW2 2331   1.970   2.389   2.675  1.5539 -1.5183 -3.0374
  583SOL     MW 2332   1.968   2.477   2.672  0.5189 -0.3919 -0.2653
  584SOL     OW 2333   0.156   1.844   2.127 -0.5782 -0.1315  0.1193
  584SOL    HW1 2334   0.249   1.833   2.096  0.5994  0.0783 -1.1170
  584SOL    HW2 2335   0.167   1.890   2.209  0.3196 -1.4327  0.8040
  584SOL     MW 2336   0.169   1.849   2.134 -0.3044 -0.2755  0.0466
  585SOL     OW 2337   1.455   2.574   0.039  0.4872 -0.4359 -0.1133
  585SOL    HW1 2338   1.393   2.575  -0.041 -0.5631  0.5372 -0.1057
  585SOL    HW2 2339   1.462   2.667   0.064  0.1003 -3.0727 -2.6104
  585SOL     MW 2340   1.448   2.586   0.032  0.2976 -0.6554 -0.4418
  586SOL     OW 2341   1.290   2.991   2.375 -0.8119  0.1364 -0.0163
  586SOL    HW1 2342   1.356   2.926   2.353 -1.1133 -0.1054 -0.7466
  586SOL    HW2 2343   1.310   3.025   2.466 -0.7911  1.1003  1.6130
  586SOL     MW 2344   1.302   2.987   2.384 -0.8489  0.2317  0.1023
  587SOL     OW 2345   1.192   1.632   2.201  0.1593  0.0208  0.0662
  587SOL    HW1 2346   1.198   1.545   2.247 -0.5456  0.1822 -0.3980
  587SOL    HW2 2347   1.155   1.603   2.114 -0.7851 -2.1198 -2.6040
  587SOL     MW 2348   1.188   1.617   2.196 -0.0583 -0.2403 -0.3473
  588SOL     OW 2349   1.377   2.174   2.717  0.4058 -0.7112  0.2423
  588SOL    HW1 2350   1.462   2.167   2.746 -2.7888 -0.0525 -1.4139
  588SOL    HW2 2351   1.326   2.153   2.799 -2.1520 -3.0992 -2.5054
  588SOL     MW 2352   1.381   2.171   2.732 -0.3532 -0.9394 -0.3387
  589SOL     OW 2353   1.338   2.049   0.051  0.3838 -0.1676  0.4884
  589SOL    HW1 2354   1.354   2.143   0.062  1.6950  0.5482 -1.8090
  589SOL    HW2 2355   1.320   2.006   0.137 -2.4495 -0.0322 -1.1722
  589SOL     MW 2356   1.338   2.056   0.063  0.1830 -0.0553 -0.0338
  590SOL     OW 2357   0.448   2.585   2.232 -0.1623  0.2937 -0.1223
  590SOL    HW1 2358   0.413   2.599   2.144  1.7095  1.2588 -0.6393
  590SOL    HW2 2359   0.526   2.639   2.242  0.2905 -1.1473  2.6378
  590SOL     MW 2360   0.454   2.594   2.222  0.1444  0.2309  0.1736
  591SOL     OW 2361   2.252   0.710   3.042  0.7265  0.4735  0.5693
  591SOL    HW1 2362   2.173   0.745   3.009  0.9146 -1.1754 -0.3510
  591SOL    HW2 2363   2.329   0.750   2.999  0.4968  1.3750  1.6066
  591SOL     MW 2364   2.252   0.720   3.032  0.7210  0.3749  0.5848
  592SOL     OW 2365   1.844   2.940   0.851 -0.0955  0.5997  0.0426
  592SOL    HW1 2366   1.826   2.980   0.761 -1.0770  0.4399 -1.6569
  592SOL    HW2 2367   1.875   2.844   0.845 -1.4344 -1.4279 -2.0829
  592SOL     MW 2368   1.846   2.933   0.838 -0.4017  0.3111 -0.4621
  593SOL     OW 2369   1.932   0.793   0.842 -0.3887 -0.4382 -0.2069
  593SOL    HW1 2370   1.852   0.780   0.789 -2.3749  1.0363 -2.9750
  593SOL    HW2 2371   1.957   0.703   0.868 -0.4315 -0.1568  1.0432
  593SOL     MW 2372   1.924   0.779   0.839 -0.6564 -0.2066 -0.4072
  594SOL     OW 2373   2.729   1.152   1.375  0.4855  0.4821  0.1773
  594SOL    HW1 2374   2.819   1.202   1.396  3.6137 -3.0130  2.9079
  594SOL    HW2 2375   2.730   1.124   1.280  0.3908  2.4222 -1.2790
  594SOL     MW 2376   2.741   1.155   1.365  0.8857  0.2770  0.3454
  595SOL     OW 2377   0.424   0.970   0.744  0.3176 -0.2493 -0.4720
  595SOL    HW1 2378   0.488   1.037   0.703 -0.4214  1.3623  0.4232
  595SOL    HW2 2379   0.453   0.992   0.831  1.5086 -2.5813 -1.1922
  595SOL     MW 2380   0.437   0.982   0.750  0.3772 -0.3444 -0.4489
  596SOL     OW 2381   2.444   1.358   0.595 -0.3863 -0.2420  0.2060
  596SOL    HW1 2382   2.449   1.434   0.534  0.0462  1.5874 -2.6242
  596SOL    HW2 2383   2.535   1.337   0.615 -0.4378  1.3657 -0.6710
  596SOL     MW 2384   2.456   1.365   0.590 -0.3361  0.2115 -0.2831
  597SOL     OW 2385   2.174   0.651   1.709 -0.2604  0.0432  0.3629
  597SOL    HW1 2386   2.254   0.609   1.733 -1.7776  1.2501  0.8794
  597SOL    HW2 2387   2.140   0.603   1.628 -1.0346  2.4858 -0.2224
  597SOL     MW 2388   2.180   0.639   1.702 -0.5627  0.5247  0.3538
  598SOL     OW 2389   2.625   1.001   2.870 -0.0230 -0.0000 -0.8207
  598SOL    HW1 2390   2.657   0.958   2.792  1.5931  4.6208  3.0443
  598SOL    HW2 2391   2.704   1.043   2.910 -0.7618 -1.2213  5.9213
  598SOL     MW 2392   2.639   1.001   2.865  0.0927  0.4485  0.5788
  599SOL     OW 2393   2.903   0.375   1.999  0.1525  0.0058 -0.2766
  599SOL    HW1 2394   2.882   0.370   2.092 -0.2286 -0.3356 -1.9500
  599SOL    HW2 2395   2.955   0.454   1.982 -1.6469  1.8885  1.8877
  599SOL     MW 2396   2.907   0.385   2.009 -0.1352  0.2091 -0.2118
  600SOL     OW 2397   1.865   1.703   0.881  0.2381  0.3688  0.4113
  600SOL    HW1 2398   1.864   1.680   0.972 -0.7505  1.4577 -1.5593
  600SOL    HW2 2399   1.780   1.747   0.861  2.0529 -2.3276  0.5147
  600SOL     MW 2400   1.853   1.706   0.890  0.3471  0.1567  0.1650
  601SOL     OW 2401   2.528   0.800   0.880  0.7396  0.0225  0.0797
  601SOL    HW1 2402   2.530   0.817   0.975 -0.0350  1.7694 -0.2939
  601SOL    HW2 2403   2.468   0.725   0.870  0.4602 -3.6043 -0.4764
  601SOL     MW 2404   2.520   0.792   0.891  0.6005 -0.2255 -0.0429
  602SOL     OW 2405   2.292   1.941   0.682  0.5125 -0.2484 -0.0638
  602SOL    HW1 2406   2.229   1.869   0.701 -0.9230  0.5689 -2.3962
  602SOL    HW2 2407   2.254   1.999   0.617  0.1739  0.8482  0.9647
  602SOL     MW 2408   2.279   1.939   0.676  0.2784  0.0041 -0.2358
  603SOL     OW 2409   2.999   1.389   1.832 -0.3772 -0.0901 -0.4219
  603SOL    HW1 2410   3.080   1.411   1.878  1.9299  0.1685 -0.2205
  603SOL    HW2 2411   2.987   1.291   1.841  1.2499  0.4328 -1.0414
  603SOL     MW 2412   3.008   1.379   1.840  0.1418  0.0130 -0.4771
  604SOL     OW 2413   2.082   1.550   0.480  0.4336 -0.3959 -1.1060
  604SOL    HW1 2414   2.124   1.477   0.533  2.4469  3.0279  0.4999
  604SOL    HW2 2415   1.997   1.572   0.522 -0.3731 -1.6131  1.8339
  604SOL     MW 2416   2.076   1.543   0.493  0.5928 -0.1047 -0.5063
  605SOL     OW 2417   2.663   1.569   0.872 -0.5344  0.1449  0.4972
  605SOL    HW1 2418   2.602   1.617   0.821  5.3647  0.4729  0.5361
  605SOL    HW2 2419   2.615   1.532   0.944  0.1687  0.4234 -2.6551
  605SOL     MW 2420   2.649   1.570   0.875  0.3367  0.2249  0.0864
  606SOL     OW 2421   2.538   1.760   2.002 -0.2173 -0.4534  0.1423
  606SOL    HW1 2422   2.448   1.755   1.979 -0.8938  0.0131  1.8308
  606SOL    HW2 2423   2.576   1.698   1.929  3.0941  1.2186 -0.9944
  606SOL     MW 2424   2.531   1.751   1.990  0.1303 -0.1713  0.2151
  607SOL     OW 2425   2.334   1.024   3.012  0.1987 -0.4191  0.3510
  607SOL    HW1 2426   2.410   1.043   2.958 -1.3023 -0.8621 -2.9924
  607SOL    HW2 2427   2.357   1.043   3.106  1.3930  0.9676  2.4885
  607SOL     MW 2428   2.347   1.029   3.018  0.1583 -0.2946  0.1919
  608SOL     OW 2429   1.890   0.272   0.589 -0.4421  0.5769 -0.2509
  608SOL    HW1 2430   1.922   0.291   0.499  1.4849  0.0491 -1.0187
  608SOL    HW2 2431   1.870   0.174   0.596 -1.2039 -2.0465  1.3474
  608SOL     MW 2432   1.892   0.261   0.578 -0.2883  0.1611 -0.1413
  609SOL     OW 2433   2.144   1.898   3.019 -0.2127  0.1785 -0.3748
  609SOL    HW1 2434   2.062   1.850   2.995 -0.5404  0.8934  0.9433
  609SOL    HW2 2435   2.165   1.890   3.114 -2.0246  1.6851 -1.5586
  609SOL     MW 2436   2.136   1.890   3.028 -0.4950  0.4716 -0.3571
  610SOL     OW 2437   1.853   1.096   1.354  0.3854 -0.2767 -0.1331
  610SOL    HW1 2438   1.885   1.034   1.285 -2.2496 -1.5505 -0.9960
  610SOL    HW2 2439   1.776   1.055   1.389  1.4075  2.2629 -0.4975
  610SOL     MW 2440   1.847   1.082   1.350  0.1726 -0.1097 -0.2950
  611SOL     OW 2441   2.444   1.687   0.719 -0.0431 -0.6171 -0.1305
  611SOL    HW1 2442   2.398   1.771   0.701 -1.8872  1.7096  2.7898
  611SOL    HW2 2443   2.455   1.634   0.643 -1.1793 -0.7918 -2.9382
  611SOL     MW 2444   2.440   1.691   0.706 -0.4363 -0.3332 -0.1157
  612SOL     OW 2445   2.786   2.803   0.457  0.2429 -0.3190  0.2813
  612SOL    HW1 2446   2.834   2.875   0.508 -0.2787  2.0217 -0.8131
  612SOL    HW2 2447   2.855   2.780   0.393 -1.2775  0.8600 -1.3067
  612SOL     MW 2448   2.802   2.809   0.455 -0.0265  0.1454 -0.0726
  613SOL     OW 2449   1.615   1.014   1.120 -0.5404  0.4492  0.1866
  613SOL    HW1 2450   1.626   1.097   1.167  1.4919  1.7621  2.0012
  613SOL    HW2 2451   1.705   0.993   1.093 -1.6947  0.7671 -0.0690
  613SOL     MW 2452   1.629   1.022   1.123 -0.4246  0.6644  0.3923
  614SOL     OW 2453   2.036   0.547   1.495  0.6303 -0.0830 -0.3948
  614SOL    HW1 2454   1.999   0.478   1.551 -0.8437 -1.3984 -1.7897
  614SOL    HW2 2455   2.056   0.518   1.408 -0.2716 -1.7280  1.1686
  614SOL     MW 2456   2.034   0.534   1.491  0.3168 -0.4736 -0.3726
  615SOL     OW 2457   2.245   0.821   0.190  0.8172 -0.0193 -0.1083
  615SOL    HW1 2458   2.315   0.789   0.240  1.0778  0.9123 -4.0363
  615SOL    HW2 2459   2.254   0.789   0.100 -2.2913  0.4728 -0.0776
  615SOL     MW 2460   2.255   0.813   0.185  0.4414  0.1686 -0.6225
  616SOL     OW 2461   2.575   0.434   1.589 -0.2992  0.0193  0.0582
  616SOL    HW1 2462   2.512   0.377   1.547  0.2351  1.3132 -0.4741
  616SOL    HW2 2463   2.634   0.461   1.512 -1.2263  0.4709 -0.9641
  616SOL     MW 2464   2.575   0.430   1.573 -0.3511  0.2496 -0.1469
  617SOL     OW 2465   2.890   0.543   1.748 -0.5023 -0.3136 -0.4488
  617SOL    HW1 2466   2.808   0.580   1.793 -0.1632  1.5745  0.0776
  617SOL    HW2 2467   2.879   0.451   1.713 -1.4101 -2.0618  1.9544
  617SOL     MW 2468   2.878   0.536   1.749 -0.5773 -0.2952 -0.0623
  618SOL     OW 2469   2.649   0.367   1.932  0.1626  0.0455 -0.3880
  618SOL    HW1 2470   2.636   0.449   1.885 -0.7039  0.1427 -2.5266
  618SOL    HW2 2471   2.744   0.371   1.946 -0.0038 -0.2647 -1.0523
  618SOL     MW 2472   2.660   0.378   1.927  0.0263  0.0174 -0.7578
  619SOL     OW 2473   2.605   0.876   0.153 -0.2443 -0.9311  0.2565
  619SOL    HW1 2474   2.688   0.914   0.182  0.8203  3.4064 -0.0747
  619SOL    HW2 2475   2.558   0.858   0.231 -0.2854 -0.5683 -1.1859
  619SOL     MW 2476   2.610   0.878   0.167 -0.1093 -0.3109  0.0225
  620SOL     OW 2477   2.282   1.083   0.928  0.0830  0.1943  0.1752
  620SOL    HW1 2478   2.352   1.092   0.864 -0.5729  0.6362  0.5096
  620SOL    HW2 2479   2.249   0.995   0.918 -0.7326 -1.3215 -1.8626
  620SOL     MW 2480   2.287   1.073   0.918 -0.1112  0.0526 -0.0496
  621SOL     OW 2481   1.476   2.116   1.979 -0.3202 -0.1444 -0.0512
  621SOL    HW1 2482   1.423   2.043   2.008  0.1895 -0.3700 -1.5689
  621SOL    HW2 2483   1.505   2.156   2.061  0.0904  0.4558  1.7010
  621SOL     MW 2484   1.473   2.111   1.994 -0.1988 -0.0949 -0.0203
  622SOL     OW 2485   2.621   0.158   0.182 -0.0171 -0.3034  0.2320
  622SOL    HW1 2486   2.710   0.151   0.213 -2.2065  1.1596  0.8121
  622SOL    HW2 2487   2.587   0.068   0.144 -2.3973  0.4525 -0.1552
  622SOL     MW 2488   2.629   0.145   0.181 -0.6200 -0.0106  0.2575
  623SOL     OW 2489   2.365   2.785   0.838 -0.5118 -0.2686 -0.3003
  623SOL    HW1 2490   2.406   2.869   0.849  0.5750 -1.8226  0.8087
  623SOL    HW2 2491   2.303   2.784   0.909 -0.3887 -0.5273 -0.3787
  623SOL     MW 2492   2.362   2.796   0.849 -0.3522 -0.5078 -0.1643
  624SOL     OW 2493   2.237   1.644   3.021 -0.1460  0.0705  0.6261
  624SOL    HW1 2494   2.158   1.604   3.053  1.1969  0.7047 -1.2477
  624SOL    HW2 2495   2.218   1.738   3.009 -0.1813 -0.6688  0.6394
  624SOL     MW 2496   2.224   1.651   3.024  0.0265  0.0566  0.3806
  625SOL     OW 2497   2.178   1.888   1.075 -0.4957  0.1741 -0.0981
  625SOL    HW1 2498   2.240   1.868   1.144 -0.4037  0.8543  0.2111
  625SOL    HW2 2499   2.220   1.889   0.992 -1.2409 -1.3479  0.6762
  625SOL     MW 2500   2.192   1.885   1.073 -0.5819  0.0630  0.0448
  626SOL     OW 2501   0.160   1.547   2.382  0.2647 -0.0059 -0.2760
  626SOL    HW1 2502   0.156   1.475   2.315  0.6265 -2.5534  1.2318
  626SOL    HW2 2503   0.120   1.506   2.461  3.4340  0.9245 -0.8511
  626SOL     MW 2504   0.154   1.532   2.384  0.7306 -0.2192 -0.1529
  627SOL     OW 2505   2.445   0.835   2.556 -0.1526 -0.7309 -0.1243
  627SOL    HW1 2506   2.404   0.927   2.568  0.0431 -1.3634  2.3658
  627SOL    HW2 2507   2.407   0.804   2.470  0.0502 -1.4142  1.3812
  627SOL     MW 2508   2.435   0.843   2.546 -0.1000 -0.9045  0.4029
  628SOL     OW 2509   2.296   1.370   1.382 -0.4700  0.1250  0.3126
  628SOL    HW1 2510   2.286   1.288   1.335 -0.7500  1.6977  1.8038
  628SOL    HW2 2511   2.392   1.384   1.401  2.4361 -0.2746 -1.2269
  628SOL     MW 2512   2.307   1.361   1.378 -0.1235  0.2798  0.3063
  629SOL     OW 2513   1.997   0.552   1.201 -0.4072 -0.2223  0.7462
  629SOL    HW1 2514   2.070   0.618   1.201 -2.2766 -0.3261  1.1378
  629SOL    HW2 2515   1.916   0.603   1.216  1.5421  0.2869 -1.8884
  629SOL     MW 2516   1.996   0.568   1.203 -0.3966 -0.1688  0.4502
  630SOL     OW 2517   2.521   1.795   3.065  0.3143 -0.0280  0.0020
  630SOL    HW1 2518   2.454   1.821   2.997  0.3026  2.6645 -0.0829
  630SOL    HW2 2519   2.498   1.702   3.085  0.6797  2.0201 -0.4074
  630SOL     MW 2520   2.509   1.786   3.059  0.3610  0.5975 -0.0632
  631SOL     OW 2521   1.980   1.792   1.602  0.2079  0.3805 -0.2043
  631SOL    HW1 2522   1.979   1.708   1.661  2.6877 -0.7198 -0.3440
  631SOL    HW2 2523   1.934   1.759   1.522 -2.6150 -0.1969 -3.0225
  631SOL     MW 2524   1.974   1.776   1.599  0.1627  0.1591 -0.5946
  632SOL     OW 2525   0.184   2.097   1.577 -0.8652  0.1472  0.3474
  632SOL    HW1 2526   0.128   2.101   1.649 -1.2209 -1.4814 -2.2853
  632SOL    HW2 2527   0.180   2.006   1.543  0.7891 -2.6962 -1.5669
  632SOL     MW 2528   0.176   2.085   1.582 -0.6939 -0.4429 -0.2525
  633SOL     OW 2529   2.418   0.684   0.355 -0.0054  0.4554 -0.4112
  633SOL    HW1 2530   2.490   0.667   0.412  0.6254 -0.4173  0.8965
  633SOL    HW2 2531   2.370   0.602   0.354  0.9136 -1.3794  2.7653
  633SOL     MW 2532   2.421   0.671   0.362  0.1991  0.0982  0.1805
  634SOL     OW 2533   2.649   3.080   0.624 -0.0208 -0.1849  0.2501
  634SOL    HW1 2534   2.676   3.174   0.622 -0.8050  0.0666 -0.7126
  634SOL    HW2 2535   2.597   3.064   0.547  0.5551  0.4324 -1.4144
  634SOL     MW 2536   2.645   3.090   0.614 -0.0483 -0.0703 -0.0965
  635SOL     OW 2537   2.631   0.131   1.805 -0.1129  0.0519  0.0152
  635SOL    HW1 2538   2.706   0.094   1.760  0.7929  2.0343  0.6042
  635SOL    HW2 2539   2.653   0.221   1.821  0.9485 -0.5426 -2.2387
  635SOL     MW 2540   2.644   0.138   1.801  0.1466  0.2350 -0.2045
  636SOL     OW 2541   2.930   1.643   0.971  0.5444 -0.0123 -0.0631
  636SOL    HW1 2542   2.839   1.672   0.972  1.5781  3.5927 -1.3836
  636SOL    HW2 2543   2.969   1.685   1.053 -0.1757  2.2466  1.4915
  636SOL     MW 2544   2.923   1.652   0.982  0.5858  0.7614 -0.0322
  637SOL     OW 2545   2.904   1.489   0.708 -0.1350 -0.0247 -0.5948
  637SOL    HW1 2546   2.961   1.545   0.751 -0.4311 -1.3838  0.9455
  637SOL    HW2 2547   2.823   1.510   0.751 -0.3123 -1.6757 -0.7280
  637SOL     MW 2548   2.901   1.499   0.719 -0.1975 -0.4219 -0.4092
  638SOL     OW 2549   2.653   0.664   0.505  0.1313 -0.3026 -0.3895
  638SOL    HW1 2550   2.746   0.670   0.479 -0.9400  0.3246  1.7096
  638SOL    HW2 2551   2.641   0.602   0.576 -1.2125 -0.8309 -0.7209
  638SOL     MW 2552   2.663   0.657   0.511 -0.1873 -0.2895 -0.1563
  639SOL     OW 2553   1.807   3.099   0.622  0.5286  0.1225 -1.0510
  639SOL    HW1 2554   1.735   3.158   0.583  0.4510  0.5220  0.1760
  639SOL    HW2 2555   1.824   3.051   0.541 -1.3764  2.0642 -0.9115
  639SOL     MW 2556   1.800   3.101   0.606  0.2670  0.4314 -0.8707
  640SOL     OW 2557   0.378   1.365   0.085 -0.1248  0.4188  0.2180
  640SOL    HW1 2558   0.415   1.379  -0.004  0.2029  0.1048 -1.6559
  640SOL    HW2 2559   0.326   1.279   0.076  1.1186 -1.9037  0.7438
  640SOL     MW 2560   0.376   1.355   0.072  0.0825  0.0709  0.0401
  641SOL     OW 2561   2.255   0.451   0.367 -0.6878 -0.2894  0.1820
  641SOL    HW1 2562   2.270   0.430   0.274 -1.3218 -0.5566 -1.4657
  641SOL    HW2 2563   2.316   0.395   0.414 -1.6715  1.1503 -1.4461
  641SOL     MW 2564   2.265   0.441   0.361 -0.9012 -0.1347 -0.2502
  642SOL     OW 2565   0.023   0.015   0.542 -0.7324 -0.5635  0.4934
  642SOL    HW1 2566  -0.002   0.106   0.556 -0.7929  0.3460  1.5007
  642SOL    HW2 2567  -0.043  -0.042   0.587  0.1463 -2.9149  1.0883
  642SOL     MW 2568   0.011   0.019   0.550 -0.6245 -0.7538  0.7048
  643SOL     OW 2569   2.012   0.328   1.669 -0.0668  0.8265  0.1066
  643SOL    HW1 2570   2.097   0.303   1.703 -0.1337 -1.4247 -2.3660
  643SOL    HW2 2571   2.000   0.255   1.604  1.6085  0.0862 -0.2639
  643SOL     MW 2572   2.022   0.315   1.665  0.1454  0.4318 -0.2685
  644SOL     OW 2573   2.708   1.842   0.986  0.0318 -0.1083  0.4616
  644SOL    HW1 2574   2.658   1.808   1.057 -0.1221  1.9966  0.8272
  644SOL    HW2 2575   2.651   1.848   0.908 -0.6116  0.6744 -1.8431
  644SOL     MW 2576   2.694   1.838   0.985 -0.0734  0.2727  0.2058
  645SOL     OW 2577   2.796   0.889   0.654  0.4952 -0.2559  0.4814
  645SOL    HW1 2578   2.863   0.837   0.700 -0.0906  0.2097 -1.1837
  645SOL    HW2 2579   2.727   0.827   0.629  1.2231 -1.5401 -1.7540
  645SOL     MW 2580   2.796   0.874   0.657  0.5139 -0.3639 -0.0333
  646SOL     OW 2581   0.183   2.260   0.867  0.0723  0.1681 -0.3410
  646SOL    HW1 2582   0.183   2.166   0.862 -0.3431  0.6134 -2.7082
  646SOL    HW2 2583   0.129   2.286   0.793 -0.5707 -3.2565  1.8112
  646SOL     MW 2584   0.176   2.251   0.857 -0.0674 -0.2250 -0.3694
  647SOL     OW 2585   2.730   0.537   2.978 -0.1453  0.2640  0.0279
  647SOL    HW1 2586   2.674   0.466   2.997  1.8105  0.4472 -2.5339
  647SOL    HW2 2587   2.675   0.608   2.989 -1.8466 -2.8431  0.4759
  647SOL     MW 2588   2.715   0.537   2.982 -0.1117 -0.1218 -0.2510
  648SOL     OW 2589   2.220   0.709   1.185  0.2578 -0.0496  0.3979
  648SOL    HW1 2590   2.192   0.773   1.117  0.2777 -1.1522  2.2404
  648SOL    HW2 2591   2.251   0.762   1.256  0.9603 -0.2090  0.3097
  648SOL     MW 2592   2.220   0.724   1.185  0.3531 -0.2161  0.6294
  649SOL     OW 2593   2.377   2.713   1.244  0.3002  0.2308  0.3294
  649SOL    HW1 2594   2.465   2.754   1.247 -0.9557  1.3128  0.0125
  649SOL    HW2 2595   2.391   2.616   1.229  0.7395  2.1687 -0.5708
  649SOL     MW 2596   2.390   2.706   1.242  0.1925  0.6292  0.1688
  650SOL     OW 2597   2.787   0.234   0.617  0.5445  0.1782  0.3882
  650SOL    HW1 2598   2.799   0.283   0.701 -0.3347  1.7166 -1.4534
  650SOL    HW2 2599   2.871   0.245   0.568  3.6780 -1.2271  0.7681
  650SOL     MW 2600   2.800   0.242   0.622  0.8419  0.1958  0.1954
  651SOL     OW 2601   2.959   0.334   0.841  0.1369  0.2165 -0.0182
  651SOL    HW1 2602   3.018   0.362   0.769  2.5712  2.3587 -0.6915
  651SOL    HW2 2603   2.929   0.421   0.877 -1.0645 -0.4453  0.5921
  651SOL     MW 2604   2.963   0.349   0.836  0.2996  0.4118 -0.0265
  652SOL     OW 2605   2.362   1.431   2.944  0.5027 -0.0608  0.6629
  652SOL    HW1 2606   2.449   1.454   2.897  1.4705  0.6802  0.4795
  652SOL    HW2 2607   2.318   1.516   2.958  1.8284 -0.9447  2.1140
  652SOL     MW 2608   2.368   1.445   2.940  0.8053 -0.0796  0.8302
  653SOL     OW 2609   1.970   0.424   0.369  0.4054  0.6225 -0.3732
  653SOL    HW1 2610   1.945   0.396   0.280 -1.1207 -1.3590 -0.3919
  653SOL    HW2 2611   2.060   0.403   0.379  0.9586  0.8788  1.2725
  653SOL     MW 2612   1.979   0.417   0.359  0.2771  0.3949 -0.1585
  654SOL     OW 2613   2.475   1.030   0.698  0.0782  0.1302  0.0481
  654SOL    HW1 2614   2.383   1.017   0.674  0.7635  3.2001 -0.3464
  654SOL    HW2 2615   2.495   0.971   0.774  0.7619 -0.1700 -2.3846
  654SOL     MW 2616   2.465   1.020   0.705  0.2588  0.4956 -0.3249
  655SOL     OW 2617   3.027   0.912   0.439 -0.0916  0.0630 -0.1338
  655SOL    HW1 2618   2.998   0.939   0.525 -2.1933 -0.8478 -1.4102
  655SOL    HW2 2619   2.990   0.819   0.437 -1.4375  1.2833  0.7363
  655SOL     MW 2620   3.018   0.903   0.450 -0.5465  0.1039 -0.1874
  656SOL     OW 2621   1.944   2.777   1.226 -0.2328 -0.5660  0.2555
  656SOL    HW1 2622   1.928   2.862   1.271  1.0553  1.0514  1.1750
  656SOL    HW2 2623   1.957   2.719   1.294 -2.8782  1.6075 -2.1963
  656SOL     MW 2624   1.944   2.781   1.241 -0.4119 -0.0658  0.0533
  657SOL     OW 2625   0.244   1.512   1.233  0.3013 -0.1709  0.3818
  657SOL    HW1 2626   0.150   1.499   1.242  0.7852  0.6703 -0.9862
  657SOL    HW2 2627   0.255   1.556   1.149 -1.9578 -0.4731 -1.3780
  657SOL     MW 2628   0.233   1.516   1.223  0.0671 -0.0998 -0.0309
  658SOL     OW 2629   2.702   1.383   0.244 -0.0478 -0.2264 -0.2688
  658SOL    HW1 2630   2.639   1.322   0.285  0.0484 -1.5573  0.5143
  658SOL    HW2 2631   2.730   1.448   0.308  1.3444 -2.0980 -1.2681
  658SOL     MW 2632   2.698   1.384   0.258  0.1486 -0.6489 -0.2974
  659SOL     OW 2633   2.236   1.557   1.016  0.2232  0.0802 -0.1385
  659SOL    HW1 2634   2.330   1.534   1.049  1.4997 -0.9842 -0.9918
  659SOL    HW2 2635   2.200   1.578   1.100  2.9362  1.8302 -3.6496
  659SOL     MW 2636   2.244   1.556   1.031  0.7496  0.1706 -0.7144
  660SOL     OW 2637   2.048   1.546   1.721  0.4244 -0.3660  0.0124
  660SOL    HW1 2638   2.063   1.563   1.818  0.9144 -0.8454 -1.2202
  660SOL    HW2 2639   1.993   1.471   1.724  0.3423  3.5236  2.2842
  660SOL     MW 2640   2.043   1.538   1.734  0.4782  0.0839  0.1495
  661SOL     OW 2641   2.373   1.123   0.160  0.2969 -0.3338  0.2941
  661SOL    HW1 2642   2.447   1.155   0.208 -1.9169 -0.9152 -0.8116
  661SOL    HW2 2643   2.367   1.030   0.193 -0.4274 -2.1071 -1.8312
  661SOL     MW 2644   2.382   1.115   0.170 -0.0907 -0.6445 -0.1322
  662SOL     OW 2645   2.543   2.998   0.880  0.0784 -0.5203  0.0521
  662SOL    HW1 2646   2.513   3.076   0.932  0.3794  0.3380  0.4745
  662SOL    HW2 2647   2.571   3.032   0.796 -0.2906 -0.4061 -0.2046
  662SOL     MW 2648   2.543   3.013   0.876  0.0694 -0.3920  0.0739
  663SOL     OW 2649   2.821   1.571   0.441  0.2058  0.4668  0.2272
  663SOL    HW1 2650   2.884   1.619   0.397 -0.8895 -1.9126 -0.3349
  663SOL    HW2 2651   2.854   1.551   0.530  1.6448 -0.7734 -2.0082
  663SOL     MW 2652   2.833   1.575   0.447  0.2512 -0.0108 -0.1419
  664SOL     OW 2653   2.487   1.590   1.549  0.3007 -0.1275 -0.1817
  664SOL    HW1 2654   2.449   1.678   1.535  0.4099  0.3911  1.9165
  664SOL    HW2 2655   2.414   1.543   1.594 -2.7371 -0.6503  0.1179
  664SOL     MW 2656   2.472   1.595   1.553 -0.0857 -0.1280  0.1346
  665SOL     OW 2657   2.855   0.799   2.031 -0.4544 -0.3811 -0.1977
  665SOL    HW1 2658   2.839   0.831   1.940  1.3997  2.2710 -0.1425
  665SOL    HW2 2659   2.924   0.738   2.014  0.3943  1.5388 -0.0875
  665SOL     MW 2660   2.862   0.795   2.017 -0.0978  0.2221 -0.1759
  666SOL     OW 2661   2.794   3.010   1.688 -0.2837  0.4340  0.3962
  666SOL    HW1 2662   2.780   3.022   1.594 -0.0599  0.1150 -0.1017
  666SOL    HW2 2663   2.741   2.936   1.711 -1.2226  1.7951 -3.5545
  666SOL     MW 2664   2.785   3.002   1.678 -0.3781  0.5715 -0.1907
  667SOL     OW 2665   1.951   2.694   1.597  0.4462  0.3875 -0.3110
  667SOL    HW1 2666   1.965   2.619   1.656 -0.0045  0.9225 -2.4135
  667SOL    HW2 2667   2.025   2.755   1.617 -0.0199 -2.2551  2.4020
  667SOL     MW 2668   1.962   2.692   1.608  0.3252  0.1094 -0.2304
  668SOL     OW 2669   2.749   0.637   0.807 -0.3469  0.4584 -0.1543
  668SOL    HW1 2670   2.816   0.642   0.880  1.3650 -3.1018 -0.2215
  668SOL    HW2 2671   2.685   0.705   0.811  2.2741 -1.8669  1.3471
  668SOL     MW 2672   2.749   0.647   0.817  0.2247 -0.3181  0.0349
  669SOL     OW 2673   0.152   0.912   0.727 -0.0828 -0.7759  0.0243
  669SOL    HW1 2674   0.089   0.982   0.757  1.0674 -0.0245 -0.8379
  669SOL    HW2 2675   0.237   0.957   0.740  3.9943  0.4993  1.0847
  669SOL     MW 2676   0.155   0.927   0.732  0.6069 -0.5085  0.0504
  670SOL     OW 2677   2.914   0.278   0.236  0.4555  0.0418 -0.1265
  670SOL    HW1 2678   2.927   0.219   0.162 -0.4773  0.3018 -1.0435
  670SOL    HW2 2679   2.920   0.367   0.192  0.8968  2.0770 -1.1796
  670SOL     MW 2680   2.916   0.282   0.220  0.3906  0.3446 -0.3864
  671SOL     OW 2681   2.167   0.002   1.616  0.2508  0.1510 -0.0918
  671SOL    HW1 2682   2.119   0.021   1.534  0.9090 -1.7512 -0.3473
  671SOL    HW2 2683   2.081  -0.016   1.659 -0.3842 -0.2810 -0.5330
  671SOL     MW 2684   2.149   0.002   1.611  0.2538 -0.1570 -0.1837
  672SOL     OW 2685   1.879   1.704   1.346 -0.2649 -0.1138 -0.3915
  672SOL    HW1 2686   1.802   1.739   1.375  3.2288  0.1154  0.7450
  672SOL    HW2 2687   1.910   1.767   1.280 -0.3358 -0.4997 -0.8051
  672SOL     MW 2688   1.873   1.717   1.341  0.1867 -0.1344 -0.2961
  673SOL     OW 2689   2.785   1.107   0.458 -0.1986  0.1426 -0.0027
  673SOL    HW1 2690   2.781   1.037   0.530  0.8474 -2.6848 -2.6566
  673SOL    HW2 2691   2.859   1.174   0.481 -0.4147 -0.3284  1.0100
  673SOL     MW 2692   2.794   1.107   0.471 -0.0891 -0.2926 -0.2193
  674SOL     OW 2693   2.503   0.031   1.284  0.4720  0.6915 -0.0543
  674SOL    HW1 2694   2.461   0.061   1.201  2.0642  0.7517  2.4304
  674SOL    HW2 2695   2.538  -0.057   1.274  1.0323 -0.6136 -0.4086
  674SOL     MW 2696   2.502   0.024   1.272  0.7560  0.5272  0.2268
  675SOL     OW 2697   2.967   1.065   1.102 -0.0197 -0.0093  0.0381
  675SOL    HW1 2698   3.040   1.005   1.136 -0.1367 -1.4054 -0.6543
  675SOL    HW2 2699   2.996   1.096   1.018  1.3836  2.7272  3.5031
  675SOL     MW 2700   2.981   1.061   1.095  0.1500  0.1675  0.4039
  676SOL     OW 2701   2.805   1.470   1.630 -0.7712 -0.7025 -0.4256
  676SOL    HW1 2702   2.760   1.393   1.647  2.0703  1.1800  1.8974
  676SOL    HW2 2703   2.899   1.457   1.642  0.7252  1.0001  1.3319
  676SOL     MW 2704   2.811   1.458   1.634 -0.1988 -0.2295  0.1128
  677SOL     OW 2705   2.469   0.824   1.873 -0.4306 -0.2557  0.5915
  677SOL    HW1 2706   2.413   0.874   1.812 -1.4175  0.4691 -0.0834
  677SOL    HW2 2707   2.422   0.840   1.956  0.6452  0.0193 -2.9783
  677SOL     MW 2708   2.455   0.833   1.876 -0.4188 -0.1238  0.0314
  678SOL     OW 2709   2.489   1.580   0.452  0.5005 -0.0722  0.0928
  678SOL    HW1 2710   2.410   1.633   0.439  0.2084 -2.0833 -0.3989
  678SOL    HW2 2711   2.553   1.646   0.435 -1.5576 -0.7376  2.3007
  678SOL     MW 2712   2.487   1.596   0.448  0.1904 -0.4253  0.3192
  679SOL     OW 2713   2.409   0.506   1.147 -0.5058  0.0404 -1.0492
  679SOL    HW1 2714   2.363   0.424   1.150  0.7269 -1.0159  0.5276
  679SOL    HW2 2715   2.341   0.567   1.114  0.9845  0.6781 -2.5711
  679SOL     MW 2716   2.394   0.504   1.143 -0.1465 -0.0148 -1.0420
  680SOL     OW 2717   2.411   0.272   1.459 -0.1398  0.2950 -0.1113
  680SOL    HW1 2718   2.339   0.252   1.518 -1.1740 -0.1048 -3.4086
  680SOL    HW2 2719   2.404   0.202   1.390 -0.4246  0.3521  0.7635
  680SOL     MW 2720   2.400   0.260   1.457 -0.3138  0.2498 -0.4309
  681SOL     OW 2721   0.301   0.510   1.564  0.1475  0.3702  0.0506
  681SOL    HW1 2722   0.273   0.431   1.608 -0.5132  2.7678 -0.8349
  681SOL    HW2 2723   0.397   0.502   1.579  0.5462  0.4728  0.1381
  681SOL     MW 2724   0.310   0.498   1.572  0.1129  0.7001 -0.0547
  682SOL     OW 2725   0.115   3.014   1.468  0.4259  0.6252  0.2273
  682SOL    HW1 2726   0.118   3.100   1.437  1.4628 -2.0585 -4.2933
  682SOL    HW2 2727   0.072   3.018   1.555  1.0055 -0.8122  1.5848
  682SOL     MW 2728   0.110   3.026   1.475  0.6391  0.0815 -0.1901
  683SOL     OW 2729   2.000   0.821   3.002  0.7416  0.1533 -0.0036
  683SOL    HW1 2730   1.926   0.776   2.961  0.7812 -0.3348 -3.5012
  683SOL    HW2 2731   1.970   0.908   3.026 -1.0494  1.2812  0.5953
  683SOL     MW 2732   1.986   0.827   3.000  0.5105  0.2377 -0.3861
  684SOL     OW 2733   2.159   1.737   0.825  0.2066 -0.0163  0.7549
  684SOL    HW1 2734   2.062   1.727   0.842 -0.6292  0.2302 -1.1533
  684SOL    HW2 2735   2.208   1.685   0.892  0.8044 -1.6559  1.2248
  684SOL     MW 2736   2.153   1.729   0.836  0.1752 -0.2001  0.5651
  685SOL     OW 2737   2.567   1.742   1.208 -0.1464 -0.5319  0.3089
  685SOL    HW1 2738   2.627   1.729   1.278  0.5643 -2.1898 -1.8001
  685SOL    HW2 2739   2.532   1.656   1.192 -0.9966 -0.7830  0.3150
  685SOL     MW 2740   2.570   1.729   1.215 -0.1648 -0.7838  0.0315
  686SOL     OW 2741   2.935   0.692   1.486 -1.0340 -0.1719 -0.6487
  686SOL    HW1 2742   2.932   0.657   1.575 -3.0124  1.4970  1.4782
  686SOL    HW2 2743   3.023   0.692   1.455  0.0441 -1.2325 -0.3164
  686SOL     MW 2744   2.946   0.688   1.494 -1.1528 -0.0917 -0.3242
  687SOL     OW 2745   2.156   0.320   1.186  0.3882 -0.2239  0.3908
  687SOL    HW1 2746   2.148   0.255   1.116 -1.3647 -0.2913  0.3426
  687SOL    HW2 2747   2.074   0.371   1.185 -0.6738  1.7338  1.4090
  687SOL     MW 2748   2.144   0.318   1.177  0.0168  0.0255  0.5188
  688SOL     OW 2749   2.338   0.565   1.415 -0.3501 -0.1273  0.0961
  688SOL    HW1 2750   2.359   0.472   1.435 -0.4723  0.4738  3.5336
  688SOL    HW2 2751   2.347   0.560   1.320 -1.6328 -1.6967 -1.4766
  688SOL     MW 2752   2.342   0.552   1.405 -0.5354 -0.2551  0.3421
  689SOL     OW 2753   2.561   0.764   2.989  0.5150  0.2135  0.1605
  689SOL    HW1 2754   2.580   0.846   2.944  0.7385 -1.2490  0.0365
  689SOL    HW2 2755   2.578   0.788   3.084 -0.4472  0.7830 -1.2518
  689SOL     MW 2756   2.566   0.778   2.996  0.4175  0.0957 -0.0422
  690SOL     OW 2757   2.052   1.022   1.975  0.1936  0.3108 -0.4738
  690SOL    HW1 2758   2.001   0.935   1.975  2.4816 -1.9561  1.4937
  690SOL    HW2 2759   2.085   1.017   1.881  0.5625  0.1658 -3.3233
  690SOL     MW 2760   2.049   1.010   1.963  0.5442 -0.0074 -0.5901
  691SOL     OW 2761   2.442   0.278   0.821  0.2559 -0.5685 -0.0680
  691SOL    HW1 2762   2.528   0.315   0.847  0.9693 -2.2652 -0.8571
  691SOL    HW2 2763   2.367   0.339   0.853 -1.9774 -1.1984 -0.0788
  691SOL     MW 2764   2.443   0.291   0.828  0.0554 -0.8754 -0.1735
  692SOL     OW 2765   2.769   1.669   1.400  0.3541  0.3685 -0.6199
  692SOL    HW1 2766   2.730   1.639   1.484 -0.8193  1.8499  0.8463
  692SOL    HW2 2767   2.814   1.759   1.410  0.3864 -0.9366 -0.2837
  692SOL     MW 2768   2.770   1.677   1.412  0.2036  0.3918 -0.3821
  693SOL     OW 2769   2.280   0.406   0.101 -0.5731  0.2494  0.4475
  693SOL    HW1 2770   2.203   0.355   0.063  2.1102 -0.0103 -1.0301
  693SOL    HW2 2771   2.270   0.497   0.073  1.1896 -3.1433 -1.1380
  693SOL     MW 2772   2.269   0.411   0.092  0.0135 -0.2325  0.0433
  694SOL     OW 2773   1.996   1.289   1.194 -0.1403 -0.1880 -0.4470
  694SOL    HW1 2774   2.083   1.246   1.192  0.2763  2.9328 -2.0276
  694SOL    HW2 2775   1.933   1.230   1.229 -0.0991  0.3667 -0.4335
  694SOL     MW 2776   1.999   1.276   1.198 -0.0799  0.2969 -0.6538
  695SOL     OW 2777   2.977   1.492   1.322 -0.5631  0.0160 -0.0121
  695SOL    HW1 2778   2.966   1.460   1.235 -0.1252  0.3097 -2.0580
  695SOL    HW2 2779   2.898   1.548   1.332 -0.9587 -1.5457  1.5650
  695SOL     MW 2780   2.965   1.495   1.312 -0.5575 -0.1513 -0.0740
  696SOL     OW 2781   2.032   1.407   0.919  0.4259  0.0160  0.2460
  696SOL    HW1 2782   2.106   1.453   0.964  0.1076  2.3274 -0.4039
  696SOL    HW2 2783   2.000   1.356   0.993 -0.8280 -3.2024 -2.9149
  696SOL     MW 2784   2.038   1.406   0.935  0.2185 -0.1037 -0.2568
  697SOL     OW 2785   2.871   0.934   2.294 -0.2126  0.7158 -0.0365
  697SOL    HW1 2786   2.830   1.014   2.272 -2.3954 -2.6866  3.8192
  697SOL    HW2 2787   2.874   0.887   2.210 -2.4358  0.2316 -1.9546
  697SOL     MW 2788   2.866   0.938   2.280 -0.7939  0.2030  0.2191
  698SOL     OW 2789   2.540   0.376   0.003 -0.4103 -0.7232  0.5521
  698SOL    HW1 2790   2.445   0.389   0.020  0.6996 -2.5202 -2.5774
  698SOL    HW2 2791   2.568   0.328   0.082  1.8368 -0.9062  1.1920
  698SOL     MW 2792   2.531   0.372   0.016  0.0326 -0.9844  0.2236
  699SOL     OW 2793   1.826   1.599   2.052 -0.4168 -0.0664  0.2910
  699SOL    HW1 2794   1.801   1.509   2.080  1.6922  1.6537  1.1547
  699SOL    HW2 2795   1.921   1.600   2.049 -0.7022  0.3028 -3.0888
  699SOL     MW 2796   1.835   1.587   2.055 -0.1762  0.2093 -0.0410
  700SOL     OW 2797   2.728   0.895   1.505  0.2519  0.3805  0.0842
  700SOL    HW1 2798   2.734   0.976   1.456 -2.5072 -1.0455  1.9519
  700SOL    HW2 2799   2.807   0.840   1.492  0.2766  3.1703  1.9910
  700SOL     MW 2800   2.739   0.898   1.497 -0.1089  0.5604  0.5822
  701SOL     OW 2801   1.688   1.282   2.624  0.0054  0.2474 -0.1652
  701SOL    HW1 2802   1.780   1.294   2.650 -1.2196 -1.5883  0.2188
  701SOL    HW2 2803   1.627   1.319   2.695  0.0138 -1.3076 -0.0294
  701SOL     MW 2804   1.692   1.289   2.637 -0.1551 -0.2000 -0.0966
  702SOL     OW 2805   2.229   0.452   0.812  0.6217 -0.4440 -0.1336
  702SOL    HW1 2806   2.194   0.377   0.759 -0.3443  0.7122  3.8133
  702SOL    HW2 2807   2.285   0.502   0.751  0.8529 -0.7836  0.1483
  702SOL     MW 2808   2.232   0.448   0.797  0.5248 -0.3362  0.4243
  703SOL     OW 2809   2.662   1.281   0.998 -0.1137  0.6348 -0.4338
  703SOL    HW1 2810   2.670   1.279   0.900 -1.8616 -2.1835  0.1241
  703SOL    HW2 2811   2.650   1.189   1.028  1.6706 -1.9184  0.6560
  703SOL     MW 2812   2.662   1.268   0.989 -0.1089 -0.0739 -0.2164
  704SOL     OW 2813   0.030   1.264   0.261 -0.3881 -0.0938 -0.5549
  704SOL    HW1 2814  -0.038   1.230   0.209 -1.5073  1.8080  0.9873
  704SOL    HW2 2815   0.054   1.195   0.324  1.7600  0.3816  2.8276
  704SOL     MW 2816   0.024   1.251   0.262 -0.2523  0.2198  0.0949
  705SOL     OW 2817   2.163   1.609   1.310 -0.2531 -0.1084  0.3083
  705SOL    HW1 2818   2.080   1.618   1.363 -0.9024  1.3040 -0.1294
  705SOL    HW2 2819   2.193   1.516   1.326 -0.4872  1.1634 -3.4156
  705SOL     MW 2820   2.156   1.598   1.319 -0.3696  0.2457 -0.2408
  706SOL     OW 2821   3.001   1.256   0.572 -0.0558  0.3246  0.3415
  706SOL    HW1 2822   3.094   1.226   0.565 -1.0121 -1.1812 -0.7823
  706SOL    HW2 2823   2.981   1.341   0.610 -1.0106 -1.7212 -1.8131
  706SOL     MW 2824   3.011   1.263   0.576 -0.3080 -0.1440 -0.0911
  707SOL     OW 2825   2.394   0.100   1.030 -0.6965 -0.5092 -0.0772
  707SOL    HW1 2826   2.427   0.161   0.966 -1.4746  0.9193  3.2560
  707SOL    HW2 2827   2.301   0.113   1.015 -1.0711 -0.7502  1.5702
  707SOL     MW 2828   2.386   0.110   1.020 -0.8486 -0.3525  0.5799
  708SOL     OW 2829   2.536   1.514   0.064 -0.5649 -0.5944 -0.2751
  708SOL    HW1 2830   2.595   1.460   0.121 -1.4340  0.0606  0.4484
  708SOL    HW2 2831   2.481   1.457   0.017 -1.4772 -0.3679  2.5912
  708SOL     MW 2832   2.537   1.499   0.066 -0.7999 -0.4781  0.1986
  709SOL     OW 2833   1.719   1.749   0.112 -0.6863 -0.0473  0.1674
  709SOL    HW1 2834   1.711   1.732   0.016 -2.3871  0.0954 -2.9974
  709SOL    HW2 2835   1.635   1.730   0.154  1.1953  0.2724 -1.9392
  709SOL     MW 2836   1.707   1.745   0.105 -0.6625  0.0137 -0.5281
  710SOL     OW 2837   2.228   1.164   1.190  0.0329 -0.2635  0.3140
  710SOL    HW1 2838   2.273   1.159   1.104 -1.7950 -0.5396  2.2834
  710SOL    HW2 2839   2.257   1.074   1.236  3.0364 -0.9384 -0.2048
  710SOL     MW 2840   2.238   1.151   1.185  0.1880 -0.3890  0.5054
  711SOL     OW 2841   2.332   0.198   1.729  0.0743 -0.2618 -0.3892
  711SOL    HW1 2842   2.427   0.175   1.732 -2.7238 -3.1525  3.1803
  711SOL    HW2 2843   2.280   0.115   1.719  1.4514 -1.8878 -1.8455
  711SOL     MW 2844   2.338   0.184   1.728 -0.1132 -0.8578 -0.1104
  712SOL     OW 2845   1.629   0.600   3.058 -0.0324 -0.0932 -0.4265
  712SOL    HW1 2846   1.671   0.666   2.998 -1.2359 -0.2135  0.4916
  712SOL    HW2 2847   1.546   0.629   3.095  3.7917  0.5871  0.9351
  712SOL     MW 2848   1.624   0.613   3.055  0.3134 -0.0193 -0.1257
  713SOL     OW 2849   2.589   0.795   1.152  0.3301  0.4543 -0.1459
  713SOL    HW1 2850   2.618   0.701   1.152 -2.6103 -0.1948  0.3833
  713SOL    HW2 2851   2.545   0.799   1.239 -1.2774 -1.5190 -0.1749
  713SOL     MW 2852   2.587   0.783   1.164 -0.2699  0.1083 -0.0799
  714SOL     OW 2853   2.272   0.175   1.993  0.0871  0.0442 -0.1044
  714SOL    HW1 2854   2.333   0.139   2.059  1.7801  3.7815  1.2939
  714SOL    HW2 2855   2.322   0.209   1.917  1.0371 -1.5762  1.4833
  714SOL     MW 2856   2.286   0.175   1.992  0.4358  0.3235  0.2896
  715SOL     OW 2857   1.741   1.915   1.711 -0.3558 -0.0174  0.2085
  715SOL    HW1 2858   1.832   1.902   1.693  0.7081  1.0865 -1.4940
  715SOL    HW2 2859   1.716   1.858   1.787 -1.0188 -0.9613  0.9897
  715SOL     MW 2860   1.750   1.906   1.718 -0.3029  0.0037  0.0869
  716SOL     OW 2861   2.308   0.707   0.641  0.7425 -0.6766  0.0507
  716SOL    HW1 2862   2.381   0.709   0.577 -0.1223 -1.1865  0.2653
  716SOL    HW2 2863   2.233   0.698   0.577 -0.1498 -2.5807  1.8738
  716SOL     MW 2864   2.308   0.706   0.624  0.5107 -0.9951  0.3195
  717SOL     OW 2865   2.823   1.440   2.924 -0.3916  0.1441  0.2028
  717SOL    HW1 2866   2.921   1.457   2.914  0.1411 -0.7905 -2.7203
  717SOL    HW2 2867   2.806   1.485   3.008  3.7569 -1.0531  3.3274
  717SOL     MW 2868   2.834   1.448   2.934  0.2260 -0.1372  0.2294
  718SOL     OW 2869   2.595   1.388   1.366 -0.7592 -1.2789  0.7922
  718SOL    HW1 2870   2.609   1.440   1.448  0.8149 -0.6963  2.4552
  718SOL    HW2 2871   2.668   1.326   1.357 -1.7353 -1.1466  1.2855
  718SOL     MW 2872   2.607   1.387   1.375 -0.6803 -1.1846  1.0767
  719SOL     OW 2873   2.189   1.347   0.654  0.2680  0.6016 -0.5503
  719SOL    HW1 2874   2.289   1.343   0.649  1.3841  4.4011  1.7652
  719SOL    HW2 2875   2.168   1.362   0.746  2.2822  3.3098 -1.0877
  719SOL     MW 2876   2.200   1.348   0.666  0.6810  1.4603 -0.3157
  720SOL     OW 2877   2.889   1.207   0.159  0.0130  0.4496 -0.3743
  720SOL    HW1 2878   2.859   1.130   0.209 -3.3621  0.8936  0.9573
  720SOL    HW2 2879   2.820   1.279   0.191  0.3026  0.0627  0.8064
  720SOL     MW 2880   2.876   1.207   0.170 -0.3941  0.4571 -0.0429
  721SOL     OW 2881   2.470   0.805   1.398 -0.1225  0.6360  0.1328
  721SOL    HW1 2882   2.436   0.725   1.433  1.8233 -0.0413 -3.4438
  721SOL    HW2 2883   2.551   0.803   1.451 -3.2740 -3.1003  0.9814
  721SOL     MW 2884   2.476   0.794   1.409 -0.2816  0.0537 -0.2271
  722SOL     OW 2885   2.551   1.183   0.358  0.2297  0.2792  0.2494
  722SOL    HW1 2886   2.504   1.238   0.421  2.3693  2.4730  0.0839
  722SOL    HW2 2887   2.636   1.143   0.391  0.4122  1.6777  1.0279
  722SOL     MW 2888   2.556   1.185   0.371  0.5361  0.7531  0.3303
  723SOL     OW 2889   2.278   1.432   1.665  0.4816  0.2382 -0.8195
  723SOL    HW1 2890   2.263   1.412   1.568 -2.1666  1.5987 -1.6262
  723SOL    HW2 2891   2.198   1.486   1.687  0.2715 -1.8043 -0.9141
  723SOL     MW 2892   2.265   1.437   1.655  0.1045  0.1482 -0.9384
  724SOL     OW 2893   2.497   0.385   0.566 -0.6713  0.1661 -0.3267
  724SOL    HW1 2894   2.451   0.337   0.638  0.1963  0.1863 -0.8715
  724SOL    HW2 2895   2.573   0.329   0.549  0.5397  2.9860  0.6702
  724SOL     MW 2896   2.501   0.371   0.573 -0.3971  0.5408 -0.2670
  725SOL     OW 2897   2.674   0.528   1.162 -0.3080  0.1578 -0.0892
  725SOL    HW1 2898   2.697   0.542   1.251 -0.1306  1.9319 -1.1582
  725SOL    HW2 2899   2.578   0.501   1.180 -1.8066 -3.4502  2.8834
  725SOL     MW 2900   2.665   0.526   1.176 -0.4823 -0.0842  0.1620
  726SOL     OW 2901   2.570   2.397   0.515  0.3578  0.3796 -0.3497
  726SOL    HW1 2902   2.522   2.466   0.459 -1.0927 -0.5474  0.0506
  726SOL    HW2 2903   2.508   2.349   0.569 -0.8896  2.4632 -2.5515
  726SOL     MW 2904   2.555   2.400   0.515  0.0019  0.5322 -0.5874
  727SOL     OW 2905   2.824   0.302   1.646 -0.7384 -0.0957 -0.1990
  727SOL    HW1 2906   2.856   0.314   1.552 -0.3951 -0.9800 -0.7463
  727SOL    HW2 2907   2.739   0.343   1.638  0.3085  0.2184 -2.5789
  727SOL     MW 2908   2.817   0.309   1.633 -0.5550 -0.1709 -0.5852
  728SOL     OW 2909   2.829   1.141   3.004 -0.6189 -0.0867  0.1437
  728SOL    HW1 2910   2.873   1.209   2.948 -0.8643 -0.4360 -0.2023
  728SOL    HW2 2911   2.834   1.180   3.094  0.5308 -0.2297 -1.6519
  728SOL     MW 2912   2.835   1.155   3.008 -0.4996 -0.1517 -0.1389
  729SOL     OW 2913   2.497   1.481   1.122  0.6999  0.1958  0.7367
  729SOL    HW1 2914   2.538   1.458   1.206 -0.8229  3.8006 -1.6892
  729SOL    HW2 2915   2.511   1.404   1.072  0.0693 -1.2857 -1.6640
  729SOL     MW 2916   2.504   1.468   1.127  0.4158  0.4760  0.0999
  730SOL     OW 2917   2.099   1.165   0.233  0.1384 -0.6957  0.3980
  730SOL    HW1 2918   2.196   1.180   0.230  3.4242 -0.2510 -2.8838
  730SOL    HW2 2919   2.061   1.257   0.244  0.0336  0.9110  0.0315
  730SOL     MW 2920   2.107   1.179   0.234  0.5581 -0.4251 -0.0834
  731SOL     OW 2921   2.798   1.806   2.879  0.8442  0.5093  0.3161
  731SOL    HW1 2922   2.710   1.834   2.872  2.3516 -0.5243  1.4946
  731SOL    HW2 2923   2.834   1.895   2.875 -0.8434 -0.5598  0.8384
  731SOL     MW 2924   2.791   1.822   2.877  0.8204  0.2318  0.5405
  732SOL     OW 2925   2.265   0.943   1.331  0.1419  0.2610 -0.1892
  732SOL    HW1 2926   2.189   0.934   1.394 -2.1045 -0.3460  1.2053
  732SOL    HW2 2927   2.344   0.927   1.382  2.1161 -3.7664  3.5363
  732SOL     MW 2928   2.265   0.940   1.346  0.1060 -0.3505  0.4863
  733SOL     OW 2929   2.374   2.889   3.030 -0.0589  0.0148  0.1087
  733SOL    HW1 2930   2.294   2.939   3.005 -0.6984  0.9338 -0.6470
  733SOL    HW2 2931   2.350   2.793   3.022 -1.1211 -0.3662  0.7584
  733SOL     MW 2932   2.360   2.883   3.025 -0.2834  0.0858  0.0947
  734SOL     OW 2933   1.486   0.350   2.473 -0.1246  0.3839  0.2418
  734SOL    HW1 2934   1.449   0.317   2.553 -0.9503 -3.0136 -1.0474
  734SOL    HW2 2935   1.536   0.286   2.415 -0.5886 -1.1544 -4.3232
  734SOL     MW 2936   1.488   0.337   2.476 -0.2948 -0.2673 -0.5306
  735SOL     OW 2937   3.040   0.864   2.676  0.8801 -0.2209 -0.2001
  735SOL    HW1 2938   2.963   0.818   2.637 -0.4884 -0.5284 -1.3191
  735SOL    HW2 2939   3.013   0.906   2.756 -0.7576 -1.5540  0.1950
  735SOL     MW 2940   3.027   0.863   2.681  0.4835 -0.4373 -0.2956
  736SOL     OW 2941   0.043   0.603   2.476 -0.6676 -0.1224  0.4416
  736SOL    HW1 2942   0.100   0.630   2.401  0.1947  1.3446  0.4952
  736SOL    HW2 2943   0.011   0.509   2.462  0.4176 -2.8515 -0.5766
  736SOL     MW 2944   0.046   0.594   2.464 -0.4106 -0.2889  0.3144
  737SOL     OW 2945   2.879   0.695   2.539  0.3340  0.6031  0.0360
  737SOL    HW1 2946   2.832   0.632   2.485  1.6363  0.5692 -0.2228
  737SOL    HW2 2947   2.967   0.684   2.502 -1.8381  0.4347 -1.6961
  737SOL     MW 2948   2.885   0.685   2.527  0.2193  0.5764 -0.2267
  738SOL     OW 2949   0.179   0.416   1.933 -0.0910  0.1588  0.6591
  738SOL    HW1 2950   0.252   0.472   1.914  2.5761 -2.7755 -0.0916
  738SOL    HW2 2951   0.197   0.365   1.852 -0.8847  3.9596  0.0655
  738SOL     MW 2952   0.191   0.417   1.920  0.1562  0.2731  0.4817
  739SOL     OW 2953   2.570   0.980   2.123 -0.5075  0.0211 -0.9621
  739SOL    HW1 2954   2.481   0.959   2.149  2.4637 -1.5801  1.5657
  739SOL    HW2 2955   2.569   1.032   2.039  0.3222  1.2734 -0.6086
  739SOL     MW 2956   2.558   0.984   2.115 -0.0060 -0.0249 -0.5820
  740SOL     OW 2957   0.237   1.681   2.954 -0.3610  0.2095 -0.2921
  740SOL    HW1 2958   0.170   1.619   2.937 -0.5471  1.3085  0.3484
  740SOL    HW2 2959   0.306   1.625   2.989 -1.2834 -1.3747 -0.5424
  740SOL     MW 2960   0.238   1.666   2.957 -0.5072  0.1455 -0.2406
  741SOL     OW 2961   2.196   1.227   2.751 -0.3106 -0.2904  0.4774
  741SOL    HW1 2962   2.205   1.320   2.723  2.1801  0.4205 -1.3095
  741SOL    HW2 2963   2.186   1.236   2.848 -1.4782 -3.2254 -1.2124
  741SOL     MW 2964   2.196   1.240   2.760 -0.1361 -0.5838  0.0187
  742SOL     OW 2965   1.657   1.359   2.355  0.6402 -0.1564 -0.1876
  742SOL    HW1 2966   1.605   1.279   2.339 -0.4517  0.2058  2.2022
  742SOL    HW2 2967   1.665   1.358   2.450  0.8540  0.6960  3.3445
  742SOL     MW 2968   1.651   1.348   2.365  0.5244  0.0039  0.5938
  743SOL     OW 2969   2.529   1.223   2.704 -0.0160  0.0784  0.1858
  743SOL    HW1 2970   2.435   1.235   2.725  2.8570 -1.1069  1.5331
  743SOL    HW2 2971   2.557   1.146   2.750  2.0501 -0.6844 -0.2912
  743SOL     MW 2972   2.520   1.215   2.713  0.6357 -0.1786  0.3006
  744SOL     OW 2973   2.780   0.917   1.793 -0.2392 -0.2044  0.2449
  744SOL    HW1 2974   2.722   0.969   1.848  2.7510  2.1900  0.0879
  744SOL    HW2 2975   2.731   0.907   1.712 -0.3907 -0.4716  0.7868
  744SOL     MW 2976   2.766   0.922   1.789  0.1353  0.0763  0.2957
  745SOL     OW 2977   1.725   0.487   2.481  0.1892 -0.2378  0.2865
  745SOL    HW1 2978   1.734   0.522   2.388 -0.9488 -1.1430 -0.8896
  745SOL    HW2 2979   1.657   0.416   2.479 -2.1579 -0.7927 -2.3774
  745SOL     MW 2980   1.717   0.482   2.469 -0.2706 -0.4304 -0.2202
  746SOL     OW 2981   1.583   1.500   1.698  0.1472  0.5488 -0.4126
  746SOL    HW1 2982   1.620   1.579   1.740  2.3473 -1.1510 -0.5267
  746SOL    HW2 2983   1.582   1.442   1.780  0.3302 -0.0669  0.9617
  746SOL     MW 2984   1.588   1.503   1.714  0.4617  0.2433 -0.2463
  747SOL     OW 2985   2.598   1.124   1.887  0.0562 -0.5672 -0.0231
  747SOL    HW1 2986   2.506   1.132   1.851 -3.8224  2.3216  1.4014
  747SOL    HW2 2987   2.608   1.220   1.905 -0.7932  0.8632 -0.5669
  747SOL     MW 2988   2.587   1.138   1.884 -0.5676  0.0027  0.0931
  748SOL     OW 2989   0.100   3.093   1.939 -0.3989 -0.6881 -0.7379
  748SOL    HW1 2990   0.189   3.124   1.917 -1.4398 -1.2954 -0.1727
  748SOL    HW2 2991   0.062   3.147   2.009  1.5801  0.7359  1.2430
  748SOL     MW 2992   0.107   3.104   1.945 -0.2752 -0.5804 -0.4019
  749SOL     OW 2993   2.414   0.658   2.768  0.0614  0.0034  0.3424
  749SOL    HW1 2994   2.431   0.718   2.690  0.4653  0.5160 -0.3470
  749SOL    HW2 2995   2.480   0.688   2.835 -2.0264  0.0644 -2.0759
  749SOL     MW 2996   2.425   0.670   2.767 -0.1608  0.0791 -0.0676
  750SOL     OW 2997   2.142   3.041   1.989 -0.2997  0.0067 -0.2466
  750SOL    HW1 2998   2.181   3.134   1.988 -0.9867 -1.2522 -0.0109
  750SOL    HW2 2999   2.213   2.987   1.955  4.1391 -0.0843 -0.4988
  750SOL     MW 3000   2.157   3.046   1.985  0.1953 -0.1714 -0.2488
  751SOL     OW 3001   3.064   0.335   2.459 -0.1077 -0.0042  0.2852
  751SOL    HW1 3002   3.000   0.332   2.385 -3.5648  0.9655 -1.2694
  751SOL    HW2 3003   3.147   0.311   2.417 -3.1550  1.0733 -0.0752
  751SOL     MW 3004   3.066   0.332   2.443 -0.9659  0.2659  0.0325
  752SOL     OW 3005   2.143   0.925   2.768  0.0703  0.2131 -0.2752
  752SOL    HW1 3006   2.211   0.947   2.830  0.7625 -0.3431  0.7026
  752SOL    HW2 3007   2.082   0.883   2.828  1.0553 -0.4230  0.9834
  752SOL     MW 3008   2.144   0.922   2.784  0.2916  0.0558  0.0199
  753SOL     OW 3009   2.872   0.317   2.269 -0.6498  0.4230 -0.2477
  753SOL    HW1 3010   2.828   0.229   2.285 -1.4188 -1.5360  1.7476
  753SOL    HW2 3011   2.810   0.381   2.309 -0.0904  0.6146  1.0466
  753SOL     MW 3012   2.858   0.314   2.277 -0.6775  0.1898  0.1863
  754SOL     OW 3013   2.270   2.990   2.599  0.6094 -0.6008  0.1836
  754SOL    HW1 3014   2.274   2.954   2.506  0.6406  0.1907 -1.0594
  754SOL    HW2 3015   2.347   2.958   2.652  1.3187 -1.4470 -0.8314
  754SOL     MW 3016   2.281   2.981   2.594  0.7071 -0.6080 -0.1143
  755SOL     OW 3017   2.761   1.630   2.430 -0.5863 -0.0292  0.5121
  755SOL    HW1 3018   2.725   1.540   2.432  1.2098  1.3596  0.6559
  755SOL    HW2 3019   2.790   1.644   2.522  1.0566  0.9556  2.3632
  755SOL     MW 3020   2.760   1.620   2.442 -0.1325  0.2840  0.7753
  756SOL     OW 3021   2.164   1.245   3.022 -0.1931  0.2322  0.5177
  756SOL    HW1 3022   2.238   1.305   3.027 -1.8543 -0.4739 -3.3894
  756SOL    HW2 3023   2.219   1.168   3.012  0.0703  0.7394  0.4889
  756SOL     MW 3024   2.181   1.242   3.022 -0.3776  0.2060 -0.0016
  757SOL     OW 3025   2.169   0.946   1.754  0.0204  0.0049  0.1236
  757SOL    HW1 3026   2.165   0.848   1.760  1.0093  0.7891 -1.5104
  757SOL    HW2 3027   2.124   0.958   1.667  0.7458 -1.7106 -1.1793
  757SOL     MW 3028   2.163   0.935   1.743  0.2465 -0.1179 -0.2639
  758SOL     OW 3029   2.258   1.855   2.625 -0.4544  0.2355 -0.0160
  758SOL    HW1 3030   2.262   1.888   2.539  2.1839 -0.3336 -0.2898
  758SOL    HW2 3031   2.335   1.797   2.647  0.4216  0.3587  0.4508
  758SOL     MW 3032   2.269   1.852   2.616  0.0093  0.1767  0.0094
  759SOL     OW 3033   1.540   1.434   2.797 -0.5601 -0.4261 -0.0542
  759SOL    HW1 3034   1.567   1.508   2.736 -1.5633 -0.4581  0.0153
  759SOL    HW2 3035   1.598   1.446   2.865 -0.6088  0.6387 -1.4913
  759SOL     MW 3036   1.551   1.445   2.798 -0.6989 -0.2899 -0.2346
  760SOL     OW 3037   2.602   1.927   2.719  0.1533  0.7283 -0.0979
  760SOL    HW1 3038   2.555   1.861   2.670  0.3389  2.3910 -2.0628
  760SOL    HW2 3039   2.680   1.937   2.665  1.9544  1.5057  0.3502
  760SOL     MW 3040   2.606   1.920   2.705  0.4154  1.0502 -0.2980
  761SOL     OW 3041   2.211   0.482   2.452 -0.6792  0.1891  0.3792
  761SOL    HW1 3042   2.116   0.468   2.440 -2.2877  2.0848 -0.5298
  761SOL    HW2 3043   2.222   0.568   2.488 -2.4822  1.1852 -2.4566
  761SOL     MW 3044   2.200   0.492   2.455 -1.1293  0.5707 -0.1149
  762SOL     OW 3045   0.023   0.185   2.134 -0.2175 -0.0450  0.3080
  762SOL    HW1 3046  -0.021   0.124   2.191  0.1980  0.8050  1.1184
  762SOL    HW2 3047  -0.049   0.243   2.111  0.9377  2.4933  2.1390
  762SOL     MW 3048   0.008   0.184   2.139 -0.0102  0.4021  0.6565
  763SOL     OW 3049   2.477   1.198   2.354  0.1695 -0.1313 -0.4276
  763SOL    HW1 3050   2.503   1.159   2.277  1.2065  1.4785  2.7887
  763SOL    HW2 3051   2.561   1.232   2.386  0.0211  0.4168  0.0853
  763SOL     MW 3052   2.491   1.197   2.348  0.2867  0.1534  0.0644
  764SOL     OW 3053   0.394   0.099   2.825 -0.3300  0.3880 -0.9148
  764SOL    HW1 3054   0.328   0.139   2.765  2.5421  0.9776  0.7341
  764SOL    HW2 3055   0.401   0.165   2.892  0.6440 -0.8917  0.6691
  764SOL     MW 3056   0.386   0.113   2.826  0.1774  0.2970 -0.4883
  765SOL     OW 3057   2.711   0.095   2.289 -0.5010  1.1638 -0.1917
  765SOL    HW1 3058   2.682   0.057   2.203  1.3240  1.8130 -1.4266
  765SOL    HW2 3059   2.740   0.017   2.338  1.2615 -0.1716  2.0010
  765SOL     MW 3060   2.711   0.080   2.284 -0.0277  1.0732 -0.0653
  766SOL     OW 3061   1.939   3.047   2.167 -0.5681  0.8263  0.3835
  766SOL    HW1 3062   2.008   3.050   2.096  3.2440 -1.3185  0.9254
  766SOL    HW2 3063   1.861   3.029   2.121  1.4234  3.0518  0.8246
  766SOL     MW 3064   1.938   3.045   2.152  0.1976  0.8370  0.5132
  767SOL     OW 3065   2.679   0.640   1.903  0.0187 -0.3479  0.7636
  767SOL    HW1 3066   2.737   0.689   1.961 -0.7900  4.6043  0.3618
  767SOL    HW2 3067   2.606   0.703   1.885 -1.5063 -1.6294  0.0499
  767SOL     MW 3068   2.677   0.654   1.908 -0.2892  0.1364  0.6164
  768SOL     OW 3069   3.094   1.494   2.967 -0.3453  0.1020  0.5528
  768SOL    HW1 3070   3.099   1.502   3.067  0.0319  1.4654 -0.6299
  768SOL    HW2 3071   3.137   1.410   2.962 -0.4344 -1.3677  1.7713
  768SOL     MW 3072   3.101   1.484   2.980 -0.3073  0.0880  0.5575
  769SOL     OW 3073   2.347   0.711   2.328 -0.4543 -0.2163  0.5884
  769SOL    HW1 3074   2.296   0.634   2.312 -1.1722 -1.4878  1.4587
  769SOL    HW2 3075   2.430   0.707   2.283  0.2496  0.1635  0.7419
  769SOL     MW 3076   2.351   0.700   2.320 -0.4561 -0.3339  0.7235
  770SOL     OW 3077   0.041   1.566   2.631  0.7339  0.9837 -0.2136
  770SOL    HW1 3078  -0.054   1.586   2.639  0.5083 -0.6012 -1.8959
  770SOL    HW2 3079   0.077   1.487   2.679  1.5043  1.0151  2.3232
  770SOL     MW 3080   0.033   1.558   2.638  0.8058  0.7787 -0.1008
  771SOL     OW 3081   3.072   0.605   1.964  0.3844 -0.0592 -0.0617
  771SOL    HW1 3082   3.036   0.572   1.887 -0.2514 -1.1679  0.9377
  771SOL    HW2 3083   3.147   0.554   1.977 -0.0161  2.6639  2.5595
  771SOL     MW 3084   3.077   0.594   1.955  0.2477  0.1538  0.4160
  772SOL     OW 3085   0.004   3.097   2.344  0.4356  0.5934 -0.1992
  772SOL    HW1 3086  -0.084   3.057   2.358  2.7417  0.9712 -1.1860
  772SOL    HW2 3087   0.065   3.036   2.301 -2.4134 -1.8501  1.3461
  772SOL     MW 3088   0.000   3.084   2.341  0.3639  0.3208 -0.1255
  773SOL     OW 3089   2.480   2.920   2.761  0.1401 -0.4851  0.3647
  773SOL    HW1 3090   2.481   2.823   2.755 -0.4460  0.0982  3.5629
  773SOL    HW2 3091   2.437   2.937   2.849 -1.1024  2.2328  2.8263
  773SOL     MW 3092   2.474   2.909   2.772 -0.1012 -0.0496  1.1114
  774SOL     OW 3093   2.354   1.142   1.728  0.0891 -0.3706  0.3441
  774SOL    HW1 3094   2.317   1.231   1.708 -1.1402 -1.8429 -1.6506
  774SOL    HW2 3095   2.272   1.080   1.724 -0.3164  0.5033  1.7022
  774SOL     MW 3096   2.338   1.146   1.725 -0.1266 -0.4495  0.2601
  775SOL     OW 3097   2.293   2.881   2.353  0.2120  0.0707 -0.1117
  775SOL    HW1 3098   2.319   2.967   2.314 -2.4884 -0.6339  0.1080
  775SOL    HW2 3099   2.371   2.833   2.324  0.0547  1.0261 -1.8041
  775SOL     MW 3100   2.307   2.886   2.344 -0.1650  0.1038 -0.3060
  776SOL     OW 3101   0.129   1.494   0.130 -0.0720  0.6549 -0.3003
  776SOL    HW1 3102   0.224   1.480   0.113 -0.0829 -2.1671  0.8939
  776SOL    HW2 3103   0.099   1.410   0.165 -2.2420  0.7311 -0.7200
  776SOL     MW 3104   0.137   1.481   0.132 -0.3598  0.2927 -0.1981
  777SOL     OW 3105   2.945   1.145   1.759  0.2206 -0.1468 -0.0268
  777SOL    HW1 3106   2.891   1.194   1.700  2.0264 -0.0857  4.2692
  777SOL    HW2 3107   2.892   1.064   1.773 -2.2990 -2.0316  0.5462
  777SOL     MW 3108   2.931   1.141   1.753  0.1264 -0.3875  0.6156
  778SOL     OW 3109   2.907   0.491   2.745 -0.5202 -0.5779 -0.1824
  778SOL    HW1 3110   2.853   0.529   2.815  0.3456  2.1466  0.2122
  778SOL    HW2 3111   2.869   0.530   2.666 -0.3466 -0.4247 -0.7491
  778SOL     MW 3112   2.895   0.501   2.744 -0.3830 -0.1982 -0.2051
  779SOL     OW 3113   2.247   0.408   2.112  0.0102 -0.2606  0.0443
  779SOL    HW1 3114   2.242   0.406   2.203  1.3785 -2.2628 -2.5454
  779SOL    HW2 3115   2.266   0.324   2.071 -0.4200  0.9909 -1.4059
  779SOL     MW 3116   2.248   0.397   2.119  0.1339 -0.3597 -0.4887
  780SOL     OW 3117   0.162   0.240   2.700 -0.2598 -0.0177 -0.4994
  780SOL    HW1 3118   0.073   0.210   2.726 -1.9438 -2.5881  2.2854
  780SOL    HW2 3119   0.172   0.333   2.718 -0.6871  1.6478  2.6229
  780SOL     MW 3120   0.151   0.249   2.706 -0.5384 -0.1371  0.2799
  781SOL     OW 3121   3.070   1.298   2.467 -0.2205  0.1963  0.5952
  781SOL    HW1 3122   3.058   1.342   2.385 -1.4074  1.3602  0.5696
  781SOL    HW2 3123   3.062   1.204   2.438 -0.4494  0.3311 -2.2351
  781SOL     MW 3124   3.068   1.292   2.452 -0.4073  0.3677  0.2184
  782SOL     OW 3125   0.696   1.499   0.082  0.0718  0.1131  0.3859
  782SOL    HW1 3126   0.657   1.585   0.076 -0.1626  1.2565 -0.5867
  782SOL    HW2 3127   0.706   1.502   0.176 -0.0660  0.2835 -0.4677
  782SOL     MW 3128   0.692   1.510   0.094  0.0227  0.2864  0.1450
  783SOL     OW 3129   2.705   0.501   2.392 -0.1759  0.6418  0.0868
  783SOL    HW1 3130   2.665   0.561   2.331  2.9392  0.3510 -2.2019
  783SOL    HW2 3131   2.637   0.486   2.463  1.6706  1.4583  1.4566
  783SOL     MW 3132   2.691   0.507   2.393  0.4787  0.7111 -0.0344
  784SOL     OW 3133   0.210   0.818   2.858 -0.0775  0.1561 -0.1564
  784SOL    HW1 3134   0.129   0.854   2.886  0.2040  2.8031 -0.4329
  784SOL    HW2 3135   0.246   0.882   2.802 -2.2953 -0.0168 -0.1073
  784SOL     MW 3136   0.204   0.832   2.854 -0.3330  0.4825 -0.1864
  785SOL     OW 3137   0.409   0.390   2.180  0.5727 -0.2698  0.3430
  785SOL    HW1 3138   0.358   0.428   2.105 -0.0483  1.4981 -0.0937
  785SOL    HW2 3139   0.339   0.346   2.230 -0.8000 -1.9225 -2.6091
  785SOL     MW 3140   0.393   0.390   2.177  0.3096 -0.2546 -0.1041
  786SOL     OW 3141   1.878   0.438   0.016  0.2913 -0.3079 -0.4642
  786SOL    HW1 3142   1.804   0.469   0.070  1.2397 -2.0459 -1.2538
  786SOL    HW2 3143   1.848   0.455  -0.070  0.8277 -2.0166  2.3760
  786SOL     MW 3144   1.865   0.444   0.012  0.4872 -0.7627 -0.1937
  787SOL     OW 3145   2.454   0.176   2.922  0.4006 -0.3399  0.6514
  787SOL    HW1 3146   2.523   0.125   2.885  1.5069 -1.9925  0.2101
  787SOL    HW2 3147   2.494   0.253   2.970  1.7511  2.0322  0.1149
  787SOL     MW 3148   2.469   0.180   2.924  0.7248 -0.2449  0.5224
  788SOL     OW 3149   2.870   3.001   2.431 -0.1786 -0.2442 -0.1288
  788SOL    HW1 3150   2.891   2.960   2.513 -2.2455 -1.2755 -0.0559
  788SOL    HW2 3151   2.875   2.934   2.361 -1.0627 -1.8392  0.3500
  788SOL     MW 3152   2.874   2.987   2.432 -0.5679 -0.5907 -0.0560
  789SOL     OW 3153   0.116   0.162   0.007 -0.2647  0.1199 -0.6115
  789SOL    HW1 3154   0.028   0.128   0.013  3.8655 -4.5650  0.6603
  789SOL    HW2 3155   0.107   0.239  -0.052 -0.5620  0.6357 -0.2308
  789SOL     MW 3156   0.104   0.168  -0.000  0.2410 -0.4302 -0.3935
  790SOL     OW 3157   3.081   1.031   2.448  1.1292  0.9189 -0.4898
  790SOL    HW1 3158   3.075   0.983   2.531 -0.9346 -0.7353 -3.2338
  790SOL    HW2 3159   3.000   0.992   2.399 -0.6519 -0.5787 -0.4804
  790SOL     MW 3160   3.070   1.019   2.452  0.6219  0.5031 -0.8506
  791SOL     OW 3161   2.545   0.460   2.597 -0.1667  0.7265 -0.0953
  791SOL    HW1 3162   2.485   0.505   2.662 -0.5432 -2.5293 -1.3400
  791SOL    HW2 3163   2.592   0.383   2.638 -2.4005 -0.5728  3.3048
  791SOL     MW 3164   2.543   0.456   2.611 -0.5111  0.1255  0.1891
  792SOL     OW 3165   2.419   0.196   2.466 -0.5638  0.0909 -0.4414
  792SOL    HW1 3166   2.417   0.295   2.474 -1.7841  1.0318 -1.1493
  792SOL    HW2 3167   2.360   0.160   2.533 -0.8612 -0.9990  1.9976
  792SOL     MW 3168   2.411   0.204   2.476 -0.7640  0.0713 -0.2130
  793SOL     OW 3169   1.778   1.101   2.005  0.3659 -0.3752  0.4038
  793SOL    HW1 3170   1.751   1.069   1.913 -1.1698  0.2136 -0.7653
  793SOL    HW2 3171   1.874   1.088   1.999  0.7989 -0.2177  1.3127
  793SOL     MW 3172   1.787   1.095   1.992  0.2204 -0.2768  0.3694
  794SOL     OW 3173   1.374   2.322   0.103  0.1169  0.6138  0.0591
  794SOL    HW1 3174   1.401   2.412   0.093 -1.0817 -4.1241 -3.1779
  794SOL    HW2 3175   1.433   2.280   0.168  0.5014 -2.9834  0.7429
  794SOL     MW 3176   1.386   2.328   0.110  0.0095 -0.4859 -0.2778
  795SOL     OW 3177   2.305   1.073   2.534  0.2477 -0.1265 -0.1046
  795SOL    HW1 3178   2.261   1.112   2.613  1.4209 -0.8403  0.7240
  795SOL    HW2 3179   2.356   1.135   2.484 -2.5611 -0.6795  1.0865
  795SOL     MW 3180   2.306   1.087   2.538  0.0319 -0.2936  0.1619
  796SOL     OW 3181   0.251   0.615   2.704 -0.0304 -0.2470  0.0484
  796SOL    HW1 3182   0.232   0.691   2.765 -0.7900  1.1929  0.2331
  796SOL    HW2 3183   0.184   0.619   2.636  1.0019  1.2311 -0.1427
  796SOL     MW 3184   0.239   0.625   2.703  0.0056  0.1380  0.0476
  797SOL     OW 3185   2.647   0.194   2.601 -0.2751 -0.9209 -0.0314
  797SOL    HW1 3186   2.572   0.193   2.542 -4.0980  4.2935 -2.7563
  797SOL    HW2 3187   2.722   0.152   2.559  0.1100  0.9584 -0.2606
  797SOL     MW 3188   2.647   0.188   2.588 -0.7287  0.0151 -0.4211
  798SOL     OW 3189   2.362   0.043   2.240 -0.0171  0.4736 -0.7800
  798SOL    HW1 3190   2.346   0.093   2.324 -0.9681  0.4178 -0.0341
  798SOL    HW2 3191   2.453   0.058   2.215 -1.1722  0.5957  2.0183
  798SOL     MW 3192   2.372   0.052   2.248 -0.2950  0.4823 -0.3124
  799SOL     OW 3193   2.553   2.978   0.114 -0.1908  0.0449  0.5028
  799SOL    HW1 3194   2.488   2.940   0.058 -0.4417 -0.3805 -0.8427
  799SOL    HW2 3195   2.530   2.960   0.205 -2.6786 -1.9248 -2.0699
  799SOL     MW 3196   2.542   2.970   0.119 -0.5521 -0.2711 -0.0142
  800SOL     OW 3197   1.931   3.055   1.754 -0.1628  0.4491  0.1539
  800SOL    HW1 3198   1.860   2.989   1.750 -0.4470  0.4138 -0.3113
  800SOL    HW2 3199   1.987   3.043   1.838 -0.6236 -1.3821  0.5210
  800SOL     MW 3200   1.929   3.045   1.764 -0.2611  0.2028  0.1410
  801SOL     OW 3201   2.852   1.222   2.615 -0.1584 -0.0278  0.3288
  801SOL    HW1 3202   2.838   1.131   2.622  0.7313  1.6113 -1.8267
  801SOL    HW2 3203   2.935   1.236   2.569 -0.3656 -1.8903  1.2075
  801SOL     MW 3204   2.861   1.212   2.610 -0.0683 -0.0573  0.1603
  802SOL     OW 3205   2.601   1.485   2.784 -0.0254  0.0339 -0.3173
  802SOL    HW1 3206   2.602   1.406   2.729 -2.0270 -2.3402 -3.2633
  802SOL    HW2 3207   2.677   1.455   2.846  1.0263 -1.4593  0.2058
  802SOL     MW 3208   2.611   1.471   2.785 -0.1507 -0.4763 -0.6370
  803SOL     OW 3209   2.286   1.386   2.001 -0.5353  0.0464  0.0148
  803SOL    HW1 3210   2.247   1.383   2.088 -0.4876 -0.5340 -0.7637
  803SOL    HW2 3211   2.247   1.314   1.957  1.0949 -0.9185  1.6142
  803SOL     MW 3212   2.275   1.376   2.007 -0.3139 -0.1575  0.1231
  804SOL     OW 3213   2.297   0.103   0.033  0.1773 -0.2463 -0.2489
  804SOL    HW1 3214   2.217   0.166   0.029 -0.6437 -0.6471 -1.6527
  804SOL    HW2 3215   2.364   0.132  -0.040 -1.4452  1.0416  0.5367
  804SOL     MW 3216   2.295   0.115   0.023 -0.1451 -0.1292 -0.3305
  805SOL     OW 3217   2.697   0.867   2.647  0.6136  0.2694  0.1441
  805SOL    HW1 3218   2.606   0.861   2.605  0.0474  1.8821  1.9434
  805SOL    HW2 3219   2.748   0.822   2.583 -1.2827  1.9396  1.4665
  805SOL     MW 3220   2.691   0.861   2.633  0.2887  0.7026  0.5560
  806SOL     OW 3221   2.599   0.707   2.243 -0.5062 -0.4747  0.0827
  806SOL    HW1 3222   2.625   0.705   2.152 -1.8487 -0.5386 -0.3729
  806SOL    HW2 3223   2.624   0.795   2.258 -1.9461 -1.0786 -1.4194
  806SOL     MW 3224   2.606   0.718   2.233 -0.8733 -0.5628 -0.1756
  807SOL     OW 3225   0.060   1.107   2.065  0.2533  0.0994  0.3466
  807SOL    HW1 3226   0.120   1.030   2.038  0.0419 -0.0389  0.4478
  807SOL    HW2 3227  -0.025   1.082   2.046  2.3872 -0.3422 -1.2333
  807SOL     MW 3228   0.057   1.094   2.059  0.5069  0.0229  0.1515
  808SOL     OW 3229   2.654   0.035   2.820 -0.1209 -0.6739 -0.3590
  808SOL    HW1 3230   2.600  -0.041   2.787 -3.0923  2.0735  0.4445
  808SOL    HW2 3231   2.648   0.106   2.744 -0.3818  2.5066  0.2731
  808SOL     MW 3232   2.646   0.034   2.806 -0.5473  0.1082 -0.1696
  809SOL     OW 3233   2.689   1.350   2.415 -0.2785  0.1770 -1.0654
  809SOL    HW1 3234   2.732   1.299   2.483 -0.0570 -0.0415 -2.6479
  809SOL    HW2 3235   2.737   1.321   2.337  0.4642 -0.4819  1.6475
  809SOL     MW 3236   2.701   1.339   2.413 -0.1513  0.0613 -0.9162
  810SOL     OW 3237   2.225   1.346   2.286  0.2947  0.1687  0.5512
  810SOL    HW1 3238   2.285   1.272   2.303 -0.4878  0.4395 -0.4594
  810SOL    HW2 3239   2.166   1.346   2.359  0.7602 -1.0883  0.5884
  810SOL     MW 3240   2.225   1.336   2.298  0.2529  0.0386  0.4227
  811SOL     OW 3241   1.594   0.165   2.303 -0.2137 -0.2747 -0.3613
  811SOL    HW1 3242   1.688   0.150   2.320  1.3634 -1.9647 -1.6820
  811SOL    HW2 3243   1.584   0.186   2.213 -0.0622  0.9387  2.0084
  811SOL     MW 3244   1.605   0.166   2.293  0.0144 -0.3376 -0.2229
  812SOL     OW 3245   1.459   2.867   2.056 -0.1494 -0.1459 -0.5989
  812SOL    HW1 3246   1.555   2.873   2.050 -0.5943  2.0669 -0.1154
  812SOL    HW2 3247   1.441   2.836   2.144 -0.9104  1.3445 -0.3981
  812SOL     MW 3248   1.470   2.863   2.067 -0.3085  0.3427 -0.5086
  813SOL     OW 3249   2.021   0.615   2.238  0.3614 -0.0849  0.1914
  813SOL    HW1 3250   1.939   0.578   2.216  1.2656  3.0249  2.1289
  813SOL    HW2 3251   1.997   0.693   2.283  2.3089 -3.1380 -0.8254
  813SOL     MW 3252   2.007   0.620   2.241  0.7376 -0.0774  0.3128
  814SOL     OW 3253   2.692   1.221   1.636  0.2869  0.1376 -0.4705
  814SOL    HW1 3254   2.633   1.173   1.699  0.8564  1.6004  2.8094
  814SOL    HW2 3255   2.665   1.201   1.544 -1.4871 -0.1431  0.4848
  814SOL     MW 3256   2.681   1.212   1.632  0.1280  0.2936  0.0883
  815SOL     OW 3257   2.541   1.766   2.408  0.8109  0.6410  0.0520
  815SOL    HW1 3258   2.485   1.693   2.369 -1.7345 -1.0811 -1.7827
  815SOL    HW2 3259   2.630   1.722   2.410  0.1839 -2.1487 -0.5916
  815SOL     MW 3260   2.546   1.751   2.403  0.3924  0.0458 -0.2750
  816SOL     OW 3261   0.752   0.699   2.769  0.1594  0.4384  0.8383
  816SOL    HW1 3262   0.767   0.597   2.781 -0.1166  2.2248 -1.1834
  816SOL    HW2 3263   0.665   0.726   2.716 -0.0990  3.3477  0.6656
  816SOL     MW 3264   0.742   0.689   2.764  0.0889  1.0580  0.5488
  817SOL     OW 3265   2.976   1.239   1.454 -0.4784 -0.4904  0.0124
  817SOL    HW1 3266   3.070   1.207   1.461 -1.2485 -0.0162  1.6317
  817SOL    HW2 3267   2.981   1.335   1.421 -0.4978  1.7314 -1.3155
  817SOL     MW 3268   2.989   1.247   1.450 -0.5826 -0.1347  0.0509
  818SOL     OW 3269   1.900   1.063   2.628 -0.3017 -0.3532 -0.1433
  818SOL    HW1 3270   1.867   1.040   2.546 -0.6738  4.0363  1.3199
  818SOL    HW2 3271   1.983   1.010   2.648  1.4599 -2.1797  1.3146
  818SOL     MW 3272   1.907   1.053   2.620 -0.1183 -0.0151  0.2421
  819SOL     OW 3273   1.969   0.328   2.483  0.0347  0.1473  0.4501
  819SOL    HW1 3274   1.883   0.373   2.474  1.2453 -0.7707  0.4580
  819SOL    HW2 3275   2.002   0.327   2.573  2.9420 -2.1711 -1.6452
  819SOL     MW 3276   1.962   0.334   2.494  0.5780 -0.2797  0.1747
  820SOL     OW 3277   2.460   1.686   2.661 -0.1643 -0.6588 -0.6673
  820SOL    HW1 3278   2.526   1.632   2.708 -1.0011 -0.2713  0.2602
  820SOL    HW2 3279   2.490   1.695   2.568 -0.6820  1.3574  0.4434
  820SOL     MW 3280   2.473   1.680   2.655 -0.3430 -0.3417 -0.3984
  821SOL     OW 3281   2.579   1.374   1.990 -0.0324 -0.0631  0.0443
  821SOL    HW1 3282   2.598   1.442   1.920 -1.6223 -0.5884  0.4309
  821SOL    HW2 3283   2.485   1.373   1.999  1.9849 -0.7882 -2.7134
  821SOL     MW 3284   2.569   1.383   1.982  0.0240 -0.2281 -0.2685
  822SOL     OW 3285   2.914   2.743   1.477 -0.3040  0.1387  0.0737
  822SOL    HW1 3286   2.902   2.715   1.563  1.3329  2.6719 -1.0567
  822SOL    HW2 3287   2.903   2.837   1.478  0.7665 -1.8198 -2.3875
  822SOL     MW 3288   2.911   2.751   1.488  0.0532  0.2145 -0.4002
  823SOL     OW 3289   2.367   0.495   1.863  0.2992  0.4286 -0.1498
  823SOL    HW1 3290   2.426   0.434   1.831 -3.2318  2.0890  1.0255
  823SOL    HW2 3291   2.351   0.464   1.949  0.6508  1.4999 -0.6778
  823SOL     MW 3292   2.373   0.483   1.870 -0.1203  0.7890 -0.0644
  824SOL     OW 3293   2.265   1.471   2.672  0.3170 -0.2008  0.1370
  824SOL    HW1 3294   2.345   1.525   2.675  0.1234 -0.3149  0.4455
  824SOL    HW2 3295   2.191   1.535   2.678  0.6410 -0.2921  0.6506
  824SOL     MW 3296   2.266   1.486   2.673  0.3342 -0.2279  0.2454
  825SOL     OW 3297   1.866   2.586   0.244  0.2819 -0.4934  0.4375
  825SOL    HW1 3298   1.817   2.541   0.312 -1.6935 -1.9789  2.5819
  825SOL    HW2 3299   1.940   2.529   0.223  0.4608  1.7378 -3.6930
  825SOL     MW 3300   1.870   2.573   0.250  0.0449 -0.3950  0.1755
  826SOL     OW 3301   1.797   2.368   0.441 -0.2056  0.3716 -0.1493
  826SOL    HW1 3302   1.770   2.288   0.497  0.4725 -3.6010 -4.5974
  826SOL    HW2 3303   1.812   2.439   0.506 -0.4560  0.0617 -0.7379
  826SOL     MW 3304   1.795   2.367   0.457 -0.1492 -0.1935 -0.8138
  827SOL     OW 3305   1.897   2.219   0.800  0.0893 -0.1902  0.3695
  827SOL    HW1 3306   1.833   2.201   0.730 -2.0486 -0.4217  1.5821
  827SOL    HW2 3307   1.880   2.158   0.873 -1.3543 -0.1308 -3.5774
  827SOL     MW 3308   1.886   2.208   0.801 -0.3832 -0.2129  0.0087
  828SOL     OW 3309   0.044   2.626   0.577  0.3512 -0.2980 -0.1527
  828SOL    HW1 3310   0.138   2.607   0.557 -1.6055 -1.5473 -0.3239
  828SOL    HW2 3311   0.017   2.687   0.508  1.2536 -1.1439 -1.2676
  828SOL     MW 3312   0.053   2.631   0.565  0.2121 -0.5744 -0.3224
  829SOL     OW 3313   2.978   2.928   1.194  0.2040  0.3799  0.1450
  829SOL    HW1 3314   2.893   2.929   1.144  1.5482 -0.2915  2.0871
  829SOL    HW2 3315   3.016   2.840   1.184  0.3451 -1.5526  1.0252
  829SOL     MW 3316   2.972   2.916   1.186  0.4000  0.0363  0.5174
  830SOL     OW 3317   2.559   2.826   2.025  0.6249 -0.5497  0.0047
  830SOL    HW1 3318   2.467   2.808   1.990  1.4409 -0.4597  1.0637
  830SOL    HW2 3319   2.612   2.799   1.949 -1.3596  1.2366  1.4436
  830SOL     MW 3320   2.554   2.820   2.010  0.4707 -0.3021  0.3343
  831SOL     OW 3321   2.368   2.432   1.172 -0.1437 -0.0180  0.3292
  831SOL    HW1 3322   2.327   2.375   1.244 -0.8222  1.1318  0.7869
  831SOL    HW2 3323   2.463   2.430   1.181 -1.8166 -0.5815 -1.3029
  831SOL     MW 3324   2.375   2.424   1.183 -0.4540  0.0593  0.1743
  832SOL     OW 3325   2.355   2.197   1.858  0.3911 -0.0122  0.3669
  832SOL    HW1 3326   2.373   2.288   1.883 -0.9432  0.6785  1.0116
  832SOL    HW2 3327   2.425   2.154   1.812 -0.2919 -2.0010 -2.4167
  832SOL     MW 3328   2.367   2.203   1.855  0.1250 -0.1834  0.0847
  833SOL     OW 3329   1.715   2.475   0.893 -0.7430 -0.4507  0.9205
  833SOL    HW1 3330   1.669   2.405   0.933 -0.0213 -0.6527 -1.1889
  833SOL    HW2 3331   1.696   2.548   0.947  1.5044 -3.8516 -3.6878
  833SOL     MW 3332   1.706   2.475   0.905 -0.3512 -0.9261  0.0342
  834SOL     OW 3333   2.086   2.411   0.576 -0.2856  0.1477  0.2282
  834SOL    HW1 3334   1.992   2.394   0.570 -2.7586  1.6261 -1.5384
  834SOL    HW2 3335   2.127   2.384   0.492  1.7498 -2.8920  0.1828
  834SOL     MW 3336   2.079   2.405   0.564 -0.3433 -0.0583 -0.0108
  835SOL     OW 3337   1.785   2.584   0.632 -0.3075 -0.1135 -0.4581
  835SOL    HW1 3338   1.756   2.527   0.710 -0.7618 -0.4518  4.0819
  835SOL    HW2 3339   1.844   2.632   0.683 -2.8374  0.6982 -0.0040
  835SOL     MW 3340   1.789   2.582   0.649 -0.7012 -0.0511  0.2008
  836SOL     OW 3341   1.892   2.182   1.578  0.2894 -0.4346 -0.2736
  836SOL    HW1 3342   1.974   2.227   1.602 -0.4444 -1.9012  0.7484
  836SOL    HW2 3343   1.824   2.243   1.607 -1.4798 -1.1843  1.2863
  836SOL     MW 3344   1.894   2.196   1.585 -0.0409 -0.7270  0.0671
  837SOL     OW 3345   2.145   0.216   0.709 -0.0657  0.5028 -0.5463
  837SOL    HW1 3346   2.061   0.247   0.670  1.9574 -1.3778  0.3479
  837SOL    HW2 3347   2.180   0.139   0.666 -0.6850  3.7969 -1.3370
  837SOL     MW 3348   2.139   0.210   0.698  0.1195  0.6893 -0.5326
  838SOL     OW 3349   2.932   2.025   0.934  0.0230  0.0476  0.0510
  838SOL    HW1 3350   2.864   1.959   0.943 -0.8222 -0.1927  1.9873
  838SOL    HW2 3351   3.002   1.972   0.895 -0.3642  0.5174 -0.3129
  838SOL     MW 3352   2.932   2.010   0.930 -0.1396  0.0778  0.2585
  839SOL     OW 3353   1.543   2.336   1.034  0.0325  0.2881 -0.0290
  839SOL    HW1 3354   1.550   2.411   1.089  1.7347 -0.0616 -0.7361
  839SOL    HW2 3355   1.561   2.255   1.088  2.0113  0.7040 -0.0612
  839SOL     MW 3356   1.546   2.335   1.048  0.5182  0.2968 -0.1265
  840SOL     OW 3357   2.366   2.193   2.450  0.0645 -0.3502  0.2966
  840SOL    HW1 3358   2.328   2.258   2.395  1.5378 -1.3508  0.3532
  840SOL    HW2 3359   2.353   2.251   2.528 -0.3157 -0.6258 -0.0998
  840SOL     MW 3360   2.359   2.209   2.453  0.2087 -0.5186  0.2518
  841SOL     OW 3361   2.065   2.439   0.121  0.2272  0.0793 -0.3709
  841SOL    HW1 3362   2.083   2.507   0.055 -0.6687  1.4844 -1.0978
  841SOL    HW2 3363   2.066   2.356   0.068  2.4462 -4.4325  1.5535
  841SOL     MW 3364   2.068   2.437   0.106  0.4018 -0.3306 -0.2129
  842SOL     OW 3365   2.686   2.078   1.535  0.2192  0.1607 -0.4447
  842SOL    HW1 3366   2.633   2.037   1.602  1.4910 -0.5759 -1.6476
  842SOL    HW2 3367   2.627   2.068   1.457 -3.2994 -2.6593  1.0221
  842SOL     MW 3368   2.672   2.071   1.534 -0.0772 -0.3086 -0.4099
  843SOL     OW 3369   2.664   2.752   1.785 -0.2776  0.0141 -0.0498
  843SOL    HW1 3370   2.755   2.720   1.773  0.2724 -3.3751 -1.8038
  843SOL    HW2 3371   2.606   2.679   1.742 -1.4860  0.7929  1.8479
  843SOL     MW 3372   2.669   2.738   1.778 -0.3645 -0.3303 -0.0308
  844SOL     OW 3373   2.640   2.386   1.149 -1.0777 -0.0645 -0.0222
  844SOL    HW1 3374   2.693   2.394   1.066  1.3613  3.0139 -0.5038
  844SOL    HW2 3375   2.702   2.418   1.220  1.0045  0.8073 -0.6673
  844SOL     MW 3376   2.656   2.391   1.147 -0.4812  0.4567 -0.1709
  845SOL     OW 3377   2.845   2.503   0.291 -0.2884  0.2709 -0.0513
  845SOL    HW1 3378   2.788   2.421   0.283 -0.8747 -1.9372 -0.4870
  845SOL    HW2 3379   2.873   2.505   0.381  0.0250  1.6333 -3.8837
  845SOL     MW 3380   2.841   2.493   0.302 -0.3244  0.1593 -0.6144
  846SOL     OW 3381   1.597   2.859   0.795 -0.0927 -0.2528  0.1538
  846SOL    HW1 3382   1.676   2.868   0.852 -0.0956 -2.1762  0.5626
  846SOL    HW2 3383   1.530   2.911   0.841  2.4693 -0.7602  0.3217
  846SOL     MW 3384   1.598   2.867   0.809  0.2449 -0.5736  0.2299
  847SOL     OW 3385   2.617   1.943   0.197 -0.3908 -0.9554  0.3712
  847SOL    HW1 3386   2.706   1.902   0.193 -0.8825  0.8110 -2.3571
  847SOL    HW2 3387   2.564   1.909   0.130 -1.9638  2.4853 -2.1571
  847SOL     MW 3388   2.622   1.933   0.187 -0.6632 -0.2684 -0.3223
  848SOL     OW 3389   2.526   2.118   1.298 -0.3169 -0.0216 -0.0546
  848SOL    HW1 3390   2.555   2.188   1.242 -0.8504 -1.8676 -0.6591
  848SOL    HW2 3391   2.523   2.052   1.234  0.9591  0.8445 -1.2950
  848SOL     MW 3392   2.530   2.119   1.282 -0.2189 -0.1509 -0.2980
  849SOL     OW 3393   1.970   2.705   0.795  0.5246  0.6696  0.2265
  849SOL    HW1 3394   1.992   2.630   0.851 -1.1634  0.2869  2.8646
  849SOL    HW2 3395   2.039   2.712   0.731 -1.6110  1.2905 -0.2671
  849SOL     MW 3396   1.982   2.696   0.794  0.0201  0.7010  0.5095
  850SOL     OW 3397   2.171   1.958   1.679  0.3098  0.2368  0.1324
  850SOL    HW1 3398   2.101   1.897   1.647 -0.2114 -1.5531 -1.3479
  850SOL    HW2 3399   2.138   2.045   1.661 -0.1814 -2.5755 -0.1674
  850SOL     MW 3400   2.157   1.962   1.672  0.1762 -0.3704 -0.1025
  851SOL     OW 3401   2.230   2.371   0.346 -0.1972 -0.2661  0.5065
  851SOL    HW1 3402   2.191   2.396   0.264 -1.9811 -2.3016  2.3077
  851SOL    HW2 3403   2.308   2.426   0.350  0.1818 -0.8525  0.4372
  851SOL     MW 3404   2.235   2.382   0.335 -0.3826 -0.6120  0.7350
  852SOL     OW 3405   2.302   2.117   0.232 -0.4739  0.0856 -0.8832
  852SOL    HW1 3406   2.283   2.197   0.285 -1.8514 -0.0225  1.5166
  852SOL    HW2 3407   2.389   2.139   0.192 -0.5153  1.7012 -2.6118
  852SOL     MW 3408   2.311   2.131   0.234 -0.6611  0.2845 -0.7947
  853SOL     OW 3409   2.421   2.444   1.939  0.1919 -0.1820  0.6704
  853SOL    HW1 3410   2.441   2.488   1.853 -0.2661  1.2491  0.6412
  853SOL    HW2 3411   2.497   2.440   1.995 -1.1487  1.6325  1.4832
  853SOL     MW 3412   2.434   2.450   1.935 -0.0454  0.2462  0.7738
  854SOL     OW 3413   2.863   2.218   0.741  0.3112  0.3046 -0.1440
  854SOL    HW1 3414   2.792   2.166   0.701 -0.1575 -0.8954 -0.4502
  854SOL    HW2 3415   2.890   2.159   0.814 -0.4303 -1.2252  0.7308
  854SOL     MW 3416   2.857   2.203   0.745  0.1516 -0.0555 -0.0690
  855SOL     OW 3417   2.692   2.247   0.291 -0.6033  0.5002  0.1655
  855SOL    HW1 3418   2.663   2.270   0.379  1.4827  1.2232 -2.2644
  855SOL    HW2 3419   2.775   2.202   0.307  0.4863 -0.5993 -2.1839
  855SOL     MW 3420   2.699   2.244   0.305 -0.1843  0.4505 -0.4651
  856SOL     OW 3421   2.202   1.878   0.175 -0.2510 -0.2167  0.2275
  856SOL    HW1 3422   2.114   1.882   0.217 -0.6206  0.1090  0.5814
  856SOL    HW2 3423   2.244   1.966   0.199  0.8728  1.0883 -0.3313
  856SOL     MW 3424   2.196   1.890   0.184 -0.1515 -0.0015  0.2005
  857SOL     OW 3425   2.522   1.911   0.455  0.8815  0.0353 -0.1912
  857SOL    HW1 3426   2.551   1.931   0.368 -0.7513  2.1854  1.0800
  857SOL    HW2 3427   2.446   1.862   0.454  3.0634  1.4163  2.3616
  857SOL     MW 3428   2.516   1.907   0.444  0.9539  0.5012  0.3133
  858SOL     OW 3429   2.914   2.655   1.747  0.1195 -0.7585 -0.2283
  858SOL    HW1 3430   2.981   2.691   1.804 -1.4902  0.3456  0.2826
  858SOL    HW2 3431   2.915   2.560   1.772 -0.7280  1.1322  1.2902
  858SOL     MW 3432   2.923   2.647   1.758 -0.2047 -0.3633  0.0395
  859SOL     OW 3433   2.102   2.461   0.904 -0.2002  0.0952 -0.3904
  859SOL    HW1 3434   2.063   2.422   0.828 -0.2474  1.7007  1.7968
  859SOL    HW2 3435   2.187   2.420   0.902 -0.7988 -3.5327  0.0947
  859SOL     MW 3436   2.108   2.451   0.893 -0.2854 -0.1716 -0.0378
  860SOL     OW 3437   2.633   2.629   0.183  0.1752 -0.1461 -0.1774
  860SOL    HW1 3438   2.712   2.609   0.231 -1.7101 -0.2680  0.8021
  860SOL    HW2 3439   2.651   2.704   0.122 -1.3123  0.0610  1.0584
  860SOL     MW 3440   2.646   2.636   0.181 -0.2698 -0.1349  0.1149
  861SOL     OW 3441   1.569   2.102   1.163  0.1419  0.1002  0.0373
  861SOL    HW1 3442   1.656   2.107   1.205 -2.8542  1.2124  0.9181
  861SOL    HW2 3443   1.517   2.045   1.222  0.8653  0.0308  1.3907
  861SOL     MW 3444   1.573   2.095   1.176 -0.1579  0.2378  0.3321
  862SOL     OW 3445   2.399   1.837   1.549 -0.4904  0.1207 -0.2182
  862SOL    HW1 3446   2.329   1.873   1.605  0.9340 -1.7447  0.0462
  862SOL    HW2 3447   2.369   1.852   1.461  0.2536 -2.5043 -0.7856
  862SOL     MW 3448   2.386   1.844   1.545 -0.2043 -0.4718 -0.2582
  863SOL     OW 3449   3.065   1.809   1.158 -0.3086 -0.6213  0.0634
  863SOL    HW1 3450   3.157   1.803   1.187  0.3673  3.6550 -1.3084
  863SOL    HW2 3451   3.035   1.897   1.192  0.9400 -0.8605 -0.1748
  863SOL     MW 3452   3.073   1.820   1.166 -0.0547 -0.0886 -0.1490
  864SOL     OW 3453   0.043   1.858   0.897 -0.4462 -0.6478 -0.4977
  864SOL    HW1 3454  -0.003   1.815   0.967 -0.7443 -1.2706 -1.5826
  864SOL    HW2 3455   0.007   1.816   0.818 -1.3370  1.8782  1.0683
  864SOL     MW 3456   0.032   1.847   0.896 -0.6030 -0.3967 -0.4342
  865SOL     OW 3457   2.523   2.172   0.074  0.3490  0.0328 -0.6773
  865SOL    HW1 3458   2.579   2.109   0.136  0.5500 -1.4057  1.9056
  865SOL    HW2 3459   2.518   2.128  -0.012  0.7823  0.3006  1.2589
  865SOL     MW 3460   2.530   2.158   0.071  0.4327 -0.1217 -0.0810
  866SOL     OW 3461   2.703   2.371   1.593 -0.3165  0.6971 -0.0899
  866SOL    HW1 3462   2.696   2.277   1.572  0.5600  1.7524  0.6718
  866SOL    HW2 3463   2.717   2.416   1.512  0.2504  1.1502  0.3001
  866SOL     MW 3464   2.704   2.365   1.580 -0.1260  0.8961  0.0620
  867SOL     OW 3465   0.076   2.740   1.860 -0.0715  0.5849 -0.4612
  867SOL    HW1 3466   0.149   2.758   1.912 -1.4550 -0.1282  0.2734
  867SOL    HW2 3467   0.058   2.824   1.820 -0.1931 -1.8106 -0.5682
  867SOL     MW 3468   0.084   2.753   1.862 -0.2701  0.1748 -0.3784
  868SOL     OW 3469   2.800   2.558   0.561  0.0234  0.4853 -0.2238
  868SOL    HW1 3470   2.710   2.524   0.565 -0.6294  0.8476 -1.7783
  868SOL    HW2 3471   2.786   2.650   0.530 -2.6842  1.3236  0.8982
  868SOL     MW 3472   2.786   2.566   0.557 -0.4200  0.6437 -0.2809
  869SOL     OW 3473   1.895   2.333   1.053  0.6702 -0.1494 -0.3515
  869SOL    HW1 3474   1.977   2.383   1.033  0.8182  0.3128  1.3237
  869SOL    HW2 3475   1.841   2.326   0.969 -2.8631 -2.2198 -1.3667
  869SOL     MW 3476   1.898   2.339   1.039  0.2236 -0.3616 -0.2644
  870SOL     OW 3477   2.258   0.037   0.536 -0.3888 -0.2769 -0.4362
  870SOL    HW1 3478   2.300   0.085   0.461 -0.0575  1.5190 -0.5715
  870SOL    HW2 3479   2.289  -0.053   0.528 -3.1787 -1.0189  0.5070
  870SOL     MW 3480   2.267   0.031   0.525 -0.7132 -0.1378 -0.3296
  871SOL     OW 3481   2.469   2.052   0.874  0.2996 -1.0443  0.4951
  871SOL    HW1 3482   2.410   1.997   0.822  1.4147  1.3304 -0.9713
  871SOL    HW2 3483   2.420   2.136   0.887  1.2548 -1.4108 -0.1325
  871SOL     MW 3484   2.455   2.056   0.869  0.5727 -0.7794  0.2188
  872SOL     OW 3485   2.017   2.569   1.383 -0.0141 -1.0306  0.0425
  872SOL    HW1 3486   1.994   2.625   1.465 -2.2471  0.1796 -2.2111
  872SOL    HW2 3487   1.959   2.494   1.390 -1.3134  1.9437 -0.9018
  872SOL     MW 3488   2.006   2.567   1.395 -0.4802 -0.4785 -0.3795
  873SOL     OW 3489   2.825   2.083   1.920  0.1405  0.5885  0.5445
  873SOL    HW1 3490   2.854   2.130   1.997  2.1436 -3.0105 -1.7346
  873SOL    HW2 3491   2.891   2.095   1.854 -1.5292  1.2905  0.0388
  873SOL     MW 3492   2.838   2.091   1.922  0.1845  0.2063  0.1770
  874SOL     OW 3493   2.437   1.510   2.345 -0.2798 -0.0092  0.5512
  874SOL    HW1 3494   2.359   1.465   2.359  1.2764 -0.1805  0.9933
  874SOL    HW2 3495   2.492   1.438   2.316 -2.9914 -1.5343  1.0247
  874SOL     MW 3496   2.434   1.495   2.343 -0.4322 -0.2330  0.6720
  875SOL     OW 3497   2.323   2.309   0.911 -0.1838 -0.0816 -0.1190
  875SOL    HW1 3498   2.387   2.359   0.852  3.4893  0.1158 -0.6528
  875SOL    HW2 3499   2.334   2.336   1.003 -1.8029 -1.8876 -0.9260
  875SOL     MW 3500   2.333   2.319   0.915  0.0872 -0.2938 -0.2959
  876SOL     OW 3501   3.040   2.327   1.328 -0.5067 -0.4527  0.1594
  876SOL    HW1 3502   3.082   2.335   1.240  1.0947  1.4419 -1.4330
  876SOL    HW2 3503   3.086   2.402   1.361 -1.3388  2.7678  1.0408
  876SOL     MW 3504   3.052   2.338   1.321 -0.4052  0.2222  0.0656
  877SOL     OW 3505   3.034   2.754   0.321 -0.5538 -0.2490 -0.1882
  877SOL    HW1 3506   3.018   2.835   0.275 -1.7745 -0.7190  1.0606
  877SOL    HW2 3507   3.060   2.689   0.255 -1.0853  1.8145 -0.9477
  877SOL     MW 3508   3.036   2.756   0.306 -0.7849 -0.0388 -0.1237
  878SOL     OW 3509   2.321   1.811   1.276 -0.9119 -0.2732  0.1326
  878SOL    HW1 3510   2.257   1.740   1.285  0.1112 -0.2252 -1.9747
  878SOL    HW2 3511   2.412   1.783   1.269 -1.5430  0.0095 -1.4855
  878SOL     MW 3512   2.324   1.798   1.276 -0.8602 -0.2296 -0.3590
  879SOL     OW 3513   2.772   2.425   0.910 -0.4446  0.1971 -0.7498
  879SOL    HW1 3514   2.842   2.485   0.930  1.5061  1.8203  1.3478
  879SOL    HW2 3515   2.797   2.371   0.837 -0.0568 -0.2717  2.4084
  879SOL     MW 3516   2.784   2.426   0.903 -0.1361  0.3494 -0.0563
  880SOL     OW 3517   2.653   2.036   0.664 -0.6066  0.5503  0.0874
  880SOL    HW1 3518   2.604   2.049   0.750 -3.9730  0.0487  1.9287
  880SOL    HW2 3519   2.587   1.996   0.606 -1.2155  0.0139 -2.2070
  880SOL     MW 3520   2.638   2.033   0.668 -1.1311  0.4134  0.0276
  881SOL     OW 3521   2.927   2.689   0.771 -0.2241 -0.1570 -0.1902
  881SOL    HW1 3522   2.854   2.645   0.719 -2.2974 -0.8371 -2.0171
  881SOL    HW2 3523   3.006   2.675   0.724  0.5402  0.0194  0.9051
  881SOL     MW 3524   2.927   2.681   0.758 -0.3968 -0.2234 -0.2868
  882SOL     OW 3525   2.329   2.775   1.878 -0.2568  0.2541  0.0205
  882SOL    HW1 3526   2.307   2.777   1.787  0.3716  1.6214  1.2261
  882SOL    HW2 3527   2.248   2.739   1.914  1.6328 -0.4162 -0.4559
  882SOL     MW 3528   2.316   2.770   1.871  0.0754  0.3461  0.1167
  883SOL     OW 3529   2.258   2.253   1.357  0.0603  0.7005  0.1183
  883SOL    HW1 3530   2.337   2.201   1.355  1.2536 -0.2448  0.0476
  883SOL    HW2 3531   2.195   2.203   1.296 -0.1136 -0.6459 -0.4779
  883SOL     MW 3532   2.260   2.239   1.349  0.1948  0.3982  0.0303
  884SOL     OW 3533   1.917   1.865   1.121 -0.6318  0.2040  0.1086
  884SOL    HW1 3534   1.866   1.897   1.047  0.9853  1.6825 -0.8884
  884SOL    HW2 3535   2.006   1.887   1.104 -0.5674  2.6835 -0.4638
  884SOL     MW 3536   1.922   1.872   1.109 -0.4100  0.7262 -0.0985
  885SOL     OW 3537   2.780   2.410   1.852 -0.4520 -0.0112 -0.4435
  885SOL    HW1 3538   2.867   2.368   1.867  3.6782  2.8401  2.8638
  885SOL    HW2 3539   2.753   2.368   1.771 -1.4523 -1.9768  0.2844
  885SOL     MW 3540   2.788   2.399   1.843 -0.0390  0.1057  0.0889
  886SOL     OW 3541   2.808   2.509   1.365 -0.2687 -1.3692  0.4871
  886SOL    HW1 3542   2.885   2.452   1.354  0.8946  0.1137 -1.7660
  886SOL    HW2 3543   2.838   2.597   1.397 -0.9854  0.6567 -0.5435
  886SOL     MW 3544   2.822   2.513   1.368 -0.2098 -0.9063  0.0538
  887SOL     OW 3545   2.302   2.612   1.481  0.0849 -0.1784  0.5170
  887SOL    HW1 3546   2.327   2.658   1.399 -0.0667 -2.3180  0.1112
  887SOL    HW2 3547   2.210   2.600   1.466  0.6541  1.8884 -0.6736
  887SOL     MW 3548   2.293   2.617   1.468  0.1400 -0.1881  0.3064
  888SOL     OW 3549   1.795   2.081   1.330  0.2307  0.0951 -0.0224
  888SOL    HW1 3550   1.864   2.038   1.283 -0.8994 -0.1184  0.1332
  888SOL    HW2 3551   1.821   2.089   1.424 -0.0317  0.1859  1.1405
  888SOL     MW 3552   1.808   2.077   1.336  0.0470  0.0789  0.1516
  889SOL     OW 3553   2.332   2.037   2.098  0.1494 -0.7123 -0.1420
  889SOL    HW1 3554   2.419   2.027   2.140  1.2111  0.2784 -0.6264
  889SOL    HW2 3555   2.329   2.119   2.053  0.4718 -0.3063  3.9171
  889SOL     MW 3556   2.343   2.047   2.097  0.3320 -0.5280  0.3297
  890SOL     OW 3557   0.125   2.304   0.103  0.2452  0.0081 -0.2292
  890SOL    HW1 3558   0.111   2.398   0.101 -0.2553 -1.7048 -0.0846
  890SOL    HW2 3559   0.105   2.287   0.198 -1.8062  1.0150  1.2750
  890SOL     MW 3560   0.121   2.314   0.116 -0.0915 -0.0851 -0.0117
  891SOL     OW 3561   3.052   2.050   1.326 -0.0290  0.1559 -0.2832
  891SOL    HW1 3562   3.132   2.027   1.372 -3.7649  0.2342  1.3025
  891SOL    HW2 3563   3.046   2.143   1.324  2.1313 -0.1650 -0.0296
  891SOL     MW 3564   3.062   2.060   1.331 -0.2369  0.1239 -0.0405
  892SOL     OW 3565   2.350   2.393   2.979  0.1921  0.3459  0.0077
  892SOL    HW1 3566   2.386   2.355   3.062  1.7717 -1.4515  0.3411
  892SOL    HW2 3567   2.434   2.400   2.930  1.5712  1.8942  1.5089
  892SOL     MW 3568   2.366   2.389   2.983  0.5825  0.3130  0.2498
  893SOL     OW 3569   1.584   2.534   1.224 -0.6977 -0.4378  0.0752
  893SOL    HW1 3570   1.507   2.534   1.285  1.0151  2.4604  1.3336
  893SOL    HW2 3571   1.654   2.479   1.264 -1.8442  2.9864 -1.2163
  893SOL     MW 3572   1.583   2.527   1.237 -0.6229  0.3964  0.0708
  894SOL     OW 3573   2.849   1.896   0.515 -0.2855  0.1160 -0.1255
  894SOL    HW1 3574   2.785   1.946   0.575 -2.3759  2.7643  0.6444
  894SOL    HW2 3575   2.788   1.866   0.439 -1.6010 -2.0957 -3.1940
  894SOL     MW 3576   2.832   1.899   0.513 -0.7349  0.1736 -0.4287
  895SOL     OW 3577   2.081   2.140   1.179 -0.1975  0.4177 -0.1224
  895SOL    HW1 3578   2.013   2.177   1.122 -0.5551  0.3058 -0.0768
  895SOL    HW2 3579   2.111   2.064   1.132  1.6444  0.6378 -0.8081
  895SOL     MW 3580   2.076   2.135   1.165 -0.0016  0.4319 -0.2069
  896SOL     OW 3581   2.196   2.839   1.060  0.1840 -0.1534  0.1441
  896SOL    HW1 3582   2.249   2.825   1.141 -1.0591  0.1592  0.5811
  896SOL    HW2 3583   2.127   2.777   1.069  1.9515  2.1970  1.9382
  896SOL     MW 3584   2.194   2.829   1.072  0.2532  0.1979  0.4384
  897SOL     OW 3585   2.969   2.955   0.159 -0.0300  0.5354  0.0078
  897SOL    HW1 3586   3.061   2.953   0.119  1.9738 -1.1862  0.4034
  897SOL    HW2 3587   2.909   2.896   0.111  1.9282  0.3359  4.2819
  897SOL     MW 3588   2.974   2.947   0.147  0.4928  0.2820  0.6239
  898SOL     OW 3589   2.075   0.185   1.416 -0.0788  0.0301  0.3425
  898SOL    HW1 3590   2.019   0.123   1.365  0.5387 -0.5729  2.1130
  898SOL    HW2 3591   2.146   0.223   1.365 -1.3422  0.0289 -0.3119
  898SOL     MW 3592   2.077   0.182   1.402 -0.1641 -0.0496  0.4897
  899SOL     OW 3593   2.891   2.967   0.666  0.3877  0.4039  0.5939
  899SOL    HW1 3594   2.870   2.890   0.724  0.4335 -1.6403 -1.7364
  899SOL    HW2 3595   2.816   3.029   0.667 -0.8621  0.0950  0.9912
  899SOL     MW 3596   2.878   2.965   0.674  0.2288  0.0934  0.3388
  900SOL     OW 3597   0.124   2.376   1.117  0.0026 -0.0034 -0.3319
  900SOL    HW1 3598   0.144   2.467   1.095  2.1511 -0.6548  0.0607
  900SOL    HW2 3599   0.105   2.339   1.031  1.5151  0.3401 -0.1039
  900SOL     MW 3600   0.124   2.383   1.103  0.4856 -0.0440 -0.2500
  901SOL     OW 3601   1.729   2.811   1.745  0.0487  0.2114 -0.4536
  901SOL    HW1 3602   1.797   2.761   1.700  0.2732  1.0796 -0.8563
  901SOL    HW2 3603   1.655   2.775   1.689  0.2215  2.4859 -0.7335
  901SOL     MW 3604   1.728   2.800   1.731  0.1011  0.6260 -0.5437
  902SOL     OW 3605   2.573   2.004   1.811 -0.2372 -0.4339  0.5105
  902SOL    HW1 3606   2.555   1.930   1.867  0.8024  0.7345 -0.7234
  902SOL    HW2 3607   2.661   2.029   1.844  0.8070  0.1753  0.9476
  902SOL     MW 3608   2.582   1.998   1.823  0.0378 -0.1994  0.4054
  903SOL     OW 3609   1.644   2.786   0.517 -0.2208  0.4652 -0.0605
  903SOL    HW1 3610   1.670   2.694   0.549 -1.3695  0.2985  0.4151
  903SOL    HW2 3611   1.613   2.840   0.598  0.2580  0.7665  1.8904
  903SOL     MW 3612   1.643   2.781   0.532 -0.3092  0.4830  0.2596
  904SOL     OW 3613   2.504   2.543   1.663  0.2050  0.5481  0.0749
  904SOL    HW1 3614   2.439   2.535   1.597  0.8959  3.4253  2.5863
  904SOL    HW2 3615   2.582   2.486   1.646 -0.5425 -1.1481 -0.9881
  904SOL     MW 3616   2.506   2.534   1.652  0.1975  0.7039  0.2660
  905SOL     OW 3617   2.345   2.592   2.153  0.2956 -0.0348  0.5077
  905SOL    HW1 3618   2.362   2.553   2.069 -1.8355 -1.0220  1.8424
  905SOL    HW2 3619   2.327   2.519   2.216  1.4815  1.9338  3.2530
  905SOL     MW 3620   2.345   2.577   2.150  0.1709  0.0947  1.0460
  906SOL     OW 3621   2.507   2.474   0.820 -0.1884 -0.4332 -0.2799
  906SOL    HW1 3622   2.601   2.463   0.852  1.4213 -1.7770 -1.3216
  906SOL    HW2 3623   2.493   2.566   0.836  2.2362 -1.9156  1.0925
  906SOL     MW 3624   2.518   2.485   0.826  0.3439 -0.8061 -0.2363
  907SOL     OW 3625   2.606   2.878   1.265  0.2595  0.4163 -0.1318
  907SOL    HW1 3626   2.672   2.854   1.330  1.6241 -0.3064 -0.3564
  907SOL    HW2 3627   2.647   2.883   1.179  0.2235 -0.1092  0.9039
  907SOL     MW 3628   2.620   2.876   1.262  0.4348  0.2516 -0.0248
  908SOL     OW 3629   2.708   2.391   0.029  0.1722  0.4021 -0.3107
  908SOL    HW1 3630   2.664   2.327   0.093  0.5036 -0.7901  3.8577
  908SOL    HW2 3631   2.688   2.469   0.072 -0.6342 -3.3813  0.7806
  908SOL     MW 3632   2.700   2.393   0.043  0.1095 -0.2544  0.3833
  909SOL     OW 3633   1.624   0.230   1.012 -0.3862 -0.2638  0.2500
  909SOL    HW1 3634   1.658   0.313   0.975  1.3368 -0.9374 -0.0700
  909SOL    HW2 3635   1.602   0.257   1.103  1.1647  3.0331 -2.2734
  909SOL     MW 3636   1.625   0.244   1.019  0.0458  0.0823 -0.1252
  910SOL     OW 3637   2.286   1.744   0.397  0.1895  0.5015  0.0783
  910SOL    HW1 3638   2.202   1.711   0.418  0.4335  2.7032  1.8065
  910SOL    HW2 3639   2.282   1.775   0.305 -0.2711  0.6107  1.3141
  910SOL     MW 3640   2.274   1.744   0.388  0.1609  0.8064  0.4694
  911SOL     OW 3641   2.154   2.268   1.639 -0.3369  0.9747  0.5140
  911SOL    HW1 3642   2.217   2.241   1.702  0.5323  2.0163 -1.4287
  911SOL    HW2 3643   2.206   2.284   1.560  2.4664 -2.0003 -0.8704
  911SOL     MW 3644   2.169   2.267   1.637  0.1477  0.7196  0.0750
  912SOL     OW 3645   2.894   1.903   1.490  0.4025  0.2321  0.2132
  912SOL    HW1 3646   2.944   1.950   1.419  0.9227  1.7820 -0.6990
  912SOL    HW2 3647   2.818   1.954   1.510 -0.2987  2.2707  2.5735
  912SOL     MW 3648   2.891   1.916   1.483  0.3786  0.7056  0.4042
  913SOL     OW 3649   2.537   2.957   0.390  0.0381  0.0789  0.5479
  913SOL    HW1 3650   2.606   2.886   0.395  0.1192 -2.5036 -1.4204
  913SOL    HW2 3651   2.454   2.912   0.411 -1.3413  0.8595 -0.6402
  913SOL     MW 3652   2.535   2.941   0.393 -0.1332 -0.1588  0.1314
  914SOL     OW 3653   2.784   1.635   0.035  0.0233  0.8134 -0.1032
  914SOL    HW1 3654   2.786   1.698  -0.033 -1.6271  0.3844  3.1306
  914SOL    HW2 3655   2.696   1.638   0.067  4.8064 -2.0841 -1.2013
  914SOL     MW 3656   2.773   1.643   0.030  0.4366  0.3745  0.1786
  915SOL     OW 3657   1.842   0.156   0.216 -0.1812  0.0688  0.0557
  915SOL    HW1 3658   1.907   0.106   0.267 -1.5092  0.0109  1.9584
  915SOL    HW2 3659   1.756   0.141   0.251  0.2671 -2.5140 -0.8648
  915SOL     MW 3660   1.839   0.148   0.227 -0.2972 -0.2796  0.1853
  916SOL     OW 3661   1.826   2.088   1.966 -0.0078 -0.2009  0.6340
  916SOL    HW1 3662   1.810   2.185   1.959 -0.3931 -0.5945  1.0598
  916SOL    HW2 3663   1.817   2.049   1.877 -0.2328 -0.7680 -0.4623
  916SOL     MW 3664   1.823   2.095   1.953 -0.0883 -0.3276  0.5455
  917SOL     OW 3665   2.290   2.336   2.695  0.2788  0.5240 -0.0403
  917SOL    HW1 3666   2.289   2.306   2.788  1.5119 -1.1472 -0.2382
  917SOL    HW2 3667   2.290   2.429   2.705  0.6249 -0.4694 -0.5328
  917SOL     MW 3668   2.290   2.344   2.709  0.4871  0.1724 -0.1314
  918SOL     OW 3669   2.073   1.665   2.669  0.2969  0.4496 -0.1016
  918SOL    HW1 3670   2.001   1.686   2.607  1.1578 -2.4906 -2.4705
  918SOL    HW2 3671   2.133   1.737   2.654 -1.4545  0.5309  1.6913
  918SOL     MW 3672   2.071   1.677   2.659  0.1794  0.0724 -0.1776
  919SOL     OW 3673   3.062   2.400   2.276  0.0313 -0.4815  0.0984
  919SOL    HW1 3674   2.997   2.337   2.249  2.3764  5.0825  1.3815
  919SOL    HW2 3675   3.131   2.379   2.218  2.2983 -1.5211 -0.1502
  919SOL     MW 3676   3.063   2.389   2.265  0.6398  0.1155  0.2349
  920SOL     OW 3677   2.776   2.848   0.012  0.4441  0.1571 -0.1100
  920SOL    HW1 3678   2.691   2.886   0.032 -1.3552 -2.1698  0.5402
  920SOL    HW2 3679   2.767   2.791  -0.066 -0.9864 -1.8419  1.0957
  920SOL     MW 3680   2.764   2.846   0.005  0.0180 -0.4137  0.1349
  921SOL     OW 3681   2.522   2.621   2.691 -0.0983 -0.6009 -0.4586
  921SOL    HW1 3682   2.590   2.636   2.627  0.7997  0.9688 -1.1274
  921SOL    HW2 3683   2.549   2.538   2.725 -2.6034  3.9549  0.1136
  921SOL     MW 3684   2.535   2.612   2.687 -0.3104  0.2073 -0.4713
  922SOL     OW 3685   2.030   2.812   0.262  0.3953 -0.1070 -0.5127
  922SOL    HW1 3686   2.016   2.856   0.173 -2.1562 -3.4245  0.7097
  922SOL    HW2 3687   1.971   2.728   0.257  0.1687 -2.0322  2.0603
  922SOL     MW 3688   2.021   2.807   0.250  0.0288 -0.7987 -0.0120
  923SOL     OW 3689   2.204   2.818   1.635  0.2910  0.1566  0.3768
  923SOL    HW1 3690   2.265   2.772   1.575  1.3353  2.5029  0.1230
  923SOL    HW2 3691   2.194   2.908   1.605 -0.2431 -2.8685  0.5071
  923SOL     MW 3692   2.210   2.824   1.623  0.3583  0.0671  0.3605
  924SOL     OW 3693   1.169   2.766   2.482  0.2878  0.3166 -0.0788
  924SOL    HW1 3694   1.213   2.848   2.448  1.7970 -0.4013 -0.5156
  924SOL    HW2 3695   1.208   2.727   2.558  0.4452  0.8620  0.8429
  924SOL     MW 3696   1.180   2.771   2.487  0.5077  0.2938 -0.0148
  925SOL     OW 3697   2.961   0.207   2.680 -0.0350 -0.0218 -0.3772
  925SOL    HW1 3698   2.971   0.241   2.590 -0.4949 -1.0353  3.0849
  925SOL    HW2 3699   2.950   0.288   2.723 -2.6572  1.2201 -1.3792
  925SOL     MW 3700   2.961   0.222   2.674 -0.4416  0.0083 -0.0527
  926SOL     OW 3701   2.656   2.392   2.091  0.0157 -0.0383  0.2092
  926SOL    HW1 3702   2.701   2.461   2.137  0.5875  0.2562  0.1549
  926SOL    HW2 3703   2.708   2.402   2.007 -2.3054  1.8919 -1.6093
  926SOL     MW 3704   2.669   2.402   2.086 -0.2151  0.2552 -0.0379
  927SOL     OW 3705   2.365   0.160   0.297 -0.2222 -0.2673  0.3716
  927SOL    HW1 3706   2.459   0.180   0.278 -1.4721  1.0231  1.9631
  927SOL    HW2 3707   2.326   0.151   0.215  2.0979  0.9061 -0.9948
  927SOL     MW 3708   2.372   0.162   0.283 -0.0810  0.0578  0.4013
  928SOL     OW 3709   2.004   2.505   1.793 -0.0873  0.0996 -0.5584
  928SOL    HW1 3710   2.077   2.442   1.784  3.0519 -0.9040  0.4392
  928SOL    HW2 3711   2.019   2.562   1.868 -1.6909 -0.8314  0.7837
  928SOL     MW 3712   2.016   2.505   1.802  0.1153 -0.1556 -0.2497
  929SOL     OW 3713   2.769   2.352   2.435  0.2760 -0.0835  0.4465
  929SOL    HW1 3714   2.679   2.340   2.401 -1.0293  3.3102 -2.1581
  929SOL    HW2 3715   2.775   2.297   2.514  0.9286  1.0306 -2.5195
  929SOL     MW 3716   2.758   2.343   2.441  0.1899  0.5113 -0.2885
  930SOL     OW 3717   2.015   2.887   2.648  0.2477  0.5929  0.4924
  930SOL    HW1 3718   2.008   2.817   2.710  1.4101  0.2909 -1.3617
  930SOL    HW2 3719   2.110   2.906   2.649 -1.2904  1.6564  0.1605
  930SOL     MW 3720   2.027   2.880   2.656  0.1981  0.6933  0.2040
  931SOL     OW 3721   2.933   2.838   2.199 -0.0250 -0.3015  0.6822
  931SOL    HW1 3722   3.005   2.787   2.166  1.2726  1.2181 -0.4786
  931SOL    HW2 3723   2.869   2.837   2.125 -1.4051  1.4796  2.0521
  931SOL     MW 3724   2.934   2.831   2.185 -0.0359  0.1340  0.7098
  932SOL     OW 3725   2.824   1.920   2.563 -0.1517  0.0404  0.5190
  932SOL    HW1 3726   2.913   1.947   2.586  1.3233  0.2079 -0.5941
  932SOL    HW2 3727   2.834   1.908   2.474  0.7930 -0.1201  3.0291
  932SOL     MW 3728   2.837   1.922   2.554  0.1675  0.0413  0.7033
  933SOL     OW 3729   2.058   2.817   2.233 -0.4866  0.0365 -0.1405
  933SOL    HW1 3730   2.131   2.838   2.293 -4.5876  3.0987  0.3670
  933SOL    HW2 3731   2.017   2.903   2.230  1.4428 -1.7100  0.2207
  933SOL     MW 3732   2.062   2.831   2.240 -0.7731  0.2101 -0.0259
  934SOL     OW 3733   2.005   2.684   2.467  0.7022  0.3637 -0.2432
  934SOL    HW1 3734   2.011   2.757   2.523 -0.3466 -1.5770 -0.8106
  934SOL    HW2 3735   2.009   2.706   2.371  0.1834 -1.0145 -1.6557
  934SOL     MW 3736   2.007   2.696   2.462  0.4954 -0.0742 -0.5044
  935SOL     OW 3737   2.610   1.607   1.798 -0.6012 -0.1710 -0.1063
  935SOL    HW1 3738   2.693   1.580   1.756 -2.4593 -0.4700  1.7808
  935SOL    HW2 3739   2.556   1.622   1.729  2.8279  0.1616  1.0716
  935SOL     MW 3740   2.614   1.606   1.784 -0.3939 -0.1665  0.2981
  936SOL     OW 3741   2.948   2.241   3.043 -0.0157 -0.1151 -0.3800
  936SOL    HW1 3742   3.037   2.261   3.072 -3.0143  0.8865 -0.4251
  936SOL    HW2 3743   2.907   2.329   3.041  0.9523  0.6643  0.2874
  936SOL     MW 3744   2.955   2.256   3.046 -0.2836  0.1199 -0.2979
  937SOL     OW 3745   1.985   2.187   2.636 -0.0132 -0.1516  0.4691
  937SOL    HW1 3746   2.045   2.136   2.697 -0.0786 -1.8314 -1.7946
  937SOL    HW2 3747   2.029   2.168   2.551  0.0923 -0.0388 -0.7873
  937SOL     MW 3748   1.999   2.178   2.633 -0.0079 -0.3583  0.0046
  938SOL     OW 3749   2.263   1.849   1.921  0.3516  0.2806  0.1410
  938SOL    HW1 3750   2.224   1.898   1.850  1.9030 -0.6427 -1.7641
  938SOL    HW2 3751   2.283   1.918   1.980 -0.2379 -1.4189 -2.8551
  938SOL     MW 3752   2.260   1.864   1.920  0.4785 -0.0654 -0.5057
  939SOL     OW 3753   2.802   1.967   2.268  0.0637 -0.9377 -0.0575
  939SOL    HW1 3754   2.805   1.899   2.205  0.5728 -1.7172  1.3496
  939SOL    HW2 3755   2.706   1.979   2.288 -2.5900 -1.2164  0.2779
  939SOL     MW 3756   2.790   1.959   2.262 -0.2192 -1.0773  0.1724
  940SOL     OW 3757   2.269   0.147   2.683 -0.3705 -0.1451  0.0451
  940SOL    HW1 3758   2.245   0.057   2.660 -1.3029  2.3804  1.3179
  940SOL    HW2 3759   2.338   0.146   2.752  0.1673  0.4363  0.0814
  940SOL     MW 3760   2.275   0.135   2.689 -0.4225  0.2649  0.2178
  941SOL     OW 3761   0.173   2.371   2.076  0.2768 -0.2853 -0.1208
  941SOL    HW1 3762   0.228   2.299   2.073 -0.4041  2.2020  2.1993
  941SOL    HW2 3763   0.104   2.357   2.007 -1.6579 -1.7462 -0.9166
  941SOL     MW 3764   0.171   2.359   2.067 -0.0683 -0.1499  0.0803
  942SOL     OW 3765   2.890   2.223   2.166  0.1415  0.2059  0.1262
  942SOL    HW1 3766   2.802   2.256   2.149 -0.2621  2.4378 -0.5985
  942SOL    HW2 3767   2.873   2.149   2.233  0.8765  0.2052  0.1763
  942SOL     MW 3768   2.876   2.217   2.173  0.1852  0.5003  0.0372
  943SOL     OW 3769   0.252   2.002   2.316  0.5148 -0.2276  0.0395
  943SOL    HW1 3770   0.188   2.071   2.354 -0.6615  4.5606 -1.3719
  943SOL    HW2 3771   0.334   2.012   2.365  1.1754  1.6910  0.6449
  943SOL     MW 3772   0.254   2.012   2.327  0.4468  0.6573 -0.0668
  944SOL     OW 3773   2.118   2.665   2.011 -0.2512 -0.0850 -0.1956
  944SOL    HW1 3774   2.181   2.615   2.061 -0.2840 -0.4446 -0.9002
  944SOL    HW2 3775   2.076   2.725   2.075  0.2155  0.2630 -3.4476
  944SOL     MW 3776   2.121   2.666   2.026 -0.1939 -0.0865 -0.7176
  945SOL     OW 3777   2.763   2.679   2.902  0.1259  0.4420 -0.9715
  945SOL    HW1 3778   2.700   2.604   2.917  1.0256 -0.6045  0.0041
  945SOL    HW2 3779   2.817   2.666   2.822  0.1247  0.2182  0.3198
  945SOL     MW 3780   2.762   2.667   2.894  0.2444  0.2744 -0.6724
  946SOL     OW 3781   2.546   2.736   2.289 -0.3711  0.6664  0.2076
  946SOL    HW1 3782   2.574   2.791   2.213 -2.5417 -0.4991 -1.7869
  946SOL    HW2 3783   2.478   2.679   2.256 -3.0724 -1.6959  1.8762
  946SOL     MW 3784   2.541   2.735   2.275 -1.0139  0.2010  0.1646
  947SOL     OW 3785   2.047   0.039   0.356 -0.1248 -0.3315 -0.6212
  947SOL    HW1 3786   2.076  -0.024   0.297 -0.1230 -0.3096 -0.8729
  947SOL    HW2 3787   2.117   0.039   0.428  3.6310 -3.4746  3.3283
  947SOL     MW 3788   2.060   0.030   0.358  0.3710 -0.7434 -0.1333
  948SOL     OW 3789   1.832   3.096   2.627 -0.2812 -0.2168 -1.1661
  948SOL    HW1 3790   1.907   3.035   2.638  0.9703  1.1496 -0.9273
  948SOL    HW2 3791   1.854   3.141   2.548 -1.7451 -0.3159 -1.6879
  948SOL     MW 3792   1.845   3.094   2.618 -0.3092 -0.0496 -1.2034
  949SOL     OW 3793   2.540   2.015   2.313 -0.0659 -0.7696  0.3056
  949SOL    HW1 3794   2.534   1.925   2.354  0.2792  0.1751 -1.0152
  949SOL    HW2 3795   2.488   2.067   2.373 -1.8528 -2.4294  1.4095
  949SOL     MW 3796   2.533   2.010   2.326 -0.2562 -0.8640  0.2770
  950SOL     OW 3797   2.200   2.632   3.044 -0.8959  0.0904 -0.3344
  950SOL    HW1 3798   2.258   2.561   3.021  0.6731  0.2489  1.5595
  950SOL    HW2 3799   2.150   2.651   2.964 -0.9488 -2.2658  0.4257
  950SOL     MW 3800   2.201   2.625   3.030 -0.6959 -0.1996  0.0157
  951SOL     OW 3801   2.894   2.052   2.863  0.4591  0.2849 -0.3842
  951SOL    HW1 3802   2.931   2.118   2.917 -0.7613 -0.5648 -0.3433
  951SOL    HW2 3803   2.964   2.049   2.791 -0.4959 -1.4193  0.2003
  951SOL     MW 3804   2.908   2.061   2.861  0.1721 -0.0520 -0.3016
  952SOL     OW 3805   3.094   1.633   2.090 -0.1369  0.1372 -0.0625
  952SOL    HW1 3806   3.007   1.660   2.074  0.7408 -1.3475 -0.4055
  952SOL    HW2 3807   3.146   1.710   2.126 -0.2377  0.0777 -1.7709
  952SOL     MW 3808   3.089   1.647   2.092 -0.0344 -0.0665 -0.3332
  953SOL     OW 3809   1.952   1.823   2.841  1.2030  0.3147  0.8542
  953SOL    HW1 3810   1.868   1.779   2.862  0.0754  1.0701  1.8766
  953SOL    HW2 3811   1.985   1.749   2.784  1.0150  1.0107  0.1545
  953SOL     MW 3812   1.945   1.807   2.836  1.0295  0.5062  0.8968
  954SOL     OW 3813   2.420   2.069   2.919  0.5091  0.8207  0.5380
  954SOL    HW1 3814   2.332   2.091   2.889 -1.3860  0.1386 -1.4587
  954SOL    HW2 3815   2.470   2.030   2.839 -1.1693  0.6185  0.0360
  954SOL     MW 3816   2.415   2.067   2.904  0.0376  0.7040  0.2084
  955SOL     OW 3817   1.574   1.640   2.605 -0.1874  0.1430  0.2028
  955SOL    HW1 3818   1.544   1.616   2.520 -0.7407  2.3338  0.4230
  955SOL    HW2 3819   1.669   1.657   2.600  3.5511  2.2133 -0.8582
  955SOL     MW 3820   1.582   1.639   2.593  0.2329  0.7052  0.0918
  956SOL     OW 3821   2.619   2.416   2.864  0.0182 -0.2566  0.2708
  956SOL    HW1 3822   2.655   2.386   2.954 -2.0411  0.0114 -1.4449
  956SOL    HW2 3823   2.670   2.355   2.805  0.7232 -0.4612  0.5810
  956SOL     MW 3824   2.631   2.404   2.868 -0.1605 -0.2482  0.0854
  957SOL     OW 3825   2.305   2.806   0.414 -0.1131 -0.6982  0.5961
  957SOL    HW1 3826   2.245   2.825   0.341  0.4574  1.8944 -2.6168
  957SOL    HW2 3827   2.240   2.772   0.481  0.0093  2.4408 -3.0778
  957SOL     MW 3828   2.288   2.804   0.413 -0.0217  0.0580 -0.3125
  958SOL     OW 3829   2.011   2.694   2.852 -0.4595 -0.2501  0.1624
  958SOL    HW1 3830   1.980   2.620   2.794 -1.5458 -0.4157 -0.7938
  958SOL    HW2 3831   1.937   2.720   2.899  0.9722 -2.1143 -0.0492
  958SOL     MW 3832   1.997   2.688   2.850 -0.4139 -0.5179  0.0083
  959SOL     OW 3833   2.418   2.562   0.340  0.9119  0.1025 -0.4763
  959SOL    HW1 3834   2.488   2.576   0.276 -0.1862 -1.3852 -0.3908
  959SOL    HW2 3835   2.370   2.643   0.345 -0.1087 -0.4403  2.4796
  959SOL     MW 3836   2.421   2.574   0.332  0.6323 -0.1654 -0.0750
  960SOL     OW 3837   1.951   2.422   2.304 -0.3390 -0.3322  0.0847
  960SOL    HW1 3838   1.960   2.333   2.335  1.5979  1.6908 -1.6288
  960SOL    HW2 3839   1.901   2.460   2.371  0.2751 -2.4543  0.4037
  960SOL     MW 3840   1.945   2.416   2.317 -0.0024 -0.3453 -0.0993
  961SOL     OW 3841   2.241   2.401   2.327 -0.3932 -0.3030  0.4963
  961SOL    HW1 3842   2.153   2.374   2.298  2.2397  1.9169 -0.6352
  961SOL    HW2 3843   2.228   2.471   2.387  2.6342 -1.4149 -2.2219
  961SOL     MW 3844   2.227   2.407   2.331  0.3536 -0.1568 -0.0116
  962SOL     OW 3845   2.167   2.069   2.786 -0.4144  0.2815  0.3362
  962SOL    HW1 3846   2.141   2.015   2.866  0.2826 -1.5586  0.5221
  962SOL    HW2 3847   2.208   2.006   2.722  1.0729 -1.3603 -2.2526
  962SOL     MW 3848   2.169   2.053   2.789 -0.1262 -0.1779  0.0192
  963SOL     OW 3849   1.751   2.546   2.147  0.6439  0.5053 -0.5407
  963SOL    HW1 3850   1.819   2.522   2.207 -2.7465  0.8159 -2.5858
  963SOL    HW2 3851   1.759   2.492   2.068 -1.8751  0.9079  1.6391
  963SOL     MW 3852   1.761   2.535   2.144 -0.1358  0.5994 -0.5229
  964SOL     OW 3853   1.807   1.983   2.647  0.1500 -0.3564  0.6205
  964SOL    HW1 3854   1.850   2.073   2.640 -0.2076  1.3028  0.2037
  964SOL    HW2 3855   1.847   1.932   2.721 -1.6630 -3.0484 -0.5178
  964SOL     MW 3856   1.818   1.988   2.656 -0.1364 -0.4927  0.4153
  965SOL     OW 3857   2.190   2.705   0.633  0.6145  0.0693 -0.0754
  965SOL    HW1 3858   2.177   2.610   0.652 -0.1844  0.0146  2.6904
  965SOL    HW2 3859   2.262   2.735   0.696 -0.4084  0.9903  2.4683
  965SOL     MW 3860   2.198   2.697   0.644  0.3741  0.1836  0.6251
  966SOL     OW 3861   2.710   2.627   2.493 -0.3702  0.3367 -0.5362
  966SOL    HW1 3862   2.660   2.655   2.414 -0.4448 -0.3958 -1.8072
  966SOL    HW2 3863   2.735   2.537   2.469  0.2248  1.5368 -0.9837
  966SOL     MW 3864   2.707   2.619   2.479 -0.3015  0.3984 -0.7629
  967SOL     OW 3865   2.898   3.013   2.910  0.2551 -0.4959  0.2287
  967SOL    HW1 3866   2.853   2.967   2.979  2.1062 -0.8101  0.0841
  967SOL    HW2 3867   2.813   3.041   2.865 -0.9570  1.2120  2.2389
  967SOL     MW 3868   2.881   3.011   2.913  0.3394 -0.3120  0.4748
  968SOL     OW 3869   3.020   2.540   3.024 -0.0805  0.1199  0.3305
  968SOL    HW1 3870   2.946   2.596   2.999  4.8176 -1.6136 -0.1350
  968SOL    HW2 3871   3.035   2.491   2.947  1.3203  1.6503  0.6249
  968SOL     MW 3872   3.012   2.541   3.011  0.7506  0.0931  0.3080
  969SOL     OW 3873   1.540   2.096   1.718  0.7364 -0.2314  0.3823
  969SOL    HW1 3874   1.621   2.041   1.726 -3.3932  0.3095  3.6370
  969SOL    HW2 3875   1.515   2.098   1.812 -1.3170 -1.4319  1.6588
  969SOL     MW 3876   1.547   2.089   1.731 -0.0794 -0.3184  0.9802
  970SOL     OW 3877   1.674   1.712   1.850 -0.3302  0.0653  0.0237
  970SOL    HW1 3878   1.730   1.666   1.914  1.0740 -0.8960 -1.2336
  970SOL    HW2 3879   1.590   1.718   1.890  0.6307 -1.4083  1.6243
  970SOL     MW 3880   1.670   1.707   1.864 -0.0181 -0.2560  0.0690
  971SOL     OW 3881   1.855   0.104   2.375  0.1001 -0.7176 -0.3812
  971SOL    HW1 3882   1.896   0.060   2.303 -1.9055  0.2934  0.4903
  971SOL    HW2 3883   1.906   0.191   2.386  0.4157  2.3183  3.2442
  971SOL     MW 3884   1.867   0.109   2.367 -0.1229 -0.1837  0.2121
  972SOL     OW 3885   0.274   2.806   2.545  0.3004 -0.2340 -0.2277
  972SOL    HW1 3886   0.330   2.727   2.543  3.8805 -1.1805  2.3356
  972SOL    HW2 3887   0.337   2.876   2.542  0.0742 -0.2237  2.5391
  972SOL     MW 3888   0.290   2.805   2.544  0.7429 -0.3575  0.4755
  973SOL     OW 3889   2.610   3.095   2.052 -0.1589  0.2376 -0.2513
  973SOL    HW1 3890   2.582   3.002   2.033 -2.4752  2.7079  2.0855
  973SOL    HW2 3891   2.623   3.139   1.969 -0.7586 -1.6422 -1.2633
  973SOL     MW 3892   2.608   3.088   2.038 -0.5436  0.3155 -0.0765
  974SOL     OW 3893   2.079   0.344   2.735  0.2221 -0.3420  0.2285
  974SOL    HW1 3894   2.159   0.293   2.722  1.4551  0.9791  2.5259
  974SOL    HW2 3895   2.015   0.281   2.775  1.7041  1.4798  0.4296
  974SOL     MW 3896   2.081   0.329   2.739  0.5803  0.0727  0.5581
  975SOL     OW 3897   2.273   2.596   2.549 -0.5078 -0.3918 -0.0656
  975SOL    HW1 3898   2.357   2.596   2.590 -2.1947  0.9412 -0.1622
  975SOL    HW2 3899   2.239   2.683   2.546  0.7793 -0.5680  0.0981
  975SOL     MW 3900   2.279   2.607   2.554 -0.5605 -0.2392 -0.0568
  976SOL     OW 3901   0.231   0.263   1.731 -0.2084  0.2101 -0.2777
  976SOL    HW1 3902   0.290   0.201   1.767 -2.9860 -0.1436 -3.8351
  976SOL    HW2 3903   0.145   0.213   1.712 -1.5212 -0.4797  1.4426
  976SOL     MW 3904   0.227   0.248   1.733 -0.7481  0.0724 -0.5201
  977SOL     OW 3905   1.669   2.768   2.458 -0.1148  0.1561 -0.3595
  977SOL    HW1 3906   1.695   2.672   2.445 -0.8328 -0.7633  1.3412
  977SOL    HW2 3907   1.754   2.801   2.437  0.4794 -1.5388  1.7694
  977SOL     MW 3908   1.683   2.759   2.454 -0.1311 -0.1889  0.1458
   3.10000   3.10000   3.10000
