1000 SPC/Fw water molecules
 3000
    1SOL     OW    1   1.036   2.537   0.319 -0.3859  0.1076  0.0749
    1SOL    HW1    2   0.955   2.583   0.355  1.8860  0.4032  0.2606
    1SOL    HW2    3   1.010   2.445   0.275 -0.3033 -1.0817 -0.7543
    2SOL     OW    4   2.594   0.440   1.351  0.4643  0.1789  0.2902
    2SOL    HW1    5   2.586   0.357   1.408 -0.9993 -0.0388 -1.5902
    2SOL    HW2    6   2.511   0.506   1.368 -3.2497  1.8634  2.1425
    3SOL     OW    7   0.654   3.038   0.193  0.8061  0.2728  0.6398
    3SOL    HW1    8   0.714   3.120   0.213  0.8213  1.6649 -2.2265
    3SOL    HW2    9   0.671   3.014   0.093  0.6427  1.7423 -0.0451
    4SOL     OW   10   1.930   1.876   2.911 -0.2844  0.5323  0.1793
    4SOL    HW1   11   2.029   1.861   2.925  0.1425  0.8060  0.6301
    4SOL    HW2   12   1.872   1.894   2.994 -2.7831  0.1272 -1.2649
    5SOL     OW   13   0.682   1.067   1.891 -0.6618  0.2744  0.6577
    5SOL    HW1   14   0.597   1.023   1.931  0.5438  0.9802  4.0766
    5SOL    HW2   15   0.656   1.120   1.811  2.5176 -0.2394 -0.3794
    6SOL     OW   16   3.061   1.654   2.127  0.7419  0.1996 -0.1527
    6SOL    HW1   17   3.064   1.625   2.030 -2.6099  1.1167  0.1246
    6SOL    HW2   18   2.975   1.700   2.150  0.0073  0.6614 -0.6422
    7SOL     OW   19   0.153   0.614   1.516 -0.9947 -0.6020 -0.5774
    7SOL    HW1   20   0.222   0.689   1.520 -0.5430 -1.7505  1.6422
    7SOL    HW2   21   0.184   0.537   1.572  0.2526 -0.6079  1.3377
    8SOL     OW   22   1.699   2.590   2.600 -0.0430 -0.7251 -0.2008
    8SOL    HW1   23   1.716   2.690   2.596 -1.3449 -0.6615  1.6904
    8SOL    HW2   24   1.773   2.533   2.641  1.3654  2.3326  0.1451
    9SOL     OW   25   0.620   2.199   0.228 -0.1434 -0.3705 -0.2519
    9SOL    HW1   26   0.701   2.203   0.286  2.2586 -0.2705 -1.3189
    9SOL    HW2   27   0.537   2.207   0.288 -0.5564  1.3995 -1.3529
   10SOL     OW   28   3.027   2.309   1.993  0.2219  0.6153 -0.4629
   10SOL    HW1   29   3.113   2.353   2.031  2.5774  0.2447 -3.5700
   10SOL    HW2   30   3.057   2.258   1.911  2.2540 -0.4175  0.4169
   11SOL     OW   31   2.961   1.519   2.695  0.4505  0.4828 -1.0888
   11SOL    HW1   32   2.869   1.507   2.649 -1.1501  1.8897  2.9640
   11SOL    HW2   33   3.020   1.579   2.638  0.6048  0.4226  0.9143
   12SOL     OW   34   1.824   0.144   0.826 -0.3788 -0.2341 -0.5139
   12SOL    HW1   35   1.912   0.188   0.869 -2.2708 -1.8604  1.8056
   12SOL    HW2   36   1.739   0.181   0.877  0.7469  1.4528 -0.1344
   13SOL     OW   37   0.272   0.782   2.398 -0.4694 -0.1671 -0.3926
   13SOL    HW1   38   0.282   0.718   2.318  0.1340  0.1852 -0.1485
   13SOL    HW2   39   0.358   0.818   2.434 -1.8483 -0.3958  0.1390
   14SOL     OW   40   1.729   1.503   1.130  0.1903 -0.0625  0.1379
   14SOL    HW1   41   1.704   1.472   1.223 -2.0607  3.4501 -3.4608
   14SOL    HW2   42   1.756   1.427   1.067 -0.0033 -0.7230 -0.2539
   15SOL     OW   43   1.382   1.589   2.095  0.1799 -0.3024 -0.0950
   15SOL    HW1   44   1.409   1.560   2.188 -2.6992  0.9374 -1.8240
   15SOL    HW2   45   1.444   1.667   2.060 -0.4852 -2.6536  3.4151
   16SOL     OW   46   1.532   1.229   2.876  0.0873 -0.0743  0.0935
   16SOL    HW1   47   1.627   1.232   2.828 -0.3642 -0.9783  0.2368
   16SOL    HW2   48   1.530   1.295   2.955 -0.1979  0.4847  0.3787
   17SOL     OW   49   2.475   2.965   1.783 -0.4427  0.4115 -0.2107
   17SOL    HW1   50   2.474   2.938   1.686 -1.2913 -0.8425  0.8611
   17SOL    HW2   51   2.434   2.891   1.841  2.6557  0.1693  0.1035
   18SOL     OW   52   0.605   1.401   0.337 -0.7974 -0.0673 -0.6678
   18SOL    HW1   53   0.509   1.424   0.365 -1.1650  0.0608 -0.4217
   18SOL    HW2   54   0.674   1.452   0.395  1.0437 -0.8199  2.9394
   19SOL     OW   55   0.113   1.262   1.515  0.2531  0.2667  0.3027
   19SOL    HW1   56   0.036   1.210   1.475  0.0990  2.5702  0.9705
   19SOL    HW2   57   0.119   1.357   1.482  0.5652 -1.0366  0.5881
   20SOL     OW   58   1.483   2.085   1.923 -1.0098  0.3681  0.2740
   20SOL    HW1   59   1.449   2.124   1.835  0.1051  1.1074 -0.1893
   20SOL    HW2   60   1.420   2.103   1.999 -1.6190 -1.3377 -1.8179
   21SOL     OW   61   2.248   1.844   0.625 -0.1423 -0.5041  0.2204
   21SOL    HW1   62   2.323   1.897   0.673  0.6922  1.9783 -1.6611
   21SOL    HW2   63   2.188   1.894   0.563 -0.9564 -1.5756 -1.6011
   22SOL     OW   64   1.387   3.093   1.472  0.5867  0.2588  0.2040
   22SOL    HW1   65   1.429   3.004   1.494  1.2155 -2.2991  2.5238
   22SOL    HW2   66   1.402   3.120   1.376 -0.2781 -1.5926  0.4337
   23SOL     OW   67   0.141   0.450   1.887  0.5832 -0.0848 -0.4080
   23SOL    HW1   68   0.178   0.360   1.870 -0.1353 -0.7971 -1.1942
   23SOL    HW2   69   0.219   0.515   1.899 -1.1816 -0.2460  1.7372
   24SOL     OW   70   1.778   1.525   2.211  0.1770 -0.4945  0.3167
   24SOL    HW1   71   1.799   1.625   2.203  0.3539  0.1206  0.9459
   24SOL    HW2   72   1.838   1.473   2.273 -1.5662 -1.0729 -0.7600
   25SOL     OW   73   1.983   2.669   2.747  0.2405 -0.2945  0.2350
   25SOL    HW1   74   1.947   2.572   2.736  4.2564 -0.6154  0.6799
   25SOL    HW2   75   1.920   2.740   2.710  0.0059  3.4162 -1.8207
   26SOL     OW   76   0.827   2.646   1.058  0.4801 -0.1359 -0.1331
   26SOL    HW1   77   0.816   2.684   1.151  0.0054 -1.8424 -2.0112
   26SOL    HW2   78   0.865   2.719   0.999 -2.8348 -1.3068 -2.6477
   27SOL     OW   79   0.962   1.596   0.734  0.4215 -0.3457  0.3843
   27SOL    HW1   80   1.001   1.689   0.736  1.0273  1.8058  2.9681
   27SOL    HW2   81   1.043   1.530   0.713 -0.9364 -2.1015  1.1958
   28SOL     OW   82   1.729   2.321   0.213 -0.5724 -0.3774  0.6885
   28SOL    HW1   83   1.651   2.348   0.272 -1.1925 -2.2516  2.2830
   28SOL    HW2   84   1.798   2.395   0.223 -1.6080 -0.0288  0.3662
   29SOL     OW   85   2.004   2.742   2.399  0.1495 -0.0726  0.2809
   29SOL    HW1   86   1.986   2.702   2.308  4.1360  1.9639  1.3933
   29SOL    HW2   87   2.054   2.679   2.461  0.1245  2.5493 -0.5966
   30SOL     OW   88   0.057   2.723   1.502 -0.4873 -0.6310 -0.0028
   30SOL    HW1   89  -0.004   2.798   1.528  1.1808  1.2429  1.2793
   30SOL    HW2   90   0.097   2.686   1.586  0.8271  0.2890  0.0950
   31SOL     OW   91   2.792   2.304   2.622 -0.2203  0.1604 -0.1583
   31SOL    HW1   92   2.759   2.369   2.696  0.8363 -1.5721 -0.0640
   31SOL    HW2   93   2.814   2.350   2.532  1.0449  0.3674  0.5062
   32SOL     OW   94   0.804   2.372   2.458  0.9473 -0.2239  0.2010
   32SOL    HW1   95   0.872   2.448   2.452 -3.1140 -3.6650 -0.5471
   32SOL    HW2   96   0.732   2.402   2.526 -0.8968  4.5591 -1.5488
   33SOL     OW   97   0.070   0.518   0.309 -0.1907 -0.3616  0.1595
   33SOL    HW1   98   0.025   0.581   0.242  0.0832  0.3108 -1.3962
   33SOL    HW2   99   0.173   0.534   0.315 -1.8868  2.0800  2.7937
   34SOL     OW  100   2.366   2.959   0.117 -0.0275 -0.7394 -0.3891
   34SOL    HW1  101   2.424   2.885   0.158 -0.0889  1.1139  1.0613
   34SOL    HW2  102   2.267   2.942   0.130  0.0689  0.4763  2.4600
   35SOL     OW  103   2.135   0.201   1.667 -0.6074 -0.6792  0.0001
   35SOL    HW1  104   2.229   0.236   1.678  0.3689  2.1215 -0.6007
   35SOL    HW2  105   2.120   0.107   1.697  0.0561 -0.7824 -0.3219
   36SOL     OW  106   2.940   0.076   2.831  0.1407  0.0188  0.0807
   36SOL    HW1  107   2.967   0.171   2.860  1.6800  2.0354  0.4452
   36SOL    HW2  108   2.924   0.020   2.917 -0.5079  0.1932  0.9243
   37SOL     OW  109   1.321   2.246   0.211  0.3552  0.3733 -0.2189
   37SOL    HW1  110   1.275   2.333   0.186 -0.6704  1.1842  0.3320
   37SOL    HW2  111   1.324   2.180   0.135  0.3915 -2.5209 -0.3004
   38SOL     OW  112   0.695   2.583   0.805 -1.0472  0.2088  0.0179
   38SOL    HW1  113   0.726   2.616   0.895 -0.4353 -1.8575  0.4641
   38SOL    HW2  114   0.669   2.667   0.747 -0.4009 -1.4769  1.1906
   39SOL     OW  115   1.225   2.531   1.955 -0.0733 -0.5295 -0.0139
   39SOL    HW1  116   1.150   2.570   1.899 -0.7817  1.4480 -1.5441
   39SOL    HW2  117   1.256   2.604   2.018  0.3893  1.5599  0.1103
   40SOL     OW  118   0.358   0.493   0.299 -0.2657 -0.6649  0.1171
   40SOL    HW1  119   0.416   0.419   0.258  0.4238 -2.0218  0.8120
   40SOL    HW2  120   0.412   0.573   0.330 -0.9975  0.3361  1.0905
   41SOL     OW  121   0.525   0.264   1.907  0.4758 -0.0831  0.0591
   41SOL    HW1  122   0.613   0.218   1.887 -0.1248 -0.2636  2.1264
   41SOL    HW2  123   0.530   0.363   1.912 -2.7267  1.4405  1.0078
   42SOL     OW  124   2.433   1.008   1.176  0.0949 -0.0865  0.2888
   42SOL    HW1  125   2.360   0.961   1.223  0.1204  1.7504 -0.7849
   42SOL    HW2  126   2.491   1.057   1.246  0.0454  2.1155  2.6400
   43SOL     OW  127   0.883   0.023   0.797  0.6383 -0.4859  0.0264
   43SOL    HW1  128   0.898   0.098   0.862 -0.4389  2.1571  0.8252
   43SOL    HW2  129   0.791   0.029   0.744 -1.7243 -0.4416 -1.6290
   44SOL     OW  130   0.160   0.399   0.520 -0.1147 -0.4193  0.7434
   44SOL    HW1  131   0.127   0.451   0.442 -2.0299  0.6617  0.2753
   44SOL    HW2  132   0.176   0.304   0.481  1.8088 -2.7354  0.3016
   45SOL     OW  133   0.669   1.725   1.792  0.2560  0.6525  0.0743
   45SOL    HW1  134   0.686   1.624   1.796  0.1075  0.8964 -0.0189
   45SOL    HW2  135   0.737   1.774   1.851  0.6246 -0.7206  1.7106
   46SOL     OW  136   2.236   2.747   1.482  0.0119  0.3604  0.3982
   46SOL    HW1  137   2.169   2.748   1.404  0.0873 -3.0590  2.6276
   46SOL    HW2  138   2.278   2.655   1.484  1.7987 -0.4534  0.7826
   47SOL     OW  139   0.580   1.438   0.994  0.3059  0.4314 -0.1086
   47SOL    HW1  140   0.589   1.536   1.000 -0.1419 -0.8545  1.3554
   47SOL    HW2  141   0.563   1.410   0.900 -0.0457 -1.2770 -0.2527
   48SOL     OW  142   1.202   3.036   0.023  0.2742 -0.4811 -0.3486
   48SOL    HW1  143   1.174   3.021   0.123  0.9985  1.8100 -3.0310
   48SOL    HW2  144   1.306   3.043   0.018 -0.4865  1.3641 -0.2370
   49SOL     OW  145   2.407   2.085   2.270 -0.3151  0.0736 -0.6749
   49SOL    HW1  146   2.425   2.055   2.366  0.9097 -0.7065 -1.0620
   49SOL    HW2  147   2.386   2.010   2.210  0.9902  1.8348  2.4052
   50SOL     OW  148   3.089   1.532   0.039  0.1961 -0.4805 -0.3141
   50SOL    HW1  149   3.032   1.542   0.122  1.7121  1.7387  3.5554
   50SOL    HW2  150   3.026   1.546  -0.040  1.9432 -1.2421 -0.3190
   51SOL     OW  151   1.052   0.411   0.859  0.4466  0.1529 -0.6160
   51SOL    HW1  152   1.150   0.423   0.828  0.0844  2.5191  1.6668
   51SOL    HW2  153   1.012   0.495   0.903  0.4316 -1.8676  0.7204
   52SOL     OW  154   3.076   0.497   0.709  0.5592  0.4185 -0.8031
   52SOL    HW1  155   3.013   0.568   0.667  0.4897 -1.9505  0.2204
   52SOL    HW2  156   3.139   0.458   0.641  1.7950 -1.6344 -1.2228
   53SOL     OW  157   0.905   2.815   0.199  0.1805  0.2312  0.2331
   53SOL    HW1  158   0.875   2.734   0.254  0.1170 -0.2766  0.8188
   53SOL    HW2  159   0.999   2.853   0.224  2.9326 -0.2702 -0.7237
   54SOL     OW  160   1.692   2.905   2.027  0.2273 -0.2173  0.5986
   54SOL    HW1  161   1.681   2.973   1.950  1.5914 -0.2269 -2.4769
   54SOL    HW2  162   1.713   2.815   1.980 -1.2405  0.0523  2.1486
   55SOL     OW  163   1.442   0.260   2.939 -0.6377 -0.2157 -0.1567
   55SOL    HW1  164   1.351   0.281   2.893  0.9183 -2.7471  1.5139
   55SOL    HW2  165   1.485   0.176   2.892  1.1535  3.2362 -2.1232
   56SOL     OW  166   1.014   1.074   2.233 -0.1400 -0.0623  0.2127
   56SOL    HW1  167   0.952   1.132   2.178 -0.9119  3.2322 -2.1803
   56SOL    HW2  168   1.111   1.101   2.230  1.7017  0.1340 -0.7500
   57SOL     OW  169   2.113   1.100   0.015  0.1658 -0.5309 -0.5171
   57SOL    HW1  170   2.212   1.117   0.037  0.1279 -0.5045 -0.6633
   57SOL    HW2  171   2.062   1.092   0.106  1.1913  0.8005  0.3088
   58SOL     OW  172   0.463   0.954   2.024  0.1195 -0.0461  0.0982
   58SOL    HW1  173   0.434   1.032   2.081  2.4085 -1.4914  1.4629
   58SOL    HW2  174   0.520   0.887   2.076 -1.9183  2.9758 -2.3995
   59SOL     OW  175   0.953   2.963   2.714 -0.8773 -0.7023  0.5975
   59SOL    HW1  176   1.034   2.954   2.775 -0.6561 -3.0378 -1.1580
   59SOL    HW2  177   0.873   2.913   2.749 -0.6408 -0.9513 -1.7982
   60SOL     OW  178   2.170   1.794   0.229  0.8584 -0.1316 -0.3480
   60SOL    HW1  179   2.119   1.824   0.315  0.5817 -1.3556 -0.9527
   60SOL    HW2  180   2.169   1.865   0.153  0.4226 -0.6964  3.4685
   61SOL     OW  181   1.521   2.289   0.406 -0.7834 -0.0669  0.2145
   61SOL    HW1  182   1.450   2.262   0.336 -1.6104  0.0111  1.4252
   61SOL    HW2  183   1.481   2.291   0.501 -1.8325  0.0938 -0.2674
   62SOL     OW  184   1.974   2.595   3.059 -0.5296  0.5600  0.1237
   62SOL    HW1  185   2.064   2.640   3.040 -1.3379  0.9108 -1.5970
   62SOL    HW2  186   1.901   2.639   2.997  1.6623 -0.2707 -2.1917
   63SOL     OW  187   2.655   0.498   0.298 -0.4236  0.1042  0.2263
   63SOL    HW1  188   2.583   0.549   0.249  0.4281 -1.6986 -1.0392
   63SOL    HW2  189   2.642   0.490   0.398 -1.0557  0.1488 -0.0941
   64SOL     OW  190   1.654   1.048   0.057  0.7287 -0.3282  0.3446
   64SOL    HW1  191   1.559   1.028   0.021  1.4231 -2.1611 -2.7667
   64SOL    HW2  192   1.722   0.974   0.047 -2.4872  1.2132  2.0624
   65SOL     OW  193   0.320   2.690   1.240  0.1697  0.2982 -0.5948
   65SOL    HW1  194   0.338   2.673   1.141  2.1732 -1.8966 -2.1125
   65SOL    HW2  195   0.265   2.779   1.247  1.2400 -0.2546  1.7710
   66SOL     OW  196   1.180   1.382   1.069 -0.5001 -0.3740 -0.1300
   66SOL    HW1  197   1.182   1.485   1.091 -1.9595 -0.5111  2.4268
   66SOL    HW2  198   1.262   1.336   1.105  1.5457  3.0855  0.3053
   67SOL     OW  199   3.049   2.488   2.337 -0.3567 -0.1967 -0.8372
   67SOL    HW1  200   2.962   2.452   2.379  1.5704  1.5024  0.9137
   67SOL    HW2  201   3.029   2.570   2.281 -0.2651 -2.9928 -1.8517
   68SOL     OW  202   0.924   1.513   1.703 -0.3718 -0.1333 -0.1301
   68SOL    HW1  203   0.845   1.483   1.760 -2.3954  0.8485 -4.1606
   68SOL    HW2  204   1.010   1.506   1.762 -0.0787  0.3130  0.0785
   69SOL     OW  205   2.951   0.702   0.553  0.7379  0.3727 -0.6228
   69SOL    HW1  206   2.965   0.692   0.452  0.1522 -1.0590  1.6455
   69SOL    HW2  207   2.891   0.781   0.575 -0.9329  1.6257 -0.6873
   70SOL     OW  208   2.107   1.534   2.683 -0.0318 -0.6553  0.3011
   70SOL    HW1  209   2.177   1.548   2.612 -0.1219  1.9206  0.4410
   70SOL    HW2  210   2.013   1.560   2.652 -1.0690 -1.6106  2.4860
   71SOL     OW  211   0.639   2.008   3.090  0.1686  0.0248  0.0915
   71SOL    HW1  212   0.628   2.074   3.167 -3.4963 -0.5689  1.1130
   71SOL    HW2  213   0.684   2.051   3.006 -1.2286  0.2658  2.7949
   72SOL     OW  214   2.477   1.741   0.302 -0.0189 -0.1687 -0.0177
   72SOL    HW1  215   2.382   1.772   0.270 -0.4956  0.9255  0.1200
   72SOL    HW2  216   2.462   1.680   0.380  0.4899 -2.2341  1.4692
   73SOL     OW  217   0.881   0.730   0.611  0.2554 -0.1932 -0.0333
   73SOL    HW1  218   0.901   0.627   0.592 -0.9532  2.0865  1.0054
   73SOL    HW2  219   0.955   0.789   0.565  0.8670  1.7659 -1.5054
   74SOL     OW  220   0.267   0.214   1.853  0.0652 -0.4336 -0.0519
   74SOL    HW1  221   0.252   0.118   1.825  2.2467  3.5201 -3.6666
   74SOL    HW2  222   0.367   0.230   1.880  1.9955 -2.9184  0.4287
   75SOL     OW  223   2.154   1.462   2.130 -0.3389  0.2921  0.5667
   75SOL    HW1  224   2.148   1.553   2.179 -1.0372 -0.2125  2.1644
   75SOL    HW2  225   2.071   1.404   2.138 -0.6017  0.9160 -0.4923
   76SOL     OW  226   2.240   2.078   0.975  0.0289  0.5828 -0.0071
   76SOL    HW1  227   2.154   2.043   0.938 -0.2386  1.8967  1.3732
   76SOL    HW2  228   2.313   2.027   0.932  3.6481  0.9082 -0.2881
   77SOL     OW  229   2.530   0.640   2.465 -0.3170  0.0649 -0.2189
   77SOL    HW1  230   2.595   0.717   2.462  2.2533 -2.9555 -1.0287
   77SOL    HW2  231   2.439   0.682   2.434 -1.7273 -1.6134  1.8075
   78SOL     OW  232   2.004   0.502   0.216  0.5557  1.0626  0.1279
   78SOL    HW1  233   1.988   0.448   0.299  0.8271  1.9533 -0.0162
   78SOL    HW2  234   1.916   0.532   0.176  1.5099  0.2789  1.0140
   79SOL     OW  235   0.426   1.761   1.869 -0.1139 -0.1987 -0.0805
   79SOL    HW1  236   0.524   1.753   1.833 -0.8826  1.5043 -0.8502
   79SOL    HW2  237   0.436   1.787   1.966  0.3818  1.2552  1.4336
   80SOL     OW  238   1.104   0.564   1.929  0.0602 -0.1756 -0.3633
   80SOL    HW1  239   1.113   0.588   2.029 -1.3705 -1.4676 -0.5461
   80SOL    HW2  240   1.172   0.496   1.902 -1.7142 -4.1568 -0.3125
   81SOL     OW  241   0.183   2.647   2.393  0.1504  0.2289  0.1171
   81SOL    HW1  242   0.237   2.640   2.478 -0.6730  1.0684 -0.1062
   81SOL    HW2  243   0.104   2.587   2.389 -0.9197  2.2152 -0.9900
   82SOL     OW  244   1.867   1.124   1.566  0.0849  0.0226  0.2927
   82SOL    HW1  245   1.895   1.040   1.617  0.0158  0.8060 -2.2531
   82SOL    HW2  246   1.844   1.098   1.468  4.8164 -0.6900  0.9063
   83SOL     OW  247   0.116   2.139   0.450 -0.2670 -0.2734 -0.6535
   83SOL    HW1  248   0.056   2.198   0.391  0.8967  1.7908 -0.2073
   83SOL    HW2  249   0.128   2.182   0.544 -2.4872  1.0977  2.3871
   84SOL     OW  250   2.447   1.589   1.465 -0.3158  0.5308  0.2523
   84SOL    HW1  251   2.366   1.604   1.403 -1.8888 -3.5369 -0.8699
   84SOL    HW2  252   2.475   1.492   1.482 -2.1159  1.5369  1.5082
   85SOL     OW  253   2.749   0.748   0.857  0.3454  0.5117 -0.3177
   85SOL    HW1  254   2.693   0.828   0.880 -0.4258  1.4061  4.1034
   85SOL    HW2  255   2.840   0.748   0.906 -0.7533 -0.2443 -3.8746
   86SOL     OW  256   1.275   2.299   1.830 -0.8459  0.0538 -0.0142
   86SOL    HW1  257   1.184   2.254   1.818 -0.5929 -2.8010 -0.2032
   86SOL    HW2  258   1.265   2.380   1.886 -0.8259 -0.2010  3.0065
   87SOL     OW  259   1.885   1.721   0.760  0.3575 -0.3990 -0.3402
   87SOL    HW1  260   1.846   1.732   0.670 -0.0120  2.1337  0.1972
   87SOL    HW2  261   1.979   1.682   0.760  2.1573 -1.3125 -3.1545
   88SOL     OW  262   0.690   2.214   1.162 -1.0621  0.2413 -0.1037
   88SOL    HW1  263   0.603   2.263   1.193 -1.4349 -0.8766  2.9993
   88SOL    HW2  264   0.759   2.282   1.133 -0.7257 -2.2226 -0.6041
   89SOL     OW  265   0.675   0.979   1.569 -0.1631 -0.0677 -0.5390
   89SOL    HW1  266   0.765   1.003   1.527 -2.2099  1.4324  0.5456
   89SOL    HW2  267   0.640   1.050   1.631 -0.3613 -1.5173 -2.3661
   90SOL     OW  268   2.640   1.441   0.154 -0.3664 -0.3026 -0.3869
   90SOL    HW1  269   2.679   1.533   0.177 -1.0948  0.4198  1.8918
   90SOL    HW2  270   2.670   1.416   0.060 -4.9791  2.7650  1.4818
   91SOL     OW  271   0.791   1.556   0.478 -0.0616 -0.4054 -0.0424
   91SOL    HW1  272   0.817   1.589   0.571 -0.3040  1.0337 -0.0337
   91SOL    HW2  273   0.875   1.522   0.429  1.2033  1.2975  2.0346
   92SOL     OW  274   1.383   3.033   1.755  0.3450 -0.1822  0.4484
   92SOL    HW1  275   1.373   3.071   1.662  0.3701 -1.2957  0.1687
   92SOL    HW2  276   1.475   3.055   1.790 -0.2080  0.5721 -0.2480
   93SOL     OW  277   0.752   2.352   2.182  0.2185 -0.3147  0.2193
   93SOL    HW1  278   0.712   2.259   2.163 -2.2559  0.7206 -1.7629
   93SOL    HW2  279   0.790   2.348   2.280 -1.9870  0.8488 -1.5254
   94SOL     OW  280   2.928   2.835   1.726 -0.2063 -0.5098  0.2315
   94SOL    HW1  281   2.914   2.894   1.643 -0.3141 -1.4384  1.3066
   94SOL    HW2  282   2.864   2.862   1.804 -1.5101  1.4214  0.7147
   95SOL     OW  283   1.300   0.220   1.621  0.0460  0.3003 -0.2811
   95SOL    HW1  284   1.353   0.150   1.580 -1.2178  1.3262  0.8078
   95SOL    HW2  285   1.219   0.240   1.564  3.4050  1.7200 -0.3896
   96SOL     OW  286   0.410   0.549   1.910 -0.3480 -0.0101 -0.1023
   96SOL    HW1  287   0.403   0.645   1.867 -3.1242 -0.8909 -0.0921
   96SOL    HW2  288   0.441   0.556   2.010 -1.5186  0.8856  0.2223
   97SOL     OW  289   1.776   3.050   0.637  0.0039  0.4099  0.1767
   97SOL    HW1  290   1.778   3.093   0.543 -1.2731  1.7936  0.4907
   97SOL    HW2  291   1.815   3.113   0.707  0.0706  0.5416  0.5755
   98SOL     OW  292   1.349   2.156   2.150  0.0645 -0.4216  0.3634
   98SOL    HW1  293   1.268   2.220   2.156  0.8221 -0.1735  1.9096
   98SOL    HW2  294   1.348   2.100   2.236 -0.1553  0.7174 -2.0304
   99SOL     OW  295   0.478   0.950   0.653  0.1271 -0.4134 -0.2518
   99SOL    HW1  296   0.437   0.858   0.677 -0.8741 -1.4530 -1.6632
   99SOL    HW2  297   0.571   0.941   0.608 -2.3802 -0.4383  0.3419
  100SOL     OW  298   0.107   2.263   2.363  0.1012 -0.6102 -0.2048
  100SOL    HW1  299   0.055   2.174   2.384  1.2400  0.7671  1.9081
  100SOL    HW2  300   0.045   2.346   2.353 -2.0848  0.3782  2.0703
  101SOL     OW  301   1.875   0.256   0.011  0.2048  0.1514  0.1348
  101SOL    HW1  302   1.967   0.243   0.046 -1.9865 -0.2796  0.0773
  101SOL    HW2  303   1.869   0.317  -0.074  0.0190 -0.1450  0.0109
  102SOL     OW  304   2.349   2.731   0.716 -0.0743 -0.5560 -0.4603
  102SOL    HW1  305   2.358   2.825   0.751  1.6987  1.7645 -0.4232
  102SOL    HW2  306   2.411   2.714   0.642  0.8376 -0.7889 -2.0444
  103SOL     OW  307   0.157   0.359   2.250 -0.0333  0.7925 -0.1901
  103SOL    HW1  308   0.168   0.325   2.346  1.2052  0.9746  0.6495
  103SOL    HW2  309   0.120   0.288   2.189  3.0547 -3.0423  0.3548
  104SOL     OW  310   0.475   2.192   1.685  0.1103  0.0091  0.2983
  104SOL    HW1  311   0.558   2.163   1.625  0.4927 -0.7878  0.4457
  104SOL    HW2  312   0.495   2.286   1.725  1.1586 -1.7439 -0.2640
  105SOL     OW  313   0.805   1.201   2.088 -0.0881 -0.3927  0.8582
  105SOL    HW1  314   0.780   1.164   1.999 -2.1023  1.3772 -2.2019
  105SOL    HW2  315   0.753   1.157   2.165  0.1323  1.2870  1.0771
  106SOL     OW  316   0.350   2.231   0.319 -1.0689  0.4320  0.0122
  106SOL    HW1  317   0.272   2.192   0.368  1.6222  2.2417  1.2534
  106SOL    HW2  318   0.340   2.204   0.219  1.4402  0.8283  0.5090
  107SOL     OW  319   0.913   1.971   0.959  0.2613 -0.3844 -0.4294
  107SOL    HW1  320   0.945   1.970   1.059 -1.5113 -1.2585 -0.0902
  107SOL    HW2  321   0.842   2.045   0.946 -2.1533 -1.7678 -0.2078
  108SOL     OW  322   0.396   1.841   2.168  0.0383  0.2205 -0.0167
  108SOL    HW1  323   0.309   1.890   2.191  1.5175 -0.8811 -0.6204
  108SOL    HW2  324   0.433   1.790   2.252 -1.5882  0.5807 -1.1065
  109SOL     OW  325   1.889   2.434   2.664  0.6181  0.1308  0.0626
  109SOL    HW1  326   1.952   2.422   2.581  2.1385  1.6420  0.8876
  109SOL    HW2  327   1.894   2.353   2.726 -0.0132 -1.6880 -1.1739
  110SOL     OW  328   3.068   1.892   0.241 -0.3829 -0.3412  0.4079
  110SOL    HW1  329   3.010   1.949   0.303  0.4346  1.1366 -1.6096
  110SOL    HW2  330   3.164   1.888   0.274  3.1309  2.0835 -4.4823
  111SOL     OW  331   2.940   0.804   2.318  0.3489 -0.4436 -0.0413
  111SOL    HW1  332   2.965   0.707   2.301 -1.9758 -0.8523  0.7435
  111SOL    HW2  333   3.011   0.863   2.279  0.3845 -1.7273 -0.1915
  112SOL     OW  334   2.056   3.004   1.713  0.3508 -0.5817  0.2324
  112SOL    HW1  335   2.092   3.037   1.623 -0.8764  0.1062  1.5867
  112SOL    HW2  336   2.069   2.901   1.722 -1.7269 -1.9248  1.6459
  113SOL     OW  337   2.429   2.000   2.522  0.5248  0.3313  0.7141
  113SOL    HW1  338   2.338   2.029   2.554 -2.2150 -1.6081  0.1964
  113SOL    HW2  339   2.503   2.050   2.579 -0.0756  1.6598 -2.1419
  114SOL     OW  340   1.395   2.761   2.899  0.4456 -0.7021  0.0804
  114SOL    HW1  341   1.420   2.735   2.993 -2.5169 -0.0873  1.8535
  114SOL    HW2  342   1.398   2.678   2.839 -0.8854 -0.3162 -0.1583
  115SOL     OW  343   0.328   1.514   2.420 -0.5425 -0.2358 -0.3219
  115SOL    HW1  344   0.393   1.594   2.411  2.3112 -1.1448  2.0346
  115SOL    HW2  345   0.369   1.437   2.475 -0.4987  0.2457 -0.4277
  116SOL     OW  346   2.624   0.563   1.995 -0.0328 -0.5214  0.2898
  116SOL    HW1  347   2.690   0.636   2.015 -1.2697 -0.0771  0.0138
  116SOL    HW2  348   2.663   0.473   2.026 -1.5508  3.6668  1.5303
  117SOL     OW  349   1.613   0.255   0.986  0.5213 -0.6207  0.5423
  117SOL    HW1  350   1.566   0.163   0.985 -2.6635  1.4940  0.7903
  117SOL    HW2  351   1.556   0.337   0.956  3.6654  0.0521  4.2682
  118SOL     OW  352   2.810   1.752   2.193  0.1682  0.4009 -0.0966
  118SOL    HW1  353   2.738   1.701   2.151  0.5513  2.5095 -1.9783
  118SOL    HW2  354   2.794   1.760   2.289 -1.4915 -0.5207 -0.4560
  119SOL     OW  355   2.985   1.907   1.781 -0.1380 -0.4311 -0.4813
  119SOL    HW1  356   2.930   1.881   1.702 -0.2400 -1.1416  0.5615
  119SOL    HW2  357   2.928   1.943   1.863  0.6014 -2.0923  1.1757
  120SOL     OW  358   2.867   2.072   1.407  0.3636 -0.4274 -0.3390
  120SOL    HW1  359   2.788   2.074   1.470  2.2925 -1.4033  1.4285
  120SOL    HW2  360   2.891   2.160   1.369 -0.0040 -0.8028 -0.8432
  121SOL     OW  361   1.652   0.922   0.659  0.1143 -0.0098 -0.3984
  121SOL    HW1  362   1.750   0.953   0.672  0.1605 -1.2987  0.6113
  121SOL    HW2  363   1.625   0.918   0.559 -1.8541 -1.2806  0.9904
  122SOL     OW  364   2.816   2.376   3.052  0.3415  0.5461 -0.5954
  122SOL    HW1  365   2.787   2.316   3.129  2.3941 -1.8122 -1.0846
  122SOL    HW2  366   2.845   2.464   3.092  2.1100 -0.0165  1.4677
  123SOL     OW  367   0.052   0.057   0.114  0.2269 -0.1317 -0.0371
  123SOL    HW1  368   0.118   0.089   0.047 -0.0275 -0.8124  1.9096
  123SOL    HW2  369   0.017   0.142   0.156 -0.9837  1.3880  0.6833
  124SOL     OW  370   1.507   1.253   0.467 -0.5935  0.3970  0.3240
  124SOL    HW1  371   1.479   1.218   0.563 -2.3223 -0.4589 -1.2320
  124SOL    HW2  372   1.487   1.352   0.459 -2.0399 -0.8359  0.3355
  125SOL     OW  373   2.942   1.465   1.430  0.0530  0.4027  0.2853
  125SOL    HW1  374   2.884   1.456   1.347 -0.4520  3.6010 -1.0066
  125SOL    HW2  375   2.914   1.404   1.504 -0.1835  0.2403  1.0051
  126SOL     OW  376   2.450   0.020   3.028  0.5712  0.4587  0.4225
  126SOL    HW1  377   2.406  -0.046   3.096 -0.3827  1.0958  3.6209
  126SOL    HW2  378   2.376   0.079   2.991 -3.4852  0.4653  1.2461
  127SOL     OW  379   2.585   1.420   2.755 -0.3758 -0.0838 -0.0986
  127SOL    HW1  380   2.511   1.347   2.744  1.1545 -0.7163 -0.0250
  127SOL    HW2  381   2.639   1.432   2.669  1.3225 -2.4328 -1.6624
  128SOL     OW  382   0.482   0.736   0.390 -0.4565  0.0014 -0.9904
  128SOL    HW1  383   0.404   0.794   0.358 -3.0217 -0.2747 -0.2242
  128SOL    HW2  384   0.566   0.789   0.403 -0.9512  0.0531  1.8786
  129SOL     OW  385   1.988   1.795   1.223  0.3261 -0.2483  0.4109
  129SOL    HW1  386   1.941   1.826   1.308 -1.4407 -0.9693  0.1288
  129SOL    HW2  387   1.921   1.767   1.151 -1.0427  1.4491  0.8611
  130SOL     OW  388   2.229   0.696   0.382  0.0615  0.1006 -0.0613
  130SOL    HW1  389   2.199   0.696   0.480  3.1603 -2.1744 -0.9797
  130SOL    HW2  390   2.140   0.675   0.328 -1.2684 -0.6061 -0.1714
  131SOL     OW  391   0.091   1.442   2.273 -0.0597 -0.3521  0.7849
  131SOL    HW1  392   0.050   1.528   2.241  1.1319 -3.1898  2.5658
  131SOL    HW2  393   0.182   1.459   2.320 -2.7594 -0.1871 -1.3897
  132SOL     OW  394   0.685   1.459   1.840 -0.8656 -0.2160 -0.0906
  132SOL    HW1  395   0.610   1.428   1.778  1.4552 -0.1210  2.8936
  132SOL    HW2  396   0.655   1.453   1.939 -0.2961  0.3545  1.0640
  133SOL     OW  397   0.421   0.675   0.673 -0.2542 -0.0397 -0.3163
  133SOL    HW1  398   0.484   0.619   0.731  1.1620  0.3884  0.5487
  133SOL    HW2  399   0.444   0.666   0.576 -2.7310 -1.7208 -1.9927
  134SOL     OW  400   2.888   1.600   2.935  0.2232  0.0169 -0.1269
  134SOL    HW1  401   2.884   1.701   2.949 -0.6466 -2.0917  0.3061
  134SOL    HW2  402   2.919   1.579   2.838  2.0868  0.8082  0.2233
  135SOL     OW  403   2.477   0.681   0.151 -0.6625 -0.7184 -0.2518
  135SOL    HW1  404   2.456   0.650   0.056 -0.0261 -1.9288 -1.1548
  135SOL    HW2  405   2.396   0.665   0.217 -0.5407  1.6837 -0.7162
  136SOL     OW  406   2.630   2.173   0.803  0.5407  0.1239 -0.5634
  136SOL    HW1  407   2.623   2.277   0.801 -0.7528  1.1975 -0.6825
  136SOL    HW2  408   2.694   2.144   0.877 -0.2702 -0.9646 -1.8099
  137SOL     OW  409   1.773   2.133   0.759 -0.0428  0.2214  0.1293
  137SOL    HW1  410   1.688   2.121   0.810  0.9958 -2.7942 -0.5755
  137SOL    HW2  411   1.753   2.166   0.663 -1.2454 -2.3268  0.3090
  138SOL     OW  412   1.183   2.908   1.912  0.0250 -0.3990 -0.5370
  138SOL    HW1  413   1.139   2.837   1.849  2.4783 -0.9473 -0.0322
  138SOL    HW2  414   1.248   2.966   1.863 -0.1828  0.7120  2.5111
  139SOL     OW  415   2.186   2.972   2.475  0.3318  0.2595  0.0925
  139SOL    HW1  416   2.274   2.935   2.450  2.0897  2.2961 -0.0710
  139SOL    HW2  417   2.114   2.900   2.453  0.1532  0.1189  1.2334
  140SOL     OW  418   1.345   2.281   2.547 -0.2194  0.0147 -0.0626
  140SOL    HW1  419   1.370   2.197   2.497  0.2085  0.2405  1.2968
  140SOL    HW2  420   1.346   2.261   2.649  0.3109  0.5511  0.3246
  141SOL     OW  421   1.119   1.377   2.351 -0.4178  0.3784  0.4962
  141SOL    HW1  422   1.085   1.381   2.446 -0.7563  1.3051  2.3977
  141SOL    HW2  423   1.191   1.308   2.344  0.1712  2.6610  1.3022
  142SOL     OW  424   1.971   0.029   1.954  0.1232 -0.1137  0.0498
  142SOL    HW1  425   1.965  -0.023   1.869  0.0066  1.4913 -0.5963
  142SOL    HW2  426   2.038  -0.014   2.023  1.7991  0.7466 -0.0407
  143SOL     OW  427   1.076   2.090   0.026  0.1965 -0.1240  0.0659
  143SOL    HW1  428   1.012   2.015   0.051 -0.8524 -2.3094  0.0283
  143SOL    HW2  429   1.059   2.134  -0.063  2.4742 -2.9056  1.0125
  144SOL     OW  430   1.034   2.502   0.779  0.0545 -0.2897  0.2427
  144SOL    HW1  431   1.102   2.539   0.844 -0.7152 -1.4508  1.3039
  144SOL    HW2  432   0.952   2.561   0.794 -1.1044  0.8216  2.8017
  145SOL     OW  433   2.210   1.890   2.942  0.1976 -0.0656  0.2544
  145SOL    HW1  434   2.241   1.794   2.914 -1.5882  1.7059  3.1509
  145SOL    HW2  435   2.284   1.950   2.981 -2.5865 -0.3906  2.5136
  146SOL     OW  436   1.808   2.626   0.175 -0.1874 -0.4406 -0.3333
  146SOL    HW1  437   1.877   2.600   0.105 -0.2518  1.0177 -0.3130
  146SOL    HW2  438   1.763   2.714   0.148 -1.3134  2.4805  1.2873
  147SOL     OW  439   0.507   1.650   1.455  0.2137 -0.5418  0.2773
  147SOL    HW1  440   0.557   1.723   1.506  1.3753  0.2764  2.2926
  147SOL    HW2  441   0.408   1.667   1.443  0.6725  0.3098  1.0774
  148SOL     OW  442   1.243   2.491   0.115  0.5518  0.1764  0.3807
  148SOL    HW1  443   1.162   2.528   0.159 -1.4156  1.4959 -1.2274
  148SOL    HW2  444   1.314   2.562   0.111 -1.4360 -0.1728 -0.2527
  149SOL     OW  445   0.209   1.879   0.410 -0.6415  0.0662  0.1073
  149SOL    HW1  446   0.211   1.828   0.496 -0.0324 -0.0211  0.7576
  149SOL    HW2  447   0.183   1.972   0.427  0.5649  0.4486 -0.7097
  150SOL     OW  448   1.007   2.358   1.241  0.0200  1.0441 -0.4244
  150SOL    HW1  449   0.942   2.424   1.284 -0.7336 -1.3044  1.8825
  150SOL    HW2  450   1.034   2.276   1.299  0.6797  0.7341  1.7928
  151SOL     OW  451   0.483   1.339   2.565  0.1304 -0.0196 -0.5322
  151SOL    HW1  452   0.524   1.246   2.563  0.7943  1.8425  2.3168
  151SOL    HW2  453   0.539   1.403   2.615 -1.7068  0.3167 -0.3966
  152SOL     OW  454   2.929   2.407   0.750  0.6973  0.7143  0.2308
  152SOL    HW1  455   2.949   2.334   0.682 -3.4146 -0.1745 -0.1539
  152SOL    HW2  456   2.830   2.407   0.782 -1.0181  0.4694  0.8308
  153SOL     OW  457   1.249   2.170   0.445 -0.2959 -0.3013 -0.0063
  153SOL    HW1  458   1.277   2.176   0.346 -1.2805  0.3371  1.8845
  153SOL    HW2  459   1.196   2.254   0.466  0.4384 -0.7214 -2.6330
  154SOL     OW  460   2.994   3.028   1.167  0.2214 -0.0687  0.5515
  154SOL    HW1  461   2.907   3.056   1.206  1.1210  0.0975  2.3331
  154SOL    HW2  462   2.993   2.974   1.080  1.1897  0.9998 -0.5556
  155SOL     OW  463   2.750   1.523   0.431  0.4901  0.1816  0.2295
  155SOL    HW1  464   2.838   1.558   0.398  2.9366  2.4813 -0.3500
  155SOL    HW2  465   2.715   1.453   0.365  1.3338  0.8979 -1.4091
  156SOL     OW  466   2.449   2.642   0.437 -0.2192 -0.2886 -0.2688
  156SOL    HW1  467   2.353   2.633   0.461  0.2513 -0.4053  2.3924
  156SOL    HW2  468   2.474   2.582   0.354  1.0658  3.7519 -1.0057
  157SOL     OW  469   1.201   2.974   2.316 -0.6603 -0.0200 -0.3232
  157SOL    HW1  470   1.274   3.035   2.275 -0.3583  1.8743  0.5677
  157SOL    HW2  471   1.114   2.967   2.260 -1.7946  0.1118  1.1627
  158SOL     OW  472   1.042   0.984   1.871 -0.0601 -0.1058 -0.0082
  158SOL    HW1  473   0.952   0.940   1.877 -0.9749 -1.9020 -0.2218
  158SOL    HW2  474   1.076   0.979   1.772  0.3813  0.5781 -0.7899
  159SOL     OW  475   2.153   1.309   2.823  0.0490  0.3561  0.1611
  159SOL    HW1  476   2.134   1.394   2.768 -0.5007  2.7549  0.4730
  159SOL    HW2  477   2.075   1.246   2.817  1.1362  1.9697  0.8441
  160SOL     OW  478   1.462   1.104   0.712 -0.0414  0.0219 -0.1575
  160SOL    HW1  479   1.525   1.026   0.690 -1.8146 -0.5494  0.9627
  160SOL    HW2  480   1.504   1.156   0.788  0.6393  1.4144  0.1974
  161SOL     OW  481   2.491   2.402   0.067  0.2551 -0.0726 -0.4612
  161SOL    HW1  482   2.511   2.341  -0.011  0.9341  0.5197 -0.2556
  161SOL    HW2  483   2.413   2.371   0.122  0.4018  2.0982  1.7495
  162SOL     OW  484   0.432   2.015   1.132  0.1618  0.5855  0.5707
  162SOL    HW1  485   0.487   1.975   1.209 -2.0534 -0.1830  2.1804
  162SOL    HW2  486   0.361   2.085   1.160 -1.0514  0.5828  1.8029
  163SOL     OW  487   0.291   3.058   2.110 -0.2037  0.4938 -0.0827
  163SOL    HW1  488   0.269   3.004   2.193  0.6580  1.5986 -1.4557
  163SOL    HW2  489   0.368   3.126   2.127  0.2695 -2.2067 -1.7611
  164SOL     OW  490   2.714   2.639   2.066 -0.2060 -0.6947  0.3943
  164SOL    HW1  491   2.665   2.589   2.141 -2.0854 -3.2173  0.8732
  164SOL    HW2  492   2.733   2.581   1.981  1.8265 -0.4746  1.8397
  165SOL     OW  493   2.854   1.329   1.634  0.3383 -0.0073 -0.3646
  165SOL    HW1  494   2.826   1.235   1.654  0.9543 -1.8518 -1.0522
  165SOL    HW2  495   2.852   1.390   1.715 -1.0279  1.9999  0.4518
  166SOL     OW  496   2.244   1.472   1.860  1.0656 -0.3354 -0.1103
  166SOL    HW1  497   2.207   1.485   1.960  1.6283 -2.3970 -1.2010
  166SOL    HW2  498   2.167   1.492   1.795 -0.4819 -0.8898 -1.2592
  167SOL     OW  499   0.198   2.902   0.128 -0.4898  0.5458  0.2891
  167SOL    HW1  500   0.127   2.973   0.120  1.0458 -1.1598 -1.9185
  167SOL    HW2  501   0.246   2.884   0.043  2.4162  3.8352  2.1365
  168SOL     OW  502   1.736   0.486   2.165  0.4580 -0.0360  0.2796
  168SOL    HW1  503   1.751   0.565   2.106 -2.0272 -0.9384  3.0138
  168SOL    HW2  504   1.804   0.415   2.153 -0.2329  0.7592 -1.4269
  169SOL     OW  505   0.641   0.652   2.892 -0.3346  0.3394 -0.5653
  169SOL    HW1  506   0.625   0.548   2.900 -0.8775 -0.6628 -1.7589
  169SOL    HW2  507   0.720   0.671   2.827  1.0231 -1.1061 -0.5204
  170SOL     OW  508   1.108   1.534   1.898  0.3889 -0.0965 -0.1310
  170SOL    HW1  509   1.200   1.564   1.930 -0.2182  0.6378 -1.3929
  170SOL    HW2  510   1.051   1.496   1.972 -3.1520 -2.8891  0.7535
  171SOL     OW  511   1.115   2.819   0.814  0.0767  0.4105 -0.1370
  171SOL    HW1  512   1.170   2.753   0.866 -1.3564 -3.0760  0.2667
  171SOL    HW2  513   1.019   2.835   0.853 -1.2481 -0.8693 -1.0096
  172SOL     OW  514   0.961   0.547   2.572 -0.5571 -0.3189  0.4857
  172SOL    HW1  515   1.000   0.501   2.491  0.7232 -1.8466 -1.1704
  172SOL    HW2  516   0.958   0.493   2.659  0.2195  0.9313  1.1696
  173SOL     OW  517   0.611   1.764   1.242  0.3949 -0.1026 -0.4842
  173SOL    HW1  518   0.672   1.834   1.281  1.0975 -1.9045 -1.8830
  173SOL    HW2  519   0.579   1.700   1.311  3.2189 -1.6591 -1.3915
  174SOL     OW  520   1.523   2.730   0.318 -0.4795  0.4596  0.3175
  174SOL    HW1  521   1.608   2.704   0.369  2.1476  2.8261 -2.2167
  174SOL    HW2  522   1.516   2.833   0.309 -0.3513  1.3255 -1.4586
  175SOL     OW  523   0.395   1.128   0.268 -0.5118  0.1675 -0.2274
  175SOL    HW1  524   0.371   1.193   0.188  0.4742 -1.3927 -0.1242
  175SOL    HW2  525   0.496   1.115   0.274  0.8404 -2.6901 -0.9856
  176SOL     OW  526   0.953   2.309   1.625  0.0527  0.5389 -0.1088
  176SOL    HW1  527   0.980   2.239   1.698  0.0449 -0.5594 -0.3210
  176SOL    HW2  528   1.003   2.287   1.536  1.2645  1.9068 -3.3519
  177SOL     OW  529   0.936   1.070   1.480 -0.2069  0.5159  0.3715
  177SOL    HW1  530   1.012   1.024   1.533 -1.7518  2.1386  2.2017
  177SOL    HW2  531   0.949   1.169   1.473 -1.8922  2.9571  2.1383
  178SOL     OW  532   2.258   0.680   1.152  0.0409 -0.0046 -0.3789
  178SOL    HW1  533   2.222   0.767   1.192 -1.4001  1.0010  0.9186
  178SOL    HW2  534   2.353   0.700   1.110 -2.4312  0.0902  2.5748
  179SOL     OW  535   0.864   2.955   0.471  0.8292 -0.1333 -0.0580
  179SOL    HW1  536   0.866   2.936   0.372  0.4671 -1.3973 -2.2070
  179SOL    HW2  537   0.957   2.986   0.500 -2.3316  0.3722 -1.3302
  180SOL     OW  538   1.684   1.442   1.964 -0.3138 -0.4259  0.1771
  180SOL    HW1  539   1.717   1.472   2.057  0.0832 -0.1348 -2.9879
  180SOL    HW2  540   1.590   1.408   1.960  4.3529  0.8485 -1.6435
  181SOL     OW  541   0.115   1.501   1.338 -0.0658 -0.1600  0.3942
  181SOL    HW1  542   0.155   1.589   1.370 -2.1236 -2.6623  0.7430
  181SOL    HW2  543   0.016   1.488   1.366  0.0151  0.6283 -2.0349
  182SOL     OW  544   0.052   1.133   2.585  0.7705 -0.1462  0.1445
  182SOL    HW1  545   0.069   1.080   2.672 -1.4854 -2.7042 -1.3851
  182SOL    HW2  546   0.073   1.081   2.496  0.6053 -1.7127  0.5006
  183SOL     OW  547   2.340   2.760   1.873 -0.3252 -0.3425 -0.0258
  183SOL    HW1  548   2.257   2.764   1.819  0.3985 -2.9942  1.9501
  183SOL    HW2  549   2.359   2.661   1.889  4.3026 -0.2467 -1.8527
  184SOL     OW  550   0.891   0.788   1.302  0.1534  0.4165 -0.1726
  184SOL    HW1  551   0.859   0.698   1.273  1.7516 -0.3761  3.3230
  184SOL    HW2  552   0.843   0.865   1.258 -2.0825 -1.4658  1.2676
  185SOL     OW  553   2.023   1.458   1.380 -0.2556 -0.0669 -0.2660
  185SOL    HW1  554   2.034   1.388   1.453 -3.0083  1.0488 -4.0414
  185SOL    HW2  555   1.948   1.521   1.392  0.8718  0.3418  2.3939
  186SOL     OW  556   2.709   2.346   0.448  0.5511  0.0568  0.1591
  186SOL    HW1  557   2.667   2.419   0.386 -1.4949 -1.3818 -1.6493
  186SOL    HW2  558   2.640   2.285   0.489  3.2658 -2.3198  0.1363
  187SOL     OW  559   1.806   1.202   2.742 -0.2833  0.5086 -0.2101
  187SOL    HW1  560   1.862   1.137   2.696  1.0389  1.5078 -2.1286
  187SOL    HW2  561   1.816   1.194   2.841 -0.5809  1.4674 -1.0296
  188SOL     OW  562   1.581   3.062   1.222 -0.5046  0.3729  0.2845
  188SOL    HW1  563   1.552   3.081   1.133  0.3783  1.5583 -0.0177
  188SOL    HW2  564   1.570   2.965   1.252  1.5755 -1.7365 -3.3921
  189SOL     OW  565   0.598   1.090   2.538  0.6558 -0.1342  0.0282
  189SOL    HW1  566   0.509   1.063   2.587 -1.4407 -2.8182  2.4137
  189SOL    HW2  567   0.680   1.065   2.598  0.6270  1.5743 -0.3836
  190SOL     OW  568   1.241   0.264   2.589  0.2689 -0.4056  0.1771
  190SOL    HW1  569   1.308   0.287   2.513  0.7863 -0.4768 -0.9785
  190SOL    HW2  570   1.213   0.169   2.574 -1.0970  0.0373  1.3045
  191SOL     OW  571   2.012   0.921   1.668 -0.1554  0.2909 -0.5897
  191SOL    HW1  572   2.063   0.881   1.589  0.2317 -1.7624  3.0811
  191SOL    HW2  573   2.076   0.941   1.745 -0.8997  0.2020 -0.8097
  192SOL     OW  574   1.751   0.307   0.615 -0.0611  0.2642 -0.4776
  192SOL    HW1  575   1.772   0.231   0.680  0.4308  0.5687  3.1774
  192SOL    HW2  576   1.832   0.322   0.560 -0.0707  0.3299  2.4276
  193SOL     OW  577   1.159   2.912   0.275 -0.0972  0.5976  0.1861
  193SOL    HW1  578   1.145   2.989   0.339  2.5747 -1.2713  1.9450
  193SOL    HW2  579   1.207   2.837   0.324 -0.2329  0.4015 -1.7917
  194SOL     OW  580   1.464   2.804   1.266 -0.2756 -0.1042  0.3015
  194SOL    HW1  581   1.372   2.836   1.239  0.7705 -1.9040 -1.6129
  194SOL    HW2  582   1.481   2.828   1.363 -0.5104 -0.5274  1.5871
  195SOL     OW  583   1.970   1.066   1.206  0.4933  0.0021  0.0875
  195SOL    HW1  584   1.883   1.053   1.263  0.9100  3.0188  0.1105
  195SOL    HW2  585   1.986   1.165   1.191  1.4141 -0.0504 -0.2618
  196SOL     OW  586   1.187   0.353   2.839 -0.3542  0.0888 -0.2044
  196SOL    HW1  587   1.211   0.328   2.740  0.4223 -0.0349 -0.2593
  196SOL    HW2  588   1.214   0.449   2.858  1.1366  0.5545 -0.2086
  197SOL     OW  589   2.856   0.368   2.434 -0.0795  0.2382  0.4661
  197SOL    HW1  590   2.872   0.442   2.359 -1.7362 -0.1237  0.8494
  197SOL    HW2  591   2.912   0.282   2.424  0.7135 -0.4138  2.3388
  198SOL     OW  592   2.201   1.419   0.914 -0.0260 -0.5997 -0.2829
  198SOL    HW1  593   2.300   1.425   0.940  0.5608  4.7241  0.0535
  198SOL    HW2  594   2.173   1.508   0.878  0.5858  0.6503 -0.8637
  199SOL     OW  595   2.554   0.108   1.842 -0.3246 -0.2796 -0.5699
  199SOL    HW1  596   2.527   0.010   1.832  0.7194  1.6216  0.0230
  199SOL    HW2  597   2.600   0.136   1.754 -1.0240 -1.2362  0.3826
  200SOL     OW  598   1.775   2.731   2.933  0.5460 -0.2892  0.1551
  200SOL    HW1  599   1.817   2.798   2.869 -3.1259 -3.3294 -1.4211
  200SOL    HW2  600   1.729   2.775   3.014 -0.0857  2.8508 -0.4588
  201SOL     OW  601   1.927   2.998   1.253  0.3291  0.2084  0.3748
  201SOL    HW1  602   1.899   3.094   1.243  2.5296  0.9177  0.8505
  201SOL    HW2  603   1.924   2.949   1.166  2.2388  2.1964 -2.1322
  202SOL     OW  604   2.700   2.763   0.879  0.7875 -0.6866  0.2085
  202SOL    HW1  605   2.681   2.727   0.781  1.5664  0.9111 -0.4938
  202SOL    HW2  606   2.797   2.800   0.893 -0.0952 -0.2609 -0.8378
  203SOL     OW  607   1.422   1.481   0.771 -0.0039 -0.0304 -0.3842
  203SOL    HW1  608   1.414   1.565   0.825 -0.9849  0.9226 -1.2639
  203SOL    HW2  609   1.473   1.407   0.818  0.4188 -1.2933  0.8180
  204SOL     OW  610   0.104   2.011   1.914  0.6236 -0.0435  0.5596
  204SOL    HW1  611   0.033   1.982   1.848  1.9289  0.5867  1.4629
  204SOL    HW2  612   0.199   1.993   1.875  0.2540 -1.6287  1.0066
  205SOL     OW  613   0.695   0.291   0.565  0.1570  0.5326  0.9099
  205SOL    HW1  614   0.682   0.187   0.571  1.2741  0.6728 -2.4252
  205SOL    HW2  615   0.622   0.341   0.613  4.2744 -0.2274  0.4667
  206SOL     OW  616   0.646   0.365   2.899 -0.3305  0.1353 -0.1304
  206SOL    HW1  617   0.710   0.306   2.959 -3.1573  0.5002 -1.4597
  206SOL    HW2  618   0.577   0.304   2.844  1.9008 -0.4736  1.2363
  207SOL     OW  619   1.049   2.152   1.806 -0.3423  0.3742 -0.4104
  207SOL    HW1  620   1.107   2.096   1.743 -2.1958 -0.9789  2.2776
  207SOL    HW2  621   1.036   2.099   1.892 -0.4464  0.5995 -1.8240
  208SOL     OW  622   1.473   0.366   0.600 -0.4127  0.7397 -0.1830
  208SOL    HW1  623   1.573   0.340   0.596  1.1773 -0.3357 -0.0800
  208SOL    HW2  624   1.422   0.322   0.520  3.3137  1.2907  0.5719
  209SOL     OW  625   1.989   0.718   0.823 -0.4445  0.3308  0.4929
  209SOL    HW1  626   1.899   0.705   0.775  3.2739  1.0761  0.7209
  209SOL    HW2  627   1.995   0.816   0.856 -4.6963 -1.0569 -1.3414
  210SOL     OW  628   2.432   1.438   1.118  0.6945 -0.5237  0.3759
  210SOL    HW1  629   2.364   1.465   1.186  1.0290  0.4608 -0.5002
  210SOL    HW2  630   2.479   1.354   1.136  0.6948 -0.9574 -1.4557
  211SOL     OW  631   0.487   0.239   2.732 -0.7817 -0.2727  0.3891
  211SOL    HW1  632   0.469   0.324   2.680  0.1041  3.4448  2.2100
  211SOL    HW2  633   0.431   0.158   2.707  0.6212  1.6441  2.7813
  212SOL     OW  634   1.804   1.771   0.498  0.0669 -0.4001  0.3554
  212SOL    HW1  635   1.814   1.687   0.441  1.9555 -2.4422  2.0856
  212SOL    HW2  636   1.728   1.833   0.464  2.4709  1.6299 -1.1482
  213SOL     OW  637   2.141   2.858   0.410 -0.2703 -0.7018  0.6396
  213SOL    HW1  638   2.216   2.925   0.412  0.4100 -0.3961  0.8026
  213SOL    HW2  639   2.100   2.855   0.319  0.9390  2.1288 -1.3361
  214SOL     OW  640   0.946   2.597   2.404 -0.5049 -0.4858 -0.0920
  214SOL    HW1  641   1.045   2.568   2.391 -0.0724 -1.6308  0.9447
  214SOL    HW2  642   0.913   2.655   2.325  0.5654 -0.9133 -0.4381
  215SOL     OW  643   0.020   1.528   0.830  0.1237  0.3899  0.2196
  215SOL    HW1  644  -0.043   1.548   0.753  0.0175 -1.7669  0.4826
  215SOL    HW2  645  -0.014   1.441   0.868  0.0587  1.7307  2.0523
  216SOL     OW  646   2.926   2.711   2.230  0.4055 -0.1056 -0.1602
  216SOL    HW1  647   2.858   2.685   2.163  2.4131  0.2016 -0.7140
  216SOL    HW2  648   2.999   2.768   2.188 -2.7572 -1.7875 -0.8387
  217SOL     OW  649   2.657   1.756   1.829 -0.2191 -0.4689 -0.6835
  217SOL    HW1  650   2.691   1.852   1.849  0.3943 -0.2715 -1.0635
  217SOL    HW2  651   2.657   1.741   1.728 -0.4745  0.8572  3.5205
  218SOL     OW  652   0.527   2.458   1.793  0.0984  0.1122 -0.2091
  218SOL    HW1  653   0.430   2.466   1.805 -1.4148 -0.8331 -2.1060
  218SOL    HW2  654   0.578   2.496   1.871 -0.9857 -0.4534 -0.3472
  219SOL     OW  655   2.266   2.346   0.206  0.0486 -0.3036  0.2715
  219SOL    HW1  656   2.185   2.335   0.148  0.8986  1.5237  0.7473
  219SOL    HW2  657   2.257   2.406   0.286 -0.6458  0.3076  2.8262
  220SOL     OW  658   1.860   2.960   2.228 -0.1339 -0.2930  0.8341
  220SOL    HW1  659   1.870   2.876   2.283  0.9741  0.6060 -0.8106
  220SOL    HW2  660   1.795   2.944   2.157 -1.4254 -2.1929 -0.7208
  221SOL     OW  661   0.096   1.278   3.087  0.2112 -0.3292  0.1561
  221SOL    HW1  662   0.089   1.271   2.984  0.5745  1.9729  2.6295
  221SOL    HW2  663   0.059   1.373   3.113 -1.8052  1.1719 -0.2509
  222SOL     OW  664   2.015   0.964   0.951 -0.3537 -0.3714 -0.5880
  222SOL    HW1  665   1.976   1.010   1.037  2.9406  1.7152 -1.0236
  222SOL    HW2  666   2.118   0.972   0.957 -0.0746  0.5620 -1.9666
  223SOL     OW  667   1.358   0.797   2.694  0.3339  0.6779 -0.0346
  223SOL    HW1  668   1.273   0.805   2.640  0.6270 -0.9562  2.8017
  223SOL    HW2  669   1.369   0.871   2.762  1.0023  2.0376 -0.1851
  224SOL     OW  670   0.812   0.267   1.398 -0.3869  0.5125  0.3283
  224SOL    HW1  671   0.761   0.246   1.484 -0.6664  0.4752  1.2521
  224SOL    HW2  672   0.798   0.200   1.321 -0.1757 -0.6644  0.8978
  225SOL     OW  673   0.621   2.693   2.738 -0.2093 -0.6371 -0.0233
  225SOL    HW1  674   0.592   2.792   2.745  1.5348 -0.8417 -0.7310
  225SOL    HW2  675   0.720   2.674   2.718  1.8121  3.4773  1.2009
  226SOL     OW  676   1.458   1.926   1.298 -0.0436 -0.7745 -0.2514
  226SOL    HW1  677   1.510   1.966   1.377 -0.1470  0.9941 -0.6838
  226SOL    HW2  678   1.424   1.833   1.325 -1.3300 -0.7083 -2.1505
  227SOL     OW  679   0.008   2.386   1.499 -0.0160 -0.2212  0.3588
  227SOL    HW1  680   0.098   2.434   1.485  0.4930 -0.1514 -0.9376
  227SOL    HW2  681  -0.034   2.368   1.406  1.6522  0.6362  0.8103
  228SOL     OW  682   0.342   1.353   2.799  0.4459  0.1774 -0.3975
  228SOL    HW1  683   0.285   1.431   2.834 -0.6490 -2.7503 -0.2340
  228SOL    HW2  684   0.376   1.373   2.706  4.4315  2.0888  0.0914
  229SOL     OW  685   2.560   0.333   3.044  0.0308 -0.0382 -0.0787
  229SOL    HW1  686   2.536   0.327   2.947  0.1109  0.4035  2.1041
  229SOL    HW2  687   2.611   0.250   3.073 -0.5145  1.2623  0.9111
  230SOL     OW  688   2.801   0.301   0.201 -0.4648  0.2073 -0.0834
  230SOL    HW1  689   2.732   0.365   0.239 -0.5222 -3.2025  0.4626
  230SOL    HW2  690   2.756   0.220   0.153 -1.2309  0.6183  0.8850
  231SOL     OW  691   1.802   1.247   0.611 -0.0368  0.0580 -0.2464
  231SOL    HW1  692   1.878   1.275   0.548 -0.0053 -1.7629 -2.1790
  231SOL    HW2  693   1.710   1.261   0.568  2.3161  1.7037  0.2851
  232SOL     OW  694   1.746   2.158   0.502  0.0639  0.0066 -0.1924
  232SOL    HW1  695   1.713   2.063   0.477  0.3465 -1.1061  0.3412
  232SOL    HW2  696   1.683   2.223   0.456  1.8251 -4.2107  0.0385
  233SOL     OW  697   0.746   2.701   1.811 -0.4621 -0.5080  0.1661
  233SOL    HW1  698   0.728   2.751   1.722  0.9350 -0.7720 -1.1321
  233SOL    HW2  699   0.822   2.634   1.806 -1.7540  0.4694 -0.0107
  234SOL     OW  700   0.527   0.594   2.158 -0.5442 -0.6257  0.6787
  234SOL    HW1  701   0.604   0.531   2.142  2.2586 -0.3419 -0.1354
  234SOL    HW2  702   0.561   0.695   2.166 -0.2133  1.3552  0.2461
  235SOL     OW  703   2.548   0.405   2.349 -0.2059  0.1854  0.7123
  235SOL    HW1  704   2.544   0.495   2.395 -1.6125  0.2949 -1.1730
  235SOL    HW2  705   2.622   0.393   2.279 -0.5851  0.0584 -2.1597
  236SOL     OW  706   1.109   2.639   1.276 -0.1613  0.9011  0.7004
  236SOL    HW1  707   1.095   2.554   1.221 -0.6608 -0.5368 -3.9416
  236SOL    HW2  708   1.140   2.714   1.217  0.8288 -0.3598 -1.2242
  237SOL     OW  709   0.499   1.737   2.404  0.4018 -0.7363 -0.6378
  237SOL    HW1  710   0.588   1.701   2.432 -1.8183 -1.9873 -0.0669
  237SOL    HW2  711   0.472   1.823   2.460 -0.9538 -0.3881 -0.8580
  238SOL     OW  712   1.028   0.729   2.967 -0.8724 -0.3225  0.0638
  238SOL    HW1  713   1.066   0.808   3.018  0.7312 -1.8270  0.9571
  238SOL    HW2  714   1.105   0.680   2.927  0.3470  1.1890 -1.0410
  239SOL     OW  715   0.428   1.888   2.611 -0.6600  0.1575 -0.2663
  239SOL    HW1  716   0.474   1.978   2.634  1.0862  0.8993 -1.4694
  239SOL    HW2  717   0.327   1.888   2.624  3.7088 -0.5892 -3.2389
  240SOL     OW  718   2.601   2.689   1.117  0.6000  0.2625  0.2347
  240SOL    HW1  719   2.634   2.735   1.034 -0.4490  1.6816  1.4871
  240SOL    HW2  720   2.649   2.716   1.203 -1.7608 -3.4845  1.4343
  241SOL     OW  721   0.384   1.175   0.537 -0.3910 -0.0266 -0.2154
  241SOL    HW1  722   0.392   1.180   0.435 -0.2653 -0.1606  1.0646
  241SOL    HW2  723   0.428   1.089   0.573 -0.4140 -0.6447  0.2515
  242SOL     OW  724   0.746   0.486   1.675  0.1207 -0.4918 -0.5426
  242SOL    HW1  725   0.786   0.523   1.758 -0.1760 -4.2610  2.4253
  242SOL    HW2  726   0.737   0.383   1.677  1.8984 -0.7645 -1.6133
  243SOL     OW  727   0.870   2.734   2.187  0.1702  0.4568 -0.0682
  243SOL    HW1  728   0.777   2.770   2.192 -1.2392  0.1683 -1.1093
  243SOL    HW2  729   0.943   2.799   2.183 -1.1646 -0.1266 -1.4175
  244SOL     OW  730   2.167   0.138   2.487 -0.3990 -0.0009  0.6779
  244SOL    HW1  731   2.184   0.037   2.482  1.3038  0.0526  0.2606
  244SOL    HW2  732   2.260   0.186   2.479  0.1924 -1.2850  1.1507
  245SOL     OW  733   1.916   0.181   1.219  0.2586 -0.4604  0.4760
  245SOL    HW1  734   1.971   0.226   1.289 -2.6426  1.1271  2.4811
  245SOL    HW2  735   1.948   0.213   1.127  3.4297  0.0094  2.9248
  246SOL     OW  736   1.110   0.416   0.166  0.5541  0.5334 -0.2715
  246SOL    HW1  737   1.032   0.448   0.111 -0.1064 -0.3029 -2.2851
  246SOL    HW2  738   1.135   0.321   0.135  0.7138  0.0657  1.5669
  247SOL     OW  739   1.921   0.673   1.247 -0.2905  0.3578  0.0955
  247SOL    HW1  740   1.949   0.610   1.176  0.6090 -0.7805 -0.2711
  247SOL    HW2  741   1.824   0.690   1.232 -1.4603 -2.1212 -1.5425
  248SOL     OW  742   2.157   1.963   1.534 -0.0252  0.0718  0.0217
  248SOL    HW1  743   2.216   1.887   1.573  1.0115 -0.2013  1.7678
  248SOL    HW2  744   2.196   1.990   1.448 -2.0184 -1.3398  0.1514
  249SOL     OW  745   0.165   0.141   0.383  0.2542 -0.1412 -0.0368
  249SOL    HW1  746   0.081   0.141   0.328  2.5185 -1.1981  0.2319
  249SOL    HW2  747   0.244   0.098   0.336  0.4248  0.7696  0.9100
  250SOL     OW  748   0.173   2.379   2.102  0.5193 -0.4200 -0.0304
  250SOL    HW1  749   0.168   2.315   2.185  0.2469 -0.5753  0.0746
  250SOL    HW2  750   0.212   2.473   2.122 -1.8745  0.0764 -0.7076
  251SOL     OW  751   1.905   0.797   0.489 -0.2793 -0.4269  0.3565
  251SOL    HW1  752   1.846   0.715   0.513 -1.7247  0.5189 -5.5707
  251SOL    HW2  753   1.945   0.840   0.570  1.0431  1.5719 -0.3361
  252SOL     OW  754   1.464   2.922   2.693  0.2331 -0.5603 -0.1996
  252SOL    HW1  755   1.454   2.876   2.782  2.2849 -1.5034  0.1399
  252SOL    HW2  756   1.413   2.870   2.624  2.3918 -1.4813  1.7625
  253SOL     OW  757   2.722   2.213   0.174 -0.0839  0.2377  0.0061
  253SOL    HW1  758   2.666   2.131   0.201  2.8485 -0.1543 -2.3558
  253SOL    HW2  759   2.716   2.282   0.247  1.9514 -0.3727 -0.2174
  254SOL     OW  760   2.383   0.822   2.143 -0.1669 -0.6092  0.0595
  254SOL    HW1  761   2.483   0.852   2.147 -0.7406  0.1140  4.6527
  254SOL    HW2  762   2.377   0.733   2.090  0.0214 -2.0557  0.9404
  255SOL     OW  763   0.894   0.217   2.152 -0.0682  0.1787 -0.3313
  255SOL    HW1  764   0.893   0.150   2.227 -0.6519  1.8698 -1.4095
  255SOL    HW2  765   0.988   0.248   2.131 -1.0822  1.2412 -0.6620
  256SOL     OW  766   2.285   1.753   1.688  0.3675  0.6383 -0.0770
  256SOL    HW1  767   2.221   1.680   1.721 -1.3790  0.3645 -1.8508
  256SOL    HW2  768   2.365   1.706   1.649 -1.1318 -3.1668  1.5823
  257SOL     OW  769   0.546   2.724   2.409  0.0678 -0.4375  0.0103
  257SOL    HW1  770   0.589   2.695   2.319  1.7138  3.3936 -0.4946
  257SOL    HW2  771   0.554   2.822   2.415  1.2758  0.4355  0.0623
  258SOL     OW  772   0.822   2.268   0.432  0.4565 -0.0920  0.6032
  258SOL    HW1  773   0.786   2.354   0.481  0.1507  0.3587  2.2125
  258SOL    HW2  774   0.830   2.190   0.500  1.4091 -0.8237  3.4375
  259SOL     OW  775   2.216   0.948   2.909  0.1573 -0.0850 -0.2867
  259SOL    HW1  776   2.171   1.025   2.958 -1.5778 -0.9557  1.2961
  259SOL    HW2  777   2.320   0.958   2.907 -2.6080 -0.4108 -0.4313
  260SOL     OW  778   0.519   2.830   1.358 -0.4062 -0.2529 -0.0021
  260SOL    HW1  779   0.438   2.782   1.317 -0.7765  1.3726 -0.4535
  260SOL    HW2  780   0.514   2.931   1.360 -2.8581 -3.3294 -0.1646
  261SOL     OW  781   1.493   2.931   2.202  0.2793  0.1328 -0.0713
  261SOL    HW1  782   1.527   2.904   2.299  1.3841  2.1447 -1.0754
  261SOL    HW2  783   1.568   2.907   2.137  0.2690  0.3814  0.4036
  262SOL     OW  784   0.821   0.163   3.031 -0.2148 -0.5444  0.2444
  262SOL    HW1  785   0.924   0.181   3.030 -0.6789 -1.8191 -0.2335
  262SOL    HW2  786   0.796   0.069   3.004  0.0277 -0.1385 -1.5642
  263SOL     OW  787   0.257   1.607   2.895 -0.0759  0.1984  0.1522
  263SOL    HW1  788   0.268   1.600   2.995  1.4048 -1.9450  2.3022
  263SOL    HW2  789   0.197   1.684   2.873 -2.5565  0.7828 -1.4236
  264SOL     OW  790   1.656   1.971   1.092 -0.5309  0.2617  0.0112
  264SOL    HW1  791   1.695   1.884   1.059 -0.9973 -1.0026  1.3933
  264SOL    HW2  792   1.574   1.958   1.149  2.4693  0.9007 -0.3274
  265SOL     OW  793   0.298   2.202   0.050  0.3248  0.4343 -0.7013
  265SOL    HW1  794   0.282   2.103   0.025  1.2966 -1.0167 -1.1482
  265SOL    HW2  795   0.210   2.253   0.049  3.5525 -1.0762  0.1996
  266SOL     OW  796   2.601   0.522   1.720  0.4728 -0.5307 -0.0336
  266SOL    HW1  797   2.609   0.557   1.819 -2.3984 -1.1765 -0.2745
  266SOL    HW2  798   2.690   0.470   1.699  0.8780  0.4990  1.5807
  267SOL     OW  799   0.280   0.873   0.266  0.2126  0.0865  0.5617
  267SOL    HW1  800   0.297   0.974   0.265 -2.4186 -0.9617 -2.3995
  267SOL    HW2  801   0.301   0.833   0.172 -0.5708  1.7582 -1.3755
  268SOL     OW  802   1.317   1.141   0.165  0.1064  0.0712  0.0224
  268SOL    HW1  803   1.392   1.195   0.206 -1.7771  0.8521  1.9808
  268SOL    HW2  804   1.354   1.073   0.105 -0.8772 -0.6355 -0.5076
  269SOL     OW  805   3.079   0.786   2.726 -0.1162  0.3625 -0.9416
  269SOL    HW1  806   2.979   0.761   2.700  0.5843 -0.1472  2.0285
  269SOL    HW2  807   3.148   0.725   2.680  1.0697  1.0841 -1.4353
  270SOL     OW  808   2.501   0.685   1.041  0.6771  0.2747  0.2999
  270SOL    HW1  809   2.480   0.695   0.947 -0.1358 -0.8389  1.4299
  270SOL    HW2  810   2.550   0.599   1.061  0.2237 -0.7938  0.5175
  271SOL     OW  811   0.378   1.348   1.861 -0.2136  0.4660  0.0767
  271SOL    HW1  812   0.389   1.366   1.962  1.9917  2.0824  4.2682
  271SOL    HW2  813   0.308   1.277   1.852 -0.3290 -0.3670 -0.4124
  272SOL     OW  814   2.390   2.514   1.467 -0.4554 -0.0529 -0.4872
  272SOL    HW1  815   2.460   2.500   1.399  0.5993 -0.1625  0.1256
  272SOL    HW2  816   2.383   2.443   1.540  1.4589  0.1118  1.0997
  273SOL     OW  817   2.942   2.101   2.718 -0.1768  0.4681 -0.3394
  273SOL    HW1  818   3.044   2.124   2.717 -0.8095 -0.0109  0.8712
  273SOL    HW2  819   2.891   2.180   2.669  1.7959  1.1681 -0.4225
  274SOL     OW  820   0.663   1.733   3.057  0.2862  0.5318  0.1950
  274SOL    HW1  821   0.640   1.717   2.960 -1.4466  0.7543  0.6971
  274SOL    HW2  822   0.661   1.831   3.080  0.5495 -0.8492  2.1885
  275SOL     OW  823   1.456   2.494   1.274 -0.4339 -0.3182  0.0258
  275SOL    HW1  824   1.431   2.572   1.328 -0.8693 -0.9678  0.6584
  275SOL    HW2  825   1.549   2.460   1.301  0.5513  1.8034 -0.1510
  276SOL     OW  826   2.481   2.167   1.755  0.3234  0.1450 -0.7146
  276SOL    HW1  827   2.409   2.217   1.699  1.7177 -1.2174 -0.7794
  276SOL    HW2  828   2.531   2.239   1.805  1.0032 -0.1084 -0.6902
  277SOL     OW  829   2.283   0.166   1.040 -0.0163 -0.1628 -0.4091
  277SOL    HW1  830   2.353   0.244   1.046 -0.6392 -0.0097 -0.3989
  277SOL    HW2  831   2.308   0.096   1.112 -0.9399  0.1857 -1.3592
  278SOL     OW  832   1.632   3.011   2.473 -0.2951  0.3421 -0.3393
  278SOL    HW1  833   1.635   3.114   2.452  0.7831  1.1130 -2.2064
  278SOL    HW2  834   1.551   2.993   2.535 -1.7322 -2.4336 -2.0642
  279SOL     OW  835   1.103   2.206   1.441  0.3667  0.3569 -0.2834
  279SOL    HW1  836   1.112   2.109   1.469  0.2683 -0.4637  0.9189
  279SOL    HW2  837   1.194   2.258   1.452 -2.8668 -0.4956  1.1846
  280SOL     OW  838   0.907   1.119   0.413  0.5756 -0.2128  0.3678
  280SOL    HW1  839   0.888   1.182   0.489  1.7632  0.2265  1.9776
  280SOL    HW2  840   0.963   1.157   0.335  0.5789  1.0724  1.1913
  281SOL     OW  841   2.427   2.005   0.012 -0.7941  0.2275 -0.1073
  281SOL    HW1  842   2.384   2.034   0.100  2.0428  0.9849  2.0971
  281SOL    HW2  843   2.519   1.959   0.031  2.3547 -3.3692  0.2812
  282SOL     OW  844   3.060   1.040   0.806  0.4789  0.4973  0.4423
  282SOL    HW1  845   3.123   0.985   0.866 -1.4254  2.3600 -0.1863
  282SOL    HW2  846   3.119   1.074   0.729  1.8331 -0.1475  1.8266
  283SOL     OW  847   2.041   1.914   0.446 -0.4082 -0.5466  0.4899
  283SOL    HW1  848   1.964   1.856   0.471  0.1812 -0.2960  2.1898
  283SOL    HW2  849   2.008   2.009   0.422  1.5237  0.7776  0.3764
  284SOL     OW  850   0.925   0.418   2.795 -0.3006  0.4007  0.0547
  284SOL    HW1  851   1.016   0.375   2.810 -1.3627  1.3338 -2.7588
  284SOL    HW2  852   0.878   0.436   2.886 -0.6261  0.0133 -1.6949
  285SOL     OW  853   2.168   1.532   0.114  0.9016  0.2469  0.1612
  285SOL    HW1  854   2.163   1.627   0.149 -1.5894  3.6077  1.4529
  285SOL    HW2  855   2.236   1.480   0.164  1.1334  0.0795  2.0971
  286SOL     OW  856   1.548   1.986   1.565  0.4411 -0.0361 -0.5715
  286SOL    HW1  857   1.624   1.960   1.630 -1.7186  0.5092 -2.0095
  286SOL    HW2  858   1.470   1.925   1.588 -0.1125  1.2346  0.6870
  287SOL     OW  859   1.436   0.280   1.254 -0.0298 -0.6475 -0.3776
  287SOL    HW1  860   1.428   0.348   1.176  3.8269  0.5810  0.1178
  287SOL    HW2  861   1.532   0.280   1.292  0.4033  0.6825 -1.3448
  288SOL     OW  862   0.487   2.423   2.200  0.3286 -0.1970 -0.3742
  288SOL    HW1  863   0.585   2.396   2.216 -0.4971  2.4320 -0.0427
  288SOL    HW2  864   0.439   2.416   2.293 -0.1122 -0.4300  1.2301
  289SOL     OW  865   2.877   0.981   0.562 -0.3574 -0.4039 -0.0258
  289SOL    HW1  866   2.785   1.022   0.569  0.3458  1.6437 -0.3934
  289SOL    HW2  867   2.934   1.031   0.634 -0.9675  0.8496  0.0412
  290SOL     OW  868   0.311   1.966   1.731 -0.4417 -0.0570  0.3559
  290SOL    HW1  869   0.386   2.031   1.708 -0.8690 -2.6468 -1.9488
  290SOL    HW2  870   0.341   1.885   1.784  1.5457  0.2937 -0.0228
  291SOL     OW  871   2.203   0.625   0.677  0.2417 -0.9090  0.2277
  291SOL    HW1  872   2.193   0.523   0.678  1.2371 -2.6184 -0.4277
  291SOL    HW2  873   2.118   0.661   0.717 -2.7854 -1.4410 -1.2871
  292SOL     OW  874   0.546   0.570   1.516  0.3525 -0.2965 -0.4760
  292SOL    HW1  875   0.634   0.553   1.573  0.7591  0.7120  0.5269
  292SOL    HW2  876   0.553   0.664   1.471  1.4760 -0.2362 -2.4853
  293SOL     OW  877   2.477   1.334   1.815 -0.4538  0.3175 -0.3250
  293SOL    HW1  878   2.399   1.402   1.838  0.1486 -2.7094  0.0109
  293SOL    HW2  879   2.482   1.260   1.887 -0.9943 -0.0150  0.6899
  294SOL     OW  880   0.158   2.920   2.288 -0.5496  0.1598 -0.1565
  294SOL    HW1  881   0.183   2.823   2.305  1.0153  1.2579 -0.1415
  294SOL    HW2  882   0.092   2.933   2.213 -3.3998  0.5542  1.7058
  295SOL     OW  883   0.986   0.851   0.240 -0.1799 -0.4053  0.1137
  295SOL    HW1  884   0.906   0.911   0.221 -0.2425  0.4814  0.8488
  295SOL    HW2  885   1.057   0.876   0.172 -0.9524  0.0951 -0.1288
  296SOL     OW  886   1.654   1.375   1.363 -0.0866  0.3647  0.1810
  296SOL    HW1  887   1.686   1.432   1.443 -1.8273 -0.1190 -1.6372
  296SOL    HW2  888   1.670   1.279   1.385  0.6314 -0.4484  2.1359
  297SOL     OW  889   1.875   0.351   2.843 -0.4123 -0.0950  0.1524
  297SOL    HW1  890   1.964   0.366   2.796  2.0274  1.3655 -0.1607
  297SOL    HW2  891   1.831   0.442   2.849 -1.0666  0.6286 -0.2357
  298SOL     OW  892   1.079   0.436   2.378 -0.2957  0.3098  0.3390
  298SOL    HW1  893   1.031   0.345   2.383  1.5130 -0.5037  0.5664
  298SOL    HW2  894   1.178   0.421   2.369  1.1926 -3.5601 -0.6472
  299SOL     OW  895   1.487   0.528   2.004  0.3834  0.1380 -0.6552
  299SOL    HW1  896   1.460   0.600   2.070 -2.5791  0.9108 -0.4671
  299SOL    HW2  897   1.577   0.485   2.023 -3.1225 -0.9441 -3.9098
  300SOL     OW  898   3.001   3.000   1.525  0.3188  0.5882 -0.6951
  300SOL    HW1  899   2.981   3.056   1.441 -1.5978  2.5439 -0.7786
  300SOL    HW2  900   3.053   3.059   1.593 -1.3540  1.2646  0.3434
  301SOL     OW  901   1.457   1.630   1.133 -0.3340  0.3819 -0.5573
  301SOL    HW1  902   1.414   1.657   1.046  1.9944 -1.6170 -0.5170
  301SOL    HW2  903   1.559   1.612   1.118 -0.0249  0.4350 -2.2544
  302SOL     OW  904   0.725   0.011   2.599 -0.4041  0.5847  0.7186
  302SOL    HW1  905   0.738   0.112   2.602  1.7831  0.9573  2.6644
  302SOL    HW2  906   0.813  -0.036   2.619  0.7245  0.4808 -1.0027
  303SOL     OW  907   1.651   2.768   1.042 -0.2623  0.4155 -0.0765
  303SOL    HW1  908   1.579   2.758   0.974 -1.5830 -3.1342 -0.0846
  303SOL    HW2  909   1.608   2.779   1.131 -0.4052  1.4821 -0.2485
  304SOL     OW  910   0.468   2.378   1.158 -0.1331 -1.0271 -0.0497
  304SOL    HW1  911   0.473   2.414   1.059  0.3644  0.1281  1.0194
  304SOL    HW2  912   0.474   2.457   1.225 -0.5672 -0.3343  0.1259
  305SOL     OW  913   1.296   0.742   0.451 -0.3898 -0.1511 -0.1469
  305SOL    HW1  914   1.222   0.804   0.477  0.6530 -1.0681 -0.6541
  305SOL    HW2  915   1.341   0.700   0.531  0.4324 -0.7059  0.1331
  306SOL     OW  916   0.847   1.180   2.880  0.1433  0.3788 -0.2061
  306SOL    HW1  917   0.757   1.228   2.897  1.3184 -2.4885  0.8142
  306SOL    HW2  918   0.822   1.117   2.803  0.1201  0.0235  1.8266
  307SOL     OW  919   0.808   0.830   1.833 -0.2775 -0.1522  0.5776
  307SOL    HW1  920   0.814   0.816   1.730  1.3767  1.3499 -1.0102
  307SOL    HW2  921   0.749   0.911   1.854  0.8774  2.2224 -0.2465
  308SOL     OW  922   0.832   0.568   1.931  0.4724 -0.0212  0.1039
  308SOL    HW1  923   0.930   0.536   1.925 -1.5190 -1.9936 -1.2516
  308SOL    HW2  924   0.832   0.669   1.913 -0.0981  0.1576 -1.4138
  309SOL     OW  925   1.989   0.361   0.441 -0.3508 -0.2526 -0.7314
  309SOL    HW1  926   2.040   0.398   0.523  0.4676  0.3378 -0.4499
  309SOL    HW2  927   2.029   0.268   0.412  0.2889  0.1737  2.5307
  310SOL     OW  928   1.600   1.923   0.393 -0.1024 -0.4162 -0.5417
  310SOL    HW1  929   1.519   1.862   0.405  0.3761  0.9749 -1.3189
  310SOL    HW2  930   1.586   1.978   0.312 -0.6638 -0.7171  0.4031
  311SOL     OW  931   1.628   2.514   2.965  0.2208 -0.4711  0.0724
  311SOL    HW1  932   1.703   2.580   2.941 -0.3518  1.1413  0.5246
  311SOL    HW2  933   1.551   2.532   2.900 -1.4862  0.6123  1.7805
  312SOL     OW  934   1.764   0.143   2.704 -0.2884 -0.4408 -0.1159
  312SOL    HW1  935   1.732   0.164   2.609  1.6932  2.7251  1.2786
  312SOL    HW2  936   1.804   0.223   2.755  0.8533 -1.2713 -0.3956
  313SOL     OW  937   0.671   2.817   0.650 -0.6189  0.2497  0.4558
  313SOL    HW1  938   0.736   2.863   0.586  0.7836 -4.8060 -0.0187
  313SOL    HW2  939   0.582   2.855   0.628 -0.6195  0.4931 -2.0901
  314SOL     OW  940   2.865   1.179   2.950  0.8507  0.5408 -0.0188
  314SOL    HW1  941   2.948   1.217   2.909 -1.3348 -0.6118  0.9006
  314SOL    HW2  942   2.802   1.256   2.981 -1.1970  0.7266  0.4016
  315SOL     OW  943   2.292   0.781   2.393 -0.0670 -0.1913  0.7259
  315SOL    HW1  944   2.335   0.829   2.308  1.2233  0.1505  2.0242
  315SOL    HW2  945   2.206   0.732   2.368  2.3403 -0.7772  0.7467
  316SOL     OW  946   0.128   0.890   0.973  0.1190  0.2160  0.0621
  316SOL    HW1  947   0.169   0.913   1.063 -1.6472  0.9022  0.3233
  316SOL    HW2  948   0.161   0.804   0.928  1.3578  1.6014  0.0802
  317SOL     OW  949   0.531   2.959   2.732 -0.3684  0.3336 -0.4299
  317SOL    HW1  950   0.583   3.030   2.675  0.5394 -0.9487  2.6143
  317SOL    HW2  951   0.438   2.995   2.748 -3.2031  0.2530  0.0250
  318SOL     OW  952   2.691   2.310   1.155 -0.4814  0.6579 -0.0083
  318SOL    HW1  953   2.767   2.378   1.154 -1.0745 -0.0184 -1.6435
  318SOL    HW2  954   2.727   2.219   1.121 -1.6990  0.1566  0.6537
  319SOL     OW  955   1.328   1.712   0.904  0.1899 -0.3645  0.2419
  319SOL    HW1  956   1.332   1.797   0.847  1.2400  2.9252 -2.4475
  319SOL    HW2  957   1.238   1.718   0.952  1.8994  1.3995  0.5711
  320SOL     OW  958   0.267   2.250   0.708  0.0693 -0.0313  0.0041
  320SOL    HW1  959   0.199   2.261   0.786 -3.0810  0.1903  1.5450
  320SOL    HW2  960   0.332   2.173   0.734  1.3571 -0.1290  0.7244
  321SOL     OW  961   2.850   2.678   2.730  0.2299  0.0369  0.5398
  321SOL    HW1  962   2.809   2.587   2.750  0.9049  0.9022  0.0497
  321SOL    HW2  963   2.838   2.698   2.627 -0.8937 -0.9031  1.0355
  322SOL     OW  964   2.735   1.741   2.456  0.0611 -0.5194 -0.1706
  322SOL    HW1  965   2.807   1.806   2.489 -0.5885 -2.8499  1.0223
  322SOL    HW2  966   2.642   1.752   2.501  1.3707 -1.6753  0.8879
  323SOL     OW  967   0.002   2.627   0.747 -0.4964 -0.3742  0.7444
  323SOL    HW1  968   0.008   2.648   0.848 -3.4374 -1.4530  1.8903
  323SOL    HW2  969  -0.065   2.550   0.736 -2.5221 -2.4984 -0.4355
  324SOL     OW  970   2.295   1.598   2.518 -0.4628 -0.3082  0.2338
  324SOL    HW1  971   2.349   1.515   2.498  2.2633  1.0918 -0.2568
  324SOL    HW2  972   2.357   1.659   2.559 -0.0465 -2.2802 -1.6556
  325SOL     OW  973   1.630   0.253   1.987  0.3508 -0.2612  0.3288
  325SOL    HW1  974   1.665   0.299   1.904 -0.2634 -0.0826 -2.0327
  325SOL    HW2  975   1.707   0.249   2.049 -2.6042 -0.5052  0.8637
  326SOL     OW  976   0.229   1.691   0.072 -0.0612 -0.0091  0.2976
  326SOL    HW1  977   0.298   1.688   0.146  0.4336 -0.0557 -0.3425
  326SOL    HW2  978   0.146   1.640   0.103 -2.7606 -2.2283 -0.3689
  327SOL     OW  979   2.159   0.217   0.116 -0.2872 -0.3638 -0.7463
  327SOL    HW1  980   2.229   0.266   0.168  0.6354  2.8213  1.2850
  327SOL    HW2  981   2.192   0.209   0.017 -0.6353  1.7116 -1.1466
  328SOL     OW  982   0.653   1.317   1.215  0.0987  0.3434 -0.0299
  328SOL    HW1  983   0.612   1.361   1.132 -2.3145  1.9084 -1.5468
  328SOL    HW2  984   0.752   1.328   1.224 -2.1272 -0.2452 -0.6151
  329SOL     OW  985   1.570   2.249   1.472 -0.1598  0.4045 -0.0762
  329SOL    HW1  986   1.559   2.151   1.511 -1.6003 -1.7470 -0.5742
  329SOL    HW2  987   1.613   2.241   1.377  0.4153 -1.5693  2.3496
  330SOL     OW  988   1.084   0.318   1.453  0.0034 -0.3548 -0.6026
  330SOL    HW1  989   1.111   0.417   1.465  0.1883  0.5542  1.1881
  330SOL    HW2  990   0.984   0.312   1.422 -1.4998 -1.2940  0.6693
  331SOL     OW  991   0.314   2.244   1.470 -0.1730  0.9038  0.0809
  331SOL    HW1  992   0.302   2.347   1.462  0.3260 -0.3350  2.8847
  331SOL    HW2  993   0.388   2.225   1.537 -1.8080 -1.3920  1.8815
  332SOL     OW  994   2.631   2.330   1.426  0.1491  0.0850  0.0603
  332SOL    HW1  995   2.663   2.301   1.334 -0.3216 -3.2192  1.1951
  332SOL    HW2  996   2.591   2.250   1.478 -1.3213 -3.1898 -0.2620
  333SOL     OW  997   3.013   3.070   0.770  0.1219  0.1539 -0.2140
  333SOL    HW1  998   3.115   3.057   0.774 -0.7691 -1.5068 -0.8217
  333SOL    HW2  999   2.983   3.114   0.679 -0.5955 -1.5345  0.8567
  334SOL     OW 1000   2.890   1.726   1.534 -0.1503 -0.0870 -0.4944
  334SOL    HW1 1001   2.952   1.776   1.470 -3.1645 -1.5922 -0.1963
  334SOL    HW2 1002   2.913   1.624   1.520  0.6241  0.5036 -0.3378
  335SOL     OW 1003   0.374   2.820   1.974 -0.0013 -0.6564 -0.4537
  335SOL    HW1 1004   0.327   2.904   2.005 -2.0466 -1.3909  1.3792
  335SOL    HW2 1005   0.338   2.742   2.020  1.2775  1.6353 -0.3074
  336SOL     OW 1006   2.698   0.092   2.081  0.6746  0.2825  0.4650
  336SOL    HW1 1007   2.633   0.070   2.159 -3.6518  2.1528  2.1583
  336SOL    HW2 1008   2.652   0.097   1.991  0.7442  0.1749 -2.8057
  337SOL     OW 1009   1.766   1.829   2.503  0.4202 -0.6606 -0.1725
  337SOL    HW1 1010   1.791   1.732   2.529  1.8512  0.5092 -0.1286
  337SOL    HW2 1011   1.795   1.898   2.573  0.7342  2.8261  0.6469
  338SOL     OW 1012   1.132   0.003   2.536  0.0703 -0.2745 -0.0638
  338SOL    HW1 1013   1.147  -0.052   2.452 -0.2959  0.9731  1.4485
  338SOL    HW2 1014   1.081  -0.052   2.600 -0.8948 -2.6751  1.0105
  339SOL     OW 1015   0.819   1.021   2.672 -0.0383 -0.4072 -0.2815
  339SOL    HW1 1016   0.821   0.926   2.705  0.9540 -1.1036  0.8305
  339SOL    HW2 1017   0.882   1.032   2.591 -1.6891  0.4814  1.9491
  340SOL     OW 1018   2.248   0.400   2.243  0.6565  0.1417 -0.9285
  340SOL    HW1 1019   2.255   0.303   2.225  0.9846 -1.0440 -0.8434
  340SOL    HW2 1020   2.331   0.444   2.215  1.3112  0.8833  0.8344
  341SOL     OW 1021   2.032   1.327   1.146 -0.4465  0.2978 -0.0337
  341SOL    HW1 1022   2.020   1.384   1.226  2.5837 -0.0582 -1.8954
  341SOL    HW2 1023   2.104   1.366   1.087  1.4166  2.4721 -0.3761
  342SOL     OW 1024   2.431   2.666   3.050  0.5025  0.0260  0.0105
  342SOL    HW1 1025   2.443   2.570   3.085 -0.2028  2.2424  1.4848
  342SOL    HW2 1026   2.509   2.692   2.992  0.0536  0.1674  0.5861
  343SOL     OW 1027   0.671   2.473   0.556 -0.2677 -0.5632 -0.2427
  343SOL    HW1 1028   0.569   2.467   0.555 -0.6395  1.4599  1.2897
  343SOL    HW2 1029   0.701   2.501   0.653  1.0597  2.8201  1.0649
  344SOL     OW 1030   2.674   2.678   0.624 -0.2146 -0.2747  0.2633
  344SOL    HW1 1031   2.594   2.671   0.561  1.2036  0.9424 -1.1717
  344SOL    HW2 1032   2.765   2.688   0.570 -0.6542 -0.2037 -1.6777
  345SOL     OW 1033   2.637   2.514   0.260  0.2312  0.5772  0.3060
  345SOL    HW1 1034   2.589   2.479   0.178  4.5827 -0.5200 -0.7940
  345SOL    HW2 1035   2.718   2.565   0.228  2.9299 -1.0850 -1.7096
  346SOL     OW 1036   1.240   2.601   1.508 -0.5864  0.4161  0.0042
  346SOL    HW1 1037   1.265   2.502   1.505  0.8313 -0.0628  0.9499
  346SOL    HW2 1038   1.187   2.629   1.425 -1.2957 -1.3159  2.1848
  347SOL     OW 1039   1.558   0.047   2.832  0.3201 -1.0972  0.4783
  347SOL    HW1 1040   1.518  -0.035   2.789  1.0296 -0.5442  0.6913
  347SOL    HW2 1041   1.621   0.099   2.773 -1.6848 -1.0137 -1.8756
  348SOL     OW 1042   0.114   1.938   0.747 -0.2582  0.2496  0.5051
  348SOL    HW1 1043   0.176   2.010   0.724  1.4741  1.2273 -2.5846
  348SOL    HW2 1044   0.139   1.857   0.694  2.1548 -0.9759  3.3982
  349SOL     OW 1045   1.810   1.596   1.517  0.6009 -0.1148 -0.0327
  349SOL    HW1 1046   1.826   1.695   1.499 -0.9254 -2.7312 -2.1529
  349SOL    HW2 1047   1.766   1.575   1.610 -1.4341  2.2080 -0.1325
  350SOL     OW 1048   2.339   2.970   0.879  0.1721 -0.0799  0.4757
  350SOL    HW1 1049   2.318   2.914   0.959  0.9732  2.2191 -0.9316
  350SOL    HW2 1050   2.439   2.992   0.872  0.6736 -1.0288  0.8274
  351SOL     OW 1051   0.290   2.610   2.144  0.0715 -0.6328 -0.7704
  351SOL    HW1 1052   0.372   2.554   2.170  0.6754  1.9434  0.1254
  351SOL    HW2 1053   0.231   2.631   2.230 -1.6031  0.4829  1.6811
  352SOL     OW 1054   0.707   0.382   0.306 -0.1665  0.3631 -0.1401
  352SOL    HW1 1055   0.744   0.479   0.305 -0.0865  1.6228 -1.3497
  352SOL    HW2 1056   0.718   0.334   0.394 -1.4945 -1.2677 -0.4831
  353SOL     OW 1057   1.108   1.885   2.397  0.6880  0.0653 -0.3598
  353SOL    HW1 1058   1.128   1.809   2.332 -0.0195  0.1237 -0.6838
  353SOL    HW2 1059   1.062   1.962   2.354  1.9093 -0.0184  0.7392
  354SOL     OW 1060   1.572   2.448   1.877 -0.2165 -0.1133  0.2627
  354SOL    HW1 1061   1.630   2.399   1.807  0.6789  1.5998  2.5187
  354SOL    HW2 1062   1.505   2.517   1.827 -0.6534  1.4890  1.2810
  355SOL     OW 1063   2.516   0.601   2.972  0.2560 -0.1879 -1.0684
  355SOL    HW1 1064   2.603   0.653   2.954  1.5975  0.6228 -0.3086
  355SOL    HW2 1065   2.542   0.506   3.009 -2.0107  0.2619 -1.6992
  356SOL     OW 1066   0.495   2.162   0.904 -0.5070 -0.4591 -0.4491
  356SOL    HW1 1067   0.472   2.119   0.814  2.6449  0.4539  0.7861
  356SOL    HW2 1068   0.489   2.095   0.979  2.0362 -1.3095  0.2996
  357SOL     OW 1069   0.175   2.917   1.265 -0.0433  0.2972  0.6019
  357SOL    HW1 1070   0.212   2.991   1.203  3.0139 -0.2887  2.1294
  357SOL    HW2 1071   0.069   2.934   1.274  0.8485  1.5452 -0.4885
  358SOL     OW 1072   2.946   2.050   0.786 -0.2023  0.2467 -0.6490
  358SOL    HW1 1073   2.947   2.122   0.716  0.0973  1.5691  1.4573
  358SOL    HW2 1074   3.039   2.005   0.798  3.3671 -0.5207 -1.8010
  359SOL     OW 1075   2.775   1.215   2.196 -0.2779 -0.7591  0.0405
  359SOL    HW1 1076   2.684   1.242   2.232  0.6189  0.5586  0.1438
  359SOL    HW2 1077   2.852   1.225   2.267  1.6079  0.0553 -0.7165
  360SOL     OW 1078   1.267   2.393   1.126 -0.4818 -0.4497 -0.3634
  360SOL    HW1 1079   1.339   2.438   1.185  1.4619  0.7726  0.4234
  360SOL    HW2 1080   1.183   2.363   1.177 -1.0321  1.5787 -1.0281
  361SOL     OW 1081   2.080   2.863   0.135 -0.3785  0.0406 -0.0319
  361SOL    HW1 1082   2.116   2.808   0.055  0.9619 -0.8409 -1.8939
  361SOL    HW2 1083   2.027   2.941   0.097 -2.7561  0.5266 -1.6923
  362SOL     OW 1084   2.097   0.765   1.438  0.4814  0.1643 -0.2458
  362SOL    HW1 1085   2.123   0.679   1.486 -1.2507 -0.7691 -1.2020
  362SOL    HW2 1086   2.016   0.744   1.372 -2.8470  0.0560 -1.6060
  363SOL     OW 1087   1.761   1.354   2.538 -0.0581  0.0944  0.2147
  363SOL    HW1 1088   1.690   1.304   2.488 -1.1149 -1.2365  0.3132
  363SOL    HW2 1089   1.769   1.316   2.635 -1.6869 -1.1345  0.3454
  364SOL     OW 1090   0.328   0.424   1.630  0.6398 -0.1282  0.1897
  364SOL    HW1 1091   0.393   0.499   1.616  1.1576 -2.4390  1.0010
  364SOL    HW2 1092   0.316   0.410   1.730 -1.0657  0.4357  0.4442
  365SOL     OW 1093   0.698   0.799   0.044  0.4544  0.0469  0.4625
  365SOL    HW1 1094   0.757   0.883   0.043  1.6547  0.4279 -0.1861
  365SOL    HW2 1095   0.686   0.770  -0.056 -0.3243  1.1457 -0.1766
  366SOL     OW 1096   2.561   1.293   2.342 -0.6228 -0.7050  0.0698
  366SOL    HW1 1097   2.514   1.337   2.261  0.4591  0.2562  0.0223
  366SOL    HW2 1098   2.503   1.305   2.425  2.3353  1.1985  1.0441
  367SOL     OW 1099   2.720   2.884   1.914  0.6177  0.4093 -0.1543
  367SOL    HW1 1100   2.628   2.896   1.869  1.5111 -0.7821 -0.5209
  367SOL    HW2 1101   2.715   2.829   2.001  2.9793  0.6223 -1.2403
  368SOL     OW 1102   2.980   0.453   1.978 -0.0900  0.4765  0.7730
  368SOL    HW1 1103   3.076   0.433   1.952 -0.4283 -2.2556 -1.6137
  368SOL    HW2 1104   2.953   0.544   1.939  0.3282  0.9879  2.1053
  369SOL     OW 1105   1.103   2.762   1.705 -0.3891  0.3942 -0.8949
  369SOL    HW1 1106   1.157   2.743   1.621  0.3681 -0.4880 -2.7434
  369SOL    HW2 1107   1.035   2.687   1.718  2.4628 -1.1898 -1.1321
  370SOL     OW 1108   2.297   0.963   0.936  0.3716  0.2125 -0.0472
  370SOL    HW1 1109   2.349   0.891   0.889 -1.9486 -4.7612 -0.0589
  370SOL    HW2 1110   2.342   0.989   1.026 -3.6659  3.7118 -0.8662
  371SOL     OW 1111   0.251   2.503   1.442 -0.3923  0.0481 -0.9481
  371SOL    HW1 1112   0.259   2.560   1.360  1.2469  0.3530  1.4140
  371SOL    HW2 1113   0.241   2.562   1.527 -1.9229 -1.0506  1.0631
  372SOL     OW 1114   2.238   0.162   2.942  0.4843  0.0064  0.1182
  372SOL    HW1 1115   2.246   0.251   2.895 -0.4042 -0.3254 -1.0626
  372SOL    HW2 1116   2.168   0.104   2.901  0.1790 -3.5934 -0.3594
  373SOL     OW 1117   0.354   1.440   0.441  0.2775 -0.0891  0.3305
  373SOL    HW1 1118   0.253   1.461   0.452  1.8149 -0.6667 -2.5280
  373SOL    HW2 1119   0.373   1.353   0.487  1.7831  0.9675 -0.9327
  374SOL     OW 1120   0.274   0.579   2.211  0.3363 -0.2509  0.1868
  374SOL    HW1 1121   0.372   0.577   2.180  2.1230 -1.0479  2.1053
  374SOL    HW2 1122   0.239   0.486   2.218  0.1829 -0.1815  1.5744
  375SOL     OW 1123   0.708   0.517   2.397 -1.6209  0.8030  0.6744
  375SOL    HW1 1124   0.769   0.509   2.476 -0.9550 -0.0642  0.8715
  375SOL    HW2 1125   0.750   0.503   2.306 -0.2835 -2.1136  0.1074
  376SOL     OW 1126   1.210   2.501   2.413  0.2994 -0.7745 -0.2313
  376SOL    HW1 1127   1.241   2.428   2.476 -0.2263 -1.5526 -0.3148
  376SOL    HW2 1128   1.287   2.555   2.377 -2.4054  0.4292  1.2041
  377SOL     OW 1129   1.484   3.048   0.005  0.1168 -0.1742 -0.4182
  377SOL    HW1 1130   1.506   3.091  -0.084 -0.0198 -0.6147 -0.6411
  377SOL    HW2 1131   1.492   3.115   0.086 -1.1615  0.7325 -1.6841
  378SOL     OW 1132   0.017   0.697   2.998  0.5057 -0.6518  0.2028
  378SOL    HW1 1133   0.096   0.634   3.016 -0.8673 -0.3751  0.6703
  378SOL    HW2 1134   0.003   0.711   2.897 -2.7517  2.6641 -1.7472
  379SOL     OW 1135   1.418   0.955   3.082  0.7119  0.2668  0.5806
  379SOL    HW1 1136   1.442   0.857   3.098  0.8698 -2.2715 -2.5254
  379SOL    HW2 1137   1.391   0.979   2.989  0.1958 -1.2294  1.4522
  380SOL     OW 1138   0.190   1.957   1.494  0.6473  0.1326 -0.2981
  380SOL    HW1 1139   0.236   1.958   1.590 -0.7187  0.1786 -0.1259
  380SOL    HW2 1140   0.170   2.056   1.466 -0.0901 -0.0826 -2.6922
  381SOL     OW 1141   3.031   0.787   1.665 -0.4526  0.3297  0.3308
  381SOL    HW1 1142   3.111   0.735   1.630 -1.3131  0.3640  0.4793
  381SOL    HW2 1143   2.991   0.855   1.598  0.2185  2.0495  2.4433
  382SOL     OW 1144   1.772   2.604   0.449 -0.0842  0.4654 -0.0916
  382SOL    HW1 1145   1.797   2.610   0.352 -0.9211  0.0436 -0.0688
  382SOL    HW2 1146   1.828   2.677   0.495  0.0796 -4.9090  0.0608
  383SOL     OW 1147   0.176   1.026   2.356 -0.6618  0.4152  0.3440
  383SOL    HW1 1148   0.206   0.929   2.380 -1.1205 -2.5277  1.5400
  383SOL    HW2 1149   0.098   1.028   2.292  1.1344  0.0019 -0.3361
  384SOL     OW 1150   0.520   2.152   2.462  0.0611  0.0845  0.1493
  384SOL    HW1 1151   0.534   2.140   2.560 -2.0636  2.1361 -1.3501
  384SOL    HW2 1152   0.471   2.242   2.455 -1.9413  0.1888  1.2164
  385SOL     OW 1153   2.747   1.917   1.219 -0.0813  0.2798 -0.1061
  385SOL    HW1 1154   2.791   1.973   1.290  0.0129 -0.2857 -1.0203
  385SOL    HW2 1155   2.815   1.840   1.193 -1.2554 -3.4687  2.6936
  386SOL     OW 1156   2.307   0.992   1.538 -0.1207  0.0116 -0.3253
  386SOL    HW1 1157   2.252   0.973   1.448  1.5519 -1.1061  0.7481
  386SOL    HW2 1158   2.401   0.958   1.531 -0.3411 -0.8977  0.9464
  387SOL     OW 1159   1.366   0.736   2.147  0.3075  0.1180 -0.4033
  387SOL    HW1 1160   1.288   0.670   2.164 -0.3248  1.0721 -0.1839
  387SOL    HW2 1161   1.333   0.809   2.082  0.3831  1.8537 -1.1523
  388SOL     OW 1162   1.546   1.632   2.495 -0.1996 -0.0419  0.0752
  388SOL    HW1 1163   1.540   1.552   2.434 -0.4598  0.1177  1.0668
  388SOL    HW2 1164   1.543   1.717   2.442  0.2256  0.7141 -0.9859
  389SOL     OW 1165   1.204   0.552   1.481  0.2714  0.1099  0.0576
  389SOL    HW1 1166   1.205   0.598   1.577 -1.4537 -2.0149  0.5892
  389SOL    HW2 1167   1.203   0.627   1.409  3.2400  1.2666  0.1499
  390SOL     OW 1168   0.500   0.821   1.104  0.9689  0.2014  0.0107
  390SOL    HW1 1169   0.474   0.904   1.061  0.2291  1.4890  0.6053
  390SOL    HW2 1170   0.462   0.735   1.058  1.8521  1.7554  0.1004
  391SOL     OW 1171   1.555   1.251   0.912 -0.3296  0.2993  0.3968
  391SOL    HW1 1172   1.518   1.266   1.006 -0.7542 -1.3913  0.3449
  391SOL    HW2 1173   1.659   1.240   0.910 -0.1545  2.0696  1.2465
  392SOL     OW 1174   2.507   0.065   0.375 -0.1589  0.2971  0.7284
  392SOL    HW1 1175   2.499   0.047   0.275 -1.4697 -0.5463  1.3151
  392SOL    HW2 1176   2.484   0.161   0.396 -0.0777 -2.1130  1.5795
  393SOL     OW 1177   0.974   2.085   2.247  0.3527  0.2794 -0.2442
  393SOL    HW1 1178   1.007   2.182   2.240 -0.5719 -1.0923  0.9775
  393SOL    HW2 1179   0.872   2.075   2.253  1.1529 -1.0253 -2.0797
  394SOL     OW 1180   0.121   1.850   2.901 -0.0044  0.5158 -0.2588
  394SOL    HW1 1181   0.036   1.821   2.951  0.3786  0.6181  1.2298
  394SOL    HW2 1182   0.190   1.894   2.963  0.2007  1.2069  1.1300
  395SOL     OW 1183   0.424   1.028   0.925  0.3417  0.7989  0.5663
  395SOL    HW1 1184   0.367   1.106   0.954  0.1614  0.5956 -0.0439
  395SOL    HW2 1185   0.426   1.018   0.820 -2.3520  1.5174 -1.5316
  396SOL     OW 1186   2.700   0.310   0.740 -0.3741 -0.1125 -0.0753
  396SOL    HW1 1187   2.659   0.235   0.682 -0.4791 -1.2803  1.1438
  396SOL    HW2 1188   2.772   0.264   0.797 -0.5848 -0.7049  0.0027
  397SOL     OW 1189   2.704   1.016   2.789  0.3486  0.5411  0.0781
  397SOL    HW1 1190   2.756   1.023   2.703 -1.8720  2.2827 -2.4018
  397SOL    HW2 1191   2.753   1.063   2.863  0.4976  1.8129 -1.5898
  398SOL     OW 1192   0.476   0.285   0.197  0.2897  0.1143 -0.2334
  398SOL    HW1 1193   0.570   0.288   0.225  2.7476 -0.4388 -0.1783
  398SOL    HW2 1194   0.429   0.193   0.210 -0.5473 -1.5823  0.5513
  399SOL     OW 1195   2.162   0.533   1.584  0.1176 -0.1439  0.1968
  399SOL    HW1 1196   2.233   0.470   1.626 -1.7273  0.1092 -0.1310
  399SOL    HW2 1197   2.114   0.575   1.661  1.1114 -0.2440 -2.0665
  400SOL     OW 1198   1.069   2.075   2.821  0.0199 -0.0921 -0.0310
  400SOL    HW1 1199   1.041   1.977   2.833  0.7393  1.3363  0.7486
  400SOL    HW2 1200   1.016   2.119   2.745  0.7079 -0.5014  0.0136
  401SOL     OW 1201   2.843   0.952   0.017  0.0320 -0.1082  0.1593
  401SOL    HW1 1202   2.883   0.957   0.109  1.2397 -0.0158  0.4641
  401SOL    HW2 1203   2.858   1.040  -0.030  1.5172 -0.3796  1.4603
  402SOL     OW 1204   0.328   0.086   0.610 -0.1270 -0.1297 -0.1264
  402SOL    HW1 1205   0.268   0.107   0.530  3.4871  0.0337 -1.7964
  402SOL    HW2 1206   0.344   0.173   0.663  0.3361  2.3607  0.6998
  403SOL     OW 1207   0.557   0.795   1.383 -0.3106  0.2983 -0.2518
  403SOL    HW1 1208   0.628   0.856   1.425  0.9315 -2.1769  2.0187
  403SOL    HW2 1209   0.548   0.807   1.281 -1.6826  2.2231 -0.2037
  404SOL     OW 1210   2.950   1.874   2.563  0.0391  0.6113  0.6747
  404SOL    HW1 1211   3.038   1.820   2.565 -3.3853  0.5238 -1.9535
  404SOL    HW2 1212   2.956   1.960   2.619 -0.2717 -1.2048 -0.6654
  405SOL     OW 1213   0.582   0.767   2.465  0.1383 -0.6074 -0.0144
  405SOL    HW1 1214   0.621   0.672   2.440 -1.1672 -3.4845  1.7389
  405SOL    HW2 1215   0.571   0.777   2.565  2.0794 -1.4966  2.4160
  406SOL     OW 1216   1.271   1.377   2.702  0.0178 -0.4288 -0.0576
  406SOL    HW1 1217   1.349   1.415   2.652  0.6147  1.5691 -0.1575
  406SOL    HW2 1218   1.298   1.361   2.800  1.7552 -1.9094 -0.8628
  407SOL     OW 1219   2.050   0.043   2.741  0.2705  0.3677 -1.1880
  407SOL    HW1 1220   1.963   0.095   2.752  1.2214 -1.6554  1.4194
  407SOL    HW2 1221   2.105   0.068   2.660 -0.6242 -1.9049  1.6517
  408SOL     OW 1222   0.731   3.037   2.164 -0.4395 -0.1714 -0.7220
  408SOL    HW1 1223   0.708   2.949   2.105  0.0313  0.9019  0.1351
  408SOL    HW2 1224   0.672   3.117   2.157 -2.3067 -0.6345  1.8530
  409SOL     OW 1225   3.016   2.697   1.272 -0.2043  0.4545  0.2822
  409SOL    HW1 1226   2.936   2.757   1.289  0.7694  0.9971  0.7161
  409SOL    HW2 1227   3.077   2.680   1.351  1.2771  1.4943  0.6392
  410SOL     OW 1228   0.516   1.505   0.103 -0.0888 -0.6150  0.5189
  410SOL    HW1 1229   0.561   1.473   0.191  0.0856 -1.0369  0.9343
  410SOL    HW2 1230   0.570   1.565   0.048 -2.3324  1.6055  1.0671
  411SOL     OW 1231   2.104   2.735   1.730 -0.1359  0.4509 -0.5431
  411SOL    HW1 1232   2.033   2.659   1.730 -0.1804  3.8788  0.4156
  411SOL    HW2 1233   2.153   2.744   1.644 -1.2647 -1.3466  1.7509
  412SOL     OW 1234   2.754   0.159   1.626  0.6867  0.3281  0.2234
  412SOL    HW1 1235   2.786   0.251   1.656 -0.4150 -0.4748  0.6427
  412SOL    HW2 1236   2.836   0.101   1.623  0.2956  3.3231 -1.6649
  413SOL     OW 1237   2.617   0.969   2.241  0.4203  0.6169 -0.2017
  413SOL    HW1 1238   2.677   1.038   2.205 -1.2431 -0.3873  0.7955
  413SOL    HW2 1239   2.647   0.946   2.334 -0.9605 -0.7952  1.0655
  414SOL     OW 1240   2.571   1.197   0.750 -0.5156 -0.1022  0.4087
  414SOL    HW1 1241   2.472   1.197   0.767  0.0881 -1.2917  1.1059
  414SOL    HW2 1242   2.594   1.149   0.662 -0.5130 -0.0654  1.4618
  415SOL     OW 1243   0.462   2.534   2.908  0.1924  0.4496  0.3099
  415SOL    HW1 1244   0.501   2.492   2.989  0.2178  0.9805 -0.8741
  415SOL    HW2 1245   0.533   2.589   2.856 -0.8401  1.9130  0.7333
  416SOL     OW 1246   1.166   2.418   2.965 -0.0075  0.4390  0.2896
  416SOL    HW1 1247   1.112   2.498   2.939  2.6153 -1.4330  0.4056
  416SOL    HW2 1248   1.203   2.437   3.058  0.3664 -0.2249  0.6740
  417SOL     OW 1249   0.341   1.105   1.522 -0.1647  0.3296  0.4069
  417SOL    HW1 1250   0.412   1.112   1.594 -0.3129  0.8437  0.8388
  417SOL    HW2 1251   0.263   1.173   1.531  1.3522  0.2248 -0.7173
  418SOL     OW 1252   2.104   3.086   1.466  0.8455  0.2911  1.4950
  418SOL    HW1 1253   2.059   3.037   1.391 -0.4060  0.9772 -1.7223
  418SOL    HW2 1254   2.079   3.186   1.467  0.2678  0.2903 -3.2117
  419SOL     OW 1255   0.438   0.359   0.678  0.3854 -0.3344 -0.8781
  419SOL    HW1 1256   0.352   0.412   0.677 -2.1725 -5.5972  1.1958
  419SOL    HW2 1257   0.493   0.395   0.753  0.0083  2.7526  3.3274
  420SOL     OW 1258   2.881   1.275   1.966  0.3222 -0.5206  0.0749
  420SOL    HW1 1259   2.821   1.254   2.043 -0.4045  1.3740 -1.1663
  420SOL    HW2 1260   2.845   1.355   1.914  1.8341  1.8867  0.1057
  421SOL     OW 1261   1.028   0.054   0.323 -0.1323  0.1896  0.2729
  421SOL    HW1 1262   0.955   0.067   0.252 -1.1280 -0.8026  0.4101
  421SOL    HW2 1263   1.037   0.143   0.375  1.3065  0.9711 -1.3421
  422SOL     OW 1264   0.565   0.446   1.133 -0.1140  0.1641  0.2782
  422SOL    HW1 1265   0.546   0.375   1.200 -0.4583 -2.6288  1.6913
  422SOL    HW2 1266   0.486   0.500   1.109 -2.2755  0.3011 -0.3814
  423SOL     OW 1267   1.101   1.735   1.339  0.8190  0.0057  0.1902
  423SOL    HW1 1268   1.038   1.706   1.416 -1.4511 -0.7911 -0.4839
  423SOL    HW2 1269   1.199   1.710   1.358  1.0449  0.2925 -0.9767
  424SOL     OW 1270   1.537   1.515   0.523  0.2876  0.3799 -0.2984
  424SOL    HW1 1271   1.507   1.489   0.616 -0.4406  0.2572  0.1426
  424SOL    HW2 1272   1.508   1.609   0.499 -1.6762  0.2371  1.2974
  425SOL     OW 1273   2.759   2.806   1.333 -0.0149  0.1491  0.3184
  425SOL    HW1 1274   2.743   2.753   1.417 -0.9263 -0.6209  2.0220
  425SOL    HW2 1275   2.692   2.880   1.317 -0.4651  2.2648  2.6794
  426SOL     OW 1276   0.000   0.133   2.618  0.3999 -0.2969 -0.6550
  426SOL    HW1 1277  -0.061   0.150   2.536  0.6327 -1.0140  1.6136
  426SOL    HW2 1278  -0.055   0.121   2.705  0.8318  2.6733 -0.3182
  427SOL     OW 1279   0.453   2.940   0.588  0.3018 -0.5506 -0.1138
  427SOL    HW1 1280   0.384   2.873   0.562  3.3718  1.1196 -1.3393
  427SOL    HW2 1281   0.407   3.032   0.591 -0.3307  0.8485  0.8508
  428SOL     OW 1282   2.860   0.410   1.727  0.3254 -0.4450 -0.4963
  428SOL    HW1 1283   2.916   0.401   1.816  1.5076  0.1418 -1.5606
  428SOL    HW2 1284   2.921   0.442   1.651 -0.4454  2.5538 -1.8407
  429SOL     OW 1285   1.647   2.544   0.672  0.1731  0.1776  0.0791
  429SOL    HW1 1286   1.576   2.477   0.651 -1.2738  0.9491 -1.6035
  429SOL    HW2 1287   1.688   2.582   0.590  3.0379 -0.6371  1.6063
  430SOL     OW 1288   1.023   1.328   2.620  0.0456 -0.1410 -0.0750
  430SOL    HW1 1289   1.117   1.342   2.656 -0.7550  3.3912 -1.0739
  430SOL    HW2 1290   0.957   1.391   2.669 -0.5281  1.3797  0.9180
  431SOL     OW 1291   2.419   2.477   0.855 -0.5773 -0.4207 -0.4210
  431SOL    HW1 1292   2.374   2.565   0.836 -0.3458  0.2167  0.5266
  431SOL    HW2 1293   2.419   2.457   0.957 -0.4457  2.1925  1.5396
  432SOL     OW 1294   1.601   2.143   2.826 -0.4898 -0.2433  0.6909
  432SOL    HW1 1295   1.640   2.195   2.905  0.2056 -1.3891  1.6913
  432SOL    HW2 1296   1.501   2.149   2.814  1.1617  2.8813  0.6740
  433SOL     OW 1297   2.073   0.375   2.605 -0.3123  0.4044 -0.2634
  433SOL    HW1 1298   2.093   0.286   2.561  0.8992  2.1435  0.8763
  433SOL    HW2 1299   2.014   0.428   2.538  2.1876 -1.1376  0.2723
  434SOL     OW 1300   1.027   2.652   2.926  0.0632  0.3537 -0.3471
  434SOL    HW1 1301   0.934   2.679   2.963 -0.8153  0.6071  0.4644
  434SOL    HW2 1302   1.074   2.732   2.894 -0.7026 -0.7163  1.2448
  435SOL     OW 1303   2.888   2.588   0.108 -0.6263  0.4769  0.1291
  435SOL    HW1 1304   2.952   2.570   0.178 -1.7460  1.0455  0.8690
  435SOL    HW2 1305   2.882   2.688   0.083  2.4279  0.9022 -0.6697
  436SOL     OW 1306   2.966   0.709   1.912 -0.9164 -0.3631  0.0658
  436SOL    HW1 1307   3.055   0.707   1.956 -1.5178  0.5431  0.4890
  436SOL    HW2 1308   2.979   0.738   1.815  0.8326  0.1566  0.8299
  437SOL     OW 1309   1.355   2.027   2.419  0.0866 -0.1941  0.0852
  437SOL    HW1 1310   1.282   1.961   2.429 -1.3275  1.0900 -0.8530
  437SOL    HW2 1311   1.446   1.980   2.413 -0.6080  2.8458 -1.2410
  438SOL     OW 1312   0.896   0.454   0.633 -0.0623  0.5819 -0.1263
  438SOL    HW1 1313   0.950   0.433   0.715  1.9133 -0.4698 -0.9003
  438SOL    HW2 1314   0.807   0.400   0.625 -0.4142 -0.4768  1.4278
  439SOL     OW 1315   2.996   1.271   2.387  0.1351 -0.8335 -0.6217
  439SOL    HW1 1316   3.053   1.343   2.345  0.5603 -0.1526 -0.1985
  439SOL    HW2 1317   3.044   1.225   2.465 -2.9483  1.9196 -0.5843
  440SOL     OW 1318   2.747   0.725   2.994 -0.2759 -0.5101  0.2686
  440SOL    HW1 1319   2.799   0.649   3.034 -0.0314 -2.7238  0.1862
  440SOL    HW2 1320   2.780   0.809   3.041 -2.0349  1.5515 -0.1627
  441SOL     OW 1321   0.578   1.652   0.702  0.4685 -0.2438 -0.2413
  441SOL    HW1 1322   0.614   1.674   0.793  1.6007 -3.2154 -2.0166
  441SOL    HW2 1323   0.521   1.572   0.702  3.0228  1.6807  1.3627
  442SOL     OW 1324   2.648   1.759   0.810 -0.2414  0.5534  0.5221
  442SOL    HW1 1325   2.631   1.738   0.910 -0.3952 -0.1016 -0.1722
  442SOL    HW2 1326   2.637   1.670   0.760 -1.2748 -0.9401 -0.9008
  443SOL     OW 1327   2.664   1.828   3.040 -0.0923 -0.3184  0.1922
  443SOL    HW1 1328   2.698   1.919   2.998 -0.7542  2.0275  0.3986
  443SOL    HW2 1329   2.597   1.778   2.977 -0.5489  0.9959  1.9708
  444SOL     OW 1330   2.158   1.178   2.418  0.5720  0.1838 -0.0044
  444SOL    HW1 1331   2.221   1.161   2.340 -1.0563  2.2675  0.1986
  444SOL    HW2 1332   2.165   1.106   2.494 -1.7854 -2.1629 -0.9513
  445SOL     OW 1333   0.791   1.998   1.288  0.4615  0.7166  0.2687
  445SOL    HW1 1334   0.888   1.973   1.265 -3.2012  0.2192  0.0397
  445SOL    HW2 1335   0.749   2.078   1.233 -1.1343 -0.2970  1.9307
  446SOL     OW 1336   1.463   1.161   2.094  0.5844  0.2313  0.6869
  446SOL    HW1 1337   1.555   1.143   2.131 -1.3958  3.8838  1.5296
  446SOL    HW2 1338   1.466   1.244   2.033 -0.9324  2.7078 -0.4808
  447SOL     OW 1339   0.346   0.588   1.045 -0.8876  0.6455 -0.2856
  447SOL    HW1 1340   0.281   0.603   0.962  0.9885  2.7974  1.6287
  447SOL    HW2 1341   0.303   0.617   1.135 -1.0154  0.0674  1.2653
  448SOL     OW 1342   1.757   0.805   2.095 -0.0496  0.1890  0.8367
  448SOL    HW1 1343   1.863   0.800   2.110  3.7088 -2.1508 -0.8934
  448SOL    HW2 1344   1.729   0.755   2.008  1.7650  0.6273 -2.1542
  449SOL     OW 1345   0.406   1.384   2.152  0.3809 -0.1961 -0.7092
  449SOL    HW1 1346   0.505   1.404   2.137  3.0066 -2.4213  0.4066
  449SOL    HW2 1347   0.376   1.428   2.232  2.4389 -0.7835 -0.2176
  450SOL     OW 1348   2.351   1.844   2.109 -0.0667  0.7834  0.8016
  450SOL    HW1 1349   2.321   1.873   2.016 -2.1939 -0.9818  0.3392
  450SOL    HW2 1350   2.428   1.778   2.100  0.1790 -2.9501  1.2574
  451SOL     OW 1351   2.570   1.175   1.370  0.0188 -0.4492  0.4239
  451SOL    HW1 1352   2.557   1.255   1.434 -0.4854 -3.7489  2.9301
  451SOL    HW2 1353   2.610   1.097   1.419 -0.8942  0.8479  0.4074
  452SOL     OW 1354   1.217   0.679   1.711 -0.2157 -0.1543  0.4488
  452SOL    HW1 1355   1.154   0.667   1.790 -1.8221 -0.9505 -0.1846
  452SOL    HW2 1356   1.308   0.713   1.742  0.4427 -1.1898  0.8463
  453SOL     OW 1357   0.406   2.406   0.544 -0.2083 -0.6744 -0.0664
  453SOL    HW1 1358   0.358   2.346   0.616 -1.1019  0.5807  0.6817
  453SOL    HW2 1359   0.397   2.357   0.456 -1.3861 -2.8452  2.2871
  454SOL     OW 1360   1.150   1.420   0.681  0.3196 -0.2421 -0.0448
  454SOL    HW1 1361   1.112   1.345   0.733 -0.8977  1.9885  0.3199
  454SOL    HW2 1362   1.247   1.436   0.717 -1.1280 -0.9557 -0.4707
  455SOL     OW 1363   1.615   1.159   1.697  0.1656  0.7139  0.1319
  455SOL    HW1 1364   1.704   1.129   1.662  0.4920 -0.2855 -0.8017
  455SOL    HW2 1365   1.575   1.092   1.756  1.8836 -0.9232  2.2702
  456SOL     OW 1366   2.197   2.839   2.734 -0.0691 -0.2078  0.0163
  456SOL    HW1 1367   2.107   2.789   2.726 -0.9163  3.9364  0.5118
  456SOL    HW2 1368   2.201   2.927   2.689  0.6275  0.1749 -2.1407
  457SOL     OW 1369   2.356   1.338   2.526 -0.0730 -0.3926 -0.3194
  457SOL    HW1 1370   2.261   1.316   2.495  0.6598  2.4090  0.4382
  457SOL    HW2 1371   2.364   1.287   2.613  1.1350 -0.4923 -0.0412
  458SOL     OW 1372   2.550   0.049   2.321 -0.0216  0.7374 -0.4001
  458SOL    HW1 1373   2.504   0.097   2.398 -1.1838 -1.1298  1.1668
  458SOL    HW2 1374   2.647   0.027   2.344  0.0730  0.3366  2.0931
  459SOL     OW 1375   2.405   1.228   2.768  0.3178  0.0777  0.2551
  459SOL    HW1 1376   2.329   1.281   2.802 -0.3997 -2.5302  1.1229
  459SOL    HW2 1377   2.420   1.145   2.827  1.7686  0.2131 -0.1690
  460SOL     OW 1378   0.869   0.751   2.749  0.4263  0.3838  0.3565
  460SOL    HW1 1379   0.915   0.693   2.681  1.9519  1.8219  1.0307
  460SOL    HW2 1380   0.928   0.753   2.834  0.3547 -0.1324  0.2785
  461SOL     OW 1381   2.706   1.697   0.181  0.1103  0.0059 -0.1832
  461SOL    HW1 1382   2.718   1.764   0.111 -1.2120 -1.3200 -1.8047
  461SOL    HW2 1383   2.617   1.712   0.230 -1.9988  1.7563  2.5256
  462SOL     OW 1384   1.379   2.796   2.460 -0.1887  0.4589 -0.7401
  462SOL    HW1 1385   1.397   2.699   2.423  2.5728  1.6257 -3.4269
  462SOL    HW2 1386   1.300   2.843   2.416 -1.4327  0.1072  3.2788
  463SOL     OW 1387   1.313   2.778   2.085 -0.2768 -0.3068  0.3640
  463SOL    HW1 1388   1.252   2.828   2.018  1.4719  3.7437 -1.4320
  463SOL    HW2 1389   1.370   2.843   2.134 -0.5043  0.1905 -0.8364
  464SOL     OW 1390   2.299   2.088   0.258  0.3938 -0.0074  0.0833
  464SOL    HW1 1391   2.294   2.190   0.236 -2.8204 -0.4915 -0.1191
  464SOL    HW2 1392   2.279   2.069   0.355 -0.0981 -0.9082  0.6910
  465SOL     OW 1393   3.051   0.353   0.923 -0.1191 -0.4077 -0.5167
  465SOL    HW1 1394   3.049   0.412   0.838  0.6970 -0.1737 -1.7092
  465SOL    HW2 1395   3.069   0.413   1.007 -2.0825 -1.3071 -0.1515
  466SOL     OW 1396   1.247   1.634   0.131  0.4580  0.0656 -0.2950
  466SOL    HW1 1397   1.333   1.666   0.082 -2.5874 -2.0906  3.2448
  466SOL    HW2 1398   1.230   1.685   0.215 -1.4272 -1.6365  0.9018
  467SOL     OW 1399   2.955   1.627   0.266 -0.4319 -0.4278 -0.3322
  467SOL    HW1 1400   2.878   1.624   0.206  2.8719 -0.3923  1.5598
  467SOL    HW2 1401   2.985   1.723   0.275 -0.4662 -1.4118  0.3496
  468SOL     OW 1402   2.187   2.435   2.836 -0.0888 -0.0371 -0.5487
  468SOL    HW1 1403   2.172   2.499   2.912 -0.1514 -1.5596  0.2263
  468SOL    HW2 1404   2.174   2.336   2.861  2.3956 -1.9847 -0.1949
  469SOL     OW 1405   2.917   2.216   0.568  0.1280  0.2112 -0.0509
  469SOL    HW1 1406   2.929   2.135   0.508 -1.6359 -1.1921  1.0622
  469SOL    HW2 1407   2.839   2.276   0.538 -1.9832  1.9299  2.0885
  470SOL     OW 1408   1.824   1.291   0.961  0.1837 -0.5259  0.1854
  470SOL    HW1 1409   1.899   1.296   1.032 -0.3633  1.5264 -0.4646
  470SOL    HW2 1410   1.863   1.268   0.868 -1.4323 -1.0997 -1.1334
  471SOL     OW 1411   2.970   1.280   0.363  0.2523 -0.9206 -0.1225
  471SOL    HW1 1412   2.985   1.285   0.461  0.4442 -0.8436  0.5538
  471SOL    HW2 1413   3.048   1.245   0.312  1.2552  0.5369  0.6566
  472SOL     OW 1414   2.190   2.754   3.002 -0.4784  0.5888  0.0539
  472SOL    HW1 1415   2.288   2.739   3.028 -0.3097 -0.2323  0.8070
  472SOL    HW2 1416   2.185   2.776   2.901  0.3277  0.6481 -0.9723
  473SOL     OW 1417   1.115   1.648   1.091  0.1671 -0.0629  0.2869
  473SOL    HW1 1418   1.031   1.615   1.045 -0.5997 -0.8918 -2.5004
  473SOL    HW2 1419   1.088   1.694   1.177 -1.1456 -0.6762  2.3642
  474SOL     OW 1420   0.059   0.123   1.291  0.3569  0.4699  0.1354
  474SOL    HW1 1421   0.000   0.053   1.243 -0.9699 -0.8963 -0.0463
  474SOL    HW2 1422   0.109   0.184   1.231 -0.8968  0.1320 -0.0303
  475SOL     OW 1423   2.813   0.020   1.358  0.1382  0.2606  0.0275
  475SOL    HW1 1424   2.727  -0.035   1.348 -0.2700 -1.7127 -0.9200
  475SOL    HW2 1425   2.792   0.116   1.354  0.5108 -3.7374  2.5342
  476SOL     OW 1426   0.571   2.766   0.332 -0.0818 -0.5018 -0.9181
  476SOL    HW1 1427   0.590   2.867   0.306 -0.6169 -1.4179  3.0988
  476SOL    HW2 1428   0.528   2.713   0.260  2.7662  1.9848 -0.5654
  477SOL     OW 1429   0.963   2.955   1.310 -0.3816 -0.0872 -0.5474
  477SOL    HW1 1430   0.915   3.036   1.271 -0.7831 -0.8825  1.8908
  477SOL    HW2 1431   0.974   2.957   1.409  1.7022 -2.6633  2.9156
  478SOL     OW 1432   2.068   2.318   0.022 -0.7359  0.1668  0.1681
  478SOL    HW1 1433   1.997   2.259   0.065  1.3679 -1.2608  1.8972
  478SOL    HW2 1434   2.032   2.413   0.004 -3.2088 -1.1042 -0.8608
  479SOL     OW 1435   0.148   0.590   2.551  0.8052  0.4549 -0.6846
  479SOL    HW1 1436   0.199   0.588   2.637 -1.1296 -1.0449  2.2555
  479SOL    HW2 1437   0.188   0.667   2.496  0.9163 -0.4579  2.9836
  480SOL     OW 1438   0.102   2.217   2.727 -0.3127  0.1360  0.1768
  480SOL    HW1 1439   0.090   2.306   2.676 -0.5716  2.4433 -1.3134
  480SOL    HW2 1440   0.181   2.223   2.796  1.3136  0.2003 -0.8727
  481SOL     OW 1441   1.001   2.954   2.131  0.2467 -0.2394  0.3823
  481SOL    HW1 1442   1.064   2.958   2.045 -2.2983 -0.9751 -0.5004
  481SOL    HW2 1443   0.911   3.004   2.123 -1.2425 -0.9542 -0.5437
  482SOL     OW 1444   1.869   1.888   2.011  0.1342 -0.0306  0.0826
  482SOL    HW1 1445   1.948   1.949   1.995 -1.3645  2.0010  1.1601
  482SOL    HW2 1446   1.879   1.849   2.107  0.4991 -0.6497  2.1619
  483SOL     OW 1447   1.459   2.543   2.730 -0.2624  0.0667 -0.2783
  483SOL    HW1 1448   1.384   2.509   2.667  1.5775  1.1861 -0.1653
  483SOL    HW2 1449   1.548   2.552   2.685 -3.4556 -1.5902  0.1482
  484SOL     OW 1450   1.789   0.449   0.998  0.6498  0.0481  0.0223
  484SOL    HW1 1451   1.885   0.422   0.981 -0.3972  1.0791  2.4121
  484SOL    HW2 1452   1.730   0.368   1.023 -0.0338  2.2417  2.7226
  485SOL     OW 1453   1.767   0.596   0.643 -0.0952 -0.7042 -0.1597
  485SOL    HW1 1454   1.672   0.623   0.627  0.1359  1.9735 -1.8368
  485SOL    HW2 1455   1.762   0.494   0.657 -1.9249 -3.0071  0.3921
  486SOL     OW 1456   2.710   2.448   2.825  0.7119 -0.0626  0.5695
  486SOL    HW1 1457   2.747   2.414   2.913 -2.1218  3.2087 -0.9624
  486SOL    HW2 1458   2.608   2.462   2.829 -0.3852  1.4221 -0.1330
  487SOL     OW 1459   1.402   0.906   1.401  0.2568 -0.3925  0.0037
  487SOL    HW1 1460   1.467   0.824   1.403  0.0478 -1.0037 -0.1856
  487SOL    HW2 1461   1.434   0.993   1.446  1.4141  1.2887 -0.3172
  488SOL     OW 1462   2.406   2.901   2.333  0.0997 -0.7895  0.1390
  488SOL    HW1 1463   2.372   2.846   2.252 -0.2143  0.9418 -0.6015
  488SOL    HW2 1464   2.450   2.986   2.310 -1.4809 -0.5149  2.6794
  489SOL     OW 1465   1.154   2.407   0.526 -0.2886  0.0750 -0.1538
  489SOL    HW1 1466   1.115   2.445   0.609 -0.6664  0.1527 -0.1091
  489SOL    HW2 1467   1.103   2.449   0.445  1.7022 -2.0218  0.0839
  490SOL     OW 1468   1.830   1.199   3.009 -0.4007 -0.3457 -0.4602
  490SOL    HW1 1469   1.911   1.147   3.041  0.4709 -0.2621 -2.0304
  490SOL    HW2 1470   1.745   1.176   3.065  3.7316 -3.6283 -1.6460
  491SOL     OW 1471   1.237   2.598   0.952  0.0441 -0.3962  0.0224
  491SOL    HW1 1472   1.329   2.625   0.919  2.1957  0.0092  2.1792
  491SOL    HW2 1473   1.246   2.525   1.025  2.7187  1.7825  1.4551
  492SOL     OW 1474   1.334   2.208   2.824 -1.0643  0.4488  0.4491
  492SOL    HW1 1475   1.258   2.139   2.810  0.4575  0.9823  3.5920
  492SOL    HW2 1476   1.300   2.283   2.884  3.8542 -0.8157 -1.1309
  493SOL     OW 1477   0.495   1.711   2.816  0.5090  0.0392 -0.1331
  493SOL    HW1 1478   0.412   1.684   2.867  2.3850  1.5755 -0.5347
  493SOL    HW2 1479   0.462   1.750   2.726  1.3017  0.0608 -1.6064
  494SOL     OW 1480   1.398   3.073   0.497  0.5318  0.0352 -0.2452
  494SOL    HW1 1481   1.379   3.172   0.495  0.4641  3.8689 -1.9004
  494SOL    HW2 1482   1.307   3.028   0.524 -1.7357  0.2575 -2.8640
  495SOL     OW 1483   2.370   3.081   1.446 -0.0329  0.3592  0.0777
  495SOL    HW1 1484   2.397   2.993   1.495  0.2095  1.6781 -0.3034
  495SOL    HW2 1485   2.268   3.091   1.456 -3.0990 -1.2687 -1.3282
  496SOL     OW 1486   2.564   1.666   2.073  0.1491 -0.5494 -0.0168
  496SOL    HW1 1487   2.527   1.569   2.072  1.3647  2.2689  1.4026
  496SOL    HW2 1488   2.595   1.694   1.983  0.8304  2.3117  1.2281
  497SOL     OW 1489   1.554   1.275   0.204 -0.2356 -0.4212  0.3163
  497SOL    HW1 1490   1.556   1.260   0.307  2.2781 -0.8367  1.4792
  497SOL    HW2 1491   1.620   1.217   0.154  1.8910 -1.8835  0.8469
  498SOL     OW 1492   0.695   0.218   1.664 -0.1980 -0.0730  0.0278
  498SOL    HW1 1493   0.732   0.208   1.760  0.4467  0.6320 -0.9720
  498SOL    HW2 1494   0.598   0.196   1.658  1.4391  1.6311 -2.6527
  499SOL     OW 1495   0.053   2.246   1.710  0.3681  0.3199  0.0730
  499SOL    HW1 1496   0.070   2.150   1.688 -0.1149 -2.5201  0.3340
  499SOL    HW2 1497   0.022   2.300   1.625  0.2656  1.9740  1.2863
  500SOL     OW 1498   0.521   0.101   2.160 -0.0207 -0.4513 -0.3232
  500SOL    HW1 1499   0.520   0.152   2.251  1.8929  0.9564  1.3561
  500SOL    HW2 1500   0.535   0.167   2.081  0.9832 -2.8240  0.7001
  501SOL     OW 1501   1.795   0.079   0.391 -0.4818  0.8020 -0.0081
  501SOL    HW1 1502   1.897   0.073   0.392 -3.1808 -2.3261  0.3340
  501SOL    HW2 1503   1.761   0.158   0.336 -0.9145  2.1484 -0.6214
  502SOL     OW 1504   3.005   0.505   1.526  0.5446  0.1035  0.3345
  502SOL    HW1 1505   2.951   0.530   1.441  0.5192  1.5256  1.3039
  502SOL    HW2 1506   3.086   0.563   1.534  0.2784  2.4360  0.0613
  503SOL     OW 1507   1.798   2.228   2.292  0.6553 -0.1131 -0.5717
  503SOL    HW1 1508   1.737   2.158   2.253  1.8355 -1.2720 -0.3197
  503SOL    HW2 1509   1.753   2.320   2.314  1.4163  1.0708 -0.3964
  504SOL     OW 1510   2.067   1.315   1.614 -0.0469  0.1219 -0.2453
  504SOL    HW1 1511   2.151   1.273   1.650  0.2653  0.3363  0.6677
  504SOL    HW2 1512   1.990   1.249   1.611  0.1500  2.5758 -0.1597
  505SOL     OW 1513   1.810   2.829   2.593  0.0727 -0.0067  0.1356
  505SOL    HW1 1514   1.880   2.804   2.520  1.2608  0.0914 -0.3567
  505SOL    HW2 1515   1.744   2.896   2.556  0.5241  2.5457  1.0592
  506SOL     OW 1516   0.334   0.809   1.818 -0.3343  0.1451 -0.3183
  506SOL    HW1 1517   0.340   0.825   1.717  3.1603 -2.3233  0.2395
  506SOL    HW2 1518   0.382   0.880   1.876 -0.1570 -1.5674 -2.1001
  507SOL     OW 1519   1.669   0.663   1.145  0.3568 -0.0174 -0.0573
  507SOL    HW1 1520   1.704   0.589   1.084  0.2100  0.7693 -0.3460
  507SOL    HW2 1521   1.632   0.732   1.081  0.2973  0.6089  0.5744
  508SOL     OW 1522   2.359   0.581   1.997 -0.3455 -0.2307  0.6278
  508SOL    HW1 1523   2.456   0.551   1.996  1.3021  0.8071  0.6335
  508SOL    HW2 1524   2.296   0.501   2.001  0.0229  2.1571  3.1303
  509SOL     OW 1525   1.118   1.657   2.243 -0.4982  0.0565  0.0626
  509SOL    HW1 1526   1.109   1.569   2.289  3.0927  2.4129 -0.2672
  509SOL    HW2 1527   1.194   1.641   2.176  0.5835  0.8079  0.2179
  510SOL     OW 1528   2.901   1.088   1.079 -0.7053 -0.2724  0.3600
  510SOL    HW1 1529   2.883   1.004   1.022 -3.3973 -0.9364 -0.7432
  510SOL    HW2 1530   2.819   1.136   1.109 -1.1184 -1.1055 -0.2768
  511SOL     OW 1531   1.531   1.035   1.149 -0.1557  0.1347 -0.4448
  511SOL    HW1 1532   1.454   0.993   1.196 -0.7762 -2.3690  1.5943
  511SOL    HW2 1533   1.555   0.975   1.065  0.4958  1.6282  0.4722
  512SOL     OW 1534   2.873   1.823   0.667  0.3411  0.3729  0.6822
  512SOL    HW1 1535   2.893   1.916   0.716 -0.3131 -1.4334 -0.1014
  512SOL    HW2 1536   2.795   1.777   0.717  0.0340  0.7147 -2.8552
  513SOL     OW 1537   0.063   2.299   0.876 -0.1332  0.1800 -0.1151
  513SOL    HW1 1538   0.055   2.237   0.959 -3.7062  1.6475 -1.8517
  513SOL    HW2 1539  -0.017   2.368   0.870 -0.9408  1.7276  2.0691
  514SOL     OW 1540   3.033   2.230   0.262 -0.5611  0.6006  0.0765
  514SOL    HW1 1541   3.068   2.223   0.167  2.6059 -0.8434 -1.3501
  514SOL    HW2 1542   2.955   2.164   0.273  0.0917  3.1618  1.0571
  515SOL     OW 1543   2.444   0.323   0.441  0.0642  0.0771 -0.3173
  515SOL    HW1 1544   2.493   0.398   0.483 -2.5700 -2.0541 -1.4796
  515SOL    HW2 1545   2.408   0.340   0.348 -0.0642 -1.1733  0.3019
  516SOL     OW 1546   2.054   2.516   0.979 -0.2223  0.4789 -0.1158
  516SOL    HW1 1547   1.998   2.441   0.934 -1.0053  0.7393 -3.1439
  516SOL    HW2 1548   2.038   2.604   0.930 -1.8755 -2.1905  1.6921
  517SOL     OW 1549   1.375   1.907   0.731 -0.1176  0.3081  0.0757
  517SOL    HW1 1550   1.450   1.960   0.782  0.8530  0.7077  0.8693
  517SOL    HW2 1551   1.298   1.966   0.702  0.7337 -2.5285  2.0851
  518SOL     OW 1552   1.483   0.026   0.943 -0.2747  0.1750  0.4800
  518SOL    HW1 1553   1.501  -0.058   0.884  3.3267  1.3974  1.0884
  518SOL    HW2 1554   1.388   0.037   0.967 -3.6839 -1.3336  0.3266
  519SOL     OW 1555   0.338   2.270   2.890  0.1454 -0.3463 -0.2017
  519SOL    HW1 1556   0.386   2.359   2.871  1.7781  0.2686  0.5149
  519SOL    HW2 1557   0.340   2.251   2.994 -1.6724  1.4625  0.7338
  520SOL     OW 1558   1.996   2.273   2.030  0.1358  0.4779  0.0887
  520SOL    HW1 1559   1.955   2.281   2.123 -0.6054 -0.4761  1.9761
  520SOL    HW2 1560   2.036   2.180   2.017  0.5195  0.0402  3.4452
  521SOL     OW 1561   0.952   0.199   2.429 -0.5135  0.9916 -0.2935
  521SOL    HW1 1562   0.876   0.225   2.488 -1.0375 -0.9355 -0.8390
  521SOL    HW2 1563   1.009   0.127   2.470  1.2715  0.4844 -0.9542
  522SOL     OW 1564   2.781   1.945   1.982 -0.5647 -0.4765 -0.8007
  522SOL    HW1 1565   2.803   1.873   2.051  0.7800 -2.1306  1.4314
  522SOL    HW2 1566   2.739   2.021   2.033 -0.7607  0.6731 -2.0568
  523SOL     OW 1567   0.800   1.832   2.011 -0.7196 -0.1624 -0.2694
  523SOL    HW1 1568   0.800   1.764   2.087  2.7135 -1.7265  1.9136
  523SOL    HW2 1569   0.718   1.892   2.025 -2.4139  0.0368 -0.2699
  524SOL     OW 1570   2.078   2.428   0.633  0.2329 -0.1391  0.3011
  524SOL    HW1 1571   2.140   2.390   0.705 -0.8834 -2.2251 -0.4676
  524SOL    HW2 1572   1.988   2.446   0.675  0.1619  0.1600  2.6410
  525SOL     OW 1573   2.811   0.697   2.716  0.1559 -1.0834 -0.7286
  525SOL    HW1 1574   2.776   0.608   2.679 -0.6445  1.2429 -1.3901
  525SOL    HW2 1575   2.777   0.722   2.812 -0.1039  0.0468 -1.1981
  526SOL     OW 1576   0.164   2.703   0.306  0.3632 -0.0758 -0.0099
  526SOL    HW1 1577   0.212   2.688   0.399  1.9827 -0.8520  0.1974
  526SOL    HW2 1578   0.193   2.792   0.262  0.5833  0.3764 -2.1987
  527SOL     OW 1579   0.275   1.260   0.933  0.3014 -0.4120 -0.1848
  527SOL    HW1 1580   0.181   1.252   0.901  0.5897 -0.1543 -1.6820
  527SOL    HW2 1581   0.282   1.325   1.016  0.0023  0.2226  0.5430
  528SOL     OW 1582   1.275   0.949   2.004  0.2178  0.4079 -0.1029
  528SOL    HW1 1583   1.180   0.966   1.973  2.6478  1.5342  2.1601
  528SOL    HW2 1584   1.327   1.028   2.038  1.4865 -0.7284 -1.0152
  529SOL     OW 1585   0.413   0.780   0.035 -0.0152 -0.0058  0.1356
  529SOL    HW1 1586   0.386   0.868  -0.011 -0.4776 -1.3761  2.1129
  529SOL    HW2 1587   0.515   0.785   0.048 -2.3202 -1.0096  2.0106
  530SOL     OW 1588   1.662   0.419   1.759 -0.6809  0.6898  0.1885
  530SOL    HW1 1589   1.578   0.403   1.706 -1.3351 -1.6138 -0.9177
  530SOL    HW2 1590   1.743   0.376   1.712 -1.4051  0.8091  2.2926
  531SOL     OW 1591   1.415   2.354   0.669  0.7446  0.5425 -0.5649
  531SOL    HW1 1592   1.327   2.370   0.615 -1.6848 -1.2323 -0.4593
  531SOL    HW2 1593   1.398   2.322   0.767  1.4145  1.5440  1.0441
  532SOL     OW 1594   0.816   1.029   0.078  0.3665  0.4812 -0.0626
  532SOL    HW1 1595   0.877   1.074   0.007 -4.4588  0.6176 -0.6878
  532SOL    HW2 1596   0.767   1.098   0.138  1.0947 -1.4334  3.3654
  533SOL     OW 1597   0.746   0.448   2.146  0.2531  0.0456 -0.5002
  533SOL    HW1 1598   0.764   0.502   2.058  0.7477  2.0478  1.4848
  533SOL    HW2 1599   0.787   0.354   2.136 -2.3060  1.1261 -1.6285
  534SOL     OW 1600   2.720   0.109   2.673  0.2154  0.3558 -0.0363
  534SOL    HW1 1601   2.688   0.198   2.675  2.6527  0.4478  0.5721
  534SOL    HW2 1602   2.798   0.095   2.742 -1.7402 -0.9178 -3.3138
  535SOL     OW 1603   0.536   0.300   2.352  0.2117  0.0876 -0.2930
  535SOL    HW1 1604   0.598   0.378   2.374 -0.0341  2.2579 -0.4333
  535SOL    HW2 1605   0.458   0.297   2.418 -3.0634  2.1246  0.0591
  536SOL     OW 1606   1.429   1.277   1.178  0.2874 -0.0925 -0.1633
  536SOL    HW1 1607   1.485   1.321   1.249 -0.2011 -0.3560 -1.2265
  536SOL    HW2 1608   1.460   1.182   1.155  0.6728 -1.3210  0.6235
  537SOL     OW 1609   1.934   2.822   1.046  0.3609  0.1364  0.2850
  537SOL    HW1 1610   1.990   2.815   0.962 -0.1312 -2.2067 -1.3515
  537SOL    HW2 1611   1.834   2.800   1.028 -4.0254  1.4618 -1.4497
  538SOL     OW 1612   0.459   2.549   0.168 -0.2531  0.6784 -0.6401
  538SOL    HW1 1613   0.383   2.497   0.214  1.4575  1.0123 -0.9773
  538SOL    HW2 1614   0.513   2.495   0.105 -1.5086 -2.3303 -0.3500
  539SOL     OW 1615   2.271   1.072   2.185  0.3956  0.2025  0.0920
  539SOL    HW1 1616   2.239   1.109   2.095  1.1400  2.4004  0.6136
  539SOL    HW2 1617   2.299   0.974   2.172 -0.4994  0.9354  0.6461
  540SOL     OW 1618   2.271   0.417   2.788 -0.1985  0.6104  0.2321
  540SOL    HW1 1619   2.259   0.498   2.848 -0.5335  1.2369 -0.3128
  540SOL    HW2 1620   2.205   0.420   2.712  0.3415 -1.8594  1.6451
  541SOL     OW 1621   1.344   1.034   2.826  0.6230 -0.6105 -0.0310
  541SOL    HW1 1622   1.247   1.063   2.844  1.0773 -0.0029 -3.3705
  541SOL    HW2 1623   1.415   1.108   2.830 -2.2215  3.0420 -0.6548
  542SOL     OW 1624   1.407   2.596   2.255 -0.1268  0.3000  0.3826
  542SOL    HW1 1625   1.431   2.515   2.202  2.3555 -0.6876 -0.4676
  542SOL    HW2 1626   1.379   2.676   2.199 -0.9329 -2.6269  2.8898
  543SOL     OW 1627   0.300   0.010   2.812  0.5695  1.0027  0.1394
  543SOL    HW1 1628   0.233  -0.037   2.752  2.2633  2.2779  1.0686
  543SOL    HW2 1629   0.263   0.092   2.868  2.3296  1.8181 -2.0557
  544SOL     OW 1630   0.089   1.692   2.552  0.4175 -0.0365 -0.1167
  544SOL    HW1 1631   0.171   1.649   2.509  0.5732 -1.3765 -1.1090
  544SOL    HW2 1632   0.116   1.782   2.596 -0.4439 -1.2294 -1.9541
  545SOL     OW 1633   1.404   2.588   1.719 -0.0736 -0.6016 -0.6722
  545SOL    HW1 1634   1.335   2.589   1.642 -0.3521  2.5992 -1.2288
  545SOL    HW2 1635   1.351   2.567   1.805  1.6953  3.1367  1.0099
  546SOL     OW 1636   2.692   0.482   2.614  0.5370  0.2813  0.1199
  546SOL    HW1 1637   2.631   0.538   2.559  0.7670 -0.3157 -1.6901
  546SOL    HW2 1638   2.743   0.419   2.554 -0.9128 -1.9168  2.8121
  547SOL     OW 1639   1.700   2.858   0.081  0.0334  0.0268 -0.1952
  547SOL    HW1 1640   1.773   2.927   0.055  0.8160 -1.3501 -1.9922
  547SOL    HW2 1641   1.609   2.901   0.081 -1.2751  0.7800  1.4346
  548SOL     OW 1642   0.985   2.285   0.214 -0.3825 -0.1890 -0.3035
  548SOL    HW1 1643   1.013   2.199   0.162  3.1107  0.1135  1.5610
  548SOL    HW2 1644   0.924   2.267   0.294  0.9642 -1.6492  1.0896
  549SOL     OW 1645   2.215   0.512   0.041  0.3823 -0.3706  0.4069
  549SOL    HW1 1646   2.145   0.511   0.118 -2.2790 -0.9693  0.8205
  549SOL    HW2 1647   2.196   0.586  -0.028  1.6189  1.1227 -2.9441
  550SOL     OW 1648   2.159   1.671   0.837  0.0896  0.6796  0.1887
  550SOL    HW1 1649   2.191   1.738   0.903 -0.3297  1.1438  1.1397
  550SOL    HW2 1650   2.198   1.702   0.745  2.4279 -0.1101  0.4407
  551SOL     OW 1651   0.518   0.050   1.191  0.0699 -0.2184  0.6206
  551SOL    HW1 1652   0.504   0.140   1.239  1.4238  3.2880 -1.6514
  551SOL    HW2 1653   0.442   0.029   1.127  0.4517 -0.0603 -3.3008
  552SOL     OW 1654   0.743   1.628   2.508  0.0042  0.0468 -0.2421
  552SOL    HW1 1655   0.808   1.697   2.542 -0.0620 -3.3359  0.2473
  552SOL    HW2 1656   0.712   1.566   2.583 -0.9410  0.0465 -0.9694
  553SOL     OW 1657   2.246   2.121   0.548 -0.0259  0.0359 -0.0149
  553SOL    HW1 1658   2.160   2.134   0.492 -0.0753  0.6315  0.7038
  553SOL    HW2 1659   2.231   2.161   0.641 -1.9605 -1.1632 -1.2137
  554SOL     OW 1660   1.767   1.933   1.717  0.8271 -0.1883 -0.6367
  554SOL    HW1 1661   1.808   2.016   1.762  0.7697  0.9447  1.5158
  554SOL    HW2 1662   1.759   1.848   1.773  1.3973  1.5159 -0.7805
  555SOL     OW 1663   0.999   2.525   1.777  0.3446  0.3421 -0.2161
  555SOL    HW1 1664   0.971   2.508   1.874  0.9384  2.5060  0.7646
  555SOL    HW2 1665   1.000   2.439   1.726 -1.4503 -2.2998  0.2209
  556SOL     OW 1666   1.399   1.530   1.610 -0.4713  0.4727  0.1519
  556SOL    HW1 1667   1.493   1.504   1.636  1.2486  1.0452  1.0954
  556SOL    HW2 1668   1.340   1.445   1.605  2.7240 -2.0154 -1.1230
  557SOL     OW 1669   0.512   0.315   1.358  0.0680 -0.4525 -0.2419
  557SOL    HW1 1670   0.488   0.255   1.437  0.6943  0.5048 -0.2561
  557SOL    HW2 1671   0.521   0.405   1.398  0.4495  2.7869 -0.6803
  558SOL     OW 1672   0.644   0.852   2.218 -0.0799  0.2149  0.7171
  558SOL    HW1 1673   0.658   0.950   2.232  0.4887  2.4498 -1.0302
  558SOL    HW2 1674   0.618   0.805   2.306 -3.2783 -2.5243 -1.1368
  559SOL     OW 1675   0.991   1.967   0.412 -0.5324 -0.3927  0.1277
  559SOL    HW1 1676   1.084   2.001   0.421  0.4707 -1.3636 -1.9155
  559SOL    HW2 1677   0.923   1.995   0.487  0.2673  4.6087 -1.0677
  560SOL     OW 1678   1.686   2.277   3.048 -0.0696  0.0913  0.3867
  560SOL    HW1 1679   1.656   2.367   3.019 -2.3601 -2.7864  0.8539
  560SOL    HW2 1680   1.725   2.292   3.140 -0.1660  1.5089 -1.3130
  561SOL     OW 1681   0.801   0.063   1.189  0.0875 -0.3420  0.2020
  561SOL    HW1 1682   0.700   0.066   1.176 -1.0291 -1.8163 -4.3506
  561SOL    HW2 1683   0.850   0.102   1.107  0.1038 -2.2569 -0.5945
  562SOL     OW 1684   0.637   1.133   2.266 -0.5207 -0.0346 -0.4356
  562SOL    HW1 1685   0.545   1.158   2.250  2.2225  3.3208  1.5555
  562SOL    HW2 1686   0.646   1.121   2.366  0.9826  1.5868 -1.4464
  563SOL     OW 1687   0.899   1.474   2.829  0.0707 -0.5311 -0.3821
  563SOL    HW1 1688   0.983   1.525   2.854 -0.6736  1.6043  0.1249
  563SOL    HW2 1689   0.897   1.382   2.871 -0.8994  2.9348  1.3425
  564SOL     OW 1690   2.356   0.586   1.386  0.1797 -0.3920  0.1979
  564SOL    HW1 1691   2.288   0.559   1.455 -0.6738  0.2050 -1.3158
  564SOL    HW2 1692   2.308   0.618   1.305 -1.1218 -3.1242  2.2541
  565SOL     OW 1693   1.906   1.006   0.699  0.3633 -0.0061 -0.5492
  565SOL    HW1 1694   1.866   1.095   0.661 -1.8878 -0.5062 -2.0659
  565SOL    HW2 1695   1.961   1.010   0.786 -1.3032  3.6852 -1.9688
  566SOL     OW 1696   2.568   2.991   2.807  0.4118 -0.2008  0.1073
  566SOL    HW1 1697   2.528   3.058   2.878 -2.6281 -1.3491  1.3062
  566SOL    HW2 1698   2.621   3.031   2.732 -1.8809  2.0581  0.5972
  567SOL     OW 1699   2.506   1.151   2.028 -0.6758  0.1856  0.1747
  567SOL    HW1 1700   2.595   1.104   1.997  0.5745  1.7200  2.2429
  567SOL    HW2 1701   2.468   1.104   2.110 -0.5094  2.0959  2.7949
  568SOL     OW 1702   1.102   1.149   2.946 -0.3544 -0.4204  0.4089
  568SOL    HW1 1703   1.004   1.146   2.907  0.1221 -0.3848 -2.4049
  568SOL    HW2 1704   1.132   1.249   2.953 -0.7083 -1.4468 -2.3956
  569SOL     OW 1705   2.244   1.571   1.273  0.0430 -0.4491 -0.1301
  569SOL    HW1 1706   2.233   1.642   1.205  0.0611 -0.5320  2.3008
  569SOL    HW2 1707   2.156   1.554   1.320 -2.7076  1.9377  0.3394
  570SOL     OW 1708   2.813   2.777   2.470 -0.6554 -0.3721 -0.4066
  570SOL    HW1 1709   2.712   2.759   2.462  0.7858  1.0896  3.1810
  570SOL    HW2 1710   2.865   2.761   2.382 -0.2004  0.7875  2.5721
  571SOL     OW 1711   0.258   2.378   1.849 -0.5628 -0.3803 -0.1161
  571SOL    HW1 1712   0.199   2.314   1.807  0.3027  3.0452  1.7665
  571SOL    HW2 1713   0.240   2.376   1.949 -2.7751 -0.6248  1.4570
  572SOL     OW 1714   0.855   2.138   2.637  0.4893 -0.2752 -0.2078
  572SOL    HW1 1715   0.845   2.211   2.565  1.3027 -1.8386 -0.2083
  572SOL    HW2 1716   0.841   2.049   2.591  0.7863  1.6717 -1.2804
  573SOL     OW 1717   1.791   2.893   1.482 -0.3657 -0.4895  0.2483
  573SOL    HW1 1718   1.838   2.806   1.500  1.2443  0.3997  0.1472
  573SOL    HW2 1719   1.824   2.936   1.393  1.3592 -0.3180  3.7580
  574SOL     OW 1720   0.709   2.442   1.592  0.1316 -0.2821  0.4339
  574SOL    HW1 1721   0.791   2.401   1.633  0.2806  3.1090 -0.0756
  574SOL    HW2 1722   0.643   2.478   1.660 -2.8935  0.1949 -1.1296
  575SOL     OW 1723   0.951   0.212   1.014 -0.2403 -0.0488 -0.0934
  575SOL    HW1 1724   0.977   0.280   0.941 -2.0659 -0.2347 -0.7310
  575SOL    HW2 1725   1.007   0.244   1.100  0.2902  0.0395 -1.7250
  576SOL     OW 1726   2.428   1.403   2.134  0.1695 -0.0334  0.2049
  576SOL    HW1 1727   2.452   1.313   2.089  0.4831  2.0888  0.1132
  576SOL    HW2 1728   2.327   1.426   2.121 -3.2012  2.5898 -1.6743
  577SOL     OW 1729   2.555   2.719   2.450 -0.4360  0.6278 -0.2935
  577SOL    HW1 1730   2.514   2.697   2.540 -1.4130 -2.6901 -1.7307
  577SOL    HW2 1731   2.497   2.785   2.402  1.1033  0.0720  1.2122
  578SOL     OW 1732   1.643   2.011   2.128 -0.1590  0.8436 -0.2656
  578SOL    HW1 1733   1.735   1.986   2.090  0.2543  0.3739  2.0160
  578SOL    HW2 1734   1.582   2.051   2.054  1.4619 -0.7590 -0.1108
  579SOL     OW 1735   1.033   1.836   0.765 -0.0380 -0.3114  0.0169
  579SOL    HW1 1736   1.070   1.903   0.700  1.8116  0.3123 -0.3428
  579SOL    HW2 1737   0.985   1.875   0.846 -0.1938 -0.8864  0.4722
  580SOL     OW 1738   1.169   2.906   2.888  0.0799  0.9560 -0.4152
  580SOL    HW1 1739   1.248   2.846   2.880 -1.2016 -1.4366 -2.8199
  580SOL    HW2 1740   1.166   2.949   2.979  2.9062  1.1036  3.2527
  581SOL     OW 1741   1.645   1.437   1.679  0.1250 -0.5422  0.2052
  581SOL    HW1 1742   1.647   1.470   1.775 -0.4814  0.8210 -1.3072
  581SOL    HW2 1743   1.644   1.338   1.682  1.2792  1.0093  2.1601
  582SOL     OW 1744   3.090   0.559   1.137 -0.0566  0.5527  0.0380
  582SOL    HW1 1745   3.023   0.576   1.212  2.5846 -1.5545 -0.0730
  582SOL    HW2 1746   3.172   0.607   1.169 -2.0200  0.9131 -0.7305
  583SOL     OW 1747   1.031   1.942   1.199  0.3315 -0.0474  0.2475
  583SOL    HW1 1748   1.051   1.860   1.263 -0.6342  0.1116  0.3320
  583SOL    HW2 1749   1.110   2.004   1.186  0.1707  0.9206  2.5481
  584SOL     OW 1750   2.669   2.454   0.775  0.0285  0.8726 -0.0670
  584SOL    HW1 1751   2.575   2.475   0.814  1.9654  1.2037  0.3147
  584SOL    HW2 1752   2.686   2.520   0.699 -0.0729  2.9050  0.8617
  585SOL     OW 1753   2.525   0.321   2.762 -0.1409 -0.3119 -0.3514
  585SOL    HW1 1754   2.584   0.394   2.722 -3.5336 -0.2115 -0.4846
  585SOL    HW2 1755   2.428   0.353   2.768  0.8207  1.2866 -1.2516
  586SOL     OW 1756   0.248   0.589   3.049 -0.3842  0.0834  0.5699
  586SOL    HW1 1757   0.277   0.496   3.072  1.4608  0.0075  2.8321
  586SOL    HW2 1758   0.314   0.656   3.087  1.9670  0.4213 -1.0812
  587SOL     OW 1759   1.547   2.102   0.875  0.5959  0.4138  0.7183
  587SOL    HW1 1760   1.457   2.151   0.886 -0.2666  0.1126 -1.1942
  587SOL    HW2 1761   1.580   2.054   0.961 -0.0595 -2.1769 -0.2046
  588SOL     OW 1762   2.683   0.494   0.932 -0.0530  0.2836 -0.1556
  588SOL    HW1 1763   2.707   0.421   0.867  1.0561  0.5118 -0.1998
  588SOL    HW2 1764   2.717   0.586   0.896  1.0124 -1.6451  1.2103
  589SOL     OW 1765   1.241   2.718   0.418 -0.1280 -0.1853  0.1450
  589SOL    HW1 1766   1.340   2.706   0.414  1.4058 -0.8133 -1.1621
  589SOL    HW2 1767   1.191   2.633   0.401  1.8298  0.3212  3.1053
  590SOL     OW 1768   1.765   0.894   0.302 -0.1943  0.2545 -0.0273
  590SOL    HW1 1769   1.668   0.913   0.331  3.5320 -3.4713  2.2189
  590SOL    HW2 1770   1.823   0.868   0.383  0.1386 -1.3525 -0.2613
  591SOL     OW 1771   2.886   2.208   2.207  0.2942  0.8772  0.6533
  591SOL    HW1 1772   2.939   2.133   2.256  2.0972 -2.1247  0.2760
  591SOL    HW2 1773   2.936   2.239   2.120  0.8932 -1.7395  1.1801
  592SOL     OW 1774   0.919   1.734   1.556  0.0993  0.7512  0.1905
  592SOL    HW1 1775   0.924   1.648   1.608 -2.9279 -0.9704  0.3088
  592SOL    HW2 1776   0.827   1.758   1.524  0.5510 -3.5660  0.6677
  593SOL     OW 1777   0.878   2.370   1.007 -0.1914 -0.2808  0.3167
  593SOL    HW1 1778   0.852   2.470   1.017 -0.2661  1.3269 -4.5099
  593SOL    HW2 1779   0.952   2.355   1.079 -1.7785  2.0994  0.2839
  594SOL     OW 1780   0.531   1.211   1.704  0.0909 -0.2370  0.2604
  594SOL    HW1 1781   0.469   1.266   1.767  0.7995  1.6270  0.5577
  594SOL    HW2 1782   0.537   1.264   1.617 -0.6861 -0.2828  2.0501
  595SOL     OW 1783   2.602   3.023   0.852  0.0182 -0.3583 -0.2617
  595SOL    HW1 1784   2.624   3.103   0.911 -2.2222  0.4045  0.1550
  595SOL    HW2 1785   2.649   2.936   0.878  0.9715 -0.1586 -0.2689
  596SOL     OW 1786   3.071   0.232   1.527 -0.2003  0.4195  0.0469
  596SOL    HW1 1787   3.083   0.333   1.516 -1.0294  0.2732  0.2520
  596SOL    HW2 1788   3.105   0.178   1.447 -1.4964 -1.4750  0.5469
  597SOL     OW 1789   2.280   1.182   0.791  0.2723  0.3079 -0.5251
  597SOL    HW1 1790   2.221   1.259   0.822  1.6144  0.0419  0.2356
  597SOL    HW2 1791   2.279   1.101   0.849 -0.3290 -0.0846  0.1229
  598SOL     OW 1792   0.203   3.052   1.792  0.3150  0.0808  0.2166
  598SOL    HW1 1793   0.162   2.968   1.833  0.8207  0.8589 -1.3278
  598SOL    HW2 1794   0.255   3.027   1.707 -2.3863 -0.1499 -0.6122
  599SOL     OW 1795   2.501   2.217   2.957 -0.0707  0.5876 -0.6738
  599SOL    HW1 1796   2.417   2.246   2.905  0.2019  1.0785  0.5328
  599SOL    HW2 1797   2.486   2.124   2.997 -0.4576 -1.9343 -1.7490
  600SOL     OW 1798   1.131   0.929   0.008  0.4287 -0.0497  0.1311
  600SOL    HW1 1799   1.124   1.028  -0.013  2.1147 -1.3418 -2.9850
  600SOL    HW2 1800   1.225   0.890   0.021  1.0500  0.4712 -1.1397
  601SOL     OW 1801   1.197   1.008   0.783 -0.7796  0.0135  0.1668
  601SOL    HW1 1802   1.289   1.045   0.762 -0.4791 -0.2293 -0.1084
  601SOL    HW2 1803   1.140   1.081   0.832 -0.6619 -1.2900 -0.8053
  602SOL     OW 1804   0.939   0.815   2.298 -0.1933 -0.3178  0.0230
  602SOL    HW1 1805   0.959   0.913   2.311  0.4457  0.7171  1.2610
  602SOL    HW2 1806   0.844   0.811   2.254  0.8135  2.1349 -4.6935
  603SOL     OW 1807   0.633   2.792   2.054  0.1591  0.6162 -0.5541
  603SOL    HW1 1808   0.678   2.762   1.970 -0.1193 -1.7334 -0.9823
  603SOL    HW2 1809   0.532   2.807   2.036  1.5613  0.1664  0.5464
  604SOL     OW 1810   2.940   2.874   0.928  0.0962 -0.2891 -0.0931
  604SOL    HW1 1811   3.020   2.820   0.970  3.4050 -1.3632  1.7058
  604SOL    HW2 1812   2.975   2.941   0.859 -1.1255  2.0684 -0.9071
  605SOL     OW 1813   1.725   2.347   1.672 -0.7766  0.1973  0.2870
  605SOL    HW1 1814   1.783   2.276   1.719 -0.4956 -1.2424  1.3912
  605SOL    HW2 1815   1.685   2.305   1.586  3.2459 -1.3264 -1.4240
  606SOL     OW 1816   0.107   1.896   2.157  1.3387 -0.1178  0.1156
  606SOL    HW1 1817   0.100   1.956   2.072  3.5737  2.2607  1.1099
  606SOL    HW2 1818   0.069   1.800   2.148 -0.9180 -0.3229  0.1938
  607SOL     OW 1819   0.854   2.850   0.870 -0.1273  0.2523 -0.3149
  607SOL    HW1 1820   0.782   2.821   0.801 -0.2543  2.2614  1.7149
  607SOL    HW2 1821   0.869   2.950   0.853 -0.4012  0.3582  0.0676
  608SOL     OW 1822   1.892   1.764   2.266  0.0764 -0.2535 -0.0960
  608SOL    HW1 1823   1.993   1.746   2.280 -0.1794  0.0206 -0.4303
  608SOL    HW2 1824   1.852   1.807   2.348 -0.5191  0.4514 -0.1856
  609SOL     OW 1825   2.037   0.258   0.988 -0.1403  0.7802 -0.0602
  609SOL    HW1 1826   2.065   0.352   0.958 -0.2001  1.0222 -0.8303
  609SOL    HW2 1827   2.121   0.210   1.011  1.8084  0.0982  0.9775
  610SOL     OW 1828   0.754   2.141   2.880 -0.1883  0.1195 -0.3143
  610SOL    HW1 1829   0.803   2.208   2.942 -1.4991  0.3902  1.1019
  610SOL    HW2 1830   0.790   2.142   2.783 -2.6992 -0.2894  1.2019
  611SOL     OW 1831   1.954   1.314   0.403  0.2802 -0.4139  0.6754
  611SOL    HW1 1832   1.941   1.236   0.334  1.8350  0.1791  2.5002
  611SOL    HW2 1833   2.057   1.338   0.411  1.6377  0.0068 -0.6657
  612SOL     OW 1834   0.898   2.332   3.048  0.7110 -0.7927 -0.0308
  612SOL    HW1 1835   0.904   2.285   3.138  0.7885  1.9570 -3.3824
  612SOL    HW2 1836   0.990   2.358   3.015 -1.5240 -0.6063 -0.5672
  613SOL     OW 1837   0.335   1.926   3.054 -0.2541  0.4769  0.0959
  613SOL    HW1 1838   0.432   1.953   3.061 -0.6925  0.1486  0.5613
  613SOL    HW2 1839   0.326   1.836   3.109 -0.9045  0.2425  0.0598
  614SOL     OW 1840   1.892   2.567   1.685 -0.2633  0.8462  0.1671
  614SOL    HW1 1841   1.839   2.485   1.686 -0.9486 -0.6102  0.8327
  614SOL    HW2 1842   1.903   2.597   1.587  0.5195 -2.6194 -0.7218
  615SOL     OW 1843   2.394   1.364   0.220 -0.3175  0.2382  0.2416
  615SOL    HW1 1844   2.390   1.267   0.198 -1.2744 -0.9195 -1.0723
  615SOL    HW2 1845   2.487   1.412   0.197  3.0213 -0.7297 -0.8781
  616SOL     OW 1846   2.071   0.116   0.384 -0.0065 -0.1365  0.8681
  616SOL    HW1 1847   2.142   0.060   0.431 -0.7721  0.7077 -0.2985
  616SOL    HW2 1848   2.094   0.137   0.285 -0.2848 -1.2840  0.6796
  617SOL     OW 1849   0.384   2.629   2.583 -0.5092 -0.0192 -0.3311
  617SOL    HW1 1850   0.454   2.649   2.652  2.4726 -0.4542  0.9775
  617SOL    HW2 1851   0.425   2.648   2.490 -0.0002 -0.1501  1.3144
  618SOL     OW 1852   1.160   1.255   1.882 -0.3220 -0.1470  0.4367
  618SOL    HW1 1853   1.100   1.310   1.939 -0.3917  3.6279 -1.7987
  618SOL    HW2 1854   1.129   1.160   1.882  2.4661 -1.3394 -0.1442
  619SOL     OW 1855   0.127   0.798   2.021  0.3799  0.3007  0.3313
  619SOL    HW1 1856   0.176   0.819   1.934  2.0062  0.9823  1.5177
  619SOL    HW2 1857   0.190   0.755   2.092 -2.5746 -1.3768  0.4697
  620SOL     OW 1858   2.199   0.965   0.364 -0.0750 -0.1584  0.4387
  620SOL    HW1 1859   2.208   0.863   0.373  0.4356  0.3585  1.3022
  620SOL    HW2 1860   2.264   1.009   0.429 -0.1633  0.9192  0.5226
  621SOL     OW 1861   1.510   2.844   1.523 -0.1885  0.0098 -0.6920
  621SOL    HW1 1862   1.485   2.764   1.577  0.6527 -1.5514  3.0437
  621SOL    HW2 1863   1.611   2.871   1.538 -0.9781  3.2988 -0.7630
  622SOL     OW 1864   1.893   0.266   2.102  0.2338  0.3855 -0.1611
  622SOL    HW1 1865   1.897   0.221   2.196  1.6518  0.6635 -1.1720
  622SOL    HW2 1866   1.915   0.191   2.034 -0.3593 -0.3155 -2.1407
  623SOL     OW 1867   1.438   0.978   2.417 -0.3302 -0.8105  0.1350
  623SOL    HW1 1868   1.416   0.965   2.518 -0.5817 -1.4140 -2.6626
  623SOL    HW2 1869   1.511   0.910   2.393  0.2092  1.4825  1.5610
  624SOL     OW 1870   2.651   0.045   0.616  0.1203  0.0286 -0.2700
  624SOL    HW1 1871   2.593   0.034   0.532 -0.9402 -1.8363 -0.1939
  624SOL    HW2 1872   2.624  -0.005   0.699 -1.2607  1.0171  1.5859
  625SOL     OW 1873   0.383   1.844   0.936  0.6453  0.0839 -0.4940
  625SOL    HW1 1874   0.369   1.899   1.022  1.0868  0.5906  0.5418
  625SOL    HW2 1875   0.333   1.752   0.946 -3.6047  0.3844 -0.5981
  626SOL     OW 1876   1.928   0.975   2.642 -0.4341 -0.0754 -0.2354
  626SOL    HW1 1877   1.892   0.922   2.725 -0.8766  1.5763  0.1813
  626SOL    HW2 1878   2.025   0.951   2.616 -1.3152  2.5287  0.4324
  627SOL     OW 1879   0.215   0.237   2.505  0.2044 -0.1632  0.2670
  627SOL    HW1 1880   0.137   0.201   2.557 -0.9309  2.6107  0.7903
  627SOL    HW2 1881   0.286   0.168   2.500 -0.6696 -0.8724  1.7805
  628SOL     OW 1882   2.440   0.214   2.510  0.4597 -0.0065 -0.1714
  628SOL    HW1 1883   2.479   0.297   2.463  0.0478  2.7696  0.6969
  628SOL    HW2 1884   2.459   0.232   2.606  0.9506 -0.3811  1.8762
  629SOL     OW 1885   1.058   1.225   0.222 -0.3230 -1.0045  0.9472
  629SOL    HW1 1886   1.046   1.296   0.154 -0.2808  0.2878  0.6577
  629SOL    HW2 1887   1.153   1.187   0.209  0.6546  0.8185 -0.4368
  630SOL     OW 1888   1.962   1.372   2.344 -0.7663  0.1202  0.0346
  630SOL    HW1 1889   1.906   1.355   2.429 -1.7063 -1.1557 -2.0371
  630SOL    HW2 1890   2.048   1.318   2.350  2.0062 -0.7241  0.8458
  631SOL     OW 1891   2.492   0.723   1.564 -0.0840  0.0768  0.5320
  631SOL    HW1 1892   2.547   0.669   1.624 -1.1296  1.0102  0.3241
  631SOL    HW2 1893   2.438   0.670   1.490 -1.2263  0.2816  1.6870
  632SOL     OW 1894   2.882   1.979   0.440  0.6940 -0.1980  0.2916
  632SOL    HW1 1895   2.781   1.988   0.408  2.3239  1.4588  2.8110
  632SOL    HW2 1896   2.894   1.915   0.513  1.1472 -1.7993  1.2484
  633SOL     OW 1897   1.199   0.767   1.320 -0.2494 -0.1162 -0.2744
  633SOL    HW1 1898   1.105   0.808   1.319 -1.2994 -0.4842 -0.9336
  633SOL    HW2 1899   1.268   0.831   1.353  0.9298 -0.8348  0.5078
  634SOL     OW 1900   1.145   0.129   0.753 -0.3822 -0.0466 -0.1020
  634SOL    HW1 1901   1.197   0.076   0.687  1.0380  1.6059 -2.6788
  634SOL    HW2 1902   1.043   0.113   0.748  1.2980  2.3102  2.3105
  635SOL     OW 1903   1.540   2.952   0.719 -0.3258  0.1990  0.9432
  635SOL    HW1 1904   1.634   2.984   0.687  2.4750  2.9389  3.3361
  635SOL    HW2 1905   1.467   2.980   0.649  1.8900 -0.7851  0.1244
  636SOL     OW 1906   1.479   0.633   0.661  0.2638 -0.2578  0.1229
  636SOL    HW1 1907   1.463   0.533   0.651 -0.6585 -0.6193 -1.2376
  636SOL    HW2 1908   1.451   0.672   0.756  0.1060  2.2211  0.7900
  637SOL     OW 1909   2.159   1.701   2.300  0.7307 -0.0515 -0.2105
  637SOL    HW1 1910   2.191   1.665   2.390 -0.6680  0.4620 -0.1573
  637SOL    HW2 1911   2.238   1.746   2.247  1.5803 -1.2927 -0.7647
  638SOL     OW 1912   0.367   0.018   2.515 -0.2292 -0.1795  0.6669
  638SOL    HW1 1913   0.452  -0.036   2.488  0.8766 -0.3632  0.7935
  638SOL    HW2 1914   0.282  -0.024   2.476 -0.5168  0.7136 -0.2819
  639SOL     OW 1915   1.343   1.820   1.658 -0.3427  1.1774  0.2165
  639SOL    HW1 1916   1.328   1.801   1.755  0.5451 -0.9485 -1.4594
  639SOL    HW2 1917   1.347   1.731   1.606 -1.2751 -1.3532  4.1104
  640SOL     OW 1918   0.323   2.877   2.983  0.0248 -0.2776 -0.5160
  640SOL    HW1 1919   0.324   2.970   2.939 -2.0075 -0.0051  1.7732
  640SOL    HW2 1920   0.276   2.805   2.929 -1.2511  0.7009 -0.9539
  641SOL     OW 1921   1.066   0.313   0.414  0.2317 -0.0704  0.0017
  641SOL    HW1 1922   1.059   0.374   0.328 -1.2791  1.5448  1.6266
  641SOL    HW2 1923   1.013   0.360   0.486  0.3631  0.4623 -1.0194
  642SOL     OW 1924   0.070   1.509   0.455  0.4868 -0.1835 -0.5360
  642SOL    HW1 1925   0.024   1.509   0.366 -0.9582  2.4248 -0.7302
  642SOL    HW2 1926  -0.003   1.496   0.531 -0.5119 -1.8200  1.4841
  643SOL     OW 1927   1.269   1.656   2.813  0.7060  0.1463 -0.2835
  643SOL    HW1 1928   1.263   1.568   2.865  1.3198 -1.6737 -1.1910
  643SOL    HW2 1929   1.364   1.683   2.790  0.5294  2.4805  0.8388
  644SOL     OW 1930   2.010   2.199   0.455 -0.2374  0.0178 -0.1114
  644SOL    HW1 1931   1.914   2.183   0.492 -0.8937  0.4496 -0.2960
  644SOL    HW2 1932   2.046   2.286   0.497 -0.2971  2.3131 -1.5441
  645SOL     OW 1933   1.127   1.972   1.602 -0.3377 -0.5612 -0.3621
  645SOL    HW1 1934   1.211   1.925   1.632  1.3686  2.3297  1.3901
  645SOL    HW2 1935   1.051   1.907   1.584  2.0737 -3.0870 -1.6031
  646SOL     OW 1936   0.198   2.664   2.893  0.0743 -0.3432  0.1192
  646SOL    HW1 1937   0.133   2.685   2.817 -0.6274  3.0436  1.0411
  646SOL    HW2 1938   0.259   2.585   2.869  0.4752  0.6752 -0.1053
  647SOL     OW 1939   0.431   2.774   1.694  0.2554  0.3930 -0.0007
  647SOL    HW1 1940   0.524   2.790   1.647  0.2506 -2.9719 -1.0054
  647SOL    HW2 1941   0.435   2.821   1.787  0.3806 -1.9084  1.0295
  648SOL     OW 1942   2.415   0.802   1.824  0.1480 -0.5454  0.4120
  648SOL    HW1 1943   2.433   0.768   1.728  1.5337  1.1988 -0.7383
  648SOL    HW2 1944   2.400   0.724   1.885  0.1914 -0.3655  0.3752
  649SOL     OW 1945   2.692   2.791   2.924  0.3505  0.0836 -0.0690
  649SOL    HW1 1946   2.646   2.873   2.884  0.4943 -1.7989  1.3494
  649SOL    HW2 1947   2.748   2.743   2.852  0.4346 -0.8875  1.4496
  650SOL     OW 1948   2.817   2.463   1.861  0.5473 -0.3912  0.1985
  650SOL    HW1 1949   2.840   2.503   1.770  0.5677  0.1303  2.5446
  650SOL    HW2 1950   2.897   2.422   1.904  2.4742 -0.8495  0.3961
  651SOL     OW 1951   0.949   1.805   2.586  0.1196 -0.0157 -0.2893
  651SOL    HW1 1952   1.017   1.850   2.520  0.6440  0.9496 -2.4095
  651SOL    HW2 1953   0.993   1.799   2.678 -0.9509  0.1218 -0.9644
  652SOL     OW 1954   1.095   0.182   3.018  0.5957  0.6280  0.3644
  652SOL    HW1 1955   1.140   0.249   2.951  0.0684  3.6348  1.6229
  652SOL    HW2 1956   1.154   0.098   3.040  1.3160 -0.8856  1.1500
  653SOL     OW 1957   1.990   1.992   0.866 -0.8884  0.2156  0.0495
  653SOL    HW1 1958   1.961   1.891   0.876  1.1589  1.1652  0.1259
  653SOL    HW2 1959   1.923   2.045   0.815  1.9597 -0.5230 -1.0123
  654SOL     OW 1960   2.803   3.076   2.443 -0.3695 -0.4527 -0.1074
  654SOL    HW1 1961   2.821   2.978   2.467 -1.1980 -2.0986  0.9229
  654SOL    HW2 1962   2.784   3.128   2.528  2.2161  0.9775  0.5157
  655SOL     OW 1963   1.901   2.625   1.395 -0.2935 -0.1122  0.3831
  655SOL    HW1 1964   1.976   2.675   1.351 -1.8560  0.1376 -0.7410
  655SOL    HW2 1965   1.836   2.587   1.326 -0.8519  1.3275  1.1538
  656SOL     OW 1966   3.081   0.987   2.155 -0.7861  0.1120 -0.2750
  656SOL    HW1 1967   3.126   0.914   2.097 -0.7790 -2.6335  0.0526
  656SOL    HW2 1968   3.091   1.080   2.124 -1.5738  2.4473 -1.1299
  657SOL     OW 1969   2.971   0.969   0.276 -0.3674 -0.1235  0.2352
  657SOL    HW1 1970   2.935   0.979   0.374  0.8862 -3.0245 -0.6416
  657SOL    HW2 1971   3.061   1.012   0.264 -1.6576  0.6867  3.8121
  658SOL     OW 1972   1.554   1.779   1.982  0.5308 -0.0953  0.1300
  658SOL    HW1 1973   1.583   1.873   2.007  0.3998  0.7331 -0.3821
  658SOL    HW2 1974   1.617   1.750   1.908 -1.7581 -1.6045 -0.1498
  659SOL     OW 1975   1.083   0.880   0.552 -0.4545 -0.7332 -0.2115
  659SOL    HW1 1976   1.060   0.956   0.488 -0.2621  0.0507 -0.9519
  659SOL    HW2 1977   1.132   0.917   0.641  0.2641  1.1416  3.2995
  660SOL     OW 1978   2.715   0.793   1.190 -0.2760  0.4970 -0.1619
  660SOL    HW1 1979   2.636   0.801   1.125 -0.9754 -1.6541  0.2358
  660SOL    HW2 1980   2.807   0.791   1.146 -1.0923 -0.8196 -3.6250
  661SOL     OW 1981   0.921   1.669   3.048 -0.2018 -0.0068 -0.3256
  661SOL    HW1 1982   0.968   1.722   3.122  1.9743  0.4012 -2.1304
  661SOL    HW2 1983   0.819   1.692   3.042  1.0419 -0.7555  0.4196
  662SOL     OW 1984   2.767   0.762   2.074 -0.7404 -0.2674 -0.3381
  662SOL    HW1 1985   2.809   0.783   2.164 -0.9094  1.0962 -0.6217
  662SOL    HW2 1986   2.843   0.746   2.004 -0.8701  0.4681 -2.0014
  663SOL     OW 1987   1.908   1.868   1.474 -0.4887  0.0407  0.1369
  663SOL    HW1 1988   1.854   1.881   1.558 -2.7245 -1.2727 -4.2615
  663SOL    HW2 1989   1.996   1.913   1.487 -0.5186 -2.4008  1.1441
  664SOL     OW 1990   0.693   2.859   1.587  0.2013  0.2186  0.4418
  664SOL    HW1 1991   0.657   2.838   1.500 -0.9303  0.5893 -1.7789
  664SOL    HW2 1992   0.778   2.916   1.583 -3.4825 -1.4345 -2.9077
  665SOL     OW 1993   1.416   0.681   0.042 -0.1238 -0.4718  0.3436
  665SOL    HW1 1994   1.490   0.622   0.015 -1.2136  0.3500  0.3568
  665SOL    HW2 1995   1.380   0.642   0.128 -3.7491  3.3575 -0.6886
  666SOL     OW 1996   2.122   0.416   1.957 -1.1001  0.1407 -0.8205
  666SOL    HW1 1997   2.053   0.371   2.019 -0.2688 -2.0300 -1.1453
  666SOL    HW2 1998   2.204   0.356   1.944 -3.9283  0.9444  0.3246
  667SOL     OW 1999   0.629   1.723   0.972  0.0945  0.9002 -0.0217
  667SOL    HW1 2000   0.619   1.737   1.073 -0.0239 -0.6718  0.9046
  667SOL    HW2 2001   0.543   1.762   0.936 -0.9416 -1.2700  0.0368
  668SOL     OW 2002   1.022   1.078   2.501  0.8665 -0.1300  0.0672
  668SOL    HW1 2003   1.032   1.086   2.398 -3.1007 -1.1724 -0.9261
  668SOL    HW2 2004   1.017   1.169   2.543 -0.1151  0.8753 -1.2929
  669SOL     OW 2005   2.812   2.066   2.972  0.6078  0.4411  0.5496
  669SOL    HW1 2006   2.774   2.150   3.005 -3.5161 -0.2162  2.5613
  669SOL    HW2 2007   2.849   2.082   2.880 -1.7473 -1.7243  0.8853
  670SOL     OW 2008   2.312   1.977   1.858  0.0179  0.0570  0.0543
  670SOL    HW1 2009   2.393   2.029   1.823  0.7814  0.9787  0.4289
  670SOL    HW2 2010   2.302   1.899   1.798  1.1894  0.1739  2.5856
  671SOL     OW 2011   2.598   1.532   0.643  0.1292 -0.1347  0.0188
  671SOL    HW1 2012   2.653   1.545   0.557  0.5559  0.3256 -0.0301
  671SOL    HW2 2013   2.596   1.436   0.674  1.2532  1.3075  0.2011
  672SOL     OW 2014   1.711   1.104   2.172 -0.0781 -0.1760  0.3636
  672SOL    HW1 2015   1.704   1.020   2.113  1.9360  0.1798 -0.7628
  672SOL    HW2 2016   1.800   1.107   2.218  2.5331  1.6353  0.7709
  673SOL     OW 2017   2.091   2.742   1.257 -0.0121  0.0304  0.0589
  673SOL    HW1 2018   2.125   2.651   1.243 -2.3847 -1.9649 -3.7343
  673SOL    HW2 2019   2.023   2.774   1.191 -1.1199 -0.8881  1.9724
  674SOL     OW 2020   0.224   1.696   1.483  0.0453  0.2965  0.3916
  674SOL    HW1 2021   0.192   1.796   1.476 -1.2597 -2.6488 -0.3535
  674SOL    HW2 2022   0.226   1.670   1.580 -1.2501 -1.3394  0.2755
  675SOL     OW 2023   2.381   0.357   1.661 -0.5173 -0.4057 -0.0129
  675SOL    HW1 2024   2.449   0.309   1.608 -1.9097 -0.9728 -0.4758
  675SOL    HW2 2025   2.428   0.437   1.704  1.4296  2.0742  0.7073
  676SOL     OW 2026   2.999   0.146   2.358  0.4116  0.2262  0.3294
  676SOL    HW1 2027   3.052   0.129   2.270 -4.0254  0.5896 -2.0377
  676SOL    HW2 2028   2.920   0.088   2.365  1.7822 -1.7334  2.0674
  677SOL     OW 2029   2.730   0.837   2.474 -0.4524 -0.5084 -0.3350
  677SOL    HW1 2030   2.813   0.823   2.414 -1.1387 -1.3765 -0.3721
  677SOL    HW2 2031   2.742   0.791   2.565 -0.5623  1.5655  0.8469
  678SOL     OW 2032   2.815   1.525   1.190  0.0188  0.2943 -0.7890
  678SOL    HW1 2033   2.898   1.580   1.182 -1.5232 -1.0878 -3.5763
  678SOL    HW2 2034   2.743   1.581   1.145 -0.4035 -3.0902 -3.0480
  679SOL     OW 2035   3.030   2.534   0.338 -0.4588 -0.3859  0.0136
  679SOL    HW1 2036   3.048   2.436   0.308 -1.6231  0.4582  0.0974
  679SOL    HW2 2037   3.119   2.583   0.343 -0.3715 -1.3200 -0.6443
  680SOL     OW 2038   0.092   1.845   1.019  0.7555 -0.0954 -0.1061
  680SOL    HW1 2039   0.117   1.885   0.927 -0.7274 -0.5453 -0.5337
  680SOL    HW2 2040   0.146   1.758   1.022 -1.3716  1.7600 -0.2682
  681SOL     OW 2041   0.788   1.040   1.225 -0.2292  0.2836  0.0959
  681SOL    HW1 2042   0.699   1.086   1.249 -2.9936  1.8105 -1.3010
  681SOL    HW2 2043   0.856   1.050   1.297 -0.4082  1.2562 -0.4646
  682SOL     OW 2044   2.622   1.770   1.542  0.2056  0.5483 -0.3878
  682SOL    HW1 2045   2.578   1.697   1.487  0.4203  1.8728  2.7858
  682SOL    HW2 2046   2.725   1.763   1.532  0.6443 -1.3405 -2.8792
  683SOL     OW 2047   1.879   2.107   1.140  0.0201 -0.3904 -0.1356
  683SOL    HW1 2048   1.792   2.058   1.128 -0.4087 -0.8937 -2.4531
  683SOL    HW2 2049   1.946   2.084   1.065 -1.2517 -0.5983 -2.3484
  684SOL     OW 2050   3.056   1.878   1.377  0.0189  0.1755 -0.1849
  684SOL    HW1 2051   2.989   1.947   1.390 -2.6685 -1.8704 -0.4199
  684SOL    HW2 2052   3.141   1.912   1.424 -0.6122  0.9134 -1.9039
  685SOL     OW 2053   1.520   1.914   2.960  0.3652 -0.3671 -0.0200
  685SOL    HW1 2054   1.578   1.988   2.921  1.1962  1.1092 -0.6493
  685SOL    HW2 2055   1.519   1.835   2.899  1.0273  0.9746 -0.8510
  686SOL     OW 2056   2.811   1.096   1.775  1.1017 -0.2618 -0.3443
  686SOL    HW1 2057   2.860   1.149   1.847  1.3592  1.4199  1.8879
  686SOL    HW2 2058   2.745   1.033   1.820  2.5142  0.2811  2.8133
  687SOL     OW 2059   1.906   3.034   3.077 -0.1060  0.1455 -0.2519
  687SOL    HW1 2060   1.887   3.000   2.983 -2.8252  2.0399 -0.3579
  687SOL    HW2 2061   1.890   3.140   3.085  0.1919 -1.1825 -2.7678
  688SOL     OW 2062   1.820   2.033   2.695 -0.6250  0.4035 -0.4491
  688SOL    HW1 2063   1.730   2.073   2.726 -1.1932 -2.0100 -1.1230
  688SOL    HW2 2064   1.858   1.978   2.770  0.2727  3.4137 -0.0900
  689SOL     OW 2065   2.050   2.190   1.589 -0.3535 -0.2738  0.2351
  689SOL    HW1 2066   2.098   2.099   1.579 -0.9705 -0.6219  0.2072
  689SOL    HW2 2067   2.022   2.225   1.498  0.3482 -1.0017  1.2402
  690SOL     OW 2068   2.227   1.795   1.079 -0.0334  0.0108  0.2666
  690SOL    HW1 2069   2.144   1.833   1.129 -0.4140 -3.8099  1.4097
  690SOL    HW2 2070   2.313   1.837   1.102  1.6825  2.1899  1.7593
  691SOL     OW 2071   3.048   1.289   0.934  1.2850  0.1024 -0.0216
  691SOL    HW1 2072   2.978   1.284   1.005  0.1087  1.1149 -3.2509
  691SOL    HW2 2073   3.064   1.196   0.903  1.5590 -0.5947 -2.5107
  692SOL     OW 2074   2.566   2.833   0.264  0.2101 -0.1580 -0.0525
  692SOL    HW1 2075   2.624   2.889   0.325  2.0966  0.7293 -3.7187
  692SOL    HW2 2076   2.518   2.765   0.321  0.0328 -1.1067 -0.5058
  693SOL     OW 2077   2.847   1.517   1.831  0.6302  0.0146  0.2173
  693SOL    HW1 2078   2.774   1.577   1.804  0.7377 -0.1638  1.3561
  693SOL    HW2 2079   2.929   1.576   1.853 -0.5068  0.7377 -2.4467
  694SOL     OW 2080   2.349   0.290   1.959 -0.4883  0.2276 -0.3525
  694SOL    HW1 2081   2.423   0.234   1.914  0.9292 -2.2735  2.1860
  694SOL    HW2 2082   2.321   0.246   2.049  1.9063  0.4653  0.7818
  695SOL     OW 2083   2.082   0.608   2.307  0.4245  0.2574 -0.4685
  695SOL    HW1 2084   2.125   0.522   2.275 -0.1151 -0.1011 -1.0441
  695SOL    HW2 2085   2.006   0.583   2.370  0.8014 -1.2923 -0.7690
  696SOL     OW 2086   1.682   0.192   1.362  0.1612  0.1484 -0.7651
  696SOL    HW1 2087   1.756   0.234   1.313 -0.8251 -3.9010  0.9433
  696SOL    HW2 2088   1.634   0.116   1.315  0.0699 -0.1601 -1.5567
  697SOL     OW 2089   1.127   0.811   2.554 -0.1330 -0.1101  0.2378
  697SOL    HW1 2090   1.095   0.733   2.498 -1.3522  0.4671 -2.8868
  697SOL    HW2 2091   1.075   0.896   2.539 -1.1941  0.2457 -0.1714
  698SOL     OW 2092   2.199   2.140   2.625  0.0051  0.4797  0.2064
  698SOL    HW1 2093   2.146   2.197   2.567  0.8138 -0.3239  1.4037
  698SOL    HW2 2094   2.161   2.146   2.719 -3.6695  0.5802  3.8208
  699SOL     OW 2095   2.341   1.140   0.518 -0.2533  0.0138  0.0320
  699SOL    HW1 2096   2.302   1.137   0.610  0.8921 -1.8158 -0.9111
  699SOL    HW2 2097   2.317   1.230   0.477 -3.2497 -1.6770 -1.0380
  700SOL     OW 2098   1.299   0.343   1.922 -0.3882 -0.0177 -0.1091
  700SOL    HW1 2099   1.376   0.404   1.946  0.4976 -0.0029  1.2690
  700SOL    HW2 2100   1.298   0.316   1.821 -2.3302 -1.0146 -0.7375
  701SOL     OW 2101   2.581   3.021   1.285  0.0519  0.1336 -0.0266
  701SOL    HW1 2102   2.503   3.040   1.340  0.4904 -0.7404  1.3529
  701SOL    HW2 2103   2.605   3.095   1.215  2.2342 -0.4630  1.5063
  702SOL     OW 2104   0.936   2.992   1.598  0.8777 -0.0463  0.7180
  702SOL    HW1 2105   0.995   2.914   1.619 -0.0380  2.0859  2.8962
  702SOL    HW2 2106   0.942   3.067   1.662  1.7722  1.1164  1.5139
  703SOL     OW 2107   0.279   1.396   1.166 -0.3049 -0.1558  0.3683
  703SOL    HW1 2108   0.315   1.308   1.199  1.3031  1.1161 -1.1068
  703SOL    HW2 2109   0.228   1.438   1.245 -3.7371 -1.8419 -3.4661
  704SOL     OW 2110   1.044   0.132   1.809  0.4742 -0.7323  0.4655
  704SOL    HW1 2111   1.078   0.088   1.897 -0.3173 -1.1215  1.0343
  704SOL    HW2 2112   1.120   0.148   1.742  0.0003 -2.2829 -2.9792
  705SOL     OW 2113   0.044   2.306   0.005  0.2666 -0.4933 -0.7405
  705SOL    HW1 2114  -0.021   2.307  -0.071  2.0362 -0.7840 -0.4811
  705SOL    HW2 2115   0.080   2.402   0.020 -2.3893 -2.5133  1.0402
  706SOL     OW 2116   2.925   0.123   0.551 -0.0773 -0.0299 -0.3217
  706SOL    HW1 2117   2.826   0.103   0.540  2.2626 -1.7580 -1.8368
  706SOL    HW2 2118   2.963   0.186   0.478 -0.2848  0.1213 -0.4383
  707SOL     OW 2119   2.337   2.478   1.901  0.1715 -0.1645  0.1239
  707SOL    HW1 2120   2.282   2.474   1.986 -2.1875 -0.3814  0.4528
  707SOL    HW2 2121   2.422   2.425   1.915  0.2347 -1.3363  1.7526
  708SOL     OW 2122   0.674   2.139   1.511  0.0300 -0.2193  0.1803
  708SOL    HW1 2123   0.709   2.235   1.504 -3.6839  1.7267 -0.1298
  708SOL    HW2 2124   0.725   2.078   1.452 -0.5615 -1.8288 -0.1585
  709SOL     OW 2125   1.167   0.976   1.601 -0.4373  0.5249 -0.1112
  709SOL    HW1 2126   1.258   1.013   1.573  1.2065  2.4280 -1.2235
  709SOL    HW2 2127   1.169   0.877   1.590  0.9967  1.2489 -2.8565
  710SOL     OW 2128   0.768   0.754   0.843  0.9095 -0.3676 -0.2280
  710SOL    HW1 2129   0.770   0.858   0.850  0.5202 -0.0853 -1.5123
  710SOL    HW2 2130   0.823   0.725   0.762 -2.9292  0.2649 -1.3578
  711SOL     OW 2131   2.803   2.400   2.365 -0.0017  0.4819  0.1459
  711SOL    HW1 2132   2.833   2.324   2.303  2.3112 -0.7655 -2.1778
  711SOL    HW2 2133   2.721   2.448   2.327 -2.5874  0.2917  0.4915
  712SOL     OW 2134   2.912   2.570   1.640 -0.6977 -0.6371  0.1390
  712SOL    HW1 2135   2.987   2.514   1.598 -2.1052 -0.7753  3.4872
  712SOL    HW2 2136   2.944   2.657   1.686  1.3955  0.7268  0.0259
  713SOL     OW 2137   2.086   0.535   0.998  0.1392 -0.0276 -0.4112
  713SOL    HW1 2138   2.161   0.569   1.059  2.4726 -0.7739  1.2016
  713SOL    HW2 2139   2.058   0.611   0.930  0.7561 -0.4994 -2.8429
  714SOL     OW 2140   2.350   1.067   0.162  0.5356  0.3141  0.7968
  714SOL    HW1 2141   2.287   1.021   0.229 -0.9547  0.0390 -1.1274
  714SOL    HW2 2142   2.431   1.006   0.151 -1.2597  1.2092 -1.1337
  715SOL     OW 2143   3.059   1.073   1.328 -0.3084  0.4402 -0.6800
  715SOL    HW1 2144   3.010   1.020   1.399 -0.0663 -0.7772 -0.5693
  715SOL    HW2 2145   3.001   1.095   1.246 -1.8454 -1.2670  1.5689
  716SOL     OW 2146   1.514   0.944   1.826  0.2138 -0.9128  0.2920
  716SOL    HW1 2147   1.522   0.855   1.781  0.9367 -0.9687  1.3623
  716SOL    HW2 2148   1.431   0.951   1.880  0.4606 -1.5299 -2.1024
  717SOL     OW 2149   1.958   1.028   2.267  0.4392  0.0227 -0.6295
  717SOL    HW1 2150   2.044   1.050   2.320  2.4047 -0.8595  1.2723
  717SOL    HW2 2151   1.987   0.966   2.193 -1.2198 -1.8246 -1.3747
  718SOL     OW 2152   1.516   0.942   0.415 -0.2559 -0.3189  0.1593
  718SOL    HW1 2153   1.450   0.863   0.412  2.7443 -0.1263  1.8228
  718SOL    HW2 2154   1.472   1.035   0.421 -1.3282 -0.9264  2.0517
  719SOL     OW 2155   0.014   2.748   2.702  0.2619 -0.1336  0.1091
  719SOL    HW1 2156  -0.084   2.728   2.730 -0.1748 -1.0073 -1.3716
  719SOL    HW2 2157   0.023   2.839   2.653  0.9451  0.9817  0.4515
  720SOL     OW 2158   1.309   0.338   0.824  0.5956  0.8158 -0.3985
  720SOL    HW1 2159   1.385   0.341   0.757  1.3400 -0.0553  4.2000
  720SOL    HW2 2160   1.251   0.257   0.807  1.3249 -0.6261 -0.1888
  721SOL     OW 2161   2.975   0.795   1.036  0.5003 -0.0056 -0.0796
  721SOL    HW1 2162   3.061   0.853   1.029  0.5448  2.9758  2.7407
  721SOL    HW2 2163   3.008   0.702   1.060 -1.5898 -0.1801  0.2844
  722SOL     OW 2164   0.507   0.813   2.717  0.0985 -0.8406  0.0986
  722SOL    HW1 2165   0.485   0.909   2.749  0.1196  0.7935 -1.7779
  722SOL    HW2 2166   0.556   0.751   2.786  1.0688  1.5260 -0.0793
  723SOL     OW 2167   2.463   1.884   1.227 -0.3634  0.2855  0.3078
  723SOL    HW1 2168   2.565   1.897   1.239 -2.3081  0.8468 -1.3147
  723SOL    HW2 2169   2.410   1.963   1.264  0.3267 -0.4710  1.4511
  724SOL     OW 2170   0.679   1.733   0.300 -0.2932  0.2564  0.0108
  724SOL    HW1 2171   0.581   1.727   0.285  1.7592 -0.0970 -1.0027
  724SOL    HW2 2172   0.713   1.647   0.347 -0.2959  0.0732  1.4263
  725SOL     OW 2173   0.200   0.706   1.245 -0.4027 -0.7102 -0.3119
  725SOL    HW1 2174   0.161   0.669   1.337 -0.8337  0.7431  0.9401
  725SOL    HW2 2175   0.224   0.803   1.267  2.4263  0.1861  0.6899
  726SOL     OW 2176   2.709   1.216   0.319 -0.2130  0.2696  0.2372
  726SOL    HW1 2177   2.807   1.227   0.310 -0.9907 -0.3774 -4.5542
  726SOL    HW2 2178   2.658   1.287   0.268 -1.1428 -2.1520  2.7080
  727SOL     OW 2179   2.470   0.990   2.921  0.0862 -0.9271  0.1920
  727SOL    HW1 2180   2.495   0.974   3.017  1.6336  2.2397  1.6476
  727SOL    HW2 2181   2.551   0.993   2.858  1.2608 -0.0853  0.0157
  728SOL     OW 2182   1.757   0.059   1.599  0.2664 -0.0135 -0.0227
  728SOL    HW1 2183   1.781  -0.038   1.569  1.5271 -0.4015 -1.4800
  728SOL    HW2 2184   1.740   0.116   1.518  1.5963  1.6907 -1.6649
  729SOL     OW 2185   1.537   1.428   3.068  0.1893 -0.6849 -0.0005
  729SOL    HW1 2186   1.544   1.397   3.167 -0.4659 -0.4670  0.2417
  729SOL    HW2 2187   1.518   1.529   3.061 -1.3186  0.3965  0.0068
  730SOL     OW 2188   1.791   0.615   1.903 -0.0694 -0.4841  0.3571
  730SOL    HW1 2189   1.890   0.624   1.879  2.0467  0.3222  0.8955
  730SOL    HW2 2190   1.745   0.547   1.844 -1.6467  2.3950 -0.6562
  731SOL     OW 2191   0.416   1.038   3.032  0.1776  0.1144 -0.4243
  731SOL    HW1 2192   0.484   1.061   2.957  1.7445 -0.5322  5.9327
  731SOL    HW2 2193   0.380   1.125   3.068 -0.9878  0.1649 -0.2957
  732SOL     OW 2194   0.113   0.848   0.484  0.0972  0.2775  0.4709
  732SOL    HW1 2195   0.033   0.788   0.510 -1.2061  0.2172 -1.0123
  732SOL    HW2 2196   0.157   0.833   0.391 -1.1230  1.1968  1.1201
  733SOL     OW 2197   1.423   1.377   1.937 -0.1162  0.0677  0.0244
  733SOL    HW1 2198   1.342   1.340   1.887 -1.9133 -0.7404 -1.2202
  733SOL    HW2 2199   1.404   1.459   1.994 -1.4441 -2.0602 -1.0745
  734SOL     OW 2200   0.760   0.280   2.606 -0.3625 -0.4678 -0.1937
  734SOL    HW1 2201   0.660   0.282   2.617 -0.8903 -0.2198  0.3762
  734SOL    HW2 2202   0.804   0.331   2.680 -0.1001  0.5695 -0.3361
  735SOL     OW 2203   2.275   3.090   0.495  0.6699  0.2476 -0.0342
  735SOL    HW1 2204   2.274   3.133   0.589  0.3321 -4.7831  0.8569
  735SOL    HW2 2205   2.361   3.112   0.445 -3.2783 -1.9434 -0.1390
  736SOL     OW 2206   2.146   1.159   1.949 -0.0427  0.3496 -0.1448
  736SOL    HW1 2207   2.194   1.201   1.871  1.0017  0.6397 -2.2491
  736SOL    HW2 2208   2.080   1.224   1.993 -1.3011 -0.5596  3.4738
  737SOL     OW 2209   0.121   1.099   0.593  0.5725 -0.8057 -0.5164
  737SOL    HW1 2210   0.118   1.008   0.554  0.1097  1.5651 -1.4815
  737SOL    HW2 2211   0.218   1.129   0.578  0.3255 -1.7808  3.4818
  738SOL     OW 2212   0.404   1.979   0.696 -0.0839 -0.2182 -0.6024
  738SOL    HW1 2213   0.405   1.897   0.756 -0.9690  0.5097  0.9723
  738SOL    HW2 2214   0.472   1.966   0.620 -3.1157 -0.0373  2.0187
  739SOL     OW 2215   1.962   2.215   2.502  0.2381 -0.0352 -0.0960
  739SOL    HW1 2216   1.903   2.223   2.420  0.9601 -1.3139  2.7558
  739SOL    HW2 2217   1.929   2.149   2.574 -1.7207  0.1082 -0.0645
  740SOL     OW 2218   2.278   2.332   1.651  0.2463 -0.2814 -0.8036
  740SOL    HW1 2219   2.194   2.280   1.619 -0.8198 -0.2279 -1.0347
  740SOL    HW2 2220   2.266   2.375   1.741  0.4823  1.9821  1.0942
  741SOL     OW 2221   2.583   0.932   0.071  0.5731  0.2956 -0.3333
  741SOL    HW1 2222   2.561   0.841   0.111 -1.4167  1.0940 -0.3316
  741SOL    HW2 2223   2.681   0.938   0.040  1.5775  1.4276  2.2932
  742SOL     OW 2224   0.515   2.103   2.738 -0.2863  0.1278 -1.0638
  742SOL    HW1 2225   0.596   2.095   2.798 -0.7433  0.0582  0.1419
  742SOL    HW2 2226   0.443   2.163   2.782 -0.0666  1.8435  1.8933
  743SOL     OW 2227   0.135   1.238   1.811 -0.1401 -0.0391 -0.1003
  743SOL    HW1 2228   0.079   1.235   1.893  1.4278 -1.7408  0.5157
  743SOL    HW2 2229   0.083   1.267   1.730  2.6666 -0.2379 -0.5399
  744SOL     OW 2230   0.225   2.763   0.719  0.5331 -0.4668 -0.4677
  744SOL    HW1 2231   0.139   2.705   0.726  1.0278 -0.3172  0.7033
  744SOL    HW2 2232   0.282   2.717   0.645  1.7432  0.1140  1.5835
  745SOL     OW 2233   2.597   1.662   1.062  0.2628  0.0061 -0.0216
  745SOL    HW1 2234   2.572   1.748   1.115  0.2070 -0.5774  0.5856
  745SOL    HW2 2235   2.531   1.587   1.081  1.7574 -2.0235 -1.5853
  746SOL     OW 2236   1.052   1.455   0.429  0.4974 -0.3721  0.0534
  746SOL    HW1 2237   1.100   1.391   0.360  0.1121  2.2525 -0.7183
  746SOL    HW2 2238   1.098   1.434   0.518 -1.1128  0.1957  0.1860
  747SOL     OW 2239   1.367   1.664   1.387  0.8185 -0.1729  0.6092
  747SOL    HW1 2240   1.409   1.645   1.299 -4.1791  2.5138  2.1270
  747SOL    HW2 2241   1.392   1.601   1.465  1.1636 -1.4588 -2.0653
  748SOL     OW 2242   2.681   0.099   0.041  0.3981 -0.6460 -0.1088
  748SOL    HW1 2243   2.598   0.059  -0.003  0.9433 -0.2154 -0.6193
  748SOL    HW2 2244   2.765   0.041   0.044 -1.2667 -0.3971 -2.5245
  749SOL     OW 2245   0.453   0.457   2.587 -0.2089 -0.2413  0.0307
  749SOL    HW1 2246   0.380   0.462   2.515 -0.5404  1.6751 -0.9641
  749SOL    HW2 2247   0.441   0.524   2.662  1.2479 -2.8147  2.1377
  750SOL     OW 2248   2.160   0.892   1.885  0.2592 -0.6072 -0.0269
  750SOL    HW1 2249   2.157   0.989   1.911 -2.0272  0.8987  2.8203
  750SOL    HW2 2250   2.259   0.875   1.868  1.3746  0.0477 -0.6519
  751SOL     OW 2251   2.855   0.167   0.912  0.4296  0.8653  0.4591
  751SOL    HW1 2252   2.906   0.107   0.847  1.8998  1.7618 -1.3469
  751SOL    HW2 2253   2.919   0.239   0.942 -1.3001  2.3392 -0.3614
  752SOL     OW 2254   2.258   0.106   0.774 -0.6985  0.2784 -0.2270
  752SOL    HW1 2255   2.293   0.007   0.789 -0.8928 -0.6006 -2.1113
  752SOL    HW2 2256   2.257   0.159   0.863  1.0618 -3.1738 -0.7173
  753SOL     OW 2257   0.612   1.878   0.545  0.4043  0.1048  0.2011
  753SOL    HW1 2258   0.636   1.855   0.445 -2.3209  1.2455  0.0366
  753SOL    HW2 2259   0.599   1.781   0.588  1.9833 -0.8196  1.7193
  754SOL     OW 2260   2.944   0.043   1.984 -0.2378 -0.6716  0.0285
  754SOL    HW1 2261   2.847   0.072   2.006  1.4552  2.2205 -1.8771
  754SOL    HW2 2262   2.970   0.054   1.887 -0.5125 -0.7593 -1.7166
  755SOL     OW 2263   2.611   1.041   0.511  0.4255  0.0971 -0.4118
  755SOL    HW1 2264   2.648   1.087   0.430  1.6039 -0.7955  0.1363
  755SOL    HW2 2265   2.509   1.048   0.513  4.1582 -0.3714 -2.9594
  756SOL     OW 2266   2.156   2.163   2.889  0.0848  0.9139  0.4528
  756SOL    HW1 2267   2.126   2.207   2.976 -0.2734 -0.1016 -0.3764
  756SOL    HW2 2268   2.142   2.062   2.891  2.1720  0.5403  0.0044
  757SOL     OW 2269   2.649   0.779   0.601 -0.1010 -0.0428 -0.3683
  757SOL    HW1 2270   2.710   0.793   0.684 -0.1470  1.0001  1.6538
  757SOL    HW2 2271   2.647   0.864   0.544 -0.4778 -1.3556 -1.8344
  758SOL     OW 2272   2.027   0.790   2.123 -0.3373  0.2262  0.4308
  758SOL    HW1 2273   2.061   0.727   2.190 -2.6535  0.0041 -0.7636
  758SOL    HW2 2274   2.074   0.776   2.037 -2.4264 -0.8769  3.0498
  759SOL     OW 2275   2.836   0.582   1.321  0.4423  0.6652  0.0983
  759SOL    HW1 2276   2.757   0.514   1.334  0.6678 -0.2577 -0.6615
  759SOL    HW2 2277   2.801   0.670   1.289  0.8678  0.5130  1.8052
  760SOL     OW 2278   0.213   1.614   1.004 -0.2578 -0.1252 -0.1345
  760SOL    HW1 2279   0.235   1.543   1.075  0.9012 -0.6400  1.3103
  760SOL    HW2 2280   0.150   1.577   0.932  3.0363 -2.0181  2.1348
  761SOL     OW 2281   0.912   0.530   0.005  0.4888 -0.1587  0.6256
  761SOL    HW1 2282   0.857   0.571   0.077 -2.2858  0.2221 -0.1262
  761SOL    HW2 2283   0.951   0.596  -0.062 -1.2195  1.1710  1.6879
  762SOL     OW 2284   0.956   1.344   1.476 -0.2633  0.3696  0.1946
  762SOL    HW1 2285   0.941   1.408   1.551  0.7090 -0.6552  0.3543
  762SOL    HW2 2286   0.940   1.387   1.387  0.0163 -0.3148  0.2333
  763SOL     OW 2287   2.060   0.632   1.808  0.1311 -0.0369 -0.0065
  763SOL    HW1 2288   2.092   0.561   1.877 -0.5486  0.0664  1.4427
  763SOL    HW2 2289   2.095   0.731   1.833 -3.1449 -1.6892 -1.4160
  764SOL     OW 2290   2.924   3.053   3.089 -0.1331 -0.0910  0.1301
  764SOL    HW1 2291   3.014   3.087   3.120 -1.0939  2.0326 -0.7902
  764SOL    HW2 2292   2.896   2.967   3.135 -1.1621 -0.8878 -0.6322
  765SOL     OW 2293   0.284   0.016   1.053  0.5674 -0.2939  0.3258
  765SOL    HW1 2294   0.231  -0.021   0.973 -0.8317 -1.4530  0.5057
  765SOL    HW2 2295   0.257   0.112   1.069  3.0110  0.5125  1.8107
  766SOL     OW 2296   3.081   2.022   2.367 -0.0299  0.3782  0.0172
  766SOL    HW1 2297   3.130   1.969   2.295 -0.7927 -1.5015  0.0729
  766SOL    HW2 2298   3.043   1.961   2.439 -0.9596  1.8195  0.3742
  767SOL     OW 2299   1.002   1.382   2.092 -0.1280 -0.9702  0.0219
  767SOL    HW1 2300   1.022   1.393   2.192 -0.1631 -1.9941  0.6852
  767SOL    HW2 2301   0.922   1.320   2.084 -1.5850 -0.0264 -2.3440
  768SOL     OW 2302   1.979   1.086   0.241  0.3440  0.2161 -0.4515
  768SOL    HW1 2303   1.890   1.031   0.244 -0.4895  2.1571  2.0725
  768SOL    HW2 2304   2.058   1.040   0.287  0.7580  0.8406  0.0555
  769SOL     OW 2305   0.438   1.389   0.746 -0.2079 -0.9918 -0.4722
  769SOL    HW1 2306   0.433   1.330   0.667  1.0972  2.2297  0.5418
  769SOL    HW2 2307   0.364   1.370   0.813  0.6802  0.9496  2.6804
  770SOL     OW 2308   1.937   0.832   2.880  0.3187 -0.3169 -0.3884
  770SOL    HW1 2309   1.921   0.856   2.979  0.8715  0.4133  1.6710
  770SOL    HW2 2310   2.039   0.821   2.863  0.1610 -1.0554  1.1811
  771SOL     OW 2311   0.424   0.173   1.567  0.0046 -0.0817  0.2409
  771SOL    HW1 2312   0.373   0.085   1.550  0.1301  0.6468  0.0092
  771SOL    HW2 2313   0.361   0.255   1.575  3.0273 -3.4558  1.1510
  772SOL     OW 2314   2.629   2.172   2.136  0.4524 -0.0379  0.4745
  772SOL    HW1 2315   2.720   2.182   2.174  0.7738  1.9880 -1.5223
  772SOL    HW2 2316   2.559   2.114   2.185 -2.2359 -0.0713 -0.8535
  773SOL     OW 2317   1.404   1.126   1.556  0.1234 -0.1242  0.0349
  773SOL    HW1 2318   1.490   1.150   1.607 -0.3882 -2.7999  0.4530
  773SOL    HW2 2319   1.342   1.206   1.555 -2.3468 -0.4376 -0.4333
  774SOL     OW 2320   1.353   0.242   0.406 -0.1879 -0.2741  0.8529
  774SOL    HW1 2321   1.381   0.228   0.312 -1.0023  0.0327 -1.0015
  774SOL    HW2 2322   1.267   0.300   0.407 -1.5540  0.6883  1.1341
  775SOL     OW 2323   1.064   1.444   0.053 -0.0520  0.1074 -0.0562
  775SOL    HW1 2324   1.130   1.515   0.080  2.3621 -1.0981  2.3901
  775SOL    HW2 2325   0.973   1.489   0.035  0.4143 -1.4865 -5.9169
  776SOL     OW 2326   2.640   0.954   1.915 -0.6988 -0.0704 -0.9065
  776SOL    HW1 2327   2.679   0.896   1.992 -1.9351  1.0316 -1.3134
  776SOL    HW2 2328   2.548   0.921   1.883  1.0804 -0.8370 -2.5403
  777SOL     OW 2329   2.436   2.498   2.787  0.3008  0.1940 -0.0104
  777SOL    HW1 2330   2.446   2.596   2.765 -1.4820 -1.0762  1.4029
  777SOL    HW2 2331   2.339   2.477   2.817 -0.0746 -1.2450  3.8121
  778SOL     OW 2332   2.042   1.570   1.714  0.0538  0.3090  0.4262
  778SOL    HW1 2333   1.956   1.618   1.690  0.8174  0.0448 -1.0522
  778SOL    HW2 2334   2.054   1.484   1.658  3.1498  1.7020  2.6615
  779SOL     OW 2335   0.158   0.658   0.849 -0.8636  0.5334  0.1895
  779SOL    HW1 2336   0.221   0.675   0.771  0.0791 -2.2876 -1.2800
  779SOL    HW2 2337   0.085   0.601   0.815 -2.2267 -5.1179 -2.6964
  780SOL     OW 2338   1.482   0.207   0.163 -0.3361  0.2875  0.3773
  780SOL    HW1 2339   1.448   0.260   0.082  1.1846 -2.9844  0.0225
  780SOL    HW2 2340   1.575   0.237   0.193  1.8242  0.5310 -1.5065
  781SOL     OW 2341   2.882   0.966   1.531 -0.0595  0.4134  0.0545
  781SOL    HW1 2342   2.882   1.023   1.614  1.6850 -0.6528  0.8371
  781SOL    HW2 2343   2.787   0.938   1.503 -1.4514  0.5380  0.4984
  782SOL     OW 2344   2.580   2.147   2.696 -0.1974  0.0406 -0.0196
  782SOL    HW1 2345   2.568   2.190   2.788 -0.9620 -2.2964  0.1562
  782SOL    HW2 2346   2.664   2.183   2.660 -1.9424 -0.2433  0.3283
  783SOL     OW 2347   0.161   1.715   0.623  0.5664  0.0695 -0.1531
  783SOL    HW1 2348   0.134   1.664   0.539 -1.3543 -2.0658  1.2112
  783SOL    HW2 2349   0.109   1.670   0.704  1.1151  0.6236 -0.5535
  784SOL     OW 2350   2.439   0.745   0.797 -0.2383 -0.2489  0.5390
  784SOL    HW1 2351   2.368   0.690   0.750  2.2014  0.0250 -1.1337
  784SOL    HW2 2352   2.508   0.777   0.730 -1.1736 -0.2372  2.3367
  785SOL     OW 2353   2.031   2.724   0.805 -0.7228  0.0303 -0.3971
  785SOL    HW1 2354   2.125   2.713   0.766  0.1459 -0.5504 -1.2572
  785SOL    HW2 2355   1.968   2.745   0.727 -1.5302 -2.0963  1.3994
  786SOL     OW 2356   0.719   2.098   2.252  0.0803 -0.4592  0.0621
  786SOL    HW1 2357   0.679   2.052   2.175 -2.3245  0.4603 -0.6958
  786SOL    HW2 2358   0.656   2.103   2.332 -0.4230 -0.3138 -1.6121
  787SOL     OW 2359   0.602   0.520   0.846 -0.2765  0.9419 -0.2686
  787SOL    HW1 2360   0.597   0.501   0.949 -2.4194  0.0849  0.0911
  787SOL    HW2 2361   0.657   0.605   0.827 -0.6303 -0.4093  1.4008
  788SOL     OW 2362   0.396   1.070   2.745  0.0914 -0.8732  0.0864
  788SOL    HW1 2363   0.393   1.173   2.770  1.5835  0.0533  0.8313
  788SOL    HW2 2364   0.298   1.038   2.742  1.3055  0.1116  0.8684
  789SOL     OW 2365   2.261   2.281   0.788  0.6652  0.6655  0.0063
  789SOL    HW1 2366   2.331   2.351   0.805  1.3588  3.8259 -2.4572
  789SOL    HW2 2367   2.255   2.216   0.868  1.0219  0.2698  1.1410
  790SOL     OW 2368   1.155   0.262   2.123  0.0406 -0.1832 -0.3392
  790SOL    HW1 2369   1.202   0.278   2.218  1.3174  0.7282  0.6432
  790SOL    HW2 2370   1.224   0.284   2.051  1.7941 -1.1914 -1.1749
  791SOL     OW 2371   1.798   0.807   2.502 -0.4600 -0.6209 -0.4248
  791SOL    HW1 2372   1.774   0.845   2.409  1.7467  0.1952 -0.8886
  791SOL    HW2 2373   1.861   0.876   2.548  0.0008  1.1480  0.7785
  792SOL     OW 2374   1.233   0.038   1.021 -0.4871 -0.0176  0.3570
  792SOL    HW1 2375   1.199   0.083   1.107  1.9249 -2.3646 -1.4494
  792SOL    HW2 2376   1.188   0.077   0.936  0.5973 -1.5287 -1.0305
  793SOL     OW 2377   0.684   0.028   0.600 -0.4289 -0.1152 -0.9208
  793SOL    HW1 2378   0.595  -0.026   0.594 -2.2613  3.1746  1.1945
  793SOL    HW2 2379   0.753  -0.020   0.541  0.1289 -2.4243  1.3154
  794SOL     OW 2380   0.556   1.367   1.480  0.2597  0.2553 -0.1222
  794SOL    HW1 2381   0.587   1.363   1.384  1.0862  0.3175 -1.2632
  794SOL    HW2 2382   0.529   1.465   1.501  0.8069  2.0976 -3.3897
  795SOL     OW 2383   0.238   1.593   1.749 -0.3062  0.0390  0.1246
  795SOL    HW1 2384   0.286   1.501   1.761 -0.1151 -0.6961  0.4397
  795SOL    HW2 2385   0.278   1.660   1.816  4.1582  1.4993 -3.8795
  796SOL     OW 2386   1.788   1.673   1.840  0.1496 -1.3921 -0.2809
  796SOL    HW1 2387   1.845   1.741   1.893  0.5220  0.1026  0.5996
  796SOL    HW2 2388   1.783   1.586   1.892  2.0389 -0.2137 -1.6897
  797SOL     OW 2389   2.452   2.754   2.727 -0.0406 -0.3676 -0.3967
  797SOL    HW1 2390   2.347   2.773   2.733 -0.6067  0.8637  0.3809
  797SOL    HW2 2391   2.508   2.831   2.766  0.0311 -0.2457 -1.0988
  798SOL     OW 2392   0.213   2.613   1.708 -0.7955 -0.2655  0.2428
  798SOL    HW1 2393   0.229   2.516   1.734  1.0231  0.3259  0.2417
  798SOL    HW2 2394   0.298   2.673   1.699 -2.3316  2.7504 -0.4378
  799SOL     OW 2395   2.591   1.992   0.339 -0.0323 -0.2892  0.2510
  799SOL    HW1 2396   2.546   2.037   0.422  0.2303 -0.5366 -0.7337
  799SOL    HW2 2397   2.544   1.900   0.328 -2.3675  1.1105  1.0583
  800SOL     OW 2398   1.117   1.711   0.386  0.2880 -0.2377 -0.0557
  800SOL    HW1 2399   1.048   1.791   0.399 -0.3952  1.2653  0.1718
  800SOL    HW2 2400   1.081   1.614   0.399 -1.6219 -1.3987 -1.3851
  801SOL     OW 2401   2.516   0.345   1.110  0.0770 -0.3266  0.4328
  801SOL    HW1 2402   2.534   0.389   1.199  0.5307  0.2567 -1.7079
  801SOL    HW2 2403   2.584   0.381   1.045 -0.3560  1.2184 -1.3564
  802SOL     OW 2404   2.949   1.588   0.627 -0.4390  0.0115  0.0363
  802SOL    HW1 2405   2.869   1.551   0.575  1.4464 -0.1932 -2.8478
  802SOL    HW2 2406   2.942   1.692   0.627 -3.4146 -1.4559 -1.7374
  803SOL     OW 2407   1.780   1.904   0.050  0.0906 -0.3604  0.3991
  803SOL    HW1 2408   1.688   1.941   0.076  1.8974  0.6532 -0.4406
  803SOL    HW2 2409   1.790   1.809   0.087 -0.8206 -0.7577  0.0337
  804SOL     OW 2410   1.511   1.699   0.046 -0.0335 -0.1752 -0.2628
  804SOL    HW1 2411   1.516   1.783  -0.004 -2.2749 -0.1533  0.9790
  804SOL    HW2 2412   1.607   1.680   0.090 -0.3790 -0.0531  1.3154
  805SOL     OW 2413   2.726   1.472   2.530  0.4588 -0.8305 -0.4785
  805SOL    HW1 2414   2.737   1.563   2.480 -0.0819  1.6076  1.9578
  805SOL    HW2 2415   2.730   1.390   2.471 -2.6156 -0.7720  1.0807
  806SOL     OW 2416   0.377   2.685   0.510 -0.2218 -0.2583 -0.2411
  806SOL    HW1 2417   0.386   2.588   0.533 -1.4257  2.4082  0.1280
  806SOL    HW2 2418   0.451   2.716   0.443 -0.8789  0.6774 -1.0641
  807SOL     OW 2419   2.493   1.759   2.616  0.3117 -0.1970 -0.0635
  807SOL    HW1 2420   2.482   1.858   2.588 -0.1938  0.4458 -0.8195
  807SOL    HW2 2421   2.497   1.749   2.718 -0.1960  2.0988 -1.2499
  808SOL     OW 2422   3.029   1.301   0.621  0.0141  0.0459 -0.5656
  808SOL    HW1 2423   3.097   1.226   0.614 -2.0118  3.3766 -1.8387
  808SOL    HW2 2424   2.992   1.319   0.713 -2.6165  1.9570  0.0535
  809SOL     OW 2425   2.247   0.661   2.921 -0.3636  0.7691  0.3858
  809SOL    HW1 2426   2.230   0.759   2.901 -0.1142 -1.1519 -4.6740
  809SOL    HW2 2427   2.348   0.645   2.943 -0.0023 -2.0165 -2.6995
  810SOL     OW 2428   0.807   0.635   0.259  0.1031 -0.1311  0.0539
  810SOL    HW1 2429   0.895   0.690   0.262 -1.7735  1.2266 -1.5709
  810SOL    HW2 2430   0.733   0.682   0.211 -1.3557 -0.6032  0.3174
  811SOL     OW 2431   1.464   2.703   0.818 -0.5665  0.9083 -0.6502
  811SOL    HW1 2432   1.484   2.792   0.780 -0.2811  0.4080  0.9772
  811SOL    HW2 2433   1.522   2.636   0.765 -1.3279  0.9374  1.3192
  812SOL     OW 2434   1.112   2.325   2.213  0.5046 -0.1432  0.1268
  812SOL    HW1 2435   1.157   2.396   2.272 -1.3334 -0.7550  2.0584
  812SOL    HW2 2436   1.064   2.372   2.139  0.1551 -0.5358 -0.3205
  813SOL     OW 2437   1.583   0.767   2.304 -0.5477 -0.0426  0.3438
  813SOL    HW1 2438   1.656   0.786   2.236  0.6538  1.3408 -0.1666
  813SOL    HW2 2439   1.494   0.753   2.254 -2.1996 -4.1073  1.6027
  814SOL     OW 2440   1.582   0.493   3.019 -0.1606 -0.1436 -0.1500
  814SOL    HW1 2441   1.535   0.412   2.971  1.3697 -0.6736 -0.2399
  814SOL    HW2 2442   1.650   0.535   2.959 -1.2564 -0.5983 -2.0665
  815SOL     OW 2443   0.415   1.157   1.254 -0.0651 -0.3178 -0.3613
  815SOL    HW1 2444   0.406   1.148   1.356 -0.6994 -1.0572  0.7522
  815SOL    HW2 2445   0.491   1.212   1.218 -2.0970  1.0058 -0.1133
  816SOL     OW 2446   2.882   0.514   0.013  0.1600  0.7435  0.5700
  816SOL    HW1 2447   2.936   0.577   0.075 -2.6466 -0.0434  1.3976
  816SOL    HW2 2448   2.852   0.435   0.068 -0.6730  0.5737 -0.5587
  817SOL     OW 2449   1.358   0.294   2.332  0.2362  0.2218  0.6448
  817SOL    HW1 2450   1.440   0.340   2.369  1.9416 -0.4753  0.4442
  817SOL    HW2 2451   1.391   0.226   2.261  1.1949 -1.6770  2.3804
  818SOL     OW 2452   2.206   0.348   0.628 -0.1275 -0.4371  0.8576
  818SOL    HW1 2453   2.288   0.360   0.570 -0.3795 -1.2820  2.3092
  818SOL    HW2 2454   2.227   0.268   0.690  1.2214 -0.1460 -2.7090
  819SOL     OW 2455   2.221   1.377   0.428  0.6612  0.1593  0.2139
  819SOL    HW1 2456   2.251   1.466   0.469 -1.5890  0.2086  1.5540
  819SOL    HW2 2457   2.281   1.354   0.350 -1.0270  0.6950 -1.4012
  820SOL     OW 2458   2.982   1.863   3.049 -0.0405  0.3650  0.3423
  820SOL    HW1 2459   2.923   1.944   3.028  2.7574  0.6455  1.7850
  820SOL    HW2 2460   3.016   1.870   3.142  1.1494  0.7982 -1.9175
  821SOL     OW 2461   0.780   2.479   1.347 -0.4831  0.5857  0.3578
  821SOL    HW1 2462   0.766   2.466   1.449 -1.5878  1.9222  0.5866
  821SOL    HW2 2463   0.769   2.578   1.324  1.2325 -1.4776  3.5583
  822SOL     OW 2464   3.093   2.975   2.548  0.0720  0.0707 -0.2559
  822SOL    HW1 2465   3.121   2.966   2.450  1.3184 -1.3227  2.0725
  822SOL    HW2 2466   3.084   3.075   2.579 -0.6564  0.1656  0.8012
  823SOL     OW 2467   2.138   2.536   2.513  0.7291 -0.4230 -0.0450
  823SOL    HW1 2468   2.152   2.521   2.614 -0.9477  2.3518  1.5415
  823SOL    HW2 2469   2.211   2.488   2.462  0.5146  2.1627  1.7271
  824SOL     OW 2470   2.768   2.072   0.995  0.5925 -0.3831  0.0984
  824SOL    HW1 2471   2.763   1.999   1.063  1.2502  1.3801  1.5712
  824SOL    HW2 2472   2.842   2.061   0.925 -0.6781 -0.9870 -0.7492
  825SOL     OW 2473   2.493   1.652   2.874  0.1751  0.7017  0.4585
  825SOL    HW1 2474   2.539   1.563   2.857  0.9066  0.3952 -0.8006
  825SOL    HW2 2475   2.392   1.636   2.879  0.6446  0.0965  0.0126
  826SOL     OW 2476   0.367   1.130   2.201 -0.2000  0.3299  0.0292
  826SOL    HW1 2477   0.283   1.120   2.261  0.1717 -1.2261  0.0489
  826SOL    HW2 2478   0.383   1.230   2.181  2.2553 -0.6363  0.1030
  827SOL     OW 2479   2.065   0.286   1.438  0.8215 -0.2056 -0.3912
  827SOL    HW1 2480   2.087   0.252   1.535  0.1371 -0.8668 -1.6670
  827SOL    HW2 2481   2.095   0.383   1.432 -1.9684  1.8917  2.5994
  828SOL     OW 2482   0.340   2.669   0.979  0.0794  0.0592 -0.2663
  828SOL    HW1 2483   0.287   2.711   0.904  2.8245 -2.8979 -3.5700
  828SOL    HW2 2484   0.394   2.591   0.947 -0.4175  1.5711 -0.7456
  829SOL     OW 2485   2.574   2.345   1.937  0.4780 -0.1895  0.7026
  829SOL    HW1 2486   2.574   2.282   2.017 -0.1987 -0.9413  0.7505
  829SOL    HW2 2487   2.667   2.386   1.917 -0.6997  1.0495  2.3715
  830SOL     OW 2488   1.775   0.827   1.487  0.3831  0.2974 -0.4967
  830SOL    HW1 2489   1.722   0.749   1.443  0.3005 -0.7051  0.2510
  830SOL    HW2 2490   1.845   0.790   1.549  3.6584 -1.3044  0.7837
  831SOL     OW 2491   2.630   0.909   1.433  0.1434  0.8867 -0.0768
  831SOL    HW1 2492   2.578   0.849   1.498 -0.4087 -0.9733 -0.2930
  831SOL    HW2 2493   2.680   0.852   1.366  1.9701  1.3405 -1.0742
  832SOL     OW 2494   1.500   2.380   2.132  0.4906 -0.6427 -0.3108
  832SOL    HW1 2495   1.444   2.295   2.152  0.5136  0.4085  2.7482
  832SOL    HW2 2496   1.534   2.395   2.036 -1.7024  2.1095  1.8228
  833SOL     OW 2497   3.064   0.084   1.749  0.2446 -0.0459 -0.1408
  833SOL    HW1 2498   3.150   0.036   1.776  0.7058 -2.8101  0.7676
  833SOL    HW2 2499   3.078   0.170   1.696 -2.0422  1.9043 -0.8067
  834SOL     OW 2500   0.907   0.713   1.572 -0.1121 -0.0166  0.4340
  834SOL    HW1 2501   0.877   0.617   1.581  0.2384 -2.2978 -1.4331
  834SOL    HW2 2502   0.891   0.751   1.481  0.7331  1.5876  0.6413
  835SOL     OW 2503   2.993   0.333   2.895  0.2088 -0.2484  0.0836
  835SOL    HW1 2504   2.956   0.398   2.969  1.7104  2.1627  0.4599
  835SOL    HW2 2505   3.006   0.377   2.805 -0.8264  0.2388 -0.6572
  836SOL     OW 2506   1.195   2.899   1.174  0.3113 -0.3217 -0.1415
  836SOL    HW1 2507   1.212   2.968   1.106  1.5248 -1.4158  0.9309
  836SOL    HW2 2508   1.108   2.920   1.226  0.8797 -0.3049 -1.8235
  837SOL     OW 2509   2.592   1.364   1.563  0.2350  0.7071 -0.1890
  837SOL    HW1 2510   2.551   1.368   1.659  0.1255 -2.7753  1.5555
  837SOL    HW2 2511   2.696   1.369   1.567 -0.9355 -2.1142  1.1849
  838SOL     OW 2512   1.346   2.041   0.032 -0.0084  0.5988  0.3506
  838SOL    HW1 2513   1.398   1.989  -0.038 -0.2036 -2.0192  3.7005
  838SOL    HW2 2514   1.248   2.053   0.011 -0.2386 -2.1973 -3.8413
  839SOL     OW 2515   0.612   2.399   3.092 -0.1206  0.1761 -0.3157
  839SOL    HW1 2516   0.613   2.326   3.163 -0.3785 -1.2145  1.2583
  839SOL    HW2 2517   0.703   2.394   3.040 -0.9813 -0.1314  2.5811
  840SOL     OW 2518   0.881   2.663   2.670 -0.1185 -0.1092  0.0877
  840SOL    HW1 2519   0.912   2.675   2.574 -0.3164  2.6440  0.7739
  840SOL    HW2 2520   0.959   2.642   2.734 -0.4386  0.6521  1.9186
  841SOL     OW 2521   1.762   1.648   2.886 -0.5892  0.6280 -0.4440
  841SOL    HW1 2522   1.822   1.728   2.890 -0.3610  0.9461 -1.1666
  841SOL    HW2 2523   1.804   1.576   2.944  0.4268 -1.3643  3.5554
  842SOL     OW 2524   1.840   0.816   0.053  0.1924  0.1822 -0.6594
  842SOL    HW1 2525   1.828   0.718   0.057  1.0703  1.4978  0.5192
  842SOL    HW2 2526   1.838   0.856   0.145 -1.6929 -2.2055 -1.7070
  843SOL     OW 2527   1.161   2.932   0.575 -0.1549  0.0945 -0.7738
  843SOL    HW1 2528   1.152   2.892   0.670  0.2212  1.3151  2.0101
  843SOL    HW2 2529   1.196   2.857   0.513 -0.6989 -0.4433 -2.6933
  844SOL     OW 2530   1.881   2.949   2.836  0.0074 -0.5869 -0.3825
  844SOL    HW1 2531   1.953   3.012   2.800 -1.2943  0.3694  2.5551
  844SOL    HW2 2532   1.813   2.932   2.765 -1.4022  0.3463 -1.6393
  845SOL     OW 2533   0.483   2.430   0.894 -0.3591 -0.0602  0.2980
  845SOL    HW1 2534   0.495   2.330   0.902  0.3000  1.2502  1.7855
  845SOL    HW2 2535   0.560   2.468   0.846  0.2051  0.0087 -2.6090
  846SOL     OW 2536   2.688   2.601   1.502  0.3669 -0.1885  0.2808
  846SOL    HW1 2537   2.664   2.503   1.477  0.7932 -0.1788  1.5638
  846SOL    HW2 2538   2.772   2.593   1.563 -1.6964 -2.4516  0.8679
  847SOL     OW 2539   1.547   0.660   1.394 -0.2000 -1.0140  0.2130
  847SOL    HW1 2540   1.502   0.578   1.431  2.3918 -0.3390  1.2554
  847SOL    HW2 2541   1.561   0.662   1.291 -0.7373  0.8516  4.3152
  848SOL     OW 2542   3.082   0.281   0.229 -0.2965 -0.3009  0.3425
  848SOL    HW1 2543   2.981   0.290   0.218 -0.4343  2.8736  2.5437
  848SOL    HW2 2544   3.122   0.373   0.268  2.5920  0.4951 -4.2089
  849SOL     OW 2545   0.657   1.143   0.298 -0.7608  0.3074 -0.4555
  849SOL    HW1 2546   0.637   1.240   0.326  2.1591  0.3907  2.7247
  849SOL    HW2 2547   0.732   1.100   0.355 -0.0557 -1.2614  0.8438
  850SOL     OW 2548   2.459   2.844   1.548 -0.3513 -0.1902  0.8466
  850SOL    HW1 2549   2.521   2.764   1.551  1.8637 -0.5396 -1.9525
  850SOL    HW2 2550   2.370   2.809   1.511  2.4709 -1.6118  0.4181
  851SOL     OW 2551   1.627   0.017   1.857 -0.2582  0.3524  0.5332
  851SOL    HW1 2552   1.684   0.041   1.778 -1.8642  0.9965 -2.5726
  851SOL    HW2 2553   1.600   0.106   1.904  1.9386  0.2708 -0.0703
  852SOL     OW 2554   1.934   1.300   2.094 -0.7373 -0.7993  0.2963
  852SOL    HW1 2555   1.839   1.311   2.054 -1.7216  1.2907 -1.1258
  852SOL    HW2 2556   1.930   1.295   2.197  0.4068 -0.0744 -3.2330
  853SOL     OW 2557   2.920   2.718   0.512 -0.1540  0.8180 -0.3972
  853SOL    HW1 2558   2.988   2.730   0.585  3.5861  0.9264  0.0322
  853SOL    HW2 2559   2.960   2.669   0.433  0.7439 -0.1499 -0.1746
  854SOL     OW 2560   1.587   2.064   0.171 -0.0833  0.4765 -0.3454
  854SOL    HW1 2561   1.608   2.162   0.165  0.9709  0.9829 -0.8699
  854SOL    HW2 2562   1.496   2.046   0.124  3.0288  0.8216 -1.0009
  855SOL     OW 2563   0.907   1.875   0.169  0.1528  0.1384  0.3471
  855SOL    HW1 2564   0.939   1.917   0.258  0.1444  0.5056  2.6333
  855SOL    HW2 2565   0.822   1.827   0.191  0.2479  0.3463 -1.5077
  856SOL     OW 2566   2.577   0.511   0.577  0.3216 -0.6098  0.0173
  856SOL    HW1 2567   2.628   0.469   0.653  0.9080 -0.1441  2.1324
  856SOL    HW2 2568   2.610   0.607   0.565  0.0844 -1.6977 -1.9693
  857SOL     OW 2569   2.255   2.769   2.137  0.3775 -0.2331 -0.3375
  857SOL    HW1 2570   2.233   2.669   2.153 -1.0678 -1.0929  0.8856
  857SOL    HW2 2571   2.296   2.781   2.044 -1.4463 -0.8828  1.0152
  858SOL     OW 2572   2.625   2.059   1.557 -0.3834 -0.2170  0.2873
  858SOL    HW1 2573   2.568   2.095   1.635 -1.2835 -0.4627 -1.2847
  858SOL    HW2 2574   2.595   1.962   1.540 -0.8564 -2.8010 -0.4821
  859SOL     OW 2575   0.766   2.182   0.863  0.5828  0.4732 -0.4354
  859SOL    HW1 2576   0.668   2.178   0.887 -0.5610 -0.4552  2.9065
  859SOL    HW2 2577   0.812   2.253   0.920 -1.6559 -1.4104  0.3275
  860SOL     OW 2578   2.180   2.579   0.435  0.4565  0.1181 -0.0215
  860SOL    HW1 2579   2.131   2.543   0.518  0.3699 -1.3884 -0.1941
  860SOL    HW2 2580   2.137   2.667   0.400  0.4709 -2.7546 -3.0766
  861SOL     OW 2581   1.180   0.229   1.213  0.2639 -0.0327 -0.2391
  861SOL    HW1 2582   1.283   0.237   1.226  2.8620 -1.4780 -2.1696
  861SOL    HW2 2583   1.133   0.261   1.297 -0.1670 -2.3516  0.0160
  862SOL     OW 2584   1.673   0.183   2.431 -0.0695  0.0298 -0.1761
  862SOL    HW1 2585   1.643   0.283   2.439 -2.5449  2.9529 -1.7369
  862SOL    HW2 2586   1.748   0.164   2.370  2.3338 -0.7281 -1.5169
  863SOL     OW 2587   0.821   2.039   0.604 -0.5490  0.1085  0.0663
  863SOL    HW1 2588   0.755   1.962   0.608 -1.7808 -0.6368  2.1823
  863SOL    HW2 2589   0.815   2.085   0.695  0.1975  1.0577 -1.0266
  864SOL     OW 2590   1.774   2.639   1.920 -1.0393  0.3002 -0.1629
  864SOL    HW1 2591   1.817   2.617   1.830  0.9648  0.8589  0.5693
  864SOL    HW2 2592   1.694   2.573   1.940  0.4133  1.3275 -0.8789
  865SOL     OW 2593   0.149   1.947   2.659 -0.0563  0.2747 -0.2565
  865SOL    HW1 2594   0.138   2.048   2.655  1.0000  0.1121  1.2161
  865SOL    HW2 2595   0.119   1.922   2.753  0.0342 -0.2970  0.5231
  866SOL     OW 2596   2.128   3.004   2.137  0.6009 -0.3536 -0.9992
  866SOL    HW1 2597   2.177   2.915   2.147  1.4663  0.2774  3.3746
  866SOL    HW2 2598   2.031   3.009   2.169  2.0607  1.8625 -1.0729
  867SOL     OW 2599   0.066   2.823   1.843  0.0631  0.2189 -0.0173
  867SOL    HW1 2600  -0.027   2.808   1.810  0.0071  0.2558  1.0093
  867SOL    HW2 2601   0.133   2.748   1.819 -0.0976 -3.4307 -0.9673
  868SOL     OW 2602   0.787   2.627   0.364 -0.0523 -0.3282 -0.0303
  868SOL    HW1 2603   0.758   2.559   0.438 -0.9088 -0.4913 -0.9060
  868SOL    HW2 2604   0.702   2.687   0.348  0.4495 -1.1526  0.9171
  869SOL     OW 2605   1.263   2.071   1.155 -0.6598 -0.5245  0.3536
  869SOL    HW1 2606   1.291   2.162   1.114  0.9572  4.2601 -1.6679
  869SOL    HW2 2607   1.334   2.023   1.207  0.9756 -0.7302 -1.7761
  870SOL     OW 2608   2.446   1.973   0.817 -0.7737  0.6025  0.8052
  870SOL    HW1 2609   2.510   2.057   0.830  2.5159 -0.1443  1.9116
  870SOL    HW2 2610   2.505   1.894   0.820 -0.3357  0.9643  1.2129
  871SOL     OW 2611   0.924   1.412   1.187 -0.1502 -0.7956 -0.1231
  871SOL    HW1 2612   1.020   1.383   1.178 -1.1970 -0.0259 -3.0558
  871SOL    HW2 2613   0.895   1.465   1.106 -1.2808 -0.4333  0.8374
  872SOL     OW 2614   1.336   0.770   0.870 -0.5609  1.0754 -0.0696
  872SOL    HW1 2615   1.308   0.708   0.949  0.1490  0.2219 -1.2676
  872SOL    HW2 2616   1.269   0.841   0.846 -2.3653  0.9734 -0.0708
  873SOL     OW 2617   1.912   0.108   2.321 -0.0319  0.0577  0.0825
  873SOL    HW1 2618   1.876   0.020   2.285  1.6258  2.1855 -3.3030
  873SOL    HW2 2619   2.005   0.096   2.366  0.5315  2.0841  0.7998
  874SOL     OW 2620   0.702   1.002   0.958 -0.2869  0.2888  0.0586
  874SOL    HW1 2621   0.745   1.001   1.053  2.8657  0.4435 -0.9644
  874SOL    HW2 2622   0.601   1.001   0.956 -0.7672 -1.5733  0.4933
  875SOL     OW 2623   2.776   2.831   0.080 -0.3904  0.0819  0.2055
  875SOL    HW1 2624   2.748   2.825  -0.018 -0.2290  1.5229  0.4727
  875SOL    HW2 2625   2.692   2.845   0.138  0.5238  0.8263  0.9972
  876SOL     OW 2626   1.576   0.440   2.410  0.4674  0.2232 -0.1058
  876SOL    HW1 2627   1.607   0.481   2.322 -0.1926 -1.8382  0.3285
  876SOL    HW2 2628   1.568   0.505   2.488  0.3062  0.3645  1.7746
  877SOL     OW 2629   0.056   2.723   1.021  0.2834 -0.2085 -0.5436
  877SOL    HW1 2630   0.012   2.689   1.104  0.2141 -0.2899 -2.0249
  877SOL    HW2 2631   0.157   2.700   1.023  1.1123  1.0764 -0.4343
  878SOL     OW 2632   2.325   2.344   2.296 -0.2231  0.2324 -0.7576
  878SOL    HW1 2633   2.338   2.353   2.397 -0.1918 -0.3042 -0.8801
  878SOL    HW2 2634   2.353   2.246   2.271  1.6669 -0.2965 -1.2446
  879SOL     OW 2635   2.250   2.041   1.277  0.5113  0.1493 -0.3393
  879SOL    HW1 2636   2.207   2.128   1.309  0.3975 -1.3302 -1.8330
  879SOL    HW2 2637   2.258   2.041   1.174  1.2318  0.7674 -3.5162
  880SOL     OW 2638   0.801   1.259   0.860 -0.0887  0.1804 -0.3156
  880SOL    HW1 2639   0.771   1.334   0.923  2.3274  0.1683 -1.8884
  880SOL    HW2 2640   0.761   1.167   0.886  1.7445 -1.2287 -1.9836
  881SOL     OW 2641   0.730   0.938   0.524 -0.0149 -0.0881  0.6242
  881SOL    HW1 2642   0.800   1.012   0.520 -0.4080 -3.2173  0.4249
  881SOL    HW2 2643   0.773   0.853   0.562 -0.4852 -2.9999  0.4991
  882SOL     OW 2644   1.226   0.641   1.073  0.1856  0.5541  0.2036
  882SOL    HW1 2645   1.221   0.694   1.158  2.0601  1.7285  0.4634
  882SOL    HW2 2646   1.131   0.607   1.051 -0.1480  0.0827 -1.6166
  883SOL     OW 2647   2.194   0.938   2.601 -0.0778  0.4795 -0.1723
  883SOL    HW1 2648   2.226   0.865   2.539 -1.9779  2.8736  2.4137
  883SOL    HW2 2649   2.234   0.935   2.694  3.1836  0.5935 -0.7543
  884SOL     OW 2650   3.052   0.717   0.160 -0.4025 -0.1147 -0.2711
  884SOL    HW1 2651   3.008   0.805   0.187 -0.4356 -0.7102  3.0591
  884SOL    HW2 2652   3.074   0.713   0.058 -2.2432  0.6128 -1.2235
  885SOL     OW 2653   1.334   2.256   0.895 -0.3520  0.6244 -0.1631
  885SOL    HW1 2654   1.314   2.329   0.963 -0.0765  0.3530 -2.8187
  885SOL    HW2 2655   1.248   2.205   0.878 -0.1560 -1.3720 -0.7205
  886SOL     OW 2656   1.754   0.626   2.862  0.1793 -0.6656  0.0874
  886SOL    HW1 2657   1.691   0.653   2.791 -2.9878 -0.0148 -0.0400
  886SOL    HW2 2658   1.827   0.697   2.864  2.7508 -1.6312  1.4800
  887SOL     OW 2659   1.858   0.280   1.713  0.0664 -0.1954 -0.2816
  887SOL    HW1 2660   1.823   0.190   1.683 -1.3596 -0.1820  3.6647
  887SOL    HW2 2661   1.958   0.279   1.699 -1.3861  0.3073  0.6068
  888SOL     OW 2662   2.993   2.279   1.250 -0.3287  0.1639 -0.1152
  888SOL    HW1 2663   3.031   2.202   1.195  1.2023 -1.7754  0.2709
  888SOL    HW2 2664   2.979   2.363   1.191  1.3756  1.0785  1.2740
  889SOL     OW 2665   2.635   0.119   1.089 -0.1622  0.0480 -0.3324
  889SOL    HW1 2666   2.573   0.195   1.117 -0.2366  0.3827 -0.7283
  889SOL    HW2 2667   2.715   0.163   1.047  1.4362  0.9772  0.4046
  890SOL     OW 2668   1.030   1.972   2.011  0.6721  0.7839 -0.3124
  890SOL    HW1 2669   1.034   2.023   2.097  1.6639  0.5836 -1.3826
  890SOL    HW2 2670   0.945   1.920   1.999  1.2795 -0.2756  0.6751
  891SOL     OW 2671   0.393   1.707   0.316  0.1007 -0.0520  0.0789
  891SOL    HW1 2672   0.352   1.787   0.362 -0.3899 -3.4533  2.1681
  891SOL    HW2 2673   0.387   1.630   0.381 -2.2803  0.8224  2.6323
  892SOL     OW 2674   2.324   2.841   1.116 -0.9182 -0.0355 -0.4140
  892SOL    HW1 2675   2.426   2.827   1.125 -1.4488  1.2569 -3.2901
  892SOL    HW2 2676   2.267   2.807   1.195  0.1255  1.6129 -0.7981
  893SOL     OW 2677   0.336   0.827   1.534 -0.1266  0.7231 -0.2591
  893SOL    HW1 2678   0.421   0.800   1.475  0.8721  1.3279  1.7219
  893SOL    HW2 2679   0.322   0.928   1.534  0.8639 -2.3523 -1.3323
  894SOL     OW 2680   2.520   2.119   0.553  0.2909  0.1462 -0.1839
  894SOL    HW1 2681   2.415   2.115   0.543  1.3735 -1.3374  1.3401
  894SOL    HW2 2682   2.557   2.123   0.646  0.7464 -0.3906  3.4607
  895SOL     OW 2683   0.653   1.848   1.563 -0.4471  0.0736 -0.6273
  895SOL    HW1 2684   0.680   1.951   1.564 -1.0121 -0.4085  0.8527
  895SOL    HW2 2685   0.653   1.803   1.653 -0.4140  3.9255  1.1331
  896SOL     OW 2686   1.452   0.435   1.542 -0.0349 -0.2466 -0.2295
  896SOL    HW1 2687   1.435   0.337   1.526  0.2428  1.1703  0.8785
  896SOL    HW2 2688   1.360   0.475   1.553 -0.3501 -0.7821  1.1347
  897SOL     OW 2689   1.065   1.229   0.859  0.1061  0.3539 -0.4324
  897SOL    HW1 2690   1.103   1.271   0.944  0.8521 -0.3590 -1.4328
  897SOL    HW2 2691   0.963   1.232   0.862  1.1687  1.3549 -2.2700
  898SOL     OW 2692   0.318   3.009   1.537  0.0974 -0.2617  0.2398
  898SOL    HW1 2693   0.245   2.993   1.472 -0.5222 -0.1667  2.6304
  898SOL    HW2 2694   0.378   2.932   1.554 -0.1472  0.6926  1.2402
  899SOL     OW 2695   1.310   0.541   0.263 -0.8508  0.7064 -0.5920
  899SOL    HW1 2696   1.225   0.493   0.232  2.0138 -3.0216 -0.2333
  899SOL    HW2 2697   1.283   0.620   0.323  0.9846  0.1771  0.4697
  900SOL     OW 2698   1.114   0.636   2.193 -0.1413  1.3333  0.0029
  900SOL    HW1 2699   1.053   0.715   2.227 -0.8897 -0.5141 -1.9323
  900SOL    HW2 2700   1.102   0.559   2.255 -0.5556 -1.1626 -0.9160
  901SOL     OW 2701   1.154   2.053   0.651 -0.0580  0.2957  0.3101
  901SOL    HW1 2702   1.122   2.100   0.736 -0.5056 -0.0443  0.6841
  901SOL    HW2 2703   1.190   2.116   0.577  0.5134 -0.7545  2.4729
  902SOL     OW 2704   1.406   0.432   1.045 -0.0672  0.3003 -0.4306
  902SOL    HW1 2705   1.349   0.519   1.067 -2.0636 -2.9858  0.2131
  902SOL    HW2 2706   1.364   0.381   0.964 -0.2821  0.2474  0.6806
  903SOL     OW 2707   0.663   1.421   2.129 -0.4952 -0.3263 -0.5830
  903SOL    HW1 2708   0.711   1.331   2.140  0.5238 -0.5447  0.5400
  903SOL    HW2 2709   0.711   1.496   2.187  0.3428  1.5078  1.0268
  904SOL     OW 2710   1.569   0.853   0.939  0.0876  0.8741 -0.3746
  904SOL    HW1 2711   1.607   0.892   0.853 -1.7513  1.0452 -0.7199
  904SOL    HW2 2712   1.475   0.815   0.920  0.1649  0.5326  2.0231
  905SOL     OW 2713   1.688   2.300   1.231 -0.0646 -0.6078  0.6712
  905SOL    HW1 2714   1.739   2.381   1.194 -2.3840 -0.2489 -3.7708
  905SOL    HW2 2715   1.719   2.212   1.188  1.0895 -1.4970 -0.2024
  906SOL     OW 2716   1.453   2.655   0.056 -0.3430 -0.0042  0.3103
  906SOL    HW1 2717   1.538   2.617   0.022 -0.3223  0.4864  1.7837
  906SOL    HW2 2718   1.468   2.673   0.153 -1.6865 -0.7017  0.5428
  907SOL     OW 2719   1.763   1.527   0.369 -0.0021 -0.1297  0.3089
  907SOL    HW1 2720   1.677   1.522   0.423 -0.5711 -3.3402  3.3428
  907SOL    HW2 2721   1.828   1.448   0.402  0.9266 -0.7461 -0.7232
  908SOL     OW 2722   1.491   0.682   1.745 -0.2371 -0.3335  0.4991
  908SOL    HW1 2723   1.524   0.639   1.661 -0.0099 -1.7790  1.8815
  908SOL    HW2 2724   1.504   0.623   1.827  0.7566 -2.3610 -2.1803
  909SOL     OW 2725   1.800   2.540   1.150 -0.2007  0.0142 -0.5014
  909SOL    HW1 2726   1.742   2.595   1.091  0.3064  2.4465  2.0954
  909SOL    HW2 2727   1.895   2.536   1.118 -0.5117 -1.3422 -0.8267
  910SOL     OW 2728   2.307   0.123   2.169  0.2229  0.0685 -0.5691
  910SOL    HW1 2729   2.248   0.043   2.167 -3.0477 -0.9675 -1.2137
  910SOL    HW2 2730   2.382   0.107   2.224  0.5315 -0.6001  1.7179
  911SOL     OW 2731   1.453   0.107   2.161 -0.2647  0.1743  0.0873
  911SOL    HW1 2732   1.515   0.142   2.088  0.0461  2.8045  0.7570
  911SOL    HW2 2733   1.460   0.007   2.169  0.1987  2.4957  0.6732
  912SOL     OW 2734   0.954   0.610   1.016 -0.2926  0.1208  0.6166
  912SOL    HW1 2735   0.896   0.681   0.969 -1.4663  2.7869  2.3331
  912SOL    HW2 2736   0.909   0.585   1.104 -0.8351  1.4195 -0.1325
  913SOL     OW 2737   2.461   2.450   1.116 -0.6000 -0.1472 -0.2260
  913SOL    HW1 2738   2.499   2.546   1.128  1.3658  1.7880  0.5876
  913SOL    HW2 2739   2.542   2.394   1.124  0.1206  1.0896  1.2347
  914SOL     OW 2740   1.734   1.062   1.337 -0.7383  0.2590  0.7351
  914SOL    HW1 2741   1.672   1.043   1.260  0.7399  0.5174 -0.2785
  914SOL    HW2 2742   1.736   0.977   1.395  0.6223 -0.4356  1.5446
  915SOL     OW 2743   0.048   2.121   1.087 -0.3859  0.0632  0.0452
  915SOL    HW1 2744   0.133   2.149   1.133 -3.4171  0.0366  0.1023
  915SOL    HW2 2745   0.049   2.017   1.079 -0.5425  0.3428 -0.1150
  916SOL     OW 2746   2.210   2.491   1.195 -0.7951  0.0771  0.3176
  916SOL    HW1 2747   2.150   2.497   1.110  3.1326 -1.2525  1.1582
  916SOL    HW2 2748   2.302   2.451   1.167  2.1065  0.2079  0.3377
  917SOL     OW 2749   2.189   2.474   2.111 -0.0881 -0.4521 -0.4112
  917SOL    HW1 2750   2.127   2.413   2.055 -0.8894  0.7130  2.9248
  917SOL    HW2 2751   2.242   2.421   2.175  2.0545  0.6673  1.3831
  918SOL     OW 2752   2.386   2.346   2.552 -0.2659  0.4801  0.2390
  918SOL    HW1 2753   2.427   2.401   2.629 -0.6342 -0.7699 -0.2938
  918SOL    HW2 2754   2.325   2.273   2.593  1.4782  1.5186 -1.0007
  919SOL     OW 2755   0.805   0.507   1.266  0.0064  0.0502 -0.7806
  919SOL    HW1 2756   0.719   0.502   1.218  1.2661 -2.3955  0.0681
  919SOL    HW2 2757   0.813   0.434   1.331 -1.2627  1.1518  3.0138
  920SOL     OW 2758   2.742   0.369   2.131  0.1921  0.1664  0.0207
  920SOL    HW1 2759   2.831   0.382   2.088 -1.1146 -0.7900 -1.8483
  920SOL    HW2 2760   2.712   0.272   2.127 -1.4236  2.4161 -0.8048
  921SOL     OW 2761   2.671   1.262   1.145  0.2882  0.2861  0.4366
  921SOL    HW1 2762   2.717   1.346   1.168 -1.8127  1.4424 -1.4694
  921SOL    HW2 2763   2.621   1.224   1.224 -2.9820 -0.3600 -0.8900
  922SOL     OW 2764   0.190   3.014   0.814 -0.6131 -0.8421  0.0883
  922SOL    HW1 2765   0.204   2.916   0.781 -1.4177  1.4951  0.0010
  922SOL    HW2 2766   0.268   3.070   0.775  3.5987  2.8093  2.2234
  923SOL     OW 2767   0.528   2.758   0.013 -0.1117  0.2524  0.1712
  923SOL    HW1 2768   0.452   2.810  -0.038 -0.5463 -1.3098 -0.4499
  923SOL    HW2 2769   0.496   2.678   0.068 -1.2704  0.0921  1.2347
  924SOL     OW 2770   1.275   1.386   2.970  0.0996 -0.1274 -0.4332
  924SOL    HW1 2771   1.205   1.407   3.044 -0.5916  0.1342  0.8191
  924SOL    HW2 2772   1.369   1.398   3.004 -2.0383  0.5349  0.1149
  925SOL     OW 2773   0.217   0.967   1.242 -0.0443  0.0028 -0.3562
  925SOL    HW1 2774   0.297   1.036   1.244 -2.0399  1.6981 -1.8551
  925SOL    HW2 2775   0.129   1.017   1.258 -1.5117  1.5607 -0.1264
  926SOL     OW 2776   0.176   0.257   1.067 -0.0058 -0.2852  0.1102
  926SOL    HW1 2777   0.098   0.282   1.003 -2.1932 -1.3508  1.8163
  926SOL    HW2 2778   0.260   0.311   1.045  0.0199 -1.6741 -1.3361
  927SOL     OW 2779   0.423   2.208   1.999 -0.2367  0.8312  0.4732
  927SOL    HW1 2780   0.405   2.231   1.903  1.9891 -1.7602 -1.9344
  927SOL    HW2 2781   0.428   2.286   2.066 -2.3765  2.0467 -2.2823
  928SOL     OW 2782   3.006   0.537   2.234 -0.4038  0.3489 -0.6084
  928SOL    HW1 2783   3.090   0.518   2.288  0.5067 -0.2096 -1.1498
  928SOL    HW2 2784   3.005   0.492   2.143 -0.5086 -2.2232  1.7620
  929SOL     OW 2785   2.331   1.596   0.545  0.3470 -0.4927  1.0772
  929SOL    HW1 2786   2.425   1.583   0.592 -3.1073 -0.0109  0.3246
  929SOL    HW2 2787   2.291   1.688   0.554  0.4684  0.9725  2.0346
  930SOL     OW 2788   1.877   0.534   2.461 -0.7419 -0.4363  0.2413
  930SOL    HW1 2789   1.819   0.482   2.392 -0.1448 -1.6471  0.0031
  930SOL    HW2 2790   1.826   0.612   2.500  3.4449 -0.3697  0.8252
  931SOL     OW 2791   0.146   0.995   2.815 -0.0815  0.6451  0.1640
  931SOL    HW1 2792   0.161   0.990   2.918  0.1761 -2.6278 -0.5063
  931SOL    HW2 2793   0.080   0.924   2.788 -0.0106 -0.2193  2.5587
  932SOL     OW 2794   1.271   0.612   2.890  0.5620  0.5348 -0.0249
  932SOL    HW1 2795   1.319   0.640   2.809  2.1427 -1.3856 -0.4641
  932SOL    HW2 2796   1.330   0.626   2.975  1.0035  0.1396  0.0902
  933SOL     OW 2797   1.568   0.527   0.360 -0.1186  0.2920 -0.0604
  933SOL    HW1 2798   1.474   0.543   0.322  0.8163 -0.2435 -4.6370
  933SOL    HW2 2799   1.556   0.475   0.449  0.0178  0.4719 -1.5386
  934SOL     OW 2800   0.043   1.256   2.069  0.8770 -0.0407  0.4858
  934SOL    HW1 2801  -0.058   1.278   2.065  0.6006  3.8168 -0.8070
  934SOL    HW2 2802   0.091   1.317   2.133  0.1182  0.3704  0.3528
  935SOL     OW 2803   1.221   1.320   1.617 -0.0509  0.0252  0.4906
  935SOL    HW1 2804   1.155   1.317   1.538 -3.0323  0.2883  0.4859
  935SOL    HW2 2805   1.182   1.301   1.710  0.2202  2.0131 -3.4243
  936SOL     OW 2806   0.374   0.000   0.246 -0.1331 -0.1900  0.6053
  936SOL    HW1 2807   0.329  -0.083   0.198 -2.5265  1.9875 -2.3699
  936SOL    HW2 2808   0.475  -0.003   0.231  0.0158 -1.5000 -0.0208
  937SOL     OW 2809   1.850   2.649   2.202 -0.5217  0.5631  0.1111
  937SOL    HW1 2810   1.804   2.567   2.250  1.5387 -0.2477  3.0529
  937SOL    HW2 2811   1.867   2.627   2.105  2.4170  1.0711  0.1079
  938SOL     OW 2812   2.752   2.928   0.436  0.5324  0.6134 -0.0313
  938SOL    HW1 2813   2.833   2.863   0.457 -0.9922 -0.7696 -0.1663
  938SOL    HW2 2814   2.755   3.009   0.497  0.9712  3.4912 -1.5177
  939SOL     OW 2815   1.562   1.221   2.398 -0.3206  0.5573  0.0821
  939SOL    HW1 2816   1.483   1.154   2.413  2.8340  1.0940  0.0809
  939SOL    HW2 2817   1.629   1.171   2.340 -2.7495 -3.5631  0.2935
  940SOL     OW 2818   1.686   2.463   2.323  0.0106  0.5003 -0.7913
  940SOL    HW1 2819   1.598   2.443   2.273  0.2183 -1.8057 -2.1359
  940SOL    HW2 2820   1.678   2.493   2.424 -1.3018  0.7252  2.5128
  941SOL     OW 2821   2.564   2.526   2.264 -0.4384 -0.2356  0.0049
  941SOL    HW1 2822   2.558   2.605   2.334  0.9782  3.3599  0.5747
  941SOL    HW2 2823   2.485   2.463   2.270  1.1049  4.6633  1.1814
  942SOL     OW 2824   1.592   2.998   0.330 -0.0295  0.0174  0.2623
  942SOL    HW1 2825   1.675   3.063   0.337 -3.3411  2.4506  2.5324
  942SOL    HW2 2826   1.512   3.033   0.381 -0.0336  1.7240 -0.0919
  943SOL     OW 2827   1.517   1.457   2.287  0.7275  0.2575 -0.0479
  943SOL    HW1 2828   1.518   1.361   2.323  0.1267  0.2204  1.1836
  943SOL    HW2 2829   1.606   1.483   2.249 -0.3717  0.6204 -2.0101
  944SOL     OW 2830   2.628   0.970   0.951  0.4478  0.2905  0.0696
  944SOL    HW1 2831   2.645   1.055   0.897 -0.8426  3.0022  0.0509
  944SOL    HW2 2832   2.581   0.995   1.036 -2.1996  2.3088  0.3196
  945SOL     OW 2833   3.067   2.900   2.082  0.2042  0.7501  0.6772
  945SOL    HW1 2834   3.114   2.858   2.000 -3.0602 -2.1061 -0.2330
  945SOL    HW2 2835   3.002   2.967   2.049 -1.8478 -2.5117 -0.4745
  946SOL     OW 2836   3.092   1.648   1.851 -0.2491  0.7779 -0.2483
  946SOL    HW1 2837   3.192   1.637   1.833 -1.3421  0.4702 -0.2487
  946SOL    HW2 2838   3.070   1.747   1.831 -1.8599  2.7068  0.4578
  947SOL     OW 2839   0.704   3.010   2.950  0.5409  0.1440 -0.4834
  947SOL    HW1 2840   0.745   2.918   2.973  0.7817 -0.1380 -1.4620
  947SOL    HW2 2841   0.631   3.003   2.878  2.1869  2.6671 -1.1453
  948SOL     OW 2842   2.064   2.230   1.307  0.2321 -0.4181 -1.0365
  948SOL    HW1 2843   1.992   2.196   1.245 -2.5126 -2.0005  0.6492
  948SOL    HW2 2844   2.103   2.322   1.280  5.7234 -0.4103 -1.1676
  949SOL     OW 2845   0.319   0.630   2.788  0.1846  0.4813  0.0160
  949SOL    HW1 2846   0.372   0.714   2.782  1.5031  0.1491 -2.2344
  949SOL    HW2 2847   0.279   0.611   2.882  2.4758  3.2858  0.9326
  950SOL     OW 2848   0.796   0.167   1.898 -0.6551 -0.1032 -0.2509
  950SOL    HW1 2849   0.881   0.135   1.845  0.0076 -1.0783  2.6295
  950SOL    HW2 2850   0.828   0.186   1.996 -0.9105 -1.8504 -0.0371
  951SOL     OW 2851   0.596   2.985   2.385 -0.6291 -0.1545  0.2059
  951SOL    HW1 2852   0.663   3.019   2.454 -2.0283  0.4042 -1.1596
  951SOL    HW2 2853   0.639   3.001   2.290  0.8563 -1.5725 -0.7584
  952SOL     OW 2854   0.366   1.289   0.055  0.4974 -0.6804  0.0997
  952SOL    HW1 2855   0.285   1.319   0.000 -2.4806  1.2299  0.7198
  952SOL    HW2 2856   0.431   1.362   0.079 -0.0181  0.1430 -0.9284
  953SOL     OW 2857   1.918   1.489   3.069 -0.3903 -0.2999  0.0392
  953SOL    HW1 2858   1.901   1.388   3.082  2.6143 -1.5391 -0.6827
  953SOL    HW2 2859   2.003   1.523   3.114  0.2880  0.0786 -1.3613
  954SOL     OW 2860   1.739   0.564   0.130 -0.7062  0.5221  0.2977
  954SOL    HW1 2861   1.698   0.576   0.221 -1.0560 -1.5253  1.8488
  954SOL    HW2 2862   1.668   0.533   0.060 -0.3745 -1.1847  0.0984
  955SOL     OW 2863   0.645   1.492   2.719  0.1865  0.3824 -0.1200
  955SOL    HW1 2864   0.743   1.490   2.749  1.4749  2.9376 -1.4449
  955SOL    HW2 2865   0.592   1.567   2.769 -2.3360  0.6556  0.7196
  956SOL     OW 2866   0.064   0.119   2.135  0.4149  0.2603 -1.0069
  956SOL    HW1 2867  -0.010   0.089   2.066  3.6584 -3.9680 -1.9640
  956SOL    HW2 2868   0.145   0.058   2.123  2.9011 -0.0330 -1.3487
  957SOL     OW 2869   1.871   2.178   1.805  0.2771 -0.8262  0.2609
  957SOL    HW1 2870   1.908   2.216   1.895  0.8862  2.0742 -1.1494
  957SOL    HW2 2871   1.940   2.163   1.733  0.3304 -2.3859  2.7184
  958SOL     OW 2872   2.192   0.927   1.271 -0.1624 -0.0830 -0.3306
  958SOL    HW1 2873   2.161   0.861   1.340  0.9555 -1.0987  2.0983
  958SOL    HW2 2874   2.122   0.992   1.234  4.0870  0.8609  0.7354
  959SOL     OW 2875   1.562   1.870   2.344  0.0596 -0.0639 -0.2683
  959SOL    HW1 2876   1.588   1.911   2.254  2.6143 -0.6646  1.0140
  959SOL    HW2 2877   1.647   1.877   2.406 -1.2889 -0.3811  0.5446
  960SOL     OW 2878   1.041   1.799   2.847 -0.0388 -0.7366 -0.2597
  960SOL    HW1 2879   1.134   1.759   2.826  3.4552 -0.6162 -2.1346
  960SOL    HW2 2880   0.994   1.745   2.918  2.6059  0.5452  1.9272
  961SOL     OW 2881   3.081   1.312   2.818 -0.3144  0.7540  0.6339
  961SOL    HW1 2882   3.035   1.396   2.789  1.2698 -0.8196 -2.5967
  961SOL    HW2 2883   3.105   1.248   2.742  1.7973  1.6286  0.0075
  962SOL     OW 2884   0.619   1.306   2.974  0.1708  0.6204 -0.4653
  962SOL    HW1 2885   0.536   1.344   2.925  1.6804 -0.2759 -1.8989
  962SOL    HW2 2886   0.633   1.346   3.065  1.0056 -0.1745  0.1399
  963SOL     OW 2887   2.231   1.619   2.935  0.4593 -0.5479 -0.7627
  963SOL    HW1 2888   2.171   1.594   2.859 -0.8440 -0.5345  0.6476
  963SOL    HW2 2889   2.204   1.578   3.025  2.6488 -1.3584 -0.4641
  964SOL     OW 2890   0.571   1.984   2.050  0.5330 -0.6522 -0.2549
  964SOL    HW1 2891   0.501   1.927   2.102 -1.0721 -1.1937  1.0128
  964SOL    HW2 2892   0.519   2.067   2.016 -0.4586 -1.6251 -1.8595
  965SOL     OW 2893   1.317   2.341   1.533  0.1947  0.0560 -0.1760
  965SOL    HW1 2894   1.331   2.351   1.636  2.0663  0.5377  1.9537
  965SOL    HW2 2895   1.405   2.314   1.488 -0.6688  0.1852  0.5747
  966SOL     OW 2896   2.709   1.406   2.985  0.0242  0.0384 -0.0152
  966SOL    HW1 2897   2.784   1.473   2.958  2.9246  1.0446 -0.9411
  966SOL    HW2 2898   2.648   1.400   2.905  2.2467 -0.4408  0.6186
  967SOL     OW 2899   1.917   2.120   0.110 -0.3310  0.1928 -0.4855
  967SOL    HW1 2900   1.854   2.152   0.185  3.0672 -2.9171 -1.3323
  967SOL    HW2 2901   1.880   2.037   0.067 -1.6977 -0.4033 -0.9385
  968SOL     OW 2902   1.526   1.697   2.755 -0.0766  0.1976 -0.0389
  968SOL    HW1 2903   1.609   1.675   2.814 -2.1800 -1.1101 -0.7497
  968SOL    HW2 2904   1.547   1.678   2.654  0.5197  0.2582 -2.5865
  969SOL     OW 2905   3.021   0.436   2.656  0.3716  0.1901 -0.2655
  969SOL    HW1 2906   2.951   0.430   2.582 -0.2922 -0.2232 -0.3644
  969SOL    HW2 2907   3.100   0.486   2.619 -1.3603 -0.5118  0.5876
  970SOL     OW 2908   1.742   0.296   0.243  0.3380 -0.6294 -0.0889
  970SOL    HW1 2909   1.712   0.389   0.271 -0.0663 -0.4811  0.8735
  970SOL    HW2 2910   1.785   0.298   0.150 -1.2620  0.6961  2.7142
  971SOL     OW 2911   1.089   2.173   0.874 -0.0135  0.0420 -0.4521
  971SOL    HW1 2912   1.044   2.263   0.892  0.5897  0.3955  2.9195
  971SOL    HW2 2913   1.027   2.100   0.913  1.3445  0.8496  3.9360
  972SOL     OW 2914   0.132   2.492   2.648 -0.5361 -0.6683  0.3720
  972SOL    HW1 2915   0.228   2.534   2.641 -3.3101  0.3739  1.4893
  972SOL    HW2 2916   0.062   2.566   2.665  0.5179 -2.3459  0.6379
  973SOL     OW 2917   0.801   0.162   0.198 -0.3793 -0.2385  0.3826
  973SOL    HW1 2918   0.809   0.167   0.096 -1.6661  1.0174  0.3699
  973SOL    HW2 2919   0.782   0.252   0.239 -0.2486  0.5890 -1.7890
  974SOL     OW 2920   2.277   1.190   1.722 -0.2418  1.1386  0.2092
  974SOL    HW1 2921   2.370   1.231   1.732 -0.9234 -2.8584  0.5628
  974SOL    HW2 2922   2.281   1.117   1.650 -1.4858  3.0938  0.7139
  975SOL     OW 2923   0.780   2.744   1.297  0.4388  0.1990  0.1783
  975SOL    HW1 2924   0.685   2.783   1.293  2.3504  0.8742  2.6256
  975SOL    HW2 2925   0.850   2.815   1.298 -1.1520 -1.1548 -1.2017
  976SOL     OW 2926   0.869   1.571   0.976 -0.6537  0.3747  0.9181
  976SOL    HW1 2927   0.801   1.643   0.990 -1.6720 -3.4610 -0.5747
  976SOL    HW2 2928   0.903   1.575   0.880 -0.5188  3.2731 -0.1152
  977SOL     OW 2929   1.392   1.747   0.482 -0.1270 -0.0569  0.0854
  977SOL    HW1 2930   1.392   1.797   0.571  0.7946 -1.5000  0.8701
  977SOL    HW2 2931   1.297   1.731   0.454  1.1378 -0.2801  0.9046
  978SOL     OW 2932   0.388   0.342   3.052 -0.1778  0.2135  0.4178
  978SOL    HW1 2933   0.425   0.328   3.146  4.4437 -1.4118  0.7046
  978SOL    HW2 2934   0.462   0.344   2.988 -0.2082  1.5755  0.8690
  979SOL     OW 2935   1.762   1.642   0.117  0.1359 -0.5784 -0.0516
  979SOL    HW1 2936   1.826   1.586   0.055 -2.1607  0.2452  0.1755
  979SOL    HW2 2937   1.751   1.601   0.209  4.1582 -2.1478  0.7646
  980SOL     OW 2938   0.832   1.645   2.231 -0.3212 -0.2383  0.2732
  980SOL    HW1 2939   0.796   1.628   2.325  0.1284  1.0340 -1.0099
  980SOL    HW2 2940   0.934   1.646   2.231  0.7757 -1.8671  2.4346
  981SOL     OW 2941   2.101   2.030   2.027 -0.3917 -0.1957 -0.1530
  981SOL    HW1 2942   2.143   1.997   2.112  0.5659  0.5630  1.3154
  981SOL    HW2 2943   2.165   2.011   1.953 -1.6372  0.4521 -0.1104
  982SOL     OW 2944   0.256   2.205   1.221 -0.5815 -0.0279  0.0490
  982SOL    HW1 2945   0.312   2.275   1.172  1.1586 -3.3490 -2.8804
  982SOL    HW2 2946   0.273   2.217   1.324  0.1917  0.4926  0.6945
  983SOL     OW 2947   0.898   2.509   2.025  0.1090 -0.0345  0.4051
  983SOL    HW1 2948   0.887   2.599   2.076  0.1199  0.0160  1.8070
  983SOL    HW2 2949   0.841   2.437   2.074 -2.4162 -1.9789  3.7783
  984SOL     OW 2950   0.159   0.187   3.006  0.3008  0.2021  0.4796
  984SOL    HW1 2951   0.238   0.253   3.023 -0.8443 -0.9979 -0.6372
  984SOL    HW2 2952   0.079   0.233   2.963 -2.2465 -1.2235 -0.6374
  985SOL     OW 2953   1.281   1.153   2.291 -0.5132 -0.3274 -0.0843
  985SOL    HW1 2954   1.339   1.181   2.212 -0.2324 -1.6837  3.6441
  985SOL    HW2 2955   1.316   1.070   2.337  3.9600  0.8942  1.7028
  986SOL     OW 2956   2.390   0.369   0.179 -0.4113 -0.3608 -0.7850
  986SOL    HW1 2957   2.470   0.347   0.122 -2.1405  1.4097  0.4859
  986SOL    HW2 2958   2.321   0.415   0.122 -1.7116 -2.3844 -1.1583
  987SOL     OW 2959   0.365   2.383   2.439 -0.6956 -0.2162 -0.1747
  987SOL    HW1 2960   0.267   2.341   2.424  1.9416 -2.0646  2.4060
  987SOL    HW2 2961   0.361   2.452   2.510 -0.6542  0.6606 -2.3632
  988SOL     OW 2962   2.530   0.211   1.484 -0.0297 -0.0349  0.0025
  988SOL    HW1 2963   2.470   0.133   1.467 -0.0363 -0.8453 -4.2259
  988SOL    HW2 2964   2.613   0.186   1.539 -2.9066 -1.4406 -0.7462
  989SOL     OW 2965   1.922   2.814   0.549 -0.0186  0.0353  0.1348
  989SOL    HW1 2966   1.892   2.901   0.592  1.5057 -1.0351  2.0106
  989SOL    HW2 2967   2.002   2.833   0.486  0.9058  1.4682 -0.2487
  990SOL     OW 2968   0.088   1.148   0.232  0.4539  0.3003 -0.0888
  990SOL    HW1 2969   0.173   1.133   0.279 -0.1115  1.2812 -1.6166
  990SOL    HW2 2970   0.098   1.181   0.135  3.1603  1.5008 -2.7325
  991SOL     OW 2971   0.824   1.307   0.599  0.4630  0.1226 -0.0524
  991SOL    HW1 2972   0.808   1.397   0.555  1.5767  0.2666  0.7378
  991SOL    HW2 2973   0.792   1.305   0.695  2.4840 -1.8108  1.6007
  992SOL     OW 2974   1.778   1.724   1.014 -0.6787 -0.7768  0.4641
  992SOL    HW1 2975   1.761   1.636   1.062  1.5233 -0.7957 -0.1021
  992SOL    HW2 2976   1.828   1.707   0.923 -2.6899 -0.7628  1.4507
  993SOL     OW 2977   2.905   2.493   1.115 -0.1973  0.0206 -0.5973
  993SOL    HW1 2978   2.841   2.534   1.049  0.5384  0.4918  2.7080
  993SOL    HW2 2979   2.956   2.566   1.170 -0.9480 -0.9304  0.3508
  994SOL     OW 2980   2.958   1.743   1.160  0.4999  0.3873  0.1631
  994SOL    HW1 2981   3.022   1.751   1.081 -0.0612  0.0482  1.3599
  994SOL    HW2 2982   3.005   1.774   1.244 -2.2118  1.9038 -3.2713
  995SOL     OW 2983   1.847   1.597   2.642  0.0480 -0.0247 -0.1252
  995SOL    HW1 2984   1.822   1.603   2.741  2.0307  1.8020  1.3508
  995SOL    HW2 2985   1.799   1.518   2.594 -0.2204 -1.5223  3.2293
  996SOL     OW 2986   1.861   2.416   0.807 -0.6568  0.3441 -0.3514
  996SOL    HW1 2987   1.789   2.477   0.763 -0.6885 -2.9341 -1.6129
  996SOL    HW2 2988   1.835   2.322   0.816  0.0902 -1.9109  1.6731
  997SOL     OW 2989   1.261   1.868   1.913 -0.1593 -0.3762  0.0127
  997SOL    HW1 2990   1.185   1.904   1.969  1.2394 -2.9609 -0.0713
  997SOL    HW2 2991   1.343   1.907   1.946 -1.7366 -0.2734 -0.0230
  998SOL     OW 2992   0.146   2.556   0.056 -0.0216 -0.6310 -0.3421
  998SOL    HW1 2993   0.154   2.610  -0.032 -2.0410  2.0847 -3.6490
  998SOL    HW2 2994   0.152   2.618   0.137 -0.1355 -2.1617  1.3127
  999SOL     OW 2995   0.792   2.765   3.041 -0.3525 -0.1557  0.2912
  999SOL    HW1 2996   0.856   2.772   3.126  0.9298  0.1530 -1.9981
  999SOL    HW2 2997   0.691   2.755   3.068  2.2303  0.5349  0.8797
 1000SOL     OW 2998   1.583   0.657   2.625  0.5799 -0.1495  0.1163
 1000SOL    HW1 2999   1.489   0.698   2.642 -2.1454  1.1758 -0.6204
 1000SOL    HW2 3000   1.641   0.725   2.580  3.1745  1.6941 -3.3116
   3.09554   3.09554   3.09554
