1000 SPC/Fw water molecules
 3000
    1SOL     OW    1   0.427   2.441   0.876  0.1838 -0.0312 -0.0587
    1SOL    HW1    2   0.326   2.418   0.891 -1.4564 -2.1384 -0.4334
    1SOL    HW2    3   0.465   2.516   0.935  0.9530 -0.5568 -0.2414
    2SOL     OW    4   2.380   0.627   0.956 -0.2432 -0.3896 -0.4715
    2SOL    HW1    5   2.323   0.573   0.887 -3.8948  0.3379  0.1294
    2SOL    HW2    6   2.331   0.714   0.989 -2.1256 -1.4516  0.2413
    3SOL     OW    7   0.068   0.391   1.518  0.7321 -0.0970  0.3441
    3SOL    HW1    8  -0.036   0.409   1.517  0.7714 -2.1955 -0.1164
    3SOL    HW2    9   0.091   0.307   1.459  1.5930 -0.6319  1.0283
    4SOL     OW   10   1.887   1.790   2.823 -0.2267  0.0956  0.4227
    4SOL    HW1   11   1.952   1.710   2.833  0.0951  4.8927  1.9137
    4SOL    HW2   12   1.913   1.869   2.884  1.4668 -2.8864 -0.2621
    5SOL     OW   13   0.923   1.170   2.230 -0.4670  0.5069  0.2216
    5SOL    HW1   14   0.834   1.216   2.240 -0.0609  1.5488  0.6500
    5SOL    HW2   15   0.956   1.199   2.136 -1.8188 -0.8777  1.5789
    6SOL     OW   16   1.632   3.021   0.113 -0.1371 -0.3824 -0.6663
    6SOL    HW1   17   1.656   2.971   0.026  0.3967  1.7878  0.5222
    6SOL    HW2   18   1.683   3.112   0.116  1.7080  3.4573  4.4425
    7SOL     OW   19   2.633   0.929   1.292  0.0038  0.3014 -0.1188
    7SOL    HW1   20   2.539   0.886   1.285 -1.3164  1.8893  1.5510
    7SOL    HW2   21   2.644   0.983   1.380  1.5533  1.0966  1.6410
    8SOL     OW   22   3.086   2.688   1.813  0.3921 -0.0553 -0.5719
    8SOL    HW1   23   3.043   2.729   1.726 -1.2594 -2.2271 -0.4047
    8SOL    HW2   24   3.140   2.759   1.865 -0.8180  1.7462  0.8175
    9SOL     OW   25   0.496   2.055   0.877 -0.3158 -0.2339 -0.1502
    9SOL    HW1   26   0.570   2.070   0.946 -1.0835  1.0377 -1.8322
    9SOL    HW2   27   0.484   2.146   0.828  0.6697  1.0843 -0.3768
   10SOL     OW   28   0.491   2.150   2.084 -1.2609 -0.4590 -0.3908
   10SOL    HW1   29   0.434   2.098   2.152  0.2018 -0.5638 -0.7598
   10SOL    HW2   30   0.471   2.127   1.983 -1.2694  2.8421 -0.5302
   11SOL     OW   31   0.040   2.142   0.806  0.0321 -0.5257  0.1695
   11SOL    HW1   32   0.077   2.083   0.877 -0.2582 -0.3480 -0.2272
   11SOL    HW2   33  -0.049   2.110   0.768  1.7444 -2.5118  0.6429
   12SOL     OW   34   1.874   2.925   0.510  0.7632 -0.0493 -0.0665
   12SOL    HW1   35   1.918   3.009   0.465 -2.0377 -0.8842 -0.1842
   12SOL    HW2   36   1.774   2.945   0.520  0.2038  3.3786 -0.2085
   13SOL     OW   37   2.787   0.076   2.006  0.7483  0.4862 -0.5327
   13SOL    HW1   38   2.790   0.173   1.986 -3.0132 -0.3128 -2.7382
   13SOL    HW2   39   2.698   0.048   2.045  0.1654 -2.2271  1.6381
   14SOL     OW   40   1.648   0.352   1.150  0.0090  0.5946  0.7751
   14SOL    HW1   41   1.624   0.453   1.148  0.6587 -1.5243  0.4354
   14SOL    HW2   42   1.654   0.316   1.248  1.6699 -1.5727  0.7939
   15SOL     OW   43   2.276   1.689   0.374 -0.2949  0.1510 -0.1298
   15SOL    HW1   44   2.364   1.734   0.351 -2.4671  1.2957  1.5350
   15SOL    HW2   45   2.199   1.732   0.322 -0.8122 -0.0563  0.3034
   16SOL     OW   46   0.071   2.898   1.960 -0.7250  0.4610  0.3237
   16SOL    HW1   47   0.013   2.961   2.017 -1.1938  2.4807  0.1633
   16SOL    HW2   48   0.108   2.951   1.881  0.2725 -0.3535  0.5953
   17SOL     OW   49   0.570   2.900   1.758 -0.1342 -0.5439 -0.2213
   17SOL    HW1   50   0.660   2.947   1.763  2.7683 -0.8330  0.1386
   17SOL    HW2   51   0.504   2.953   1.702 -0.3058  0.4732  0.0134
   18SOL     OW   52   0.572   0.836   0.538  0.4424  0.0571 -0.5761
   18SOL    HW1   53   0.510   0.817   0.618 -0.5529 -3.0670 -1.8855
   18SOL    HW2   54   0.641   0.909   0.551 -0.2800  2.4891 -0.6716
   19SOL     OW   55   2.644   1.256   1.748  0.4788  0.2593 -0.1172
   19SOL    HW1   56   2.607   1.351   1.745  0.0842  1.8556 -1.3047
   19SOL    HW2   57   2.747   1.255   1.741 -2.2057  0.3295 -1.8994
   20SOL     OW   58   1.657   2.573   0.193 -0.2241 -0.5047  0.3217
   20SOL    HW1   59   1.686   2.497   0.128 -0.9582 -2.0095 -0.0877
   20SOL    HW2   60   1.555   2.594   0.191  3.4789 -0.4677 -1.3115
   21SOL     OW   61   0.698   1.648   0.970 -0.5656 -0.2685 -0.2262
   21SOL    HW1   62   0.764   1.720   0.938  0.6116  1.0166  0.5444
   21SOL    HW2   63   0.747   1.581   1.034 -1.2916 -1.2831 -1.2352
   22SOL     OW   64   2.276   0.873   1.022 -0.1471  0.0943 -0.0735
   22SOL    HW1   65   2.282   0.941   0.944  0.8893 -1.4527 -0.5047
   22SOL    HW2   66   2.183   0.867   1.055 -1.5274 -0.8670 -1.6815
   23SOL     OW   67   2.095   1.335   0.731  0.2972 -0.1914  0.4344
   23SOL    HW1   68   2.059   1.248   0.698  2.6885 -0.7036  2.6226
   23SOL    HW2   69   2.020   1.377   0.784  0.9239 -0.7158 -0.6718
   24SOL     OW   70   2.307   1.088   1.596 -0.3005  0.2223 -0.0106
   24SOL    HW1   71   2.247   1.023   1.548  0.6660 -0.3300  1.4957
   24SOL    HW2   72   2.256   1.178   1.597  2.8398  0.8053  0.1744
   25SOL     OW   73   1.250   0.709   2.546 -0.2317  0.1571  0.0712
   25SOL    HW1   74   1.167   0.667   2.507  1.0687  0.9536 -2.4396
   25SOL    HW2   75   1.305   0.746   2.466  0.0261 -0.3686  1.7889
   26SOL     OW   76   0.631   2.870   0.684 -0.1348 -0.4178  0.3938
   26SOL    HW1   77   0.604   2.918   0.602 -0.7506 -1.6642 -0.5029
   26SOL    HW2   78   0.640   2.769   0.681  1.8573 -2.3929  1.3134
   27SOL     OW   79   0.796   1.441   1.142  0.1049 -0.5920  0.5978
   27SOL    HW1   80   0.783   1.371   1.065  2.3310  1.3120 -0.2641
   27SOL    HW2   81   0.722   1.428   1.215 -0.9079 -1.2630 -2.5144
   28SOL     OW   82   2.130   2.551   1.509  0.1466  0.2358 -0.2509
   28SOL    HW1   83   2.137   2.546   1.407  0.1528 -0.5433  1.6365
   28SOL    HW2   84   2.202   2.614   1.552  0.8800 -1.9068  1.6319
   29SOL     OW   85   2.739   2.608   0.008  0.4020  0.3807 -0.0684
   29SOL    HW1   86   2.716   2.690  -0.056 -2.7335 -0.0346 -1.3645
   29SOL    HW2   87   2.804   2.641   0.081 -2.0173 -0.3229 -1.3652
   30SOL     OW   88   2.744   0.033   1.389 -0.4707  0.1123  0.0420
   30SOL    HW1   89   2.670   0.054   1.456  1.5343  0.4604  0.6694
   30SOL    HW2   90   2.781   0.120   1.358 -1.0468 -0.6937 -1.9718
   31SOL     OW   91   2.572   1.078   2.493 -0.0027 -0.2856 -0.5016
   31SOL    HW1   92   2.527   1.158   2.445  2.3419 -0.6463  0.1546
   31SOL    HW2   93   2.517   1.048   2.575 -0.7167  0.5125 -1.0138
   32SOL     OW   94   0.908   2.902   1.951 -0.2072 -0.5669  0.2024
   32SOL    HW1   95   0.967   2.951   2.025  0.5459  2.1896  0.0367
   32SOL    HW2   96   0.873   2.977   1.888 -0.6095 -1.3183 -2.5505
   33SOL     OW   97   0.435   3.026   0.024 -0.6052  0.0473 -0.1326
   33SOL    HW1   98   0.472   3.119  -0.014  1.8424 -5.2228 -2.1795
   33SOL    HW2   99   0.356   2.989  -0.029  1.0356 -0.2829  0.6962
   34SOL     OW  100   2.633   2.505   0.544 -0.2009  0.3837  0.2410
   34SOL    HW1  101   2.610   2.579   0.609  0.2571  0.9704  0.0618
   34SOL    HW2  102   2.603   2.417   0.586  1.3345  1.1210  0.4963
   35SOL     OW  103   2.388   0.401   2.078 -0.1268  0.1402  0.4576
   35SOL    HW1  104   2.409   0.357   2.164  0.4854 -1.7648  2.6420
   35SOL    HW2  105   2.467   0.456   2.035  1.6123  0.4235 -0.5241
   36SOL     OW  106   2.368   0.136   2.683 -0.1283 -0.6002  0.2068
   36SOL    HW1  107   2.445   0.179   2.745 -1.0547 -0.6217  0.3657
   36SOL    HW2  108   2.280   0.134   2.733 -0.7514  0.2990  1.9619
   37SOL     OW  109   2.422   1.598   0.054  0.5365  0.1217 -0.2426
   37SOL    HW1  110   2.525   1.604   0.038 -1.4173  2.2642 -0.7226
   37SOL    HW2  111   2.391   1.655   0.131  0.8469 -1.9678 -0.2788
   38SOL     OW  112   0.793   0.064   0.062  0.2470 -0.2883  0.0785
   38SOL    HW1  113   0.721   0.061  -0.008 -0.1375  1.9058 -0.7398
   38SOL    HW2  114   0.761   0.024   0.151  0.3014  0.8158 -0.3597
   39SOL     OW  115   1.128   1.768   2.032 -0.6974 -0.1252 -0.0873
   39SOL    HW1  116   1.075   1.695   2.076  0.8475 -3.0800 -1.7805
   39SOL    HW2  117   1.186   1.722   1.955 -2.6624  0.2623 -0.2331
   40SOL     OW  118   2.664   1.119   0.221 -0.7576  0.1679 -0.1154
   40SOL    HW1  119   2.763   1.102   0.209  3.5099 -0.5681 -0.7933
   40SOL    HW2  120   2.617   1.033   0.212  0.8408 -0.3150  0.2223
   41SOL     OW  121   1.912   0.088   2.546 -0.7290 -0.7422  0.3953
   41SOL    HW1  122   1.867   0.000   2.538  0.3159  1.8417  4.3594
   41SOL    HW2  123   1.998   0.089   2.489  0.1154 -0.4093 -0.4489
   42SOL     OW  124   2.236   2.624   0.419 -0.6044 -0.4971 -0.5884
   42SOL    HW1  125   2.256   2.534   0.462  0.0485  1.7961 -0.7138
   42SOL    HW2  126   2.180   2.603   0.335 -0.9461  2.7770 -0.7601
   43SOL     OW  127   0.683   2.595   0.689  0.4332  0.0448  0.3615
   43SOL    HW1  128   0.699   2.528   0.615 -0.5619  2.3149  1.9629
   43SOL    HW2  129   0.615   2.563   0.757 -1.2751  0.1106 -0.6131
   44SOL     OW  130   1.214   1.639   0.271  0.3905  0.0988 -0.2980
   44SOL    HW1  131   1.235   1.648   0.173 -0.2668 -1.5393  0.0780
   44SOL    HW2  132   1.299   1.600   0.316 -1.9387  2.6445  3.1117
   45SOL     OW  133   0.267   0.897   2.207  0.0560  0.2222 -0.5378
   45SOL    HW1  134   0.183   0.842   2.200 -0.4824  0.5971  1.9299
   45SOL    HW2  135   0.247   0.994   2.175 -0.1503 -0.6303  0.0608
   46SOL     OW  136   1.506   2.543   1.827 -0.0577  0.0830  0.3758
   46SOL    HW1  137   1.465   2.490   1.904 -1.0792  0.1958  0.6437
   46SOL    HW2  138   1.444   2.544   1.743  1.4799  2.7336 -0.9583
   47SOL     OW  139   0.257   1.806   2.058 -0.0855 -0.5649  0.3998
   47SOL    HW1  140   0.216   1.804   1.963  2.6681 -0.4158 -1.8143
   47SOL    HW2  141   0.358   1.783   2.061  3.8986  2.0031  0.3546
   48SOL     OW  142   1.413   0.127   2.009  0.0201  0.0859  0.2253
   48SOL    HW1  143   1.420   0.171   2.102  0.4542  0.4800  2.2186
   48SOL    HW2  144   1.496   0.156   1.957  1.0769  1.8751  0.5984
   49SOL     OW  145   2.591   1.057   1.918 -0.0238  0.1831  0.3985
   49SOL    HW1  146   2.605   1.131   1.850  1.3000  2.2223  2.3168
   49SOL    HW2  147   2.677   1.009   1.933  1.2081  2.5250 -0.2039
   50SOL     OW  148   1.075   2.715   2.229 -0.0204  0.3405  0.5768
   50SOL    HW1  149   1.154   2.752   2.178 -0.6523  1.3489  0.3235
   50SOL    HW2  150   1.020   2.785   2.281  0.5059 -0.8870  0.8650
   51SOL     OW  151   1.572   0.970   1.434 -0.3649  0.1719 -0.4593
   51SOL    HW1  152   1.606   0.912   1.514  1.0338 -0.2352  0.3076
   51SOL    HW2  153   1.512   0.909   1.382  2.5155  1.1709 -1.4039
   52SOL     OW  154   2.692   3.094   0.530 -0.3514 -0.7412 -0.3711
   52SOL    HW1  155   2.634   3.049   0.601 -1.4972  2.8570  2.5970
   52SOL    HW2  156   2.682   3.041   0.443 -0.8949  0.9915  3.5252
   53SOL     OW  157   0.701   2.947   2.799  0.2872  0.1872 -0.8450
   53SOL    HW1  158   0.700   2.919   2.699 -0.6610 -0.4669  0.7876
   53SOL    HW2  159   0.688   3.047   2.809  1.3980  0.4513 -1.0855
   54SOL     OW  160   2.146   0.268   1.978 -0.2093  0.4762 -0.5578
   54SOL    HW1  161   2.236   0.315   1.993  0.2921 -0.4138 -0.2109
   54SOL    HW2  162   2.156   0.167   1.965  1.3859  1.6418 -0.0452
   55SOL     OW  163   2.434   2.569   1.196  0.3891 -0.3244 -0.2018
   55SOL    HW1  164   2.476   2.625   1.270  1.4206 -1.1702 -0.4214
   55SOL    HW2  165   2.436   2.470   1.231  1.9574 -0.0891 -3.4137
   56SOL     OW  166   0.865   0.800   1.613 -0.0462  0.4949 -0.8536
   56SOL    HW1  167   0.940   0.770   1.548 -0.1842 -1.0685 -2.3179
   56SOL    HW2  168   0.910   0.841   1.696  0.1516 -1.5070  2.3397
   57SOL     OW  169   2.275   2.546   2.665  0.1713  0.3776 -0.0290
   57SOL    HW1  170   2.176   2.556   2.689  0.6393  1.0779 -0.4089
   57SOL    HW2  171   2.294   2.604   2.580  3.1724 -1.4026 -0.0932
   58SOL     OW  172   2.565   1.086   1.527 -0.0458  0.4834  0.0967
   58SOL    HW1  173   2.624   1.127   1.601  0.2398  3.6027 -1.0575
   58SOL    HW2  174   2.464   1.090   1.562 -2.2550  1.5708 -1.2949
   59SOL     OW  175   2.925   1.256   1.732  0.2243 -0.5404 -0.0385
   59SOL    HW1  176   2.930   1.175   1.666  0.3749  1.9924 -1.9996
   59SOL    HW2  177   2.967   1.335   1.687 -1.6780  3.1100  0.5974
   60SOL     OW  178   1.181   1.851   0.454  0.3709  0.1338 -0.0965
   60SOL    HW1  179   1.168   1.765   0.399 -0.6552  2.0031 -1.7887
   60SOL    HW2  180   1.282   1.865   0.480 -0.7106 -0.1282 -3.8032
   61SOL     OW  181   1.271   0.339   3.011  0.1411  0.5886  0.1454
   61SOL    HW1  182   1.323   0.256   3.042  2.1044  1.9199  0.7716
   61SOL    HW2  183   1.295   0.355   2.910 -0.5931 -5.2228 -0.0942
   62SOL     OW  184   0.678   2.501   3.045 -0.3060  0.0736 -0.2043
   62SOL    HW1  185   0.759   2.545   3.090 -1.6094  1.4623 -1.0419
   62SOL    HW2  186   0.631   2.563   2.982  1.6270  2.7121 -1.3652
   63SOL     OW  187   2.392   0.564   0.606 -0.5030 -0.2630 -1.1325
   63SOL    HW1  188   2.328   0.505   0.662  0.2654 -1.3908  0.0112
   63SOL    HW2  189   2.434   0.633   0.664  0.7247 -1.3912  0.5283
   64SOL     OW  190   1.842   2.327   2.027  0.1392 -0.1066  0.6152
   64SOL    HW1  191   1.848   2.242   1.972  0.1591  0.1919 -0.7960
   64SOL    HW2  192   1.792   2.311   2.115 -1.2973 -1.8375  2.8974
   65SOL     OW  193   0.799   0.690   1.989  0.0797 -0.5054  0.4025
   65SOL    HW1  194   0.694   0.700   1.985  0.6858  1.3103 -1.0524
   65SOL    HW2  195   0.838   0.618   1.922  0.8617  0.9302  0.1077
   66SOL     OW  196   0.661   1.417   1.374  0.3603  0.4910  0.0913
   66SOL    HW1  197   0.584   1.349   1.387  0.7984 -1.3026  0.0290
   66SOL    HW2  198   0.668   1.498   1.434 -0.8315  0.4133  0.7092
   67SOL     OW  199   0.863   2.285   1.180 -0.6474  0.4053  0.4216
   67SOL    HW1  200   0.936   2.356   1.157 -0.6313 -0.3204  2.0174
   67SOL    HW2  201   0.866   2.264   1.282 -0.6927 -0.6552  2.0801
   68SOL     OW  202   1.652   3.042   1.183  0.1152  0.3743 -0.0282
   68SOL    HW1  203   1.563   3.086   1.167  0.5605  1.6539  0.1628
   68SOL    HW2  204   1.726   3.107   1.154  2.8914  0.6257  0.1074
   69SOL     OW  205   2.682   2.836   2.953 -0.3796 -0.0471 -0.1346
   69SOL    HW1  206   2.771   2.882   2.940 -0.5129  1.0883  2.4733
   69SOL    HW2  207   2.606   2.902   2.949  1.3923  1.0816  2.1500
   70SOL     OW  208   2.867   1.995   2.220 -0.4370 -0.0784  0.3206
   70SOL    HW1  209   2.820   1.916   2.174  1.4862 -3.2165  0.5280
   70SOL    HW2  210   2.931   1.957   2.292 -2.1802 -0.4405 -0.3111
   71SOL     OW  211   0.747   1.297   0.579  0.1409  0.1372  0.1867
   71SOL    HW1  212   0.686   1.308   0.498 -0.0573  1.0030 -0.8522
   71SOL    HW2  213   0.701   1.339   0.661  1.7232  3.7745  2.6274
   72SOL     OW  214   1.753   2.038   0.876 -0.2708  0.5465  0.1691
   72SOL    HW1  215   1.784   1.960   0.937  0.4381  0.2691  0.8516
   72SOL    HW2  216   1.821   2.105   0.846 -1.0140  0.4757 -1.8465
   73SOL     OW  217   1.928   0.496   0.242  0.0858 -0.0398 -0.3687
   73SOL    HW1  218   1.901   0.508   0.337  0.4971 -0.3624  0.4748
   73SOL    HW2  219   1.850   0.524   0.182 -0.6108  0.4110 -1.7524
   74SOL     OW  220   0.098   2.623   2.509  0.0963 -0.1866  0.1546
   74SOL    HW1  221   0.177   2.666   2.465 -0.8070  0.3609 -0.7422
   74SOL    HW2  222   0.054   2.681   2.580 -1.9418 -0.7724  1.2481
   75SOL     OW  223   1.742   2.092   1.675  0.1810 -0.7238  0.4216
   75SOL    HW1  224   1.656   2.043   1.704 -2.1498 -1.2548 -0.2660
   75SOL    HW2  225   1.719   2.193   1.681 -1.8526 -2.7062  0.9419
   76SOL     OW  226   1.026   1.538   1.240 -0.1822 -0.1847  0.4257
   76SOL    HW1  227   1.016   1.637   1.225 -1.5151 -0.1195  0.0924
   76SOL    HW2  228   0.941   1.495   1.204  0.6729 -0.5663  0.6760
   77SOL     OW  229   2.170   0.891   1.479  0.1566  1.0342 -0.1626
   77SOL    HW1  230   2.100   0.901   1.553 -0.9754 -2.0783  0.3127
   77SOL    HW2  231   2.128   0.883   1.386 -1.9413 -1.1187  1.3537
   78SOL     OW  232   1.494   1.100   0.281  1.1756 -0.0192  0.4178
   78SOL    HW1  233   1.578   1.156   0.281  2.1197  0.7441  0.6330
   78SOL    HW2  234   1.482   1.042   0.199  0.8481 -1.1775 -2.0987
   79SOL     OW  235   1.525   1.384   1.564  1.0567 -0.0732 -0.1305
   79SOL    HW1  236   1.510   1.351   1.659 -0.9279 -4.0284 -1.5336
   79SOL    HW2  237   1.480   1.311   1.502 -1.6725 -1.7875 -1.7183
   80SOL     OW  238   0.660   0.211   1.138 -0.3136  0.4792 -0.3438
   80SOL    HW1  239   0.675   0.311   1.134 -1.4560  3.7332  0.4673
   80SOL    HW2  240   0.690   0.176   1.229 -2.1449  1.8270 -1.1347
   81SOL     OW  241   1.179   1.859   2.788  0.1944  0.7775 -0.1281
   81SOL    HW1  242   1.182   1.909   2.877 -0.7946  0.7996 -1.6612
   81SOL    HW2  243   1.110   1.788   2.798  0.1860 -2.1150 -1.4007
   82SOL     OW  244   1.658   0.476   1.576 -0.2195  0.3917  0.2482
   82SOL    HW1  245   1.696   0.480   1.671  0.2057 -2.0645 -1.8218
   82SOL    HW2  246   1.712   0.407   1.522 -3.4145  0.9279 -2.1212
   83SOL     OW  247   0.173   3.015   1.251  0.1917 -0.0896  0.4190
   83SOL    HW1  248   0.085   2.992   1.203 -0.4309 -1.6663  0.7885
   83SOL    HW2  249   0.252   3.029   1.184 -1.9763 -0.8344 -4.5664
   84SOL     OW  250   2.188   1.227   0.401 -0.1627  0.0159  0.3725
   84SOL    HW1  251   2.087   1.249   0.388  1.9907 -1.1566  1.3391
   84SOL    HW2  252   2.240   1.308   0.372 -0.3004  1.5328  1.7381
   85SOL     OW  253   2.042   1.547   1.129 -0.3839  0.0381  0.0800
   85SOL    HW1  254   1.988   1.572   1.215 -0.7500 -2.4255 -1.6532
   85SOL    HW2  255   2.082   1.448   1.133  1.9250 -1.2363 -2.3834
   86SOL     OW  256   1.636   2.217   2.194  0.0344  0.4409  0.6069
   86SOL    HW1  257   1.594   2.180   2.108 -1.8075 -2.3429 -0.0773
   86SOL    HW2  258   1.580   2.282   2.247  0.8514  1.3709  1.0408
   87SOL     OW  259   2.085   0.840   1.213  0.2253  0.0060 -0.0051
   87SOL    HW1  260   2.034   0.750   1.214  1.1100 -0.1808  0.9465
   87SOL    HW2  261   2.024   0.920   1.216  1.2127  0.4679 -0.1162
   88SOL     OW  262   2.831   0.288   1.272 -0.3596  0.4413  0.1718
   88SOL    HW1  263   2.833   0.228   1.192 -0.0660  1.4065 -2.7166
   88SOL    HW2  264   2.786   0.376   1.250  1.2775 -0.3443  1.5467
   89SOL     OW  265   0.239   1.143   2.113 -0.4129  0.0480 -0.5235
   89SOL    HW1  266   0.142   1.159   2.129 -0.4666  0.4950 -0.8665
   89SOL    HW2  267   0.287   1.229   2.120 -0.0846  0.6542 -1.3673
   90SOL     OW  268   0.180   2.362   0.910 -0.2957  0.7116  0.0220
   90SOL    HW1  269   0.207   2.329   1.001  1.0509 -1.2657  0.0483
   90SOL    HW2  270   0.105   2.302   0.872  0.1962  0.6904  1.4728
   91SOL     OW  271   0.999   1.844   1.151  0.0174  0.4827  0.0189
   91SOL    HW1  272   0.905   1.870   1.177  0.7116  1.8643  2.6965
   91SOL    HW2  273   1.070   1.904   1.193 -0.7271 -1.6137  3.2725
   92SOL     OW  274   0.290   2.714   2.350 -0.0524  0.0633  0.0299
   92SOL    HW1  275   0.392   2.688   2.347  1.7754  1.0510 -1.1560
   92SOL    HW2  276   0.257   2.734   2.253  0.2222  1.7998 -0.8214
   93SOL     OW  277   1.213   1.547   2.422  0.7703 -0.5286  0.0234
   93SOL    HW1  278   1.265   1.616   2.474 -0.8599 -1.1296 -0.5686
   93SOL    HW2  279   1.132   1.512   2.478 -1.8141 -0.8206  0.6655
   94SOL     OW  280   3.088   0.935   2.058 -0.5503  0.2487 -0.0097
   94SOL    HW1  281   3.080   0.854   2.120 -1.4881 -1.3591  0.1793
   94SOL    HW2  282   3.095   1.021   2.116  1.0332 -0.1759  1.8692
   95SOL     OW  283   1.707   2.831   1.601 -0.1903 -0.5667  0.3723
   95SOL    HW1  284   1.639   2.814   1.529  4.4547 -0.1498 -1.4881
   95SOL    HW2  285   1.665   2.818   1.698 -1.5048  0.3978  0.4779
   96SOL     OW  286   0.635   0.656   2.637 -0.0803  0.1485 -0.3999
   96SOL    HW1  287   0.587   0.619   2.555  1.2185 -0.1900 -2.1915
   96SOL    HW2  288   0.727   0.618   2.659  0.0037 -1.6309 -4.3883
   97SOL     OW  289   2.203   0.488   0.774  0.1598  0.1520  0.6602
   97SOL    HW1  290   2.152   0.543   0.704  0.5161 -0.7893 -1.3283
   97SOL    HW2  291   2.151   0.399   0.788  0.4064 -0.9254  1.9334
   98SOL     OW  292   1.559   2.424   2.810  0.0557 -0.0223  0.1380
   98SOL    HW1  293   1.600   2.491   2.751  1.4037 -1.3668 -0.4432
   98SOL    HW2  294   1.546   2.334   2.766  1.5910  0.3646  1.9603
   99SOL     OW  295   2.349   1.412   0.658 -0.3546 -0.2295  0.1491
   99SOL    HW1  296   2.255   1.384   0.664  1.1524  0.6498  1.8009
   99SOL    HW2  297   2.350   1.518   0.669 -0.7084  0.5818 -0.3195
  100SOL     OW  298   1.911   1.535   0.848 -0.0448  0.3753  0.0881
  100SOL    HW1  299   1.907   1.560   0.944  2.7728  1.6543  0.3058
  100SOL    HW2  300   1.822   1.542   0.803  0.1960  0.2934 -0.1307
  101SOL     OW  301   2.009   2.580   2.708  0.0262  0.4503  0.5475
  101SOL    HW1  302   1.922   2.535   2.681 -1.5578  1.4256  2.4432
  101SOL    HW2  303   2.001   2.683   2.696 -1.1358 -1.3047  0.2990
  102SOL     OW  304   2.271   2.956   1.693 -0.1853  0.0616 -0.4095
  102SOL    HW1  305   2.326   2.968   1.610  3.3982  0.9844 -0.5179
  102SOL    HW2  306   2.315   2.895   1.754  1.1270 -1.8819  0.7999
  103SOL     OW  307   0.211   2.933   2.977 -0.1290  0.1247  1.3134
  103SOL    HW1  308   0.260   2.895   2.894 -0.5012 -1.3987  1.1768
  103SOL    HW2  309   0.140   2.865   3.003 -0.5279  0.5484  3.7326
  104SOL     OW  310   2.960   2.993   1.374  0.0110  0.5277 -0.1631
  104SOL    HW1  311   2.875   3.048   1.391 -0.8279 -0.5728 -0.3590
  104SOL    HW2  312   2.979   2.967   1.274 -1.5453 -1.4620  0.4329
  105SOL     OW  313   0.970   1.758   2.930  0.0053  0.6259  0.1802
  105SOL    HW1  314   0.905   1.826   2.972  1.6042 -0.7257 -0.5225
  105SOL    HW2  315   1.019   1.711   3.009 -0.4202 -2.3278 -1.1005
  106SOL     OW  316   0.283   2.612   0.557  0.0564 -0.4501 -0.5936
  106SOL    HW1  317   0.237   2.532   0.610 -2.0751  1.2447  0.0483
  106SOL    HW2  318   0.364   2.584   0.500 -1.2180 -1.2571  2.1235
  107SOL     OW  319   1.464   1.643   1.643 -0.6658  0.6215  0.1990
  107SOL    HW1  320   1.493   1.552   1.607  1.7951 -0.8983  0.4164
  107SOL    HW2  321   1.521   1.723   1.616 -0.9285  0.2106  2.4958
  108SOL     OW  322   2.443   1.547   1.262 -0.1275  0.0426 -0.2525
  108SOL    HW1  323   2.533   1.504   1.230  1.0225 -2.1666 -2.1326
  108SOL    HW2  324   2.386   1.559   1.180 -0.4029 -2.3437 -0.9203
  109SOL     OW  325   1.440   2.035   0.014 -0.0537 -0.0508 -0.0677
  109SOL    HW1  326   1.415   2.133   0.031 -0.4267 -0.8104  1.7083
  109SOL    HW2  327   1.534   2.004   0.035 -1.3850 -0.3263  0.2242
  110SOL     OW  328   0.650   1.802   0.412 -0.0086  0.1773  0.4234
  110SOL    HW1  329   0.555   1.792   0.389  1.5608  3.0234  0.1403
  110SOL    HW2  330   0.675   1.897   0.391 -2.4041  2.5470 -1.4122
  111SOL     OW  331   2.865   1.185   2.699  0.2361  0.4787 -0.2530
  111SOL    HW1  332   2.855   1.194   2.597 -0.9008 -3.7933  1.1638
  111SOL    HW2  333   2.809   1.108   2.738 -4.5512 -1.0309  0.7055
  112SOL     OW  334   1.963   2.781   1.642  0.0814 -0.9094 -0.3619
  112SOL    HW1  335   1.869   2.806   1.606 -2.0344  0.8538 -3.9477
  112SOL    HW2  336   1.993   2.695   1.601  1.6349  4.0020 -1.4129
  113SOL     OW  337   2.992   2.360   2.161  0.7195 -0.2653  0.2269
  113SOL    HW1  338   2.918   2.302   2.202 -3.6637 -1.4239 -0.6642
  113SOL    HW2  339   2.981   2.380   2.062  0.8016  0.7603 -1.1754
  114SOL     OW  340   0.575   2.976   1.350 -0.0812  0.4692  0.2307
  114SOL    HW1  341   0.535   3.008   1.264 -3.2743 -1.1909 -1.4307
  114SOL    HW2  342   0.638   2.904   1.320  2.7340 -1.3587 -2.6002
  115SOL     OW  343   0.579   1.275   0.363 -0.1890 -0.0163  0.4006
  115SOL    HW1  344   0.520   1.330   0.305  3.1195  1.9961  1.5089
  115SOL    HW2  345   0.532   1.184   0.384 -0.6594 -0.2758  0.5644
  116SOL     OW  346   0.251   0.853   2.481 -0.3764  0.2670 -0.0921
  116SOL    HW1  347   0.293   0.856   2.389 -1.2515 -1.4348 -1.5877
  116SOL    HW2  348   0.211   0.942   2.507  2.2853  0.1072 -0.0001
  117SOL     OW  349   2.314   2.801   2.849  0.4559  0.4663 -0.4477
  117SOL    HW1  350   2.357   2.877   2.901  0.5982  0.2194  3.6718
  117SOL    HW2  351   2.371   2.715   2.861  0.0924 -1.1340 -1.7578
  118SOL     OW  352   0.696   2.856   2.550 -0.5353 -0.2325 -0.0403
  118SOL    HW1  353   0.635   2.845   2.472  0.7559  0.0806  3.4064
  118SOL    HW2  354   0.753   2.771   2.564  1.9220 -1.3951 -1.5559
  119SOL     OW  355   1.226   1.400   1.863  0.0532  0.1794  0.7731
  119SOL    HW1  356   1.230   1.499   1.845 -0.0588  0.3834  2.0011
  119SOL    HW2  357   1.312   1.354   1.846 -3.6970 -1.7558  0.5984
  120SOL     OW  358   0.121   0.609   2.569 -0.2533 -0.9061 -0.0686
  120SOL    HW1  359   0.016   0.614   2.577  2.5613  0.8608  0.8813
  120SOL    HW2  360   0.159   0.699   2.542  2.2812  0.0213  0.2821
  121SOL     OW  361   1.105   1.249   0.997  0.2057  0.1499 -0.1587
  121SOL    HW1  362   1.085   1.333   0.938  0.5179 -0.8873  2.6539
  121SOL    HW2  363   1.205   1.234   1.010 -0.4369 -0.6554  0.3071
  122SOL     OW  364   0.439   2.653   1.421  0.2954 -0.0152  0.1897
  122SOL    HW1  365   0.535   2.679   1.435  1.2977 -1.3382  0.3359
  122SOL    HW2  366   0.434   2.558   1.377  0.4109 -2.1610 -1.7919
  123SOL     OW  367   2.316   2.579   0.038 -0.5537 -0.3372  0.4838
  123SOL    HW1  368   2.335   2.576  -0.065 -1.8686  0.3978 -4.0642
  123SOL    HW2  369   2.329   2.679   0.076  0.6959  0.0973  0.0184
  124SOL     OW  370   2.253   1.702   2.530 -0.2654 -0.1615 -0.0946
  124SOL    HW1  371   2.150   1.714   2.513 -0.3370 -0.5556  0.0037
  124SOL    HW2  372   2.288   1.616   2.493 -1.1511 -1.0377  1.6042
  125SOL     OW  373   3.092   0.422   1.906  0.9991  0.1842 -0.5230
  125SOL    HW1  374   3.094   0.337   1.849  4.8662  0.9048  0.3398
  125SOL    HW2  375   3.094   0.505   1.851  0.9721 -0.6426  0.1183
  126SOL     OW  376   2.805   2.715   0.418  0.3625  0.0720  0.1505
  126SOL    HW1  377   2.894   2.708   0.472  0.5280  2.4367 -0.5442
  126SOL    HW2  378   2.749   2.632   0.436  1.1780 -2.2994  1.2012
  127SOL     OW  379   2.021   0.058   0.335  0.5053  0.1038  0.4945
  127SOL    HW1  380   2.039   0.135   0.270  1.2735  3.0310  0.4197
  127SOL    HW2  381   2.110   0.032   0.381  0.5230  0.6872  0.4319
  128SOL     OW  382   0.731   0.985   0.094  0.3722 -0.3414 -0.2119
  128SOL    HW1  383   0.742   1.068   0.152  0.0268  0.9719 -1.7832
  128SOL    HW2  384   0.675   0.919   0.143  0.6914  2.8734  0.4022
  129SOL     OW  385   2.858   2.486   0.915 -0.1262 -0.0996 -0.0636
  129SOL    HW1  386   2.858   2.424   0.834  0.0989  0.5577 -2.8208
  129SOL    HW2  387   2.853   2.584   0.887 -2.0785  0.1014 -0.1043
  130SOL     OW  388   0.261   0.651   0.502  0.4671 -0.1245  0.3221
  130SOL    HW1  389   0.297   0.692   0.589 -0.2059 -0.3189 -0.6204
  130SOL    HW2  390   0.199   0.571   0.521  1.6720  0.1606 -1.6058
  131SOL     OW  391   0.240   1.466   2.781 -0.0042 -0.4014  0.5611
  131SOL    HW1  392   0.304   1.400   2.736 -0.2446 -2.0084 -0.7258
  131SOL    HW2  393   0.142   1.448   2.758 -0.0966 -2.6352 -3.7435
  132SOL     OW  394   1.424   1.205   1.394 -0.4094  0.1957  0.5317
  132SOL    HW1  395   1.327   1.180   1.406  2.0622  0.6374  0.2987
  132SOL    HW2  396   1.486   1.126   1.410 -0.2473 -0.4410 -0.2216
  133SOL     OW  397   2.724   1.684   1.072  0.2458 -0.7250 -0.5865
  133SOL    HW1  398   2.717   1.608   1.141  1.5127 -0.2060 -0.8283
  133SOL    HW2  399   2.803   1.751   1.090  0.9443 -0.1135 -1.3750
  134SOL     OW  400   2.495   2.046   1.033  0.0850 -0.1181 -0.5800
  134SOL    HW1  401   2.513   1.987   1.115 -1.1571 -0.1336  0.8774
  134SOL    HW2  402   2.555   2.130   1.032 -0.3119 -0.7863 -1.1579
  135SOL     OW  403   2.657   1.427   0.009 -0.1721  0.3189 -0.5198
  135SOL    HW1  404   2.735   1.368  -0.009 -1.3048  0.1737 -2.9585
  135SOL    HW2  405   2.577   1.388   0.063  0.7023  1.5795 -1.4343
  136SOL     OW  406   0.843   2.203   0.805 -0.0505  0.0728  0.0036
  136SOL    HW1  407   0.786   2.199   0.719 -0.3895 -0.2253 -2.2596
  136SOL    HW2  408   0.785   2.172   0.886 -0.9550 -0.6405 -0.3540
  137SOL     OW  409   1.889   2.745   0.246 -0.0976 -0.7364  0.0238
  137SOL    HW1  410   1.884   2.771   0.343 -1.2157 -2.2147 -0.2729
  137SOL    HW2  411   1.801   2.699   0.220  0.3137 -1.1945  0.6636
  138SOL     OW  412   0.065   2.958   2.579 -0.3659  0.1108 -0.2275
  138SOL    HW1  413   0.167   2.931   2.577  1.4923 -1.5842 -1.5957
  138SOL    HW2  414   0.002   2.894   2.634  1.1072  2.3635 -1.4460
  139SOL     OW  415   2.905   2.965   2.886  0.5901 -0.1647 -0.5644
  139SOL    HW1  416   2.877   3.049   2.836  1.2872  0.2065  0.9230
  139SOL    HW2  417   2.965   2.908   2.830 -0.9959  0.2860  0.6424
  140SOL     OW  418   2.580   1.873   2.900  0.2062  0.2795  0.0881
  140SOL    HW1  419   2.593   1.969   2.869 -0.8824 -0.4664 -0.6066
  140SOL    HW2  420   2.501   1.833   2.849 -0.0016 -0.9777  2.1253
  141SOL     OW  421   1.935   1.419   2.683  0.3941  0.0498  0.2668
  141SOL    HW1  422   1.848   1.448   2.639  1.7071  0.5700 -2.7177
  141SOL    HW2  423   1.925   1.330   2.731  0.5393  0.0252 -1.0803
  142SOL     OW  424   3.037   0.462   2.171  0.0305 -0.4443 -0.0627
  142SOL    HW1  425   3.059   0.466   2.073  0.0857  2.2635  1.3042
  142SOL    HW2  426   3.114   0.420   2.220  2.1702 -2.2317 -1.6403
  143SOL     OW  427   1.436   1.513   0.413 -0.1731 -0.0349 -0.4447
  143SOL    HW1  428   1.361   1.503   0.481 -0.1094  1.0709  2.2888
  143SOL    HW2  429   1.522   1.547   0.453 -3.4508 -1.9209 -1.5777
  144SOL     OW  430   1.024   2.409   0.775  0.0359 -0.3673 -0.5869
  144SOL    HW1  431   1.100   2.361   0.724  2.1263  2.2055  1.0304
  144SOL    HW2  432   0.937   2.350   0.786  0.1703  1.7561  0.4409
  145SOL     OW  433   1.773   2.711   2.016 -0.2885 -0.3112  0.4692
  145SOL    HW1  434   1.864   2.718   1.973  2.0719 -0.1241 -0.9899
  145SOL    HW2  435   1.704   2.748   1.952  0.3623 -0.3787  0.5421
  146SOL     OW  436   2.860   1.863   2.622 -0.2060 -0.5886 -0.5381
  146SOL    HW1  437   2.925   1.811   2.685 -1.8197  0.1311 -2.3179
  146SOL    HW2  438   2.852   1.960   2.662  1.1348 -0.4667  2.9374
  147SOL     OW  439   2.212   2.365   1.739  0.2089 -0.6407  0.4205
  147SOL    HW1  440   2.178   2.389   1.646  1.8870  1.1228 -0.6424
  147SOL    HW2  441   2.318   2.376   1.741  2.5302 -1.0534  1.7501
  148SOL     OW  442   1.364   2.594   0.148 -0.1383 -0.0069 -0.0333
  148SOL    HW1  443   1.276   2.633   0.189 -2.3259 -0.0662 -1.7618
  148SOL    HW2  444   1.358   2.562   0.050 -1.0838  1.1722 -0.7422
  149SOL     OW  445   1.645   2.222   0.502  0.2800 -0.0444 -0.2091
  149SOL    HW1  446   1.596   2.156   0.446  0.1328 -0.9418 -1.1636
  149SOL    HW2  447   1.597   2.228   0.596  2.2494 -0.7929  1.5829
  150SOL     OW  448   0.477   2.627   1.078 -0.1883 -0.2106  0.5666
  150SOL    HW1  449   0.518   2.701   1.135  1.3342 -2.8748  0.5662
  150SOL    HW2  450   0.376   2.633   1.069 -1.1146 -0.6259 -1.3006
  151SOL     OW  451   2.207   2.158   1.252  0.1901  0.1533 -0.1549
  151SOL    HW1  452   2.117   2.206   1.247  1.7988  0.5556  2.7861
  151SOL    HW2  453   2.195   2.063   1.295 -3.1835 -0.2394 -1.0870
  152SOL     OW  454   0.203   2.256   1.837 -0.0028 -0.3884  0.3972
  152SOL    HW1  455   0.137   2.217   1.909  1.1561 -2.2800  1.9603
  152SOL    HW2  456   0.242   2.343   1.870 -2.5083 -0.4105  1.7434
  153SOL     OW  457   1.075   2.105   0.861  0.9265 -0.3583 -0.0247
  153SOL    HW1  458   0.983   2.147   0.852 -2.5006 -0.7610 -2.5118
  153SOL    HW2  459   1.070   2.007   0.822 -0.5568 -0.8910 -0.3136
  154SOL     OW  460   0.439   1.265   1.411  0.5135 -0.7929  0.3601
  154SOL    HW1  461   0.369   1.345   1.412  2.6085  0.7873  1.3747
  154SOL    HW2  462   0.451   1.218   1.504  0.9438  0.1352  1.5619
  155SOL     OW  463   0.462   2.285   0.677 -0.6982  0.0390 -0.3543
  155SOL    HW1  464   0.464   2.362   0.747  1.2208  0.7071 -0.6610
  155SOL    HW2  465   0.365   2.266   0.656 -0.7116 -0.2131 -1.1895
  156SOL     OW  466   2.881   2.211   0.275 -0.2777  0.9395  0.2165
  156SOL    HW1  467   2.782   2.246   0.287  0.9366 -0.3859  0.3056
  156SOL    HW2  468   2.939   2.292   0.255  2.8811 -0.2352 -1.6005
  157SOL     OW  469   2.342   0.039   1.475  0.3108  0.5561  0.1654
  157SOL    HW1  470   2.330   0.024   1.373  0.8935 -0.5900  1.9218
  157SOL    HW2  471   2.254   0.069   1.515 -1.5812 -0.9071 -0.1566
  158SOL     OW  472   0.507   1.472   1.706  0.2340  0.2442  0.1550
  158SOL    HW1  473   0.592   1.497   1.751 -3.4807  0.7275  1.9381
  158SOL    HW2  474   0.504   1.367   1.702  2.5364  2.0283  0.9139
  159SOL     OW  475   2.651   1.745   2.488  0.1016  0.2030  0.0991
  159SOL    HW1  476   2.726   1.796   2.539  0.8036  1.1160 -0.9729
  159SOL    HW2  477   2.609   1.679   2.556 -0.8602  0.6986 -0.5862
  160SOL     OW  478   2.498   0.957   0.609  0.0014 -0.1735 -0.5071
  160SOL    HW1  479   2.541   1.050   0.627 -1.2608 -0.3246  0.0613
  160SOL    HW2  480   2.563   0.880   0.630  0.5876  1.6997  2.5145
  161SOL     OW  481   1.903   1.863   2.022  0.2792 -0.1986  0.4725
  161SOL    HW1  482   1.851   1.885   2.110 -0.3843 -1.1639 -1.3098
  161SOL    HW2  483   1.906   1.945   1.961 -0.8404  0.1159  1.2405
  162SOL     OW  484   0.418   1.642   0.961 -0.5923  0.5184  0.0061
  162SOL    HW1  485   0.391   1.546   0.958 -1.4750  0.3396  2.2329
  162SOL    HW2  486   0.518   1.643   0.970 -0.4969  1.6539 -1.2293
  163SOL     OW  487   1.478   1.004   2.769 -0.1276  0.4118 -0.0352
  163SOL    HW1  488   1.381   1.035   2.797 -1.5251 -1.0339 -0.0119
  163SOL    HW2  489   1.486   0.991   2.667 -1.8458  1.4735  2.0262
  164SOL     OW  490   0.409   2.842   2.782  0.6452  0.2349 -0.3759
  164SOL    HW1  491   0.493   2.892   2.802  1.7167 -0.4732 -1.4093
  164SOL    HW2  492   0.391   2.847   2.680  0.0109  1.1309 -0.1675
  165SOL     OW  493   1.904   0.633   1.221  0.5797  0.3105 -0.0490
  165SOL    HW1  494   1.803   0.626   1.202  1.4476  0.8994 -0.7766
  165SOL    HW2  495   1.945   0.547   1.198 -3.0132  1.6501  2.4440
  166SOL     OW  496   1.410   1.781   0.991 -0.1002 -0.8948 -0.0893
  166SOL    HW1  497   1.352   1.721   1.044  2.0309  0.6629 -2.9066
  166SOL    HW2  498   1.399   1.750   0.895 -1.5973  0.6764 -1.5769
  167SOL     OW  499   0.379   1.864   2.913 -0.2356  0.5733  0.1979
  167SOL    HW1  500   0.278   1.868   2.894 -0.3518  0.4564 -1.5290
  167SOL    HW2  501   0.431   1.949   2.888 -2.1652 -0.6929 -2.7448
  168SOL     OW  502   2.483   0.240   0.240 -0.1402  0.5673 -0.2397
  168SOL    HW1  503   2.451   0.246   0.338  0.3455  0.4353 -2.6934
  168SOL    HW2  504   2.480   0.143   0.208  0.1021 -0.5244 -3.0930
  169SOL     OW  505   2.835   1.376   1.031  0.0287 -0.3907 -0.0216
  169SOL    HW1  506   2.914   1.432   0.996 -0.4802  0.2789 -1.2270
  169SOL    HW2  507   2.789   1.421   1.111  1.1199  0.2878 -1.1697
  170SOL     OW  508   0.680   1.660   1.528  0.4931  0.0926 -0.0423
  170SOL    HW1  509   0.645   1.626   1.618  0.9285  1.2136  1.4465
  170SOL    HW2  510   0.756   1.728   1.537 -0.1808 -0.3522 -2.5843
  171SOL     OW  511   2.362   1.799   2.773 -0.6138  0.1974  0.2615
  171SOL    HW1  512   2.326   1.797   2.678 -0.4074 -0.5251 -1.2464
  171SOL    HW2  513   2.334   1.713   2.824 -1.4431  1.0219 -0.8408
  172SOL     OW  514   1.052   0.387   2.318 -0.1761  0.1703 -0.3780
  172SOL    HW1  515   1.008   0.378   2.229 -0.3474 -2.3086  0.9085
  172SOL    HW2  516   1.035   0.298   2.368  1.2279 -1.8595  1.2255
  173SOL     OW  517   1.235   0.429   1.058  0.2095  0.0333  0.1637
  173SOL    HW1  518   1.163   0.391   1.120  3.2759 -0.6702  0.5974
  173SOL    HW2  519   1.215   0.416   0.957  1.5154  0.2284 -0.8150
  174SOL     OW  520   2.795   0.076   2.515  0.0119  0.0838  0.0408
  174SOL    HW1  521   2.809   0.158   2.452  1.6754  0.7071  0.8466
  174SOL    HW2  522   2.801   0.111   2.612  0.2033 -1.1880 -0.9421
  175SOL     OW  523   1.043   1.118   0.755  0.7923 -0.4192  0.4826
  175SOL    HW1  524   1.054   1.157   0.845 -2.4639  0.9844 -2.7889
  175SOL    HW2  525   0.945   1.133   0.728 -1.9162  1.7865  0.1919
  176SOL     OW  526   1.294   1.482   0.672 -0.0491  0.2545  0.4746
  176SOL    HW1  527   1.254   1.482   0.765 -2.4427 -0.5704  4.4425
  176SOL    HW2  528   1.297   1.390   0.631 -0.6014  0.1255  0.5721
  177SOL     OW  529   1.472   0.856   1.948  0.6904  0.0844  0.5088
  177SOL    HW1  530   1.442   0.851   1.851  1.2882  1.4911 -0.5427
  177SOL    HW2  531   1.418   0.925   1.996 -0.4515  0.0510  0.7800
  178SOL     OW  532   2.251   2.648   2.022 -0.3632 -0.1908  0.8336
  178SOL    HW1  533   2.194   2.563   2.039  0.9812  1.2776  1.6749
  178SOL    HW2  534   2.321   2.652   2.099 -1.0465  0.3648  2.7028
  179SOL     OW  535   1.082   2.432   1.087 -0.3029 -0.5388 -0.2815
  179SOL    HW1  536   1.097   2.394   0.994 -3.1966 -0.3601  0.1601
  179SOL    HW2  537   1.146   2.512   1.108 -1.1934 -0.3290  1.7144
  180SOL     OW  538   1.620   0.850   1.005 -0.2547 -0.0812 -0.3479
  180SOL    HW1  539   1.685   0.844   0.928  1.0260 -1.6272  0.2938
  180SOL    HW2  540   1.525   0.861   0.966 -0.3600  2.0472 -1.2297
  181SOL     OW  541   1.122   0.772   2.187  0.0995 -0.1275  0.3597
  181SOL    HW1  542   1.137   0.731   2.097 -0.0556 -1.0312  2.5730
  181SOL    HW2  543   1.028   0.766   2.215 -0.4510 -1.0846  2.1592
  182SOL     OW  544   0.137   0.278   0.122  0.0932 -0.2042  0.2506
  182SOL    HW1  545   0.109   0.228   0.036  0.4449 -2.2953  0.7065
  182SOL    HW2  546   0.193   0.214   0.174 -1.1890  1.1586  2.1537
  183SOL     OW  547   1.857   0.061   1.738  0.5362  0.3567 -0.6400
  183SOL    HW1  548   1.879  -0.013   1.805  0.8668 -3.1304  0.5734
  183SOL    HW2  549   1.807   0.037   1.651  1.7188  1.5700  2.7435
  184SOL     OW  550   1.967   0.512   2.158 -0.9968  0.0037 -0.1772
  184SOL    HW1  551   1.977   0.416   2.196 -0.2837 -0.2121 -0.6212
  184SOL    HW2  552   2.059   0.550   2.146  1.0629 -1.5089 -1.9185
  185SOL     OW  553   1.949   1.078   1.210 -0.2907 -0.1356  0.2017
  185SOL    HW1  554   1.849   1.080   1.211 -1.1970  0.5855 -1.9054
  185SOL    HW2  555   1.996   1.159   1.257  0.2227  0.3934 -2.6934
  186SOL     OW  556   2.862   2.538   1.345  0.1444 -0.5933  0.3793
  186SOL    HW1  557   2.861   2.447   1.384  0.6445  0.5826 -1.3800
  186SOL    HW2  558   2.792   2.549   1.270  1.4911  1.9388 -0.5999
  187SOL     OW  559   2.828   1.149   2.434  0.3785 -0.0867 -0.0364
  187SOL    HW1  560   2.730   1.125   2.454 -1.3492  0.8089 -0.2163
  187SOL    HW2  561   2.839   1.214   2.350 -0.7301  0.7160 -0.2702
  188SOL     OW  562   0.908   0.620   1.060 -0.1687 -0.5475  0.6651
  188SOL    HW1  563   0.956   0.594   0.980  0.2347 -2.6500  0.1599
  188SOL    HW2  564   0.952   0.699   1.108  0.0483  0.6597 -0.4615
  189SOL     OW  565   0.076   1.191   2.794 -0.6032 -0.5127 -0.2844
  189SOL    HW1  566   0.006   1.247   2.748  4.0893  1.2172 -0.5230
  189SOL    HW2  567   0.050   1.176   2.890 -3.2639 -1.7811 -0.6671
  190SOL     OW  568   1.760   3.042   2.183  0.4785 -0.3547  0.2531
  190SOL    HW1  569   1.707   2.962   2.219  0.3756 -1.4370 -0.4620
  190SOL    HW2  570   1.708   3.136   2.186  1.0009  2.1915 -1.0353
  191SOL     OW  571   2.971   0.485   3.083  0.0284  0.1178  0.7125
  191SOL    HW1  572   2.930   0.455   3.171  0.8295 -0.6064 -1.5298
  191SOL    HW2  573   2.922   0.566   3.040  2.1884 -2.1759 -3.0848
  192SOL     OW  574   1.502   3.010   0.356  0.1217  0.4020  0.2445
  192SOL    HW1  575   1.547   2.973   0.439  0.5863  0.4408  5.5514
  192SOL    HW2  576   1.554   2.986   0.272 -1.1245 -0.9291  0.9549
  193SOL     OW  577   1.158   2.632   0.374  0.8090 -0.6439 -0.4144
  193SOL    HW1  578   1.208   2.602   0.456  0.4391  2.3725  0.6265
  193SOL    HW2  579   1.067   2.589   0.363  1.2605 -0.5586 -0.3377
  194SOL     OW  580   1.918   2.255   0.442  0.8180 -0.1546  0.3602
  194SOL    HW1  581   1.820   2.239   0.457  0.2955  1.5406  1.5459
  194SOL    HW2  582   1.956   2.289   0.527  1.1137 -1.5719  1.6103
  195SOL     OW  583   1.834   0.512   0.500 -0.4003  0.2738 -0.0713
  195SOL    HW1  584   1.739   0.537   0.474 -1.9490 -1.5534  2.9470
  195SOL    HW2  585   1.840   0.415   0.532  2.8004  1.2026  2.5711
  196SOL     OW  586   0.800   1.971   1.319  0.2265 -0.2053 -0.7855
  196SOL    HW1  587   0.820   2.069   1.344 -0.8177  1.4542 -0.0577
  196SOL    HW2  588   0.834   1.909   1.393 -2.8876  2.3342 -2.0824
  197SOL     OW  589   0.323   0.438   2.443 -0.1631  0.9249  0.9671
  197SOL    HW1  590   0.280   0.389   2.362 -1.8221 -4.0609 -0.7530
  197SOL    HW2  591   0.258   0.491   2.497  1.0425 -2.2051 -1.8528
  198SOL     OW  592   2.724   1.359   2.204  0.3694  0.0395 -0.5628
  198SOL    HW1  593   2.689   1.450   2.183 -0.6972 -0.2399 -1.9873
  198SOL    HW2  594   2.799   1.331   2.141  0.8963  1.3264  1.1737
  199SOL     OW  595   2.397   1.127   2.101  0.4653 -0.0732 -0.4830
  199SOL    HW1  596   2.328   1.055   2.080  1.7795  0.6960  1.0837
  199SOL    HW2  597   2.491   1.108   2.066  1.1389  1.0846  0.3405
  200SOL     OW  598   2.062   0.265   0.177  0.0832  0.6370  0.5840
  200SOL    HW1  599   2.134   0.296   0.117  0.9297  1.1260 -1.5453
  200SOL    HW2  600   2.014   0.351   0.203 -0.2404 -0.3241 -2.5532
  201SOL     OW  601   2.254   0.040   0.492 -0.4482  0.3410 -0.4951
  201SOL    HW1  602   2.311   0.127   0.496  1.4761  0.5252  0.0432
  201SOL    HW2  603   2.258  -0.015   0.575  0.8019  0.5377 -1.5721
  202SOL     OW  604   3.018   2.474   0.258 -0.1201 -0.6645  0.3037
  202SOL    HW1  605   2.988   2.569   0.231  4.0108  1.9627  0.4082
  202SOL    HW2  606   3.045   2.477   0.356 -0.7164 -1.5200 -3.5530
  203SOL     OW  607   1.384   1.188   0.942 -0.4010  0.5609 -0.1025
  203SOL    HW1  608   1.402   1.180   0.839  1.6320  0.1301 -0.8819
  203SOL    HW2  609   1.472   1.222   0.985 -2.0989 -2.0008  1.4374
  204SOL     OW  610   2.996   1.731   2.821 -0.6541  0.4090  0.3370
  204SOL    HW1  611   2.915   1.710   2.881  1.7502 -0.1498  0.4187
  204SOL    HW2  612   3.037   1.647   2.783  1.8057 -1.3327  1.1123
  205SOL     OW  613   0.925   0.315   0.676  0.2457 -0.9549  0.0840
  205SOL    HW1  614   1.015   0.299   0.632  0.0582  1.2772  1.7889
  205SOL    HW2  615   0.893   0.411   0.669 -2.6513 -0.9533 -2.3880
  206SOL     OW  616   0.327   2.909   2.514 -0.2126 -0.0985  0.1260
  206SOL    HW1  617   0.390   2.978   2.476 -1.4176 -2.3357 -1.0861
  206SOL    HW2  618   0.317   2.837   2.442 -0.2977  0.9079  0.9313
  207SOL     OW  619   2.751   1.766   0.192 -0.3430  0.4276 -0.1000
  207SOL    HW1  620   2.768   1.709   0.108 -0.0547  2.8914 -0.6358
  207SOL    HW2  621   2.817   1.839   0.210  1.0482 -3.2727  0.0842
  208SOL     OW  622   1.820   0.851   0.293 -0.1717 -0.4571  0.5029
  208SOL    HW1  623   1.861   0.932   0.244  1.8718  0.2026 -0.1692
  208SOL    HW2  624   1.825   0.768   0.233  2.0583  0.1997 -2.5058
  209SOL     OW  625   1.289   0.937   1.053 -0.2405 -0.3882 -0.2240
  209SOL    HW1  626   1.324   1.028   1.021 -1.9361 -0.8055  0.4379
  209SOL    HW2  627   1.312   0.856   0.994  2.6094  0.6296 -0.8814
  210SOL     OW  628   1.975   1.047   0.189  0.3988 -0.1845  0.2019
  210SOL    HW1  629   1.976   1.107   0.271  3.3909 -1.8252  0.0637
  210SOL    HW2  630   1.922   1.091   0.111 -0.5918 -1.7199 -0.5154
  211SOL     OW  631   0.361   3.095   2.219  0.2426 -0.2221  0.1485
  211SOL    HW1  632   0.367   3.093   2.117 -1.0607  0.7130  2.7490
  211SOL    HW2  633   0.272   3.136   2.249  3.1076 -2.3022 -0.4201
  212SOL     OW  634   1.457   1.911   0.559  0.0110  0.3208  0.1181
  212SOL    HW1  635   1.431   1.993   0.507  0.1209 -1.5281 -0.3768
  212SOL    HW2  636   1.558   1.919   0.582  3.0476 -0.0117 -2.1123
  213SOL     OW  637   2.638   2.340   0.313  0.3796  0.3828 -0.1572
  213SOL    HW1  638   2.587   2.379   0.234  0.1533  0.8329  0.0845
  213SOL    HW2  639   2.631   2.404   0.389 -1.1568  2.6495 -1.0681
  214SOL     OW  640   1.330   2.542   1.621  0.5202 -0.5276  0.0689
  214SOL    HW1  641   1.243   2.595   1.624 -0.7363  0.1376 -2.3403
  214SOL    HW2  642   1.372   2.535   1.528 -1.4486  0.7221 -1.6091
  215SOL     OW  643   0.173   1.756   0.692 -0.0500 -0.1548 -0.3890
  215SOL    HW1  644   0.271   1.783   0.713 -1.3377 -1.3693  5.6903
  215SOL    HW2  645   0.173   1.680   0.621  0.5293  0.9771  0.2369
  216SOL     OW  646   0.016   0.745   2.237  0.6737  0.1775 -0.2717
  216SOL    HW1  647   0.028   0.653   2.274  0.1802  2.9604 -0.8095
  216SOL    HW2  648  -0.038   0.789   2.312 -0.5468  1.7467  1.6860
  217SOL     OW  649   0.482   1.181   1.654 -0.1928  0.2147 -0.6476
  217SOL    HW1  650   0.564   1.121   1.644  0.9452  0.9383  2.3239
  217SOL    HW2  651   0.427   1.141   1.728  0.8483 -1.6194 -0.1145
  218SOL     OW  652   1.317   1.955   2.123  0.0026 -0.0989 -0.2339
  218SOL    HW1  653   1.238   1.902   2.084 -1.2882 -0.7691 -0.5499
  218SOL    HW2  654   1.339   1.919   2.216  0.7602  1.2214  3.2561
  219SOL     OW  655   1.965   1.982   0.453 -0.1248  0.1709 -0.4865
  219SOL    HW1  656   1.937   2.079   0.459  0.4940 -2.5539  0.6314
  219SOL    HW2  657   2.042   1.956   0.521 -0.7140 -0.4611 -1.7942
  220SOL     OW  658   1.842   0.802   2.708  0.4298  0.3685  0.0889
  220SOL    HW1  659   1.877   0.896   2.685 -1.0381 -1.4450 -1.2573
  220SOL    HW2  660   1.839   0.752   2.617 -1.7913  0.4213 -1.7704
  221SOL     OW  661   0.454   1.117   0.951  0.0592 -0.5273 -0.1101
  221SOL    HW1  662   0.454   1.098   1.051 -2.0416 -0.8684 -0.3649
  221SOL    HW2  663   0.538   1.085   0.910 -3.3538  1.4609 -0.9609
  222SOL     OW  664   2.708   2.101   1.770  0.0654 -0.1505  0.6607
  222SOL    HW1  665   2.633   2.127   1.836  0.0895  1.1316  0.5595
  222SOL    HW2  666   2.777   2.175   1.753 -0.7535  0.6385  0.4042
  223SOL     OW  667   1.303   0.316   2.739  0.2652 -0.0355  0.3124
  223SOL    HW1  668   1.343   0.251   2.663  0.2786 -0.5991 -0.2682
  223SOL    HW2  669   1.213   0.276   2.769 -2.0625  0.4446  0.2843
  224SOL     OW  670   1.360   0.175   0.871 -0.4501 -0.2950 -0.4360
  224SOL    HW1  671   1.313   0.262   0.853 -0.4595  1.8736  2.4125
  224SOL    HW2  672   1.309   0.104   0.824 -0.1639  1.7360 -1.2881
  225SOL     OW  673   1.153   1.036   2.300  0.3415 -0.3262  0.2693
  225SOL    HW1  674   1.136   0.942   2.267  2.2950 -0.5310  2.2063
  225SOL    HW2  675   1.068   1.091   2.279  2.1317 -3.1183 -1.2524
  226SOL     OW  676   0.715   0.960   1.263  0.1232 -0.1825 -0.3855
  226SOL    HW1  677   0.788   0.905   1.229  2.8337  1.8629  0.8041
  226SOL    HW2  678   0.748   1.051   1.295  0.3184  0.3473 -2.1188
  227SOL     OW  679   0.081   2.336   1.489 -0.0872  0.1601  0.1293
  227SOL    HW1  680   0.134   2.397   1.548 -2.0467 -0.7440 -1.0818
  227SOL    HW2  681   0.052   2.260   1.547  1.8826 -1.2291 -0.3067
  228SOL     OW  682   0.845   1.906   0.030  0.0725 -0.0069  0.9602
  228SOL    HW1  683   0.743   1.904   0.017 -2.4589 -2.7427 -0.1895
  228SOL    HW2  684   0.868   1.988   0.087 -1.3249  0.1236 -0.0881
  229SOL     OW  685   3.004   3.032   2.387  0.4069  0.4624  0.3826
  229SOL    HW1  686   2.914   3.061   2.429  0.0196 -0.7713 -1.6824
  229SOL    HW2  687   3.062   2.992   2.462  1.0476 -1.2962 -1.3170
  230SOL     OW  688   2.541   1.015   3.045 -0.0152 -0.0806 -0.2833
  230SOL    HW1  689   2.497   0.974   3.126 -1.6357  2.8013 -1.0380
  230SOL    HW2  690   2.628   1.055   3.074 -0.2032  2.6808  1.0140
  231SOL     OW  691   1.655   1.706   2.954 -0.3714  0.7131  0.2940
  231SOL    HW1  692   1.666   1.676   3.053  1.5150  1.5056 -1.9535
  231SOL    HW2  693   1.751   1.717   2.913 -1.5124 -1.8032 -4.5350
  232SOL     OW  694   1.990   1.118   0.936  0.0738  0.1815 -0.3615
  232SOL    HW1  695   1.927   1.061   0.885  1.1949  0.9684 -1.1557
  232SOL    HW2  696   1.971   1.109   1.033  1.6754  0.8824  1.2696
  233SOL     OW  697   2.370   0.850   1.287 -0.5699  0.5446  0.4268
  233SOL    HW1  698   2.331   0.877   1.379  1.3387 -0.5939 -0.5955
  233SOL    HW2  699   2.302   0.869   1.213 -1.2255  2.7015 -2.4821
  234SOL     OW  700   0.633   0.973   1.989  0.3009  0.1020  0.4618
  234SOL    HW1  701   0.658   0.925   2.074  0.1052  1.2244 -0.4880
  234SOL    HW2  702   0.700   1.045   1.968 -0.9713  1.0558  1.3025
  235SOL     OW  703   2.832   0.735   1.243  0.7005  0.1822  0.8093
  235SOL    HW1  704   2.780   0.647   1.228 -3.0162 -1.3386 -2.0347
  235SOL    HW2  705   2.760   0.812   1.253 -1.1013 -2.8597 -0.1034
  236SOL     OW  706   2.117   0.769   0.349 -0.4546 -0.0429  0.0606
  236SOL    HW1  707   2.029   0.811   0.320  1.3109 -0.2379  0.3818
  236SOL    HW2  708   2.184   0.840   0.371 -0.8017 -3.1444 -0.9943
  237SOL     OW  709   3.029   1.863   2.406  0.2988  0.2607 -0.5078
  237SOL    HW1  710   3.118   1.893   2.453 -1.1657  1.7097  1.4628
  237SOL    HW2  711   2.955   1.869   2.477  1.7758  1.2342 -0.2580
  238SOL     OW  712   1.496   1.285   1.824  0.1005 -0.3948 -0.0355
  238SOL    HW1  713   1.488   1.296   1.926 -0.2360  1.2622 -3.1716
  238SOL    HW2  714   1.584   1.249   1.800  0.2193  0.5262 -0.9223
  239SOL     OW  715   0.034   1.309   0.545  0.3699  0.0900  0.2572
  239SOL    HW1  716   0.104   1.360   0.605  2.0577  0.7498  1.6741
  239SOL    HW2  717  -0.060   1.298   0.587  0.7874 -0.1808 -2.5595
  240SOL     OW  718   0.179   2.630   1.038 -0.2633  0.3786  0.0963
  240SOL    HW1  719   0.144   2.547   0.988  2.8875  1.4795  0.3791
  240SOL    HW2  720   0.119   2.647   1.117 -1.5197  1.3968 -0.1959
  241SOL     OW  721   2.891   0.790   0.423 -0.1591  0.7017 -0.4501
  241SOL    HW1  722   2.842   0.793   0.508  1.4188 -0.7705 -1.1079
  241SOL    HW2  723   2.830   0.786   0.346 -0.3536  2.5560  2.6140
  242SOL     OW  724   1.857   0.326   2.810 -0.0712 -0.2625  0.2354
  242SOL    HW1  725   1.958   0.325   2.788 -0.8210 -2.3755 -2.1751
  242SOL    HW2  726   1.807   0.395   2.752 -1.4483  0.0652 -0.2927
  243SOL     OW  727   1.706   0.216   2.280 -0.4202 -0.1957  0.0895
  243SOL    HW1  728   1.709   0.225   2.380 -1.4953  0.8188 -0.7636
  243SOL    HW2  729   1.801   0.231   2.247 -0.7360 -0.1820  1.1604
  244SOL     OW  730   2.118   0.392   2.746 -0.2786 -0.2871 -0.1810
  244SOL    HW1  731   2.087   0.484   2.791  0.4124  1.5936  1.0435
  244SOL    HW2  732   2.150   0.422   2.654 -1.5594 -0.9556  0.2040
  245SOL     OW  733   2.031   2.959   0.135  0.6040 -0.6822 -0.0167
  245SOL    HW1  734   2.013   3.030   0.208  1.2732  1.3950  1.0072
  245SOL    HW2  735   1.976   2.873   0.147  0.6490 -1.8394 -1.7993
  246SOL     OW  736   2.615   2.966   2.555  0.6403 -0.6593 -0.2145
  246SOL    HW1  737   2.532   3.000   2.606 -1.7927 -1.2581  1.1784
  246SOL    HW2  738   2.678   3.044   2.539  1.8920  1.7619 -1.3394
  247SOL     OW  739   1.356   0.623   2.794 -0.0590  0.0124 -0.0907
  247SOL    HW1  740   1.314   0.661   2.707 -2.9007 -1.5002 -0.4214
  247SOL    HW2  741   1.361   0.521   2.782 -0.7172  0.5994 -0.0052
  248SOL     OW  742   2.884   3.072   1.762  0.1189  0.9211  1.2470
  248SOL    HW1  743   2.872   3.105   1.858  0.3937  1.3206  1.5659
  248SOL    HW2  744   2.794   3.064   1.717 -1.1822 -0.0228  0.6816
  249SOL     OW  745   0.450   0.395   0.530 -0.2810 -0.0556  0.4493
  249SOL    HW1  746   0.449   0.319   0.465 -1.1552 -1.8384  0.2738
  249SOL    HW2  747   0.386   0.468   0.498  0.2860  2.7522  0.9462
  250SOL     OW  748   2.125   0.090   2.377 -0.1901  0.3254 -0.4461
  250SOL    HW1  749   2.226   0.085   2.368  2.3565 -2.1451 -0.1302
  250SOL    HW2  750   2.084   0.013   2.329  0.5852  0.8954  2.2521
  251SOL     OW  751   1.183   1.042   3.059  0.2977 -0.1223  0.1890
  251SOL    HW1  752   1.151   1.135   3.088  2.5381 -0.3249  0.1953
  251SOL    HW2  753   1.199   1.049   2.959  2.6452 -0.9111  1.9092
  252SOL     OW  754   1.776   0.290   1.436  0.5290  0.4695  0.1500
  252SOL    HW1  755   1.761   0.193   1.461  1.9695 -2.8736  2.5540
  252SOL    HW2  756   1.875   0.317   1.446  0.4251  3.7373 -1.3115
  253SOL     OW  757   2.940   0.101   0.449 -0.1821 -0.2392 -0.2285
  253SOL    HW1  758   2.985   0.123   0.541  3.0215 -0.1813  2.1379
  253SOL    HW2  759   2.846   0.065   0.460 -1.5325 -0.3185 -1.0602
  254SOL     OW  760   2.391   1.404   1.978 -0.1289 -0.1822  0.0094
  254SOL    HW1  761   2.389   1.309   2.003  1.5292 -1.8270  1.4092
  254SOL    HW2  762   2.378   1.466   2.062 -0.5040 -2.7200 -1.3112
  255SOL     OW  763   1.236   2.608   1.209  0.0629 -0.4366  0.1734
  255SOL    HW1  764   1.312   2.603   1.277 -0.0619 -0.5504 -1.1002
  255SOL    HW2  765   1.149   2.633   1.261 -0.1588  1.8624 -0.9338
  256SOL     OW  766   1.183   2.052   1.299 -0.0366  0.0468  0.4415
  256SOL    HW1  767   1.119   2.123   1.334  0.3225  1.1779  1.1046
  256SOL    HW2  768   1.235   2.084   1.218 -2.5169  0.8771  0.7890
  257SOL     OW  769   0.256   1.382   0.669 -0.2618  0.5432 -0.0998
  257SOL    HW1  770   0.291   1.370   0.768 -0.4663  0.5043 -1.0864
  257SOL    HW2  771   0.330   1.428   0.614 -1.1323  2.0854 -3.7476
  258SOL     OW  772   2.722   2.563   2.050 -0.0204 -0.2755 -0.0013
  258SOL    HW1  773   2.659   2.501   2.102 -2.7281 -1.2734 -1.6403
  258SOL    HW2  774   2.760   2.639   2.108 -0.2932  0.6482  2.5961
  259SOL     OW  775   1.440   0.137   2.567 -0.0879 -0.1389 -0.3790
  259SOL    HW1  776   1.543   0.166   2.559  0.8444  0.7216 -1.1160
  259SOL    HW2  777   1.410   0.084   2.485  0.1120  2.2972  2.8094
  260SOL     OW  778   1.025   1.130   1.225  0.6204 -0.5927  0.0129
  260SOL    HW1  779   0.944   1.162   1.271  2.6661 -1.3735 -0.6978
  260SOL    HW2  780   1.034   1.161   1.126 -0.9980 -3.7388  0.6067
  261SOL     OW  781   0.997   0.168   2.498 -1.0313 -0.6477 -0.2858
  261SOL    HW1  782   0.919   0.232   2.515  0.2997  0.3881 -2.5266
  261SOL    HW2  783   1.056   0.153   2.579 -0.4414 -1.9372  0.2123
  262SOL     OW  784   2.876   2.307   2.522 -0.0525 -0.6441 -0.5204
  262SOL    HW1  785   2.976   2.297   2.492 -0.3808  0.5188 -2.9132
  262SOL    HW2  786   2.838   2.395   2.488 -0.5083 -0.9889 -0.6497
  263SOL     OW  787   1.089   1.888   0.143 -0.6788  0.5581  0.6353
  263SOL    HW1  788   1.122   1.829   0.218 -1.1657 -0.3889 -0.0081
  263SOL    HW2  789   0.991   1.867   0.118  0.4127 -0.0780  0.4555
  264SOL     OW  790   1.095   2.670   1.647  0.1742 -0.6434 -0.3641
  264SOL    HW1  791   1.146   2.753   1.679 -1.8818  0.7237 -2.7751
  264SOL    HW2  792   1.011   2.650   1.697 -2.8300 -1.3940 -0.9447
  265SOL     OW  793   1.343   2.331   1.220  0.3931 -0.6385  0.0099
  265SOL    HW1  794   1.266   2.396   1.207 -1.1430 -0.4066 -1.1760
  265SOL    HW2  795   1.324   2.247   1.161 -0.4459  0.0490  0.3955
  266SOL     OW  796   2.225   0.123   0.911 -0.6982  0.0186 -0.3173
  266SOL    HW1  797   2.206   0.058   0.989  0.9599  0.1842  0.6962
  266SOL    HW2  798   2.141   0.173   0.878 -1.5993  0.2145  1.7262
  267SOL     OW  799   2.973   1.957   0.277  0.1190  0.0478  0.1398
  267SOL    HW1  800   2.939   2.053   0.292 -1.1180 -0.8397 -1.7823
  267SOL    HW2  801   3.047   1.942   0.343 -1.5989  1.8595 -1.2111
  268SOL     OW  802   1.417   2.833   2.992 -0.3319  0.8574  0.0546
  268SOL    HW1  803   1.521   2.826   2.992 -0.5820  0.8875 -1.2747
  268SOL    HW2  804   1.384   2.879   3.075 -2.1455 -1.6267  0.4254
  269SOL     OW  805   2.807   0.119   0.077  0.4913 -0.2394  0.3553
  269SOL    HW1  806   2.788   0.200   0.135 -0.1634 -0.5568  0.5664
  269SOL    HW2  807   2.865   0.145  -0.001  1.6577  2.0762 -0.7143
  270SOL     OW  808   2.644   0.581   0.966  0.1264 -0.5856  0.2017
  270SOL    HW1  809   2.543   0.598   0.962  1.9044  1.8063  0.6887
  270SOL    HW2  810   2.696   0.662   0.943  2.0725 -2.3400 -2.9026
  271SOL     OW  811   0.393   1.296   2.640  0.5046  0.2090 -0.5622
  271SOL    HW1  812   0.477   1.271   2.590  0.5590  0.3824  1.9952
  271SOL    HW2  813   0.373   1.228   2.714 -0.7527 -0.2279 -0.0353
  272SOL     OW  814   0.344   1.400   2.140 -0.2582 -0.3611  0.1048
  272SOL    HW1  815   0.423   1.398   2.080 -3.3703 -1.4679 -0.6917
  272SOL    HW2  816   0.366   1.433   2.234  1.6602  1.3018 -1.0821
  273SOL     OW  817   1.202   2.162   2.241  0.7096  0.0852 -0.2165
  273SOL    HW1  818   1.238   2.076   2.193  1.9220 -0.3268 -1.2633
  273SOL    HW2  819   1.155   2.223   2.170  0.4112 -4.2033 -0.5022
  274SOL     OW  820   0.598   1.421   0.784  0.2136 -0.3608  0.4584
  274SOL    HW1  821   0.503   1.416   0.818  1.7542 -0.1956 -0.8156
  274SOL    HW2  822   0.614   1.509   0.740 -0.1631 -2.7935 -2.1448
  275SOL     OW  823   1.590   1.806   2.230  0.3617  0.6625  0.2939
  275SOL    HW1  824   1.515   1.854   2.279  0.2069  0.4874  2.2881
  275SOL    HW2  825   1.670   1.871   2.227 -2.0837 -0.1738 -3.3600
  276SOL     OW  826   2.788   1.810   1.990  0.1191 -0.6031  0.6060
  276SOL    HW1  827   2.768   1.751   1.908 -0.1600 -2.8314 -0.3711
  276SOL    HW2  828   2.873   1.861   1.966 -0.1716  1.7664  0.1033
  277SOL     OW  829   2.543   2.429   0.071  0.0347 -0.3266 -0.1422
  277SOL    HW1  830   2.615   2.500   0.063 -1.0905  1.8303 -1.3390
  277SOL    HW2  831   2.449   2.471   0.071 -0.9565  0.6210 -0.2421
  278SOL     OW  832   2.302   2.716   2.467  0.6836 -0.0439 -0.3059
  278SOL    HW1  833   2.319   2.812   2.504  0.5380 -2.0939  0.0117
  278SOL    HW2  834   2.351   2.714   2.381 -0.8692 -0.7877 -0.2187
  279SOL     OW  835   1.520   2.867   1.379  0.2437  0.8253 -0.4816
  279SOL    HW1  836   1.435   2.910   1.408 -0.4852  1.0954  0.4094
  279SOL    HW2  837   1.563   2.925   1.310  0.5623  0.0358 -0.0336
  280SOL     OW  838   0.597   0.784   0.205  0.2755  0.9088  0.2246
  280SOL    HW1  839   0.633   0.746   0.291  2.0759  1.7732  4.8961
  280SOL    HW2  840   0.497   0.769   0.200  3.0079 -0.7567  0.2004
  281SOL     OW  841   1.465   2.101   0.318 -0.7630 -0.0467  0.2430
  281SOL    HW1  842   1.461   2.017   0.256 -0.1203  2.2467 -0.8995
  281SOL    HW2  843   1.457   2.188   0.261  0.6742  2.7931  2.2264
  282SOL     OW  844   1.904   1.264   0.383 -0.4187 -0.6675 -0.2758
  282SOL    HW1  845   1.824   1.264   0.317 -3.5757 -1.1632 -0.6798
  282SOL    HW2  846   1.894   1.352   0.435  2.0454 -0.6526 -1.0636
  283SOL     OW  847   1.329   1.381   3.077  0.5870 -0.1017  0.0717
  283SOL    HW1  848   1.361   1.374   2.984 -2.2795 -1.0321 -2.5677
  283SOL    HW2  849   1.239   1.334   3.088  0.2220 -1.2871 -2.2719
  284SOL     OW  850   0.992   2.241   2.975 -0.0908 -0.3327 -0.1766
  284SOL    HW1  851   1.054   2.157   2.987  0.0237  0.5226  0.6885
  284SOL    HW2  852   1.039   2.316   2.927  1.3311  1.1930  0.4577
  285SOL     OW  853   0.563   2.055   2.839  0.4444  0.6012 -0.3014
  285SOL    HW1  854   0.625   2.026   2.764 -1.8146 -2.3959 -1.5669
  285SOL    HW2  855   0.614   2.120   2.904 -0.7419 -1.0000  2.2833
  286SOL     OW  856   0.997   1.599   2.198 -0.1032 -0.0164 -0.0699
  286SOL    HW1  857   1.080   1.558   2.245  0.3383  1.0576 -0.4367
  286SOL    HW2  858   0.955   1.671   2.258 -0.0643  0.6456  2.1519
  287SOL     OW  859   1.955   2.362   3.054 -0.3029 -0.3222  0.0667
  287SOL    HW1  860   1.985   2.321   2.968 -0.4344 -1.0639  0.7316
  287SOL    HW2  861   1.982   2.305   3.137 -0.3771  1.2097 -1.4314
  288SOL     OW  862   0.487   0.056   0.744  0.7448 -0.0439 -0.1094
  288SOL    HW1  863   0.523  -0.038   0.763 -1.0738 -0.9066  2.0394
  288SOL    HW2  864   0.568   0.116   0.735  0.0430  1.6306 -0.5266
  289SOL     OW  865   1.248   2.219   0.662  0.5754  0.4219 -0.0562
  289SOL    HW1  866   1.347   2.193   0.678 -1.5876  2.0659  0.3742
  289SOL    HW2  867   1.186   2.162   0.721  1.2036  3.5073  0.8019
  290SOL     OW  868   0.770   1.929   2.667  0.4156 -0.3096 -0.2571
  290SOL    HW1  869   0.796   1.833   2.643 -0.5230 -2.4583 -0.5207
  290SOL    HW2  870   0.855   1.977   2.696  2.8027  0.9331  4.6407
  291SOL     OW  871   2.045   2.858   2.750  0.0908  0.2632 -0.1880
  291SOL    HW1  872   2.139   2.838   2.784  2.2434 -1.8451 -1.0503
  291SOL    HW2  873   1.995   2.924   2.806  2.1517  0.9056 -1.5598
  292SOL     OW  874   1.984   2.999   1.472  0.2521  0.0386  0.1988
  292SOL    HW1  875   2.044   2.961   1.401  0.9325  0.0300  2.3654
  292SOL    HW2  876   1.991   2.943   1.556  0.0087 -1.4329 -0.6450
  293SOL     OW  877   2.027   1.408   3.073 -0.3054 -0.2260  0.6052
  293SOL    HW1  878   2.033   1.457   2.987  1.8103  0.5904  1.3308
  293SOL    HW2  879   2.114   1.363   3.106  1.1118 -1.7866 -0.2641
  294SOL     OW  880   0.891   0.594   2.693  0.3271 -0.3517 -0.5219
  294SOL    HW1  881   0.933   0.647   2.773  1.2033 -0.0185 -3.9421
  294SOL    HW2  882   0.948   0.599   2.607 -0.9556  2.7943  0.7124
  295SOL     OW  883   1.882   1.515   0.438 -0.1351  0.0604  0.0702
  295SOL    HW1  884   1.899   1.543   0.340 -4.3227  1.7347 -1.2434
  295SOL    HW2  885   1.945   1.566   0.499  0.9623  2.6716  0.6005
  296SOL     OW  886   0.912   1.434   1.663  0.1010 -0.5528  0.2364
  296SOL    HW1  887   0.989   1.442   1.592 -0.0945  3.1571 -1.0867
  296SOL    HW2  888   0.877   1.339   1.670  1.7983  0.8299  0.5723
  297SOL     OW  889   0.526   0.355   2.669 -0.0461  0.5352 -0.2875
  297SOL    HW1  890   0.434   0.375   2.631 -3.1005  0.0283 -1.6428
  297SOL    HW2  891   0.547   0.421   2.747  3.8986  1.0981 -0.1350
  298SOL     OW  892   1.112   0.825   2.736  0.0962 -0.2564 -0.0122
  298SOL    HW1  893   1.093   0.749   2.804  1.5032 -0.0799 -1.4999
  298SOL    HW2  894   1.159   0.790   2.651  1.3508  1.1463 -0.1648
  299SOL     OW  895   0.883   3.061   2.357  0.5222  0.1845 -0.8197
  299SOL    HW1  896   0.782   3.051   2.359 -0.7600  1.9695 -0.4809
  299SOL    HW2  897   0.913   3.150   2.400 -0.5210  0.7968 -0.8944
  300SOL     OW  898   2.099   0.318   1.199  0.5801  1.1502  0.6209
  300SOL    HW1  899   2.100   0.256   1.282 -1.9485  2.3502  0.2691
  300SOL    HW2  900   2.190   0.355   1.177 -1.8992  2.7623  0.7044
  301SOL     OW  901   1.552   0.179   0.304  0.1193 -0.3028 -0.2419
  301SOL    HW1  902   1.640   0.191   0.251 -2.0579  0.9088 -1.2901
  301SOL    HW2  903   1.523   0.085   0.325  0.9739  2.4592 -1.7048
  302SOL     OW  904   0.921   2.862   2.964  0.1496 -0.0214  0.6879
  302SOL    HW1  905   0.847   2.900   2.910  1.9774  3.3297 -0.3377
  302SOL    HW2  906   0.883   2.802   3.034  4.2216  0.3214  0.9517
  303SOL     OW  907   1.920   3.000   1.970 -0.7086 -0.5594 -0.3946
  303SOL    HW1  908   1.964   2.908   1.953  2.1683 -0.2462  1.9223
  303SOL    HW2  909   1.851   3.003   2.050 -1.9673 -0.9833 -0.2306
  304SOL     OW  910   0.729   0.120   0.639  0.5458 -0.8621  0.1002
  304SOL    HW1  911   0.800   0.062   0.595  1.3177  0.2596  0.0654
  304SOL    HW2  912   0.776   0.204   0.648  1.8085  0.2323 -0.2692
  305SOL     OW  913   1.419   2.867   0.862  0.0178  0.0871  0.2876
  305SOL    HW1  914   1.389   2.771   0.859  2.8953  2.1454 -1.6299
  305SOL    HW2  915   1.357   2.927   0.811  2.6228  2.4471  0.1439
  306SOL     OW  916   0.472   1.498   0.202  0.2161  0.1171 -0.1804
  306SOL    HW1  917   0.550   1.556   0.184 -1.0378 -0.6733 -1.5757
  306SOL    HW2  918   0.448   1.440   0.118 -1.4870  4.0020  0.3858
  307SOL     OW  919   0.136   0.913   1.823  0.1198 -0.4675  0.2053
  307SOL    HW1  920   0.214   0.980   1.835 -0.7355 -0.6410  0.9425
  307SOL    HW2  921   0.074   0.920   1.907 -0.9111 -0.7847 -2.2395
  308SOL     OW  922   1.019   0.093   0.825  0.2557 -0.0949 -0.2276
  308SOL    HW1  923   0.969   0.167   0.781  1.2043 -0.9037  1.1912
  308SOL    HW2  924   1.004   0.107   0.930 -1.4311 -5.2855  0.0423
  309SOL     OW  925   2.295   0.683   2.798 -0.2725  0.0822  0.3685
  309SOL    HW1  926   2.200   0.654   2.825 -0.7853  0.6137 -0.0175
  309SOL    HW2  927   2.296   0.785   2.802 -1.8094  1.6963 -0.4314
  310SOL     OW  928   1.320   0.064   3.002 -0.0833 -0.0348  0.2401
  310SOL    HW1  929   1.221   0.049   2.995 -0.6128  2.8084 -1.2212
  310SOL    HW2  930   1.353   0.025   3.086  0.5227 -2.8929  1.6804
  311SOL     OW  931   1.456   2.702   2.444 -0.2495  0.4658 -0.6274
  311SOL    HW1  932   1.411   2.790   2.461 -0.5088  1.1690  1.8092
  311SOL    HW2  933   1.382   2.632   2.438  0.9812  0.3978 -4.7146
  312SOL     OW  934   2.052   2.280   0.184 -0.6036 -0.2304 -0.3360
  312SOL    HW1  935   2.080   2.378   0.179  0.8322 -0.6043  2.9680
  312SOL    HW2  936   1.985   2.265   0.258 -1.3642 -0.2060  0.8779
  313SOL     OW  937   0.712   0.628   0.021 -0.5586 -0.1761 -1.0083
  313SOL    HW1  938   0.803   0.662  -0.015 -1.0598 -0.2870  0.4751
  313SOL    HW2  939   0.677   0.689   0.092  0.1342 -3.6520  1.7319
  314SOL     OW  940   2.850   0.730   3.012 -0.3297 -0.3566  0.3897
  314SOL    HW1  941   2.932   0.789   3.013 -0.6853 -1.8508 -0.3808
  314SOL    HW2  942   2.811   0.738   2.919 -1.0402 -1.9684 -0.5784
  315SOL     OW  943   0.515   0.407   2.004  0.3570  0.2179  0.4990
  315SOL    HW1  944   0.563   0.388   2.095 -2.7645 -0.2413 -0.2677
  315SOL    HW2  945   0.510   0.507   1.986  2.6019  1.1548  1.5849
  316SOL     OW  946   3.049   0.158   0.690 -0.4964  0.5819  0.3806
  316SOL    HW1  947   3.149   0.148   0.688 -0.9380  0.6877  0.0201
  316SOL    HW2  948   3.014   0.204   0.773 -1.6990 -0.5741  1.2290
  317SOL     OW  949   1.219   0.397   0.774  0.1257 -0.2332  0.5276
  317SOL    HW1  950   1.222   0.351   0.686 -1.1069 -0.9323  0.8670
  317SOL    HW2  951   1.147   0.467   0.774 -2.4829  0.6690  1.3360
  318SOL     OW  952   2.812   2.303   1.470  0.3282 -0.2850  0.1925
  318SOL    HW1  953   2.716   2.271   1.484 -1.4631  3.1220 -1.0584
  318SOL    HW2  954   2.864   2.321   1.558 -0.1000 -1.0303  1.3568
  319SOL     OW  955   1.851   1.173   3.033 -0.3495  0.5017 -0.1886
  319SOL    HW1  956   1.774   1.171   2.961 -0.1368 -0.4825  2.3168
  319SOL    HW2  957   1.898   1.261   3.039  0.4698  0.3624 -0.3417
  320SOL     OW  958   0.685   2.118   1.042  0.4965  0.3243 -0.5972
  320SOL    HW1  959   0.676   2.032   1.095 -2.9721  4.3901 -0.2991
  320SOL    HW2  960   0.748   2.182   1.090  0.1763 -1.5162  0.4062
  321SOL     OW  961   0.057   2.356   2.465 -0.4485 -0.2779  0.6280
  321SOL    HW1  962   0.072   2.454   2.504  3.4259  1.7228 -1.5079
  321SOL    HW2  963   0.114   2.342   2.382 -1.0083  1.7476 -1.9205
  322SOL     OW  964   0.275   2.477   2.011  0.1967  0.0788 -0.3427
  322SOL    HW1  965   0.248   2.569   2.027 -1.0634  0.8833  0.8698
  322SOL    HW2  966   0.378   2.469   2.006  1.4066 -0.0298 -2.2290
  323SOL     OW  967   2.647   0.220   0.693 -0.3377 -0.3108 -0.4728
  323SOL    HW1  968   2.693   0.209   0.781 -4.2446 -0.6405 -0.5154
  323SOL    HW2  969   2.674   0.148   0.623 -1.1270  0.3557  2.0585
  324SOL     OW  970   0.396   1.703   2.485  0.2869 -0.1363 -0.0683
  324SOL    HW1  971   0.412   1.688   2.583 -0.3286  0.9614 -2.9771
  324SOL    HW2  972   0.484   1.735   2.435  1.2625 -0.5996 -0.4822
  325SOL     OW  973   1.376   0.778   2.321 -0.7157 -0.2362 -0.1715
  325SOL    HW1  974   1.294   0.798   2.264  1.4084  0.4574 -2.9990
  325SOL    HW2  975   1.448   0.727   2.270  2.2901 -1.0225  0.5176
  326SOL     OW  976   3.062   2.906   0.761  0.7505 -0.6576  0.2575
  326SOL    HW1  977   3.060   3.003   0.735  2.2421 -1.0377  0.6484
  326SOL    HW2  978   3.152   2.893   0.806 -3.1761  0.4702 -1.0545
  327SOL     OW  979   1.075   0.195   2.809  0.2089 -0.0686  0.2706
  327SOL    HW1  980   0.992   0.253   2.820  0.8757 -1.0706  0.4389
  327SOL    HW2  981   1.071   0.110   2.867 -1.9790  1.6146  1.1619
  328SOL     OW  982   0.651   1.472   2.702 -0.0657  0.1574  0.2741
  328SOL    HW1  983   0.574   1.538   2.713  0.8598  1.5488 -0.6618
  328SOL    HW2  984   0.655   1.429   2.612  2.0771 -0.2167  2.8641
  329SOL     OW  985   1.588   0.177   1.814  0.1078  0.4537 -0.3277
  329SOL    HW1  986   1.541   0.178   1.723 -0.4054 -1.1088  0.1851
  329SOL    HW2  987   1.672   0.120   1.810 -0.3309  0.1386 -0.3912
  330SOL     OW  988   1.137   0.073   0.268  0.3320  0.0323  0.0598
  330SOL    HW1  989   1.141   0.001   0.195 -0.8435  1.3911 -2.5861
  330SOL    HW2  990   1.074   0.150   0.250  1.3760  1.0935  1.7585
  331SOL     OW  991   2.977   1.988   1.897  0.5246 -0.3985 -0.3853
  331SOL    HW1  992   3.049   2.043   1.944 -3.6857  1.6522  1.3216
  331SOL    HW2  993   2.899   2.054   1.876  2.1323 -0.2394 -0.0418
  332SOL     OW  994   1.916   1.578   1.362  0.0904  0.7530 -0.9147
  332SOL    HW1  995   1.819   1.595   1.333  1.8708  1.5413 -0.1541
  332SOL    HW2  996   1.943   1.633   1.448  0.1567  0.5697  2.4250
  333SOL     OW  997   3.048   2.732   0.537 -1.0711  0.0526  0.3545
  333SOL    HW1  998   3.114   2.769   0.463  0.7311  0.3389 -0.9913
  333SOL    HW2  999   3.066   2.778   0.627 -1.9563 -0.7097  2.8653
  334SOL     OW 1000   1.869   1.911   1.502  0.1869  0.2665 -0.0730
  334SOL    HW1 1001   1.886   1.946   1.405 -2.2617 -2.4998 -1.4675
  334SOL    HW2 1002   1.845   1.990   1.563 -0.6570  0.2875 -1.8265
  335SOL     OW 1003   0.579   2.010   2.474  0.9148  0.1694  0.1080
  335SOL    HW1 1004   0.532   2.102   2.483  0.2425 -1.7852  1.4297
  335SOL    HW2 1005   0.652   2.002   2.551  0.7074 -0.7833  0.0459
  336SOL     OW 1006   0.333   0.022   1.939 -0.0080  0.0563 -0.2431
  336SOL    HW1 1007   0.295   0.113   1.960  0.1146 -1.1110 -1.7043
  336SOL    HW2 1008   0.296  -0.010   1.851  1.5910 -1.7473 -1.3610
  337SOL     OW 1009   0.320   2.168   2.854 -0.3331  0.0311 -0.0339
  337SOL    HW1 1010   0.417   2.148   2.835 -1.6176  0.0317 -0.7106
  337SOL    HW2 1011   0.271   2.177   2.764 -2.4205 -1.0509 -1.1741
  338SOL     OW 1012   0.549   0.571   2.368 -0.5332 -0.5137  0.3851
  338SOL    HW1 1013   0.610   0.512   2.315 -0.7584  1.9280  1.0090
  338SOL    HW2 1014   0.466   0.514   2.390  0.6949  0.8315  3.9149
  339SOL     OW 1015   2.436   0.945   0.188  0.5424 -0.4607  0.6062
  339SOL    HW1 1016   2.357   0.970   0.244  1.1407  0.4785 -0.4928
  339SOL    HW2 1017   2.436   0.841   0.177  0.8386  0.3197  0.4454
  340SOL     OW 1018   2.777   2.699   1.554  0.6988 -0.3126 -0.3873
  340SOL    HW1 1019   2.811   2.618   1.501 -0.1588  4.0594 -1.9395
  340SOL    HW2 1020   2.846   2.772   1.573  0.6205  0.9544  0.5556
  341SOL     OW 1021   0.736   1.061   1.635 -0.5988 -0.4142 -0.7169
  341SOL    HW1 1022   0.761   1.109   1.719  0.2142 -2.3740 -1.4339
  341SOL    HW2 1023   0.792   0.977   1.627  0.3225 -1.5393  0.7553
  342SOL     OW 1024   3.050   1.809   0.045  0.2116  0.2623  0.3879
  342SOL    HW1 1025   2.998   1.830  -0.040 -0.4577 -0.6993  2.8504
  342SOL    HW2 1026   3.027   1.865   0.126 -1.8793 -0.8300  3.3444
  343SOL     OW 1027   2.155   2.696   0.830 -0.1482  0.0518 -0.0409
  343SOL    HW1 1028   2.104   2.678   0.744 -0.2739 -1.0018  2.9896
  343SOL    HW2 1029   2.094   2.711   0.907  0.4259  2.0779 -3.6593
  344SOL     OW 1030   1.518   2.236   0.738 -0.0498  0.2795 -0.3420
  344SOL    HW1 1031   1.526   2.329   0.774 -0.3176  0.7007 -1.8786
  344SOL    HW2 1032   1.500   2.164   0.808 -0.6212 -0.2883  0.9572
  345SOL     OW 1033   2.675   2.001   0.727 -0.4652 -0.0641 -0.8080
  345SOL    HW1 1034   2.723   1.918   0.756  1.3051  0.6129 -2.0381
  345SOL    HW2 1035   2.595   1.975   0.665 -0.1162  1.9476  1.2659
  346SOL     OW 1036   2.110   2.340   2.260 -0.3777  0.1246  0.0629
  346SOL    HW1 1037   2.102   2.390   2.174 -0.9446 -0.9374  0.9253
  346SOL    HW2 1038   2.205   2.345   2.295  2.3558 -0.9629  1.5726
  347SOL     OW 1039   1.360   2.171   2.499  0.2489 -0.4351 -0.0616
  347SOL    HW1 1040   1.363   2.215   2.406  0.4309 -0.4473 -1.5531
  347SOL    HW2 1041   1.260   2.169   2.529  2.6896  0.3465  0.9428
  348SOL     OW 1042   0.287   1.964   1.028  0.4574  0.7831 -0.5382
  348SOL    HW1 1043   0.359   1.991   0.961  2.7308  0.3596  0.3804
  348SOL    HW2 1044   0.292   2.027   1.108 -0.3065 -1.9083  0.8079
  349SOL     OW 1045   1.649   1.693   0.988 -0.3944  0.2669  0.1776
  349SOL    HW1 1046   1.561   1.742   1.004 -0.0957  0.6629 -1.0907
  349SOL    HW2 1047   1.635   1.619   0.915 -2.0195 -0.3807  0.8291
  350SOL     OW 1048   2.032   2.383   0.645 -0.1218 -0.3122 -0.9439
  350SOL    HW1 1049   2.009   2.474   0.596 -0.8861  0.1077  0.1580
  350SOL    HW2 1050   2.120   2.345   0.612 -0.6115  1.2152 -0.5233
  351SOL     OW 1051   2.525   2.987   1.850  0.2679 -0.2233  0.9942
  351SOL    HW1 1052   2.505   2.887   1.854  1.7028 -0.0575  0.9584
  351SOL    HW2 1053   2.524   3.024   1.944 -2.7793  2.6485  1.1541
  352SOL     OW 1054   0.977   1.045   0.373  0.3405 -0.2575  0.2309
  352SOL    HW1 1055   1.072   1.082   0.355 -2.0074 -1.5826  0.9899
  352SOL    HW2 1056   0.907   1.100   0.316 -1.1650  2.4992 -2.5205
  353SOL     OW 1057   0.628   1.768   2.359  0.2330 -0.0057 -0.3604
  353SOL    HW1 1058   0.730   1.742   2.344  1.4080 -0.2770  2.6986
  353SOL    HW2 1059   0.622   1.865   2.395 -1.1239  1.7737  0.7543
  354SOL     OW 1060   2.037   2.767   1.914  0.3766 -0.8022 -0.2960
  354SOL    HW1 1061   2.031   2.760   1.808 -0.1331 -1.3180 -4.0187
  354SOL    HW2 1062   2.113   2.721   1.958  1.7245 -0.0510  1.8527
  355SOL     OW 1063   0.292   0.496   0.066 -0.4703  0.0735  0.1779
  355SOL    HW1 1064   0.384   0.448   0.076 -1.4690 -1.2534  0.2711
  355SOL    HW2 1065   0.220   0.427   0.081  0.1742  0.5643  1.6749
  356SOL     OW 1066   1.141   2.308   2.004  0.3372  0.1437 -0.1794
  356SOL    HW1 1067   1.166   2.306   1.905  0.1129 -0.5015  2.0619
  356SOL    HW2 1068   1.063   2.370   2.021  1.0934  1.1182  2.9838
  357SOL     OW 1069   1.876   2.446   1.516  0.1807  0.4592 -0.3105
  357SOL    HW1 1070   1.970   2.478   1.518 -1.2232  2.0545 -1.0609
  357SOL    HW2 1071   1.834   2.421   1.606 -1.3740 -0.2797  1.0543
  358SOL     OW 1072   1.263   1.590   1.124 -0.2300 -0.5359  0.0952
  358SOL    HW1 1073   1.325   1.515   1.155 -1.1124 -2.6761 -1.2670
  358SOL    HW2 1074   1.176   1.572   1.172 -0.7218 -2.4780 -2.0709
  359SOL     OW 1075   2.511   2.186   1.930  0.2195 -0.2928  0.4564
  359SOL    HW1 1076   2.506   2.253   1.854 -2.3513 -1.1556  0.2286
  359SOL    HW2 1077   2.424   2.186   1.984 -0.4344 -2.3777  0.1355
  360SOL     OW 1078   1.623   3.045   0.850  0.7748  0.2770  0.3638
  360SOL    HW1 1079   1.557   2.973   0.875  0.0649 -0.9664 -0.9899
  360SOL    HW2 1080   1.579   3.137   0.849 -0.8094 -0.0807  1.9243
  361SOL     OW 1081   2.092   2.550   0.194  0.4882 -0.2182 -0.1872
  361SOL    HW1 1082   2.164   2.581   0.123 -1.1717 -0.2719 -0.5624
  361SOL    HW2 1083   2.018   2.620   0.207  1.2078 -0.8369  2.3536
  362SOL     OW 1084   1.179   0.277   0.536 -0.3193 -0.2580  0.4142
  362SOL    HW1 1085   1.215   0.188   0.504 -1.2694  2.7336 -0.9793
  362SOL    HW2 1086   1.227   0.341   0.474 -1.2748  1.8412  0.9270
  363SOL     OW 1087   1.675   1.167   2.296  0.4890 -1.0101 -0.0512
  363SOL    HW1 1088   1.758   1.188   2.235  0.5772 -1.5021  0.4716
  363SOL    HW2 1089   1.667   1.068   2.322 -1.2327  0.0418 -4.0710
  364SOL     OW 1090   0.176   2.952   1.511  0.1712  0.0476 -0.0137
  364SOL    HW1 1091   0.152   2.857   1.519 -3.6149 -0.3015 -0.6369
  364SOL    HW2 1092   0.174   2.978   1.413  1.9054  0.7875  1.1374
  365SOL     OW 1093   0.364   1.442   2.402  0.3972 -0.8007 -0.0921
  365SOL    HW1 1094   0.354   1.391   2.492  0.3519  2.0831  1.6303
  365SOL    HW2 1095   0.374   1.540   2.422  2.4219 -0.9426 -0.2229
  366SOL     OW 1096   2.691   0.998   2.802 -0.2492  0.1703 -0.1781
  366SOL    HW1 1097   2.749   1.006   2.891 -3.0533 -2.1240 -0.6997
  366SOL    HW2 1098   2.598   1.031   2.814  1.3253 -0.8030  1.3785
  367SOL     OW 1099   1.516   0.035   2.822  0.1610 -0.3566  0.6676
  367SOL    HW1 1100   1.489   0.088   2.740  1.9891  0.7641  0.1161
  367SOL    HW2 1101   1.443   0.049   2.894 -1.6131  0.2335  1.9132
  368SOL     OW 1102   2.378   1.774   1.971  0.1612 -0.1995  0.2741
  368SOL    HW1 1103   2.362   1.695   2.036 -2.9523 -0.7351 -1.3712
  368SOL    HW2 1104   2.430   1.848   2.013  1.4531 -0.3966  0.4149
  369SOL     OW 1105   0.760   0.090   1.351 -0.1529 -0.5852  0.1691
  369SOL    HW1 1106   0.692   0.014   1.365 -0.3247 -1.1082 -1.1213
  369SOL    HW2 1107   0.811   0.108   1.439 -1.7599  0.5968 -2.2263
  370SOL     OW 1108   2.525   0.234   2.898  0.0089 -0.3147  0.2140
  370SOL    HW1 1109   2.574   0.312   2.938  1.6665 -0.1856 -0.2526
  370SOL    HW2 1110   2.467   0.183   2.967  2.4250  1.9169 -2.0061
  371SOL     OW 1111   0.647   1.840   1.896 -0.0930  0.5196 -0.3652
  371SOL    HW1 1112   0.742   1.872   1.910  0.0350  0.0027 -1.9185
  371SOL    HW2 1113   0.585   1.917   1.886  2.2094 -0.7124 -1.8124
  372SOL     OW 1114   1.707   2.548   2.237 -0.3462  0.3096 -0.3307
  372SOL    HW1 1115   1.792   2.527   2.289  0.1021  0.8731 -0.3960
  372SOL    HW2 1116   1.725   2.578   2.142 -0.4249 -0.0071 -1.7768
  373SOL     OW 1117   0.490   2.765   1.981  0.0529  0.0035  0.6934
  373SOL    HW1 1118   0.540   2.796   1.896  0.9748  0.6445  2.0847
  373SOL    HW2 1119   0.536   2.807   2.057  0.8469 -0.1573  1.2070
  374SOL     OW 1120   2.958   1.071   1.565  0.3418  0.2397 -0.2775
  374SOL    HW1 1121   3.055   1.042   1.565 -1.8066 -2.7548  0.0768
  374SOL    HW2 1122   2.940   1.145   1.496 -0.0036  0.1740  1.3288
  375SOL     OW 1123   0.144   0.106   3.008  0.2877  0.3136  0.2413
  375SOL    HW1 1124   0.154   0.004   2.998 -0.8639  0.7528  0.8219
  375SOL    HW2 1125   0.194   0.155   2.929 -1.3236  2.6525  2.7348
  376SOL     OW 1126   3.086   0.203   1.727 -0.6003  0.6883  0.0984
  376SOL    HW1 1127   3.007   0.144   1.703 -0.6922 -1.1434 -0.0269
  376SOL    HW2 1128   3.112   0.273   1.660  2.8122  0.8418  0.9674
  377SOL     OW 1129   0.873   0.969   2.661 -0.4555  0.0760 -0.1671
  377SOL    HW1 1130   0.819   0.992   2.744 -0.1998  1.0507  1.5841
  377SOL    HW2 1131   0.948   0.907   2.688 -0.1210 -1.8736  2.3781
  378SOL     OW 1132   0.863   0.349   2.868  0.3832 -0.3164  0.8426
  378SOL    HW1 1133   0.916   0.358   2.952 -0.6079 -1.4130  1.9228
  378SOL    HW2 1134   0.797   0.429   2.861 -1.3716 -3.9399 -0.2717
  379SOL     OW 1135   1.651   1.277   2.550  0.1687 -0.2154 -0.3802
  379SOL    HW1 1136   1.629   1.227   2.467 -0.2707 -1.7513 -1.0978
  379SOL    HW2 1137   1.687   1.366   2.531 -0.3102 -1.6173 -1.7587
  380SOL     OW 1138   0.314   2.155   1.235  0.0610 -0.2609  0.4051
  380SOL    HW1 1139   0.329   2.100   1.319  1.8515 -0.6805  0.2155
  380SOL    HW2 1140   0.236   2.220   1.243  1.2579 -1.3837  2.5197
  381SOL     OW 1141   2.887   2.151   3.093 -0.7241  0.7826  0.2104
  381SOL    HW1 1142   2.920   2.160   3.187  1.9169 -1.4498  0.5981
  381SOL    HW2 1143   2.955   2.103   3.035 -0.2105  0.5592 -0.3198
  382SOL     OW 1144   1.658   1.636   0.523 -0.2944 -0.4425 -0.2690
  382SOL    HW1 1145   1.673   1.730   0.556  0.3806 -0.6142 -0.5903
  382SOL    HW2 1146   1.747   1.608   0.482  0.6319 -3.8528 -2.8613
  383SOL     OW 1147   1.066   1.411   0.294 -0.3945 -0.1690 -0.2654
  383SOL    HW1 1148   0.970   1.423   0.286  2.7405 -2.0708  2.6235
  383SOL    HW2 1149   1.114   1.500   0.277 -0.3930 -1.2141  1.5873
  384SOL     OW 1150   0.703   2.456   1.825  0.3061  0.4739 -0.3804
  384SOL    HW1 1151   0.794   2.500   1.848  0.7156  3.1846 -2.1081
  384SOL    HW2 1152   0.719   2.357   1.816  1.6586  0.2767  1.9142
  385SOL     OW 1153   1.881   2.023   1.267  0.3725 -0.2458  0.2626
  385SOL    HW1 1154   1.879   1.960   1.181 -1.1351 -0.7220 -1.0275
  385SOL    HW2 1155   1.895   2.117   1.239 -0.8644 -1.8289  0.9388
  386SOL     OW 1156   1.969   3.040   2.957  0.1116 -0.8273  0.4337
  386SOL    HW1 1157   1.987   3.019   3.054 -1.6258  2.4874 -0.7371
  386SOL    HW2 1158   1.884   3.094   2.953 -1.6151  0.8810 -0.9540
  387SOL     OW 1159   0.385   0.569   1.213 -0.3936 -0.0292  0.6661
  387SOL    HW1 1160   0.465   0.607   1.265  2.0387  2.0699 -2.3880
  387SOL    HW2 1161   0.301   0.587   1.266 -0.3647 -0.5692  0.2084
  388SOL     OW 1162   0.695   2.247   2.966 -0.7564 -0.4143 -0.4025
  388SOL    HW1 1163   0.800   2.240   2.960 -1.6772 -3.0264  3.1392
  388SOL    HW2 1164   0.668   2.329   3.025  1.9124  0.6036  0.3132
  389SOL     OW 1165   0.791   2.133   2.064 -0.4452  0.0974  0.4361
  389SOL    HW1 1166   0.702   2.088   2.077  1.0921  0.9388 -0.3853
  389SOL    HW2 1167   0.791   2.211   2.126  0.8433  2.2910 -1.2023
  390SOL     OW 1168   2.622   2.609   1.794  0.1008 -0.0419  0.3378
  390SOL    HW1 1169   2.672   2.604   1.881  3.3812 -2.5611  3.4880
  390SOL    HW2 1170   2.667   2.642   1.711  1.9758  0.8743 -3.3256
  391SOL     OW 1171   1.460   1.408   1.205 -0.2050  0.1691 -0.4825
  391SOL    HW1 1172   1.416   1.343   1.270 -1.1044  2.8251 -1.0305
  391SOL    HW2 1173   1.523   1.361   1.135 -2.7828  2.8520  1.7027
  392SOL     OW 1174   0.260   0.218   0.969 -0.2976  0.3332  0.4001
  392SOL    HW1 1175   0.173   0.239   1.014  0.5311 -2.1306  0.3747
  392SOL    HW2 1176   0.309   0.299   0.927  3.2635  0.1650 -1.8114
  393SOL     OW 1177   1.183   2.335   0.256  0.3143  0.2093  0.1016
  393SOL    HW1 1178   1.180   2.234   0.284 -0.6909  0.9365 -2.8414
  393SOL    HW2 1179   1.203   2.390   0.341 -2.4057 -1.8903  1.4225
  394SOL     OW 1180   1.283   0.032   0.484 -0.3364 -0.3065  0.0418
  394SOL    HW1 1181   1.362  -0.029   0.458  1.8718  0.5221 -0.6012
  394SOL    HW2 1182   1.227   0.058   0.397 -0.0645  2.6485  2.2622
  395SOL     OW 1183   0.386   0.302   1.289 -0.5433 -0.1758  0.3532
  395SOL    HW1 1184   0.366   0.390   1.246  2.3902 -0.4883 -0.5707
  395SOL    HW2 1185   0.466   0.262   1.240 -0.7630  2.0619 -0.8327
  396SOL     OW 1186   2.733   0.367   0.178 -0.5130 -0.2073 -0.2529
  396SOL    HW1 1187   2.638   0.336   0.203 -1.0643  4.8927  1.6610
  396SOL    HW2 1188   2.766   0.424   0.258  1.3728  1.2609  1.5350
  397SOL     OW 1189   2.489   0.689   2.626  0.1243  0.0764 -0.9917
  397SOL    HW1 1190   2.465   0.722   2.535 -0.7636  0.1388 -0.6434
  397SOL    HW2 1191   2.411   0.683   2.691  0.7662  0.5367 -0.8955
  398SOL     OW 1192   0.923   2.658   2.613  0.7298  0.2137 -0.2974
  398SOL    HW1 1193   0.970   2.663   2.700 -1.1121  2.6838 -0.1343
  398SOL    HW2 1194   0.952   2.725   2.546  1.1451 -1.9574  3.7208
  399SOL     OW 1195   1.991   0.402   1.549  0.0586 -0.1454  0.0888
  399SOL    HW1 1196   2.001   0.502   1.533  0.0859  0.5076 -4.1512
  399SOL    HW2 1197   1.959   0.389   1.648 -1.5539 -2.5747 -0.7374
  400SOL     OW 1198   0.776   1.452   2.441  0.3955  0.2013  0.2331
  400SOL    HW1 1199   0.837   1.475   2.360 -1.3422 -0.2460 -1.5504
  400SOL    HW2 1200   0.717   1.373   2.417  0.2009 -0.0462 -0.5060
  401SOL     OW 1201   0.365   1.059   1.881  0.5824 -0.5669  0.0743
  401SOL    HW1 1202   0.450   1.011   1.902  0.8187  1.7184 -0.3858
  401SOL    HW2 1203   0.327   1.094   1.967 -3.0470 -0.3419  2.1379
  402SOL     OW 1204   0.695   2.759   0.367 -0.1240  0.0584 -0.1353
  402SOL    HW1 1205   0.667   2.837   0.307  0.6226  0.5290 -1.7860
  402SOL    HW2 1206   0.776   2.783   0.425 -1.3095  0.6184  1.8247
  403SOL     OW 1207   2.843   1.877   1.358 -0.0337  0.2788 -0.0082
  403SOL    HW1 1208   2.778   1.852   1.431  1.1533 -2.1810 -1.1783
  403SOL    HW2 1209   2.868   1.974   1.356 -1.3638 -0.5668  1.4919
  404SOL     OW 1210   1.656   1.934   2.706 -0.2197 -0.4406 -0.4438
  404SOL    HW1 1211   1.574   1.877   2.723  1.4765 -1.5999 -0.4655
  404SOL    HW2 1212   1.735   1.887   2.744 -0.4392 -0.7182 -0.7644
  405SOL     OW 1213   2.555   2.252   1.515 -0.3351 -0.0793 -0.4263
  405SOL    HW1 1214   2.543   2.153   1.508  1.1793  2.7121  2.5336
  405SOL    HW2 1215   2.495   2.307   1.450  0.0676  3.1185  2.4586
  406SOL     OW 1216   1.706   1.942   0.041  0.0621  0.6919 -0.4191
  406SOL    HW1 1217   1.779   1.952  -0.027 -0.9892 -0.3532  0.5110
  406SOL    HW2 1218   1.708   1.855   0.091 -1.3363 -1.9998  2.6739
  407SOL     OW 1219   1.286   0.488   2.241  0.5719 -0.0975 -0.4642
  407SOL    HW1 1220   1.323   0.565   2.295  0.3127 -2.3838  2.6638
  407SOL    HW2 1221   1.204   0.446   2.280 -0.1991 -1.4351 -0.8865
  408SOL     OW 1222   0.426   2.525   1.735 -0.0235  0.0501  0.5566
  408SOL    HW1 1223   0.513   2.487   1.767  1.4384 -1.9098  0.9822
  408SOL    HW2 1224   0.444   2.622   1.715 -0.4324  2.7015 -0.8125
  409SOL     OW 1225   0.400   2.200   1.642  0.2883 -0.2733 -0.1051
  409SOL    HW1 1226   0.326   2.233   1.709 -1.0235 -1.6482 -1.4096
  409SOL    HW2 1227   0.367   2.124   1.580 -0.7927 -1.4257 -0.5612
  410SOL     OW 1228   0.410   1.825   0.768  0.4459 -0.1983  0.3668
  410SOL    HW1 1229   0.401   1.772   0.855  0.0577 -0.2618  2.3751
  410SOL    HW2 1230   0.448   1.917   0.791 -0.3635  2.1400  0.1263
  411SOL     OW 1231   2.376   3.080   1.193  0.1733 -0.0619  0.2517
  411SOL    HW1 1232   2.387   3.172   1.150 -1.4739  1.7158  0.8071
  411SOL    HW2 1233   2.303   3.031   1.151 -2.3396 -0.2175 -0.5437
  412SOL     OW 1234   1.981   0.244   2.206 -0.0052 -0.1475 -0.0980
  412SOL    HW1 1235   2.022   0.253   2.110 -0.9366 -1.0806 -0.0563
  412SOL    HW2 1236   2.039   0.181   2.262  0.6101  0.2748  1.8701
  413SOL     OW 1237   2.877   0.374   1.522 -0.6748  0.0124 -0.5763
  413SOL    HW1 1238   2.851   0.356   1.422  0.8386 -0.6892  3.8358
  413SOL    HW2 1239   2.799   0.363   1.582 -0.7223  0.0821  0.4172
  414SOL     OW 1240   2.665   0.740   0.648  0.2268 -0.5540  0.1858
  414SOL    HW1 1241   2.713   0.758   0.738 -1.6939 -1.0907  2.1623
  414SOL    HW2 1242   2.661   0.642   0.631  0.3855  0.0652  0.4082
  415SOL     OW 1243   1.857   1.862   1.052 -0.4878 -0.0515 -0.1953
  415SOL    HW1 1244   1.785   1.793   1.042  1.5584  1.5224  1.4810
  415SOL    HW2 1245   1.948   1.824   1.033  1.6636 -1.4731  0.7467
  416SOL     OW 1246   1.678   2.406   3.077 -0.8977 -0.2003  0.2190
  416SOL    HW1 1247   1.779   2.387   3.081  1.2598  1.3531  2.4032
  416SOL    HW2 1248   1.653   2.420   2.979 -0.6731  0.9230 -2.7947
  417SOL     OW 1249   0.617   0.690   1.348 -0.1432  0.3831 -0.1393
  417SOL    HW1 1250   0.607   0.696   1.452 -0.8821  1.1027  3.1117
  417SOL    HW2 1251   0.644   0.782   1.316  1.6746 -0.0353  2.8691
  418SOL     OW 1252   1.649   0.202   0.555 -0.4054 -0.0023 -0.0530
  418SOL    HW1 1253   1.582   0.182   0.484  1.0894  0.4393 -0.9668
  418SOL    HW2 1254   1.614   0.264   0.626 -0.4840 -0.8887  5.0335
  419SOL     OW 1255   0.631   0.509   2.866  0.5354 -0.2644 -0.2483
  419SOL    HW1 1256   0.662   0.534   2.959 -1.3460  2.4592 -0.4099
  419SOL    HW2 1257   0.615   0.593   2.814  1.3795 -1.0199  0.0420
  420SOL     OW 1258   3.083   0.808   1.305 -0.2658  0.1404 -0.0471
  420SOL    HW1 1259   3.101   0.908   1.295 -1.4949 -0.8969 -0.8073
  420SOL    HW2 1260   2.997   0.786   1.256  0.7730 -2.4632 -1.4387
  421SOL     OW 1261   2.933   2.726   0.179  0.0085 -0.0372 -0.1139
  421SOL    HW1 1262   2.874   2.738   0.260 -1.0780  0.8396  0.6426
  421SOL    HW2 1263   2.947   2.814   0.130  1.0305  0.0647  1.9866
  422SOL     OW 1264   2.578   0.021   1.625  0.5847 -0.1362  0.0983
  422SOL    HW1 1265   2.561  -0.025   1.715 -0.1254 -0.2418 -0.2136
  422SOL    HW2 1266   2.486   0.048   1.585 -0.6384 -0.2457 -1.1058
  423SOL     OW 1267   0.289   2.088   0.395  0.0139  0.3110  0.3146
  423SOL    HW1 1268   0.342   2.136   0.319  3.3233  1.8003 -0.5174
  423SOL    HW2 1269   0.265   2.157   0.467 -2.1922 -0.3924 -1.4612
  424SOL     OW 1270   2.060   1.659   0.563 -0.6823  0.0686 -0.7599
  424SOL    HW1 1271   2.071   1.690   0.660 -1.6806 -1.4450  3.0657
  424SOL    HW2 1272   2.143   1.681   0.504  1.0437 -0.4393 -2.2760
  425SOL     OW 1273   3.070   0.340   2.629 -0.0945  0.1375 -0.3123
  425SOL    HW1 1274   2.994   0.375   2.689  0.8275 -0.4957  1.7363
  425SOL    HW2 1275   3.130   0.416   2.589 -4.6944 -1.7247  1.8672
  426SOL     OW 1276   0.121   0.103   2.339 -0.1507  0.7805  0.6399
  426SOL    HW1 1277   0.145   0.136   2.436 -0.5070 -0.0414 -1.0473
  426SOL    HW2 1278   0.031   0.055   2.338 -1.2057 -0.1738  0.7537
  427SOL     OW 1279   1.644   2.644   2.637  0.3467 -0.1687  0.0695
  427SOL    HW1 1280   1.640   2.733   2.682  0.2079  0.3148  0.2769
  427SOL    HW2 1281   1.591   2.648   2.552 -2.2005 -3.3541 -0.2450
  428SOL     OW 1282   2.136   0.014   1.879 -0.1416  0.0725  0.1424
  428SOL    HW1 1283   2.043  -0.024   1.912  1.0088 -1.4575  1.5651
  428SOL    HW2 1284   2.155  -0.016   1.780  2.1777  3.1883 -2.9990
  429SOL     OW 1285   1.395   0.386   0.360  0.0724  0.3902  1.1077
  429SOL    HW1 1286   1.346   0.408   0.271  0.8063  2.0097 -1.9991
  429SOL    HW2 1287   1.455   0.304   0.337  1.4739  0.0830  0.3578
  430SOL     OW 1288   1.014   1.982   2.391  0.1637  0.2107 -0.3942
  430SOL    HW1 1289   0.973   2.017   2.473 -1.8315  0.7557 -2.4880
  430SOL    HW2 1290   1.084   2.047   2.353  2.7115  3.7495  2.8666
  431SOL     OW 1291   2.704   0.303   0.951  0.1536 -0.6705 -0.3133
  431SOL    HW1 1292   2.711   0.395   0.986  2.3499 -1.2452 -0.8822
  431SOL    HW2 1293   2.609   0.269   0.971  0.2972 -3.8974  1.4991
  432SOL     OW 1294   1.379   2.412   2.021  0.2429 -0.0842 -0.6989
  432SOL    HW1 1295   1.396   2.440   2.118 -0.8830  0.5948  0.5072
  432SOL    HW2 1296   1.288   2.374   2.010  0.2899  0.1681 -1.7430
  433SOL     OW 1297   1.132   0.088   1.779  0.0220 -0.5949 -0.0485
  433SOL    HW1 1298   1.088   0.104   1.870 -0.3523 -1.0157 -0.4186
  433SOL    HW2 1299   1.197   0.165   1.755  2.1317 -1.7008  0.2857
  434SOL     OW 1300   1.587   2.800   1.847  0.0534 -0.2501  0.4464
  434SOL    HW1 1301   1.552   2.707   1.849 -0.6313 -1.8266  0.0929
  434SOL    HW2 1302   1.511   2.869   1.859 -1.1893 -2.4215  0.0604
  435SOL     OW 1303   2.755   0.715   0.187  0.0465 -0.0732  0.7171
  435SOL    HW1 1304   2.808   0.721   0.102  0.2181  1.4487  0.4963
  435SOL    HW2 1305   2.655   0.713   0.162 -0.1952 -0.7983  0.2830
  436SOL     OW 1306   0.691   0.877   2.464  0.3388 -0.8194 -0.0098
  436SOL    HW1 1307   0.632   0.800   2.493 -0.3481 -0.2907  2.3211
  436SOL    HW2 1308   0.765   0.904   2.531  0.8814 -2.5702 -1.2587
  437SOL     OW 1309   0.978   1.553   0.592 -0.4692  0.6731 -0.5370
  437SOL    HW1 1310   1.070   1.539   0.632  0.7098 -0.8245 -1.3207
  437SOL    HW2 1311   0.924   1.465   0.595 -1.4900  0.3730 -2.6861
  438SOL     OW 1312   2.773   0.826   0.884 -0.0048  0.7079  0.1063
  438SOL    HW1 1313   2.724   0.896   0.945 -0.0412 -2.6284  0.5052
  438SOL    HW2 1314   2.861   0.797   0.924 -1.2694  0.9051 -0.3895
  439SOL     OW 1315   2.958   2.119   1.321  0.5098 -0.0442  0.4084
  439SOL    HW1 1316   3.001   2.164   1.245  1.2782 -0.5571  1.3240
  439SOL    HW2 1317   2.905   2.183   1.381  0.8684  3.8807 -1.3477
  440SOL     OW 1318   0.372   1.080   0.090 -0.1761 -0.4965 -0.1818
  440SOL    HW1 1319   0.295   1.013   0.101  0.6539 -1.3563 -2.1776
  440SOL    HW2 1320   0.435   1.065   0.168  1.2430 -0.4967  3.2480
  441SOL     OW 1321   0.057   1.926   1.392 -0.1071  0.7866  0.0685
  441SOL    HW1 1322   0.056   1.878   1.481  0.6176  1.8484  0.5793
  441SOL    HW2 1323  -0.025   1.990   1.385 -1.6819 -1.2851  1.3151
  442SOL     OW 1324   0.881   0.584   0.625 -0.2044  0.1411 -0.3026
  442SOL    HW1 1325   0.927   0.662   0.582  0.6650  1.7619  1.2947
  442SOL    HW2 1326   0.787   0.577   0.586  3.4957 -0.9769 -2.2912
  443SOL     OW 1327   2.624   1.702   0.550  0.5133  0.1108  0.0049
  443SOL    HW1 1328   2.686   1.669   0.472  1.4091  1.3312  1.9851
  443SOL    HW2 1329   2.678   1.696   0.636  1.2936 -1.4991 -1.8031
  444SOL     OW 1330   1.306   2.853   2.154  0.2968  0.1775  0.2768
  444SOL    HW1 1331   1.389   2.822   2.213 -2.0316  0.8700  1.9840
  444SOL    HW2 1332   1.336   2.876   2.062 -3.4508  0.1934 -2.1111
  445SOL     OW 1333   2.986   3.004   2.122  0.3242  0.2429 -0.0431
  445SOL    HW1 1334   3.004   3.016   2.224  0.3788 -0.4061  2.7272
  445SOL    HW2 1335   2.909   3.067   2.092 -0.8850 -1.1801 -1.5151
  446SOL     OW 1336   1.912   2.099   1.882  0.3216 -0.0069 -0.3276
  446SOL    HW1 1337   2.010   2.099   1.864 -0.0612  3.4987 -0.3094
  446SOL    HW2 1338   1.856   2.091   1.796  1.3463  0.0973  3.1410
  447SOL     OW 1339   0.032   3.067   0.287 -0.4838  0.3410 -0.3433
  447SOL    HW1 1340  -0.046   3.100   0.347  0.0275 -1.2878  0.4439
  447SOL    HW2 1341  -0.007   3.056   0.194 -0.1957  0.5008  1.4724
  448SOL     OW 1342   0.902   1.196   2.518  0.4666 -0.4535 -0.6772
  448SOL    HW1 1343   0.943   1.183   2.430 -1.0692 -1.5967  1.4795
  448SOL    HW2 1344   0.895   1.109   2.572  0.1841  0.4647  1.8408
  449SOL     OW 1345   0.234   0.688   2.986 -0.3361 -0.0665  0.1537
  449SOL    HW1 1346   0.254   0.629   3.069 -0.0060  0.7938  0.6850
  449SOL    HW2 1347   0.160   0.764   3.005  2.1683 -0.8419 -0.3089
  450SOL     OW 1348   2.156   1.005   2.055  0.0681  0.3700 -0.0719
  450SOL    HW1 1349   2.141   0.904   2.051  1.0657 -0.1036  0.7381
  450SOL    HW2 1350   2.109   1.048   1.976  1.7180  3.8140 -1.7126
  451SOL     OW 1351   1.676   1.044   1.179 -0.0486  0.1759 -0.4636
  451SOL    HW1 1352   1.622   1.027   1.259 -5.5469 -1.8726 -0.8952
  451SOL    HW2 1353   1.659   0.972   1.108  1.3089 -1.9810 -0.1532
  452SOL     OW 1354   2.853   1.138   0.897  0.0522 -0.1068  0.0360
  452SOL    HW1 1355   2.869   1.215   0.958  0.4895 -2.2596  2.3311
  452SOL    HW2 1356   2.766   1.089   0.923 -0.1474  0.1347 -1.5797
  453SOL     OW 1357   0.061   1.307   1.310 -0.1767  0.8264 -0.2267
  453SOL    HW1 1358   0.056   1.203   1.290  2.5722  3.7454  0.4993
  453SOL    HW2 1359   0.065   1.317   1.414 -0.4590  1.0279 -1.4964
  454SOL     OW 1360   2.133   0.890   0.004  0.4900 -0.1582  0.0036
  454SOL    HW1 1361   2.063   0.942   0.055 -2.0107 -0.1118  2.9225
  454SOL    HW2 1362   2.125   0.789   0.022  0.1829 -0.6694 -1.6058
  455SOL     OW 1363   1.264   0.701   0.402  0.2039  0.0367 -0.2394
  455SOL    HW1 1364   1.307   0.774   0.460  0.4819  1.1148  2.3602
  455SOL    HW2 1365   1.317   0.615   0.415  0.4658  0.3278 -0.0775
  456SOL     OW 1366   2.434   1.985   0.009 -0.2119  0.3078  0.1678
  456SOL    HW1 1367   2.497   2.064   0.010 -1.0411  1.6703  3.1769
  456SOL    HW2 1368   2.474   1.918  -0.051 -1.0220  0.8960  1.0108
  457SOL     OW 1369   2.942   0.698   2.549 -0.2473 -0.4587  0.6485
  457SOL    HW1 1370   2.967   0.787   2.504 -1.3698 -0.8662  0.9549
  457SOL    HW2 1371   2.865   0.709   2.614  1.2876 -1.0488 -2.0132
  458SOL     OW 1372   2.071   0.164   1.427 -0.2478 -0.1760  0.1373
  458SOL    HW1 1373   2.029   0.073   1.450  0.6487  3.1083  0.3489
  458SOL    HW2 1374   2.059   0.238   1.499  0.9994 -3.2542 -0.4540
  459SOL     OW 1375   0.081   1.490   2.031  0.3775 -0.1812  0.3379
  459SOL    HW1 1376   0.042   1.571   2.082  2.6541  1.0012 -1.2244
  459SOL    HW2 1377   0.160   1.450   2.076  0.2833  0.4400 -1.1163
  460SOL     OW 1378   1.072   0.676   0.198 -0.3365 -0.9236 -0.0208
  460SOL    HW1 1379   1.046   0.759   0.144  0.1826 -1.1673 -0.5617
  460SOL    HW2 1380   1.164   0.692   0.233 -0.1102  1.2612  1.9771
  461SOL     OW 1381   0.749   2.507   1.064 -0.6825  0.2812  0.2436
  461SOL    HW1 1382   0.752   2.419   1.122 -1.1622 -4.0744  0.4918
  461SOL    HW2 1383   0.652   2.547   1.062  0.8808 -0.5412  0.9256
  462SOL     OW 1384   0.680   2.367   2.724 -0.3981 -0.3364  0.2240
  462SOL    HW1 1385   0.701   2.315   2.810 -0.7306 -0.8093  0.7057
  462SOL    HW2 1386   0.649   2.469   2.741  0.1132  1.4915  0.2613
  463SOL     OW 1387   2.550   0.249   2.266 -0.0335 -0.0030 -0.4476
  463SOL    HW1 1388   2.642   0.276   2.299  0.0483 -2.7178 -2.8414
  463SOL    HW2 1389   2.550   0.154   2.225 -1.0229  0.3569  0.2909
  464SOL     OW 1390   2.498   2.932   0.621  0.2715 -0.0415 -0.3975
  464SOL    HW1 1391   2.411   2.944   0.678 -0.1297  1.1943 -0.1701
  464SOL    HW2 1392   2.463   2.905   0.529 -1.4814  1.9585  0.5039
  465SOL     OW 1393   2.625   1.253   1.319 -0.1873  1.0380 -0.9077
  465SOL    HW1 1394   2.621   1.195   1.401 -0.4414  0.7393 -2.0766
  465SOL    HW2 1395   2.545   1.243   1.266  1.0937 -0.3113  2.4529
  466SOL     OW 1396   0.645   2.056   0.318  0.4919  0.2305  0.5191
  466SOL    HW1 1397   0.562   2.097   0.274  2.3994  1.5503 -1.5516
  466SOL    HW2 1398   0.730   2.079   0.269  0.9009 -0.2068  0.6993
  467SOL     OW 1399   0.430   1.497   0.491  0.3385  0.1872 -0.1382
  467SOL    HW1 1400   0.462   1.495   0.393 -1.6328 -0.6776 -1.2303
  467SOL    HW2 1401   0.488   1.560   0.542  0.8339  0.5372 -0.8715
  468SOL     OW 1402   1.400   1.770   0.076 -0.7310  0.1413 -0.3937
  468SOL    HW1 1403   1.495   1.737   0.101  0.8378 -0.6136 -1.0648
  468SOL    HW2 1404   1.402   1.859   0.033 -0.9675  0.8926  2.7523
  469SOL     OW 1405   1.192   1.132   1.832 -0.1218  0.2003 -0.4654
  469SOL    HW1 1406   1.239   1.102   1.922 -2.0489 -1.8088 -0.3600
  469SOL    HW2 1407   1.166   1.232   1.832  0.8896  3.5337 -2.6965
  470SOL     OW 1408   2.320   1.916   0.880  0.0230 -0.4504  0.1973
  470SOL    HW1 1409   2.404   1.964   0.911 -0.2456 -1.2528  2.8516
  470SOL    HW2 1410   2.279   1.870   0.962  0.6584  1.6627  0.0283
  471SOL     OW 1411   2.945   2.053   0.636 -0.2426 -0.6334 -0.5429
  471SOL    HW1 1412   2.986   2.013   0.553  1.6099 -0.7757 -0.5673
  471SOL    HW2 1413   2.855   2.014   0.662  2.6661  0.5684  1.0865
  472SOL     OW 1414   0.138   2.351   2.913  0.3617 -0.6143  0.3290
  472SOL    HW1 1415   0.221   2.293   2.897  0.2549  1.0279 -1.7989
  472SOL    HW2 1416   0.128   2.364   3.016 -1.1518  0.2574 -2.0801
  473SOL     OW 1417   0.169   2.687   1.464 -0.0327  0.7091  0.3300
  473SOL    HW1 1418   0.270   2.679   1.435  1.0560 -0.0295 -0.6510
  473SOL    HW2 1419   0.153   2.619   1.537 -1.4896 -1.0849  0.6458
  474SOL     OW 1420   2.137   1.418   1.870 -0.0006 -0.3115 -0.3529
  474SOL    HW1 1421   2.224   1.410   1.927  1.3707  0.9156 -1.6735
  474SOL    HW2 1422   2.109   1.513   1.859 -0.4852  0.3862  1.6204
  475SOL     OW 1423   2.770   0.344   2.397 -0.0169  0.5545  0.4676
  475SOL    HW1 1424   2.795   0.428   2.342 -1.1124  0.1876 -2.0975
  475SOL    HW2 1425   2.743   0.374   2.494  0.5651  0.1188 -0.1387
  476SOL     OW 1426   0.654   0.598   0.441 -0.2983 -0.0825  0.1329
  476SOL    HW1 1427   0.597   0.518   0.461 -1.9413 -2.3185  1.2786
  476SOL    HW2 1428   0.615   0.684   0.480 -1.6127 -0.7166  3.0087
  477SOL     OW 1429   1.649   2.893   2.744  0.0060  0.5017  0.0062
  477SOL    HW1 1430   1.706   2.916   2.663 -1.2488  0.4922  0.2540
  477SOL    HW2 1431   1.592   2.973   2.772  1.2565 -1.7594  0.2393
  478SOL     OW 1432   1.521   2.642   0.656 -0.3276  0.1980  0.4530
  478SOL    HW1 1433   1.569   2.592   0.574  0.3417  3.5397  2.0141
  478SOL    HW2 1434   1.554   2.605   0.746 -0.2390 -2.2031  1.2773
  479SOL     OW 1435   2.745   1.632   2.251 -0.1539  0.0971 -0.4797
  479SOL    HW1 1436   2.695   1.679   2.328  1.3927  1.8479  1.5726
  479SOL    HW2 1437   2.774   1.697   2.179  2.0459  2.8384  0.8672
  480SOL     OW 1438   2.286   2.829   0.084 -0.1711 -0.0443  0.0647
  480SOL    HW1 1439   2.190   2.858   0.098 -0.5253 -2.9493  1.1661
  480SOL    HW2 1440   2.333   2.894   0.017 -0.1784  2.9534 -0.8205
  481SOL     OW 1441   1.632   0.622   1.163 -0.0798 -0.3421  0.2771
  481SOL    HW1 1442   1.630   0.702   1.101 -3.6424  0.6864  1.0069
  481SOL    HW2 1443   1.539   0.610   1.204 -0.8485  2.1807 -1.0886
  482SOL     OW 1444   1.753   1.600   1.894  0.3692  0.1228  0.1696
  482SOL    HW1 1445   1.837   1.658   1.884  1.3884  0.8454 -1.0326
  482SOL    HW2 1446   1.731   1.552   1.807  0.5143  1.9103  2.6638
  483SOL     OW 1447   1.372   1.740   0.729  0.3790 -0.2483  0.0514
  483SOL    HW1 1448   1.357   1.646   0.684 -1.8094  2.3488 -0.1471
  483SOL    HW2 1449   1.403   1.810   0.660  1.6586  1.6224  0.4374
  484SOL     OW 1450   2.788   0.343   1.912 -0.3377  0.3397 -0.3208
  484SOL    HW1 1451   2.733   0.414   1.960 -1.6615 -0.5494 -1.7773
  484SOL    HW2 1452   2.884   0.371   1.893  3.2717  1.7837 -0.1261
  485SOL     OW 1453   2.343   2.967   2.632  0.1732 -0.2504  0.5099
  485SOL    HW1 1454   2.328   3.066   2.653  1.3515  0.6574  2.2867
  485SOL    HW2 1455   2.336   2.910   2.714  1.4915 -1.7652  0.4015
  486SOL     OW 1456   2.796   1.462   2.723  0.2582  0.4355 -0.5644
  486SOL    HW1 1457   2.709   1.497   2.687  0.7648 -1.2650 -1.2590
  486SOL    HW2 1458   2.802   1.360   2.726 -1.5086 -1.3851 -0.5666
  487SOL     OW 1459   0.717   1.650   0.124  0.4183 -0.0849 -0.5090
  487SOL    HW1 1460   0.683   1.742   0.103 -0.4542  0.4682 -0.0312
  487SOL    HW2 1461   0.784   1.659   0.204  1.1998 -1.4870 -5.0694
  488SOL     OW 1462   2.177   0.765   1.902 -0.1855 -0.4292  0.4697
  488SOL    HW1 1463   2.255   0.830   1.886  1.3834  0.8841 -0.8205
  488SOL    HW2 1464   2.179   0.692   1.829 -1.8613  0.5262  0.2794
  489SOL     OW 1465   0.738   2.416   0.467  0.5246  0.1135 -0.0696
  489SOL    HW1 1466   0.736   2.318   0.492  1.2579 -1.6292 -0.0681
  489SOL    HW2 1467   0.646   2.458   0.448 -1.9737 -2.7210  3.4742
  490SOL     OW 1468   2.060   1.594   2.841 -0.0224  0.1349  0.0215
  490SOL    HW1 1469   2.162   1.583   2.858  1.5181 -0.6199 -1.8427
  490SOL    HW2 1470   2.030   1.544   2.757  0.5811 -0.4775  0.7640
  491SOL     OW 1471   0.906   0.465   1.818 -0.0144  0.5387 -0.6915
  491SOL    HW1 1472   0.970   0.486   1.742  1.8529 -0.4954 -0.4394
  491SOL    HW2 1473   0.827   0.406   1.790 -3.2680  0.1405 -1.3084
  492SOL     OW 1474   2.070   1.765   0.830  0.1049 -0.1874 -0.9035
  492SOL    HW1 1475   2.131   1.790   0.905  1.0808  0.4148  0.3977
  492SOL    HW2 1476   2.024   1.676   0.853  1.8718  1.1633  1.0217
  493SOL     OW 1477   2.206   2.056   2.707 -0.2055  0.0024  0.5211
  493SOL    HW1 1478   2.233   1.993   2.777  0.6026  0.6064  2.3485
  493SOL    HW2 1479   2.113   2.046   2.678  2.9044 -0.1607 -2.4229
  494SOL     OW 1480   0.309   2.877   0.593  0.8531  0.0754  0.4186
  494SOL    HW1 1481   0.279   2.895   0.689 -0.4337  0.4950  0.2462
  494SOL    HW2 1482   0.308   2.776   0.576 -1.4512  2.6279 -0.5256
  495SOL     OW 1483   2.194   0.583   1.695 -0.3285 -0.3589 -0.8060
  495SOL    HW1 1484   2.119   0.599   1.633  0.3181 -0.8862  1.2893
  495SOL    HW2 1485   2.277   0.533   1.662  1.0958 -0.4103  3.9699
  496SOL     OW 1486   3.070   2.108   2.897  0.6807 -0.1255  0.4941
  496SOL    HW1 1487   3.114   2.200   2.904  0.3741 -1.5553 -1.7682
  496SOL    HW2 1488   2.988   2.104   2.833 -0.2519 -3.9623 -0.2224
  497SOL     OW 1489   1.803   0.544   1.938  0.2756 -0.3123 -0.3789
  497SOL    HW1 1490   1.855   0.471   1.888 -1.9784  1.0431  0.6518
  497SOL    HW2 1491   1.845   0.541   2.032 -1.0363 -0.5307 -0.8430
  498SOL     OW 1492   0.594   2.319   1.476  0.3993  0.2953 -0.0270
  498SOL    HW1 1493   0.536   2.354   1.398 -2.9439 -0.3809 -1.9488
  498SOL    HW2 1494   0.538   2.274   1.548  0.0401 -1.3707 -0.9300
  499SOL     OW 1495   0.349   1.659   1.596 -0.0374 -0.2964  0.0704
  499SOL    HW1 1496   0.313   1.631   1.509 -1.2109  1.2480  1.5354
  499SOL    HW2 1497   0.407   1.585   1.634  1.7524  3.3502 -1.9734
  500SOL     OW 1498   0.792   2.311   2.281  0.1274  0.7383 -0.2070
  500SOL    HW1 1499   0.699   2.346   2.283  0.7341  0.6385 -0.2136
  500SOL    HW2 1500   0.838   2.325   2.368 -1.1283 -0.9217  1.1272
  501SOL     OW 1501   1.646   2.495   0.481 -0.3772  0.5768 -0.4855
  501SOL    HW1 1502   1.650   2.533   0.391  0.8531 -0.8411 -2.1934
  501SOL    HW2 1503   1.631   2.393   0.475 -0.4814 -1.6202  0.6744
  502SOL     OW 1504   2.717   0.477   0.610 -0.6431  0.4989 -0.5980
  502SOL    HW1 1505   2.769   0.449   0.526  1.6095  0.4775  0.8709
  502SOL    HW2 1506   2.676   0.396   0.658  1.0992 -0.4714  2.4618
  503SOL     OW 1507   0.227   2.183   2.620  0.2235  0.2930 -0.4369
  503SOL    HW1 1508   0.144   2.225   2.573  1.7245  1.3706  1.1851
  503SOL    HW2 1509   0.316   2.223   2.591  2.4385  3.7661  2.1045
  504SOL     OW 1510   1.479   2.155   1.986 -0.8341 -0.2633  0.1868
  504SOL    HW1 1511   1.449   2.253   1.973 -1.9972 -3.9078 -0.8172
  504SOL    HW2 1512   1.418   2.107   2.046 -2.8735  0.7758  1.2836
  505SOL     OW 1513   2.348   2.296   2.354  0.0437 -0.0438  0.1212
  505SOL    HW1 1514   2.429   2.365   2.350  1.1379  0.5780 -0.4746
  505SOL    HW2 1515   2.356   2.236   2.436  1.4016  0.5155 -1.8830
  506SOL     OW 1516   0.266   0.291   1.974 -0.3317 -0.2921 -0.2054
  506SOL    HW1 1517   0.244   0.345   1.894 -1.7780  2.8632 -1.7979
  506SOL    HW2 1518   0.364   0.306   1.995 -0.6676 -2.6372  2.5567
  507SOL     OW 1519   1.785   0.846   0.778  0.0497 -0.1691  0.1126
  507SOL    HW1 1520   1.887   0.854   0.754 -0.2822  0.3904  0.3504
  507SOL    HW2 1521   1.734   0.840   0.690  0.4386  1.8731  1.1858
  508SOL     OW 1522   1.911   0.217   0.577 -0.7139 -0.2452  0.2383
  508SOL    HW1 1523   1.815   0.186   0.575 -0.4812 -1.0342  0.9520
  508SOL    HW2 1524   1.969   0.174   0.505 -1.9763 -2.2462  0.5212
  509SOL     OW 1525   1.676   1.674   0.128  0.1956  0.2211  0.4953
  509SOL    HW1 1526   1.777   1.662   0.144 -0.0571 -0.3530  0.4469
  509SOL    HW2 1527   1.618   1.590   0.154  1.9185 -0.4621 -1.9975
  510SOL     OW 1528   2.535   1.839   1.243 -0.8324 -0.3673 -0.0965
  510SOL    HW1 1529   2.588   1.805   1.167 -1.4198  0.1977 -0.8802
  510SOL    HW2 1530   2.474   1.766   1.274 -0.5406 -0.2248  2.2854
  511SOL     OW 1531   1.143   1.737   1.614 -0.3726  0.2426  0.0101
  511SOL    HW1 1532   1.189   1.791   1.539 -0.1443 -1.4297  0.4829
  511SOL    HW2 1533   1.193   1.750   1.705  1.1863  1.2951  0.3233
  512SOL     OW 1534   2.764   1.758   0.810 -0.0417 -0.2361 -0.4598
  512SOL    HW1 1535   2.729   1.745   0.899  0.6970 -0.5033  1.1403
  512SOL    HW2 1536   2.835   1.689   0.779 -1.3558  1.1359 -1.7328
  513SOL     OW 1537   1.295   0.246   1.356  0.5944 -0.5981  0.6719
  513SOL    HW1 1538   1.332   0.336   1.389 -1.3499 -1.9300  0.5367
  513SOL    HW2 1539   1.200   0.264   1.311 -1.6070  0.5293  0.1253
  514SOL     OW 1540   1.244   3.048   0.741  0.4301 -0.0583 -0.2810
  514SOL    HW1 1541   1.159   3.081   0.780 -0.7790 -2.4822  0.3848
  514SOL    HW2 1542   1.254   3.072   0.642 -0.3694 -0.9944  0.9665
  515SOL     OW 1543   0.495   0.196   0.370  0.5139 -0.2953  0.3133
  515SOL    HW1 1544   0.573   0.136   0.381 -2.5740  0.2956  0.6044
  515SOL    HW2 1545   0.431   0.152   0.303 -1.7689  0.0510 -1.9835
  516SOL     OW 1546   2.035   0.278   0.814 -0.8816  0.1376  0.2055
  516SOL    HW1 1547   1.977   0.319   0.886  0.3761 -1.3619  0.9619
  516SOL    HW2 1548   1.990   0.264   0.722 -0.4683 -1.2393 -0.2868
  517SOL     OW 1549   2.298   2.378   0.516  0.4543 -0.3584 -0.1278
  517SOL    HW1 1550   2.283   2.295   0.464  1.5097  1.0291  2.8224
  517SOL    HW2 1551   2.353   2.362   0.603 -1.3474  2.7736 -0.7253
  518SOL     OW 1552   0.935   2.672   0.755 -0.2154 -0.2715 -0.3409
  518SOL    HW1 1553   0.973   2.580   0.781 -0.5052  2.1088  1.0640
  518SOL    HW2 1554   0.832   2.661   0.734  1.1796 -2.3408 -2.4119
  519SOL     OW 1555   1.064   0.275   1.214 -0.1615 -0.3442  0.2358
  519SOL    HW1 1556   1.010   0.200   1.167 -0.5057  1.0831 -1.7929
  519SOL    HW2 1557   0.994   0.319   1.272 -2.9551 -1.7972 -1.1250
  520SOL     OW 1558   2.204   1.897   1.795  0.2536 -0.0514  0.1647
  520SOL    HW1 1559   2.198   1.997   1.824  2.7373 -0.6470 -1.4194
  520SOL    HW2 1560   2.289   1.861   1.836  2.1922  2.1473  0.9607
  521SOL     OW 1561   2.099   2.428   1.987  0.1566 -0.4056  0.2686
  521SOL    HW1 1562   1.999   2.401   1.996 -2.3706  0.0623 -1.9029
  521SOL    HW2 1563   2.146   2.395   1.899 -1.9042 -1.9864  1.6066
  522SOL     OW 1564   0.689   0.364   2.232 -0.2274  0.5046  0.0570
  522SOL    HW1 1565   0.708   0.314   2.320  1.2559 -0.3485  1.8172
  522SOL    HW2 1566   0.769   0.360   2.170 -0.9959  1.9897  0.3228
  523SOL     OW 1567   0.607   3.052   2.349  0.7553 -0.4742 -0.2835
  523SOL    HW1 1568   0.605   3.105   2.438  2.5452 -2.4405  0.5580
  523SOL    HW2 1569   0.531   3.082   2.288  2.1162  0.0293 -0.1917
  524SOL     OW 1570   1.877   0.074   1.051 -0.2123  0.1472  0.1116
  524SOL    HW1 1571   1.856   0.025   0.962 -1.3673  1.2493 -0.0394
  524SOL    HW2 1572   1.860   0.173   1.047  0.8455  0.1854  1.2924
  525SOL     OW 1573   2.798   0.818   1.677  0.2166 -0.3394 -0.0630
  525SOL    HW1 1574   2.829   0.903   1.634 -1.3298 -0.4118  1.5377
  525SOL    HW2 1575   2.832   0.738   1.629 -0.8731 -0.2848  1.6971
  526SOL     OW 1576   0.300   2.008   1.466  0.3093  0.3675  0.1988
  526SOL    HW1 1577   0.367   1.931   1.447  2.2440 -0.7030  1.1148
  526SOL    HW2 1578   0.206   1.989   1.429  1.2678 -2.3093 -0.5253
  527SOL     OW 1579   1.625   0.428   0.711  0.0231  0.5929 -0.4483
  527SOL    HW1 1580   1.703   0.488   0.715  0.9334 -0.3005 -1.6692
  527SOL    HW2 1581   1.626   0.376   0.797  1.4348 -1.5128  2.8023
  528SOL     OW 1582   1.625   1.564   2.311 -0.6468  0.3175  0.0185
  528SOL    HW1 1583   1.533   1.511   2.304  1.7028 -2.0381 -1.5414
  528SOL    HW2 1584   1.607   1.658   2.275 -1.2412  0.6184 -0.5627
  529SOL     OW 1585   0.184   1.073   0.506 -0.0335  0.2219  0.1339
  529SOL    HW1 1586   0.203   1.023   0.595 -0.2639 -0.1181 -1.2966
  529SOL    HW2 1587   0.133   1.162   0.519  1.4769  0.8790 -2.4111
  530SOL     OW 1588   1.377   0.475   1.508  0.1383 -0.0257 -0.3226
  530SOL    HW1 1589   1.478   0.475   1.522  3.3788 -2.7493 -1.9734
  530SOL    HW2 1590   1.324   0.503   1.590  1.0980  2.7110  1.5208
  531SOL     OW 1591   1.957   1.018   2.614 -0.6216  0.0312  0.0180
  531SOL    HW1 1592   2.050   0.998   2.576  0.0184  2.0080  1.6774
  531SOL    HW2 1593   1.963   1.085   2.695  1.1533 -2.2862 -1.3098
  532SOL     OW 1594   1.816   2.784   1.239 -0.4448  0.0230  0.4311
  532SOL    HW1 1595   1.752   2.706   1.249 -0.4964  1.7714 -0.8180
  532SOL    HW2 1596   1.767   2.869   1.268  2.4833 -0.0643 -0.3815
  533SOL     OW 1597   0.259   0.394   1.716  0.3785  0.0107  0.1113
  533SOL    HW1 1598   0.339   0.359   1.670 -0.8078  2.0866  0.6747
  533SOL    HW2 1599   0.184   0.406   1.648  1.7831  0.7609 -2.1826
  534SOL     OW 1600   2.787   2.553   2.418 -0.1961 -0.2471  0.8747
  534SOL    HW1 1601   2.867   2.569   2.360 -0.8552  0.6505  0.3199
  534SOL    HW2 1602   2.778   2.623   2.493 -1.7099  1.6648  0.0953
  535SOL     OW 1603   0.049   1.154   3.093  0.7368 -0.0745  0.0346
  535SOL    HW1 1604   0.064   1.254   3.088  0.0389  0.0642 -0.7269
  535SOL    HW2 1605   0.082   1.117   3.181  1.5013 -0.5867 -1.6794
  536SOL     OW 1606   1.057   2.927   1.135 -0.7756  0.2280 -0.2418
  536SOL    HW1 1607   1.011   2.851   1.090  1.7596 -1.8032  0.2452
  536SOL    HW2 1608   1.161   2.922   1.125  0.5505 -1.2210  0.9744
  537SOL     OW 1609   2.846   2.781   2.194  0.2833  0.2194 -0.3105
  537SOL    HW1 1610   2.883   2.858   2.134  2.4627  0.2082  0.4252
  537SOL    HW2 1611   2.925   2.726   2.233 -0.5758  2.6406 -0.4139
  538SOL     OW 1612   0.697   2.171   0.591 -0.3554  0.0628 -0.3410
  538SOL    HW1 1613   0.699   2.106   0.510  1.3676  0.7625 -1.1413
  538SOL    HW2 1614   0.609   2.205   0.620  1.0281  0.1149  0.8211
  539SOL     OW 1615   2.722   2.210   2.286 -0.1004 -0.1299 -0.1268
  539SOL    HW1 1616   2.742   2.220   2.384 -0.3546  1.3254  0.5811
  539SOL    HW2 1617   2.779   2.137   2.244 -0.2935 -1.0092  1.2570
  540SOL     OW 1618   2.338   0.628   0.324  0.5305  0.2790 -0.1617
  540SOL    HW1 1619   2.241   0.665   0.337  1.3428 -1.2468  1.6749
  540SOL    HW2 1620   2.370   0.587   0.412  1.7533  1.2159  0.6895
  541SOL     OW 1621   1.941   0.367   2.498 -0.6403  0.6102 -0.8978
  541SOL    HW1 1622   2.030   0.414   2.494  1.5770  0.5800 -0.7218
  541SOL    HW2 1623   1.952   0.268   2.495 -1.0607 -0.6293 -0.0163
  542SOL     OW 1624   1.784   2.001   2.225 -0.6214 -0.0707  0.3933
  542SOL    HW1 1625   1.733   2.094   2.217 -0.9151 -0.5509 -0.7636
  542SOL    HW2 1626   1.870   2.007   2.276 -0.6731  0.2070 -1.2438
  543SOL     OW 1627   0.943   3.079   0.473 -0.2626  0.1718 -0.3339
  543SOL    HW1 1628   1.034   3.111   0.444 -0.2446  0.4001  0.7241
  543SOL    HW2 1629   0.955   2.976   0.490  2.8484  0.1575  0.8330
  544SOL     OW 1630   0.218   1.932   2.471  0.0912  0.1918  0.0941
  544SOL    HW1 1631   0.234   1.996   2.549  2.9312  1.7413 -0.7617
  544SOL    HW2 1632   0.284   1.855   2.462  0.7231  3.5929 -1.7555
  545SOL     OW 1633   1.522   1.970   1.777  0.0883 -0.1484 -0.0833
  545SOL    HW1 1634   1.517   1.875   1.817 -0.0916  0.2743  1.5841
  545SOL    HW2 1635   1.508   2.032   1.854 -3.0823  0.6359 -0.3773
  546SOL     OW 1636   2.605   0.564   1.987 -0.3890  0.2598  0.7137
  546SOL    HW1 1637   2.577   0.625   1.906  1.2166 -2.7808 -0.3615
  546SOL    HW2 1638   2.632   0.625   2.063 -1.5441 -1.7186  1.0444
  547SOL     OW 1639   2.602   3.039   0.100 -0.0598 -0.2154 -0.2105
  547SOL    HW1 1640   2.672   3.108   0.092  2.8016  0.5471  1.3991
  547SOL    HW2 1641   2.607   3.004   0.196  2.8671  1.1441  0.3742
  548SOL     OW 1642   1.926   2.016   2.599 -0.1466  0.1533 -0.0766
  548SOL    HW1 1643   1.825   2.028   2.605  2.1323 -1.5174  1.6497
  548SOL    HW2 1644   1.949   2.058   2.505  1.4945  3.0128 -3.1270
  549SOL     OW 1645   2.888   0.491   0.388 -0.3315  0.0088  0.0756
  549SOL    HW1 1646   2.918   0.588   0.379 -1.0544 -0.0614  1.7253
  549SOL    HW2 1647   2.967   0.427   0.377  0.6233  1.8893  0.6306
  550SOL     OW 1648   2.433   2.310   1.281  0.1384  0.6231 -0.0331
  550SOL    HW1 1649   2.499   2.272   1.216  1.2201 -1.1302  1.3164
  550SOL    HW2 1650   2.351   2.255   1.291 -0.7457 -1.2508 -0.2768
  551SOL     OW 1651   0.701   0.354   1.627  0.0301 -0.2065 -0.5459
  551SOL    HW1 1652   0.684   0.455   1.636  2.3441 -0.7020 -0.9520
  551SOL    HW2 1653   0.609   0.307   1.634  1.3505  2.0113 -1.1331
  552SOL     OW 1654   1.524   1.460   0.152  0.1322  0.2415 -0.4275
  552SOL    HW1 1655   1.480   1.469   0.244  0.0849 -1.6474 -2.0209
  552SOL    HW2 1656   1.449   1.449   0.084  0.9873  0.3197 -1.2643
  553SOL     OW 1657   2.079   1.839   0.220 -0.2982  0.4937 -0.1689
  553SOL    HW1 1658   2.035   1.894   0.292  0.9567 -1.7648 -0.1597
  553SOL    HW2 1659   2.104   1.895   0.141  0.3405 -0.3690 -0.5898
  554SOL     OW 1660   2.516   1.499   1.754  0.3744 -0.5048 -0.2339
  554SOL    HW1 1661   2.456   1.469   1.834  2.8063 -2.6130 -1.6316
  554SOL    HW2 1662   2.453   1.525   1.678  0.1948 -0.5658  0.3811
  555SOL     OW 1663   0.823   2.219   1.804  0.9484  0.3863  0.3141
  555SOL    HW1 1664   0.888   2.157   1.760 -0.7320  2.5311 -0.0387
  555SOL    HW2 1665   0.796   2.182   1.894  0.0664 -1.0679 -1.2891
  556SOL     OW 1666   1.354   0.797   1.717  0.4313 -0.0090  0.1752
  556SOL    HW1 1667   1.294   0.866   1.663 -1.5282  2.4642 -0.4452
  556SOL    HW2 1668   1.430   0.754   1.661 -0.6773 -1.0065 -1.1463
  557SOL     OW 1669   1.311   2.998   1.442 -0.0573 -0.1393 -0.6483
  557SOL    HW1 1670   1.313   3.088   1.483 -1.1574  1.2260  0.7373
  557SOL    HW2 1671   1.215   2.970   1.411 -1.2728 -1.8186 -2.1004
  558SOL     OW 1672   0.305   0.672   1.800 -0.5371  0.4240 -0.2515
  558SOL    HW1 1673   0.295   0.574   1.772 -0.0547  1.1316 -1.5294
  558SOL    HW2 1674   0.216   0.717   1.806  0.7376  0.2833 -2.9267
  559SOL     OW 1675   1.111   2.308   2.663 -0.0512  0.3912  0.5535
  559SOL    HW1 1676   1.019   2.323   2.620 -2.5424  0.9360 -1.4154
  559SOL    HW2 1677   1.130   2.381   2.727  2.1665  0.7530  1.1810
  560SOL     OW 1678   1.931   1.600   0.179  0.2041 -0.7568 -0.4570
  560SOL    HW1 1679   1.959   1.530   0.108  2.4950  0.4185  1.1070
  560SOL    HW2 1680   1.998   1.677   0.176 -1.0486  0.2511 -1.9782
  561SOL     OW 1681   1.378   2.554   2.981 -0.5468  0.1621 -0.3088
  561SOL    HW1 1682   1.447   2.491   2.936  0.3605 -2.8955  0.6623
  561SOL    HW2 1683   1.392   2.651   2.945 -0.1564  0.0285  1.5192
  562SOL     OW 1684   1.253   1.283   2.637  0.3600 -0.1965  0.2464
  562SOL    HW1 1685   1.169   1.335   2.612  2.6132  0.3505  1.1541
  562SOL    HW2 1686   1.305   1.260   2.554 -0.3484  0.6062 -2.3073
  563SOL     OW 1687   0.972   2.499   2.124 -0.6764 -0.3836  0.4931
  563SOL    HW1 1688   1.018   2.577   2.178 -3.1089 -0.9921  0.2172
  563SOL    HW2 1689   0.899   2.446   2.179 -2.5860  0.5718  0.0961
  564SOL     OW 1690   1.742   1.220   1.768  0.1626 -0.0333 -0.4378
  564SOL    HW1 1691   1.764   1.155   1.686  0.4837  1.6967 -0.3491
  564SOL    HW2 1692   1.753   1.318   1.743  0.3410 -0.1827 -2.7660
  565SOL     OW 1693   1.701   2.851   2.998 -0.1505 -0.5896  0.1981
  565SOL    HW1 1694   1.699   2.861   2.899  0.5316 -1.7930  1.4447
  565SOL    HW2 1695   1.780   2.792   3.024  1.4911  0.6448 -0.7189
  566SOL     OW 1696   3.070   2.463   0.539  0.6193  0.4178 -0.2190
  566SOL    HW1 1697   2.987   2.415   0.572  1.3014 -1.1497  1.2547
  566SOL    HW2 1698   3.059   2.563   0.561 -0.1874 -2.9396 -0.6316
  567SOL     OW 1699   0.953   2.391   0.105  0.2531 -0.3358 -0.3800
  567SOL    HW1 1700   1.046   2.398   0.143 -0.3560  0.1895 -0.0197
  567SOL    HW2 1701   0.944   2.335   0.021 -3.6933  0.0476  1.0052
  568SOL     OW 1702   1.990   0.661   1.510 -0.0014 -0.0823 -0.1645
  568SOL    HW1 1703   1.975   0.646   1.406  2.2269  0.4105 -0.9735
  568SOL    HW2 1704   1.963   0.757   1.535  0.5811 -1.3139  0.9293
  569SOL     OW 1705   1.165   1.192   1.473 -0.3596 -0.1731  0.3117
  569SOL    HW1 1706   1.160   1.294   1.477  2.5695  2.4592  1.1234
  569SOL    HW2 1707   1.130   1.154   1.386  1.2027  0.3889  0.5151
  570SOL     OW 1708   2.341   2.701   1.565 -0.2251  0.2991  0.4769
  570SOL    HW1 1709   2.412   2.726   1.490  0.7311 -0.2031  0.6210
  570SOL    HW2 1710   2.370   2.731   1.657 -0.0843 -1.3438  0.3140
  571SOL     OW 1711   2.098   2.814   1.282  0.3553  0.4597  0.1575
  571SOL    HW1 1712   2.151   2.727   1.288 -0.0892 -1.0362  1.0426
  571SOL    HW2 1713   1.999   2.806   1.263  0.3329  0.7938  0.7670
  572SOL     OW 1714   1.791   2.393   2.599 -0.4987  0.3593  0.4406
  572SOL    HW1 1715   1.723   2.331   2.636 -0.7514  1.2081 -0.3796
  572SOL    HW2 1716   1.744   2.484   2.595  0.4179  1.3161  0.7153
  573SOL     OW 1717   0.915   2.624   1.873  0.1732 -0.3567 -0.1947
  573SOL    HW1 1718   0.891   2.721   1.885 -1.6573 -1.3365 -1.5937
  573SOL    HW2 1719   0.934   2.584   1.967  2.2819 -0.9754  0.2420
  574SOL     OW 1720   1.410   0.108   1.137 -0.1301  0.3624  0.1103
  574SOL    HW1 1721   1.397   0.149   1.041 -3.0330  1.2007 -3.2268
  574SOL    HW2 1722   1.347   0.156   1.201  0.9856  1.4512 -0.1648
  575SOL     OW 1723   0.026   0.519   1.087  0.0076  0.2553  0.1995
  575SOL    HW1 1724   0.061   0.571   1.169 -0.6465 -1.5378  0.2791
  575SOL    HW2 1725   0.009   0.419   1.106  0.3521 -0.8242  1.7844
  576SOL     OW 1726   2.198   1.791   1.074 -0.2728  0.1061 -0.0947
  576SOL    HW1 1727   2.171   1.697   1.093  1.4709  1.4483  1.1883
  576SOL    HW2 1728   2.200   1.844   1.160  0.4032 -2.0939  0.3304
  577SOL     OW 1729   2.294   0.394   0.056  0.6979  0.1113 -0.5473
  577SOL    HW1 1730   2.366   0.436  -0.010 -0.0826 -3.5292  2.4187
  577SOL    HW2 1731   2.340   0.383   0.146  0.5380  0.5010 -1.1808
  578SOL     OW 1732   1.231   2.561   2.430  0.5357  0.5167 -0.0028
  578SOL    HW1 1733   1.205   2.480   2.486  2.6541 -2.9060  1.0087
  578SOL    HW2 1734   1.153   2.602   2.376  1.3102  1.0115 -0.2917
  579SOL     OW 1735   0.338   1.688   1.213  0.0145 -0.2671 -0.2009
  579SOL    HW1 1736   0.401   1.753   1.272 -1.5052 -1.7335 -2.1478
  579SOL    HW2 1737   0.363   1.682   1.118  0.5406 -0.7223  0.8720
  580SOL     OW 1738   1.413   3.065   2.328 -0.6222 -0.2831 -0.1623
  580SOL    HW1 1739   1.449   2.988   2.269 -1.9122 -0.3239 -2.8232
  580SOL    HW2 1740   1.404   3.155   2.277 -2.9100  0.8538  2.3076
  581SOL     OW 1741   1.545   0.658   2.119 -0.1464 -0.1000 -0.8581
  581SOL    HW1 1742   1.557   0.564   2.079  1.3095  0.8527 -2.0611
  581SOL    HW2 1743   1.528   0.719   2.041  2.1941  0.1060  0.6537
  582SOL     OW 1744   1.055   0.843   1.191  0.0560  0.4729 -0.2876
  582SOL    HW1 1745   1.001   0.928   1.201 -1.7344  1.4694 -1.2280
  582SOL    HW2 1746   1.142   0.869   1.143 -0.6274  0.8681  0.3957
  583SOL     OW 1747   0.923   1.925   1.950  0.1766  0.5105 -0.6848
  583SOL    HW1 1748   0.880   2.003   2.004  1.4795  0.1774  0.9319
  583SOL    HW2 1749   1.000   1.883   2.001 -0.8816 -1.7169  0.8594
  584SOL     OW 1750   2.632   2.925   0.331 -0.6493  0.1910  0.8853
  584SOL    HW1 1751   2.540   2.883   0.348 -1.6213  1.6924 -0.5939
  584SOL    HW2 1752   2.711   2.862   0.358 -0.1959  0.0102 -0.7414
  585SOL     OW 1753   2.681   0.401   3.010  0.0697  0.1376  0.4260
  585SOL    HW1 1754   2.765   0.415   2.956  0.2371 -4.3800 -0.0247
  585SOL    HW2 1755   2.707   0.387   3.108  2.2608  2.4560 -0.4209
  586SOL     OW 1756   0.448   1.044   0.396  0.6491 -0.5018  0.0630
  586SOL    HW1 1757   0.482   0.949   0.421 -2.4606  0.1113  1.0920
  586SOL    HW2 1758   0.354   1.059   0.434 -2.7828  0.5963 -0.6199
  587SOL     OW 1759   1.293   2.460   0.546 -0.1367 -0.1494 -0.2195
  587SOL    HW1 1760   1.357   2.520   0.594  0.5367  0.4130 -2.7049
  587SOL    HW2 1761   1.274   2.375   0.597 -0.1641 -1.6583  0.3410
  588SOL     OW 1762   0.802   1.202   1.381 -0.1057  0.4245  0.1505
  588SOL    HW1 1763   0.777   1.298   1.368  2.0719 -2.0640  1.0716
  588SOL    HW2 1764   0.783   1.180   1.477  0.2752  2.2113 -0.2397
  589SOL     OW 1765   1.079   2.100   0.422 -0.5421  0.0722  0.4094
  589SOL    HW1 1766   1.121   2.156   0.496  0.5873  0.1229  1.5568
  589SOL    HW2 1767   1.094   1.999   0.440 -1.3886  2.2854  0.8802
  590SOL     OW 1768   1.475   1.097   0.707  0.1921 -0.6675  0.2723
  590SOL    HW1 1769   1.473   0.996   0.704 -1.4158  1.8049 -0.8161
  590SOL    HW2 1770   1.415   1.131   0.631 -1.6982 -1.4483 -1.7009
  591SOL     OW 1771   2.754   2.723   2.622 -0.3195 -0.3426 -0.4647
  591SOL    HW1 1772   2.695   2.807   2.615 -1.5117 -3.4120 -0.3972
  591SOL    HW2 1773   2.705   2.651   2.674  2.1371 -1.3217  1.3743
  592SOL     OW 1774   1.284   2.043   1.665 -0.0040  0.1145 -0.2783
  592SOL    HW1 1775   1.280   1.992   1.574 -0.2097 -0.2128  2.0367
  592SOL    HW2 1776   1.380   2.043   1.702  2.5759  1.6997 -0.7620
  593SOL     OW 1777   1.384   0.814   0.821 -0.3187 -0.7934  0.1511
  593SOL    HW1 1778   1.293   0.850   0.787  2.4227  0.9765 -0.9612
  593SOL    HW2 1779   1.420   0.743   0.756  0.1814 -1.2145  0.7459
  594SOL     OW 1780   0.515   0.785   2.188 -0.5374 -0.2101 -0.1025
  594SOL    HW1 1781   0.419   0.820   2.199  0.7465  0.7791  4.5717
  594SOL    HW2 1782   0.542   0.714   2.258  2.2540  1.8918 -2.2375
  595SOL     OW 1783   0.108   0.496   0.836  0.3496  0.2941  0.1393
  595SOL    HW1 1784   0.102   0.507   0.940  1.5565 -0.6287  0.3127
  595SOL    HW2 1785   0.054   0.569   0.789  1.9811  1.9194  0.8816
  596SOL     OW 1786   0.106   1.318   2.367  0.0444  0.1499  0.6704
  596SOL    HW1 1787   0.199   1.364   2.360  0.3302  0.7799  0.3346
  596SOL    HW2 1788   0.031   1.387   2.356 -2.0849 -1.2288  2.0467
  597SOL     OW 1789   1.490   2.023   0.918 -0.1684  0.0136  0.1798
  597SOL    HW1 1790   1.591   2.041   0.901  0.0828 -2.0634 -2.0629
  597SOL    HW2 1791   1.466   1.931   0.942  2.7969 -0.6332  0.8675
  598SOL     OW 1792   3.077   1.173   2.179  0.1896  0.1957  0.0235
  598SOL    HW1 1793   3.103   1.220   2.265  2.4825  1.9548  0.8982
  598SOL    HW2 1794   3.012   1.232   2.125 -2.8373 -1.5174 -0.7824
  599SOL     OW 1795   2.985   2.294   1.078  0.2350  0.0755  0.2719
  599SOL    HW1 1796   2.933   2.214   1.053  1.4123  1.9790 -0.4117
  599SOL    HW2 1797   2.957   2.371   1.018  0.7352 -0.8411 -1.6574
  600SOL     OW 1798   0.418   1.326   3.087 -0.0302 -0.5597  0.0818
  600SOL    HW1 1799   0.471   1.330   3.003 -5.0290 -0.6975  2.2277
  600SOL    HW2 1800   0.401   1.229   3.114  0.1137 -1.6961 -0.0310
  601SOL     OW 1801   2.378   1.053   2.677  0.5245 -0.1556 -0.2302
  601SOL    HW1 1802   2.342   1.014   2.763 -0.5473  1.0543 -0.3915
  601SOL    HW2 1803   2.301   1.045   2.609  1.2433  1.1381  2.2231
  602SOL     OW 1804   0.530   0.687   1.946  0.3434  0.4235 -0.3285
  602SOL    HW1 1805   0.512   0.734   2.034  0.5123 -0.0156  2.2082
  602SOL    HW2 1806   0.450   0.690   1.877  0.8550  0.4213 -2.8476
  603SOL     OW 1807   1.920   2.486   2.376 -0.0914 -0.1687 -0.2510
  603SOL    HW1 1808   2.005   2.441   2.346  1.6506  0.4730 -0.5187
  603SOL    HW2 1809   1.866   2.425   2.440  0.7809  0.9093  1.3270
  604SOL     OW 1810   0.511   2.410   2.293  0.1248 -0.8036 -0.0169
  604SOL    HW1 1811   0.521   2.434   2.193  0.4114 -1.8683  0.2559
  604SOL    HW2 1812   0.425   2.363   2.299  2.0944  0.9977  0.3866
  605SOL     OW 1813   2.849   2.755   0.812 -0.0625  0.7150  0.0750
  605SOL    HW1 1814   2.757   2.767   0.765 -2.2699  1.0024  1.5675
  605SOL    HW2 1815   2.921   2.822   0.789 -1.7051  0.8920  1.5925
  606SOL     OW 1816   0.237   2.310   2.256 -0.5238  0.8493 -0.1825
  606SOL    HW1 1817   0.263   2.215   2.241  1.1815 -0.2829  0.2610
  606SOL    HW2 1818   0.214   2.358   2.172 -0.4804 -0.0915 -0.5807
  607SOL     OW 1819   1.722   1.268   0.194 -0.4258 -0.4414 -0.6285
  607SOL    HW1 1820   1.743   1.207   0.119 -0.3378  0.4596  0.5626
  607SOL    HW2 1821   1.663   1.344   0.168  1.4568  0.0338 -2.8077
  608SOL     OW 1822   1.219   2.310   1.727  0.2031  0.1054  0.1498
  608SOL    HW1 1823   1.279   2.378   1.679 -1.4274 -3.0083 -0.7439
  608SOL    HW2 1824   1.233   2.215   1.687  2.1487  1.9627  2.5504
  609SOL     OW 1825   0.348   0.409   0.802 -0.1109  0.0474 -0.4392
  609SOL    HW1 1826   0.390   0.376   0.715  2.4017 -0.3426 -0.3220
  609SOL    HW2 1827   0.251   0.441   0.798 -0.6340 -0.9452  1.6489
  610SOL     OW 1828   1.026   2.056   2.686  0.1646  0.4694 -0.5096
  610SOL    HW1 1829   1.081   1.987   2.735 -0.8479 -2.7361 -0.1525
  610SOL    HW2 1830   1.073   2.146   2.683 -1.7393 -0.5545 -2.1435
  611SOL     OW 1831   1.768   0.935   2.400  0.2743 -0.1787 -0.4630
  611SOL    HW1 1832   1.848   0.957   2.457  0.6787 -0.1406  1.1132
  611SOL    HW2 1833   1.794   0.869   2.320 -1.5614  0.0613 -0.3207
  612SOL     OW 1834   1.180   2.026   3.026  0.1110  0.2012 -0.3167
  612SOL    HW1 1835   1.278   2.017   3.028  2.2594 -0.5759  1.0010
  612SOL    HW2 1836   1.140   1.981   3.108  1.3553  2.5163 -0.0886
  613SOL     OW 1837   1.740   1.567   2.555  0.2978  0.7689 -0.0673
  613SOL    HW1 1838   1.666   1.592   2.620 -1.6062 -3.4861  0.4259
  613SOL    HW2 1839   1.708   1.577   2.461  1.5158 -0.3852 -2.2462
  614SOL     OW 1840   1.968   2.290   1.266 -0.9182 -0.3235  0.0269
  614SOL    HW1 1841   1.958   2.368   1.204 -1.3048  1.6306  2.6226
  614SOL    HW2 1842   1.946   2.313   1.361  1.6856 -1.3802 -1.6553
  615SOL     OW 1843   2.230   1.237   0.072 -0.5245  0.1641 -0.2286
  615SOL    HW1 1844   2.235   1.136   0.090 -0.8613  0.1905  1.4171
  615SOL    HW2 1845   2.316   1.280   0.097  1.8969 -2.9465  0.8186
  616SOL     OW 1846   1.276   2.633   0.916  0.1718 -0.1322  0.3642
  616SOL    HW1 1847   1.261   2.654   1.013  2.5069 -0.7440 -0.1832
  616SOL    HW2 1848   1.188   2.613   0.867 -0.5647  1.3625  1.9813
  617SOL     OW 1849   0.037   1.933   0.480 -0.3024 -0.6491 -0.0519
  617SOL    HW1 1850   0.110   2.006   0.475 -0.1852 -1.6688  0.8510
  617SOL    HW2 1851   0.059   1.867   0.552  1.6176 -2.3114 -1.2040
  618SOL     OW 1852   3.055   0.746   0.933  0.3369 -0.4518 -0.7464
  618SOL    HW1 1853   3.030   0.717   0.835 -3.9889 -0.2565  2.3910
  618SOL    HW2 1854   3.071   0.666   0.995  1.3959  0.5948 -2.1908
  619SOL     OW 1855   0.122   1.869   2.885  0.0992  0.3996 -0.1653
  619SOL    HW1 1856   0.049   1.803   2.854 -2.7152  1.4260 -1.1191
  619SOL    HW2 1857   0.083   1.962   2.901 -0.9017 -1.6474  4.3272
  620SOL     OW 1858   2.322   1.280   2.873  0.2124  0.5521  0.2974
  620SOL    HW1 1859   2.363   1.237   2.789  1.1010  0.7015  3.4241
  620SOL    HW2 1860   2.326   1.216   2.952  0.0307  2.2165  0.9139
  621SOL     OW 1861   2.272   2.987   0.742 -0.4114  0.4906 -0.6163
  621SOL    HW1 1862   2.211   2.914   0.776 -2.0517  0.8210  0.7978
  621SOL    HW2 1863   2.248   3.074   0.791 -1.9516 -0.9490  1.5961
  622SOL     OW 1864   2.191   0.489   2.507 -0.6651  0.3083  0.6010
  622SOL    HW1 1865   2.213   0.581   2.466 -2.3949  2.3583  0.2359
  622SOL    HW2 1866   2.267   0.429   2.496  1.7404  2.3029 -0.4151
  623SOL     OW 1867   0.336   1.110   2.827  0.4478 -0.1319 -0.2855
  623SOL    HW1 1868   0.369   1.017   2.832  0.0654 -0.0503  0.3868
  623SOL    HW2 1869   0.234   1.111   2.844  1.1908 -3.7469  3.4474
  624SOL     OW 1870   2.022   0.615   2.857  0.2999  0.0985  0.3778
  624SOL    HW1 1871   1.942   0.662   2.812 -0.7576 -4.7625  1.2255
  624SOL    HW2 1872   2.031   0.633   2.960 -0.9874 -0.6476  0.6471
  625SOL     OW 1873   1.141   1.558   0.892  0.9294 -0.3644 -0.2966
  625SOL    HW1 1874   1.047   1.582   0.915 -0.8516 -2.4184  1.7074
  625SOL    HW2 1875   1.200   1.588   0.970 -0.7747 -0.4785  1.4631
  626SOL     OW 1876   2.057   1.708   2.245  0.0092  0.4610 -0.2745
  626SOL    HW1 1877   2.029   1.713   2.341 -0.7218 -1.3479  1.3484
  626SOL    HW2 1878   1.997   1.637   2.203  0.2990 -0.3057 -0.5766
  627SOL     OW 1879   0.592   1.467   2.031  0.0463 -0.1968 -0.1368
  627SOL    HW1 1880   0.657   1.491   1.953 -0.0964 -0.1266  0.3031
  627SOL    HW2 1881   0.547   1.553   2.066  0.2283  0.0348 -1.4523
  628SOL     OW 1882   1.959   0.925   1.640  0.2933 -0.7508 -0.2955
  628SOL    HW1 1883   1.901   1.002   1.605  0.8598  0.2513 -1.4014
  628SOL    HW2 1884   1.923   0.904   1.732  0.3950  2.3458  0.2050
  629SOL     OW 1885   0.041   1.010   0.933  0.7469 -0.1977 -0.1238
  629SOL    HW1 1886   0.019   0.909   0.931 -0.9933  0.6563 -4.3541
  629SOL    HW2 1887  -0.050   1.052   0.901  2.1603  1.4836  3.2164
  630SOL     OW 1888   1.018   2.040   1.726  0.3560  0.0852 -0.8945
  630SOL    HW1 1889   1.007   2.003   1.821  0.7092  1.9113  1.6229
  630SOL    HW2 1890   1.117   2.031   1.703  0.9794  1.5653  2.7039
  631SOL     OW 1891   2.647   0.301   1.689  0.5745 -0.1121  0.3339
  631SOL    HW1 1892   2.620   0.204   1.679 -0.1285 -0.9496 -0.9964
  631SOL    HW2 1893   2.696   0.309   1.783 -0.7812  0.9071 -0.7709
  632SOL     OW 1894   2.521   1.951   1.482  0.2335 -0.4862  0.1731
  632SOL    HW1 1895   2.589   1.905   1.546 -0.8387  0.3996  1.1896
  632SOL    HW2 1896   2.527   1.917   1.386 -0.3279  2.4271  1.8518
  633SOL     OW 1897   0.492   0.637   0.948 -0.2070 -0.4185  0.0422
  633SOL    HW1 1898   0.455   0.623   1.041 -2.8191 -1.0935 -0.3434
  633SOL    HW2 1899   0.454   0.572   0.881 -2.3609  1.2319  0.1756
  634SOL     OW 1900   0.948   1.737   0.899  0.0302  0.1825  0.6706
  634SOL    HW1 1901   0.977   1.789   0.983  4.5550 -0.2567  0.5024
  634SOL    HW2 1902   1.016   1.757   0.824  1.8230 -1.2787  0.2379
  635SOL     OW 1903   1.795   1.111   1.529  0.0424 -0.1634  0.4615
  635SOL    HW1 1904   1.855   1.187   1.488  3.1688  0.1548 -2.2205
  635SOL    HW2 1905   1.729   1.076   1.463  3.6120 -1.9073  0.5498
  636SOL     OW 1906   0.713   0.800   1.004 -0.3298  0.3973  0.1344
  636SOL    HW1 1907   0.627   0.751   0.998 -0.7657 -1.9594  0.2230
  636SOL    HW2 1908   0.793   0.731   1.007  1.2065  1.2139  2.0704
  637SOL     OW 1909   1.936   1.119   0.622  0.4399 -0.1742 -0.5671
  637SOL    HW1 1910   1.931   1.161   0.524 -1.8530  1.7373 -0.1251
  637SOL    HW2 1911   2.011   1.049   0.626  0.2393 -2.5405  1.6160
  638SOL     OW 1912   0.597   0.154   1.847  0.1391 -0.3524  0.6249
  638SOL    HW1 1913   0.524   0.088   1.875 -4.5207 -2.5539 -1.8091
  638SOL    HW2 1914   0.578   0.245   1.888  0.3499 -0.0664 -0.2265
  639SOL     OW 1915   0.745   2.559   1.412  0.1276  0.1316 -0.1138
  639SOL    HW1 1916   0.718   2.613   1.494 -0.3721  2.3569 -0.9459
  639SOL    HW2 1917   0.722   2.461   1.420 -1.0665 -1.5553 -2.9628
  640SOL     OW 1918   0.290   0.229   2.838  0.3101  0.9723 -0.1228
  640SOL    HW1 1919   0.285   0.333   2.835  2.0782  2.6736  0.4202
  640SOL    HW2 1920   0.256   0.189   2.748  0.6228 -1.0154 -0.2768
  641SOL     OW 1921   0.180   0.891   0.121 -0.6058 -0.0910  0.3377
  641SOL    HW1 1922   0.253   0.828   0.150  0.1620  1.8474 -0.1743
  641SOL    HW2 1923   0.141   0.929   0.205 -1.7322 -3.6591  0.4829
  642SOL     OW 1924   2.915   1.323   2.002  0.4215 -0.4339  0.1864
  642SOL    HW1 1925   2.981   1.403   2.004  1.0569 -2.4247 -0.1370
  642SOL    HW2 1926   2.914   1.292   1.907  0.0114 -0.5820  0.0893
  643SOL     OW 1927   0.501   2.268   2.534 -0.4258  0.0543 -0.1976
  643SOL    HW1 1928   0.501   2.329   2.453 -1.4292  0.9637  0.8446
  643SOL    HW2 1929   0.564   2.298   2.608  1.6792 -0.9774 -0.6473
  644SOL     OW 1930   0.617   1.213   2.523  0.0078 -0.0360 -0.1226
  644SOL    HW1 1931   0.719   1.213   2.527  0.6445  0.2450 -1.4896
  644SOL    HW2 1932   0.589   1.165   2.438  0.2106 -2.6490  1.0194
  645SOL     OW 1933   0.971   2.373   1.605  0.0839  0.3380 -0.0366
  645SOL    HW1 1934   1.060   2.358   1.654  0.9128 -2.7286 -2.7649
  645SOL    HW2 1935   0.895   2.356   1.671  2.1287 -0.5023  0.9233
  646SOL     OW 1936   1.434   0.946   0.046 -0.3796  0.1866 -0.2560
  646SOL    HW1 1937   1.339   0.974   0.039 -0.7237 -0.8173  1.2418
  646SOL    HW2 1938   1.469   0.895  -0.037 -0.7541 -2.0276 -0.5417
  647SOL     OW 1939   0.701   0.125   2.833  0.0422  0.2302 -0.0290
  647SOL    HW1 1940   0.761   0.204   2.841 -1.6569 -1.2343 -2.0209
  647SOL    HW2 1941   0.617   0.144   2.890  0.9550  1.0178  0.5224
  648SOL     OW 1942   0.093   1.059   1.208 -0.3798  0.1811 -0.3357
  648SOL    HW1 1943   0.091   1.032   1.107  1.2345 -0.6251 -1.1306
  648SOL    HW2 1944   0.170   1.026   1.263 -1.9305 -0.0228 -1.1649
  649SOL     OW 1945   2.440   2.561   2.875  0.2312  0.3764 -0.7478
  649SOL    HW1 1946   2.377   2.552   2.794 -1.0887  1.5259  1.7926
  649SOL    HW2 1947   2.537   2.560   2.851 -0.3124  0.1650 -0.2986
  650SOL     OW 1948   0.155   2.511   1.675 -0.4981  0.5934  0.2722
  650SOL    HW1 1949   0.103   2.580   1.731 -0.2202  1.6053 -0.7593
  650SOL    HW2 1950   0.249   2.506   1.698 -2.4088  0.8488  1.3669
  651SOL     OW 1951   1.517   0.951   2.504 -0.7173 -0.7876 -0.0579
  651SOL    HW1 1952   1.468   0.883   2.447  1.7758  2.5382  0.0032
  651SOL    HW2 1953   1.620   0.931   2.497  0.1802  1.0773 -0.3077
  652SOL     OW 1954   0.837   2.232   1.431  0.0806  0.0494 -0.6966
  652SOL    HW1 1955   0.903   2.288   1.482  0.7831 -1.0201  0.0524
  652SOL    HW2 1956   0.739   2.265   1.440  0.9620 -2.3285 -1.2797
  653SOL     OW 1957   2.233   2.182   0.955  0.5438  0.0377  0.6562
  653SOL    HW1 1958   2.263   2.093   0.911 -0.7853  2.0808 -1.0344
  653SOL    HW2 1959   2.248   2.180   1.056 -1.2376 -0.3896  2.1092
  654SOL     OW 1960   1.267   2.915   2.510 -0.4568 -0.0714  0.1717
  654SOL    HW1 1961   1.291   2.925   2.605 -1.8833 -0.7643 -1.5170
  654SOL    HW2 1962   1.303   2.989   2.446  0.3558  1.1413  1.0170
  655SOL     OW 1963   2.639   2.277   1.070 -0.2876 -0.7290  0.0394
  655SOL    HW1 1964   2.723   2.226   1.049  0.1378 -0.4235  0.9616
  655SOL    HW2 1965   2.667   2.369   1.107  1.8534  3.2446 -4.3014
  656SOL     OW 1966   2.199   0.968   2.479  0.3673 -0.3189 -0.1541
  656SOL    HW1 1967   2.168   1.034   2.404  0.3381 -2.7923 -2.0888
  656SOL    HW2 1968   2.211   0.872   2.446 -0.6699 -0.5338  0.5329
  657SOL     OW 1969   2.491   0.685   0.115 -0.1997 -0.3272  0.9122
  657SOL    HW1 1970   2.446   0.635   0.039 -1.9621  0.4493  1.5631
  657SOL    HW2 1971   2.442   0.662   0.204  1.3760  0.0177 -2.6892
  658SOL     OW 1972   0.838   1.420   0.021 -0.2763 -0.2506  0.3316
  658SOL    HW1 1973   0.782   1.506   0.038 -0.6423 -0.8929  2.5034
  658SOL    HW2 1974   0.794   1.367  -0.058  0.4311 -1.0151 -1.4111
  659SOL     OW 1975   1.064   2.896   1.405 -0.5584  0.2833  0.0156
  659SOL    HW1 1976   1.065   2.799   1.431  1.0213 -1.6003  0.3573
  659SOL    HW2 1977   1.063   2.905   1.300  0.2062 -1.6600  1.4221
  660SOL     OW 1978   2.452   2.987   2.984 -0.6720 -0.4348  0.1650
  660SOL    HW1 1979   2.411   3.080   2.970  2.2139  1.2049 -1.6837
  660SOL    HW2 1980   2.498   2.984   3.075  0.5176 -0.0517 -1.4874
  661SOL     OW 1981   3.028   1.664   0.432 -0.4134 -0.4186  0.5577
  661SOL    HW1 1982   3.134   1.653   0.433 -1.8676 -1.2158 -0.7568
  661SOL    HW2 1983   3.000   1.742   0.371  0.4331 -0.9220 -0.7061
  662SOL     OW 1984   1.881   1.253   2.153  0.4731  0.6291  0.1682
  662SOL    HW1 1985   1.916   1.234   2.060 -3.1330  1.8908  0.5054
  662SOL    HW2 1986   1.885   1.354   2.171  1.2162 -0.4343  0.9287
  663SOL     OW 1987   1.616   1.268   1.024 -0.0685  0.3319 -0.2981
  663SOL    HW1 1988   1.637   1.190   1.083  1.9491 -2.4872  0.1924
  663SOL    HW2 1989   1.679   1.278   0.951  2.4866 -1.7203 -0.9163
  664SOL     OW 1990   1.643   0.779   1.600 -0.1860 -0.3597  0.3892
  664SOL    HW1 1991   1.707   0.808   1.678  1.9312  0.7712 -1.2935
  664SOL    HW2 1992   1.652   0.679   1.578  0.6965  1.1789  1.6660
  665SOL     OW 1993   1.470   2.433   2.286  0.3871  0.3150  0.2004
  665SOL    HW1 1994   1.558   2.481   2.283 -2.3389 -2.9935 -2.6486
  665SOL    HW2 1995   1.405   2.462   2.363 -0.3082  2.6221  1.6581
  666SOL     OW 1996   0.428   3.043   1.576  0.1830 -0.5706  0.5823
  666SOL    HW1 1997   0.493   3.023   1.498  0.6466 -0.0985 -1.0275
  666SOL    HW2 1998   0.335   3.006   1.560 -2.2822 -2.4722  0.0910
  667SOL     OW 1999   1.996   1.203   1.908  0.0205 -0.1264 -0.1884
  667SOL    HW1 2000   2.053   1.282   1.879 -1.3723  0.8875 -1.2504
  667SOL    HW2 2001   1.908   1.206   1.859 -2.1358  1.4090 -0.7355
  668SOL     OW 2002   2.722   1.488   1.259  0.1714  0.4028 -0.1571
  668SOL    HW1 2003   2.798   1.516   1.323  2.9271  1.4380  1.2405
  668SOL    HW2 2004   2.682   1.399   1.288  0.3823  1.3911  0.4796
  669SOL     OW 2005   2.518   2.109   0.340  0.6436  0.6326  0.4641
  669SOL    HW1 2006   2.560   2.204   0.321  1.9875  0.2245 -0.1825
  669SOL    HW2 2007   2.419   2.113   0.320 -2.7645 -1.1219  0.3858
  670SOL     OW 2008   2.160   1.913   1.332 -0.1524 -0.0776 -0.4534
  670SOL    HW1 2009   2.073   1.969   1.334 -1.1426 -2.2449  2.8987
  670SOL    HW2 2010   2.178   1.870   1.423  2.0788 -0.3409  1.4832
  671SOL     OW 2011   2.384   2.371   0.774 -0.1773  0.3085 -0.2150
  671SOL    HW1 2012   2.404   2.453   0.829  1.0371 -2.6731  1.2343
  671SOL    HW2 2013   2.340   2.306   0.838 -3.1226  1.0187  0.3041
  672SOL     OW 2014   1.162   0.971   1.624  0.7458 -0.6129  0.0274
  672SOL    HW1 2015   1.163   1.042   1.556 -1.3492 -2.7672  1.6928
  672SOL    HW2 2016   1.174   1.021   1.716 -0.2000 -1.2268  3.5461
  673SOL     OW 2017   0.915   0.090   1.082  0.2543 -0.0619 -0.4401
  673SOL    HW1 2018   0.934  -0.012   1.092 -2.4260  0.8111 -2.9145
  673SOL    HW2 2019   0.818   0.124   1.084  0.7602 -1.1759 -3.7987
  674SOL     OW 2020   2.553   0.722   1.786 -0.5084 -0.1416 -0.4723
  674SOL    HW1 2021   2.487   0.800   1.792 -3.0042  0.6228  0.5115
  674SOL    HW2 2022   2.642   0.751   1.733  0.6304  2.1412 -0.0631
  675SOL     OW 2023   2.419   1.211   1.080 -0.2415  0.2949 -0.4006
  675SOL    HW1 2024   2.488   1.276   1.032 -3.9104  2.5889  0.4057
  675SOL    HW2 2025   2.321   1.247   1.079 -1.3719  1.9585 -0.7042
  676SOL     OW 2026   2.729   1.654   1.780 -0.7690  0.4706 -0.3609
  676SOL    HW1 2027   2.642   1.598   1.789 -0.4497 -0.5867 -3.4448
  676SOL    HW2 2028   2.786   1.609   1.711 -1.6237  1.4964 -1.0843
  677SOL     OW 2029   2.325   0.130   3.047 -0.8231  0.4023 -0.8294
  677SOL    HW1 2030   2.324   0.213   3.106  1.5467 -1.5830  1.8341
  677SOL    HW2 2031   2.254   0.136   2.974  0.1746 -1.3355  2.4448
  678SOL     OW 2032   1.995   1.271   1.420 -0.4816 -0.6004  0.3968
  678SOL    HW1 2033   2.070   1.299   1.485 -2.1238 -2.2031  0.9457
  678SOL    HW2 2034   1.960   1.358   1.379  0.1105 -0.4503 -0.6989
  679SOL     OW 2035   0.328   3.063   1.039 -0.5721  0.1973 -0.7223
  679SOL    HW1 2036   0.307   3.160   1.011 -0.6972 -0.9874  2.4211
  679SOL    HW2 2037   0.429   3.056   1.046 -1.2083  1.7409 -1.2137
  680SOL     OW 2038   2.633   0.994   1.023  0.0972  0.2629 -0.0262
  680SOL    HW1 2039   2.647   0.977   1.123  1.9747  1.9280  1.9808
  680SOL    HW2 2040   2.539   1.031   1.002 -1.2970 -1.6247 -3.1048
  681SOL     OW 2041   1.046   0.618   0.837 -0.5631 -0.4750  0.2366
  681SOL    HW1 2042   1.092   0.705   0.824  1.0946  0.5420 -0.0614
  681SOL    HW2 2043   0.976   0.605   0.765 -0.5223  2.7089  0.5705
  682SOL     OW 2044   2.037   2.711   0.591  0.3252 -0.8520 -0.3036
  682SOL    HW1 2045   1.986   2.793   0.561 -1.2551 -0.9220  2.0999
  682SOL    HW2 2046   2.113   2.696   0.523 -1.1115 -0.6718  0.5400
  683SOL     OW 2047   1.967   2.494   1.055  0.1838 -0.2724 -0.0808
  683SOL    HW1 2048   1.954   2.406   1.008 -3.3703 -1.6112 -1.3765
  683SOL    HW2 2049   1.947   2.578   1.003  3.3278 -1.2294  2.0836
  684SOL     OW 2050   2.710   2.530   1.135 -0.1156 -0.2208 -0.2576
  684SOL    HW1 2051   2.765   2.523   1.051 -0.6196 -0.1251 -2.3094
  684SOL    HW2 2052   2.617   2.574   1.109  0.2391  0.9538  0.4550
  685SOL     OW 2053   2.025   1.188   2.814 -0.7334  0.1610 -0.0157
  685SOL    HW1 2054   1.986   1.171   2.911  2.4883 -1.5600 -0.8238
  685SOL    HW2 2055   2.124   1.212   2.820  0.2181 -1.3633  0.4304
  686SOL     OW 2056   0.918   1.748   2.420  0.0375  0.2347 -0.0612
  686SOL    HW1 2057   0.948   1.840   2.427 -2.8239  0.6046  0.2938
  686SOL    HW2 2058   0.915   1.702   2.511 -0.8413  0.1888  2.5775
  687SOL     OW 2059   1.851   2.910   2.554 -0.0941  0.0397  0.1770
  687SOL    HW1 2060   1.918   2.894   2.632 -0.3242  0.7154 -1.4296
  687SOL    HW2 2061   1.889   2.862   2.471  1.8006  2.9562  0.8115
  688SOL     OW 2062   1.237   1.066   2.807  0.0615 -0.4149 -0.0407
  688SOL    HW1 2063   1.220   1.139   2.731 -0.6718 -2.1784 -3.1499
  688SOL    HW2 2064   1.185   0.985   2.780  0.6077  0.0350 -1.4527
  689SOL     OW 2065   0.741   1.577   1.829  0.0212 -0.1609 -0.8065
  689SOL    HW1 2066   0.730   1.676   1.812  1.0470 -2.8812  2.9751
  689SOL    HW2 2067   0.822   1.543   1.777 -0.8114 -2.3328  2.3841
  690SOL     OW 2068   2.051   1.676   1.895  0.7399  0.0162 -0.5702
  690SOL    HW1 2069   2.123   1.747   1.883  1.6903  2.1165 -1.4679
  690SOL    HW2 2070   1.991   1.702   1.970  1.8090 -3.4146  2.4448
  691SOL     OW 2071   2.933   1.867   1.103 -0.2816  0.6153  0.5826
  691SOL    HW1 2072   3.028   1.831   1.102 -1.4325 -2.5521  1.5623
  691SOL    HW2 2073   2.906   1.891   1.195 -0.5007  0.8505  2.3427
  692SOL     OW 2074   2.943   2.983   0.071  0.2673 -0.5811 -0.2577
  692SOL    HW1 2075   2.880   3.060   0.090 -1.4896 -0.5399  0.5075
  692SOL    HW2 2076   2.964   2.982  -0.029  0.4976 -3.0295  1.2079
  693SOL     OW 2077   3.018   1.501   2.304  0.6372 -0.5070 -0.1839
  693SOL    HW1 2078   3.065   1.578   2.250 -2.6454  0.1558  2.0562
  693SOL    HW2 2079   2.919   1.496   2.274  0.1945  0.2511 -0.3013
  694SOL     OW 2080   2.429   0.604   1.375  0.0190  0.4159  0.1817
  694SOL    HW1 2081   2.446   0.598   1.476  1.7686  0.0165  0.4497
  694SOL    HW2 2082   2.413   0.703   1.350  0.3551 -1.9449 -0.7029
  695SOL     OW 2083   1.426   0.242   2.240  0.3508  0.8613 -0.5838
  695SOL    HW1 2084   1.370   0.329   2.238  1.8277 -0.9889  2.8141
  695SOL    HW2 2085   1.527   0.250   2.250  1.0751 -1.0624 -0.5371
  696SOL     OW 2086   1.890   2.737   0.974  0.4415 -0.1743  0.1238
  696SOL    HW1 2087   1.866   2.822   0.923 -1.0948 -2.4526  2.0158
  696SOL    HW2 2088   1.850   2.747   1.065 -0.5289 -1.7402 -2.3208
  697SOL     OW 2089   2.078   1.122   2.280 -0.0604  0.1613  0.4379
  697SOL    HW1 2090   2.110   1.072   2.195  3.2022  0.5226 -0.0884
  697SOL    HW2 2091   2.011   1.196   2.247  0.0046  1.6681 -0.2270
  698SOL     OW 2092   3.072   1.492   2.650 -0.1266 -0.0651 -0.4074
  698SOL    HW1 2093   3.093   1.511   2.556 -2.0483  0.8279 -1.6790
  698SOL    HW2 2094   2.974   1.470   2.669  3.5042  0.8717  0.9720
  699SOL     OW 2095   1.686   0.490   2.690 -0.8375  0.7052  0.0264
  699SOL    HW1 2096   1.727   0.572   2.643  2.3132  1.7267  1.3185
  699SOL    HW2 2097   1.584   0.494   2.693  1.1612 -2.0166  0.6681
  700SOL     OW 2098   0.788   1.027   0.573 -0.1972 -0.2150 -0.1588
  700SOL    HW1 2099   0.849   1.029   0.490 -1.5352 -0.6943 -0.7536
  700SOL    HW2 2100   0.757   1.123   0.590  0.2013  0.8625 -0.8687
  701SOL     OW 2101   3.075   0.314   0.360  0.2635 -0.0456 -0.3111
  701SOL    HW1 2102   3.035   0.228   0.402  2.6481  2.3643 -1.6316
  701SOL    HW2 2103   3.106   0.299   0.264 -0.0631  1.0225  3.0594
  702SOL     OW 2104   1.401   2.967   1.906  0.4197  0.2093 -0.2926
  702SOL    HW1 2105   1.416   3.062   1.941 -1.6810 -0.0867 -0.2411
  702SOL    HW2 2106   1.319   2.956   1.847  2.0342  1.8422  3.0721
  703SOL     OW 2107   2.602   2.944   1.250  0.1434 -0.2059 -0.0913
  703SOL    HW1 2108   2.651   3.013   1.307 -0.9285 -0.9530 -0.4997
  703SOL    HW2 2109   2.514   2.984   1.225  1.8573  0.8915  0.5388
  704SOL     OW 2110   0.968   2.808   0.507 -0.8010 -0.7587  0.8810
  704SOL    HW1 2111   1.040   2.753   0.463  0.6513  0.0748  1.7666
  704SOL    HW2 2112   0.942   2.771   0.596 -0.2353 -0.8228 -0.9978
  705SOL     OW 2113   0.191   2.265   0.587 -0.1168  0.2745  0.0185
  705SOL    HW1 2114   0.136   2.343   0.556 -1.2034 -3.2242 -0.5174
  705SOL    HW2 2115   0.160   2.218   0.670  2.2361  2.2256  3.7694
  706SOL     OW 2116   0.372   0.777   0.741 -0.2785 -0.8050  0.5920
  706SOL    HW1 2117   0.376   0.723   0.824  0.9692  0.2542 -0.8048
  706SOL    HW2 2118   0.318   0.863   0.762 -0.8641 -1.5440 -1.3589
  707SOL     OW 2119   2.594   2.436   2.271  0.0620 -0.1432  0.3464
  707SOL    HW1 2120   2.637   2.338   2.269  1.2227 -1.6313  2.2964
  707SOL    HW2 2121   2.646   2.489   2.342 -1.2558  2.0619  1.3817
  708SOL     OW 2122   2.305   1.012   0.801 -0.4988  0.2883 -0.0926
  708SOL    HW1 2123   2.301   1.115   0.807 -1.3270 -1.5467 -0.6147
  708SOL    HW2 2124   2.388   0.984   0.749 -2.9778  1.4698  0.3568
  709SOL     OW 2125   0.230   0.134   0.715 -0.2204  0.0740 -0.2829
  709SOL    HW1 2126   0.220   0.151   0.813  1.6873 -0.0457  2.5389
  709SOL    HW2 2127   0.328   0.107   0.696  2.4825  3.0850  0.9376
  710SOL     OW 2128   0.874   0.507   0.258  0.0675 -0.2873  0.9429
  710SOL    HW1 2129   0.947   0.576   0.255 -0.8241 -1.8889 -1.1554
  710SOL    HW2 2130   0.797   0.541   0.311 -0.2346 -0.6694 -0.3987
  711SOL     OW 2131   0.525   1.830   1.360 -0.1721  0.9748 -0.1517
  711SOL    HW1 2132   0.575   1.773   1.428 -1.8131 -2.3029 -0.9272
  711SOL    HW2 2133   0.583   1.907   1.326 -0.1493  0.0112 -1.0099
  712SOL     OW 2134   3.088   0.652   1.731  0.6105  0.4448  0.2168
  712SOL    HW1 2135   3.108   0.750   1.738  0.8209 -1.4575  1.5327
  712SOL    HW2 2136   3.017   0.637   1.660 -0.4706  0.4942 -3.0154
  713SOL     OW 2137   1.596   0.566   0.411 -0.1108  0.3939  0.1760
  713SOL    HW1 2138   1.520   0.494   0.414  0.0582 -1.4406  0.2701
  713SOL    HW2 2139   1.561   0.634   0.343  0.8935 -0.7632 -1.3183
  714SOL     OW 2140   1.534   1.626   2.739  0.3337  0.0986 -0.0995
  714SOL    HW1 2141   1.482   1.539   2.764 -0.3746  1.3213  1.3582
  714SOL    HW2 2142   1.574   1.660   2.823 -0.5113  0.3268  3.0786
  715SOL     OW 2143   2.978   0.625   0.701  0.1343  0.3407 -0.2265
  715SOL    HW1 2144   3.016   0.585   0.611 -2.5776  0.1766  0.9256
  715SOL    HW2 2145   2.884   0.591   0.710  0.3102  2.0791  2.7988
  716SOL     OW 2146   0.118   1.020   1.580  0.5302 -0.5455 -0.0096
  716SOL    HW1 2147   0.133   0.970   1.666  2.8849 -0.3091  0.9119
  716SOL    HW2 2148   0.176   0.977   1.507 -3.4170 -0.0332  1.2910
  717SOL     OW 2149   1.290   0.490   1.970  0.0348  0.9534  0.3350
  717SOL    HW1 2150   1.393   0.504   1.955  3.1042 -2.7705  0.8355
  717SOL    HW2 2151   1.270   0.486   2.070 -2.2795 -1.6059 -1.6217
  718SOL     OW 2152   1.862   2.962   0.800 -0.6095 -0.4895  0.0201
  718SOL    HW1 2153   1.773   3.019   0.810 -0.4535  1.4227 -0.4231
  718SOL    HW2 2154   1.873   2.930   0.705 -0.1506 -1.2340  2.9823
  719SOL     OW 2155   0.431   1.664   2.743  0.0876 -0.2441  0.0979
  719SOL    HW1 2156   0.414   1.733   2.816 -1.4093  2.3922  2.6130
  719SOL    HW2 2157   0.357   1.594   2.753  0.7130  3.0801 -1.5836
  720SOL     OW 2158   0.717   2.835   2.182 -0.2729 -0.2795  0.4888
  720SOL    HW1 2159   0.809   2.839   2.132 -0.1484  0.3993 -0.9639
  720SOL    HW2 2160   0.677   2.924   2.209  1.3421 -0.7811  0.3132
  721SOL     OW 2161   0.251   2.739   2.083  0.1407  0.1670 -0.8581
  721SOL    HW1 2162   0.177   2.803   2.051  2.3455 -0.0541  2.4651
  721SOL    HW2 2163   0.337   2.752   2.031  2.4449  2.9005  1.7319
  722SOL     OW 2164   0.849   1.159   1.891 -0.5481 -0.5308  0.1896
  722SOL    HW1 2165   0.864   1.257   1.921 -0.2573  0.7192 -0.5660
  722SOL    HW2 2166   0.941   1.109   1.880 -1.1925  2.6367  0.6644
  723SOL     OW 2167   0.356   1.378   0.930  0.5542 -1.2539 -0.4551
  723SOL    HW1 2168   0.273   1.389   0.992  1.2668 -1.0947  0.4269
  723SOL    HW2 2169   0.387   1.279   0.943 -1.6278 -2.7351 -1.0245
  724SOL     OW 2170   1.633   1.529   0.782  0.3943  0.0250  0.5623
  724SOL    HW1 2171   1.625   1.572   0.691  0.4996 -1.0519 -1.0609
  724SOL    HW2 2172   1.622   1.427   0.781  2.0183  0.7549  0.9079
  725SOL     OW 2173   2.065   0.887   0.734 -0.8199 -0.8220  0.0766
  725SOL    HW1 2174   2.150   0.935   0.761  0.0155  1.2782 -1.9975
  725SOL    HW2 2175   2.078   0.794   0.685  1.6581  0.6278 -1.6515
  726SOL     OW 2176   1.670   0.804   0.523 -0.4875 -0.0117  0.2508
  726SOL    HW1 2177   1.724   0.823   0.437  1.8011 -1.5573  0.2943
  726SOL    HW2 2178   1.634   0.711   0.520 -0.5164  0.5664  0.6789
  727SOL     OW 2179   2.856   0.466   2.760 -0.7698  0.2220 -0.3222
  727SOL    HW1 2180   2.777   0.452   2.697  0.1545 -0.9200  0.8452
  727SOL    HW2 2181   2.870   0.567   2.769  0.2730 -0.9585  2.5266
  728SOL     OW 2182   1.453   2.604   1.373 -0.0522  0.2763  0.5706
  728SOL    HW1 2183   1.549   2.562   1.363  0.4897  1.4344  1.9007
  728SOL    HW2 2184   1.470   2.704   1.374 -0.5445  5.5480 -1.5985
  729SOL     OW 2185   1.497   1.282   2.096 -0.2002  1.1833 -0.3212
  729SOL    HW1 2186   1.458   1.363   2.145  0.5680 -0.8867 -2.1676
  729SOL    HW2 2187   1.569   1.228   2.143  2.1517 -0.5602  1.8285
  730SOL     OW 2188   1.085   0.483   1.569 -0.1213 -0.0051  0.0986
  730SOL    HW1 2189   1.013   0.433   1.511  0.5375  1.8077 -0.9482
  730SOL    HW2 2190   1.091   0.577   1.524  0.6382 -0.7316 -0.0023
  731SOL     OW 2191   0.837   2.707   0.095 -0.0397 -0.1523 -0.9450
  731SOL    HW1 2192   0.747   2.761   0.094 -2.8608 -0.9369 -0.6355
  731SOL    HW2 2193   0.844   2.652   0.182 -4.4009  0.5966  1.3793
  732SOL     OW 2194   2.933   1.100   0.214  0.3955  0.4560  0.6571
  732SOL    HW1 2195   2.990   1.183   0.233  1.1905 -0.8870  0.1442
  732SOL    HW2 2196   2.989   1.018   0.225  1.3017 -2.1854 -1.2104
  733SOL     OW 2197   2.340   1.581   2.194 -0.0447  0.0964 -0.1791
  733SOL    HW1 2198   2.249   1.629   2.209 -0.6731 -0.0021 -0.0696
  733SOL    HW2 2199   2.358   1.523   2.278  0.9409  0.7549  0.3211
  734SOL     OW 2200   0.587   1.875   0.019  0.0558  0.1294 -0.0759
  734SOL    HW1 2201   0.550   1.867  -0.075 -1.5860 -0.3673 -0.8850
  734SOL    HW2 2202   0.511   1.892   0.084  0.3913  0.1568  1.2151
  735SOL     OW 2203   0.907   2.744   1.019  0.5305  0.0020  0.8108
  735SOL    HW1 2204   0.893   2.769   0.924 -3.9157  1.6627  0.0052
  735SOL    HW2 2205   0.892   2.648   1.041  1.6826 -1.5671  2.9000
  736SOL     OW 2206   1.774   1.468   1.652 -0.0786  0.1037  0.0320
  736SOL    HW1 2207   1.838   1.536   1.610 -1.7936  2.2548 -0.5792
  736SOL    HW2 2208   1.697   1.443   1.591  0.5633  0.6492 -1.6888
  737SOL     OW 2209   3.026   1.547   0.954 -0.0569 -0.2313 -0.3637
  737SOL    HW1 2210   3.070   1.631   0.993  1.9414 -1.5549  1.4330
  737SOL    HW2 2211   3.006   1.557   0.855  0.3692  3.8095 -1.0642
  738SOL     OW 2212   0.436   2.006   1.837  0.8483  0.0366  0.3196
  738SOL    HW1 2213   0.422   2.095   1.791  4.2130  0.0953  2.6558
  738SOL    HW2 2214   0.365   1.936   1.804  0.5564  1.8918  2.0033
  739SOL     OW 2215   1.917   2.619   2.967 -0.4406  0.1099  1.1579
  739SOL    HW1 2216   1.929   2.532   3.017  0.0750 -0.7440  0.2559
  739SOL    HW2 2217   1.969   2.615   2.880 -0.9804  0.9042  0.5024
  740SOL     OW 2218   2.480   1.920   0.540 -0.5485 -0.0544 -0.7097
  740SOL    HW1 2219   2.525   1.829   0.532 -1.2774 -2.2712  1.1823
  740SOL    HW2 2220   2.508   1.980   0.465  1.1564 -0.2262 -3.2883
  741SOL     OW 2221   2.991   0.205   3.000 -0.5463  0.0823 -0.3301
  741SOL    HW1 2222   3.090   0.186   2.983  1.3764 -3.2088 -1.4205
  741SOL    HW2 2223   2.984   0.306   3.015 -1.4362 -1.3135 -0.1607
  742SOL     OW 2224   1.334   1.729   2.593 -0.3027  0.1781 -0.1064
  742SOL    HW1 2225   1.271   1.773   2.664  0.0784 -0.2964  1.1695
  742SOL    HW2 2226   1.418   1.687   2.640 -0.8092 -1.5814  0.1679
  743SOL     OW 2227   0.105   1.087   2.544 -1.2513  0.2166  0.0382
  743SOL    HW1 2228   0.106   1.121   2.643  0.0092  1.7404  0.7564
  743SOL    HW2 2229   0.117   1.169   2.489  0.9806 -0.1578 -1.4927
  744SOL     OW 2230   0.523   3.025   0.488 -1.0189  0.2767 -0.5261
  744SOL    HW1 2231   0.519   3.090   0.566  0.6763  0.1287  0.9293
  744SOL    HW2 2232   0.442   2.962   0.490  0.9371 -0.0218  2.9526
  745SOL     OW 2233   2.367   1.557   1.002 -0.0133 -0.1085 -0.2497
  745SOL    HW1 2234   2.441   1.507   0.954  0.0755 -1.3231  0.6366
  745SOL    HW2 2235   2.317   1.620   0.937  0.3144  1.2772  1.0752
  746SOL     OW 2236   0.475   1.081   1.214  0.6175  0.1845  0.1034
  746SOL    HW1 2237   0.569   1.046   1.221 -0.7002 -0.9658 -1.4050
  746SOL    HW2 2238   0.457   1.155   1.280  0.4643 -1.1271  1.5853
  747SOL     OW 2239   1.300   1.695   1.843 -0.3775  0.2710  0.7019
  747SOL    HW1 2240   1.363   1.676   1.763  0.8041  1.6860  1.1509
  747SOL    HW2 2241   1.365   1.728   1.917 -0.0974  0.3069 -2.1651
  748SOL     OW 2242   3.028   2.889   1.137 -0.2017  0.0146  0.3555
  748SOL    HW1 2243   3.032   2.791   1.157  0.2730  0.3676  1.0816
  748SOL    HW2 2244   2.941   2.918   1.094 -0.0195  1.4893 -3.2054
  749SOL     OW 2245   2.323   0.930   2.915  0.1108 -0.4043 -0.1299
  749SOL    HW1 2246   2.253   0.913   2.988 -3.2701  1.2523  2.3573
  749SOL    HW2 2247   2.415   0.954   2.952  0.4617 -0.0298  1.4750
  750SOL     OW 2248   2.843   0.594   2.313 -0.2041 -0.0137 -0.4940
  750SOL    HW1 2249   2.914   0.549   2.258 -1.0942  1.6422 -0.9520
  750SOL    HW2 2250   2.868   0.604   2.412 -0.1537 -0.5364 -1.1378
  751SOL     OW 2251   1.714   1.233   0.753 -0.4305 -0.1511  0.1219
  751SOL    HW1 2252   1.800   1.198   0.711 -0.4666 -0.1152  1.6054
  751SOL    HW2 2253   1.636   1.167   0.731  2.3412 -0.0614 -1.2680
  752SOL     OW 2254   0.173   1.446   3.047 -0.5741  0.5649  0.6501
  752SOL    HW1 2255   0.182   1.486   2.954 -0.1048 -0.8729 -2.3094
  752SOL    HW2 2256   0.263   1.402   3.066  0.1388 -2.1980 -2.1757
  753SOL     OW 2257   0.150   0.189   1.334 -0.3562  0.5392 -0.2667
  753SOL    HW1 2258   0.166   0.090   1.311  1.5549  0.1270 -0.5831
  753SOL    HW2 2259   0.236   0.240   1.313 -0.5118 -0.3976 -3.3815
  754SOL     OW 2260   0.179   0.340   2.224 -0.2012 -0.0358  0.2935
  754SOL    HW1 2261   0.195   0.343   2.120 -1.2409  0.0536 -0.6230
  754SOL    HW2 2262   0.156   0.249   2.262  0.6978  3.0544 -0.1864
  755SOL     OW 2263   2.495   1.946   2.355  0.0135 -0.0696 -0.2185
  755SOL    HW1 2264   2.519   1.967   2.260 -0.8960  0.9640 -0.1162
  755SOL    HW2 2265   2.535   1.856   2.388  0.6909  0.0956  0.0081
  756SOL     OW 2266   2.158   1.354   2.499 -0.7260 -0.0774  0.6040
  756SOL    HW1 2267   2.072   1.396   2.534  2.1008 -1.5032  0.4839
  756SOL    HW2 2268   2.139   1.291   2.418  1.0020  0.1432  2.0060
  757SOL     OW 2269   0.853   0.768   2.255  0.4382 -0.3840 -0.4699
  757SOL    HW1 2270   0.781   0.816   2.308  0.3526 -0.9646 -0.0628
  757SOL    HW2 2271   0.839   0.771   2.156 -1.3322 -1.2767 -0.4159
  758SOL     OW 2272   2.176   2.139   1.861 -0.3270  0.2796  0.1088
  758SOL    HW1 2273   2.210   2.158   1.956  1.3522 -0.6937  1.0459
  758SOL    HW2 2274   2.187   2.225   1.806  3.6426 -0.6586 -2.2469
  759SOL     OW 2275   1.602   2.812   2.223  0.7311  0.8755  0.2402
  759SOL    HW1 2276   1.666   2.790   2.141 -1.4709  0.5494 -0.2536
  759SOL    HW2 2277   1.589   2.726   2.280 -1.7509  0.1817  0.2985
  760SOL     OW 2278   2.937   1.617   1.379 -0.4578  0.0933 -0.0186
  760SOL    HW1 2279   2.905   1.711   1.386 -2.0924  0.9588  1.0114
  760SOL    HW2 2280   3.012   1.613   1.306 -2.8203  2.2882  0.2218
  761SOL     OW 2281   0.462   2.470   0.132  0.5040 -1.3935  0.0567
  761SOL    HW1 2282   0.529   2.488   0.061 -1.1698  0.1509 -1.5259
  761SOL    HW2 2283   0.390   2.540   0.128  4.4547  1.0639 -2.9186
  762SOL     OW 2284   0.135   1.402   1.064 -0.0540  0.5300  0.3488
  762SOL    HW1 2285   0.069   1.462   1.013  2.8265 -0.5323 -2.7284
  762SOL    HW2 2286   0.099   1.366   1.154  0.8444  1.2500 -0.8944
  763SOL     OW 2287   2.322   0.453   1.156  0.3749  0.4750  0.2216
  763SOL    HW1 2288   2.333   0.532   1.086  2.0232  0.7633 -1.4490
  763SOL    HW2 2289   2.349   0.479   1.252  1.0854  0.3453 -2.8136
  764SOL     OW 2290   0.723   3.065   0.315  0.2464  0.3313  0.2415
  764SOL    HW1 2291   0.815   3.068   0.362  2.7232 -0.7683  0.1098
  764SOL    HW2 2292   0.645   3.033   0.378 -0.1779 -1.6608  1.9973
  765SOL     OW 2293   0.961   0.884   1.855  0.0561 -0.0595 -0.0377
  765SOL    HW1 2294   1.055   0.843   1.867 -1.1912 -2.7232 -2.5622
  765SOL    HW2 2295   0.895   0.829   1.908 -0.4953  0.1589  1.6928
  766SOL     OW 2296   2.192   1.937   2.272 -0.3604  0.3587 -0.6778
  766SOL    HW1 2297   2.133   1.855   2.252 -0.4809  2.3991 -0.7229
  766SOL    HW2 2298   2.273   1.905   2.319  1.3167 -0.9763 -0.0775
  767SOL     OW 2299   1.858   1.548   2.140  0.5942  0.4521  0.0303
  767SOL    HW1 2300   1.782   1.540   2.205  2.5934 -3.9915 -0.6105
  767SOL    HW2 2301   1.817   1.543   2.048 -1.4420 -0.9719 -1.9129
  768SOL     OW 2302   2.264   0.717   2.376 -0.1264  0.4179 -0.7568
  768SOL    HW1 2303   2.349   0.768   2.377 -0.2083  1.5006 -0.1246
  768SOL    HW2 2304   2.247   0.669   2.286 -0.2805  0.7047 -1.1614
  769SOL     OW 2305   0.046   1.691   1.227 -0.2344 -0.5684  0.1727
  769SOL    HW1 2306   0.042   1.778   1.277 -0.0185  1.6331 -0.5269
  769SOL    HW2 2307   0.135   1.685   1.179  2.5550  2.3141  0.8695
  770SOL     OW 2308   2.393   0.924   1.810 -0.2491 -0.4035 -0.2822
  770SOL    HW1 2309   2.353   0.975   1.728  0.2855 -0.8355 -0.8258
  770SOL    HW2 2310   2.456   0.977   1.870  1.7960 -1.6841 -1.9793
  771SOL     OW 2311   1.103   2.732   2.828 -0.1852  0.2707  0.5197
  771SOL    HW1 2312   1.176   2.806   2.806 -0.5660  2.6625 -5.8904
  771SOL    HW2 2313   1.030   2.783   2.877 -1.9966  0.2780  0.0343
  772SOL     OW 2314   2.349   1.531   1.536 -0.0721  0.3508  0.2138
  772SOL    HW1 2315   2.304   1.622   1.545 -0.0624 -1.4304 -2.9145
  772SOL    HW2 2316   2.395   1.528   1.444  1.6115  0.3128 -1.1959
  773SOL     OW 2317   0.251   1.018   0.783 -0.2895 -0.3286 -0.3633
  773SOL    HW1 2318   0.164   1.047   0.836  0.9091  0.1166 -1.3603
  773SOL    HW2 2319   0.334   1.053   0.824  2.5443  0.8681 -0.6805
  774SOL     OW 2320   0.980   0.879   0.053  0.7731 -0.4999 -0.8542
  774SOL    HW1 2321   1.051   0.946   0.025 -2.6028  0.9481 -2.3151
  774SOL    HW2 2322   0.896   0.936   0.045 -0.9498 -0.0879 -1.4694
  775SOL     OW 2323   0.608   1.659   0.648  0.3130 -0.6054 -0.3041
  775SOL    HW1 2324   0.549   1.716   0.703  1.1143 -0.9559 -1.2932
  775SOL    HW2 2325   0.646   1.715   0.575 -0.4024 -0.0819  0.4907
  776SOL     OW 2326   2.160   1.317   1.023 -0.6150  0.2439 -0.4360
  776SOL    HW1 2327   2.190   1.368   0.941 -0.1794 -1.1938 -2.2224
  776SOL    HW2 2328   2.106   1.235   0.990 -2.3811 -2.0465 -1.5263
  777SOL     OW 2329   3.026   2.601   2.286  0.4213  0.5916  0.3909
  777SOL    HW1 2330   3.108   2.618   2.349 -0.8695 -1.0815 -0.5722
  777SOL    HW2 2331   3.042   2.515   2.235 -0.9845  1.6783 -4.0918
  778SOL     OW 2332   1.761   0.812   1.837 -0.1775 -0.0501 -0.0215
  778SOL    HW1 2333   1.794   0.715   1.863 -0.2507 -0.4455 -0.4638
  778SOL    HW2 2334   1.673   0.835   1.890 -3.9484 -1.9821  0.2904
  779SOL     OW 2335   0.508   0.184   3.018  0.2757  0.2741 -0.0205
  779SOL    HW1 2336   0.429   0.207   2.958  0.3238 -2.3263  0.3908
  779SOL    HW2 2337   0.513   0.250   3.096  1.1404 -1.9768  0.6842
  780SOL     OW 2338   2.842   2.100   2.703  0.0163 -0.2940 -0.2365
  780SOL    HW1 2339   2.864   2.170   2.628 -1.4428 -0.1263  2.2730
  780SOL    HW2 2340   2.745   2.115   2.735 -1.3907 -2.5756 -0.4017
  781SOL     OW 2341   2.318   2.155   2.103 -0.2187  0.4402 -0.4007
  781SOL    HW1 2342   2.338   2.225   2.176  3.0698  2.2081 -0.9407
  781SOL    HW2 2343   2.283   2.075   2.146 -0.4442 -1.0922  0.8920
  782SOL     OW 2344   0.561   0.090   2.585 -0.0604 -0.4029 -0.0079
  782SOL    HW1 2345   0.506   0.179   2.595 -0.3476  0.4816  0.4789
  782SOL    HW2 2346   0.634   0.083   2.657  0.5747 -2.6401  2.2422
  783SOL     OW 2347   2.499   1.821   0.251 -0.7425  0.3346 -0.0690
  783SOL    HW1 2348   2.599   1.810   0.223  1.0672  3.2988 -1.8620
  783SOL    HW2 2349   2.472   1.909   0.215  1.5565 -0.5594  0.7282
  784SOL     OW 2350   2.481   1.311   0.185  0.2910  0.4360  0.4070
  784SOL    HW1 2351   2.471   1.364   0.274 -0.8213 -0.5499 -1.6562
  784SOL    HW2 2352   2.558   1.237   0.196 -0.0163  2.0982  1.5702
  785SOL     OW 2353   2.160   2.040   0.032  0.0939 -0.3104  0.4267
  785SOL    HW1 2354   2.261   2.015   0.020  3.1706 -1.5297 -0.5269
  785SOL    HW2 2355   2.154   2.134   0.071  0.3793 -1.0855  0.8524
  786SOL     OW 2356   0.864   1.667   2.695 -0.3129  0.0216 -0.5982
  786SOL    HW1 2357   0.790   1.601   2.709 -0.6707 -1.1797  1.1415
  786SOL    HW2 2358   0.899   1.704   2.783 -1.2916  0.5382  0.8335
  787SOL     OW 2359   0.848   1.644   0.353  0.3839 -0.5320 -0.5195
  787SOL    HW1 2360   0.773   1.709   0.377 -0.4688  1.4435  1.1683
  787SOL    HW2 2361   0.905   1.623   0.433 -0.1044 -1.0359 -1.5856
  788SOL     OW 2362   0.945   0.248   0.188  0.2046  0.3702  0.5545
  788SOL    HW1 2363   0.914   0.344   0.217  2.2335  0.1631 -4.6173
  788SOL    HW2 2364   0.881   0.198   0.133  0.1432 -0.6683 -1.0215
  789SOL     OW 2365   2.948   2.466   1.899  0.1916 -0.4000 -0.3627
  789SOL    HW1 2366   2.859   2.498   1.931 -1.1106 -0.4345  0.6103
  789SOL    HW2 2367   3.000   2.544   1.858 -0.5859 -0.6733  0.3571
  790SOL     OW 2368   1.281   2.924   2.792  0.2262 -0.1958  0.0335
  790SOL    HW1 2369   1.257   3.019   2.821 -0.4412 -2.2496  0.1289
  790SOL    HW2 2370   1.339   2.883   2.865 -1.3871  0.6036  2.8578
  791SOL     OW 2371   1.082   1.291   0.026 -0.3341 -0.1750  0.6240
  791SOL    HW1 2372   1.083   1.323   0.124 -1.7844  0.6808  0.8729
  791SOL    HW2 2373   1.014   1.349  -0.024  0.4880  0.4365  0.2978
  792SOL     OW 2374   1.167   0.729   1.926 -0.0063 -0.0778 -0.2084
  792SOL    HW1 2375   1.179   0.630   1.931  0.8559 -0.1038  2.2676
  792SOL    HW2 2376   1.250   0.767   1.883  1.3205  0.8577  0.8946
  793SOL     OW 2377   1.253   0.338   1.748  0.4418  0.7104 -0.6068
  793SOL    HW1 2378   1.194   0.380   1.673 -0.2219 -1.5208  0.2376
  793SOL    HW2 2379   1.252   0.395   1.827 -1.4568 -0.6345 -4.9218
  794SOL     OW 2380   0.664   1.272   2.197 -0.8506  0.0875 -0.0568
  794SOL    HW1 2381   0.636   1.347   2.130 -0.8804 -2.2502  0.9141
  794SOL    HW2 2382   0.586   1.216   2.234  2.6354  2.5815 -1.7846
  795SOL     OW 2383   2.566   1.961   2.076 -0.0176 -0.1814  0.3081
  795SOL    HW1 2384   2.549   2.056   2.037 -1.1010 -0.8088 -2.5641
  795SOL    HW2 2385   2.628   1.906   2.019  0.0473 -1.4832  5.2874
  796SOL     OW 2386   1.090   0.752   1.467 -0.5318  0.0083 -0.4445
  796SOL    HW1 2387   1.081   0.747   1.367 -2.3159 -2.2122 -0.0773
  796SOL    HW2 2388   1.120   0.848   1.494 -0.3957  3.7874 -0.5088
  797SOL     OW 2389   2.814   0.884   1.950 -0.3399  0.1757 -0.2326
  797SOL    HW1 2390   2.910   0.915   1.969 -0.4986 -1.7765  1.6724
  797SOL    HW2 2391   2.818   0.851   1.854 -1.9449  3.4819 -2.9159
  798SOL     OW 2392   0.880   2.390   2.554 -0.0459  0.0872 -0.0627
  798SOL    HW1 2393   0.797   2.357   2.604 -2.6297  0.2647  0.6954
  798SOL    HW2 2394   0.885   2.488   2.575  1.9674  1.9769 -0.7061
  799SOL     OW 2395   0.053   2.710   3.060  0.1267  0.3268 -0.3092
  799SOL    HW1 2396  -0.037   2.714   3.103  2.8734 -5.0728 -0.3262
  799SOL    HW2 2397   0.042   2.639   2.985 -0.3405 -1.2409  0.5914
  800SOL     OW 2398   0.443   2.417   1.268 -0.0341  0.1044  0.0578
  800SOL    HW1 2399   0.392   2.337   1.230  2.8927 -1.1287  0.5383
  800SOL    HW2 2400   0.480   2.479   1.197  1.5335  2.7005  0.4389
  801SOL     OW 2401   0.145   2.828   0.360 -0.1807  0.2571  0.5796
  801SOL    HW1 2402   0.199   2.858   0.440 -0.3583  0.2706 -0.7644
  801SOL    HW2 2403   0.095   2.906   0.322  0.7784  0.5290 -0.1575
  802SOL     OW 2404   2.282   0.963   0.403 -0.2340 -0.5897  0.2374
  802SOL    HW1 2405   2.251   1.062   0.404 -0.5182  0.6090  1.2576
  802SOL    HW2 2406   2.355   0.947   0.475 -0.3070  1.4133 -0.5394
  803SOL     OW 2407   1.663   1.199   2.824  0.0069 -0.1626 -0.5914
  803SOL    HW1 2408   1.615   1.109   2.813  0.1071 -1.9944  0.8844
  803SOL    HW2 2409   1.679   1.239   2.732  0.6864  1.5266  2.1778
  804SOL     OW 2410   2.811   2.091   1.000  0.1530  0.0319  0.9330
  804SOL    HW1 2411   2.838   2.003   1.038 -2.1388  2.5285  0.1521
  804SOL    HW2 2412   2.769   2.084   0.907 -1.4844  0.5757 -0.0129
  805SOL     OW 2413   2.939   1.372   2.951 -0.3222 -0.0592  0.4732
  805SOL    HW1 2414   2.972   1.418   3.035  0.4364  0.0358 -0.9849
  805SOL    HW2 2415   2.875   1.425   2.898  3.6675 -1.9480  2.4480
  806SOL     OW 2416   0.144   0.415   0.547  0.6264 -0.2888 -0.0468
  806SOL    HW1 2417   0.167   0.358   0.625 -0.4074  0.6584 -0.1130
  806SOL    HW2 2418   0.085   0.365   0.475 -1.9737 -1.3738  0.9147
  807SOL     OW 2419   2.504   1.278   2.308  0.2034 -0.1796 -0.1915
  807SOL    HW1 2420   2.458   1.213   2.247 -0.4269  0.6811  0.1924
  807SOL    HW2 2421   2.589   1.313   2.268  1.0494  4.1453  1.5397
  808SOL     OW 2422   2.918   1.558   0.688  0.4861  0.3189 -0.0800
  808SOL    HW1 2423   2.883   1.464   0.686 -0.5445 -0.1536 -1.2507
  808SOL    HW2 2424   2.961   1.592   0.602  0.8749 -0.8093 -1.3376
  809SOL     OW 2425   2.400   0.325   2.488  0.0806 -0.4977 -0.2082
  809SOL    HW1 2426   2.366   0.242   2.537 -1.8094 -1.2551  0.9147
  809SOL    HW2 2427   2.459   0.308   2.402 -1.9869  2.0814  0.7373
  810SOL     OW 2428   1.759   0.116   2.947  0.6123  0.2472  0.0048
  810SOL    HW1 2429   1.683   0.086   2.885 -1.1164 -0.8614  2.3925
  810SOL    HW2 2430   1.808   0.192   2.905  0.8995  1.0363 -2.3381
  811SOL     OW 2431   1.335   2.944   1.123 -0.6788  0.0317 -0.2059
  811SOL    HW1 2432   1.394   2.917   1.044 -0.9859 -0.1776 -0.6486
  811SOL    HW2 2433   1.349   3.037   1.159  1.7672  0.2455 -0.6978
  812SOL     OW 2434   0.136   3.062   1.750 -0.7170 -0.0029  0.3247
  812SOL    HW1 2435   0.075   3.142   1.751  0.7255  0.2403 -1.9170
  812SOL    HW2 2436   0.151   3.026   1.659 -3.0757 -0.9565  4.3168
  813SOL     OW 2437   0.936   0.367   2.074 -0.2901 -0.1235  0.0746
  813SOL    HW1 2438   1.007   0.297   2.052  0.3440  0.6597  4.8393
  813SOL    HW2 2439   0.932   0.424   1.991  0.7871 -1.9912 -1.0392
  814SOL     OW 2440   1.014   0.607   2.456  0.1911 -0.2673  0.2727
  814SOL    HW1 2441   1.019   0.507   2.426  0.2945 -1.0758  1.1256
  814SOL    HW2 2442   0.982   0.665   2.379 -1.8613  0.5244  2.0229
  815SOL     OW 2443   2.969   1.534   1.649 -0.0591 -0.2604  0.1352
  815SOL    HW1 2444   3.068   1.527   1.685 -0.3808  0.9929 -1.2306
  815SOL    HW2 2445   2.969   1.535   1.550  0.9596  2.2428 -2.2705
  816SOL     OW 2446   1.252   0.485   0.147 -0.0204  1.1545 -0.6462
  816SOL    HW1 2447   1.169   0.542   0.159  2.3253  0.9039  0.9978
  816SOL    HW2 2448   1.271   0.469   0.050  0.3265 -0.3983  0.9224
  817SOL     OW 2449   0.815   1.231   0.232 -0.2421 -0.2876  0.1386
  817SOL    HW1 2450   0.825   1.298   0.155 -1.4976 -3.3634  3.9757
  817SOL    HW2 2451   0.757   1.274   0.303  0.6864 -0.9974  0.3866
  818SOL     OW 2452   2.680   0.761   2.175 -0.1762  0.5519  0.0168
  818SOL    HW1 2453   2.704   0.829   2.102 -1.9516 -1.7816  0.2985
  818SOL    HW2 2454   2.760   0.726   2.229 -0.5233  1.5867  1.7771
  819SOL     OW 2455   1.395   1.913   2.394  0.1021 -0.5667 -0.0852
  819SOL    HW1 2456   1.373   1.838   2.465 -2.0831 -0.3340 -0.1525
  819SOL    HW2 2457   1.399   2.008   2.441 -0.8785 -1.7652 -3.6041
  820SOL     OW 2458   3.078   2.557   2.855 -0.2444  0.5968  0.2778
  820SOL    HW1 2459   2.990   2.510   2.876  1.0293 -0.5251  0.1693
  820SOL    HW2 2460   3.159   2.493   2.865 -2.8072 -1.1813 -2.2395
  821SOL     OW 2461   0.706   2.757   1.241  0.0648  0.3364  0.0131
  821SOL    HW1 2462   0.719   2.681   1.307  0.0789  1.4542  1.8614
  821SOL    HW2 2463   0.765   2.762   1.160 -3.5662  0.4471  0.5615
  822SOL     OW 2464   0.022   0.227   1.099  0.0927 -0.3332  0.4676
  822SOL    HW1 2465  -0.068   0.177   1.072 -2.8336  0.7379  2.3133
  822SOL    HW2 2466   0.050   0.201   1.191 -0.8757 -0.2760  0.0044
  823SOL     OW 2467   2.605   2.183   0.007 -0.2687 -0.3958 -0.0964
  823SOL    HW1 2468   2.709   2.178   0.016  0.0461  1.2473 -0.7293
  823SOL    HW2 2469   2.576   2.281   0.021  2.9801  2.9950  0.1837
  824SOL     OW 2470   1.249   1.224   0.597  0.4770  0.3845 -0.5355
  824SOL    HW1 2471   1.190   1.158   0.651  1.0885  0.5339 -0.2753
  824SOL    HW2 2472   1.225   1.202   0.500 -1.7717  1.0204 -1.5527
  825SOL     OW 2473   2.723   1.866   1.626  1.0797 -0.1037  0.4688
  825SOL    HW1 2474   2.723   1.793   1.696  3.2614 -0.4780 -1.7122
  825SOL    HW2 2475   2.718   1.954   1.677  1.2702  0.7018 -1.4256
  826SOL     OW 2476   0.117   1.518   1.752  0.0494  0.0989  0.1179
  826SOL    HW1 2477   0.103   1.525   1.852  1.6598 -1.5370 -0.6403
  826SOL    HW2 2478   0.200   1.564   1.713  1.0949 -0.2163 -0.5570
  827SOL     OW 2479   1.722   2.377   1.774 -0.1243 -0.0462 -0.1532
  827SOL    HW1 2480   1.765   2.380   1.868  0.6742  1.3657  0.9236
  827SOL    HW2 2481   1.655   2.454   1.769 -0.1022 -2.5830  0.2742
  828SOL     OW 2482   2.780   2.971   1.025 -0.1741 -0.1611  0.2834
  828SOL    HW1 2483   2.719   2.940   1.101  0.9663 -3.1166  0.2879
  828SOL    HW2 2484   2.800   2.896   0.959  2.5044  0.4922  0.4252
  829SOL     OW 2485   2.417   2.116   2.550 -0.3600 -0.1835  0.9369
  829SOL    HW1 2486   2.441   2.044   2.480 -1.1666 -0.3209  0.9761
  829SOL    HW2 2487   2.334   2.092   2.602 -1.3495  0.4793 -1.9338
  830SOL     OW 2488   0.702   0.481   1.172  0.1502  0.4226  0.3290
  830SOL    HW1 2489   0.642   0.534   1.238 -0.5030 -1.2650  0.5459
  830SOL    HW2 2490   0.780   0.536   1.132  0.5138 -0.1140 -1.9975
  831SOL     OW 2491   3.083   1.314   0.275 -0.5709 -0.5081  0.0943
  831SOL    HW1 2492   3.109   1.406   0.244 -2.1986  1.2097  0.5623
  831SOL    HW2 2493   3.102   1.299   0.377 -0.3640 -0.4043 -0.4520
  832SOL     OW 2494   1.585   2.199   2.647  0.1408 -0.0749  0.4270
  832SOL    HW1 2495   1.511   2.194   2.572 -0.4517  0.1323 -0.3033
  832SOL    HW2 2496   1.605   2.102   2.668  1.4802  0.4405  0.1098
  833SOL     OW 2497   2.924   0.638   1.501  0.0465 -0.2501  0.3643
  833SOL    HW1 2498   2.890   0.545   1.468  1.1270 -0.0937  0.5480
  833SOL    HW2 2499   2.928   0.701   1.423 -0.1610 -0.1629 -3.3743
  834SOL     OW 2500   1.374   0.581   1.259 -0.5270  0.1042 -0.0513
  834SOL    HW1 2501   1.367   0.551   1.355 -3.5631  0.6176  1.8313
  834SOL    HW2 2502   1.326   0.523   1.190 -2.5850  0.4604 -1.8959
  835SOL     OW 2503   0.516   1.077   2.292  0.0348  0.0549 -0.2119
  835SOL    HW1 2504   0.417   1.056   2.281  2.6752  1.3409  0.9107
  835SOL    HW2 2505   0.562   0.997   2.332  0.9809 -1.7594  0.4940
  836SOL     OW 2506   0.886   0.351   1.422  0.0281 -0.0848 -0.6375
  836SOL    HW1 2507   0.818   0.394   1.365  1.9690 -0.5507  1.3631
  836SOL    HW2 2508   0.837   0.310   1.500  0.2520 -0.5756  1.9097
  837SOL     OW 2509   1.898   0.372   1.025 -0.8307  0.2614  0.2954
  837SOL    HW1 2510   1.813   0.337   1.068  0.5945 -0.8466 -0.0305
  837SOL    HW2 2511   1.979   0.337   1.084 -3.1191 -0.4468 -0.5065
  838SOL     OW 2512   1.421   1.367   2.828  0.1938  0.3238  0.6338
  838SOL    HW1 2513   1.355   1.332   2.760 -0.2778  3.4987  0.2091
  838SOL    HW2 2514   1.495   1.297   2.844  1.2120  0.7082  2.8406
  839SOL     OW 2515   0.224   2.884   0.867  0.8160  0.6821 -0.2476
  839SOL    HW1 2516   0.216   2.807   0.929  0.3378 -3.8974  1.7903
  839SOL    HW2 2517   0.254   2.960   0.923  0.1434  0.3175 -0.9502
  840SOL     OW 2518   1.185   1.612   3.055  0.4845  0.3286  0.2646
  840SOL    HW1 2519   1.232   1.518   3.057  0.0497 -0.1130 -0.4159
  840SOL    HW2 2520   1.259   1.684   3.053  1.1580  0.8572  0.8731
  841SOL     OW 2521   2.224   0.616   2.118 -0.6725 -0.3339  0.7162
  841SOL    HW1 2522   2.281   0.537   2.091 -1.5274 -0.5203  1.2629
  841SOL    HW2 2523   2.206   0.684   2.046  0.6176  0.8037  1.3800
  842SOL     OW 2524   1.899   0.319   1.794  0.7005 -0.4527  0.1756
  842SOL    HW1 2525   1.981   0.318   1.850  1.0162  0.6795 -0.5949
  842SOL    HW2 2526   1.874   0.222   1.761 -1.4100  2.2806  1.3512
  843SOL     OW 2527   1.339   1.864   1.458 -0.3402  0.1120 -0.1267
  843SOL    HW1 2528   1.320   1.918   1.374  2.1203  1.9063 -1.2780
  843SOL    HW2 2529   1.414   1.798   1.437  0.5564  0.9059 -2.2120
  844SOL     OW 2530   2.156   0.108   2.840  0.2114 -0.0149  0.6107
  844SOL    HW1 2531   2.119   0.202   2.821 -2.6543  1.0624 -1.8860
  844SOL    HW2 2532   2.091   0.048   2.883  0.9102 -0.1316 -0.5550
  845SOL     OW 2533   3.092   2.634   1.247  0.0267  0.2533 -0.0698
  845SOL    HW1 2534   2.997   2.605   1.276  0.3987 -1.0500 -0.5435
  845SOL    HW2 2535   3.155   2.639   1.328  0.3034  0.0141  1.8097
  846SOL     OW 2536   0.213   1.814   1.788 -0.4896  0.2814  0.1605
  846SOL    HW1 2537   0.122   1.821   1.752 -0.6983  0.1422 -0.0011
  846SOL    HW2 2538   0.270   1.762   1.717  1.7937  0.9692  1.1406
  847SOL     OW 2539   1.361   0.864   1.304  0.4875 -0.3397 -0.1996
  847SOL    HW1 2540   1.333   0.911   1.216 -0.8127  0.0838  1.3457
  847SOL    HW2 2541   1.351   0.761   1.299  1.3376 -0.8918  0.5894
  848SOL     OW 2542   2.821   0.139   2.770  0.3895  0.1109 -0.8114
  848SOL    HW1 2543   2.901   0.170   2.829  2.6581  0.5170 -0.9572
  848SOL    HW2 2544   2.742   0.142   2.836  1.2289 -0.1776  0.5245
  849SOL     OW 2545   2.383   1.676   0.707 -0.3119 -0.1644 -0.6957
  849SOL    HW1 2546   2.349   1.767   0.742  0.9446  0.3340  0.5467
  849SOL    HW2 2547   2.461   1.693   0.637  0.6387 -1.6625 -1.3800
  850SOL     OW 2548   0.014   2.157   1.660 -0.0169 -0.6285  0.4588
  850SOL    HW1 2549   0.096   2.198   1.711 -0.8934  1.4549  0.2393
  850SOL    HW2 2550   0.010   2.054   1.668 -1.4431  0.4998  0.4494
  851SOL     OW 2551   2.739   0.758   2.705  0.3913 -0.5486  0.3679
  851SOL    HW1 2552   2.645   0.729   2.665  1.6784  2.0091 -1.1347
  851SOL    HW2 2553   2.727   0.856   2.740  0.8140 -0.5129  1.5746
  852SOL     OW 2554   1.538   1.761   1.967  0.2754 -0.4209  0.1898
  852SOL    HW1 2555   1.540   1.784   2.066  0.2789  1.3741 -0.6374
  852SOL    HW2 2556   1.625   1.702   1.944  2.8966 -1.7866  1.2167
  853SOL     OW 2557   0.511   2.538   0.390 -1.3089 -0.5765 -0.4713
  853SOL    HW1 2558   0.485   2.509   0.298  0.9481 -0.0664 -0.3600
  853SOL    HW2 2559   0.561   2.627   0.378 -1.5681 -0.6240 -0.3535
  854SOL     OW 2560   2.488   2.347   2.663 -0.5473  0.1611 -0.9287
  854SOL    HW1 2561   2.402   2.396   2.680  0.4336 -1.0938  1.6694
  854SOL    HW2 2562   2.470   2.265   2.603 -0.6816  0.4498  0.1807
  855SOL     OW 2563   1.447   2.282   0.124 -0.1451  0.2040 -0.1108
  855SOL    HW1 2564   1.385   2.358   0.148  0.2894 -1.8308 -0.3055
  855SOL    HW2 2565   1.515   2.320   0.057 -0.2839 -1.6383 -1.6144
  856SOL     OW 2566   3.020   2.777   2.707 -0.0651  0.3655  0.2532
  856SOL    HW1 2567   2.923   2.760   2.675  1.4044  0.1543 -2.6986
  856SOL    HW2 2568   3.042   2.708   2.780  0.8464  1.8780  2.7370
  857SOL     OW 2569   2.159   2.548   1.256  0.4823  0.4854 -0.2358
  857SOL    HW1 2570   2.087   2.525   1.190 -1.2811  1.3285  0.4867
  857SOL    HW2 2571   2.253   2.550   1.216  0.1279 -0.5952 -1.9333
  858SOL     OW 2572   2.998   2.854   1.619 -0.6007  0.1805 -0.1698
  858SOL    HW1 2573   2.985   2.925   1.689 -2.4762  1.4620 -0.4029
  858SOL    HW2 2574   3.003   2.898   1.531 -1.8947 -1.4148  2.1379
  859SOL     OW 2575   0.714   2.750   1.587  0.0767  0.6028  0.0768
  859SOL    HW1 2576   0.651   2.812   1.641  0.9182  2.2765  0.6176
  859SOL    HW2 2577   0.813   2.772   1.597 -0.3286 -0.7290 -0.3885
  860SOL     OW 2578   2.257   2.146   0.358  0.9453  0.0728 -0.1057
  860SOL    HW1 2579   2.220   2.077   0.426 -1.1581  1.6993  2.5549
  860SOL    HW2 2580   2.191   2.157   0.279  0.5360 -0.7129 -0.1680
  861SOL     OW 2581   1.717   1.892   0.605  0.2851 -0.2525 -0.2267
  861SOL    HW1 2582   1.734   1.905   0.707 -2.4787  1.7436 -3.2840
  861SOL    HW2 2583   1.799   1.894   0.546 -0.0267 -0.9821  0.7868
  862SOL     OW 2584   2.558   3.087   2.131 -0.6083  0.0549 -0.0172
  862SOL    HW1 2585   2.458   3.067   2.113 -0.4079  0.8762  1.1954
  862SOL    HW2 2586   2.596   3.017   2.195  2.3346  0.1243 -2.3842
  863SOL     OW 2587   0.257   2.663   0.129 -0.1139 -0.0170  0.7583
  863SOL    HW1 2588   0.165   2.664   0.077 -1.2594 -0.6850 -1.5618
  863SOL    HW2 2589   0.231   2.685   0.229 -2.0244 -2.4137  0.4377
  864SOL     OW 2590   2.608   2.856   2.303  0.9527 -0.1276  0.1550
  864SOL    HW1 2591   2.625   2.889   2.402 -1.2060  0.3428  1.3963
  864SOL    HW2 2592   2.694   2.818   2.260 -0.9626  1.5803 -0.6779
  865SOL     OW 2593   0.449   2.201   0.201  0.3251  0.0491 -0.4085
  865SOL    HW1 2594   0.398   2.149   0.131  0.0777  1.4531  1.6427
  865SOL    HW2 2595   0.456   2.298   0.174 -3.5631 -0.5921  0.6665
  866SOL     OW 2596   0.798   3.070   1.779 -0.3169 -0.1560 -0.2023
  866SOL    HW1 2597   0.839   3.099   1.690 -0.1457  1.5274 -1.1991
  866SOL    HW2 2598   0.723   3.136   1.799  1.5331 -2.1318  0.2720
  867SOL     OW 2599   0.764   0.311   2.541  0.7667  0.8748  0.1674
  867SOL    HW1 2600   0.667   0.327   2.561  2.4125 -0.4719 -0.3259
  867SOL    HW2 2601   0.821   0.366   2.605  1.9732 -0.7182  2.5407
  868SOL     OW 2602   0.897   2.560   0.305 -0.5010  0.5217 -0.6298
  868SOL    HW1 2603   0.913   2.496   0.221 -0.5970 -1.0345  0.9651
  868SOL    HW2 2604   0.834   2.518   0.375 -0.1251  0.0215  1.9592
  869SOL     OW 2605   2.572   1.358   0.915 -0.3917 -0.2356 -0.3299
  869SOL    HW1 2606   2.564   1.318   0.821  2.4767  2.5355  1.0381
  869SOL    HW2 2607   2.674   1.367   0.939  2.8785 -0.4468  0.2676
  870SOL     OW 2608   2.220   1.993   0.576 -0.1023  0.1167  0.3672
  870SOL    HW1 2609   2.181   1.974   0.670  2.7384  1.6008 -2.7404
  870SOL    HW2 2610   2.312   1.958   0.563 -1.0532 -0.2058  2.0738
  871SOL     OW 2611   1.324   1.050   2.074 -0.0074 -0.1322  0.3477
  871SOL    HW1 2612   1.244   1.068   2.137 -0.0484 -2.4247 -0.1556
  871SOL    HW2 2613   1.392   1.129   2.065 -5.3552  3.6944 -0.4721
  872SOL     OW 2614   1.410   0.604   0.657 -0.4682 -0.7058 -0.5061
  872SOL    HW1 2615   1.500   0.559   0.659 -0.6594 -1.4073 -0.1246
  872SOL    HW2 2616   1.330   0.551   0.693  0.3066 -1.8722  0.3497
  873SOL     OW 2617   1.499   0.797   2.929 -0.2525  0.2998 -0.8906
  873SOL    HW1 2618   1.455   0.715   2.887  2.3253  0.5479  0.5319
  873SOL    HW2 2619   1.496   0.871   2.859 -1.2933  3.2650 -1.7855
  874SOL     OW 2620   1.130   1.474   1.519 -0.1290 -0.3198 -0.0400
  874SOL    HW1 2621   1.176   1.554   1.565 -0.5399 -0.0469 -0.8981
  874SOL    HW2 2622   1.107   1.502   1.424 -0.0872  1.7934 -3.6558
  875SOL     OW 2623   0.567   2.800   0.092 -0.1312 -0.0218  0.0246
  875SOL    HW1 2624   0.496   2.757   0.149  0.6734 -2.7993  3.0207
  875SOL    HW2 2625   0.528   2.877   0.043  3.4132 -1.8266  0.6518
  876SOL     OW 2626   1.023   0.416   3.069 -0.1668  0.1105 -0.7296
  876SOL    HW1 2627   1.113   0.374   3.043  0.5393 -1.0047 -1.5677
  876SOL    HW2 2628   1.003   0.395   3.167  2.4017 -1.1278 -1.6230
  877SOL     OW 2629   2.293   3.044   2.109  0.1135  0.1513 -0.0534
  877SOL    HW1 2630   2.223   3.008   2.173 -0.9603  1.4716  3.0562
  877SOL    HW2 2631   2.271   3.030   2.008 -1.0820 -0.8673 -0.2148
  878SOL     OW 2632   2.000   2.233   2.815 -1.0107  0.3073  0.6336
  878SOL    HW1 2633   1.948   2.297   2.754 -0.9188  2.0189 -2.9771
  878SOL    HW2 2634   2.078   2.190   2.769  0.8038  1.3657  1.8780
  879SOL     OW 2635   2.396   2.756   1.834  0.1558  0.1476  0.1236
  879SOL    HW1 2636   2.474   2.691   1.850  1.8621  1.2675  1.9713
  879SOL    HW2 2637   2.317   2.729   1.892  0.6663  1.9301  0.0731
  880SOL     OW 2638   1.036   0.784   0.516 -0.0094 -0.1668  0.2915
  880SOL    HW1 2639   0.995   0.862   0.466 -0.1075  2.2375 -2.4872
  880SOL    HW2 2640   1.114   0.740   0.464  0.5654 -2.8473  0.6395
  881SOL     OW 2641   1.315   2.965   0.121 -0.2003 -0.2132  0.0269
  881SOL    HW1 2642   1.231   2.911   0.143  1.0705 -0.3037  0.2198
  881SOL    HW2 2643   1.381   2.964   0.205  0.0239 -1.9763  0.3442
  882SOL     OW 2644   1.421   0.913   0.485 -0.5221  0.0801 -0.7226
  882SOL    HW1 2645   1.510   0.867   0.498  1.2916  0.1231  1.2826
  882SOL    HW2 2646   1.433   0.995   0.420  1.0263 -0.0652 -0.2741
  883SOL     OW 2647   1.836   0.638   2.499  0.3290 -0.2791  0.0140
  883SOL    HW1 2648   1.822   0.659   2.402  1.0383  0.5328  0.2823
  883SOL    HW2 2649   1.874   0.541   2.510 -0.1585  1.8819 -0.9755
  884SOL     OW 2650   2.098   0.603   0.028  0.0101 -0.2240  0.0932
  884SOL    HW1 2651   2.162   0.528  -0.005 -0.0867 -1.2402 -0.0059
  884SOL    HW2 2652   2.038   0.573   0.105 -3.3775  0.2396  1.5825
  885SOL     OW 2653   1.135   2.482   2.864  0.6054  0.0232  0.1750
  885SOL    HW1 2654   1.212   2.487   2.931  2.3536  1.2467 -0.0107
  885SOL    HW2 2655   1.112   2.579   2.834 -1.2393 -0.2051 -0.5784
  886SOL     OW 2656   1.074   2.851   0.182 -0.0922 -0.1150 -0.0254
  886SOL    HW1 2657   1.089   2.792   0.265  0.5156 -2.8040  0.5749
  886SOL    HW2 2658   0.997   2.819   0.130  3.1853 -1.4896  0.8971
  887SOL     OW 2659   1.621   0.250   0.909  0.6147 -0.1514 -0.0954
  887SOL    HW1 2660   1.529   0.216   0.876  3.0065 -1.4242 -1.3283
  887SOL    HW2 2661   1.619   0.282   1.009  0.8394 -1.8318  0.1589
  888SOL     OW 2662   2.172   1.339   1.613  0.0932  0.3293  0.5426
  888SOL    HW1 2663   2.144   1.370   1.708  0.6215 -0.6147  2.1494
  888SOL    HW2 2664   2.239   1.402   1.569 -0.7668 -0.2309 -3.3437
  889SOL     OW 2665   2.436   2.655   2.214 -0.0639 -0.8917 -0.0557
  889SOL    HW1 2666   2.488   2.740   2.215  1.4392 -1.0216  1.1222
  889SOL    HW2 2667   2.494   2.575   2.245 -1.6477 -2.9479  1.0804
  890SOL     OW 2668   0.002   1.716   2.173  0.2524  0.3019 -0.2949
  890SOL    HW1 2669   0.090   1.770   2.145  0.4771  1.9424  0.2669
  890SOL    HW2 2670  -0.047   1.769   2.247  1.3728  1.7846  2.3254
  891SOL     OW 2671   2.876   1.290   0.668 -0.5725  0.4682 -0.4603
  891SOL    HW1 2672   2.826   1.278   0.578 -0.8672 -0.5456  1.1475
  891SOL    HW2 2673   2.840   1.235   0.743  0.4897  0.7234 -1.7205
  892SOL     OW 2674   2.373   2.842   0.382 -0.6991  1.0438 -0.1028
  892SOL    HW1 2675   2.328   2.755   0.410  0.3687 -0.6686 -0.3989
  892SOL    HW2 2676   2.314   2.890   0.317 -1.1896 -0.6134 -0.8553
  893SOL     OW 2677   2.392   0.280   0.517  0.2426 -0.1589  0.3813
  893SOL    HW1 2678   2.358   0.375   0.533  1.0527 -0.2704  0.1575
  893SOL    HW2 2679   2.456   0.263   0.590 -0.2132 -0.4712 -0.3721
  894SOL     OW 2680   2.431   2.603   0.927 -0.0556  0.7052 -0.1679
  894SOL    HW1 2681   2.416   2.597   1.027 -0.4605 -1.1340  1.8750
  894SOL    HW2 2682   2.359   2.662   0.888 -1.0604  0.5790  4.4175
  895SOL     OW 2683   1.409   0.171   1.584 -0.0027 -0.0311  0.2687
  895SOL    HW1 2684   1.356   0.177   1.493  2.6896 -1.8190 -0.7422
  895SOL    HW2 2685   1.380   0.245   1.645  0.8339  0.6036 -2.7854
  896SOL     OW 2686   0.160   0.622   1.383 -0.5170 -0.3436  0.9139
  896SOL    HW1 2687   0.090   0.695   1.389 -1.8656  3.0949 -1.3850
  896SOL    HW2 2688   0.149   0.554   1.456 -1.4590 -0.1587 -1.6361
  897SOL     OW 2689   0.188   1.632   0.436 -0.3010 -0.7929  0.5232
  897SOL    HW1 2690   0.259   1.565   0.465 -0.4169  1.2107 -1.8581
  897SOL    HW2 2691   0.228   1.724   0.422  0.1178  0.0828 -1.3411
  898SOL     OW 2692   3.007   0.926   2.428  0.3141 -0.5532 -0.2320
  898SOL    HW1 2693   2.935   1.002   2.431 -1.0628  2.4625  1.1800
  898SOL    HW2 2694   3.093   0.969   2.453 -0.5511 -0.2296 -0.6227
  899SOL     OW 2695   1.935   1.980   2.998  0.2007  0.0124 -0.0832
  899SOL    HW1 2696   2.021   2.012   3.048  0.2669  1.1083  1.3267
  899SOL    HW2 2697   1.910   2.053   2.934  0.5567 -1.0509 -2.0308
  900SOL     OW 2698   1.562   0.431   1.946  0.4289 -0.3483  0.4163
  900SOL    HW1 2699   1.665   0.452   1.935  0.4885 -3.4247  0.5595
  900SOL    HW2 2700   1.541   0.349   1.889  2.2394  0.2070 -2.2842
  901SOL     OW 2701   2.767   1.567   0.379  0.1104  0.1170 -0.2878
  901SOL    HW1 2702   2.863   1.572   0.405  0.9944  1.5605  0.2537
  901SOL    HW2 2703   2.748   1.624   0.294  0.8267 -0.9291 -0.3828
  902SOL     OW 2704   1.515   0.716   0.205  0.4765  0.3057  0.5369
  902SOL    HW1 2705   1.424   0.672   0.186 -1.0565 -2.4446 -0.1784
  902SOL    HW2 2706   1.521   0.805   0.148  0.3216  0.1568 -0.4984
  903SOL     OW 2707   0.334   0.704   0.234  0.3568  0.9096  0.5347
  903SOL    HW1 2708   0.326   0.619   0.176  2.3887 -0.5983 -1.9671
  903SOL    HW2 2709   0.300   0.686   0.332 -0.9288 -1.9731  0.5472
  904SOL     OW 2710   0.757   1.269   0.950  0.5810  0.3960  0.2865
  904SOL    HW1 2711   0.771   1.177   0.914 -1.4817  0.5610  0.3265
  904SOL    HW2 2712   0.707   1.327   0.882 -1.7712 -0.9959  1.2783
  905SOL     OW 2713   1.503   2.469   0.894 -0.3042  0.0742 -0.1103
  905SOL    HW1 2714   1.439   2.548   0.889  4.5244 -0.8995  1.3726
  905SOL    HW2 2715   1.532   2.443   0.987 -0.8943  0.3544  1.0081
  906SOL     OW 2716   1.601   2.357   1.131 -0.8615 -0.2178  0.2821
  906SOL    HW1 2717   1.641   2.265   1.121 -0.0554 -0.3042 -0.4419
  906SOL    HW2 2718   1.516   2.366   1.182 -3.5757  0.1280 -1.6428
  907SOL     OW 2719   2.721   1.298   0.456  0.2250  0.2119  0.2655
  907SOL    HW1 2720   2.720   1.235   0.378  0.3029  0.7829 -2.0470
  907SOL    HW2 2721   2.715   1.393   0.423 -2.3116  3.1376 -0.0119
  908SOL     OW 2722   1.117   1.858   0.734  0.3848  0.0522 -0.3068
  908SOL    HW1 2723   1.208   1.820   0.774  2.4513 -1.3827 -0.2270
  908SOL    HW2 2724   1.108   1.854   0.633  0.5324  0.0247  0.3967
  909SOL     OW 2725   0.104   2.359   0.093 -0.1031 -0.0844  0.0282
  909SOL    HW1 2726   0.042   2.416   0.152  1.2266  2.2903  1.7848
  909SOL    HW2 2727   0.180   2.316   0.141 -0.3570  0.0645 -1.1998
  910SOL     OW 2728   1.692   0.227   2.548  0.1489 -0.1255 -0.0241
  910SOL    HW1 2729   1.700   0.312   2.605 -2.9924 -4.3916  1.1172
  910SOL    HW2 2730   1.786   0.177   2.548 -0.4194 -0.3695 -0.2643
  911SOL     OW 2731   2.030   2.750   2.421 -0.3878  0.1123  0.0233
  911SOL    HW1 2732   1.977   2.666   2.426  1.7709 -2.8016 -3.2926
  911SOL    HW2 2733   2.131   2.738   2.441  0.3041 -1.6202  1.2320
  912SOL     OW 2734   0.885   1.841   1.561  0.1278 -0.1611  0.0616
  912SOL    HW1 2735   0.969   1.788   1.573 -1.5410  2.5880  2.8442
  912SOL    HW2 2736   0.890   1.921   1.625  0.7948 -0.1954  1.8176
  913SOL     OW 2737   2.893   2.274   1.735  0.1152 -0.1232  0.2905
  913SOL    HW1 2738   2.972   2.221   1.702 -0.9798 -0.6547  0.0903
  913SOL    HW2 2739   2.922   2.351   1.792 -3.1418 -1.0446  0.1805
  914SOL     OW 2740   0.997   0.668   2.953 -0.2299 -0.4044 -0.1359
  914SOL    HW1 2741   1.001   0.740   3.022  0.9774  4.5071 -0.5632
  914SOL    HW2 2742   1.012   0.580   3.000  0.4457  0.4471  1.8952
  915SOL     OW 2743   0.112   2.316   1.217 -0.5308 -0.1590 -0.7025
  915SOL    HW1 2744   0.028   2.334   1.157  0.2737  4.1770  0.1890
  915SOL    HW2 2745   0.089   2.342   1.315  2.0014 -0.6298 -2.2926
  916SOL     OW 2746   1.279   2.120   1.066  0.1316  0.3169  0.0159
  916SOL    HW1 2747   1.192   2.121   1.013  0.4743  0.9008 -1.7818
  916SOL    HW2 2748   1.353   2.085   1.002 -1.4597  0.7010 -3.5943
  917SOL     OW 2749   0.040   2.161   2.025  0.4221 -0.2929  0.2150
  917SOL    HW1 2750   0.004   2.244   2.061  2.1263  0.2060 -2.1503
  917SOL    HW2 2751   0.099   2.123   2.100 -0.9681 -0.6996 -2.7328
  918SOL     OW 2752   2.009   2.117   2.371 -0.0964  0.7472 -0.9482
  918SOL    HW1 2753   2.020   2.193   2.306  0.0968  1.0187  1.1443
  918SOL    HW2 2754   2.072   2.042   2.345 -1.9162  1.2156 -0.6431
  919SOL     OW 2755   0.279   0.943   1.352  0.0994  0.2573 -0.2015
  919SOL    HW1 2756   0.355   1.001   1.321 -0.9222  0.6742  2.0049
  919SOL    HW2 2757   0.293   0.844   1.333  2.1038  0.3606 -0.4527
  920SOL     OW 2758   2.513   0.806   2.380 -0.3036 -0.1335  0.2042
  920SOL    HW1 2759   2.569   0.795   2.294 -1.8652  0.0669 -0.3400
  920SOL    HW2 2760   2.538   0.891   2.426 -1.6827  1.0395  0.9267
  921SOL     OW 2761   1.691   2.524   1.332  0.0741 -0.1788 -0.2895
  921SOL    HW1 2762   1.687   2.460   1.252 -0.2597 -0.1261  0.2808
  921SOL    HW2 2763   1.755   2.493   1.405 -2.9664 -2.1753 -0.5924
  922SOL     OW 2764   2.271   1.813   1.551 -0.2183  0.5923  0.6272
  922SOL    HW1 2765   2.242   1.859   1.637 -1.6947 -0.9409 -0.5032
  922SOL    HW2 2766   2.354   1.853   1.518 -1.6870  0.4624 -0.8904
  923SOL     OW 2767   0.743   3.000   0.876 -0.3021  0.2902  0.0558
  923SOL    HW1 2768   0.835   3.044   0.851  2.2507 -1.6428  1.6352
  923SOL    HW2 2769   0.699   2.954   0.795 -0.8390  2.4367  0.0404
  924SOL     OW 2770   0.714   1.288   2.906 -0.2725  0.2826  0.1930
  924SOL    HW1 2771   0.699   1.190   2.884 -1.0835  3.0204  1.8484
  924SOL    HW2 2772   0.686   1.355   2.829  1.9838 -2.4706  0.6660
  925SOL     OW 2773   1.622   1.789   1.478 -0.2063  0.4810  0.5033
  925SOL    HW1 2774   1.701   1.846   1.509 -1.7581  0.0864  1.7671
  925SOL    HW2 2775   1.644   1.727   1.403  0.1766  0.8917  0.4357
  926SOL     OW 2776   0.714   1.010   0.845  0.9351 -0.0279 -0.1435
  926SOL    HW1 2777   0.713   0.932   0.911  1.6754  1.0009 -1.7560
  926SOL    HW2 2778   0.723   0.980   0.749  0.7896 -0.6071 -1.8639
  927SOL     OW 2779   0.294   2.055   0.041 -0.5530  0.0383  0.1264
  927SOL    HW1 2780   0.269   1.961   0.063 -0.7028 -0.8408 -0.6589
  927SOL    HW2 2781   0.277   2.071  -0.058  1.9139 -1.6478  0.2987
  928SOL     OW 2782   0.428   0.856   2.814 -0.2653 -0.1734 -0.7019
  928SOL    HW1 2783   0.466   0.794   2.743 -0.8435  0.1980 -2.2815
  928SOL    HW2 2784   0.347   0.810   2.858  2.0927 -1.1104 -0.9911
  929SOL     OW 2785   1.974   2.263   0.879  0.4525 -0.2726  0.5079
  929SOL    HW1 2786   2.062   2.227   0.914  3.1490 -4.9252 -0.6103
  929SOL    HW2 2787   1.996   2.315   0.789 -1.3481 -1.4446 -1.8336
  930SOL     OW 2788   1.053   3.020   2.159 -0.2181 -0.4665  0.0027
  930SOL    HW1 2789   1.143   2.975   2.169 -0.8605 -2.7911 -0.2280
  930SOL    HW2 2790   1.006   3.029   2.247 -0.7731 -0.6045 -1.3297
  931SOL     OW 2791   2.783   1.699   2.972 -1.0447 -0.1885  0.0882
  931SOL    HW1 2792   2.718   1.621   2.975 -0.7130  1.7365  0.7879
  931SOL    HW2 2793   2.732   1.790   2.952 -0.7891  1.4191 -0.3580
  932SOL     OW 2794   1.141   0.857   0.754  0.6177 -0.2565  0.3697
  932SOL    HW1 2795   1.116   0.946   0.790 -0.3880 -0.6560  1.2369
  932SOL    HW2 2796   1.095   0.840   0.669  1.4713 -0.9877  0.1565
  933SOL     OW 2797   2.460   0.239   1.029  0.0072  0.5252 -0.4080
  933SOL    HW1 2798   2.397   0.211   0.958 -0.4212  2.5871  1.7532
  933SOL    HW2 2799   2.422   0.315   1.089  2.3492 -1.3841 -3.2427
  934SOL     OW 2800   2.534   1.574   2.674  0.1140 -0.6667  0.1164
  934SOL    HW1 2801   2.466   1.517   2.618  0.3413  2.9205 -2.3789
  934SOL    HW2 2802   2.486   1.611   2.755 -0.7055 -1.3414 -0.9395
  935SOL     OW 2803   2.891   1.268   1.375  0.0475  0.0145  0.0230
  935SOL    HW1 2804   2.816   1.230   1.317 -1.0556  0.6566 -2.0993
  935SOL    HW2 2805   2.970   1.302   1.322  0.5492 -0.4828 -1.2663
  936SOL     OW 2806   0.596   3.053   1.088 -0.1007 -0.0891 -0.2895
  936SOL    HW1 2807   0.642   3.023   1.003 -0.8410 -2.6382  0.5339
  936SOL    HW2 2808   0.628   3.148   1.105 -0.1539 -3.6142  0.1710
  937SOL     OW 2809   0.569   2.688   2.352  0.2879  0.3244 -0.2835
  937SOL    HW1 2810   0.634   2.742   2.294 -3.0117  0.6824 -2.3059
  937SOL    HW2 2811   0.581   2.585   2.340 -0.7519  0.1050 -1.3698
  938SOL     OW 2812   2.860   2.399   2.958  0.1187  0.3490  0.4537
  938SOL    HW1 2813   2.804   2.458   3.016  0.5388 -0.9288  0.9176
  938SOL    HW2 2814   2.864   2.304   2.995 -2.3137 -1.5044  1.6652
  939SOL     OW 2815   0.659   0.636   1.653  0.5488 -0.1057  0.2190
  939SOL    HW1 2816   0.626   0.665   1.745  2.0063  1.0758 -1.7048
  939SOL    HW2 2817   0.742   0.689   1.633  0.6000 -2.1910  1.7798
  940SOL     OW 2818   2.677   2.512   2.741 -0.5933 -0.3421  0.4873
  940SOL    HW1 2819   2.602   2.454   2.707 -1.6440 -0.5318 -0.8430
  940SOL    HW2 2820   2.740   2.452   2.795  1.2182 -0.3752 -0.5478
  941SOL     OW 2821   0.587   2.621   2.798  0.2402  0.3938 -0.8922
  941SOL    HW1 2822   0.511   2.682   2.776 -0.9801  1.2094  1.4587
  941SOL    HW2 2823   0.676   2.679   2.788 -0.1032  2.4849  1.7474
  942SOL     OW 2824   2.478   2.384   1.739  0.2576  0.5639 -0.0002
  942SOL    HW1 2825   2.532   2.466   1.759  0.5713 -0.8581  1.0010
  942SOL    HW2 2826   2.511   2.339   1.651  0.0533  0.8045  0.8333
  943SOL     OW 2827   1.794   0.705   2.232  0.3432  0.5459 -0.0019
  943SOL    HW1 2828   1.865   0.634   2.203  0.3250 -0.5119  1.1175
  943SOL    HW2 2829   1.703   0.687   2.185  0.8184  1.5025  0.6803
  944SOL     OW 2830   2.546   1.222   0.659 -0.5770 -0.1982  0.0168
  944SOL    HW1 2831   2.595   1.252   0.574 -0.5617  0.0821  1.2303
  944SOL    HW2 2832   2.458   1.274   0.662 -2.0377  2.0277  1.7434
  945SOL     OW 2833   2.029   2.969   2.259  0.0472  0.2657  0.1177
  945SOL    HW1 2834   1.940   2.974   2.203  1.3061  3.0916 -1.1975
  945SOL    HW2 2835   2.042   2.874   2.303  1.9281 -1.4960 -1.5101
  946SOL     OW 2836   0.984   1.364   2.030 -0.7170 -0.1664 -0.3224
  946SOL    HW1 2837   1.058   1.376   1.968  0.3724  0.7791  2.2063
  946SOL    HW2 2838   0.968   1.451   2.078  0.4756  0.2574  0.9665
  947SOL     OW 2839   0.301   0.060   0.228 -0.4652 -0.4125  0.2849
  947SOL    HW1 2840   0.355   0.019   0.150 -1.0390  1.7943  1.1040
  947SOL    HW2 2841   0.238  -0.008   0.267  3.0811  2.6021 -1.8303
  948SOL     OW 2842   2.070   0.641   0.582  0.3216  0.2939  0.5641
  948SOL    HW1 2843   1.972   0.611   0.575  0.6325  0.2667 -2.6526
  948SOL    HW2 2844   2.098   0.677   0.490  1.9024  2.1571 -0.5581
  949SOL     OW 2845   0.263   0.507   2.793  0.2994  0.8313  0.4046
  949SOL    HW1 2846   0.229   0.572   2.720 -0.3323 -1.2252 -0.5494
  949SOL    HW2 2847   0.264   0.552   2.880  2.6813  1.6236 -2.5750
  950SOL     OW 2848   0.946   0.004   1.555  0.4150 -1.0085 -0.6791
  950SOL    HW1 2849   1.018   0.038   1.617  0.7311 -1.0312  1.7109
  950SOL    HW2 2850   0.983  -0.070   1.497 -0.5668 -0.0298 -0.4427
  951SOL     OW 2851   0.377   1.832   0.323  0.2070  0.0802 -0.2027
  951SOL    HW1 2852   0.307   1.807   0.252 -1.1186 -0.5387  0.7209
  951SOL    HW2 2853   0.368   1.923   0.367  2.0025  0.4415 -2.2863
  952SOL     OW 2854   2.881   2.319   0.666 -0.2558 -0.0632  0.2850
  952SOL    HW1 2855   2.779   2.327   0.665 -0.5149 -2.8266 -0.8233
  952SOL    HW2 2856   2.905   2.233   0.627  0.7295  0.4461 -3.0605
  953SOL     OW 2857   2.323   1.544   2.913  0.5637  0.7352  0.4177
  953SOL    HW1 2858   2.370   1.563   3.004 -3.4948 -0.6313 -2.1472
  953SOL    HW2 2859   2.322   1.446   2.898 -0.4898  0.8413  0.8241
  954SOL     OW 2860   1.585   2.913   0.599  0.0706  0.2427 -0.7279
  954SOL    HW1 2861   1.564   2.812   0.599 -0.7913 -3.5204 -0.0235
  954SOL    HW2 2862   1.594   2.952   0.694  1.2273 -0.6712 -0.0881
  955SOL     OW 2863   3.060   1.544   0.085  0.4573 -0.3317 -0.4125
  955SOL    HW1 2864   3.155   1.521   0.053  1.4210 -0.4330 -0.9700
  955SOL    HW2 2865   3.050   1.645   0.082  0.0893  1.4043 -0.4389
  956SOL     OW 2866   0.447   0.240   1.569 -0.1519  0.3861  0.0436
  956SOL    HW1 2867   0.445   0.145   1.604 -2.6613  0.8106 -0.2658
  956SOL    HW2 2868   0.422   0.249   1.472 -0.4537 -0.0778 -1.0011
  957SOL     OW 2869   1.992   1.739   2.517 -0.9436  0.2378 -0.8250
  957SOL    HW1 2870   1.965   1.822   2.569  0.9014 -0.9188 -3.0230
  957SOL    HW2 2871   1.923   1.664   2.533 -0.0305 -1.0676  1.6237
  958SOL     OW 2872   1.843   0.553   0.810  0.3896  0.5186  0.9429
  958SOL    HW1 2873   1.823   0.633   0.865  0.7934  1.1135  2.3617
  958SOL    HW2 2874   1.868   0.468   0.865  0.3279 -1.4877 -1.4964
  959SOL     OW 2875   2.379   1.475   2.447 -0.0979 -0.5813  0.4567
  959SOL    HW1 2876   2.295   1.432   2.484  0.8856 -0.7185  0.7697
  959SOL    HW2 2877   2.428   1.399   2.404  3.2697  0.3369 -0.5527
  960SOL     OW 2878   1.210   1.174   0.342  0.2926  0.0098  0.4203
  960SOL    HW1 2879   1.300   1.173   0.296 -3.3584 -1.5810 -1.9405
  960SOL    HW2 2880   1.163   1.263   0.318  1.6283 -0.1815  1.3100
  961SOL     OW 2881   2.555   2.716   1.381 -0.3463 -0.2543  0.5601
  961SOL    HW1 2882   2.634   2.691   1.445  1.1445 -0.2863 -0.0549
  961SOL    HW2 2883   2.583   2.800   1.326 -1.1420  1.0154  0.9779
  962SOL     OW 2884   1.763   0.762   2.961  0.3013  0.0195  0.3844
  962SOL    HW1 2885   1.663   0.763   2.955  1.7969 -0.0819 -1.2017
  962SOL    HW2 2886   1.800   0.789   2.870 -0.4928  1.3879  2.3721
  963SOL     OW 2887   2.399   1.450   0.391 -0.6379 -0.0042  0.3992
  963SOL    HW1 2888   2.392   1.427   0.487  2.4767 -1.5185 -1.6148
  963SOL    HW2 2889   2.353   1.538   0.377  2.2447  2.2703 -0.4872
  964SOL     OW 2890   0.550   2.498   2.037 -0.1598  0.7272 -0.0727
  964SOL    HW1 2891   0.536   2.601   2.030  1.5620  0.9576 -1.3974
  964SOL    HW2 2892   0.613   2.470   1.957  0.2566  1.0030  1.4915
  965SOL     OW 2893   1.967   1.682   1.611  0.2048  0.0058 -0.3994
  965SOL    HW1 2894   1.955   1.781   1.592 -3.1038  0.7042  2.5933
  965SOL    HW2 2895   2.023   1.671   1.689  3.1779 -2.4607  1.9102
  966SOL     OW 2896   0.088   1.793   0.949 -0.1842 -0.0267  0.0061
  966SOL    HW1 2897   0.110   1.781   0.853  0.2247 -0.4395  1.7478
  966SOL    HW2 2898   0.159   1.854   0.993  0.7948 -1.5082 -0.5761
  967SOL     OW 2899   2.612   2.141   2.847 -0.8563  0.0642  0.4358
  967SOL    HW1 2900   2.569   2.205   2.775 -1.2330 -0.9693  3.7054
  967SOL    HW2 2901   2.601   2.175   2.947  2.7672 -0.1007  2.0478
  968SOL     OW 2902   1.412   1.406   2.317 -0.4795 -0.4758 -0.3668
  968SOL    HW1 2903   1.412   1.318   2.367 -0.9574  1.5228 -0.3877
  968SOL    HW2 2904   1.335   1.468   2.345  2.9298 -0.3934 -2.3130
  969SOL     OW 2905   2.833   1.110   3.011  0.1473  0.5257  0.4195
  969SOL    HW1 2906   2.882   1.089   3.100  0.8206  3.1117 -0.4910
  969SOL    HW2 2907   2.879   1.180   2.954  0.4194  1.3430  0.0271
  970SOL     OW 2908   1.776   0.163   0.141  0.2533 -0.2741 -0.0992
  970SOL    HW1 2909   1.864   0.204   0.175  1.6246  0.9122 -1.3331
  970SOL    HW2 2910   1.784   0.150   0.040  0.3373  1.1617  1.4088
  971SOL     OW 2911   2.099   3.047   1.099  0.5905 -0.2969 -0.8581
  971SOL    HW1 2912   2.112   2.961   1.148  1.6225 -0.5789  0.8603
  971SOL    HW2 2913   2.002   3.079   1.090 -0.7462  2.3029 -1.4391
  972SOL     OW 2914   0.216   2.029   2.209 -0.6919 -0.0627 -0.1136
  972SOL    HW1 2915   0.218   1.981   2.301  0.5495  0.8001  1.0495
  972SOL    HW2 2916   0.225   1.950   2.146 -0.5830 -0.5625  1.3544
  973SOL     OW 2917   1.051   0.004   2.992  0.1642 -0.8148  0.2465
  973SOL    HW1 2918   1.041  -0.098   2.993  0.4049 -2.6480  0.7931
  973SOL    HW2 2919   0.977   0.045   3.049 -0.2190 -0.5694 -2.2402
  974SOL     OW 2920   2.472   0.510   1.639 -0.0380  0.2934  0.0308
  974SOL    HW1 2921   2.516   0.417   1.661 -0.9288 -0.8783  1.9819
  974SOL    HW2 2922   2.511   0.582   1.697 -2.7545  1.0276  0.0748
  975SOL     OW 2923   2.679   0.511   1.225 -0.1302  0.5895  0.5907
  975SOL    HW1 2924   2.674   0.548   1.130  0.4429 -0.6123  0.5161
  975SOL    HW2 2925   2.605   0.537   1.286 -2.0625 -3.1391 -2.7017
  976SOL     OW 2926   3.060   1.854   1.681  0.4824 -0.6092  0.2617
  976SOL    HW1 2927   2.995   1.777   1.657  0.7752  2.5009  0.8771
  976SOL    HW2 2928   3.022   1.904   1.760  0.8159  1.6212  2.1685
  977SOL     OW 2929   2.638   0.458   2.603  0.0841  0.0601 -0.5851
  977SOL    HW1 2930   2.550   0.401   2.589  0.4892 -0.9918  2.4440
  977SOL    HW2 2931   2.610   0.556   2.620  1.7749 -0.0218  0.4369
  978SOL     OW 2932   3.082   0.877   3.031 -0.0241 -0.0097  0.1029
  978SOL    HW1 2933   3.076   0.966   2.986 -0.0561 -0.1961  1.0935
  978SOL    HW2 2934   3.155   0.876   3.106  1.8791 -1.9398 -0.2989
  979SOL     OW 2935   1.762   0.655   0.109 -0.0141  0.2677  0.2585
  979SOL    HW1 2936   1.664   0.661   0.144 -2.4888 -0.4263 -0.1988
  979SOL    HW2 2937   1.769   0.700   0.018  1.5273  1.2440 -2.7751
  980SOL     OW 2938   1.033   1.444   2.596  0.1397 -0.5417  0.0429
  980SOL    HW1 2939   1.004   1.505   2.674 -0.2219 -1.7806 -0.4557
  980SOL    HW2 2940   0.954   1.403   2.550  0.7349  0.0760 -2.7230
  981SOL     OW 2941   1.649   1.627   1.272 -0.3854  0.7355 -0.1040
  981SOL    HW1 2942   1.647   1.650   1.171 -1.7640  0.3130 -1.2583
  981SOL    HW2 2943   1.582   1.547   1.292 -1.7950  1.8412 -3.7600
  982SOL     OW 2944   1.011   2.629   1.387  0.0806 -0.4945 -0.1411
  982SOL    HW1 2945   0.906   2.620   1.380  0.0905 -1.4362 -0.7299
  982SOL    HW2 2946   1.040   2.586   1.472  1.8850  0.6108 -1.2966
  983SOL     OW 2947   1.196   2.923   1.688 -0.0516 -0.2729  0.1280
  983SOL    HW1 2948   1.245   2.926   1.602 -1.0945  0.2413  0.5631
  983SOL    HW2 2949   1.191   3.015   1.738 -1.1174 -1.6124 -0.2910
  984SOL     OW 2950   0.559   0.378   0.124 -0.0280  0.3012  0.1400
  984SOL    HW1 2951   0.568   0.333   0.213 -0.1220 -0.8344 -0.5751
  984SOL    HW2 2952   0.629   0.448   0.109 -1.7536 -0.9591  2.1069
  985SOL     OW 2953   1.376   1.161   2.431  0.0983 -0.0987 -0.0755
  985SOL    HW1 2954   1.303   1.120   2.376 -1.8315 -1.2465 -2.6348
  985SOL    HW2 2955   1.450   1.092   2.457 -0.3536  1.4421 -0.0483
  986SOL     OW 2956   2.455   0.528   2.989  0.2817  0.8487  0.4879
  986SOL    HW1 2957   2.555   0.506   2.981  1.8616 -1.0166  1.8663
  986SOL    HW2 2958   2.410   0.561   2.903  3.1110 -1.4713  0.8408
  987SOL     OW 2959   0.232   1.794   0.084 -0.3880  0.2790  0.5460
  987SOL    HW1 2960   0.129   1.795   0.069  1.6382  0.0285 -0.4984
  987SOL    HW2 2961   0.275   1.742   0.006  1.8684 -1.0413  0.8889
  988SOL     OW 2962   0.092   1.292   1.571 -0.5728 -0.6125 -0.5396
  988SOL    HW1 2963   0.110   1.194   1.585 -2.3454  3.1589  3.0329
  988SOL    HW2 2964   0.129   1.347   1.647  0.6471  1.1719  0.7215
  989SOL     OW 2965   1.741   0.008   1.494  0.0711 -0.4075 -0.1491
  989SOL    HW1 2966   1.655  -0.046   1.499  0.7833  0.5097 -0.2658
  989SOL    HW2 2967   1.822  -0.045   1.477  2.1144 -0.5336  2.2382
  990SOL     OW 2968   0.023   0.934   0.345  0.1255 -0.6080 -0.1750
  990SOL    HW1 2969   0.078   0.987   0.411 -1.2525 -1.0509  3.4661
  990SOL    HW2 2970  -0.055   0.886   0.394  1.5502  0.0575 -0.8865
  991SOL     OW 2971   0.287   1.476   1.379  0.0078 -0.4757  0.0403
  991SOL    HW1 2972   0.314   1.549   1.309  0.7247  3.1809  3.3376
  991SOL    HW2 2973   0.206   1.420   1.351 -2.6786 -2.4822  1.8962
  992SOL     OW 2974   1.115   0.159   2.042 -0.1533 -0.0140  0.2123
  992SOL    HW1 2975   1.215   0.163   2.043 -0.6652  0.6020  1.2366
  992SOL    HW2 2976   1.090   0.072   2.089 -1.1115 -0.7116 -0.5478
  993SOL     OW 2977   2.879   0.124   1.040  0.7848 -0.1964  0.1543
  993SOL    HW1 2978   2.815   0.193   0.998 -4.9226  0.0288  1.9309
  993SOL    HW2 2979   2.849   0.027   1.030  0.4625 -3.6175 -0.7671
  994SOL     OW 2980   0.517   1.730   2.090  0.3610 -0.1601 -0.4395
  994SOL    HW1 2981   0.575   1.755   2.011 -0.9360  0.3015  0.7143
  994SOL    HW2 2982   0.563   1.754   2.180 -3.3308  1.1325 -4.0918
  995SOL     OW 2983   0.130   0.128   2.663 -0.3962  0.3527 -0.3221
  995SOL    HW1 2984   0.097   0.038   2.632  0.9652  0.6351 -1.2637
  995SOL    HW2 2985   0.057   0.200   2.657 -3.1872  1.6652 -1.5753
  996SOL     OW 2986   2.596   2.711   0.712 -0.0234  0.0982 -0.9277
  996SOL    HW1 2987   2.534   2.677   0.790 -1.9037  1.1923 -0.8935
  996SOL    HW2 2988   2.560   2.797   0.674  0.8428 -0.6157  1.7921
  997SOL     OW 2989   0.708   0.978   2.884  0.2980  0.3215 -0.6360
  997SOL    HW1 2990   0.613   0.953   2.860 -2.0277  3.4763 -2.3330
  997SOL    HW2 2991   0.713   0.987   2.985 -0.3699 -0.1631  0.0028
  998SOL     OW 2992   2.606   2.270   0.686 -0.0276 -0.0500 -0.8197
  998SOL    HW1 2993   2.519   2.292   0.735 -1.6082 -1.5735  1.9432
  998SOL    HW2 2994   2.631   2.175   0.698 -0.0513 -2.2630 -2.3094
  999SOL     OW 2995   0.885   2.120   0.202  0.4407  0.1236  0.3244
  999SOL    HW1 2996   0.959   2.086   0.262 -0.5292 -1.7743 -0.5253
  999SOL    HW2 2997   0.912   2.217   0.174  0.0533 -1.7679 -0.2465
 1000SOL     OW 2998   1.015   2.855   2.462  0.0612 -0.4461  0.3045
 1000SOL    HW1 2999   1.108   2.869   2.500  0.7052  0.0746  1.6369
 1000SOL    HW2 3000   0.972   2.947   2.436 -1.3102 -0.3221  0.4703
   3.09554   3.09554   3.09554
