1000 SPC/Fw water molecules
3000
    1SOL  OW       1   0.922   2.427   0.469  0.2071 -0.6958  0.1213
    1SOL  HW1      2   0.869   2.507   0.433  0.8214  1.1159  1.3861
    1SOL  HW2      3   0.970   2.378   0.393 -1.0785  0.5557 -0.0001
    2SOL  OW       4   1.126   0.568   1.507  0.4613  0.2329 -0.5265
    2SOL  HW1      5   1.080   0.624   1.580 -0.2389 -1.5503 -1.7278
    2SOL  HW2      6   1.121   0.607   1.415 -1.1430 -0.3662  1.0816
    3SOL  OW       7   0.791   2.780   2.284  0.3279 -0.1521 -0.3778
    3SOL  HW1      8   0.767   2.704   2.221 -0.5706 -0.1734 -0.8017
    3SOL  HW2      9   0.725   2.794   2.361  0.3828  2.2234 -0.1293
    4SOL  OW      10   2.024   1.920   2.968 -0.0167  0.1801 -0.0034
    4SOL  HW1     11   2.042   1.820   2.979  0.4072  1.2694  3.7810
    4SOL  HW2     12   2.087   1.975   3.028  0.8373 -2.5130 -0.0859
    5SOL  OW      13   1.561   1.737   2.552 -0.3806  0.6289  0.1950
    5SOL  HW1     14   1.589   1.830   2.524  1.6801  1.3445 -2.1521
    5SOL  HW2     15   1.616   1.703   2.632 -0.8728 -0.7555 -2.9865
    6SOL  OW      16   2.467   0.559   1.892  0.2994  0.6130 -0.0625
    6SOL  HW1     17   2.458   0.560   1.788  0.3517  2.5409  1.3338
    6SOL  HW2     18   2.516   0.641   1.929  1.8740  2.2762  1.5638
    7SOL  OW      19   0.231   1.496   0.416  0.3363  0.2703 -0.1371
    7SOL  HW1     20   0.322   1.491   0.464 -1.8106  2.0066  0.8887
    7SOL  HW2     21   0.171   1.565   0.469  1.3493 -0.4161 -3.1136
    8SOL  OW      22   3.070   2.072   2.450 -0.3231  0.0232  0.4538
    8SOL  HW1     23   2.980   2.034   2.415  0.8089 -0.8188  1.1025
    8SOL  HW2     24   0.040   2.004   2.483 -2.6718 -1.9290 -0.9722
    9SOL  OW      25   2.458   0.135   0.637  0.1231 -0.2311  0.2783
    9SOL  HW1     26   2.457   0.060   0.710  0.1123 -2.3033  2.3066
    9SOL  HW2     27   2.373   0.194   0.629  0.4604 -2.3689  2.5625
   10SOL  OW      28   2.093   0.082   1.945  0.0058 -0.6322 -0.1527
   10SOL  HW1     29   2.055   0.114   2.034 -0.4826 -0.2781 -0.1789
   10SOL  HW2     30   2.041   3.092   1.920 -3.5698 -0.3419  3.1864
   11SOL  OW      31   2.477   1.658   0.324  1.1428 -0.0883  0.1061
   11SOL  HW1     32   2.428   1.567   0.322 -0.6691 -1.6944  1.1510
   11SOL  HW2     33   2.570   1.650   0.279 -1.3695 -1.9765  1.0741
   12SOL  OW      34   2.587   0.561   3.059  0.0261 -1.0997  0.7580
   12SOL  HW1     35   2.514   0.616   3.015 -2.1418 -0.5595 -1.1428
   12SOL  HW2     36   2.588   0.570   0.065  2.1081 -2.3205  2.3347
   13SOL  OW      37   0.288   0.204   2.816 -0.4544 -0.6026  0.0516
   13SOL  HW1     38   0.223   0.170   2.748  0.5686  2.0591  2.5808
   13SOL  HW2     39   0.251   0.284   2.865 -4.1179  3.4388 -0.8571
   14SOL  OW      40   1.092   1.149   0.353  0.1441 -0.1923 -0.3233
   14SOL  HW1     41   1.167   1.086   0.330 -3.7530 -1.5530  2.1274
   14SOL  HW2     42   1.002   1.102   0.356 -0.2906 -1.3531  0.5130
   15SOL  OW      43   0.492   1.809   2.783  0.1100  0.0333  0.3544
   15SOL  HW1     44   0.561   1.764   2.725  0.9158  0.0251  0.3027
   15SOL  HW2     45   0.504   1.911   2.779 -1.2473 -0.0979  3.7909
   16SOL  OW      46   1.970   1.288   2.657 -0.0912 -0.3719  0.1789
   16SOL  HW1     47   2.055   1.331   2.609  0.4086  1.7795  1.4140
   16SOL  HW2     48   1.944   1.199   2.615  0.0183  2.6521  2.3629
   17SOL  OW      49   0.582   2.419   2.543 -0.2940  0.3912  0.6476
   17SOL  HW1     50   0.525   2.488   2.582  0.8508 -0.6963 -0.9144
   17SOL  HW2     51   0.555   2.393   2.448 -0.1721 -1.6906 -0.7542
   18SOL  OW      52   1.067   0.091   1.005 -0.4800 -0.3997 -0.4964
   18SOL  HW1     53   1.079   0.151   0.923 -1.4051 -0.5866  0.4074
   18SOL  HW2     54   0.970   0.072   1.017 -1.3072 -1.7864 -0.5947
   19SOL  OW      55   0.255   0.037   1.070  0.0865  0.2738  0.5373
   19SOL  HW1     56   0.230   0.135   1.096 -1.4358  1.0441 -3.1643
   19SOL  HW2     57   0.330   0.040   0.999  1.4177  0.7106 -1.6099
   20SOL  OW      58   2.500   2.210   2.649  0.0243 -0.2934 -0.0464
   20SOL  HW1     59   2.503   2.108   2.636 -2.1504  2.0354  0.2106
   20SOL  HW2     60   2.592   2.235   2.685  1.1032  2.1514 -0.9007
   21SOL  OW      61   2.685   1.068   1.198  0.0783 -0.3316  0.2062
   21SOL  HW1     62   2.686   0.983   1.248  0.3269  0.8306  0.5162
   21SOL  HW2     63   2.614   1.129   1.238 -0.4290  1.5469  2.1523
   22SOL  OW      64   2.592   0.552   0.779 -0.7783  0.2620  0.6000
   22SOL  HW1     65   2.602   0.450   0.792  0.3957 -0.5064  3.8009
   22SOL  HW2     66   2.607   0.567   0.681  1.6544  2.4299 -0.2401
   23SOL  OW      67   2.091   0.042   3.045  0.3472 -0.1741  0.5477
   23SOL  HW1     68   2.048   3.043   3.058  0.9477 -1.5173 -0.6711
   23SOL  HW2     69   2.196   0.035   3.042  1.1903  1.1384  2.4373
   24SOL  OW      70   2.259   2.029   0.594  0.4073  0.7722 -0.3860
   24SOL  HW1     71   2.172   1.976   0.611  2.2256  2.6416  0.8369
   24SOL  HW2     72   2.338   1.966   0.570  1.6002 -0.2798 -1.5767
   25SOL  OW      73   2.388   1.301   2.737 -0.0420 -0.3833 -0.2038
   25SOL  HW1     74   2.361   1.270   2.641  0.1477 -0.0469 -1.7992
   25SOL  HW2     75   2.402   1.402   2.745  1.0760 -3.7299  1.5282
   26SOL  OW      76   0.148   2.200   1.295  0.4776  0.1543  0.1653
   26SOL  HW1     77   0.228   2.253   1.323  3.8757  0.7096 -1.2863
   26SOL  HW2     78   0.112   2.145   1.378 -1.0295  0.3266  0.2651
   27SOL  OW      79   1.693   1.613   2.158  0.0447  0.1369 -0.7222
   27SOL  HW1     80   1.730   1.518   2.183 -0.4885  0.8355 -0.6117
   27SOL  HW2     81   1.599   1.628   2.192  1.3364 -0.2676 -1.7401
   28SOL  OW      82   2.019   2.304   2.693 -0.8024  0.1313 -0.4143
   28SOL  HW1     83   1.951   2.323   2.767  0.3762  0.4100  0.2830
   28SOL  HW2     84   2.110   2.291   2.734  1.7891  1.7077  0.3472
   29SOL  OW      85   0.909   0.442   1.223  0.4537 -0.1299 -0.5808
   29SOL  HW1     86   0.981   0.372   1.249  0.8387 -0.5980 -0.3033
   29SOL  HW2     87   0.955   0.534   1.204  0.2829 -0.3989 -1.1249
   30SOL  OW      88   2.842   0.561   1.940 -0.4486 -0.0856  0.0046
   30SOL  HW1     89   2.835   0.514   1.851 -2.1810  3.9962  1.8789
   30SOL  HW2     90   2.804   0.504   2.017  1.6175  0.2824  2.7325
   31SOL  OW      91   2.181   1.826   2.296 -0.4668  0.1410  0.0049
   31SOL  HW1     92   2.182   1.796   2.196 -0.5849 -0.3684 -1.6075
   31SOL  HW2     93   2.160   1.746   2.353 -0.2980  1.3810  1.2267
   32SOL  OW      94   1.141   2.260   2.058  0.7367 -0.0680 -0.0014
   32SOL  HW1     95   1.053   2.301   2.082 -0.5480 -1.3353 -1.7594
   32SOL  HW2     96   1.169   2.220   2.145 -0.5202 -1.8049  0.6858
   33SOL  OW      97   0.667   0.803   0.019 -0.6110 -0.1551  0.0477
   33SOL  HW1     98   0.722   0.747   0.082 -1.1658 -1.5219 -0.4317
   33SOL  HW2     99   0.684   0.907   0.035  0.4790  0.1519 -1.0237
   34SOL  OW     100   0.012   1.641   0.564 -0.1170 -0.4780  0.3283
   34SOL  HW1    101   3.041   1.688   0.505  3.2959  1.5344  2.1404
   34SOL  HW2    102   3.057   1.594   0.639 -0.0736  1.5458 -1.5586
   35SOL  OW     103   2.523   3.049   1.543 -0.4233  0.0579 -0.3319
   35SOL  HW1    104   2.431   3.093   1.548  1.8978 -2.5399 -0.9352
   35SOL  HW2    105   2.515   2.947   1.545 -3.3709 -1.4787  0.7624
   36SOL  OW     106   2.872   2.427   1.875 -0.3946  0.9591  0.4253
   36SOL  HW1    107   2.774   2.455   1.882  0.4138 -0.7266 -0.5757
   36SOL  HW2    108   2.923   2.476   1.946 -1.3560  0.6353  1.5309
   37SOL  OW     109   2.249   2.563   2.547  0.0830 -0.2144  0.1363
   37SOL  HW1    110   2.322   2.493   2.542 -1.6158  3.0563 -0.4193
   37SOL  HW2    111   2.288   2.649   2.502  1.2112  0.9110  2.9920
   38SOL  OW     112   0.080   0.075   1.562  0.9198 -0.0058  0.1086
   38SOL  HW1    113   0.172   0.069   1.518  3.2163  1.9704 -0.0375
   38SOL  HW2    114   0.060   3.073   1.593  2.1848 -0.6254  0.2382
   39SOL  OW     115   0.942   2.643   1.858  0.6126 -0.6503 -0.2385
   39SOL  HW1    116   0.995   2.731   1.871  0.0445 -0.7868 -0.1796
   39SOL  HW2    117   1.005   2.566   1.831 -1.7895 -2.0939 -2.1934
   40SOL  OW     118   2.516   2.150   0.210 -0.2099  0.3211  0.2104
   40SOL  HW1    119   2.585   2.153   0.287 -1.7867 -3.5747  1.3321
   40SOL  HW2    120   2.439   2.081   0.223  0.6452 -1.1053 -1.3732
   41SOL  OW     121   1.042   2.439   2.406  0.1751  0.6395  0.3785
   41SOL  HW1    122   1.056   2.540   2.384 -0.4551  1.2694  3.2325
   41SOL  HW2    123   0.958   2.426   2.464  0.2151  3.2435  1.3922
   42SOL  OW     124   2.819   2.678   1.090 -0.0213 -0.0648 -0.0913
   42SOL  HW1    125   2.766   2.648   1.011  0.1593 -0.3075 -0.0671
   42SOL  HW2    126   2.877   2.599   1.122  0.3818  1.1991 -1.3732
   43SOL  OW     127   1.483   0.905   1.179  0.2729 -0.6005 -0.3176
   43SOL  HW1    128   1.518   0.878   1.273 -0.6015  2.4374 -1.2280
   43SOL  HW2    129   1.393   0.954   1.188  0.0259 -0.7656 -4.6748
   44SOL  OW     130   0.944   1.106   2.161 -0.0167 -0.3441  0.0752
   44SOL  HW1    131   1.011   1.111   2.239  0.9681 -0.1704 -1.3865
   44SOL  HW2    132   0.978   1.158   2.078 -0.5811  2.5713  0.2661
   45SOL  OW     133   2.352   1.604   1.632  0.0337  0.9739 -0.5826
   45SOL  HW1    134   2.349   1.504   1.653  0.5368 -1.1574 -0.1881
   45SOL  HW2    135   2.444   1.632   1.584 -3.3100  0.3317  1.5902
   46SOL  OW     136   0.138   2.573   1.177 -1.0388 -0.3358 -0.7619
   46SOL  HW1    137   0.182   2.570   1.083  4.3266 -0.9508  0.6615
   46SOL  HW2    138   0.039   2.549   1.165 -0.5110 -0.8226  1.3504
   47SOL  OW     139   2.587   2.322   1.583  0.0720 -0.2988  0.1326
   47SOL  HW1    140   2.584   2.239   1.644  0.3312 -0.9387 -1.1197
   47SOL  HW2    141   2.608   2.280   1.492  1.7246 -2.8456  0.3438
   48SOL  OW     142   2.344   3.012   2.646 -0.2112  0.3764 -0.2115
   48SOL  HW1    143   2.304   0.008   2.633  0.4033  1.1051 -1.4246
   48SOL  HW2    144   2.307   2.977   2.734 -0.6368 -0.6020 -0.6073
   49SOL  OW     145   2.371   1.186   1.458 -0.9402  0.3152  0.1217
   49SOL  HW1    146   2.276   1.162   1.428 -1.6227 -0.9297  1.2657
   49SOL  HW2    147   2.405   1.117   1.521  1.1081 -0.5823 -0.2216
   50SOL  OW     148   0.814   2.782   0.860  0.1429 -0.2129 -0.4625
   50SOL  HW1    149   0.752   2.714   0.905 -0.5897  1.3155 -0.1215
   50SOL  HW2    150   0.892   2.814   0.924 -0.6053  0.0114 -0.3785
   51SOL  OW     151   0.913   1.442   0.128  0.0887  0.6204 -0.1225
   51SOL  HW1    152   1.001   1.395   0.099  1.8253  0.3993  1.0644
   51SOL  HW2    153   0.888   1.410   0.223  0.9309 -1.0818  0.2933
   52SOL  OW     154   0.227   2.847   3.093  0.0830  0.0948 -0.1951
   52SOL  HW1    155   0.299   2.793   3.048 -2.1937  1.0131 -1.4293
   52SOL  HW2    156   0.238   2.941   3.055 -0.0844  0.1032 -3.9478
   53SOL  OW     157   0.714   0.204   2.393 -0.0865 -0.3113 -0.3151
   53SOL  HW1    158   0.700   0.188   2.291  0.3273 -0.2372 -0.3134
   53SOL  HW2    159   0.620   0.228   2.437 -1.2503 -0.1720  0.3605
   54SOL  OW     160   1.578   1.132   2.547 -0.7279 -0.3238  0.5511
   54SOL  HW1    161   1.478   1.126   2.519  1.2092  1.3931  1.3594
   54SOL  HW2    162   1.625   1.223   2.524  0.8646 -1.6382  1.1472
   55SOL  OW     163   1.086   2.933   0.570 -0.0661  0.3346  0.0670
   55SOL  HW1    164   1.163   2.895   0.621  0.2113 -1.1114  0.0691
   55SOL  HW2    165   1.070   2.889   0.482 -1.5862  0.8944  0.0867
   56SOL  OW     166   0.112   0.389   1.789 -0.5647  0.0996 -0.4164
   56SOL  HW1    167   0.038   0.320   1.770 -0.1946 -0.7983 -2.0260
   56SOL  HW2    168   0.163   0.399   1.705 -1.7977  2.4811 -0.8347
   57SOL  OW     169   2.360   1.185   2.174  0.0430 -0.4786  0.5490
   57SOL  HW1    170   2.365   1.282   2.152  0.4407  0.1002 -2.5657
   57SOL  HW2    171   2.451   1.139   2.187 -0.0976 -2.1543 -0.9183
   58SOL  OW     172   0.715   0.846   0.465  0.0575 -0.2547 -0.3424
   58SOL  HW1    173   0.785   0.787   0.506  0.4006  3.5464  0.3258
   58SOL  HW2    174   0.687   0.906   0.540  0.7399 -2.2483  0.2260
   59SOL  OW     175   1.634   2.710   2.752  0.0482  0.0640  0.2673
   59SOL  HW1    176   1.730   2.747   2.738 -0.4035  0.3670 -2.7628
   59SOL  HW2    177   1.568   2.782   2.749  0.7999  1.2117 -1.2747
   60SOL  OW     178   1.909   2.570   0.894 -0.2963 -0.2133  0.5740
   60SOL  HW1    179   1.960   2.588   0.809 -0.9918  0.6332  1.1619
   60SOL  HW2    180   1.814   2.601   0.875  1.4057 -2.7258 -4.3375
   61SOL  OW     181   0.811   0.081   1.077 -0.0124  0.0553  0.4434
   61SOL  HW1    182   0.759   0.153   1.124  0.1942  0.7869 -2.8403
   61SOL  HW2    183   0.790   3.085   1.124 -1.4030  1.7856  2.1485
   62SOL  OW     184   1.960   0.181   2.877  0.0327 -0.1500 -0.3809
   62SOL  HW1    185   1.878   0.203   2.930 -3.3171  0.3421  2.0756
   62SOL  HW2    186   2.028   0.127   2.932  0.3520  3.5745 -2.3776
   63SOL  OW     187   2.885   1.370   0.607 -0.0913 -0.8004  0.5500
   63SOL  HW1    188   2.813   1.375   0.537  0.8043 -0.6134  1.9999
   63SOL  HW2    189   2.856   1.319   0.692 -0.7799 -1.4373  0.1235
   64SOL  OW     190   1.515   1.762   1.136  0.4173  0.3966 -0.3501
   64SOL  HW1    191   1.529   1.683   1.074  3.1028 -1.2839 -1.2475
   64SOL  HW2    192   1.457   1.836   1.099  0.2487  3.3012 -1.1894
   65SOL  OW     193   0.707   1.322   1.639 -0.2787 -0.3796 -0.2293
   65SOL  HW1    194   0.669   1.250   1.703  1.0400  2.8683  0.0834
   65SOL  HW2    195   0.678   1.307   1.545 -0.5683  1.6551 -0.3425
   66SOL  OW     196   0.198   0.259   0.775  0.7995  0.3087  0.2427
   66SOL  HW1    197   0.120   0.270   0.838 -0.3947  1.1889  0.2084
   66SOL  HW2    198   0.278   0.203   0.806  1.2021  0.7660 -1.3957
   67SOL  OW     199   2.864   2.579   0.720  0.2926  0.1491 -0.3746
   67SOL  HW1    200   2.939   2.513   0.721 -0.6185  0.3023  2.0529
   67SOL  HW2    201   2.887   2.650   0.652 -0.9927 -0.2075  0.5711
   68SOL  OW     202   0.938   2.471   1.410 -0.0185  0.0934  0.2311
   68SOL  HW1    203   1.009   2.399   1.415  1.6342 -1.1918 -0.4112
   68SOL  HW2    204   0.873   2.459   1.326  1.1251 -1.5801  0.4394
   69SOL  OW     205   1.982   0.884   1.087  0.6055  0.1895  0.2737
   69SOL  HW1    206   1.894   0.906   1.130  1.4686  0.1990  1.5890
   69SOL  HW2    207   1.968   0.878   0.985  0.5401 -1.1306 -1.1338
   70SOL  OW     208   2.305   1.760   2.581 -0.1922 -0.0168  0.3079
   70SOL  HW1    209   2.224   1.712   2.534  0.3760  0.7479 -2.5252
   70SOL  HW2    210   2.279   1.856   2.613  0.0423 -0.4800 -1.4994
   71SOL  OW     211   0.013   2.699   0.087  0.6947 -0.5346  0.4938
   71SOL  HW1    212   0.031   2.628   0.160  0.7945 -0.1279 -1.4934
   71SOL  HW2    213   0.100   2.746   0.063  3.5550 -1.1912  0.3046
   72SOL  OW     214   2.951   1.563   0.775 -0.5610  0.3475  0.0968
   72SOL  HW1    215   2.903   1.489   0.723 -3.2561  1.3525 -0.9341
   72SOL  HW2    216   2.885   1.616   0.835 -0.1908 -0.2767  0.9731
   73SOL  OW     217   2.110   1.600   1.022  0.2227  0.2474 -0.2797
   73SOL  HW1    218   2.145   1.504   1.004  0.3566  0.0187  2.9313
   73SOL  HW2    219   2.021   1.599   1.076 -1.0324  4.1674  2.4159
   74SOL  OW     220   2.142   1.346   2.435 -1.0041 -0.1554 -1.0120
   74SOL  HW1    221   2.096   1.263   2.400 -1.7668  0.0178  2.7087
   74SOL  HW2    222   2.242   1.333   2.445 -1.0892  0.7529  3.7249
   75SOL  OW     223   2.065   1.286   1.135 -0.0549  0.5768  0.2459
   75SOL  HW1    224   2.077   1.365   1.198  0.3023 -4.0071  0.6578
   75SOL  HW2    225   2.083   1.202   1.192  0.7516 -1.5896 -0.1213
   76SOL  OW     226   1.831   1.199   1.026 -0.1049  0.5581 -0.5368
   76SOL  HW1    227   1.907   1.254   1.070 -1.6053  0.1297 -2.5029
   76SOL  HW2    228   1.739   1.243   1.048 -0.2477 -1.8401  1.3421
   77SOL  OW     229   0.411   2.888   2.313 -0.2939 -0.5171  0.4464
   77SOL  HW1    230   0.493   2.910   2.257 -2.0881 -0.6117 -0.8835
   77SOL  HW2    231   0.364   2.974   2.347  0.0332 -1.3073  1.0400
   78SOL  OW     232   0.132   2.881   1.046  0.3057  0.7658 -0.2315
   78SOL  HW1    233   0.033   2.861   1.042  0.5559 -0.8489  0.0486
   78SOL  HW2    234   0.144   2.982   1.065 -0.3299 -0.5688  2.2066
   79SOL  OW     235   0.307   1.037   2.898 -0.1062 -0.0641 -0.4104
   79SOL  HW1    236   0.206   1.040   2.884  2.1335 -0.3399 -0.0274
   79SOL  HW2    237   0.354   1.092   2.827  1.6910  0.8883 -0.8719
   80SOL  OW     238   1.151   0.324   0.388 -0.2401  0.1616  0.0831
   80SOL  HW1    239   1.110   0.278   0.304  1.6455 -2.7348 -2.0166
   80SOL  HW2    240   1.085   0.345   0.461 -0.3972  0.8785 -0.1834
   81SOL  OW     241   2.563   1.553   3.073  0.3047 -0.3409 -0.4428
   81SOL  HW1    242   2.475   1.604   3.060  1.9347  1.2240 -0.2123
   81SOL  HW2    243   2.627   1.565   2.995  1.0955 -1.3942 -1.6578
   82SOL  OW     244   1.502   2.478   2.171 -0.3786  0.3241 -0.6233
   82SOL  HW1    245   1.486   2.487   2.272  1.2174  2.0661  0.8696
   82SOL  HW2    246   1.540   2.387   2.152  2.6331 -0.1458 -0.8439
   83SOL  OW     247   0.658   1.781   0.540 -0.5091  0.7485 -0.0275
   83SOL  HW1    248   0.567   1.782   0.587 -1.8901 -0.9381 -0.3930
   83SOL  HW2    249   0.632   1.772   0.441 -0.6732 -2.0839 -0.3623
   84SOL  OW     250   0.001   2.923   1.918  0.6873  0.0799  0.4799
   84SOL  HW1    251   0.055   2.855   1.859 -0.5595 -0.1919  0.4443
   84SOL  HW2    252   3.053   2.874   1.995 -0.7964 -4.0650 -1.4866
   85SOL  OW     253   1.767   2.801   1.841  0.4095  0.0486  0.0991
   85SOL  HW1    254   1.680   2.829   1.798  0.6382  0.5868 -0.2682
   85SOL  HW2    255   1.749   2.730   1.912  0.1380 -1.0962 -3.9605
   86SOL  OW     256   0.286   2.277   3.062 -0.0230 -0.0618  0.3699
   86SOL  HW1    257   0.320   2.191   0.010 -2.1772 -1.8623 -0.0784
   86SOL  HW2    258   0.185   2.272   3.040  0.8779  1.8634 -0.9290
   87SOL  OW     259   2.480   0.224   0.353 -0.2667  0.0736  0.3612
   87SOL  HW1    260   2.401   0.266   0.304  1.2261 -2.6407 -0.7608
   87SOL  HW2    261   2.460   0.204   0.453  2.8205  3.3182  1.6286
   88SOL  OW     262   0.412   2.169   0.986 -0.7219  0.2273  0.1535
   88SOL  HW1    263   0.360   2.108   1.049  3.2035  0.1668  0.3881
   88SOL  HW2    264   0.482   2.107   0.945 -3.0745  1.9999 -2.3169
   89SOL  OW     265   1.326   2.118   1.271 -0.2060 -0.8376  0.4914
   89SOL  HW1    266   1.296   2.089   1.364 -1.5611 -1.6361 -0.5336
   89SOL  HW2    267   1.420   2.168   1.282  1.6862  1.0850  0.8402
   90SOL  OW     268   0.680   2.012   3.025 -0.0556 -0.1114 -0.2198
   90SOL  HW1    269   0.679   1.917   3.002 -0.4564 -2.6540 -1.1745
   90SOL  HW2    270   0.769   2.046   3.056  0.9238 -1.4665  0.9086
   91SOL  OW     271   0.533   1.242   0.990 -0.1097 -0.2383 -0.1507
   91SOL  HW1    272   0.634   1.238   0.965 -2.4743 -1.9148  0.2713
   91SOL  HW2    273   0.479   1.192   0.920 -0.2780 -1.2606 -0.1081
   92SOL  OW     274   0.726   0.580   0.199  0.3824 -0.3570 -0.2309
   92SOL  HW1    275   0.655   0.531   0.147  0.7119 -2.2235  1.1154
   92SOL  HW2    276   0.715   0.552   0.299  2.2889  3.5295  0.3106
   93SOL  OW     277   2.970   1.420   1.679 -0.4132 -0.3228 -0.1693
   93SOL  HW1    278   2.921   1.335   1.712 -0.9294 -1.3746  1.2584
   93SOL  HW2    279   3.021   1.407   1.593 -0.0348 -0.8716 -0.7699
   94SOL  OW     280   0.904   2.797   2.576 -0.0127 -0.0512  0.3403
   94SOL  HW1    281   0.869   2.879   2.525  2.9462 -3.4238  1.8601
   94SOL  HW2    282   0.960   2.747   2.504  1.0724  1.2620 -2.7282
   95SOL  OW     283   2.259   0.830   1.424  0.4323 -0.2465 -0.5335
   95SOL  HW1    284   2.328   0.805   1.356  1.5236 -0.0751 -0.0622
   95SOL  HW2    285   2.236   0.747   1.478  1.4455  1.3327 -2.8532
   96SOL  OW     286   1.042   1.796   3.033  0.1428  0.7134 -0.2347
   96SOL  HW1    287   1.079   1.891   3.033  1.6216  0.8835  1.2289
   96SOL  HW2    288   0.987   1.784   2.952 -3.6265 -0.8790  1.0065
   97SOL  OW     289   2.421   0.964   1.608  0.0702  0.4233  0.2851
   97SOL  HW1    290   2.420   0.933   1.707  1.1964  1.3080 -0.2789
   97SOL  HW2    291   2.353   0.915   1.548 -2.0736  1.5792 -2.3893
   98SOL  OW     292   1.398   0.591   1.231 -0.2841 -0.2007  0.2732
   98SOL  HW1    293   1.403   0.629   1.328 -1.1436  0.8916 -1.0866
   98SOL  HW2    294   1.459   0.644   1.172  0.0428  3.0111  0.1563
   99SOL  OW     295   3.022   1.650   1.190  0.1672 -0.6215  0.2657
   99SOL  HW1    296   3.039   1.553   1.191  0.9164 -3.7706 -0.2642
   99SOL  HW2    297   3.083   1.700   1.256 -1.0350 -1.0788 -0.9964
  100SOL  OW     298   0.554   1.227   2.421  0.7495  0.4234  0.6885
  100SOL  HW1    299   0.597   1.250   2.335  1.2018  1.3128 -0.4959
  100SOL  HW2    300   0.468   1.278   2.443  1.5994  2.5474  1.7320
  101SOL  OW     301   1.403   2.740   0.078  0.1672 -0.1008  0.2021
  101SOL  HW1    302   1.329   2.710   0.140  3.5011 -1.9738  1.9179
  101SOL  HW2    303   1.475   2.662   0.079  0.8953 -0.3044  2.7053
  102SOL  OW     304   0.246   2.355   1.826  0.3098  0.1129  1.0457
  102SOL  HW1    305   0.217   2.415   1.745 -0.6496 -0.7521 -2.9101
  102SOL  HW2    306   0.344   2.323   1.822  0.1870  0.6790  1.7627
  103SOL  OW     307   0.416   2.448   2.861  0.3285 -0.1878  0.3849
  103SOL  HW1    308   0.512   2.427   2.851  0.8908 -1.3988  0.1476
  103SOL  HW2    309   0.360   2.373   2.905  0.2687 -1.2381 -1.5664
  104SOL  OW     310   2.502   1.563   1.301 -0.3596  1.2994  0.3765
  104SOL  HW1    311   2.442   1.644   1.273 -1.9909  1.6420 -1.2993
  104SOL  HW2    312   2.551   1.578   1.390  3.0900 -0.9705  1.3021
  105SOL  OW     313   0.610   1.552   1.963  0.7191 -0.0109  0.3427
  105SOL  HW1    314   0.530   1.521   1.907  0.3134  0.8382  0.1127
  105SOL  HW2    315   0.592   1.556   2.062 -0.3294  1.6687  0.2087
  106SOL  OW     316   0.425   1.783   2.492 -0.1021  0.0142  0.0736
  106SOL  HW1    317   0.388   1.727   2.416  1.2804 -2.1987  1.4072
  106SOL  HW2    318   0.488   1.737   2.559  0.3989 -3.2728  2.9952
  107SOL  OW     319   3.066   1.386   1.154  0.5660 -0.0409 -0.7680
  107SOL  HW1    320   0.060   1.340   1.171  1.5666  0.0521 -0.2947
  107SOL  HW2    321   2.997   1.318   1.138  2.4679 -2.0365 -2.4498
  108SOL  OW     322   2.358   1.430   2.035 -0.5557  0.3202  0.2104
  108SOL  HW1    323   2.434   1.495   2.062 -1.2338  2.2691 -2.4195
  108SOL  HW2    324   2.315   1.458   1.947 -1.1206  0.9442  0.8918
  109SOL  OW     325   2.536   2.675   2.784 -1.2830  0.7552  0.7228
  109SOL  HW1    326   2.553   2.772   2.806  1.0597 -0.4025  2.2206
  109SOL  HW2    327   2.459   2.631   2.836 -1.8478  0.3760  0.1611
  110SOL  OW     328   0.811   1.365   0.391 -0.0620 -0.1764  0.1707
  110SOL  HW1    329   0.719   1.405   0.408 -0.4917  1.7003  1.1212
  110SOL  HW2    330   0.812   1.261   0.406 -4.0194 -1.9316  0.6168
  111SOL  OW     331   2.537   0.536   0.222 -0.1530  0.1215  0.1733
  111SOL  HW1    332   2.627   0.491   0.255 -0.0562  1.3753  0.4521
  111SOL  HW2    333   2.459   0.468   0.234 -0.6895  1.8442  3.1526
  112SOL  OW     334   0.550   2.569   1.289  0.1726 -0.2926  1.3270
  112SOL  HW1    335   0.627   2.510   1.263 -0.0727  1.4361  0.2644
  112SOL  HW2    336   0.578   2.663   1.259 -0.6355 -0.6535 -0.7979
  113SOL  OW     337   2.871   2.843   2.710 -0.4005  0.1337 -0.3740
  113SOL  HW1    338   2.937   2.851   2.784  0.2628  1.2078 -2.0423
  113SOL  HW2    339   2.770   2.856   2.737  0.1248 -3.8831 -1.0999
  114SOL  OW     340   3.053   0.249   0.014 -0.5083  0.0962  0.5038
  114SOL  HW1    341   2.968   0.293   0.056  0.7375  1.7362 -0.4261
  114SOL  HW2    342   0.005   0.195   0.090  1.6741  0.6725 -1.1549
  115SOL  OW     343   2.093   0.773   0.044  0.0785 -0.0627 -0.3825
  115SOL  HW1    344   2.136   0.741   0.133  0.4728 -2.3198 -1.1008
  115SOL  HW2    345   2.065   0.686   3.093 -1.5034  0.9760  1.4817
  116SOL  OW     346   0.240   1.677   1.763 -0.0553 -0.2683 -0.3585
  116SOL  HW1    347   0.146   1.643   1.744  1.9645  2.2993  0.4315
  116SOL  HW2    348   0.240   1.771   1.796  0.4393  0.1282  0.4259
  117SOL  OW     349   2.623   0.217   1.330  0.4389  0.1785  0.0515
  117SOL  HW1    350   2.643   0.276   1.246 -3.2583 -1.9102 -0.0323
  117SOL  HW2    351   2.673   0.125   1.327 -0.6284 -1.8411  0.7280
  118SOL  OW     352   1.990   2.308   0.468  0.1899  0.0591  0.3708
  118SOL  HW1    353   2.077   2.260   0.449 -1.1325  0.2595 -0.5307
  118SOL  HW2    354   1.959   2.279   0.564 -0.9869 -0.0285 -0.6315
  119SOL  OW     355   2.664   0.841   1.568 -0.3906 -0.4777 -0.3561
  119SOL  HW1    356   2.691   0.806   1.477  0.2277 -0.6111 -1.1142
  119SOL  HW2    357   2.580   0.899   1.561  0.8710  0.5711  0.6043
  120SOL  OW     358   0.228   1.474   1.353  0.5598  0.4170 -0.0590
  120SOL  HW1    359   0.316   1.463   1.303  3.2676  0.2028 -0.4867
  120SOL  HW2    360   0.183   1.565   1.327 -0.1030  2.2013 -0.2282
  121SOL  OW     361   2.014   0.221   2.623  0.8040 -0.9075  0.3319
  121SOL  HW1    362   1.938   0.252   2.559  0.5848  1.0340  1.3689
  121SOL  HW2    363   1.983   0.212   2.716  0.2241 -0.6063  3.7713
  122SOL  OW     364   2.432   1.821   0.573  0.0854  0.6540  0.1642
  122SOL  HW1    365   2.447   1.763   0.493  0.0334  1.5332 -4.5680
  122SOL  HW2    366   2.452   1.778   0.663  3.0973  0.4355  2.6133
  123SOL  OW     367   0.860   2.654   2.801 -0.2644 -0.2441  0.7256
  123SOL  HW1    368   0.884   2.704   2.715 -0.0981  2.9117 -0.1749
  123SOL  HW2    369   0.838   2.557   2.782  1.0427  0.4465 -1.2413
  124SOL  OW     370   2.533   2.168   0.840 -0.0973  0.2843 -0.1648
  124SOL  HW1    371   2.433   2.154   0.821  1.5229  1.2591  0.2977
  124SOL  HW2    372   2.574   2.080   0.864 -1.9691 -3.5852  1.2270
  125SOL  OW     373   2.716   2.182   0.396 -0.1529  0.6993 -0.1832
  125SOL  HW1    374   2.682   2.247   0.466 -0.1403 -0.5652 -1.5707
  125SOL  HW2    375   2.797   2.220   0.344 -3.6846  0.2382 -1.1106
  126SOL  OW     376   1.504   3.002   0.543 -0.0959  0.4448 -0.3264
  126SOL  HW1    377   1.525   2.961   0.633 -1.0242 -1.2909 -0.5389
  126SOL  HW2    378   1.418   3.061   0.546  0.8500 -2.9673  1.0750
  127SOL  OW     379   2.342   2.572   2.924 -0.2575 -0.3685 -0.2632
  127SOL  HW1    380   2.249   2.589   2.885 -0.9471  4.9360  0.2909
  127SOL  HW2    381   2.334   2.524   3.013  3.6997  1.0540 -0.7077
  128SOL  OW     382   0.578   0.999   1.347 -0.4864 -0.2597 -0.0932
  128SOL  HW1    383   0.601   0.945   1.430 -2.6865  0.8020 -2.8050
  128SOL  HW2    384   0.476   0.998   1.329  0.4452  2.0922  0.6414
  129SOL  OW     385   2.982   0.989   0.475 -0.8652 -0.2700 -0.5837
  129SOL  HW1    386   2.925   1.063   0.437  0.4498 -0.5791  0.1002
  129SOL  HW2    387   3.080   1.021   0.482  0.4673 -2.6983 -2.4607
  130SOL  OW     388   0.722   1.051   0.079 -0.0752  0.1507  0.2915
  130SOL  HW1    389   0.805   1.080   0.029  1.4061  0.2896  1.8440
  130SOL  HW2    390   0.660   1.129   0.088 -1.6489  0.3002  0.0194
  131SOL  OW     391   2.536   1.630   2.097  0.4623  0.2921  0.2340
  131SOL  HW1    392   2.516   1.667   2.191  1.2899  2.8233 -2.4003
  131SOL  HW2    393   2.634   1.624   2.072  1.3343  1.2406 -0.6788
  132SOL  OW     394   0.693   1.318   2.216  0.3998 -0.3664 -0.4271
  132SOL  HW1    395   0.683   1.252   2.141 -0.2737  1.4959 -3.3590
  132SOL  HW2    396   0.658   1.412   2.186 -2.2111  0.7465  1.8715
  133SOL  OW     397   1.353   1.226   0.930  0.3604  0.3760 -0.1782
  133SOL  HW1    398   1.265   1.263   0.891 -1.1040 -1.1849  0.6096
  133SOL  HW2    399   1.412   1.198   0.855  1.0210  1.0657  0.5860
  134SOL  OW     400   2.884   0.985   3.012 -0.4612 -0.2504  0.5308
  134SOL  HW1    401   2.930   0.902   3.048 -1.1365  2.5306 -1.1400
  134SOL  HW2    402   2.839   1.037   3.086 -0.5204 -2.5648 -1.7102
  135SOL  OW     403   2.934   1.332   2.927  0.2236 -0.9731 -0.4811
  135SOL  HW1    404   2.991   1.353   2.847 -0.1162 -1.2176 -0.2159
  135SOL  HW2    405   2.848   1.281   2.901  1.0949  1.1815 -2.8948
  136SOL  OW     406   2.683   2.264   1.340  0.4145  0.1769 -0.3591
  136SOL  HW1    407   2.781   2.278   1.373 -2.5645 -0.4936  0.2208
  136SOL  HW2    408   2.678   2.289   1.246 -0.6735  1.6708 -1.0761
  137SOL  OW     409   2.251   0.931   1.140 -0.6208  0.0399 -0.2650
  137SOL  HW1    410   2.153   0.912   1.116 -0.8523  0.4308 -0.2613
  137SOL  HW2    411   2.298   0.944   1.053 -4.7366 -0.7938  0.1084
  138SOL  OW     412   2.133   2.562   2.221 -0.2147  0.0120  0.3395
  138SOL  HW1    413   2.048   2.533   2.172 -2.5581  0.5214 -0.9753
  138SOL  HW2    414   2.186   2.475   2.253 -3.2714 -0.2973 -1.3767
  139SOL  OW     415   2.556   2.543   0.259  0.1896 -0.1284 -0.2672
  139SOL  HW1    416   2.656   2.554   0.262  0.6802 -0.3652  0.4117
  139SOL  HW2    417   2.515   2.633   0.250  1.3945 -0.1907  0.0081
  140SOL  OW     418   0.016   1.323   1.470  0.0768  0.2159  0.3046
  140SOL  HW1    419   3.032   1.293   1.414 -0.3899 -0.2220  0.8322
  140SOL  HW2    420   0.086   1.377   1.416 -0.0042  1.0408 -0.7736
  141SOL  OW     421   1.412   2.115   1.757  0.4322  0.0451  0.5621
  141SOL  HW1    422   1.323   2.094   1.804 -0.2105 -0.0083  1.0188
  141SOL  HW2    423   1.436   2.033   1.707  4.4093 -2.2402  1.3007
  142SOL  OW     424   2.284   0.189   2.614  0.3034 -0.2192  0.1978
  142SOL  HW1    425   2.179   0.203   2.602 -1.1155 -2.2668 -0.2102
  142SOL  HW2    426   2.317   0.253   2.683 -1.0734 -0.0949  0.7246
  143SOL  OW     427   1.603   2.824   1.145  0.2626  0.1811  0.2886
  143SOL  HW1    428   1.569   2.758   1.214 -0.9781  0.6135  4.1026
  143SOL  HW2    429   1.561   2.919   1.156  2.4926 -0.0224 -2.8625
  144SOL  OW     430   0.266   2.017   1.155 -0.1997  0.6181  0.5199
  144SOL  HW1    431   0.220   2.085   1.209  1.9153  0.7235  1.8513
  144SOL  HW2    432   0.199   1.962   1.095 -0.2670 -0.4281 -3.5024
  145SOL  OW     433   2.160   2.509   0.101  0.2813 -0.2465 -0.2043
  145SOL  HW1    434   2.187   2.410   0.108 -1.8705  0.5331 -1.4365
  145SOL  HW2    435   2.093   2.524   0.026 -1.2992  3.7647  1.2429
  146SOL  OW     436   2.066   1.959   0.330  0.2050  0.4921  0.6131
  146SOL  HW1    437   2.044   1.951   0.429 -1.2932  0.0564 -1.9327
  146SOL  HW2    438   1.989   2.000   0.274  0.1069 -1.1577  0.7436
  147SOL  OW     439   2.240   2.171   1.728 -0.3537 -0.0060  0.3614
  147SOL  HW1    440   2.270   2.267   1.721 -0.1249 -0.3853 -0.7384
  147SOL  HW2    441   2.280   2.116   1.654  1.5787  1.5888  0.5210
  148SOL  OW     442   1.912   2.700   1.432 -0.1410  0.3994 -0.4914
  148SOL  HW1    443   1.834   2.722   1.491 -0.9701  0.4345 -1.7886
  148SOL  HW2    444   1.966   2.616   1.469  0.5361  0.0439 -2.0271
  149SOL  OW     445   1.202   1.395   1.586  0.4446 -1.3243  0.3559
  149SOL  HW1    446   1.280   1.455   1.553  1.7241  0.0933 -2.7890
  149SOL  HW2    447   1.112   1.423   1.545 -0.6411 -1.0163  1.7289
  150SOL  OW     448   2.456   2.475   1.237 -0.1611 -0.6585 -0.4405
  150SOL  HW1    449   2.372   2.531   1.222  0.3496 -1.5349 -0.9745
  150SOL  HW2    450   2.474   2.433   1.144 -2.3989 -2.5789  2.4772
  151SOL  OW     451   0.778   2.462   1.187 -0.2756 -0.2446  0.4682
  151SOL  HW1    452   0.796   2.504   1.096  0.3001  0.9975  5.4077
  151SOL  HW2    453   0.783   2.361   1.186  0.7867  0.4917 -0.6952
  152SOL  OW     454   2.942   2.312   1.426 -0.2501  0.2339  0.2793
  152SOL  HW1    455   2.955   2.380   1.499  0.7163  0.0997  0.0966
  152SOL  HW2    456   2.975   2.221   1.455  1.3956 -0.1387  0.8873
  153SOL  OW     457   1.317   2.358   1.663 -0.3292  0.4762 -0.1024
  153SOL  HW1    458   1.358   2.274   1.707  0.1999  3.1249 -0.9909
  153SOL  HW2    459   1.372   2.438   1.681 -2.6707 -1.4805  2.2444
  154SOL  OW     460   2.086   0.048   0.944  0.4274 -0.3588  0.4303
  154SOL  HW1    461   2.044   0.067   1.032 -1.4667  1.6546 -0.1754
  154SOL  HW2    462   2.147   3.062   0.946  1.6468 -0.1366 -0.5639
  155SOL  OW     463   2.838   1.691   0.983 -0.1436  0.4634 -0.5778
  155SOL  HW1    464   2.894   1.657   1.070  2.4204 -0.0603  0.4357
  155SOL  HW2    465   2.845   1.794   0.987 -1.1504 -1.0938  1.5243
  156SOL  OW     466   0.042   1.822   2.720  0.2663  0.1320 -0.4360
  156SOL  HW1    467   0.079   1.893   2.658 -2.7435 -1.1633 -4.5877
  156SOL  HW2    468   0.079   1.831   2.816  0.8816  2.2971  1.0264
  157SOL  OW     469   0.099   0.591   2.267 -0.2910  0.2472  0.0259
  157SOL  HW1    470   0.094   0.588   2.164 -3.3314  2.7410 -0.9791
  157SOL  HW2    471   0.008   0.574   2.310  1.0510 -1.8142  0.8086
  158SOL  OW     472   1.935   0.220   1.401  0.1670 -0.4334  0.2507
  158SOL  HW1    473   2.035   0.217   1.377  1.5032  2.4767  3.6816
  158SOL  HW2    474   1.920   0.313   1.446  0.7899 -0.1015 -1.4181
  159SOL  OW     475   1.617   0.934   2.256  0.3969  0.0126  0.1315
  159SOL  HW1    476   1.638   0.939   2.357  0.6953 -1.8473  2.4006
  159SOL  HW2    477   1.573   1.017   2.221  3.5515  0.0218 -1.0202
  160SOL  OW     478   1.427   1.418   2.575  0.8245 -0.2282  0.0409
  160SOL  HW1    479   1.495   1.440   2.502  2.2380 -1.0177  0.9746
  160SOL  HW2    480   1.468   1.420   2.668 -3.2059 -0.5392  0.3716
  161SOL  OW     481   0.619   2.002   2.476 -0.3563 -0.8509  0.1515
  161SOL  HW1    482   0.572   1.913   2.459 -0.5167 -0.0864  0.4013
  161SOL  HW2    483   0.593   2.033   2.568  4.3266 -0.9404 -0.1248
  162SOL  OW     484   0.507   2.664   0.931  0.0720  0.8350 -0.2182
  162SOL  HW1    485   0.406   2.671   0.926  1.2018 -0.1713  1.7143
  162SOL  HW2    486   0.535   2.567   0.914  1.2640 -1.9285  1.8086
  163SOL  OW     487   3.095   0.736   0.457  0.1983 -0.2034 -0.1077
  163SOL  HW1    488   0.096   0.735   0.440 -0.1738 -0.7033 -2.2699
  163SOL  HW2    489   3.062   0.822   0.489  1.4515  1.3210 -0.4467
  164SOL  OW     490   0.601   2.823   0.419  0.0055 -0.5213  0.0017
  164SOL  HW1    491   0.548   2.746   0.451  0.0205  1.7593 -1.7357
  164SOL  HW2    492   0.536   2.898   0.373 -0.4210 -0.0897  0.7135
  165SOL  OW     493   0.906   0.787   0.886 -0.4378 -0.6691 -0.1220
  165SOL  HW1    494   0.896   0.700   0.934  0.0911  2.8946 -2.0600
  165SOL  HW2    495   0.990   0.842   0.918  1.9651  0.6415  1.0403
  166SOL  OW     496   1.347   1.522   1.133 -0.1398 -0.4483 -0.1320
  166SOL  HW1    497   1.380   1.460   1.203 -0.0301 -1.4172 -2.4011
  166SOL  HW2    498   1.248   1.555   1.141  4.5255 -0.3222 -0.5768
  167SOL  OW     499   2.992   0.097   1.056 -0.0373  0.1411 -0.1478
  167SOL  HW1    500   3.018   0.167   0.990 -2.1772 -3.0071 -1.0222
  167SOL  HW2    501   2.993   0.138   1.153  1.0779  1.0031 -0.2926
  168SOL  OW     502   2.318   0.371   0.215  0.3510  0.4565 -0.4387
  168SOL  HW1    503   2.223   0.390   0.235 -0.7770  0.7993  0.5349
  168SOL  HW2    504   2.333   0.369   0.114 -1.0077 -0.4756  2.2430
  169SOL  OW     505   1.153   1.370   0.837  0.4072 -0.8687  0.4282
  169SOL  HW1    506   1.103   1.386   0.747 -1.0377 -0.3783 -2.3776
  169SOL  HW2    507   1.225   1.449   0.845  0.8939 -1.1275  0.8102
  170SOL  OW     508   1.842   1.558   1.730 -0.0134  0.2167 -0.3237
  170SOL  HW1    509   1.852   1.490   1.652  1.3999 -0.7695  1.4467
  170SOL  HW2    510   1.763   1.523   1.788 -1.9739  0.0806 -4.3252
  171SOL  OW     511   1.309   2.889   0.753 -0.1735  0.1076 -0.1604
  171SOL  HW1    512   1.286   2.921   0.847  0.1892  1.9522 -0.2456
  171SOL  HW2    513   1.299   2.788   0.734 -1.5379  3.3692 -1.9281
  172SOL  OW     514   2.903   2.400   2.211  0.1766  0.3269  0.0719
  172SOL  HW1    515   2.867   2.310   2.182  2.4758 -1.6510  1.0498
  172SOL  HW2    516   2.847   2.438   2.286  2.0181 -0.5695  0.4635
  173SOL  OW     517   0.567   1.982   0.885 -0.4553  0.3230  0.4058
  173SOL  HW1    518   0.645   1.973   0.820  2.0013  2.0337  1.2006
  173SOL  HW2    519   0.487   1.937   0.843 -2.6470 -0.3539 -0.8227
  174SOL  OW     520   0.741   0.457   0.491 -0.3684  0.2675 -0.2710
  174SOL  HW1    521   0.773   0.548   0.528  0.2747 -2.0138  0.6393
  174SOL  HW2    522   0.640   0.456   0.501 -1.3515  0.0893  0.7054
  175SOL  OW     523   0.930   1.708   0.593 -0.2293 -0.5028  0.2423
  175SOL  HW1    524   0.990   1.788   0.576  1.2167  0.3854 -2.2377
  175SOL  HW2    525   0.831   1.731   0.581 -1.8111 -2.0585  0.4894
  176SOL  OW     526   0.964   0.798   1.967  0.1102 -0.2667  0.1311
  176SOL  HW1    527   0.868   0.774   1.993  1.0757  1.7003  0.6989
  176SOL  HW2    528   1.020   0.808   2.049 -2.0794  0.7834 -0.1673
  177SOL  OW     529   0.248   0.513   0.342 -0.3819 -0.3563  0.0963
  177SOL  HW1    530   0.264   0.494   0.243 -0.2083 -2.5201  0.0731
  177SOL  HW2    531   0.237   0.612   0.357  0.4461  0.9943 -0.4867
  178SOL  OW     532   2.305   0.785   0.536  0.5191  0.3282  0.1684
  178SOL  HW1    533   2.311   0.780   0.436 -1.6345  0.0150 -2.6190
  178SOL  HW2    534   2.387   0.830   0.569 -1.5441  2.0077  0.7049
  179SOL  OW     535   0.879   2.208   1.199  0.0034  0.2556  0.3924
  179SOL  HW1    536   0.972   2.226   1.162  0.0148 -0.3645  0.1923
  179SOL  HW2    537   0.840   2.122   1.159 -2.8586 -1.1190 -0.7155
  180SOL  OW     538   0.990   1.500   1.459 -0.0515 -0.1079  0.7826
  180SOL  HW1    539   0.946   1.583   1.506  2.7092 -1.2829  2.1274
  180SOL  HW2    540   1.003   1.521   1.361  2.1057 -1.3980  1.2413
  181SOL  OW     541   0.461   0.492   2.190  0.0217  0.0608  0.0059
  181SOL  HW1    542   0.483   0.412   2.139 -1.3186 -3.4021 -4.3131
  181SOL  HW2    543   0.392   0.480   2.265  0.7687  0.0406 -1.5187
  182SOL  OW     544   2.679   1.377   0.416  0.5583 -0.0220  0.2802
  182SOL  HW1    545   2.603   1.375   0.483 -0.6003 -0.7895  0.1753
  182SOL  HW2    546   2.670   1.451   0.346 -1.3778  0.5124 -2.9445
  183SOL  OW     547   0.213   0.664   1.454 -0.4478  0.3535  0.0201
  183SOL  HW1    548   0.233   0.718   1.537 -0.3962  0.5658 -2.0077
  183SOL  HW2    549   0.257   0.572   1.473  2.2568 -1.0453 -1.6536
  184SOL  OW     550   0.801   1.234   0.942 -0.8733  0.6410 -0.4044
  184SOL  HW1    551   0.845   1.303   0.998 -2.5480  1.3556 -1.8407
  184SOL  HW2    552   0.824   1.241   0.845 -0.2889 -0.2665 -0.9108
  185SOL  OW     553   1.867   1.068   2.875 -0.0288 -0.1545  0.2579
  185SOL  HW1    554   1.767   1.096   2.860 -0.5615  2.5187  1.9154
  185SOL  HW2    555   1.919   1.149   2.906  2.3448 -0.7986  3.4366
  186SOL  OW     556   2.341   2.442   1.709  0.1577  0.5942 -0.3031
  186SOL  HW1    557   2.443   2.433   1.735  0.9133 -0.4339  2.8970
  186SOL  HW2    558   2.318   2.541   1.713  1.2926 -0.1966 -2.5388
  187SOL  OW     559   1.350   1.404   2.211  0.5338 -0.2905 -0.3034
  187SOL  HW1    560   1.377   1.497   2.254 -3.2039  1.5735 -0.7184
  187SOL  HW2    561   1.361   1.416   2.113  0.0927  0.8566  0.4450
  188SOL  OW     562   1.788   0.726   1.407 -0.0993  0.0514 -0.2883
  188SOL  HW1    563   1.793   0.653   1.332 -2.1988  1.5816 -0.7142
  188SOL  HW2    564   1.793   0.683   1.497 -0.0682  0.7500  0.3373
  189SOL  OW     565   2.617   1.056   2.462  0.0986  0.7506  0.0529
  189SOL  HW1    566   2.614   0.980   2.530 -1.8228 -1.8156 -0.3144
  189SOL  HW2    567   2.625   1.027   2.364 -0.8403 -0.3554  1.5348
  190SOL  OW     568   1.500   2.238   0.741 -0.6752 -0.5185  0.3659
  190SOL  HW1    569   1.559   2.235   0.658 -1.2477  3.3306 -0.8609
  190SOL  HW2    570   1.416   2.181   0.731 -0.9878  0.0549 -1.6124
  191SOL  OW     571   0.074   0.696   0.827  0.0294  0.2744 -0.1598
  191SOL  HW1    572   0.068   0.802   0.826  2.1118 -1.8808 -0.2356
  191SOL  HW2    573   3.081   0.656   0.807  0.8707 -0.3349 -0.4396
  192SOL  OW     574   1.842   3.051   1.906  0.2347  0.3698 -0.0891
  192SOL  HW1    575   1.820   2.957   1.876 -3.6155 -1.0854 -2.2343
  192SOL  HW2    576   1.824   0.019   1.827  0.6919 -1.1950  2.2965
  193SOL  OW     577   1.960   0.473   1.517  0.1089 -0.0797 -0.4262
  193SOL  HW1    578   2.055   0.505   1.534 -0.4375  0.5817 -0.0876
  193SOL  HW2    579   1.927   0.475   1.422 -0.3188 -2.8456 -0.5105
  194SOL  OW     580   2.004   1.083   2.449  0.5849 -0.4906 -0.3325
  194SOL  HW1    581   2.090   1.041   2.433 -2.5398 -1.1602 -1.1511
  194SOL  HW2    582   1.926   1.020   2.431 -0.7680  1.6328  2.2166
  195SOL  OW     583   2.351   2.808   0.580  0.4273 -0.0453  0.4977
  195SOL  HW1    584   2.435   2.841   0.535 -1.3781  0.9319 -1.7410
  195SOL  HW2    585   2.345   2.709   0.586 -1.3795 -0.4142 -0.9955
  196SOL  OW     586   1.692   2.892   1.530  0.3284  0.6148 -0.4644
  196SOL  HW1    587   1.613   2.943   1.567  0.4469  0.2626  2.2267
  196SOL  HW2    588   1.772   2.953   1.519 -0.2245  0.7172 -2.0355
  197SOL  OW     589   2.961   0.522   2.385  0.0477  0.6373 -0.4159
  197SOL  HW1    590   2.972   0.482   2.475  1.1890  2.7398  0.6221
  197SOL  HW2    591   2.889   0.597   2.386 -0.3074  2.0649  0.9702
  198SOL  OW     592   1.384   1.335   0.179  0.1030 -0.0737  0.1304
  198SOL  HW1    593   1.414   1.379   0.264  2.3783 -0.4195 -2.3256
  198SOL  HW2    594   1.425   1.240   0.180  0.1217 -2.1909 -0.3101
  199SOL  OW     595   2.166   1.011   2.007 -0.2061 -0.1688  0.4498
  199SOL  HW1    596   2.223   1.071   2.069  0.2234  1.9623 -0.5828
  199SOL  HW2    597   2.079   0.994   2.055  0.6483 -0.3631 -2.4820
  200SOL  OW     598   1.911   1.497   2.827  0.0422 -0.0846  0.1159
  200SOL  HW1    599   1.819   1.546   2.811  0.2480 -2.5676  0.0900
  200SOL  HW2    600   1.930   1.424   2.757  1.7779  0.5602  1.0238
  201SOL  OW     601   2.916   1.156   1.106  0.3300 -0.3912 -0.1241
  201SOL  HW1    602   2.985   1.088   1.135 -0.6470  2.0144  2.0703
  201SOL  HW2    603   2.823   1.133   1.143 -0.9562  2.3266 -1.9046
  202SOL  OW     604   1.888   0.947   0.031  0.6016 -0.1386 -0.1013
  202SOL  HW1    605   1.890   1.001   3.040  2.6146 -0.9822  0.9723
  202SOL  HW2    606   1.978   0.903   0.040  1.0964  0.8180  0.7921
  203SOL  OW     607   1.755   0.212   0.999 -0.1455 -0.7278 -0.4154
  203SOL  HW1    608   1.698   0.150   0.944  0.4008  2.6691 -2.6101
  203SOL  HW2    609   1.804   0.147   1.067 -0.0731 -0.9588 -4.6294
  204SOL  OW     610   0.823   2.175   1.453 -0.4191 -0.6861 -0.2884
  204SOL  HW1    611   0.807   2.072   1.439 -0.6256  1.1073 -0.8491
  204SOL  HW2    612   0.857   2.215   1.366 -0.7482  0.3534  0.6931
  205SOL  OW     613   0.479   0.447   1.161  0.6031 -0.1052  0.1943
  205SOL  HW1    614   0.490   0.529   1.220 -1.1771 -1.3133 -0.2909
  205SOL  HW2    615   0.465   0.473   1.063  2.1900  2.3379  2.6661
  206SOL  OW     616   0.073   0.970   0.774 -0.0978  0.0502  0.2493
  206SOL  HW1    617   0.147   0.995   0.840  3.7740 -0.9854  2.0199
  206SOL  HW2    618   0.096   1.003   0.676  2.6055 -0.4736 -2.4432
  207SOL  OW     619   1.160   2.326   1.434  0.3426  0.7180 -0.6391
  207SOL  HW1    620   1.200   2.326   1.528 -2.1677 -1.4526  0.8963
  207SOL  HW2    621   1.198   2.410   1.381 -0.2622 -0.7208  1.8091
  208SOL  OW     622   2.471   0.557   1.613  0.1286  0.4113 -0.3634
  208SOL  HW1    623   2.517   0.465   1.594  0.5138  0.3047 -1.2426
  208SOL  HW2    624   2.526   0.642   1.588  0.6398 -1.4570 -2.0820
  209SOL  OW     625   0.146   1.062   0.519  0.0474  0.2577  0.1427
  209SOL  HW1    626   0.125   1.161   0.512  2.1266  1.2794 -0.5884
  209SOL  HW2    627   0.209   1.028   0.442 -1.0992  0.7829  1.1682
  210SOL  OW     628   2.365   2.222   1.116  0.3287 -0.1246  0.3789
  210SOL  HW1    629   2.355   2.124   1.145 -0.1806 -0.1298  0.5093
  210SOL  HW2    630   2.433   2.226   1.045 -0.9961  0.4788  2.3537
  211SOL  OW     631   1.873   2.848   0.595 -0.1784 -0.6177 -0.6717
  211SOL  HW1    632   1.924   2.935   0.614 -0.0738  1.0429 -1.5930
  211SOL  HW2    633   1.936   2.772   0.609  1.6279  3.1677  4.0244
  212SOL  OW     634   2.636   0.347   1.586 -0.4368 -0.1299  0.3596
  212SOL  HW1    635   2.639   0.308   1.492  1.1447 -0.3308 -1.9752
  212SOL  HW2    636   2.640   0.271   1.654 -1.1868 -2.6919  2.2779
  213SOL  OW     637   0.372   2.236   2.617  0.3446  0.6119 -0.1937
  213SOL  HW1    638   0.285   2.297   2.608 -1.5693  2.2670 -4.2784
  213SOL  HW2    639   0.459   2.285   2.583 -0.3829  2.1332 -1.0021
  214SOL  OW     640   2.337   2.750   0.144  0.0707  0.5594 -0.0135
  214SOL  HW1    641   2.316   2.811   0.223 -2.6844  0.7923 -2.1502
  214SOL  HW2    642   2.271   2.669   0.132  0.1577 -1.0438  2.6866
  215SOL  OW     643   1.530   1.629   0.677 -0.3385  0.3150 -0.9098
  215SOL  HW1    644   1.609   1.622   0.610 -0.9647 -2.8533 -1.9630
  215SOL  HW2    645   1.508   1.728   0.697 -0.7178 -3.4266  1.3577
  216SOL  OW     646   1.043   2.709   2.352  0.3057  0.1519 -0.1137
  216SOL  HW1    647   1.127   2.741   2.302 -2.2577  1.1673  1.1603
  216SOL  HW2    648   0.961   2.753   2.310  1.3881 -0.2875  1.8764
  217SOL  OW     649   0.601   1.118   2.039 -0.0460  0.4720  0.1768
  217SOL  HW1    650   0.643   1.036   2.089  1.8219  2.3940  0.6229
  217SOL  HW2    651   0.617   1.101   1.938  0.1409  0.3694 -0.3971
  218SOL  OW     652   1.677   2.520   1.778 -0.0411 -0.1459 -0.4109
  218SOL  HW1    653   1.634   2.431   1.809  1.4604  0.5119  1.1280
  218SOL  HW2    654   1.768   2.526   1.824  2.2242 -1.4850 -0.3558
  219SOL  OW     655   1.194   1.545   2.547  0.1519  0.1916 -0.8875
  219SOL  HW1    656   1.284   1.493   2.560  1.4463  0.7636 -2.6250
  219SOL  HW2    657   1.145   1.517   2.465 -0.7204 -1.0779 -1.2983
  220SOL  OW     658   1.038   1.694   0.195  0.6238  0.3205  0.2330
  220SOL  HW1    659   1.039   1.752   0.110 -0.1504 -0.8675  2.9873
  220SOL  HW2    660   0.976   1.621   0.170  1.9091 -2.8066 -0.3247
  221SOL  OW     661   2.397   1.367   0.051  0.5203  0.1481 -0.3001
  221SOL  HW1    662   2.461   1.429   0.002 -2.4568  0.8055 -0.0511
  221SOL  HW2    663   2.362   1.413   0.139 -0.8913 -2.0957 -1.6619
  222SOL  OW     664   1.291   0.953   0.292 -0.1152  0.5176  0.2156
  222SOL  HW1    665   1.334   0.899   0.365  1.3329 -1.1627  0.2929
  222SOL  HW2    666   1.356   0.975   0.216  0.0228  0.6253 -0.8187
  223SOL  OW     667   1.019   1.963   0.509 -0.0512 -0.2842  0.2116
  223SOL  HW1    668   0.993   2.045   0.565 -0.1613 -1.1627 -1.3077
  223SOL  HW2    669   1.113   1.929   0.528 -0.4529 -2.6759 -1.4669
  224SOL  OW     670   1.383   2.514   0.503 -0.1213  0.1998  0.4130
  224SOL  HW1    671   1.334   2.542   0.587 -0.6094  3.1026  1.6072
  224SOL  HW2    672   1.376   2.411   0.488  1.1912  0.2230 -0.0685
  225SOL  OW     673   0.228   2.727   0.507 -0.1281  0.0460  0.1840
  225SOL  HW1    674   0.323   2.719   0.535  0.0838  0.4117  1.1019
  225SOL  HW2    675   0.190   2.823   0.509 -1.0862 -1.2109 -0.6993
  226SOL  OW     676   0.894   1.958   2.610  0.3342 -0.2236 -0.5416
  226SOL  HW1    677   0.814   1.943   2.549  0.1634  0.0837 -1.7046
  226SOL  HW2    678   0.889   1.895   2.693  1.1186  1.2142  0.3008
  227SOL  OW     679   0.758   1.917   1.365 -0.1543 -0.8941  0.2787
  227SOL  HW1    680   0.673   1.861   1.377  1.4050  3.0809  3.1584
  227SOL  HW2    681   0.751   1.961   1.274 -1.4012 -1.0189  0.2210
  228SOL  OW     682   0.636   0.777   1.068  0.2647  0.0729  0.3199
  228SOL  HW1    683   0.684   0.860   1.114  0.6932  0.1120  1.1382
  228SOL  HW2    684   0.701   0.704   1.053 -0.1202  0.3956  0.1339
  229SOL  OW     685   2.558   2.674   2.509 -0.1145  0.1518  0.1944
  229SOL  HW1    686   2.587   2.682   2.606 -0.1306 -0.1276  4.1284
  229SOL  HW2    687   2.478   2.733   2.498 -1.9400  0.3038  0.4986
  230SOL  OW     688   0.276   1.025   0.968 -0.7231 -0.4034  0.2165
  230SOL  HW1    689   0.252   1.082   1.044  0.8461 -2.3300 -0.3824
  230SOL  HW2    690   0.317   0.937   0.997  0.3122  2.6353 -0.9476
  231SOL  OW     691   2.242   0.923   2.662 -0.2692  0.2535 -0.0207
  231SOL  HW1    692   2.242   0.940   2.558 -0.9624  0.7572 -0.2938
  231SOL  HW2    693   2.317   0.979   2.702  3.8875 -1.1318  2.1336
  232SOL  OW     694   2.189   1.065   0.238 -0.3772 -0.0595 -0.5200
  232SOL  HW1    695   2.274   1.049   0.180  1.1964 -1.5601 -2.8416
  232SOL  HW2    696   2.136   1.148   0.209 -0.6053 -1.8962  0.8175
  233SOL  OW     697   0.433   2.679   1.519  0.2210 -0.3235  0.0029
  233SOL  HW1    698   0.468   2.679   1.615 -1.2803  2.7635 -4.9982
  233SOL  HW2    699   0.497   2.622   1.461 -0.7566  0.0976 -2.6091
  234SOL  OW     700   2.596   0.788   1.992  0.5565  0.0796  0.2887
  234SOL  HW1    701   2.604   0.759   2.091 -0.7152  1.3619  0.6669
  234SOL  HW2    702   2.684   0.791   1.941 -0.0543 -3.8142  1.0549
  235SOL  OW     703   2.346   1.336   1.713 -0.1908 -0.0567  0.5868
  235SOL  HW1    704   2.358   1.293   1.620 -0.9502  0.0397 -2.0144
  235SOL  HW2    705   2.273   1.295   1.764  0.4407  0.3927  1.1588
  236SOL  OW     706   0.408   0.102   0.834 -0.0665 -0.2707 -0.0340
  236SOL  HW1    707   0.508   0.126   0.847  1.0788  1.2017  0.3665
  236SOL  HW2    708   0.382   0.059   0.741 -3.5366  2.1098 -0.4220
  237SOL  OW     709   1.123   0.694   0.569 -0.3580 -0.1014  0.1160
  237SOL  HW1    710   1.182   0.744   0.507  2.9864  0.9226  1.3819
  237SOL  HW2    711   1.164   0.693   0.663  0.5103  0.9393 -1.2429
  238SOL  OW     712   2.146   1.992   2.715  0.3494  0.3320 -0.0414
  238SOL  HW1    713   2.080   1.963   2.786 -0.3783 -2.0546 -0.3758
  238SOL  HW2    714   2.191   2.082   2.733  1.0033 -0.3609  0.9190
  239SOL  OW     715   1.425   1.542   1.556 -0.1667 -0.1057 -0.1450
  239SOL  HW1    716   1.495   1.469   1.560  0.9130 -0.6635  1.3448
  239SOL  HW2    717   1.437   1.611   1.483  1.2226 -2.5875 -0.6259
  240SOL  OW     718   1.888   2.155   0.704  0.2118  0.2723 -0.1550
  240SOL  HW1    719   1.798   2.111   0.682 -0.1454  2.5569 -2.1075
  240SOL  HW2    720   1.885   2.213   0.786  0.6282 -1.8363  2.0295
  241SOL  OW     721   1.258   1.028   2.038 -0.2700 -0.3076  0.4700
  241SOL  HW1    722   1.203   0.964   2.100 -2.5122  1.7429 -0.4798
  241SOL  HW2    723   1.190   1.083   1.985  0.5817  0.9353 -2.3509
  242SOL  OW     724   1.257   2.992   1.008  0.0441 -0.0341 -1.1559
  242SOL  HW1    725   1.346   3.015   1.052  1.1459  1.2373  1.4212
  242SOL  HW2    726   1.198   3.076   1.015 -0.3071  1.0136  1.4828
  243SOL  OW     727   1.274   0.709   0.802 -0.5576  0.5884 -0.0192
  243SOL  HW1    728   1.233   0.776   0.865  1.2196 -0.2705 -0.2580
  243SOL  HW2    729   1.359   0.747   0.757 -2.5148 -0.5370  2.7570
  244SOL  OW     730   1.699   1.379   2.465 -0.1838  0.6010  0.6992
  244SOL  HW1    731   1.727   1.364   2.365 -1.8440 -0.2222  0.2444
  244SOL  HW2    732   1.768   1.435   2.509  0.4553 -1.9047 -1.1749
  245SOL  OW     733   2.814   2.174   2.108  0.3269  0.0036  0.0218
  245SOL  HW1    734   2.715   2.176   2.098 -1.7476  1.7837 -1.1069
  245SOL  HW2    735   2.862   2.183   2.020  0.5622 -1.0079 -1.1051
  246SOL  OW     736   1.085   0.090   2.048 -0.1490  0.2046  0.3097
  246SOL  HW1    737   1.170   0.106   1.992  0.6690 -0.8190  2.6083
  246SOL  HW2    738   1.012   0.160   2.033  3.2271 -2.5436 -0.5710
  247SOL  OW     739   2.220   0.570   0.690 -0.2302 -0.1893  0.6033
  247SOL  HW1    740   2.267   0.591   0.777  2.3767 -1.3130 -0.7121
  247SOL  HW2    741   2.241   0.634   0.619  0.0908  2.1578 -0.4865
  248SOL  OW     742   3.081   2.860   0.727  0.2868  0.5358 -0.7087
  248SOL  HW1    743   3.058   2.888   0.823  2.1204  0.7320  1.9324
  248SOL  HW2    744   0.047   2.779   0.728  1.0730 -1.4083  0.6864
  249SOL  OW     745   0.921   0.123   1.599  0.0631  0.3295  0.1190
  249SOL  HW1    746   0.977   0.196   1.568  4.7867  0.8066 -1.9817
  249SOL  HW2    747   0.837   0.129   1.540  0.6817  1.7117 -0.4435
  250SOL  OW     748   2.659   0.930   2.697  0.4012  0.0197  0.0263
  250SOL  HW1    749   2.572   0.965   2.741 -0.4777 -0.5290  1.2254
  250SOL  HW2    750   2.679   0.830   2.714 -0.1367 -0.7062 -2.3323
  251SOL  OW     751   1.389   2.239   2.717 -0.7937 -0.8586  0.4576
  251SOL  HW1    752   1.328   2.271   2.644 -0.8047 -1.0586  0.6122
  251SOL  HW2    753   1.491   2.240   2.690 -2.5139  0.1372 -1.0606
  252SOL  OW     754   1.828   1.957   2.789 -0.3208  0.1696 -0.8293
  252SOL  HW1    755   1.868   1.998   2.703 -0.4588 -3.1256 -0.2570
  252SOL  HW2    756   1.897   1.938   2.864 -0.8558 -0.2629  0.9605
  253SOL  OW     757   2.214   0.618   1.564 -0.2264  0.7134 -0.0329
  253SOL  HW1    758   2.169   0.633   1.651  1.0970  1.2436  0.1698
  253SOL  HW2    759   2.308   0.578   1.571  0.6343  2.1980  0.6970
  254SOL  OW     760   2.029   1.492   1.324  0.0901 -0.1885 -0.0552
  254SOL  HW1    761   1.958   1.548   1.278 -0.0790  2.8054  2.4200
  254SOL  HW2    762   2.076   1.547   1.397 -0.2782 -1.9372  1.6821
  255SOL  OW     763   2.037   3.054   2.609  0.3030  0.5994 -0.1179
  255SOL  HW1    764   2.040   0.058   2.616 -1.1833  1.1360  0.6550
  255SOL  HW2    765   2.056   3.020   2.517  0.9765  0.6181 -0.5858
  256SOL  OW     766   2.344   2.028   1.927  0.6272 -0.5988 -0.1393
  256SOL  HW1    767   2.334   1.926   1.907  1.9613  2.9248 -2.3139
  256SOL  HW2    768   2.311   2.086   1.852  3.5910 -1.7687 -1.1617
  257SOL  OW     769   2.974   1.963   2.176 -0.0914 -0.2281  0.6055
  257SOL  HW1    770   2.924   1.931   2.261 -1.4129  0.3876  0.0825
  257SOL  HW2    771   2.928   2.048   2.136 -0.9918  1.6002 -1.1142
  258SOL  OW     772   1.178   2.055   1.877  0.1612  0.0231  0.1722
  258SOL  HW1    773   1.146   2.126   1.948 -0.0694  2.0469 -1.0405
  258SOL  HW2    774   1.099   2.013   1.825 -1.8623 -0.1161 -1.7207
  259SOL  OW     775   1.774   0.104   0.152 -0.2402 -0.1474 -0.1886
  259SOL  HW1    776   1.749   0.081   0.245  0.6413 -2.1865 -1.1179
  259SOL  HW2    777   1.864   0.145   0.155 -1.7890 -0.3325  0.1987
  260SOL  OW     778   0.524   3.049   1.468  0.2046  0.3011  0.4249
  260SOL  HW1    779   0.494   2.988   1.388  1.6763  2.3695 -0.2384
  260SOL  HW2    780   0.523   2.997   1.553 -1.3277 -1.1132  0.1674
  261SOL  OW     781   0.438   0.417   0.520  0.2234 -0.6531 -0.1332
  261SOL  HW1    782   0.449   0.480   0.601 -1.1544  2.4126 -0.4796
  261SOL  HW2    783   0.380   0.454   0.444  0.5632 -1.1624  0.1528
  262SOL  OW     784   1.502   2.469   0.880  0.3127  0.0690 -0.1172
  262SOL  HW1    785   1.427   2.477   0.947  0.1194  3.4476  0.7675
  262SOL  HW2    786   1.507   2.380   0.840 -1.6263 -1.4137 -0.3461
  263SOL  OW     787   0.792   2.948   1.219 -0.0446 -0.1342  0.5197
  263SOL  HW1    788   0.708   2.889   1.191  0.9015 -2.4375 -1.3742
  263SOL  HW2    789   0.834   2.917   1.311  2.0324 -2.1580  2.1882
  264SOL  OW     790   0.607   1.929   2.119  0.6505 -0.0391  0.2601
  264SOL  HW1    791   0.524   1.930   2.177 -0.6509 -1.2288 -1.0830
  264SOL  HW2    792   0.672   2.001   2.153 -0.0807 -0.5955  0.2379
  265SOL  OW     793   0.724   1.974   1.108 -0.4031  0.8151  0.1709
  265SOL  HW1    794   0.657   1.999   1.035 -2.6005 -1.5276  1.0611
  265SOL  HW2    795   0.786   1.895   1.086 -0.8101 -0.8785  1.2070
  266SOL  OW     796   0.508   2.269   1.824  0.1471 -0.2863  0.0517
  266SOL  HW1    797   0.529   2.174   1.856 -0.7741  0.5239 -0.1031
  266SOL  HW2    798   0.555   2.281   1.731  2.0567 -1.1833  1.3657
  267SOL  OW     799   0.309   1.172   0.051  0.4253 -0.5825  0.0461
  267SOL  HW1    800   0.300   1.133   3.055 -0.9420 -3.1670 -2.3661
  267SOL  HW2    801   0.218   1.160   0.099 -2.4601  0.9760  0.2847
  268SOL  OW     802   1.367   0.371   2.766 -0.8258  0.2042  0.6127
  268SOL  HW1    803   1.285   0.341   2.710  1.1229 -0.7804 -1.3915
  268SOL  HW2    804   1.390   0.464   2.737  2.9078 -2.1826  1.3514
  269SOL  OW     805   2.729   1.537   1.770 -0.5529 -0.0345 -0.6449
  269SOL  HW1    806   2.816   1.504   1.728  1.5373  0.4761  0.7396
  269SOL  HW2    807   2.741   1.591   1.860 -0.9151 -0.5982 -0.3780
  270SOL  OW     808   1.420   3.016   0.084 -0.6168  0.6400  0.3799
  270SOL  HW1    809   1.428   2.920   0.101  1.0305 -0.7247 -0.3459
  270SOL  HW2    810   1.439   3.028   3.076 -0.2680  1.2217 -0.7040
  271SOL  OW     811   0.600   1.267   1.384 -0.0873 -0.0345  0.4009
  271SOL  HW1    812   0.585   1.166   1.377 -1.1158  2.1908 -2.2678
  271SOL  HW2    813   0.571   1.320   1.305 -0.2031  1.1667  3.4513
  272SOL  OW     814   2.130   2.928   1.499  0.0015 -0.1771  1.0912
  272SOL  HW1    815   2.189   2.861   1.451 -1.0106  0.3038 -0.7699
  272SOL  HW2    816   2.187   2.993   1.550 -0.4312 -0.7294  0.7699
  273SOL  OW     817   2.203   2.096   2.145  0.1655  0.0476  0.4973
  273SOL  HW1    818   2.259   2.078   2.062 -0.0038 -0.9424 -3.2843
  273SOL  HW2    819   2.194   2.016   2.199 -2.0565  2.2221 -0.1964
  274SOL  OW     820   1.346   1.991   2.816 -0.1053 -0.0180  0.0810
  274SOL  HW1    821   1.358   2.084   2.772  0.4567 -2.5676  0.8530
  274SOL  HW2    822   1.298   1.930   2.753  0.9243  1.6678  0.9049
  275SOL  OW     823   0.292   2.221   0.569 -0.3807 -0.8442  0.3543
  275SOL  HW1    824   0.316   2.122   0.554 -2.0604 -1.1824 -1.5629
  275SOL  HW2    825   0.237   2.233   0.657 -1.8579 -1.4211 -0.2031
  276SOL  OW     826   2.783   1.987   1.738 -0.2878  1.1656  0.1418
  276SOL  HW1    827   2.833   2.057   1.791 -1.4048  0.0547  0.6326
  276SOL  HW2    828   2.683   2.009   1.731  0.9765  1.7629 -1.3455
  277SOL  OW     829   1.900   0.053   1.160  0.3995 -1.0416  0.7454
  277SOL  HW1    830   1.932   0.113   1.238  2.5650 -2.5122  1.0728
  277SOL  HW2    831   1.877   3.052   1.186 -2.8985  2.3494  1.1429
  278SOL  OW     832   2.532   0.460   2.578 -0.9043  0.2699  0.1529
  278SOL  HW1    833   2.480   0.459   2.492  2.6269  1.1997 -1.2866
  278SOL  HW2    834   2.465   0.443   2.655 -0.5518 -0.2629 -0.1732
  279SOL  OW     835   0.920   0.870   1.323  0.1768 -0.0024 -0.3386
  279SOL  HW1    836   0.869   0.916   1.249  5.7317 -1.1912  0.5701
  279SOL  HW2    837   0.862   0.805   1.375  0.0167  1.4590  1.5426
  280SOL  OW     838   1.388   0.480   0.402  0.0640 -0.3687 -0.0234
  280SOL  HW1    839   1.288   0.448   0.393  1.9278 -0.7611 -0.1616
  280SOL  HW2    840   1.444   0.443   0.326 -1.2076 -1.3009  0.2921
  281SOL  OW     841   1.511   1.407   2.851 -0.1500  0.2023 -0.1415
  281SOL  HW1    842   1.555   1.314   2.845 -1.2028 -2.1725  1.8411
  281SOL  HW2    843   1.451   1.405   2.935 -2.2659  0.2351  2.0703
  282SOL  OW     844   2.908   1.770   0.437 -0.8804  0.2771 -0.1227
  282SOL  HW1    845   2.880   1.746   0.344  0.8285  1.1692 -3.6891
  282SOL  HW2    846   2.827   1.822   0.480 -0.3174  0.0865 -0.8840
  283SOL  OW     847   1.181   2.427   0.079 -0.3123  0.4005  0.5011
  283SOL  HW1    848   1.264   2.411   0.025 -2.2638  0.2865  1.9873
  283SOL  HW2    849   1.109   2.474   0.018 -2.0491 -0.0838  1.2286
  284SOL  OW     850   0.576   0.944   2.655  0.4825  0.7019  0.7249
  284SOL  HW1    851   0.511   0.882   2.607 -0.5222 -0.3414  2.3808
  284SOL  HW2    852   0.625   0.899   2.732  0.8228  2.0314  0.8826
  285SOL  OW     853   1.950   0.548   3.012 -0.2213 -0.1320 -0.0646
  285SOL  HW1    854   1.981   0.517   2.918 -0.4962  1.1088 -0.3867
  285SOL  HW2    855   1.849   0.567   3.007 -2.6697 -0.8470 -0.7547
  286SOL  OW     856   1.074   1.097   0.739 -0.2025 -0.0892  0.3499
  286SOL  HW1    857   1.151   1.147   0.699 -2.6749  2.4518  0.5746
  286SOL  HW2    858   0.994   1.111   0.678  3.2250  0.2736  4.0468
  287SOL  OW     859   2.867   2.829   0.574  0.0614  0.3630 -0.1555
  287SOL  HW1    860   2.916   2.807   0.486  1.6984  1.9186 -0.9897
  287SOL  HW2    861   2.938   2.857   0.642 -0.3342  1.8110 -1.2008
  288SOL  OW     862   1.942   2.528   1.806 -0.2127  0.0763  0.5235
  288SOL  HW1    863   1.954   2.437   1.757 -1.2639 -1.8273  1.3024
  288SOL  HW2    864   1.976   2.607   1.752  0.2778 -0.7226  2.2828
  289SOL  OW     865   2.768   0.890   0.645 -0.4620 -0.1177  0.3766
  289SOL  HW1    866   2.838   0.900   0.570  0.1102  0.0239 -3.1508
  289SOL  HW2    867   2.810   0.897   0.741 -4.2071  0.3696 -0.1910
  290SOL  OW     868   1.119   1.546   2.959 -0.3586  0.5282 -0.7066
  290SOL  HW1    869   1.064   1.525   2.873 -1.1997  0.7067 -0.6249
  290SOL  HW2    870   1.122   1.650   2.976 -0.1502  1.0411  0.7070
  291SOL  OW     871   0.890   0.037   0.595  0.7335 -0.2714 -0.7154
  291SOL  HW1    872   0.969   3.070   0.574 -1.1852 -0.8288 -0.4259
  291SOL  HW2    873   0.815   3.085   0.645  2.9645  1.8081 -1.4156
  292SOL  OW     874   1.111   3.031   1.564 -0.1452  0.3719 -0.2870
  292SOL  HW1    875   1.076   2.977   1.484 -2.3302  1.7842 -1.1045
  292SOL  HW2    876   1.036   0.001   1.588 -0.5338  2.6965  0.7755
  293SOL  OW     877   2.183   1.749   0.812 -0.0661  0.1512 -0.0767
  293SOL  HW1    878   2.180   1.685   0.732 -1.1106 -1.9012 -2.2123
  293SOL  HW2    879   2.147   1.707   0.895 -1.3740  0.8243  0.2618
  294SOL  OW     880   0.451   0.633   1.954 -0.0898  0.2804  0.0289
  294SOL  HW1    881   0.440   0.581   2.040 -1.0292 -1.2902  1.8680
  294SOL  HW2    882   0.372   0.698   1.951  0.1897 -1.0233  0.8522
  295SOL  OW     883   1.038   2.818   3.073  0.1737  0.0395  1.0341
  295SOL  HW1    884   0.958   2.881   3.080  0.6410  1.5407  0.3923
  295SOL  HW2    885   1.017   2.723   3.058  0.8302  2.5042  0.6934
  296SOL  OW     886   1.834   0.535   0.348  0.4420  0.5344  0.4007
  296SOL  HW1    887   1.854   0.513   0.445 -1.2820 -1.9802 -0.5229
  296SOL  HW2    888   1.919   0.501   0.293  1.2987 -0.2481 -1.3641
  297SOL  OW     889   1.136   0.821   0.100 -0.4322  0.4294 -0.2121
  297SOL  HW1    890   1.198   0.781   0.031 -1.0809 -2.4407 -1.6628
  297SOL  HW2    891   1.178   0.841   0.189  1.8821  0.1639  2.2554
  298SOL  OW     892   1.059   2.812   0.340  0.5831 -0.5535 -0.5174
  298SOL  HW1    893   1.088   2.891   0.286 -0.1967  2.8548  1.4169
  298SOL  HW2    894   1.116   2.728   0.322 -1.4873  1.0681  0.5332
  299SOL  OW     895   1.265   2.312   2.483  0.8853  0.2887 -0.0841
  299SOL  HW1    896   1.269   2.233   2.416  1.3774  2.5474  0.8140
  299SOL  HW2    897   1.178   2.367   2.470  0.1166  1.5274 -0.0290
  300SOL  OW     898   2.510   1.726   2.367 -0.0126 -0.7641  0.5849
  300SOL  HW1    899   2.439   1.735   2.440  3.7357 -0.4449 -0.9220
  300SOL  HW2    900   2.531   1.817   2.327  1.8968 -2.8704 -2.5876
  301SOL  OW     901   2.522   2.075   1.719  0.5621  0.0700 -0.5364
  301SOL  HW1    902   2.475   2.035   1.800  0.6472  0.5047  3.4845
  301SOL  HW2    903   2.472   2.046   1.633  1.2564 -0.5114 -3.8653
  302SOL  OW     904   1.023   1.215   1.912  0.7474  0.0482  0.3327
  302SOL  HW1    905   0.941   1.280   1.903 -0.1747 -0.3887  0.8776
  302SOL  HW2    906   1.107   1.252   1.861  1.5013 -0.6348  1.1619
  303SOL  OW     907   1.353   2.615   2.945 -0.3079  0.3182 -0.0012
  303SOL  HW1    908   1.346   2.652   2.847  2.0058  4.1306  0.1393
  303SOL  HW2    909   1.359   2.688   3.018 -1.1353  1.9807  1.3462
  304SOL  OW     910   2.226   0.313   0.679  0.1764  0.1576  0.1522
  304SOL  HW1    911   2.142   0.269   0.642 -1.0202  0.8777 -0.0535
  304SOL  HW2    912   2.209   0.416   0.694  1.2801  0.7119 -0.4066
  305SOL  OW     913   1.103   1.631   1.208 -0.2658  0.2032 -0.2514
  305SOL  HW1    914   1.099   1.679   1.297 -1.6271 -0.0709  0.3687
  305SOL  HW2    915   1.128   1.697   1.137 -0.1179 -0.4574 -2.0160
  306SOL  OW     916   0.412   1.763   0.628  0.2696  0.1433 -0.0729
  306SOL  HW1    917   0.413   1.662   0.633  2.6714 -0.0017  2.6053
  306SOL  HW2    918   0.391   1.809   0.717  2.0869  0.8810  0.1400
  307SOL  OW     919   0.259   0.281   1.202 -0.1259 -0.4961  0.3233
  307SOL  HW1    920   0.333   0.342   1.212 -0.5733 -0.9943 -1.1357
  307SOL  HW2    921   0.173   0.336   1.186 -1.0071  0.3206  0.0274
  308SOL  OW     922   2.816   2.591   0.213  0.2957 -0.0463  0.2791
  308SOL  HW1    923   2.834   2.594   0.115 -1.2708  1.4785 -0.1121
  308SOL  HW2    924   2.866   2.673   0.262 -0.5598  5.7370 -1.0357
  309SOL  OW     925   1.704   2.490   2.568 -0.4261  0.2743  0.2183
  309SOL  HW1    926   1.688   2.555   2.643 -0.3236  0.4171  0.0185
  309SOL  HW2    927   1.791   2.513   2.517 -0.5691 -2.2013  1.9895
  310SOL  OW     928   1.709   1.322   2.215  0.2729 -0.2832 -0.2967
  310SOL  HW1    929   1.621   1.268   2.207 -0.8004  0.1547  0.6012
  310SOL  HW2    930   1.782   1.293   2.148  2.6747 -0.0434 -1.3424
  311SOL  OW     931   1.546   1.756   3.081 -0.7686  0.3862  0.0601
  311SOL  HW1    932   1.569   1.803   2.989 -0.1414 -0.5390  1.2610
  311SOL  HW2    933   1.493   1.673   3.064 -0.7489 -3.4183  0.8484
  312SOL  OW     934   1.733   1.621   0.496  0.3974  0.3335  0.6108
  312SOL  HW1    935   1.773   1.549   0.437 -0.3121  1.4201 -0.1189
  312SOL  HW2    936   1.671   1.681   0.439  0.0372 -1.1862  0.3595
  313SOL  OW     937   2.823   1.231   0.868  0.5068 -0.1493  0.2179
  313SOL  HW1    938   2.884   1.216   0.950 -2.1841 -0.3710 -0.7813
  313SOL  HW2    939   2.730   1.193   0.887 -0.0868  0.4032  1.3434
  314SOL  OW     940   2.366   0.896   1.870 -0.4248  0.0442  0.1250
  314SOL  HW1    941   2.443   0.861   1.932 -1.1322 -1.0058  0.3323
  314SOL  HW2    942   2.282   0.927   1.926  1.2105  0.6505  1.0564
  315SOL  OW     943   1.258   1.762   2.198 -0.0033 -0.0141  0.1171
  315SOL  HW1    944   1.314   1.847   2.199 -2.3934 -0.1116 -0.9324
  315SOL  HW2    945   1.222   1.747   2.105 -2.2302 -0.5216  0.0317
  316SOL  OW     946   2.829   1.176   0.368 -0.3832 -0.2343 -0.0178
  316SOL  HW1    947   2.784   1.263   0.395  1.4856  1.1282  0.3419
  316SOL  HW2    948   2.858   1.178   0.268  0.4253 -0.8064  0.7830
  317SOL  OW     949   1.046   1.465   0.580 -0.5316  0.0571 -0.5816
  317SOL  HW1    950   0.962   1.418   0.552 -0.9815  0.8713 -1.5994
  317SOL  HW2    951   1.030   1.566   0.587  0.0245  0.7370 -0.6040
  318SOL  OW     952   1.104   1.800   1.429  0.5472  0.0019  0.2223
  318SOL  HW1    953   1.141   1.892   1.449  0.0433 -2.4173  2.6682
  318SOL  HW2    954   1.013   1.793   1.472 -0.6838 -0.1012  1.9598
  319SOL  OW     955   0.937   1.048   2.798  0.4770  0.7789 -0.1455
  319SOL  HW1    956   0.971   1.071   2.894 -0.1417 -1.4373  0.0272
  319SOL  HW2    957   0.899   0.954   2.800 -2.1027  0.1609 -0.8447
  320SOL  OW     958   0.549   1.793   1.472 -0.4004 -0.7549  0.2437
  320SOL  HW1    959   0.583   1.717   1.527  0.2944 -0.4203  1.6290
  320SOL  HW2    960   0.460   1.827   1.505  1.6333 -0.5129  0.3811
  321SOL  OW     961   2.599   2.549   1.444 -0.0273 -0.2683 -0.1614
  321SOL  HW1    962   2.546   2.519   1.360 -2.5776  3.0546  1.4151
  321SOL  HW2    963   2.619   2.468   1.507 -0.6376 -0.8258  0.8216
  322SOL  OW     964   0.412   2.236   1.521 -0.4220  0.0115 -0.2014
  322SOL  HW1    965   0.374   2.314   1.464 -1.9503 -0.2634 -0.2408
  322SOL  HW2    966   0.502   2.265   1.552 -3.3290 -0.4852  1.6714
  323SOL  OW     967   0.573   0.173   0.245 -0.2705 -0.5699  0.8963
  323SOL  HW1    968   0.655   0.111   0.235 -2.8665 -1.6669  0.7924
  323SOL  HW2    969   0.553   0.173   0.346  0.6911 -0.4978  0.3857
  324SOL  OW     970   2.765   1.788   2.598  0.3613 -0.1935 -0.9445
  324SOL  HW1    971   2.764   1.687   2.583 -3.6415  1.6391  1.1151
  324SOL  HW2    972   2.836   1.798   2.673  1.2109  1.3248 -0.9736
  325SOL  OW     973   0.038   0.584   1.986 -0.1158  0.2168 -0.4170
  325SOL  HW1    974   3.029   0.587   1.981 -0.0374  0.4754  3.2818
  325SOL  HW2    975   0.075   0.515   1.926  0.7105 -0.7444  1.3307
  326SOL  OW     976   2.703   1.941   0.530  0.2352  0.7838  0.1853
  326SOL  HW1    977   2.688   2.024   0.469  2.0619  0.7716 -0.8601
  326SOL  HW2    978   2.614   1.908   0.568  0.7843 -0.9151 -0.9152
  327SOL  OW     979   0.342   0.606   2.785 -0.2650  0.0797 -0.4110
  327SOL  HW1    980   0.248   0.568   2.801 -0.1384 -0.7882 -2.5118
  327SOL  HW2    981   0.366   0.665   2.864  1.0637 -0.1526  0.2900
  328SOL  OW     982   1.577   1.867   2.834  0.2969  0.1275  0.2791
  328SOL  HW1    983   1.504   1.936   2.825 -0.3778  3.6228 -1.6598
  328SOL  HW2    984   1.671   1.906   2.808  3.4393 -3.4725 -0.4587
  329SOL  OW     985   2.351   1.992   1.520  0.2717  0.4521 -0.5358
  329SOL  HW1    986   2.270   2.015   1.466 -2.4777 -3.6753 -1.8991
  329SOL  HW2    987   2.432   1.976   1.457  0.0616 -0.1798  1.2967
  330SOL  OW     988   0.946   0.309   0.579 -0.2878 -0.3616 -0.1563
  330SOL  HW1    989   0.910   0.213   0.575  1.4849  2.0161 -0.7781
  330SOL  HW2    990   0.894   0.365   0.511  1.5471  1.6653  1.9764
  331SOL  OW     991   1.137   1.318   0.023  0.1561 -0.2500 -0.4331
  331SOL  HW1    992   1.141   1.402   3.062  0.3804 -0.5680  0.9619
  331SOL  HW2    993   1.216   1.306   0.090 -0.0588  0.0929 -0.2285
  332SOL  OW     994   2.720   0.410   1.128 -0.1054  0.0353  0.3774
  332SOL  HW1    995   2.729   0.440   1.032  1.5330 -0.1118 -2.1521
  332SOL  HW2    996   2.810   0.439   1.171  1.7489  1.5193  1.1422
  333SOL  OW     997   2.863   0.733   0.246  0.3405  0.7093 -0.7296
  333SOL  HW1    998   2.850   0.648   0.300  0.9082 -0.6394 -1.2744
  333SOL  HW2    999   2.914   0.799   0.302  2.3440  1.5675 -3.1451
  334SOL  OW    1000   2.801   1.611   2.036 -0.4756  0.0239 -0.3169
  334SOL  HW1   1001   2.845   1.697   2.007 -3.1075 -2.5007 -0.9355
  334SOL  HW2   1002   2.869   1.537   2.049 -1.0506  1.8644  3.9175
  335SOL  OW    1003   1.960   0.465   0.606  0.5865 -0.0940  0.3501
  335SOL  HW1   1004   1.899   0.493   0.685 -2.1332 -0.6674 -3.6975
  335SOL  HW2   1005   2.057   0.493   0.625 -2.0713  0.1703  0.5312
  336SOL  OW    1006   0.874   2.866   1.446  0.2347 -1.4053 -0.0667
  336SOL  HW1   1007   0.825   2.876   1.535 -1.2467 -1.4614 -0.5846
  336SOL  HW2   1008   0.949   2.789   1.450 -0.4890  1.2647 -0.6262
  337SOL  OW    1009   1.208   2.116   2.276 -0.8833 -0.5180  0.4125
  337SOL  HW1   1010   1.293   2.082   2.231  0.1918  1.6195  0.6445
  337SOL  HW2   1011   1.178   2.055   2.356  2.9896 -1.1352  2.0340
  338SOL  OW    1012   0.409   2.611   2.637  0.4770  0.2880 -0.4213
  338SOL  HW1   1013   0.337   2.619   2.565 -2.9362 -2.3227  0.7742
  338SOL  HW2   1014   0.375   2.553   2.712 -0.5406 -1.3763  1.4802
  339SOL  OW    1015   2.189   1.083   0.727 -0.4513 -0.7207 -0.5206
  339SOL  HW1   1016   2.162   1.084   0.630  0.8075  0.1219 -1.1354
  339SOL  HW2   1017   2.191   1.180   0.757  2.3767 -1.8250  1.0379
  340SOL  OW    1018   1.546   0.712   2.099  0.0184  0.9678  0.6983
  340SOL  HW1   1019   1.602   0.641   2.142  0.9603 -0.1194  1.7945
  340SOL  HW2   1020   1.566   0.804   2.135 -1.6836 -2.2654  0.1351
  341SOL  OW    1021   1.152   1.736   1.938 -0.3694 -0.7471 -0.3010
  341SOL  HW1   1022   1.243   1.730   1.886 -0.7924  1.2561 -1.6457
  341SOL  HW2   1023   1.081   1.766   1.876  0.8116  2.1012  1.5709
  342SOL  OW    1024   0.054   2.289   2.323 -0.0046  0.0223 -0.6451
  342SOL  HW1   1025   0.022   2.210   2.377  3.6532 -1.8179 -0.8639
  342SOL  HW2   1026   3.077   2.335   2.266 -0.6144  5.0284 -0.8417
  343SOL  OW    1027   0.642   0.325   2.934 -0.1469 -0.3247 -0.7660
  343SOL  HW1   1028   0.611   0.239   2.896 -2.1822  0.0197  0.3634
  343SOL  HW2   1029   0.741   0.311   2.952 -0.0442 -1.0770 -2.5620
  344SOL  OW    1030   2.759   2.338   1.062 -0.6111  0.2638 -0.6369
  344SOL  HW1   1031   2.785   2.256   1.008  1.2346 -1.4290  0.0128
  344SOL  HW2   1032   2.672   2.381   1.032 -0.0769 -1.3271  0.1176
  345SOL  OW    1033   3.038   2.211   2.674 -0.4620  0.6208  0.1295
  345SOL  HW1   1034   2.998   2.303   2.658 -0.1726  0.6376  0.1006
  345SOL  HW2   1035   3.060   2.162   2.584  0.1719  2.4233  2.3613
  346SOL  OW    1036   0.727   2.142   2.262 -0.3004  0.3036 -0.3105
  346SOL  HW1   1037   0.688   2.092   2.343 -1.2561 -0.6272 -1.1090
  346SOL  HW2   1038   0.825   2.118   2.247  0.1336  0.5094 -1.0906
  347SOL  OW    1039   1.628   1.802   1.807 -0.8639 -0.6379  0.7347
  347SOL  HW1   1040   1.723   1.820   1.770 -0.1828  2.1116  2.3037
  347SOL  HW2   1041   1.625   1.849   1.901  2.0347  0.9885  1.1701
  348SOL  OW    1042   2.849   1.588   1.396  0.1797  0.6961 -0.1558
  348SOL  HW1   1043   2.907   1.615   1.317  0.7415 -0.6852 -0.6822
  348SOL  HW2   1044   2.837   1.484   1.398 -0.8308  0.4940 -2.5591
  349SOL  OW    1045   1.479   1.162   2.172  0.0419  0.3281  0.5555
  349SOL  HW1   1046   1.443   1.255   2.199 -2.4469 -2.1450  0.1542
  349SOL  HW2   1047   1.416   1.114   2.107  1.2376 -0.6522  0.3893
  350SOL  OW    1048   2.319   0.417   2.786  0.2132 -0.3116  0.2590
  350SOL  HW1   1049   2.288   0.516   2.781  0.4523  3.3962 -1.7863
  350SOL  HW2   1050   2.331   0.385   2.880  2.7618 -0.5457  0.7763
  351SOL  OW    1051   0.374   2.969   1.237 -0.0810 -0.2015 -0.4145
  351SOL  HW1   1052   0.318   2.889   1.261 -2.6092 -1.1269  1.2866
  351SOL  HW2   1053   0.326   3.024   1.166 -1.1708 -3.4607 -1.1109
  352SOL  OW    1054   0.297   1.959   0.476 -0.4816 -0.0626  0.2547
  352SOL  HW1   1055   0.362   1.989   0.404 -0.8222  1.6361 -2.2451
  352SOL  HW2   1056   0.339   1.872   0.516 -0.2043  0.9356 -1.7675
  353SOL  OW    1057   0.651   2.341   1.581 -0.2959  0.3663  0.2213
  353SOL  HW1   1058   0.686   2.435   1.596 -1.4351 -1.0195 -0.6063
  353SOL  HW2   1059   0.715   2.281   1.526 -0.6358  0.4448 -1.7024
  354SOL  OW    1060   0.985   0.899   2.415 -0.2607  0.0851 -0.9389
  354SOL  HW1   1061   1.051   0.898   2.491 -1.1316 -1.3766 -0.7661
  354SOL  HW2   1062   0.898   0.946   2.436  3.2315  4.4146 -1.4445
  355SOL  OW    1063   1.715   0.523   2.230 -0.7036 -0.9511  0.9561
  355SOL  HW1   1064   1.691   0.426   2.206 -0.8168 -1.9899  2.3871
  355SOL  HW2   1065   1.816   0.537   2.237  0.2587  1.5321  0.4627
  356SOL  OW    1066   1.787   1.251   1.934 -0.0093 -0.1085  0.2222
  356SOL  HW1   1067   1.725   1.331   1.934 -0.5239  1.9036  1.0653
  356SOL  HW2   1068   1.756   1.178   1.866  0.3155  1.8115 -0.4877
  357SOL  OW    1069   1.499   3.068   1.133 -0.0589  0.8629  0.5012
  357SOL  HW1   1070   1.491   0.054   1.192 -0.5970  0.5386 -0.5803
  357SOL  HW2   1071   1.535   3.095   1.046 -1.2705  0.1360  0.5850
  358SOL  OW    1072   2.045   2.626   0.614 -0.8544  0.1048  0.3369
  358SOL  HW1   1073   2.047   2.601   0.516  1.6400 -1.2096 -1.0199
  358SOL  HW2   1074   2.140   2.626   0.661  2.3767  1.6730  2.1669
  359SOL  OW    1075   2.554   2.001   2.281  0.5421  0.3789 -0.3047
  359SOL  HW1   1076   2.474   2.034   2.337  0.4676  2.6681  0.5262
  359SOL  HW2   1077   2.563   2.063   2.200 -2.6430 -0.1798  1.6625
  360SOL  OW    1078   1.565   2.299   1.874 -0.2631 -0.0568  0.4633
  360SOL  HW1   1079   1.512   2.226   1.818  0.5534 -1.5968 -0.7819
  360SOL  HW2   1080   1.607   2.257   1.957 -0.1955  2.2856  0.9303
  361SOL  OW    1081   1.135   0.365   0.010  0.2460  0.5627  0.8199
  361SOL  HW1   1082   1.232   0.390   3.087  1.5357 -0.3607 -0.2403
  361SOL  HW2   1083   1.093   0.438   0.069 -1.5090 -2.0149 -1.9604
  362SOL  OW    1084   0.750   0.593   1.420 -0.0272  0.2034 -0.0253
  362SOL  HW1   1085   0.791   0.525   1.360  0.1274 -1.3042 -0.7476
  362SOL  HW2   1086   0.781   0.582   1.520 -0.4954  2.7363 -1.0129
  363SOL  OW    1087   2.650   2.678   0.865  0.3885  0.0012 -0.3743
  363SOL  HW1   1088   2.723   2.639   0.802  2.1730  0.9257  0.8135
  363SOL  HW2   1089   2.635   2.775   0.846 -0.4292 -1.4504 -0.9871
  364SOL  OW    1090   0.721   0.711   1.744 -0.8333  0.0384  0.1506
  364SOL  HW1   1091   0.706   0.729   1.843 -0.6452 -1.7750  3.1966
  364SOL  HW2   1092   0.760   0.615   1.734 -1.4862  1.4117 -1.7580
  365SOL  OW    1093   0.564   0.456   2.718 -1.0793  0.5302  0.1529
  365SOL  HW1   1094   0.478   0.500   2.736 -1.1724  1.4837  1.3011
  365SOL  HW2   1095   0.595   0.420   2.805 -1.2555 -1.4219  3.7072
  366SOL  OW    1096   2.725   0.770   1.274  0.3838  0.5950  0.7675
  366SOL  HW1   1097   2.627   0.756   1.269  0.1189  0.6631 -1.1357
  366SOL  HW2   1098   2.766   0.772   1.180  0.8351  1.2191  1.2051
  367SOL  OW    1099   0.448   2.939   1.992 -0.3562  0.4991  0.5362
  367SOL  HW1   1100   0.489   2.924   1.897  2.2645  0.3076  1.0792
  367SOL  HW2   1101   0.514   2.963   2.065 -0.7688 -1.4352  1.1376
  368SOL  OW    1102   2.621   2.327   0.637 -0.0085  0.0158  0.1345
  368SOL  HW1   1103   2.598   2.265   0.719  0.7519 -3.0692  2.3506
  368SOL  HW2   1104   2.679   2.406   0.660  2.0625 -3.5477 -0.9335
  369SOL  OW    1105   0.987   1.490   2.736 -0.2454 -0.4676 -0.2293
  369SOL  HW1   1106   0.945   1.395   2.723 -0.7384  1.9036 -0.4164
  369SOL  HW2   1107   1.063   1.497   2.664  0.6524  1.3556 -1.5391
  370SOL  OW    1108   0.894   0.290   3.009  0.2526 -0.0713 -0.0649
  370SOL  HW1   1109   0.883   0.189   3.021  0.4914 -0.8538 -0.2522
  370SOL  HW2   1110   0.989   0.325   3.025 -3.0380 -2.1219 -2.9416
  371SOL  OW    1111   0.063   0.491   1.097  0.4028 -0.5012 -0.7627
  371SOL  HW1   1112   0.071   0.586   1.061 -0.9479 -2.4531 -0.8733
  371SOL  HW2   1113   3.085   0.489   1.163  0.9260  1.6458 -1.4599
  372SOL  OW    1114   2.092   2.638   2.767 -0.0395 -0.5552 -0.3670
  372SOL  HW1   1115   2.158   2.595   2.701  1.9836 -1.5276  0.5701
  372SOL  HW2   1116   2.009   2.661   2.714  2.4567  3.1363 -1.6840
  373SOL  OW    1117   3.060   2.367   0.676 -0.6310 -0.3303  0.6106
  373SOL  HW1   1118   0.013   2.296   0.731 -0.7073  1.8550 -0.9041
  373SOL  HW2   1119   3.051   2.337   0.580  0.0125 -1.8784 -1.9817
  374SOL  OW    1120   2.859   1.187   1.753 -0.5790  0.0631  0.4739
  374SOL  HW1   1121   2.776   1.207   1.808  1.5483 -0.1335 -0.4756
  374SOL  HW2   1122   2.923   1.116   1.785 -0.4694  0.7335  0.6697
  375SOL  OW    1123   2.781   0.733   2.419 -0.9412 -0.6337 -0.2655
  375SOL  HW1   1124   2.739   0.716   2.511  3.0106 -3.0119  2.0289
  375SOL  HW2   1125   2.824   0.826   2.416 -1.7239 -1.4359 -3.0212
  376SOL  OW    1126   0.080   2.895   1.559 -0.2529 -0.7653 -0.4513
  376SOL  HW1   1127   0.118   2.839   1.484 -1.9369  0.2230 -0.9482
  376SOL  HW2   1128   0.096   2.851   1.647 -2.3000 -1.4854  1.2221
  377SOL  OW    1129   2.509   0.210   2.454  0.2898 -0.0007  0.0764
  377SOL  HW1   1130   2.415   0.194   2.489 -2.4618 -0.6813 -3.6488
  377SOL  HW2   1131   2.552   0.301   2.482 -0.8572 -0.7581 -0.6913
  378SOL  OW    1132   2.893   1.141   2.318  0.0324 -0.0957  0.0929
  378SOL  HW1   1133   2.828   1.201   2.270 -1.5437 -0.6076 -2.1640
  378SOL  HW2   1134   2.903   1.052   2.265 -1.1338 -2.3011 -1.3047
  379SOL  OW    1135   0.586   0.685   2.344 -0.3875  0.2260 -0.5246
  379SOL  HW1   1136   0.546   0.621   2.274 -1.9379  0.0206 -0.9998
  379SOL  HW2   1137   0.526   0.714   2.421  0.0075 -2.3300  1.2286
  380SOL  OW    1138   0.372   1.165   0.760 -0.1378  0.3009 -0.2220
  380SOL  HW1   1139   0.348   1.086   0.817  0.0703 -1.3531 -0.1817
  380SOL  HW2   1140   0.288   1.226   0.744 -0.3472 -0.0323  0.9562
  381SOL  OW    1141   2.610   2.090   3.074 -0.9402 -0.6396 -0.2666
  381SOL  HW1   1142   2.618   2.171   3.020  1.9426  0.1720 -1.9183
  381SOL  HW2   1143   2.584   2.112   0.076 -1.3491  0.1519 -2.5064
  382SOL  OW    1144   2.671   2.777   1.791  0.0421 -0.6159  0.3561
  382SOL  HW1   1145   2.601   2.799   1.722 -1.0465 -0.6821 -1.0360
  382SOL  HW2   1146   2.766   2.778   1.748  0.1312 -1.9528  1.9673
  383SOL  OW    1147   0.520   2.385   0.583  0.3672 -0.3600  0.1023
  383SOL  HW1   1148   0.583   2.362   0.501 -0.6149 -0.8990 -0.4905
  383SOL  HW2   1149   0.438   2.323   0.587  2.9848 -1.2330  0.6765
  384SOL  OW    1150   0.090   0.058   2.698  0.4860 -0.0717 -0.0912
  384SOL  HW1   1151   0.016   0.080   2.765  0.5873 -0.5879 -0.5604
  384SOL  HW2   1152   0.100   3.055   2.688  1.0658 -0.4567  2.9702
  385SOL  OW    1153   1.630   1.563   0.979  0.2242 -0.2877  0.5319
  385SOL  HW1   1154   1.614   1.463   1.002  5.0771  0.6381  1.3417
  385SOL  HW2   1155   1.661   1.569   0.881  2.5355 -1.2112 -0.7677
  386SOL  OW    1156   2.335   2.818   2.440  0.1819  0.2963 -0.2390
  386SOL  HW1   1157   2.323   2.889   2.516  1.5578 -1.0061 -1.7482
  386SOL  HW2   1158   2.331   2.856   2.346  2.3326  2.0178 -0.4692
  387SOL  OW    1159   1.068   0.968   1.540 -0.0256 -0.3667 -0.1922
  387SOL  HW1   1160   1.008   0.978   1.619  1.0824 -1.6101  1.1695
  387SOL  HW2   1161   1.009   0.947   1.458  0.9243 -0.4181 -0.0855
  388SOL  OW    1162   0.329   1.612   2.306 -0.2887 -0.5299  1.0058
  388SOL  HW1   1163   0.270   1.636   2.231 -2.4020  1.2561 -0.5705
  388SOL  HW2   1164   0.301   1.532   2.360 -1.2972  0.1365  0.6460
  389SOL  OW    1165   0.586   1.556   2.234  0.0732  0.0252  0.0327
  389SOL  HW1   1166   0.646   1.593   2.306 -0.5194 -0.9810  0.9488
  389SOL  HW2   1167   0.486   1.576   2.253  1.3038 -1.2407  0.1978
  390SOL  OW    1168   3.023   0.516   0.618 -0.1904  0.7106 -0.2159
  390SOL  HW1   1169   3.095   0.448   0.586  1.2831  1.0501 -1.9400
  390SOL  HW2   1170   3.024   0.604   0.559 -0.2128  1.0835  0.4951
  391SOL  OW    1171   1.833   1.595   2.540  1.1542  0.0724  0.2322
  391SOL  HW1   1172   1.802   1.616   2.636 -0.4023  0.2480  2.0448
  391SOL  HW2   1173   1.823   1.686   2.492 -0.2418  0.5079  0.9266
  392SOL  OW    1174   0.381   2.885   2.791  0.4656 -0.5028 -0.2526
  392SOL  HW1   1175   0.467   2.920   2.751  0.4767 -1.1398 -1.5395
  392SOL  HW2   1176   0.401   2.812   2.861 -1.1479  0.3023  1.4310
  393SOL  OW    1177   0.889   2.372   2.199  0.3987  0.2525  0.0485
  393SOL  HW1   1178   0.820   2.310   2.243  0.9540  0.4566 -2.7407
  393SOL  HW2   1179   0.954   2.410   2.269  1.7192 -1.1062 -0.2180
  394SOL  OW    1180   2.950   2.458   2.625  0.1440  0.4223 -0.0301
  394SOL  HW1   1181   2.887   2.471   2.704  0.2597  1.1248 -1.4358
  394SOL  HW2   1182   3.022   2.529   2.630  1.0361 -3.0658  2.7064
  395SOL  OW    1183   0.142   0.750   1.191 -0.1140  0.2022  0.1255
  395SOL  HW1   1184   0.228   0.757   1.141 -0.6603  0.5519  0.3957
  395SOL  HW2   1185   0.153   0.713   1.289  3.0685 -0.9611 -0.2513
  396SOL  OW    1186   1.737   2.069   3.048 -0.9486 -0.4230 -0.5022
  396SOL  HW1   1187   1.765   2.047   2.949  0.9884 -2.5704  4.2032
  396SOL  HW2   1188   1.805   2.130   3.085  2.5984  1.0723  1.4372
  397SOL  OW    1189   0.425   0.745   2.540 -1.0257 -0.7132  0.0590
  397SOL  HW1   1190   0.337   0.793   2.509  0.4363  3.2799 -0.2294
  397SOL  HW2   1191   0.409   0.682   2.617 -1.0986 -0.2667  2.9657
  398SOL  OW    1192   1.063   0.174   0.190 -0.2229 -0.0518  0.0014
  398SOL  HW1   1193   1.104   0.245   0.128  0.5660  1.3820 -0.6794
  398SOL  HW2   1194   1.102   0.083   0.172  0.4373  2.6291  1.1175
  399SOL  OW    1195   3.011   0.213   1.727 -0.4912  0.6468 -0.5889
  399SOL  HW1   1196   3.068   0.163   1.663 -0.5443  1.5896 -1.7089
  399SOL  HW2   1197   2.973   0.146   1.798  0.4735 -1.9429 -1.2248
  400SOL  OW    1198   1.990   2.218   2.090 -0.2588 -0.2129  0.1356
  400SOL  HW1   1199   2.082   2.171   2.103  1.4773  0.0267  1.5845
  400SOL  HW2   1200   1.945   2.178   2.007  0.9632  0.5007 -0.9874
  401SOL  OW    1201   2.980   1.429   2.122 -0.6887 -0.5253  0.1618
  401SOL  HW1   1202   2.914   1.382   2.182  1.8968  1.2587  2.5788
  401SOL  HW2   1203   3.022   1.360   2.065  1.3388  0.0437  0.2291
  402SOL  OW    1204   0.520   0.838   0.250 -0.2597 -0.0101  0.0069
  402SOL  HW1   1205   0.587   0.844   0.323  0.2673  3.0880  0.8156
  402SOL  HW2   1206   0.564   0.819   0.157 -0.1795 -1.5940 -1.6378
  403SOL  OW    1207   0.813   1.673   1.040 -0.1317 -0.0407 -0.3239
  403SOL  HW1   1208   0.854   1.581   1.065 -0.8317 -0.0610  1.1077
  403SOL  HW2   1209   0.711   1.668   1.036  1.9315  0.7296 -2.3286
  404SOL  OW    1210   2.320   2.923   3.032  0.7892 -0.3370  0.8561
  404SOL  HW1   1211   2.237   2.902   2.969  0.2177  0.1278 -1.6861
  404SOL  HW2   1212   2.329   2.847   0.008 -0.8616  0.3411 -2.6412
  405SOL  OW    1213   0.070   0.147   2.260  0.5963  0.4299 -0.2789
  405SOL  HW1   1214   0.132   0.155   2.180  1.5754 -0.3349 -0.8771
  405SOL  HW2   1215   3.065   0.152   2.228 -0.0458 -2.3104  3.0928
  406SOL  OW    1216   0.728   1.471   3.040  0.1951 -0.5005  0.0952
  406SOL  HW1   1217   0.669   1.393   3.078 -1.3153 -0.4269  2.2450
  406SOL  HW2   1218   0.823   1.475   3.084 -0.6791 -1.4090 -0.6377
  407SOL  OW    1219   2.526   0.116   1.045 -0.3268 -0.4786  0.6122
  407SOL  HW1   1220   2.453   0.150   0.986  2.3847 -1.0227  2.2099
  407SOL  HW2   1221   2.491   0.094   1.140 -1.8632 -0.0271 -0.9440
  408SOL  OW    1222   2.709   2.865   2.058 -0.4168  0.1957  0.2033
  408SOL  HW1   1223   2.646   2.929   2.107 -3.7010  2.1159 -0.7614
  408SOL  HW2   1224   2.669   2.848   1.968 -1.1146 -0.3955  0.9360
  409SOL  OW    1225   2.944   0.821   1.424  0.1318 -0.6011  0.1919
  409SOL  HW1   1226   2.858   0.798   1.376  0.0115  3.2893 -0.1898
  409SOL  HW2   1227   3.002   0.743   1.457  1.4974 -0.1166  2.1612
  410SOL  OW    1228   2.560   2.673   2.211 -0.0092  0.8357  0.2226
  410SOL  HW1   1229   2.616   2.743   2.166  0.5638  1.9802 -1.8085
  410SOL  HW2   1230   2.562   2.668   2.313 -2.0667 -0.5542  0.6773
  411SOL  OW    1231   2.044   0.668   1.789  0.3244  0.1219 -0.3597
  411SOL  HW1   1232   2.033   0.709   1.882  0.4118 -0.4973  0.5155
  411SOL  HW2   1233   1.959   0.621   1.759 -0.6778 -0.0511  0.3248
  412SOL  OW    1234   1.703   3.095   2.128 -0.1030 -0.1262  0.8131
  412SOL  HW1   1235   1.704   3.016   2.192 -1.3799 -0.4973 -2.2588
  412SOL  HW2   1236   1.758   3.076   2.048  0.8749 -1.9352  0.4032
  413SOL  OW    1237   0.478   0.292   2.489  0.6484  0.1062 -0.0767
  413SOL  HW1   1238   0.511   0.335   2.577 -1.5421 -1.1896  2.0952
  413SOL  HW2   1239   0.398   0.331   2.448  0.7657  1.2551 -0.4942
  414SOL  OW    1240   2.587   1.916   0.951  0.0752 -0.5883  0.5238
  414SOL  HW1   1241   2.555   1.835   0.897  1.4623 -0.8790  2.9936
  414SOL  HW2   1242   2.680   1.905   0.992  0.6529  0.5868 -0.8516
  415SOL  OW    1243   0.293   2.247   2.199  0.4424 -0.2494 -0.0306
  415SOL  HW1   1244   0.211   2.253   2.263 -0.8490  0.7818 -2.4786
  415SOL  HW2   1245   0.276   2.320   2.128 -1.1575 -3.7567 -1.5073
  416SOL  OW    1246   0.837   2.405   2.577 -0.6497 -0.2020 -0.1764
  416SOL  HW1   1247   0.734   2.413   2.564 -0.8841 -3.1826 -1.0567
  416SOL  HW2   1248   0.852   2.338   2.653 -0.7295 -1.0306 -2.7722
  417SOL  OW    1249   2.613   1.290   1.843  0.1079  0.1345 -0.1891
  417SOL  HW1   1250   2.522   1.257   1.807 -0.8547 -1.3770  0.1157
  417SOL  HW2   1251   2.641   1.386   1.809  1.2382 -1.8863  1.2647
  418SOL  OW    1252   2.537   2.456   0.982 -0.2680  0.9770  0.0479
  418SOL  HW1   1253   2.586   2.540   0.942 -0.4478  1.7470  1.1391
  418SOL  HW2   1254   2.447   2.443   0.940 -0.1521  1.6146  1.4926
  419SOL  OW    1255   1.792   2.965   2.769  0.2356  0.0305  0.1678
  419SOL  HW1   1256   1.854   3.036   2.734  2.7149 -5.3227 -1.2129
  419SOL  HW2   1257   1.776   2.975   2.873 -0.2069 -1.3428  2.0940
  420SOL  OW    1258   0.671   1.610   1.648 -0.0184  0.0581 -0.4508
  420SOL  HW1   1259   0.708   1.518   1.615 -0.7804 -0.8388  1.4802
  420SOL  HW2   1260   0.640   1.596   1.740  1.4788 -1.2417  0.7849
  421SOL  OW    1261   2.328   2.798   1.357  0.6248 -0.3644 -0.4698
  421SOL  HW1   1262   2.411   2.801   1.414  0.9108  1.4060  2.3169
  421SOL  HW2   1263   2.309   2.704   1.313  1.2422  4.0326 -3.7410
  422SOL  OW    1264   2.286   2.693   1.759  0.1529  0.1667 -0.3354
  422SOL  HW1   1265   2.297   2.721   1.853  2.8014 -0.6195  1.4194
  422SOL  HW2   1266   2.196   2.728   1.725  0.1473  0.9356  4.9865
  423SOL  OW    1267   0.914   0.989   1.791 -0.1896 -0.8359 -0.0427
  423SOL  HW1   1268   0.961   1.075   1.832  0.7583  1.0783  0.7280
  423SOL  HW2   1269   0.948   0.912   1.845 -2.1911 -0.6818 -0.6564
  424SOL  OW    1270   2.091   1.990   0.939  0.1629  0.0637  0.4316
  424SOL  HW1   1271   1.987   1.975   0.935  1.9352  1.9347  1.0744
  424SOL  HW2   1272   2.143   1.915   0.889  1.2209  1.6491 -2.5886
  425SOL  OW    1273   1.600   0.100   2.530  0.2959  0.3325  0.0788
  425SOL  HW1   1274   1.583   0.144   2.622 -0.9026 -2.7694 -0.8057
  425SOL  HW2   1275   1.561   0.003   2.532 -0.2434  2.2798 -1.1570
  426SOL  OW    1276   2.990   0.747   0.013  0.1688 -0.0334 -0.6474
  426SOL  HW1   1277   3.091   0.733   3.091  1.4928 -3.3094  1.3078
  426SOL  HW2   1278   2.956   0.712   0.105 -1.5854  1.1629 -1.8460
  427SOL  OW    1279   2.039   3.031   0.341 -0.5126 -0.5588 -0.1027
  427SOL  HW1   1280   2.011   3.062   0.433  0.6558 -0.0994  3.1864
  427SOL  HW2   1281   1.995   2.941   0.320 -1.6316 -0.1919 -0.2522
  428SOL  OW    1282   1.710   0.963   1.054  0.1570 -0.0047  0.3291
  428SOL  HW1   1283   1.621   0.971   1.107 -0.7274 -0.3414  1.5232
  428SOL  HW2   1284   1.756   1.055   1.034 -0.0223  1.4391  2.0093
  429SOL  OW    1285   2.508   3.023   0.266 -0.5698 -0.0764  0.2508
  429SOL  HW1   1286   2.517   0.013   0.322  0.2075  0.3947  0.3813
  429SOL  HW2   1287   2.422   2.978   0.280 -0.9246  2.4838  2.5606
  430SOL  OW    1288   2.879   1.946   3.086 -0.2417 -0.0035  0.0833
  430SOL  HW1   1289   2.926   2.025   0.037  0.5461 -1.6547 -0.4592
  430SOL  HW2   1290   2.781   1.969   3.061 -0.1355 -1.0479  0.2953
  431SOL  OW    1291   2.958   2.039   0.660  0.2652 -0.4100 -0.0769
  431SOL  HW1   1292   3.005   2.048   0.570 -2.8797  1.0101 -0.4638
  431SOL  HW2   1293   2.856   2.027   0.639  0.7008 -0.4879  0.3320
  432SOL  OW    1294   0.568   2.669   1.758  0.3227  0.0138  0.2228
  432SOL  HW1   1295   0.552   2.610   1.837  0.6310  0.6191  2.4912
  432SOL  HW2   1296   0.656   2.648   1.712  1.5016 -0.5738  0.4181
  433SOL  OW    1297   0.879   1.802   1.576  0.2669 -0.4286 -0.3745
  433SOL  HW1   1298   0.795   1.746   1.598 -1.4012 -1.3390 -2.1045
  433SOL  HW2   1299   0.851   1.872   1.506 -0.1568 -0.1194 -1.9363
  434SOL  OW    1300   1.716   0.528   0.103  0.4950 -0.5431  0.4484
  434SOL  HW1   1301   1.767   0.539   0.191 -1.2662 -0.2486 -1.6128
  434SOL  HW2   1302   1.631   0.475   0.125  0.2363  0.6912  1.2410
  435SOL  OW    1303   0.694   2.757   2.994  0.2747  0.0526  0.1246
  435SOL  HW1   1304   0.741   2.710   2.914 -0.2675  0.5640  0.5384
  435SOL  HW2   1305   0.753   2.828   3.031  1.3322 -1.7637  1.2270
  436SOL  OW    1306   0.663   2.571   0.125  0.4122  0.7285  0.1857
  436SOL  HW1   1307   0.666   2.637   0.045 -0.5324 -0.5283  1.0451
  436SOL  HW2   1308   0.723   2.603   0.201  1.4552  1.1815 -0.6244
  437SOL  OW    1309   2.910   1.729   0.154 -0.4727  0.1054 -0.5310
  437SOL  HW1   1310   2.901   1.815   0.103 -4.5428  0.3307  1.4482
  437SOL  HW2   1311   2.976   1.669   0.103  2.2745 -1.3411 -2.2650
  438SOL  OW    1312   0.560   0.829   1.571 -0.2894 -0.8751 -0.0919
  438SOL  HW1   1313   0.618   0.788   1.643  0.7476  1.4449 -0.3562
  438SOL  HW2   1314   0.467   0.793   1.581  1.6954 -1.2394 -2.0514
  439SOL  OW    1315   2.436   1.572   2.746 -0.3660  0.3311 -0.9411
  439SOL  HW1   1316   2.397   1.650   2.689  1.6480 -0.1269  0.9786
  439SOL  HW2   1317   2.535   1.582   2.768 -3.0235 -0.0775  1.8266
  440SOL  OW    1318   2.298   0.715   2.413  0.3101 -0.0118  0.2291
  440SOL  HW1   1319   2.348   0.629   2.410 -0.3378 -1.3066 -0.5399
  440SOL  HW2   1320   2.202   0.705   2.446  1.2724 -2.9070 -1.7936
  441SOL  OW    1321   0.321   0.972   1.318 -0.6919  0.2536 -1.2199
  441SOL  HW1   1322   0.261   0.901   1.279 -3.3837  1.1604  0.0244
  441SOL  HW2   1323   0.273   1.020   1.396 -0.0574  0.9593  0.2118
  442SOL  OW    1324   2.253   1.739   1.217 -0.4903  0.2760 -0.0952
  442SOL  HW1   1325   2.192   1.693   1.148  2.7630 -2.0712 -0.3727
  442SOL  HW2   1326   2.213   1.734   1.314 -0.5038  2.1584  0.0837
  443SOL  OW    1327   2.097   1.665   0.330 -0.2938  0.1938 -0.0012
  443SOL  HW1   1328   2.084   1.766   0.327  2.9122 -0.1848 -0.0055
  443SOL  HW2   1329   2.016   1.605   0.331  0.4099 -2.3366 -0.0603
  444SOL  OW    1330   2.106   1.613   2.443 -0.0148 -0.5260 -0.2713
  444SOL  HW1   1331   2.015   1.620   2.489 -1.4254 -0.7342 -0.4774
  444SOL  HW2   1332   2.124   1.518   2.416  1.1462  0.1500  2.1498
  445SOL  OW    1333   0.819   1.500   0.751  0.2385  0.4723  0.3052
  445SOL  HW1   1334   0.877   1.565   0.694  1.9935 -0.7313 -1.7997
  445SOL  HW2   1335   0.825   1.525   0.848 -0.5473 -1.2688  1.0582
  446SOL  OW    1336   0.693   0.722   2.018 -0.8290  0.4467 -0.4803
  446SOL  HW1   1337   0.598   0.684   2.003  0.5850 -1.7177 -0.2518
  446SOL  HW2   1338   0.697   0.796   2.093 -0.6414  2.3648  1.8626
  447SOL  OW    1339   2.735   0.063   0.909 -0.3438  0.1337  0.4624
  447SOL  HW1   1340   2.659   0.059   0.973  0.6859  1.3030  2.5108
  447SOL  HW2   1341   2.828   0.055   0.948  0.5876 -0.7109 -1.0328
  448SOL  OW    1342   1.557   0.302   1.556  0.5168  0.8042 -0.1621
  448SOL  HW1   1343   1.649   0.274   1.598  2.9282 -2.2510  0.3325
  448SOL  HW2   1344   1.524   0.388   1.600 -0.3889  0.2014 -1.9457
  449SOL  OW    1345   0.260   1.924   1.901  0.3139  0.0011  0.5381
  449SOL  HW1   1346   0.218   1.897   1.990 -0.0990 -0.6081  2.8363
  449SOL  HW2   1347   0.362   1.927   1.910 -2.3880  0.2597 -0.2823
  450SOL  OW    1348   0.532   1.960   1.869 -0.6129 -0.0992 -0.4960
  450SOL  HW1   1349   0.575   1.897   1.800 -1.3311  0.4049  1.0018
  450SOL  HW2   1350   0.589   1.970   1.953 -0.9358 -0.0088 -0.3673
  451SOL  OW    1351   2.940   2.150   0.912 -0.2127  0.0341  0.1657
  451SOL  HW1   1352   2.940   2.151   0.810  0.7821  0.4103 -4.0288
  451SOL  HW2   1353   3.023   2.195   0.951 -0.7940 -2.0072 -0.9562
  452SOL  OW    1354   0.369   0.776   1.049 -0.5883  0.5576  0.1146
  452SOL  HW1   1355   0.465   0.793   1.078 -2.4347 -3.0795  2.8145
  452SOL  HW2   1356   0.363   0.686   1.005 -0.8545 -1.2658 -0.7273
  453SOL  OW    1357   0.122   2.987   0.530  0.4686 -0.4006  0.3179
  453SOL  HW1   1358   0.061   2.938   0.599  0.4802  0.0432  0.0326
  453SOL  HW2   1359   0.081   3.071   0.494 -0.5982 -2.2483  2.2779
  454SOL  OW    1360   1.122   0.239   0.766 -1.0693 -0.2500 -0.1338
  454SOL  HW1   1361   1.179   0.322   0.783  1.4818 -2.9496  0.2032
  454SOL  HW2   1362   1.043   0.255   0.703 -0.6514 -0.5665  1.5634
  455SOL  OW    1363   1.678   2.006   0.648 -0.4625  0.4320 -0.0678
  455SOL  HW1   1364   1.691   2.026   0.550  1.9869 -0.8080 -1.0325
  455SOL  HW2   1365   1.728   1.921   0.677 -0.6763  1.8248 -2.3161
  456SOL  OW    1366   2.071   2.550   0.361  0.2191 -0.3317 -0.0112
  456SOL  HW1   1367   2.068   2.459   0.405 -2.4493 -0.1973 -0.3079
  456SOL  HW2   1368   2.127   2.537   0.275 -0.3652  2.0167 -2.5003
  457SOL  OW    1369   2.268   2.438   0.891 -0.1741  0.1585 -0.7744
  457SOL  HW1   1370   2.223   2.355   0.856  2.0142 -1.7013 -0.7776
  457SOL  HW2   1371   2.215   2.487   0.956 -1.3410  0.9533 -0.2168
  458SOL  OW    1372   2.801   0.801   1.807  0.3351  0.4495 -0.1771
  458SOL  HW1   1373   2.826   0.703   1.824 -0.4008 -1.2157 -1.9436
  458SOL  HW2   1374   2.745   0.818   1.724  0.7905 -0.9537  2.9012
  459SOL  OW    1375   0.418   1.487   1.800 -0.1694 -0.0691 -0.2418
  459SOL  HW1   1376   0.440   1.434   1.717  1.0266 -0.7321  1.7870
  459SOL  HW2   1377   0.349   1.563   1.772 -3.3147  1.2136  1.0725
  460SOL  OW    1378   0.167   1.035   2.312  0.2938  0.2066 -0.3813
  460SOL  HW1   1379   0.118   1.105   2.363  2.4891  0.6281 -1.4207
  460SOL  HW2   1380   0.243   1.077   2.260  0.1913  0.6844  0.9047
  461SOL  OW    1381   0.632   2.302   0.349  0.8051 -1.1274 -0.2760
  461SOL  HW1   1382   0.715   2.269   0.296 -0.1311  0.7985  2.1727
  461SOL  HW2   1383   0.569   2.351   0.285  0.0226 -0.2507 -1.1185
  462SOL  OW    1384   1.317   2.629   0.746 -0.1031  0.4129 -0.4534
  462SOL  HW1   1385   1.398   2.581   0.784 -2.4282 -0.2184  2.7348
  462SOL  HW2   1386   1.244   2.633   0.821  0.7237 -0.9650 -1.5283
  463SOL  OW    1387   0.684   0.127   0.829  0.4011  0.8286 -0.2247
  463SOL  HW1   1388   0.676   0.107   0.927 -3.6415 -0.5650  2.7042
  463SOL  HW2   1389   0.681   0.034   0.783  0.7708 -2.7258  0.1724
  464SOL  OW    1390   2.451   2.384   0.030  0.7482  0.1332 -0.3620
  464SOL  HW1   1391   2.455   2.301   0.089  0.7229 -0.9486 -0.5617
  464SOL  HW2   1392   2.490   2.456   0.084  0.6372  2.8130 -1.0672
  465SOL  OW    1393   2.485   2.767   1.591  0.2613  0.6968  0.1354
  465SOL  HW1   1394   2.542   2.686   1.563  1.8205 -0.1427 -0.7394
  465SOL  HW2   1395   2.408   2.736   1.652 -0.6287 -0.8716  0.6602
  466SOL  OW    1396   2.178   2.231   0.139 -0.1890  0.2297  0.5681
  466SOL  HW1   1397   2.195   2.212   0.234  1.4822 -2.4826  1.8849
  466SOL  HW2   1398   2.207   2.151   0.082 -1.7547  2.6746 -0.6173
  467SOL  OW    1399   0.026   2.271   2.927 -0.1328 -0.0640 -0.1573
  467SOL  HW1   1400   0.005   2.248   2.829  0.4572  0.7338 -0.7244
  467SOL  HW2   1401   0.024   2.373   2.937  0.3689  2.2323  1.0698
  468SOL  OW    1402   2.337   1.662   2.977  0.1201 -0.0377 -0.1232
  468SOL  HW1   1403   2.387   1.752   2.980 -1.5226 -0.2179 -0.1789
  468SOL  HW2   1404   2.365   1.612   2.891 -0.6046 -1.4577  0.1916
  469SOL  OW    1405   0.858   0.659   0.626  0.5336 -0.6385  0.2969
  469SOL  HW1   1406   0.952   0.666   0.587  0.5250 -1.5659  0.9038
  469SOL  HW2   1407   0.859   0.695   0.719  0.2275 -0.5183 -2.2685
  470SOL  OW    1408   1.465   0.304   0.624  0.2181  0.1709 -0.2022
  470SOL  HW1   1409   1.420   0.210   0.625  0.9966 -0.5896  1.3123
  470SOL  HW2   1410   1.441   0.351   0.539 -1.0788  1.0054  0.3371
  471SOL  OW    1411   1.240   1.085   1.150  0.1002  0.0368  0.0898
  471SOL  HW1   1412   1.282   1.158   1.095  2.0637  2.2899 -0.8865
  471SOL  HW2   1413   1.228   1.117   1.244 -3.1111 -1.2449  2.1385
  472SOL  OW    1414   1.380   1.688   1.786 -0.1448  0.0030 -0.0976
  472SOL  HW1   1415   1.384   1.641   1.695  0.2494  0.9031 -5.1007
  472SOL  HW2   1416   1.461   1.751   1.791  0.0249 -1.4566  0.0359
  473SOL  OW    1417   0.634   1.644   2.639 -0.0330  0.1754 -0.3397
  473SOL  HW1   1418   0.651   1.561   2.695  0.7943  0.2014  1.1971
  473SOL  HW2   1419   0.694   1.645   2.561 -2.5362  0.0858 -1.2452
  474SOL  OW    1420   2.448   0.519   1.149 -0.2610 -0.3535  0.2022
  474SOL  HW1   1421   2.537   0.467   1.172  0.5130 -0.1158  1.6791
  474SOL  HW2   1422   2.371   0.455   1.161  1.1322 -1.8897 -0.6295
  475SOL  OW    1423   2.126   1.227   1.820 -0.3541 -0.7236  0.2614
  475SOL  HW1   1424   2.045   1.201   1.764  0.5426  0.5555 -2.4115
  475SOL  HW2   1425   2.140   1.169   1.901 -0.0993 -0.0135  0.0823
  476SOL  OW    1426   1.466   0.471   1.727 -0.1090  0.0022  0.5030
  476SOL  HW1   1427   1.517   0.416   1.795 -2.3880 -1.7485  1.6595
  476SOL  HW2   1428   1.394   0.527   1.777 -2.3561 -2.4197  0.8729
  477SOL  OW    1429   1.298   0.115   1.643 -0.1757 -0.5591  0.7231
  477SOL  HW1   1430   1.340   0.181   1.577 -1.0435  0.3319 -1.8966
  477SOL  HW2   1431   1.220   0.070   1.601 -0.0687  0.2915 -0.3628
  478SOL  OW    1432   1.646   2.900   0.756 -0.3629  0.2818  0.0125
  478SOL  HW1   1433   1.724   2.889   0.692 -0.6440 -2.6994  1.2312
  478SOL  HW2   1434   1.628   2.817   0.813  0.3835 -0.5632 -2.6495
  479SOL  OW    1435   1.877   1.822   2.170 -0.9190  0.0740 -0.4241
  479SOL  HW1   1436   1.822   1.742   2.139 -2.5069  2.1000 -1.7111
  479SOL  HW2   1437   1.980   1.800   2.164  1.9452 -2.1980 -2.5243
  480SOL  OW    1438   0.121   0.399   2.949  0.8937 -0.2690  0.0785
  480SOL  HW1   1439   0.064   0.346   3.016  0.2810  3.6038 -0.1931
  480SOL  HW2   1440   0.066   0.473   2.902  2.7114 -0.5655 -2.7282
  481SOL  OW    1441   1.962   0.929   1.437  0.2914 -0.0941  0.2376
  481SOL  HW1   1442   1.888   0.862   1.428 -1.1584  1.6597  1.3876
  481SOL  HW2   1443   2.053   0.885   1.448  0.0143  0.0215  1.7047
  482SOL  OW    1444   1.976   2.277   1.699 -0.4444 -0.5046  0.4478
  482SOL  HW1   1445   1.951   2.281   1.603  0.8827 -0.0977  0.8500
  482SOL  HW2   1446   2.066   2.230   1.708 -1.0430 -0.5320 -2.1099
  483SOL  OW    1447   0.866   1.887   0.299 -0.1703 -0.4742 -0.4716
  483SOL  HW1   1448   0.909   1.799   0.272 -0.2885 -1.0568 -2.1141
  483SOL  HW2   1449   0.905   1.915   0.387  3.2271  0.1143 -0.4621
  484SOL  OW    1450   2.092   3.044   2.324  0.7721  0.7535  0.1763
  484SOL  HW1   1451   2.177   3.013   2.268 -0.6644  0.9545  0.5944
  484SOL  HW2   1452   2.053   0.039   2.292 -0.0141 -0.5228 -1.9194
  485SOL  OW    1453   1.728   0.272   3.023  0.1660 -0.2665 -0.6176
  485SOL  HW1   1454   1.728   0.366   3.073  0.3423  2.8041  1.3390
  485SOL  HW2   1455   1.715   0.202   3.095  1.0567 -1.5644 -0.6061
  486SOL  OW    1456   2.719   0.089   2.331 -0.0607 -0.4640  0.4090
  486SOL  HW1   1457   2.775   0.050   2.407 -0.4689  2.6616  2.8928
  486SOL  HW2   1458   2.630   0.123   2.371 -0.3414 -2.9748  2.2757
  487SOL  OW    1459   2.036   0.168   0.177 -0.2985 -0.5936  0.2792
  487SOL  HW1   1460   2.051   0.089   0.241  2.1763  2.1790 -0.1924
  487SOL  HW2   1461   2.063   0.138   0.081 -2.2183 -0.4650  1.7428
  488SOL  OW    1462   0.687   1.417   2.782  0.0697  0.4563  0.0816
  488SOL  HW1   1463   0.700   1.425   2.881 -0.2079  0.5729  1.4075
  488SOL  HW2   1464   0.765   1.373   2.734  3.7941 -3.4075 -0.6902
  489SOL  OW    1465   1.820   1.804   0.775 -0.0501 -0.1594  0.7975
  489SOL  HW1   1466   1.803   1.843   0.864 -3.0380  0.7333  0.5590
  489SOL  HW2   1467   1.827   1.699   0.776 -0.0158  0.5369  1.9408
  490SOL  OW    1468   0.177   0.721   0.028 -0.1814 -0.2299 -0.3462
  490SOL  HW1   1469   0.215   0.626   0.052  0.0334 -2.0072  1.4354
  490SOL  HW2   1470   0.251   0.778   3.093 -0.1320  0.8542  1.3386
  491SOL  OW    1471   1.916   2.772   0.279  0.4987  0.2605  0.1547
  491SOL  HW1   1472   1.953   2.681   0.317  0.0979 -3.1517 -2.5620
  491SOL  HW2   1473   1.816   2.778   0.301 -1.2431 -0.8628 -1.9925
  492SOL  OW    1474   1.033   2.139   0.867  0.5192 -0.6169 -0.2143
  492SOL  HW1   1475   1.088   2.179   0.940  0.4891  0.3088  0.3496
  492SOL  HW2   1476   0.986   2.050   0.892 -0.2007  1.4306  0.1270
  493SOL  OW    1477   0.019   1.969   0.425 -0.1841  0.6908  0.6587
  493SOL  HW1   1478   3.067   1.879   0.432 -0.3153 -1.7278 -2.0017
  493SOL  HW2   1479   0.117   1.963   0.450 -0.4834 -1.4988 -0.9386
  494SOL  OW    1480   0.860   3.067   2.463  0.1362 -0.3411 -0.2420
  494SOL  HW1   1481   0.939   3.083   2.530  1.5763 -0.1652  0.1570
  494SOL  HW2   1482   0.825   0.060   2.425  1.1406 -3.8610  1.0889
  495SOL  OW    1483   2.278   2.914   0.346  0.4646 -0.1750 -0.1086
  495SOL  HW1   1484   2.297   2.869   0.438 -1.5352  0.0239  0.4973
  495SOL  HW2   1485   2.189   2.965   0.346  0.1937 -1.0854 -0.3156
  496SOL  OW    1486   2.965   2.801   2.138  0.0155 -0.2345  0.0970
  496SOL  HW1   1487   2.980   2.713   2.090 -1.1310 -0.4232 -0.4922
  496SOL  HW2   1488   2.884   2.844   2.102  0.9238 -0.1912 -0.1716
  497SOL  OW    1489   1.145   2.062   1.534 -0.1774 -1.2108 -0.2487
  497SOL  HW1   1490   1.164   2.149   1.489 -2.8058  0.7652 -2.0446
  497SOL  HW2   1491   1.120   2.072   1.635 -0.0898  2.7202  0.9522
  498SOL  OW    1492   0.246   2.329   0.325 -0.6868  0.6215  0.1330
  498SOL  HW1   1493   0.318   2.359   0.261  0.7056  1.3118 -0.5798
  498SOL  HW2   1494   0.290   2.289   0.411  1.6728  0.4301  1.6166
  499SOL  OW    1495   2.386   0.658   0.919  0.4273  0.2005 -0.3209
  499SOL  HW1   1496   2.384   0.606   1.009  1.7728 -0.9949 -2.0434
  499SOL  HW2   1497   2.463   0.622   0.859 -1.8901  1.5266 -1.3669
  500SOL  OW    1498   1.160   0.996   2.651  0.4747  0.0228 -0.0903
  500SOL  HW1   1499   1.211   1.079   2.612  0.1629  1.4107  1.5286
  500SOL  HW2   1500   1.076   1.028   2.701 -0.1190 -2.8265  1.6817
  501SOL  OW    1501   0.686   0.285   1.184 -0.1779 -0.4368 -0.6162
  501SOL  HW1   1502   0.768   0.333   1.213  1.1207 -0.7727  1.6701
  501SOL  HW2   1503   0.605   0.350   1.183 -1.1347  1.6593  1.8869
  502SOL  OW    1504   0.850   2.161   0.227 -0.3699 -0.3373  0.2212
  502SOL  HW1   1505   0.866   2.060   0.239 -0.4013  0.6782  0.4315
  502SOL  HW2   1506   0.939   2.208   0.259 -0.1941 -3.3165 -1.8015
  503SOL  OW    1507   0.810   0.045   2.854  0.3424  1.0367 -0.4299
  503SOL  HW1   1508   0.738   0.074   2.790  0.2094 -0.8854 -0.0963
  503SOL  HW2   1509   0.899   0.019   2.802 -1.5740  1.9098  3.3706
  504SOL  OW    1510   1.873   2.886   1.216 -0.0949  0.4439 -0.3130
  504SOL  HW1   1511   1.778   2.872   1.182  1.3257  0.4507  0.1883
  504SOL  HW2   1512   1.889   2.833   1.307  0.1024 -0.2932 -0.5374
  505SOL  OW    1513   1.194   2.778   1.677  0.3861 -0.1561  0.2571
  505SOL  HW1   1514   1.208   2.763   1.776 -1.5603 -1.0032  0.7680
  505SOL  HW2   1515   1.180   2.879   1.650 -0.3957  0.0291 -0.9961
  506SOL  OW    1516   1.367   2.348   2.985  0.6448  0.0759  0.8314
  506SOL  HW1   1517   1.385   2.297   2.902 -2.6379  1.3427 -0.5130
  506SOL  HW2   1518   1.371   2.446   2.965 -0.8390 -1.2823 -2.8467
  507SOL  OW    1519   1.467   0.142   0.238  0.4682  0.0989  0.3907
  507SOL  HW1   1520   1.461   0.068   0.168 -1.2348 -1.5534  0.1862
  507SOL  HW2   1521   1.406   0.116   0.321 -0.8654  0.5379 -0.0582
  508SOL  OW    1522   1.733   0.766   1.878 -0.3965 -0.0104 -1.1510
  508SOL  HW1   1523   1.758   0.682   1.819  3.7691 -2.4424  1.6808
  508SOL  HW2   1524   1.670   0.736   1.951 -2.1387 -0.5027  0.1549
  509SOL  OW    1525   0.927   0.402   2.534  0.0455 -0.8599 -0.2786
  509SOL  HW1   1526   0.847   0.341   2.513  1.9289  1.3306 -1.4889
  509SOL  HW2   1527   0.925   0.484   2.471 -0.9655  0.4902 -1.9379
  510SOL  OW    1528   1.090   0.677   1.249 -0.7915 -0.0190  0.5642
  510SOL  HW1   1529   1.034   0.754   1.276 -2.9862  1.2634  3.2239
  510SOL  HW2   1530   1.155   0.694   1.171  0.8411  0.8613 -0.2926
  511SOL  OW    1531   0.582   1.281   0.073  0.0573  0.3512 -0.5018
  511SOL  HW1   1532   0.482   1.245   0.065  0.1184 -2.4929 -2.5361
  511SOL  HW2   1533   0.588   1.368   0.126  0.5582  4.1131  0.5908
  512SOL  OW    1534   0.554   2.070   2.745 -0.1208 -0.0991 -0.3827
  512SOL  HW1   1535   0.626   2.093   2.811 -2.9623 -0.9132 -1.2605
  512SOL  HW2   1536   0.475   2.137   2.743 -1.9095 -0.2225 -2.0121
  513SOL  OW    1537   0.765   1.993   0.712 -0.2114  0.1545 -0.1175
  513SOL  HW1   1538   0.803   2.076   0.670 -1.4881 -3.1593  1.2035
  513SOL  HW2   1539   0.715   1.934   0.648 -1.3082 -1.8464 -1.0567
  514SOL  OW    1540   1.289   2.493   1.063  0.0777  0.4680  0.1351
  514SOL  HW1   1541   1.218   2.548   1.010  0.3454 -1.0029 -1.2274
  514SOL  HW2   1542   1.289   2.529   1.158 -0.2694  1.8282 -1.7357
  515SOL  OW    1543   2.458   0.978   0.161 -0.0756  0.1703  0.0023
  515SOL  HW1   1544   2.513   0.906   0.110 -1.8881  0.0347  0.3255
  515SOL  HW2   1545   2.489   1.005   0.254 -0.3337  1.7634 -0.3640
  516SOL  OW    1546   2.295   2.939   2.200 -0.4211 -0.1806 -0.2854
  516SOL  HW1   1547   2.292   2.866   2.129  0.3452 -2.6769  0.5921
  516SOL  HW2   1548   2.381   2.991   2.182  0.2167  1.8119  0.3983
  517SOL  OW    1549   1.100   0.307   1.487  0.5881  0.1129  0.4722
  517SOL  HW1   1550   1.109   0.262   1.395 -1.5518 -0.6686 -0.2399
  517SOL  HW2   1551   1.119   0.409   1.479 -0.3780  0.8989  0.1736
  518SOL  OW    1552   1.677   0.381   0.797  0.3817  0.1117 -0.5262
  518SOL  HW1   1553   1.721   0.310   0.854 -1.5882  0.0608 -1.0193
  518SOL  HW2   1554   1.612   0.341   0.724 -0.6096 -1.0648  0.4115
  519SOL  OW    1555   2.620   2.838   0.474 -0.4099  0.0956  0.1815
  519SOL  HW1   1556   2.612   2.897   0.396 -0.3074 -0.8940  1.4820
  519SOL  HW2   1557   2.715   2.821   0.499 -0.2792 -0.2472 -1.4496
  520SOL  OW    1558   1.688   1.969   2.036  0.0563  0.0101 -0.6935
  520SOL  HW1   1559   1.750   2.025   1.978 -2.1684 -0.6632 -1.6569
  520SOL  HW2   1560   1.742   1.915   2.103 -0.7387  2.4637  2.5721
  521SOL  OW    1561   0.428   1.092   0.304 -0.4925 -0.8163 -0.0325
  521SOL  HW1   1562   0.395   1.148   0.226 -0.1946  1.5005  0.8854
  521SOL  HW2   1563   0.430   0.991   0.279 -0.4917  2.1603  0.1890
  522SOL  OW    1564   1.537   2.699   1.376 -0.3338  0.0026 -0.1466
  522SOL  HW1   1565   1.498   2.672   1.469  1.4653  1.5743  3.1823
  522SOL  HW2   1566   1.571   2.794   1.376 -1.3967 -0.6338  0.5926
  523SOL  OW    1567   0.339   2.684   2.015  0.1161 -0.3865  0.5783
  523SOL  HW1   1568   0.418   2.625   1.999  1.2936 -0.7250 -2.4432
  523SOL  HW2   1569   0.367   2.779   2.020  3.0597 -0.5743  0.1039
  524SOL  OW    1570   2.826   0.332   0.567 -0.4758  0.1487  0.1716
  524SOL  HW1   1571   2.767   0.301   0.647  2.5885 -1.7264 -0.4464
  524SOL  HW2   1572   2.900   0.397   0.595 -2.6707 -1.2007  1.5488
  525SOL  OW    1573   1.337   0.423   0.835  0.0962  0.1558  0.4204
  525SOL  HW1   1574   1.405   0.395   0.765  0.3626  1.1369  2.0374
  525SOL  HW2   1575   1.318   0.523   0.839 -0.2480  0.4532  1.0597
  526SOL  OW    1576   1.587   0.052   0.852 -0.1075  0.5093 -0.1195
  526SOL  HW1   1577   1.488   0.063   0.840  0.1132  1.9295  1.3563
  526SOL  HW2   1578   1.621   3.058   0.812  0.2298  1.9437 -3.5151
  527SOL  OW    1579   2.660   0.122   1.768 -0.1616  0.1852 -0.0378
  527SOL  HW1   1580   2.745   0.103   1.808 -1.0210  0.7810  1.9582
  527SOL  HW2   1581   2.635   0.052   1.700  0.2265 -0.1352  0.6752
  528SOL  OW    1582   0.796   1.643   2.414 -0.5146  0.4467 -0.3191
  528SOL  HW1   1583   0.844   1.697   2.338  2.2925  2.1706 -2.7604
  528SOL  HW2   1584   0.838   1.551   2.415  1.9803 -0.4300  1.5749
  529SOL  OW    1585   0.070   0.900   0.194 -0.1650  0.0194  0.1506
  529SOL  HW1   1586   0.055   0.854   0.285  0.7105 -3.0987  0.3959
  529SOL  HW2   1587   0.122   0.830   0.133  1.6405 -0.6190 -0.3464
  530SOL  OW    1588   0.801   0.573   1.009  0.4016 -0.1941 -0.0754
  530SOL  HW1   1589   0.795   0.513   0.928  0.5865 -1.6518  1.3531
  530SOL  HW2   1590   0.825   0.512   1.089  0.1683  0.5291  1.0495
  531SOL  OW    1591   1.119   1.957   2.473  0.3621 -0.4901  0.0799
  531SOL  HW1   1592   1.027   1.968   2.518  2.2195 -0.2194 -1.2129
  531SOL  HW2   1593   1.187   1.906   2.531 -1.6576  1.8025 -1.1139
  532SOL  OW    1594   2.394   0.720   2.943 -0.1623 -0.3780 -0.0396
  532SOL  HW1   1595   2.383   0.815   2.967 -0.1672  1.4902 -3.1432
  532SOL  HW2   1596   2.332   0.689   2.868  0.1430 -1.0093  1.4634
  533SOL  OW    1597   0.024   2.105   1.528 -0.4038  0.1081 -0.0296
  533SOL  HW1   1598   0.082   2.103   1.610  0.3040 -1.8823  1.5348
  533SOL  HW2   1599   3.058   2.020   1.542  1.2690  1.7456  0.4802
  534SOL  OW    1600   0.785   0.826   2.851 -0.4106  0.5527 -0.1153
  534SOL  HW1   1601   0.738   0.799   2.936 -0.3522  1.6881  1.2623
  534SOL  HW2   1602   0.796   0.740   2.795 -0.5431  1.0938  0.8295
  535SOL  OW    1603   0.322   0.110   0.128 -0.1373 -1.3453  0.0564
  535SOL  HW1   1604   0.415   0.145   0.154  1.0612  0.4105  1.4336
  535SOL  HW2   1605   0.326   0.078   0.033  1.1791 -0.3872 -0.3249
  536SOL  OW    1606   1.298   1.795   2.628 -0.4510 -0.1526  0.1909
  536SOL  HW1   1607   1.252   1.705   2.604 -0.7123  1.4683 -1.4702
  536SOL  HW2   1608   1.397   1.788   2.609 -0.0571 -0.3378 -0.8377
  537SOL  OW    1609   0.545   1.143   0.545 -0.4621 -0.2551  0.6809
  537SOL  HW1   1610   0.494   1.155   0.634  0.5734  1.0738 -0.7529
  537SOL  HW2   1611   0.486   1.118   0.467 -2.5928 -0.3236  1.0285
  538SOL  OW    1612   0.074   1.972   0.121  0.0703 -0.7990 -0.6852
  538SOL  HW1   1613   0.014   2.049   0.098  3.3827  0.2939 -2.0327
  538SOL  HW2   1614   0.092   1.967   0.218  0.6274 -0.1241 -1.5488
  539SOL  OW    1615   2.053   1.667   2.984  0.2116 -0.5260 -0.0651
  539SOL  HW1   1616   2.006   1.600   2.923  1.0854 -1.4341  0.2232
  539SOL  HW2   1617   2.151   1.648   2.993  0.5965 -0.5012  0.8067
  540SOL  OW    1618   1.077   2.285   0.282  0.6479 -0.4520 -0.2421
  540SOL  HW1   1619   1.145   2.291   0.352  0.3806  0.5341 -1.4803
  540SOL  HW2   1620   1.119   2.322   0.196  0.0176  1.4161  1.6860
  541SOL  OW    1621   1.380   0.449   3.017  0.1323 -0.0665  0.3098
  541SOL  HW1   1622   1.332   0.536   3.042 -0.1327  0.8278 -0.1015
  541SOL  HW2   1623   1.371   0.418   2.924  0.0383 -0.0057  2.5905
  542SOL  OW    1624   0.261   0.003   2.435  0.5453 -0.2330 -0.3097
  542SOL  HW1   1625   0.329   0.066   2.469 -1.1937 -1.4537  1.0617
  542SOL  HW2   1626   0.196   0.048   2.370 -0.9895  0.0620  0.9688
  543SOL  OW    1627   2.921   2.169   1.847  0.8478 -0.3784  0.3878
  543SOL  HW1   1628   2.908   2.271   1.850 -0.5753  1.5925  0.4213
  543SOL  HW2   1629   3.024   2.149   1.845 -1.5034  2.3379  1.8557
  544SOL  OW    1630   2.461   2.427   2.120  0.6559 -0.5816  0.1015
  544SOL  HW1   1631   2.381   2.388   2.173  2.4122  2.9103 -2.1577
  544SOL  HW2   1632   2.492   2.516   2.160 -0.5658  0.9385 -0.3197
  545SOL  OW    1633   0.736   0.915   2.173 -0.3921 -0.6760 -0.0082
  545SOL  HW1   1634   0.803   0.988   2.165  1.0594  0.7529  1.2325
  545SOL  HW2   1635   0.723   0.898   2.274 -0.3870 -4.0500 -3.5647
  546SOL  OW    1636   2.805   1.520   2.569 -0.2371  0.0564  0.4137
  546SOL  HW1   1637   2.902   1.532   2.544 -3.3194  0.7481  1.8450
  546SOL  HW2   1638   2.786   1.420   2.595 -1.7596  1.4464  0.3733
  547SOL  OW    1639   0.215   2.762   1.359 -0.3100 -0.4397  0.0350
  547SOL  HW1   1640   0.284   2.709   1.413  2.1795  0.3694 -0.5747
  547SOL  HW2   1641   0.174   2.703   1.286 -2.1810 -0.9593 -1.9979
  548SOL  OW    1642   0.935   2.150   3.017  0.8195  0.0215 -0.1823
  548SOL  HW1   1643   1.033   2.132   3.047 -0.9090 -0.5944 -1.7540
  548SOL  HW2   1644   0.903   2.229   3.074 -0.5788  0.7676 -0.2325
  549SOL  OW    1645   0.112   2.562   0.304 -0.7225  0.1553 -0.0530
  549SOL  HW1   1646   0.174   2.485   0.309  1.7793 -1.2214  0.5495
  549SOL  HW2   1647   0.131   2.636   0.370 -0.1932 -0.2748  0.8882
  550SOL  OW    1648   0.959   2.023   2.192  0.7109  0.8344 -0.1639
  550SOL  HW1   1649   0.957   1.923   2.201 -1.1877  1.2364 -0.5018
  550SOL  HW2   1650   1.042   2.074   2.228 -0.8607 -0.9308 -0.3281
  551SOL  OW    1651   1.155   0.259   2.620 -0.6636  0.1870 -0.2457
  551SOL  HW1   1652   1.189   0.194   2.550 -3.8773  0.5555 -0.6695
  551SOL  HW2   1653   1.070   0.311   2.593  1.1705  1.5876 -1.4518
  552SOL  OW    1654   0.854   2.184   2.760  0.3357 -0.0808  0.0234
  552SOL  HW1   1655   0.869   2.109   2.690  1.8610  1.8437 -0.4137
  552SOL  HW2   1656   0.887   2.158   2.852 -2.2550  0.2695 -0.0532
  553SOL  OW    1657   2.451   2.376   2.457  0.2750 -0.0010  0.0056
  553SOL  HW1   1658   2.458   2.293   2.518  2.1854  1.3320 -0.3705
  553SOL  HW2   1659   2.539   2.426   2.464  1.2667 -0.0514 -0.3773
  554SOL  OW    1660   1.153   1.226   2.284 -0.2097 -0.4796  0.4822
  554SOL  HW1   1661   1.079   1.286   2.321 -0.5595  2.1822  0.4973
  554SOL  HW2   1662   1.217   1.281   2.225 -0.6233 -0.2679 -0.2799
  555SOL  OW    1663   3.031   2.572   2.050 -0.1064 -0.4491 -0.1436
  555SOL  HW1   1664   0.026   2.527   2.044  0.3940  0.8503 -0.0749
  555SOL  HW2   1665   2.978   2.528   2.124  0.4437  0.8964 -2.2269
  556SOL  OW    1666   1.146   0.920   0.929  0.1597  0.2132  0.7850
  556SOL  HW1   1667   1.177   0.960   1.016  0.8411 -2.5481  0.1731
  556SOL  HW2   1668   1.139   0.991   0.858 -0.1688 -1.6341  0.2111
  557SOL  OW    1669   1.481   0.165   1.332  0.2579  0.0286 -0.1206
  557SOL  HW1   1670   1.428   0.234   1.281  0.4174 -1.3808  1.6224
  557SOL  HW2   1671   1.505   0.201   1.421 -0.8136 -1.8569 -0.8782
  558SOL  OW    1672   0.365   1.165   2.162  0.1334 -0.0952  0.0029
  558SOL  HW1   1673   0.458   1.139   2.133 -0.6231  0.3421 -0.3043
  558SOL  HW2   1674   0.335   1.244   2.107  1.3824  0.8660 -0.2699
  559SOL  OW    1675   1.338   1.901   0.141 -0.2300  0.3182  0.2663
  559SOL  HW1   1676   1.410   1.860   0.079 -2.9549  0.0444 -0.7845
  559SOL  HW2   1677   1.279   1.834   0.186 -2.3598  0.5552 -0.4720
  560SOL  OW    1678   1.446   1.112   0.696 -0.0867 -0.3488  0.0284
  560SOL  HW1   1679   1.377   1.158   0.646 -0.3921 -1.2701  0.6188
  560SOL  HW2   1680   1.543   1.126   0.664  1.6101 -0.1180 -0.8344
  561SOL  OW    1681   1.205   2.613   0.292  0.5957  0.5389  0.0559
  561SOL  HW1   1682   1.192   2.545   0.214 -0.1525 -0.9517 -1.7662
  561SOL  HW2   1683   1.272   2.587   0.363 -2.8837  1.4402  2.8455
  562SOL  OW    1684   0.426   0.104   1.775  0.5235  0.1518 -0.0124
  562SOL  HW1   1685   0.467   0.018   1.746  0.7932 -1.1047  2.0581
  562SOL  HW2   1686   0.346   0.080   1.839 -1.0615 -0.1203 -0.9273
  563SOL  OW    1687   1.386   1.530   3.077  0.5208 -0.4033  0.9459
  563SOL  HW1   1688   1.295   1.550   3.040  0.3840  1.8268  0.5450
  563SOL  HW2   1689   1.376   1.467   0.063 -1.5337 -0.4373  0.9148
  564SOL  OW    1690   0.221   1.149   1.505  0.0585 -0.5084 -0.4240
  564SOL  HW1   1691   0.128   1.185   1.489 -2.6092  0.0839 -1.3876
  564SOL  HW2   1692   0.268   1.197   1.578 -2.6918 -3.0087  2.6587
  565SOL  OW    1693   1.338   1.557   0.853  0.6696  0.3766  0.1686
  565SOL  HW1   1694   1.376   1.548   0.949  1.3038  1.4074  1.4456
  565SOL  HW2   1695   1.410   1.579   0.783 -0.2770 -1.3707  0.0392
  566SOL  OW    1696   2.250   2.177   0.814 -0.4027  0.1749  0.1393
  566SOL  HW1   1697   2.258   2.121   0.726  3.0991  1.5309  0.1131
  566SOL  HW2   1698   2.197   2.125   0.884  1.3031 -0.3747 -1.6361
  567SOL  OW    1699   1.912   1.132   1.643 -0.0816  0.0619  0.5686
  567SOL  HW1   1700   1.811   1.123   1.662 -0.4307  2.1426 -1.7024
  567SOL  HW2   1701   1.946   1.062   1.577 -1.2613  1.5640 -1.9199
  568SOL  OW    1702   0.487   1.177   2.766  0.2644 -0.7255  0.2548
  568SOL  HW1   1703   0.557   1.254   2.772  0.9494 -2.2940  1.3654
  568SOL  HW2   1704   0.526   1.086   2.733  1.2754 -1.7476  1.3904
  569SOL  OW    1705   2.386   1.748   1.896  0.4173 -0.2141 -0.0223
  569SOL  HW1   1706   2.451   1.697   1.956 -1.4601 -0.4586  0.0929
  569SOL  HW2   1707   2.359   1.687   1.819 -0.8260  2.0755 -0.1305
  570SOL  OW    1708   3.040   2.958   2.347 -0.0113  0.0325 -0.7513
  570SOL  HW1   1709   3.011   2.888   2.276  2.2373  1.6187 -0.1754
  570SOL  HW2   1710   0.014   3.019   2.309  1.9532  1.4657  0.7235
  571SOL  OW    1711   0.092   2.114   1.803  0.6500  0.1605  0.1710
  571SOL  HW1   1712   0.157   2.038   1.821 -0.2375 -2.4715 -0.6636
  571SOL  HW2   1713   0.138   2.206   1.807 -0.2461 -1.7365 -4.4182
  572SOL  OW    1714   3.069   1.563   3.072 -0.0377  0.1618 -0.1007
  572SOL  HW1   1715   0.022   1.514   0.053  1.1973  0.3854 -1.8654
  572SOL  HW2   1716   3.035   1.493   3.003 -0.0988 -2.9309 -3.4571
  573SOL  OW    1717   1.307   2.887   2.181 -0.7354  0.5055 -0.2275
  573SOL  HW1   1718   1.363   2.830   2.249  0.7746  1.0119 -1.2062
  573SOL  HW2   1719   1.234   2.939   2.230  0.0534  1.7308 -1.4592
  574SOL  OW    1720   1.765   0.125   1.712 -0.7241 -0.2871  0.0491
  574SOL  HW1   1721   1.833   0.081   1.652  1.5009  0.1881  1.3140
  574SOL  HW2   1722   1.673   0.088   1.688  0.2608 -0.8519 -3.5247
  575SOL  OW    1723   0.945   1.418   2.310 -0.3744  0.1826 -0.0065
  575SOL  HW1   1724   0.985   1.460   2.223 -3.3194  1.7179  2.8914
  575SOL  HW2   1725   0.861   1.363   2.290  0.0475 -3.3605 -2.1646
  576SOL  OW    1726   3.067   1.679   1.768  0.1355 -0.0578 -0.4312
  576SOL  HW1   1727   3.017   1.592   1.746 -3.9789 -0.2688 -0.1475
  576SOL  HW2   1728   3.023   1.729   1.842 -1.7704 -0.1611 -0.6577
  577SOL  OW    1729   0.308   0.798   0.685 -0.2942 -0.0232 -0.2026
  577SOL  HW1   1730   0.388   0.757   0.727 -0.5879 -0.5622  1.8849
  577SOL  HW2   1731   0.225   0.773   0.741  1.0048 -2.1531  0.3323
  578SOL  OW    1732   1.953   2.440   2.476  0.3660  0.1546  0.0795
  578SOL  HW1   1733   1.985   2.397   2.562  3.1505  0.1971  0.5465
  578SOL  HW2   1734   2.025   2.506   2.448  0.4530  1.9083  1.5610
  579SOL  OW    1735   0.980   1.430   1.046 -0.1852 -0.0358  0.4690
  579SOL  HW1   1736   1.037   1.414   0.962 -1.1067  1.6150  0.3219
  579SOL  HW2   1737   1.030   1.496   1.105 -0.1832  1.3108  0.1169
  580SOL  OW    1738   2.220   0.647   2.746 -0.5647  0.3646 -0.9601
  580SOL  HW1   1739   2.215   0.748   2.717 -2.6112  0.2073 -0.0824
  580SOL  HW2   1740   2.125   0.610   2.741  0.2848 -2.3278  1.7833
  581SOL  OW    1741   0.391   1.804   1.241 -0.0783  0.3513  1.0192
  581SOL  HW1   1742   0.353   1.892   1.202 -0.4322 -0.6761 -0.7606
  581SOL  HW2   1743   0.461   1.826   1.317  0.9797  1.4438 -1.3975
  582SOL  OW    1744   1.280   0.072   0.446  0.1016 -0.1272  0.4128
  582SOL  HW1   1745   1.224   0.156   0.445  0.0760 -0.5178  0.7822
  582SOL  HW2   1746   1.225   3.086   0.467 -1.7525 -0.5730 -0.1825
  583SOL  OW    1747   0.268   1.361   1.995 -0.1556  0.0914  0.8436
  583SOL  HW1   1748   0.327   1.392   1.920  1.7385  0.1981 -1.2651
  583SOL  HW2   1749   0.226   1.444   2.042  1.7793 -2.9056  0.3395
  584SOL  OW    1750   2.827   2.705   3.053  0.2165  0.5473 -0.0162
  584SOL  HW1   1751   2.762   2.773   3.093 -2.9433 -1.2939  1.1600
  584SOL  HW2   1752   2.921   2.737   3.058  0.3520  2.1629 -1.7282
  585SOL  OW    1753   1.735   1.003   0.261  0.9099 -0.0926 -0.1818
  585SOL  HW1   1754   1.809   0.979   0.194  0.2774 -1.2163 -2.0956
  585SOL  HW2   1755   1.711   0.929   0.322 -3.3658 -2.6478  0.2965
  586SOL  OW    1756   0.328   1.857   0.113 -0.1366 -0.2997  0.0440
  586SOL  HW1   1757   0.232   1.892   0.121  0.3389 -0.5547  1.4394
  586SOL  HW2   1758   0.330   1.757   0.088  1.3017  0.4818  1.5694
  587SOL  OW    1759   2.673   0.851   0.074  0.4260 -0.3101 -0.2719
  587SOL  HW1   1760   2.713   0.846   3.077 -1.1987 -1.5196 -0.1494
  587SOL  HW2   1761   2.741   0.817   0.145 -1.7740  1.9001  1.2361
  588SOL  OW    1762   0.337   1.590   0.919 -0.3945  0.0012  0.0095
  588SOL  HW1   1763   0.243   1.544   0.916  0.2303  1.3630 -0.5577
  588SOL  HW2   1764   0.390   1.554   0.844 -1.0347 -3.2706 -2.1754
  589SOL  OW    1765   2.971   2.900   0.993 -0.1973 -0.1677 -0.2303
  589SOL  HW1   1766   2.901   2.829   1.012 -1.1612 -2.1438  0.1606
  589SOL  HW2   1767   2.968   2.984   1.050  0.1222  1.7828 -0.4122
  590SOL  OW    1768   0.816   1.090   0.353  0.3502 -0.7331  0.3188
  590SOL  HW1   1769   0.809   1.087   0.248  0.4553 -1.2359 -0.5304
  590SOL  HW2   1770   0.792   0.998   0.396 -0.2301  0.0646 -0.1541
  591SOL  OW    1771   2.389   0.471   2.344  0.3211 -0.0116  0.0353
  591SOL  HW1   1772   2.315   0.407   2.317  0.6690 -1.3167 -1.9941
  591SOL  HW2   1773   2.457   0.471   2.267 -0.9199  1.9186  1.4277
  592SOL  OW    1774   1.452   2.624   1.639 -0.4375 -0.1425  0.4416
  592SOL  HW1   1775   1.529   2.600   1.703 -0.6632  0.9382  0.3152
  592SOL  HW2   1776   1.380   2.686   1.686  0.6927 -1.0941 -0.8241
  593SOL  OW    1777   1.136   2.215   1.095 -0.2041  0.0016 -0.1117
  593SOL  HW1   1778   1.141   2.316   1.092  0.1662 -1.0776  0.3806
  593SOL  HW2   1779   1.209   2.187   1.159  0.9560 -1.0824 -1.3222
  594SOL  OW    1780   2.089   0.970   0.477 -0.9254  0.2013  0.2368
  594SOL  HW1   1781   2.098   0.992   0.378 -1.8341 -0.7510 -1.1384
  594SOL  HW2   1782   2.156   0.904   0.512  0.5474 -0.5891 -0.0979
  595SOL  OW    1783   2.912   2.829   1.610 -0.2572 -0.3519  0.1119
  595SOL  HW1   1784   3.007   2.871   1.597  1.2781  1.8413  0.5741
  595SOL  HW2   1785   2.867   2.821   1.517 -1.1173  2.6542 -1.7120
  596SOL  OW    1786   2.296   0.061   1.566  0.5408  0.1605 -0.1686
  596SOL  HW1   1787   2.256   0.107   1.487  1.4623 -0.5765 -1.2455
  596SOL  HW2   1788   2.282   0.120   1.644  0.7575 -2.3704 -3.2229
  597SOL  OW    1789   2.812   0.620   2.943  0.0645  0.4611  0.5079
  597SOL  HW1   1790   2.882   0.670   3.000  0.3131  0.7550 -2.4059
  597SOL  HW2   1791   2.731   0.583   2.990 -0.6732 -1.8156 -0.0777
  598SOL  OW    1792   2.915   0.159   2.140 -0.8761  0.4634  0.1779
  598SOL  HW1   1793   2.849   0.131   2.213 -0.3935  1.9347 -0.2315
  598SOL  HW2   1794   2.904   0.264   2.132  1.6084 -0.9084  0.1843
  599SOL  OW    1795   2.900   1.796   2.865  0.7324  0.2897 -0.0872
  599SOL  HW1   1796   2.980   1.801   2.804 -2.7515 -1.4424  3.6294
  599SOL  HW2   1797   2.901   1.862   2.938  0.7749 -0.0711  1.5051
  600SOL  OW    1798   0.385   3.031   0.601  0.1372 -0.2550 -0.2004
  600SOL  HW1   1799   0.288   3.005   0.597 -0.7471  1.3365  2.7945
  600SOL  HW2   1800   0.426   3.058   0.510  0.8414  1.3725 -2.0221
  601SOL  OW    1801   1.822   1.542   0.770 -0.7269  0.0804 -0.4612
  601SOL  HW1   1802   1.819   1.575   0.670 -2.3353 -0.3025 -0.3657
  601SOL  HW2   1803   1.843   1.441   0.770  0.9235  0.2652 -0.8001
  602SOL  OW    1804   1.720   2.646   2.061 -0.2355 -0.1038 -0.1859
  602SOL  HW1   1805   1.632   2.599   2.082  1.2919 -0.5420 -1.8455
  602SOL  HW2   1806   1.807   2.584   2.072  0.8860 -0.0958 -1.3708
  603SOL  OW    1807   0.149   2.721   1.795 -0.3306 -0.4244  0.7412
  603SOL  HW1   1808   0.162   2.644   1.732 -1.0418 -1.1484  0.2718
  603SOL  HW2   1809   0.212   2.717   1.876  0.0372  0.9034 -1.6921
  604SOL  OW    1810   2.910   0.024   1.899 -0.4280  0.1472  0.0721
  604SOL  HW1   1811   2.954   3.028   1.897 -0.7606  0.1978 -0.1486
  604SOL  HW2   1812   2.915   0.060   1.995  1.1469 -1.8179 -1.1859
  605SOL  OW    1813   2.345   3.029   1.220 -0.2039 -0.0208  0.4456
  605SOL  HW1   1814   2.334   2.960   1.293 -2.4036 -0.8021 -2.3784
  605SOL  HW2   1815   2.308   2.995   1.130  0.0642 -0.0692 -2.1165
  606SOL  OW    1816   1.817   1.859   2.441 -0.2277  0.0372  0.0406
  606SOL  HW1   1817   1.871   1.922   2.502  1.3845  0.7362 -2.1075
  606SOL  HW2   1818   1.843   1.858   2.342 -1.8965  1.3169 -0.8584
  607SOL  OW    1819   0.308   2.441   1.360  0.7693 -0.4846 -0.1559
  607SOL  HW1   1820   0.393   2.488   1.337 -3.3314  1.0025  1.1619
  607SOL  HW2   1821   0.238   2.468   1.287 -0.8125  0.0731  2.1941
  608SOL  OW    1822   2.312   2.712   2.053 -0.3056  0.7187 -0.1053
  608SOL  HW1   1823   2.245   2.649   2.098  0.3307 -1.3572  1.5686
  608SOL  HW2   1824   2.405   2.711   2.098 -1.7366 -0.3648  1.8824
  609SOL  OW    1825   1.994   2.776   2.347  0.4402 -0.0482  0.3004
  609SOL  HW1   1826   2.061   2.706   2.306  0.4201 -1.2214 -0.1085
  609SOL  HW2   1827   2.035   2.869   2.338 -0.5408  1.2042 -0.3763
  610SOL  OW    1828   0.520   1.519   0.186 -0.5841  0.5538  0.3490
  610SOL  HW1   1829   0.442   1.549   0.129 -3.0348  0.4737  2.2659
  610SOL  HW2   1830   0.578   1.598   0.204  0.3372  1.0192  0.6882
  611SOL  OW    1831   1.854   1.596   1.141  0.1980  0.1733 -0.0475
  611SOL  HW1   1832   1.833   1.688   1.174  0.0984 -1.8512  0.0187
  611SOL  HW2   1833   1.775   1.576   1.075  0.8710 -0.5012  1.2492
  612SOL  OW    1834   1.532   2.220   0.066 -0.2103 -0.6699  0.0537
  612SOL  HW1   1835   1.612   2.174   0.022 -0.6360 -1.8873 -2.5064
  612SOL  HW2   1836   1.469   2.255   3.090 -0.4378 -0.5733 -0.1342
  613SOL  OW    1837   3.049   2.922   2.913 -0.1849  0.0504 -0.1981
  613SOL  HW1   1838   0.042   2.913   2.960  1.3055  0.3539  0.5165
  613SOL  HW2   1839   3.021   3.018   2.891 -1.1643  0.4922  0.5926
  614SOL  OW    1840   2.041   2.781   1.700  0.1272 -0.1372 -0.5913
  614SOL  HW1   1841   1.954   2.814   1.740  0.5665 -0.0535 -1.7992
  614SOL  HW2   1842   2.058   2.815   1.606  3.8201  0.0907  1.5139
  615SOL  OW    1843   1.453   0.634   2.664 -0.4370  0.8758  0.4081
  615SOL  HW1   1844   1.535   0.663   2.718 -1.0266 -2.5381 -1.9199
  615SOL  HW2   1845   1.483   0.588   2.578 -0.3744  0.2301 -0.1208
  616SOL  OW    1846   0.210   3.093   1.944  0.1472 -0.2983 -0.0784
  616SOL  HW1   1847   0.290   3.034   1.980 -0.2913  0.7169  3.3322
  616SOL  HW2   1848   0.126   3.038   1.919 -0.0675 -2.6973 -1.6132
  617SOL  OW    1849   2.637   2.331   2.925  0.8957 -0.4012  0.4148
  617SOL  HW1   1850   2.688   2.413   2.894  2.0131  0.0016  0.0399
  617SOL  HW2   1851   2.566   2.352   2.993  0.6410 -0.6772  0.7946
  618SOL  OW    1852   0.644   1.095   1.783 -0.0684 -0.2566  0.1784
  618SOL  HW1   1853   0.741   1.071   1.760 -2.6738 -1.4592  2.4340
  618SOL  HW2   1854   0.580   1.028   1.742  1.1397  1.6420 -0.5474
  619SOL  OW    1855   0.997   1.520   2.074 -0.2214 -0.2187 -0.3044
  619SOL  HW1   1856   1.052   1.596   2.031  1.0113 -1.4222  0.4603
  619SOL  HW2   1857   0.943   1.480   2.002 -1.0123 -0.8307  1.9252
  620SOL  OW    1858   1.336   0.836   2.808  0.1802 -0.2736 -0.8176
  620SOL  HW1   1859   1.270   0.901   2.760 -0.9990 -2.6791 -2.1540
  620SOL  HW2   1860   1.354   0.761   2.745  1.8536  3.2479 -1.4010
  621SOL  OW    1861   2.808   0.021   1.493 -0.4615  0.1677  0.0443
  621SOL  HW1   1862   2.707   0.025   1.517 -2.8985 -0.8884  1.1786
  621SOL  HW2   1863   2.840   3.022   1.511  1.5515  2.5800  0.7343
  622SOL  OW    1864   1.840   2.272   1.452 -0.0320  0.3458 -0.0662
  622SOL  HW1   1865   1.754   2.330   1.444 -1.3684 -2.0399 -2.2952
  622SOL  HW2   1866   1.815   2.177   1.424 -1.5638 -0.0930  0.5896
  623SOL  OW    1867   1.253   0.683   3.000 -0.5406  0.2875  0.5586
  623SOL  HW1   1868   1.294   0.746   2.934 -0.6814 -0.6218 -3.0694
  623SOL  HW2   1869   1.159   0.659   2.969  0.5093 -1.4041  0.9266
  624SOL  OW    1870   1.826   0.585   0.813 -0.8768  0.0724 -0.2506
  624SOL  HW1   1871   1.787   0.680   0.814 -0.2413 -0.2246  0.0161
  624SOL  HW2   1872   1.749   0.517   0.823  3.0493 -1.1559 -2.2988
  625SOL  OW    1873   0.921   2.198   0.622 -0.2369 -0.3360  0.1458
  625SOL  HW1   1874   0.951   2.213   0.718 -1.6580  1.9538  0.3337
  625SOL  HW2   1875   0.899   2.286   0.572  1.1651 -0.2498 -1.6075
  626SOL  OW    1876   2.711   2.900   0.125 -0.2360 -0.1992  0.0887
  626SOL  HW1   1877   2.618   2.939   0.145  0.1546 -2.7647 -0.6869
  626SOL  HW2   1878   2.781   2.952   0.171 -0.6869 -3.5577  4.1026
  627SOL  OW    1879   1.922   3.076   1.550 -0.2626 -0.1261  0.2152
  627SOL  HW1   1880   1.925   0.063   1.491  1.1967 -0.2068  1.8338
  627SOL  HW2   1881   1.998   3.013   1.528  1.6827  1.3379 -1.7983
  628SOL  OW    1882   2.159   0.395   2.149  0.1348  0.6930 -0.3074
  628SOL  HW1   1883   2.114   0.473   2.191  0.5215  0.3486 -1.2087
  628SOL  HW2   1884   2.181   0.412   2.047 -1.3386  0.1796  2.1109
  629SOL  OW    1885   0.188   1.350   0.694 -0.1197 -0.7050 -0.0229
  629SOL  HW1   1886   0.117   1.323   0.617 -2.3795  1.0744 -0.0949
  629SOL  HW2   1887   0.130   1.375   0.776 -1.3956  0.3384  2.2046
  630SOL  OW    1888   0.570   0.398   0.083 -0.6490  0.0185  0.3270
  630SOL  HW1   1889   0.578   0.313   0.133 -0.5751  0.9387  0.3974
  630SOL  HW2   1890   0.607   0.386   3.083 -1.7731 -1.8784 -0.2737
  631SOL  OW    1891   2.873   0.528   0.880 -0.2059  0.2493  0.5755
  631SOL  HW1   1892   2.838   0.530   0.786 -4.2472  1.7684  0.4536
  631SOL  HW2   1893   2.846   0.609   0.936  1.6447  0.7243  2.2246
  632SOL  OW    1894   2.302   1.457   0.293  0.8790  0.5709 -0.6556
  632SOL  HW1   1895   2.226   1.525   0.300 -2.0503 -0.2762  0.2816
  632SOL  HW2   1896   2.275   1.369   0.326  0.8187 -4.4395  1.7338
  633SOL  OW    1897   1.261   0.616   1.837  0.2643 -0.1315 -0.0238
  633SOL  HW1   1898   1.208   0.595   1.922  1.5028 -4.0883 -0.1569
  633SOL  HW2   1899   1.302   0.709   1.851  2.1216 -2.3704  0.3161
  634SOL  OW    1900   1.267   2.552   1.328  0.5476  0.5507 -0.3349
  634SOL  HW1   1901   1.197   2.624   1.350 -0.1712  0.8028 -0.0640
  634SOL  HW2   1902   1.358   2.597   1.331  0.4319 -0.2982  2.2871
  635SOL  OW    1903   1.730   0.853   0.809  0.0062 -0.0226 -0.0599
  635SOL  HW1   1904   1.730   0.920   0.886 -0.5560  1.7758 -0.9616
  635SOL  HW2   1905   1.765   0.901   0.727 -2.2570 -1.8459 -1.7393
  636SOL  OW    1906   1.605   0.690   1.058 -0.1923  0.1363  0.4923
  636SOL  HW1   1907   1.697   0.690   1.015 -2.0627  0.6255 -1.0915
  636SOL  HW2   1908   1.582   0.784   1.080 -1.6814  1.9083 -1.6473
  637SOL  OW    1909   1.612   2.023   2.462 -0.1274 -0.3018 -0.4467
  637SOL  HW1   1910   1.685   1.966   2.445  2.0755 -1.5920  0.1930
  637SOL  HW2   1911   1.637   2.106   2.519  0.4055 -1.4019 -0.5162
  638SOL  OW    1912   0.686   2.979   0.697  0.1837  0.0421 -0.3507
  638SOL  HW1   1913   0.722   2.908   0.761  1.6998 -1.0212  0.7560
  638SOL  HW2   1914   0.618   2.935   0.631 -0.7804 -0.0471 -0.4393
  639SOL  OW    1915   0.949   1.931   1.794  0.6279  0.2903 -0.4122
  639SOL  HW1   1916   0.935   1.885   1.704 -0.0684 -1.2404 -1.5715
  639SOL  HW2   1917   0.906   1.878   1.869  0.7708  1.8859  1.9011
  640SOL  OW    1918   1.304   1.002   1.705  0.4594  0.0923 -0.3847
  640SOL  HW1   1919   1.232   0.978   1.635  3.1888  1.6399 -1.1412
  640SOL  HW2   1920   1.331   0.921   1.759 -1.4286 -1.2648 -2.6799
  641SOL  OW    1921   0.517   1.410   0.435  0.4131 -0.1838  0.3589
  641SOL  HW1   1922   0.527   1.307   0.433  1.2741  0.5449 -1.0803
  641SOL  HW2   1923   0.504   1.442   0.337 -0.5620  0.0780  1.5059
  642SOL  OW    1924   0.608   1.772   0.286  0.2890 -0.1024  0.1046
  642SOL  HW1   1925   0.691   1.834   0.272 -0.4576 -0.8013 -1.8523
  642SOL  HW2   1926   0.521   1.828   0.274  0.9113  0.8276  2.5419
  643SOL  OW    1927   1.315   1.183   2.516 -0.6692  0.0989 -0.8431
  643SOL  HW1   1928   1.263   1.185   2.431 -0.0778 -1.0215  1.0305
  643SOL  HW2   1929   1.336   1.279   2.544 -0.0028 -1.7229 -1.6448
  644SOL  OW    1930   1.671   2.822   0.401 -0.0087  0.8943 -0.5903
  644SOL  HW1   1931   1.596   2.886   0.415  1.4021 -0.1812 -1.1021
  644SOL  HW2   1932   1.740   2.829   0.478 -0.9029  0.1571 -1.4167
  645SOL  OW    1933   1.786   1.910   0.171 -0.0948 -0.0999  0.2541
  645SOL  HW1   1934   1.754   1.967   0.092  3.9839 -1.0488 -0.1671
  645SOL  HW2   1935   1.808   1.814   0.132 -3.1309 -0.4273  2.5644
  646SOL  OW    1936   2.896   3.058   0.234  0.0412 -0.0355  0.0568
  646SOL  HW1   1937   2.839   0.029   0.283 -0.6871 -3.2530  1.1572
  646SOL  HW2   1938   2.986   0.005   0.212  3.0156  1.7973  0.2141
  647SOL  OW    1939   2.540   0.412   2.112  0.1848  0.0795 -0.6256
  647SOL  HW1   1940   2.516   0.476   2.038 -1.0797  2.0749 -0.2577
  647SOL  HW2   1941   2.541   0.315   2.075  2.0857 -0.6922  0.8544
  648SOL  OW    1942   0.348   0.538   0.899  0.0368 -0.3165 -0.2866
  648SOL  HW1   1943   0.250   0.550   0.865  1.0818  2.7879 -2.8467
  648SOL  HW2   1944   0.419   0.518   0.826 -2.8070  1.9191 -2.6051
  649SOL  OW    1945   2.313   2.029   2.408 -0.4264  0.2864 -0.1201
  649SOL  HW1   1946   2.291   1.942   2.361 -3.1627 -1.8468 -2.2713
  649SOL  HW2   1947   2.233   2.056   2.463  0.1399  1.1676 -2.8351
  650SOL  OW    1948   0.795   2.559   1.632 -0.5897  0.1328  0.0887
  650SOL  HW1   1949   0.855   2.583   1.715 -1.7668 -2.1243  0.0469
  650SOL  HW2   1950   0.854   2.527   1.555  0.6026  1.8010  1.9619
  651SOL  OW    1951   0.415   0.800   2.955  0.0506 -0.2073 -0.0434
  651SOL  HW1   1952   0.378   0.895   2.937 -1.5475 -1.6970 -1.5946
  651SOL  HW2   1953   0.499   0.802   3.013  3.5309  2.4935  0.2379
  652SOL  OW    1954   0.706   0.190   2.113 -0.0706 -0.0565 -0.1969
  652SOL  HW1   1955   0.624   0.222   2.066 -1.2025 -0.8375 -1.4053
  652SOL  HW2   1956   0.788   0.235   2.077 -0.2651  1.0871  0.6056
  653SOL  OW    1957   2.661   0.637   0.542  0.6778  0.8991 -0.7209
  653SOL  HW1   1958   2.672   0.740   0.557 -1.1219 -1.0699  2.5856
  653SOL  HW2   1959   2.686   0.611   0.443 -2.2888 -1.9378 -0.1664
  654SOL  OW    1960   0.190   2.413   2.553 -0.0624 -0.1255  0.1492
  654SOL  HW1   1961   0.141   2.499   2.574  0.7203 -0.0664 -2.3776
  654SOL  HW2   1962   0.167   2.382   2.460 -0.6993  0.1796 -0.2601
  655SOL  OW    1963   3.094   2.690   2.644 -0.0527 -0.2686 -0.8133
  655SOL  HW1   1964   0.086   2.742   2.620  0.5155  0.2741  0.6475
  655SOL  HW2   1965   3.012   2.749   2.647  0.4160 -3.1728 -1.1018
  656SOL  OW    1966   2.617   1.196   0.065 -0.3991 -0.0719  0.8539
  656SOL  HW1   1967   2.565   1.121   0.108  1.8725  3.6585  0.2313
  656SOL  HW2   1968   2.559   1.283   0.067  0.6648  0.3148  0.4360
  657SOL  OW    1969   0.454   2.078   0.040 -0.6780 -0.7571 -0.2739
  657SOL  HW1   1970   0.405   1.992   0.056 -2.0765  1.6687  2.9733
  657SOL  HW2   1971   0.545   2.056   0.002  0.6382 -1.9224 -0.1078
  658SOL  OW    1972   1.691   0.349   1.848 -0.6584 -0.3064  0.1442
  658SOL  HW1   1973   1.699   0.333   1.949 -0.8417 -1.9465  3.0681
  658SOL  HW2   1974   1.741   0.276   1.801 -1.9226  2.7259 -0.6028
  659SOL  OW    1975   1.375   0.837   1.907 -0.3997 -0.7763 -0.3713
  659SOL  HW1   1976   1.435   0.781   1.969 -0.7437 -1.7619  0.0065
  659SOL  HW2   1977   1.340   0.922   1.959  0.5921 -0.6030 -0.8755
  660SOL  OW    1978   0.237   2.670   0.934 -0.3701 -0.3487  0.1011
  660SOL  HW1   1979   0.178   2.631   0.857 -0.3277  1.7179  0.0232
  660SOL  HW2   1980   0.205   2.761   0.968  0.8657  3.0460  1.0326
  661SOL  OW    1981   2.428   1.285   2.463 -0.0480  0.2764  0.4687
  661SOL  HW1   1982   2.484   1.202   2.466 -2.5254 -1.7108 -1.2245
  661SOL  HW2   1983   2.478   1.369   2.436 -0.9846  0.8830 -1.3631
  662SOL  OW    1984   1.591   1.156   2.809 -0.0910 -0.3049  0.0114
  662SOL  HW1   1985   1.562   1.077   2.868 -1.0749  0.1101 -1.8817
  662SOL  HW2   1986   1.573   1.135   2.709  1.0148 -0.2341  0.1888
  663SOL  OW    1987   1.802   0.245   2.434 -0.7036 -0.0043 -0.4792
  663SOL  HW1   1988   1.858   0.198   2.361 -2.2249 -0.4951 -0.6018
  663SOL  HW2   1989   1.709   0.201   2.456 -0.2109  0.0884  0.1961
  664SOL  OW    1990   1.624   2.550   0.377  0.2916  0.4251 -0.2302
  664SOL  HW1   1991   1.636   2.651   0.376 -0.6243  2.4944  2.0160
  664SOL  HW2   1992   1.539   2.532   0.426 -1.0642  0.4714 -0.5780
  665SOL  OW    1993   1.510   0.497   2.444 -0.0436  0.2712 -0.2105
  665SOL  HW1   1994   1.597   0.500   2.395  0.6064 -1.6089 -0.5742
  665SOL  HW2   1995   1.450   0.424   2.403 -1.4140 -1.8100  0.8010
  666SOL  OW    1996   3.007   0.989   1.837  0.3486  0.3669 -0.4472
  666SOL  HW1   1997   3.089   0.948   1.879 -0.2813 -0.1614  0.4991
  666SOL  HW2   1998   2.933   0.921   1.816  0.6346 -1.7970 -1.0187
  667SOL  OW    1999   0.544   2.507   1.976 -0.5724 -0.2393  0.1102
  667SOL  HW1   2000   0.542   2.428   1.915 -0.2546 -0.5236 -0.1536
  667SOL  HW2   2001   0.634   2.515   2.028 -1.2066  2.1122  2.5876
  668SOL  OW    2002   2.000   0.483   2.752 -0.1130  0.4262 -0.0285
  668SOL  HW1   2003   2.040   0.393   2.730  2.9194 -1.7177  0.6760
  668SOL  HW2   2004   1.920   0.506   2.697 -0.7799  1.6546  0.3610
  669SOL  OW    2005   0.171   2.896   2.624  0.0851  0.4448 -0.0167
  669SOL  HW1   2006   0.185   2.932   2.531  0.4782 -2.3920  1.1673
  669SOL  HW2   2007   0.261   2.894   2.679 -1.6793  0.8297  2.6295
  670SOL  OW    2008   1.921   1.300   0.778 -0.7042 -0.0819  0.2478
  670SOL  HW1   2009   1.887   1.254   0.863 -4.7110 -0.2922  0.0058
  670SOL  HW2   2010   2.023   1.315   0.784 -1.8209  1.2475 -1.1695
  671SOL  OW    2011   0.551   1.665   1.063 -0.0332 -0.0362  0.2183
  671SOL  HW1   2012   0.509   1.722   1.131 -0.5157  2.0291  2.1567
  671SOL  HW2   2013   0.476   1.636   1.002  2.8244 -0.9387  2.3552
  672SOL  OW    2014   1.344   0.315   2.346 -0.0448 -0.3037 -0.0339
  672SOL  HW1   2015   1.374   0.291   2.254 -0.3520  0.0465  1.0570
  672SOL  HW2   2016   1.301   0.231   2.392  1.7197 -0.0605 -1.5218
  673SOL  OW    2017   1.631   2.238   2.167  0.3599  0.3370  0.4002
  673SOL  HW1   2018   1.704   2.247   2.238  0.8406  2.1451 -1.4275
  673SOL  HW2   2019   1.627   2.144   2.133  2.7888 -1.7103 -0.2054
  674SOL  OW    2020   1.458   2.539   2.438 -0.0019  0.2636  0.2183
  674SOL  HW1   2021   1.551   2.525   2.476 -0.5595  0.2564 -0.5881
  674SOL  HW2   2022   1.385   2.481   2.488  0.0031  0.8129  1.8233
  675SOL  OW    2023   2.821   1.318   1.381 -0.0670  0.3920 -0.0077
  675SOL  HW1   2024   2.747   1.313   1.312 -0.8163 -1.3052  0.6887
  675SOL  HW2   2025   2.836   1.230   1.426  0.2740  0.0794 -0.0723
  676SOL  OW    2026   2.726   1.302   2.171 -1.0428 -0.4102 -0.1529
  676SOL  HW1   2027   2.708   1.331   2.072 -1.7895  0.5029 -1.5187
  676SOL  HW2   2028   2.679   1.368   2.231 -0.3785 -0.9914 -3.2573
  677SOL  OW    2029   2.156   1.744   2.046  0.5679 -0.3052 -0.3899
  677SOL  HW1   2030   2.240   1.753   1.990 -0.5259  1.0441 -1.3579
  677SOL  HW2   2031   2.097   1.666   2.006 -2.9535 -0.5047 -0.1858
  678SOL  OW    2032   1.691   1.040   1.756 -0.4555  0.3606 -0.3557
  678SOL  HW1   2033   1.607   1.063   1.702  0.5363 -0.9819 -0.8116
  678SOL  HW2   2034   1.700   0.946   1.794 -0.0941 -0.4884  2.0839
  679SOL  OW    2035   1.258   2.107   0.704  0.1172  0.1101  0.5147
  679SOL  HW1   2036   1.232   2.037   0.639 -0.6147 -1.1245 -1.5806
  679SOL  HW2   2037   1.192   2.103   0.788 -0.5940  0.7457 -1.4566
  680SOL  OW    2038   0.421   1.492   0.680  0.3342  0.7219  0.0704
  680SOL  HW1   2039   0.332   1.435   0.683 -2.6918  0.3105  2.5153
  680SOL  HW2   2040   0.482   1.463   0.603  2.0497  2.4612  1.9077
  681SOL  OW    2041   2.395   2.974   0.779  0.2186  0.8397  0.0591
  681SOL  HW1   2042   2.489   2.948   0.790 -0.6465 -0.4751  0.1876
  681SOL  HW2   2043   2.363   2.926   0.697  0.0550 -2.0517 -1.0161
  682SOL  OW    2044   2.173   1.586   0.579  0.2018 -0.4926  0.1811
  682SOL  HW1   2045   2.126   1.612   0.491  1.4526 -1.5003 -0.9903
  682SOL  HW2   2046   2.266   1.548   0.573 -0.1325 -0.7026 -1.7522
  683SOL  OW    2047   2.423   1.958   1.167  0.1911  0.0479 -0.7387
  683SOL  HW1   2048   2.483   1.940   1.088  0.9523 -1.5018  2.4398
  683SOL  HW2   2049   2.355   1.881   1.176  1.6167  0.0559  2.3162
  684SOL  OW    2050   0.935   2.197   1.709 -0.0822  0.2295 -0.2066
  684SOL  HW1   2051   0.896   2.205   1.615 -1.9211 -1.3194 -0.6721
  684SOL  HW2   2052   0.913   2.106   1.748 -2.1892 -0.4230  1.2700
  685SOL  OW    2053   2.785   0.750   1.006 -0.4815  0.8583  0.1547
  685SOL  HW1   2054   2.821   0.838   0.972 -1.7135 -0.0961  2.4241
  685SOL  HW2   2055   2.690   0.734   0.979  1.3664  1.9704  0.4988
  686SOL  OW    2056   2.820   1.922   2.384  0.6187  0.3924  0.5157
  686SOL  HW1   2057   2.733   1.967   2.372  0.7235 -0.8823 -0.0890
  686SOL  HW2   2058   2.803   1.860   2.464 -1.4978 -4.2739 -1.3834
  687SOL  OW    2059   1.766   3.006   3.046 -0.0299  0.2500  0.2480
  687SOL  HW1   2060   1.852   2.946   3.053  3.1349 -0.8857  0.6640
  687SOL  HW2   2061   1.745   3.047   0.041 -1.4981 -2.3689 -0.8999
  688SOL  OW    2062   1.996   2.825   0.017 -0.8435 -0.5343  0.1351
  688SOL  HW1   2063   1.976   2.738   3.065  2.2168  1.7703 -0.4227
  688SOL  HW2   2064   1.991   2.813   0.119 -1.0958 -1.5687 -2.1403
  689SOL  OW    2065   1.945   0.767   2.041 -0.1738 -0.6569 -0.1126
  689SOL  HW1   2066   1.876   0.756   1.968 -0.1445 -1.4489  2.0171
  689SOL  HW2   2067   1.928   0.850   2.097  4.2222  0.4360  0.9861
  690SOL  OW    2068   1.682   0.768   0.437 -0.0572 -0.3837 -0.8699
  690SOL  HW1   2069   1.578   0.776   0.444  0.3269 -0.4293 -0.6361
  690SOL  HW2   2070   1.708   0.672   0.413  1.5124  0.6931  0.1372
  691SOL  OW    2071   2.007   1.937   0.600  0.5023 -0.2502 -0.5789
  691SOL  HW1   2072   1.968   2.026   0.631 -0.3935  1.8713  1.6150
  691SOL  HW2   2073   1.971   1.861   0.657  1.2714  3.4687  2.0448
  692SOL  OW    2074   3.080   2.553   2.955  0.0075  0.0165 -0.2170
  692SOL  HW1   2075   0.000   2.596   3.045 -0.4202  0.9516 -1.2697
  692SOL  HW2   2076   3.060   2.621   2.883 -1.1559 -0.8582  0.1174
  693SOL  OW    2077   0.229   1.409   2.478  0.0832  0.1971  0.5744
  693SOL  HW1   2078   0.165   1.330   2.462 -3.3362  0.6575 -2.2176
  693SOL  HW2   2079   0.278   1.389   2.564  1.0243 -1.2067 -0.9796
  694SOL  OW    2080   1.513   0.944   2.964 -0.0642 -0.0161 -0.0818
  694SOL  HW1   2081   1.430   0.900   2.920  1.9689 -1.7348  1.3950
  694SOL  HW2   2082   1.586   0.876   2.986 -4.0407  0.1860 -0.1671
  695SOL  OW    2083   1.569   0.186   2.806  0.7478 -0.1916 -0.1742
  695SOL  HW1   2084   1.483   0.242   2.785  0.1076  0.0766  1.5359
  695SOL  HW2   2085   1.617   0.224   2.885 -2.6521  3.2614  0.7280
  696SOL  OW    2086   1.988   1.306   2.996 -0.5993  0.0787  0.1120
  696SOL  HW1   2087   1.960   1.385   2.943  1.7380 -1.1392  0.5767
  696SOL  HW2   2088   2.089   1.286   2.979  1.1096 -0.4171 -1.9898
  697SOL  OW    2089   1.108   3.030   2.265 -0.1572 -0.0448  0.0140
  697SOL  HW1   2090   1.010   3.012   2.287  0.4617  0.1460  1.5278
  697SOL  HW2   2091   1.113   3.088   2.180 -1.7498 -0.0469  0.3200
  698SOL  OW    2092   1.487   1.078   0.136  0.2770 -0.7044 -0.3174
  698SOL  HW1   2093   1.485   1.053   0.036  2.3959  1.0871 -1.4053
  698SOL  HW2   2094   1.579   1.052   0.176  1.6233 -0.5866 -0.9468
  699SOL  OW    2095   2.123   1.672   1.491  0.0549 -0.1380 -0.0680
  699SOL  HW1   2096   2.205   1.676   1.546  0.6904 -1.2137 -0.6495
  699SOL  HW2   2097   2.074   1.765   1.485 -2.1027 -0.5260  2.4159
  700SOL  OW    2098   1.008   0.691   1.703 -0.3355 -0.6524 -0.7591
  700SOL  HW1   2099   1.055   0.685   1.792  0.1806  1.8053  0.3318
  700SOL  HW2   2100   0.912   0.721   1.711  3.4695 -2.4809 -0.6603
  701SOL  OW    2101   2.761   3.034   2.978 -0.3577 -0.1804  0.1279
  701SOL  HW1   2102   2.856   3.072   2.969 -1.7169  0.5159 -1.5578
  701SOL  HW2   2103   2.746   3.004   3.076 -0.4405  2.0049  0.3576
  702SOL  OW    2104   1.100   0.238   1.226 -0.0859  0.0162  0.8604
  702SOL  HW1   2105   1.197   0.268   1.207  0.4402  0.7588 -1.3081
  702SOL  HW2   2106   1.072   0.170   1.151  2.0917 -1.4048  0.6334
  703SOL  OW    2107   0.706   0.138   1.422 -0.2415  0.2613  0.0063
  703SOL  HW1   2108   0.683   0.181   1.334 -1.4190  1.7777 -2.9045
  703SOL  HW2   2109   0.637   0.067   1.442 -0.7321 -0.2786 -0.2713
  704SOL  OW    2110   1.087   2.695   1.445  0.1831 -0.1595  0.0577
  704SOL  HW1   2111   1.036   2.610   1.438 -2.0396  1.0095 -2.1863
  704SOL  HW2   2112   1.123   2.702   1.544  0.0861  2.7768 -2.8625
  705SOL  OW    2113   0.498   2.042   0.317 -0.1280  0.2344 -0.0903
  705SOL  HW1   2114   0.551   2.117   0.360 -1.8632  1.6850  0.7611
  705SOL  HW2   2115   0.477   2.058   0.219  0.2561  1.8589  0.3359
  706SOL  OW    2116   0.209   0.778   1.916  0.3795  0.0302 -0.3791
  706SOL  HW1   2117   0.134   0.712   1.936  3.6411  2.3703 -1.4088
  706SOL  HW2   2118   0.185   0.871   1.959 -0.0153 -2.3191 -0.3139
  707SOL  OW    2119   2.966   2.533   1.625  0.0427 -0.0121  0.5717
  707SOL  HW1   2120   2.911   2.623   1.629  0.7848  0.7842 -0.9972
  707SOL  HW2   2121   2.937   2.485   1.714 -1.2341 -0.8934 -0.0241
  708SOL  OW    2122   1.164   0.519   2.083 -0.8435 -0.5048  0.7431
  708SOL  HW1   2123   1.204   0.588   2.148  0.1546  0.1675  0.1181
  708SOL  HW2   2124   1.064   0.498   2.101 -1.3142 -0.1734  0.0728
  709SOL  OW    2125   0.877   0.629   2.367 -0.3580 -0.0678 -0.0228
  709SOL  HW1   2126   0.777   0.653   2.365  1.8800  0.1325  1.3668
  709SOL  HW2   2127   0.928   0.715   2.385  1.7831 -0.7754 -2.6361
  710SOL  OW    2128   2.952   0.451   1.283  0.1812  0.9274  0.2374
  710SOL  HW1   2129   2.964   0.350   1.302 -2.2916 -1.2544  1.1945
  710SOL  HW2   2130   2.977   0.503   1.363 -0.4190 -1.3032 -1.1951
  711SOL  OW    2131   2.601   1.481   2.355 -0.7197 -0.4688 -0.1976
  711SOL  HW1   2132   2.680   1.492   2.416  0.3996 -0.8799 -0.9166
  711SOL  HW2   2133   2.558   1.577   2.347  0.4184  4.5126  1.5006
  712SOL  OW    2134   1.319   0.133   1.921  0.0743  0.0254  0.2442
  712SOL  HW1   2135   1.390   0.061   1.947 -0.6437 -1.4947  0.9948
  712SOL  HW2   2136   1.331   0.152   1.823 -2.7102  0.1131 -0.3998
  713SOL  OW    2137   0.321   0.761   1.671 -0.0859  0.0532  0.3579
  713SOL  HW1   2138   0.285   0.803   1.757 -0.3236 -0.8854  1.0759
  713SOL  HW2   2139   0.366   0.672   1.683 -2.0582 -0.0509  1.7563
  714SOL  OW    2140   1.538   1.899   1.564  0.2733  0.7502 -0.7119
  714SOL  HW1   2141   1.573   1.847   1.643 -2.3442 -1.5710  0.6973
  714SOL  HW2   2142   1.492   1.830   1.503 -0.2382  1.6959 -0.4715
  715SOL  OW    2143   1.339   0.070   0.758  0.3560  0.0692  0.0688
  715SOL  HW1   2144   1.256   0.126   0.748  1.6392 -1.2753  1.4191
  715SOL  HW2   2145   1.327   3.064   0.756  1.5043 -0.4815  1.2436
  716SOL  OW    2146   0.506   0.660   1.335 -0.3589  0.1921  0.6095
  716SOL  HW1   2147   0.600   0.637   1.371 -0.0703  1.8634  3.8215
  716SOL  HW2   2148   0.476   0.737   1.389  1.6321 -0.7908  0.8657
  717SOL  OW    2149   0.155   0.804   2.464  0.0895 -0.0123 -0.2192
  717SOL  HW1   2150   0.147   0.895   2.417 -1.6592 -1.1184  1.4869
  717SOL  HW2   2151   0.141   0.732   2.393 -0.8690 -1.7660 -2.1966
  718SOL  OW    2152   1.028   2.933   1.893  0.7669  0.6390  0.3778
  718SOL  HW1   2153   1.097   2.878   1.938 -1.6373 -2.9993 -0.2239
  718SOL  HW2   2154   1.012   3.023   1.937 -2.8548 -3.7126 -3.4779
  719SOL  OW    2155   0.789   2.582   2.076  0.3518 -0.1244  0.3977
  719SOL  HW1   2156   0.834   2.499   2.119 -1.4829 -0.1805 -0.2451
  719SOL  HW2   2157   0.823   2.600   1.987 -0.9412  0.0105  1.3993
  720SOL  OW    2158   0.175   2.512   1.612  0.2007 -0.0320 -0.2429
  720SOL  HW1   2159   0.234   2.507   1.530 -0.3491  1.0322  0.4760
  720SOL  HW2   2160   0.073   2.511   1.595  0.2322  1.6542  1.4347
  721SOL  OW    2161   0.100   2.602   0.721 -0.2474  0.2100 -0.3728
  721SOL  HW1   2162   0.165   2.622   0.646 -1.0695 -0.7746 -0.3418
  721SOL  HW2   2163   0.052   2.514   0.703 -1.1934 -0.6903  0.5302
  722SOL  OW    2164   1.352   1.996   1.016 -0.0451  0.3495  0.0635
  722SOL  HW1   2165   1.347   2.049   1.103  1.2577  0.8355 -0.7923
  722SOL  HW2   2166   1.273   1.935   1.011  0.2291  0.1479 -0.1907
  723SOL  OW    2167   0.471   1.411   1.194  0.0907  0.0763  0.1726
  723SOL  HW1   2168   0.477   1.347   1.113 -0.0616  0.4598  0.5600
  723SOL  HW2   2169   0.497   1.507   1.168  1.7214 -0.5667  3.4195
  724SOL  OW    2170   1.677   1.627   2.774  0.2733  0.4278 -0.0587
  724SOL  HW1   2171   1.646   1.715   2.818  0.6867  0.7404 -0.6479
  724SOL  HW2   2172   1.617   1.547   2.799  1.2902  0.4603 -0.7899
  725SOL  OW    2173   0.886   0.522   2.128 -0.4626  0.5186  0.6526
  725SOL  HW1   2174   0.804   0.570   2.092 -1.2242  0.2382  1.3048
  725SOL  HW2   2175   0.895   0.539   2.231  0.8291 -2.2633 -0.2327
  726SOL  OW    2176   0.567   0.536   0.742  0.0214 -0.2410 -0.3720
  726SOL  HW1   2177   0.586   0.633   0.749  0.9141  0.3062  3.0612
  726SOL  HW2   2178   0.649   0.479   0.762 -1.2457 -0.7922 -0.1543
  727SOL  OW    2179   1.512   3.037   2.921 -0.2789 -0.6016 -0.0925
  727SOL  HW1   2180   1.596   3.007   2.977 -1.6819 -1.7330 -0.6574
  727SOL  HW2   2181   1.526   0.040   2.884 -1.4670  1.5081  0.1202
  728SOL  OW    2182   2.548   2.180   2.063  0.5394  0.6339 -0.3597
  728SOL  HW1   2183   2.485   2.117   2.010  0.6690 -3.4520 -0.3768
  728SOL  HW2   2184   2.523   2.277   2.051  0.7412  2.6648  2.1934
  729SOL  OW    2185   2.625   1.644   1.541  0.6208 -0.3985  0.1511
  729SOL  HW1   2186   2.707   1.648   1.480  0.0372  2.4767 -0.1227
  729SOL  HW2   2187   2.657   1.628   1.639 -1.0406 -1.4540  0.5858
  730SOL  OW    2188   1.721   1.179   0.622 -0.0181  0.2357 -0.7991
  730SOL  HW1   2189   1.784   1.256   0.643 -2.1553  1.2214  0.4882
  730SOL  HW2   2190   1.770   1.093   0.589 -0.2237  2.0808  2.9857
  731SOL  OW    2191   0.017   1.303   0.490  0.1250 -0.0300 -0.4334
  731SOL  HW1   2192   0.032   1.382   0.429  0.4599  1.4125  2.7488
  731SOL  HW2   2193   3.026   1.314   0.541  0.5188  2.4560 -1.1069
  732SOL  OW    2194   2.816   0.418   2.173  0.5194 -0.4682 -0.0934
  732SOL  HW1   2195   2.855   0.463   2.255 -0.9162 -1.6341 -1.0205
  732SOL  HW2   2196   2.715   0.415   2.180 -0.1683  1.0911 -1.6814
  733SOL  OW    2197   1.229   1.200   1.405  0.6760 -0.3227  0.3815
  733SOL  HW1   2198   1.226   1.280   1.468  2.3855  0.8077 -0.3599
  733SOL  HW2   2199   1.181   1.122   1.451 -0.1544 -1.2378 -2.9927
  734SOL  OW    2200   0.830   2.652   0.340  0.4125  0.3010  0.1310
  734SOL  HW1   2201   0.753   2.707   0.369 -0.1313  0.1098 -2.6842
  734SOL  HW2   2202   0.911   2.713   0.331 -0.9381  0.4095  0.4874
  735SOL  OW    2203   2.213   0.460   1.906  0.0836  0.4535  0.0302
  735SOL  HW1   2204   2.308   0.499   1.921  2.7149  0.8911 -0.6954
  735SOL  HW2   2205   2.145   0.524   1.864  0.2573 -0.4963 -1.4684
  736SOL  OW    2206   1.876   2.082   1.867 -0.1442  0.1425  0.4478
  736SOL  HW1   2207   1.880   2.169   1.816  0.3493  0.6824  0.7304
  736SOL  HW2   2208   1.924   2.009   1.814 -0.2484 -0.7471 -2.6130
  737SOL  OW    2209   2.308   1.207   0.448  0.2496 -0.5812 -0.3983
  737SOL  HW1   2210   2.255   1.140   0.394  1.3985  0.2690 -1.1314
  737SOL  HW2   2211   2.405   1.181   0.436 -2.7735 -1.2243  0.1585
  738SOL  OW    2212   1.550   0.846   1.435 -0.0389  0.1241 -0.0425
  738SOL  HW1   2213   1.645   0.801   1.427  0.3411 -0.5397  0.0375
  738SOL  HW2   2214   1.483   0.778   1.477 -0.1563  1.1378 -0.3649
  739SOL  OW    2215   1.934   2.480   2.073 -0.0191  0.2607 -0.3608
  739SOL  HW1   2216   1.966   2.496   1.975 -1.5045  1.9955 -0.7460
  739SOL  HW2   2217   1.951   2.383   2.097 -2.5131 -0.5367  1.2730
  740SOL  OW    2218   2.385   0.930   0.866 -0.1354  0.0784  0.0352
  740SOL  HW1   2219   2.371   0.834   0.889 -0.9023  1.8833 -0.4550
  740SOL  HW2   2220   2.307   0.959   0.806 -0.2069  0.7866  2.5692
  741SOL  OW    2221   1.947   2.572   3.003 -0.5638 -0.0688  0.1865
  741SOL  HW1   2222   1.847   2.568   2.988 -0.7306  2.8904  1.0135
  741SOL  HW2   2223   1.990   2.584   2.913  1.0652 -0.2548 -0.5202
  742SOL  OW    2224   1.922   2.076   2.565 -0.1146  0.0596 -0.5064
  742SOL  HW1   2225   1.988   2.148   2.602 -3.3266  1.4635 -0.1564
  742SOL  HW2   2226   1.876   2.113   2.482  0.2632  1.0284 -0.0243
  743SOL  OW    2227   1.505   1.086   1.541  0.3812 -0.2589  0.5610
  743SOL  HW1   2228   1.425   1.064   1.597  1.9629 -1.4884  0.6063
  743SOL  HW2   2229   1.536   0.999   1.499 -0.9545  1.6968  0.3695
  744SOL  OW    2230   3.067   0.317   0.917  0.1532  0.1538  0.0594
  744SOL  HW1   2231   2.994   0.376   0.879 -0.2413 -1.9295  2.2092
  744SOL  HW2   2232   0.023   0.377   0.984 -2.1473  2.4291  2.2554
  745SOL  OW    2233   2.022   0.883   0.804  0.3753  0.6667 -0.6912
  745SOL  HW1   2234   2.088   0.960   0.786 -0.8594 -0.1753  0.6936
  745SOL  HW2   2235   1.985   0.850   0.712  1.3935  0.0401 -0.2549
  746SOL  OW    2236   2.253   2.210   0.400  0.1805 -0.0409 -0.5314
  746SOL  HW1   2237   2.325   2.281   0.408  1.0237  0.5499  2.0976
  746SOL  HW2   2238   2.250   2.143   0.479  2.4846  0.2621 -1.1381
  747SOL  OW    2239   1.881   1.839   1.692 -0.5008 -0.3032 -0.1398
  747SOL  HW1   2240   1.912   1.867   1.601  2.2304  4.5308 -0.2825
  747SOL  HW2   2241   1.889   1.737   1.704  2.5845 -0.2643  0.8851
  748SOL  OW    2242   2.992   0.095   2.892  0.5813  0.2150 -0.3146
  748SOL  HW1   2243   2.922   0.153   2.838  0.4245  1.4453  1.6946
  748SOL  HW2   2244   3.013   0.142   2.980  0.0809 -2.0880 -1.5058
  749SOL  OW    2245   2.824   1.942   1.053 -0.0934 -0.0431 -0.0895
  749SOL  HW1   2246   2.862   2.019   0.995  0.7277  2.3773  0.2106
  749SOL  HW2   2247   2.842   1.951   1.155  2.7642  0.0145  1.3812
  750SOL  OW    2248   1.048   0.370   1.751  0.6561 -0.1972 -0.1480
  750SOL  HW1   2249   1.093   0.461   1.756  1.4698  0.5898 -0.4105
  750SOL  HW2   2250   1.059   0.336   1.654 -2.0241  1.3511 -0.1929
  751SOL  OW    2251   0.046   2.293   1.047  0.6670 -0.3569  0.4134
  751SOL  HW1   2252   0.107   2.254   1.123  0.0226 -0.9112 -0.4352
  751SOL  HW2   2253   3.075   2.360   1.088 -1.0388  1.2175 -0.9513
  752SOL  OW    2254   0.557   2.403   0.851 -0.0975 -0.6978  0.5554
  752SOL  HW1   2255   0.500   2.339   0.904  0.6097 -2.4269 -3.3219
  752SOL  HW2   2256   0.544   2.388   0.754 -1.0022 -0.5572  2.6103
  753SOL  OW    2257   2.661   2.920   0.767 -0.4267 -0.5289 -0.1987
  753SOL  HW1   2258   2.722   2.994   0.790 -0.2999 -1.0941 -0.1884
  753SOL  HW2   2259   2.657   2.901   0.668 -0.5671 -0.8823  2.0188
  754SOL  OW    2260   1.970   0.189   2.194 -0.0129  0.5975  0.1597
  754SOL  HW1   2261   2.035   0.266   2.180 -1.1037 -2.9195 -0.3151
  754SOL  HW2   2262   1.882   0.205   2.136  0.6651 -1.2750 -1.1415
  755SOL  OW    2263   2.549   1.293   1.288  0.4530 -0.1541  0.0744
  755SOL  HW1   2264   2.536   1.392   1.272 -2.3022  0.1628 -0.4479
  755SOL  HW2   2265   2.476   1.261   1.349  1.6702  0.7159  2.2026
  756SOL  OW    2266   2.313   2.546   0.641  0.8607  0.5271 -0.1485
  756SOL  HW1   2267   2.307   2.499   0.731  0.3148  1.1547 -1.8076
  756SOL  HW2   2268   2.339   2.483   0.566 -0.9941 -0.5455  0.2068
  757SOL  OW    2269   2.707   1.189   2.889 -0.6898  0.2770  0.6140
  757SOL  HW1   2270   2.757   1.104   2.873  0.0868 -2.7103 -0.0008
  757SOL  HW2   2271   2.638   1.173   2.954 -0.3722  0.8216  2.9284
  758SOL  OW    2272   1.853   0.471   1.279 -0.1612 -0.2692 -0.9107
  758SOL  HW1   2273   1.923   0.483   1.209  0.4964 -0.0133  0.4714
  758SOL  HW2   2274   1.782   0.413   1.238 -0.5736 -0.4417 -0.8691
  759SOL  OW    2275   2.985   0.181   1.362  0.0413 -0.2555 -0.2002
  759SOL  HW1   2276   2.902   0.134   1.399  1.1797 -0.5550  0.7338
  759SOL  HW2   2277   3.067   0.151   1.408 -0.5871  2.1489 -0.3971
  760SOL  OW    2278   1.872   2.749   2.596  0.0558  0.1438  0.5338
  760SOL  HW1   2279   1.926   2.749   2.513 -2.3780 -0.0866 -0.3444
  760SOL  HW2   2280   1.854   2.846   2.628 -1.2079 -0.4227  0.8533
  761SOL  OW    2281   0.738   1.017   2.470 -0.2893 -0.4841  0.1242
  761SOL  HW1   2282   0.673   0.971   2.531  0.3124 -5.0532  0.6687
  761SOL  HW2   2283   0.690   1.095   2.427  2.1685  2.3372 -0.2782
  762SOL  OW    2284   0.079   1.844   1.027 -0.1781  0.3833 -0.2307
  762SOL  HW1   2285   0.022   1.787   1.093  0.1830  1.4860 -0.0866
  762SOL  HW2   2286   0.059   1.818   0.930 -0.4346 -1.6547 -2.5790
  763SOL  OW    2287   1.025   0.006   2.699 -0.9865 -0.2486  0.4197
  763SOL  HW1   2288   1.088   3.021   2.711  1.7826  1.2521  1.9418
  763SOL  HW2   2289   1.069   0.091   2.667 -2.0169  0.1829 -3.7102
  764SOL  OW    2290   0.520   2.336   2.302 -0.0801 -0.1871 -0.1988
  764SOL  HW1   2291   0.594   2.279   2.261  2.4926 -0.9034 -0.7410
  764SOL  HW2   2292   0.429   2.298   2.274 -0.0355 -0.3436 -0.7648
  765SOL  OW    2293   0.791   2.485   0.920 -0.0588  0.0488  0.3353
  765SOL  HW1   2294   0.707   2.440   0.884 -1.2092 -0.7177 -0.9403
  765SOL  HW2   2295   0.859   2.498   0.848 -1.0648 -0.2381  0.7246
  766SOL  OW    2296   1.838   2.310   2.893 -0.0027 -0.0920  0.7728
  766SOL  HW1   2297   1.881   2.279   2.981  0.2227  0.5477 -0.6582
  766SOL  HW2   2298   1.779   2.392   2.907 -3.4690  0.1722 -0.5476
  767SOL  OW    2299   0.767   1.793   1.965  0.2559 -0.3055 -0.5707
  767SOL  HW1   2300   0.693   1.817   2.026  2.8077  2.7248  0.7346
  767SOL  HW2   2301   0.749   1.692   1.948 -0.2499 -1.6194  0.2921
  768SOL  OW    2302   1.571   1.732   0.323  0.1316  0.2244 -0.0621
  768SOL  HW1   2303   1.623   1.784   0.257  0.1804  0.3604 -0.6013
  768SOL  HW2   2304   1.483   1.697   0.284 -2.4609 -0.5005  1.7567
  769SOL  OW    2305   0.819   1.400   1.880 -0.0714 -0.8573 -0.2569
  769SOL  HW1   2306   0.781   1.405   1.785 -0.8973  1.0391 -2.5082
  769SOL  HW2   2307   0.743   1.428   1.937  0.9629 -0.5116 -2.7699
  770SOL  OW    2308   1.648   0.283   2.104  0.1524  0.2598 -0.9062
  770SOL  HW1   2309   1.654   0.188   2.141 -2.3383  0.0143 -2.0463
  770SOL  HW2   2310   1.555   0.321   2.102  0.2046  1.8119 -0.3901
  771SOL  OW    2311   1.430   2.970   2.517  0.0772 -0.1612  0.0248
  771SOL  HW1   2312   1.391   2.921   2.599 -0.3450 -0.6438  0.0531
  771SOL  HW2   2313   1.468   2.909   2.442  0.2774  0.4098 -0.0817
  772SOL  OW    2314   2.060   2.459   1.426  0.2314 -0.6450  0.5154
  772SOL  HW1   2315   2.155   2.425   1.443 -1.3355  0.7378 -1.5507
  772SOL  HW2   2316   1.999   2.377   1.427  1.8438 -2.7136 -0.5272
  773SOL  OW    2317   0.920   0.292   1.991  0.5556 -0.2956  0.0043
  773SOL  HW1   2318   0.961   0.301   1.896  0.6241 -1.3739 -4.0978
  773SOL  HW2   2319   0.915   0.387   2.036 -1.5878 -0.5228 -1.4153
  774SOL  OW    2320   1.139   0.852   2.189  1.3151 -0.2552  0.0763
  774SOL  HW1   2321   1.219   0.788   2.215 -0.9858  0.1235 -2.2289
  774SOL  HW2   2322   1.082   0.866   2.272  2.2456  1.7060  1.0436
  775SOL  OW    2323   0.824   3.080   0.259  0.7491  0.1190  0.0793
  775SOL  HW1   2324   0.810   3.046   0.355  1.4496 -4.5198 -0.4398
  775SOL  HW2   2325   0.911   0.040   0.251  3.7594 -1.6283 -2.6250
  776SOL  OW    2326   2.973   1.878   1.570  0.7013  0.0900 -0.4692
  776SOL  HW1   2327   2.889   1.893   1.629  0.2554  0.7891  1.7117
  776SOL  HW2   2328   3.009   1.782   1.591 -2.0817  1.2288  2.0032
  777SOL  OW    2329   1.521   2.795   2.351  0.1867 -0.2017  0.1863
  777SOL  HW1   2330   1.493   2.699   2.377  0.7813  2.8143  0.5455
  777SOL  HW2   2331   1.613   2.798   2.308 -2.9862 -0.7371 -2.0652
  778SOL  OW    2332   1.395   1.453   1.946  0.2738 -0.0380  0.2210
  778SOL  HW1   2333   1.385   1.544   1.898  0.6028  1.9052  1.6142
  778SOL  HW2   2334   1.337   1.382   1.903 -0.2753 -1.4709 -2.2383
  779SOL  OW    2335   2.885   0.969   2.550 -0.0471 -0.6022  0.2308
  779SOL  HW1   2336   2.805   0.970   2.610 -2.5113  1.2551 -2.1799
  779SOL  HW2   2337   2.891   1.044   2.483 -1.2509  1.1419 -1.1919
  780SOL  OW    2338   2.868   3.078   2.544  0.2048 -0.0351  0.3196
  780SOL  HW1   2339   2.952   3.056   2.489 -2.0346 -1.0788  1.0798
  780SOL  HW2   2340   2.837   2.992   2.596 -0.1108  0.8104 -0.6515
  781SOL  OW    2341   2.907   0.961   0.881  0.0823 -0.1244  0.8450
  781SOL  HW1   2342   2.863   1.053   0.872 -0.6051  1.1051 -0.8915
  781SOL  HW2   2343   3.007   0.969   0.858 -3.4690  0.6059 -1.3992
  782SOL  OW    2344   0.328   1.981   1.590 -0.2570  0.1832 -0.5067
  782SOL  HW1   2345   0.360   2.073   1.555 -0.2575 -0.1356 -1.9625
  782SOL  HW2   2346   0.348   1.972   1.689  3.6697 -0.6519 -2.0155
  783SOL  OW    2347   2.286   2.204   2.815  0.0778  0.2666 -0.5446
  783SOL  HW1   2348   2.364   2.202   2.752  0.2082  0.1117  0.0006
  783SOL  HW2   2349   2.324   2.212   2.907  1.2346 -1.4962 -0.5970
  784SOL  OW    2350   0.028   1.220   2.453 -0.1306  0.2357 -0.1607
  784SOL  HW1   2351   0.009   1.229   2.553  2.9401  2.4134  0.3974
  784SOL  HW2   2352   3.032   1.194   2.410 -0.5625  0.3774  0.6285
  785SOL  OW    2353   1.157   3.015   0.141 -0.7154  0.6470  0.5702
  785SOL  HW1   2354   1.118   2.944   0.078 -2.5645  0.9891 -0.6701
  785SOL  HW2   2355   1.258   3.037   0.120 -1.7512  1.7312 -0.8014
  786SOL  OW    2356   1.284   1.250   1.820  0.1855  0.3413 -0.0151
  786SOL  HW1   2357   1.265   1.295   1.730  1.1919  1.2834  2.0126
  786SOL  HW2   2358   1.320   1.157   1.803  1.6027 -0.2334 -0.3005
  787SOL  OW    2359   1.477   0.841   0.708  0.1198  0.6784 -0.5379
  787SOL  HW1   2360   1.568   0.827   0.754  2.0136 -1.3728  0.3668
  787SOL  HW2   2361   1.459   0.945   0.702  0.8119  0.4816 -0.7974
  788SOL  OW    2362   2.507   0.953   0.615 -0.1112 -0.1409  0.0871
  788SOL  HW1   2363   2.464   0.971   0.708 -0.5180  0.2202  1.1603
  788SOL  HW2   2364   2.602   0.920   0.621 -0.1268  1.6183 -0.5987
  789SOL  OW    2365   2.216   2.593   1.237  0.2293  0.1942 -0.2181
  789SOL  HW1   2366   2.170   2.661   1.173  0.2389 -0.6841  1.1846
  789SOL  HW2   2367   2.156   2.555   1.307  2.1861 -0.9101  1.9005
  790SOL  OW    2368   0.793   0.466   1.679  0.8607  0.3749 -0.6425
  790SOL  HW1   2369   0.881   0.420   1.708 -0.5217  1.6129  2.3714
  790SOL  HW2   2370   0.709   0.404   1.678 -0.8333  0.5739  0.2453
  791SOL  OW    2371   0.611   2.964   2.696 -0.4288 -0.4657 -0.6158
  791SOL  HW1   2372   0.602   2.901   2.620 -0.3604  2.0252  2.7594
  791SOL  HW2   2373   0.704   2.960   2.733  1.7784 -0.5338  1.4501
  792SOL  OW    2374   2.802   0.337   0.113  0.3897  0.5213 -0.3758
  792SOL  HW1   2375   2.756   0.326   0.025  1.0691  1.6868 -2.2616
  792SOL  HW2   2376   2.777   0.264   0.180 -0.1516  0.8001  3.8320
  793SOL  OW    2377   1.162   1.774   0.981  0.4667  0.3719 -0.4459
  793SOL  HW1   2378   1.233   1.733   0.921 -1.8686  0.6281 -0.3146
  793SOL  HW2   2379   1.086   1.820   0.929 -0.5463  2.3008  2.1292
  794SOL  OW    2380   0.570   2.817   1.136  0.1057 -0.3412  0.2717
  794SOL  HW1   2381   0.553   2.786   1.039  0.1878 -0.5422 -0.1922
  794SOL  HW2   2382   0.492   2.870   1.174  0.3114  0.1195  0.5020
  795SOL  OW    2383   0.883   1.256   2.660 -0.2243  0.1683 -0.3115
  795SOL  HW1   2384   0.907   1.166   2.710 -2.7015 -1.0271  0.9108
  795SOL  HW2   2385   0.876   1.241   2.561 -1.2448 -0.6847  1.3102
  796SOL  OW    2386   2.860   1.959   1.316  0.2364 -0.0567 -0.0410
  796SOL  HW1   2387   2.764   1.981   1.333 -0.5078 -0.0422  1.7360
  796SOL  HW2   2388   2.906   1.938   1.408 -0.1920 -1.4301 -0.8990
  797SOL  OW    2389   2.326   0.733   0.255  0.0078 -0.3925  0.5096
  797SOL  HW1   2390   2.353   0.826   0.223 -0.7068  0.2690 -1.6523
  797SOL  HW2   2391   2.391   0.663   0.225  0.0188 -1.0315 -0.4430
  798SOL  OW    2392   1.457   1.337   1.303  0.1192  0.1912 -0.1962
  798SOL  HW1   2393   1.526   1.354   1.374  0.1591  1.2136 -0.7341
  798SOL  HW2   2394   1.370   1.292   1.342  0.4553  0.2985  0.0140
  799SOL  OW    2395   0.240   1.977   2.520 -0.0460  0.0189 -0.5350
  799SOL  HW1   2396   0.298   1.890   2.522  1.9624 -1.3548 -2.6111
  799SOL  HW2   2397   0.288   2.053   2.570  1.4039 -2.3366 -1.9291
  800SOL  OW    2398   1.652   2.691   0.926 -0.1633  0.7113 -0.2704
  800SOL  HW1   2399   1.598   2.604   0.926  0.9710 -2.0580  0.0858
  800SOL  HW2   2400   1.634   2.753   1.008  0.0588  0.7146  2.3894
  801SOL  OW    2401   2.608   2.945   2.751 -0.3366 -0.0786 -0.2602
  801SOL  HW1   2402   2.520   2.968   2.700 -3.7713 -0.0855 -0.2408
  801SOL  HW2   2403   2.642   3.026   2.804  1.2396 -0.5932 -1.6047
  802SOL  OW    2404   2.935   1.824   1.948  0.3349  0.5186 -0.6105
  802SOL  HW1   2405   2.957   1.878   2.037  1.2798 -0.7471  0.1285
  802SOL  HW2   2406   2.903   1.885   1.871  1.0594 -0.1036  1.1751
  803SOL  OW    2407   1.866   2.221   2.324 -0.0892 -0.3934 -0.3513
  803SOL  HW1   2408   1.898   2.302   2.376 -0.3299  1.0567  1.0400
  803SOL  HW2   2409   1.930   2.208   2.242 -0.8871  1.8081 -0.2482
  804SOL  OW    2410   2.240   2.940   0.992  0.2512  0.3930  0.3385
  804SOL  HW1   2411   2.176   2.862   1.000  0.2738 -0.0946 -2.5162
  804SOL  HW2   2412   2.303   2.941   0.909  0.6387  1.9072 -0.7077
  805SOL  OW    2413   1.993   1.248   2.114  0.1705  0.5991 -0.4091
  805SOL  HW1   2414   2.061   1.318   2.112  0.4891 -0.5445 -0.7452
  805SOL  HW2   2415   1.924   1.264   2.049 -3.5597 -0.8358  0.9382
  806SOL  OW    2416   0.433   2.713   2.982 -0.4288 -0.4777  0.3635
  806SOL  HW1   2417   0.418   2.619   2.942 -0.6920  1.0408 -1.4021
  806SOL  HW2   2418   0.532   2.734   2.993 -4.1789  0.0922  0.5257
  807SOL  OW    2419   1.248   1.847   0.568  0.1568  0.3564 -0.0817
  807SOL  HW1   2420   1.337   1.864   0.615  1.6806 -3.1004  1.0182
  807SOL  HW2   2421   1.254   1.788   0.487  0.3249  3.2569  0.1954
  808SOL  OW    2422   0.673   1.723   2.981 -0.1214  0.2880 -0.1005
  808SOL  HW1   2423   0.592   1.732   2.919 -0.5563 -0.4251 -1.4810
  808SOL  HW2   2424   0.684   1.628   3.022 -1.6509 -2.6908 -0.0977
  809SOL  OW    2425   2.682   0.643   2.687  0.2430 -0.1369 -0.0354
  809SOL  HW1   2426   2.706   0.626   2.782 -2.2137  0.4957 -1.1246
  809SOL  HW2   2427   2.615   0.576   2.645 -0.7561  1.1956  1.7240
  810SOL  OW    2428   1.396   1.477   0.420  0.3188 -0.3623  0.1033
  810SOL  HW1   2429   1.459   1.536   0.475 -2.3494  1.4841  0.6127
  810SOL  HW2   2430   1.330   1.430   0.481  0.1690  0.6554 -2.4633
  811SOL  OW    2431   2.658   0.283   0.758 -0.1411 -0.2039  0.3810
  811SOL  HW1   2432   2.578   0.248   0.704 -0.4883 -2.0410 -0.1806
  811SOL  HW2   2433   2.699   0.211   0.819  0.6545  2.8429  1.0600
  812SOL  OW    2434   1.881   2.311   0.957  0.8781 -0.1135  0.4486
  812SOL  HW1   2435   1.875   2.411   0.931 -0.2377  0.2271 -2.7430
  812SOL  HW2   2436   1.930   2.297   1.045  2.9194  0.7320 -1.3297
  813SOL  OW    2437   0.455   0.509   1.715 -0.1127 -0.6459  0.3018
  813SOL  HW1   2438   0.527   0.448   1.691 -1.1541 -3.0056  1.4256
  813SOL  HW2   2439   0.460   0.541   1.813  3.1028 -1.2518  0.1802
  814SOL  OW    2440   1.108   2.835   2.761 -0.3404  0.7765  0.1770
  814SOL  HW1   2441   1.068   2.811   2.851  1.7608  1.6084 -2.4624
  814SOL  HW2   2442   1.039   2.810   2.687  0.3126  0.2796 -2.9959
  815SOL  OW    2443   2.898   0.907   2.118 -0.0131 -0.2399 -0.0149
  815SOL  HW1   2444   2.996   0.937   2.107 -1.2457 -0.3882 -0.5249
  815SOL  HW2   2445   2.879   0.814   2.076  1.5116 -3.0441  0.7827
  816SOL  OW    2446   1.669   2.530   2.943 -0.0804 -0.4202 -0.3380
  816SOL  HW1   2447   1.627   2.592   2.868  1.5670 -1.4724  2.1012
  816SOL  HW2   2448   1.632   2.547   3.037  3.0090 -0.6702 -0.6379
  817SOL  OW    2449   1.734   0.739   2.737 -0.5973  0.4863 -0.3409
  817SOL  HW1   2450   1.821   0.788   2.719  0.6674 -1.6944 -2.0072
  817SOL  HW2   2451   1.709   0.750   2.836  1.4039 -1.9712  0.8899
  818SOL  OW    2452   1.508   0.383   0.159  0.6279  0.1172 -0.0649
  818SOL  HW1   2453   1.450   0.401   0.082  3.1785 -0.6715  0.0691
  818SOL  HW2   2454   1.498   0.284   0.184 -0.4799 -0.4149 -0.0038
  819SOL  OW    2455   2.011   0.445   0.175 -0.1844 -0.1508  0.2844
  819SOL  HW1   2456   2.013   0.342   0.183 -0.7788  1.8768 -0.3168
  819SOL  HW2   2457   1.992   0.483   0.083  1.7789 -0.0196  0.5512
  820SOL  OW    2458   0.108   1.427   0.166  0.2474  0.1151 -0.3420
  820SOL  HW1   2459   0.103   1.325   0.172 -0.6132 -1.3815 -4.8425
  820SOL  HW2   2460   0.153   1.461   0.251  0.1821  2.1134 -0.8379
  821SOL  OW    2461   2.995   2.181   0.050  0.0122 -0.1479  0.4685
  821SOL  HW1   2462   3.031   2.218   3.058  0.6115 -0.8895 -1.8508
  821SOL  HW2   2463   2.944   2.252   0.102 -0.6827 -1.0660  0.7232
  822SOL  OW    2464   0.309   3.084   2.983 -0.0298  0.5717 -0.0588
  822SOL  HW1   2465   0.346   3.016   2.916  0.2759 -1.6113 -0.0843
  822SOL  HW2   2466   0.257   0.063   2.932 -0.9675  0.2287  4.2032
  823SOL  OW    2467   1.804   2.353   0.257  0.1880 -0.3012 -0.2142
  823SOL  HW1   2468   1.742   2.411   0.311 -0.8501  1.1736 -0.2197
  823SOL  HW2   2469   1.873   2.320   0.323  0.9443  1.1525  0.0728
  824SOL  OW    2470   1.894   1.466   0.258  0.2709 -0.0692  0.3153
  824SOL  HW1   2471   1.886   1.505   0.167  2.0923  3.4017  1.8039
  824SOL  HW2   2472   1.822   1.394   0.267 -0.9336 -2.6561  0.6734
  825SOL  OW    2473   2.754   2.144   2.759 -0.7467  0.0924 -0.9614
  825SOL  HW1   2474   2.853   2.164   2.731  0.0235 -1.7432  0.4467
  825SOL  HW2   2475   2.724   2.205   2.835 -0.6996  0.2882  0.4374
  826SOL  OW    2476   1.898   1.373   1.529  0.6155  0.0637  0.3720
  826SOL  HW1   2477   1.959   1.391   1.447 -2.5087 -0.8851 -0.3729
  826SOL  HW2   2478   1.914   1.278   1.562 -2.1784  0.4952  2.3621
  827SOL  OW    2479   1.761   2.853   2.241  0.7109 -0.0895 -0.1539
  827SOL  HW1   2480   1.753   2.785   2.166 -2.3043  0.1131  0.2267
  827SOL  HW2   2481   1.833   2.823   2.306  1.5602  0.3551 -1.2592
  828SOL  OW    2482   1.829   0.951   0.564 -0.5030 -0.0420 -0.0634
  828SOL  HW1   2483   1.919   0.965   0.520  1.4046  0.6577  1.3232
  828SOL  HW2   2484   1.775   0.888   0.508  2.6563  2.2600 -0.3444
  829SOL  OW    2485   1.556   2.517   0.099  0.1455 -0.2105  0.1103
  829SOL  HW1   2486   1.541   2.417   0.086 -2.2707  0.7290  0.3229
  829SOL  HW2   2487   1.601   2.525   0.193  0.9292  0.2275 -2.0554
  830SOL  OW    2488   1.393   1.746   1.403  0.3719  0.0094 -0.0535
  830SOL  HW1   2489   1.297   1.766   1.418  0.8272  0.8058 -4.0978
  830SOL  HW2   2490   1.414   1.726   1.306 -2.4634 -0.6328  1.6886
  831SOL  OW    2491   0.718   2.397   2.879  0.1978 -0.4371 -0.0064
  831SOL  HW1   2492   0.751   2.325   2.818  1.4400 -0.6705  0.5227
  831SOL  HW2   2493   0.733   2.376   2.976  0.3273 -2.4973 -0.0363
  832SOL  OW    2494   1.613   2.437   1.432  0.0449 -0.2174 -0.0314
  832SOL  HW1   2495   1.625   2.447   1.532 -0.3002  0.5356  1.5212
  832SOL  HW2   2496   1.593   2.527   1.386  1.4374  1.2700 -0.4584
  833SOL  OW    2497   0.417   2.984   0.297 -0.0562  0.1005  0.1802
  833SOL  HW1   2498   0.377   2.907   0.247  0.2723  2.0779  1.1666
  833SOL  HW2   2499   0.391   3.075   0.261  2.7264 -2.8905 -0.0638
  834SOL  OW    2500   0.601   0.278   1.657 -0.5117  0.2528 -0.2055
  834SOL  HW1   2501   0.620   0.244   1.561 -0.7450  0.9419 -0.9281
  834SOL  HW2   2502   0.523   0.228   1.696 -1.6373 -0.8801  0.1169
  835SOL  OW    2503   2.265   0.966   2.998 -0.1581  0.1413 -0.1020
  835SOL  HW1   2504   2.238   1.066   2.981 -1.6320  1.1409 -3.3770
  835SOL  HW2   2505   2.190   0.906   3.028  2.3752  0.9107  2.0803
  836SOL  OW    2506   2.199   0.347   1.150 -0.1977  0.2679 -0.2612
  836SOL  HW1   2507   2.120   0.409   1.144  0.2623  1.7542  0.8837
  836SOL  HW2   2508   2.227   0.308   1.059  2.2290 -1.3538  2.0121
  837SOL  OW    2509   1.731   1.274   0.312  0.1665  0.0458 -0.1137
  837SOL  HW1   2510   1.734   1.180   0.277  1.4638  0.5091 -0.3398
  837SOL  HW2   2511   1.704   1.262   0.411  1.2808 -0.6254  0.1490
  838SOL  OW    2512   1.654   2.253   2.631  0.3332 -0.0402 -0.2740
  838SOL  HW1   2513   1.665   2.348   2.606 -0.0296  0.9419  1.1808
  838SOL  HW2   2514   1.731   2.228   2.692  0.9908  0.5459  1.0117
  839SOL  OW    2515   0.303   1.375   2.736  0.2843  0.2267  0.1457
  839SOL  HW1   2516   0.375   1.315   2.773 -1.2584  0.6487 -1.1033
  839SOL  HW2   2517   0.321   1.462   2.781  0.7100 -0.1718  0.3005
  840SOL  OW    2518   2.705   1.608   2.839  0.0120  1.1935  0.1342
  840SOL  HW1   2519   2.743   1.545   2.770 -1.4129 -2.2322  0.5220
  840SOL  HW2   2520   2.779   1.684   2.862 -1.0196 -1.7534  1.6406
  841SOL  OW    2521   2.191   0.156   1.333 -0.2947  0.4693  0.3070
  841SOL  HW1   2522   2.233   0.074   1.295 -0.9151  0.1917 -0.9539
  841SOL  HW2   2523   2.213   0.235   1.278  0.8657 -1.5488 -1.2177
  842SOL  OW    2524   0.866   1.772   2.800  0.0474 -0.5649 -0.3779
  842SOL  HW1   2525   0.780   1.757   2.855 -0.6401  2.7793  0.6832
  842SOL  HW2   2526   0.896   1.687   2.757  1.7050  1.3913 -1.3555
  843SOL  OW    2527   2.004   3.080   0.651 -0.1392  0.0743  0.3020
  843SOL  HW1   2528   2.051   3.084   0.740  3.0900  0.0371  1.3675
  843SOL  HW2   2529   1.963   0.077   0.626 -0.1150  0.6422 -4.6516
  844SOL  OW    2530   2.401   0.076   3.090  0.0137 -0.1117  0.1930
  844SOL  HW1   2531   2.380   3.073   3.053 -0.1504 -0.7402 -1.5414
  844SOL  HW2   2532   2.452   0.065   0.084 -2.3606  0.7487 -1.4181
  845SOL  OW    2533   2.527   3.070   2.144  0.6362  0.0843 -0.0919
  845SOL  HW1   2534   2.610   0.010   2.192 -0.5348 -1.2323 -2.8313
  845SOL  HW2   2535   2.482   0.052   2.092  0.4511 -1.6854 -0.5416
  846SOL  OW    2536   2.256   2.327   2.288 -0.3251  0.3079  0.4006
  846SOL  HW1   2537   2.245   2.236   2.240 -0.5088  1.7042 -0.7808
  846SOL  HW2   2538   2.329   2.328   2.359 -0.4839  1.6959 -0.7460
  847SOL  OW    2539   0.318   0.121   1.438 -0.4768  0.4331  0.0646
  847SOL  HW1   2540   0.302   0.162   1.346  0.7636 -0.1458  1.5591
  847SOL  HW2   2541   0.392   0.052   1.442 -0.7094 -0.3399 -0.3591
  848SOL  OW    2542   0.570   0.785   0.813  0.5221 -0.5742  0.3122
  848SOL  HW1   2543   0.584   0.774   0.913  1.3672  0.1656 -0.5980
  848SOL  HW2   2544   0.642   0.854   0.780 -1.3667 -1.6390  2.6184
  849SOL  OW    2545   3.075   0.824   2.670  0.0557 -0.1909  0.0386
  849SOL  HW1   2546   2.998   0.882   2.628  0.0045  0.0387 -1.2290
  849SOL  HW2   2547   0.044   0.811   2.593  0.8409  0.2287 -1.5050
  850SOL  OW    2548   1.114   2.639   0.924  0.0561 -0.0357 -0.0335
  850SOL  HW1   2549   1.080   2.725   0.972  0.2284 -4.0427 -1.5990
  850SOL  HW2   2550   1.054   2.600   0.854  1.1699 -2.5704 -0.0245
  851SOL  OW    2551   1.008   0.599   2.923 -0.1346  0.0999 -0.8388
  851SOL  HW1   2552   0.928   0.636   2.871  1.0337  1.5632  2.4567
  851SOL  HW2   2553   0.998   0.497   2.938  0.1477 -0.6909 -0.8913
  852SOL  OW    2554   1.447   1.973   2.239  0.0338  0.0588 -0.0965
  852SOL  HW1   2555   1.517   1.954   2.169 -1.5771 -0.6461  0.3893
  852SOL  HW2   2556   1.497   2.015   2.317  0.2663 -2.9351 -1.1577
  853SOL  OW    2557   0.118   0.330   0.528 -0.1212 -0.3164 -0.6536
  853SOL  HW1   2558   0.174   0.320   0.613  0.2759  1.7675  1.0919
  853SOL  HW2   2559   0.173   0.379   0.447  0.7132 -0.2441  0.9289
  854SOL  OW    2560   0.410   1.377   1.544  0.3410 -0.1536  0.2094
  854SOL  HW1   2561   0.486   1.342   1.486  0.8100  1.2432 -0.5461
  854SOL  HW2   2562   0.335   1.421   1.490 -0.9615 -0.6127 -0.6693
  855SOL  OW    2563   0.814   3.008   1.731 -0.3740 -0.3384 -0.0988
  855SOL  HW1   2564   0.855   3.085   1.677 -1.8158 -0.9969 -3.0850
  855SOL  HW2   2565   0.891   2.979   1.791  0.9800 -2.0012  1.8909
  856SOL  OW    2566   3.072   0.583   2.822 -0.1334 -0.2682  0.1974
  856SOL  HW1   2567   3.079   0.680   2.787  1.7503 -0.6717  1.4438
  856SOL  HW2   2568   2.980   0.569   2.861 -1.4663 -0.1543  0.6895
  857SOL  OW    2569   2.819   0.194   2.719  0.3923 -0.3921 -0.4926
  857SOL  HW1   2570   2.819   0.107   2.664  1.0558 -1.1199  1.2548
  857SOL  HW2   2571   2.875   0.263   2.669  0.0099 -1.2055 -1.0687
  858SOL  OW    2572   2.289   0.212   0.922 -0.0442  0.0626 -0.0179
  858SOL  HW1   2573   2.214   0.144   0.930  1.6096  1.5181  1.3675
  858SOL  HW2   2574   2.268   0.268   0.840 -0.6142  1.0826 -0.0883
  859SOL  OW    2575   2.121   1.096   1.309 -0.1860  0.4822 -0.4000
  859SOL  HW1   2576   2.039   1.064   1.360 -2.3981 -0.3380  1.3577
  859SOL  HW2   2577   2.172   1.018   1.265 -0.5663  1.6236  1.1497
  860SOL  OW    2578   0.100   1.794   2.978  0.5318 -0.5347  0.2243
  860SOL  HW1   2579   0.045   1.723   3.024  1.0361  0.7687 -1.7172
  860SOL  HW2   2580   0.111   1.873   3.041  3.9701  1.9726  0.3056
  861SOL  OW    2581   2.149   2.897   2.812  0.3438 -0.0536 -0.3886
  861SOL  HW1   2582   2.091   2.946   2.741 -0.0322 -1.8058 -2.5056
  861SOL  HW2   2583   2.137   2.797   2.808  1.4459  1.2604  0.0502
  862SOL  OW    2584   1.425   2.106   0.293 -0.5678  0.4747  0.0577
  862SOL  HW1   2585   1.381   2.021   0.252 -0.4908  2.0696  2.5578
  862SOL  HW2   2586   1.459   2.167   0.212  1.9127 -0.2455  1.2492
  863SOL  OW    2587   0.455   2.396   0.158 -0.3991 -0.1404  0.6590
  863SOL  HW1   2588   0.399   2.364   0.080 -0.6670  0.6482 -1.1219
  863SOL  HW2   2589   0.505   2.478   0.132  1.8457  2.9606  0.4654
  864SOL  OW    2590   0.585   2.776   2.487  0.6661  0.3417 -0.2482
  864SOL  HW1   2591   0.546   2.719   2.562  0.4486 -2.8851 -1.6353
  864SOL  HW2   2592   0.515   2.783   2.413  1.1967  0.6544 -0.6500
  865SOL  OW    2593   2.977   2.803   0.319 -0.3813  0.8888 -0.2041
  865SOL  HW1   2594   2.941   2.895   0.294  1.8780  1.1366 -1.7918
  865SOL  HW2   2595   3.052   2.774   0.252 -0.4275 -0.0946  0.6204
  866SOL  OW    2596   3.007   0.383   2.624  0.4257  0.4946 -0.3026
  866SOL  HW1   2597   3.077   0.338   2.566 -1.1994  0.1500 -0.9920
  866SOL  HW2   2598   3.040   0.454   2.687 -0.6768 -1.8049  0.3564
  867SOL  OW    2599   0.381   1.994   2.261 -0.4030 -0.2251 -0.1239
  867SOL  HW1   2600   0.388   2.002   2.360  2.0971 -2.8078  1.5543
  867SOL  HW2   2601   0.347   2.080   2.217 -3.7136  1.5391 -0.0648
  868SOL  OW    2602   0.822   2.357   0.047  0.1485 -0.2260  0.3778
  868SOL  HW1   2603   0.761   2.424   0.092 -2.3427 -1.3200  1.0789
  868SOL  HW2   2604   0.837   2.279   0.108  1.5051  0.8265 -2.4131
  869SOL  OW    2605   1.583   1.315   1.053  0.7495 -0.1575 -0.1275
  869SOL  HW1   2606   1.561   1.342   1.156  0.1923 -2.6530 -0.0344
  869SOL  HW2   2607   1.496   1.283   1.006  1.8384  1.5683  2.1980
  870SOL  OW    2608   2.872   1.083   1.498 -0.5303 -0.1466 -0.2422
  870SOL  HW1   2609   2.878   1.112   1.599  0.4370  3.5195  1.5473
  870SOL  HW2   2610   2.880   0.981   1.489 -4.4755 -0.4454  0.8473
  871SOL  OW    2611   3.082   0.970   1.248  0.1532 -0.1544  0.4920
  871SOL  HW1   2612   0.030   0.885   1.209 -2.6697 -1.7251 -3.1604
  871SOL  HW2   2613   3.037   0.944   1.336  1.3493 -1.6473  0.3395
  872SOL  OW    2614   1.330   0.675   2.255 -0.1370 -0.5419  0.1171
  872SOL  HW1   2615   1.422   0.692   2.207 -1.3865 -1.3707 -2.2903
  872SOL  HW2   2616   1.342   0.630   2.345 -0.9924 -0.2215  3.1723
  873SOL  OW    2617   2.565   0.735   2.262  0.3236  0.5065  0.4743
  873SOL  HW1   2618   2.645   0.720   2.322 -1.8623  0.3469  1.9309
  873SOL  HW2   2619   2.480   0.747   2.313  0.8502 -0.9874 -1.7997
  874SOL  OW    2620   0.036   1.278   2.721 -0.4133  0.0534  0.6803
  874SOL  HW1   2621   0.112   1.340   2.733 -2.0169  0.0947  0.3032
  874SOL  HW2   2622   0.052   1.191   2.771 -0.3957 -0.9676 -1.2773
  875SOL  OW    2623   0.475   2.666   0.609 -0.8185  0.4187 -0.4799
  875SOL  HW1   2624   0.478   2.563   0.596  1.8942  0.2774 -1.0461
  875SOL  HW2   2625   0.499   2.694   0.706  0.5125 -1.1380  0.5195
  876SOL  OW    2626   0.284   0.469   0.059  0.5208  0.6327  0.1837
  876SOL  HW1   2627   0.225   0.431   3.080  1.1226  1.0201  0.7211
  876SOL  HW2   2628   0.380   0.440   0.054 -1.0248  0.0439  0.8366
  877SOL  OW    2629   1.465   1.894   0.750 -0.8205 -0.6228  0.2399
  877SOL  HW1   2630   1.549   1.928   0.706  1.1935  3.1921 -0.4352
  877SOL  HW2   2631   1.424   1.949   0.824 -1.1553 -1.7121  0.4115
  878SOL  OW    2632   2.125   2.132   1.407  0.2281 -0.5285 -0.4412
  878SOL  HW1   2633   2.082   2.149   1.314  1.2288 -3.8665 -1.0319
  878SOL  HW2   2634   2.182   2.207   1.440  0.8075 -0.7815  0.1016
  879SOL  OW    2635   2.302   2.363   1.445 -0.1969 -0.1048 -0.2165
  879SOL  HW1   2636   2.363   2.397   1.368  0.8433  0.2045 -1.6477
  879SOL  HW2   2637   2.347   2.391   1.536 -0.3691  0.2545  1.4205
  880SOL  OW    2638   1.020   0.551   0.155  0.4718  0.3808  0.3982
  880SOL  HW1   2639   1.040   0.648   0.131 -0.4310  0.1879  0.4793
  880SOL  HW2   2640   0.929   0.532   0.181 -0.5311  1.1857 -0.9513
  881SOL  OW    2641   1.702   2.046   1.414 -0.3386  0.6672 -0.1398
  881SOL  HW1   2642   1.634   2.008   1.481  0.0139 -2.0254 -0.7265
  881SOL  HW2   2643   1.660   2.116   1.352  2.1272  3.1942 -1.4702
  882SOL  OW    2644   1.679   0.125   0.419 -0.4271  0.3878 -0.1953
  882SOL  HW1   2645   1.634   0.046   0.466 -1.3450 -3.0278  1.6302
  882SOL  HW2   2646   1.614   0.185   0.373 -1.0731  2.2964 -0.0433
  883SOL  OW    2647   1.513   3.034   1.706 -0.2837 -0.0609 -0.7262
  883SOL  HW1   2648   1.529   3.022   1.804  1.3312 -0.0516  1.0759
  883SOL  HW2   2649   1.417   3.057   1.686 -1.0847  1.0747 -0.1614
  884SOL  OW    2650   0.052   1.159   0.142 -0.5845  0.1060  0.0739
  884SOL  HW1   2651   0.054   1.060   0.166 -0.1776  0.9987 -1.0906
  884SOL  HW2   2652   3.053   1.193   0.130 -2.1652  1.3036 -1.1130
  885SOL  OW    2653   0.768   1.227   0.660  0.1915  0.0214 -0.1185
  885SOL  HW1   2654   0.760   1.329   0.676 -1.0010 -0.4174  1.9005
  885SOL  HW2   2655   0.690   1.201   0.597  0.8958 -0.8201 -2.0938
  886SOL  OW    2656   1.895   0.197   0.571 -0.0768 -0.0746 -0.4240
  886SOL  HW1   2657   1.901   0.302   0.571  0.1435 -0.8207  0.8514
  886SOL  HW2   2658   1.818   0.157   0.509 -0.9818  0.3646 -0.7672
  887SOL  OW    2659   2.261   0.216   1.780 -0.1339  0.1624  0.1508
  887SOL  HW1   2660   2.258   0.318   1.793 -0.0995  1.8496 -2.4658
  887SOL  HW2   2661   2.196   0.163   1.835  1.8968  0.3479  4.7399
  888SOL  OW    2662   2.585   2.005   1.369  0.3332  0.2983 -0.1637
  888SOL  HW1   2663   2.612   2.105   1.360  0.6392 -1.2398  2.2430
  888SOL  HW2   2664   2.529   1.981   1.283  1.9029 -1.0672  0.6237
  889SOL  OW    2665   0.018   2.248   0.426  0.1339 -0.0901  0.0102
  889SOL  HW1   2666   0.098   2.279   0.368 -1.8120 -1.3160  1.3177
  889SOL  HW2   2667   0.016   2.150   0.432  1.9743 -2.1279 -0.3562
  890SOL  OW    2668   2.597   1.540   0.991 -0.0794  0.8254  0.3779
  890SOL  HW1   2669   2.563   1.563   1.084  1.1765 -0.4234 -0.0928
  890SOL  HW2   2670   2.686   1.590   0.968 -0.5401 -0.3508  2.7476
  891SOL  OW    2671   0.934   1.872   0.888 -0.5495  0.4902 -0.3397
  891SOL  HW1   2672   0.887   1.899   0.800  0.4366 -2.1371  3.7430
  891SOL  HW2   2673   0.875   1.804   0.943  1.4374 -0.4249  0.2498
  892SOL  OW    2674   2.810   2.781   1.374 -0.1005 -0.4026 -0.3273
  892SOL  HW1   2675   2.851   2.777   1.281 -0.6409 -0.4849  1.0955
  892SOL  HW2   2676   2.718   2.737   1.379  0.1092  0.9856  1.2730
  893SOL  OW    2677   2.855   0.438   1.680  0.3695  0.7285 -0.0973
  893SOL  HW1   2678   2.916   0.353   1.681 -1.0776  1.5112  1.4039
  893SOL  HW2   2679   2.760   0.412   1.658  1.4815 -2.9511  2.3776
  894SOL  OW    2680   0.209   2.260   0.827 -0.9283  0.3601  0.1194
  894SOL  HW1   2681   0.146   2.284   0.901  0.4906  1.3313 -2.1773
  894SOL  HW2   2682   0.286   2.199   0.860  0.9497  0.3430 -0.7234
  895SOL  OW    2683   1.327   0.351   1.126 -0.5182 -0.1628 -0.2755
  895SOL  HW1   2684   1.323   0.371   1.024 -1.8832  0.0070  0.2931
  895SOL  HW2   2685   1.355   0.441   1.172  1.9205  0.3211 -1.6960
  896SOL  OW    2686   2.002   0.712   2.495 -0.6884  0.9634 -0.5063
  896SOL  HW1   2687   1.947   0.650   2.552  1.8571  0.7920  0.4849
  896SOL  HW2   2688   1.992   0.806   2.533 -1.2969 -2.8919  3.3498
  897SOL  OW    2689   1.794   0.559   1.713  0.2998 -0.6226 -0.0760
  897SOL  HW1   2690   1.731   0.490   1.761  0.8127 -0.8516  1.2263
  897SOL  HW2   2691   1.856   0.508   1.649 -0.2202  3.4626  1.2803
  898SOL  OW    2692   0.779   1.016   1.138  0.4043 -0.2520  0.1222
  898SOL  HW1   2693   0.701   1.040   1.198 -3.1004 -2.5789 -0.3705
  898SOL  HW2   2694   0.788   1.086   1.065  1.5986  0.2633 -1.3886
  899SOL  OW    2695   2.773   2.546   2.837  0.4333 -0.2943 -0.4226
  899SOL  HW1   2696   2.801   2.590   2.929  1.1661  1.9511  1.4994
  899SOL  HW2   2697   2.691   2.595   2.799 -1.5783 -2.6489  1.1326
  900SOL  OW    2698   0.476   0.280   1.994  0.3397  0.3139 -0.2354
  900SOL  HW1   2699   0.493   0.214   1.923  0.5113 -0.2289 -0.7006
  900SOL  HW2   2700   0.373   0.289   2.001  2.1087  0.9034 -0.1159
  901SOL  OW    2701   1.816   1.654   0.063 -0.5318 -0.0133  0.1811
  901SOL  HW1   2702   1.895   1.674   0.008 -2.0169 -0.8667 -1.2836
  901SOL  HW2   2703   1.720   1.674   0.026  1.4833  0.0291  2.0815
  902SOL  OW    2704   1.634   2.192   0.977  0.3675  0.2271  0.5124
  902SOL  HW1   2705   1.563   2.219   0.910  0.8274  0.7169  0.3777
  902SOL  HW2   2706   1.724   2.240   0.961  0.1199 -1.0636 -0.5396
  903SOL  OW    2707   0.135   1.731   1.350  0.2206 -0.1425 -0.5271
  903SOL  HW1   2708   0.225   1.753   1.305 -0.1998  0.0900  1.1850
  903SOL  HW2   2709   0.125   1.786   1.435 -1.9550 -2.7659 -0.3996
  904SOL  OW    2710   2.710   1.561   0.212  0.5574 -0.1054  0.5557
  904SOL  HW1   2711   2.661   1.539   0.122  1.6548 -1.3377 -0.9533
  904SOL  HW2   2712   2.795   1.619   0.201 -0.3590 -0.8274  0.9573
  905SOL  OW    2713   2.101   2.199   1.125 -0.0337  0.5806  0.7105
  905SOL  HW1   2714   2.080   2.117   1.068  2.1691 -1.2846 -2.5056
  905SOL  HW2   2715   2.201   2.223   1.113 -1.6692  0.7508 -1.6823
  906SOL  OW    2716   1.669   2.292   0.527 -0.3222 -0.5764  0.2453
  906SOL  HW1   2717   1.721   2.241   0.461  2.6563 -1.8053 -2.3125
  906SOL  HW2   2718   1.686   2.395   0.524  0.0183  1.5158  0.6288
  907SOL  OW    2719   0.261   0.410   2.389  0.8164  0.3743 -0.1623
  907SOL  HW1   2720   0.202   0.464   2.325 -0.8493 -0.0753  2.1637
  907SOL  HW2   2721   0.206   0.341   2.439 -0.5894 -0.3063 -1.3458
  908SOL  OW    2722   1.234   1.244   0.561  0.1912  0.6050 -0.3896
  908SOL  HW1   2723   1.171   1.324   0.570  0.0172 -3.3836 -0.0050
  908SOL  HW2   2724   1.195   1.188   0.481  3.4276 -1.6312 -0.6520
  909SOL  OW    2725   2.052   2.716   1.076  0.0822 -0.2989  0.2387
  909SOL  HW1   2726   2.002   2.773   1.137  1.1944 -0.5765  1.4310
  909SOL  HW2   2727   2.001   2.661   1.012 -1.4667 -1.4603 -0.4678
  910SOL  OW    2728   1.479   3.027   1.998  0.2704  0.5357  0.1564
  910SOL  HW1   2729   1.559   3.046   2.063 -0.2100 -1.5554 -0.8860
  910SOL  HW2   2730   1.412   2.965   2.045 -0.1672  0.4451 -1.1862
  911SOL  OW    2731   1.227   2.752   1.956 -0.1345 -0.3951 -0.1457
  911SOL  HW1   2732   1.240   2.655   1.968  1.1740  0.0542  1.0082
  911SOL  HW2   2733   1.278   2.805   2.028  0.3583  2.7202 -2.1256
  912SOL  OW    2734   0.267   0.785   0.416  0.6038 -0.0161 -0.3995
  912SOL  HW1   2735   0.352   0.787   0.362  0.6062 -1.1764 -0.5904
  912SOL  HW2   2736   0.285   0.777   0.516  1.2851  1.2857 -0.5992
  913SOL  OW    2737   2.964   2.459   1.182 -0.4325 -0.6752 -0.1587
  913SOL  HW1   2738   2.884   2.411   1.138  1.9384  2.0072 -1.8547
  913SOL  HW2   2739   2.974   2.427   1.279  0.1359  1.1356 -1.4163
  914SOL  OW    2740   2.881   1.222   0.097 -0.3212 -0.6773 -0.0017
  914SOL  HW1   2741   2.781   1.209   0.104 -2.2755  2.1128 -0.7098
  914SOL  HW2   2742   2.905   1.269   0.009  1.8133 -2.7281  1.4361
  915SOL  OW    2743   2.899   2.328   0.264  0.5553 -0.0380  0.3486
  915SOL  HW1   2744   2.976   2.304   0.324  1.1610 -0.4200  0.0274
  915SOL  HW2   2745   2.888   2.429   0.250 -0.5804  1.9098  0.0298
  916SOL  OW    2746   1.572   2.226   1.263 -0.0165 -0.0063 -0.1036
  916SOL  HW1   2747   1.583   2.234   1.164 -2.7413 -1.4966  1.7472
  916SOL  HW2   2748   1.577   2.316   1.310 -0.3093 -0.2949  0.9616
  917SOL  OW    2749   1.822   1.979   0.998  0.6021  0.2678 -0.0271
  917SOL  HW1   2750   1.751   2.048   0.988 -0.9769  0.1171  0.0549
  917SOL  HW2   2751   1.800   1.928   1.078 -0.8131  0.5414  0.5820
  918SOL  OW    2752   1.965   1.901   1.439 -0.4561 -0.0044 -0.0683
  918SOL  HW1   2753   2.006   1.995   1.428  1.6621 -0.8497  0.8018
  918SOL  HW2   2754   1.871   1.905   1.410 -1.6551 -0.2908 -0.2981
  919SOL  OW    2755   0.962   2.561   0.717  0.1741  0.0931 -0.3449
  919SOL  HW1   2756   0.985   2.506   0.634 -1.6275 -1.9047  0.3108
  919SOL  HW2   2757   0.932   2.659   0.699  0.1506  0.2147  1.1974
  920SOL  OW    2758   0.195   2.463   2.056  0.1224 -0.0112  0.9086
  920SOL  HW1   2759   0.251   2.551   2.060 -0.5120  1.2055  1.5579
  920SOL  HW2   2760   0.204   2.422   1.960  0.8472  1.5119 -1.3438
  921SOL  OW    2761   2.594   1.116   0.949  0.3213  0.2314 -0.4105
  921SOL  HW1   2762   2.638   1.116   1.038  1.0824  1.7335 -1.3904
  921SOL  HW2   2763   2.514   1.052   0.941 -1.2777  0.9691 -0.5929
  922SOL  OW    2764   0.055   1.850   0.758  0.3806 -0.6432  0.2093
  922SOL  HW1   2765   0.037   1.772   0.693 -1.3274  0.6189  1.1913
  922SOL  HW2   2766   3.089   1.927   0.741 -2.0312 -1.4709 -1.2773
  923SOL  OW    2767   3.069   0.124   0.459 -0.3669 -0.0306  0.9629
  923SOL  HW1   2768   0.043   0.184   0.502  0.9292  0.7947  0.4539
  923SOL  HW2   2769   2.982   0.173   0.471  3.4247 -1.6987  0.8701
  924SOL  OW    2770   2.322   1.931   0.270  0.7312  0.4338 -0.4594
  924SOL  HW1   2771   2.235   1.960   0.310  1.7737 -1.4783  1.2776
  924SOL  HW2   2772   2.349   1.834   0.286  0.1432  2.8779  0.6316
  925SOL  OW    2773   2.468   1.705   0.813 -0.5655 -0.1545  0.6897
  925SOL  HW1   2774   2.500   1.618   0.858 -0.5980 -0.7839  0.3373
  925SOL  HW2   2775   2.372   1.726   0.841  0.7521 -1.2217 -2.5983
  926SOL  OW    2776   2.488   0.170   1.985  0.6124 -0.2490 -0.1549
  926SOL  HW1   2777   2.399   0.188   1.937  1.0688 -0.3872  1.4686
  926SOL  HW2   2778   2.553   0.132   1.919  3.5800 -0.0518 -2.2243
  927SOL  OW    2779   0.658   2.983   2.156  0.1917  0.4335  0.5153
  927SOL  HW1   2780   0.721   2.909   2.183  1.6451 -0.9401 -0.3923
  927SOL  HW2   2781   0.691   3.077   2.176  1.1832 -0.7618  1.0173
  928SOL  OW    2782   1.807   0.494   2.545 -0.2026 -0.0252  0.1567
  928SOL  HW1   2783   1.810   0.404   2.495  0.3750 -0.9656  2.5905
  928SOL  HW2   2784   1.710   0.517   2.562 -0.8670 -0.6937 -0.0422
  929SOL  OW    2785   2.631   2.520   1.906 -0.5630  0.2658  0.9145
  929SOL  HW1   2786   2.636   2.619   1.875  1.7962 -2.6623 -0.2620
  929SOL  HW2   2787   2.579   2.509   1.992  0.4282  0.4611 -0.3247
  930SOL  OW    2788   1.994   0.601   2.238  0.1602 -0.0798  0.0691
  930SOL  HW1   2789   1.994   0.653   2.325  0.2968  1.1384  2.9416
  930SOL  HW2   2790   1.969   0.661   2.155  1.5036  2.1674  0.7640
  931SOL  OW    2791   1.462   1.635   2.313  0.5909 -0.1636  0.1217
  931SOL  HW1   2792   1.501   1.663   2.404 -1.4670 -0.9616 -0.9811
  931SOL  HW2   2793   1.378   1.690   2.294 -1.0190 -0.6813  0.7766
  932SOL  OW    2794   2.583   1.043   2.169  0.2607 -0.3909 -0.0153
  932SOL  HW1   2795   2.636   1.127   2.148  1.6208  2.1382  0.3714
  932SOL  HW2   2796   2.609   0.964   2.111 -0.0226  0.1049  3.5530
  933SOL  OW    2797   2.459   0.757   1.232 -0.1514 -0.1447 -0.3355
  933SOL  HW1   2798   2.408   0.822   1.176  2.0637 -0.5733 -2.9563
  933SOL  HW2   2799   2.430   0.663   1.202 -1.7006  0.6624  0.3523
  934SOL  OW    2800   1.970   0.892   2.706 -0.2037 -0.5346 -1.3646
  934SOL  HW1   2801   2.073   0.909   2.706  0.2814  0.7140 -2.2664
  934SOL  HW2   2802   1.931   0.956   2.773  1.7498 -0.9785  0.7127
  935SOL  OW    2803   0.749   0.967   0.719 -0.5560 -0.1204  0.1426
  935SOL  HW1   2804   0.828   0.936   0.774  0.0784  1.1131 -1.6177
  935SOL  HW2   2805   0.762   1.065   0.697 -1.3159  0.5924  0.2103
  936SOL  OW    2806   0.569   0.177   0.537 -0.2005 -0.5953 -0.3247
  936SOL  HW1   2807   0.609   0.165   0.631 -0.7131  2.2614 -2.7939
  936SOL  HW2   2808   0.517   0.267   0.531  0.8939 -1.2349  0.4000
  937SOL  OW    2809   0.284   2.639   2.366  0.1548 -0.5583  0.7458
  937SOL  HW1   2810   0.276   2.576   2.286 -1.7309 -0.3337 -2.4171
  937SOL  HW2   2811   0.317   2.729   2.341 -3.6192 -0.4176 -1.6341
  938SOL  OW    2812   2.478   1.355   0.844  0.8365 -0.9927 -0.2471
  938SOL  HW1   2813   2.519   1.421   0.907 -2.0963 -1.1020 -0.7205
  938SOL  HW2   2814   2.524   1.265   0.866  0.9260  1.5008  0.0034
  939SOL  OW    2815   3.015   0.575   1.520 -0.1597 -0.0319  0.1317
  939SOL  HW1   2816   2.968   0.521   1.591  1.2660 -0.0168  4.0244
  939SOL  HW2   2817   0.020   0.589   1.543 -1.5969  0.1777  0.5605
  940SOL  OW    2818   1.279   2.264   0.457 -0.1245  0.2421  0.3352
  940SOL  HW1   2819   1.265   2.224   0.551  0.6146 -1.9027 -2.3315
  940SOL  HW2   2820   1.334   2.198   0.396  0.0736  2.0940 -1.7635
  941SOL  OW    2821   1.730   0.925   2.494 -0.4872  0.1787 -0.0084
  941SOL  HW1   2822   1.749   0.857   2.565 -2.0536 -0.9092 -0.7119
  941SOL  HW2   2823   1.681   1.008   2.535 -1.4222 -1.3977 -2.6392
  942SOL  OW    2824   1.884   0.981   2.193 -0.2136 -0.1807  0.3714
  942SOL  HW1   2825   1.795   0.964   2.240 -0.1802  0.6043  0.2134
  942SOL  HW2   2826   1.898   1.083   2.176  1.6142  0.8858  3.0144
  943SOL  OW    2827   1.656   1.481   1.926  0.8553  0.4553  0.2019
  943SOL  HW1   2828   1.550   1.469   1.927 -1.8676 -1.2972 -1.8743
  943SOL  HW2   2829   1.693   1.553   1.987  1.2301  1.3721 -1.5434
  944SOL  OW    2830   2.189   1.313   0.904 -0.3397 -0.1542 -0.0478
  944SOL  HW1   2831   2.151   1.286   0.993 -0.4310  0.3421  0.9041
  944SOL  HW2   2832   2.288   1.308   0.904  0.9263  0.5767 -0.7426
  945SOL  OW    2833   0.540   0.151   2.757  0.0483 -0.5437  0.0643
  945SOL  HW1   2834   0.450   0.180   2.791  0.8777 -0.4486 -1.2164
  945SOL  HW2   2835   0.523   0.069   2.698  0.0348 -2.6854 -1.3975
  946SOL  OW    2836   0.161   1.194   1.159  0.5037  0.2479  0.1011
  946SOL  HW1   2837   0.248   1.224   1.200  0.3804 -1.7646 -2.4407
  946SOL  HW2   2838   0.117   1.118   1.209  0.1697 -0.0318  3.5327
  947SOL  OW    2839   2.727   0.325   2.929  0.1773  0.2726 -0.3234
  947SOL  HW1   2840   2.745   0.261   2.849  0.1982 -0.9819  0.3484
  947SOL  HW2   2841   2.724   0.427   2.901 -2.9277 -2.3381  4.0171
  948SOL  OW    2842   1.741   1.841   1.248 -0.7374  0.2461  0.9471
  948SOL  HW1   2843   1.656   1.792   1.214 -2.4518 -2.4038 -1.8011
  948SOL  HW2   2844   1.713   1.920   1.309  1.4879 -0.4444 -1.3915
  949SOL  OW    2845   0.036   1.046   2.863  0.3986  0.4219 -0.7395
  949SOL  HW1   2846   3.051   1.059   2.927  0.5916  0.0453  2.7920
  949SOL  HW2   2847   0.027   0.953   2.816 -0.3872 -0.6295 -2.2123
  950SOL  OW    2848   1.002   2.884   1.016  0.1724  0.0588 -0.3094
  950SOL  HW1   2849   0.936   2.918   1.087 -0.4613  0.3566  1.2643
  950SOL  HW2   2850   1.093   2.929   1.019 -1.4866  0.6878 -0.9636
  951SOL  OW    2851   1.282   2.484   1.976  0.6805  0.2595 -0.2596
  951SOL  HW1   2852   1.226   2.403   1.987 -0.7251 -0.4867 -2.8013
  951SOL  HW2   2853   1.363   2.467   2.033  1.8968 -1.5223  2.5135
  952SOL  OW    2854   2.581   1.944   2.713 -0.1990 -0.0138 -0.3129
  952SOL  HW1   2855   2.641   2.026   2.741  0.8891  0.4227 -2.5207
  952SOL  HW2   2856   2.638   1.876   2.665  0.8757  0.5179  0.9582
  953SOL  OW    2857   2.439   1.906   2.964  0.1561 -0.0010 -0.9601
  953SOL  HW1   2858   2.500   1.976   3.001  0.9161  1.9337  2.6576
  953SOL  HW2   2859   2.451   1.901   2.866  1.3689  0.0557 -2.6453
  954SOL  OW    2860   0.797   0.380   0.819 -0.0412 -0.1330 -0.0153
  954SOL  HW1   2861   0.779   0.287   0.857  0.8618  0.2275  0.7822
  954SOL  HW2   2862   0.866   0.371   0.743  1.9122 -0.7767  0.7433
  955SOL  OW    2863   0.307   1.632   2.854 -0.2276 -0.5480  0.3878
  955SOL  HW1   2864   0.222   1.683   2.880  0.7444 -2.3943 -2.2150
  955SOL  HW2   2865   0.373   1.696   2.809  2.4271 -0.3669  1.8440
  956SOL  OW    2866   0.277   0.389   1.568 -0.0011 -0.7902  0.1246
  956SOL  HW1   2867   0.299   0.296   1.532 -0.9855 -3.4463  1.2449
  956SOL  HW2   2868   0.360   0.434   1.604 -0.9143  0.3735  2.3629
  957SOL  OW    2869   2.251   2.020   0.008  0.3733  0.2562  0.0342
  957SOL  HW1   2870   2.257   1.967   0.097  0.1799  2.1546  1.4649
  957SOL  HW2   2871   2.321   1.979   3.043 -0.1598 -3.8092  2.4703
  958SOL  OW    2872   1.381   0.345   2.068 -0.6202  0.5687  0.3185
  958SOL  HW1   2873   1.298   0.410   2.078 -1.2873 -2.1935 -0.4986
  958SOL  HW2   2874   1.353   0.268   2.010  1.0854  0.6474 -0.1345
  959SOL  OW    2875   2.748   2.487   2.429 -0.1171  0.1592  0.1337
  959SOL  HW1   2876   2.707   2.577   2.453  0.5769  1.1663  1.0329
  959SOL  HW2   2877   2.827   2.460   2.489 -0.7741 -0.1980 -1.9752
  960SOL  OW    2878   1.067   2.443   1.739 -0.0574 -0.0655 -0.2041
  960SOL  HW1   2879   1.162   2.415   1.710  0.4388 -0.7914 -0.2109
  960SOL  HW2   2880   1.003   2.360   1.729 -2.6230  1.2275  2.1869
  961SOL  OW    2881   2.061   1.275   0.158 -0.0966 -0.3181  0.1644
  961SOL  HW1   2882   2.005   1.342   0.206  1.2824  0.8355  1.5355
  961SOL  HW2   2883   2.053   1.283   0.054 -1.0698  1.4255  0.1911
  962SOL  OW    2884   1.999   0.545   1.069 -0.2139  0.6553 -0.0711
  962SOL  HW1   2885   2.015   0.648   1.064  2.8671  0.6484  0.4222
  962SOL  HW2   2886   1.937   0.521   0.987 -5.0585 -2.4109  3.1277
  963SOL  OW    2887   0.026   1.256   1.956 -0.1144 -0.0234  0.9901
  963SOL  HW1   2888   0.108   1.307   1.965 -0.8846  1.9602 -0.9310
  963SOL  HW2   2889   3.070   1.278   1.869  1.8561  1.9006  1.1363
  964SOL  OW    2890   1.180   2.021   3.041 -0.1715 -0.3911 -0.2442
  964SOL  HW1   2891   1.221   1.993   0.032  1.9169 -2.6276 -1.1935
  964SOL  HW2   2892   1.246   2.029   2.965  1.0989 -1.6137  0.6140
  965SOL  OW    2893   2.422   2.398   0.457  0.0237  0.1170 -0.3662
  965SOL  HW1   2894   2.465   2.456   0.385  0.5481  3.0862  2.0774
  965SOL  HW2   2895   2.493   2.363   0.518  0.1503  0.9291 -1.2727
  966SOL  OW    2896   0.151   1.865   2.145  0.0531  0.4844 -0.4366
  966SOL  HW1   2897   0.224   1.909   2.200 -1.8565  1.4387  1.2260
  966SOL  HW2   2898   0.055   1.905   2.158 -0.2088 -1.9633 -0.8358
  967SOL  OW    2899   1.377   2.871   2.765  0.2445 -0.6361  0.5511
  967SOL  HW1   2900   1.275   2.878   2.772 -1.5894 -0.9554 -0.8971
  967SOL  HW2   2901   1.418   2.943   2.827  2.0204  1.0349  1.1357
  968SOL  OW    2902   1.733   0.749   3.018  0.5222 -0.5689  0.0762
  968SOL  HW1   2903   1.715   0.676   3.085 -0.7437  1.2110  2.3302
  968SOL  HW2   2904   1.794   0.817   3.057 -0.9858 -0.2906 -2.6831
  969SOL  OW    2905   0.074   0.970   2.063 -0.8019 -0.0532  0.4455
  969SOL  HW1   2906   0.058   1.066   2.029 -1.0327 -3.3681 -0.2251
  969SOL  HW2   2907   0.119   0.973   2.154 -1.9343  1.7263 -0.3435
  970SOL  OW    2908   2.733   0.173   0.363  0.5791 -0.1838  0.4222
  970SOL  HW1   2909   2.767   0.222   0.445  2.0773 -2.6137  1.9540
  970SOL  HW2   2910   2.635   0.189   0.347 -1.2639 -1.5414  0.2317
  971SOL  OW    2911   1.393   0.775   0.464 -0.6863  0.3624  0.3439
  971SOL  HW1   2912   1.427   0.789   0.562  0.5293  3.6504 -1.1357
  971SOL  HW2   2913   1.379   0.676   0.440  0.4081 -0.4803  2.0143
  972SOL  OW    2914   0.561   2.941   1.733 -0.1803 -0.0786 -0.0314
  972SOL  HW1   2915   0.661   2.964   1.740  3.0685  0.1670  0.9294
  972SOL  HW2   2916   0.551   2.843   1.734  1.0900 -0.1529  1.6360
  973SOL  OW    2917   0.816   0.596   2.722  0.6267  0.1428 -0.3337
  973SOL  HW1   2918   0.731   0.539   2.728  1.3863 -0.7539  0.6020
  973SOL  HW2   2919   0.889   0.545   2.674 -0.2618 -0.2877  0.0077
  974SOL  OW    2920   3.069   1.590   2.573  0.6611 -0.0971  0.0427
  974SOL  HW1   2921   3.058   1.662   2.641  1.8205 -2.6226 -2.3397
  974SOL  HW2   2922   0.067   1.581   2.533 -0.6243 -1.0488  0.4313
  975SOL  OW    2923   0.088   0.244   2.513  0.0107 -0.0865 -0.4530
  975SOL  HW1   2924   0.095   0.164   2.573 -1.0925 -0.9213  1.2766
  975SOL  HW2   2925   0.071   0.207   2.420 -0.1683  0.2149  0.8021
  976SOL  OW    2926   0.069   1.468   0.908  1.0547  0.4756 -0.0574
  976SOL  HW1   2927   3.080   1.510   0.870  0.3353 -0.9862  0.3719
  976SOL  HW2   2928   0.043   1.424   0.996  0.8886 -1.2492 -0.6081
  977SOL  OW    2929   1.920   2.245   0.054  0.3531  0.4938  0.1995
  977SOL  HW1   2930   2.013   2.236   0.094  2.8950  1.1585  1.5861
  977SOL  HW2   2931   1.859   2.291   0.121  2.9507 -0.3219  0.9377
  978SOL  OW    2932   0.302   1.597   0.041  0.4416  0.5388  0.3340
  978SOL  HW1   2933   0.297   1.611   3.036 -0.8654 -1.7678 -0.8901
  978SOL  HW2   2934   0.239   1.520   0.071 -4.8222  0.4142  0.1242
  979SOL  OW    2935   2.722   1.261   2.620  0.1885 -0.2797 -0.0518
  979SOL  HW1   2936   2.663   1.216   2.544  4.4244 -2.3689  1.5551
  979SOL  HW2   2937   2.715   1.214   2.712 -0.5276  1.8688  0.2953
  980SOL  OW    2938   0.959   1.755   2.218  0.6996  0.2977  0.1663
  980SOL  HW1   2939   1.060   1.762   2.252  1.2161  0.1363  0.7946
  980SOL  HW2   2940   0.962   1.705   2.128 -2.3818 -0.3023  1.7645
  981SOL  OW    2941   2.235   1.242   2.959 -0.3120  0.3923  0.0190
  981SOL  HW1   2942   2.274   1.298   3.036 -0.1863  1.1122  2.3169
  981SOL  HW2   2943   2.288   1.262   2.875 -2.5909  0.5916 -0.5909
  982SOL  OW    2944   0.315   1.862   0.850  0.4589 -0.4396  0.4492
  982SOL  HW1   2945   0.228   1.893   0.806 -1.8322 -1.9471 -0.7558
  982SOL  HW2   2946   0.289   1.792   0.921  0.2518  2.4629 -1.0117
  983SOL  OW    2947   2.264   1.018   2.398 -0.0331  0.2297 -0.2406
  983SOL  HW1   2948   2.290   1.088   2.330 -0.5804  0.3392  0.0114
  983SOL  HW2   2949   2.298   0.929   2.367 -1.1606  2.0440 -0.5509
  984SOL  OW    2950   2.778   0.482   0.340  0.6899 -0.1430  0.3444
  984SOL  HW1   2951   2.804   0.429   0.423 -0.5304 -0.5939 -1.3718
  984SOL  HW2   2952   2.805   0.435   0.255  2.4000 -1.3714 -1.6619
  985SOL  OW    2953   2.402   0.339   3.039 -0.1865  0.8248 -0.2129
  985SOL  HW1   2954   2.400   0.237   3.051 -2.1296  1.7099  0.9038
  985SOL  HW2   2955   2.494   0.380   3.044  2.3486 -1.4973 -2.3397
  986SOL  OW    2956   1.242   0.090   2.445  0.5213  0.4310 -0.4098
  986SOL  HW1   2957   1.316   0.020   2.464  0.2953 -0.0358  0.9108
  986SOL  HW2   2958   1.180   0.050   2.378 -1.1131  0.9447 -2.7687
  987SOL  OW    2959   0.117   1.580   2.103  0.2135 -0.3933 -0.6858
  987SOL  HW1   2960   0.027   1.533   2.123 -0.9627  0.0564  0.2651
  987SOL  HW2   2961   0.098   1.681   2.110  2.4355  1.7772 -3.3028
  988SOL  OW    2962   0.193   0.261   2.008 -0.0579  0.3195 -0.1842
  988SOL  HW1   2963   0.155   0.329   1.946 -2.0006 -1.3350  1.1818
  988SOL  HW2   2964   0.176   0.166   1.978 -1.8842 -1.1944 -1.2754
  989SOL  OW    2965   0.061   0.087   0.206  0.2917 -0.3954  0.1250
  989SOL  HW1   2966   0.162   0.094   0.188  0.0918 -1.9352 -0.0612
  989SOL  HW2   2967   0.037   0.102   0.308  0.0569  3.4129 -2.8037
  990SOL  OW    2968   2.558   1.092   0.406 -0.0868  0.3934 -0.2359
  990SOL  HW1   2969   2.536   1.033   0.484  2.7080 -1.0462  1.0901
  990SOL  HW2   2970   2.657   1.123   0.409  1.3867 -0.7884 -1.5767
  991SOL  OW    2971   1.263   1.693   0.333  0.5263  0.0685  0.3064
  991SOL  HW1   2972   1.304   1.602   0.353  0.5081 -2.1693 -1.3104
  991SOL  HW2   2973   1.169   1.684   0.297 -2.7312 -0.4147  1.1916
  992SOL  OW    2974   2.044   1.504   1.923 -0.2900 -0.1860  0.1200
  992SOL  HW1   2975   1.976   1.548   1.860  0.1852 -1.6910  1.4259
  992SOL  HW2   2976   2.081   1.419   1.877 -1.9292 -1.9128  1.2544
  993SOL  OW    2977   0.979   2.564   3.039 -0.5383  0.4405 -0.1684
  993SOL  HW1   2978   0.944   2.580   2.945  0.3235 -1.9311  1.5777
  993SOL  HW2   2979   0.917   2.511   0.003  2.3799  0.2247  3.1448
  994SOL  OW    2980   2.459   1.046   2.799  0.2159  0.0472 -0.6787
  994SOL  HW1   2981   2.445   1.143   2.766 -0.7149 -0.5970 -0.3870
  994SOL  HW2   2982   2.401   1.019   2.880  2.5506 -0.5955  4.2236
  995SOL  OW    2983   0.986   1.067   3.084 -0.2500  0.7062  0.1422
  995SOL  HW1   2984   1.034   1.152   0.023 -1.3882  0.6071 -1.0094
  995SOL  HW2   2985   1.039   0.988   0.023 -0.1639  1.4601 -3.1063
  996SOL  OW    2986   1.618   1.364   1.528 -0.0678  0.0926 -0.0354
  996SOL  HW1   2987   1.591   1.266   1.521  0.9615 -0.3722  0.4213
  996SOL  HW2   2988   1.710   1.376   1.495  1.3960  0.9839 -3.0342
  997SOL  OW    2989   1.392   0.640   1.518  0.0416  0.3154  0.5731
  997SOL  HW1   2990   1.422   0.586   1.599  0.7105  1.1500 -1.7370
  997SOL  HW2   2991   1.291   0.636   1.505 -0.3964  0.9856  1.2637
  998SOL  OW    2992   2.432   1.403   0.580  0.6248  0.8087 -0.4967
  998SOL  HW1   2993   2.445   1.403   0.684  0.5643 -0.2557 -0.5760
  998SOL  HW2   2994   2.358   1.341   0.548 -2.5535  3.3962 -0.1498
  999SOL  OW    2995   0.815   2.988   3.082  0.0980 -0.3202 -0.8225
  999SOL  HW1   2996   0.786   3.044   3.003 -1.1058 -2.4878  0.5339
  999SOL  HW2   2997   0.832   3.044   0.070  0.3580  1.1723  0.0197
 1000SOL  OW    2998   1.707   2.059   0.369 -0.3776  0.1262  0.0694
 1000SOL  HW1   2999   1.740   1.993   0.298  0.9017  2.5353  1.6469
 1000SOL  HW2   3000   1.610   2.094   0.356  0.8816 -1.3903 -2.3315
    3.095540047     3.095540047     3.095540047     0.000000000     0.000000000     0.000000000     0.000000000     0.000000000     0.000000000
