1000 SPC/Fw water molecules t= 254.00000 step= 254000
 3000
    1SOL     OW    1   2.704   2.497   0.903  0.3925  0.4995 -0.1349
    1SOL    HW1    2   2.784   2.445   0.873  0.9070 -0.2400  0.5747
    1SOL    HW2    3   2.638   2.500   0.829  1.1952  1.8716  1.4060
    2SOL     OW    4   1.752   1.991   1.131 -0.6365  0.2824  0.7864
    2SOL    HW1    5   1.676   2.039   1.085 -0.5896 -2.0808 -1.1059
    2SOL    HW2    6   1.717   1.957   1.220 -0.7084  2.6980 -0.2309
    3SOL     OW    7   1.214   2.534   2.795 -0.1645 -0.1223 -0.3306
    3SOL    HW1    8   1.225   2.632   2.817  3.2177 -2.4351 -1.2768
    3SOL    HW2    9   1.122   2.500   2.823  0.4363 -1.7400 -2.3694
    4SOL     OW   10   1.819   1.912   1.973  0.1952  0.1711  0.3948
    4SOL    HW1   11   1.891   1.854   2.020  2.3530  0.8754  1.3022
    4SOL    HW2   12   1.861   1.963   1.894 -1.9554  0.5358  3.0494
    5SOL     OW   13   1.461   1.158   1.452  0.3605 -0.7459 -0.3897
    5SOL    HW1   14   1.481   1.253   1.474  0.1898 -0.8249 -1.1640
    5SOL    HW2   15   1.536   1.128   1.388  0.7607  0.8784  1.2811
    6SOL     OW   16   2.364   0.051   0.218  0.0740  0.0952  0.5699
    6SOL    HW1   17   2.412   0.116   0.154 -1.6665  0.5919 -3.3714
    6SOL    HW2   18   2.279   0.023   0.171  0.9958  0.7198 -1.0217
    7SOL     OW   19   2.675   1.429   1.319  0.1547 -0.3996  0.0041
    7SOL    HW1   20   2.758   1.366   1.328  4.1959 -0.6127  0.3997
    7SOL    HW2   21   2.687   1.499   1.245 -0.4116  2.6331 -0.4162
    8SOL     OW   22   1.082   0.164   0.928 -0.4992  0.3937 -0.6663
    8SOL    HW1   23   1.054   0.066   0.946 -0.2062 -1.4391  0.6518
    8SOL    HW2   24   1.155   0.172   0.854  1.4728  0.8715 -0.0336
    9SOL     OW   25   1.439   0.218   2.478 -0.1484  0.2162 -0.3725
    9SOL    HW1   26   1.466   0.316   2.479  2.8853  2.7703  2.0181
    9SOL    HW2   27   1.520   0.155   2.505  0.6814 -3.3118 -2.1718
   10SOL     OW   28   0.684   2.084   0.566 -0.3331  0.0905 -0.3560
   10SOL    HW1   29   0.633   2.154   0.617  1.5453  2.7028  1.4164
   10SOL    HW2   30   0.688   1.996   0.613  0.6118  1.9071  1.4828
   11SOL     OW   31   1.502   1.313   0.275  0.2532  0.4411  0.0817
   11SOL    HW1   32   1.526   1.392   0.332 -0.1930  0.3250 -0.2137
   11SOL    HW2   33   1.433   1.346   0.206 -1.2831 -2.6217  0.8367
   12SOL     OW   34   2.886   0.000   1.814  0.0645 -0.6940 -0.2647
   12SOL    HW1   35   2.826   0.037   1.886  0.7988  0.8502  1.1830
   12SOL    HW2   36   2.837   0.012   1.723 -1.0626  2.6249  0.4000
   13SOL     OW   37   1.550   0.216   0.583 -0.5257  0.9251  0.0024
   13SOL    HW1   38   1.484   0.276   0.633  1.7476 -1.3053 -1.0721
   13SOL    HW2   39   1.585   0.129   0.633 -0.8974 -0.3853 -0.8959
   14SOL     OW   40   1.369   2.519   1.318  0.4257  0.0107  0.2827
   14SOL    HW1   41   1.361   2.590   1.394  0.3696  0.3100  2.4686
   14SOL    HW2   42   1.430   2.550   1.241  0.9225 -1.3920 -3.4949
   15SOL     OW   43   2.616   1.298   1.551 -0.5055 -0.3637 -0.0233
   15SOL    HW1   44   2.613   1.364   1.472 -0.5554  0.3438 -3.0612
   15SOL    HW2   45   2.706   1.298   1.595 -1.1993  0.6870 -1.3260
   16SOL     OW   46   1.985   2.497   0.369 -0.0780 -0.2177 -0.3331
   16SOL    HW1   47   1.902   2.521   0.316 -1.0822 -0.8000 -1.5120
   16SOL    HW2   48   2.059   2.563   0.351 -1.3604  0.0425 -1.1610
   17SOL     OW   49   0.885   0.173   1.398  0.3213  0.1407 -0.3189
   17SOL    HW1   50   0.877   0.263   1.348  1.5796 -0.0002  0.6937
   17SOL    HW2   51   0.809   0.113   1.366  0.4588 -1.0752 -1.9695
   18SOL     OW   52   1.611   0.734   2.695  0.3497 -0.6510  0.3414
   18SOL    HW1   53   1.669   0.737   2.780  0.8827 -2.1532  1.0810
   18SOL    HW2   54   1.627   0.811   2.637 -3.3451 -1.3578  1.9701
   19SOL     OW   55   1.822   1.958   0.014  0.6937  0.0840  0.0949
   19SOL    HW1   56   1.911   1.927   3.067  1.9658  0.9804  2.6094
   19SOL    HW2   57   1.788   2.042   3.056  0.1958  1.1490  1.3264
   20SOL     OW   58   2.240   2.065   1.689 -0.1199  0.2803  0.5054
   20SOL    HW1   59   2.344   2.071   1.690  2.3227  1.7066  1.4800
   20SOL    HW2   60   2.200   2.092   1.779  0.0403  0.9459  0.1395
   21SOL     OW   61   1.004   1.677   0.060 -0.4456 -0.0981  0.2229
   21SOL    HW1   62   1.006   1.601   0.129  0.9199  0.5583  0.7655
   21SOL    HW2   63   0.919   1.730   0.071  0.2178 -1.3675  3.4352
   22SOL     OW   64   2.083   2.916   1.420 -0.2579  0.3565 -0.1941
   22SOL    HW1   65   2.123   3.009   1.403 -0.5079  0.9708 -0.9306
   22SOL    HW2   66   2.054   2.921   1.515 -0.3816 -0.1109 -1.4350
   23SOL     OW   67   2.788   0.885   1.962 -0.2053 -0.3183 -0.2574
   23SOL    HW1   68   2.720   0.923   1.902  3.0499 -3.8592  1.7096
   23SOL    HW2   69   2.755   0.870   2.055  0.3196 -0.2650 -2.1528
   24SOL     OW   70   2.322   2.615   0.753  0.8600  0.1804  0.2606
   24SOL    HW1   71   2.228   2.576   0.772  0.7168  1.4316 -1.5523
   24SOL    HW2   72   2.356   2.665   0.835 -2.4663  0.9636  1.2873
   25SOL     OW   73   1.026   2.760   2.532  0.1450  0.7675 -0.2571
   25SOL    HW1   74   1.111   2.697   2.521 -0.7758 -3.2455 -1.9164
   25SOL    HW2   75   1.049   2.850   2.495 -0.4920 -0.9874  1.5665
   26SOL     OW   76   1.926   2.645   3.023 -0.2932 -0.0158 -0.5807
   26SOL    HW1   77   1.891   2.722   2.966  1.7970  1.2613  0.4123
   26SOL    HW2   78   1.851   2.602   3.078 -2.1265 -1.1426 -0.5421
   27SOL     OW   79   2.948   1.962   0.012 -1.3218 -0.4269 -0.2331
   27SOL    HW1   80   2.859   2.009   3.083 -0.0929 -1.7850 -0.1939
   27SOL    HW2   81   2.997   1.945   3.013 -1.9084 -0.5815  0.4741
   28SOL     OW   82   3.012   0.960   1.606 -0.1741  0.2864  0.6860
   28SOL    HW1   83   2.911   0.945   1.595 -2.0086  2.5973 -0.5864
   28SOL    HW2   84   3.046   1.031   1.538  1.8295 -0.6510  0.2147
   29SOL     OW   85   2.540   2.372   1.332 -0.5710  0.1213 -0.5150
   29SOL    HW1   86   2.514   2.453   1.385 -0.3310  0.0229  0.6410
   29SOL    HW2   87   2.639   2.381   1.308  0.0051 -0.2054 -0.7607
   30SOL     OW   88   1.619   0.616   0.123 -0.1921  0.4517  0.1356
   30SOL    HW1   89   1.529   0.571   0.105  1.4997  0.2687  1.3607
   30SOL    HW2   90   1.640   0.629   0.224 -0.3317 -1.1745  2.8512
   31SOL     OW   91   2.776   2.686   1.631 -0.2539 -0.0799  0.3201
   31SOL    HW1   92   2.730   2.712   1.548  3.7967  0.8856 -0.1394
   31SOL    HW2   93   2.822   2.599   1.615  0.6841  0.1983  0.2527
   32SOL     OW   94   0.703   1.775   1.337 -0.0728  0.0855  0.4077
   32SOL    HW1   95   0.772   1.842   1.306 -0.5984 -0.5983  0.4228
   32SOL    HW2   96   0.613   1.820   1.332 -1.1925  1.3920 -3.0595
   33SOL     OW   97   0.530   2.634   2.285  0.4968 -0.5114  0.0086
   33SOL    HW1   98   0.564   2.580   2.365 -0.2667  0.2052 -1.2226
   33SOL    HW2   99   0.498   2.726   2.319  0.7565  0.2086  2.2252
   34SOL     OW  100   1.494   0.003   0.848  0.0502  0.1172  0.3191
   34SOL    HW1  101   1.548   3.080   0.933 -2.0015  0.2910  1.3746
   34SOL    HW2  102   1.547   3.073   0.761  1.0123 -2.8839 -2.1717
   35SOL     OW  103   2.179   3.051   1.141  0.0568  0.0414  0.0826
   35SOL    HW1  104   2.080   3.055   1.140  0.8200 -0.0015 -0.7695
   35SOL    HW2  105   2.206   3.085   1.234 -0.8682 -0.1453  2.0869
   36SOL     OW  106   1.791   2.818   2.303 -0.0338 -0.6302 -0.3460
   36SOL    HW1  107   1.701   2.816   2.347  3.2838 -1.6744 -1.4211
   36SOL    HW2  108   1.848   2.745   2.348  1.7809 -1.1660  0.7748
   37SOL     OW  109   0.695   3.038   2.345 -0.0427 -0.3162  0.1333
   37SOL    HW1  110   0.711   3.009   2.246 -1.1814 -0.5765  0.4808
   37SOL    HW2  111   0.730   2.970   2.411 -2.2569  0.0718  0.7743
   38SOL     OW  112   0.102   2.541   2.543 -0.1250  0.6382 -0.1156
   38SOL    HW1  113   0.192   2.542   2.589 -1.9123  0.6028  0.8924
   38SOL    HW2  114   0.116   2.503   2.449 -2.1382  2.4521 -1.5264
   39SOL     OW  115   2.231   1.178   2.031  0.2693  0.1405  0.3844
   39SOL    HW1  116   2.178   1.096   2.010  0.6451  0.4749  1.5326
   39SOL    HW2  117   2.174   1.251   2.072  0.9592 -0.1957 -2.8607
   40SOL     OW  118   0.780   2.959   3.036  0.1110 -0.1378  0.3917
   40SOL    HW1  119   0.876   2.935   3.007  1.5938 -2.2536 -0.3994
   40SOL    HW2  120   0.779   3.037   0.010 -0.1797  3.0476 -0.6510
   41SOL     OW  121   2.218   1.024   1.072  0.4466  0.0666 -0.3038
   41SOL    HW1  122   2.292   1.044   1.137  1.3979 -0.7317 -0.0462
   41SOL    HW2  123   2.222   1.077   0.989 -0.8887 -3.0337  2.9476
   42SOL     OW  124   0.574   0.686   1.190 -0.3147  0.0041 -0.2221
   42SOL    HW1  125   0.639   0.676   1.108 -0.6315  3.5178 -3.1369
   42SOL    HW2  126   0.490   0.739   1.166 -0.6886  1.2028  0.3702
   43SOL     OW  127   2.107   1.546   2.724 -0.4363 -0.5501 -0.8466
   43SOL    HW1  128   2.040   1.481   2.756  0.0586  2.5848 -2.0456
   43SOL    HW2  129   2.153   1.523   2.636 -2.3614 -0.1821 -1.9908
   44SOL     OW  130   0.090   2.791   0.925  0.2782 -0.6055 -0.4309
   44SOL    HW1  131   0.166   2.724   0.912  1.4376 -0.8710  0.9138
   44SOL    HW2  132   0.128   2.879   0.893 -0.5094  3.4401  0.2219
   45SOL     OW  133   0.134   2.517   1.107 -0.4015  0.3628 -0.7590
   45SOL    HW1  134   0.204   2.589   1.095  2.0055  0.1904 -0.3972
   45SOL    HW2  135   0.066   2.523   1.035  0.9409 -1.3339 -1.2239
   46SOL     OW  136   2.198   2.773   2.531  0.0482 -0.4481 -0.2038
   46SOL    HW1  137   2.211   2.736   2.435  0.3419 -2.9996 -2.7827
   46SOL    HW2  138   2.289   2.797   2.570  0.5036  1.3416 -0.1703
   47SOL     OW  139   1.973   1.921   0.992 -0.0907 -0.1160 -0.3711
   47SOL    HW1  140   1.980   1.819   0.997 -0.6894 -0.2550  2.8599
   47SOL    HW2  141   1.886   1.946   1.042 -1.1005  3.0300 -0.0092
   48SOL     OW  142   0.683   1.713   0.395 -0.0190 -0.3717  0.7144
   48SOL    HW1  143   0.706   1.807   0.361 -1.5196 -0.3238 -0.6802
   48SOL    HW2  144   0.599   1.679   0.342 -2.2858 -0.0160 -1.1506
   49SOL     OW  145   2.884   0.127   2.631 -0.0115 -0.2630 -0.3199
   49SOL    HW1  146   2.981   0.120   2.668  2.8688 -0.3399  4.1593
   49SOL    HW2  147   2.862   0.069   2.549  1.1897 -0.5557 -2.8888
   50SOL     OW  148   2.049   0.714   0.457 -0.1067 -0.1105  0.0252
   50SOL    HW1  149   2.015   0.802   0.419  0.3006 -0.4613 -1.2962
   50SOL    HW2  150   1.967   0.658   0.487 -1.7718 -1.5888 -2.2879
   51SOL     OW  151   2.374   0.790   0.962 -0.4901  0.1177 -0.6882
   51SOL    HW1  152   2.369   0.874   1.015 -0.2702 -0.4871  1.4444
   51SOL    HW2  153   2.303   0.784   0.888  1.7292 -3.4640  2.1071
   52SOL     OW  154   1.337   1.510   2.193  0.0433  0.1029  0.1797
   52SOL    HW1  155   1.406   1.461   2.131  0.6098 -3.5987 -1.2367
   52SOL    HW2  156   1.246   1.470   2.192 -1.0951  2.9400 -1.2592
   53SOL     OW  157   0.655   1.912   2.085  0.2906 -0.1143 -0.2643
   53SOL    HW1  158   0.721   1.852   2.038 -1.7456 -1.5538  3.5773
   53SOL    HW2  159   0.711   1.995   2.109 -2.0550  1.1842 -0.4509
   54SOL     OW  160   2.186   0.328   1.119 -0.5694 -0.0065 -0.0126
   54SOL    HW1  161   2.106   0.264   1.102 -1.0028 -2.0546 -1.4271
   54SOL    HW2  162   2.184   0.404   1.051  0.6984 -0.6950  0.2707
   55SOL     OW  163   2.550   2.175   0.855  0.2641 -0.8631  0.2877
   55SOL    HW1  164   2.625   2.129   0.910  0.9196 -0.2252  0.0750
   55SOL    HW2  165   2.466   2.116   0.867 -0.1979  1.3275 -0.5773
   56SOL     OW  166   0.978   3.009   1.775  0.0341  0.2898 -0.1393
   56SOL    HW1  167   0.942   0.007   1.813 -1.9801  1.3088  0.1133
   56SOL    HW2  168   1.078   3.002   1.786 -0.4945  1.3705  0.5156
   57SOL     OW  169   1.665   1.617   0.221 -0.1922  0.0112  0.5794
   57SOL    HW1  170   1.585   1.595   0.279  1.1666 -0.8417 -0.2244
   57SOL    HW2  171   1.637   1.679   0.145 -0.1084 -1.2479 -0.7589
   58SOL     OW  172   0.123   0.839   2.392  0.3566 -0.1771 -0.4691
   58SOL    HW1  173   0.205   0.889   2.429  1.0101 -1.4701 -0.5141
   58SOL    HW2  174   0.107   0.867   2.293 -1.0265  0.5747 -1.8655
   59SOL     OW  175   0.778   2.884   2.568 -0.5399  0.2235  0.0917
   59SOL    HW1  176   0.805   2.939   2.646  0.7249  2.1756 -1.0684
   59SOL    HW2  177   0.849   2.823   2.532  0.9937  0.9815 -1.0862
   60SOL     OW  178   2.508   2.183   0.371 -0.2527  0.1344  0.2138
   60SOL    HW1  179   2.575   2.227   0.310  2.2535  0.5105  2.4092
   60SOL    HW2  180   2.551   2.159   0.462 -4.8210 -1.0629  4.2017
   61SOL     OW  181   1.357   2.047   0.498  0.2429 -0.3089  0.9209
   61SOL    HW1  182   1.438   2.102   0.476 -2.1022 -3.1166 -1.8743
   61SOL    HW2  183   1.267   2.099   0.514 -0.3742 -1.1297 -0.1557
   62SOL     OW  184   1.959   2.164   2.481 -0.0384  0.3320 -0.0895
   62SOL    HW1  185   2.002   2.074   2.494 -0.1509  1.2376  1.1911
   62SOL    HW2  186   1.937   2.169   2.383  0.6309 -0.2930  1.2819
   63SOL     OW  187   2.162   2.694   0.057 -0.1810  0.3239 -0.3424
   63SOL    HW1  188   2.075   2.668   0.015  3.2769  3.5806  0.1265
   63SOL    HW2  189   2.205   2.765   3.089  0.7174  0.5460  2.3639
   64SOL     OW  190   1.573   1.115   2.347  0.2815 -0.4342 -0.0418
   64SOL    HW1  191   1.643   1.141   2.278  0.2007 -0.6639 -1.0397
   64SOL    HW2  192   1.611   1.084   2.433 -1.2724  1.8929 -1.2047
   65SOL     OW  193   1.283   2.297   2.869 -0.3590 -0.2776  0.2587
   65SOL    HW1  194   1.337   2.253   2.799 -0.9308  0.0299  3.8298
   65SOL    HW2  195   1.263   2.396   2.844 -0.4843 -1.9418  0.1114
   66SOL     OW  196   0.232   1.354   2.037  0.0170  0.7945 -0.0816
   66SOL    HW1  197   0.290   1.325   2.113 -2.5734 -1.9319 -0.9479
   66SOL    HW2  198   0.180   1.276   2.001  5.3986  2.0632  2.0419
   67SOL     OW  199   2.810   2.670   2.842 -0.3469 -0.1087 -0.6421
   67SOL    HW1  200   2.721   2.627   2.820 -0.5449  0.8812 -0.9443
   67SOL    HW2  201   2.842   2.727   2.766 -0.1045  0.2833 -2.7579
   68SOL     OW  202   1.005   2.518   1.381  0.0424 -0.0088 -0.3038
   68SOL    HW1  203   1.074   2.575   1.328  1.3913  1.8215 -0.4955
   68SOL    HW2  204   1.024   2.510   1.483 -1.6775 -3.1485  2.9905
   69SOL     OW  205   0.763   2.310   0.423  1.3364  0.1800 -0.0991
   69SOL    HW1  206   0.789   2.384   0.485 -1.6026  1.2119 -1.1908
   69SOL    HW2  207   0.770   2.221   0.474  3.2724 -2.5589  0.7042
   70SOL     OW  208   2.813   0.852   2.520  0.1319  0.2738  0.7214
   70SOL    HW1  209   2.908   0.851   2.552  1.8429 -0.5142  0.8326
   70SOL    HW2  210   2.776   0.754   2.520  0.5265 -1.2429 -0.8244
   71SOL     OW  211   0.581   1.142   2.485 -0.4304 -0.3139 -0.4000
   71SOL    HW1  212   0.535   1.095   2.408  0.9151  0.4597  1.3195
   71SOL    HW2  213   0.521   1.209   2.538  1.1529  0.6088 -0.4741
   72SOL     OW  214   0.270   1.946   0.694 -0.2672  0.0173  0.0668
   72SOL    HW1  215   0.307   1.875   0.634 -1.9188 -1.9826 -0.1837
   72SOL    HW2  216   0.173   1.939   0.680  0.0544  0.4800 -1.7385
   73SOL     OW  217   1.051   1.473   0.239 -0.2207 -0.7159 -0.0330
   73SOL    HW1  218   0.972   1.414   0.264 -0.6464 -1.3321 -0.2237
   73SOL    HW2  219   1.116   1.495   0.317  2.2158 -0.5659  1.4401
   74SOL     OW  220   2.548   2.945   0.240  0.3535 -0.1468  0.0478
   74SOL    HW1  221   2.498   2.860   0.227 -0.4630  0.3829  1.9116
   74SOL    HW2  222   2.483   3.022   0.223  1.3296 -0.9486  0.6681
   75SOL     OW  223   2.346   1.583   2.175 -0.0992  0.1776 -0.4037
   75SOL    HW1  224   2.262   1.529   2.150 -1.2188  2.5421 -1.9358
   75SOL    HW2  225   2.384   1.622   2.088 -1.2105 -0.9295 -3.9703
   76SOL     OW  226   1.899   2.427   1.765 -0.1773  0.2394 -0.1001
   76SOL    HW1  227   1.919   2.512   1.818  2.6687 -2.4670 -0.0301
   76SOL    HW2  228   1.950   2.451   1.682 -0.4840  2.2932  1.8364
   77SOL     OW  229   2.615   0.262   1.698 -0.1560  0.3014  0.0715
   77SOL    HW1  230   2.563   0.282   1.782 -0.7275  2.1650  0.9110
   77SOL    HW2  231   2.683   0.338   1.686  1.6252  1.2945  0.8884
   78SOL     OW  232   1.932   0.906   2.728 -0.3274 -0.1173 -0.4505
   78SOL    HW1  233   1.935   0.809   2.764 -1.7459 -3.6775 -1.9971
   78SOL    HW2  234   1.914   0.973   2.807 -1.9088  1.0664  1.1277
   79SOL     OW  235   0.055   1.607   2.156 -0.1531 -0.1675 -0.0535
   79SOL    HW1  236   0.087   1.518   2.192 -1.3280  2.8779 -0.8912
   79SOL    HW2  237   0.021   1.599   2.060  0.9211 -0.3864  0.6027
   80SOL     OW  238   1.899   0.971   1.260 -0.0014  0.3441 -0.7174
   80SOL    HW1  239   1.932   0.951   1.170  0.9364  1.9417  2.9922
   80SOL    HW2  240   1.952   0.928   1.340  1.8096 -0.9526  0.2952
   81SOL     OW  241   1.385   0.621   1.776  0.4506  0.1879 -0.5808
   81SOL    HW1  242   1.363   0.659   1.683 -0.8166 -0.5893  0.1745
   81SOL    HW2  243   1.481   0.591   1.778 -0.1912  0.9883 -0.6777
   82SOL     OW  244   1.478   2.463   1.662 -0.3700 -0.0574  0.0263
   82SOL    HW1  245   1.450   2.561   1.654  0.0601  0.5356  2.3531
   82SOL    HW2  246   1.528   2.433   1.746 -0.9984  0.1906  3.5198
   83SOL     OW  247   0.389   3.085   0.657 -0.1724  0.2546 -0.6028
   83SOL    HW1  248   0.412   3.013   0.587 -0.3654 -0.1485  0.2536
   83SOL    HW2  249   0.432   3.067   0.748  2.5155  0.3494 -2.5255
   84SOL     OW  250   0.122   0.986   2.805 -0.0907 -0.3842  0.1720
   84SOL    HW1  251   0.223   0.970   2.817 -3.2394 -0.3669 -1.1694
   84SOL    HW2  252   0.081   1.045   2.877 -0.5318 -0.3249 -1.7871
   85SOL     OW  253   2.852   2.132   1.825  0.2589  0.0963  0.2324
   85SOL    HW1  254   2.883   2.034   1.807  1.8300 -2.4731  0.9510
   85SOL    HW2  255   2.850   2.182   1.739 -1.3264  0.5060  1.1348
   86SOL     OW  256   2.849   2.291   1.553 -0.0537 -0.5213 -0.3074
   86SOL    HW1  257   2.926   2.229   1.522 -0.3772 -2.8928  0.5767
   86SOL    HW2  258   2.818   2.366   1.492 -0.2063 -1.6521 -0.1198
   87SOL     OW  259   0.416   3.015   2.985 -0.7141 -0.4212 -0.3673
   87SOL    HW1  260   0.473   2.930   2.980 -0.6052  0.1209  0.1670
   87SOL    HW2  261   0.473   0.001   3.032  1.5246  1.1470  1.3636
   88SOL     OW  262   0.191   1.939   0.985  0.3885 -0.4273  0.0372
   88SOL    HW1  263   0.139   2.012   0.936  0.9233  3.2067  0.6879
   88SOL    HW2  264   0.290   1.958   0.988 -1.2384  2.0422  0.6168
   89SOL     OW  265   0.951   0.769   1.600  0.0546 -0.1368  0.5551
   89SOL    HW1  266   1.011   0.804   1.520  2.6218  0.0449 -1.6810
   89SOL    HW2  267   0.964   0.669   1.602  1.8572  3.6037  1.1052
   90SOL     OW  268   2.570   1.578   1.763 -0.2395  0.3148  0.3199
   90SOL    HW1  269   2.621   1.486   1.770  0.7703 -1.2708  0.5976
   90SOL    HW2  270   2.508   1.562   1.687  1.2770 -2.3776  1.8904
   91SOL     OW  271   1.405   1.598   0.842 -0.4950 -0.5982  0.2842
   91SOL    HW1  272   1.341   1.672   0.805 -1.5339 -1.0280 -0.2931
   91SOL    HW2  273   1.357   1.510   0.846  0.4693 -0.6846  0.0275
   92SOL     OW  274   2.129   0.585   0.987  0.1912  0.5316  0.4650
   92SOL    HW1  275   2.164   0.623   0.903 -1.1993 -1.3890 -0.4314
   92SOL    HW2  276   2.201   0.600   1.062  1.2418  2.2172  2.2072
   93SOL     OW  277   2.085   1.370   0.028 -0.4156 -0.3029 -0.3526
   93SOL    HW1  278   2.073   1.282   0.082  0.6041 -0.8448 -2.5828
   93SOL    HW2  279   2.067   1.453   0.085  2.2483 -0.9491 -1.7428
   94SOL     OW  280   2.393   2.058   2.213  0.0543  0.3373  0.1266
   94SOL    HW1  281   2.468   2.100   2.265  0.6621 -2.9947 -1.2154
   94SOL    HW2  282   2.426   1.991   2.142 -1.5958  2.2494 -1.4533
   95SOL     OW  283   1.993   0.395   0.809  0.1270 -0.5720  0.1492
   95SOL    HW1  284   2.012   0.477   0.867 -0.8716  0.7626  0.5658
   95SOL    HW2  285   2.080   0.356   0.778  1.6906 -0.2696  2.7283
   96SOL     OW  286   2.903   2.919   1.361 -0.2026 -0.0364 -0.2214
   96SOL    HW1  287   2.814   2.872   1.375  2.1902 -0.6342 -1.9862
   96SOL    HW2  288   2.890   3.019   1.348 -0.4948 -0.3917 -0.5143
   97SOL     OW  289   2.487   0.253   1.021 -0.2074  0.1210  0.0319
   97SOL    HW1  290   2.490   0.345   0.975 -1.2760  0.1258 -0.1502
   97SOL    HW2  291   2.408   0.204   0.978 -1.1177 -0.0928 -0.7404
   98SOL     OW  292   1.686   2.428   1.482 -0.0822 -0.4263  0.4728
   98SOL    HW1  293   1.710   2.515   1.435  1.7300  2.6630  2.1926
   98SOL    HW2  294   1.599   2.448   1.542 -1.2485  1.2186  3.0459
   99SOL     OW  295   2.556   2.628   1.777 -0.0401 -0.3655 -0.1744
   99SOL    HW1  296   2.578   2.685   1.858 -0.6014 -0.8946 -0.9458
   99SOL    HW2  297   2.632   2.642   1.713 -0.2561  0.0726 -0.2820
  100SOL     OW  298   0.373   0.868   2.835 -0.0453  0.2407 -0.1572
  100SOL    HW1  299   0.454   0.900   2.883 -2.5249 -2.2617 -1.6389
  100SOL    HW2  300   0.393   0.779   2.789 -0.8499  0.5131  1.0639
  101SOL     OW  301   1.921   0.590   3.068 -0.3672  0.6107 -0.0196
  101SOL    HW1  302   1.945   0.635   2.980 -0.2084  0.7289  1.8142
  101SOL    HW2  303   1.996   0.587   0.044 -0.7864  1.6079 -0.0108
  102SOL     OW  304   0.129   0.597   1.700 -0.1376  0.8867 -0.1574
  102SOL    HW1  305   0.113   0.605   1.803  1.3293 -0.5415  3.5125
  102SOL    HW2  306   0.161   0.503   1.668 -0.5934 -0.0319 -0.9980
  103SOL     OW  307   2.764   1.034   2.304  0.0173 -0.1223 -0.4219
  103SOL    HW1  308   2.712   1.124   2.313 -0.4674 -0.1676 -1.0424
  103SOL    HW2  309   2.801   1.005   2.389 -0.3082  1.1309 -2.8848
  104SOL     OW  310   0.364   0.332   2.478  0.5470  0.4425  0.2829
  104SOL    HW1  311   0.445   0.341   2.538  0.3989  1.9623  0.2526
  104SOL    HW2  312   0.281   0.374   2.521 -0.7681  1.2462 -0.5799
  105SOL     OW  313   1.920   1.540   1.346 -0.3473  0.0728 -0.0829
  105SOL    HW1  314   1.889   1.478   1.266  1.9661  0.9503 -1.7109
  105SOL    HW2  315   1.847   1.586   1.397 -1.9392  0.3528  2.1806
  106SOL     OW  316   2.171   0.311   0.466  0.5084 -0.3188  0.0625
  106SOL    HW1  317   2.171   0.218   0.432 -2.8195  1.8637 -0.5311
  106SOL    HW2  318   2.182   0.314   0.567  0.5421 -0.3092 -0.7173
  107SOL     OW  319   0.018   1.480   1.361 -0.7270  0.4160  0.2249
  107SOL    HW1  320   0.113   1.510   1.327  4.7546  0.3572 -2.0414
  107SOL    HW2  321   3.037   1.547   1.346  2.3747 -1.5430 -2.6339
  108SOL     OW  322   2.972   2.511   2.004  1.2705  0.4002  0.0466
  108SOL    HW1  323   3.024   2.444   1.950 -1.3026  2.6822 -0.9964
  108SOL    HW2  324   2.924   2.573   1.937  1.4474  0.1350  0.2869
  109SOL     OW  325   1.871   0.144   0.805 -0.1320 -0.7240  0.0705
  109SOL    HW1  326   1.927   0.230   0.814 -1.2541  2.5790  1.7735
  109SOL    HW2  327   1.905   0.076   0.739  0.4406  1.9905  0.0383
  110SOL     OW  328   0.397   2.119   2.364 -0.6807 -0.3683 -0.3627
  110SOL    HW1  329   0.355   2.184   2.432 -0.7256  2.9283  0.6275
  110SOL    HW2  330   0.370   2.025   2.388  0.4212  2.3301  3.0010
  111SOL     OW  331   1.647   2.421   1.894  0.2086 -0.2762  0.4348
  111SOL    HW1  332   1.739   2.395   1.854  3.5458  0.6588 -1.2390
  111SOL    HW2  333   1.637   2.400   1.991  2.1257 -1.9752 -1.2717
  112SOL     OW  334   1.488   2.659   3.084 -0.0038  0.5508 -0.4071
  112SOL    HW1  335   1.402   2.633   0.034  0.0916  0.9458 -0.4900
  112SOL    HW2  336   1.496   2.646   2.983  2.3918  0.0387 -0.4596
  113SOL     OW  337   2.013   2.517   1.521  0.0349 -0.1662  0.0788
  113SOL    HW1  338   1.988   2.431   1.476 -0.8803 -0.0017  1.0335
  113SOL    HW2  339   2.025   2.589   1.449 -1.5068  0.0117 -1.6980
  114SOL     OW  340   2.936   1.116   0.664  0.5070  0.0916 -0.4920
  114SOL    HW1  341   2.868   1.078   0.735  0.3094 -1.1106  0.4230
  114SOL    HW2  342   3.024   1.145   0.698 -2.9686  0.2685 -1.6015
  115SOL     OW  343   0.553   0.996   2.999 -0.3028  0.4412  0.0734
  115SOL    HW1  344   0.503   1.080   2.983  0.4577  0.1045  1.1215
  115SOL    HW2  345   0.560   0.982   0.008  2.0835 -0.1228  0.4140
  116SOL     OW  346   2.815   1.622   2.250  0.1376 -0.0344  0.1060
  116SOL    HW1  347   2.835   1.552   2.180 -2.2683  2.2763 -0.2537
  116SOL    HW2  348   2.882   1.640   2.323 -1.8347  1.2545 -0.0291
  117SOL     OW  349   2.689   2.949   0.633  0.2404  0.0692  0.0422
  117SOL    HW1  350   2.734   2.937   0.542  0.2427 -2.0034  0.4169
  117SOL    HW2  351   2.751   3.009   0.689 -0.7067 -0.3277  2.5081
  118SOL     OW  352   1.033   2.187   1.681  0.0706 -0.2368  0.5440
  118SOL    HW1  353   1.066   2.202   1.775  0.4887  0.7011  1.9709
  118SOL    HW2  354   1.100   2.226   1.616  2.6894  1.1284  0.2890
  119SOL     OW  355   0.574   2.201   2.790  0.3285  0.2752  0.4424
  119SOL    HW1  356   0.613   2.234   2.882 -0.1055 -1.1962  2.2858
  119SOL    HW2  357   0.482   2.237   2.775  0.6557 -0.3555  0.6939
  120SOL     OW  358   0.764   0.813   2.964  0.0190 -0.1344  0.6467
  120SOL    HW1  359   0.752   0.734   2.900 -0.0340 -0.0736 -1.0707
  120SOL    HW2  360   0.690   0.881   2.952 -2.1949  1.3385  1.5073
  121SOL     OW  361   1.570   2.782   1.052 -0.2303 -0.1792  0.1162
  121SOL    HW1  362   1.607   2.686   1.084  1.3471 -0.0052 -0.0992
  121SOL    HW2  363   1.541   2.780   0.954 -0.5131 -0.3761 -1.1991
  122SOL     OW  364   2.281   2.432   1.553  0.1528 -0.4760  0.2148
  122SOL    HW1  365   2.219   2.503   1.594  0.1009 -1.5132  2.2540
  122SOL    HW2  366   2.229   2.348   1.523 -0.1150 -0.4740 -0.5892
  123SOL     OW  367   0.376   2.800   0.892  0.2146 -0.3994  0.5268
  123SOL    HW1  368   0.407   2.896   0.900  2.3256  0.2472  2.0814
  123SOL    HW2  369   0.397   2.769   0.795  0.7594  1.0130 -3.6004
  124SOL     OW  370   2.131   1.214   2.889  0.1571 -0.0130 -0.4177
  124SOL    HW1  371   2.211   1.244   2.834  0.9568 -1.5373  2.6573
  124SOL    HW2  372   2.117   1.275   2.973  2.5221  0.0635  0.0584
  125SOL     OW  373   0.763   0.915   0.497  0.2472  0.1957  0.1264
  125SOL    HW1  374   0.742   0.974   0.574 -0.8756 -2.7354 -3.5784
  125SOL    HW2  375   0.830   0.963   0.433 -1.9330 -0.1800 -0.1260
  126SOL     OW  376   2.558   1.361   0.732  0.2102  0.3654 -0.0731
  126SOL    HW1  377   2.653   1.349   0.698  0.8199  1.8102 -1.0619
  126SOL    HW2  378   2.533   1.278   0.791  3.3313  0.2565  0.0537
  127SOL     OW  379   0.049   1.860   1.844 -0.2633  0.0834  0.0160
  127SOL    HW1  380   0.147   1.884   1.831 -1.2916  0.4295  0.6114
  127SOL    HW2  381   0.030   1.871   1.945  0.0309  1.4397  0.7752
  128SOL     OW  382   1.247   1.100   0.095 -0.8196  0.2673  0.1320
  128SOL    HW1  383   1.257   1.056   0.187 -0.8962 -1.9617 -2.8284
  128SOL    HW2  384   1.291   1.195   0.094  0.3927  1.3966 -0.0652
  129SOL     OW  385   2.682   0.972   0.811 -0.0216 -0.3184 -0.0560
  129SOL    HW1  386   2.606   1.029   0.850 -0.6219 -1.1468 -1.8100
  129SOL    HW2  387   2.655   0.943   0.712 -0.0770  0.0136 -0.7888
  130SOL     OW  388   2.463   0.785   1.347  0.1469 -0.6172 -0.0368
  130SOL    HW1  389   2.562   0.771   1.381  1.3341 -2.5252 -0.6625
  130SOL    HW2  390   2.454   0.865   1.284  1.2189 -0.5277 -0.1641
  131SOL     OW  391   2.900   2.776   3.081  0.0233 -0.3118 -0.2608
  131SOL    HW1  392   2.889   2.723   2.997 -1.4211  0.9614  2.2414
  131SOL    HW2  393   2.999   2.796   0.011  0.4498  1.2947 -0.5250
  132SOL     OW  394   3.016   1.989   1.626  0.5641  0.6178 -0.0674
  132SOL    HW1  395   3.082   2.063   1.614  1.0858 -0.2574  0.9012
  132SOL    HW2  396   3.042   1.935   1.709  1.6102 -2.3874 -1.5699
  133SOL     OW  397   1.218   0.368   1.363 -0.0616 -0.5287 -0.0390
  133SOL    HW1  398   1.299   0.367   1.422  0.2590  0.9229 -1.4623
  133SOL    HW2  399   1.127   0.345   1.404  1.2873 -0.0613  0.1938
  134SOL     OW  400   3.078   1.404   0.261 -0.1423  0.2136 -0.0574
  134SOL    HW1  401   2.983   1.376   0.258  0.6561 -0.7963  0.8949
  134SOL    HW2  402   0.006   1.463   0.176  0.2321 -0.1183 -1.5999
  135SOL     OW  403   2.405   1.176   1.625 -0.1817 -0.2656 -0.5225
  135SOL    HW1  404   2.499   1.199   1.586  0.5432  1.4557  1.6839
  135SOL    HW2  405   2.421   1.144   1.719 -1.5879 -0.4896 -1.0009
  136SOL     OW  406   0.163   0.937   0.568 -0.2458  0.3277 -0.2694
  136SOL    HW1  407   0.154   0.970   0.663 -0.9854 -0.4161  2.5006
  136SOL    HW2  408   0.162   1.019   0.509 -0.9493 -0.9514  1.2730
  137SOL     OW  409   2.834   1.214   1.392 -0.5631 -0.0379  0.1631
  137SOL    HW1  410   2.818   1.154   1.309  0.8664 -2.2688 -3.1619
  137SOL    HW2  411   2.931   1.227   1.425  1.1979  0.8141  1.8674
  138SOL     OW  412   1.641   1.076   1.251 -0.1886  0.3354 -0.3358
  138SOL    HW1  413   1.574   0.995   1.248  1.1004 -1.3206 -2.0347
  138SOL    HW2  414   1.742   1.049   1.261  0.8965  0.0832  2.2446
  139SOL     OW  415   1.786   3.081   0.167 -0.9558 -0.3564  0.6617
  139SOL    HW1  416   1.802   3.032   0.251  1.5270  1.6792 -1.2645
  139SOL    HW2  417   1.776   0.089   0.177  0.9621 -1.5272  2.1612
  140SOL     OW  418   1.594   2.030   1.653 -0.4665  0.4943 -0.3048
  140SOL    HW1  419   1.688   2.042   1.688  0.8352  1.4141 -0.6403
  140SOL    HW2  420   1.551   1.941   1.690 -0.5989 -1.3827  0.2758
  141SOL     OW  421   1.767   2.230   0.613 -0.1733 -0.0107 -0.1015
  141SOL    HW1  422   1.780   2.229   0.509  1.7322 -0.3361 -2.1572
  141SOL    HW2  423   1.826   2.158   0.648  0.3457 -3.4252  0.4077
  142SOL     OW  424   0.501   0.921   0.166 -0.3083 -0.2138  0.1203
  142SOL    HW1  425   0.574   0.926   0.236  1.7287 -1.7463  4.4900
  142SOL    HW2  426   0.457   0.825   0.163 -0.1712 -3.4369 -0.0208
  143SOL     OW  427   0.250   2.265   2.825  0.1953 -0.4993  0.0429
  143SOL    HW1  428   0.266   2.361   2.866  0.7748 -0.0693  0.4632
  143SOL    HW2  429   0.155   2.228   2.833  3.4165 -2.3515  0.5973
  144SOL     OW  430   1.372   0.098   1.563 -0.3953 -0.0153 -0.2670
  144SOL    HW1  431   1.281   0.095   1.516 -0.2089  0.6622 -0.8611
  144SOL    HW2  432   1.402   0.197   1.557  2.6311  0.0866  0.2647
  145SOL     OW  433   2.366   1.418   0.527  0.3169  0.0613  0.1180
  145SOL    HW1  434   2.386   1.447   0.430  0.5343  0.5682 -0.7566
  145SOL    HW2  435   2.446   1.408   0.586  0.1821 -0.4868 -2.8189
  146SOL     OW  436   2.653   2.107   0.118  0.1361  0.1025 -0.3195
  146SOL    HW1  437   2.608   2.051   0.048  0.6033  4.7959 -0.8296
  146SOL    HW2  438   2.652   2.208   0.104 -0.1768  1.2283  2.0661
  147SOL     OW  439   2.348   2.820   1.398 -0.2113 -0.0747  0.4660
  147SOL    HW1  440   2.262   2.866   1.415  1.0918 -2.0581  1.0049
  147SOL    HW2  441   2.387   2.871   1.317 -1.9683 -0.7047 -0.8915
  148SOL     OW  442   1.342   2.804   1.885 -0.3199 -0.0336  0.6324
  148SOL    HW1  443   1.440   2.772   1.899  0.5958  1.1476  0.9813
  148SOL    HW2  444   1.280   2.734   1.918  1.4434  3.3785  2.0598
  149SOL     OW  445   1.501   0.506   2.434 -0.3288  0.3053  0.0270
  149SOL    HW1  446   1.558   0.580   2.396 -1.3399 -1.5471 -0.3030
  149SOL    HW2  447   1.490   0.500   2.536  0.6785  0.1255  0.9963
  150SOL     OW  448   0.589   2.910   0.463  0.5444  0.7410  0.1788
  150SOL    HW1  449   0.675   2.872   0.421  0.9596  0.9687 -0.5580
  150SOL    HW2  450   0.511   2.899   0.403  0.8793  1.8999  1.6609
  151SOL     OW  451   3.083   1.545   0.024  0.0500 -0.5747 -0.2452
  151SOL    HW1  452   2.992   1.571   0.059  2.1317  1.3785  2.7079
  151SOL    HW2  453   3.071   1.549   3.016  0.9210 -1.1338  1.2397
  152SOL     OW  454   0.044   0.161   0.417 -1.5754 -0.0516  0.0281
  152SOL    HW1  455   0.027   0.087   0.353  0.7275 -0.8786 -2.0201
  152SOL    HW2  456   0.132   0.208   0.387  2.6173 -1.4526 -0.3659
  153SOL     OW  457   2.307   0.084   0.935  0.1867 -0.1728  0.4839
  153SOL    HW1  458   2.286   0.039   1.025 -1.2881  3.2852 -1.6362
  153SOL    HW2  459   2.326   0.015   0.862  0.5100  1.3374  0.0446
  154SOL     OW  460   1.048   0.255   1.751 -0.6822  0.0603 -0.1253
  154SOL    HW1  461   0.996   0.200   1.821 -0.6365 -0.1820 -0.1237
  154SOL    HW2  462   1.128   0.307   1.789 -1.5452  0.8455  1.1153
  155SOL     OW  463   2.800   1.097   1.164 -0.3938  0.2848  0.0242
  155SOL    HW1  464   2.819   0.997   1.147  0.9131 -2.6765  0.8055
  155SOL    HW2  465   2.879   1.141   1.127 -0.2786 -1.1345  1.0031
  156SOL     OW  466   2.992   2.085   0.247 -0.1491  0.4557  0.5502
  156SOL    HW1  467   2.937   2.165   0.269  0.5644  0.4287 -0.2352
  156SOL    HW2  468   2.996   2.062   0.150 -0.1087  0.1376  1.5867
  157SOL     OW  469   1.035   0.344   0.176 -0.5879  0.9630 -0.0030
  157SOL    HW1  470   1.050   0.260   0.114 -1.5790 -0.9307 -0.2259
  157SOL    HW2  471   0.945   0.385   0.157 -0.1992  1.2358 -0.5788
  158SOL     OW  472   2.467   0.173   2.826  0.3575 -0.3290  0.0309
  158SOL    HW1  473   2.519   0.216   2.747 -0.1648 -1.3234  1.0361
  158SOL    HW2  474   2.402   0.102   2.794 -0.0064 -2.1612 -0.0055
  159SOL     OW  475   0.528   0.138   0.020  0.2626 -0.0254  0.2302
  159SOL    HW1  476   0.624   0.125   0.045  0.9480 -0.4652  2.6944
  159SOL    HW2  477   0.506   0.238   0.014  2.4248  1.5207 -1.9369
  160SOL     OW  478   1.166   1.778   2.964 -0.1073 -0.3725  0.2994
  160SOL    HW1  479   1.104   1.853   2.923 -2.4186 -0.8173  1.8114
  160SOL    HW2  480   1.115   1.729   3.040  1.7956 -0.1209  0.6625
  161SOL     OW  481   3.011   1.812   2.646 -0.9947  0.2290 -0.0420
  161SOL    HW1  482   2.913   1.832   2.629  0.8514  0.3318 -0.9576
  161SOL    HW2  483   3.040   1.744   2.573  0.8900 -1.1896 -0.4360
  162SOL     OW  484   0.193   2.255   1.159  0.1409  0.3047 -0.4450
  162SOL    HW1  485   0.290   2.251   1.184 -0.7760 -0.0109  2.4175
  162SOL    HW2  486   0.165   2.352   1.146  0.6421  0.2280 -0.6347
  163SOL     OW  487   2.104   0.164   2.779  0.0339 -0.4326  0.0455
  163SOL    HW1  488   2.172   0.175   2.852  0.9612 -0.0940 -0.2661
  163SOL    HW2  489   2.147   0.107   2.703 -0.9904  1.2736 -3.1341
  164SOL     OW  490   2.812   1.384   0.599 -0.0946  0.8162 -0.2541
  164SOL    HW1  491   2.752   1.394   0.518 -0.8711  1.1461  0.4892
  164SOL    HW2  492   2.856   1.290   0.609  1.1114 -2.8710  2.8514
  165SOL     OW  493   0.162   2.984   1.924 -0.3157 -0.5295 -0.4136
  165SOL    HW1  494   0.119   2.899   1.880 -1.9487  1.8504 -1.2932
  165SOL    HW2  495   0.141   3.070   1.871  0.0639 -0.1355  0.0738
  166SOL     OW  496   2.184   0.707   0.756 -0.1543 -0.3145 -0.2094
  166SOL    HW1  497   2.229   0.717   0.669 -0.4792 -0.3633  3.0057
  166SOL    HW2  498   2.100   0.769   0.753 -0.1930  1.2728 -2.9531
  167SOL     OW  499   0.597   0.528   0.543 -0.1937  0.0148  0.3013
  167SOL    HW1  500   0.626   0.604   0.478  0.5377 -1.7182  1.6665
  167SOL    HW2  501   0.502   0.553   0.577 -1.7628 -1.1328  0.4684
  168SOL     OW  502   1.800   2.889   2.054 -0.1808  0.2533 -0.9960
  168SOL    HW1  503   1.787   2.850   2.149 -0.1760 -0.6475  2.9438
  168SOL    HW2  504   1.770   2.986   2.052 -0.5720 -1.3744  1.0425
  169SOL     OW  505   1.026   1.139   0.792 -0.0086 -0.1395  0.3025
  169SOL    HW1  506   1.032   1.037   0.809 -0.6886 -1.8521  0.9307
  169SOL    HW2  507   1.026   1.193   0.873 -2.4702 -0.4671  1.1213
  170SOL     OW  508   2.975   0.081   1.431 -0.4794 -0.7323 -0.1391
  170SOL    HW1  509   3.075   0.075   1.401  1.1544  1.0834 -1.6079
  170SOL    HW2  510   2.955   0.181   1.463  1.0395 -1.8583  2.1663
  171SOL     OW  511   0.898   2.727   1.848 -0.2588  0.0372  0.2319
  171SOL    HW1  512   0.896   2.654   1.776  1.2856  0.6964  0.9780
  171SOL    HW2  513   0.945   2.812   1.823 -0.4366  0.4192 -1.1531
  172SOL     OW  514   0.413   2.127   1.545  0.3655 -0.0750  0.5972
  172SOL    HW1  515   0.364   2.041   1.516  3.4519  4.4557 -1.9756
  172SOL    HW2  516   0.438   2.131   1.643 -0.6407  2.2800  1.2141
  173SOL     OW  517   1.357   0.829   2.745  0.0398  0.5212 -0.1266
  173SOL    HW1  518   1.339   0.807   2.648  1.8329  0.2260  0.4320
  173SOL    HW2  519   1.448   0.805   2.779 -0.6695  3.7550 -1.4514
  174SOL     OW  520   1.679   3.087   2.993 -0.3307  0.1398  0.3034
  174SOL    HW1  521   1.711   3.089   3.088  0.4881 -0.5320  0.4509
  174SOL    HW2  522   1.723   0.064   2.939 -1.6551  0.8632  0.0411
  175SOL     OW  523   1.706   2.591   0.161  0.0470  0.0365 -0.1583
  175SOL    HW1  524   1.627   2.623   0.103 -0.5050 -0.5729 -3.7219
  175SOL    HW2  525   1.727   2.492   0.139 -2.8765  2.2659 -0.5639
  176SOL     OW  526   1.411   0.107   2.963  0.3713  0.4201 -0.0264
  176SOL    HW1  527   1.434   0.209   2.967  0.1413  2.6042 -1.6647
  176SOL    HW2  528   1.491   0.044   2.949 -0.0580  3.3855  0.3153
  177SOL     OW  529   1.201   1.491   0.474  0.6210 -0.1956  0.0403
  177SOL    HW1  530   1.280   1.464   0.531 -0.7538  1.8000 -2.5332
  177SOL    HW2  531   1.150   1.567   0.522  2.0248  0.7565 -2.2897
  178SOL     OW  532   2.847   2.122   2.483 -0.4973  0.2769  0.4603
  178SOL    HW1  533   2.820   2.170   2.565 -0.4349 -1.8753 -0.7255
  178SOL    HW2  534   2.936   2.162   2.458  0.6430 -0.6865 -1.6763
  179SOL     OW  535   0.369   2.539   2.667 -0.0946 -0.1217 -0.6328
  179SOL    HW1  536   0.437   2.533   2.592  3.4921  3.0144  0.2654
  179SOL    HW2  537   0.412   2.535   2.760 -0.2485 -0.7404  1.7550
  180SOL     OW  538   1.670   1.540   0.749 -0.2673  0.2169  0.6071
  180SOL    HW1  539   1.691   1.641   0.734 -3.7056  0.5917 -1.3774
  180SOL    HW2  540   1.571   1.536   0.781  0.5054  1.7902  1.3645
  181SOL     OW  541   2.120   0.977   2.254 -0.2099 -0.0713 -0.6137
  181SOL    HW1  542   2.116   0.963   2.360  0.4191 -1.2690  1.9490
  181SOL    HW2  543   2.214   0.959   2.219 -1.3233 -0.4760  2.8285
  182SOL     OW  544   2.875   2.813   2.621 -0.1370 -0.2563  0.0322
  182SOL    HW1  545   2.806   2.884   2.626 -0.6063  0.8754  1.8220
  182SOL    HW2  546   2.953   2.848   2.566  2.2348  1.4067 -0.5326
  183SOL     OW  547   1.152   0.557   2.388 -0.4976 -0.7423 -0.1433
  183SOL    HW1  548   1.169   0.459   2.409  2.8546 -0.4291 -0.7806
  183SOL    HW2  549   1.231   0.594   2.337 -3.9268 -1.1096  2.6704
  184SOL     OW  550   0.683   0.636   1.785  0.9146  0.3083  0.3277
  184SOL    HW1  551   0.707   0.734   1.772  0.9841 -2.2617  1.8802
  184SOL    HW2  552   0.714   0.607   1.877 -0.8831 -0.2939 -1.7484
  185SOL     OW  553   1.986   1.094   0.635 -0.2488 -0.4683  0.1859
  185SOL    HW1  554   1.915   1.121   0.568 -1.3298  1.2286 -4.0330
  185SOL    HW2  555   2.074   1.111   0.595 -0.0917 -1.5863 -0.8644
  186SOL     OW  556   3.067   2.190   2.827 -0.0482 -0.7219 -0.0490
  186SOL    HW1  557   3.076   2.090   2.846 -1.5941  3.3530 -1.6469
  186SOL    HW2  558   2.990   2.226   2.765 -1.1481  1.5919  1.3131
  187SOL     OW  559   2.451   1.542   0.271  0.8387  0.1784  0.1890
  187SOL    HW1  560   2.458   1.636   0.245 -0.6465 -2.0142  1.6333
  187SOL    HW2  561   2.404   1.486   0.196 -4.1320 -1.6835  0.9165
  188SOL     OW  562   0.193   1.670   0.955  0.2393  0.5740  0.4373
  188SOL    HW1  563   0.275   1.635   0.913 -0.8767  1.1555 -0.8612
  188SOL    HW2  564   0.205   1.774   0.959 -0.7938 -0.3236 -2.4971
  189SOL     OW  565   2.389   0.452   0.433 -0.3113  0.2975  0.1520
  189SOL    HW1  566   2.307   0.392   0.432 -0.7812  0.2592 -4.3408
  189SOL    HW2  567   2.451   0.429   0.351 -1.0934  2.1549 -2.6235
  190SOL     OW  568   1.129   1.708   1.956  0.2558  0.0906  0.3860
  190SOL    HW1  569   1.192   1.720   2.037  1.0641 -2.9670  0.5205
  190SOL    HW2  570   1.153   1.626   1.902 -1.4628  1.4535  0.8481
  191SOL     OW  571   2.908   0.358   1.788  0.7142 -0.2785 -0.0925
  191SOL    HW1  572   2.839   0.310   1.851  0.3775  0.1702  0.8701
  191SOL    HW2  573   3.005   0.340   1.817  2.6637  0.1948 -0.4763
  192SOL     OW  574   1.753   1.574   1.613  0.1366 -0.0191 -0.2570
  192SOL    HW1  575   1.789   1.480   1.641  0.1911 -0.6275  0.3598
  192SOL    HW2  576   1.711   1.624   1.694 -0.9048  0.8899  0.2564
  193SOL     OW  577   1.004   0.869   0.790 -0.1026  0.3506 -0.7197
  193SOL    HW1  578   0.966   0.801   0.723 -1.5073 -0.8993  1.6552
  193SOL    HW2  579   1.098   0.844   0.826  0.5812 -0.0346 -1.8301
  194SOL     OW  580   1.425   2.866   1.262  0.0428 -0.0618  0.5134
  194SOL    HW1  581   1.479   2.822   1.190 -2.9455  1.2429  1.3780
  194SOL    HW2  582   1.339   2.916   1.230 -2.4566  0.1924  2.1530
  195SOL     OW  583   2.277   0.318   3.045  0.5617  0.6882  0.1430
  195SOL    HW1  584   2.370   0.270   3.062 -0.3564 -0.1027 -0.2182
  195SOL    HW2  585   2.209   0.297   0.029 -1.8624 -0.1285  1.4241
  196SOL     OW  586   0.650   2.370   1.398  0.0688  0.0507  0.0377
  196SOL    HW1  587   0.630   2.312   1.480  0.3164 -0.8694  0.6727
  196SOL    HW2  588   0.750   2.371   1.386 -1.2991  0.0511  1.1719
  197SOL     OW  589   0.855   2.537   0.582  0.5059  0.6573  0.3189
  197SOL    HW1  590   0.860   2.478   0.669 -1.1600 -2.8382  0.9552
  197SOL    HW2  591   0.805   2.622   0.595 -0.0369 -3.7895  0.8343
  198SOL     OW  592   0.834   0.693   0.646  0.1554  0.2766 -0.5397
  198SOL    HW1  593   0.759   0.693   0.717  1.7363  3.0903  1.6724
  198SOL    HW2  594   0.813   0.774   0.588 -2.0966  0.0393  2.0624
  199SOL     OW  595   0.015   2.775   1.492 -0.4988  0.2753  0.1434
  199SOL    HW1  596   3.049   2.825   1.426  1.4178 -0.6536 -0.1700
  199SOL    HW2  597   0.051   2.693   1.447  1.1968  1.3095 -0.2153
  200SOL     OW  598   2.317   1.867   2.664  0.1181  0.0963 -0.0471
  200SOL    HW1  599   2.338   1.778   2.611 -1.8426 -1.8543  0.3990
  200SOL    HW2  600   2.253   1.842   2.739  1.6969  0.4427  0.3154
  201SOL     OW  601   2.843   2.115   1.198 -0.0942  0.0334 -0.5178
  201SOL    HW1  602   2.912   2.042   1.174  1.9804 -0.6881 -1.0983
  201SOL    HW2  603   2.809   2.094   1.291  0.4031  0.4874 -2.3478
  202SOL     OW  604   2.835   0.198   0.356  0.5496 -0.2295  0.1410
  202SOL    HW1  605   2.934   0.200   0.371 -0.7790 -0.2334 -1.7952
  202SOL    HW2  606   2.806   0.172   0.258 -0.9398  2.1518 -0.5274
  203SOL     OW  607   1.281   2.276   2.184  0.4324 -0.1343  0.6421
  203SOL    HW1  608   1.286   2.173   2.193  0.3545 -1.3324  2.6735
  203SOL    HW2  609   1.247   2.313   2.270  0.9169  1.0739 -2.2853
  204SOL     OW  610   1.022   1.901   1.566  0.1141  0.0035  0.0700
  204SOL    HW1  611   0.929   1.940   1.579 -0.8000  1.6767 -0.7283
  204SOL    HW2  612   1.088   1.927   1.644  4.9296 -0.0662 -0.1584
  205SOL     OW  613   0.776   2.102   1.606  0.1843  0.0233 -0.3602
  205SOL    HW1  614   0.875   2.129   1.619  1.2719  2.2677 -3.8614
  205SOL    HW2  615   0.749   2.022   1.667  1.1081  0.3891 -0.2023
  206SOL     OW  616   0.235   0.515   2.812 -0.2177 -0.2305 -0.4444
  206SOL    HW1  617   0.321   0.570   2.831 -1.3907 -0.9311  1.6712
  206SOL    HW2  618   0.215   0.499   2.712 -1.5934  0.9966  1.1795
  207SOL     OW  619   1.419   0.125   1.897 -0.4633  0.7074  0.0592
  207SOL    HW1  620   1.357   0.052   1.874  0.6623  4.1112  2.1634
  207SOL    HW2  621   1.380   0.178   1.976 -1.2683  0.4649  0.8541
  208SOL     OW  622   0.502   2.421   1.835  0.2129  0.0657  0.1889
  208SOL    HW1  623   0.517   2.469   1.922  3.1005  0.6435 -0.3198
  208SOL    HW2  624   0.493   2.487   1.757 -2.6762  1.1115 -0.9906
  209SOL     OW  625   1.853   0.848   0.080  0.1271 -0.4110 -0.2265
  209SOL    HW1  626   1.827   0.752   0.065  0.8095  3.2556  1.2313
  209SOL    HW2  627   1.839   0.907   3.087  1.9992  2.1343  0.4804
  210SOL     OW  628   0.205   0.407   0.786 -0.2734  0.0107 -0.6000
  210SOL    HW1  629   0.121   0.381   0.739  0.4442  0.6726  1.2581
  210SOL    HW2  630   0.191   0.498   0.833  1.1033  0.8771  0.0023
  211SOL     OW  631   0.809   0.924   1.353  0.3082 -0.0914  0.2952
  211SOL    HW1  632   0.712   0.914   1.385  0.6390  0.0444  0.6134
  211SOL    HW2  633   0.868   0.877   1.421 -0.0224  0.5639 -1.3421
  212SOL     OW  634   1.234   2.268   0.879  0.1817 -0.0616 -0.0309
  212SOL    HW1  635   1.229   2.323   0.970 -2.8268  0.3375  0.7916
  212SOL    HW2  636   1.326   2.228   0.875 -0.8431  0.6030  0.4286
  213SOL     OW  637   2.106   0.181   1.875 -0.3066  0.2071 -0.4183
  213SOL    HW1  638   2.007   0.153   1.855 -1.9443 -0.5180  1.1146
  213SOL    HW2  639   2.173   0.107   1.855  1.8294  0.4260  0.0294
  214SOL     OW  640   1.233   2.591   2.542 -0.0199  0.0942 -0.1487
  214SOL    HW1  641   1.234   2.541   2.631 -2.7580 -0.0925  1.9299
  214SOL    HW2  642   1.320   2.593   2.495 -2.2865 -0.6073  0.3329
  215SOL     OW  643   2.914   1.650   1.263 -0.0002 -0.2364  0.1213
  215SOL    HW1  644   2.909   1.710   1.349 -1.2061 -0.4524  1.3893
  215SOL    HW2  645   2.823   1.632   1.219  0.1949  1.0465  0.9512
  216SOL     OW  646   0.359   0.207   2.140 -0.3578 -0.1474  0.1421
  216SOL    HW1  647   0.441   0.200   2.201 -0.2830  1.0256  2.3126
  216SOL    HW2  648   0.384   0.241   2.046  4.4579  1.3655 -0.1629
  217SOL     OW  649   2.752   0.410   0.069 -0.1835 -0.1637  0.2965
  217SOL    HW1  650   2.777   0.500   0.030 -2.2500  2.0571  0.5523
  217SOL    HW2  651   2.782   0.328   0.018 -0.3809  0.8927  1.2689
  218SOL     OW  652   1.540   1.916   2.043  0.4878  0.6063  0.0973
  218SOL    HW1  653   1.628   1.926   1.997 -2.8441  1.0883 -0.3029
  218SOL    HW2  654   1.551   1.846   2.121  0.5494 -4.6660  1.2252
  219SOL     OW  655   1.907   0.912   0.342  0.8269 -0.0700  0.0496
  219SOL    HW1  656   1.891   0.887   0.241  0.4922 -0.2056 -0.3019
  219SOL    HW2  657   1.819   0.912   0.394 -0.6622  3.5401  1.9816
  220SOL     OW  658   1.486   2.134   0.992 -0.7221 -0.0382 -0.0056
  220SOL    HW1  659   1.425   2.115   1.072 -1.5473 -1.5621  1.9638
  220SOL    HW2  660   1.462   2.071   0.916  1.6062  2.2043 -0.2308
  221SOL     OW  661   0.202   0.806   3.063 -0.3840 -1.0619 -0.0927
  221SOL    HW1  662   0.177   0.886   0.029  2.3015  2.4361  1.5625
  221SOL    HW2  663   0.223   0.837   2.968 -0.4298 -1.5701  1.9936
  222SOL     OW  664   1.010   2.830   1.326  0.3256 -0.0516  0.5317
  222SOL    HW1  665   1.066   2.793   1.398 -1.3537  0.3281 -1.6010
  222SOL    HW2  666   1.048   2.911   1.281  4.0609 -2.8224 -1.6387
  223SOL     OW  667   1.480   0.491   2.707  0.1635  0.5103  0.1202
  223SOL    HW1  668   1.497   0.442   2.796 -0.3709 -1.5430  0.9919
  223SOL    HW2  669   1.534   0.577   2.707 -0.6979 -2.0789  1.4399
  224SOL     OW  670   3.031   0.761   1.244  0.2461  0.1476  0.4989
  224SOL    HW1  671   3.025   0.669   1.202 -0.1122 -0.8482  2.7254
  224SOL    HW2  672   3.078   0.758   1.333 -1.8904  0.5891 -2.3062
  225SOL     OW  673   0.982   1.315   1.401 -0.2158 -0.9449 -0.0524
  225SOL    HW1  674   0.889   1.279   1.382  0.3820 -0.8417 -0.9718
  225SOL    HW2  675   0.985   1.407   1.360 -1.0524 -0.6954 -1.3028
  226SOL     OW  676   1.004   3.022   0.197  0.0831 -0.4602  0.0777
  226SOL    HW1  677   1.018   2.971   0.110  2.6522  1.1550 -1.4486
  226SOL    HW2  678   1.060   2.981   0.273  0.8589 -2.1693  2.8236
  227SOL     OW  679   0.634   1.509   1.336  0.5536  0.3433 -0.0453
  227SOL    HW1  680   0.660   1.608   1.330  2.3269  0.1431 -0.6844
  227SOL    HW2  681   0.552   1.489   1.280 -2.4705  1.0397 -0.1779
  228SOL     OW  682   0.446   2.904   1.330 -0.9699  0.5490 -0.1706
  228SOL    HW1  683   0.510   2.827   1.313 -1.5900  0.5779  1.1126
  228SOL    HW2  684   0.401   2.893   1.424 -0.4323  0.2855  4.9982
  229SOL     OW  685   2.401   0.984   0.425  0.3112  0.3527  0.0666
  229SOL    HW1  686   2.361   0.897   0.461  0.2936 -0.0866  2.4904
  229SOL    HW2  687   2.401   0.992   0.322  0.1787  1.7111  0.2672
  230SOL     OW  688   0.660   1.259   1.899 -0.2801 -0.1367  0.5376
  230SOL    HW1  689   0.620   1.171   1.865 -0.3599 -1.0516  2.3412
  230SOL    HW2  690   0.655   1.264   1.995 -2.2785 -0.3715 -4.4032
  231SOL     OW  691   1.247   2.348   1.555  0.1668  0.0328 -0.0816
  231SOL    HW1  692   1.325   2.376   1.618  1.5221 -1.2576  1.1498
  231SOL    HW2  693   1.267   2.347   1.453  2.7880 -0.4278 -1.2318
  232SOL     OW  694   2.093   2.353   0.568  0.7894 -0.8428  0.0508
  232SOL    HW1  695   2.070   2.401   0.660  0.6189  0.3469  1.7126
  232SOL    HW2  696   2.035   2.398   0.498  1.3021 -2.4633 -1.6178
  233SOL     OW  697   0.921   2.477   2.876 -0.0586 -0.3566  0.2085
  233SOL    HW1  698   0.931   2.541   2.955 -0.7614 -0.8286  0.3531
  233SOL    HW2  699   0.936   2.380   2.897  0.4619 -0.1159 -1.0948
  234SOL     OW  700   1.156   0.263   2.383  0.2108 -0.6512 -0.4311
  234SOL    HW1  701   1.244   0.272   2.430 -2.9511  0.1382 -2.0876
  234SOL    HW2  702   1.082   0.218   2.436 -0.9705 -0.8614  1.8483
  235SOL     OW  703   0.133   2.318   0.135  0.2869  0.8432  0.2459
  235SOL    HW1  704   0.075   2.351   0.213 -0.3165  2.3275 -0.9704
  235SOL    HW2  705   0.200   2.240   0.143  1.4354 -3.4581  0.9841
  236SOL     OW  706   1.945   2.665   2.484 -0.8247 -0.0738 -0.0709
  236SOL    HW1  707   1.963   2.563   2.500 -0.6275 -0.7662 -0.7074
  236SOL    HW2  708   2.029   2.719   2.509  1.4185 -1.8668  1.1397
  237SOL     OW  709   1.953   1.111   1.687  0.2765 -0.0628  0.5469
  237SOL    HW1  710   2.047   1.123   1.645  3.4469  0.3822 -0.3245
  237SOL    HW2  711   1.945   1.043   1.759  1.6887  1.7587 -1.0597
  238SOL     OW  712   2.139   0.057   2.374 -0.4066  0.0636  0.2056
  238SOL    HW1  713   2.140   0.158   2.336 -0.6001  2.5413 -0.5320
  238SOL    HW2  714   2.043   0.022   2.376  0.6162  0.7176 -0.1924
  239SOL     OW  715   0.411   1.694   1.784 -0.0042  0.0388  0.4577
  239SOL    HW1  716   0.363   1.602   1.780  0.2781 -2.0897 -1.5790
  239SOL    HW2  717   0.501   1.692   1.734 -2.0061  0.5743 -0.5848
  240SOL     OW  718   0.275   2.198   0.535 -0.3697 -0.1384 -0.1893
  240SOL    HW1  719   0.176   2.222   0.532  0.9994  1.0810 -0.9823
  240SOL    HW2  720   0.291   2.113   0.582  0.6661  1.4302 -0.9578
  241SOL     OW  721   1.336   2.301   0.217 -0.2368  0.3359 -0.0551
  241SOL    HW1  722   1.397   2.293   0.294 -3.2432 -0.7429 -0.0410
  241SOL    HW2  723   1.375   2.256   0.137 -2.2790 -0.4726  0.1838
  242SOL     OW  724   1.845   1.178   0.415 -0.5545  0.3400 -0.1768
  242SOL    HW1  725   1.897   1.097   0.384  1.4988  3.5737 -0.1353
  242SOL    HW2  726   1.823   1.234   0.333  1.0216  1.0383 -1.3244
  243SOL     OW  727   0.851   2.883   1.567 -0.5662  0.0705  0.1631
  243SOL    HW1  728   0.892   2.878   1.471  0.4909  1.0294 -1.3222
  243SOL    HW2  729   0.909   2.943   1.627 -1.3018  1.3943  0.1185
  244SOL     OW  730   1.789   2.847   2.893  0.3258  0.4372  0.0996
  244SOL    HW1  731   1.748   2.928   2.942  1.5376 -1.5892 -1.2246
  244SOL    HW2  732   1.745   2.831   2.802 -1.2531 -2.6889 -0.6184
  245SOL     OW  733   1.339   2.971   3.067  0.0421 -0.0675 -0.1349
  245SOL    HW1  734   1.366   3.066   3.043 -1.6389  0.0872  3.3630
  245SOL    HW2  735   1.361   2.937   0.071  0.1631  0.0851 -0.8484
  246SOL     OW  736   0.996   1.012   2.239 -0.0733  0.5070 -0.6286
  246SOL    HW1  737   1.090   0.984   2.274  0.9603  0.8741  0.7009
  246SOL    HW2  738   0.948   1.067   2.310  1.6598  0.1281  2.4518
  247SOL     OW  739   0.143   0.586   1.976  0.5653  0.0852 -0.0328
  247SOL    HW1  740   0.227   0.636   2.012 -0.6087 -0.3861  0.6666
  247SOL    HW2  741   0.060   0.608   2.031  0.3437  1.1661 -1.0230
  248SOL     OW  742   0.543   0.906   2.050  0.1252 -0.0004  0.1878
  248SOL    HW1  743   0.639   0.890   2.056 -3.3381 -0.2231 -0.8838
  248SOL    HW2  744   0.521   0.959   1.964 -1.8820  0.4284 -1.4003
  249SOL     OW  745   2.142   0.530   0.169  0.1363  0.0281 -0.3887
  249SOL    HW1  746   2.099   0.441   0.146 -0.9080 -0.9723 -0.6537
  249SOL    HW2  747   2.122   0.554   0.265  1.1257  2.2784  1.8619
  250SOL     OW  748   0.271   0.279   0.303  0.0339  0.2121 -0.1280
  250SOL    HW1  749   0.253   0.376   0.274 -3.2997  0.7143  1.0426
  250SOL    HW2  750   0.319   0.291   0.389 -1.7530 -2.3874 -1.9033
  251SOL     OW  751   0.871   0.529   2.348  0.0968  0.4321  0.2480
  251SOL    HW1  752   0.974   0.533   2.340  3.2361 -0.0110  2.5149
  251SOL    HW2  753   0.841   0.539   2.252  1.6780  0.9928  3.0056
  252SOL     OW  754   1.432   1.822   1.743 -0.0037 -0.0612 -0.0871
  252SOL    HW1  755   1.388   1.753   1.681 -1.2686  0.6283  1.8502
  252SOL    HW2  756   1.368   1.893   1.772  1.4807  2.8389  2.7425
  253SOL     OW  757   1.606   2.725   1.913  0.1050  0.2433 -0.0638
  253SOL    HW1  758   1.656   2.782   1.980 -2.8295 -1.5104 -0.6187
  253SOL    HW2  759   1.591   2.624   1.940 -0.4272  0.2441  0.4667
  254SOL     OW  760   0.808   2.124   2.152  0.3036  0.4243 -0.5353
  254SOL    HW1  761   0.889   2.072   2.172 -2.6239  1.6332 -2.5958
  254SOL    HW2  762   0.816   2.166   2.062 -1.4649  1.6334  1.1390
  255SOL     OW  763   1.424   0.637   0.585  0.5155 -0.1726  0.4965
  255SOL    HW1  764   1.430   0.714   0.650 -0.1799 -2.3078  2.0294
  255SOL    HW2  765   1.333   0.645   0.534 -0.4104  0.2176  0.3112
  256SOL     OW  766   1.896   2.274   1.451 -0.5877  0.3939 -0.4227
  256SOL    HW1  767   1.867   2.245   1.358 -0.2059 -2.9525 -3.5170
  256SOL    HW2  768   1.818   2.329   1.480  1.4219  0.5443 -1.7119
  257SOL     OW  769   0.247   2.234   2.553  0.6993  0.2610 -0.4335
  257SOL    HW1  770   0.256   2.262   2.652  2.1441 -2.4664 -1.4842
  257SOL    HW2  771   0.207   2.134   2.546 -0.2403 -3.0689 -1.0482
  258SOL     OW  772   0.702   0.311   2.107 -0.7892 -0.0353  0.2996
  258SOL    HW1  773   0.698   0.414   2.100 -1.8655  2.4914  0.3688
  258SOL    HW2  774   0.681   0.274   2.200 -0.6974  0.1303  1.0874
  259SOL     OW  775   1.220   0.825   2.498 -0.8086  0.0653  0.1403
  259SOL    HW1  776   1.140   0.879   2.533 -0.0467  0.1447  1.0080
  259SOL    HW2  777   1.198   0.729   2.471 -0.3990 -1.8157 -0.4614
  260SOL     OW  778   1.696   0.755   0.778  0.4170 -0.0634 -0.4867
  260SOL    HW1  779   1.597   0.774   0.789  0.7693  2.9453  0.7519
  260SOL    HW2  780   1.718   0.655   0.791  0.5935  1.4619  1.4008
  261SOL     OW  781   0.536   0.315   2.769  0.8951  0.5470  0.1782
  261SOL    HW1  782   0.628   0.286   2.734 -0.3395 -0.5018 -0.8643
  261SOL    HW2  783   0.482   0.230   2.791  0.9942  0.1306 -3.1654
  262SOL     OW  784   2.707   2.985   2.792 -0.2570 -0.0895  0.2322
  262SOL    HW1  785   2.684   2.988   2.894 -1.0868 -0.1972 -1.0314
  262SOL    HW2  786   2.778   3.047   2.766  2.0198 -0.9294  1.4359
  263SOL     OW  787   0.483   2.245   0.357  0.3775  0.2428  0.0536
  263SOL    HW1  788   0.418   2.239   0.437 -1.5183  0.1653  1.9241
  263SOL    HW2  789   0.579   2.228   0.381 -0.8174  2.1085  2.0824
  264SOL     OW  790   0.462   1.351   1.619  0.0642 -0.4709  0.1374
  264SOL    HW1  791   0.553   1.332   1.659 -3.1742  1.4464  0.4364
  264SOL    HW2  792   0.389   1.381   1.686  0.9767 -0.7594  3.2498
  265SOL     OW  793   0.583   1.289   0.299  0.1878  0.2193 -0.5840
  265SOL    HW1  794   0.499   1.231   0.274 -1.6262 -1.4053  0.3216
  265SOL    HW2  795   0.654   1.295   0.223  2.1061  0.0118 -1.5957
  266SOL     OW  796   1.968   1.603   0.596  0.4068 -0.3117 -0.2012
  266SOL    HW1  797   1.932   1.534   0.660 -1.9255  1.5518  1.8895
  266SOL    HW2  798   2.071   1.613   0.599  1.3534  0.8595 -0.0329
  267SOL     OW  799   2.865   0.223   2.992  0.2141 -0.1540 -0.1084
  267SOL    HW1  800   2.962   0.202   2.994 -0.9301  2.1363  2.0710
  267SOL    HW2  801   2.842   0.262   2.903  1.0148 -0.3130  0.5758
  268SOL     OW  802   0.371   0.099   2.796  0.0137  0.1533  0.3432
  268SOL    HW1  803   0.400   0.029   2.864  0.6054  1.4137 -0.0544
  268SOL    HW2  804   0.371   0.073   2.698 -2.7485  0.1493  1.0195
  269SOL     OW  805   1.824   0.181   2.849 -0.1337  0.1331  0.1338
  269SOL    HW1  806   1.798   0.262   2.905  2.3087  1.0638 -0.6183
  269SOL    HW2  807   1.923   0.180   2.823 -0.5664  1.8030  0.4848
  270SOL     OW  808   0.947   0.963   2.588  0.6032  0.4542 -0.3888
  270SOL    HW1  809   0.896   0.886   2.549  0.1155  1.0942  1.1732
  270SOL    HW2  810   0.949   0.968   2.687  1.3827 -2.7671  0.2321
  271SOL     OW  811   2.420   0.924   0.146 -0.3018 -0.1945 -0.7388
  271SOL    HW1  812   2.400   0.830   0.119 -0.1480 -0.8190  1.2815
  271SOL    HW2  813   2.396   0.989   0.078 -0.5264 -3.0634  1.7040
  272SOL     OW  814   2.760   1.865   2.551  0.7043  0.2518  0.2018
  272SOL    HW1  815   2.807   1.937   2.498  2.1989  1.7542  1.8398
  272SOL    HW2  816   2.690   1.911   2.608 -2.9177 -0.8382 -0.4735
  273SOL     OW  817   2.412   0.535   2.918 -0.0158 -0.6116  0.2690
  273SOL    HW1  818   2.353   0.457   2.952 -2.5604 -1.3004  0.2009
  273SOL    HW2  819   2.474   0.496   2.848  1.0511 -1.7471 -0.3176
  274SOL     OW  820   0.336   2.695   1.137  0.0633 -0.5955 -0.3622
  274SOL    HW1  821   0.361   2.734   1.042  2.0458  0.4364 -0.0867
  274SOL    HW2  822   0.333   2.766   1.204  0.9452 -2.8517 -3.2078
  275SOL     OW  823   2.073   1.471   0.917  0.5037  0.1080  0.4780
  275SOL    HW1  824   2.053   1.374   0.896  0.4459 -0.2226  0.7654
  275SOL    HW2  825   2.129   1.508   0.839 -2.6524 -2.3624  0.2097
  276SOL     OW  826   0.028   1.333   2.743  0.3174 -0.0148  0.6018
  276SOL    HW1  827   0.125   1.297   2.743  0.8498  0.5578 -1.9227
  276SOL    HW2  828   3.057   1.262   2.703 -1.9865  0.6645 -0.3843
  277SOL     OW  829   1.579   2.863   1.683 -0.2834  0.3533 -0.2628
  277SOL    HW1  830   1.514   2.804   1.634 -2.4393  0.5024  1.0241
  277SOL    HW2  831   1.605   2.816   1.772 -2.5479 -0.0825  2.1044
  278SOL     OW  832   1.645   0.513   1.821  0.1307 -0.3017 -0.1118
  278SOL    HW1  833   1.627   0.414   1.797 -2.2264  1.3373  2.1213
  278SOL    HW2  834   1.737   0.533   1.786 -2.5024 -1.4318  1.7361
  279SOL     OW  835   2.025   1.672   0.083 -0.0221  0.0072 -0.7855
  279SOL    HW1  836   2.064   1.764   0.059 -0.6470  1.1675 -0.5968
  279SOL    HW2  837   2.005   1.671   0.185  0.5465  2.7459  1.6150
  280SOL     OW  838   0.809   1.553   0.884 -0.0346  0.1413  0.2316
  280SOL    HW1  839   0.897   1.526   0.926 -1.3528  0.4811  2.1157
  280SOL    HW2  840   0.807   1.535   0.784  0.8727 -1.1315  0.0235
  281SOL     OW  841   0.340   0.056   2.510 -0.0019  0.1354  0.6556
  281SOL    HW1  842   0.381   0.137   2.459  0.7185  0.5060 -1.8982
  281SOL    HW2  843   0.243   0.074   2.530  2.7196  1.0402  0.7435
  282SOL     OW  844   0.292   0.591   1.315  0.0679  0.0522 -0.1156
  282SOL    HW1  845   0.301   0.634   1.220  0.4026 -1.2040  1.5756
  282SOL    HW2  846   0.193   0.565   1.331 -0.0768 -0.1547 -0.5533
  283SOL     OW  847   1.693   2.176   3.006  0.5040 -0.1455  0.0684
  283SOL    HW1  848   1.682   2.239   2.922  0.7615 -2.9687  3.0065
  283SOL    HW2  849   1.600   2.149   3.037  2.1476  2.5173 -2.2075
  284SOL     OW  850   1.672   1.375   0.531  0.1145  0.4947 -0.2916
  284SOL    HW1  851   1.704   1.438   0.608 -0.5873  1.8443 -0.9674
  284SOL    HW2  852   1.743   1.305   0.514  0.0766  0.0540 -1.3821
  285SOL     OW  853   0.038   0.127   2.722  0.2368  0.3101 -0.2721
  285SOL    HW1  854   0.087   0.179   2.799 -0.9820 -0.4305  0.7173
  285SOL    HW2  855   0.088   0.039   2.714  1.3319  2.1361  1.5071
  286SOL     OW  856   1.821   0.076   1.761 -0.2862 -0.6031 -0.1335
  286SOL    HW1  857   1.853   3.083   1.714 -3.8567  0.9351  1.2235
  286SOL    HW2  858   1.870   0.161   1.732  1.0428  3.6821  1.0771
  287SOL     OW  859   0.873   1.125   1.153  0.7718 -0.7197  0.0360
  287SOL    HW1  860   0.849   1.074   1.232  1.8861 -2.4406  0.0263
  287SOL    HW2  861   0.827   1.217   1.155 -2.1702  2.4507  0.1553
  288SOL     OW  862   1.493   2.953   0.394  0.5605 -0.2090 -0.0560
  288SOL    HW1  863   1.543   2.944   0.307 -0.6455  0.4290 -1.1296
  288SOL    HW2  864   1.409   3.008   0.374 -0.9169  0.0197 -0.6597
  289SOL     OW  865   3.047   1.577   2.832 -0.4417  0.1262 -0.1380
  289SOL    HW1  866   3.014   1.645   2.768  1.0570  0.6907  3.4061
  289SOL    HW2  867   3.066   1.483   2.787  0.7817 -2.7993  1.4156
  290SOL     OW  868   1.231   2.641   0.572 -0.6182  0.2328 -0.0616
  290SOL    HW1  869   1.149   2.587   0.552 -0.4997  3.9197 -1.1213
  290SOL    HW2  870   1.223   2.690   0.666  0.4239  2.2010  1.9871
  291SOL     OW  871   2.250   2.236   2.722 -0.0917  0.1470 -0.2026
  291SOL    HW1  872   2.346   2.199   2.713  0.2026  1.9471  0.5597
  291SOL    HW2  873   2.233   2.311   2.654 -0.3645  0.4131 -0.9824
  292SOL     OW  874   0.966   1.052   1.965 -0.9868 -0.1808  0.7602
  292SOL    HW1  875   0.970   1.069   2.063 -1.1692  0.4916 -1.6529
  292SOL    HW2  876   1.062   1.048   1.934  2.1802  2.5523  1.3512
  293SOL     OW  877   2.169   2.795   1.015  0.2379 -0.1713 -0.2548
  293SOL    HW1  878   2.164   2.877   1.079 -1.9867  1.9464  0.5352
  293SOL    HW2  879   2.262   2.759   1.004 -1.9880 -2.3131  0.4925
  294SOL     OW  880   0.120   0.437   2.544  0.2042  0.8300  0.2884
  294SOL    HW1  881   0.122   0.494   2.460 -0.9654 -0.9952 -0.1589
  294SOL    HW2  882   0.027   0.402   2.564  1.1137 -0.9955 -2.3527
  295SOL     OW  883   1.285   1.844   0.327 -0.0359 -0.1593  0.1360
  295SOL    HW1  884   1.315   1.919   0.391 -0.0548 -1.4207 -3.6411
  295SOL    HW2  885   1.348   1.766   0.349  1.0871  0.6159  1.7143
  296SOL     OW  886   2.105   1.934   3.074 -0.3604  0.4142 -0.3890
  296SOL    HW1  887   2.100   2.035   3.044 -0.9068  1.8033 -3.0348
  296SOL    HW2  888   2.141   1.877   2.998  0.7086  0.7124 -0.5341
  297SOL     OW  889   2.354   0.670   0.047  0.2645 -0.3297  0.0752
  297SOL    HW1  890   2.383   0.629   3.052  0.3385 -0.3115  0.3905
  297SOL    HW2  891   2.295   0.608   0.103 -0.7731  1.8531  0.7671
  298SOL     OW  892   1.063   2.159   2.590  0.3261  0.6205  0.0330
  298SOL    HW1  893   1.101   2.230   2.530  0.7381 -2.4218 -1.4993
  298SOL    HW2  894   0.962   2.171   2.590  0.4947 -0.1461 -1.1516
  299SOL     OW  895   1.083   2.986   2.398 -0.0679 -0.1680 -0.2505
  299SOL    HW1  896   1.165   2.970   2.347  0.1777  1.2628  1.1798
  299SOL    HW2  897   1.059   3.088   2.399  1.2534 -0.4517 -0.0612
  300SOL     OW  898   2.515   0.184   0.008  0.4051 -0.5613 -0.3945
  300SOL    HW1  899   2.605   0.218   0.035 -0.4935 -1.4878 -0.0346
  300SOL    HW2  900   2.504   0.165   2.998 -1.3692 -0.0228 -0.9748
  301SOL     OW  901   1.208   1.128   1.367  1.3933  0.6399 -0.2116
  301SOL    HW1  902   1.299   1.128   1.414  0.0445 -1.5854  2.5580
  301SOL    HW2  903   1.141   1.189   1.416 -1.7743  0.6298  0.9413
  302SOL     OW  904   2.948   2.365   0.251  0.3390 -0.1215  0.1574
  302SOL    HW1  905   2.991   2.447   0.292  1.6823  0.0288  0.2616
  302SOL    HW2  906   2.963   2.358   0.147 -1.2445  2.5726 -2.8948
  303SOL     OW  907   2.911   2.550   2.574  0.0978 -0.0436 -0.2481
  303SOL    HW1  908   2.891   2.652   2.587 -1.4755 -3.5449 -0.7997
  303SOL    HW2  909   3.008   2.541   2.544 -3.2525  1.8503  0.4731
  304SOL     OW  910   2.974   0.627   2.119  0.1949  0.5203  0.3627
  304SOL    HW1  911   2.913   0.672   2.183 -0.6829  1.4847  0.3063
  304SOL    HW2  912   2.952   0.652   2.020  3.3745 -2.6359  1.1078
  305SOL     OW  913   0.440   2.096   2.101 -0.0821 -0.1640 -0.4823
  305SOL    HW1  914   0.523   2.037   2.091 -0.1860 -0.8627 -0.5437
  305SOL    HW2  915   0.411   2.101   2.201 -0.7978  0.5451  1.0369
  306SOL     OW  916   2.568   0.967   1.809  0.7003  0.0021 -0.1205
  306SOL    HW1  917   2.529   1.056   1.843  2.7479  0.0962  0.0741
  306SOL    HW2  918   2.533   0.886   1.866 -0.6424  0.6049  1.9137
  307SOL     OW  919   1.685   0.823   1.583  0.4652  0.1298  0.2056
  307SOL    HW1  920   1.782   0.797   1.566 -1.7125  0.4556 -0.4773
  307SOL    HW2  921   1.633   0.787   1.502  1.8874  2.0903 -0.0764
  308SOL     OW  922   2.517   1.835   1.059  0.6221  0.6051 -0.5400
  308SOL    HW1  923   2.421   1.834   1.092 -1.5356  1.4700  1.9509
  308SOL    HW2  924   2.542   1.748   1.008  2.0402  0.4064 -2.0403
  309SOL     OW  925   2.187   1.563   1.762 -0.3338 -0.4022  0.0052
  309SOL    HW1  926   2.140   1.651   1.734 -2.0128  2.7121 -0.3357
  309SOL    HW2  927   2.255   1.528   1.697  1.7580 -2.5630  0.7285
  310SOL     OW  928   2.735   1.603   2.661  0.2642 -0.7341  0.1297
  310SOL    HW1  929   2.733   1.694   2.617  1.9829 -2.4658  1.8081
  310SOL    HW2  930   2.645   1.576   2.699 -1.9433  2.4442 -0.5078
  311SOL     OW  931   2.555   1.979   2.703  0.3730 -0.3829  0.2710
  311SOL    HW1  932   2.465   1.934   2.700 -0.1630 -0.6848  3.1809
  311SOL    HW2  933   2.549   2.072   2.663 -2.6885  1.2529 -0.6329
  312SOL     OW  934   2.308   1.734   1.434  0.0549  0.1194 -0.6522
  312SOL    HW1  935   2.236   1.724   1.509 -2.0409  0.9642  2.9037
  312SOL    HW2  936   2.370   1.811   1.454 -3.2307  0.3784  1.0091
  313SOL     OW  937   2.416   2.681   1.014 -0.1365 -0.0428  0.2443
  313SOL    HW1  938   2.508   2.721   1.007  0.0475 -1.3874  1.4330
  313SOL    HW2  939   2.422   2.578   1.043  0.5218 -0.6266  2.4895
  314SOL     OW  940   1.045   1.955   0.278  0.2013 -0.4035  0.1504
  314SOL    HW1  941   1.125   1.889   0.282 -2.3327 -0.4580  1.6028
  314SOL    HW2  942   1.021   1.989   0.372  1.2897  2.4876  0.5287
  315SOL     OW  943   0.594   2.510   2.517  0.5418  0.0796  0.3686
  315SOL    HW1  944   0.603   2.416   2.474  0.2583 -0.6049  2.1180
  315SOL    HW2  945   0.681   2.537   2.558 -1.8256  0.1132  1.5095
  316SOL     OW  946   0.132   0.707   0.437 -0.0230 -0.1242 -0.4253
  316SOL    HW1  947   0.145   0.792   0.495 -2.6150  1.7144 -2.1502
  316SOL    HW2  948   0.034   0.702   0.413  0.0921 -0.1882  0.6529
  317SOL     OW  949   1.221   0.484   0.884  0.6269  0.0665  0.8982
  317SOL    HW1  950   1.249   0.480   0.978  0.5630 -0.4232  0.7464
  317SOL    HW2  951   1.119   0.497   0.869  1.6464  1.7755 -0.5023
  318SOL     OW  952   3.008   2.510   0.600 -0.3823  0.2429  0.7058
  318SOL    HW1  953   2.955   2.597   0.619 -1.3221 -1.7713 -1.8715
  318SOL    HW2  954   2.962   2.423   0.635  1.3508  1.6715 -2.5062
  319SOL     OW  955   0.227   1.610   2.531 -0.1538 -0.1713 -0.3359
  319SOL    HW1  956   0.296   1.534   2.538 -0.1498 -0.5561 -0.7581
  319SOL    HW2  957   0.280   1.691   2.548 -3.1982 -2.1360 -2.5608
  320SOL     OW  958   0.844   2.629   2.102 -0.3331 -0.3216 -0.2856
  320SOL    HW1  959   0.862   2.628   2.006  0.1527 -0.7838 -0.3271
  320SOL    HW2  960   0.758   2.579   2.118  0.8204  0.1981  2.0988
  321SOL     OW  961   1.031   2.621   0.041  0.0212 -0.6441  0.2576
  321SOL    HW1  962   1.121   2.604   0.088  1.0070 -4.6610 -2.1875
  321SOL    HW2  963   0.952   2.612   0.102  0.7752  0.3062 -1.2911
  322SOL     OW  964   2.593   1.390   2.100 -0.5868 -0.6685 -0.0327
  322SOL    HW1  965   2.551   1.427   2.186 -0.3917 -1.9124  3.4240
  322SOL    HW2  966   2.681   1.441   2.085 -0.4275 -0.5559 -0.2642
  323SOL     OW  967   2.313   0.730   0.485  0.3203 -0.3285 -0.2159
  323SOL    HW1  968   2.210   0.741   0.478 -2.5624  2.1148  0.8096
  323SOL    HW2  969   2.344   0.633   0.466  0.9973  0.5056 -1.3077
  324SOL     OW  970   0.477   2.620   0.063  0.2391 -0.5897  0.2554
  324SOL    HW1  971   0.436   2.541   0.018 -0.9997  0.2708  5.3528
  324SOL    HW2  972   0.492   2.697   3.089  1.3338 -0.2658  0.8049
  325SOL     OW  973   1.645   0.070   2.593  0.0234 -0.0677  0.0302
  325SOL    HW1  974   1.663   0.099   2.689 -1.6412 -0.2824  0.8145
  325SOL    HW2  975   1.734   0.036   2.548  3.1647 -0.5278  2.7980
  326SOL     OW  976   2.475   2.600   1.472  0.2528 -0.2258 -0.4828
  326SOL    HW1  977   2.400   2.541   1.504  0.2914  0.5063 -0.4223
  326SOL    HW2  978   2.436   2.690   1.443 -2.6679  0.5484  2.0914
  327SOL     OW  979   1.484   0.373   2.968  0.1312 -0.4739 -0.3371
  327SOL    HW1  980   1.416   0.434   3.017  0.8567  1.7560 -0.2725
  327SOL    HW2  981   1.581   0.390   3.000  0.7496 -1.2263  0.2387
  328SOL     OW  982   2.580   1.265   2.401  0.5900 -0.6523 -0.8181
  328SOL    HW1  983   2.561   1.366   2.398 -0.2963 -0.8508  0.6595
  328SOL    HW2  984   2.500   1.206   2.398 -0.7947 -1.0825  2.3573
  329SOL     OW  985   1.665   0.031   2.011  0.1894 -0.1950  0.1213
  329SOL    HW1  986   1.698   0.074   1.926 -0.5425  0.9665  0.2353
  329SOL    HW2  987   1.565   0.035   2.009  0.6298  0.5008 -1.5611
  330SOL     OW  988   2.351   1.457   1.579 -0.6493 -0.5703  0.0351
  330SOL    HW1  989   2.295   1.460   1.493 -1.6951  2.0990  1.5368
  330SOL    HW2  990   2.390   1.362   1.589  2.6661 -3.3396 -0.3300
  331SOL     OW  991   0.330   1.296   1.395 -0.1263 -0.3441 -0.1889
  331SOL    HW1  992   0.374   1.346   1.313  1.8895  2.1502  0.4208
  331SOL    HW2  993   0.379   1.310   1.482 -1.9425  0.5111 -2.3470
  332SOL     OW  994   0.754   0.369   1.136  0.2931  0.0721  0.1205
  332SOL    HW1  995   0.805   0.376   1.048  1.1754 -1.1706  0.4335
  332SOL    HW2  996   0.806   0.424   1.210  0.6282  0.4751  1.2958
  333SOL     OW  997   2.273   2.610   1.803  0.1175  0.2764 -0.5907
  333SOL    HW1  998   2.377   2.608   1.803 -2.6020 -0.1728 -0.1051
  333SOL    HW2  999   2.235   2.545   1.872  0.6860 -0.4849 -0.3081
  334SOL     OW 1000   0.958   1.582   1.275  0.2233  0.2358  0.2051
  334SOL    HW1 1001   0.874   1.633   1.307 -0.3623 -0.3323  1.6742
  334SOL    HW2 1002   1.031   1.623   1.328 -0.0220  1.4974 -1.4043
  335SOL     OW 1003   0.570   2.804   2.943 -0.3939  0.9895 -0.2923
  335SOL    HW1 1004   0.662   2.823   2.982 -0.6358  0.4492  1.3337
  335SOL    HW2 1005   0.555   2.846   2.852 -0.3665 -0.8149  0.3555
  336SOL     OW 1006   2.854   2.812   1.878 -0.5400 -0.2184  0.8411
  336SOL    HW1 1007   2.858   2.908   1.843  0.5077 -2.2923  0.6196
  336SOL    HW2 1008   2.797   2.761   1.810 -1.1841 -0.6584 -0.8514
  337SOL     OW 1009   2.640   1.835   0.598  0.0451 -0.4268  0.0138
  337SOL    HW1 1010   2.552   1.795   0.635  0.1796 -0.8625 -0.1445
  337SOL    HW2 1011   2.647   1.844   0.498 -0.9434 -2.0500  4.1304
  338SOL     OW 1012   1.060   2.155   1.182  0.8776  0.7088 -0.1383
  338SOL    HW1 1013   1.016   2.062   1.179 -0.7242  0.8345 -0.9846
  338SOL    HW2 1014   0.989   2.231   1.196  3.4268  1.6169  2.7416
  339SOL     OW 1015   0.084   0.588   2.316  0.2151  0.3509  0.3398
  339SOL    HW1 1016   0.014   0.576   2.241 -0.1557  0.5016  1.2860
  339SOL    HW2 1017   0.085   0.684   2.356 -0.0863  1.2037 -3.4080
  340SOL     OW 1018   1.602   3.058   1.107  0.1595  0.0936 -0.0815
  340SOL    HW1 1019   1.566   3.087   1.197 -0.7073 -0.3917  0.6301
  340SOL    HW2 1020   1.584   2.960   1.095  0.4163  2.0151 -1.9823
  341SOL     OW 1021   1.689   1.781   1.311 -0.2854 -0.0208 -0.0931
  341SOL    HW1 1022   1.648   1.732   1.392 -2.2867  0.9604  1.0511
  341SOL    HW2 1023   1.646   1.748   1.222 -0.9895 -1.1949 -5.6844
  342SOL     OW 1024   0.358   1.226   0.921  0.1790 -0.3353  0.2944
  342SOL    HW1 1025   0.257   1.232   0.917  1.0951  0.0659  0.1245
  342SOL    HW2 1026   0.394   1.248   0.829 -0.1036 -0.0241 -1.2561
  343SOL     OW 1027   2.271   0.311   1.386 -0.3002 -0.0814 -0.3110
  343SOL    HW1 1028   2.361   0.346   1.368  0.2896  1.7696  1.4150
  343SOL    HW2 1029   2.217   0.311   1.298  1.1343 -2.3219  0.8882
  344SOL     OW 1030   2.195   2.351   0.994  0.0842  0.0453  0.3168
  344SOL    HW1 1031   2.201   2.251   1.013  2.1508  0.0647  1.7554
  344SOL    HW2 1032   2.285   2.390   1.021  1.4499  2.2467  1.7610
  345SOL     OW 1033   2.702   2.326   2.906  0.3137 -0.0263 -0.0844
  345SOL    HW1 1034   2.748   2.414   2.925  1.4616  4.3153 -0.8833
  345SOL    HW2 1035   2.606   2.320   2.937  3.8457 -1.5946 -0.8773
  346SOL     OW 1036   0.061   1.259   0.752  0.2277 -0.2429  0.0444
  346SOL    HW1 1037   0.047   1.333   0.820  2.3728 -0.8472 -1.5400
  346SOL    HW2 1038   0.043   1.295   0.659 -0.0598  1.3568  0.7913
  347SOL     OW 1039   1.932   2.800   0.873 -0.2627  0.5912  0.0641
  347SOL    HW1 1040   1.874   2.726   0.898  0.0030  1.5948  0.4905
  347SOL    HW2 1041   2.025   2.798   0.916  0.0515 -0.1547  1.9627
  348SOL     OW 1042   1.270   1.201   2.485  0.0710 -0.2503  0.5290
  348SOL    HW1 1043   1.290   1.133   2.411 -0.8437  1.1682 -0.8638
  348SOL    HW2 1044   1.326   1.288   2.473  0.2757  0.3781 -1.0535
  349SOL     OW 1045   2.354   1.099   2.512  0.3346 -0.9518  0.2291
  349SOL    HW1 1046   2.272   1.043   2.516  1.7673 -0.8259  0.3244
  349SOL    HW2 1047   2.425   1.032   2.522 -0.2058  1.0871  0.2314
  350SOL     OW 1048   3.012   1.892   1.115  0.0734  0.2203 -1.3281
  350SOL    HW1 1049   2.966   1.801   1.121 -1.4533 -2.6958 -1.1012
  350SOL    HW2 1050   3.074   1.892   1.035 -0.3367  1.3833 -0.1183
  351SOL     OW 1051   0.670   0.358   2.506  0.5027  0.2722 -0.0948
  351SOL    HW1 1052   0.732   0.328   2.581 -0.4304 -3.4551  2.1656
  351SOL    HW2 1053   0.708   0.447   2.475  0.0210  1.0703 -0.3394
  352SOL     OW 1054   0.738   2.630   1.609  0.1616 -0.2967  0.2031
  352SOL    HW1 1055   0.774   2.724   1.618 -1.1906 -0.9412  0.7473
  352SOL    HW2 1056   0.702   2.612   1.516  0.4551 -0.9475  1.0136
  353SOL     OW 1057   0.595   1.250   2.182  0.2354 -0.7489 -0.6471
  353SOL    HW1 1058   0.655   1.228   2.263  1.7401 -0.8195  1.0384
  353SOL    HW2 1059   0.524   1.315   2.219 -3.5384  2.0210  1.3319
  354SOL     OW 1060   1.946   1.230   0.871 -0.2906 -0.2279  0.4230
  354SOL    HW1 1061   1.856   1.279   0.890  0.0595  0.6321  1.0927
  354SOL    HW2 1062   1.933   1.169   0.790 -2.0137 -0.7342 -1.6987
  355SOL     OW 1063   2.484   0.348   0.674 -0.3612  0.7954 -0.5100
  355SOL    HW1 1064   2.466   0.411   0.596  1.9811 -0.0250 -3.3293
  355SOL    HW2 1065   2.547   0.276   0.634 -1.2955  2.2873 -0.4782
  356SOL     OW 1066   3.026   1.128   2.574 -0.0669 -0.0910 -0.3639
  356SOL    HW1 1067   3.060   1.187   2.498 -1.5279  1.0106  1.5814
  356SOL    HW2 1068   3.061   1.035   2.561 -0.3276 -2.2223  0.1377
  357SOL     OW 1069   0.388   2.868   1.612 -0.4400  0.1779  0.0923
  357SOL    HW1 1070   0.302   2.925   1.619 -2.2041  0.4235 -0.4934
  357SOL    HW2 1071   0.473   2.929   1.628  2.7299 -1.2524 -0.5420
  358SOL     OW 1072   2.831   1.187   2.768  0.3778  0.1905  0.6971
  358SOL    HW1 1073   2.907   1.122   2.745  3.0239  0.3664 -0.0917
  358SOL    HW2 1074   2.809   1.243   2.684  1.4571  0.1400 -0.2877
  359SOL     OW 1075   2.676   2.600   0.002  0.0010  0.7232 -0.1489
  359SOL    HW1 1076   2.759   2.646   0.030 -0.9634 -3.4123  1.9869
  359SOL    HW2 1077   2.651   2.619   2.994  0.0933  0.8873 -0.8856
  360SOL     OW 1078   1.544   1.524   1.256  0.2854  0.3708 -0.0622
  360SOL    HW1 1079   1.548   1.436   1.211 -0.8520  2.3299 -0.8500
  360SOL    HW2 1080   1.512   1.596   1.191  0.9978  0.2962  1.4193
  361SOL     OW 1081   2.044   2.693   1.293 -0.1987 -0.3917 -0.6288
  361SOL    HW1 1082   2.087   2.787   1.313  1.7280  2.5469  1.5918
  361SOL    HW2 1083   2.090   2.654   1.212 -2.1014 -1.2768  0.1644
  362SOL     OW 1084   1.524   1.756   1.076  0.1302  0.0825  0.7221
  362SOL    HW1 1085   1.438   1.789   1.118  1.2701 -0.2244 -1.9918
  362SOL    HW2 1086   1.516   1.728   0.983 -0.9287 -1.4337  1.7922
  363SOL     OW 1087   2.723   2.060   2.917  0.1267  0.1809 -0.0301
  363SOL    HW1 1088   2.688   2.028   2.829  1.3392  1.2307  0.2196
  363SOL    HW2 1089   2.706   2.160   2.925  1.3409 -0.5232 -2.6316
  364SOL     OW 1090   2.300   0.388   1.651  0.0629  0.1754 -0.6611
  364SOL    HW1 1091   2.259   0.374   1.557 -0.5499  0.3287  0.5685
  364SOL    HW2 1092   2.377   0.324   1.668 -0.8478 -0.5224  5.4203
  365SOL     OW 1093   2.787   2.642   1.104  0.0834 -0.1065  0.5448
  365SOL    HW1 1094   2.847   2.719   1.070  1.1710  0.4117 -0.6615
  365SOL    HW2 1095   2.752   2.583   1.028  0.7501 -2.5405  0.2139
  366SOL     OW 1096   2.849   1.306   0.165 -0.4194  1.0589  0.1636
  366SOL    HW1 1097   2.840   1.345   0.070 -2.0754  1.9166 -1.1177
  366SOL    HW2 1098   2.804   1.214   0.163  1.1252 -1.0458 -2.3199
  367SOL     OW 1099   2.414   2.272   3.000 -0.2838 -0.3819  0.0274
  367SOL    HW1 1100   2.344   2.312   2.936 -0.9819  0.5791 -1.7327
  367SOL    HW2 1101   2.403   2.310   0.002 -1.5981 -0.0831  1.0610
  368SOL     OW 1102   2.653   1.911   1.301 -0.3336 -0.6583 -0.1362
  368SOL    HW1 1103   2.567   1.916   1.353  3.3674 -0.4763 -0.6200
  368SOL    HW2 1104   2.635   1.878   1.202  0.2238  0.3596 -1.9210
  369SOL     OW 1105   0.747   0.382   0.725 -0.1949  0.3793  0.0900
  369SOL    HW1 1106   0.664   0.377   0.786  1.3960 -0.0552 -1.3629
  369SOL    HW2 1107   0.727   0.442   0.649  0.8838 -0.3025  2.0538
  370SOL     OW 1108   0.919   0.710   1.212 -0.0557  0.3493  0.1292
  370SOL    HW1 1109   0.895   0.809   1.221 -1.4481  1.3664  0.0151
  370SOL    HW2 1110   0.872   0.665   1.130 -1.7875  0.6367 -0.5768
  371SOL     OW 1111   2.485   1.821   0.246  0.1090 -0.1342  0.1572
  371SOL    HW1 1112   2.568   1.856   0.293  0.3393  1.9506  0.5729
  371SOL    HW2 1113   2.433   1.904   0.218 -1.7480  0.3716 -0.8626
  372SOL     OW 1114   0.324   0.966   2.574 -0.2880 -0.4502 -0.6705
  372SOL    HW1 1115   0.354   0.933   2.669 -0.6320  1.7422  2.0615
  372SOL    HW2 1116   0.275   1.052   2.586 -1.4350 -2.0113 -1.0501
  373SOL     OW 1117   2.854   0.992   0.425 -0.1909  0.1660  0.2419
  373SOL    HW1 1118   2.908   1.054   0.489  2.2119  2.3028  1.8604
  373SOL    HW2 1119   2.913   0.915   0.392  0.4373 -1.8625 -0.6302
  374SOL     OW 1120   0.675   2.315   3.046  0.0755 -0.1982 -0.2426
  374SOL    HW1 1121   0.706   2.320   0.052  1.6497  0.6623 -2.8226
  374SOL    HW2 1122   0.675   2.408   3.005 -0.8017 -0.3901 -1.2198
  375SOL     OW 1123   1.207   0.758   0.055 -0.9456 -0.0303 -0.1174
  375SOL    HW1 1124   1.149   0.754   3.063  1.3421 -0.2646 -0.6722
  375SOL    HW2 1125   1.146   0.746   0.135 -0.5453 -1.2122 -0.3995
  376SOL     OW 1126   0.039   2.790   1.770  0.1309  0.4314 -0.0959
  376SOL    HW1 1127   3.040   2.767   1.807 -0.8400  0.8150  1.3187
  376SOL    HW2 1128   0.042   2.785   1.667  3.7620 -1.1506 -0.2494
  377SOL     OW 1129   0.323   1.873   2.451 -0.8558 -0.4089  0.4378
  377SOL    HW1 1130   0.249   1.926   2.495 -0.7174 -0.7185 -2.3946
  377SOL    HW2 1131   0.288   1.842   2.362  1.0830  2.9833 -1.5310
  378SOL     OW 1132   1.693   0.907   0.499 -0.0703 -0.6204 -0.8497
  378SOL    HW1 1133   1.636   0.990   0.485 -0.3262  0.2169 -2.7493
  378SOL    HW2 1134   1.689   0.870   0.594 -0.3875 -1.3070  0.8655
  379SOL     OW 1135   1.322   1.412   0.086  0.3134 -0.3325 -0.9017
  379SOL    HW1 1136   1.220   1.430   0.102  0.2912  0.1524  0.9283
  379SOL    HW2 1137   1.355   1.462   0.006 -0.4531  1.0556  1.1723
  380SOL     OW 1138   2.312   2.360   1.954  0.0669 -0.5550 -0.0538
  380SOL    HW1 1139   2.389   2.362   1.882  1.4524 -1.4324  0.0555
  380SOL    HW2 1140   2.255   2.281   1.936  0.9205  1.5713 -0.3160
  381SOL     OW 1141   0.108   0.894   2.124 -0.3631  0.0689 -0.6013
  381SOL    HW1 1142   0.051   0.883   2.038 -1.5990 -2.8729 -1.5995
  381SOL    HW2 1143   0.209   0.877   2.100  1.2683  1.2362 -0.1398
  382SOL     OW 1144   2.603   2.388   0.157  0.1154 -0.2153 -0.2338
  382SOL    HW1 1145   2.623   2.464   0.092 -1.7374  3.8643 -0.6381
  382SOL    HW2 1146   2.546   2.418   0.228  3.7809 -1.8437 -0.0270
  383SOL     OW 1147   1.736   1.162   2.045 -0.1580  0.0484  0.3418
  383SOL    HW1 1148   1.676   1.132   1.969 -0.8784 -2.4905  3.2878
  383SOL    HW2 1149   1.769   1.256   2.035  1.0125  0.2155 -0.4951
  384SOL     OW 1150   0.664   2.247   2.352  0.5953 -0.3162 -0.1416
  384SOL    HW1 1151   0.722   2.201   2.283  1.8691  1.9962 -0.9047
  384SOL    HW2 1152   0.573   2.199   2.368 -2.9217 -1.1880  1.4890
  385SOL     OW 1153   2.626   2.096   0.591 -0.2295 -0.0341 -0.5866
  385SOL    HW1 1154   2.650   1.994   0.593 -0.3075 -0.2468 -1.1326
  385SOL    HW2 1155   2.600   2.127   0.686  0.5907 -0.8076  0.5664
  386SOL     OW 1156   1.686   0.768   2.960 -0.0460  0.5954  0.2571
  386SOL    HW1 1157   1.630   0.853   2.965 -3.0507 -0.2641  1.2362
  386SOL    HW2 1158   1.670   0.708   3.043 -2.7663  2.0514  2.8465
  387SOL     OW 1159   0.428   0.627   1.553  0.4715  0.5195  0.4183
  387SOL    HW1 1160   0.380   0.600   1.467 -1.3983  1.2320  3.0220
  387SOL    HW2 1161   0.385   0.578   1.634  0.7475  0.8845  0.3096
  388SOL     OW 1162   0.059   0.755   1.483 -0.0074 -0.8977  0.0386
  388SOL    HW1 1163   0.076   0.678   1.553  1.6849 -3.0947  3.2666
  388SOL    HW2 1164   0.011   0.828   1.530  5.7188 -2.0647 -2.1034
  389SOL     OW 1165   1.626   1.338   2.633  0.3358 -0.8874 -0.4769
  389SOL    HW1 1166   1.577   1.317   2.717  1.4231  0.4630 -1.1374
  389SOL    HW2 1167   1.559   1.365   2.564 -0.5706 -1.2857  1.8706
  390SOL     OW 1168   1.752   2.160   0.337  0.3847  0.2237  0.0582
  390SOL    HW1 1169   1.740   2.210   0.250  0.1526 -2.3200  3.2634
  390SOL    HW2 1170   1.817   2.084   0.325 -1.8991  3.3402  0.6008
  391SOL     OW 1171   1.086   2.552   0.934  0.0269  0.0449  0.1125
  391SOL    HW1 1172   0.983   2.549   0.955  0.1045 -2.4573  0.7233
  391SOL    HW2 1173   1.139   2.504   1.004  2.0931  1.1110 -2.3226
  392SOL     OW 1174   2.687   2.742   1.360 -0.7451  0.2742  0.5245
  392SOL    HW1 1175   2.720   2.701   1.271 -0.5323 -0.2315 -3.7243
  392SOL    HW2 1176   2.607   2.699   1.402  0.2315 -3.0724 -0.8365
  393SOL     OW 1177   1.942   2.411   2.578  0.4976 -0.1371  0.3872
  393SOL    HW1 1178   1.933   2.422   2.676 -0.3741 -1.1469 -1.4203
  393SOL    HW2 1179   1.945   2.314   2.552  0.3793 -1.1766  0.7100
  394SOL     OW 1180   0.524   2.880   2.695  0.2880  0.1889  0.1581
  394SOL    HW1 1181   0.435   2.906   2.649 -0.0385  3.4711  0.4444
  394SOL    HW2 1182   0.590   2.870   2.619  0.1232  0.7732  0.6360
  395SOL     OW 1183   0.519   1.095   1.346  0.2203  0.5388  0.5211
  395SOL    HW1 1184   0.513   1.013   1.404 -2.3400  2.3769 -2.3012
  395SOL    HW2 1185   0.436   1.151   1.362 -1.0075 -0.6243  0.3280
  396SOL     OW 1186   1.912   1.340   2.470 -0.1157  0.2170  0.3672
  396SOL    HW1 1187   1.924   1.276   2.394 -0.2020 -1.8588  1.0427
  396SOL    HW2 1188   1.839   1.314   2.534  0.9405 -0.2753  0.3844
  397SOL     OW 1189   2.640   0.277   2.617  0.4545 -0.0594 -0.2201
  397SOL    HW1 1190   2.665   0.331   2.539  2.8646 -1.7410  2.1607
  397SOL    HW2 1191   2.718   0.216   2.647  2.3463 -1.7549  0.1995
  398SOL     OW 1192   1.648   0.234   0.920  0.1464  0.1216 -0.2513
  398SOL    HW1 1193   1.740   0.203   0.883  0.2495  1.5301  1.6980
  398SOL    HW2 1194   1.584   0.154   0.910 -2.6789  1.8512  0.3531
  399SOL     OW 1195   2.346   2.857   1.677  0.7028  0.1477  0.9696
  399SOL    HW1 1196   2.372   2.847   1.579  1.8904  0.1479 -1.5995
  399SOL    HW2 1197   2.320   2.769   1.716  1.4735  1.7570  1.6163
  400SOL     OW 1198   3.078   2.294   1.885 -0.1750  0.1260  0.1710
  400SOL    HW1 1199   3.001   2.224   1.878 -3.6827 -2.1699  0.0565
  400SOL    HW2 1200   0.051   2.305   1.807 -1.3932  0.7101  0.7519
  401SOL     OW 1201   0.702   0.361   0.364 -0.1424 -0.2753 -0.6542
  401SOL    HW1 1202   0.672   0.263   0.370  1.7783 -2.8225 -0.5242
  401SOL    HW2 1203   0.661   0.424   0.430  0.9661 -2.2008 -2.2950
  402SOL     OW 1204   0.470   2.601   1.635 -0.0991 -0.8304  0.4341
  402SOL    HW1 1205   0.574   2.593   1.632  0.8179 -3.2176  1.6086
  402SOL    HW2 1206   0.443   2.701   1.630 -2.1261  3.6247 -1.5672
  403SOL     OW 1207   0.119   1.147   1.891  0.1608  0.9900  0.5017
  403SOL    HW1 1208   0.188   1.130   1.817  1.8494 -0.2660 -4.0653
  403SOL    HW2 1209   0.047   1.073   1.897  0.2406 -0.1886  0.0568
  404SOL     OW 1210   2.761   2.410   2.165 -0.6736  0.1992  0.3867
  404SOL    HW1 1211   2.844   2.453   2.124 -3.2869 -0.1653 -2.3038
  404SOL    HW2 1212   2.695   2.375   2.097 -0.8010  0.4017 -0.5526
  405SOL     OW 1213   2.382   0.277   2.489 -0.0082 -0.1831 -0.1148
  405SOL    HW1 1214   2.362   0.197   2.548  1.1228  0.1459 -0.3763
  405SOL    HW2 1215   2.481   0.299   2.505  0.5249 -0.0065  0.6281
  406SOL     OW 1216   1.625   2.685   0.570 -0.4444  0.6553 -0.0835
  406SOL    HW1 1217   1.564   2.690   0.486 -2.0462  0.6526 -0.4948
  406SOL    HW2 1218   1.632   2.584   0.606 -2.1869 -1.0039  0.1966
  407SOL     OW 1219   1.889   1.686   0.343  0.9319  0.6433 -0.3770
  407SOL    HW1 1220   1.911   1.659   0.439 -0.0120  0.2116  1.1328
  407SOL    HW2 1221   1.807   1.632   0.310 -3.1053 -1.3674  0.6102
  408SOL     OW 1222   0.366   0.696   2.069  0.0783  0.4127  0.6881
  408SOL    HW1 1223   0.381   0.625   2.139 -2.1763  0.2458  2.0064
  408SOL    HW2 1224   0.451   0.750   2.061  0.9827 -1.4518  1.5931
  409SOL     OW 1225   2.794   1.358   2.993 -0.4483 -0.2928 -0.0273
  409SOL    HW1 1226   2.777   1.461   2.972 -1.3188  2.4090 -2.0880
  409SOL    HW2 1227   2.803   1.287   2.919  1.0949 -0.8750  1.5554
  410SOL     OW 1228   2.487   1.235   1.138  0.1591 -0.1404 -0.2454
  410SOL    HW1 1229   2.417   1.312   1.147  0.3002  2.2020 -1.6593
  410SOL    HW2 1230   2.579   1.255   1.177 -1.5206  0.3417  1.1283
  411SOL     OW 1231   2.963   0.728   0.361 -0.2465 -0.1146 -0.0925
  411SOL    HW1 1232   2.993   0.728   0.262 -0.0490 -2.3798  1.8611
  411SOL    HW2 1233   2.888   0.661   0.377  2.5594  0.0087  0.5850
  412SOL     OW 1234   1.772   0.264   0.184  0.1847 -0.1051  0.1275
  412SOL    HW1 1235   1.684   0.294   0.226  1.2061 -2.8384 -0.4804
  412SOL    HW2 1236   1.843   0.302   0.241  2.2486  0.1190 -0.1496
  413SOL     OW 1237   1.230   0.397   1.887  0.2008 -0.2476  0.4622
  413SOL    HW1 1238   1.304   0.359   1.951  0.5261  1.7290 -1.9818
  413SOL    HW2 1239   1.282   0.466   1.830  2.6581  1.3949  1.5975
  414SOL     OW 1240   0.363   1.166   0.211 -0.0239  0.2247 -0.1213
  414SOL    HW1 1241   0.380   1.064   0.197  1.4169  0.3922  1.4509
  414SOL    HW2 1242   0.320   1.209   0.135  3.2897  1.9975  2.2393
  415SOL     OW 1243   0.071   1.405   0.515 -0.1481  0.3603  0.0782
  415SOL    HW1 1244   0.076   1.504   0.533 -3.4945 -0.0095 -0.7779
  415SOL    HW2 1245   0.035   1.398   0.423 -0.4504 -1.3344 -0.8988
  416SOL     OW 1246   2.078   1.136   0.159 -0.4494  0.3153  0.1322
  416SOL    HW1 1247   2.058   1.042   0.131  1.5121  2.8486  0.4762
  416SOL    HW2 1248   2.105   1.139   0.257  0.0703  1.5880 -0.6998
  417SOL     OW 1249   2.674   2.931   3.068  0.4679  0.5358 -0.1606
  417SOL    HW1 1250   2.765   2.885   3.075  0.5935  0.9623  0.9249
  417SOL    HW2 1251   2.621   2.900   0.058  1.0950  0.6613  1.6647
  418SOL     OW 1252   2.646   0.759   0.174  0.0633  0.3345 -0.1315
  418SOL    HW1 1253   2.552   0.771   0.190  3.3845 -0.6069  2.3706
  418SOL    HW2 1254   2.690   0.726   0.256 -1.9715  3.4489 -0.3031
  419SOL     OW 1255   0.947   0.316   0.475 -0.0205 -0.0854 -0.4243
  419SOL    HW1 1256   0.852   0.319   0.451  2.4063  2.1908  0.2026
  419SOL    HW2 1257   1.002   0.327   0.390 -0.3337  0.6730 -1.0234
  420SOL     OW 1258   0.656   1.078   0.690 -0.2852  0.0582 -0.0827
  420SOL    HW1 1259   0.594   1.010   0.642 -6.2837 -3.1021 -1.5854
  420SOL    HW2 1260   0.668   1.055   0.792  0.3382  1.9723 -0.0531
  421SOL     OW 1261   0.411   1.760   0.556 -0.5001 -0.0386 -0.5694
  421SOL    HW1 1262   0.510   1.758   0.530  0.7425 -1.1072  0.9337
  421SOL    HW2 1263   0.340   1.740   0.488  0.8315 -1.8794  2.3949
  422SOL     OW 1264   2.951   0.333   1.505 -0.2706 -0.2162 -0.1237
  422SOL    HW1 1265   2.873   0.393   1.474  1.9528 -2.1798  0.8660
  422SOL    HW2 1266   2.950   0.312   1.607  1.5249  0.5262  0.3357
  423SOL     OW 1267   1.919   2.013   0.662 -0.0265 -0.2885  0.0996
  423SOL    HW1 1268   1.997   2.066   0.704  0.6888  0.0004 -1.2482
  423SOL    HW2 1269   1.953   1.978   0.573 -0.8078  0.0803 -1.3460
  424SOL     OW 1270   1.622   1.612   2.900  0.1597  0.1370 -0.0334
  424SOL    HW1 1271   1.604   1.668   2.983  0.8830 -2.2702 -0.0662
  424SOL    HW2 1272   1.721   1.588   2.903  0.6023 -0.6244 -2.4597
  425SOL     OW 1273   0.459   2.748   2.019  1.5528  0.4413  0.1866
  425SOL    HW1 1274   0.484   2.709   2.110  1.5037 -0.3183 -0.7223
  425SOL    HW2 1275   0.505   2.838   1.999 -3.3830  1.3889  0.1060
  426SOL     OW 1276   2.225   2.916   2.978  0.4635  0.3251  0.7058
  426SOL    HW1 1277   2.320   2.920   2.955  0.5503 -3.1286  1.6409
  426SOL    HW2 1278   2.161   2.887   2.896 -0.9778 -0.2289 -0.2357
  427SOL     OW 1279   0.460   1.470   2.237 -0.1605  0.4295 -0.5154
  427SOL    HW1 1280   0.513   1.516   2.163 -1.0311 -0.2845 -0.2096
  427SOL    HW2 1281   0.375   1.521   2.257  0.8663 -1.3831  1.5991
  428SOL     OW 1282   2.179   1.433   2.467 -0.3109 -0.1636 -0.1716
  428SOL    HW1 1283   2.216   1.341   2.440 -0.3699  1.1984  0.9807
  428SOL    HW2 1284   2.084   1.418   2.500 -0.0103  0.2481 -0.5233
  429SOL     OW 1285   2.654   0.166   0.558  0.2539 -0.1093 -0.0838
  429SOL    HW1 1286   2.732   0.199   0.502  1.0923 -0.4186 -0.9223
  429SOL    HW2 1287   2.649   0.065   0.551  1.7625  1.5082 -0.0511
  430SOL     OW 1288   1.831   1.955   2.330 -0.1272  0.1478  0.6077
  430SOL    HW1 1289   1.899   1.911   2.268 -1.3300  0.2733  0.3580
  430SOL    HW2 1290   1.778   1.880   2.375  1.9267 -0.3201 -0.3461
  431SOL     OW 1291   2.849   1.599   1.677  0.0375 -0.4580 -0.1695
  431SOL    HW1 1292   2.806   1.672   1.614  1.2768  2.1848 -2.0606
  431SOL    HW2 1293   2.788   1.521   1.698  1.2445  2.3881  1.8170
  432SOL     OW 1294   0.996   2.413   1.891 -0.2652  0.5292 -0.6099
  432SOL    HW1 1295   1.073   2.350   1.896 -5.1587  1.2833 -0.6118
  432SOL    HW2 1296   0.909   2.358   1.899 -0.6477 -0.6560 -1.6766
  433SOL     OW 1297   1.115   0.065   0.529 -0.9884 -0.1621 -0.4139
  433SOL    HW1 1298   1.179   0.092   0.605 -1.1741  2.1428 -0.3732
  433SOL    HW2 1299   1.021   0.081   0.559  0.2636 -0.9644  0.6228
  434SOL     OW 1300   0.288   2.319   2.029 -0.1315 -0.2462 -0.1173
  434SOL    HW1 1301   0.271   2.375   1.950  1.1933  0.2328  2.6843
  434SOL    HW2 1302   0.369   2.261   2.033 -2.2766  0.7979  0.7422
  435SOL     OW 1303   0.664   1.315   0.553  0.2024  0.3784 -0.0340
  435SOL    HW1 1304   0.694   1.230   0.596  2.6606 -0.7668 -0.8266
  435SOL    HW2 1305   0.652   1.294   0.456 -1.5277 -0.3406 -0.4518
  436SOL     OW 1306   0.247   1.475   1.789  0.1003  0.6568  0.2482
  436SOL    HW1 1307   0.222   1.442   1.883 -1.0829 -1.4022 -1.3495
  436SOL    HW2 1308   0.158   1.496   1.739 -3.6078 -0.2606  0.4740
  437SOL     OW 1309   1.196   0.616   0.433  0.0322  0.3752  0.2593
  437SOL    HW1 1310   1.152   0.581   0.519 -1.9442 -2.9569  1.6368
  437SOL    HW2 1311   1.139   0.682   0.378 -0.1139  3.0946 -2.8993
  438SOL     OW 1312   0.879   1.900   1.176  0.1003  0.5816 -0.6325
  438SOL    HW1 1313   0.843   1.939   1.090 -1.0420  0.7290 -0.3209
  438SOL    HW2 1314   0.938   1.826   1.147  0.9628  3.3080 -4.5475
  439SOL     OW 1315   1.379   1.934   2.396  0.0622  0.3230 -0.7415
  439SOL    HW1 1316   1.309   1.893   2.459 -1.4923  0.5041 -1.1467
  439SOL    HW2 1317   1.476   1.911   2.410  0.4439 -0.0154 -1.1635
  440SOL     OW 1318   1.480   0.347   1.519  0.0986  0.5533 -0.2359
  440SOL    HW1 1319   1.522   0.309   1.604  1.5555  0.9388  1.2622
  440SOL    HW2 1320   1.544   0.399   1.471 -2.6112 -5.2178  2.0310
  441SOL     OW 1321   0.626   0.040   1.373  0.1874 -0.2208  0.0503
  441SOL    HW1 1322   0.570   3.050   1.347  0.9564 -1.4356 -2.3421
  441SOL    HW2 1323   0.581   0.085   1.449  0.4806 -0.8140  0.5820
  442SOL     OW 1324   2.315   2.006   0.838 -0.2162  0.2402 -0.3219
  442SOL    HW1 1325   2.270   2.008   0.926 -1.8672 -3.3533 -2.8486
  442SOL    HW2 1326   2.260   2.050   0.767 -1.0273 -0.6458  0.0272
  443SOL     OW 1327   2.711   0.404   2.359 -0.2528 -0.1643  0.4871
  443SOL    HW1 1328   2.628   0.376   2.310  0.7329 -0.5022  2.2587
  443SOL    HW2 1329   2.796   0.363   2.317  1.1855 -2.3939  2.4033
  444SOL     OW 1330   1.948   1.174   2.247  0.5358 -0.5087 -0.7546
  444SOL    HW1 1331   1.890   1.156   2.166 -0.9880 -2.0872 -1.7409
  444SOL    HW2 1332   2.024   1.109   2.254 -1.5472 -0.2240 -0.6064
  445SOL     OW 1333   2.441   1.952   1.461  0.1421 -0.0508 -0.5646
  445SOL    HW1 1334   2.403   2.038   1.412  0.1248  1.4726 -0.9668
  445SOL    HW2 1335   2.474   1.972   1.558 -0.5154  0.1020  0.7436
  446SOL     OW 1336   0.432   0.828   0.638 -0.4989  0.5687 -0.3909
  446SOL    HW1 1337   0.426   0.729   0.619 -2.2440  1.6175  0.8517
  446SOL    HW2 1338   0.340   0.866   0.611  1.9220 -0.7142 -1.3495
  447SOL     OW 1339   0.883   1.972   0.885  0.2840  0.3596 -0.6039
  447SOL    HW1 1340   0.816   2.048   0.906  0.1605 -1.0515  2.5848
  447SOL    HW2 1341   0.860   1.902   0.814  2.2172  1.5568 -0.4571
  448SOL     OW 1342   1.091   1.027   1.660 -0.3422 -0.1594 -0.4287
  448SOL    HW1 1343   1.016   1.099   1.661 -2.7002  0.4146 -1.0532
  448SOL    HW2 1344   1.045   0.933   1.666 -1.1020 -1.7197 -1.1280
  449SOL     OW 1345   0.172   1.768   3.063 -0.1819 -0.3797  0.3044
  449SOL    HW1 1346   0.112   1.686   3.076  0.7347  0.9856 -3.0564
  449SOL    HW2 1347   0.169   1.822   0.055 -0.7288  0.5663 -2.1333
  450SOL     OW 1348   2.456   2.450   2.185 -0.0433 -0.0551 -0.4583
  450SOL    HW1 1349   2.400   2.399   2.118 -0.4390  0.4736  0.4571
  450SOL    HW2 1350   2.521   2.389   2.228 -0.8025  0.5399  2.1823
  451SOL     OW 1351   2.167   0.424   2.009  0.2820 -0.1171 -0.6530
  451SOL    HW1 1352   2.144   0.336   1.964 -0.6732  0.7549 -1.4300
  451SOL    HW2 1353   2.118   0.499   1.964  0.6166 -0.0167 -3.2493
  452SOL     OW 1354   0.797   2.771   1.170 -0.7225  0.3359  0.6021
  452SOL    HW1 1355   0.806   2.829   1.083  0.5133  0.2360 -1.1666
  452SOL    HW2 1356   0.871   2.794   1.238 -0.0201 -2.3199 -1.0644
  453SOL     OW 1357   1.074   1.255   1.025  0.3634 -0.4258  1.0514
  453SOL    HW1 1358   1.047   1.354   1.028 -1.5828  1.2552 -0.6801
  453SOL    HW2 1359   1.015   1.191   1.074  1.4761  1.9707  0.4018
  454SOL     OW 1360   0.109   1.018   0.815  0.2786  0.0429 -0.3754
  454SOL    HW1 1361   0.084   0.997   0.912 -1.2192 -0.3610  2.3841
  454SOL    HW2 1362   0.086   1.113   0.787  1.7613  2.0578 -0.7735
  455SOL     OW 1363   0.368   0.033   0.238 -0.1231 -0.1673 -0.3584
  455SOL    HW1 1364   0.382   0.008   0.141  0.3978  0.5963 -1.9257
  455SOL    HW2 1365   0.344   0.132   0.252  1.2104  1.9265  2.3725
  456SOL     OW 1366   2.531   2.436   0.715 -0.2264 -0.7150 -0.3052
  456SOL    HW1 1367   2.514   2.338   0.739 -0.1678  0.6675  1.0910
  456SOL    HW2 1368   2.444   2.488   0.714  0.7307 -0.5115 -0.7831
  457SOL     OW 1369   1.104   3.028   2.744  0.1007  0.3910  0.7040
  457SOL    HW1 1370   1.158   2.950   2.767 -1.3687  0.9897 -0.4450
  457SOL    HW2 1371   1.158   0.020   2.718  1.8915  4.0742  1.0311
  458SOL     OW 1372   2.767   2.624   0.322  0.2640  0.3691 -0.6051
  458SOL    HW1 1373   2.692   2.575   0.368  3.7168  2.9128  0.8515
  458SOL    HW2 1374   2.849   2.568   0.310 -2.2497  2.5512 -1.4351
  459SOL     OW 1375   2.447   0.320   2.199 -0.1067 -0.2254 -0.5756
  459SOL    HW1 1376   2.379   0.302   2.271  0.3289  0.9701 -2.6851
  459SOL    HW2 1377   2.473   0.234   2.152  0.2402 -1.0109  1.6243
  460SOL     OW 1378   0.005   0.660   0.060 -0.0977 -0.7101 -0.0473
  460SOL    HW1 1379   0.075   0.719   0.019 -1.5422  1.0759 -1.4377
  460SOL    HW2 1380   2.998   0.670   0.016  0.5363  0.8089 -1.1928
  461SOL     OW 1381   0.465   1.946   1.079 -0.4384  0.1519 -0.2551
  461SOL    HW1 1382   0.522   1.876   1.040 -1.5233 -1.1586 -0.1953
  461SOL    HW2 1383   0.526   2.011   1.127 -0.1750 -1.3699  0.8574
  462SOL     OW 1384   2.972   2.854   1.095  0.3798  0.1032  0.0018
  462SOL    HW1 1385   3.065   2.823   1.062 -2.0020  0.3089  2.1150
  462SOL    HW2 1386   2.971   2.866   1.197 -1.6543  0.8752 -1.7246
  463SOL     OW 1387   2.537   1.222   0.004  0.0033  0.2500  0.7980
  463SOL    HW1 1388   2.541   1.165   3.010  0.4090  0.0375 -2.0456
  463SOL    HW2 1389   2.626   1.275   0.017  0.4488  2.1997  0.5015
  464SOL     OW 1390   0.418   2.437   1.221  0.1540  0.2011  0.2058
  464SOL    HW1 1391   0.450   2.415   1.315  0.8911  1.7125 -0.3176
  464SOL    HW2 1392   0.386   2.533   1.214 -1.6102  1.6677  0.3701
  465SOL     OW 1393   0.830   0.627   0.974 -0.1421 -0.5064  0.1276
  465SOL    HW1 1394   0.872   0.544   0.936 -0.3495  2.9409  1.4969
  465SOL    HW2 1395   0.770   0.683   0.911 -3.7919 -0.0254 -0.3647
  466SOL     OW 1396   1.293   3.015   2.087 -0.0017  0.2489 -0.3739
  466SOL    HW1 1397   1.281   2.917   2.066 -0.3274  1.4946  1.0578
  466SOL    HW2 1398   1.213   3.074   2.063  0.4811 -0.7373 -0.2944
  467SOL     OW 1399   0.826   0.142   1.881 -0.3961  0.3166 -0.4839
  467SOL    HW1 1400   0.775   0.166   1.800 -0.2486  0.4048  1.5097
  467SOL    HW2 1401   0.801   0.204   1.958 -1.1814 -0.6042  0.1584
  468SOL     OW 1402   0.257   1.179   2.270  0.3396  0.4003  0.0225
  468SOL    HW1 1403   0.188   1.140   2.207 -0.1289 -0.1827 -0.9892
  468SOL    HW2 1404   0.219   1.264   2.312  1.8226 -0.1407  3.0091
  469SOL     OW 1405   0.418   1.582   0.780  0.6360 -0.8228 -0.0147
  469SOL    HW1 1406   0.414   1.652   0.703  1.0061 -0.0371  0.1676
  469SOL    HW2 1407   0.451   1.492   0.746  0.1543  0.0703  0.1444
  470SOL     OW 1408   2.474   1.885   2.016  0.2974  0.9617 -0.1641
  470SOL    HW1 1409   2.437   1.793   1.988 -1.1323 -0.9088  0.4479
  470SOL    HW2 1410   2.541   1.930   1.955  1.5050 -0.0198  0.8510
  471SOL     OW 1411   1.219   0.400   2.717 -0.0823 -0.3111  0.2502
  471SOL    HW1 1412   1.244   0.304   2.706  0.3905 -0.7860  2.4431
  471SOL    HW2 1413   1.304   0.459   2.730  1.9826  2.7215 -1.8234
  472SOL     OW 1414   0.329   2.435   1.500  0.0820 -0.2819  0.4342
  472SOL    HW1 1415   0.374   2.339   1.499 -0.2431 -3.5690  0.8883
  472SOL    HW2 1416   0.385   2.508   1.544  0.0073  1.0193 -0.8698
  473SOL     OW 1417   0.572   0.193   2.318 -0.1355 -0.0048 -0.4167
  473SOL    HW1 1418   0.586   0.269   2.384  0.1313 -0.0956 -0.0540
  473SOL    HW2 1419   0.618   0.105   2.339  0.5141  0.5317  0.4598
  474SOL     OW 1420   1.944   0.318   1.371 -0.0523  0.1987 -0.4557
  474SOL    HW1 1421   1.968   0.418   1.361  0.3817  3.5754  0.2237
  474SOL    HW2 1422   1.965   0.269   1.285  0.3098  3.8173  1.1198
  475SOL     OW 1423   1.887   0.643   1.104  0.4049  0.3766 -0.2383
  475SOL    HW1 1424   1.952   0.573   1.064 -1.9110  0.2753 -0.6350
  475SOL    HW2 1425   1.903   0.730   1.056 -1.6749 -1.3604  1.0755
  476SOL     OW 1426   0.707   1.019   0.946 -0.7527  0.2533 -0.5218
  476SOL    HW1 1427   0.616   1.004   0.992 -0.5537  0.1161 -0.7334
  476SOL    HW2 1428   0.777   1.053   1.011 -0.3686 -0.3489  0.3335
  477SOL     OW 1429   1.369   2.381   0.635 -0.1820  0.1405 -0.0186
  477SOL    HW1 1430   1.307   2.311   0.676 -2.5525  1.6973  0.7647
  477SOL    HW2 1431   1.333   2.473   0.638  1.2872  0.3149 -0.3505
  478SOL     OW 1432   0.046   2.656   2.162  0.0459  0.3313 -0.3335
  478SOL    HW1 1433   0.126   2.601   2.201  2.6026  0.9073  1.2937
  478SOL    HW2 1434   3.085   2.596   2.099 -0.6533 -0.2965 -1.7787
  479SOL     OW 1435   2.510   0.380   1.286  1.1661 -0.0437 -0.0240
  479SOL    HW1 1436   2.592   0.418   1.333 -0.5007 -0.0343  0.5055
  479SOL    HW2 1437   2.525   0.351   1.191 -1.0050  0.7479 -0.7108
  480SOL     OW 1438   0.478   2.585   0.596  0.0869 -0.0455 -0.2088
  480SOL    HW1 1439   0.507   2.570   0.499 -0.1665 -1.3200 -1.6663
  480SOL    HW2 1440   0.386   2.633   0.600  3.3233 -1.0256 -0.4919
  481SOL     OW 1441   2.167   2.199   1.471 -0.2413  0.0017 -0.2006
  481SOL    HW1 1442   2.068   2.236   1.452 -1.8955 -1.0820 -0.5492
  481SOL    HW2 1443   2.180   2.141   1.551 -3.8446  1.7638 -1.6639
  482SOL     OW 1444   1.295   2.803   2.870 -0.1005  0.2108  0.5637
  482SOL    HW1 1445   1.319   2.852   2.959 -0.4506 -1.8599 -1.2881
  482SOL    HW2 1446   1.380   2.758   2.833  0.3016  0.9005  1.1442
  483SOL     OW 1447   0.763   1.897   1.754 -0.4548  0.1505  0.0974
  483SOL    HW1 1448   0.802   1.850   1.833  2.3393  1.3134 -1.9949
  483SOL    HW2 1449   0.721   1.819   1.702  0.4658  3.6928  3.6266
  484SOL     OW 1450   0.922   0.461   1.331 -0.6578 -0.2679  0.4949
  484SOL    HW1 1451   0.946   0.462   1.429 -1.1060  0.8004  0.2163
  484SOL    HW2 1452   0.920   0.556   1.299 -1.4216 -0.6248  1.6788
  485SOL     OW 1453   1.913   1.059   2.955  0.4507  0.1099  0.2590
  485SOL    HW1 1454   1.847   1.126   2.996 -0.4793  4.6448 -2.2855
  485SOL    HW2 1455   2.003   1.105   2.945 -0.2131  1.0123  1.0116
  486SOL     OW 1456   2.235   0.041   1.397  0.7934  0.2815 -0.0380
  486SOL    HW1 1457   2.243   0.138   1.431 -0.2070 -0.4318 -1.0299
  486SOL    HW2 1458   2.316   0.014   1.349 -2.5072  2.0670 -1.4975
  487SOL     OW 1459   0.651   2.134   1.136 -0.3848 -0.3318  0.3500
  487SOL    HW1 1460   0.713   2.218   1.129  0.3068  1.1698  0.2102
  487SOL    HW2 1461   0.648   2.100   1.236 -0.4367 -0.8000  2.2592
  488SOL     OW 1462   2.043   2.224   0.149  0.7917 -0.2079  0.2297
  488SOL    HW1 1463   2.085   2.134   0.166  1.1288 -0.7461  1.0590
  488SOL    HW2 1464   2.116   2.284   0.118  2.3767 -3.3535  1.3379
  489SOL     OW 1465   1.886   2.978   0.672 -0.2583 -0.4716 -0.2331
  489SOL    HW1 1466   1.899   2.910   0.748 -0.5775  0.9987  0.1749
  489SOL    HW2 1467   1.951   2.956   0.597 -1.4056 -1.8202 -2.4008
  490SOL     OW 1468   1.036   1.976   2.839 -0.0718 -0.0178  0.3667
  490SOL    HW1 1469   1.038   2.000   2.737  1.3177 -0.8450 -2.1740
  490SOL    HW2 1470   1.025   2.061   2.896 -2.7208 -3.0070 -0.3198
  491SOL     OW 1471   0.293   1.934   1.776 -0.2233 -0.0847  0.2813
  491SOL    HW1 1472   0.336   1.839   1.777  0.2428 -1.2414 -1.5363
  491SOL    HW2 1473   0.354   2.015   1.771 -0.0233  0.2382  1.6691
  492SOL     OW 1474   0.750   1.440   1.710 -0.9014  0.4390  0.5389
  492SOL    HW1 1475   0.847   1.461   1.690 -0.7971  0.0451 -0.5776
  492SOL    HW2 1476   0.735   1.407   1.803  1.6644  0.4620 -4.1333
  493SOL     OW 1477   2.524   1.608   0.894 -0.0964 -0.0771  0.0808
  493SOL    HW1 1478   2.495   1.684   0.831 -0.9898 -0.3405 -1.9604
  493SOL    HW2 1479   2.548   1.525   0.838  1.3607  0.3742  1.4159
  494SOL     OW 1480   2.844   1.559   0.833  0.0956  0.0539 -0.4644
  494SOL    HW1 1481   2.823   1.515   0.742 -1.0052 -0.6257 -1.3390
  494SOL    HW2 1482   2.831   1.657   0.827  0.6059 -1.9814  1.6853
  495SOL     OW 1483   2.255   2.871   0.591  0.3953  0.3220 -0.7529
  495SOL    HW1 1484   2.171   2.878   0.541  1.0386  1.2289 -1.0448
  495SOL    HW2 1485   2.260   2.775   0.626 -1.8221  1.2835  0.0559
  496SOL     OW 1486   2.681   0.022   1.615  0.3199  0.0401  0.3820
  496SOL    HW1 1487   2.705   0.022   1.517 -2.1351  0.8232 -0.3291
  496SOL    HW2 1488   2.647   0.114   1.644 -1.0776 -0.9098 -0.5744
  497SOL     OW 1489   2.374   1.245   2.753 -0.1592 -0.1542  0.1073
  497SOL    HW1 1490   2.348   1.217   2.659 -2.3282  1.4477 -1.0044
  497SOL    HW2 1491   2.440   1.181   2.799  2.2791 -1.0498  0.6083
  498SOL     OW 1492   2.808   1.804   1.506 -0.3011  0.3925 -0.9659
  498SOL    HW1 1493   2.880   1.871   1.542 -1.1735  1.2730  1.9814
  498SOL    HW2 1494   2.746   1.850   1.438  0.6975  0.7098 -0.6932
  499SOL     OW 1495   1.146   2.356   2.392 -0.0257 -0.0931  0.2583
  499SOL    HW1 1496   1.166   2.445   2.438 -0.4008  1.5801  1.2366
  499SOL    HW2 1497   1.055   2.361   2.354  2.0342  0.3422  0.5655
  500SOL     OW 1498   1.421   1.429   0.593 -0.1276 -0.4412  0.1838
  500SOL    HW1 1499   1.517   1.401   0.568  0.6898 -1.4214  1.1123
  500SOL    HW2 1500   1.399   1.415   0.692 -0.6066  2.5018 -0.5377
  501SOL     OW 1501   1.607   0.247   1.723  0.1838  0.0652 -0.4835
  501SOL    HW1 1502   1.534   0.199   1.773 -0.8486 -1.1655  1.3497
  501SOL    HW2 1503   1.678   0.178   1.703  1.4162  0.3421 -1.2294
  502SOL     OW 1504   2.615   0.595   1.757  0.7140 -0.1216 -0.4787
  502SOL    HW1 1505   2.596   0.546   1.844  0.9560  1.1234 -1.6737
  502SOL    HW2 1506   2.530   0.632   1.719  0.8620  0.8367  0.6677
  503SOL     OW 1507   2.542   1.531   2.343 -0.2087  0.4461 -0.2410
  503SOL    HW1 1508   2.459   1.560   2.292  0.8549 -3.5616  0.3359
  503SOL    HW2 1509   2.630   1.578   2.321  1.2529 -1.0772  0.6667
  504SOL     OW 1510   1.195   1.495   1.825 -0.4551  0.2184  0.1609
  504SOL    HW1 1511   1.113   1.485   1.758 -0.9607  0.3475 -0.6469
  504SOL    HW2 1512   1.249   1.413   1.835 -2.0255  0.6581  0.5734
  505SOL     OW 1513   0.220   0.000   1.313 -0.6594 -0.3997  0.7590
  505SOL    HW1 1514   0.290   3.039   1.259 -1.3717 -0.4389 -0.8488
  505SOL    HW2 1515   0.181   3.037   1.391 -0.1203 -1.4636  0.4588
  506SOL     OW 1516   0.062   0.235   0.043 -0.1689  0.0561 -0.7461
  506SOL    HW1 1517   0.067   0.302   0.120 -2.0352  3.1346  1.4672
  506SOL    HW2 1518   0.101   0.280   3.051  2.3922  0.4265 -0.4039
  507SOL     OW 1519   0.282   2.506   2.989 -0.3856  0.6167  0.2360
  507SOL    HW1 1520   0.204   2.551   2.935 -3.0674  0.4072  1.1351
  507SOL    HW2 1521   0.249   2.452   3.068  3.0931 -1.6734 -2.0687
  508SOL     OW 1522   1.045   0.240   2.134 -0.5855  0.0629 -0.0159
  508SOL    HW1 1523   1.029   0.339   2.119 -1.0821  0.5702  1.3851
  508SOL    HW2 1524   1.098   0.226   2.221 -0.5049  2.2694 -1.3075
  509SOL     OW 1525   1.357   2.100   1.248  0.4323 -0.0291  0.0112
  509SOL    HW1 1526   1.433   2.146   1.305 -0.9838  0.1623 -0.1604
  509SOL    HW2 1527   1.267   2.147   1.259 -0.4829  2.2608 -0.5680
  510SOL     OW 1528   2.742   0.983   1.595 -0.5471  1.1331  0.5226
  510SOL    HW1 1529   2.686   0.977   1.678 -0.6224  1.1903 -1.1649
  510SOL    HW2 1530   2.711   1.070   1.548 -1.1364 -0.5960  3.0436
  511SOL     OW 1531   1.314   1.802   1.260 -0.1170 -0.0157  0.2700
  511SOL    HW1 1532   1.341   1.896   1.293 -0.5770  1.8139  0.9249
  511SOL    HW2 1533   1.250   1.763   1.324  0.6528 -0.5168 -3.4666
  512SOL     OW 1534   0.228   1.704   0.342  0.0869 -0.5051  0.0263
  512SOL    HW1 1535   0.173   1.668   0.416  2.5960 -0.0017 -0.4775
  512SOL    HW2 1536   0.193   1.783   0.291  2.3505 -0.7632 -2.6014
  513SOL     OW 1537   0.183   1.347   3.063 -0.0811 -0.4639  0.3258
  513SOL    HW1 1538   0.127   1.422   0.012  1.6548  1.6332 -0.6434
  513SOL    HW2 1539   0.126   1.272   3.028 -0.7544  0.3614 -0.3801
  514SOL     OW 1540   2.184   2.227   2.293 -0.2079 -0.1756 -0.7668
  514SOL    HW1 1541   2.092   2.204   2.256 -0.4603 -1.7129  0.0799
  514SOL    HW2 1542   2.263   2.186   2.246  0.7761 -0.4762  0.3895
  515SOL     OW 1543   2.633   0.913   0.555 -0.4113 -0.0508 -0.0616
  515SOL    HW1 1544   2.557   0.952   0.502  1.3540 -1.5053  1.2628
  515SOL    HW2 1545   2.728   0.939   0.519 -1.1803  1.2208  0.7288
  516SOL     OW 1546   2.459   2.691   0.162  0.2637  0.0653  0.5177
  516SOL    HW1 1547   2.527   2.663   0.096 -1.4868 -2.2699  2.3462
  516SOL    HW2 1548   2.473   2.637   0.246 -0.1323  3.2778 -1.2945
  517SOL     OW 1549   0.652   1.610   2.912  0.6072 -0.1662  0.2084
  517SOL    HW1 1550   0.720   1.675   2.875 -0.7667  1.2045  1.1293
  517SOL    HW2 1551   0.584   1.662   2.968 -2.3330 -0.7650  2.0343
  518SOL     OW 1552   0.062   0.082   1.792  0.0310 -0.3750 -0.1761
  518SOL    HW1 1553   3.070   0.029   1.811  2.0743 -0.1378  1.6639
  518SOL    HW2 1554   0.058   0.175   1.837 -2.1727  0.2899  2.7553
  519SOL     OW 1555   1.761   1.366   0.248 -0.5620 -0.3518 -0.3439
  519SOL    HW1 1556   1.670   1.324   0.259  1.1307  1.6986 -1.5524
  519SOL    HW2 1557   1.752   1.459   0.208  0.1614 -1.8387 -0.1851
  520SOL     OW 1558   2.673   2.753   2.258  0.3887 -0.2460  0.0068
  520SOL    HW1 1559   2.771   2.772   2.237  1.3177  1.3921  0.4278
  520SOL    HW2 1560   2.664   2.678   2.323  0.2392  1.7635 -2.1474
  521SOL     OW 1561   0.001   1.962   2.107  0.5752 -0.5734 -0.5352
  521SOL    HW1 1562   0.005   2.060   2.107 -3.6441 -0.4234  1.0457
  521SOL    HW2 1563   0.077   1.915   2.158  0.1759  0.1196 -2.1171
  522SOL     OW 1564   1.245   3.017   1.765 -0.0192  0.1041  0.1800
  522SOL    HW1 1565   1.288   2.928   1.793  0.7876 -1.6086 -0.6717
  522SOL    HW2 1566   1.307   3.069   1.703 -0.4636 -1.6603 -0.5311
  523SOL     OW 1567   1.901   2.218   1.175 -0.1031  0.3307  0.0415
  523SOL    HW1 1568   1.880   2.118   1.153 -1.5913 -3.8180  1.2563
  523SOL    HW2 1569   2.002   2.228   1.170  3.1947 -0.1362 -0.3580
  524SOL     OW 1570   0.938   2.303   0.779  0.3363 -0.6229 -0.2515
  524SOL    HW1 1571   1.013   2.351   0.826 -2.0020  0.3439  0.3672
  524SOL    HW2 1572   0.857   2.279   0.836 -2.3311 -0.3173  1.2901
  525SOL     OW 1573   2.884   0.514   0.697 -0.0984  0.0151 -0.5831
  525SOL    HW1 1574   2.797   0.559   0.662 -1.4801 -0.1044 -3.0059
  525SOL    HW2 1575   2.959   0.583   0.702  0.0772  1.9837 -1.9249
  526SOL     OW 1576   1.278   0.400   0.275 -0.1291 -0.0338  0.8890
  526SOL    HW1 1577   1.262   0.465   0.350  0.4271 -0.7115 -1.5160
  526SOL    HW2 1578   1.186   0.380   0.229 -3.6096 -1.4325 -2.0820
  527SOL     OW 1579   1.853   1.317   1.208 -0.1821  0.2243  0.2788
  527SOL    HW1 1580   1.794   1.307   1.120 -3.3312 -3.0844 -0.6351
  527SOL    HW2 1581   1.910   1.238   1.229  1.6529  1.5967  1.6375
  528SOL     OW 1582   2.708   2.523   2.387 -0.0827  0.2792 -0.1448
  528SOL    HW1 1583   2.789   2.527   2.448 -2.2767 -2.7513  0.4632
  528SOL    HW2 1584   2.727   2.463   2.306 -0.0391 -0.7641  0.4686
  529SOL     OW 1585   0.838   1.167   2.448 -0.2817 -0.5868 -0.6150
  529SOL    HW1 1586   0.899   1.107   2.505  1.5290 -0.7054  0.1257
  529SOL    HW2 1587   0.740   1.141   2.465 -1.5024 -2.0200  0.5863
  530SOL     OW 1588   1.711   0.963   2.533 -0.2678 -0.1957 -0.3057
  530SOL    HW1 1589   1.730   0.919   2.442 -2.8964  1.6732 -2.4862
  530SOL    HW2 1590   1.795   0.959   2.589 -0.3883 -0.1926  0.5353
  531SOL     OW 1591   0.076   0.971   0.147  0.1438 -0.1111 -0.7350
  531SOL    HW1 1592   3.082   0.947   0.098 -2.6355 -0.6969 -2.5640
  531SOL    HW2 1593   0.050   0.990   0.242 -1.0030  1.3354 -1.8054
  532SOL     OW 1594   1.731   1.350   0.948 -0.0106 -0.8994  0.5096
  532SOL    HW1 1595   1.661   1.313   1.009  3.4649 -0.2283 -0.0853
  532SOL    HW2 1596   1.688   1.416   0.888  0.8237 -4.2914  0.4417
  533SOL     OW 1597   0.423   0.530   2.265  0.1114  0.3141 -0.1567
  533SOL    HW1 1598   0.401   0.460   2.340 -1.4615 -0.8187  1.6817
  533SOL    HW2 1599   0.497   0.589   2.304 -0.2386 -0.7551 -0.5103
  534SOL     OW 1600   0.798   0.209   2.736 -0.1952 -0.2050 -0.2349
  534SOL    HW1 1601   0.873   0.250   2.791 -0.9439  0.3393 -1.0217
  534SOL    HW2 1602   0.799   0.107   2.733  3.0565  1.5868  0.1041
  535SOL     OW 1603   0.542   0.393   3.040  0.0249 -0.3642 -0.0406
  535SOL    HW1 1604   0.487   0.475   3.056 -3.5382 -1.1780 -2.6364
  535SOL    HW2 1605   0.529   0.359   2.945  0.1976  1.3291 -1.2091
  536SOL     OW 1606   0.458   0.985   2.303 -0.7760 -0.0872 -0.1905
  536SOL    HW1 1607   0.390   1.059   2.293 -1.2091 -2.2825 -0.7243
  536SOL    HW2 1608   0.503   0.951   2.212  0.2901 -0.0817 -1.2756
  537SOL     OW 1609   1.528   0.003   1.368 -0.0345  0.0172 -0.4283
  537SOL    HW1 1610   1.468   0.030   1.446  1.1714 -1.1495 -0.1348
  537SOL    HW2 1611   1.489   3.005   1.336 -2.7289  0.7369 -0.9578
  538SOL     OW 1612   0.688   2.032   3.059  0.6694 -0.1763 -0.5813
  538SOL    HW1 1613   0.702   2.131   3.048 -1.4934 -1.0337  3.3197
  538SOL    HW2 1614   0.599   2.001   3.020  0.7196 -1.9444  1.1615
  539SOL     OW 1615   2.474   1.207   1.918  0.2610 -0.5375  0.2148
  539SOL    HW1 1616   2.377   1.217   1.944  1.7816  0.6246  0.9034
  539SOL    HW2 1617   2.533   1.253   1.989  0.0930  0.4829 -0.2179
  540SOL     OW 1618   2.119   1.816   1.684 -0.6013  0.1591  0.0619
  540SOL    HW1 1619   2.042   1.853   1.631 -0.3049  0.0188 -0.9714
  540SOL    HW2 1620   2.182   1.894   1.706  0.0826  0.8743 -2.3469
  541SOL     OW 1621   0.649   1.681   1.634 -0.1213  0.1923 -0.4067
  541SOL    HW1 1622   0.687   1.591   1.670 -1.0526  1.0565 -0.4009
  541SOL    HW2 1623   0.693   1.715   1.549 -2.3809  1.7140 -3.2944
  542SOL     OW 1624   1.864   0.869   2.327  0.1664  0.3312 -0.2401
  542SOL    HW1 1625   1.864   0.875   2.224 -0.4557  1.4354  3.0746
  542SOL    HW2 1626   1.939   0.815   2.360 -4.4673  0.4133 -1.8991
  543SOL     OW 1627   1.038   0.526   0.639 -0.2182  0.0237 -0.3510
  543SOL    HW1 1628   0.957   0.585   0.662  1.1292 -0.3458  0.2142
  543SOL    HW2 1629   1.013   0.446   0.582 -0.2064 -2.9472 -0.7766
  544SOL     OW 1630   2.096   1.926   2.528 -0.3042 -0.1959  0.1766
  544SOL    HW1 1631   2.106   1.887   2.433 -0.7941  1.4866  1.9021
  544SOL    HW2 1632   2.177   1.904   2.584 -1.4221  0.6019 -0.8903
  545SOL     OW 1633   1.861   1.854   1.560  0.1059 -0.6145  0.4686
  545SOL    HW1 1634   1.847   1.854   1.457  0.6124 -3.2530 -1.7496
  545SOL    HW2 1635   1.812   1.775   1.600 -0.7872  2.6857  1.2545
  546SOL     OW 1636   0.193   0.264   2.909 -0.2062 -0.6950 -0.0835
  546SOL    HW1 1637   0.193   0.359   2.870 -0.3937 -1.7158 -1.1749
  546SOL    HW2 1638   0.265   0.205   2.860  0.3486 -3.1670 -2.8301
  547SOL     OW 1639   2.124   0.846   0.079  0.1753  0.3587  0.4522
  547SOL    HW1 1640   2.026   0.817   0.070 -0.3558 -1.2054  1.5837
  547SOL    HW2 1641   2.196   0.775   0.070  2.9965  1.0968  0.9946
  548SOL     OW 1642   2.227   1.821   2.293 -0.4784 -0.0316 -0.7061
  548SOL    HW1 1643   2.288   1.894   2.262 -2.1298 -0.6920  0.4863
  548SOL    HW2 1644   2.276   1.733   2.297  0.2866  2.8988 -0.9376
  549SOL     OW 1645   2.232   0.286   0.752  0.5767  0.4396 -0.0801
  549SOL    HW1 1646   2.235   0.207   0.819 -2.9636 -0.3265 -0.9032
  549SOL    HW2 1647   2.327   0.317   0.723 -1.6475  0.7864 -1.6213
  550SOL     OW 1648   2.265   1.739   0.446  0.0838  0.0653  0.6172
  550SOL    HW1 1649   2.243   1.836   0.414 -1.6288 -0.8910  1.2046
  550SOL    HW2 1650   2.319   1.686   0.376  1.6662  0.8182  0.0668
  551SOL     OW 1651   1.350   0.285   2.100 -0.9745 -0.2487 -0.1103
  551SOL    HW1 1652   1.436   0.335   2.132 -2.2806  3.5932  0.5947
  551SOL    HW2 1653   1.275   0.280   2.167  0.1371 -0.1583 -5.1612
  552SOL     OW 1654   3.087   2.233   2.428 -0.5466  0.1576 -0.1861
  552SOL    HW1 1655   0.002   2.237   2.326 -1.1519  1.1138  0.1147
  552SOL    HW2 1656   0.080   2.261   2.479 -1.1959  2.5156  0.0161
  553SOL     OW 1657   0.769   0.070   0.146  0.7609 -0.1673  0.6464
  553SOL    HW1 1658   0.858   0.031   0.183  0.9696  1.4393 -1.2281
  553SOL    HW2 1659   0.703   0.075   0.224 -2.9546 -0.9038  1.5657
  554SOL     OW 1660   1.879   2.081   1.764 -0.1227 -0.2690  0.6862
  554SOL    HW1 1661   1.886   2.015   1.687 -1.5309  0.0035 -0.4042
  554SOL    HW2 1662   1.867   2.178   1.725  1.3444  0.8697  1.3641
  555SOL     OW 1663   1.192   2.195   1.919 -0.2761  0.2226  0.3477
  555SOL    HW1 1664   1.195   2.223   2.017 -1.1782  0.7911 -1.8965
  555SOL    HW2 1665   1.289   2.188   1.881  3.0612  2.0830 -0.7054
  556SOL     OW 1666   1.406   1.979   0.775  0.5260 -0.0122 -0.1504
  556SOL    HW1 1667   1.425   1.983   0.673 -0.3469  2.0667  2.2496
  556SOL    HW2 1668   1.310   1.975   0.794  1.6966  1.2338 -1.4947
  557SOL     OW 1669   1.652   2.180   2.118 -0.1186 -0.4806 -0.3842
  557SOL    HW1 1670   1.653   2.084   2.086 -2.6946 -2.1304 -1.9704
  557SOL    HW2 1671   1.614   2.190   2.213  0.6671  1.5766  0.0484
  558SOL     OW 1672   0.223   0.340   1.609  0.2036  0.0133  0.7006
  558SOL    HW1 1673   0.256   0.307   1.697 -2.4938  0.1505 -0.5875
  558SOL    HW2 1674   0.273   0.296   1.529 -1.7476  0.5516 -0.1172
  559SOL     OW 1675   2.472   3.014   1.240  0.2171  0.0632  0.3824
  559SOL    HW1 1676   2.491   2.978   1.150 -0.4098 -1.1305  0.2619
  559SOL    HW2 1677   2.559   3.051   1.278 -0.8730 -0.1927 -1.2054
  560SOL     OW 1678   0.835   2.352   0.167 -0.3863  0.1100  0.2206
  560SOL    HW1 1679   0.922   2.313   0.143  1.2946  1.3342  2.1297
  560SOL    HW2 1680   0.800   2.328   0.264 -1.9242  3.1511  2.9695
  561SOL     OW 1681   1.040   0.772   0.277 -0.4120 -0.2135  0.4033
  561SOL    HW1 1682   0.954   0.745   0.222  0.1468  0.4448 -3.2820
  561SOL    HW2 1683   1.026   0.870   0.306  0.5627  0.1319 -0.2243
  562SOL     OW 1684   0.831   0.721   2.515 -0.2062  0.1990  0.4558
  562SOL    HW1 1685   0.846   0.633   2.460  1.5140 -1.1908  3.6904
  562SOL    HW2 1686   0.875   0.711   2.610 -1.8660 -0.5902  2.1391
  563SOL     OW 1687   1.716   2.414   2.375  0.2143 -0.1435  0.3056
  563SOL    HW1 1688   1.699   2.311   2.373 -0.9265 -4.2580 -1.1993
  563SOL    HW2 1689   1.779   2.428   2.457  1.0230 -0.2597  1.0719
  564SOL     OW 1690   0.144   1.134   0.394 -0.3292  0.2532 -0.4052
  564SOL    HW1 1691   0.223   1.142   0.330 -0.8128 -0.4598  1.1514
  564SOL    HW2 1692   0.073   1.205   0.380  1.0928 -1.6024 -2.2988
  565SOL     OW 1693   1.290   0.138   2.703 -0.0849 -0.3567 -0.7204
  565SOL    HW1 1694   1.349   0.153   2.622  0.8145  0.0895 -0.5713
  565SOL    HW2 1695   1.345   0.109   2.782 -1.6947  1.7232 -3.5337
  566SOL     OW 1696   1.868   0.000   2.405 -0.0737 -0.3299 -0.1793
  566SOL    HW1 1697   1.841   3.007   2.355 -2.4372 -2.5774  2.0700
  566SOL    HW2 1698   1.887   0.082   2.343  1.6298  0.7864 -3.4678
  567SOL     OW 1699   2.484   1.142   0.892 -0.5601  0.1461 -0.1461
  567SOL    HW1 1700   2.492   1.178   0.987 -0.1137 -1.4840  3.5575
  567SOL    HW2 1701   2.387   1.150   0.861 -0.6959  0.0319 -0.0218
  568SOL     OW 1702   1.922   1.958   0.272 -0.0990 -0.0884 -0.2205
  568SOL    HW1 1703   1.890   1.982   0.184  1.0435  0.8538  4.4028
  568SOL    HW2 1704   1.918   1.858   0.295  0.1572 -0.7469  0.3930
  569SOL     OW 1705   2.207   1.761   2.878  0.0815 -0.1909 -0.3133
  569SOL    HW1 1706   2.286   1.737   2.936  0.0611  2.4502 -2.2242
  569SOL    HW2 1707   2.161   1.681   2.837  1.1733  0.9642 -1.5591
  570SOL     OW 1708   2.939   2.482   1.725 -0.3279 -0.2450 -0.4263
  570SOL    HW1 1709   3.040   2.466   1.722 -0.0555  1.2629  1.5356
  570SOL    HW2 1710   2.884   2.418   1.670  3.1699  2.6655  0.8096
  571SOL     OW 1711   0.128   0.324   2.193  0.6318 -0.6640 -0.1989
  571SOL    HW1 1712   0.210   0.264   2.167  1.2470  0.4484  1.4466
  571SOL    HW2 1713   0.161   0.421   2.212  1.2096  0.5047  2.0395
  572SOL     OW 1714   1.053   1.534   1.020  0.7184 -0.5438  0.3154
  572SOL    HW1 1715   1.069   1.627   0.988 -0.1399 -2.5806 -0.3783
  572SOL    HW2 1716   1.022   1.541   1.119  0.8092 -1.0732  1.7655
  573SOL     OW 1717   1.024   0.308   2.879 -0.3584  0.5681  0.9032
  573SOL    HW1 1718   1.061   0.272   2.967  1.1569 -0.5544 -0.6591
  573SOL    HW2 1719   1.095   0.331   2.808 -3.3192 -0.0685 -2.7092
  574SOL     OW 1720   0.807   0.115   0.603  0.1459  0.6713 -0.2608
  574SOL    HW1 1721   0.750   0.134   0.521  1.9272  1.0518  0.3862
  574SOL    HW2 1722   0.803   0.192   0.667  0.7655 -3.1726  0.1210
  575SOL     OW 1723   0.030   1.203   1.468 -0.1263  0.5368 -0.1517
  575SOL    HW1 1724   0.073   1.151   1.394  1.8464  4.0792 -2.1079
  575SOL    HW2 1725   0.052   1.303   1.467  0.5840  0.0128 -0.2051
  576SOL     OW 1726   2.455   0.337   1.899  0.1209 -0.2250  0.0322
  576SOL    HW1 1727   2.385   0.396   1.946 -0.1548  0.9661  3.7234
  576SOL    HW2 1728   2.422   0.242   1.905  0.9490 -0.0417  0.4139
  577SOL     OW 1729   2.854   1.454   2.045  0.2959 -0.5418 -0.4247
  577SOL    HW1 1730   2.879   1.355   2.024  2.9529 -0.2456  0.3143
  577SOL    HW2 1731   2.886   1.516   1.969  0.2109  2.9369 -1.5935
  578SOL     OW 1732   1.559   2.839   2.417  0.4944  0.3286 -0.2783
  578SOL    HW1 1733   1.539   2.753   2.371  2.1004 -1.4639  1.8508
  578SOL    HW2 1734   1.482   2.903   2.420  1.4087 -0.7712  0.6809
  579SOL     OW 1735   2.115   2.152   1.932  0.1277 -0.8809  0.4010
  579SOL    HW1 1736   2.113   2.146   2.035  0.8755 -0.1069  0.7476
  579SOL    HW2 1737   2.021   2.155   1.898  0.6620 -0.8589 -2.2482
  580SOL     OW 1738   1.768   1.526   1.981 -0.0518 -0.5160 -0.6216
  580SOL    HW1 1739   1.709   1.589   1.931  1.0416 -3.1621  0.9972
  580SOL    HW2 1740   1.866   1.527   1.945 -1.5144 -0.9406 -1.3128
  581SOL     OW 1741   1.341   0.998   2.291 -0.0351  0.0551  0.0954
  581SOL    HW1 1742   1.421   1.059   2.286 -1.8648  0.0897  1.7358
  581SOL    HW2 1743   1.350   0.933   2.370  2.0742 -1.5530  0.0837
  582SOL     OW 1744   0.142   2.426   1.700 -0.0547 -0.9362 -0.1882
  582SOL    HW1 1745   0.206   2.410   1.622  3.1471  1.5796 -0.1577
  582SOL    HW2 1746   0.178   2.502   1.759  0.0021  0.5159  0.1835
  583SOL     OW 1747   1.523   1.277   1.109  0.2809 -0.5451 -0.0139
  583SOL    HW1 1748   1.426   1.250   1.102  0.9036  1.3909 -0.1231
  583SOL    HW2 1749   1.575   1.210   1.164 -0.1832  2.1151  0.9698
  584SOL     OW 1750   1.114   2.222   0.575 -0.4443 -0.1417 -0.3615
  584SOL    HW1 1751   1.124   2.310   0.526  2.4860 -0.1838  0.3946
  584SOL    HW2 1752   1.033   2.233   0.636 -0.9994 -3.1878 -2.6829
  585SOL     OW 1753   3.001   2.321   3.066  0.1979  0.4819  1.1855
  585SOL    HW1 1754   0.001   2.335   0.016 -2.8218  1.3955 -0.5765
  585SOL    HW2 1755   3.006   2.285   2.970 -0.7222  1.9547  2.5814
  586SOL     OW 1756   2.694   1.431   0.362  0.2406  0.7635  0.1030
  586SOL    HW1 1757   2.752   1.384   0.294  1.9756  0.8119 -1.1687
  586SOL    HW2 1758   2.606   1.457   0.325  2.7184 -1.2833  1.2620
  587SOL     OW 1759   1.129   1.416   2.897  0.5468 -0.0323 -0.2222
  587SOL    HW1 1760   1.176   1.334   2.864 -1.1747 -0.2000 -1.2378
  587SOL    HW2 1761   1.202   1.481   2.928  1.1143 -0.2846 -0.1299
  588SOL     OW 1762   0.371   0.249   0.579  0.1775  0.3018 -0.8166
  588SOL    HW1 1763   0.383   0.153   0.616 -1.4011 -1.2312  1.7415
  588SOL    HW2 1764   0.338   0.312   0.650  0.1513 -0.9209 -1.2026
  589SOL     OW 1765   1.386   0.383   0.699  0.5625  0.6137 -0.1376
  589SOL    HW1 1766   1.332   0.427   0.771  1.1188  0.1393 -0.1539
  589SOL    HW2 1767   1.422   0.469   0.654 -0.7098  1.5274 -1.2180
  590SOL     OW 1768   2.281   2.341   0.369 -0.0754 -0.0692  0.1439
  590SOL    HW1 1769   2.340   2.258   0.390 -0.0842  0.1132 -1.3294
  590SOL    HW2 1770   2.233   2.369   0.453  0.7295  0.2203  1.3424
  591SOL     OW 1771   0.231   2.618   1.884  0.1367 -0.0326  0.5723
  591SOL    HW1 1772   0.317   2.653   1.925 -0.9577 -1.3538  1.7453
  591SOL    HW2 1773   0.161   2.695   1.869 -1.0846  1.2307 -0.4556
  592SOL     OW 1774   2.840   1.862   2.056 -0.3204  0.2470  0.1057
  592SOL    HW1 1775   2.826   1.761   2.096 -1.0547 -3.4759  0.5448
  592SOL    HW2 1776   2.932   1.891   2.079 -2.8138  1.5578 -0.8157
  593SOL     OW 1777   1.509   1.443   1.506  0.0468 -0.4134  0.3543
  593SOL    HW1 1778   1.600   1.468   1.544  1.5209 -0.1368 -1.9688
  593SOL    HW2 1779   1.510   1.466   1.407  0.9478  0.8111 -1.0445
  594SOL     OW 1780   0.791   1.147   2.924  0.6523  0.3469 -0.1007
  594SOL    HW1 1781   0.692   1.127   2.908 -1.4243  1.2963 -0.1993
  594SOL    HW2 1782   0.809   1.244   2.946 -0.6511 -1.2694 -0.9259
  595SOL     OW 1783   1.425   0.870   0.719  0.5210  0.2978  0.1681
  595SOL    HW1 1784   1.361   0.847   0.798 -0.7889 -0.3692  2.6316
  595SOL    HW2 1785   1.399   0.967   0.687 -1.3630  0.3618  1.8296
  596SOL     OW 1786   0.014   0.966   1.074  0.5124  0.0787  0.3163
  596SOL    HW1 1787   3.070   0.893   1.140 -1.7418 -1.4810  4.2475
  596SOL    HW2 1788   0.058   1.045   1.129  1.4148  0.2335 -1.1266
  597SOL     OW 1789   0.767   2.240   1.876 -0.4835 -0.0629  0.3424
  597SOL    HW1 1790   0.679   2.293   1.881 -0.0520  2.3068 -0.6527
  597SOL    HW2 1791   0.765   2.186   1.793 -0.9560  1.0009  0.7396
  598SOL     OW 1792   2.081   2.503   1.999 -0.5267 -0.3711 -0.5072
  598SOL    HW1 1793   2.042   2.498   2.093 -0.0170 -2.2192  1.9181
  598SOL    HW2 1794   2.151   2.427   1.980  0.6336  1.1388  0.3532
  599SOL     OW 1795   0.965   1.027   0.330 -0.0822  0.3337 -0.3158
  599SOL    HW1 1796   1.004   1.082   0.400 -1.6935 -3.7174 -3.4157
  599SOL    HW2 1797   0.976   1.065   0.236  0.0687  1.4036  3.2189
  600SOL     OW 1798   1.464   0.850   0.094  0.3258 -0.1813 -0.2139
  600SOL    HW1 1799   1.367   0.815   0.079 -0.5023 -3.2892  1.3868
  600SOL    HW2 1800   1.525   0.780   0.133  1.2197 -1.1247 -0.4661
  601SOL     OW 1801   0.958   0.445   1.599  0.5375 -0.1597  0.4555
  601SOL    HW1 1802   1.003   0.373   1.655 -0.5450  3.5914 -0.8362
  601SOL    HW2 1803   0.859   0.441   1.609  2.5995  1.2541 -0.5219
  602SOL     OW 1804   0.508   2.270   0.688 -0.7572  0.5101  0.0623
  602SOL    HW1 1805   0.428   2.264   0.626  3.3069  0.3362  3.9280
  602SOL    HW2 1806   0.506   2.334   0.767  3.0595 -0.7820 -2.0446
  603SOL     OW 1807   0.898   2.479   2.378 -0.3900 -0.1157  0.0926
  603SOL    HW1 1808   0.889   2.556   2.311 -0.0508 -2.6806 -0.2151
  603SOL    HW2 1809   0.876   2.506   2.477 -0.4073 -0.2087 -0.3689
  604SOL     OW 1810   0.309   2.125   0.144  0.3677  0.4107  0.3320
  604SOL    HW1 1811   0.373   2.151   0.220 -0.4237  1.6948  0.2338
  604SOL    HW2 1812   0.357   2.105   0.056 -0.4321 -2.2888  0.9596
  605SOL     OW 1813   1.998   1.411   1.886  0.2693  0.0218  0.1614
  605SOL    HW1 1814   1.925   1.386   1.822  0.6925  1.0158  1.0414
  605SOL    HW2 1815   2.090   1.418   1.838  1.1328  0.3304 -0.4733
  606SOL     OW 1816   1.032   1.067   2.877  0.3519 -0.5575  0.0274
  606SOL    HW1 1817   0.933   1.093   2.888 -1.7361 -2.0621  0.3290
  606SOL    HW2 1818   1.092   1.142   2.843  0.2797  2.9223  4.3543
  607SOL     OW 1819   1.297   1.130   1.115 -0.7772  0.0779 -0.2378
  607SOL    HW1 1820   1.286   1.145   1.219  0.8339  0.5565  2.1883
  607SOL    HW2 1821   1.220   1.168   1.063  1.8218  0.8978 -0.2310
  608SOL     OW 1822   2.708   2.092   2.077  0.1664 -0.0995  0.2299
  608SOL    HW1 1823   2.768   2.142   2.009  1.1716  0.1294  3.3074
  608SOL    HW2 1824   2.728   1.991   2.078 -3.5806 -3.1454  1.7572
  609SOL     OW 1825   2.164   0.049   0.408 -0.3736  0.2884 -0.6536
  609SOL    HW1 1826   2.258   0.016   0.384 -0.8009  1.9349 -0.9183
  609SOL    HW2 1827   2.106   3.069   0.445 -0.1803  2.8820  3.0026
  610SOL     OW 1828   0.097   2.046   1.292  0.4088 -0.1749  0.5073
  610SOL    HW1 1829   0.143   2.118   1.233  0.3152  1.3271 -0.8694
  610SOL    HW2 1830   0.068   1.965   1.232 -1.1110 -0.6127 -0.6822
  611SOL     OW 1831   1.502   2.245   0.408 -0.7309 -0.7220 -0.3560
  611SOL    HW1 1832   1.599   2.223   0.390 -0.6933 -3.4983 -2.1066
  611SOL    HW2 1833   1.496   2.304   0.494  0.0483  0.5748  0.8012
  612SOL     OW 1834   0.597   3.041   1.691  0.0784  0.3578  0.1027
  612SOL    HW1 1835   0.686   3.008   1.654  1.2840 -1.4768  0.0702
  612SOL    HW2 1836   0.598   0.051   1.686 -0.3905 -0.8878 -3.6482
  613SOL     OW 1837   0.014   1.657   0.537  0.2872 -0.3200  0.3706
  613SOL    HW1 1838   0.029   1.746   0.591  0.9457  2.0499  1.7552
  613SOL    HW2 1839   3.012   1.652   0.496 -2.4021  1.2257 -3.2455
  614SOL     OW 1840   1.934   0.577   2.161  0.4090 -0.0817 -0.5939
  614SOL    HW1 1841   1.955   0.637   2.243  2.3905  0.1155  1.2239
  614SOL    HW2 1842   1.983   0.602   2.080  1.2732 -1.6971  2.1979
  615SOL     OW 1843   0.761   1.391   1.119 -0.6456  0.1724  0.3261
  615SOL    HW1 1844   0.749   1.438   1.209  1.5903 -1.1363 -3.2325
  615SOL    HW2 1845   0.757   1.452   1.042 -1.1974 -0.3995 -1.6634
  616SOL     OW 1846   1.586   1.776   0.021  0.0443  0.1349 -0.1951
  616SOL    HW1 1847   1.500   1.828   0.039 -0.1305 -1.1789  0.8822
  616SOL    HW2 1848   1.668   1.840   0.019  1.6192  2.5507 -2.6784
  617SOL     OW 1849   2.013   2.897   0.429  0.7732  0.3417  0.5630
  617SOL    HW1 1850   2.086   2.829   0.395  2.4007 -0.7069  1.1398
  617SOL    HW2 1851   1.923   2.858   0.406  1.5912  0.2949 -4.8977
  618SOL     OW 1852   0.546   0.735   2.396  0.2041 -0.5920 -0.2898
  618SOL    HW1 1853   0.513   0.830   2.386 -1.4410  1.7972 -0.7088
  618SOL    HW2 1854   0.645   0.743   2.423 -0.7863  1.0106 -0.3608
  619SOL     OW 1855   2.721   1.561   1.077 -0.4154 -0.5228  0.1670
  619SOL    HW1 1856   2.785   1.533   1.003  1.3382 -3.6707 -0.6691
  619SOL    HW2 1857   2.630   1.565   1.043  2.4725 -0.3260  0.6358
  620SOL     OW 1858   2.079   2.823   2.774 -0.0924 -0.2326  0.5877
  620SOL    HW1 1859   2.095   2.825   2.676  1.7237 -1.7876  3.5380
  620SOL    HW2 1860   1.979   2.822   2.794 -0.6079  0.3462 -0.2139
  621SOL     OW 1861   2.465   1.704   3.039 -0.0571 -0.3038  0.1279
  621SOL    HW1 1862   2.424   1.617   3.071  0.5105 -2.3903  2.5014
  621SOL    HW2 1863   2.424   1.788   3.082  1.6333  2.0867 -2.1080
  622SOL     OW 1864   1.827   0.154   2.197 -0.0783 -0.1930  0.1557
  622SOL    HW1 1865   1.845   0.232   2.137 -4.0084 -2.3614  0.3785
  622SOL    HW2 1866   1.764   0.099   2.141 -0.6017  0.9886 -0.1934
  623SOL     OW 1867   1.139   2.001   0.872 -0.0086 -0.2220  0.0275
  623SOL    HW1 1868   1.038   1.988   0.869  1.9406 -0.2285  0.3190
  623SOL    HW2 1869   1.153   2.101   0.880  1.1605  2.9715  2.5872
  624SOL     OW 1870   0.160   3.071   3.085 -0.2968  0.3386  0.1804
  624SOL    HW1 1871   0.255   3.059   3.042 -0.2632 -0.8458 -1.6268
  624SOL    HW2 1872   0.148   0.078   0.025  0.2332 -1.6672  2.6350
  625SOL     OW 1873   1.071   1.681   0.615  0.3940  0.2929  0.0973
  625SOL    HW1 1874   0.995   1.657   0.678 -1.3371  0.3091 -2.8216
  625SOL    HW2 1875   1.061   1.777   0.581  0.2913  1.1776  1.4776
  626SOL     OW 1876   0.098   2.809   0.014  0.6343  0.4488  0.0892
  626SOL    HW1 1877   0.114   2.910   3.086 -0.3560  1.0291 -2.2302
  626SOL    HW2 1878   0.165   2.773   0.081 -4.5239  1.9127 -1.7680
  627SOL     OW 1879   1.296   1.746   2.728 -0.5341  0.0915  0.7599
  627SOL    HW1 1880   1.234   1.798   2.667  2.0162 -0.1557  1.5970
  627SOL    HW2 1881   1.275   1.769   2.825  2.5940  0.6992 -3.9163
  628SOL     OW 1882   0.190   2.922   2.818  0.0664 -0.7154  0.7239
  628SOL    HW1 1883   0.283   2.925   2.861  1.4461  1.2796  0.4382
  628SOL    HW2 1884   0.135   2.853   2.870  1.4620  0.0981 -1.8967
  629SOL     OW 1885   0.410   2.883   2.375  0.2453  0.1028  0.3516
  629SOL    HW1 1886   0.439   2.979   2.373 -0.8089  0.1699 -0.4399
  629SOL    HW2 1887   0.307   2.882   2.371  2.4440 -1.8150  1.8377
  630SOL     OW 1888   1.254   1.219   1.787  0.6286 -0.3400 -0.7933
  630SOL    HW1 1889   1.260   1.158   1.873 -2.3479 -1.1311  0.2100
  630SOL    HW2 1890   1.207   1.168   1.716 -3.0725  0.1138  2.4558
  631SOL     OW 1891   2.271   1.159   0.571 -0.2090 -0.7137  0.4965
  631SOL    HW1 1892   2.305   1.256   0.549 -0.6286  0.5966 -0.9826
  631SOL    HW2 1893   2.328   1.093   0.521  1.3182 -2.7744 -1.5503
  632SOL     OW 1894   2.513   0.562   2.097  0.2331 -0.7878  0.2390
  632SOL    HW1 1895   2.598   0.590   2.142  0.0771 -2.7675 -0.2773
  632SOL    HW2 1896   2.500   0.462   2.117  1.0890 -1.0991 -4.0466
  633SOL     OW 1897   0.756   1.952   0.222 -0.5137 -0.3604  0.2248
  633SOL    HW1 1898   0.719   1.985   0.133  0.0347  0.2407  0.0337
  633SOL    HW2 1899   0.857   1.973   0.235  2.8190  3.5935  0.1227
  634SOL     OW 1900   1.721   2.777   2.652 -0.0404 -0.5662  0.2825
  634SOL    HW1 1901   1.652   2.798   2.577 -1.9328  0.1351 -1.7205
  634SOL    HW2 1902   1.798   2.737   2.600  2.0895 -1.9289 -1.2958
  635SOL     OW 1903   2.091   0.249   0.143  0.0539 -0.2306  0.0846
  635SOL    HW1 1904   2.104   0.157   0.097 -0.6748 -2.4145  0.5823
  635SOL    HW2 1905   2.050   0.238   0.232  1.4385 -2.8659 -0.5357
  636SOL     OW 1906   0.763   1.558   0.610  0.2895 -0.1647 -0.7318
  636SOL    HW1 1907   0.754   1.607   0.522 -0.0600 -0.9188 -1.8863
  636SOL    HW2 1908   0.738   1.457   0.591 -1.6544 -6.0055 -1.3679
  637SOL     OW 1909   3.053   2.151   0.515  0.1450  0.6926  0.2549
  637SOL    HW1 1910   3.018   2.105   0.430  0.8926 -2.4958 -0.6997
  637SOL    HW2 1911   2.979   2.202   0.565  0.3484 -0.0975  0.3182
  638SOL     OW 1912   0.850   2.567   2.635 -0.1209  0.7632 -0.3983
  638SOL    HW1 1913   0.918   2.638   2.612 -0.4922  0.4799 -0.8277
  638SOL    HW2 1914   0.872   2.531   2.729 -1.4981 -1.5374  1.4954
  639SOL     OW 1915   1.303   1.930   0.047 -0.1018  0.4256  0.2903
  639SOL    HW1 1916   1.250   1.865   3.080 -0.2665 -0.6205  0.5051
  639SOL    HW2 1917   1.282   1.923   0.144  1.5825  3.2462 -2.0736
  640SOL     OW 1918   1.898   3.053   1.068 -0.0142  0.3018  0.0118
  640SOL    HW1 1919   1.807   3.041   1.106  0.0789 -1.8145  1.0577
  640SOL    HW2 1920   1.908   2.999   0.984  0.9695  0.1027  0.6280
  641SOL     OW 1921   3.064   2.865   0.367  0.1928 -0.1547 -0.4661
  641SOL    HW1 1922   2.963   2.883   0.366 -0.1595  2.7012 -0.5967
  641SOL    HW2 1923   0.017   2.922   0.291  1.2677 -0.2219  2.7906
  642SOL     OW 1924   1.113   0.121   1.516 -0.0309  0.3277 -0.0196
  642SOL    HW1 1925   1.021   0.135   1.475  0.6009  1.8476 -0.9643
  642SOL    HW2 1926   1.113   0.157   1.611 -0.7139  1.5033 -0.8505
  643SOL     OW 1927   0.446   1.755   2.048  0.2924 -0.0123  0.2105
  643SOL    HW1 1928   0.528   1.814   2.069  0.8335 -1.2910 -0.2239
  643SOL    HW2 1929   0.443   1.726   1.947 -0.4711 -1.7245 -2.3359
  644SOL     OW 1930   0.794   2.614   0.183  0.7514 -0.0038  0.0447
  644SOL    HW1 1931   0.801   2.514   0.169  0.3059  0.7638 -0.5772
  644SOL    HW2 1932   0.697   2.645   0.168 -1.4422 -1.6237 -0.4331
  645SOL     OW 1933   1.419   2.154   0.002 -0.4519 -0.3280 -0.1171
  645SOL    HW1 1934   1.367   2.222   3.038 -2.6556  0.3586 -2.8205
  645SOL    HW2 1935   1.375   2.064   0.005  0.4960  0.7512  0.2399
  646SOL     OW 1936   0.440   1.225   2.918  0.1435  0.1920  0.6565
  646SOL    HW1 1937   0.517   1.278   2.867 -1.4584  1.1206 -0.1817
  646SOL    HW2 1938   0.379   1.295   2.968 -2.3481 -0.5621  1.6418
  647SOL     OW 1939   0.687   0.116   0.972  0.1790  0.3373  0.3359
  647SOL    HW1 1940   0.663   0.190   0.911  2.1629 -1.7767 -0.2989
  647SOL    HW2 1941   0.741   0.151   1.053  0.9156  1.9360  2.4154
  648SOL     OW 1942   1.984   0.299   1.647 -0.0294  0.1645  0.1990
  648SOL    HW1 1943   1.953   0.278   1.552 -0.9244 -0.5361 -0.1072
  648SOL    HW2 1944   2.085   0.321   1.646 -1.0463  2.6998 -0.2187
  649SOL     OW 1945   1.150   1.889   2.535 -0.5317 -0.1930 -0.0581
  649SOL    HW1 1946   1.114   1.980   2.531  1.4664 -2.9231  1.9437
  649SOL    HW2 1947   1.093   1.829   2.481 -0.2528 -0.4427  0.3202
  650SOL     OW 1948   2.675   1.867   1.811  0.2690 -0.3740 -0.2850
  650SOL    HW1 1949   2.645   1.777   1.770  1.5760  1.6128  3.1894
  650SOL    HW2 1950   2.757   1.851   1.875  0.7548 -1.3720  3.0809
  651SOL     OW 1951   1.145   0.169   3.084 -0.1264 -0.0854 -0.2819
  651SOL    HW1 1952   1.131   0.068   0.015  0.4214 -3.4614  2.6599
  651SOL    HW2 1953   1.237   0.185   3.040  1.0271  1.8767  2.6169
  652SOL     OW 1954   2.868   1.714   0.069  0.1781  0.3657  0.7929
  652SOL    HW1 1955   2.796   1.707   3.089  2.3553  1.8162 -0.6870
  652SOL    HW2 1956   2.905   1.812   0.061  0.6577  0.0194  0.8812
  653SOL     OW 1957   0.270   0.195   0.950 -0.1199  0.1769 -0.5475
  653SOL    HW1 1958   0.202   0.189   1.022 -0.7273  2.3829  0.9725
  653SOL    HW2 1959   0.238   0.262   0.884  1.1300  2.1987 -1.1028
  654SOL     OW 1960   2.269   0.029   2.611  0.0233 -0.1063  0.0650
  654SOL    HW1 1961   2.214   0.057   2.529 -0.6506 -1.4490 -1.2355
  654SOL    HW2 1962   2.323   3.037   2.592 -1.5912  0.8073 -1.1056
  655SOL     OW 1963   0.427   2.414   0.909  0.2445 -0.3843  0.1309
  655SOL    HW1 1964   0.343   2.431   0.849  0.1360  0.8720 -2.3745
  655SOL    HW2 1965   0.418   2.434   1.008  3.8988 -0.1846  2.3265
  656SOL     OW 1966   0.132   2.861   2.331 -0.2258 -0.1230  0.1127
  656SOL    HW1 1967   0.163   2.928   2.258 -2.0067 -2.2008 -0.0454
  656SOL    HW2 1968   0.077   2.794   2.279 -1.5274 -0.0870  2.5565
  657SOL     OW 1969   2.332   0.560   2.448  1.0892  0.2641  0.2565
  657SOL    HW1 1970   2.310   0.564   2.347 -0.5943 -3.5757  0.3215
  657SOL    HW2 1971   2.331   0.461   2.471 -0.1570 -1.6210 -1.3409
  658SOL     OW 1972   2.280   1.754   1.168  0.1993 -0.5175  0.3846
  658SOL    HW1 1973   2.182   1.752   1.142  1.8307 -0.5180  2.2627
  658SOL    HW2 1974   2.289   1.750   1.274  0.0312 -0.2279  1.3770
  659SOL     OW 1975   2.100   3.072   0.062 -0.7443 -0.1037  0.2150
  659SOL    HW1 1976   2.136   2.991   0.010 -1.6214 -0.6008  1.2243
  659SOL    HW2 1977   2.002   3.059   0.092 -1.5799 -0.6025 -0.3714
  660SOL     OW 1978   1.377   1.538   2.946 -0.0952  0.3112 -0.1644
  660SOL    HW1 1979   1.468   1.567   2.916 -5.8025  1.3731 -0.5489
  660SOL    HW2 1980   1.322   1.622   2.937  0.5664 -1.1667 -1.8634
  661SOL     OW 1981   2.454   2.432   1.071 -0.1761  0.6603 -0.0735
  661SOL    HW1 1982   2.512   2.406   0.989  0.2463 -1.3618 -1.3545
  661SOL    HW2 1983   2.490   2.386   1.155  0.2761  0.0520 -1.8379
  662SOL     OW 1984   0.625   0.721   0.360 -0.0338 -0.2781 -0.2031
  662SOL    HW1 1985   0.680   0.715   0.274  1.7455  0.1714 -3.3148
  662SOL    HW2 1986   0.657   0.791   0.428  0.4500 -0.7338  0.1313
  663SOL     OW 1987   1.776   2.323   0.128  0.0553  0.1609 -0.5790
  663SOL    HW1 1988   1.748   2.270   0.047  0.7455 -0.0039  1.3526
  663SOL    HW2 1989   1.868   2.288   0.155 -2.5031  0.0945 -1.1887
  664SOL     OW 1990   0.613   2.056   1.400  0.8129 -0.2629  0.0901
  664SOL    HW1 1991   0.535   2.110   1.437 -0.4861  0.4697  1.7436
  664SOL    HW2 1992   0.692   2.066   1.460 -2.5613  0.5592 -3.1137
  665SOL     OW 1993   1.939   2.153   2.182 -0.0891 -0.0005  0.0313
  665SOL    HW1 1994   1.875   2.204   2.120  1.9386 -1.3331 -1.5258
  665SOL    HW2 1995   1.892   2.082   2.238 -1.8298  2.0392  0.8614
  666SOL     OW 1996   0.512   2.534   0.314  0.4641 -0.2286  0.1701
  666SOL    HW1 1997   0.495   2.431   0.298 -1.8892  0.5232 -0.7274
  666SOL    HW2 1998   0.526   2.598   0.235  0.8863  0.9040 -0.8901
  667SOL     OW 1999   2.122   1.424   2.141  0.6257 -0.6143  0.2883
  667SOL    HW1 2000   2.076   1.477   2.212 -0.1237 -1.6939 -1.0833
  667SOL    HW2 2001   2.088   1.438   2.042  0.5764 -0.7458  0.1298
  668SOL     OW 2002   0.497   0.674   2.692 -0.0562  0.3292 -0.2819
  668SOL    HW1 2003   0.500   0.681   2.588 -0.7693  0.1170  1.6506
  668SOL    HW2 2004   0.585   0.647   2.739  1.2248  0.5000  2.0041
  669SOL     OW 2005   1.483   2.458   2.631 -0.5650  0.1667 -0.0633
  669SOL    HW1 2006   1.459   2.362   2.615  0.0507  1.0595  0.1381
  669SOL    HW2 2007   1.478   2.512   2.542 -0.7473 -0.2885  1.1840
  670SOL     OW 2008   2.452   1.989   3.043 -0.3482  0.0660 -0.2579
  670SOL    HW1 2009   2.409   2.073   3.006  0.6625  1.4444  0.2664
  670SOL    HW2 2010   2.506   1.945   2.972 -0.9292  1.3227  0.7098
  671SOL     OW 2011   0.468   1.015   1.077  0.0030 -0.3888 -0.3274
  671SOL    HW1 2012   0.414   1.084   1.029  0.1880 -0.8732  2.6160
  671SOL    HW2 2013   0.507   1.045   1.169 -0.5768  0.4095 -0.5810
  672SOL     OW 2014   2.479   0.794   2.325  0.0469 -0.1314  0.4913
  672SOL    HW1 2015   2.433   0.870   2.274 -0.7310 -0.2295  0.3262
  672SOL    HW2 2016   2.503   0.826   2.420  1.2134 -0.1718  0.6983
  673SOL     OW 2017   2.519   2.694   2.050 -0.1642 -0.0632 -0.1270
  673SOL    HW1 2018   2.598   2.737   2.100 -0.3913 -1.1403 -1.1241
  673SOL    HW2 2019   2.503   2.602   2.084  1.4307  2.6181  1.1069
  674SOL     OW 2020   1.410   2.493   2.089 -0.4344  0.6739  0.5881
  674SOL    HW1 2021   1.329   2.522   2.034  0.6911 -3.5329  0.7512
  674SOL    HW2 2022   1.403   2.396   2.113 -0.4238  1.8979  0.3846
  675SOL     OW 2023   0.561   0.824   1.431 -0.3709 -0.1393  0.6339
  675SOL    HW1 2024   0.579   0.769   1.346  0.0398  1.4366  0.9212
  675SOL    HW2 2025   0.535   0.760   1.501  0.3076  0.5007 -0.9893
  676SOL     OW 2026   1.971   0.853   0.741  0.7495 -0.0167  0.0552
  676SOL    HW1 2027   1.881   0.813   0.728  1.3168 -1.4791 -2.5011
  676SOL    HW2 2028   1.980   0.943   0.695  1.0566 -1.6570  0.0621
  677SOL     OW 2029   2.780   1.346   2.565 -0.8337 -0.0833  0.3068
  677SOL    HW1 2030   2.709   1.314   2.502  1.2719  0.2001  0.3775
  677SOL    HW2 2031   2.775   1.448   2.589 -0.9278  3.0855 -0.3301
  678SOL     OW 2032   2.711   2.007   0.993  0.6982  0.0749 -0.6191
  678SOL    HW1 2033   2.748   2.055   1.074 -1.6123 -0.1815  0.0026
  678SOL    HW2 2034   2.633   1.940   1.009 -1.5308 -0.3425  2.5314
  679SOL     OW 2035   1.509   2.795   0.780 -0.0254  0.1944  0.1152
  679SOL    HW1 2036   1.568   2.738   0.711  1.8884 -1.8368  0.4757
  679SOL    HW2 2037   1.501   2.883   0.735  2.5146 -3.2266  2.7908
  680SOL     OW 2038   0.248   2.507   2.277 -0.2638 -0.2560 -0.0917
  680SOL    HW1 2039   0.309   2.572   2.322 -1.3582 -0.0139  0.4889
  680SOL    HW2 2040   0.288   2.445   2.213  0.7263  1.4615  0.9062
  681SOL     OW 2041   2.763   1.346   1.782  0.0031 -0.0289 -0.1362
  681SOL    HW1 2042   2.855   1.329   1.812 -0.5106  0.4610  1.1896
  681SOL    HW2 2043   2.695   1.277   1.816 -2.1780 -1.2565  1.3316
  682SOL     OW 2044   0.413   1.778   1.303 -0.2767  0.3418  0.4383
  682SOL    HW1 2045   0.352   1.805   1.382 -1.4074 -1.4127  2.6399
  682SOL    HW2 2046   0.409   1.848   1.229  0.4452 -2.5045  3.2187
  683SOL     OW 2047   2.175   1.379   1.366 -0.1815  0.2711  0.1148
  683SOL    HW1 2048   2.218   1.389   1.272 -0.1527 -2.3466 -2.3842
  683SOL    HW2 2049   2.093   1.439   1.375  1.5097 -1.8449  1.1785
  684SOL     OW 2050   2.713   1.614   2.968  0.3390  0.3294  0.6294
  684SOL    HW1 2051   2.720   1.642   2.870 -0.0076 -0.4815 -2.2458
  684SOL    HW2 2052   2.618   1.637   2.995  0.6344 -0.3146 -2.0094
  685SOL     OW 2053   1.564   1.259   2.953 -0.0327  0.1799 -0.1715
  685SOL    HW1 2054   1.479   1.311   2.973  1.7432  1.2307  1.2255
  685SOL    HW2 2055   1.549   1.159   2.958  0.2812  0.3437 -1.2378
  686SOL     OW 2056   0.343   0.241   1.394  0.2260 -0.5324  0.2779
  686SOL    HW1 2057   0.425   0.286   1.353 -1.0565 -2.3571 -0.7840
  686SOL    HW2 2058   0.312   0.158   1.337 -1.2501  1.0920  0.0533
  687SOL     OW 2059   1.031   2.001   2.203 -0.0539 -0.7024 -0.6278
  687SOL    HW1 2060   1.134   2.006   2.191  2.1655 -0.0230 -0.0865
  687SOL    HW2 2061   0.997   1.904   2.212  1.0330 -0.4454  1.9868
  688SOL     OW 2062   0.235   1.584   1.206  0.3028 -0.2501 -0.2928
  688SOL    HW1 2063   0.306   1.641   1.257 -0.5657  0.2666  0.2836
  688SOL    HW2 2064   0.190   1.629   1.125  1.1962  0.6083  1.0453
  689SOL     OW 2065   1.516   1.016   1.662 -0.0005  0.3928 -0.0475
  689SOL    HW1 2066   1.469   1.040   1.574 -0.2287 -0.4122  0.2714
  689SOL    HW2 2067   1.582   0.939   1.640  2.2215  0.5759  0.3585
  690SOL     OW 2068   2.805   0.832   1.158 -0.0981  0.3648 -0.2358
  690SOL    HW1 2069   2.754   0.754   1.109 -2.5717  1.6601 -0.2782
  690SOL    HW2 2070   2.885   0.799   1.213 -2.0785  0.2461 -0.4480
  691SOL     OW 2071   0.435   2.146   1.819  0.7007  0.1989  0.6097
  691SOL    HW1 2072   0.404   2.112   1.913 -0.9646  0.8134 -0.3387
  691SOL    HW2 2073   0.447   2.249   1.825 -0.3747 -0.4579  0.9473
  692SOL     OW 2074   1.932   0.224   1.095  0.0761  0.1266 -0.0081
  692SOL    HW1 2075   1.924   0.128   1.064  1.0021  2.7807  0.0675
  692SOL    HW2 2076   1.865   0.285   1.043 -4.1322  0.5602 -1.5568
  693SOL     OW 2077   0.140   1.423   2.348 -0.1062 -0.2429 -0.1312
  693SOL    HW1 2078   0.169   1.492   2.417 -0.3932  0.4464  0.3580
  693SOL    HW2 2079   0.043   1.386   2.360 -0.2660  1.1081  0.9346
  694SOL     OW 2080   2.306   0.608   1.234 -0.0723 -0.4541  0.1594
  694SOL    HW1 2081   2.318   0.510   1.269 -1.0065 -3.2595  1.7849
  694SOL    HW2 2082   2.372   0.675   1.273  0.4869 -1.2592  3.1074
  695SOL     OW 2083   1.009   1.493   1.628 -0.2554 -0.2929  0.6012
  695SOL    HW1 2084   1.018   1.576   1.570  0.0344 -2.0468  0.5153
  695SOL    HW2 2085   0.987   1.409   1.574 -2.2392 -0.2019  0.5583
  696SOL     OW 2086   1.059   2.894   3.036  0.4354  0.3145 -0.1533
  696SOL    HW1 2087   1.055   2.793   3.039  1.0227  0.1969  2.4652
  696SOL    HW2 2088   1.144   2.929   2.993 -1.4941  1.3923 -2.0386
  697SOL     OW 2089   0.932   0.375   0.914 -0.3858 -0.2306  0.4899
  697SOL    HW1 2090   0.874   0.370   0.827 -0.7602  0.5869 -0.2329
  697SOL    HW2 2091   0.999   0.297   0.922 -2.7524  0.0486  0.3290
  698SOL     OW 2092   1.096   1.376   2.256  0.6466 -0.0537 -0.3855
  698SOL    HW1 2093   1.002   1.411   2.235 -1.4629 -1.0740  0.4365
  698SOL    HW2 2094   1.116   1.390   2.356  0.5123 -1.7105  0.4162
  699SOL     OW 2095   1.422   0.892   1.187  0.1539 -0.2350 -0.6797
  699SOL    HW1 2096   1.378   0.983   1.166 -0.4100  1.9061 -1.0299
  699SOL    HW2 2097   1.374   0.822   1.131  1.4522 -0.8865  1.1294
  700SOL     OW 2098   0.800   2.832   0.335  0.3170 -0.0742  0.1481
  700SOL    HW1 2099   0.817   2.747   0.283 -0.6946  0.3538 -1.5981
  700SOL    HW2 2100   0.881   2.894   0.325  0.3708 -1.0396 -0.0580
  701SOL     OW 2101   2.473   2.906   2.661 -0.1147  0.3759  0.1286
  701SOL    HW1 2102   2.546   2.948   2.718 -0.9464  0.6595  0.0209
  701SOL    HW2 2103   2.500   2.920   2.561 -1.1713 -1.1286 -1.9770
  702SOL     OW 2104   1.375   0.520   0.070 -0.0857 -0.4185 -0.2421
  702SOL    HW1 2105   1.352   0.447   0.136 -0.4683  0.8599  1.7985
  702SOL    HW2 2106   1.306   0.591   0.072  1.3991  0.7098  1.9362
  703SOL     OW 2107   2.536   2.953   2.396  0.7384  0.0387 -0.1448
  703SOL    HW1 2108   2.456   2.999   2.352 -0.2372 -1.9848  0.7767
  703SOL    HW2 2109   2.576   2.891   2.325 -0.2914  1.4509 -1.8111
  704SOL     OW 2110   3.087   1.923   0.635 -0.2035 -0.3695 -0.1034
  704SOL    HW1 2111   3.078   2.006   0.583 -0.0044 -0.6584  3.2398
  704SOL    HW2 2112   2.997   1.903   0.676  0.9767  2.5649  0.0281
  705SOL     OW 2113   3.027   0.003   2.226 -0.4696 -0.1261  0.2397
  705SOL    HW1 2114   0.037   0.006   2.237  0.2060  2.3317  0.0537
  705SOL    HW2 2115   2.993   3.013   2.187 -1.4895  4.4711  1.8951
  706SOL     OW 2116   1.764   2.793   0.352  0.0098 -0.2545  0.2141
  706SOL    HW1 2117   1.754   2.714   0.289  3.0460  2.1254  2.0995
  706SOL    HW2 2118   1.720   2.774   0.442 -0.6503 -0.3189  1.3937
  707SOL     OW 2119   0.858   1.757   1.975 -0.2611  0.9517 -0.7855
  707SOL    HW1 2120   0.960   1.745   1.962 -1.7949  2.6326 -0.6418
  707SOL    HW2 2121   0.812   1.670   2.011 -0.2245 -2.0316  0.8261
  708SOL     OW 2122   0.010   2.228   1.472  0.0483 -0.4740 -0.4556
  708SOL    HW1 2123   0.055   2.174   1.395  2.4456 -0.4852 -1.1406
  708SOL    HW2 2124   0.023   2.327   1.456  0.5764 -0.2015 -0.4047
  709SOL     OW 2125   2.168   3.031   1.790  0.2622  0.0633 -0.1175
  709SOL    HW1 2126   2.086   3.000   1.741 -0.1019 -0.6935 -0.8175
  709SOL    HW2 2127   2.252   2.980   1.748  2.9153 -1.0015 -0.3994
  710SOL     OW 2128   2.103   0.977   2.523 -0.4120 -0.1258 -0.0273
  710SOL    HW1 2129   2.066   1.063   2.560 -0.4453 -1.1279  0.7723
  710SOL    HW2 2130   2.089   0.902   2.594 -1.2039 -0.9969  1.0388
  711SOL     OW 2131   1.028   2.212   2.965 -0.2365 -0.3991  0.3357
  711SOL    HW1 2132   1.020   2.223   3.068 -1.5719 -1.6249 -0.4718
  711SOL    HW2 2133   1.124   2.227   2.929  1.6415  0.5991 -2.3149
  712SOL     OW 2134   0.607   2.436   2.127 -0.1485 -0.2856  0.9233
  712SOL    HW1 2135   0.565   2.498   2.196  2.2913 -1.8796  2.0076
  712SOL    HW2 2136   0.605   2.340   2.156 -0.8335  0.5536  1.0762
  713SOL     OW 2137   1.786   1.276   0.005 -0.5073 -0.3334  0.1237
  713SOL    HW1 2138   1.700   1.300   3.051  0.8586 -1.0027  0.7571
  713SOL    HW2 2139   1.793   1.306   0.105  1.0696 -0.1938 -0.5204
  714SOL     OW 2140   0.712   1.272   1.426  0.2251  0.4996 -0.2320
  714SOL    HW1 2141   0.687   1.372   1.410 -0.1169 -0.8968  0.6412
  714SOL    HW2 2142   0.633   1.212   1.404  1.0013 -0.0154  0.8214
  715SOL     OW 2143   1.774   0.365   3.030  0.1088 -0.0603 -0.7429
  715SOL    HW1 2144   1.826   0.452   3.044 -1.6104 -0.1439 -0.4816
  715SOL    HW2 2145   1.760   0.318   0.027 -0.4110  0.3585 -1.9767
  716SOL     OW 2146   2.915   2.835   2.141  0.2408 -0.6218  0.4088
  716SOL    HW1 2147   2.887   2.830   2.042  0.0499  0.9285  1.4039
  716SOL    HW2 2148   3.005   2.788   2.155 -0.3963 -1.9975 -1.4459
  717SOL     OW 2149   0.138   0.637   0.925  0.0089  0.5482  0.3145
  717SOL    HW1 2150   0.063   0.672   0.864  3.3321 -1.9531 -0.5407
  717SOL    HW2 2151   0.107   0.584   1.009  1.9630 -2.0844  0.3041
  718SOL     OW 2152   0.417   1.424   2.525 -0.6362  0.2968  0.1807
  718SOL    HW1 2153   0.493   1.427   2.596 -1.4943 -0.9092 -2.3069
  718SOL    HW2 2154   0.466   1.439   2.439  0.2871 -0.1230  2.2478
  719SOL     OW 2155   2.362   1.436   0.035 -0.1727  0.0627  0.0649
  719SOL    HW1 2156   2.266   1.420   0.008 -1.3566 -0.8747 -1.1716
  719SOL    HW2 2157   2.426   1.381   3.073 -1.0491  1.7245  0.6490
  720SOL     OW 2158   1.244   0.781   0.907  0.4030 -0.0361 -0.0922
  720SOL    HW1 2159   1.242   0.686   0.887 -0.1937 -1.0528 -1.2475
  720SOL    HW2 2160   1.211   0.783   1.006  0.0645 -0.9459  0.5405
  721SOL     OW 2161   2.568   0.333   0.261  0.4600 -0.4666 -0.0345
  721SOL    HW1 2162   2.638   0.363   0.196 -1.5055  0.7478 -0.1293
  721SOL    HW2 2163   2.558   0.232   0.259  1.3060 -0.9800  0.7387
  722SOL     OW 2164   2.004   0.620   2.787 -0.0700 -0.4084  0.0200
  722SOL    HW1 2165   2.083   0.666   2.744 -0.0219 -1.2190 -3.2335
  722SOL    HW2 2166   1.987   0.529   2.746 -0.1251  3.7070 -0.8177
  723SOL     OW 2167   2.739   0.587   0.367 -0.5208  0.7915 -0.8354
  723SOL    HW1 2168   2.694   0.497   0.342  2.4733 -1.4806  0.9401
  723SOL    HW2 2169   2.705   0.618   0.457  1.7548 -1.4905  0.8688
  724SOL     OW 2170   0.737   1.533   2.090  0.3763  0.1587 -0.3476
  724SOL    HW1 2171   0.739   1.528   2.194 -2.9477 -1.9396  1.5395
  724SOL    HW2 2172   0.794   1.455   2.057  1.2836  0.7716  1.1923
  725SOL     OW 2173   1.897   0.536   1.731  0.1275 -0.0634 -0.2634
  725SOL    HW1 2174   1.905   0.615   1.665  0.1950  1.3854  0.5489
  725SOL    HW2 2175   1.933   0.444   1.705  1.8413 -0.4872 -0.2315
  726SOL     OW 2176   1.625   3.024   0.634 -0.2792  0.3396  0.1063
  726SOL    HW1 2177   1.731   3.017   0.645  2.4152  1.1547 -1.1141
  726SOL    HW2 2178   1.607   3.010   0.536 -0.0798  0.0782  2.6958
  727SOL     OW 2179   1.569   1.724   2.216  0.0313 -0.1672  0.6424
  727SOL    HW1 2180   1.611   1.743   2.307 -1.8960  1.2292 -1.0558
  727SOL    HW2 2181   1.495   1.660   2.213  0.4389 -0.1659  0.5884
  728SOL     OW 2182   1.957   2.921   1.682 -0.1513 -0.2167  0.7205
  728SOL    HW1 2183   1.879   2.920   1.615 -0.0842  0.7796 -0.0897
  728SOL    HW2 2184   1.983   2.832   1.711 -2.2106  0.0382 -1.3147
  729SOL     OW 2185   2.217   1.165   0.842 -0.5198  0.1036 -0.2654
  729SOL    HW1 2186   2.118   1.202   0.843 -1.8053 -1.1334  0.4005
  729SOL    HW2 2187   2.253   1.146   0.748  1.3215 -0.4294  0.0435
  730SOL     OW 2188   0.282   1.243   2.690 -0.1244  0.3056  0.0638
  730SOL    HW1 2189   0.340   1.256   2.772  0.7046  1.7408  0.5926
  730SOL    HW2 2190   0.298   1.318   2.629 -2.4737 -1.0336  0.1704
  731SOL     OW 2191   0.145   0.017   0.749 -0.2834  0.0637  0.3203
  731SOL    HW1 2192   0.228   0.018   0.687 -1.4984 -0.3457 -1.6898
  731SOL    HW2 2193   0.157   0.073   0.831  0.6110 -0.5681  2.0117
  732SOL     OW 2194   1.329   0.946   0.297 -0.1041 -0.3411 -0.4567
  732SOL    HW1 2195   1.253   0.879   0.317 -1.7952 -0.8259  1.3100
  732SOL    HW2 2196   1.381   0.925   0.215 -1.2193  0.3474  0.2131
  733SOL     OW 2197   0.628   1.742   0.909 -0.0985 -0.1053  0.3195
  733SOL    HW1 2198   0.706   1.675   0.922  0.8009  1.6831 -0.2269
  733SOL    HW2 2199   0.546   1.684   0.904 -1.0590 -0.2107  0.7315
  734SOL     OW 2200   0.005   2.583   0.351  0.1396 -0.1063  0.5212
  734SOL    HW1 2201   3.090   2.682   0.369  1.0883 -2.3969  0.7360
  734SOL    HW2 2202   3.074   2.532   0.440 -0.0229  0.0062  0.1884
  735SOL     OW 2203   1.326   0.525   1.152  0.2947  0.1926 -0.1368
  735SOL    HW1 2204   1.261   0.484   1.221 -2.5051  2.1972  0.7474
  735SOL    HW2 2205   1.413   0.478   1.171  1.5506 -1.3028  1.3655
  736SOL     OW 2206   2.219   2.425   0.106 -0.3929 -0.3311 -0.0980
  736SOL    HW1 2207   2.191   2.525   0.103  0.7831  0.2022  1.9260
  736SOL    HW2 2208   2.253   2.400   0.200  0.0181 -2.4617 -1.0290
  737SOL     OW 2209   3.070   0.712   0.722  0.2631  0.3660 -0.1196
  737SOL    HW1 2210   3.021   0.770   0.788  2.6196 -0.6109 -0.5513
  737SOL    HW2 2211   3.089   0.766   0.640 -2.5251 -2.3868  0.2412
  738SOL     OW 2212   2.729   0.163   1.061  0.0371  0.3487 -0.0036
  738SOL    HW1 2213   2.739   0.098   0.987  1.9427 -0.5701  3.6464
  738SOL    HW2 2214   2.631   0.188   1.080 -2.2505  3.7070  0.2104
  739SOL     OW 2215   1.290   2.574   0.180 -0.0484  0.6076 -0.3769
  739SOL    HW1 2216   1.328   2.476   0.180 -0.2766 -1.5498  1.3629
  739SOL    HW2 2217   1.323   2.621   0.267  0.8474  1.2055  0.8515
  740SOL     OW 2218   1.674   0.547   1.267 -0.3973 -0.0870  0.0932
  740SOL    HW1 2219   1.634   0.469   1.215 -0.6227 -0.0119 -0.5612
  740SOL    HW2 2220   1.750   0.592   1.211 -1.1913  3.5828  0.3337
  741SOL     OW 2221   2.919   0.851   0.869  0.9229  0.5946  0.1941
  741SOL    HW1 2222   2.970   0.906   0.936  2.7045 -1.4060  3.4075
  741SOL    HW2 2223   2.819   0.876   0.852 -2.9679  2.3892  1.5797
  742SOL     OW 2224   0.580   1.427   2.755 -0.0576 -0.0297  0.3594
  742SOL    HW1 2225   0.665   1.411   2.702  1.0145 -0.8946  1.3274
  742SOL    HW2 2226   0.602   1.502   2.820 -3.3718  0.2711 -1.9462
  743SOL     OW 2227   1.309   0.670   2.190  0.5609  0.0473  0.3048
  743SOL    HW1 2228   1.334   0.769   2.199 -0.1320  0.2939  0.6962
  743SOL    HW2 2229   1.374   0.611   2.143 -2.3488 -2.5815 -0.0985
  744SOL     OW 2230   2.255   0.853   1.534  0.4322 -0.1686 -0.3728
  744SOL    HW1 2231   2.328   0.851   1.459  2.1533 -0.4760 -0.3625
  744SOL    HW2 2232   2.215   0.945   1.536  2.0129 -1.7433  3.8549
  745SOL     OW 2233   1.324   1.604   1.613 -0.4578 -0.0383 -0.2682
  745SOL    HW1 2234   1.382   1.539   1.561  1.6806  1.0861 -1.5790
  745SOL    HW2 2235   1.283   1.564   1.700 -1.1688  0.5753  1.2089
  746SOL     OW 2236   2.026   1.667   1.093 -0.3044 -0.3046 -0.1578
  746SOL    HW1 2237   1.953   1.643   1.158  0.6013  2.5516  2.7380
  746SOL    HW2 2238   2.037   1.589   1.029  0.7661  0.7000 -1.5939
  747SOL     OW 2239   2.269   1.444   1.122 -0.2328 -0.8891 -0.0646
  747SOL    HW1 2240   2.325   1.529   1.128  4.3363  2.1474  3.5444
  747SOL    HW2 2241   2.192   1.455   1.056 -1.3691 -1.0424 -1.1973
  748SOL     OW 2242   0.688   2.167   0.873  0.0972  0.4802  0.2982
  748SOL    HW1 2243   0.619   2.194   0.804 -0.6384  2.2001  2.1505
  748SOL    HW2 2244   0.657   2.149   0.968  2.3564  0.3228  2.0559
  749SOL     OW 2245   2.286   2.838   2.087 -0.0472  0.0816 -0.2547
  749SOL    HW1 2246   2.228   2.839   2.003  0.9696  0.3945 -0.9033
  749SOL    HW2 2247   2.370   2.780   2.081  0.1634  4.4072  1.6248
  750SOL     OW 2248   2.469   0.542   0.941 -0.4363 -0.9132  0.1920
  750SOL    HW1 2249   2.436   0.508   0.854 -0.0729  1.5465  0.7040
  750SOL    HW2 2250   2.424   0.630   0.964  0.5713 -0.9391  0.2922
  751SOL     OW 2251   2.780   2.891   0.377  0.1167  0.4788  0.1605
  751SOL    HW1 2252   2.777   2.792   0.353  1.6658 -0.6332 -1.3037
  751SOL    HW2 2253   2.713   2.941   0.318 -0.4650  1.6476  2.0849
  752SOL     OW 2254   0.007   2.895   0.625  0.3753 -0.2921 -0.5280
  752SOL    HW1 2255   0.006   2.871   0.524 -1.0223  0.0324  1.3118
  752SOL    HW2 2256   0.054   2.979   0.642 -3.9122 -0.5469 -2.4036
  753SOL     OW 2257   1.612   0.704   2.266  0.1622  0.1808 -0.1260
  753SOL    HW1 2258   1.591   0.704   2.164  0.1553 -0.8797 -0.7141
  753SOL    HW2 2259   1.700   0.755   2.275 -1.7267  1.9099 -1.8096
  754SOL     OW 2260   1.461   2.188   1.829 -0.6712  0.0065 -0.3971
  754SOL    HW1 2261   1.535   2.234   1.883 -0.5479  2.3090 -0.3772
  754SOL    HW2 2262   1.510   2.132   1.756  1.5444 -0.3393 -0.0886
  755SOL     OW 2263   2.628   0.652   0.613 -0.6094  0.1709  0.8910
  755SOL    HW1 2264   2.585   0.630   0.699  1.9312  3.5071 -1.1155
  755SOL    HW2 2265   2.609   0.752   0.599  1.3480  0.2623 -0.2500
  756SOL     OW 2266   0.988   1.539   2.707 -0.2008 -0.5956  0.4821
  756SOL    HW1 2267   1.047   1.500   2.779  2.0392  1.5270 -1.2718
  756SOL    HW2 2268   0.940   1.618   2.739  1.9650 -2.4986 -2.3473
  757SOL     OW 2269   1.147   2.891   0.424 -0.1321  0.2948 -0.3072
  757SOL    HW1 2270   1.169   2.981   0.471 -0.5690  1.4763 -0.6918
  757SOL    HW2 2271   1.198   2.815   0.469 -0.4706  0.4447  1.7348
  758SOL     OW 2272   1.188   3.002   1.195  0.3543 -0.3989  0.6933
  758SOL    HW1 2273   1.144   2.984   1.102 -0.9958 -1.3601  0.6425
  758SOL    HW2 2274   1.239   0.002   1.195 -1.6064  2.2675  1.0629
  759SOL     OW 2275   0.327   0.567   0.592  0.1146  0.3762  0.2501
  759SOL    HW1 2276   0.283   0.538   0.679 -1.4810 -1.1865  1.7862
  759SOL    HW2 2277   0.262   0.623   0.540  1.2076 -0.2839  1.0716
  760SOL     OW 2278   2.502   0.968   1.151  0.2639 -0.3301 -0.1548
  760SOL    HW1 2279   2.558   0.915   1.088 -3.2000  0.8219  0.0845
  760SOL    HW2 2280   2.509   1.067   1.141 -1.8901  1.4009  2.6321
  761SOL     OW 2281   1.730   0.472   0.781  0.1737  0.1484 -0.1263
  761SOL    HW1 2282   1.659   0.401   0.791  0.2637 -2.6855 -0.8069
  761SOL    HW2 2283   1.822   0.425   0.773 -5.6855  1.2890  0.9111
  762SOL     OW 2284   2.191   2.100   0.623  0.6059 -0.0836 -0.6334
  762SOL    HW1 2285   2.194   2.050   0.534 -0.1844 -2.2513 -2.4702
  762SOL    HW2 2286   2.173   2.200   0.603 -2.1453 -0.5047 -0.7127
  763SOL     OW 2287   0.843   1.164   1.665 -0.3850  0.1301 -0.7180
  763SOL    HW1 2288   0.812   1.233   1.730 -1.5574  0.1832  0.9863
  763SOL    HW2 2289   0.818   1.193   1.571  3.7508 -1.1967  0.2976
  764SOL     OW 2290   2.532   2.214   2.581  0.2264 -0.6779  0.0877
  764SOL    HW1 2291   2.556   2.191   2.484  1.6691  0.7085 -0.2153
  764SOL    HW2 2292   2.535   2.312   2.591  1.5667 -2.1477 -1.5836
  765SOL     OW 2293   0.829   2.549   1.004 -0.4996  0.3015  0.0335
  765SOL    HW1 2294   0.764   2.541   0.925  0.4422 -1.4975 -1.7431
  765SOL    HW2 2295   0.802   2.627   1.066  0.3469 -0.9543  0.2215
  766SOL     OW 2296   3.080   1.689   2.405  0.1683  0.2989  0.5249
  766SOL    HW1 2297   0.060   1.639   2.459  2.2223 -1.7034  2.7668
  766SOL    HW2 2298   0.010   1.684   2.307 -0.7587  0.0998  3.6203
  767SOL     OW 2299   2.223   0.727   2.658 -0.4808  0.0492 -0.0325
  767SOL    HW1 2300   2.301   0.737   2.728  0.5879  3.1823  2.0694
  767SOL    HW2 2301   2.253   0.676   2.574 -0.1555  2.5742  0.0300
  768SOL     OW 2302   0.945   0.122   2.484 -0.1217  0.0944  0.0413
  768SOL    HW1 2303   0.922   0.116   2.583 -1.3871 -0.7550 -1.3291
  768SOL    HW2 2304   0.872   0.079   2.439  3.8379  2.0576 -0.9912
  769SOL     OW 2305   0.192   2.467   0.786 -0.3970  0.1770 -0.3116
  769SOL    HW1 2306   0.192   2.527   0.705 -1.0686 -0.2149 -2.5821
  769SOL    HW2 2307   0.105   2.483   0.835 -0.9006  2.7919  0.3950
  770SOL     OW 2308   0.767   0.460   0.113 -0.1170  0.7123 -0.8064
  770SOL    HW1 2309   0.696   0.432   0.047  1.9364 -1.0313 -2.4762
  770SOL    HW2 2310   0.731   0.431   0.208 -2.2368 -1.0426  2.0634
  771SOL     OW 2311   1.145   1.516   2.484 -0.3313 -0.0798  0.4509
  771SOL    HW1 2312   1.077   1.522   2.560  0.7967  0.0882  3.4082
  771SOL    HW2 2313   1.236   1.489   2.522  1.3707 -4.1196  1.4675
  772SOL     OW 2314   2.343   3.040   2.239  0.1401  0.4122 -0.1105
  772SOL    HW1 2315   2.309   2.968   2.173 -2.1131 -1.9054 -2.3363
  772SOL    HW2 2316   2.264   3.089   2.281  0.2050 -0.1927 -2.0127
  773SOL     OW 2317   1.596   0.716   1.994  0.1373 -0.0370  0.2672
  773SOL    HW1 2318   1.537   0.779   1.945 -0.2137  1.7303 -0.4820
  773SOL    HW2 2319   1.606   0.636   1.935 -1.6796 -0.4836  2.4436
  774SOL     OW 2320   1.328   0.742   1.556 -0.0909 -0.1405 -0.0252
  774SOL    HW1 2321   1.245   0.784   1.523  2.6073  0.6100  0.8036
  774SOL    HW2 2322   1.400   0.742   1.486 -3.3991 -2.4991  3.1960
  775SOL     OW 2323   2.178   2.707   0.313  0.7215  0.3416 -0.8652
  775SOL    HW1 2324   2.172   2.709   0.211  1.1587  2.9073 -1.2568
  775SOL    HW2 2325   2.276   2.712   0.334 -2.8581  1.0142  0.7835
  776SOL     OW 2326   2.045   0.960   1.978  0.2237  0.3336 -0.7630
  776SOL    HW1 2327   1.950   0.950   1.938  0.2228  0.4889 -1.2741
  776SOL    HW2 2328   2.045   0.945   2.082  0.2945 -0.1159  4.1351
  777SOL     OW 2329   2.980   1.322   2.352  0.5165  0.2547 -0.1780
  777SOL    HW1 2330   2.931   1.278   2.271 -0.2386 -2.1113 -0.9557
  777SOL    HW2 2331   2.912   1.328   2.427  1.6673 -0.6183 -1.6450
  778SOL     OW 2332   2.546   0.901   2.560  0.2663 -0.2042  0.0128
  778SOL    HW1 2333   2.546   0.844   2.644 -1.0116 -0.0423 -0.7182
  778SOL    HW2 2334   2.640   0.912   2.525 -0.4266 -2.2725 -1.7260
  779SOL     OW 2335   2.877   0.380   2.773  0.0363 -0.0546 -0.3543
  779SOL    HW1 2336   2.955   0.433   2.805 -2.0109 -1.1653 -1.3817
  779SOL    HW2 2337   2.904   0.310   2.701 -0.0726  0.1313 -2.9989
  780SOL     OW 2338   2.300   2.664   2.306  0.0403  0.1245 -0.0276
  780SOL    HW1 2339   2.251   2.713   2.233 -2.2430 -2.0215  2.4956
  780SOL    HW2 2340   2.379   2.607   2.272  1.9183 -1.3326  1.1401
  781SOL     OW 2341   3.024   0.944   1.883 -0.0771  0.1812  0.3586
  781SOL    HW1 2342   2.933   0.922   1.919  2.1173  1.3807  0.3596
  781SOL    HW2 2343   3.027   0.931   1.782  1.5940  1.2885  0.4769
  782SOL     OW 2344   1.672   2.330   2.799 -0.3321  0.0339  0.2509
  782SOL    HW1 2345   1.608   2.372   2.732  0.1826  1.7339 -1.1956
  782SOL    HW2 2346   1.765   2.371   2.797 -1.4026 -2.0554  2.7860
  783SOL     OW 2347   0.870   2.340   1.188 -0.4353  0.2738 -0.0607
  783SOL    HW1 2348   0.913   2.397   1.264  0.9200  0.5209  1.5282
  783SOL    HW2 2349   0.829   2.401   1.116 -1.1265 -2.1951 -0.4618
  784SOL     OW 2350   2.269   0.628   2.184 -0.0950  0.5747  0.1129
  784SOL    HW1 2351   2.277   0.564   2.104  1.6935 -1.7699 -2.0255
  784SOL    HW2 2352   2.360   0.662   2.200 -0.3034 -1.2800 -2.9492
  785SOL     OW 2353   0.082   0.167   1.149  0.3452  0.1449  0.3790
  785SOL    HW1 2354   0.138   0.109   1.210 -2.2591 -2.5009  0.5137
  785SOL    HW2 2355   0.066   0.256   1.196  1.3097  0.2908 -1.3584
  786SOL     OW 2356   1.413   2.680   0.398  0.0618 -0.0073 -0.6349
  786SOL    HW1 2357   1.349   2.661   0.480  0.7665 -3.0298  0.2436
  786SOL    HW2 2358   1.438   2.782   0.382  1.1457  0.1826  0.4756
  787SOL     OW 2359   1.270   0.136   0.744  0.2721 -0.1144 -0.5337
  787SOL    HW1 2360   1.308   0.230   0.726  2.6422  0.6256 -2.9008
  787SOL    HW2 2361   1.331   0.080   0.799 -0.5377  2.3113  0.2627
  788SOL     OW 2362   3.049   1.262   1.085  0.1439  0.0807  0.3892
  788SOL    HW1 2363   3.046   1.345   1.024 -2.1522  1.0005 -0.2905
  788SOL    HW2 2364   3.069   1.287   1.182  1.0979  0.4621  4.2813
  789SOL     OW 2365   2.727   0.757   2.220 -0.3945 -0.3512  0.1931
  789SOL    HW1 2366   2.636   0.752   2.263  1.6179 -3.1547  1.5045
  789SOL    HW2 2367   2.771   0.842   2.249 -0.8083 -3.2465 -0.5066
  790SOL     OW 2368   1.121   0.796   2.884 -0.0068  0.3487 -0.4155
  790SOL    HW1 2369   1.208   0.802   2.822  1.0768  0.2480 -0.2209
  790SOL    HW2 2370   1.087   0.892   2.904  0.6208  0.5660  0.0773
  791SOL     OW 2371   0.249   2.698   0.216  0.2878 -0.6507 -0.1716
  791SOL    HW1 2372   0.181   2.627   0.242 -3.0975 -0.9197  0.4405
  791SOL    HW2 2373   0.337   2.658   0.183  2.2285 -3.1866  2.5572
  792SOL     OW 2374   1.074   0.505   2.084  0.4712 -0.3455  0.1934
  792SOL    HW1 2375   1.127   0.573   2.140 -0.4826 -1.8468 -0.9307
  792SOL    HW2 2376   1.127   0.473   2.003  0.6445  0.3382  1.1763
  793SOL     OW 2377   3.052   0.533   1.102 -0.0814  0.2710  0.2012
  793SOL    HW1 2378   0.002   0.460   1.153  0.7160  2.3824 -1.1522
  793SOL    HW2 2379   2.992   0.495   1.027 -1.3416 -0.4936 -1.7071
  794SOL     OW 2380   2.934   0.260   2.245 -0.3873 -0.1254  0.2799
  794SOL    HW1 2381   2.973   0.166   2.250 -1.1569  0.2179  2.4350
  794SOL    HW2 2382   3.008   0.324   2.221  0.6809  0.9736 -3.0752
  795SOL     OW 2383   0.457   1.733   0.011  0.1922 -0.2047 -0.1475
  795SOL    HW1 2384   0.485   1.702   0.101 -0.7762 -0.8690  2.0477
  795SOL    HW2 2385   0.356   1.727   0.001  0.8241 -2.2656 -0.9229
  796SOL     OW 2386   2.831   0.707   3.056 -0.0338 -0.3056  0.3779
  796SOL    HW1 2387   2.801   0.681   2.961 -1.4393 -0.3670 -1.7753
  796SOL    HW2 2388   2.760   0.719   0.036 -2.3746 -1.4626 -0.0918
  797SOL     OW 2389   2.278   2.429   2.451  0.1676 -0.4369  0.4186
  797SOL    HW1 2390   2.228   2.357   2.400 -2.0321 -1.7696  0.2242
  797SOL    HW2 2391   2.270   2.516   2.396  1.9438  3.2846 -2.8189
  798SOL     OW 2392   2.986   0.097   0.747  0.1720  0.5713  0.1755
  798SOL    HW1 2393   3.077   0.052   0.753 -1.9341 -3.2619 -0.0959
  798SOL    HW2 2394   2.998   0.189   0.698 -2.0485  2.5571 -1.6148
  799SOL     OW 2395   2.952   0.648   1.854  0.1714 -0.0169 -0.3663
  799SOL    HW1 2396   2.953   0.566   1.802  0.8605  4.7442  1.2258
  799SOL    HW2 2397   2.864   0.697   1.841 -1.1869 -0.3189 -0.8357
  800SOL     OW 2398   0.471   1.608   0.275  0.2896  0.0812  0.0235
  800SOL    HW1 2399   0.466   1.507   0.275  0.4319 -0.2748 -0.3946
  800SOL    HW2 2400   0.384   1.654   0.296  1.5329  1.6572  0.4842
  801SOL     OW 2401   1.723   1.817   0.763  0.1112 -0.2030 -0.2013
  801SOL    HW1 2402   1.803   1.868   0.727 -0.8182  0.4071  0.5575
  801SOL    HW2 2403   1.677   1.878   0.835 -1.6556  0.2919  4.5946
  802SOL     OW 2404   1.500   1.004   2.965 -0.0121 -0.6329 -0.2304
  802SOL    HW1 2405   1.415   0.984   2.906  0.0654  1.3284 -0.1040
  802SOL    HW2 2406   1.499   0.941   3.046  0.2074  1.3444 -2.5771
  803SOL     OW 2407   1.187   1.955   1.811  0.0981 -0.0012  0.4688
  803SOL    HW1 2408   1.166   2.048   1.854  1.5266  7.0510  1.2096
  803SOL    HW2 2409   1.152   1.876   1.863 -2.0544 -0.0969 -0.9919
  804SOL     OW 2410   1.615   2.450   0.702 -0.0294 -0.6927  0.1771
  804SOL    HW1 2411   1.672   2.368   0.706  0.4195  1.6444  0.9854
  804SOL    HW2 2412   1.525   2.427   0.659 -0.0854 -0.7184 -0.0660
  805SOL     OW 2413   0.040   2.232   2.156  0.0075 -0.2490 -0.1990
  805SOL    HW1 2414   0.016   2.294   2.081  0.8259 -2.2203  0.6905
  805SOL    HW2 2415   0.141   2.231   2.166  1.3803 -0.8735 -0.0143
  806SOL     OW 2416   3.054   3.049   0.175  0.2682  0.2916  0.4527
  806SOL    HW1 2417   2.964   0.001   0.160 -1.7059 -0.5213 -0.3312
  806SOL    HW2 2418   0.026   3.074   0.102  0.9539  0.7851  0.7976
  807SOL     OW 2419   2.453   0.814   2.836  0.2232 -0.3706 -0.3969
  807SOL    HW1 2420   2.473   0.715   2.866 -3.0401 -0.7768  0.4840
  807SOL    HW2 2421   2.391   0.862   2.900  2.4046  0.5275 -1.1769
  808SOL     OW 2422   1.207   2.756   0.806  0.0808 -0.4610  0.2675
  808SOL    HW1 2423   1.168   2.674   0.855  0.7297  0.0097 -2.0992
  808SOL    HW2 2424   1.310   2.752   0.814 -0.1373 -2.1241 -0.7733
  809SOL     OW 2425   2.789   0.085   0.124 -0.4652 -0.4517  0.2847
  809SOL    HW1 2426   2.741   0.007   0.087  1.3358  3.0856  0.3030
  809SOL    HW2 2427   2.833   0.135   0.045  0.6752  0.0241 -1.0780
  810SOL     OW 2428   1.315   1.332   0.845  0.4589  0.2394  0.5552
  810SOL    HW1 2429   1.234   1.332   0.903 -1.0920 -0.4595 -1.0824
  810SOL    HW2 2430   1.314   1.245   0.791  0.1593 -0.0016 -0.7355
  811SOL     OW 2431   1.766   2.953   1.496  0.0621  0.3321  0.5070
  811SOL    HW1 2432   1.767   3.055   1.466  1.5729  2.4321 -0.8653
  811SOL    HW2 2433   1.689   2.938   1.559  1.9705  0.8168 -1.1892
  812SOL     OW 2434   1.560   0.336   0.330  0.5912 -0.0860 -0.3182
  812SOL    HW1 2435   1.553   0.291   0.421  3.9480 -1.7418  1.5903
  812SOL    HW2 2436   1.470   0.367   0.291 -1.5317  1.2591  0.6705
  813SOL     OW 2437   0.994   3.068   2.095 -0.0533 -0.0636 -0.1348
  813SOL    HW1 2438   0.896   3.047   2.087 -0.9837 -1.0320 -2.3809
  813SOL    HW2 2439   1.001   0.080   2.104  0.4149 -0.0737 -0.4214
  814SOL     OW 2440   0.447   3.055   0.933  0.5331  0.1336  0.0362
  814SOL    HW1 2441   0.539   3.077   0.961 -1.1674  0.0659 -0.7645
  814SOL    HW2 2442   0.378   0.041   0.949 -0.6490  1.7792 -0.3250
  815SOL     OW 2443   0.260   2.739   0.601 -0.0812  0.1551  0.3427
  815SOL    HW1 2444   0.159   2.740   0.622  0.5632 -1.1905 -0.2049
  815SOL    HW2 2445   0.280   2.812   0.533  1.2603 -0.9392 -0.9963
  816SOL     OW 2446   2.481   1.503   2.775 -0.7094 -0.0862  0.2248
  816SOL    HW1 2447   2.458   1.405   2.764  0.5601 -2.4041  0.3084
  816SOL    HW2 2448   2.423   1.556   2.709  0.2201  1.4140  1.4420
  817SOL     OW 2449   1.517   2.652   2.802 -0.8254 -0.3905  0.1783
  817SOL    HW1 2450   1.485   2.575   2.747  2.3715  2.3959  0.2632
  817SOL    HW2 2451   1.605   2.687   2.765  0.6090  0.2660  1.7797
  818SOL     OW 2452   1.517   1.086   0.423  0.9184 -0.0130 -0.3537
  818SOL    HW1 2453   1.514   1.167   0.361 -0.8781  1.7373 -0.6628
  818SOL    HW2 2454   1.458   1.009   0.382 -1.8993 -0.7936 -3.9148
  819SOL     OW 2455   1.848   2.070   2.726 -0.0504 -0.1461  0.1364
  819SOL    HW1 2456   1.876   2.110   2.636  2.9385  0.8041 -2.9724
  819SOL    HW2 2457   1.843   1.970   2.719  1.1275  1.4786  0.6531
  820SOL     OW 2458   0.813   0.719   0.151 -0.1122  0.3261 -0.0537
  820SOL    HW1 2459   0.783   0.768   0.065 -1.0734  3.4200 -1.9652
  820SOL    HW2 2460   0.816   0.621   0.126  0.5576  0.7037  0.5663
  821SOL     OW 2461   0.566   0.416   1.351  0.0150 -0.0607 -0.3421
  821SOL    HW1 2462   0.638   0.377   1.296  0.0918  0.1185 -1.2256
  821SOL    HW2 2463   0.530   0.510   1.314  1.0259  4.6957 -1.0516
  822SOL     OW 2464   1.487   2.558   2.373  0.0354  0.4306  0.2879
  822SOL    HW1 2465   1.583   2.519   2.382  3.6034  1.0203  2.0388
  822SOL    HW2 2466   1.456   2.541   2.278  1.2998 -1.5519  0.1295
  823SOL     OW 2467   0.814   0.860   2.075 -0.1033  0.3094 -0.0618
  823SOL    HW1 2468   0.837   0.919   1.998 -0.1141 -1.6163  3.2160
  823SOL    HW2 2469   0.876   0.881   2.152 -1.5663  3.5044 -0.4611
  824SOL     OW 2470   2.529   3.018   1.813 -0.3735 -0.2980  0.0914
  824SOL    HW1 2471   2.470   2.937   1.781 -2.7218 -1.2660 -3.5264
  824SOL    HW2 2472   2.580   3.062   1.737  1.4109 -0.0711  0.2596
  825SOL     OW 2473   0.809   1.313   0.171  0.1836  0.2747 -0.2813
  825SOL    HW1 2474   0.870   1.236   0.146  0.1744  1.4075 -0.7854
  825SOL    HW2 2475   0.791   1.372   0.087  0.2015  4.3382 -1.5927
  826SOL     OW 2476   1.976   0.383   2.658  0.7089 -0.7073  0.1100
  826SOL    HW1 2477   2.023   0.303   2.701  1.9827 -2.0396  1.2871
  826SOL    HW2 2478   1.932   0.364   2.570  1.1175 -1.4311  2.5963
  827SOL     OW 2479   0.779   2.203   2.597 -1.1251 -0.4782 -0.3381
  827SOL    HW1 2480   0.739   2.225   2.507  3.0268  2.5106  1.3188
  827SOL    HW2 2481   0.714   2.228   2.674 -0.7129  0.9164 -0.2999
  828SOL     OW 2482   2.723   0.068   1.322 -0.1724 -0.3308  0.4572
  828SOL    HW1 2483   2.721   0.103   1.228 -0.6635  0.4437  0.2917
  828SOL    HW2 2484   2.812   0.095   1.367  0.1916  1.5910  1.9612
  829SOL     OW 2485   1.131   1.693   1.446 -0.5174 -0.2995 -0.1064
  829SOL    HW1 2486   1.202   1.656   1.508 -0.8422  0.6999  1.0240
  829SOL    HW2 2487   1.106   1.784   1.486 -2.7587 -1.7734  0.4136
  830SOL     OW 2488   0.537   1.032   1.809 -0.1170  0.5666  0.2778
  830SOL    HW1 2489   0.599   0.964   1.769 -3.5429 -0.2675 -1.7712
  830SOL    HW2 2490   0.440   1.023   1.777 -0.1599  0.2248  0.9152
  831SOL     OW 2491   0.147   1.920   0.207  0.0774 -0.1451 -0.2107
  831SOL    HW1 2492   0.053   1.953   0.224 -1.1711 -0.2687  1.4591
  831SOL    HW2 2493   0.205   2.001   0.183  1.1575  0.6967  0.4734
  832SOL     OW 2494   0.828   3.033   2.791  0.1955  0.7602  0.4185
  832SOL    HW1 2495   0.930   3.012   2.780 -0.1447 -0.7914 -1.4460
  832SOL    HW2 2496   0.784   3.003   2.877  2.1467 -0.1921 -1.4492
  833SOL     OW 2497   0.044   0.325   1.926 -0.1601  0.6851 -0.6110
  833SOL    HW1 2498   0.050   0.296   2.020 -0.3157  1.0524 -2.4143
  833SOL    HW2 2499   0.082   0.420   1.914 -3.8162  2.1704 -0.1722
  834SOL     OW 2500   0.308   0.764   1.089 -0.1362  0.2348  0.1054
  834SOL    HW1 2501   0.347   0.856   1.070  1.4134 -1.1088  0.8318
  834SOL    HW2 2502   0.231   0.739   1.029  0.4400  1.5084  0.6519
  835SOL     OW 2503   2.578   2.924   0.975 -0.6412 -0.0769  0.2305
  835SOL    HW1 2504   2.528   2.958   0.894 -1.3380  0.3063 -0.9868
  835SOL    HW2 2505   2.677   2.917   0.954 -1.2893  1.3083 -0.2726
  836SOL     OW 2506   0.846   1.765   2.814  0.1522  0.1348  0.4333
  836SOL    HW1 2507   0.777   1.808   2.752 -0.7228 -0.4343  0.4563
  836SOL    HW2 2508   0.890   1.844   2.860 -1.2811 -1.7272  0.3041
  837SOL     OW 2509   2.035   2.167   2.906  0.6036  0.1122  0.0541
  837SOL    HW1 2510   1.952   2.134   2.852 -1.6093  1.1664 -1.9227
  837SOL    HW2 2511   2.113   2.184   2.844  0.6924 -0.2250  1.3250
  838SOL     OW 2512   2.907   1.185   2.116 -0.0842 -0.6028  0.0111
  838SOL    HW1 2513   2.851   1.098   2.129 -1.0960 -0.7309 -0.0609
  838SOL    HW2 2514   2.997   1.168   2.070 -1.5510 -0.6151 -3.9974
  839SOL     OW 2515   0.967   1.088   0.073  0.4289 -0.6595 -0.3529
  839SOL    HW1 2516   0.916   1.055   3.086  1.4906 -1.9353 -0.2432
  839SOL    HW2 2517   1.063   1.073   0.057 -3.0340 -1.0924  1.6402
  840SOL     OW 2518   1.602   0.681   0.380 -0.2896  0.9263 -0.9438
  840SOL    HW1 2519   1.645   0.761   0.425  0.8109 -0.2097  2.0157
  840SOL    HW2 2520   1.530   0.650   0.449 -1.2593 -2.4509  2.9199
  841SOL     OW 2521   0.692   2.820   0.724  0.1957 -0.2321  0.2072
  841SOL    HW1 2522   0.664   2.731   0.748  0.7144  2.5490 -2.0470
  841SOL    HW2 2523   0.672   2.846   0.628 -1.9929 -1.0196  1.6415
  842SOL     OW 2524   0.203   0.531   0.236 -0.2127 -0.2960 -0.0654
  842SOL    HW1 2525   0.148   0.568   0.159 -1.4740  0.6098 -0.0692
  842SOL    HW2 2526   0.191   0.596   0.320  0.7647  3.1458  1.5692
  843SOL     OW 2527   0.679   0.450   1.576  0.5417  0.4516 -0.4133
  843SOL    HW1 2528   0.640   0.520   1.637 -1.0941  1.7583 -1.3661
  843SOL    HW2 2529   0.619   0.448   1.489 -2.0016  1.1660 -0.0735
  844SOL     OW 2530   1.933   2.419   2.850  0.0339 -0.0233 -0.4423
  844SOL    HW1 2531   1.957   2.493   2.917  3.5032  0.1455  1.5649
  844SOL    HW2 2532   1.971   2.329   2.890  1.4133  0.3608 -1.0256
  845SOL     OW 2533   2.800   0.195   1.996  0.2099  0.1971  0.4038
  845SOL    HW1 2534   2.706   0.167   2.036  0.1929  2.2173  2.4894
  845SOL    HW2 2535   2.873   0.216   2.062  2.5157 -0.2410 -0.6945
  846SOL     OW 2536   1.892   1.803   2.650  0.0657 -0.1268 -0.3954
  846SOL    HW1 2537   1.892   1.759   2.745 -2.2904 -2.3918  1.3778
  846SOL    HW2 2538   1.988   1.813   2.617 -2.1383 -2.6966 -2.4943
  847SOL     OW 2539   1.942   2.699   1.898  0.5129 -0.1229 -0.0044
  847SOL    HW1 2540   1.913   2.782   1.952  0.3882  0.5973  0.8075
  847SOL    HW2 2541   1.987   2.629   1.959  1.6881  1.8756  2.8225
  848SOL     OW 2542   0.325   2.905   0.392  0.1999 -0.0137 -0.0558
  848SOL    HW1 2543   0.346   2.992   0.342  0.8394 -1.2819 -1.1913
  848SOL    HW2 2544   0.304   2.839   0.319  0.2154 -1.6730 -0.8410
  849SOL     OW 2545   0.627   2.633   1.358 -0.2836  0.0496 -0.2992
  849SOL    HW1 2546   0.623   2.530   1.358  0.3627 -1.6492 -1.9797
  849SOL    HW2 2547   0.691   2.670   1.289  0.1091 -1.0029 -2.8903
  850SOL     OW 2548   3.085   1.485   0.928 -0.1331 -0.1933 -0.6937
  850SOL    HW1 2549   2.992   1.525   0.908 -0.2148  1.7372 -0.9487
  850SOL    HW2 2550   0.065   1.560   0.934  1.5102  1.2262 -0.4840
  851SOL     OW 2551   3.068   0.571   2.833  0.6312 -0.1504 -0.5667
  851SOL    HW1 2552   3.043   0.658   2.784 -0.7391  2.2657  1.0550
  851SOL    HW2 2553   0.076   0.562   2.845  0.3976  1.7407 -0.1266
  852SOL     OW 2554   1.667   2.164   2.406 -1.3790 -0.0751 -0.2423
  852SOL    HW1 2555   1.588   2.147   2.466 -1.8601 -1.3081  1.1596
  852SOL    HW2 2556   1.727   2.083   2.400  2.5173 -0.4255  0.4960
  853SOL     OW 2557   0.750   1.834   0.686  0.3616  0.4445 -0.1356
  853SOL    HW1 2558   0.699   1.797   0.766  0.0772  0.8961 -2.5749
  853SOL    HW2 2559   0.758   1.758   0.624 -1.4569  1.8478 -0.7023
  854SOL     OW 2560   1.551   1.218   1.838  0.5330 -0.1869  0.0752
  854SOL    HW1 2561   1.470   1.282   1.851 -2.3068 -0.1488  0.7484
  854SOL    HW2 2562   1.526   1.140   1.779  1.5708 -0.4492  1.4729
  855SOL     OW 2563   0.374   2.030   2.978  0.0538  0.0387 -0.0346
  855SOL    HW1 2564   0.365   1.928   2.971  2.0419  1.4212  2.3303
  855SOL    HW2 2565   0.315   2.075   2.910 -2.1387 -2.7809  1.4287
  856SOL     OW 2566   0.163   3.007   1.578 -0.0442  0.9389  0.1202
  856SOL    HW1 2567   0.114   2.918   1.567  0.5221 -0.6530  0.6446
  856SOL    HW2 2568   0.122   3.067   1.646 -1.4386  2.8521 -0.6705
  857SOL     OW 2569   0.612   0.210   1.703  0.5344 -0.5706 -0.1903
  857SOL    HW1 2570   0.551   0.212   1.782  4.4245  2.6619  1.3435
  857SOL    HW2 2571   0.644   0.302   1.674  1.5986 -0.0447  1.8764
  858SOL     OW 2572   0.093   2.015   2.560  0.2946  0.0816  0.5048
  858SOL    HW1 2573   0.031   1.949   2.608  0.2168 -0.7033  0.6060
  858SOL    HW2 2574   0.032   2.088   2.523 -2.5494 -1.4846  0.6831
  859SOL     OW 2575   2.068   2.507   0.809 -0.1498  0.4480  0.0829
  859SOL    HW1 2576   2.112   2.439   0.872  1.3913 -1.3845  2.7296
  859SOL    HW2 2577   1.967   2.517   0.830  2.0772 -0.7310 -1.9910
  860SOL     OW 2578   1.802   0.556   0.502  0.1242 -0.3696  0.5468
  860SOL    HW1 2579   1.778   0.490   0.581  1.5908  1.3163  2.4496
  860SOL    HW2 2580   1.716   0.582   0.462  1.7851 -2.0404  2.9037
  861SOL     OW 2581   0.543   0.363   0.901  0.4688  0.2676  0.2720
  861SOL    HW1 2582   0.575   0.371   0.996 -1.6499  1.2810 -2.1437
  861SOL    HW2 2583   0.440   0.378   0.897  0.0559 -1.9678 -0.3711
  862SOL     OW 2584   2.358   0.675   1.700  0.0478  0.0332 -0.0000
  862SOL    HW1 2585   2.315   0.584   1.697  0.4587 -0.6057 -1.7062
  862SOL    HW2 2586   2.320   0.744   1.639 -1.1282 -4.7871  1.0350
  863SOL     OW 2587   0.452   1.405   1.163  0.0170  0.1511 -0.0551
  863SOL    HW1 2588   0.447   1.343   1.080 -0.4208 -2.7609  1.2156
  863SOL    HW2 2589   0.386   1.477   1.160  2.9071 -2.0078  1.7994
  864SOL     OW 2590   2.517   0.063   2.057 -0.2411  0.6806  0.3530
  864SOL    HW1 2591   2.508   0.019   1.965  1.4950 -1.1401  2.0536
  864SOL    HW2 2592   2.458   0.026   2.130  0.9397  3.2911 -0.2323
  865SOL     OW 2593   1.827   0.360   2.048  0.4488 -0.5483  0.5897
  865SOL    HW1 2594   1.807   0.384   1.952 -0.2439  1.9045 -0.2624
  865SOL    HW2 2595   1.874   0.437   2.098 -0.3162 -0.0546  0.5195
  866SOL     OW 2596   2.445   3.002   0.753 -0.5137  0.3774  0.1335
  866SOL    HW1 2597   2.365   2.983   0.687 -1.2799  2.4441  0.1152
  866SOL    HW2 2598   2.534   3.022   0.701  1.0441  1.5970 -1.0163
  867SOL     OW 2599   2.530   2.718   0.567 -0.3826 -0.2513 -0.1381
  867SOL    HW1 2600   2.596   2.797   0.564 -0.5597  0.5692 -0.6098
  867SOL    HW2 2601   2.457   2.733   0.637  0.1188 -0.0017  0.8563
  868SOL     OW 2602   1.511   1.643   2.612  0.3759 -0.7388 -0.5909
  868SOL    HW1 2603   1.426   1.686   2.648  0.6652  1.6866  0.0570
  868SOL    HW2 2604   1.572   1.631   2.695  0.1461  0.0927  0.5905
  869SOL     OW 2605   2.408   1.773   0.684  0.1266  0.2801  0.3357
  869SOL    HW1 2606   2.354   1.767   0.598 -2.0689 -0.7183  1.4526
  869SOL    HW2 2607   2.377   1.853   0.738  3.1630  0.4336  1.2230
  870SOL     OW 2608   2.730   1.909   0.315  0.4807 -0.5212  0.4260
  870SOL    HW1 2609   2.781   1.820   0.306  1.6239 -0.9310 -0.2650
  870SOL    HW2 2610   2.782   1.989   0.272  0.7402  0.9089 -2.3291
  871SOL     OW 2611   0.269   0.980   1.712 -0.7218  0.2488  0.5610
  871SOL    HW1 2612   0.287   0.973   1.611 -2.8649  1.9226  0.8751
  871SOL    HW2 2613   0.222   0.896   1.735 -0.2203  0.5423 -1.7354
  872SOL     OW 2614   0.224   1.809   2.186 -0.1660  0.0869 -0.2660
  872SOL    HW1 2615   0.146   1.747   2.165 -0.7780  0.7795  0.2711
  872SOL    HW2 2616   0.306   1.780   2.142 -2.2965 -1.1889 -2.1902
  873SOL     OW 2617   0.094   2.532   1.374 -0.0875 -0.7213 -0.0763
  873SOL    HW1 2618   0.097   2.526   1.273  0.0392 -1.4394  0.6169
  873SOL    HW2 2619   0.184   2.507   1.416 -2.3563 -2.1293 -0.5705
  874SOL     OW 2620   0.830   0.581   2.045 -0.1595 -0.2672  0.0767
  874SOL    HW1 2621   0.835   0.686   2.045 -0.7914 -0.2605 -0.2262
  874SOL    HW2 2622   0.922   0.541   2.021 -0.5902  1.8289  2.0383
  875SOL     OW 2623   2.838   2.994   0.874 -0.6163  0.3150 -0.0681
  875SOL    HW1 2624   2.885   2.948   0.954  0.9045 -0.7085  1.7023
  875SOL    HW2 2625   2.903   3.060   0.824 -0.6348  2.0083 -1.1328
  876SOL     OW 2626   1.081   1.174   0.527 -1.0070 -0.2986 -0.4050
  876SOL    HW1 2627   1.039   1.151   0.618  1.9519  1.6784  2.6485
  876SOL    HW2 2628   1.115   1.275   0.528 -1.5504  0.8466 -0.5668
  877SOL     OW 2629   1.193   0.739   1.173 -0.2866 -0.1693 -0.0229
  877SOL    HW1 2630   1.099   0.708   1.190 -2.1606 -2.2369 -0.6238
  877SOL    HW2 2631   1.259   0.657   1.164  2.5053 -4.2061 -1.3085
  878SOL     OW 2632   2.339   2.060   0.190 -0.4396 -0.1280 -0.2634
  878SOL    HW1 2633   2.406   2.109   0.252  0.7040  0.0052  2.7657
  878SOL    HW2 2634   2.369   2.053   0.093  2.0945 -0.6784 -1.4655
  879SOL     OW 2635   2.529   2.070   1.691  0.4881 -0.2493  0.1998
  879SOL    HW1 2636   2.594   2.011   1.741 -0.8736  1.9787  2.3536
  879SOL    HW2 2637   2.555   2.167   1.705  3.3734  0.5917 -0.6088
  880SOL     OW 2638   1.200   2.383   1.131  0.3859  0.2402 -0.4985
  880SOL    HW1 2639   1.276   2.400   1.197 -1.0396  2.8201  0.9942
  880SOL    HW2 2640   1.140   2.307   1.164  2.7420 -0.0633 -1.2433
  881SOL     OW 2641   1.000   1.967   0.535  1.8622  0.3200 -0.4093
  881SOL    HW1 2642   1.040   2.058   0.549  1.6331 -3.0480  0.3139
  881SOL    HW2 2643   0.897   1.958   0.556 -2.1276 -0.6311  3.9191
  882SOL     OW 2644   1.897   1.611   2.950 -0.1127 -0.1443 -0.1494
  882SOL    HW1 2645   1.934   1.521   2.921 -1.2337  2.2693 -2.0710
  882SOL    HW2 2646   1.935   1.634   3.043  1.0183  1.0725  1.1720
  883SOL     OW 2647   1.533   0.744   1.377 -0.2662 -0.1360  0.1587
  883SOL    HW1 2648   1.468   0.790   1.316  3.1396 -0.7320  3.2903
  883SOL    HW2 2649   1.588   0.671   1.332  0.6053  0.0896  0.5277
  884SOL     OW 2650   2.883   2.733   0.698  0.2609  0.4722  0.2970
  884SOL    HW1 2651   2.794   2.774   0.676 -0.9066 -1.0288 -0.4380
  884SOL    HW2 2652   2.959   2.805   0.704  1.7019  1.9290 -1.5888
  885SOL     OW 2653   0.920   1.350   2.006 -0.0148  0.2918 -0.2671
  885SOL    HW1 2654   0.877   1.264   1.979 -0.0870 -0.0645  0.9947
  885SOL    HW2 2655   1.018   1.340   2.022 -1.7366 -1.9857 -0.5736
  886SOL     OW 2656   0.787   1.403   2.594 -0.2190  0.0582  0.8047
  886SOL    HW1 2657   0.867   1.456   2.626  1.2854 -0.1372 -1.2130
  886SOL    HW2 2658   0.808   1.315   2.552 -1.0024 -0.6058  0.1685
  887SOL     OW 2659   1.542   0.331   1.158  0.0101 -0.4264  0.2139
  887SOL    HW1 2660   1.592   0.291   1.078  2.7140 -0.5279 -1.3524
  887SOL    HW2 2661   1.479   0.264   1.193 -2.9071  1.5427 -0.0145
  888SOL     OW 2662   2.062   0.709   2.373 -0.7287  0.0256 -0.1730
  888SOL    HW1 2663   2.102   0.737   2.457  1.1479  0.7058  1.0237
  888SOL    HW2 2664   2.131   0.660   2.315  0.3378  0.2997  0.4322
  889SOL     OW 2665   2.831   1.849   0.788  0.3677 -0.2971 -0.6017
  889SOL    HW1 2666   2.778   1.841   0.705  2.2070 -0.9989 -0.5083
  889SOL    HW2 2667   2.793   1.911   0.861 -0.2106 -2.1070  0.4247
  890SOL     OW 2668   1.059   2.215   0.155 -0.3101 -0.5698  0.6106
  890SOL    HW1 2669   1.145   2.258   0.197 -0.5625  0.7027 -3.1434
  890SOL    HW2 2670   1.057   2.119   0.184 -1.2203  0.3822 -3.4466
  891SOL     OW 2671   2.705   0.577   2.806  0.1575 -0.5675 -0.1030
  891SOL    HW1 2672   2.763   0.488   2.811  0.3835 -3.2191  0.5616
  891SOL    HW2 2673   2.682   0.606   2.712 -2.5768  0.1699  0.3554
  892SOL     OW 2674   2.954   2.243   0.943 -0.5819 -0.0816  0.0739
  892SOL    HW1 2675   3.046   2.206   0.918  1.2408  1.4711  0.7012
  892SOL    HW2 2676   2.900   2.169   0.986 -1.1262  1.4386 -2.6382
  893SOL     OW 2677   1.246   0.206   1.151  0.8384  0.1429 -0.1122
  893SOL    HW1 2678   1.183   0.208   1.073  0.1731 -0.4899  0.6664
  893SOL    HW2 2679   1.210   0.264   1.225 -1.2903 -0.3959 -0.4045
  894SOL     OW 2680   2.867   0.384   0.958 -0.2128 -0.0228  0.4065
  894SOL    HW1 2681   2.838   0.402   0.861 -0.7951  3.8220  1.3456
  894SOL    HW2 2682   2.837   0.297   0.985  0.7075  4.3959  1.4510
  895SOL     OW 2683   1.695   1.784   2.478 -0.1871 -0.3074 -0.3125
  895SOL    HW1 2684   1.778   1.788   2.545  3.5138  0.0025  0.2810
  895SOL    HW2 2685   1.622   1.719   2.515 -2.4088  0.9289 -0.7114
  896SOL     OW 2686   1.971   0.753   1.535 -0.3831 -0.6369 -0.1609
  896SOL    HW1 2687   2.047   0.804   1.586 -2.4128 -2.1048 -0.1086
  896SOL    HW2 2688   2.006   0.691   1.462 -0.1365 -1.4080  0.5829
  897SOL     OW 2689   0.158   1.112   1.251 -1.1067 -0.3493 -0.1758
  897SOL    HW1 2690   0.210   1.203   1.263 -0.5960  2.6412 -1.1577
  897SOL    HW2 2691   0.216   1.032   1.276  1.4228 -2.4647  0.2168
  898SOL     OW 2692   1.969   2.445   2.236 -0.3368  0.2223 -0.0481
  898SOL    HW1 2693   1.878   2.432   2.273 -1.1401 -0.3085 -2.3976
  898SOL    HW2 2694   2.035   2.398   2.291 -0.5251  0.6391 -0.2300
  899SOL     OW 2695   1.135   1.786   1.061  0.2406 -0.0489  0.3051
  899SOL    HW1 2696   1.210   1.775   1.125 -0.8133 -1.0941  0.3037
  899SOL    HW2 2697   1.148   1.865   0.997 -1.3931  0.6253  1.5294
  900SOL     OW 2698   1.083   2.805   2.156  0.4962  0.2513  0.0479
  900SOL    HW1 2699   1.077   2.904   2.128  1.1930 -0.9155 -2.0828
  900SOL    HW2 2700   0.991   2.764   2.165 -0.6790  0.1598  1.2455
  901SOL     OW 2701   0.778   1.573   2.366  0.2569 -0.0309  0.1042
  901SOL    HW1 2702   0.718   1.650   2.393 -0.3953  0.3185 -0.1709
  901SOL    HW2 2703   0.806   1.512   2.442 -2.4372  1.4185 -1.0235
  902SOL     OW 2704   2.267   0.968   2.987  0.2111 -0.0395  0.4532
  902SOL    HW1 2705   2.243   1.069   2.978  0.9422  1.3911 -3.4958
  902SOL    HW2 2706   2.208   0.923   3.055  0.7728 -0.4579 -3.7140
  903SOL     OW 2707   1.902   1.378   2.799 -0.1239  0.4540 -0.1393
  903SOL    HW1 2708   1.949   1.289   2.813 -1.5843 -1.4896 -0.6297
  903SOL    HW2 2709   1.807   1.364   2.775  1.0789  2.6057  0.6862
  904SOL     OW 2710   1.306   1.064   2.016 -0.0299  0.6019 -0.6448
  904SOL    HW1 2711   1.360   0.984   1.975 -1.4874 -1.5719 -0.2309
  904SOL    HW2 2712   1.297   1.067   2.120  0.2349 -0.3188 -0.0062
  905SOL     OW 2713   2.700   0.584   1.087 -0.4410 -0.4797  0.2204
  905SOL    HW1 2714   2.767   0.506   1.085  0.9639 -0.4405 -1.1957
  905SOL    HW2 2715   2.616   0.563   1.027 -1.3686  1.8199  3.0814
  906SOL     OW 2716   0.419   1.337   0.665  0.2163 -0.1105  0.0775
  906SOL    HW1 2717   0.496   1.317   0.603  0.9731 -2.4646  0.1998
  906SOL    HW2 2718   0.329   1.346   0.624 -3.4422 -0.9234 -0.3169
  907SOL     OW 2719   1.305   0.059   0.337  0.0848  0.4422 -0.0399
  907SOL    HW1 2720   1.216   0.064   0.390  0.2054 -0.3005  0.9983
  907SOL    HW2 2721   1.325   0.147   0.293 -0.9614  0.0702 -1.8130
  908SOL     OW 2722   1.386   2.717   1.504  0.7262 -0.7811  0.1801
  908SOL    HW1 2723   1.406   2.767   1.420 -1.0376 -0.1619  1.7107
  908SOL    HW2 2724   1.292   2.739   1.535  0.1875 -1.7373  1.2570
  909SOL     OW 2725   2.428   0.788   1.937  0.6745 -0.3864 -0.1238
  909SOL    HW1 2726   2.448   0.709   1.993 -2.3834 -0.0953 -0.2496
  909SOL    HW2 2727   2.385   0.756   1.852 -1.1354  1.8433  2.2223
  910SOL     OW 2728   1.363   3.083   2.343 -0.0603 -0.1774 -0.1310
  910SOL    HW1 2729   1.395   0.080   2.382  1.1052 -0.1358  0.8881
  910SOL    HW2 2730   1.343   3.089   2.242 -3.3719 -0.3584 -1.1488
  911SOL     OW 2731   2.379   1.621   2.540 -0.1175  0.0457 -0.1707
  911SOL    HW1 2732   2.460   1.592   2.485 -1.8358  1.7620  0.8714
  911SOL    HW2 2733   2.294   1.576   2.501  1.6763 -0.4536 -1.0979
  912SOL     OW 2734   2.358   2.156   1.299  0.0204 -0.2922 -0.0065
  912SOL    HW1 2735   2.442   2.208   1.324  2.7870  1.4879 -2.3657
  912SOL    HW2 2736   2.286   2.162   1.374 -2.5576  0.0622  0.4441
  913SOL     OW 2737   2.484   2.352   1.730 -0.1626 -0.0172  0.4453
  913SOL    HW1 2738   2.542   2.435   1.738 -0.9348  0.7449 -1.1399
  913SOL    HW2 2739   2.422   2.361   1.648 -0.4963 -1.9540 -2.5476
  914SOL     OW 2740   2.199   2.090   1.075  0.5540 -0.6694 -0.0877
  914SOL    HW1 2741   2.243   2.089   1.169  3.2174 -2.0151  1.7253
  914SOL    HW2 2742   2.126   2.022   1.066 -0.5955  3.5807 -1.0135
  915SOL     OW 2743   1.081   2.529   1.637 -0.7689 -0.2638  0.0679
  915SOL    HW1 2744   1.026   2.490   1.711 -0.6693  1.9707 -2.9212
  915SOL    HW2 2745   1.167   2.475   1.629 -0.0681 -3.5226  0.3283
  916SOL     OW 2746   0.125   2.188   0.892  0.1035  0.0937  0.1403
  916SOL    HW1 2747   0.170   2.250   0.830  0.0854 -3.4646  3.0920
  916SOL    HW2 2748   0.167   2.200   0.982 -2.4394  0.2111 -1.2360
  917SOL     OW 2749   2.584   1.099   2.863 -1.0027 -0.6619 -0.0323
  917SOL    HW1 2750   2.569   1.000   2.853  1.8551  0.8770  1.3010
  917SOL    HW2 2751   2.664   1.130   2.810 -0.9916  0.2935  0.7756
  918SOL     OW 2752   1.592   1.994   2.619 -0.2960  0.0035 -0.4759
  918SOL    HW1 2753   1.663   2.028   2.681  2.1151 -3.3858  0.6002
  918SOL    HW2 2754   1.621   1.916   2.562 -3.0848 -0.6966  0.3521
  919SOL     OW 2755   1.701   2.341   1.048  0.2445  0.0809  0.4729
  919SOL    HW1 2756   1.616   2.290   1.026  0.3272 -1.5329 -0.7933
  919SOL    HW2 2757   1.766   2.281   1.095 -3.1487 -0.4710  3.0408
  920SOL     OW 2758   0.971   0.621   2.726 -0.9927  0.3517  0.1032
  920SOL    HW1 2759   1.046   0.559   2.698  0.1778  1.1763 -2.3056
  920SOL    HW2 2760   1.019   0.697   2.784 -0.9407  0.3061  0.8173
  921SOL     OW 2761   0.049   2.933   2.593 -0.0639  0.5705 -0.3893
  921SOL    HW1 2762   0.085   2.901   2.503 -0.0615 -0.1341 -3.8619
  921SOL    HW2 2763   0.118   2.927   2.668  1.7761 -0.8391 -0.5625
  922SOL     OW 2764   2.380   1.650   1.918  0.5878  0.2479 -0.1484
  922SOL    HW1 2765   2.472   1.626   1.884 -0.3629  1.5792  2.0698
  922SOL    HW2 2766   2.306   1.610   1.862 -0.8091  0.6653  0.2321
  923SOL     OW 2767   0.683   1.953   2.664  0.5623  0.1036 -0.3048
  923SOL    HW1 2768   0.637   1.987   2.749 -0.5976 -3.5178  0.2219
  923SOL    HW2 2769   0.716   2.030   2.605 -1.7049 -0.1192 -2.0673
  924SOL     OW 2770   1.824   0.339   2.393 -0.3248 -0.0965 -0.2570
  924SOL    HW1 2771   1.798   0.268   2.324 -1.7451 -0.1603  1.5812
  924SOL    HW2 2772   1.776   0.428   2.371  0.5596 -0.9459 -0.7562
  925SOL     OW 2773   2.922   0.985   0.012 -0.6164 -0.2530  0.1311
  925SOL    HW1 2774   2.922   0.894   3.060 -0.9607 -0.2051  0.2294
  925SOL    HW2 2775   2.846   1.012   0.074  0.8725  2.7955 -2.7669
  926SOL     OW 2776   3.083   0.329   0.648  0.2101  0.5276 -0.3840
  926SOL    HW1 2777   0.001   0.268   0.567 -2.0747 -0.3923 -1.2809
  926SOL    HW2 2778   3.005   0.395   0.630 -2.3346 -1.3471  1.0828
  927SOL     OW 2779   1.326   1.127   0.647 -0.2747  0.5456 -0.4021
  927SOL    HW1 2780   1.403   1.131   0.579 -0.3772 -1.3535  0.4744
  927SOL    HW2 2781   1.239   1.148   0.600  0.6694 -0.9770  0.5857
  928SOL     OW 2782   0.200   3.051   2.173  0.1336  0.1346 -0.1084
  928SOL    HW1 2783   0.211   3.030   2.072 -0.0121 -2.0293  2.8449
  928SOL    HW2 2784   0.266   0.036   2.185  0.9895  0.3637 -2.9609
  929SOL     OW 2785   2.720   0.724   1.517  0.5365  0.4993 -0.5407
  929SOL    HW1 2786   2.723   0.818   1.554  0.0235 -3.7433  1.4899
  929SOL    HW2 2787   2.697   0.659   1.592 -1.3217 -0.5096  1.2478
  930SOL     OW 2788   1.808   2.547   0.888 -0.0410 -0.2671 -0.6552
  930SOL    HW1 2789   1.731   2.527   0.827  0.0799  0.2892 -0.6721
  930SOL    HW2 2790   1.812   2.467   0.950  0.5822 -1.5553  0.3951
  931SOL     OW 2791   1.982   0.886   1.009 -0.5080 -0.0926  0.4133
  931SOL    HW1 2792   1.981   0.874   0.907  1.4012  1.8380  1.7537
  931SOL    HW2 2793   2.062   0.932   1.042 -3.6177 -1.0167 -0.2979
  932SOL     OW 2794   0.056   0.366   1.314 -0.1558 -0.2469  0.1279
  932SOL    HW1 2795   3.083   0.339   1.390 -2.6643 -2.7980 -0.1283
  932SOL    HW2 2796   0.154   0.353   1.341 -0.5533 -0.0184  0.4968
  933SOL     OW 2797   1.985   1.797   2.166 -0.6059 -0.0069  0.0824
  933SOL    HW1 2798   1.965   1.697   2.185 -0.1818  3.2914 -1.6038
  933SOL    HW2 2799   2.085   1.813   2.188  0.0829 -0.8851  1.6799
  934SOL     OW 2800   1.769   0.132   1.457 -0.2946  0.5316 -0.1097
  934SOL    HW1 2801   1.818   0.216   1.431 -0.4067 -1.0546  1.0181
  934SOL    HW2 2802   1.681   0.123   1.402 -1.8874  0.4516  0.6405
  935SOL     OW 2803   0.285   0.915   1.402  0.3787  0.5020 -0.0025
  935SOL    HW1 2804   0.208   0.847   1.403  1.0376 -0.8308 -0.3788
  935SOL    HW2 2805   0.374   0.872   1.403 -3.3598  2.6470  0.1578
  936SOL     OW 2806   2.746   0.508   1.353 -0.3914  0.3618 -0.6301
  936SOL    HW1 2807   2.749   0.541   1.255  0.7825 -1.2366  0.8822
  936SOL    HW2 2808   2.735   0.585   1.418 -2.0952  0.3401  2.0924
  937SOL     OW 2809   1.075   2.970   0.954  0.2028  0.5000 -0.4725
  937SOL    HW1 2810   0.973   2.969   0.950 -0.1506 -0.3521 -0.0114
  937SOL    HW2 2811   1.113   2.906   0.886  0.7597 -2.0534  1.8094
  938SOL     OW 2812   2.876   2.279   0.674  0.1934  0.3649 -0.5163
  938SOL    HW1 2813   2.886   2.253   0.774 -1.6808 -2.2100  0.1768
  938SOL    HW2 2814   2.781   2.260   0.643  0.6386  0.5990 -0.1007
  939SOL     OW 2815   0.038   1.909   2.870  0.1960  0.3056 -0.0647
  939SOL    HW1 2816   0.011   1.849   2.788  1.1573 -1.1259 -2.2836
  939SOL    HW2 2817   0.101   1.857   2.926 -0.2923 -0.3827  0.8894
  940SOL     OW 2818   2.537   2.628   2.834  0.3590 -0.1133  0.6275
  940SOL    HW1 2819   2.528   2.578   2.744 -0.6840 -0.9850  0.4126
  940SOL    HW2 2820   2.495   2.721   2.826 -1.8255  2.7067  0.5180
  941SOL     OW 2821   1.571   2.888   0.135  0.8641  0.7486  0.0308
  941SOL    HW1 2822   1.551   2.813   0.068 -1.0085 -0.5655 -0.3150
  941SOL    HW2 2823   1.663   2.930   0.118 -1.9768  2.4386 -1.3033
  942SOL     OW 2824   1.546   2.188   1.400  0.5122  0.0361 -0.4787
  942SOL    HW1 2825   1.564   2.120   1.476 -0.4516 -0.4978 -1.7608
  942SOL    HW2 2826   1.593   2.275   1.427  0.8248 -0.2600  1.8172
  943SOL     OW 2827   1.801   0.872   1.876  0.4853 -0.0788  0.0443
  943SOL    HW1 2828   1.761   0.900   1.786 -0.6743 -0.0898 -0.5408
  943SOL    HW2 2829   1.730   0.818   1.931 -3.4044 -4.0644 -0.1952
  944SOL     OW 2830   1.412   0.873   1.864  0.5013  0.7612 -0.4995
  944SOL    HW1 2831   1.446   0.937   1.790 -1.0260  0.4280  0.6971
  944SOL    HW2 2832   1.352   0.796   1.832 -1.1806  0.4120 -1.2267
  945SOL     OW 2833   2.796   2.399   1.290 -0.4297 -0.6549 -0.6298
  945SOL    HW1 2834   2.803   2.485   1.242  2.1701 -2.6741 -1.6253
  945SOL    HW2 2835   2.854   2.329   1.235  1.3637 -2.4332 -0.3710
  946SOL     OW 2836   0.759   0.911   1.716 -0.4677 -0.1479  0.0640
  946SOL    HW1 2837   0.837   0.852   1.680 -0.2340  0.8387 -0.5773
  946SOL    HW2 2838   0.785   1.009   1.712 -0.4300 -1.0290  1.6212
  947SOL     OW 2839   0.645   2.539   0.802 -0.4027  0.5491  0.3364
  947SOL    HW1 2840   0.592   2.477   0.861  0.8436  0.5631 -1.7338
  947SOL    HW2 2841   0.602   2.554   0.711  2.3554 -1.7095 -1.3162
  948SOL     OW 2842   3.021   1.318   1.837  0.6821 -0.3032 -0.4171
  948SOL    HW1 2843   3.083   1.237   1.857  0.4424 -1.2468 -1.5196
  948SOL    HW2 2844   3.062   1.376   1.766 -1.5681 -2.8657  2.4611
  949SOL     OW 2845   0.484   0.285   1.925 -0.2069 -0.2604 -0.5299
  949SOL    HW1 2846   0.563   0.296   1.992  2.2511  0.9629  0.5328
  949SOL    HW2 2847   0.455   0.373   1.888 -1.0686 -2.2417 -1.8442
  950SOL     OW 2848   0.637   0.774   0.820 -0.5752  0.2100  0.4830
  950SOL    HW1 2849   0.673   0.858   0.857 -0.1083  1.6957  0.5975
  950SOL    HW2 2850   0.544   0.794   0.773 -3.9016  0.4212  0.9862
  951SOL     OW 2851   1.021   1.730   2.363 -0.0578  0.2091 -0.0784
  951SOL    HW1 2852   1.079   1.655   2.399 -0.3972  0.1239  0.2994
  951SOL    HW2 2853   0.931   1.681   2.354 -0.1012  1.4980 -1.0109
  952SOL     OW 2854   1.229   1.202   2.751  0.1990  1.1585 -0.4629
  952SOL    HW1 2855   1.218   1.188   2.650 -0.0015  0.8362  1.0377
  952SOL    HW2 2856   1.319   1.180   2.790  0.0027  2.1885 -2.0531
  953SOL     OW 2857   1.162   2.612   1.957 -0.0637  0.2322 -0.0300
  953SOL    HW1 2858   1.087   2.547   1.934 -2.2670  2.0307  3.8972
  953SOL    HW2 2859   1.123   2.680   2.023 -0.4497 -2.1963 -1.2587
  954SOL     OW 2860   2.235   1.549   0.711 -0.0385  0.2404 -0.3577
  954SOL    HW1 2861   2.294   1.629   0.722 -0.4797  1.2263 -0.8536
  954SOL    HW2 2862   2.279   1.479   0.641  3.0538 -1.2726 -1.9246
  955SOL     OW 2863   2.849   2.286   2.689 -0.1747 -0.1616 -0.2117
  955SOL    HW1 2864   2.876   2.372   2.636 -0.5701  2.5630 -1.9469
  955SOL    HW2 2865   2.790   2.312   2.772  0.5545  0.7985  0.9719
  956SOL     OW 2866   1.112   0.871   1.410  0.7062  0.3398  1.2085
  956SOL    HW1 2867   1.145   0.837   1.318 -1.3812 -0.5321 -1.5056
  956SOL    HW2 2868   1.128   0.968   1.418 -0.9704  2.3373 -0.0319
  957SOL     OW 2869   1.884   1.559   2.251 -0.4366 -0.3543 -0.8130
  957SOL    HW1 2870   1.816   1.541   2.179 -0.9289  2.8160  1.5192
  957SOL    HW2 2871   1.867   1.498   2.335 -2.9249 -0.8071  2.2112
  958SOL     OW 2872   1.784   2.712   1.382  0.1561  0.0866 -0.0923
  958SOL    HW1 2873   1.878   2.702   1.344 -0.5944 -1.7003  1.6397
  958SOL    HW2 2874   1.785   2.788   1.447  1.5190  0.8688 -0.6021
  959SOL     OW 2875   1.677   1.738   1.801 -0.3211 -0.2043  0.3548
  959SOL    HW1 2876   1.719   1.798   1.873 -0.6553  1.8985  0.8209
  959SOL    HW2 2877   1.582   1.762   1.790  2.5805  0.2956  0.4785
  960SOL     OW 2878   3.071   0.839   2.640  0.2983  0.3364 -0.3536
  960SOL    HW1 2879   0.034   0.873   2.716 -3.3319  1.9541 -1.1569
  960SOL    HW2 2880   0.034   0.803   2.561 -1.1409  0.8831  0.8817
  961SOL     OW 2881   0.411   0.530   1.829  0.1398 -0.2976  0.2549
  961SOL    HW1 2882   0.497   0.582   1.820 -1.5568 -0.6904 -0.9932
  961SOL    HW2 2883   0.351   0.584   1.889  0.1461  0.1259  0.7171
  962SOL     OW 2884   1.459   1.622   0.377  0.2490 -0.2143 -1.0009
  962SOL    HW1 2885   1.375   1.572   0.383  0.5109  0.1594 -1.3620
  962SOL    HW2 2886   1.500   1.631   0.471  1.0658 -0.5905  1.1955
  963SOL     OW 2887   1.399   2.178   2.645 -0.0205 -0.3703 -0.1785
  963SOL    HW1 2888   1.308   2.168   2.604  0.0327  1.9717 -0.7508
  963SOL    HW2 2889   1.467   2.100   2.632  0.3103 -2.1945  1.2284
  964SOL     OW 2890   1.054   2.453   0.441  0.0786 -0.1093  0.1534
  964SOL    HW1 2891   0.981   2.483   0.503 -2.8237  0.7375 -2.9187
  964SOL    HW2 2892   1.020   2.458   0.344 -1.6272  0.7482 -0.0069
  965SOL     OW 2893   0.798   2.941   0.945  0.2822  0.7019 -0.5215
  965SOL    HW1 2894   0.744   3.028   0.961 -1.3497  2.4537  1.0598
  965SOL    HW2 2895   0.761   2.891   0.865  0.1351  2.5322  1.5932
  966SOL     OW 2896   3.078   1.168   2.976 -0.2578  0.1762  0.3918
  966SOL    HW1 2897   3.032   1.237   2.918  0.7040 -2.5026  2.1086
  966SOL    HW2 2898   3.010   1.115   3.027  2.2105 -3.5452  1.0588
  967SOL     OW 2899   1.148   2.777   1.574 -0.0070  0.2356 -0.0283
  967SOL    HW1 2900   1.159   2.853   1.644 -0.6052  0.3842 -0.1440
  967SOL    HW2 2901   1.106   2.690   1.617 -2.1794 -1.2280  1.8271
  968SOL     OW 2902   1.942   0.370   0.351 -0.2538  0.1850 -0.1206
  968SOL    HW1 2903   2.030   0.355   0.394  1.5290  1.5276 -2.4545
  968SOL    HW2 2904   1.884   0.426   0.411  2.6527 -3.1492 -1.6192
  969SOL     OW 2905   3.009   1.621   1.892  0.1565 -0.0602 -0.4122
  969SOL    HW1 2906   2.952   1.607   1.808 -2.3497 -1.2213 -1.9412
  969SOL    HW2 2907   3.073   1.700   1.871 -0.5032 -0.7863  1.3778
  970SOL     OW 2908   2.170   1.103   1.528  0.5032  0.0287  0.6004
  970SOL    HW1 2909   2.127   1.170   1.460  0.3621  1.3631  2.9924
  970SOL    HW2 2910   2.251   1.154   1.567  2.7550  1.4377  1.2896
  971SOL     OW 2911   2.028   0.571   1.328 -0.0080  0.1445  0.4035
  971SOL    HW1 2912   2.123   0.593   1.291  2.7249  1.3412 -2.3517
  971SOL    HW2 2913   1.960   0.619   1.270  0.7590  1.5454 -0.6934
  972SOL     OW 2914   0.492   3.018   1.926  0.3983 -0.1623  0.3686
  972SOL    HW1 2915   0.528   3.014   1.829 -2.2476 -0.8308  0.7365
  972SOL    HW2 2916   0.390   3.016   1.930  0.4909 -0.2775  0.2347
  973SOL     OW 2917   2.724   1.051   0.208 -0.0209 -0.3906  0.2832
  973SOL    HW1 2918   2.655   0.982   0.197  0.7653  1.5127  1.0738
  973SOL    HW2 2919   2.769   1.051   0.297 -2.1951 -1.1255 -2.1147
  974SOL     OW 2920   1.536   1.378   2.057  0.0891 -1.2103  0.8066
  974SOL    HW1 2921   1.546   1.284   2.025 -2.3509  3.2929  1.8526
  974SOL    HW2 2922   1.622   1.428   2.047 -2.0637  0.3307 -1.4194
  975SOL     OW 2923   3.033   2.503   0.929 -0.2774 -0.1660 -0.0258
  975SOL    HW1 2924   2.964   2.560   0.881 -1.2808 -0.6213  2.7405
  975SOL    HW2 2925   3.003   2.403   0.945 -2.2706 -2.6482  1.9297
  976SOL     OW 2926   0.000   1.493   1.636 -0.5453  0.1035 -0.5706
  976SOL    HW1 2927   3.087   1.466   1.538  1.3969  3.1052  2.0618
  976SOL    HW2 2928   3.011   1.555   1.651  2.5387 -1.9475  1.1466
  977SOL     OW 2929   0.633   2.542   2.907 -0.1329  0.1339 -0.1210
  977SOL    HW1 2930   0.592   2.635   2.901  1.2802  2.7528 -1.4112
  977SOL    HW2 2931   0.729   2.538   2.875 -1.4323  0.4354  0.8465
  978SOL     OW 2932   0.563   1.747   2.531 -0.2486  0.0780  0.0477
  978SOL    HW1 2933   0.476   1.777   2.491  1.0385 -1.2876 -0.2592
  978SOL    HW2 2934   0.592   1.819   2.591 -3.7418  0.1985 -2.8494
  979SOL     OW 2935   1.654   2.559   1.199  0.0903  0.2186 -0.1129
  979SOL    HW1 2936   1.708   2.623   1.257 -0.5690 -1.3895  1.1456
  979SOL    HW2 2937   1.699   2.476   1.162 -1.5172  0.2890  0.8047
  980SOL     OW 2938   0.833   1.398   2.947 -0.3814  0.0909  0.5895
  980SOL    HW1 2939   0.777   1.483   2.940  0.2660  3.1778 -1.8050
  980SOL    HW2 2940   0.932   1.405   2.926  0.9289 -0.1760 -1.6634
  981SOL     OW 2941   2.793   3.051   2.414 -0.9432  0.0609  0.7665
  981SOL    HW1 2942   2.700   3.031   2.376 -2.8000  1.6879 -1.2676
  981SOL    HW2 2943   2.866   3.057   2.341 -0.1398 -1.7711 -1.9617
  982SOL     OW 2944   0.079   2.599   2.845  0.3551  0.7752  0.2915
  982SOL    HW1 2945   0.076   2.583   2.746 -3.9164  0.3503 -0.8838
  982SOL    HW2 2946   3.081   2.636   2.877 -0.7631  1.0999 -0.2052
  983SOL     OW 2947   2.368   0.950   2.140 -0.0231 -0.0983  0.1947
  983SOL    HW1 2948   2.368   1.040   2.094 -0.5945  0.7643  0.6023
  983SOL    HW2 2949   2.406   0.879   2.076  0.2162 -1.1234  1.1953
  984SOL     OW 2950   1.566   0.414   2.157 -0.1661  0.0575 -0.2957
  984SOL    HW1 2951   1.574   0.500   2.210  0.2102  0.9600  2.1067
  984SOL    HW2 2952   1.658   0.388   2.126 -0.3524  1.5999 -0.0900
  985SOL     OW 2953   1.301   2.000   2.157  0.5925 -0.4788 -0.1448
  985SOL    HW1 2954   1.365   1.966   2.086  1.3858 -2.2793  2.0638
  985SOL    HW2 2955   1.329   1.976   2.250 -0.6629 -0.4595 -3.9340
  986SOL     OW 2956   2.108   0.308   2.286 -0.0177 -1.0446  0.1828
  986SOL    HW1 2957   2.127   0.352   2.194  0.3027  3.7494 -0.5624
  986SOL    HW2 2958   2.033   0.356   2.332  2.3717  0.1407  0.2062
  987SOL     OW 2959   2.080   0.661   1.929  0.1205 -0.1218 -0.3456
  987SOL    HW1 2960   2.132   0.750   1.939  0.4362  0.5025  1.6652
  987SOL    HW2 2961   2.025   0.653   1.843  1.5224 -0.8507  0.2588
  988SOL     OW 2962   2.651   0.613   2.536 -0.0427  0.1586 -0.0676
  988SOL    HW1 2963   2.684   0.534   2.483  1.4088  0.5775 -1.2563
  988SOL    HW2 2964   2.558   0.639   2.510  1.9661 -0.5060  0.3965
  989SOL     OW 2965   2.502   2.486   2.598 -0.3708 -0.1703  0.2235
  989SOL    HW1 2966   2.414   2.463   2.554  0.3474  0.3672  0.8809
  989SOL    HW2 2967   2.566   2.517   2.531 -1.9587 -0.9493  1.7074
  990SOL     OW 2968   0.385   0.588   0.020  0.7533 -0.0102  0.0134
  990SOL    HW1 2969   0.366   0.565   0.118 -0.7868 -2.3887 -0.4519
  990SOL    HW2 2970   0.316   0.657   3.074  0.5619  3.7836 -2.0585
  991SOL     OW 2971   0.731   0.576   2.821 -0.0952  0.3383  0.1713
  991SOL    HW1 2972   0.703   0.509   2.894  2.2991 -1.9665 -0.2103
  991SOL    HW2 2973   0.826   0.560   2.777  1.9567  0.7319  1.1938
  992SOL     OW 2974   2.623   2.125   2.319  0.1846 -0.2245 -0.0018
  992SOL    HW1 2975   2.709   2.119   2.380  3.0771  1.2228  2.0121
  992SOL    HW2 2976   2.659   2.117   2.227 -0.0086 -0.5404  2.2175
  993SOL     OW 2977   0.598   0.104   0.403 -0.0014 -0.3154  0.8203
  993SOL    HW1 2978   0.611   0.020   0.456  4.4797  1.0170 -2.3250
  993SOL    HW2 2979   0.514   0.097   0.345 -1.5632 -1.2130 -1.4370
  994SOL     OW 2980   0.239   1.873   1.482 -0.1013 -0.0333 -0.7137
  994SOL    HW1 2981   0.205   1.861   1.575  0.6956 -0.7623  2.1642
  994SOL    HW2 2982   0.172   1.930   1.428  0.0025  1.2562  2.3338
  995SOL     OW 2983   2.167   1.998   0.376  0.1207 -0.4169  0.7983
  995SOL    HW1 2984   2.233   2.027   0.305 -1.7517 -0.6402 -0.4649
  995SOL    HW2 2985   2.069   1.995   0.343 -3.1362  1.9236 -2.2696
  996SOL     OW 2986   1.421   1.449   2.455  0.3657 -0.3924  0.2403
  996SOL    HW1 2987   1.378   1.482   2.365 -2.0941  1.6256  1.7507
  996SOL    HW2 2988   1.456   1.534   2.503  1.5400  1.2396  0.3237
  997SOL     OW 2989   1.762   1.327   1.732  0.4036 -0.4238 -0.6112
  997SOL    HW1 2990   1.826   1.260   1.680 -0.2336 -0.4505 -1.0188
  997SOL    HW2 2991   1.684   1.273   1.775  2.9863 -0.6845  0.5071
  998SOL     OW 2992   2.864   1.669   0.336  0.0318  0.1480  0.2307
  998SOL    HW1 2993   2.803   1.596   0.363  1.0394 -1.2403 -2.6930
  998SOL    HW2 2994   2.868   1.683   0.236  1.4179 -0.4776 -1.5912
  999SOL     OW 2995   2.497   2.528   0.380  0.3671  0.5253  0.7147
  999SOL    HW1 2996   2.513   2.597   0.451 -0.6695 -1.3764 -0.3979
  999SOL    HW2 2997   2.425   2.464   0.400 -0.3260  1.0230 -0.2535
 1000SOL     OW 2998   0.740   2.966   2.077 -0.0019 -0.1246  0.4460
 1000SOL    HW1 2999   0.659   3.002   2.025 -1.5570  1.2118 -1.2410
 1000SOL    HW2 3000   0.769   2.870   2.051  1.7743 -0.6710 -0.8452
   3.09136   3.09136   3.09136
