1000 SPC/Fw water molecules t= 101.00000 step= 101000
 3000
    1SOL     OW    1   2.005   2.458   0.628 -0.7125 -0.4696  0.1267
    1SOL    HW1    2   1.905   2.453   0.653 -1.6951 -1.9315  0.5197
    1SOL    HW2    3   2.061   2.467   0.716  0.0319 -1.2729  2.2329
    2SOL     OW    4   1.192   1.354   2.174 -0.2657  0.1695 -0.2074
    2SOL    HW1    5   1.122   1.325   2.250  2.2965 -2.9643  2.6026
    2SOL    HW2    6   1.150   1.368   2.081 -0.2216 -1.3583  3.1998
    3SOL     OW    7   1.442   2.412   2.359  0.1040  0.0256  0.1466
    3SOL    HW1    8   1.480   2.414   2.266  0.3928 -0.2756  3.5515
    3SOL    HW2    9   1.340   2.414   2.356  0.0045 -1.2115 -0.9038
    4SOL     OW   10   1.309   2.091   2.213 -0.0520 -0.1289  0.9204
    4SOL    HW1   11   1.405   2.120   2.221 -1.5448 -0.7786  0.9624
    4SOL    HW2   12   1.253   2.141   2.284 -1.6192  0.1880  1.8108
    5SOL     OW   13   0.507   0.719   1.737  0.9288  0.1051 -0.5565
    5SOL    HW1   14   0.472   0.795   1.797 -1.9241 -2.4334  0.8197
    5SOL    HW2   15   0.600   0.743   1.698  2.1401  2.0588 -2.2678
    6SOL     OW   16   1.932   0.810   2.834 -0.3380  0.2840 -0.5356
    6SOL    HW1   17   1.955   0.910   2.832  0.2366  4.0587 -1.1227
    6SOL    HW2   18   2.004   0.767   2.781  0.2427  1.9501 -2.5453
    7SOL     OW   19   0.648   0.238   1.587 -0.1771  0.0022 -0.7328
    7SOL    HW1   20   0.609   0.271   1.675  4.0091  1.4814  2.0752
    7SOL    HW2   21   0.676   0.319   1.532 -1.9075 -0.7661  0.0916
    8SOL     OW   22   2.034   3.034   1.958  1.1783 -0.2394 -0.1106
    8SOL    HW1   23   2.123   0.006   1.961 -0.0792 -1.2457  0.0700
    8SOL    HW2   24   2.015   2.999   1.863 -0.1220  0.0518 -1.1296
    9SOL     OW   25   0.252   0.487   0.476  0.1862  0.4909  0.2173
    9SOL    HW1   26   0.156   0.455   0.489 -0.7011 -0.6677  0.4788
    9SOL    HW2   27   0.296   0.527   0.555 -3.6935 -1.4421 -1.9983
   10SOL     OW   28   0.643   2.073   2.476  0.3263 -0.3574  0.2954
   10SOL    HW1   29   0.591   2.112   2.402  3.5183 -0.3695 -3.0254
   10SOL    HW2   30   0.655   2.140   2.551  0.0907 -2.7466  1.5347
   11SOL     OW   31   0.845   1.649   0.155  0.3683 -0.4416  0.0772
   11SOL    HW1   32   0.944   1.634   0.157 -0.3623 -0.1622 -0.8952
   11SOL    HW2   33   0.793   1.582   0.207  2.1641  3.0637  0.1881
   12SOL     OW   34   0.089   2.828   1.394  0.1287 -0.1608  0.8737
   12SOL    HW1   35   0.073   2.923   1.434 -1.4749  2.7836  1.6898
   12SOL    HW2   36   0.095   2.830   1.289  0.8419 -1.3313 -1.8606
   13SOL     OW   37   0.739   2.955   0.463 -0.3565  0.0841 -0.0309
   13SOL    HW1   38   0.809   2.886   0.434 -1.4420  1.8458 -3.0035
   13SOL    HW2   39   0.747   3.048   0.422  3.9140  0.2461  1.3708
   14SOL     OW   40   1.834   1.816   0.754  0.0947 -0.0451  0.4126
   14SOL    HW1   41   1.845   1.862   0.664 -0.9573  2.7962  2.0812
   14SOL    HW2   42   1.917   1.769   0.783 -0.9815  1.1130  2.0757
   15SOL     OW   43   2.856   1.631   2.409  0.2495 -0.1906 -0.0475
   15SOL    HW1   44   2.789   1.655   2.483 -1.0888  1.6459  2.5062
   15SOL    HW2   45   2.949   1.658   2.433  1.3783  0.4642 -0.6742
   16SOL     OW   46   1.473   0.326   2.614  0.5534 -0.3529  0.4822
   16SOL    HW1   47   1.418   0.411   2.601 -0.8158  1.3796 -1.1604
   16SOL    HW2   48   1.421   0.244   2.590  1.4449  3.1562  1.0442
   17SOL     OW   49   0.311   2.283   2.152  0.1330 -0.6049  0.2825
   17SOL    HW1   50   0.339   2.188   2.141 -1.1013  0.5266  2.1565
   17SOL    HW2   51   0.210   2.293   2.164 -0.7307 -1.6797 -1.5546
   18SOL     OW   52   1.170   1.226   0.308  0.0153  0.1990 -0.4355
   18SOL    HW1   53   1.263   1.254   0.335  0.3916 -1.0916 -2.6031
   18SOL    HW2   54   1.169   1.125   0.304  0.4562 -0.2077  0.9150
   19SOL     OW   55   2.328   1.494   2.466  0.0331  0.4754  0.4079
   19SOL    HW1   56   2.328   1.582   2.513  1.0343 -0.9103 -0.1732
   19SOL    HW2   57   2.263   1.434   2.513 -1.5300 -1.6207 -0.9585
   20SOL     OW   58   2.552   2.103   2.410  0.1243 -0.1721  0.3857
   20SOL    HW1   59   2.541   2.139   2.313 -1.0514 -0.2802  1.0530
   20SOL    HW2   60   2.560   2.181   2.472 -4.0283 -0.9344  0.9603
   21SOL     OW   61   0.959   2.383   0.132 -0.2148  0.2895  0.5721
   21SOL    HW1   62   0.953   2.450   0.058 -1.0959 -1.5367  1.5640
   21SOL    HW2   63   0.941   2.292   0.097 -1.1270 -0.1915  0.8184
   22SOL     OW   64   2.182   2.303   1.469 -0.4285 -0.3219  0.3308
   22SOL    HW1   65   2.136   2.382   1.521 -3.4190  1.8136 -1.1207
   22SOL    HW2   66   2.238   2.336   1.391  0.7233  1.6120 -0.3708
   23SOL     OW   67   0.170   1.118   1.653 -0.4259  0.0205  0.6832
   23SOL    HW1   68   0.242   1.118   1.727 -0.4794 -0.3285 -0.9977
   23SOL    HW2   69   0.153   1.026   1.618  0.9435 -1.6867 -1.6854
   24SOL     OW   70   2.296   1.851   1.958  0.3001  0.0700  0.3141
   24SOL    HW1   71   2.197   1.838   1.972  0.3472 -1.3931  2.1816
   24SOL    HW2   72   2.343   1.779   2.013  1.2412  1.6466  1.0282
   25SOL     OW   73   1.842   0.579   2.426  0.4011 -0.8185  0.0479
   25SOL    HW1   74   1.867   0.527   2.338 -0.1569 -0.6874 -1.5311
   25SOL    HW2   75   1.778   0.517   2.481 -3.1606 -0.6328  1.1027
   26SOL     OW   76   1.518   0.216   0.640 -0.3169  0.3415  0.2184
   26SOL    HW1   77   1.587   0.230   0.570 -0.3880  0.4914 -0.2946
   26SOL    HW2   78   1.437   0.279   0.624 -0.0587 -0.5877 -1.1262
   27SOL     OW   79   0.912   1.778   0.540  0.2849  0.2309  0.5510
   27SOL    HW1   80   0.849   1.797   0.461  2.5445  3.0777 -0.5837
   27SOL    HW2   81   0.860   1.741   0.619 -0.4436 -1.3387 -0.5499
   28SOL     OW   82   2.636   1.771   1.073 -0.0151  0.0316  0.5182
   28SOL    HW1   83   2.645   1.729   1.166 -1.1118 -3.8194 -1.5863
   28SOL    HW2   84   2.535   1.786   1.050 -4.2868  2.7205 -0.2241
   29SOL     OW   85   2.373   2.744   1.826 -0.4435 -0.3611 -0.4670
   29SOL    HW1   86   2.356   2.839   1.800 -1.0449 -2.0111  1.7997
   29SOL    HW2   87   2.471   2.717   1.808 -1.1300  0.2653 -1.8707
   30SOL     OW   88   0.907   2.880   1.315  0.7569 -0.1595 -0.0365
   30SOL    HW1   89   1.001   2.857   1.278  3.3858  1.0687 -2.3129
   30SOL    HW2   90   0.911   2.977   1.348  0.9519  0.3247 -1.3797
   31SOL     OW   91   2.905   2.201   1.842  0.3542 -0.6728  0.2379
   31SOL    HW1   92   2.996   2.236   1.855 -1.5611  1.8071 -0.7149
   31SOL    HW2   93   2.844   2.243   1.915 -1.8604 -0.9809 -0.2888
   32SOL     OW   94   1.504   1.505   1.785 -0.3416  0.2298 -0.0269
   32SOL    HW1   95   1.403   1.502   1.779 -0.1067 -1.1651 -0.2386
   32SOL    HW2   96   1.553   1.524   1.700 -1.5471  0.9217  2.9075
   33SOL     OW   97   0.306   0.105   2.791 -0.1088 -0.3866 -0.5933
   33SOL    HW1   98   0.392   0.056   2.767 -1.4025 -1.2301 -0.3290
   33SOL    HW2   99   0.260   0.069   2.873  0.8454 -1.3414  2.3125
   34SOL     OW  100   2.061   0.099   1.027  0.0869 -0.6917 -0.4124
   34SOL    HW1  101   2.097   0.191   1.050 -0.8488 -0.4882 -0.9927
   34SOL    HW2  102   2.129   0.031   1.059  3.4561 -0.8893  2.4078
   35SOL     OW  103   2.590   0.082   1.385 -0.1430  0.0710 -0.6467
   35SOL    HW1  104   2.538   0.021   1.447 -1.1361  0.6016 -1.8075
   35SOL    HW2  105   2.690   0.059   1.389 -0.8404  1.8477 -1.1390
   36SOL     OW  106   2.634   2.899   2.480  0.1649 -0.2164 -0.1301
   36SOL    HW1  107   2.565   2.912   2.553  1.6306  0.1979 -0.0670
   36SOL    HW2  108   2.701   2.826   2.501 -0.3609  3.2621  1.2970
   37SOL     OW  109   1.081   2.778   3.012  0.1113  0.1978  0.1748
   37SOL    HW1  110   1.114   2.847   2.949 -2.1224 -2.6220  1.2731
   37SOL    HW2  111   1.151   2.698   3.017  1.8371 -0.9272  1.3555
   38SOL     OW  112   2.645   1.100   2.834  0.2393 -0.0451 -0.0141
   38SOL    HW1  113   2.644   1.047   2.919  3.3526 -1.0893  0.0823
   38SOL    HW2  114   2.585   1.182   2.850  0.3571  2.6576  1.2241
   39SOL     OW  115   2.297   2.116   2.009  0.0142  0.0614 -0.6030
   39SOL    HW1  116   2.301   2.042   1.941  1.6419 -0.1516  0.4797
   39SOL    HW2  117   2.198   2.127   2.038 -0.4565 -1.4751 -1.4526
   40SOL     OW  118   0.686   0.201   2.646 -0.7137  0.6142 -0.2248
   40SOL    HW1  119   0.638   0.115   2.612  1.2293  0.1578 -0.1401
   40SOL    HW2  120   0.779   0.202   2.602  1.1123 -1.9953  2.2189
   41SOL     OW  121   1.458   1.278   1.411  0.1851 -0.2748  0.0005
   41SOL    HW1  122   1.537   1.256   1.473  0.9014  2.3062 -3.0374
   41SOL    HW2  123   1.371   1.280   1.456  3.4594 -1.1026 -2.1722
   42SOL     OW  124   0.224   0.313   2.039  0.2022 -0.3280  0.0064
   42SOL    HW1  125   0.252   0.290   1.943 -2.3276  1.3198  3.0248
   42SOL    HW2  126   0.254   0.403   2.064  2.8541  3.1290  2.2964
   43SOL     OW  127   1.658   1.436   1.994  0.2579 -0.2912 -0.1674
   43SOL    HW1  128   1.598   1.400   2.070  1.0666 -2.1614  1.2377
   43SOL    HW2  129   1.610   1.460   1.910  0.5206 -0.5090  3.3391
   44SOL     OW  130   2.902   2.984   2.999 -0.0998 -0.2089 -0.0331
   44SOL    HW1  131   2.874   2.993   2.904 -0.3150  1.0402  0.8459
   44SOL    HW2  132   2.879   2.891   3.027 -0.7642  1.7613 -1.3312
   45SOL     OW  133   0.754   1.899   1.142  0.1887 -0.2574  0.2015
   45SOL    HW1  134   0.842   1.898   1.192  2.8040  1.1108  0.8163
   45SOL    HW2  135   0.674   1.875   1.202  1.5218  0.6540 -2.3532
   46SOL     OW  136   2.618   2.654   1.736 -0.1855  0.1464  0.0758
   46SOL    HW1  137   2.701   2.696   1.762 -2.5433 -1.4214 -1.9190
   46SOL    HW2  138   2.639   2.558   1.720  3.2821  1.7463  2.2640
   47SOL     OW  139   0.983   1.829   1.245 -0.4791 -0.0887  0.1138
   47SOL    HW1  140   1.013   1.923   1.218  1.5615 -1.2265 -0.6871
   47SOL    HW2  141   1.004   1.808   1.341  0.6452 -0.6855 -0.7510
   48SOL     OW  142   0.178   2.611   0.315 -0.0767  0.6337  0.3092
   48SOL    HW1  143   0.078   2.608   0.320 -0.9590 -1.3427 -2.9366
   48SOL    HW2  144   0.216   2.693   0.359  0.5549 -0.4053 -3.1417
   49SOL     OW  145   2.940   1.435   1.927 -0.2190  0.0123  0.3593
   49SOL    HW1  146   2.935   1.452   2.026  0.5714  0.2946  1.6933
   49SOL    HW2  147   2.851   1.411   1.890  0.6314  0.5166  0.4482
   50SOL     OW  148   2.037   0.855   0.589 -0.2676  0.9026 -0.5706
   50SOL    HW1  149   2.006   0.832   0.495  0.0895  0.6925  0.6893
   50SOL    HW2  150   1.957   0.862   0.654  1.6684  0.2137 -0.2797
   51SOL     OW  151   1.132   0.809   1.029 -0.0742 -0.9519 -0.1154
   51SOL    HW1  152   1.157   0.749   1.109 -0.9814  2.9590 -0.5054
   51SOL    HW2  153   1.055   0.875   1.051 -6.4263  2.3472  0.4536
   52SOL     OW  154   1.108   1.362   0.073  0.0195  0.0636 -0.2297
   52SOL    HW1  155   1.128   1.317   0.160  2.4139 -0.6078  0.9668
   52SOL    HW2  156   1.116   1.457   0.094 -1.6933 -2.8357  1.9102
   53SOL     OW  157   0.962   2.362   2.584  0.1718  0.7228  0.0732
   53SOL    HW1  158   0.904   2.287   2.629 -1.5215  0.1535  2.0919
   53SOL    HW2  159   1.043   2.386   2.637 -0.1089  0.3657 -2.1662
   54SOL     OW  160   1.683   0.678   1.642  0.1633 -0.0415 -0.0358
   54SOL    HW1  161   1.729   0.598   1.694  0.4185 -2.3345  0.7736
   54SOL    HW2  162   1.736   0.762   1.654  0.1201 -3.0823  0.5592
   55SOL     OW  163   2.490   2.670   0.284 -0.0152 -0.6952  0.0154
   55SOL    HW1  164   2.429   2.612   0.340  1.0451  1.1021 -0.2326
   55SOL    HW2  165   2.474   2.769   0.312 -2.1184  0.8637 -0.5472
   56SOL     OW  166   0.636   2.505   1.877 -0.0495 -0.1601  0.3988
   56SOL    HW1  167   0.536   2.486   1.894 -1.1667  1.3591 -1.1250
   56SOL    HW2  168   0.649   2.522   1.773  0.5687 -0.2501  0.2737
   57SOL     OW  169   1.794   0.878   2.431 -0.1778  0.0807 -0.6414
   57SOL    HW1  170   1.789   0.782   2.466  1.5717  0.1775 -1.8840
   57SOL    HW2  171   1.706   0.930   2.428 -0.9909 -1.1771  0.0880
   58SOL     OW  172   2.987   1.066   1.915 -0.7324  0.1836  0.3833
   58SOL    HW1  173   2.974   1.154   1.865 -0.7334 -0.5096 -1.6575
   58SOL    HW2  174   2.915   1.067   1.990 -2.1843 -0.8218  0.4301
   59SOL     OW  175   0.622   2.890   2.293 -0.3881 -0.1226 -0.2006
   59SOL    HW1  176   0.705   2.832   2.268  1.2563  0.5932  1.1564
   59SOL    HW2  177   0.543   2.828   2.310  0.7260  0.2137  1.1595
   60SOL     OW  178   2.617   2.109   0.616 -0.1695  0.1299 -0.1958
   60SOL    HW1  179   2.601   2.026   0.562 -0.0623  1.6183 -1.5894
   60SOL    HW2  180   2.711   2.153   0.609  2.3605  1.6953  0.0754
   61SOL     OW  181   0.618   2.501   0.379  0.4608 -0.3710  0.0160
   61SOL    HW1  182   0.664   2.500   0.288 -1.0300 -1.3222  1.8220
   61SOL    HW2  183   0.683   2.527   0.453 -0.4998  0.4333 -0.9307
   62SOL     OW  184   2.069   2.480   2.781  0.1463 -0.1693  0.1831
   62SOL    HW1  185   1.999   2.473   2.709 -0.0243  0.6481 -1.2454
   62SOL    HW2  186   2.131   2.561   2.767  0.0376 -0.9682  1.2706
   63SOL     OW  187   1.947   0.438   0.011  0.3948  0.3168 -0.1540
   63SOL    HW1  188   1.997   0.426   2.994 -0.0157  1.3534  0.1746
   63SOL    HW2  189   1.850   0.406   0.006 -1.7528  1.2552 -0.6985
   64SOL     OW  190   0.757   1.009   2.678  0.1406 -0.2636 -0.8787
   64SOL    HW1  191   0.766   1.107   2.706  0.2838 -0.3715  1.0261
   64SOL    HW2  192   0.723   0.956   2.762 -3.3997  0.0170 -0.1712
   65SOL     OW  193   1.387   3.038   0.454  0.1905  0.2100  0.8738
   65SOL    HW1  194   1.462   2.971   0.440 -0.2690  0.4557 -0.4890
   65SOL    HW2  195   1.334   3.022   0.537 -0.9278 -4.0493 -0.2631
   66SOL     OW  196   0.388   1.441   1.721 -0.4043 -0.0624  0.0401
   66SOL    HW1  197   0.392   1.447   1.821 -0.1325 -0.5748  1.4277
   66SOL    HW2  198   0.475   1.390   1.689  0.7781 -1.1269  1.1763
   67SOL     OW  199   2.276   2.831   2.265  0.0975 -0.1802  0.5223
   67SOL    HW1  200   2.234   2.773   2.188 -0.7700 -2.6416 -2.8144
   67SOL    HW2  201   2.374   2.843   2.245  1.0617  0.1659  1.0299
   68SOL     OW  202   0.772   0.676   1.660 -0.2129 -0.5327 -0.1396
   68SOL    HW1  203   0.833   0.732   1.594  0.9803  1.1452 -3.0844
   68SOL    HW2  204   0.753   0.586   1.620  0.2848 -1.6046 -1.6784
   69SOL     OW  205   2.048   2.818   0.377 -0.4001  0.2671  0.6541
   69SOL    HW1  206   2.100   2.880   0.444 -0.2914 -2.5827  1.8676
   69SOL    HW2  207   2.067   2.846   0.280  1.6479 -1.3564  0.3599
   70SOL     OW  208   2.439   0.674   2.715 -0.0781  0.5922  0.1323
   70SOL    HW1  209   2.504   0.750   2.702 -0.8394 -0.6440  3.4829
   70SOL    HW2  210   2.469   0.608   2.787  0.9875 -0.5793  0.2338
   71SOL     OW  211   2.881   2.088   0.290  0.0923  0.1499  0.0626
   71SOL    HW1  212   2.924   1.993   0.291  1.8020 -1.0411  0.4735
   71SOL    HW2  213   2.926   2.145   0.219  1.2315  0.7085  0.5321
   72SOL     OW  214   3.070   1.782   0.523 -0.1786 -0.9757  0.3621
   72SOL    HW1  215   2.979   1.790   0.567  1.2135 -2.3238 -1.6113
   72SOL    HW2  216   0.029   1.691   0.538  1.3473  2.3652  0.8381
   73SOL     OW  217   0.779   0.848   0.653 -0.5141  0.4511 -0.0449
   73SOL    HW1  218   0.718   0.922   0.686 -0.7495 -1.7485 -2.0210
   73SOL    HW2  219   0.839   0.879   0.576 -0.7303 -1.7408  0.5543
   74SOL     OW  220   0.162   1.914   1.993 -0.4199 -1.2104 -0.3570
   74SOL    HW1  221   0.189   1.833   2.050  0.9525 -0.9445  0.7630
   74SOL    HW2  222   0.249   1.972   1.967 -0.4629  2.5045 -1.6582
   75SOL     OW  223   1.717   1.606   1.198  0.0601  0.2769  0.0237
   75SOL    HW1  224   1.772   1.600   1.113 -0.2316  2.2277  1.1633
   75SOL    HW2  225   1.681   1.514   1.231  0.3455 -0.5509  0.2965
   76SOL     OW  226   2.020   2.031   0.927  0.1158  0.2364 -0.2721
   76SOL    HW1  227   1.980   1.967   0.990  0.6766  5.1393  1.3779
   76SOL    HW2  228   2.058   1.985   0.844  0.9292  1.3505 -1.2533
   77SOL     OW  229   2.474   1.606   1.779  0.4031  0.5869 -0.4718
   77SOL    HW1  230   2.453   1.616   1.878 -0.9372 -1.8884  1.9490
   77SOL    HW2  231   2.425   1.671   1.717  0.8937 -0.7428  3.1158
   78SOL     OW  232   1.408   0.982   0.565 -0.0285  0.7903  0.1931
   78SOL    HW1  233   1.342   0.949   0.494  0.3522  1.2587  0.6802
   78SOL    HW2  234   1.470   0.908   0.600  0.8253 -1.0514  0.9632
   79SOL     OW  235   2.062   1.745   1.525 -0.2982 -0.0446  0.2186
   79SOL    HW1  236   2.034   1.804   1.444 -2.3298  1.1290 -0.2315
   79SOL    HW2  237   2.144   1.774   1.573 -1.6159  0.3482  1.6556
   80SOL     OW  238   1.025   0.420   1.312  0.1745  0.1159 -0.5322
   80SOL    HW1  239   1.016   0.405   1.412 -1.2071  3.4989  0.2511
   80SOL    HW2  240   1.080   0.351   1.268 -0.3345  4.3851  3.3237
   81SOL     OW  241   0.408   2.189   0.693  0.6602  0.2376  0.0238
   81SOL    HW1  242   0.439   2.124   0.767  0.6876 -1.7972 -0.2642
   81SOL    HW2  243   0.460   2.168   0.612 -0.5769  0.0151  0.2350
   82SOL     OW  244   1.279   0.157   1.605  0.0774  0.3004  0.1807
   82SOL    HW1  245   1.232   0.140   1.691  1.6008  4.0229  1.3981
   82SOL    HW2  246   1.320   0.253   1.601  1.2425  0.1244  1.9939
   83SOL     OW  247   0.799   1.673   0.758 -0.4236  0.0142 -0.0248
   83SOL    HW1  248   0.762   1.746   0.818 -3.2880 -1.7725 -0.7707
   83SOL    HW2  249   0.734   1.649   0.685  1.4340  2.8344  0.8436
   84SOL     OW  250   2.610   1.417   0.085 -0.0795  0.0539  0.0161
   84SOL    HW1  251   2.534   1.350   0.069 -0.0905  0.2909 -0.6681
   84SOL    HW2  252   2.643   1.446   3.064 -0.8088 -0.3724  0.3522
   85SOL     OW  253   0.110   2.431   1.269  0.0108  0.2331 -0.5491
   85SOL    HW1  254   0.021   2.461   1.312 -1.3667  0.3194  2.4337
   85SOL    HW2  255   0.096   2.337   1.234 -0.2918  2.6881 -1.3850
   86SOL     OW  256   1.918   2.608   1.056 -0.0498 -0.0126 -0.0490
   86SOL    HW1  257   1.833   2.560   1.084  0.0890  0.4982 -1.5820
   86SOL    HW2  258   1.977   2.565   0.984 -0.4963 -1.6613 -1.5654
   87SOL     OW  259   0.135   1.577   0.685  0.0473  0.4738  0.0674
   87SOL    HW1  260   0.093   1.629   0.762  0.3469 -0.1846 -0.0465
   87SOL    HW2  261   0.203   1.512   0.723  0.5803 -2.7965  0.8491
   88SOL     OW  262   0.763   0.469   1.439 -0.3632 -0.5294  0.0389
   88SOL    HW1  263   0.747   0.477   1.338 -0.8986 -2.0620  1.5022
   88SOL    HW2  264   0.862   0.488   1.463  1.9918 -3.4274 -0.1529
   89SOL     OW  265   0.851   2.667   1.941  0.0711 -0.3094  0.1427
   89SOL    HW1  266   0.829   2.737   1.872 -0.1526 -0.2303  0.7968
   89SOL    HW2  267   0.783   2.594   1.932  1.8279  2.5466 -2.5503
   90SOL     OW  268   3.069   1.820   1.144  0.3469 -0.2137  0.5413
   90SOL    HW1  269   0.061   1.797   1.218 -3.0145 -0.4293 -3.7538
   90SOL    HW2  270   2.981   1.867   1.172  1.0302  0.4618 -1.5353
   91SOL     OW  271   1.174   2.135   0.862  0.1611 -0.1002  0.7773
   91SOL    HW1  272   1.242   2.197   0.831 -0.7957  0.1348  1.4842
   91SOL    HW2  273   1.169   2.042   0.813 -1.0910 -1.0315 -0.3965
   92SOL     OW  274   2.877   2.850   1.503  0.7620  0.5373  0.2708
   92SOL    HW1  275   2.813   2.915   1.466  2.1796 -1.6490 -1.3727
   92SOL    HW2  276   2.965   2.867   1.456 -1.9096 -0.8833  0.2798
   93SOL     OW  277   2.957   1.328   2.923 -0.2898  0.5720  0.4075
   93SOL    HW1  278   3.027   1.312   2.852  0.4394 -0.3873  2.1448
   93SOL    HW2  279   2.941   1.240   2.971 -3.3141  0.9437 -0.0138
   94SOL     OW  280   2.879   2.670   2.065  0.4924 -0.1032  0.2164
   94SOL    HW1  281   2.867   2.693   1.963  0.0995  1.5990 -0.5901
   94SOL    HW2  282   2.890   2.755   2.119  1.8459 -2.4033 -0.6306
   95SOL     OW  283   1.447   0.688   1.768 -0.2328 -0.4442  0.4895
   95SOL    HW1  284   1.425   0.612   1.825  2.0012 -1.3229 -2.5311
   95SOL    HW2  285   1.513   0.657   1.695  1.9742 -0.5422 -2.5539
   96SOL     OW  286   2.629   0.148   1.944  0.0731  0.5010 -0.0100
   96SOL    HW1  287   2.591   0.221   1.888  1.7615  0.7677  2.8095
   96SOL    HW2  288   2.671   0.187   2.026 -1.4200  0.8877 -1.6126
   97SOL     OW  289   2.219   2.891   1.529  0.4269 -0.0323 -0.8334
   97SOL    HW1  290   2.292   2.817   1.535  0.8960 -1.9380 -2.1171
   97SOL    HW2  291   2.174   2.906   1.617 -2.4574  0.1051 -1.1809
   98SOL     OW  292   2.148   2.833   1.278 -0.0942  0.7634  0.6086
   98SOL    HW1  293   2.196   2.876   1.360  2.2778  1.4885  1.6629
   98SOL    HW2  294   2.083   2.759   1.309 -0.2125  1.6540 -1.4012
   99SOL     OW  295   2.922   0.264   1.983 -0.0644 -0.2226 -0.3796
   99SOL    HW1  296   2.968   0.195   1.920 -2.1832 -1.2257 -2.3631
   99SOL    HW2  297   2.926   0.357   1.943 -2.1786 -1.5765 -1.3682
  100SOL     OW  298   2.052   1.493   1.661  0.5562  0.4262 -0.4659
  100SOL    HW1  299   2.039   1.594   1.646 -0.9216 -0.0871 -0.0306
  100SOL    HW2  300   2.069   1.469   1.756  1.5316 -0.1115  0.7191
  101SOL     OW  301   1.711   0.330   0.483 -0.0573  0.2847  0.5813
  101SOL    HW1  302   1.803   0.326   0.532  2.7552 -0.7077 -0.5253
  101SOL    HW2  303   1.727   0.297   0.391 -0.9718 -2.2291  0.0485
  102SOL     OW  304   0.393   0.752   1.495  0.2023  0.1922  0.5256
  102SOL    HW1  305   0.365   0.659   1.468  1.0451  0.4920  2.8766
  102SOL    HW2  306   0.409   0.761   1.598  2.4536  2.8293  1.0398
  103SOL     OW  307   2.451   0.177   2.749 -0.0009  0.3039 -0.0134
  103SOL    HW1  308   2.548   0.209   2.751  2.2416 -3.5377  4.6269
  103SOL    HW2  309   2.399   0.203   2.833  0.5559  1.0207  0.2377
  104SOL     OW  310   2.793   0.007   1.777 -0.1901 -0.0007 -0.1303
  104SOL    HW1  311   2.881   0.048   1.749 -0.7650  0.4663  1.2608
  104SOL    HW2  312   2.740   0.067   1.840  0.1655 -1.6289 -0.2017
  105SOL     OW  313   1.430   0.934   2.084 -0.3411 -0.2881  0.1720
  105SOL    HW1  314   1.453   0.974   1.993 -2.4119 -3.8067  0.0639
  105SOL    HW2  315   1.487   0.854   2.100 -0.6763  2.2826 -0.7931
  106SOL     OW  316   1.798   0.474   0.881  0.5108 -0.1642 -0.3648
  106SOL    HW1  317   1.863   0.396   0.862 -0.6419  0.2959  0.2114
  106SOL    HW2  318   1.732   0.447   0.955  0.3871 -1.4136  3.5178
  107SOL     OW  319   0.676   1.169   0.951  0.2561 -0.0540  0.2877
  107SOL    HW1  320   0.633   1.157   1.037  1.1523  1.2940 -2.8600
  107SOL    HW2  321   0.720   1.258   0.952 -1.1623 -3.0346  1.7586
  108SOL     OW  322   0.071   0.594   2.611  0.1090  0.1617  0.1924
  108SOL    HW1  323   0.099   0.575   2.705  1.2145  0.3733  2.4217
  108SOL    HW2  324   0.097   0.511   2.554 -1.3546 -2.7907  1.4400
  109SOL     OW  325   1.780   0.159   0.179  0.0758  0.8661 -0.1560
  109SOL    HW1  326   1.743   0.064   0.170 -0.0969  1.0344  0.2816
  109SOL    HW2  327   1.875   0.157   0.213 -0.0398 -1.4404 -1.5674
  110SOL     OW  328   2.964   1.856   2.819 -0.0971  0.5434  0.5611
  110SOL    HW1  329   3.002   1.935   2.878  1.5231  1.5444  0.2201
  110SOL    HW2  330   2.997   1.768   2.861 -1.4857 -2.8565  1.2041
  111SOL     OW  331   2.295   0.140   2.303 -0.1882 -0.5747 -0.1205
  111SOL    HW1  332   2.351   0.087   2.234  0.4121  1.4913 -0.6121
  111SOL    HW2  333   2.355   0.173   2.380  0.3949 -2.0533  1.1961
  112SOL     OW  334   2.300   3.054   1.116  0.6677 -0.5335 -0.1249
  112SOL    HW1  335   2.391   3.013   1.085  2.1518  2.2769 -0.5940
  112SOL    HW2  336   2.265   3.014   1.198  1.4753  1.6876 -0.9358
  113SOL     OW  337   2.511   2.474   1.974  0.3401  1.1107 -0.2083
  113SOL    HW1  338   2.534   2.468   1.874  0.5598  0.5791 -0.5432
  113SOL    HW2  339   2.426   2.427   2.003 -1.9327 -0.0248 -2.1769
  114SOL     OW  340   2.878   3.063   0.607  0.0130  0.1487 -0.4873
  114SOL    HW1  341   2.863   0.084   0.646  0.9260 -1.4516  0.5001
  114SOL    HW2  342   2.803   3.040   0.547  2.7486 -0.9267  1.8844
  115SOL     OW  343   2.847   1.768   0.002 -0.7424 -0.4177 -0.0102
  115SOL    HW1  344   2.877   1.832   2.999  0.8590  0.4079  1.8541
  115SOL    HW2  345   2.881   1.803   0.091 -1.9502  0.7397  2.0461
  116SOL     OW  346   0.131   1.373   1.962 -0.9117  1.1003  0.4192
  116SOL    HW1  347   0.181   1.447   1.915 -0.8436 -1.5196 -0.9523
  116SOL    HW2  348   0.033   1.366   1.945  3.1901 -0.8258  1.4460
  117SOL     OW  349   2.533   2.915   1.049  0.4120  0.3101 -0.2651
  117SOL    HW1  350   2.620   2.874   1.038 -0.5054  1.3357 -1.7159
  117SOL    HW2  351   2.464   2.852   1.087 -0.3720 -1.7809  0.3237
  118SOL     OW  352   0.283   2.205   1.741  0.2196  0.1457 -0.2908
  118SOL    HW1  353   0.218   2.187   1.667  0.2255  1.2207  3.8183
  118SOL    HW2  354   0.365   2.247   1.696 -2.7755  0.7274  1.8572
  119SOL     OW  355   1.369   2.125   1.076  0.2000 -0.4351  0.0457
  119SOL    HW1  356   1.292   2.109   1.013  3.3220  0.5030  3.6752
  119SOL    HW2  357   1.391   2.041   1.126  1.8398 -0.4320  1.0325
  120SOL     OW  358   0.349   1.881   1.695 -0.5213  0.0983  0.5558
  120SOL    HW1  359   0.264   1.829   1.700  0.1957 -1.3381 -1.4034
  120SOL    HW2  360   0.370   1.941   1.775  1.5684 -2.7610 -0.9420
  121SOL     OW  361   2.512   1.510   0.882  0.3856  0.1116  0.2268
  121SOL    HW1  362   2.582   1.472   0.948 -1.0629  0.1662 -1.3454
  121SOL    HW2  363   2.517   1.610   0.852 -1.2038  0.8012  0.6880
  122SOL     OW  364   2.105   1.719   2.266 -0.2569  0.5696  0.1828
  122SOL    HW1  365   2.126   1.753   2.361 -0.6635 -1.7411  0.6020
  122SOL    HW2  366   2.139   1.623   2.256  1.1899 -0.4035 -1.5236
  123SOL     OW  367   2.655   2.755   0.689  0.0084 -0.0136  0.4274
  123SOL    HW1  368   2.718   2.675   0.682  0.3936  2.1952  1.9876
  123SOL    HW2  369   2.668   2.814   0.772  0.8997 -0.8317 -2.2695
  124SOL     OW  370   1.281   1.240   2.695 -0.2941  0.3734 -0.0150
  124SOL    HW1  371   1.218   1.254   2.772 -1.5352  0.4466 -3.1076
  124SOL    HW2  372   1.352   1.313   2.684 -1.3478 -2.0146 -1.7017
  125SOL     OW  373   0.224   1.474   2.727 -0.6329 -0.5379 -0.4577
  125SOL    HW1  374   0.208   1.512   2.637 -3.5480 -1.2593  4.1088
  125SOL    HW2  375   0.180   1.385   2.736  0.5985 -2.1617 -0.3410
  126SOL     OW  376   2.898   2.155   0.565 -0.3236  0.2152  0.1879
  126SOL    HW1  377   2.958   2.240   0.565  2.1309 -3.4864 -0.8574
  126SOL    HW2  378   2.894   2.114   0.472  0.8031 -1.6327  0.5795
  127SOL     OW  379   0.333   1.641   1.069  0.1342  0.0319 -0.6122
  127SOL    HW1  380   0.244   1.603   1.028  1.0483 -0.0814  0.9762
  127SOL    HW2  381   0.325   1.742   1.072 -0.2124  1.9181 -1.7192
  128SOL     OW  382   1.383   1.012   0.064 -0.2163  0.1684 -0.2121
  128SOL    HW1  383   1.467   1.052   0.104  0.9244  0.5827 -0.7003
  128SOL    HW2  384   1.400   0.914   0.045 -0.1575 -0.4655 -3.6701
  129SOL     OW  385   2.317   1.729   1.205  0.0796  0.4965  0.4870
  129SOL    HW1  386   2.288   1.826   1.197  1.1549 -0.5688 -0.9191
  129SOL    HW2  387   2.409   1.725   1.245  0.2958  0.9148 -3.3279
  130SOL     OW  388   1.756   1.300   0.306 -0.1826 -0.4206 -0.2608
  130SOL    HW1  389   1.844   1.260   0.279  1.4185  0.8698  1.5101
  130SOL    HW2  390   1.744   1.286   0.408  0.0133  1.1322  0.7277
  131SOL     OW  391   2.772   1.235   2.623  0.2739  0.3717 -0.2500
  131SOL    HW1  392   2.748   1.173   2.702  2.1364 -1.7762  0.6896
  131SOL    HW2  393   2.726   1.324   2.640  1.6891 -0.6849  1.8265
  132SOL     OW  394   1.847   1.738   1.724  0.1389 -0.1070 -0.6484
  132SOL    HW1  395   1.797   1.828   1.718  0.0589 -1.1117  0.3051
  132SOL    HW2  396   1.898   1.727   1.636  1.6963  0.3964 -2.9542
  133SOL     OW  397   0.239   1.053   2.971 -0.0753  0.1886 -0.2105
  133SOL    HW1  398   0.228   0.971   3.027 -0.7441  0.3043  0.1051
  133SOL    HW2  399   0.321   1.110   3.002 -0.6276 -0.6258 -0.2411
  134SOL     OW  400   2.647   1.129   0.456  0.3528  0.4749 -0.1606
  134SOL    HW1  401   2.582   1.188   0.511 -0.9274 -1.8479 -1.1608
  134SOL    HW2  402   2.712   1.193   0.409 -2.2109 -1.4629  1.1257
  135SOL     OW  403   2.565   0.972   0.231 -0.3597 -0.5172  0.2627
  135SOL    HW1  404   2.583   1.036   0.312  0.4543  1.0141  4.2391
  135SOL    HW2  405   2.476   0.924   0.246 -1.6427  1.9691  0.8904
  136SOL     OW  406   1.757   1.779   1.407  0.7368  0.0709 -0.1465
  136SOL    HW1  407   1.848   1.828   1.384  1.7853 -1.1874 -1.6147
  136SOL    HW2  408   1.725   1.722   1.332 -1.1925  1.0532 -1.6838
  137SOL     OW  409   2.432   2.179   0.812  0.3661  0.1947  0.5387
  137SOL    HW1  410   2.487   2.143   0.737  1.6208  0.1380  2.3835
  137SOL    HW2  411   2.488   2.228   0.880  2.3011 -1.4841  0.2075
  138SOL     OW  412   2.344   0.186   1.690 -0.6903  0.0122  0.0155
  138SOL    HW1  413   2.264   0.178   1.632  1.8271  0.4276 -1.0948
  138SOL    HW2  414   2.317   0.212   1.786  2.7207  0.8108 -0.4850
  139SOL     OW  415   2.588   0.275   0.021  0.1058  0.1337 -0.5593
  139SOL    HW1  416   2.597   0.173   0.022  0.8924 -1.9885 -2.2260
  139SOL    HW2  417   2.669   0.322   3.051  1.3953  1.8723  0.0159
  140SOL     OW  418   1.061   1.916   2.498  0.2649 -0.1561  0.4933
  140SOL    HW1  419   1.145   1.870   2.478 -0.7579  1.0372  2.5997
  140SOL    HW2  420   0.983   1.848   2.506 -0.8418 -4.6709 -1.4811
  141SOL     OW  421   0.573   0.834   2.099  0.7273 -0.2475 -0.2101
  141SOL    HW1  422   0.597   0.804   2.194  2.3679 -0.2061 -1.6246
  141SOL    HW2  423   0.641   0.905   2.063  2.6127  1.9595 -0.3809
  142SOL     OW  424   2.099   2.702   3.015 -0.1427  0.2892  0.2079
  142SOL    HW1  425   2.187   2.720   2.969  0.9838  0.3915 -1.2843
  142SOL    HW2  426   2.110   2.655   0.033  0.0355  0.5660  4.5312
  143SOL     OW  427   1.016   2.049   0.411  0.0710 -0.5259 -0.4290
  143SOL    HW1  428   0.962   2.135   0.393  0.4468 -2.8463 -0.1649
  143SOL    HW2  429   0.961   1.968   0.399 -3.9313 -2.0240  0.2896
  144SOL     OW  430   1.097   2.576   0.307  0.4493 -0.2903 -0.2084
  144SOL    HW1  431   1.073   2.498   0.243  0.2962 -1.0286 -0.6290
  144SOL    HW2  432   1.195   2.566   0.334 -0.2152  1.4679  1.2846
  145SOL     OW  433   1.767   1.898   2.593  0.6736 -0.1543  0.2971
  145SOL    HW1  434   1.757   1.896   2.689  3.1071 -0.4240 -0.7155
  145SOL    HW2  435   1.714   1.826   2.546  0.8163 -2.0620 -0.5099
  146SOL     OW  436   2.572   2.383   0.005 -0.1027  0.0846  0.2165
  146SOL    HW1  437   2.534   2.455   3.013 -0.3776  2.1643 -1.2324
  146SOL    HW2  438   2.510   2.360   0.082  1.2747  2.0823  0.2145
  147SOL     OW  439   3.021   1.180   1.243 -0.2493 -0.3382 -0.0059
  147SOL    HW1  440   2.988   1.246   1.174 -1.3138  2.7267  0.8733
  147SOL    HW2  441   2.950   1.161   1.313  2.0360 -0.8903  0.2352
  148SOL     OW  442   1.692   2.978   0.095  0.2011  0.1352 -0.3658
  148SOL    HW1  443   1.773   2.958   0.036  2.7335  0.7428  0.4676
  148SOL    HW2  444   1.651   2.893   0.135 -1.9262 -2.2200 -2.6793
  149SOL     OW  445   0.611   1.799   2.901 -0.2594  0.0089  0.4999
  149SOL    HW1  446   0.670   1.725   2.947 -0.4243  1.4034  0.2997
  149SOL    HW2  447   0.620   1.795   2.801  1.1763  0.1090  0.4778
  150SOL     OW  448   0.260   2.361   0.530 -0.2723  0.2051  0.2383
  150SOL    HW1  449   0.292   2.383   0.437  0.6144  0.4997 -0.6483
  150SOL    HW2  450   0.322   2.302   0.585 -0.3552  1.4597 -2.5417
  151SOL     OW  451   0.438   1.594   0.346  0.1206 -0.4577  0.4254
  151SOL    HW1  452   0.352   1.565   0.380  2.8333 -1.2648 -0.0180
  151SOL    HW2  453   0.427   1.626   0.250 -0.1705  1.3028  2.6440
  152SOL     OW  454   2.809   1.749   0.600 -0.2609  0.2069 -0.2358
  152SOL    HW1  455   2.727   1.784   0.554 -0.2720 -2.3557  0.6286
  152SOL    HW2  456   2.839   1.806   0.679  0.1448 -1.1764 -1.0143
  153SOL     OW  457   2.110   2.557   0.404  0.4039 -0.1887 -0.4276
  153SOL    HW1  458   2.091   2.653   0.393 -3.9950 -0.6026 -1.6334
  153SOL    HW2  459   2.074   2.532   0.499  1.2718  1.6533  0.6843
  154SOL     OW  460   0.939   2.809   0.921 -0.1287  0.2737 -0.0069
  154SOL    HW1  461   0.988   2.898   0.908  2.4671  3.0736 -0.0339
  154SOL    HW2  462   0.860   2.816   0.983  1.0832  0.3625 -3.1323
  155SOL     OW  463   0.242   1.896   1.006  0.4709 -0.2100  0.2563
  155SOL    HW1  464   0.156   1.855   1.037  2.7761 -1.0188 -0.7868
  155SOL    HW2  465   0.215   1.963   0.934  0.4651  0.2605  2.3355
  156SOL     OW  466   2.381   2.351   0.194  0.2386  0.6037  0.1330
  156SOL    HW1  467   2.381   2.252   0.212 -2.3532 -0.5284 -1.5906
  156SOL    HW2  468   2.374   2.412   0.275  0.5730  1.0287 -1.1105
  157SOL     OW  469   0.743   1.737   1.584  0.2539 -0.4069  0.3004
  157SOL    HW1  470   0.671   1.736   1.658  0.3616  0.2225 -1.2482
  157SOL    HW2  471   0.707   1.705   1.492 -1.3789 -1.9199 -2.1368
  158SOL     OW  472   1.427   0.736   3.042  0.0865 -0.2369 -0.1189
  158SOL    HW1  473   1.410   0.687   2.955 -1.0136  0.8517  2.3225
  158SOL    HW2  474   1.529   0.736   3.067  6.1619 -1.1292  0.4611
  159SOL     OW  475   1.130   0.968   2.793 -0.5327  0.0433  0.2870
  159SOL    HW1  476   1.129   0.972   2.691  0.0897  1.2547  0.4420
  159SOL    HW2  477   1.220   0.943   2.833  2.7436 -0.1197  2.2718
  160SOL     OW  478   1.099   1.383   0.537  0.4342  0.0583 -0.0558
  160SOL    HW1  479   1.063   1.463   0.493  1.0950  1.1230 -1.0142
  160SOL    HW2  480   1.119   1.314   0.464 -3.1218 -0.6047  2.4393
  161SOL     OW  481   0.175   2.167   2.580  0.1233  0.5352 -0.2339
  161SOL    HW1  482   0.072   2.177   2.583 -0.6398  1.0637  0.0072
  161SOL    HW2  483   0.205   2.139   2.677 -1.8044 -1.0900 -0.1743
  162SOL     OW  484   0.272   2.345   0.965 -0.0895 -0.3411  0.9822
  162SOL    HW1  485   0.223   2.299   0.886 -3.0489 -1.9029  1.2881
  162SOL    HW2  486   0.331   2.276   1.008 -0.4706  1.5163  0.3485
  163SOL     OW  487   3.006   0.716   2.904 -0.2008  0.1318 -0.1280
  163SOL    HW1  488   0.013   0.661   2.928 -1.6145  1.0950 -0.4133
  163SOL    HW2  489   2.927   0.701   2.963  0.1362  1.3545  2.0685
  164SOL     OW  490   0.551   3.027   2.678  0.4882  0.2920  0.2709
  164SOL    HW1  491   0.603   0.011   2.740 -1.4482  0.8931 -2.2501
  164SOL    HW2  492   0.604   2.942   2.653 -0.9289  1.2931  3.0984
  165SOL     OW  493   2.240   0.261   1.928  0.0678 -0.7197  0.0157
  165SOL    HW1  494   2.166   0.327   1.957 -2.8847 -1.5346 -0.7001
  165SOL    HW2  495   2.320   0.251   1.990 -2.1807  0.3211 -2.2881
  166SOL     OW  496   2.037   2.493   1.604  0.0077  0.0502  0.4508
  166SOL    HW1  497   2.008   2.420   1.665 -0.2076  1.8381 -0.6457
  166SOL    HW2  498   1.981   2.576   1.629 -1.3200  0.0660  1.7089
  167SOL     OW  499   1.222   0.675   2.006  0.0194 -0.5679 -0.8252
  167SOL    HW1  500   1.301   0.611   1.997 -3.0824 -2.3322  1.2968
  167SOL    HW2  501   1.216   0.724   2.096 -0.5970 -0.4258  1.0013
  168SOL     OW  502   2.439   0.027   2.093 -0.6147 -0.4386  0.5689
  168SOL    HW1  503   2.499   0.075   2.025 -1.9504 -1.6509  1.7654
  168SOL    HW2  504   2.484   3.015   2.131 -0.3143  1.2296  0.2580
  169SOL     OW  505   3.047   1.165   0.196  0.1315  0.6355 -0.0183
  169SOL    HW1  506   2.979   1.191   0.265 -0.3141  0.0893 -3.4615
  169SOL    HW2  507   3.001   1.122   0.113  1.4611 -1.9654 -1.5211
  170SOL     OW  508   3.011   1.531   1.680 -0.7471 -0.3020 -0.6180
  170SOL    HW1  509   2.946   1.543   1.601  0.4990  0.9774  1.5936
  170SOL    HW2  510   2.969   1.507   1.772 -0.1882 -2.4434  1.2954
  171SOL     OW  511   0.944   2.260   2.197 -0.2594  0.0441 -0.3407
  171SOL    HW1  512   0.878   2.325   2.157  1.0552 -0.7026 -3.2994
  171SOL    HW2  513   0.893   2.175   2.217  0.5432  0.7279 -0.6143
  172SOL     OW  514   0.698   2.363   2.092  0.2331  0.5711 -0.3205
  172SOL    HW1  515   0.698   2.409   1.999 -0.3098 -3.0587  1.3527
  172SOL    HW2  516   0.666   2.424   2.172  0.7209  1.8529  2.6817
  173SOL     OW  517   1.235   2.575   0.798  0.1920 -0.1533  0.1859
  173SOL    HW1  518   1.190   2.597   0.883  2.9817  1.1283 -3.3604
  173SOL    HW2  519   1.304   2.646   0.772  2.0612 -1.1860 -2.9697
  174SOL     OW  520   1.936   0.365   0.596 -0.4031  0.0052 -0.4734
  174SOL    HW1  521   1.955   0.329   0.689 -1.1659  0.0164 -1.2373
  174SOL    HW2  522   2.016   0.368   0.537 -2.4452 -2.1371 -0.2599
  175SOL     OW  523   1.119   1.633   0.442  0.8490 -0.4779 -0.4814
  175SOL    HW1  524   1.208   1.636   0.496 -2.8523 -0.0415 -0.2140
  175SOL    HW2  525   1.052   1.688   0.498  0.8797 -1.8681 -0.2950
  176SOL     OW  526   1.252   1.389   0.756  0.8861  0.2805 -0.2864
  176SOL    HW1  527   1.280   1.481   0.790  0.2416 -0.4104  3.3737
  176SOL    HW2  528   1.191   1.393   0.676 -1.1236 -0.3237 -2.4179
  177SOL     OW  529   1.180   0.637   1.213 -0.4355  0.5350  0.2243
  177SOL    HW1  530   1.122   0.558   1.249  1.1122 -0.7343  1.3979
  177SOL    HW2  531   1.249   0.671   1.280 -1.1387 -0.6017  2.2403
  178SOL     OW  532   2.669   1.616   0.280 -0.0286  0.0711  0.3609
  178SOL    HW1  533   2.769   1.615   0.278  1.1985  0.4040  0.2788
  178SOL    HW2  534   2.627   1.556   0.210 -0.6886 -0.4904  0.8563
  179SOL     OW  535   0.488   2.241   0.089  0.5810 -0.0945  0.0603
  179SOL    HW1  536   0.408   2.207   0.036 -4.9814  0.5607 -2.1233
  179SOL    HW2  537   0.461   2.287   0.175 -1.1498  0.9100  1.2741
  180SOL     OW  538   1.602   1.562   1.537 -0.5531 -0.4863  0.2749
  180SOL    HW1  539   1.661   1.642   1.519  0.0931  2.0565 -0.8949
  180SOL    HW2  540   1.514   1.574   1.489 -0.5464 -2.2857  2.2183
  181SOL     OW  541   0.810   1.102   2.238  0.3146  0.2648  0.0317
  181SOL    HW1  542   0.754   1.110   2.155 -0.1724  0.7827  2.5578
  181SOL    HW2  543   0.902   1.059   2.214  0.8834  0.4964  1.2250
  182SOL     OW  544   2.784   1.037   2.139 -0.3272  0.6786  0.6337
  182SOL    HW1  545   2.774   1.073   2.235  1.9255 -0.1256 -0.6527
  182SOL    HW2  546   2.707   0.980   2.107  0.6350 -1.8602  0.0166
  183SOL     OW  547   1.563   0.677   2.103  0.3365  0.3637  0.0652
  183SOL    HW1  548   1.663   0.669   2.114 -0.5440  1.7338 -2.0973
  183SOL    HW2  549   1.526   0.600   2.046 -2.0414 -0.0862 -1.5036
  184SOL     OW  550   0.265   0.566   1.741 -0.1266  0.1145  0.2949
  184SOL    HW1  551   0.236   0.553   1.835  0.1420 -2.4762 -0.5170
  184SOL    HW2  552   0.353   0.605   1.742 -2.6644 -3.1854 -2.7093
  185SOL     OW  553   2.316   1.757   0.567  0.3086  0.6873 -0.6387
  185SOL    HW1  554   2.362   1.767   0.475 -1.2516 -0.0807  0.8584
  185SOL    HW2  555   2.248   1.681   0.564 -0.2902 -0.7307 -1.6672
  186SOL     OW  556   0.499   1.916   0.037 -0.3427  0.3998  0.2351
  186SOL    HW1  557   0.537   1.865   3.027  5.0919 -0.4214 -3.8713
  186SOL    HW2  558   0.571   1.985   0.060  2.4884  0.5683 -3.5533
  187SOL     OW  559   2.338   1.728   2.986 -0.2423 -0.0289 -0.2126
  187SOL    HW1  560   2.349   1.673   2.902  0.2578 -0.9070  3.8260
  187SOL    HW2  561   2.431   1.773   2.999  0.8092 -0.8330  2.3717
  188SOL     OW  562   0.979   2.635   0.717 -0.1931  0.2715  0.3717
  188SOL    HW1  563   1.074   2.600   0.723  1.0550  0.3327 -0.6676
  188SOL    HW2  564   0.958   2.706   0.788 -2.0979 -0.5765 -2.1548
  189SOL     OW  565   2.039   0.995   2.376 -0.0756  0.1902 -0.4705
  189SOL    HW1  566   1.951   0.953   2.402  0.5426 -1.3384 -0.2304
  189SOL    HW2  567   2.039   1.096   2.360 -0.5729  3.1290  0.7289
  190SOL     OW  568   0.863   2.011   2.328  0.2977  0.4360  0.0289
  190SOL    HW1  569   0.781   2.022   2.389 -1.0110 -0.1065  0.6600
  190SOL    HW2  570   0.940   1.979   2.383  0.3676 -0.4872  0.6736
  191SOL     OW  571   2.296   0.670   1.547  0.3576  0.0951  0.7999
  191SOL    HW1  572   2.265   0.604   1.617 -0.5429  1.3430 -1.2568
  191SOL    HW2  573   2.360   0.616   1.490  0.5748 -2.0535 -0.9475
  192SOL     OW  574   2.233   0.443   2.309  0.2357 -0.2419  0.1034
  192SOL    HW1  575   2.322   0.438   2.256  1.4940 -2.0979  1.1440
  192SOL    HW2  576   2.186   0.349   2.317  0.6455 -4.7581 -1.0770
  193SOL     OW  577   0.536   0.415   0.633  0.3271  0.5960  0.1522
  193SOL    HW1  578   0.512   0.360   0.553 -0.0438  2.1815 -0.3402
  193SOL    HW2  579   0.461   0.410   0.703 -0.5780  1.8558  0.4868
  194SOL     OW  580   1.289   2.425   1.598 -0.2441 -0.2465  0.2390
  194SOL    HW1  581   1.213   2.469   1.657 -0.8683  1.7071  1.3018
  194SOL    HW2  582   1.289   2.321   1.600  1.7243 -2.3945  1.0712
  195SOL     OW  583   2.522   0.802   0.736  0.1786  0.2664 -0.2303
  195SOL    HW1  584   2.465   0.786   0.817 -1.6659 -0.8733 -2.2716
  195SOL    HW2  585   2.599   0.865   0.739 -3.4320 -0.3633  0.4189
  196SOL     OW  586   1.141   1.776   1.736  0.2995  0.2071 -0.0359
  196SOL    HW1  587   1.103   1.815   1.648 -3.5579 -1.2200 -2.0110
  196SOL    HW2  588   1.078   1.804   1.810 -0.6017 -0.5169  4.5034
  197SOL     OW  589   0.358   0.640   2.334  0.1552 -0.6033 -0.0673
  197SOL    HW1  590   0.294   0.691   2.274 -0.1316 -0.3469  2.9228
  197SOL    HW2  591   0.307   0.563   2.377 -0.2319  1.9136  0.2668
  198SOL     OW  592   1.596   1.353   0.782 -0.1539  0.0180  0.6924
  198SOL    HW1  593   1.500   1.340   0.783  2.3375 -0.1893 -2.3493
  198SOL    HW2  594   1.623   1.452   0.786  0.5115 -0.3545  0.0059
  199SOL     OW  595   2.468   0.470   2.142 -0.5800 -0.6015  0.6125
  199SOL    HW1  596   2.543   0.398   2.144 -0.9868  0.6227 -0.6204
  199SOL    HW2  597   2.495   0.568   2.160 -0.4375 -0.9560  2.4948
  200SOL     OW  598   2.380   2.426   2.344  0.5199  0.2882 -1.1157
  200SOL    HW1  599   2.460   2.482   2.379  1.5687 -0.0763 -1.1479
  200SOL    HW2  600   2.416   2.333   2.324 -1.0286 -1.1531 -0.9212
  201SOL     OW  601   2.110   0.208   1.537 -0.3343  0.7654 -0.3890
  201SOL    HW1  602   2.042   0.249   1.601 -0.9405 -0.6902  1.8670
  201SOL    HW2  603   2.066   0.187   1.446 -0.9134  1.9615 -0.6806
  202SOL     OW  604   2.080   2.974   0.149 -0.3809 -0.5427  1.0176
  202SOL    HW1  605   2.158   2.991   0.085 -2.9790 -2.1943  1.0758
  202SOL    HW2  606   1.999   2.958   0.090 -0.1276  1.2707  3.2190
  203SOL     OW  607   0.598   1.845   2.603 -0.6813  0.6546 -0.4178
  203SOL    HW1  608   0.509   1.804   2.587  0.3946 -2.3695  1.2935
  203SOL    HW2  609   0.604   1.936   2.561 -1.4596 -4.9369 -1.0767
  204SOL     OW  610   0.949   1.366   2.593  0.4410 -0.4306  0.1717
  204SOL    HW1  611   0.869   1.404   2.653  0.9720  0.8318  1.5491
  204SOL    HW2  612   0.992   1.293   2.645  0.1683 -1.4713  1.7988
  205SOL     OW  613   0.915   0.839   1.500 -0.3244 -0.2618 -0.2101
  205SOL    HW1  614   1.010   0.873   1.508  3.3309  1.8359  0.3136
  205SOL    HW2  615   0.903   0.803   1.408 -1.1290  0.1602  0.6432
  206SOL     OW  616   0.585   0.472   2.577  0.0890 -0.3304 -0.6753
  206SOL    HW1  617   0.662   0.494   2.520 -3.0015  0.4607 -0.7732
  206SOL    HW2  618   0.590   0.378   2.610  0.1414 -1.1492  1.7847
  207SOL     OW  619   1.819   2.440   2.099  0.0841  0.0476  0.2376
  207SOL    HW1  620   1.841   2.528   2.144 -0.9503 -2.4026 -1.5029
  207SOL    HW2  621   1.799   2.456   1.998  0.5038  0.0779  0.0052
  208SOL     OW  622   1.107   2.542   1.044 -0.4982 -0.6450 -0.1233
  208SOL    HW1  623   1.008   2.543   1.029  0.8924 -3.0179  0.8669
  208SOL    HW2  624   1.127   2.447   1.065  0.1011  1.8119 -2.3457
  209SOL     OW  625   1.178   1.665   2.799  0.2816 -0.0582  0.3411
  209SOL    HW1  626   1.254   1.639   2.859 -1.9036 -2.0078  0.1404
  209SOL    HW2  627   1.179   1.614   2.710  2.1162 -1.5357 -1.3778
  210SOL     OW  628   2.247   0.661   0.853 -0.0925 -0.7440  0.2036
  210SOL    HW1  629   2.299   0.741   0.893 -1.9031  1.0128 -0.8850
  210SOL    HW2  630   2.229   0.675   0.755 -0.2492  0.7430 -1.9459
  211SOL     OW  631   0.880   2.727   0.465  0.8167  0.3634 -0.5051
  211SOL    HW1  632   0.880   2.675   0.552  1.2001  0.5393  1.3149
  211SOL    HW2  633   0.931   2.686   0.392  0.6166  0.7845 -0.2704
  212SOL     OW  634   2.158   1.853   0.333 -0.0882 -0.4055 -0.0306
  212SOL    HW1  635   2.182   1.776   0.270 -0.8885  1.0014  1.1684
  212SOL    HW2  636   2.233   1.921   0.345 -3.2512 -3.1900 -2.6964
  213SOL     OW  637   1.722   0.637   2.799  0.3878 -0.2794  0.2137
  213SOL    HW1  638   1.684   0.630   2.890  0.3713  2.6591  1.4125
  213SOL    HW2  639   1.801   0.700   2.797 -0.5698  0.7031 -1.5240
  214SOL     OW  640   0.968   1.972   1.878  0.1889  0.2406  0.3856
  214SOL    HW1  641   0.877   1.929   1.889  1.8036 -2.3311 -0.3948
  214SOL    HW2  642   1.010   1.998   1.968 -0.4051 -0.6589  0.0866
  215SOL     OW  643   0.588   1.649   0.579 -0.1389  0.5484 -0.0488
  215SOL    HW1  644   0.565   1.625   0.484 -1.0283  1.9945  2.5356
  215SOL    HW2  645   0.525   1.720   0.607  0.6391 -1.2286 -2.6579
  216SOL     OW  646   0.111   3.048   2.385 -0.2540  0.5716 -0.1035
  216SOL    HW1  647   0.118   2.948   2.400  0.8659 -0.8927 -0.9328
  216SOL    HW2  648   0.127   3.068   2.284  2.1329 -0.4115  1.4404
  217SOL     OW  649   2.363   0.693   1.243  0.0797 -0.1554  0.4251
  217SOL    HW1  650   2.282   0.633   1.238 -0.4780 -0.2979 -0.0903
  217SOL    HW2  651   2.437   0.653   1.301 -0.1799 -1.1303 -0.5052
  218SOL     OW  652   1.407   1.863   2.074  0.2548  1.0034  0.2002
  218SOL    HW1  653   1.391   1.883   1.972 -0.6534 -0.6368 -2.6972
  218SOL    HW2  654   1.360   1.937   2.127  1.0729  1.4010  0.0109
  219SOL     OW  655   1.925   1.475   2.924  0.3177 -0.7112  0.1257
  219SOL    HW1  656   1.999   1.430   2.982  0.8811  0.8903 -0.5293
  219SOL    HW2  657   1.958   1.572   2.903 -0.1765  2.5701 -1.0647
  220SOL     OW  658   2.056   0.823   0.317 -0.1269  0.4281 -0.3183
  220SOL    HW1  659   2.029   0.894   0.251 -0.4053  1.5187 -0.7163
  220SOL    HW2  660   1.994   0.743   0.303  2.0931 -1.6150 -1.0656
  221SOL     OW  661   0.161   0.555   2.875  0.0293  0.6111 -0.1152
  221SOL    HW1  662   0.256   0.574   2.835  0.0423  0.4744 -2.3997
  221SOL    HW2  663   0.146   0.451   2.880 -2.6118 -1.4838 -0.3301
  222SOL     OW  664   1.585   1.814   0.552  0.4779 -0.1171  0.2681
  222SOL    HW1  665   1.666   1.752   0.536  2.2538 -2.3846  0.5790
  222SOL    HW2  666   1.594   1.916   0.544 -0.1131 -1.3505  1.2609
  223SOL     OW  667   1.061   0.076   0.149  0.3472 -0.0411 -0.0274
  223SOL    HW1  668   1.136   0.100   0.209  1.5920  0.4011 -2.1670
  223SOL    HW2  669   1.095   0.086   0.054 -3.5604  0.7550 -1.2144
  224SOL     OW  670   1.888   2.994   1.498 -0.0822  0.2618 -0.0421
  224SOL    HW1  671   1.839   2.937   1.430 -0.3345 -0.5695  1.6513
  224SOL    HW2  672   1.946   3.066   1.457  4.4757 -1.8481 -0.2676
  225SOL     OW  673   0.613   2.278   1.255 -0.3402  0.2521 -0.4668
  225SOL    HW1  674   0.682   2.298   1.331  0.8243 -0.8233  1.8887
  225SOL    HW2  675   0.651   2.287   1.160 -0.6019  1.1324  0.6113
  226SOL     OW  676   1.111   1.617   0.182  0.4886 -0.5193 -0.1852
  226SOL    HW1  677   1.142   1.700   0.134 -0.6219 -0.6721  0.4256
  226SOL    HW2  678   1.133   1.625   0.280 -0.6181  0.2677 -2.6121
  227SOL     OW  679   1.242   1.682   1.222  0.5090 -0.3130  0.1440
  227SOL    HW1  680   1.271   1.589   1.195  1.5794 -0.0214 -0.5038
  227SOL    HW2  681   1.162   1.724   1.174 -0.2637  0.9989  0.2214
  228SOL     OW  682   0.356   1.789   0.632 -0.1663 -0.5880 -0.5357
  228SOL    HW1  683   0.297   1.715   0.662 -0.3085 -2.8081  0.6926
  228SOL    HW2  684   0.295   1.865   0.598 -0.4015  0.1861  0.8194
  229SOL     OW  685   1.968   0.293   2.670 -0.0155 -0.3886 -0.1029
  229SOL    HW1  686   2.016   0.244   2.594  1.9088 -1.5436  0.1192
  229SOL    HW2  687   1.882   0.335   2.644  4.3389 -2.8313 -0.7627
  230SOL     OW  688   1.626   1.244   2.742 -0.4924 -0.2175  0.1147
  230SOL    HW1  689   1.719   1.237   2.704 -0.6158 -0.8431  0.5464
  230SOL    HW2  690   1.620   1.220   2.837 -0.7429 -0.2476 -1.9242
  231SOL     OW  691   0.843   1.748   2.520  0.0286  0.3430  0.6773
  231SOL    HW1  692   0.846   1.690   2.438  0.4592 -1.7223  0.6151
  231SOL    HW2  693   0.750   1.781   2.539 -3.7831 -0.8992  0.2675
  232SOL     OW  694   2.343   2.215   0.459  0.1062  0.0177  0.0162
  232SOL    HW1  695   2.414   2.193   0.527  0.8874 -1.8721 -0.4062
  232SOL    HW2  696   2.344   2.144   0.388 -2.1904  1.2741  0.0947
  233SOL     OW  697   2.650   2.453   0.409  0.8947 -0.1048 -0.1295
  233SOL    HW1  698   2.649   2.369   0.346 -1.3724 -0.3503 -3.3903
  233SOL    HW2  699   2.624   2.536   0.354  1.3527 -0.8069 -0.7916
  234SOL     OW  700   0.651   0.382   2.850  0.0546  0.1324  0.3611
  234SOL    HW1  701   0.660   0.306   2.782  0.8635  1.4455  0.8552
  234SOL    HW2  702   0.704   0.467   2.819  4.4094  0.2164 -3.2501
  235SOL     OW  703   2.698   0.232   2.738  0.2214  0.6121  0.0129
  235SOL    HW1  704   2.721   0.139   2.761  1.0421  0.7132  0.1575
  235SOL    HW2  705   2.772   0.294   2.760 -2.7457 -1.8715 -0.1514
  236SOL     OW  706   1.846   2.251   1.142  0.4681 -0.2642  0.3737
  236SOL    HW1  707   1.850   2.226   1.240 -0.2496  0.6706 -1.1720
  236SOL    HW2  708   1.937   2.236   1.096  1.1046 -2.0751 -0.3035
  237SOL     OW  709   0.692   1.846   2.128  0.0004 -0.2613  0.2369
  237SOL    HW1  710   0.695   1.853   2.028 -0.4415 -0.7935  3.4388
  237SOL    HW2  711   0.721   1.929   2.166  1.5262 -1.9523 -1.4872
  238SOL     OW  712   1.289   0.111   2.574  0.6616  0.2919  0.1396
  238SOL    HW1  713   1.323   0.017   2.569 -0.6167  0.2979  0.0305
  238SOL    HW2  714   1.215   0.123   2.503  0.6761  1.1573  0.7044
  239SOL     OW  715   0.394   2.051   1.925 -0.1357  0.1614 -0.0749
  239SOL    HW1  716   0.488   2.078   1.956 -0.4878 -1.6232  1.8767
  239SOL    HW2  717   0.361   2.124   1.864  1.0907  1.9036 -0.3814
  240SOL     OW  718   2.358   2.495   0.436 -0.3689 -0.5702  0.2533
  240SOL    HW1  719   2.256   2.497   0.415  1.4481 -1.1820 -1.3652
  240SOL    HW2  720   2.393   2.403   0.459 -1.1671  2.0426 -3.1600
  241SOL     OW  721   2.427   0.830   0.991 -0.1974 -0.6112 -0.4800
  241SOL    HW1  722   2.414   0.808   1.089 -1.0920  1.4872 -2.7919
  241SOL    HW2  723   2.419   0.932   0.986  0.0478 -0.3334 -1.0552
  242SOL     OW  724   2.262   2.436   2.118  0.3744 -0.4378  0.0374
  242SOL    HW1  725   2.202   2.354   2.130 -0.1864 -0.8394 -2.1238
  242SOL    HW2  726   2.315   2.451   2.203 -4.1388 -0.3268  0.3989
  243SOL     OW  727   0.660   2.562   1.627 -0.6713 -0.1292  0.0663
  243SOL    HW1  728   0.740   2.512   1.594  0.2342 -0.4875  1.2942
  243SOL    HW2  729   0.648   2.650   1.569  1.0412  2.2163  1.2959
  244SOL     OW  730   2.130   0.417   2.886  0.5921 -0.5061  0.2100
  244SOL    HW1  731   2.092   0.351   2.817  2.7187  0.7576  2.9321
  244SOL    HW2  732   2.154   0.510   2.854 -0.4126  0.1965  1.1753
  245SOL     OW  733   1.475   0.159   1.369 -0.0757  0.1442 -0.1141
  245SOL    HW1  734   1.374   0.161   1.378 -1.7687  0.0592 -0.0004
  245SOL    HW2  735   1.500   0.090   1.298 -1.3976 -1.3713 -0.9447
  246SOL     OW  736   1.793   2.599   3.021 -0.4110  0.3086  0.3942
  246SOL    HW1  737   1.870   2.538   3.028  0.3026  2.9139 -0.6699
  246SOL    HW2  738   1.784   2.638   2.924  1.0869  2.6420 -2.9824
  247SOL     OW  739   1.144   0.726   2.306  0.2093  0.2094  0.0928
  247SOL    HW1  740   1.095   0.660   2.363 -1.4388  2.3093  2.5194
  247SOL    HW2  741   1.244   0.729   2.335  1.2342 -2.8680  1.5189
  248SOL     OW  742   0.533   1.701   1.754 -0.2747  0.3056 -0.8460
  248SOL    HW1  743   0.471   1.768   1.711  1.8583  1.5521  1.0618
  248SOL    HW2  744   0.482   1.615   1.780  2.6964 -0.0900  1.7150
  249SOL     OW  745   2.359   0.303   0.569  0.1546  0.0459 -0.2520
  249SOL    HW1  746   2.294   0.311   0.486  0.5530  2.5950 -1.5236
  249SOL    HW2  747   2.322   0.348   0.656 -1.6047  0.5807  1.7185
  250SOL     OW  748   2.840   0.404   2.988 -0.1094  0.5927  0.1688
  250SOL    HW1  749   2.890   0.319   3.003 -0.2591  0.7915 -1.6360
  250SOL    HW2  750   2.882   0.478   3.043 -0.3959 -0.3909  1.9572
  251SOL     OW  751   1.353   0.576   2.845  0.8022  0.3378  0.2662
  251SOL    HW1  752   1.365   0.576   2.744 -0.8238 -0.4768  1.2337
  251SOL    HW2  753   1.270   0.523   2.864  0.0156  0.4814 -1.5535
  252SOL     OW  754   1.763   2.057   1.848 -0.1474 -0.2442  0.0889
  252SOL    HW1  755   1.673   2.113   1.856 -0.1876  1.2966 -0.6476
  252SOL    HW2  756   1.784   1.990   1.921 -0.1869 -1.5785 -0.3330
  253SOL     OW  757   2.366   2.383   1.147 -0.2018 -0.2591  0.3042
  253SOL    HW1  758   2.378   2.440   1.062 -0.6425  1.4546 -0.8203
  253SOL    HW2  759   2.391   2.438   1.230 -4.4448 -0.7229 -1.9266
  254SOL     OW  760   2.665   1.209   0.906 -0.4744 -0.3668 -0.3308
  254SOL    HW1  761   2.650   1.277   0.979 -1.0526 -1.3519 -2.1311
  254SOL    HW2  762   2.754   1.232   0.857  2.6100 -0.3501 -1.9391
  255SOL     OW  763   1.355   0.246   1.027 -0.1619 -0.1316 -0.1721
  255SOL    HW1  764   1.344   0.182   0.951  0.4230  1.1435 -0.9021
  255SOL    HW2  765   1.300   0.330   1.007 -0.1728  1.0321  0.3737
  256SOL     OW  766   1.415   2.304   1.285  0.1870 -0.2386  0.5912
  256SOL    HW1  767   1.327   2.349   1.291  0.8633 -2.1593  0.7118
  256SOL    HW2  768   1.399   2.233   1.219  0.1749 -3.3864 -1.0984
  257SOL     OW  769   0.763   2.881   2.568 -0.8007 -0.0150 -0.0838
  257SOL    HW1  770   0.863   2.904   2.582  1.4568 -1.6288  0.9478
  257SOL    HW2  771   0.730   2.921   2.482 -0.2889 -0.3140  4.0406
  258SOL     OW  772   0.829   2.434   0.587  0.7607 -0.5747 -0.3301
  258SOL    HW1  773   0.884   2.505   0.641  1.5631 -0.4357  3.0409
  258SOL    HW2  774   0.735   2.425   0.627  2.5431  1.2766 -1.1952
  259SOL     OW  775   1.604   2.898   2.758  0.3391  0.3576  0.8558
  259SOL    HW1  776   1.591   2.978   2.821  2.6829  1.9466 -2.4030
  259SOL    HW2  777   1.684   2.845   2.783  0.9304  4.2076 -0.7747
  260SOL     OW  778   2.332   0.241   1.368  0.0175  0.0531  0.1118
  260SOL    HW1  779   2.252   0.234   1.429 -1.3980 -1.4782  0.2784
  260SOL    HW2  780   2.406   0.171   1.384  0.6489 -0.8025  4.9887
  261SOL     OW  781   0.791   0.482   2.330 -0.1164 -0.0470  1.0721
  261SOL    HW1  782   0.704   0.468   2.281 -0.3917  1.5638  1.4676
  261SOL    HW2  783   0.839   0.557   2.292  1.6296 -2.1449 -2.0279
  262SOL     OW  784   0.501   2.365   2.336  0.3599  0.3061  0.1616
  262SOL    HW1  785   0.414   2.344   2.285  0.4686 -1.8006  1.0231
  262SOL    HW2  786   0.553   2.446   2.308 -1.2750  0.1979  0.2596
  263SOL     OW  787   0.154   1.627   2.512 -0.1881 -0.2778  0.2196
  263SOL    HW1  788   0.096   1.712   2.523  3.1078  0.7215 -3.5231
  263SOL    HW2  789   0.139   1.600   2.412  0.3831 -1.9682 -2.0496
  264SOL     OW  790   1.360   1.140   0.817  0.0034 -0.2022  0.3049
  264SOL    HW1  791   1.367   1.075   0.734 -0.9722  1.4809 -1.5441
  264SOL    HW2  792   1.319   1.229   0.793  0.1156 -1.1534 -4.0524
  265SOL     OW  793   1.562   2.839   0.461  0.2853 -0.1271  0.6422
  265SOL    HW1  794   1.515   2.792   0.535  1.6424 -2.6360 -1.2899
  265SOL    HW2  795   1.659   2.808   0.463 -0.2484  0.8841  1.3429
  266SOL     OW  796   1.603   0.880   1.426 -0.4412  0.5949 -0.2176
  266SOL    HW1  797   1.540   0.943   1.374 -2.7372  0.8539 -2.1683
  266SOL    HW2  798   1.686   0.857   1.369  3.4589 -0.1758 -3.1164
  267SOL     OW  799   2.360   1.172   2.664 -0.2167 -0.2457 -0.3459
  267SOL    HW1  800   2.431   1.155   2.595 -0.4885  1.4835 -0.3531
  267SOL    HW2  801   2.282   1.213   2.616  0.4704 -1.6939 -0.5168
  268SOL     OW  802   1.287   0.368   0.041 -0.4787 -0.3844 -0.3271
  268SOL    HW1  803   1.344   0.370   0.132  1.5502  1.3675  2.7048
  268SOL    HW2  804   1.193   0.399   0.056  2.3422  2.1150 -0.8999
  269SOL     OW  805   2.896   0.696   2.663  0.0725 -0.3319 -0.0031
  269SOL    HW1  806   2.971   0.636   2.629  1.3633  0.3871 -0.2815
  269SOL    HW2  807   2.916   0.720   2.758 -0.9903 -0.5813 -0.7644
  270SOL     OW  808   0.116   1.409   0.133 -0.2208  0.2693 -0.1628
  270SOL    HW1  809   0.069   1.325   0.164 -1.6628 -1.3781 -1.7823
  270SOL    HW2  810   0.125   1.411   0.031  0.3164  4.2630 -0.2378
  271SOL     OW  811   2.357   0.938   0.012  0.5524 -0.2413  0.2994
  271SOL    HW1  812   2.307   0.961   2.999  1.9179  2.8570 -1.3574
  271SOL    HW2  813   2.408   0.850   0.006  0.3983 -1.1633 -1.1528
  272SOL     OW  814   2.997   2.508   2.256 -0.0757 -0.4793  0.2516
  272SOL    HW1  815   2.958   2.581   2.195  1.5790 -0.2679 -0.4686
  272SOL    HW2  816   2.972   2.517   2.352 -0.8243  1.3464  0.4199
  273SOL     OW  817   0.053   0.072   0.310  0.7806  0.5923 -0.9527
  273SOL    HW1  818   0.035   0.164   0.275  0.6465 -0.5085  0.2487
  273SOL    HW2  819   0.117   0.073   0.392 -0.9756  3.0346  0.9093
  274SOL     OW  820   0.876   2.079   0.808  0.7159 -0.2625 -0.6029
  274SOL    HW1  821   0.827   1.989   0.829 -0.4741 -1.2977  0.7906
  274SOL    HW2  822   0.976   2.074   0.800 -0.8098 -0.5816  2.0781
  275SOL     OW  823   2.285   0.700   0.598  0.9695  0.1112  0.0531
  275SOL    HW1  824   2.198   0.744   0.569  2.5661 -0.8797  1.1699
  275SOL    HW2  825   2.355   0.769   0.617 -0.2545 -0.9671  1.1139
  276SOL     OW  826   2.465   1.425   1.305 -0.0526 -0.4539  1.1109
  276SOL    HW1  827   2.415   1.352   1.254  2.4582 -0.3691 -0.6577
  276SOL    HW2  828   2.420   1.447   1.396 -0.5885  0.9928  0.6655
  277SOL     OW  829   2.570   3.053   0.805  0.3317  0.3420 -0.3876
  277SOL    HW1  830   2.495   3.056   0.879 -1.9442 -1.5190 -0.1663
  277SOL    HW2  831   2.661   3.051   0.853 -2.4399 -0.3086  0.5763
  278SOL     OW  832   1.673   2.976   2.228 -0.2760 -0.7397  0.1574
  278SOL    HW1  833   1.662   2.902   2.156  2.0278 -0.7714  0.0471
  278SOL    HW2  834   1.720   2.947   2.317  2.1219 -0.5392  2.1205
  279SOL     OW  835   1.516   2.733   1.035 -0.1152 -1.0628  0.6576
  279SOL    HW1  836   1.559   2.824   1.054 -1.1407  0.5787  1.9233
  279SOL    HW2  837   1.540   2.692   0.946 -1.0877  1.2663  0.5199
  280SOL     OW  838   0.590   1.012   0.749 -0.4293 -0.2993 -0.3223
  280SOL    HW1  839   0.501   1.044   0.713  1.2033  0.3053 -2.7120
  280SOL    HW2  840   0.625   1.066   0.828 -0.5223 -0.7942 -0.4040
  281SOL     OW  841   2.381   1.348   2.886  0.1910 -0.2641 -0.4701
  281SOL    HW1  842   2.370   1.280   2.812 -1.4593  1.3238 -2.0752
  281SOL    HW2  843   2.352   1.441   2.853 -1.6901 -1.9063  1.9593
  282SOL     OW  844   0.289   1.296   0.321 -0.1518 -0.2490  0.0438
  282SOL    HW1  845   0.252   1.356   0.248 -1.3230 -1.9463  0.7050
  282SOL    HW2  846   0.311   1.203   0.293 -2.5117  0.6176  0.1715
  283SOL     OW  847   1.823   2.711   2.762 -0.3550 -0.2657  0.1112
  283SOL    HW1  848   1.895   2.783   2.746 -2.3296  3.7806 -0.3278
  283SOL    HW2  849   1.847   2.622   2.716  0.9295 -0.3931 -0.5045
  284SOL     OW  850   1.044   0.116   0.455 -0.6011  0.2364  0.5097
  284SOL    HW1  851   1.098   0.031   0.462  1.6232 -0.6556  0.0805
  284SOL    HW2  852   1.097   0.194   0.421 -1.6539 -2.0231  2.5797
  285SOL     OW  853   2.150   1.299   2.584  0.0925  0.3558 -0.5156
  285SOL    HW1  854   2.119   1.283   2.489 -0.0292 -1.6236 -3.3953
  285SOL    HW2  855   2.068   1.294   2.650 -1.3350  3.1875 -2.3665
  286SOL     OW  856   1.638   2.567   0.845  0.3013  0.6150  0.6936
  286SOL    HW1  857   1.635   2.519   0.936 -0.0009 -0.0434 -1.9894
  286SOL    HW2  858   1.668   2.501   0.775 -1.7666 -0.9085 -0.9314
  287SOL     OW  859   1.511   0.776   1.022  0.4262  0.6154 -0.4757
  287SOL    HW1  860   1.509   0.880   1.038 -1.7931 -0.1828  2.6725
  287SOL    HW2  861   1.444   0.748   0.952  0.7021  0.4307 -0.2527
  288SOL     OW  862   0.669   2.648   2.504 -0.2234  0.0094  0.3259
  288SOL    HW1  863   0.608   2.607   2.569  1.5844 -0.4227  0.5934
  288SOL    HW2  864   0.716   2.734   2.537  0.6084 -2.3568 -1.1167
  289SOL     OW  865   0.185   1.331   1.028 -0.1159  0.2395  0.5449
  289SOL    HW1  866   0.217   1.318   1.123  0.3175  1.1936  0.7654
  289SOL    HW2  867   0.085   1.350   1.039 -1.0317 -1.0402  2.1153
  290SOL     OW  868   1.359   2.315   0.778  0.4462  0.6007 -0.0376
  290SOL    HW1  869   1.314   2.402   0.806 -1.3512 -0.7684 -3.4217
  290SOL    HW2  870   1.339   2.288   0.685  0.3442  2.1920  2.3401
  291SOL     OW  871   1.328   0.097   0.231  0.7953 -0.5023 -0.4960
  291SOL    HW1  872   1.344   0.052   0.322 -0.6164  0.7413  1.4274
  291SOL    HW2  873   1.356   0.197   0.240  1.0437  1.0818 -1.1222
  292SOL     OW  874   0.532   0.442   2.238  0.3915 -0.4757  0.6332
  292SOL    HW1  875   0.464   0.372   2.263  0.7649  2.3799 -1.0711
  292SOL    HW2  876   0.478   0.527   2.247  1.8173  0.0375 -4.0041
  293SOL     OW  877   2.843   1.627   0.921  0.0290  0.4832  0.2710
  293SOL    HW1  878   2.803   1.594   0.833  3.3535  0.2609 -1.6035
  293SOL    HW2  879   2.783   1.689   0.973  1.3504 -0.6407 -1.9990
  294SOL     OW  880   0.885   0.171   2.191  0.2602 -0.0211  0.4778
  294SOL    HW1  881   0.787   0.176   2.193  2.6738  0.7952 -0.4554
  294SOL    HW2  882   0.904   0.078   2.162 -0.0954  2.8608 -0.3520
  295SOL     OW  883   1.304   1.627   0.860  0.3459 -0.0376 -0.7279
  295SOL    HW1  884   1.369   1.655   0.932 -3.1847  0.7353  2.0174
  295SOL    HW2  885   1.207   1.626   0.897  1.2177 -0.2799 -0.9678
  296SOL     OW  886   2.445   1.744   0.336  0.2925  0.3781 -0.4672
  296SOL    HW1  887   2.377   1.721   0.267 -1.6214  0.9197  0.8585
  296SOL    HW2  888   2.532   1.689   0.328  0.2778  0.6055  0.5797
  297SOL     OW  889   2.579   3.065   0.003 -0.2579  0.2376 -0.1280
  297SOL    HW1  890   2.604   3.010   0.087 -0.0687 -0.6207  1.0734
  297SOL    HW2  891   2.618   3.031   2.985  0.2023 -1.9844  2.9455
  298SOL     OW  892   0.997   0.430   2.916  0.4069 -0.4851 -0.6620
  298SOL    HW1  893   1.054   0.372   2.854  0.2064 -1.1358 -1.1802
  298SOL    HW2  894   0.927   0.491   2.873  0.6679 -0.5903 -1.3990
  299SOL     OW  895   0.628   2.571   2.244  0.2484 -0.2245 -0.5705
  299SOL    HW1  896   0.582   2.643   2.189 -1.1928 -0.3695  1.6736
  299SOL    HW2  897   0.650   2.608   2.335 -1.0214 -2.3999 -0.2944
  300SOL     OW  898   2.912   0.070   2.171  0.2299 -0.2551  0.1795
  300SOL    HW1  899   2.821   0.066   2.203  3.7203  3.1503 -2.1760
  300SOL    HW2  900   2.928   0.137   2.093  0.4300  1.1705  0.0588
  301SOL     OW  901   1.555   0.248   1.763  0.0406  0.5592  0.3666
  301SOL    HW1  902   1.524   0.318   1.697  0.3348  1.4129 -0.0101
  301SOL    HW2  903   1.625   0.189   1.724  1.8732 -1.0366  1.3132
  302SOL     OW  904   0.193   2.312   0.122 -0.2273  0.2529  0.1899
  302SOL    HW1  905   0.251   2.354   0.194  2.1655  1.8603  0.7316
  302SOL    HW2  906   0.213   2.355   0.029  0.5091  0.4247 -1.6316
  303SOL     OW  907   1.935   2.167   1.387  0.4648  0.1977  0.3340
  303SOL    HW1  908   1.877   2.151   1.468 -1.0874  1.3049 -1.8637
  303SOL    HW2  909   2.028   2.200   1.414 -0.4649 -0.1250  1.1374
  304SOL     OW  910   2.616   0.793   1.354 -0.6126  0.4701  0.4694
  304SOL    HW1  911   2.684   0.730   1.309  2.0224 -0.0046 -2.1179
  304SOL    HW2  912   2.578   0.754   1.436 -2.0016 -1.3705 -0.2770
  305SOL     OW  913   0.601   1.403   0.690 -0.9877  0.5725  0.0797
  305SOL    HW1  914   0.676   1.413   0.756 -3.3807  3.3898 -1.3213
  305SOL    HW2  915   0.577   1.495   0.660 -0.0036 -0.3638 -0.8784
  306SOL     OW  916   0.494   1.307   2.792  0.1659 -0.5244  0.3148
  306SOL    HW1  917   0.463   1.241   2.863 -0.1401  1.7730 -0.1386
  306SOL    HW2  918   0.457   1.276   2.702  0.5100  0.6527  2.3321
  307SOL     OW  919   1.099   0.025   1.455  0.3057  0.1715  0.9077
  307SOL    HW1  920   1.162   0.086   1.501 -3.0700 -2.9055 -2.6559
  307SOL    HW2  921   1.141   3.014   1.418 -3.4734  0.0072 -0.5951
  308SOL     OW  922   0.106   0.820   1.033 -0.0736 -0.0241  0.1989
  308SOL    HW1  923   0.018   0.792   0.989  1.0511  1.6759 -1.5154
  308SOL    HW2  924   0.164   0.740   1.051  1.4698 -1.5628  1.3063
  309SOL     OW  925   2.396   1.120   0.980 -0.7634  0.6231  0.0526
  309SOL    HW1  926   2.313   1.131   0.923 -1.8059 -3.0714  3.8231
  309SOL    HW2  927   2.474   1.173   0.940 -2.3743  1.5710  2.1357
  310SOL     OW  928   0.343   1.815   2.515 -0.1620 -0.1699  0.2494
  310SOL    HW1  929   0.293   1.726   2.515 -1.0825  0.1728  1.3752
  310SOL    HW2  930   0.281   1.884   2.470 -0.1027 -1.6347 -1.8809
  311SOL     OW  931   2.612   2.551   2.439  0.6134  0.0563 -0.6176
  311SOL    HW1  932   2.627   2.560   2.341  0.2028 -0.2029  2.1001
  311SOL    HW2  933   2.672   2.616   2.493  0.5783  1.5898 -0.1844
  312SOL     OW  934   2.270   1.993   0.019 -0.1164 -0.2014  0.1738
  312SOL    HW1  935   2.306   1.898   0.012 -1.3941 -0.2058 -0.1192
  312SOL    HW2  936   2.311   2.045   3.012  1.0528 -3.2943  1.4642
  313SOL     OW  937   0.240   0.125   0.501 -0.3052 -0.0543 -0.1325
  313SOL    HW1  938   0.342   0.139   0.512  1.1755  1.6398  0.0516
  313SOL    HW2  939   0.203   0.090   0.593  2.7432 -0.0189  1.5970
  314SOL     OW  940   1.954   1.073   2.882 -0.0203 -0.1402  0.1426
  314SOL    HW1  941   1.886   1.076   2.956 -0.8820  1.0649  0.6321
  314SOL    HW2  942   1.931   1.146   2.814  2.6839  0.7284 -2.1976
  315SOL     OW  943   1.668   0.134   2.520 -0.1734 -0.2422  0.4758
  315SOL    HW1  944   1.588   0.180   2.556 -0.4206 -0.3224  2.3838
  315SOL    HW2  945   1.714   0.187   2.446  1.5032 -0.6113 -1.2156
  316SOL     OW  946   3.053   1.115   0.704  0.4841  0.4704 -0.9944
  316SOL    HW1  947   2.983   1.045   0.685 -1.9546 -1.4234 -0.8494
  316SOL    HW2  948   0.043   1.087   0.782 -0.8979  2.1161 -2.4746
  317SOL     OW  949   0.439   2.520   2.987 -0.3376 -0.0861  0.3706
  317SOL    HW1  950   0.375   2.597   2.985  2.1080  2.2321  0.9622
  317SOL    HW2  951   0.507   2.541   3.059 -0.7701 -1.7868 -0.8600
  318SOL     OW  952   2.459   2.575   0.954  0.6300 -0.0668 -0.1830
  318SOL    HW1  953   2.465   2.583   0.852  1.3433  1.4442  0.7736
  318SOL    HW2  954   2.386   2.631   0.990  1.6566 -2.6113 -1.1142
  319SOL     OW  955   1.006   1.961   2.868 -0.5601  0.3372 -0.0431
  319SOL    HW1  956   1.102   1.983   2.846  0.2503 -1.0719  0.4624
  319SOL    HW2  957   0.974   1.879   2.817  0.4828  2.7279  2.3643
  320SOL     OW  958   0.560   1.823   1.331  0.2042  0.3814 -0.3308
  320SOL    HW1  959   0.538   1.732   1.285 -2.0341  3.3109 -1.2930
  320SOL    HW2  960   0.481   1.863   1.377  1.6911 -0.7627  3.8147
  321SOL     OW  961   1.108   2.661   1.984 -0.1317  0.2979 -0.3231
  321SOL    HW1  962   1.009   2.681   1.980  1.3602 -0.3191  1.8786
  321SOL    HW2  963   1.164   2.746   1.959  1.0229  3.2397 -2.1803
  322SOL     OW  964   2.447   1.663   2.056 -0.2476 -0.4528  0.3944
  322SOL    HW1  965   2.438   1.585   2.121  0.6625 -1.1056  1.7471
  322SOL    HW2  966   2.544   1.685   2.061 -0.2847 -1.1673 -0.1037
  323SOL     OW  967   2.825   0.241   0.725 -0.2562  0.0816  0.5348
  323SOL    HW1  968   2.761   0.272   0.657  1.6546 -1.3483  3.7382
  323SOL    HW2  969   2.872   0.323   0.762 -1.1805 -2.9012 -1.5082
  324SOL     OW  970   2.792   2.714   2.598  0.2273  0.2640 -0.1480
  324SOL    HW1  971   2.768   2.709   2.696 -1.5827  1.4535 -3.0628
  324SOL    HW2  972   2.844   2.627   2.571 -0.2446 -1.9903 -1.4408
  325SOL     OW  973   1.135   0.288   2.731  0.0798  0.5069  0.2481
  325SOL    HW1  974   1.215   0.261   2.677 -0.8252  1.3576 -0.7254
  325SOL    HW2  975   1.044   0.262   2.691 -0.8794  1.4721 -0.1793
  326SOL     OW  976   2.273   2.505   1.733  0.3045 -0.2616  0.6934
  326SOL    HW1  977   2.280   2.598   1.779 -0.9737  1.7105  0.6042
  326SOL    HW2  978   2.208   2.515   1.653  0.3282  3.1903  2.3646
  327SOL     OW  979   2.023   0.118   0.333 -0.4717 -0.0831 -0.4535
  327SOL    HW1  980   2.102   0.177   0.345 -1.5804  0.3659  0.1562
  327SOL    HW2  981   2.054   0.029   0.297 -0.5716  1.8545  2.5093
  328SOL     OW  982   0.313   1.182   1.908 -0.2583 -0.6439 -1.0401
  328SOL    HW1  983   0.387   1.227   1.962 -1.6346  1.3665 -1.4841
  328SOL    HW2  984   0.220   1.224   1.922  0.7084  1.2987 -1.0467
  329SOL     OW  985   2.193   0.488   1.719  0.2081  0.3496 -0.2154
  329SOL    HW1  986   2.184   0.387   1.711  1.0609  0.4598  0.9223
  329SOL    HW2  987   2.265   0.503   1.789 -1.8412  2.1903  0.5613
  330SOL     OW  988   0.162   1.068   0.890  0.2040 -0.2923 -0.0198
  330SOL    HW1  989   0.180   1.149   0.954 -0.7181  0.9051 -0.7883
  330SOL    HW2  990   0.149   0.985   0.948  0.9427 -2.1859 -1.5294
  331SOL     OW  991   0.608   1.560   2.042 -0.7858 -0.1600  0.7350
  331SOL    HW1  992   0.704   1.554   2.028 -3.5490 -1.0775  0.7583
  331SOL    HW2  993   0.595   1.594   2.135  0.6992 -2.0787 -1.3438
  332SOL     OW  994   0.299   2.720   1.534 -0.3021  0.0989 -0.4714
  332SOL    HW1  995   0.222   2.755   1.478 -0.5822  2.3483  0.8146
  332SOL    HW2  996   0.330   2.628   1.511  0.6421  2.2663  3.1970
  333SOL     OW  997   2.402   0.184   0.957 -0.2758 -0.4605 -0.0292
  333SOL    HW1  998   2.476   0.217   1.016  0.6699 -0.3281 -2.1961
  333SOL    HW2  999   2.343   0.115   1.007  1.8334  1.7565  1.7071
  334SOL     OW 1000   0.308   1.415   0.804 -0.3454 -0.2921 -0.5297
  334SOL    HW1 1001   0.403   1.382   0.793 -2.1509 -1.2573  2.6826
  334SOL    HW2 1002   0.282   1.396   0.901 -1.8050  0.0845  0.8922
  335SOL     OW 1003   0.053   2.590   2.729 -0.0906 -0.2343 -0.2922
  335SOL    HW1 1004   0.065   2.694   2.716  0.6100  4.8081 -0.4001
  335SOL    HW2 1005   0.140   2.545   2.730 -0.9264  0.6472 -2.0334
  336SOL     OW 1006   2.940   2.865   2.232 -0.0040  0.1166  0.5061
  336SOL    HW1 1007   3.010   2.844   2.304 -0.1726  2.5763  4.5568
  336SOL    HW2 1008   2.941   2.965   2.223 -1.3018  0.7159 -1.0253
  337SOL     OW 1009   1.968   2.274   1.764 -0.5756 -0.2135 -0.2948
  337SOL    HW1 1010   1.938   2.185   1.736  1.4649  3.1497 -0.8401
  337SOL    HW2 1011   2.022   2.262   1.852  2.0202 -1.3121 -0.5832
  338SOL     OW 1012   0.880   0.117   2.913 -0.1560 -0.3423  0.4880
  338SOL    HW1 1013   0.903   0.035   2.975  0.0000 -3.2963  0.9121
  338SOL    HW2 1014   0.904   0.201   2.969  1.0503  3.3005 -0.1810
  339SOL     OW 1015   0.508   1.308   2.100  0.3799  0.4735 -0.0531
  339SOL    HW1 1016   0.472   1.342   2.186  3.0006  0.2046  0.3411
  339SOL    HW2 1017   0.584   1.367   2.068 -1.4208  1.8191  0.4900
  340SOL     OW 1018   1.777   0.071   1.016 -0.7545  0.1764 -0.5535
  340SOL    HW1 1019   1.876   0.075   1.043  0.9732 -1.2214  0.3935
  340SOL    HW2 1020   1.765   0.052   0.915 -0.8084 -0.2011 -3.2459
  341SOL     OW 1021   1.740   1.140   0.917 -0.0012 -0.2879  0.1573
  341SOL    HW1 1022   1.805   1.185   0.986  1.5218  2.4248 -0.1033
  341SOL    HW2 1023   1.682   1.214   0.869 -2.0283 -0.5451 -0.4388
  342SOL     OW 1024   2.439   2.749   0.023  0.0921  0.3466  0.8178
  342SOL    HW1 1025   2.399   2.841   0.012  3.6867 -0.7181 -0.3983
  342SOL    HW2 1026   2.463   2.730   0.121  0.1945 -1.1581  1.3236
  343SOL     OW 1027   0.831   2.291   1.441  0.4766 -0.1636 -0.2074
  343SOL    HW1 1028   0.802   2.315   1.539 -1.0066 -1.3859 -1.0207
  343SOL    HW2 1029   0.886   2.370   1.408  0.5371 -2.8958 -0.7388
  344SOL     OW 1030   2.491   2.529   1.351  0.2887  0.1951 -0.4165
  344SOL    HW1 1031   2.484   2.613   1.408 -0.4302  0.5641 -1.1892
  344SOL    HW2 1032   2.531   2.453   1.408  2.1442  3.0963 -3.6678
  345SOL     OW 1033   2.585   1.796   2.975 -0.0752  0.0061  0.1281
  345SOL    HW1 1034   2.613   1.831   2.885 -1.4620  0.0633  1.7878
  345SOL    HW2 1035   2.673   1.756   3.017 -0.5530 -0.7061  0.0035
  346SOL     OW 1036   2.184   1.935   0.701  0.1375  0.3106  0.5435
  346SOL    HW1 1037   2.253   1.875   0.661 -3.3947 -0.0146 -0.2984
  346SOL    HW2 1038   2.114   1.958   0.629 -0.7862  0.4273 -0.1887
  347SOL     OW 1039   1.643   1.897   0.951  0.1090 -0.0078 -0.0060
  347SOL    HW1 1040   1.711   1.863   0.887  0.2379 -1.0473  0.7770
  347SOL    HW2 1041   1.616   1.995   0.932  0.3856  0.8025 -1.7411
  348SOL     OW 1042   0.500   1.725   2.274  0.4315 -0.5067 -0.0250
  348SOL    HW1 1043   0.516   1.671   2.361 -1.1969  0.2088 -0.7518
  348SOL    HW2 1044   0.580   1.770   2.227 -0.5281 -0.3459 -2.8931
  349SOL     OW 1045   1.958   1.361   0.570 -0.2044 -0.2948 -0.1875
  349SOL    HW1 1046   2.006   1.280   0.609 -3.6461  1.1105 -1.6500
  349SOL    HW2 1047   1.858   1.346   0.575  2.5250 -4.2002  1.9815
  350SOL     OW 1048   2.793   2.512   0.656  0.2134 -0.3039 -0.2154
  350SOL    HW1 1049   2.749   2.448   0.726 -0.4170  0.8434  2.3416
  350SOL    HW2 1050   2.739   2.495   0.569 -1.8858 -1.1440 -0.9826
  351SOL     OW 1051   0.488   2.879   1.601  0.6931  0.0383  0.5159
  351SOL    HW1 1052   0.562   2.863   1.526 -2.2606  0.9418  0.6379
  351SOL    HW2 1053   0.408   2.819   1.577 -1.3129 -0.7766 -2.4074
  352SOL     OW 1054   0.376   1.364   1.324  0.2786  0.1364 -0.2636
  352SOL    HW1 1055   0.313   1.286   1.305 -2.1536  0.2613 -1.0801
  352SOL    HW2 1056   0.352   1.398   1.417 -1.7887 -4.0339 -1.5880
  353SOL     OW 1057   1.181   1.514   2.555  0.3353 -0.7610 -0.3855
  353SOL    HW1 1058   1.092   1.459   2.556 -2.5031 -1.3124 -2.0513
  353SOL    HW2 1059   1.266   1.475   2.594 -1.5640  1.8912  0.5761
  354SOL     OW 1060   1.478   3.037   1.864  0.1798 -0.2459 -0.3030
  354SOL    HW1 1061   1.429   3.001   1.784  0.0351 -1.2472  3.3937
  354SOL    HW2 1062   1.510   0.062   1.861 -0.1444 -0.1835  0.5359
  355SOL     OW 1063   2.389   1.141   0.588  0.2819  0.2605 -0.1425
  355SOL    HW1 1064   2.445   1.220   0.619 -0.7409  0.5688 -1.7388
  355SOL    HW2 1065   2.368   1.145   0.486 -1.2308 -0.1833  1.5183
  356SOL     OW 1066   2.858   1.685   1.467 -0.3553  0.1664 -0.4952
  356SOL    HW1 1067   2.771   1.736   1.500  0.1409 -1.7978 -1.2381
  356SOL    HW2 1068   2.929   1.753   1.475  0.2876 -0.9466 -0.7673
  357SOL     OW 1069   0.473   2.673   1.288  0.2989  0.8878 -0.0434
  357SOL    HW1 1070   0.419   2.601   1.334 -1.7979  1.3368 -1.5806
  357SOL    HW2 1071   0.443   2.680   1.192 -0.1531 -0.1680  0.7107
  358SOL     OW 1072   2.679   1.415   1.756  0.0025  0.0295 -0.2183
  358SOL    HW1 1073   2.710   1.393   1.661 -0.5613  3.0110 -1.3314
  358SOL    HW2 1074   2.620   1.500   1.765 -1.3133  0.3480 -0.9243
  359SOL     OW 1075   2.223   2.703   2.721  0.3229  0.2364 -0.4602
  359SOL    HW1 1076   2.242   2.678   2.625  0.1571  0.6985 -2.2622
  359SOL    HW2 1077   2.175   2.795   2.739 -0.6573  0.4304  2.1882
  360SOL     OW 1078   0.755   0.349   0.807 -0.0629  0.7474  0.1865
  360SOL    HW1 1079   0.834   0.413   0.822 -2.1959 -0.4003 -0.2200
  360SOL    HW2 1080   0.704   0.366   0.724  1.1200  0.6954  2.2856
  361SOL     OW 1081   2.008   0.293   0.834  0.4299  0.0443 -0.3357
  361SOL    HW1 1082   2.019   0.195   0.861  0.9728 -2.4528 -2.9143
  361SOL    HW2 1083   2.102   0.342   0.836  1.5426  0.4881  2.6103
  362SOL     OW 1084   1.857   1.292   1.105  0.2096 -0.0253  0.3285
  362SOL    HW1 1085   1.882   1.363   1.040 -3.0472  0.7859  2.2121
  362SOL    HW2 1086   1.935   1.281   1.170  2.2844  0.3604  0.2120
  363SOL     OW 1087   2.158   1.409   2.176 -0.1900  0.0026  0.6590
  363SOL    HW1 1088   2.258   1.419   2.193  0.5519 -0.9072  0.0316
  363SOL    HW2 1089   2.135   1.400   2.075  1.2377  1.7683 -0.0125
  364SOL     OW 1090   0.503   3.053   1.172  0.0424 -0.3026  0.2413
  364SOL    HW1 1091   0.450   0.051   1.223  1.8738 -0.1265 -0.4826
  364SOL    HW2 1092   0.450   2.971   1.143  4.0598  2.3652  0.3225
  365SOL     OW 1093   0.569   0.109   2.990 -0.5859 -0.4053  0.2447
  365SOL    HW1 1094   0.514   0.193   2.987  1.5278 -2.2066 -0.0890
  365SOL    HW2 1095   0.666   0.133   2.984  2.3540  0.1110  0.0521
  366SOL     OW 1096   1.980   2.355   3.018  0.3844  0.2838 -0.2077
  366SOL    HW1 1097   1.994   2.411   2.936  0.0815 -0.1043 -0.2874
  366SOL    HW2 1098   2.033   2.383   0.030  0.4846 -1.9995  1.9117
  367SOL     OW 1099   2.770   2.240   2.966  0.1954 -0.0080  0.3049
  367SOL    HW1 1100   2.704   2.292   3.020 -1.6106  0.7445 -0.0028
  367SOL    HW2 1101   2.861   2.222   3.017 -0.0851  0.8026 -0.7925
  368SOL     OW 1102   0.220   1.159   1.259  0.1521  0.4069 -0.0352
  368SOL    HW1 1103   0.120   1.143   1.278  2.2658  0.5571 -1.5605
  368SOL    HW2 1104   0.272   1.092   1.316 -0.2023  0.7192  1.2297
  369SOL     OW 1105   0.901   2.968   0.012  0.1306 -0.0774 -0.7302
  369SOL    HW1 1106   0.963   2.887   3.070  0.7348  0.7697 -0.1661
  369SOL    HW2 1107   0.945   3.030   0.081 -0.7102 -1.0435  2.4233
  370SOL     OW 1108   2.836   0.779   0.479 -0.0117  0.7484 -0.1639
  370SOL    HW1 1109   2.922   0.732   0.451  0.5160 -0.7959 -0.5811
  370SOL    HW2 1110   2.771   0.769   0.406 -2.0521 -2.8088  1.0394
  371SOL     OW 1111   1.732   2.376   0.663 -0.1832 -0.3653 -0.2460
  371SOL    HW1 1112   1.780   2.294   0.705 -1.9995  0.4634  1.3941
  371SOL    HW2 1113   1.665   2.338   0.603  0.9729  0.6836 -0.4568
  372SOL     OW 1114   3.051   0.972   2.790 -0.4293  0.2794 -0.3675
  372SOL    HW1 1115   3.068   0.872   2.818 -1.4272 -0.5423 -0.7369
  372SOL    HW2 1116   0.001   0.987   2.697  2.4091  1.6701  3.5946
  373SOL     OW 1117   2.866   1.501   1.281 -0.0955 -0.1144  0.5018
  373SOL    HW1 1118   2.832   1.580   1.338  1.2518  2.1416  0.2678
  373SOL    HW2 1119   2.964   1.500   1.281 -3.5818  2.0783 -0.1039
  374SOL     OW 1120   0.704   2.824   0.131 -0.5571  0.2474  0.3482
  374SOL    HW1 1121   0.624   2.858   0.083  0.7080  0.0140  1.0886
  374SOL    HW2 1122   0.784   2.879   0.093  0.2136  0.8610 -0.0519
  375SOL     OW 1123   0.189   3.071   2.999  0.2146  0.0625 -0.2567
  375SOL    HW1 1124   0.250   0.012   0.007 -0.6089 -1.4294 -2.4608
  375SOL    HW2 1125   0.131   2.987   3.007 -1.1838 -0.1669  0.1797
  376SOL     OW 1126   0.115   2.166   1.536 -0.2278  0.3919 -0.3447
  376SOL    HW1 1127   0.015   2.153   1.538  1.0044  0.3354  0.8414
  376SOL    HW2 1128   0.150   2.172   1.438  2.0157 -0.7628 -2.0059
  377SOL     OW 1129   1.638   2.414   2.549  0.6877 -0.2865 -0.0089
  377SOL    HW1 1130   1.684   2.325   2.532 -0.7589  1.4062  0.7929
  377SOL    HW2 1131   1.572   2.437   2.476 -2.1705 -1.9816 -0.2249
  378SOL     OW 1132   0.684   0.344   0.049 -0.1568  0.1556  0.1047
  378SOL    HW1 1133   0.671   0.362   3.022 -0.5461 -1.7781 -1.3726
  378SOL    HW2 1134   0.728   0.422   0.092  0.6975 -2.2062 -0.1453
  379SOL     OW 1135   0.582   0.984   0.450  0.2355  0.2404 -0.4010
  379SOL    HW1 1136   0.578   0.978   0.550 -1.7260 -0.7580 -2.9898
  379SOL    HW2 1137   0.631   1.068   0.429 -0.1589 -3.8094  2.6375
  380SOL     OW 1138   0.037   1.860   1.770 -0.4443  0.2542  0.1025
  380SOL    HW1 1139   0.080   1.766   1.758 -0.2079 -2.1234  0.9553
  380SOL    HW2 1140   0.094   1.906   1.841 -0.8176 -2.2981  0.4221
  381SOL     OW 1141   0.387   0.903   1.911  0.1394 -0.5756 -0.5681
  381SOL    HW1 1142   0.384   1.009   1.905 -2.1819  0.4906 -1.6575
  381SOL    HW2 1143   0.462   0.872   1.962 -3.6881 -0.1326  0.4828
  382SOL     OW 1144   2.383   2.040   0.267 -0.5838  0.0662  0.2123
  382SOL    HW1 1145   2.477   2.043   0.242 -0.9175  1.8712 -1.3296
  382SOL    HW2 1146   2.329   2.005   0.192 -0.5829  1.8849  1.0121
  383SOL     OW 1147   2.701   1.894   2.730 -0.3914 -0.2522  0.4907
  383SOL    HW1 1148   2.797   1.864   2.735 -0.5169 -2.0717  0.1427
  383SOL    HW2 1149   2.697   1.996   2.716  1.2258 -1.0439 -1.6517
  384SOL     OW 1150   0.399   2.360   2.589  0.1569 -0.5670  0.3424
  384SOL    HW1 1151   0.361   2.267   2.598  1.4459  0.0326  1.8919
  384SOL    HW2 1152   0.458   2.365   2.506 -1.6321  0.9500  0.6958
  385SOL     OW 1153   2.983   1.352   1.043  0.5177  0.3626 -0.2203
  385SOL    HW1 1154   2.933   1.427   1.089 -1.3467 -1.1430 -1.3100
  385SOL    HW2 1155   2.950   1.331   0.944  2.7944  0.2446 -1.8795
  386SOL     OW 1156   2.176   1.546   1.378  0.3856 -0.0150 -0.2172
  386SOL    HW1 1157   2.122   1.623   1.420 -0.9446  2.3234  1.7760
  386SOL    HW2 1158   2.227   1.579   1.297  0.0174  2.7735 -1.6595
  387SOL     OW 1159   2.618   1.211   1.942 -0.2341 -0.0331  0.0147
  387SOL    HW1 1160   2.520   1.180   1.918 -1.2509 -0.6573 -0.6861
  387SOL    HW2 1161   2.647   1.274   1.868 -0.7756 -1.5135  0.6529
  388SOL     OW 1162   2.669   1.325   2.178 -0.2341 -0.1151  0.2075
  388SOL    HW1 1163   2.684   1.251   2.249  1.5737 -0.4417  2.1562
  388SOL    HW2 1164   2.653   1.287   2.085 -2.6079 -1.7124 -0.6743
  389SOL     OW 1165   2.120   1.341   1.900 -0.3093  0.3735  0.2011
  389SOL    HW1 1166   2.025   1.304   1.914 -0.2023  1.7658 -0.6564
  389SOL    HW2 1167   2.188   1.279   1.857  0.5253  0.4102 -2.5995
  390SOL     OW 1168   1.810   2.737   0.451  0.2964  0.3312 -0.5642
  390SOL    HW1 1169   1.901   2.769   0.412  0.9578 -0.6381 -3.0990
  390SOL    HW2 1170   1.826   2.736   0.553  0.7989  0.9478  1.0955
  391SOL     OW 1171   2.420   1.946   0.966  0.0180 -0.3481  0.5291
  391SOL    HW1 1172   2.349   1.975   1.030 -0.0841  2.5379 -0.8061
  391SOL    HW2 1173   2.443   2.026   0.908 -0.7915  0.5806 -0.0083
  392SOL     OW 1174   2.993   2.654   1.014 -0.3070 -0.2522 -0.2534
  392SOL    HW1 1175   3.007   2.640   0.913  1.0090  0.4053 -3.3763
  392SOL    HW2 1176   3.065   2.716   1.055  1.1999  1.8079 -1.1637
  393SOL     OW 1177   1.774   1.984   2.864  0.1063 -0.0898 -0.0769
  393SOL    HW1 1178   1.871   1.999   2.900  3.9098 -0.6675  2.3290
  393SOL    HW2 1179   1.732   1.907   2.920  2.2816  1.1332 -0.5761
  394SOL     OW 1180   0.289   0.171   2.529 -0.1132 -0.2367 -0.2363
  394SOL    HW1 1181   0.226   0.098   2.485 -1.0786 -2.4736 -0.3077
  394SOL    HW2 1182   0.297   0.157   2.626 -1.2410 -0.5740 -5.8568
  395SOL     OW 1183   0.832   0.710   0.895 -0.0073  0.6320  0.0108
  395SOL    HW1 1184   0.925   0.731   0.940  1.4213 -2.1675  0.9563
  395SOL    HW2 1185   0.820   0.765   0.805  0.5309 -1.2294 -1.4843
  396SOL     OW 1186   1.236   0.877   0.392 -0.1357 -0.2590 -0.3091
  396SOL    HW1 1187   1.139   0.892   0.421  0.2262 -1.1451 -0.1901
  396SOL    HW2 1188   1.252   0.833   0.300  1.3622  1.6768 -2.2250
  397SOL     OW 1189   0.284   0.837   2.156 -0.8522  0.0074  0.2148
  397SOL    HW1 1190   0.350   0.892   2.098  1.1838  0.3245 -2.5560
  397SOL    HW2 1191   0.189   0.827   2.120 -0.6484  1.8700  2.2704
  398SOL     OW 1192   0.996   0.225   0.682  0.3052 -0.2865 -0.0481
  398SOL    HW1 1193   0.894   0.223   0.685 -0.5799  1.2483  1.1677
  398SOL    HW2 1194   1.016   0.190   0.589 -1.9527  1.9084 -0.0560
  399SOL     OW 1195   1.997   2.862   1.720 -0.1977 -0.4596 -0.3288
  399SOL    HW1 1196   1.939   2.803   1.780  0.3345 -1.5833  0.1409
  399SOL    HW2 1197   1.936   2.908   1.652 -2.1228  0.1534 -0.1209
  400SOL     OW 1198   1.026   1.719   2.078 -0.4269  0.2370  0.0847
  400SOL    HW1 1199   1.029   1.820   2.096 -0.1350  0.7390 -1.6103
  400SOL    HW2 1200   1.110   1.680   2.121  1.3419 -0.3404  0.2356
  401SOL     OW 1201   0.603   0.912   2.877  1.0637 -0.2263 -0.2368
  401SOL    HW1 1202   0.578   0.816   2.899 -0.0197 -0.6607  0.1520
  401SOL    HW2 1203   0.521   0.951   2.831 -0.4268  1.8662 -0.9417
  402SOL     OW 1204   2.823   1.942   1.188  0.0887  0.0041  0.4152
  402SOL    HW1 1205   2.765   1.983   1.261 -0.6352 -0.1847 -2.2034
  402SOL    HW2 1206   2.776   1.875   1.132  0.5210 -0.0264  1.2412
  403SOL     OW 1207   0.066   0.838   1.927 -0.3889 -0.2171  0.3226
  403SOL    HW1 1208   0.149   0.813   1.873 -0.7286  0.5964 -0.7079
  403SOL    HW2 1209   0.040   0.933   1.919  0.7489 -0.3639 -1.8264
  404SOL     OW 1210   0.119   2.571   1.730  0.8176  0.0320  0.4441
  404SOL    HW1 1211   0.190   2.619   1.675  2.1685 -1.8874 -0.0438
  404SOL    HW2 1212   0.031   2.559   1.677 -0.8012  0.4166 -0.0596
  405SOL     OW 1213   0.632   0.520   2.006  0.5791 -0.2594 -0.1452
  405SOL    HW1 1214   0.726   0.480   1.988 -0.3179  1.8940  0.2944
  405SOL    HW2 1215   0.607   0.490   2.101  0.4229  0.1294  2.5357
  406SOL     OW 1216   1.592   2.059   2.274  0.1246 -0.1236  0.1053
  406SOL    HW1 1217   1.671   2.111   2.306 -0.2514  0.0476 -0.1706
  406SOL    HW2 1218   1.616   1.974   2.221  0.8009  1.6104  0.1845
  407SOL     OW 1219   1.269   1.761   2.458  0.0214  0.5067  0.1313
  407SOL    HW1 1220   1.286   1.775   2.359 -1.2347 -2.1808  0.2511
  407SOL    HW2 1221   1.229   1.672   2.483  1.6619 -2.3405 -0.7193
  408SOL     OW 1222   1.122   0.120   2.334 -0.5179  0.1713 -0.0829
  408SOL    HW1 1223   1.053   0.136   2.258 -3.4773 -0.1313 -0.7697
  408SOL    HW2 1224   1.144   0.019   2.348  1.8160 -0.3226 -1.7909
  409SOL     OW 1225   0.385   2.021   0.287 -0.4243  0.5292  0.0774
  409SOL    HW1 1226   0.436   1.941   0.252 -0.1495  0.5657 -3.1118
  409SOL    HW2 1227   0.444   2.096   0.327  3.3387  1.1032 -0.7518
  410SOL     OW 1228   2.807   1.313   0.313  0.3232  0.4847  0.2222
  410SOL    HW1 1229   2.835   1.409   0.322 -0.5165 -1.2806 -3.8196
  410SOL    HW2 1230   2.738   1.313   0.234 -0.0940 -1.1723 -1.3120
  411SOL     OW 1231   2.783   0.093   0.947  0.2275  0.2658 -0.5698
  411SOL    HW1 1232   2.708   0.151   0.986  0.1354  0.9578 -2.5720
  411SOL    HW2 1233   2.813   0.145   0.864  1.4853  1.2795  0.4631
  412SOL     OW 1234   1.411   1.031   1.267  0.1077 -0.2677  0.4209
  412SOL    HW1 1235   1.440   1.036   1.169  5.3796 -1.4867 -0.2796
  412SOL    HW2 1236   1.437   1.113   1.324  0.3492  0.7212  0.1218
  413SOL     OW 1237   0.676   2.773   1.447  0.8376 -0.3625  0.0455
  413SOL    HW1 1238   0.767   2.788   1.397  0.6992 -0.7868 -0.3806
  413SOL    HW2 1239   0.607   2.727   1.384 -2.6059 -0.4187  2.7000
  414SOL     OW 1240   2.656   1.494   2.662  0.4282  0.0046 -0.2748
  414SOL    HW1 1241   2.598   1.561   2.617  2.1643 -0.2942 -0.3406
  414SOL    HW2 1242   2.680   1.513   2.758  0.8860 -1.2542  0.6676
  415SOL     OW 1243   0.232   2.373   2.891 -0.3217  0.0670  0.1631
  415SOL    HW1 1244   0.248   2.273   2.880  0.0194  0.0860  0.8386
  415SOL    HW2 1245   0.318   2.426   2.908  0.2467 -1.6789 -0.4779
  416SOL     OW 1246   1.826   0.003   0.486 -0.1361 -0.1067 -0.6223
  416SOL    HW1 1247   1.877   0.064   0.421  0.5232  1.1337  2.2442
  416SOL    HW2 1248   1.766   3.011   0.443  0.7780  1.5056  1.3507
  417SOL     OW 1249   0.336   0.602   1.039 -0.2678 -0.3966  0.2125
  417SOL    HW1 1250   0.390   0.669   0.990 -2.9818 -2.4186  2.0554
  417SOL    HW2 1251   0.343   0.514   0.990 -1.7458  2.2742  0.6771
  418SOL     OW 1252   2.471   0.486   1.416 -0.5573 -0.1812 -0.3191
  418SOL    HW1 1253   2.563   0.463   1.382 -3.2246  0.3842  2.1663
  418SOL    HW2 1254   2.403   0.412   1.401  0.2592 -1.7566 -0.0999
  419SOL     OW 1255   3.019   0.305   0.176  0.4562 -0.4828  0.7900
  419SOL    HW1 1256   0.010   0.377   0.155 -1.9671 -0.4406  0.4915
  419SOL    HW2 1257   2.966   0.328   0.262  2.2679 -1.0698  0.4633
  420SOL     OW 1258   0.209   1.372   1.541 -0.4551  0.4243  0.5175
  420SOL    HW1 1259   0.276   1.406   1.608 -1.6861  1.5538 -0.6039
  420SOL    HW2 1260   0.167   1.282   1.564 -2.0566 -1.2406  2.7798
  421SOL     OW 1261   1.275   2.889   0.700  0.0489  0.1135  0.1257
  421SOL    HW1 1262   1.338   2.812   0.692 -0.3608 -2.3317 -0.6262
  421SOL    HW2 1263   1.206   2.888   0.628  1.2113  1.5832 -0.5831
  422SOL     OW 1264   0.248   0.362   1.421  0.3351 -0.2801  0.3450
  422SOL    HW1 1265   0.174   0.408   1.479 -1.4806  2.2251  0.0842
  422SOL    HW2 1266   0.317   0.426   1.387 -1.8412  1.9349  0.0188
  423SOL     OW 1267   1.143   1.010   1.304 -0.6146  0.0983  0.0507
  423SOL    HW1 1268   1.244   1.005   1.294 -3.1893 -0.0913  0.0868
  423SOL    HW2 1269   1.089   0.973   1.228  0.6173 -0.4225 -0.4201
  424SOL     OW 1270   1.916   1.310   2.713 -0.3983 -0.2430  0.0266
  424SOL    HW1 1271   1.937   1.367   2.796 -0.2747  2.1275 -0.3000
  424SOL    HW2 1272   1.900   1.372   2.635 -2.4842 -0.7914 -1.0453
  425SOL     OW 1273   0.045   0.560   2.180 -0.4831  0.5669  0.1604
  425SOL    HW1 1274   0.051   0.474   2.236 -0.9082  2.9904 -1.5687
  425SOL    HW2 1275   3.041   0.607   2.219  1.5260 -3.4287  0.4465
  426SOL     OW 1276   0.290   2.767   2.985 -0.7770 -0.3726  0.2315
  426SOL    HW1 1277   0.356   2.841   3.010 -5.2688 -2.0095  0.1223
  426SOL    HW2 1278   0.259   2.778   2.890  1.8828 -0.0330 -3.5088
  427SOL     OW 1279   1.000   0.935   2.552 -0.4001  0.3343 -0.3911
  427SOL    HW1 1280   1.088   0.967   2.515  0.4537 -1.8426  0.2731
  427SOL    HW2 1281   0.959   1.016   2.605 -0.1116  0.5434  0.3621
  428SOL     OW 1282   2.466   1.152   1.668 -0.1141  0.0284 -0.0055
  428SOL    HW1 1283   2.519   1.118   1.585  2.0008  1.9421 -1.2912
  428SOL    HW2 1284   2.427   1.240   1.644 -1.7343 -1.2182  0.5979
  429SOL     OW 1285   2.422   2.640   0.679 -0.2973 -0.3418 -0.4421
  429SOL    HW1 1286   2.514   2.684   0.682  1.4781  0.3082  2.4298
  429SOL    HW2 1287   2.404   2.589   0.593  0.9891 -0.4627  3.6901
  430SOL     OW 1288   0.981   1.310   2.321  0.3456  0.1541 -0.1660
  430SOL    HW1 1289   0.898   1.260   2.297 -0.5182  2.7870 -0.6459
  430SOL    HW2 1290   0.980   1.332   2.422  1.5719 -0.6896 -0.9437
  431SOL     OW 1291   2.786   1.338   1.491 -0.1069 -0.1064  0.6293
  431SOL    HW1 1292   2.819   1.383   1.402  0.5147 -1.5318 -2.6973
  431SOL    HW2 1293   2.812   1.239   1.497  0.8153  0.1539  0.2615
  432SOL     OW 1294   1.257   2.711   2.268  0.1659 -0.5099  0.1396
  432SOL    HW1 1295   1.352   2.711   2.222  2.7482 -2.0033 -1.2933
  432SOL    HW2 1296   1.188   2.677   2.203  2.3502 -1.6309  0.6265
  433SOL     OW 1297   2.065   0.166   2.434 -0.7768 -0.1387  0.4751
  433SOL    HW1 1298   2.148   0.153   2.375  0.7958 -3.4205  0.3056
  433SOL    HW2 1299   1.983   0.182   2.379  2.2873  1.3342  1.0553
  434SOL     OW 1300   0.415   2.744   2.350 -0.1314 -0.0430 -0.4226
  434SOL    HW1 1301   0.368   2.670   2.404 -0.6694 -0.9333  0.9985
  434SOL    HW2 1302   0.408   2.733   2.246  0.4905  0.0158 -2.3699
  435SOL     OW 1303   2.980   2.584   0.372  0.4623  0.6587  0.4965
  435SOL    HW1 1304   2.952   2.672   0.418 -3.3956  1.4818 -2.6392
  435SOL    HW2 1305   2.897   2.532   0.346  0.0426  0.0631 -1.5877
  436SOL     OW 1306   0.799   0.730   1.918  0.5797 -0.3370 -0.2102
  436SOL    HW1 1307   0.710   0.717   1.968  0.9874  0.9595  0.7721
  436SOL    HW2 1308   0.787   0.713   1.818  3.0370  2.7543  0.9923
  437SOL     OW 1309   0.080   2.778   2.382  0.0008  0.5400 -0.1334
  437SOL    HW1 1310   0.131   2.722   2.450 -0.9167  1.0448 -0.4819
  437SOL    HW2 1311   0.102   2.739   2.287 -0.9363 -0.3933 -1.6990
  438SOL     OW 1312   0.626   1.309   1.648 -0.3029  0.0587  0.4558
  438SOL    HW1 1313   0.699   1.335   1.716 -1.1676 -0.3046 -1.2131
  438SOL    HW2 1314   0.658   1.275   1.558 -0.0698  1.9624 -0.5548
  439SOL     OW 1315   2.169   0.951   2.135 -0.6577  0.9187 -0.3616
  439SOL    HW1 1316   2.116   0.941   2.224 -2.5454  0.1193  0.8671
  439SOL    HW2 1317   2.237   1.028   2.146  0.8429  2.6086  0.8544
  440SOL     OW 1318   0.234   0.851   0.231 -0.1899 -0.2093 -0.5875
  440SOL    HW1 1319   0.264   0.793   0.153 -0.9689 -0.3882 -1.9637
  440SOL    HW2 1320   0.287   0.841   0.320  0.3387 -0.6923  0.5642
  441SOL     OW 1321   0.879   2.549   1.393 -0.1771 -0.3813 -0.5312
  441SOL    HW1 1322   0.979   2.557   1.408  0.6659 -0.1367  4.2004
  441SOL    HW2 1323   0.857   2.556   1.291  2.7419 -1.8300 -2.5537
  442SOL     OW 1324   2.535   1.345   0.650 -0.1016  0.2532  0.1576
  442SOL    HW1 1325   2.518   1.386   0.739  1.4026 -0.3242 -0.2176
  442SOL    HW2 1326   2.625   1.382   0.618 -0.4428  0.3846 -0.3917
  443SOL     OW 1327   2.646   1.856   2.353 -0.3146 -0.6251  0.2649
  443SOL    HW1 1328   2.599   1.948   2.371 -0.8388 -2.1071 -1.7537
  443SOL    HW2 1329   2.660   1.833   2.253  0.0593  1.2214 -0.2058
  444SOL     OW 1330   1.564   1.238   2.991 -0.3023  0.3514  0.1269
  444SOL    HW1 1331   1.594   1.331   3.025 -2.3850 -1.0688 -1.8692
  444SOL    HW2 1332   1.463   1.242   2.983  0.2993 -0.0015  0.8982
  445SOL     OW 1333   2.641   2.587   2.171  0.1480  0.4134  0.0464
  445SOL    HW1 1334   2.577   2.554   2.093 -0.6470 -1.5038 -0.2701
  445SOL    HW2 1335   2.718   2.640   2.134  2.4866  0.5184 -1.6908
  446SOL     OW 1336   0.369   1.026   1.426 -0.5212  0.0660 -0.1303
  446SOL    HW1 1337   0.367   0.925   1.455 -0.6007 -1.8535  1.4642
  446SOL    HW2 1338   0.390   1.087   1.507 -0.9743 -1.1599 -0.9309
  447SOL     OW 1339   0.800   1.422   0.893  0.7011 -0.6951 -0.3526
  447SOL    HW1 1340   0.889   1.378   0.907 -2.1828  1.5019 -2.4917
  447SOL    HW2 1341   0.809   1.518   0.864 -2.0994  1.4873  1.1352
  448SOL     OW 1342   1.205   1.180   1.524  0.2804 -0.2641  0.1998
  448SOL    HW1 1343   1.170   1.145   1.612  1.9892  0.5104 -3.3301
  448SOL    HW2 1344   1.179   1.115   1.445 -2.4704 -2.9395  0.6262
  449SOL     OW 1345   3.027   2.022   2.153  0.3285  0.7015 -0.4947
  449SOL    HW1 1346   3.067   2.116   2.149  0.0412 -2.6521  3.2845
  449SOL    HW2 1347   3.069   1.965   2.080  0.1078 -1.4014  1.1989
  450SOL     OW 1348   2.854   1.920   1.879  0.5496  0.3543  0.1896
  450SOL    HW1 1349   2.895   2.012   1.896  0.4959  0.2480  0.5949
  450SOL    HW2 1350   2.914   1.865   1.824 -2.5066  2.6974  1.3726
  451SOL     OW 1351   2.214   0.916   1.284  0.1061 -0.1991 -0.0087
  451SOL    HW1 1352   2.133   0.896   1.343  0.8241  3.5731 -0.1406
  451SOL    HW2 1353   2.271   0.833   1.278 -0.8994  3.6878  1.8679
  452SOL     OW 1354   0.528   1.044   1.144 -0.3892  0.3710 -0.3537
  452SOL    HW1 1355   0.520   1.088   1.236 -0.6959 -1.7630 -1.8687
  452SOL    HW2 1356   0.444   1.066   1.089 -0.8146 -0.9525  0.1174
  453SOL     OW 1357   0.789   1.577   1.303  0.1843  0.2348  0.0434
  453SOL    HW1 1358   0.709   1.558   1.243 -0.2421  0.5851 -2.6758
  453SOL    HW2 1359   0.850   1.648   1.258  1.3016 -0.9828 -0.1324
  454SOL     OW 1360   0.416   1.656   0.089 -0.0076 -0.0156 -0.3682
  454SOL    HW1 1361   0.441   1.747   0.055 -0.1377 -1.9917  3.1485
  454SOL    HW2 1362   0.365   1.602   0.020 -0.4276 -0.5969 -1.3344
  455SOL     OW 1363   1.825   0.922   0.786  0.4265  0.2638  0.5165
  455SOL    HW1 1364   1.831   0.843   0.853 -1.3788 -3.4260  1.7836
  455SOL    HW2 1365   1.815   1.007   0.838 -0.2460 -0.6629  0.4210
  456SOL     OW 1366   2.119   2.502   0.903  0.3708  0.0596 -0.1501
  456SOL    HW1 1367   2.161   2.587   0.869 -0.5519 -2.6165  0.6700
  456SOL    HW2 1368   2.144   2.415   0.855 -0.6979  2.4112 -0.6321
  457SOL     OW 1369   2.007   2.936   2.709 -0.3508 -0.2348 -0.1280
  457SOL    HW1 1370   1.942   3.014   2.722 -0.5341  0.4550  2.5433
  457SOL    HW2 1371   2.051   2.938   2.620 -0.6127  1.5566  5.0331
  458SOL     OW 1372   2.204   0.326   0.363 -0.2798 -0.5021 -0.2085
  458SOL    HW1 1373   2.273   0.359   0.295  0.2096  2.2561 -0.4037
  458SOL    HW2 1374   2.114   0.361   0.336  0.8687 -1.4380  2.3298
  459SOL     OW 1375   0.002   1.178   2.297 -0.0476  0.5786 -0.1942
  459SOL    HW1 1376   2.996   1.159   2.233 -1.6628  3.0149 -3.7128
  459SOL    HW2 1377   0.082   1.225   2.255  1.6299 -1.1489 -1.0672
  460SOL     OW 1378   0.266   0.720   3.057  0.2210 -0.1698  0.3420
  460SOL    HW1 1379   0.195   0.679   2.995 -1.6981 -1.0354 -0.8932
  460SOL    HW2 1380   0.363   0.689   3.032 -2.0108  0.3065 -1.4180
  461SOL     OW 1381   2.668   2.366   0.842  0.5747  0.1972 -0.0212
  461SOL    HW1 1382   2.683   2.423   0.922  1.5653 -2.9047 -2.2346
  461SOL    HW2 1383   2.693   2.271   0.867 -2.5560  2.5173 -1.0653
  462SOL     OW 1384   0.297   0.249   1.777 -0.3951  0.3078 -0.4710
  462SOL    HW1 1385   0.392   0.292   1.781 -2.3304  1.2100  0.5570
  462SOL    HW2 1386   0.311   0.164   1.725  1.9143  0.2264  0.7167
  463SOL     OW 1387   2.026   2.250   2.046 -0.2413  0.3364 -0.0226
  463SOL    HW1 1388   1.988   2.158   2.075 -1.1439 -0.4710 -0.2009
  463SOL    HW2 1389   1.968   2.328   2.078 -0.7612 -0.7425  0.4289
  464SOL     OW 1390   0.390   0.053   1.606  0.5511  0.1586 -0.4850
  464SOL    HW1 1391   0.478   0.102   1.592  1.0726 -0.3799 -1.0865
  464SOL    HW2 1392   0.415   3.028   1.614  1.2470  1.6327  2.3639
  465SOL     OW 1393   0.831   0.103   1.433 -0.2881 -0.1237 -0.4244
  465SOL    HW1 1394   0.933   0.111   1.444  1.3864 -0.1387  2.0835
  465SOL    HW2 1395   0.781   0.139   1.514  2.0296  1.2329  0.6276
  466SOL     OW 1396   1.399   1.882   1.791  0.3015 -0.1835  0.6254
  466SOL    HW1 1397   1.456   1.871   1.706 -0.2206 -1.3571  2.8914
  466SOL    HW2 1398   1.306   1.853   1.769  1.1857 -2.3164 -0.7116
  467SOL     OW 1399   0.172   1.741   1.347 -0.7285 -0.1483 -0.0768
  467SOL    HW1 1400   0.222   1.658   1.372  0.7417  2.6673  1.6456
  467SOL    HW2 1401   0.232   1.822   1.348 -0.6651  0.9963  0.9936
  468SOL     OW 1402   2.371   1.982   2.603  0.1595  0.4596  0.1230
  468SOL    HW1 1403   2.444   1.996   2.533  1.2191 -0.3000 -0.0930
  468SOL    HW2 1404   2.304   1.917   2.565 -0.5212  0.3068  1.8144
  469SOL     OW 1405   1.265   2.225   0.542  0.5241  0.2178  0.0171
  469SOL    HW1 1406   1.171   2.180   0.551 -0.8464  0.2155  0.7741
  469SOL    HW2 1407   1.274   2.256   0.446 -0.4871  1.9711  0.4650
  470SOL     OW 1408   2.271   1.590   0.988  0.3262 -0.0253  0.1243
  470SOL    HW1 1409   2.300   1.629   1.076 -1.4576 -0.9529 -5.2355
  470SOL    HW2 1410   2.356   1.554   0.939  1.4775 -1.3949 -1.4031
  471SOL     OW 1411   0.382   2.448   0.260  0.2672  0.1367  0.1280
  471SOL    HW1 1412   0.309   2.520   0.274 -1.1159  2.6843 -0.0522
  471SOL    HW2 1413   0.475   2.485   0.283  0.7276  0.8207  0.9976
  472SOL     OW 1414   2.718   1.759   2.077  0.2371  0.1016 -0.0154
  472SOL    HW1 1415   2.772   1.684   2.120 -0.0489  1.2470 -2.1419
  472SOL    HW2 1416   2.781   1.816   2.017  1.2524  0.6060  0.0857
  473SOL     OW 1417   1.308   0.064   0.811  0.1211  0.6029  0.6957
  473SOL    HW1 1418   1.372   0.112   0.743  0.1869 -0.2935 -1.6643
  473SOL    HW2 1419   1.272   3.052   0.765 -0.1618  1.5452 -2.4582
  474SOL     OW 1420   3.011   0.008   1.075 -0.3288  0.1020  0.2516
  474SOL    HW1 1421   2.928   0.038   1.017 -3.7484  1.9769 -2.0320
  474SOL    HW2 1422   3.067   0.088   1.103  2.1347  2.6453  1.3530
  475SOL     OW 1423   1.766   2.448   1.829 -0.0253  0.4639  0.7550
  475SOL    HW1 1424   1.833   2.374   1.805 -0.9092 -0.2950 -0.5334
  475SOL    HW2 1425   1.677   2.435   1.774 -2.3600  2.4767 -2.5270
  476SOL     OW 1426   0.403   0.373   0.868  0.2844 -0.3673  0.2741
  476SOL    HW1 1427   0.481   0.345   0.923  0.7308 -0.2450 -1.9096
  476SOL    HW2 1428   0.336   0.296   0.871 -2.6517  0.6619  0.4257
  477SOL     OW 1429   1.029   2.286   1.056 -0.9370  0.1914  0.6234
  477SOL    HW1 1430   0.939   2.322   1.022 -2.0807  1.0977  1.6991
  477SOL    HW2 1431   1.077   2.229   0.984 -1.2988 -0.5353 -0.4805
  478SOL     OW 1432   0.534   2.544   2.716 -0.0698 -0.6670  0.0100
  478SOL    HW1 1433   0.473   2.480   2.667 -0.8860 -0.4910  0.3888
  478SOL    HW2 1434   0.516   2.531   2.814  0.6041  0.7942 -0.7563
  479SOL     OW 1435   0.254   0.581   2.030  0.0799  0.0198 -0.4875
  479SOL    HW1 1436   0.169   0.580   2.090 -1.1607  0.8978  0.0334
  479SOL    HW2 1437   0.315   0.662   2.053  2.1356  0.4743 -1.3968
  480SOL     OW 1438   3.030   2.010   3.024 -0.3606 -0.4514 -0.4277
  480SOL    HW1 1439   3.018   2.096   0.001  3.4509 -0.9306 -0.4330
  480SOL    HW2 1440   0.058   1.980   3.030  0.5499 -0.7604 -0.6313
  481SOL     OW 1441   1.543   2.419   2.119 -0.2733 -0.1921  0.1928
  481SOL    HW1 1442   1.639   2.393   2.123 -2.3906  1.4412 -0.3820
  481SOL    HW2 1443   1.493   2.384   2.038 -3.1459 -2.7131 -0.1606
  482SOL     OW 1444   1.455   2.038   2.767  0.2132  0.5696 -0.2476
  482SOL    HW1 1445   1.533   2.069   2.820 -3.2743 -1.9650 -3.9751
  482SOL    HW2 1446   1.447   2.094   2.687  0.9636  0.4044  1.3901
  483SOL     OW 1447   0.820   2.533   2.773 -0.5152  0.3859 -0.3351
  483SOL    HW1 1448   0.734   2.587   2.760 -3.1309 -0.3001 -1.0571
  483SOL    HW2 1449   0.855   2.497   2.686 -0.6339 -1.6037 -0.6969
  484SOL     OW 1450   0.088   0.017   0.698 -0.0979 -0.1318 -0.7358
  484SOL    HW1 1451   3.071   0.007   0.656 -0.6155  1.2074 -1.1221
  484SOL    HW2 1452   0.125   2.996   0.728  0.7559 -4.0389 -1.4168
  485SOL     OW 1453   1.628   0.812   0.631  0.4014  0.1984  0.0201
  485SOL    HW1 1454   1.706   0.844   0.692  1.0110  1.6352  1.4295
  485SOL    HW2 1455   1.644   0.711   0.612  1.4217 -0.2329  0.0115
  486SOL     OW 1456   1.943   2.663   2.173 -0.7118 -0.5650  0.0196
  486SOL    HW1 1457   2.039   2.693   2.147  1.6669  2.3640 -0.9562
  486SOL    HW2 1458   1.925   2.684   2.269  2.5455 -1.0612  2.5857
  487SOL     OW 1459   1.844   2.195   0.816  0.1044 -0.2521  0.1645
  487SOL    HW1 1460   1.751   2.172   0.854  0.4009 -0.5299 -2.3328
  487SOL    HW2 1461   1.920   2.146   0.858 -1.8530  2.0749 -1.4083
  488SOL     OW 1462   1.667   0.802   0.079 -0.0905 -0.4455  0.3045
  488SOL    HW1 1463   1.652   0.772   0.175  2.4801  0.5258  2.0877
  488SOL    HW2 1464   1.767   0.784   0.058  0.7485 -0.8690  0.7361
  489SOL     OW 1465   2.403   0.037   0.605  0.7898 -0.2733 -0.5903
  489SOL    HW1 1466   2.473   0.007   0.678  2.2852  1.6236  2.4742
  489SOL    HW2 1467   2.393   0.139   0.613  0.2667  3.3286  2.6806
  490SOL     OW 1468   1.411   2.717   2.839 -0.0926 -0.0046 -0.2243
  490SOL    HW1 1469   1.331   2.770   2.860  5.0065  1.6579  0.0874
  490SOL    HW2 1470   1.491   2.783   2.827 -0.6618 -0.1266 -1.3462
  491SOL     OW 1471   0.850   0.530   1.106  0.5997 -0.3667 -0.2074
  491SOL    HW1 1472   0.853   0.563   1.009  0.6210  1.4485  0.1133
  491SOL    HW2 1473   0.905   0.446   1.117  2.2919 -0.2116 -0.6780
  492SOL     OW 1474   1.615   0.553   0.241 -0.1036  0.2112 -0.2404
  492SOL    HW1 1475   1.636   0.487   0.163 -3.0388  2.0272 -1.2058
  492SOL    HW2 1476   1.701   0.577   0.293  0.2853 -1.6340 -1.6473
  493SOL     OW 1477   2.032   2.085   2.959 -0.0257  0.6522 -0.1102
  493SOL    HW1 1478   2.001   2.178   2.985 -0.7534  0.1023 -2.3646
  493SOL    HW2 1479   2.096   2.048   3.023 -1.4150  2.3558 -1.7873
  494SOL     OW 1480   0.333   1.082   0.693  0.1416 -0.1297  0.5747
  494SOL    HW1 1481   0.275   1.108   0.616 -1.9740 -0.5445  1.3713
  494SOL    HW2 1482   0.276   1.080   0.782 -2.0016  0.6752  4.0357
  495SOL     OW 1483   0.068   0.019   1.501 -0.5410  0.4026  0.1027
  495SOL    HW1 1484   0.146   0.063   1.452 -0.3634 -1.0650 -0.3567
  495SOL    HW2 1485   0.048   0.047   1.591  1.0750 -0.2265 -2.4513
  496SOL     OW 1486   2.843   2.808   1.783  0.0233  0.2099 -0.7286
  496SOL    HW1 1487   2.849   2.812   1.682  0.2705 -0.8410  2.7194
  496SOL    HW2 1488   2.816   2.899   1.823 -0.7366  0.5569  2.2592
  497SOL     OW 1489   1.474   1.778   2.666  0.4818 -0.2558  0.5955
  497SOL    HW1 1490   1.455   1.864   2.720  1.4234 -3.0947  1.7590
  497SOL    HW2 1491   1.410   1.775   2.590  2.5387  0.7647  0.7393
  498SOL     OW 1492   0.442   1.943   0.830  0.2385  0.0401 -0.5756
  498SOL    HW1 1493   0.411   1.877   0.756 -1.9982 -0.1971  1.3016
  498SOL    HW2 1494   0.377   1.934   0.907  1.8029  1.3735 -1.3824
  499SOL     OW 1495   0.064   1.426   1.305 -0.3655  0.1876  0.1897
  499SOL    HW1 1496   0.106   1.418   1.394 -2.2745  1.0746 -0.9550
  499SOL    HW2 1497   0.061   1.340   1.259  1.4040  0.1190  2.6661
  500SOL     OW 1498   1.394   2.559   0.381  0.0193 -0.2349 -0.0375
  500SOL    HW1 1499   1.406   2.468   0.341 -2.0227  1.8033 -1.2156
  500SOL    HW2 1500   1.427   2.629   0.320 -1.3808 -0.0699  1.4544
  501SOL     OW 1501   2.105   2.252   1.073 -0.3382 -0.3797 -0.0008
  501SOL    HW1 1502   2.163   2.321   1.114 -1.0166 -0.0052  0.2871
  501SOL    HW2 1503   2.120   2.244   0.972 -2.9917  2.7074  1.1370
  502SOL     OW 1504   0.128   0.865   1.569 -0.3762  0.0015  0.0813
  502SOL    HW1 1505   0.095   0.884   1.472  0.2459  1.9186 -1.1525
  502SOL    HW2 1506   0.213   0.818   1.558 -1.2244 -1.9416  0.6706
  503SOL     OW 1507   2.561   3.025   1.640  0.1424 -0.1189 -0.4456
  503SOL    HW1 1508   2.513   3.017   1.728  1.2586  0.7589 -0.8672
  503SOL    HW2 1509   2.661   3.027   1.662 -0.9194  0.2252  0.3220
  504SOL     OW 1510   1.839   0.727   1.945 -0.0431 -0.6039 -0.2042
  504SOL    HW1 1511   1.796   0.814   1.911  0.2967 -2.5155 -0.9750
  504SOL    HW2 1512   1.940   0.736   1.948 -2.6712 -1.1093 -0.6167
  505SOL     OW 1513   1.180   2.939   2.371 -0.0485 -0.1385  0.0901
  505SOL    HW1 1514   1.125   2.912   2.451  1.7049  0.8220 -0.1393
  505SOL    HW2 1515   1.214   2.857   2.324  0.7199  0.9034 -1.7097
  506SOL     OW 1516   0.535   0.410   1.787  0.0775 -0.5917  0.1507
  506SOL    HW1 1517   0.566   0.432   1.882 -1.6562 -0.7622  2.7515
  506SOL    HW2 1518   0.494   0.492   1.748  1.7597 -1.9103 -2.6924
  507SOL     OW 1519   1.568   0.012   2.959 -0.5803  0.5207  0.2092
  507SOL    HW1 1520   1.552   0.108   2.935  0.2409 -4.1785 -1.6588
  507SOL    HW2 1521   1.622   0.008   3.043 -0.7900 -1.6229  0.4914
  508SOL     OW 1522   2.479   0.520   2.490  0.3516 -0.1178  1.0485
  508SOL    HW1 1523   2.456   0.586   2.564 -1.5119 -1.3392 -0.6748
  508SOL    HW2 1524   2.451   0.556   2.398  0.0191  1.8936 -0.6913
  509SOL     OW 1525   0.889   1.516   1.966 -0.3207 -0.1019 -0.6227
  509SOL    HW1 1526   0.968   1.576   1.993  0.5264  2.3024 -2.3027
  509SOL    HW2 1527   0.854   1.534   1.875 -1.4050  1.0176  3.1455
  510SOL     OW 1528   2.969   0.740   0.889 -0.1894 -0.2348 -0.0279
  510SOL    HW1 1529   3.000   0.700   0.802 -2.3668  0.1306  1.9662
  510SOL    HW2 1530   2.887   0.799   0.879 -0.4991  0.3041  0.0371
  511SOL     OW 1531   1.636   1.622   0.785  0.0930 -0.3372 -0.5595
  511SOL    HW1 1532   1.568   1.647   0.857  1.9291  1.4426  0.1213
  511SOL    HW2 1533   1.686   1.701   0.750 -0.5252 -0.6591  0.5128
  512SOL     OW 1534   0.663   1.451   0.276 -0.3573  0.0621  0.1963
  512SOL    HW1 1535   0.570   1.486   0.296 -3.0435  0.3555  0.4540
  512SOL    HW2 1536   0.701   1.390   0.346 -1.3998 -3.8732  0.0833
  513SOL     OW 1537   0.231   2.593   0.658 -0.0058  0.2613  0.5371
  513SOL    HW1 1538   0.330   2.610   0.657 -1.8553 -0.7289  0.5329
  513SOL    HW2 1539   0.215   2.503   0.606  0.7872 -0.1465  0.9328
  514SOL     OW 1540   0.224   1.928   3.070  0.0894 -0.2543 -0.0169
  514SOL    HW1 1541   0.322   1.936   0.023  1.6880 -1.3451  1.4660
  514SOL    HW2 1542   0.192   1.834   0.019 -0.5005 -2.7706 -0.8629
  515SOL     OW 1543   2.454   0.588   0.360 -0.2898  0.6190 -0.0707
  515SOL    HW1 1544   2.388   0.564   0.439 -0.9946  0.8485  2.7769
  515SOL    HW2 1545   2.431   0.680   0.330 -0.7805 -0.4610  0.2225
  516SOL     OW 1546   2.304   2.765   1.064  0.1575 -0.0723 -0.2000
  516SOL    HW1 1547   2.234   2.775   1.138 -0.1992  0.2486  0.2920
  516SOL    HW2 1548   2.259   2.777   0.977  0.8749 -1.9440  2.9111
  517SOL     OW 1549   1.349   1.695   3.013 -0.8978 -0.1662 -0.0847
  517SOL    HW1 1550   1.404   1.645   0.014  0.0343 -1.4482  2.5218
  517SOL    HW2 1551   1.277   1.758   3.037 -1.0718 -0.7378  0.4328
  518SOL     OW 1552   1.402   0.406   1.603 -0.7341 -0.2418  0.8086
  518SOL    HW1 1553   1.419   0.421   1.502  0.0455 -1.1441  0.0017
  518SOL    HW2 1554   1.327   0.468   1.633  4.7974 -0.6632 -0.4980
  519SOL     OW 1555   2.938   1.962   0.746  0.6298  0.0258 -0.3211
  519SOL    HW1 1556   3.027   1.975   0.795  1.9556 -0.1585  0.3584
  519SOL    HW2 1557   2.926   2.045   0.685 -0.7183  2.6825  2.7469
  520SOL     OW 1558   2.380   2.267   1.782 -0.4970  0.0953 -0.5025
  520SOL    HW1 1559   2.330   2.240   1.865 -3.0448  0.3196  3.4823
  520SOL    HW2 1560   2.350   2.361   1.754 -1.0927 -0.7511  0.0702
  521SOL     OW 1561   1.066   2.797   2.577  0.0106  0.5943 -0.2314
  521SOL    HW1 1562   1.111   2.711   2.544  2.0928 -3.3919 -2.2675
  521SOL    HW2 1563   1.034   2.783   2.673  0.8737 -0.1144  0.0347
  522SOL     OW 1564   2.689   0.323   2.173 -0.4850 -0.5542  0.3954
  522SOL    HW1 1565   2.764   0.322   2.105  0.3855  0.6840  0.4239
  522SOL    HW2 1566   2.709   0.265   2.252  0.8156  0.5515 -0.0076
  523SOL     OW 1567   1.293   2.159   1.611 -0.1615  0.4554  0.1501
  523SOL    HW1 1568   1.383   2.142   1.657 -0.4616 -1.5699  0.2296
  523SOL    HW2 1569   1.292   2.122   1.516 -1.5460 -0.7734  0.5627
  524SOL     OW 1570   1.890   1.888   0.112  0.3542 -0.2824  0.0855
  524SOL    HW1 1571   1.799   1.924   0.147 -0.4190 -0.1389  1.4180
  524SOL    HW2 1572   1.962   1.924   0.165 -2.7108  0.0242  0.8197
  525SOL     OW 1573   0.010   0.663   0.386  0.4476  0.1829  0.1640
  525SOL    HW1 1574   0.075   0.740   0.405 -2.1186 -1.6507  0.2412
  525SOL    HW2 1575   0.042   0.607   0.310 -0.5033 -0.3142  0.0286
  526SOL     OW 1576   1.132   2.766   1.183  0.1047  0.2295 -0.3008
  526SOL    HW1 1577   1.188   2.846   1.158 -2.0807 -0.2256  1.5132
  526SOL    HW2 1578   1.153   2.684   1.123  0.9555 -0.0677 -0.5910
  527SOL     OW 1579   2.780   1.469   0.584  0.0367 -0.1455 -0.1150
  527SOL    HW1 1580   2.784   1.562   0.556 -1.0176 -0.9109 -2.2786
  527SOL    HW2 1581   2.796   1.406   0.504 -0.4325 -2.6091  1.5341
  528SOL     OW 1582   0.601   0.751   2.362 -0.2501  0.4719  0.3288
  528SOL    HW1 1583   0.586   0.844   2.401 -0.2131  0.8029 -2.1854
  528SOL    HW2 1584   0.519   0.695   2.363  5.1715  2.1958  2.3438
  529SOL     OW 1585   0.907   1.701   2.795  0.1238 -0.0306  0.6611
  529SOL    HW1 1586   1.009   1.690   2.804  0.0650  0.5655  1.4965
  529SOL    HW2 1587   0.883   1.704   2.696 -0.8184  1.5443 -4.5127
  530SOL     OW 1588   1.458   1.380   2.215  0.0735 -0.4433  0.1372
  530SOL    HW1 1589   1.357   1.367   2.185 -0.4342  0.6986 -1.5770
  530SOL    HW2 1590   1.488   1.311   2.285 -2.2682  1.1792  1.0891
  531SOL     OW 1591   0.664   2.322   2.915 -0.3239  0.5585 -0.1366
  531SOL    HW1 1592   0.592   2.349   2.983 -2.5080 -0.4510 -0.3384
  531SOL    HW2 1593   0.717   2.402   2.878 -0.5473 -0.9360  3.1036
  532SOL     OW 1594   2.344   0.811   0.263  0.4386 -0.4959  0.6353
  532SOL    HW1 1595   2.335   0.834   0.163  0.8318  2.6364 -1.4725
  532SOL    HW2 1596   2.246   0.800   0.293 -0.0082  2.0008  2.6711
  533SOL     OW 1597   0.064   0.330   1.658  0.5825  0.4901 -0.5656
  533SOL    HW1 1598   0.161   0.340   1.685 -0.2846  1.3884  1.0340
  533SOL    HW2 1599   0.006   0.394   1.714  0.6545  3.4425 -0.6819
  534SOL     OW 1600   1.512   0.298   2.881  0.5571 -0.3965  0.0983
  534SOL    HW1 1601   1.437   0.354   2.922  0.2513  1.1868  0.2482
  534SOL    HW2 1602   1.516   0.317   2.781 -0.2897 -1.4352 -2.6929
  535SOL     OW 1603   0.791   0.148   0.340  0.2057  0.2170  0.6152
  535SOL    HW1 1604   0.882   0.137   0.386  0.0087 -2.0544  2.0852
  535SOL    HW2 1605   0.806   0.190   0.247  0.0156  0.7350 -1.8848
  536SOL     OW 1606   0.366   1.579   1.951 -0.2654 -0.2534  0.5043
  536SOL    HW1 1607   0.314   1.644   2.003  1.0754 -2.4019 -3.3307
  536SOL    HW2 1608   0.461   1.573   1.990  0.4025 -1.7843  1.3801
  537SOL     OW 1609   0.384   2.456   1.897  0.1527 -0.4317 -0.2837
  537SOL    HW1 1610   0.313   2.437   1.818 -2.0647 -1.1549 -1.1921
  537SOL    HW2 1611   0.370   2.398   1.980 -0.4228 -0.8146  0.7261
  538SOL     OW 1612   3.013   1.846   0.245 -0.2009  0.4452  0.2463
  538SOL    HW1 1613   3.066   1.821   0.158  0.7821 -0.9197 -2.3352
  538SOL    HW2 1614   0.001   1.843   0.327 -1.6684  2.6311 -1.8954
  539SOL     OW 1615   2.571   0.468   2.859 -0.3441 -0.0450 -0.9739
  539SOL    HW1 1616   2.533   0.377   2.865 -0.1254  2.8020 -3.1394
  539SOL    HW2 1617   2.671   0.466   2.880  1.4550  0.1114 -0.0260
  540SOL     OW 1618   1.467   0.939   2.453 -0.2098 -0.2552  0.0647
  540SOL    HW1 1619   1.512   0.886   2.526  0.4934  0.0411 -0.5389
  540SOL    HW2 1620   1.376   0.981   2.472 -0.7503  0.2210 -0.0562
  541SOL     OW 1621   0.979   0.249   1.788  0.6167 -0.0408  0.1739
  541SOL    HW1 1622   0.917   0.167   1.814 -3.4092  1.0612  2.4727
  541SOL    HW2 1623   0.950   0.327   1.846 -1.3397  0.9870  0.7106
  542SOL     OW 1624   1.889   2.504   2.569  0.0517 -0.0654  0.4600
  542SOL    HW1 1625   1.796   2.475   2.554 -0.9256  1.8656  0.1794
  542SOL    HW2 1626   1.913   2.580   2.501 -2.3637  1.6793 -0.4577
  543SOL     OW 1627   0.562   2.804   0.864 -0.9823  0.2415  0.3211
  543SOL    HW1 1628   0.615   2.788   0.946 -3.7616 -0.9090  0.2567
  543SOL    HW2 1629   0.576   2.900   0.828 -0.2966 -2.6162  0.0357
  544SOL     OW 1630   2.867   1.509   2.187  0.5058  0.0493 -0.3902
  544SOL    HW1 1631   2.802   1.436   2.161 -1.4873 -0.0472 -0.2455
  544SOL    HW2 1632   2.838   1.547   2.278  0.5443 -0.4627 -1.1039
  545SOL     OW 1633   1.972   1.909   1.318 -0.2477 -0.1228  0.0730
  545SOL    HW1 1634   1.954   2.005   1.352  0.2218  1.7575  0.6915
  545SOL    HW2 1635   1.959   1.898   1.214  0.7928 -3.2787 -0.6255
  546SOL     OW 1636   0.394   0.187   2.280 -0.2186  0.1537  0.1296
  546SOL    HW1 1637   0.319   0.151   2.219 -0.4067  2.5665  2.1975
  546SOL    HW2 1638   0.364   0.182   2.378  1.1323  1.5405  0.6414
  547SOL     OW 1639   1.222   0.499   0.964  0.0744 -0.2464  0.3514
  547SOL    HW1 1640   1.182   0.545   1.047  0.3724 -2.3806  1.3280
  547SOL    HW2 1641   1.277   0.562   0.907 -2.1132 -0.8454  0.8285
  548SOL     OW 1642   1.211   2.345   2.730 -0.0797 -0.0931  0.5724
  548SOL    HW1 1643   1.206   2.245   2.707 -0.9751  1.0178 -3.5268
  548SOL    HW2 1644   1.308   2.380   2.722  0.8323  0.1447 -2.8490
  549SOL     OW 1645   2.153   0.662   2.753 -0.2464 -0.2169  0.3578
  549SOL    HW1 1646   2.238   0.713   2.771 -1.7846 -0.6700 -2.7657
  549SOL    HW2 1647   2.136   0.657   2.652  0.4604  1.4148 -1.3927
  550SOL     OW 1648   2.639   1.918   0.405 -0.1284 -0.2515  0.2523
  550SOL    HW1 1649   2.566   1.857   0.368  3.0654  0.2168 -3.6081
  550SOL    HW2 1650   2.712   1.937   0.337  3.2533  0.5116 -0.2335
  551SOL     OW 1651   1.204   2.953   1.991  0.1919  0.5358 -0.1518
  551SOL    HW1 1652   1.207   3.027   1.925 -0.6462  0.2286  0.7995
  551SOL    HW2 1653   1.284   2.966   2.052 -0.8032  2.5137 -1.5259
  552SOL     OW 1654   2.980   2.195   2.575  0.1750 -0.1269 -0.1134
  552SOL    HW1 1655   2.926   2.142   2.506  0.1160  0.7207  0.3103
  552SOL    HW2 1656   2.928   2.193   2.663  1.3380 -0.7110  0.3957
  553SOL     OW 1657   0.269   2.567   1.095 -0.2082 -0.3801  0.1251
  553SOL    HW1 1658   0.273   2.488   1.028  0.5704 -1.3778 -0.5424
  553SOL    HW2 1659   0.222   2.542   1.180 -0.6519  2.7191  0.0971
  554SOL     OW 1660   2.305   1.817   1.686 -0.0718  0.4081  0.4101
  554SOL    HW1 1661   2.302   1.823   1.788 -0.7694  0.6819 -1.4294
  554SOL    HW2 1662   2.303   1.910   1.645 -1.0315  2.2519 -1.2865
  555SOL     OW 1663   1.516   2.137   1.875  0.3046 -0.1050 -0.7357
  555SOL    HW1 1664   1.469   2.049   1.886  0.4804  1.7552  0.9784
  555SOL    HW2 1665   1.451   2.214   1.887  0.1346  1.3024 -0.7121
  556SOL     OW 1666   1.502   1.620   1.036  0.3476 -0.1730 -0.1875
  556SOL    HW1 1667   1.447   1.544   1.071  0.0866  2.1609  1.5555
  556SOL    HW2 1668   1.583   1.625   1.091 -2.3972  1.6339  0.0808
  557SOL     OW 1669   1.397   2.942   1.605 -0.6684 -0.2568  0.3772
  557SOL    HW1 1670   1.400   3.043   1.596  0.5926  1.0082 -0.3286
  557SOL    HW2 1671   1.302   2.916   1.589  1.0760  1.9285 -0.3757
  558SOL     OW 1672   0.546   0.118   1.962  0.2746  0.0779  0.2978
  558SOL    HW1 1673   0.560   0.102   2.064  0.5284  1.3253  2.6387
  558SOL    HW2 1674   0.503   0.209   1.946 -0.5082 -0.1210  1.3215
  559SOL     OW 1675   2.175   2.983   0.543  0.1506  0.1572  0.0190
  559SOL    HW1 1676   2.261   3.031   0.569 -0.8000  1.0135 -0.8791
  559SOL    HW2 1677   2.103   2.990   0.617 -1.3114 -1.0349  0.2028
  560SOL     OW 1678   1.444   2.668   0.652  0.1300 -0.0773  0.0082
  560SOL    HW1 1679   1.409   2.622   0.569  2.7955  2.2799  4.1625
  560SOL    HW2 1680   1.493   2.602   0.709 -0.0975  2.6584  0.2256
  561SOL     OW 1681   1.110   0.367   0.378 -0.6199  0.0738  0.3516
  561SOL    HW1 1682   1.088   0.392   0.284 -1.6102 -0.8808 -0.6253
  561SOL    HW2 1683   1.054   0.417   0.447  0.2093 -2.9831  1.6061
  562SOL     OW 1684   0.437   1.354   2.375 -0.1911 -0.1212 -0.1594
  562SOL    HW1 1685   0.423   1.266   2.428 -1.0441 -1.4106  0.2009
  562SOL    HW2 1686   0.514   1.407   2.414 -0.0003 -3.1102  0.8918
  563SOL     OW 1687   1.431   2.164   2.501  0.0899 -0.2536  0.1129
  563SOL    HW1 1688   1.453   2.258   2.468  1.1430 -0.6909 -1.0689
  563SOL    HW2 1689   1.489   2.096   2.448 -0.8686 -2.2689  1.5721
  564SOL     OW 1690   2.755   0.947   0.886 -0.8981 -0.1501 -0.3945
  564SOL    HW1 1691   2.718   1.027   0.939 -1.8242 -0.1315  1.8647
  564SOL    HW2 1692   2.780   0.980   0.793 -0.0695 -0.5209 -0.3706
  565SOL     OW 1693   0.625   0.897   0.071  0.3641 -0.0941 -0.4688
  565SOL    HW1 1694   0.631   0.899   3.040 -1.1144 -2.0108 -1.0925
  565SOL    HW2 1695   0.646   0.802   0.104 -0.6959  0.1769 -1.6272
  566SOL     OW 1696   2.428   2.939   2.686 -0.3598  0.4643  0.1027
  566SOL    HW1 1697   2.389   3.031   2.669 -0.5478 -0.8519 -0.0775
  566SOL    HW2 1698   2.367   2.872   2.739  0.4257  1.3219  0.7657
  567SOL     OW 1699   1.500   1.037   1.027  0.1587 -0.1600 -0.0433
  567SOL    HW1 1700   1.438   1.087   0.965 -2.3840 -0.7097  0.9782
  567SOL    HW2 1701   1.597   1.064   1.017 -1.9516 -0.0307 -2.5275
  568SOL     OW 1702   1.675   1.629   2.760 -0.0883 -0.2494 -0.7787
  568SOL    HW1 1703   1.589   1.670   2.721  0.8916 -1.4933  1.5589
  568SOL    HW2 1704   1.667   1.622   2.865 -1.0597  1.4741 -0.0781
  569SOL     OW 1705   2.102   1.332   0.009 -0.8114 -0.5686  0.4616
  569SOL    HW1 1706   2.192   1.291   3.066 -1.5770  0.2873  0.6234
  569SOL    HW2 1707   2.096   1.377   0.099  0.1607 -0.9417 -1.7281
  570SOL     OW 1708   0.084   2.332   1.873  0.3650  0.5367 -0.3939
  570SOL    HW1 1709   0.089   2.421   1.822  2.0943 -2.3108  1.2705
  570SOL    HW2 1710   0.153   2.274   1.832 -3.0527  1.2894  0.6158
  571SOL     OW 1711   2.645   1.826   1.513  0.1730  0.2100  0.0234
  571SOL    HW1 1712   2.662   1.919   1.470 -0.7259 -2.0255 -0.6037
  571SOL    HW2 1713   2.635   1.823   1.618 -1.3321 -1.5144 -2.5275
  572SOL     OW 1714   1.619   1.942   0.167 -0.1930  0.2410 -0.3545
  572SOL    HW1 1715   1.590   2.037   0.176  0.5171  0.9564  1.9136
  572SOL    HW2 1716   1.551   1.889   0.222  3.3859  1.1501  0.0932
  573SOL     OW 1717   1.622   2.302   0.432  0.6766 -0.5576 -0.2453
  573SOL    HW1 1718   1.526   2.308   0.405 -0.0322 -0.4786  1.6659
  573SOL    HW2 1719   1.670   2.380   0.385 -1.6377  0.9629 -3.9969
  574SOL     OW 1720   1.196   0.206   1.229 -0.1610  0.4041 -0.3322
  574SOL    HW1 1721   1.183   0.114   1.267  0.8533 -2.0765 -0.6835
  574SOL    HW2 1722   1.265   0.205   1.153 -0.4592 -0.0436 -0.4446
  575SOL     OW 1723   0.488   1.081   1.679 -0.4939  0.4273 -0.0553
  575SOL    HW1 1724   0.507   1.179   1.683 -0.9934 -1.9721  0.9579
  575SOL    HW2 1725   0.579   1.028   1.682  1.0297 -1.3114 -0.9812
  576SOL     OW 1726   2.577   0.340   1.749 -0.1523  0.2267 -0.1735
  576SOL    HW1 1727   2.544   0.279   1.678  3.0759  1.2389  0.2231
  576SOL    HW2 1728   2.633   0.412   1.711 -0.2842 -1.8278 -0.7755
  577SOL     OW 1729   1.232   1.059   2.506 -0.3933  0.4980 -0.6391
  577SOL    HW1 1730   1.242   1.134   2.573 -0.8578  0.5893 -0.2523
  577SOL    HW2 1731   1.244   1.093   2.410 -0.1663  0.1875 -0.9052
  578SOL     OW 1732   2.016   1.248   2.329  0.0401 -0.2386  0.4224
  578SOL    HW1 1733   1.919   1.289   2.323 -1.3069  2.9392 -2.0363
  578SOL    HW2 1734   2.074   1.297   2.261  0.6170  0.8028  0.2150
  579SOL     OW 1735   1.281   2.070   1.358 -0.2263 -0.0308 -0.3274
  579SOL    HW1 1736   1.195   2.075   1.310  4.5517  0.5066  1.3122
  579SOL    HW2 1737   1.327   1.985   1.333  0.9380 -0.0500 -1.4876
  580SOL     OW 1738   1.373   2.310   0.278 -0.6506  0.1772 -0.2037
  580SOL    HW1 1739   1.404   2.323   0.183 -2.6283  0.6200  1.5435
  580SOL    HW2 1740   1.316   2.227   0.277  0.9272 -1.7816  0.9442
  581SOL     OW 1741   0.962   0.985   1.947  0.6229 -0.1454 -0.5402
  581SOL    HW1 1742   0.921   0.891   1.934  0.1534  0.2163  0.7872
  581SOL    HW2 1743   1.009   0.989   2.039 -1.5052  0.6196  1.5979
  582SOL     OW 1744   0.757   0.991   1.671 -0.3765  0.2725 -0.0278
  582SOL    HW1 1745   0.783   0.991   1.766  1.3935  0.2638 -0.0719
  582SOL    HW2 1746   0.821   0.937   1.612 -1.7066  2.0194  2.2812
  583SOL     OW 1747   0.838   1.252   1.886  0.1840  0.3431  0.4495
  583SOL    HW1 1748   0.905   1.176   1.889  0.2847 -0.1943 -1.8301
  583SOL    HW2 1749   0.875   1.341   1.922 -1.4048  0.8983 -2.2557
  584SOL     OW 1750   2.178   2.256   0.807 -0.0905 -0.0328  0.2249
  584SOL    HW1 1751   2.276   2.224   0.804  0.0148  0.9732 -1.4631
  584SOL    HW2 1752   2.135   2.205   0.734  0.4751  1.2405  0.3839
  585SOL     OW 1753   1.840   0.061   2.723  0.3948  0.1679 -0.1751
  585SOL    HW1 1754   1.749   0.083   2.675  1.3237  1.3024 -1.2055
  585SOL    HW2 1755   1.897   0.142   2.735 -2.0198 -0.1477 -0.3851
  586SOL     OW 1756   3.031   2.301   0.797 -0.6367 -0.0447  0.2916
  586SOL    HW1 1757   3.036   2.341   0.706 -2.5388  0.7285 -0.8537
  586SOL    HW2 1758   2.953   2.325   0.861  0.2029 -2.2140 -0.3541
  587SOL     OW 1759   1.598   1.814   2.984 -0.2962  0.4302  0.4004
  587SOL    HW1 1760   1.604   1.858   0.003  2.2856  1.1169 -1.9473
  587SOL    HW2 1761   1.496   1.795   2.968 -1.5982 -0.6725 -0.1503
  588SOL     OW 1762   0.185   0.221   0.876 -0.5984 -0.1966 -0.1835
  588SOL    HW1 1763   0.156   0.237   0.973 -0.0025 -0.5880  1.8877
  588SOL    HW2 1764   0.148   0.139   0.833 -0.3049  1.9854 -0.3611
  589SOL     OW 1765   1.313   0.733   0.819 -0.0300 -0.1070 -0.3908
  589SOL    HW1 1766   1.263   0.809   0.871  0.1861 -0.2896 -0.0936
  589SOL    HW2 1767   1.279   0.706   0.726 -0.9355 -0.8039  0.1792
  590SOL     OW 1768   1.307   1.242   2.989  0.3291 -0.3518 -0.1473
  590SOL    HW1 1769   1.230   1.293   3.027 -0.2215  1.1586  0.0841
  590SOL    HW2 1770   1.308   1.156   3.044  0.7847  2.6205 -0.8208
  591SOL     OW 1771   2.533   2.320   2.567 -0.7438  0.0983 -0.3201
  591SOL    HW1 1772   2.448   2.326   2.625 -2.1205  1.3461 -2.7408
  591SOL    HW2 1773   2.550   2.410   2.525 -0.6415  1.4891  0.5868
  592SOL     OW 1774   1.574   2.107   1.422  0.0247 -0.0283  0.1209
  592SOL    HW1 1775   1.518   2.173   1.367 -0.9044  0.4862  0.2194
  592SOL    HW2 1776   1.515   2.024   1.440  1.2849 -0.3500  0.2288
  593SOL     OW 1777   0.823   0.126   0.928  0.1996 -0.0389  0.2711
  593SOL    HW1 1778   0.803   0.130   1.026 -2.8372 -1.4914 -1.2247
  593SOL    HW2 1779   0.787   0.213   0.884 -1.6851 -2.0083 -1.1944
  594SOL     OW 1780   2.741   0.631   2.438  0.3479  0.1334 -0.4402
  594SOL    HW1 1781   2.792   0.657   2.520  1.1067 -0.5116 -2.5482
  594SOL    HW2 1782   2.644   0.598   2.455 -0.0450 -1.3735 -0.5833
  595SOL     OW 1783   0.767   2.555   1.122 -0.6518  0.3953 -0.1026
  595SOL    HW1 1784   0.710   2.496   1.062 -0.4247 -1.8786 -1.1212
  595SOL    HW2 1785   0.747   2.656   1.115 -1.5079  3.8864 -0.8766
  596SOL     OW 1786   0.067   0.914   1.322 -0.7012  0.0699  0.2124
  596SOL    HW1 1787   3.071   0.988   1.331  1.2189  2.1973 -1.0524
  596SOL    HW2 1788   0.068   0.882   1.222 -0.6505 -0.7455 -2.4704
  597SOL     OW 1789   1.399   1.799   0.303  0.5506 -0.6026  0.2945
  597SOL    HW1 1790   1.431   1.718   0.249  2.1986 -2.7766 -1.8579
  597SOL    HW2 1791   1.410   1.788   0.405  2.6144  2.4903 -1.0738
  598SOL     OW 1792   0.442   2.921   1.921 -0.1350  0.0938 -0.6753
  598SOL    HW1 1793   0.478   2.882   1.834  2.6554 -3.1913 -1.5328
  598SOL    HW2 1794   0.481   3.016   1.940  1.9480 -0.0756  1.0490
  599SOL     OW 1795   2.322   1.618   2.733 -0.2566  0.2510 -0.3313
  599SOL    HW1 1796   2.230   1.651   2.717  3.7744 -1.5679 -0.5984
  599SOL    HW2 1797   2.395   1.663   2.676 -4.8890  2.8157 -0.5253
  600SOL     OW 1798   0.878   0.985   0.142 -0.2325 -0.3743 -0.1558
  600SOL    HW1 1799   0.783   0.978   0.115 -0.1308 -0.8189 -0.6109
  600SOL    HW2 1800   0.920   1.050   0.073  2.1644  0.4071 -1.7434
  601SOL     OW 1801   0.544   0.739   0.879 -0.2344  0.2380 -0.1135
  601SOL    HW1 1802   0.536   0.832   0.843  0.7446  2.3345 -1.1900
  601SOL    HW2 1803   0.638   0.702   0.872 -2.6020  0.0468  1.0714
  602SOL     OW 1804   1.727   0.050   0.746  0.1996 -0.0238  0.0761
  602SOL    HW1 1805   1.761   0.018   0.652  0.7578  0.9591 -1.0130
  602SOL    HW2 1806   1.650   0.115   0.729  2.2740 -0.3578 -0.6561
  603SOL     OW 1807   0.853   2.766   2.206 -0.2616 -0.4983 -0.1812
  603SOL    HW1 1808   0.887   2.696   2.271 -0.0932  2.0874 -2.6304
  603SOL    HW2 1809   0.826   2.717   2.124  2.1437  1.0467  1.4021
  604SOL     OW 1810   2.962   0.080   2.485 -0.2332  0.0839 -0.3601
  604SOL    HW1 1811   3.049   0.049   2.443  1.3971 -1.3674  0.1579
  604SOL    HW2 1812   2.910   0.141   2.423 -0.9503  0.5781 -1.5384
  605SOL     OW 1813   2.649   1.390   1.104 -1.0800  0.5154 -0.0278
  605SOL    HW1 1814   2.583   1.373   1.180 -0.4127  0.7640  0.9375
  605SOL    HW2 1815   2.725   1.438   1.143 -0.9471  0.7349  1.1177
  606SOL     OW 1816   0.704   1.439   2.744  0.3756 -0.2217 -0.5019
  606SOL    HW1 1817   0.708   1.510   2.817 -1.1252  1.1789 -1.9182
  606SOL    HW2 1818   0.618   1.384   2.760 -0.7702  1.3181 -2.3924
  607SOL     OW 1819   0.509   0.223   0.421 -0.0477  0.2631 -0.0559
  607SOL    HW1 1820   0.597   0.179   0.407 -0.0435  0.0001 -1.9746
  607SOL    HW2 1821   0.472   0.254   0.333 -1.2975 -1.1764  2.9008
  608SOL     OW 1822   1.801   1.670   1.990  0.5913 -0.0974 -0.0450
  608SOL    HW1 1823   1.763   1.578   2.011 -0.0159  3.8743 -2.1498
  608SOL    HW2 1824   1.814   1.682   1.889  0.3281  1.0912 -0.5103
  609SOL     OW 1825   2.622   0.303   1.073  0.4333 -0.4093  0.4912
  609SOL    HW1 1826   2.620   0.333   1.173 -0.2951 -1.0192  0.9119
  609SOL    HW2 1827   2.650   0.377   1.011 -0.8571  1.2505  1.6020
  610SOL     OW 1828   0.483   2.653   0.655 -0.3418 -0.0821  0.2656
  610SOL    HW1 1829   0.482   2.705   0.566 -0.9393  0.0619 -0.0443
  610SOL    HW2 1830   0.527   2.709   0.726 -0.5118  0.5340 -2.2781
  611SOL     OW 1831   1.415   0.988   2.847  0.0760 -0.3494 -0.5829
  611SOL    HW1 1832   1.459   1.071   2.803  0.9671  0.5850  2.8728
  611SOL    HW2 1833   1.390   1.007   2.942  1.1599 -0.4987 -0.5900
  612SOL     OW 1834   0.616   2.110   2.082  0.3061 -0.1897  0.1537
  612SOL    HW1 1835   0.549   2.088   2.157  0.0172 -2.8724 -0.4257
  612SOL    HW2 1836   0.626   2.211   2.073  1.5022  0.8236  0.9686
  613SOL     OW 1837   0.579   2.432   0.757 -0.2755  0.8346 -0.1230
  613SOL    HW1 1838   0.507   2.362   0.737 -2.3900 -2.7415 -1.7220
  613SOL    HW2 1839   0.544   2.521   0.715  1.6069 -2.3246 -0.0606
  614SOL     OW 1840   2.475   2.746   1.511 -0.0618  0.0941 -0.0698
  614SOL    HW1 1841   2.509   2.690   1.589 -2.2646 -1.3712  0.3283
  614SOL    HW2 1842   2.513   2.838   1.519  0.6223  2.1442 -0.5639
  615SOL     OW 1843   1.583   1.124   0.229 -0.0580  0.4490 -0.1586
  615SOL    HW1 1844   1.507   1.151   0.292  2.1633 -0.0365 -0.1083
  615SOL    HW2 1845   1.659   1.194   0.242 -0.2167  0.2235 -1.8881
  616SOL     OW 1846   1.679   0.896   0.374  0.3136  0.6849  0.3975
  616SOL    HW1 1847   1.629   0.866   0.459 -0.9549 -0.6724  0.6263
  616SOL    HW2 1848   1.628   0.975   0.332 -0.5996 -2.5451 -0.4965
  617SOL     OW 1849   1.014   1.212   2.809 -0.3796  0.0887  0.1208
  617SOL    HW1 1850   1.056   1.125   2.810 -0.0190  2.4383 -1.1611
  617SOL    HW2 1851   0.960   1.222   2.893  2.0327 -2.2442  1.3667
  618SOL     OW 1852   0.815   0.066   1.900  0.2981  0.3854  0.1490
  618SOL    HW1 1853   0.847   0.006   1.974 -1.4135  0.3998 -3.6444
  618SOL    HW2 1854   0.718   0.087   1.916 -0.0843 -1.1029  3.4690
  619SOL     OW 1855   2.873   1.076   1.449 -0.2120  0.2026  0.3413
  619SOL    HW1 1856   2.924   1.030   1.527  1.4502 -1.9200  1.3056
  619SOL    HW2 1857   2.775   1.040   1.442 -0.2163  0.3290  0.8116
  620SOL     OW 1858   2.240   1.019   2.857  0.7099 -0.0557 -0.3579
  620SOL    HW1 1859   2.294   1.053   2.780 -0.4411 -2.2358  1.8261
  620SOL    HW2 1860   2.140   1.043   2.843 -2.2885 -1.0783  1.5661
  621SOL     OW 1861   2.515   2.297   1.500 -0.3491 -0.0034  0.0442
  621SOL    HW1 1862   2.569   2.317   1.583 -1.2860  0.2630 -1.6946
  621SOL    HW2 1863   2.428   2.255   1.522  1.9625  1.2280  0.8900
  622SOL     OW 1864   0.825   0.726   2.544 -0.2811 -0.1502  0.0117
  622SOL    HW1 1865   0.775   0.743   2.459  2.4019  1.2365  1.3562
  622SOL    HW2 1866   0.895   0.800   2.567  3.0667  1.0774  0.5077
  623SOL     OW 1867   1.044   0.563   2.530 -0.3688 -0.4083  0.0119
  623SOL    HW1 1868   0.995   0.471   2.515  0.8996 -1.7096 -0.5213
  623SOL    HW2 1869   0.981   0.642   2.556 -3.4443  2.7041 -0.5620
  624SOL     OW 1870   1.945   0.724   0.030 -0.2154  0.8564 -0.0966
  624SOL    HW1 1871   1.952   0.760   3.002  0.1557  1.5892 -1.6293
  624SOL    HW2 1872   2.010   0.650   0.037  0.5681  2.8121  0.3559
  625SOL     OW 1873   1.071   1.337   0.955 -0.1120  0.2326 -0.5443
  625SOL    HW1 1874   1.152   1.360   0.903  0.2560  0.6628  0.6405
  625SOL    HW2 1875   1.088   1.315   1.054 -3.0607 -0.8186 -2.9304
  626SOL     OW 1876   1.544   1.193   2.444 -0.5745  0.2030  0.1705
  626SOL    HW1 1877   1.503   1.102   2.425 -0.0735 -0.1045  0.5181
  626SOL    HW2 1878   1.537   1.214   2.544 -0.3269  1.4193  1.2169
  627SOL     OW 1879   0.963   0.007   2.683  0.7890 -0.5457  0.2693
  627SOL    HW1 1880   1.052   3.060   2.725  1.0927 -1.7870  0.8595
  627SOL    HW2 1881   0.892   0.040   2.752 -2.9273  1.7756  0.8183
  628SOL     OW 1882   2.472   0.246   2.475 -0.0543  0.0315  0.2122
  628SOL    HW1 1883   2.473   0.216   2.572  1.4341  0.4857  4.9804
  628SOL    HW2 1884   2.472   0.346   2.466  0.3626 -0.9054 -1.1366
  629SOL     OW 1885   0.813   0.605   2.799 -0.5470 -0.6255 -0.7761
  629SOL    HW1 1886   0.779   0.625   2.706  0.9637  1.4734  1.0591
  629SOL    HW2 1887   0.858   0.686   2.844 -1.1576 -0.2903  0.6334
  630SOL     OW 1888   1.322   0.257   2.120  0.1930  0.1888 -0.2947
  630SOL    HW1 1889   1.234   0.254   2.174 -0.6003 -0.6507  0.0391
  630SOL    HW2 1890   1.388   0.193   2.164  0.3265 -0.5419 -0.3655
  631SOL     OW 1891   2.821   0.977   0.623  0.0629  0.1483 -0.6917
  631SOL    HW1 1892   2.759   1.033   0.568  2.1071  0.4331  0.9817
  631SOL    HW2 1893   2.844   0.887   0.570  1.6804 -0.7465  0.2415
  632SOL     OW 1894   1.990   0.820   1.417 -0.2637  0.1359  0.5264
  632SOL    HW1 1895   1.973   0.888   1.496  1.2530  1.3185 -0.0015
  632SOL    HW2 1896   1.983   0.726   1.452  0.7303 -0.9780 -1.8981
  633SOL     OW 1897   0.919   1.214   0.660  0.1562 -0.0927 -0.5674
  633SOL    HW1 1898   0.943   1.170   0.751 -1.5901  0.9747 -0.4904
  633SOL    HW2 1899   0.978   1.293   0.634  0.1259 -0.5248  0.2314
  634SOL     OW 1900   2.018   2.855   1.017  0.2115  0.1176 -0.6727
  634SOL    HW1 1901   2.057   2.872   1.106  0.8867 -0.7907 -2.5379
  634SOL    HW2 1902   1.971   2.765   1.018 -0.4076 -0.9600 -0.8615
  635SOL     OW 1903   1.641   0.581   1.190  0.4791 -0.3229 -0.3238
  635SOL    HW1 1904   1.595   0.643   1.127  0.3424 -0.9064  0.9996
  635SOL    HW2 1905   1.718   0.633   1.231  0.6606  0.8013 -0.7807
  636SOL     OW 1906   0.981   0.961   0.392  0.0530  0.5142  0.5564
  636SOL    HW1 1907   0.962   0.971   0.294  0.5283  1.8963  1.7464
  636SOL    HW2 1908   0.946   1.037   0.446 -3.0811 -1.2114 -3.5817
  637SOL     OW 1909   2.586   2.026   0.044 -0.0961  0.0842  0.6376
  637SOL    HW1 1910   2.598   1.935   0.003 -0.4131 -1.0816  3.2542
  637SOL    HW2 1911   2.562   2.095   3.043  1.9709  1.3048 -2.7428
  638SOL     OW 1912   1.316   2.661   2.543  0.3526  0.3927  0.3297
  638SOL    HW1 1913   1.300   2.645   2.443 -3.4432 -0.4625  1.5369
  638SOL    HW2 1914   1.365   2.582   2.578 -2.0228  2.7233  0.8003
  639SOL     OW 1915   1.026   2.124   1.265  0.3364  0.0723  0.6846
  639SOL    HW1 1916   0.975   2.154   1.352  0.8930  3.8469  1.2719
  639SOL    HW2 1917   1.020   2.188   1.186  0.9227 -0.8714 -0.6972
  640SOL     OW 1918   2.396   2.941   0.314 -0.3184  0.5387  0.1088
  640SOL    HW1 1919   2.366   2.989   0.229  3.3577 -3.0429  0.9894
  640SOL    HW2 1920   2.331   2.959   0.390  2.8278  1.6289  0.5067
  641SOL     OW 1921   0.445   0.311   0.164  0.2313  0.3694  0.0956
  641SOL    HW1 1922   0.405   0.396   0.201 -1.2226 -2.3303 -1.3440
  641SOL    HW2 1923   0.537   0.326   0.119 -0.8122 -2.3000 -0.5520
  642SOL     OW 1924   2.884   0.715   1.191  0.6319 -0.6378  0.0364
  642SOL    HW1 1925   2.806   0.664   1.153  0.2723 -1.7812 -1.1346
  642SOL    HW2 1926   2.920   0.785   1.124 -1.0221  3.5985 -0.6278
  643SOL     OW 1927   0.680   1.901   1.856 -0.0175 -0.0781  0.0834
  643SOL    HW1 1928   0.634   1.815   1.815  1.8847 -0.2755 -0.9782
  643SOL    HW2 1929   0.685   1.977   1.784  0.7247  0.5834  0.5116
  644SOL     OW 1930   1.518   2.577   0.051  0.4301  0.1556 -0.2672
  644SOL    HW1 1931   1.574   2.577   3.038  0.2444  0.2817 -1.2109
  644SOL    HW2 1932   1.517   2.666   0.097  0.2208 -2.7036 -0.1612
  645SOL     OW 1933   2.087   2.190   0.564  0.3972  0.4477 -0.0499
  645SOL    HW1 1934   2.184   2.208   0.537 -3.2765  0.1811  0.6965
  645SOL    HW2 1935   2.027   2.275   0.557  0.6112  2.3165 -1.2551
  646SOL     OW 1936   1.190   2.840   0.240 -0.3551  0.3966  1.0578
  646SOL    HW1 1937   1.143   2.748   0.228 -1.1800 -1.4416 -2.8643
  646SOL    HW2 1938   1.211   2.892   0.154  0.8029  1.9639  1.3999
  647SOL     OW 1939   0.403   2.700   2.069  0.2588  0.0543 -0.5772
  647SOL    HW1 1940   0.424   2.793   2.023  1.9460  0.4805 -1.2432
  647SOL    HW2 1941   0.401   2.624   2.003 -2.7766  1.8408  2.2729
  648SOL     OW 1942   1.805   0.827   1.236 -0.4781  0.3368 -0.1350
  648SOL    HW1 1943   1.833   0.843   1.141  1.4041  0.0716 -1.5000
  648SOL    HW2 1944   1.880   0.834   1.301  0.3173 -0.0958  1.5415
  649SOL     OW 1945   1.438   2.479   2.711 -0.0233 -0.1682 -0.0977
  649SOL    HW1 1946   1.529   2.457   2.672  0.8049 -1.0504  1.9384
  649SOL    HW2 1947   1.435   2.573   2.756  0.6118  1.3791  0.6492
  650SOL     OW 1948   2.375   1.457   1.551 -0.7180  1.0838 -0.1271
  650SOL    HW1 1949   2.426   1.479   1.635 -1.0009  1.9310 -2.5673
  650SOL    HW2 1950   2.297   1.520   1.535 -2.4615  1.7343 -1.5799
  651SOL     OW 1951   1.280   2.113   3.001  0.1239 -0.3509  0.1056
  651SOL    HW1 1952   1.339   2.184   3.046  1.2514  1.4323  0.6102
  651SOL    HW2 1953   1.313   2.092   2.904  0.4699 -0.3712 -1.2026
  652SOL     OW 1954   0.907   2.583   3.011  0.4589 -0.0357  0.5582
  652SOL    HW1 1955   0.977   2.654   3.003 -0.0870 -3.9010  0.4951
  652SOL    HW2 1956   0.879   2.543   2.919 -0.4092  0.7120 -3.1477
  653SOL     OW 1957   2.439   2.127   1.203  0.0997 -0.0132  0.2694
  653SOL    HW1 1958   2.436   2.229   1.189  0.9371 -1.6863  0.8608
  653SOL    HW2 1959   2.351   2.079   1.189 -0.6917  1.4215  0.4134
  654SOL     OW 1960   2.954   2.576   1.567 -0.4540  0.5195 -0.0853
  654SOL    HW1 1961   2.921   2.660   1.523 -0.0315  1.7156  2.3217
  654SOL    HW2 1962   2.938   2.497   1.505  0.5867  2.4258  1.4240
  655SOL     OW 1963   3.020   2.160   1.154 -0.1510 -0.3173 -0.1579
  655SOL    HW1 1964   2.946   2.094   1.178 -0.3308 -0.3052  2.8957
  655SOL    HW2 1965   2.986   2.256   1.136 -2.0108  2.2764 -2.2910
  656SOL     OW 1966   0.145   2.840   2.757  0.1513  0.0052  0.1701
  656SOL    HW1 1967   0.185   2.887   2.675  0.7692  0.4648  1.1223
  656SOL    HW2 1968   0.087   2.908   2.805  0.3831 -2.5116  0.4260
  657SOL     OW 1969   3.061   0.824   0.106 -0.2760 -0.1080 -0.2301
  657SOL    HW1 1970   3.039   0.902   0.045 -0.3461 -0.5230  0.5769
  657SOL    HW2 1971   0.079   0.840   0.152 -0.2640  0.2000  3.3018
  658SOL     OW 1972   2.079   1.712   0.816 -0.3632  0.7962  0.3264
  658SOL    HW1 1973   2.131   1.670   0.888  0.1343  1.5591 -2.4226
  658SOL    HW2 1974   2.134   1.790   0.784 -1.1914 -0.6836 -2.3907
  659SOL     OW 1975   1.389   0.697   1.390  0.0606  0.4377  0.3816
  659SOL    HW1 1976   1.466   0.759   1.374 -0.2050 -2.4511 -0.6989
  659SOL    HW2 1977   1.417   0.603   1.365 -1.3073  4.0175  2.3033
  660SOL     OW 1978   1.502   1.583   0.163 -0.5397 -0.3352 -0.2273
  660SOL    HW1 1979   1.572   1.546   0.099 -0.8867  2.0656  1.3299
  660SOL    HW2 1980   1.487   1.531   0.249 -1.0375  2.7286 -0.5540
  661SOL     OW 1981   0.178   1.981   0.554 -0.5551  0.2877  0.2023
  661SOL    HW1 1982   0.146   2.050   0.485 -0.0743 -1.6389 -1.0998
  661SOL    HW2 1983   0.113   1.906   0.562 -0.9269 -3.5595  0.6197
  662SOL     OW 1984   2.921   0.695   1.964 -0.1567 -0.1961  0.0838
  662SOL    HW1 1985   2.924   0.676   2.065 -0.4626  0.2334  0.2648
  662SOL    HW2 1986   2.999   0.752   1.938  0.3796 -0.7001 -0.0165
  663SOL     OW 1987   2.066   1.426   0.938  0.0545  0.2676 -0.1508
  663SOL    HW1 1988   2.094   1.325   0.934 -0.5086 -1.8709 -0.2749
  663SOL    HW2 1989   2.143   1.487   0.957 -3.2782 -2.0020 -2.4560
  664SOL     OW 1990   0.641   0.393   1.186  0.0500  0.2699  0.4952
  664SOL    HW1 1991   0.711   0.457   1.152 -2.8000 -1.5272  2.4311
  664SOL    HW2 1992   0.665   0.293   1.167 -4.4198 -2.3188  1.9925
  665SOL     OW 1993   1.204   2.955   2.851 -0.7177 -0.0711  0.7493
  665SOL    HW1 1994   1.267   2.948   2.765 -0.9146 -1.2215  1.0084
  665SOL    HW2 1995   1.219   3.036   2.909 -0.9131  0.0681 -0.1417
  666SOL     OW 1996   0.166   0.411   2.432  0.4633  0.5442 -0.2189
  666SOL    HW1 1997   0.224   0.342   2.483  0.2835 -0.6069  1.4845
  666SOL    HW2 1998   0.110   0.361   2.357 -0.6947 -2.7450 -1.0608
  667SOL     OW 1999   2.051   1.789   2.012 -0.0071  0.4241  0.1665
  667SOL    HW1 2000   2.092   1.746   2.094  0.3267 -1.3595 -3.8169
  667SOL    HW2 2001   1.956   1.755   1.995  2.5590  0.6201 -2.3154
  668SOL     OW 2002   0.008   1.592   2.882 -0.1863  0.1084 -0.0748
  668SOL    HW1 2003   0.088   1.575   2.823 -2.5384 -0.5311 -2.1352
  668SOL    HW2 2004   3.024   1.512   2.900  3.1608  2.6763  0.6649
  669SOL     OW 2005   2.274   2.651   2.471  0.1455 -0.0560  0.4946
  669SOL    HW1 2006   2.275   2.556   2.438  0.9663 -0.4506 -1.1099
  669SOL    HW2 2007   2.290   2.717   2.389  1.6568  4.7732 -0.1315
  670SOL     OW 2008   2.459   1.063   2.401 -0.0439  0.3559 -0.1177
  670SOL    HW1 2009   2.410   1.110   2.324 -0.2847 -1.0048  0.0434
  670SOL    HW2 2010   2.416   0.977   2.431  2.7756 -1.6447 -1.2254
  671SOL     OW 2011   2.327   1.199   0.321  0.0026 -0.1105 -0.1588
  671SOL    HW1 2012   2.348   1.186   0.220 -0.6825 -4.2722 -2.9351
  671SOL    HW2 2013   2.338   1.297   0.353 -2.0843  2.4425 -0.4027
  672SOL     OW 2014   2.715   1.152   2.367 -0.0933  0.5865  0.5239
  672SOL    HW1 2015   2.748   1.195   2.455  1.0182  2.4807  1.2295
  672SOL    HW2 2016   2.632   1.094   2.393 -0.6901 -2.3008  2.2218
  673SOL     OW 2017   2.561   1.062   1.376 -0.0514  0.2740 -0.0823
  673SOL    HW1 2018   2.509   1.105   1.299 -0.7168  1.8724 -1.3550
  673SOL    HW2 2019   2.586   0.966   1.357 -1.2609 -0.3353  2.1446
  674SOL     OW 2020   1.522   1.867   1.529  0.3211  0.2775 -0.3649
  674SOL    HW1 2021   1.617   1.850   1.491  3.2894  1.3358 -0.7732
  674SOL    HW2 2022   1.454   1.800   1.486 -0.5777 -2.0871 -0.1897
  675SOL     OW 2023   3.028   0.424   0.804 -0.0628  0.1940  0.5281
  675SOL    HW1 2024   3.062   0.515   0.769 -0.1545 -2.3398 -0.3750
  675SOL    HW2 2025   0.036   0.375   0.847 -0.6495  1.2402  0.7393
  676SOL     OW 2026   2.060   0.960   1.046  0.1392  0.5897 -0.0719
  676SOL    HW1 2027   2.102   0.978   1.138  1.7871  0.3107  0.5146
  676SOL    HW2 2028   2.056   0.861   1.025  1.3463  0.2587 -1.8347
  677SOL     OW 2029   1.665   1.830   2.176 -0.6035 -0.5671 -0.5347
  677SOL    HW1 2030   1.569   1.839   2.146 -0.2430 -1.0653 -0.5543
  677SOL    HW2 2031   1.714   1.773   2.108  0.2160 -0.0486  0.3491
  678SOL     OW 2032   0.045   1.664   0.937  0.0057  0.4757 -1.2285
  678SOL    HW1 2033   0.028   1.728   1.017  0.5433  1.8810  1.7615
  678SOL    HW2 2034   3.036   1.598   0.924 -2.0719 -0.0438  2.4523
  679SOL     OW 2035   2.986   2.808   0.540 -0.1107  0.1614 -0.1055
  679SOL    HW1 2036   2.950   2.886   0.593 -1.4534 -0.1485  0.6015
  679SOL    HW2 2037   3.002   2.728   0.602 -2.0509 -1.1455 -2.5073
  680SOL     OW 2038   0.199   2.124   1.257 -0.3808 -0.3755  0.0394
  680SOL    HW1 2039   0.284   2.126   1.203  0.1909 -0.6848  0.6052
  680SOL    HW2 2040   0.119   2.103   1.199  1.4824 -0.5731 -0.7309
  681SOL     OW 2041   0.843   0.769   1.240 -0.0744  0.1892  0.3009
  681SOL    HW1 2042   0.750   0.780   1.277  2.7330 -1.1710 -0.5827
  681SOL    HW2 2043   0.857   0.674   1.205  0.9096  2.0781  3.0100
  682SOL     OW 2044   1.835   2.714   0.725 -0.4767 -0.1111  0.2985
  682SOL    HW1 2045   1.908   2.727   0.795 -2.0504 -0.9430 -0.0061
  682SOL    HW2 2046   1.765   2.650   0.765 -0.0145 -1.3177 -1.1361
  683SOL     OW 2047   2.069   1.305   1.302  0.2908 -0.6898 -0.0593
  683SOL    HW1 2048   2.098   1.393   1.346 -2.1899 -1.6930 -0.3003
  683SOL    HW2 2049   2.157   1.259   1.283  1.6185  1.2564  1.6722
  684SOL     OW 2050   0.193   1.657   1.697  0.0838  0.3165  0.1098
  684SOL    HW1 2051   0.264   1.600   1.741 -2.1978 -1.8368  0.5936
  684SOL    HW2 2052   0.127   1.598   1.650 -0.1840  1.0111 -0.0324
  685SOL     OW 2053   2.244   1.671   0.170 -0.2150  0.3626 -0.0067
  685SOL    HW1 2054   2.202   1.580   0.190  1.1146  1.7473 -2.0436
  685SOL    HW2 2055   2.285   1.668   0.072  4.2694 -0.2114 -2.1647
  686SOL     OW 2056   2.874   0.383   0.384  0.1802 -0.5205  0.3020
  686SOL    HW1 2057   2.791   0.347   0.425  0.1847  1.0231  1.3364
  686SOL    HW2 2058   2.953   0.365   0.449  0.9383  2.5638  2.1176
  687SOL     OW 2059   1.352   2.964   0.056  0.4468  0.1736 -0.5498
  687SOL    HW1 2060   1.345   3.041   0.125 -4.4067 -1.3786  1.3897
  687SOL    HW2 2061   1.420   2.977   3.056  0.1397  2.3010 -1.5641
  688SOL     OW 2062   1.916   2.014   2.120  0.2303  0.0375  0.4495
  688SOL    HW1 2063   1.956   1.928   2.083 -1.5817  1.3093 -1.6765
  688SOL    HW2 2064   1.897   2.012   2.220 -1.9971 -0.3767  0.4286
  689SOL     OW 2065   2.639   0.836   2.032  0.4619 -0.1130  0.0669
  689SOL    HW1 2066   2.558   0.834   1.968 -3.1041  0.2740 -0.9392
  689SOL    HW2 2067   2.709   0.777   1.993 -3.1230  2.6534 -1.4589
  690SOL     OW 2068   2.127   1.160   0.897 -0.4926 -0.2717 -0.3806
  690SOL    HW1 2069   2.111   1.157   0.795 -0.4672  1.2236 -0.4922
  690SOL    HW2 2070   2.092   1.086   0.951  0.9948  1.9049 -0.3048
  691SOL     OW 2071   1.109   1.267   1.208 -0.0760  0.6655 -0.1053
  691SOL    HW1 2072   1.128   1.170   1.212 -3.1818  1.1162  1.4087
  691SOL    HW2 2073   1.018   1.283   1.248 -0.7162 -0.5633 -0.5247
  692SOL     OW 2074   1.837   0.223   2.290 -0.1043 -0.1714  0.8652
  692SOL    HW1 2075   1.835   0.146   2.220  1.6508 -0.2148  0.0186
  692SOL    HW2 2076   1.837   0.314   2.246  0.8676  2.0519 -1.4540
  693SOL     OW 2077   0.093   1.248   2.772  0.6036  0.0653  0.2178
  693SOL    HW1 2078   0.122   1.164   2.820 -0.9771  2.0114 -1.8956
  693SOL    HW2 2079   0.034   1.220   2.689  1.6357 -2.7683 -3.4718
  694SOL     OW 2080   2.190   2.748   0.806 -0.0317  0.1400 -0.4433
  694SOL    HW1 2081   2.265   2.731   0.744 -3.2072  0.0432 -0.3373
  694SOL    HW2 2082   2.146   2.837   0.791  3.8940 -2.1491 -1.5639
  695SOL     OW 2083   1.448   1.436   2.661  0.3423 -0.1908  0.6117
  695SOL    HW1 2084   1.531   1.380   2.693 -0.0227  0.6110  0.9087
  695SOL    HW2 2085   1.471   1.532   2.638  1.3172  0.3678 -0.4001
  696SOL     OW 2086   1.906   0.301   1.670 -0.3253  0.2458  0.1579
  696SOL    HW1 2087   1.867   0.375   1.727  1.4805 -1.3741 -1.9668
  696SOL    HW2 2088   1.833   0.238   1.634  0.7922 -0.3236 -2.4491
  697SOL     OW 2089   1.718   0.283   1.980 -0.0769  0.1583  0.4023
  697SOL    HW1 2090   1.767   0.196   2.003 -1.3110  0.5183 -0.2726
  697SOL    HW2 2091   1.649   0.263   1.909  3.0990 -1.6759 -0.8063
  698SOL     OW 2092   1.756   1.287   2.262  0.9291 -0.2639 -0.3710
  698SOL    HW1 2093   1.672   1.262   2.314  0.1288 -1.6970  0.1702
  698SOL    HW2 2094   1.736   1.368   2.206  0.6960 -1.6635 -0.9033
  699SOL     OW 2095   1.713   1.227   0.568 -0.2057 -0.2782  0.3473
  699SOL    HW1 2096   1.680   1.254   0.658  1.4446 -2.8199 -1.9190
  699SOL    HW2 2097   1.730   1.130   0.573  0.6744  1.8141 -0.8948
  700SOL     OW 2098   1.489   2.793   0.205  0.0625  0.5554 -0.1054
  700SOL    HW1 2099   1.497   2.814   0.304  1.0685  0.0073 -0.6289
  700SOL    HW2 2100   1.429   2.859   0.156  1.1299 -1.8388  1.7650
  701SOL     OW 2101   0.330   0.115   1.335 -0.0487 -0.0235 -0.4705
  701SOL    HW1 2102   0.306   0.211   1.362 -2.3684 -1.9858 -1.2103
  701SOL    HW2 2103   0.367   0.070   1.421  1.2326  0.5677  1.6509
  702SOL     OW 2104   1.721   2.829   1.347  0.0968 -0.0528 -0.1113
  702SOL    HW1 2105   1.799   2.763   1.362 -2.5342  1.1759  0.9719
  702SOL    HW2 2106   1.629   2.795   1.373  2.2308  1.3553  0.1445
  703SOL     OW 2107   2.540   2.861   2.226 -0.5182  0.0692  0.2809
  703SOL    HW1 2108   2.559   2.891   2.319  0.9568 -0.1892 -1.0915
  703SOL    HW2 2109   2.578   2.770   2.205 -0.7931 -1.0077 -0.6974
  704SOL     OW 2110   1.581   2.163   0.898 -0.4590  0.7533 -0.3209
  704SOL    HW1 2111   1.548   2.162   0.993 -0.4970  0.2319 -1.0275
  704SOL    HW2 2112   1.522   2.218   0.839  0.9241 -0.5141 -3.1447
  705SOL     OW 2113   0.251   1.714   2.148  0.5091 -0.0544  0.0446
  705SOL    HW1 2114   0.336   1.719   2.206  1.7002  2.8997  3.1668
  705SOL    HW2 2115   0.178   1.662   2.197  0.1735  0.4527  2.9885
  706SOL     OW 2116   1.702   0.378   0.033 -0.4547 -0.6807 -0.3359
  706SOL    HW1 2117   1.626   0.364   3.040  1.2097 -0.7588  2.4815
  706SOL    HW2 2118   1.738   0.292   0.062  1.2313  0.8961  2.4871
  707SOL     OW 2119   1.469   2.673   2.118 -0.0981 -0.2791  0.2490
  707SOL    HW1 2120   1.497   2.578   2.127 -0.1201 -0.0594  0.0804
  707SOL    HW2 2121   1.535   2.719   2.061 -0.6556 -0.9138  1.0233
  708SOL     OW 2122   0.724   2.065   1.568  0.1125  0.1182  0.4051
  708SOL    HW1 2123   0.713   1.978   1.516  0.5218  0.4788 -3.0096
  708SOL    HW2 2124   0.808   2.109   1.536  1.7809 -1.1555 -0.2020
  709SOL     OW 2125   2.431   0.541   1.860  0.1478 -0.2972  0.7034
  709SOL    HW1 2126   2.433   0.522   1.960  0.2753 -1.4165  0.7521
  709SOL    HW2 2127   2.492   0.480   1.812 -0.8689  1.8099 -2.5622
  710SOL     OW 2128   2.996   0.276   1.433 -0.2842 -0.3967  0.1220
  710SOL    HW1 2129   3.026   0.345   1.362  1.2214 -0.9895 -0.9207
  710SOL    HW2 2130   3.058   0.288   1.517  0.4863  1.0240 -1.1051
  711SOL     OW 2131   3.064   2.371   0.536  0.0499  0.0763 -0.3646
  711SOL    HW1 2132   0.092   2.350   0.535  0.5507 -2.5925  0.2707
  711SOL    HW2 2133   3.049   2.447   0.470  0.2952  0.3989 -0.7454
  712SOL     OW 2134   0.314   2.931   2.556  0.9094 -0.1424  0.1151
  712SOL    HW1 2135   0.384   2.959   2.624 -0.3864  1.4794  2.3887
  712SOL    HW2 2136   0.335   2.842   2.507 -0.5462  3.4398 -0.9371
  713SOL     OW 2137   1.984   0.451   0.268 -0.0505  0.2328 -0.4482
  713SOL    HW1 2138   1.978   0.448   0.169 -3.0275 -2.5448  2.7506
  713SOL    HW2 2139   1.924   0.520   0.311  0.0299 -0.8887  0.2263
  714SOL     OW 2140   1.699   2.060   0.499  0.5502  0.0790 -0.2337
  714SOL    HW1 2141   1.656   2.154   0.477  0.2266 -0.1935  2.0027
  714SOL    HW2 2142   1.799   2.060   0.490 -0.8597 -1.2266  1.7295
  715SOL     OW 2143   0.137   0.535   0.151 -0.0299 -0.7903  0.5014
  715SOL    HW1 2144   0.150   0.582   0.059  1.1889 -0.2639 -1.7988
  715SOL    HW2 2145   0.218   0.556   0.208  0.8654 -0.7178  0.1334
  716SOL     OW 2146   0.938   2.994   2.111 -0.0695  0.4595 -0.5952
  716SOL    HW1 2147   1.025   2.964   2.064  2.5193  0.5353  0.6260
  716SOL    HW2 2148   0.897   2.914   2.164 -0.2027  2.1544  0.4547
  717SOL     OW 2149   0.393   0.610   2.701 -0.7543 -0.2987  0.5142
  717SOL    HW1 2150   0.473   0.575   2.645 -0.2159 -0.0013 -0.9373
  717SOL    HW2 2151   0.350   0.690   2.650  0.3876 -0.1099  0.6634
  718SOL     OW 2152   1.228   0.657   0.560 -0.6330 -0.0771 -0.8541
  718SOL    HW1 2153   1.252   0.738   0.508 -0.1664 -1.8077  0.4439
  718SOL    HW2 2154   1.133   0.622   0.538  1.0434  0.6234  0.8282
  719SOL     OW 2155   2.434   2.097   2.873  0.6650  0.2076 -0.0269
  719SOL    HW1 2156   2.441   2.043   2.788 -2.5769  0.4996 -0.7172
  719SOL    HW2 2157   2.393   2.183   2.845  1.7414 -1.2667  0.7954
  720SOL     OW 2158   1.389   0.966   1.765 -0.2881 -1.0484  0.4856
  720SOL    HW1 2159   1.475   1.002   1.721  0.3031 -0.9796 -1.4658
  720SOL    HW2 2160   1.400   0.865   1.762  1.6495  0.6883  0.4433
  721SOL     OW 2161   0.081   2.852   1.112 -0.3768 -0.0033 -0.3242
  721SOL    HW1 2162   0.055   2.932   1.056  2.5854 -0.6278 -1.5108
  721SOL    HW2 2163   0.172   2.826   1.084 -0.0887 -0.1188  1.0478
  722SOL     OW 2164   1.197   2.111   2.621  0.4639  0.7797  0.2486
  722SOL    HW1 2165   1.280   2.140   2.564  1.8457 -1.2567 -0.1211
  722SOL    HW2 2166   1.142   2.044   2.570  1.7122  2.1781  3.1686
  723SOL     OW 2167   1.712   0.556   0.620  0.2466 -0.8004  0.1567
  723SOL    HW1 2168   1.670   0.472   0.576  1.0619 -1.1750 -1.5769
  723SOL    HW2 2169   1.756   0.524   0.706 -1.5805  1.1982 -1.5217
  724SOL     OW 2170   0.531   2.100   2.819  0.4609  0.2650 -0.1958
  724SOL    HW1 2171   0.568   2.010   2.847 -1.8075  1.4818 -0.5889
  724SOL    HW2 2172   0.586   2.184   2.840  0.8581 -0.3651 -0.3367
  725SOL     OW 2173   2.983   0.605   1.430  0.4427 -0.5349  0.0040
  725SOL    HW1 2174   2.960   0.694   1.384 -1.0868 -1.7316 -0.1232
  725SOL    HW2 2175   2.996   0.620   1.527 -1.5643  0.9338 -2.7126
  726SOL     OW 2176   2.013   2.953   0.768 -0.2431 -0.4082  0.6603
  726SOL    HW1 2177   1.916   2.989   0.754 -0.2993 -0.9587  0.4259
  726SOL    HW2 2178   2.015   2.935   0.868 -3.9174 -2.0213  3.4270
  727SOL     OW 2179   1.875   1.268   1.898  0.2545 -0.3118  0.1317
  727SOL    HW1 2180   1.806   1.341   1.901  0.0809 -3.2350  0.6084
  727SOL    HW2 2181   1.861   1.195   1.965 -0.2673  1.0638  2.0197
  728SOL     OW 2182   1.524   2.721   1.482  0.1440  0.7423 -0.2905
  728SOL    HW1 2183   1.478   2.795   1.529  2.2843 -1.3600  0.3918
  728SOL    HW2 2184   1.459   2.674   1.419  0.3424 -0.0788  1.9699
  729SOL     OW 2185   1.865   0.460   2.151 -0.6741 -0.1231  0.6104
  729SOL    HW1 2186   1.952   0.487   2.101 -1.0800  1.9641 -0.4994
  729SOL    HW2 2187   1.807   0.401   2.090 -0.5469  2.1592  0.0640
  730SOL     OW 2188   0.595   0.827   1.306  0.0941 -0.0358 -0.5151
  730SOL    HW1 2189   0.533   0.784   1.375  1.2747 -1.9445  1.2548
  730SOL    HW2 2190   0.543   0.864   1.227 -1.8098 -0.4345 -2.4732
  731SOL     OW 2191   0.314   0.051   0.178  0.5856 -0.7555 -0.2772
  731SOL    HW1 2192   0.233   0.036   0.238  0.0759 -0.9152  1.3039
  731SOL    HW2 2193   0.351   0.145   0.180  1.5053 -2.0886  0.9786
  732SOL     OW 2194   0.605   0.717   0.324 -0.5326 -0.2541  0.9252
  732SOL    HW1 2195   0.639   0.673   0.408  0.6105 -1.4215 -0.2163
  732SOL    HW2 2196   0.590   0.814   0.344  0.0030 -2.5365  4.1861
  733SOL     OW 2197   1.283   1.647   2.188  0.4644  0.1707  0.2796
  733SOL    HW1 2198   1.343   1.708   2.136  1.1959 -0.1732 -2.4455
  733SOL    HW2 2199   1.324   1.556   2.199  1.9634  0.7552  2.2395
  734SOL     OW 2200   0.028   2.291   2.149  0.1461 -0.6850  0.4833
  734SOL    HW1 2201   0.045   2.324   2.053  1.4560 -1.5198  2.3231
  734SOL    HW2 2202   3.067   2.364   2.209 -1.0211  0.6005 -2.0449
  735SOL     OW 2203   1.642   0.298   1.033 -0.7415 -0.6848 -0.3546
  735SOL    HW1 2204   1.679   0.202   1.016  0.9490 -0.3538 -0.4611
  735SOL    HW2 2205   1.546   0.292   1.047  3.2039  0.3917 -0.6957
  736SOL     OW 2206   0.904   1.237   3.039 -0.1460 -0.2739 -0.7758
  736SOL    HW1 2207   0.808   1.279   3.039 -1.4648  1.8924 -1.7687
  736SOL    HW2 2208   0.970   1.309   0.008  1.6422 -0.3078  0.7321
  737SOL     OW 2209   0.037   0.651   0.670  0.1216 -0.0577  0.6171
  737SOL    HW1 2210   0.131   0.676   0.680 -1.4506 -0.0647 -1.1302
  737SOL    HW2 2211   0.015   0.630   0.570 -0.2918 -0.3599 -1.3423
  738SOL     OW 2212   0.527   2.287   1.609 -0.2972  0.3315 -0.1007
  738SOL    HW1 2213   0.580   2.368   1.584  2.8247 -1.6337  2.1851
  738SOL    HW2 2214   0.582   2.200   1.606  2.6438 -0.2374 -1.3188
  739SOL     OW 2215   1.218   2.546   2.945 -0.2637 -0.0305  0.5328
  739SOL    HW1 2216   1.219   2.470   2.880  3.3458 -2.4668  2.9943
  739SOL    HW2 2217   1.303   2.596   2.953  2.4656  1.4907 -0.9440
  740SOL     OW 2218   1.932   2.637   1.332  0.2783  0.2736  0.0975
  740SOL    HW1 2219   1.917   2.560   1.395  0.7862  0.4256 -0.3890
  740SOL    HW2 2220   1.942   2.611   1.236  0.1070 -2.6912  0.4824
  741SOL     OW 2221   2.269   0.383   0.809 -0.2133  0.2188  0.3011
  741SOL    HW1 2222   2.259   0.478   0.837  1.6488  2.1991  0.8166
  741SOL    HW2 2223   2.321   0.334   0.879 -0.3062  1.7811  0.0165
  742SOL     OW 2224   1.164   2.264   2.371  0.1469  0.2104 -0.4959
  742SOL    HW1 2225   1.089   2.290   2.306  0.4382  1.8867  0.4867
  742SOL    HW2 2226   1.138   2.271   2.471 -0.9540 -0.5371  1.7888
  743SOL     OW 2227   2.465   0.807   1.817  0.5075  0.0007  0.3485
  743SOL    HW1 2228   2.387   0.859   1.784  0.7754 -0.0531  0.9391
  743SOL    HW2 2229   2.441   0.706   1.821 -0.3313  0.1878  4.3328
  744SOL     OW 2230   2.027   0.702   1.012 -0.3194 -0.4367  0.4926
  744SOL    HW1 2231   2.080   0.687   0.924 -0.0344 -0.9504 -0.7743
  744SOL    HW2 2232   1.925   0.686   1.003  0.6744 -1.1819 -0.3747
  745SOL     OW 2233   2.309   1.089   1.864  0.1580  0.2645  0.2550
  745SOL    HW1 2234   2.362   1.105   1.780 -0.6474  1.4354 -1.2741
  745SOL    HW2 2235   2.258   1.000   1.861 -2.3450  2.0702  2.6742
  746SOL     OW 2236   1.361   1.683   0.587 -0.4151 -0.8778 -0.1847
  746SOL    HW1 2237   1.456   1.724   0.599  0.5931 -0.5868  0.1726
  746SOL    HW2 2238   1.311   1.683   0.677  0.1506 -0.3094 -0.8942
  747SOL     OW 2239   1.913   1.852   1.067 -0.1816  0.1180 -0.2515
  747SOL    HW1 2240   1.819   1.887   1.049 -0.1757  3.4915 -0.8637
  747SOL    HW2 2241   1.919   1.752   1.039 -1.1885  0.3116 -0.0929
  748SOL     OW 2242   0.279   2.861   0.402 -0.1581  0.4326 -0.4304
  748SOL    HW1 2243   0.378   2.826   0.392 -0.0301  1.9697 -1.7271
  748SOL    HW2 2244   0.285   2.948   0.453  1.0196 -2.3906  0.0913
  749SOL     OW 2245   0.203   0.967   2.395  0.5487 -0.0164 -0.7939
  749SOL    HW1 2246   0.236   0.914   2.317  0.0787 -0.2767  1.6128
  749SOL    HW2 2247   0.135   1.037   2.368  0.1125  2.4260  1.1427
  750SOL     OW 2248   1.647   2.848   1.985 -0.4138  0.6935 -0.1260
  750SOL    HW1 2249   1.592   2.917   1.932 -1.6118 -0.5037  0.9330
  750SOL    HW2 2250   1.710   2.794   1.923  0.4795  0.7150 -1.1870
  751SOL     OW 2251   2.697   0.585   0.253 -0.0280 -0.1836 -0.2296
  751SOL    HW1 2252   2.604   0.562   0.293 -3.6028  1.7848 -0.5734
  751SOL    HW2 2253   2.764   0.529   0.298 -2.9734  1.5100  0.8502
  752SOL     OW 2254   0.132   2.069   0.841 -0.0813 -0.1634 -1.0167
  752SOL    HW1 2255   0.160   2.084   0.746 -1.0842  0.6211 -2.4177
  752SOL    HW2 2256   0.060   2.137   0.861 -3.3917  0.4927 -0.4879
  753SOL     OW 2257   1.080   3.067   0.951 -0.3504 -0.0761 -0.7814
  753SOL    HW1 2258   1.146   0.054   0.898  2.5280  0.8319 -2.9251
  753SOL    HW2 2259   0.987   0.035   0.942  1.2465 -0.6184  1.5150
  754SOL     OW 2260   0.627   0.095   2.216  0.0746  0.2262 -0.3419
  754SOL    HW1 2261   0.551   0.152   2.254 -1.1143  0.0380  0.4916
  754SOL    HW2 2262   0.613   3.069   2.245 -0.6766 -1.1876 -0.0189
  755SOL     OW 2263   1.733   1.044   3.041 -0.0093 -0.0367  0.8491
  755SOL    HW1 2264   1.654   1.113   3.019 -2.7821  0.0280 -1.0055
  755SOL    HW2 2265   1.692   0.951   3.062 -1.6404  3.8619 -0.7555
  756SOL     OW 2266   2.129   2.079   2.666 -0.2685 -0.7966 -0.3946
  756SOL    HW1 2267   2.222   2.034   2.674  1.0945  1.0567  0.6303
  756SOL    HW2 2268   2.079   2.059   2.759 -0.7263 -1.7005  1.3267
  757SOL     OW 2269   1.817   0.657   0.395  0.2264  0.0987 -0.1148
  757SOL    HW1 2270   1.798   0.755   0.405  2.6174 -2.2232  1.5093
  757SOL    HW2 2271   1.779   0.601   0.470 -2.0811  0.5382 -3.6230
  758SOL     OW 2272   1.768   0.342   1.281 -0.5446  0.3064 -0.6103
  758SOL    HW1 2273   1.720   0.287   1.209  2.1242 -1.7215 -0.1081
  758SOL    HW2 2274   1.739   0.434   1.271 -0.0888 -2.1679 -0.3537
  759SOL     OW 2275   2.628   0.623   1.128  0.4467 -0.2509 -0.4897
  759SOL    HW1 2276   2.541   0.677   1.148  0.7627  0.7918  1.1005
  759SOL    HW2 2277   2.626   0.585   1.030  0.8759 -0.3897  0.9445
  760SOL     OW 2278   2.301   1.175   1.219  0.5733 -0.3594 -0.1804
  760SOL    HW1 2279   2.338   1.161   1.122  1.7700 -0.1443  0.2584
  760SOL    HW2 2280   2.258   1.086   1.249 -0.6480  1.6624  0.9007
  761SOL     OW 2281   0.382   0.570   0.262 -0.2389  0.4517  0.1407
  761SOL    HW1 2282   0.464   0.627   0.278  0.0971  1.1930 -2.0806
  761SOL    HW2 2283   0.321   0.549   0.343  1.7111 -0.4047  0.4656
  762SOL     OW 2284   1.427   1.883   1.199 -0.3980  0.1335  0.4904
  762SOL    HW1 2285   1.512   1.855   1.153  0.2049  2.9347  1.8994
  762SOL    HW2 2286   1.356   1.808   1.189 -0.2959 -1.4480 -2.1360
  763SOL     OW 2287   1.165   1.370   1.905  0.6091 -0.2142  0.4690
  763SOL    HW1 2288   1.196   1.437   1.835  1.4438 -2.8876  2.1209
  763SOL    HW2 2289   1.150   1.277   1.869 -2.4836  3.2141  3.4770
  764SOL     OW 2290   3.066   1.843   2.530  0.0151  0.4786 -0.9049
  764SOL    HW1 2291   3.005   1.899   2.478  1.0292 -3.5573  1.3687
  764SOL    HW2 2292   3.028   1.847   2.625 -1.1046 -2.3523 -0.8614
  765SOL     OW 2293   1.382   2.647   1.251 -0.1693 -0.4434  0.2469
  765SOL    HW1 2294   1.435   2.635   1.167  0.3652 -2.2627 -0.5185
  765SOL    HW2 2295   1.319   2.724   1.243  0.0231 -1.1962  0.5032
  766SOL     OW 2296   2.951   2.492   2.522 -0.1670 -0.3236  0.4113
  766SOL    HW1 2297   3.035   2.522   2.568  0.0010 -1.0518 -1.5407
  766SOL    HW2 2298   2.934   2.396   2.553  0.7770 -0.3951 -1.5073
  767SOL     OW 2299   1.049   0.987   2.194  0.1174 -0.3264  0.0613
  767SOL    HW1 2300   1.115   1.049   2.239  1.5498 -1.9105 -0.4923
  767SOL    HW2 2301   1.043   0.906   2.255  2.1580  2.2905 -0.1155
  768SOL     OW 2302   0.973   2.149   0.011  1.0951 -0.2015 -0.7844
  768SOL    HW1 2303   1.070   2.161   3.066 -0.7093 -0.5014  3.5296
  768SOL    HW2 2304   0.932   2.092   3.010  0.8179  1.0216 -0.5152
  769SOL     OW 2305   0.408   2.133   1.107  0.1630  0.1635  0.1491
  769SOL    HW1 2306   0.456   2.057   1.065 -2.1130  2.2647  0.1001
  769SOL    HW2 2307   0.476   2.184   1.161 -0.4836 -2.2730 -1.7599
  770SOL     OW 2308   1.543   0.814   2.673 -0.0222 -0.2654 -0.3062
  770SOL    HW1 2309   1.607   0.744   2.707  1.7741  4.3057  0.1271
  770SOL    HW2 2310   1.488   0.853   2.749  1.3875  0.4870  0.7615
  771SOL     OW 2311   0.169   0.084   2.138 -0.2655 -0.6482 -0.0036
  771SOL    HW1 2312   0.174   0.025   2.053 -0.0487  0.6282 -2.2892
  771SOL    HW2 2313   0.159   0.182   2.111 -2.0007 -0.3370 -0.7622
  772SOL     OW 2314   2.187   2.696   2.050 -0.0084 -0.0831  0.7712
  772SOL    HW1 2315   2.229   2.605   2.057 -1.2095 -1.8306  0.1667
  772SOL    HW2 2316   2.249   2.756   1.995 -2.1231 -0.0895 -1.0399
  773SOL     OW 2317   1.008   1.873   1.523  0.1562  0.4612 -0.6864
  773SOL    HW1 2318   0.918   1.838   1.562 -2.8780 -0.6926  1.7593
  773SOL    HW2 2319   1.017   1.972   1.533 -0.4236 -1.8994 -0.7091
  774SOL     OW 2320   1.197   0.126   1.863 -0.1881 -0.2778 -0.6041
  774SOL    HW1 2321   1.240   0.167   1.942 -0.6422 -0.6753  0.1258
  774SOL    HW2 2322   1.112   0.171   1.843  1.8541 -2.8928  0.7648
  775SOL     OW 2323   1.890   2.897   3.020  0.3616  0.0224 -0.2676
  775SOL    HW1 2324   1.932   2.939   2.936 -0.7964  0.4241 -0.4397
  775SOL    HW2 2325   1.906   2.800   3.030 -1.9198 -0.8729 -2.8833
  776SOL     OW 2326   2.906   0.766   2.239  0.3459  0.4530 -0.4168
  776SOL    HW1 2327   2.853   0.717   2.314  0.3912 -2.6738  3.6826
  776SOL    HW2 2328   2.888   0.864   2.234 -1.8523 -3.0163  0.8162
  777SOL     OW 2329   2.528   2.176   2.147 -0.0296 -0.0554  0.0672
  777SOL    HW1 2330   2.440   2.158   2.095 -0.1621 -2.1579 -0.1506
  777SOL    HW2 2331   2.606   2.194   2.083 -0.2859 -1.8545 -1.8077
  778SOL     OW 2332   1.848   1.091   2.100  0.8984  0.7920  0.3538
  778SOL    HW1 2333   1.838   1.156   2.181  1.0455  1.2825 -0.4214
  778SOL    HW2 2334   1.918   1.017   2.111 -2.6387 -0.3115 -0.8331
  779SOL     OW 2335   2.638   0.342   0.554  0.1681 -0.1154  0.1841
  779SOL    HW1 2336   2.541   0.325   0.555  2.1920  0.9819  3.2588
  779SOL    HW2 2337   2.649   0.440   0.565  1.7029 -1.7417  3.5827
  780SOL     OW 2338   2.386   0.422   0.130 -0.4783  0.0655 -0.4570
  780SOL    HW1 2339   2.455   0.358   0.102 -2.8975  0.9087  1.7288
  780SOL    HW2 2340   2.430   0.513   0.141  0.5144 -2.8199 -0.6978
  781SOL     OW 2341   0.353   2.461   1.414  0.4097 -0.9051 -0.0399
  781SOL    HW1 2342   0.408   2.382   1.439 -1.6927  3.7061 -0.0528
  781SOL    HW2 2343   0.270   2.432   1.363 -1.4364  0.5295 -2.7800
  782SOL     OW 2344   2.110   2.439   0.155  0.3328  0.4171  0.2112
  782SOL    HW1 2345   2.078   2.469   0.245 -1.7537  0.7832 -2.6002
  782SOL    HW2 2346   2.201   2.390   0.164  1.3660 -0.9632 -1.0847
  783SOL     OW 2347   0.727   1.095   1.430 -0.0025  0.2280  0.0685
  783SOL    HW1 2348   0.721   1.015   1.369  1.8483  0.1108 -0.4815
  783SOL    HW2 2349   0.743   1.054   1.520  0.5158  0.5290 -4.0559
  784SOL     OW 2350   1.331   0.568   2.581  0.6012  0.0250  0.0062
  784SOL    HW1 2351   1.230   0.571   2.572  2.2934 -2.3596 -1.4280
  784SOL    HW2 2352   1.371   0.615   2.501 -0.2434 -1.1940  1.3663
  785SOL     OW 2353   2.182   0.332   1.127 -0.3766 -0.0631  0.1192
  785SOL    HW1 2354   2.244   0.308   1.206  1.8746  1.8738 -0.6032
  785SOL    HW2 2355   2.190   0.436   1.108  0.9673  1.8942  0.4201
  786SOL     OW 2356   1.005   2.122   1.652  0.5530  0.2719  0.3275
  786SOL    HW1 2357   1.008   2.083   1.746 -0.8927  1.0552 -0.1507
  786SOL    HW2 2358   1.096   2.152   1.626 -4.2367  0.9038  1.8114
  787SOL     OW 2359   1.480   0.440   1.340 -0.3090 -0.0113 -0.2942
  787SOL    HW1 2360   1.540   0.485   1.272  0.3188 -1.0635 -0.1499
  787SOL    HW2 2361   1.506   0.342   1.349  3.0393  2.8875 -0.4431
  788SOL     OW 2362   0.318   0.665   0.675  0.0081 -0.0369 -0.2665
  788SOL    HW1 2363   0.390   0.673   0.745  2.2475  1.6556 -2.8155
  788SOL    HW2 2364   0.322   0.739   0.608 -0.3991 -2.4765 -0.4642
  789SOL     OW 2365   0.353   1.943   1.425 -0.5836 -0.1176 -0.3316
  789SOL    HW1 2366   0.289   2.006   1.382  0.8487 -2.7556 -1.7217
  789SOL    HW2 2367   0.334   1.928   1.524  1.0771 -2.2656 -0.9368
  790SOL     OW 2368   0.914   0.665   2.157  0.0393 -0.2755 -0.1600
  790SOL    HW1 2369   1.006   0.696   2.181 -0.6773  1.4364  0.6950
  790SOL    HW2 2370   0.885   0.693   2.062  0.9616 -1.2332  0.9207
  791SOL     OW 2371   1.760   0.723   0.963 -0.3593 -0.9466  0.2188
  791SOL    HW1 2372   1.665   0.756   0.978 -0.7670  2.1130  0.7156
  791SOL    HW2 2373   1.772   0.637   0.910  2.1541  0.5032  2.3011
  792SOL     OW 2374   1.113   2.398   1.995 -0.1153 -0.2114 -0.1505
  792SOL    HW1 2375   1.118   2.501   2.013 -0.3257  2.4923  0.9050
  792SOL    HW2 2376   1.055   2.351   2.072 -2.8298  0.3849  1.1709
  793SOL     OW 2377   0.985   0.529   0.563 -0.5441  0.4041  0.0732
  793SOL    HW1 2378   0.891   0.560   0.546  3.6262  0.4885  1.2162
  793SOL    HW2 2379   0.994   0.486   0.659 -0.5362 -2.3226  1.2292
  794SOL     OW 2380   0.651   1.097   2.028  0.0630 -0.3509 -0.8223
  794SOL    HW1 2381   0.576   1.157   2.060  2.0173  0.5193 -0.3446
  794SOL    HW2 2382   0.690   1.125   1.942 -0.7598 -3.5606  3.7861
  795SOL     OW 2383   0.160   2.012   2.358 -0.0553  0.0799  0.5071
  795SOL    HW1 2384   0.069   2.005   2.313 -2.1105 -1.9100 -0.6671
  795SOL    HW2 2385   0.161   2.065   2.446  1.0881 -1.4060  0.4507
  796SOL     OW 2386   2.509   0.717   2.235  0.3781  0.6271 -0.1295
  796SOL    HW1 2387   2.425   0.765   2.267  1.9701 -0.3019 -0.8737
  796SOL    HW2 2388   2.563   0.776   2.170 -0.8032 -1.1295 -0.8365
  797SOL     OW 2389   2.730   2.172   2.712 -0.7169  0.1075  0.4573
  797SOL    HW1 2390   2.664   2.233   2.659  0.8778 -0.4834 -1.9608
  797SOL    HW2 2391   2.743   2.199   2.810  1.7228 -0.4867  1.0778
  798SOL     OW 2392   0.136   2.713   2.123  0.0151  0.0084 -0.2738
  798SOL    HW1 2393   0.092   2.739   2.039 -1.7027 -1.1169 -0.5916
  798SOL    HW2 2394   0.236   2.709   2.106 -1.4304  0.9799  2.0146
  799SOL     OW 2395   0.251   2.561   2.456 -0.1769 -0.2747 -0.3020
  799SOL    HW1 2396   0.312   2.497   2.507  2.6855 -1.9765  2.7959
  799SOL    HW2 2397   0.202   2.503   2.387 -0.6019 -2.7007 -1.1137
  800SOL     OW 2398   0.135   2.141   0.332 -0.4023 -0.0478 -0.1959
  800SOL    HW1 2399   0.137   2.208   0.254 -0.3260 -0.9016 -0.4914
  800SOL    HW2 2400   0.223   2.088   0.326  0.6070 -0.1422 -1.4880
  801SOL     OW 2401   1.863   1.572   0.971  0.2736  0.1902  0.1051
  801SOL    HW1 2402   1.790   1.585   0.902 -0.4091  0.3734  1.5181
  801SOL    HW2 2403   1.945   1.520   0.942 -1.2746  1.2249  1.7598
  802SOL     OW 2404   0.089   1.415   0.457 -0.1189  0.4069  0.5693
  802SOL    HW1 2405   0.162   1.368   0.400  0.2874 -0.8568 -0.7030
  802SOL    HW2 2406   0.116   1.430   0.552 -0.5827  0.1696 -1.3610
  803SOL     OW 2407   1.064   1.995   2.119  0.4226 -0.2674 -0.7040
  803SOL    HW1 2408   1.147   2.049   2.148  0.4121  0.6504 -0.9726
  803SOL    HW2 2409   0.981   2.002   2.184 -0.7063  2.3414  1.7967
  804SOL     OW 2410   1.522   1.500   0.449  0.6674 -0.1995  0.5028
  804SOL    HW1 2411   1.615   1.526   0.460 -3.4081  0.6883  1.1100
  804SOL    HW2 2412   1.456   1.573   0.479  0.6159 -0.2056 -1.7509
  805SOL     OW 2413   2.392   1.205   0.035 -0.0874 -0.1565  0.2209
  805SOL    HW1 2414   2.399   1.227   3.008 -3.6608 -2.3594 -0.9990
  805SOL    HW2 2415   2.377   1.109   0.043  0.8587  2.4343 -1.2991
  806SOL     OW 2416   0.523   2.755   0.412  0.3162 -0.1229  0.1559
  806SOL    HW1 2417   0.593   2.822   0.432  0.2413 -2.9625  0.2693
  806SOL    HW2 2418   0.559   2.664   0.387 -1.3398  0.3673  2.2391
  807SOL     OW 2419   2.063   1.708   2.707  0.2193 -0.0002  0.5479
  807SOL    HW1 2420   2.020   1.725   2.797  1.2514 -3.3780 -1.3789
  807SOL    HW2 2421   2.002   1.642   2.656 -0.2314 -1.0392  2.8938
  808SOL     OW 2422   1.054   1.618   0.982  0.0581  0.2662  0.4576
  808SOL    HW1 2423   1.021   1.524   0.995  0.8923 -1.1459  0.3106
  808SOL    HW2 2424   0.980   1.680   0.947 -3.8446  2.1088  0.1312
  809SOL     OW 2425   2.653   0.607   0.606 -1.0301  0.0971  0.2553
  809SOL    HW1 2426   2.587   0.680   0.642 -0.1453  0.8622 -0.9378
  809SOL    HW2 2427   2.725   0.659   0.556 -1.9861 -1.8753 -2.0965
  810SOL     OW 2428   0.712   1.240   0.494 -0.6053 -0.7804  0.7512
  810SOL    HW1 2429   0.636   1.285   0.544 -2.8522  0.1206 -0.9913
  810SOL    HW2 2430   0.792   1.223   0.558  2.0391 -0.6526  1.6940
  811SOL     OW 2431   1.691   2.471   1.093  0.0355 -0.3244  0.3661
  811SOL    HW1 2432   1.746   2.385   1.078 -0.9951 -3.6081  0.4862
  811SOL    HW2 2433   1.626   2.448   1.160 -0.7733  0.3735 -2.2775
  812SOL     OW 2434   1.065   2.537   1.731  0.0703 -0.5569  0.0340
  812SOL    HW1 2435   1.074   2.580   1.822  0.3084 -1.8398 -1.5477
  812SOL    HW2 2436   0.997   2.462   1.735 -0.3672 -1.3272 -2.5827
  813SOL     OW 2437   0.790   2.892   1.790 -0.0386 -0.0571  0.1038
  813SOL    HW1 2438   0.776   2.994   1.805 -0.3794  1.1864 -0.2638
  813SOL    HW2 2439   0.825   2.858   1.702  0.4664 -1.2026  0.0182
  814SOL     OW 2440   0.907   2.567   2.393 -0.6944  0.1841 -0.3202
  814SOL    HW1 2441   0.946   2.481   2.425 -2.5416  2.1305 -0.4997
  814SOL    HW2 2442   0.825   2.587   2.453 -2.2275  1.6719  0.2262
  815SOL     OW 2443   0.926   0.291   2.495  0.1812 -0.0850  0.2517
  815SOL    HW1 2444   1.003   0.245   2.445 -0.2378  1.4340 -0.7571
  815SOL    HW2 2445   0.865   0.353   2.436  1.5932  3.9915  2.0058
  816SOL     OW 2446   2.312   0.222   2.977 -0.2752  0.0285 -0.1022
  816SOL    HW1 2447   2.249   0.300   2.953 -2.0182  0.5016  0.0620
  816SOL    HW2 2448   2.384   0.239   3.044  3.0765  0.4219  2.7634
  817SOL     OW 2449   2.372   3.011   1.826  0.0907  0.0559 -0.8328
  817SOL    HW1 2450   2.377   3.033   1.926 -0.3308  0.3128 -2.4229
  817SOL    HW2 2451   2.364   0.025   1.772  2.5348 -0.4417  0.2641
  818SOL     OW 2452   1.263   0.682   0.184 -0.3400  0.0757 -0.0939
  818SOL    HW1 2453   1.324   0.698   0.098 -1.6657 -0.5446 -1.2580
  818SOL    HW2 2454   1.300   0.615   0.250  0.2982 -0.6952  0.7701
  819SOL     OW 2455   1.846   1.692   2.353 -0.2462 -0.1619  0.0514
  819SOL    HW1 2456   1.780   1.743   2.294  1.0047  0.2875  2.6042
  819SOL    HW2 2457   1.941   1.719   2.330 -0.2114  0.2190  1.4616
  820SOL     OW 2458   0.091   1.696   0.048  0.3022 -0.0217 -0.3986
  820SOL    HW1 2459   0.075   1.657   3.029  0.8519 -0.6439 -0.5867
  820SOL    HW2 2460   0.121   1.622   0.113 -0.4429  0.0745  0.7418
  821SOL     OW 2461   0.193   2.854   0.762  0.3848  0.1294 -0.1459
  821SOL    HW1 2462   0.179   2.770   0.707 -1.2882 -1.8316 -1.1146
  821SOL    HW2 2463   0.243   2.839   0.848 -1.2606  0.4829  0.2351
  822SOL     OW 2464   2.326   2.338   2.793 -0.6798 -0.4348 -0.1176
  822SOL    HW1 2465   2.233   2.376   2.805  2.2980 -2.2563  0.8808
  822SOL    HW2 2466   2.391   2.407   2.832 -0.5432  0.6938 -3.5637
  823SOL     OW 2467   1.426   0.013   2.242  0.3859 -0.5245  0.0442
  823SOL    HW1 2468   1.521   3.049   2.250  0.8079 -1.8220  1.5394
  823SOL    HW2 2469   1.366   3.022   2.294  0.3248 -0.9076  0.1919
  824SOL     OW 2470   2.770   2.324   2.030  0.1870  0.1260 -0.6272
  824SOL    HW1 2471   2.855   2.358   2.073  0.3165  2.3536  0.4244
  824SOL    HW2 2472   2.694   2.382   2.064  0.1247  0.7127 -0.7423
  825SOL     OW 2473   2.883   2.000   2.398  1.0929  0.2774  0.0398
  825SOL    HW1 2474   2.805   1.931   2.408 -1.1720 -0.6547  0.9800
  825SOL    HW2 2475   2.920   1.997   2.301 -0.0662 -0.5456 -0.3486
  826SOL     OW 2476   2.275   0.840   2.407 -0.7035 -0.2206  0.0546
  826SOL    HW1 2477   2.256   0.761   2.466  1.0615 -0.9165  2.1326
  826SOL    HW2 2478   2.190   0.896   2.401 -2.4731  1.0401  0.1650
  827SOL     OW 2479   2.650   2.055   1.394  0.8942 -0.5489  0.6025
  827SOL    HW1 2480   2.632   2.099   1.486  2.1241  1.1409  2.2606
  827SOL    HW2 2481   2.567   2.071   1.327 -4.1907  0.5513 -1.4593
  828SOL     OW 2482   0.011   0.097   1.774  0.0503 -0.2865  0.3754
  828SOL    HW1 2483   0.085   0.045   1.819 -3.3473 -0.3452 -1.3772
  828SOL    HW2 2484   0.050   0.177   1.726 -0.4052 -0.0855 -2.3441
  829SOL     OW 2485   0.807   2.177   2.725 -0.0733 -0.0195  0.3597
  829SOL    HW1 2486   0.858   2.094   2.761  0.5341 -2.5280 -1.5663
  829SOL    HW2 2487   0.751   2.226   2.794  2.2536  1.9708 -0.9020
  830SOL     OW 2488   0.939   0.980   1.106 -0.0178  0.2424  0.2804
  830SOL    HW1 2489   0.894   0.911   1.163  0.9821  1.4692  2.6880
  830SOL    HW2 2490   0.866   1.036   1.055 -0.7852  0.0118 -1.3498
  831SOL     OW 2491   2.751   1.508   2.936  0.1980  0.1842  0.0893
  831SOL    HW1 2492   2.787   1.581   2.999  0.2717  1.2664 -1.1131
  831SOL    HW2 2493   2.825   1.440   2.917  0.6348  1.2188 -2.1861
  832SOL     OW 2494   1.783   2.244   2.356  0.0638 -0.3456  1.2637
  832SOL    HW1 2495   1.864   2.231   2.415  0.5236 -1.3217  0.1436
  832SOL    HW2 2496   1.806   2.302   2.272  0.1767 -0.0468  0.2787
  833SOL     OW 2497   0.899   0.399   2.045  0.6517 -0.4646 -0.2319
  833SOL    HW1 2498   0.915   0.487   2.093 -1.5888 -0.1047 -0.9644
  833SOL    HW2 2499   0.898   0.323   2.111 -0.5002 -0.0672 -0.7766
  834SOL     OW 2500   0.112   0.239   1.118 -0.0159 -0.2547 -0.3441
  834SOL    HW1 2501   0.065   0.330   1.144 -1.2247  1.4270  1.0213
  834SOL    HW2 2502   0.177   0.214   1.194  0.6353  2.1217 -1.1230
  835SOL     OW 2503   2.536   0.697   3.052 -0.2483 -0.2371 -0.1380
  835SOL    HW1 2504   2.625   0.673   0.031  2.6836  1.0241  2.3742
  835SOL    HW2 2505   2.525   0.640   2.964  1.4170 -1.8292 -0.1741
  836SOL     OW 2506   1.256   2.054   0.297  0.2882  0.3436  0.9961
  836SOL    HW1 2507   1.307   1.962   0.284  3.5893 -0.4359 -0.7365
  836SOL    HW2 2508   1.164   2.040   0.342 -2.2993 -2.9980  0.2262
  837SOL     OW 2509   1.801   1.594   0.488  0.3407  0.0949 -0.6585
  837SOL    HW1 2510   1.874   1.544   0.537 -1.0391  1.5325 -1.3771
  837SOL    HW2 2511   1.832   1.635   0.400 -2.4584 -2.7297  1.4797
  838SOL     OW 2512   1.287   1.103   2.237  0.1041 -0.9316 -0.0989
  838SOL    HW1 2513   1.337   1.023   2.202  0.7650  2.5879  3.0079
  838SOL    HW2 2514   1.266   1.175   2.170  0.7706 -0.1451  0.7729
  839SOL     OW 2515   0.818   1.624   2.261  0.1037  0.3638 -0.0308
  839SOL    HW1 2516   0.879   1.565   2.207 -3.7548  2.8829  2.3655
  839SOL    HW2 2517   0.802   1.711   2.211  0.8305  0.5875 -0.0592
  840SOL     OW 2518   0.691   2.067   0.591  0.3941  0.1927 -0.4897
  840SOL    HW1 2519   0.761   2.075   0.662 -0.9418  0.0497  0.7451
  840SOL    HW2 2520   0.706   1.981   0.546  2.9521  0.3320  0.7751
  841SOL     OW 2521   1.723   2.521   0.301  0.1242  0.1051  0.9066
  841SOL    HW1 2522   1.778   2.599   0.345  1.1027  1.2005 -1.5578
  841SOL    HW2 2523   1.717   2.547   0.203 -0.8251 -1.9425 -0.4608
  842SOL     OW 2524   0.520   0.647   2.944  0.4105  0.0424  0.2800
  842SOL    HW1 2525   0.590   0.577   2.950 -1.1406  0.5004  1.0262
  842SOL    HW2 2526   0.477   0.642   2.853 -1.0348 -0.5775  3.0475
  843SOL     OW 2527   1.008   0.449   0.829 -0.2306 -0.0726  0.3632
  843SOL    HW1 2528   1.014   0.360   0.780 -0.8371  0.6709 -0.7548
  843SOL    HW2 2529   1.092   0.475   0.885 -2.4209  1.6777 -1.4638
  844SOL     OW 2530   2.678   3.025   2.813  0.0066  0.3032  0.1354
  844SOL    HW1 2531   2.587   2.990   2.779 -2.1401 -1.1275 -0.9379
  844SOL    HW2 2532   2.754   2.990   2.756  0.8013  1.9098 -1.8113
  845SOL     OW 2533   2.913   2.138   1.490  0.8328  0.2254  0.2735
  845SOL    HW1 2534   2.836   2.105   1.549  0.9575  0.2514  1.9371
  845SOL    HW2 2535   2.952   2.057   1.443  0.1987 -0.5619  0.0422
  846SOL     OW 2536   2.426   1.437   2.229  0.3787 -1.0265  0.9756
  846SOL    HW1 2537   2.379   1.468   2.311 -0.2540 -1.2300 -5.2330
  846SOL    HW2 2538   2.522   1.410   2.237  0.8818  0.4210  0.2560
  847SOL     OW 2539   1.147   0.600   1.753  0.2504 -0.3819  0.1571
  847SOL    HW1 2540   1.159   0.611   1.849 -0.5170 -0.3770 -4.0870
  847SOL    HW2 2541   1.181   0.683   1.705  0.7853  0.1884  0.0308
  848SOL     OW 2542   2.467   2.569   2.885  0.3081  0.3436  0.3832
  848SOL    HW1 2543   2.442   2.625   2.966 -1.7683 -0.9324 -1.6800
  848SOL    HW2 2544   2.561   2.594   2.856 -2.0761 -0.0457  0.4754
  849SOL     OW 2545   0.478   2.950   0.009 -0.1532  0.3426 -0.5723
  849SOL    HW1 2546   0.431   2.987   0.094 -0.4743  3.8227  0.7592
  849SOL    HW2 2547   0.520   3.028   3.030 -1.4984  1.3685 -1.5206
  850SOL     OW 2548   1.273   2.987   1.143  0.4066 -0.4979 -0.3027
  850SOL    HW1 2549   1.367   3.004   1.122 -1.3120 -0.6664  0.1138
  850SOL    HW2 2550   1.207   3.012   1.074 -1.4296  1.3991 -0.4326
  851SOL     OW 2551   2.890   0.375   2.409 -0.5675  0.0993  0.2788
  851SOL    HW1 2552   2.822   0.453   2.392 -1.3577 -0.6667 -0.3628
  851SOL    HW2 2553   2.891   0.348   2.507 -1.1265  0.1705 -2.4166
  852SOL     OW 2554   1.418   0.714   2.321 -0.3737  0.1384 -0.5104
  852SOL    HW1 2555   1.442   0.807   2.361 -2.6447  0.1376 -0.6704
  852SOL    HW2 2556   1.473   0.687   2.244 -1.6993  1.2352  2.0478
  853SOL     OW 2557   2.984   2.883   0.264 -0.2700 -0.3560  0.1304
  853SOL    HW1 2558   2.975   2.859   0.362 -1.5089 -0.2861 -0.2728
  853SOL    HW2 2559   3.036   2.970   0.258 -0.8165 -1.5048 -0.2227
  854SOL     OW 2560   2.347   1.158   2.127 -0.2237  0.1895  0.0833
  854SOL    HW1 2561   2.381   1.253   2.151 -2.2391 -0.6662 -0.0221
  854SOL    HW2 2562   2.339   1.136   2.024  0.9903 -0.9253 -0.6271
  855SOL     OW 2563   0.662   2.566   0.088  0.4715  0.0227 -0.1590
  855SOL    HW1 2564   0.657   2.672   0.104  0.5285  5.0791 -1.4224
  855SOL    HW2 2565   0.749   2.549   0.039 -0.7599 -0.6798 -0.9600
  856SOL     OW 2566   2.896   2.967   2.680  0.3712 -0.5025 -0.6370
  856SOL    HW1 2567   2.920   3.025   2.598  0.9167  0.8671  1.5100
  856SOL    HW2 2568   2.900   2.866   2.650  1.9677 -0.0496 -1.6919
  857SOL     OW 2569   0.929   2.748   1.610 -0.1462 -0.0264 -0.1084
  857SOL    HW1 2570   0.875   2.719   1.526  0.9545  1.4933 -1.9338
  857SOL    HW2 2571   0.992   2.671   1.637 -0.0568 -0.9929 -2.2220
  858SOL     OW 2572   2.729   2.117   1.673 -0.0275 -0.4992  0.1044
  858SOL    HW1 2573   2.801   2.139   1.739 -0.1034 -1.5312 -1.8608
  858SOL    HW2 2574   2.656   2.055   1.713 -1.5862 -1.2390  2.6815
  859SOL     OW 2575   1.795   2.102   1.589  0.4025  0.3683  0.6589
  859SOL    HW1 2576   1.714   2.090   1.524 -2.3235 -0.7456 -3.2686
  859SOL    HW2 2577   1.764   2.090   1.683 -0.1802 -1.8772 -3.6484
  860SOL     OW 2578   2.321   3.053   0.026 -0.0608 -0.2114  0.2306
  860SOL    HW1 2579   2.423   3.057   0.016  1.6391  0.9317 -0.8687
  860SOL    HW2 2580   2.286   0.052   3.030 -1.6255  1.4712  0.3999
  861SOL     OW 2581   2.629   2.956   0.497 -0.2941  0.4005  0.3268
  861SOL    HW1 2582   2.653   2.885   0.564  0.1737 -1.2278 -2.2348
  861SOL    HW2 2583   2.550   3.011   0.522  4.1770 -1.4026  1.1893
  862SOL     OW 2584   1.716   2.941   2.510  0.4440  0.7106  0.1634
  862SOL    HW1 2585   1.681   2.907   2.599 -2.3588 -2.7389  2.0294
  862SOL    HW2 2586   1.695   3.041   2.501 -1.2248 -0.4835 -0.1263
  863SOL     OW 2587   0.413   0.518   1.298  0.0056 -0.0397  0.5502
  863SOL    HW1 2588   0.373   0.556   1.212 -2.1230 -1.0576 -0.6977
  863SOL    HW2 2589   0.497   0.463   1.279 -0.3116 -0.7485  0.7281
  864SOL     OW 2590   0.196   3.013   1.891  0.1811  0.2549 -0.1278
  864SOL    HW1 2591   0.294   2.982   1.902  0.0213  0.9082  1.5537
  864SOL    HW2 2592   0.133   2.931   1.880 -0.1992  1.7614 -0.4958
  865SOL     OW 2593   0.426   1.224   3.059 -0.0778  0.7560  0.3840
  865SOL    HW1 2594   0.519   1.262   3.068  0.3320 -0.6588 -2.3177
  865SOL    HW2 2595   0.409   1.171   0.071 -0.0486 -0.9399 -0.9036
  866SOL     OW 2596   2.846   0.692   0.046 -0.5592 -0.1088 -0.1625
  866SOL    HW1 2597   2.931   0.739   0.083 -2.7191 -1.8384 -0.7969
  866SOL    HW2 2598   2.786   0.655   0.116 -0.9642  2.2033 -1.5517
  867SOL     OW 2599   2.715   2.676   2.860 -0.1747  0.1107  0.4865
  867SOL    HW1 2600   2.709   2.729   2.943  0.0572 -1.1518  1.8328
  867SOL    HW2 2601   2.794   2.613   2.861  0.7076 -0.3350 -2.1688
  868SOL     OW 2602   1.395   0.400   0.279  0.4068 -0.4503  0.3208
  868SOL    HW1 2603   1.342   0.389   0.363  3.7361  0.4327 -1.5572
  868SOL    HW2 2604   1.475   0.462   0.288  0.6257 -0.0978 -1.1150
  869SOL     OW 2605   2.342   1.436   0.450 -0.1548  0.1915 -1.0098
  869SOL    HW1 2606   2.257   1.463   0.499  0.6885  1.0032 -0.7523
  869SOL    HW2 2607   2.420   1.444   0.516 -0.6414  1.0361  0.1003
  870SOL     OW 2608   2.155   1.535   0.622  0.1670 -0.1997  0.3255
  870SOL    HW1 2609   2.073   1.476   0.592  0.4450 -1.9050  0.0934
  870SOL    HW2 2610   2.129   1.596   0.700  3.6415  1.1457  0.6982
  871SOL     OW 2611   1.328   1.428   1.159 -0.4861  0.0716 -0.0671
  871SOL    HW1 2612   1.244   1.374   1.156 -1.7734 -0.4932 -1.2834
  871SOL    HW2 2613   1.408   1.369   1.166  0.9798  1.3748  1.7510
  872SOL     OW 2614   1.213   1.540   1.694  0.3105 -0.8031  0.9456
  872SOL    HW1 2615   1.147   1.495   1.628  0.5887 -0.5686  0.3652
  872SOL    HW2 2616   1.187   1.641   1.716  2.1309  1.3278  0.7286
  873SOL     OW 2617   0.630   1.531   2.453  0.2383 -0.4881  0.8569
  873SOL    HW1 2618   0.647   1.513   2.548  1.1836 -0.0822 -3.1896
  873SOL    HW2 2619   0.714   1.531   2.400 -1.3773 -0.3903 -2.0999
  874SOL     OW 2620   0.878   1.309   1.338 -0.0923 -0.4060  0.1937
  874SOL    HW1 2621   0.831   1.397   1.320  1.9032 -1.0746  3.3403
  874SOL    HW2 2622   0.815   1.229   1.354 -1.6388  3.1138  0.1093
  875SOL     OW 2623   2.115   0.581   1.247 -0.1225 -0.1714  0.1080
  875SOL    HW1 2624   2.055   0.607   1.168 -1.8827 -0.8829 -0.7058
  875SOL    HW2 2625   2.077   0.596   1.342 -3.1130  2.3388  2.4973
  876SOL     OW 2626   0.964   0.779   2.916 -0.4069  0.2711  0.1430
  876SOL    HW1 2627   0.993   0.729   3.001  1.2412 -0.4100 -0.2865
  876SOL    HW2 2628   1.035   0.845   2.884 -0.0284 -1.4858 -3.6974
  877SOL     OW 2629   3.026   0.445   1.199  0.1487  0.4390 -0.3417
  877SOL    HW1 2630   2.956   0.459   1.124  0.6660 -0.1886 -0.8353
  877SOL    HW2 2631   3.020   0.518   1.269  3.0064 -1.7204 -0.5268
  878SOL     OW 2632   1.468   2.313   0.026 -0.1632  0.3480 -0.4111
  878SOL    HW1 2633   1.471   2.417   0.033  2.1524  0.1530 -1.6615
  878SOL    HW2 2634   1.551   2.273   3.055  0.1617  1.7997  1.2287
  879SOL     OW 2635   2.269   2.080   1.606 -0.1793 -0.2214 -0.4634
  879SOL    HW1 2636   2.214   2.156   1.568 -2.6677  1.9002 -0.6426
  879SOL    HW2 2637   2.330   2.118   1.679  1.0707 -0.3614  1.6855
  880SOL     OW 2638   1.173   2.829   1.491 -0.0594 -0.1157  0.5307
  880SOL    HW1 2639   1.081   2.808   1.534  0.7732  0.0033 -0.2591
  880SOL    HW2 2640   1.203   2.758   1.423  3.1651  3.4260  1.6628
  881SOL     OW 2641   1.158   1.859   0.026  0.1421 -0.3888  0.0369
  881SOL    HW1 2642   1.074   1.916   0.001 -3.4446  3.0521 -0.7355
  881SOL    HW2 2643   1.235   1.927   0.008 -0.5474  0.0476  0.4106
  882SOL     OW 2644   2.124   0.754   1.973  0.1373  0.1657 -0.3925
  882SOL    HW1 2645   2.135   0.814   2.056  1.0662  1.0798 -0.1251
  882SOL    HW2 2646   2.158   0.795   1.885  1.4709  0.6303 -0.6769
  883SOL     OW 2647   1.411   0.460   1.958  0.1647 -0.2664 -0.1494
  883SOL    HW1 2648   1.462   0.392   1.902  0.6954 -0.8349  0.3489
  883SOL    HW2 2649   1.355   0.414   2.032 -2.0400 -1.3884  1.4197
  884SOL     OW 2650   2.992   0.170   3.024 -0.1291  0.2100 -0.2847
  884SOL    HW1 2651   2.959   0.073   3.033  0.0346  0.9303 -2.4670
  884SOL    HW2 2652   3.001   0.208   0.045 -0.9874  1.2385 -1.8782
  885SOL     OW 2653   0.560   2.215   0.427  0.0452  0.1021 -0.0560
  885SOL    HW1 2654   0.624   2.158   0.477  3.1517  1.9919 -2.0020
  885SOL    HW2 2655   0.602   2.304   0.407  0.9630  0.0290  0.2155
  886SOL     OW 2656   1.862   1.557   2.578  0.3070 -0.4054 -0.7095
  886SOL    HW1 2657   1.844   1.593   2.483  1.1902 -2.9398  0.7846
  886SOL    HW2 2658   1.795   1.590   2.649  3.6156 -2.8891 -1.8798
  887SOL     OW 2659   1.781   0.499   1.820 -0.4385  0.5351 -0.1191
  887SOL    HW1 2660   1.807   0.580   1.878 -0.6168 -3.1491  0.6288
  887SOL    HW2 2661   1.765   0.413   1.875  2.4035  0.0376  0.8844
  888SOL     OW 2662   2.709   0.783   1.631 -0.0098  0.2157  0.1715
  888SOL    HW1 2663   2.649   0.831   1.692 -1.3337 -1.8496 -1.5457
  888SOL    HW2 2664   2.806   0.811   1.640  0.3904  0.0316  3.3286
  889SOL     OW 2665   3.020   2.624   0.732 -0.8585 -0.5551  0.1226
  889SOL    HW1 2666   2.941   2.564   0.709  1.8068 -0.0287  2.1285
  889SOL    HW2 2667   0.039   2.592   0.689  2.0226  1.4165 -4.3893
  890SOL     OW 2668   2.907   2.501   2.870 -0.5957  0.3568  0.1189
  890SOL    HW1 2669   2.893   2.420   2.928  2.5657 -1.3285 -1.6231
  890SOL    HW2 2670   3.001   2.510   2.838 -2.0011  0.4379  0.4853
  891SOL     OW 2671   0.754   1.603   2.971 -0.0549  0.6560  0.2854
  891SOL    HW1 2672   0.799   1.610   3.062 -0.4897 -0.8699 -0.8534
  891SOL    HW2 2673   0.822   1.643   2.901 -1.0521 -1.6080  1.1120
  892SOL     OW 2674   0.336   2.801   0.997  1.1071 -0.1940  0.0025
  892SOL    HW1 2675   0.419   2.801   0.941 -0.4169  1.1562  2.1075
  892SOL    HW2 2676   0.304   2.706   1.019 -0.7241 -0.5990 -1.7441
  893SOL     OW 2677   0.710   2.824   1.125 -0.1536  0.0568 -0.1163
  893SOL    HW1 2678   0.632   2.888   1.143  1.7522  1.6611 -0.0989
  893SOL    HW2 2679   0.784   2.846   1.192  0.6859  1.5190 -3.0937
  894SOL     OW 2680   2.890   1.326   0.789  0.2307  0.0229 -0.2948
  894SOL    HW1 2681   2.933   1.252   0.735 -1.9790 -3.0251  0.6108
  894SOL    HW2 2682   2.867   1.399   0.722  2.1898 -1.0540  0.6883
  895SOL     OW 2683   2.667   2.396   1.718  0.1337 -0.0629 -0.2597
  895SOL    HW1 2684   2.651   2.321   1.784 -0.7372  0.2100 -0.4093
  895SOL    HW2 2685   2.745   2.367   1.664 -0.6397  3.1997  2.6012
  896SOL     OW 2686   1.013   0.419   1.585  0.2622  0.0450 -0.7454
  896SOL    HW1 2687   1.005   0.329   1.635  0.0997 -1.5462  0.7566
  896SOL    HW2 2688   1.055   0.491   1.644 -0.0733  0.8532  1.6494
  897SOL     OW 2689   0.841   1.509   1.684 -0.2636 -0.3121  0.1277
  897SOL    HW1 2690   0.905   1.440   1.643  0.4637 -0.9349 -2.0608
  897SOL    HW2 2691   0.818   1.591   1.624  1.8226 -1.0687 -2.1817
  898SOL     OW 2692   1.534   2.498   1.703  0.0081  0.2310  0.0987
  898SOL    HW1 2693   1.467   2.462   1.639 -0.7480  2.4634 -0.4208
  898SOL    HW2 2694   1.585   2.578   1.661 -0.6522  3.9735  0.6772
  899SOL     OW 2695   0.777   0.604   0.145 -0.4134 -0.1191  0.5910
  899SOL    HW1 2696   0.708   0.646   0.210 -3.1278  3.3847 -0.1453
  899SOL    HW2 2697   0.864   0.660   0.149  1.3249  1.1230 -0.9236
  900SOL     OW 2698   1.374   2.379   1.906  0.4145 -0.2450 -0.0458
  900SOL    HW1 2699   1.271   2.384   1.919  1.1540  0.1707 -0.1761
  900SOL    HW2 2700   1.403   2.448   1.833  0.0705  2.4936 -3.8278
  901SOL     OW 2701   0.861   2.271   0.364 -0.2970 -0.3325  0.1097
  901SOL    HW1 2702   0.849   2.322   0.450  0.2656 -0.4063 -1.3602
  901SOL    HW2 2703   0.886   2.337   0.290  0.6960  1.8416  0.5185
  902SOL     OW 2704   1.704   1.443   0.029  0.3850 -0.2904  0.0496
  902SOL    HW1 2705   1.780   1.456   3.039  0.2324 -0.8015 -1.2882
  902SOL    HW2 2706   1.726   1.371   0.101 -0.9613 -1.0487 -0.7507
  903SOL     OW 2707   2.004   1.178   0.328  0.2211  0.3283 -0.6358
  903SOL    HW1 2708   2.064   1.158   0.408  0.4865  0.5235  1.4409
  903SOL    HW2 2709   2.009   1.110   0.253  0.8355 -1.1786  0.9878
  904SOL     OW 2710   0.657   1.376   0.016 -0.2869  0.0455 -0.4590
  904SOL    HW1 2711   0.665   1.470   3.050 -0.5278  4.3900 -0.9555
  904SOL    HW2 2712   0.657   1.388   0.118  0.3076 -0.2112  3.8992
  905SOL     OW 2713   1.966   0.138   1.311 -0.6895  0.0028 -0.3179
  905SOL    HW1 2714   2.003   0.119   1.218 -0.0027  0.1825  1.9194
  905SOL    HW2 2715   1.891   0.206   1.314 -1.9722 -2.8930 -0.6123
  906SOL     OW 2716   2.906   2.429   1.131  0.2054  0.5413 -0.2968
  906SOL    HW1 2717   2.952   2.500   1.078 -1.2949 -0.6655  2.1234
  906SOL    HW2 2718   2.809   2.458   1.141 -1.2065 -1.8309 -0.8070
  907SOL     OW 2719   1.012   0.739   0.145 -0.1675 -0.1724 -0.1880
  907SOL    HW1 2720   0.983   0.833   0.146  2.4591  0.6718  0.1124
  907SOL    HW2 2721   1.111   0.727   0.162 -1.4276 -0.6988  0.5667
  908SOL     OW 2722   1.579   2.986   1.150  0.1771  0.3561  0.0535
  908SOL    HW1 2723   1.658   3.038   1.113  0.5982 -2.4415 -1.4456
  908SOL    HW2 2724   1.619   2.924   1.223 -0.4040  3.0672 -2.2749
  909SOL     OW 2725   1.967   1.240   1.550 -0.1574 -0.3032 -0.2157
  909SOL    HW1 2726   2.013   1.297   1.626 -1.1087 -0.8936 -1.5839
  909SOL    HW2 2727   2.017   1.257   1.463 -1.3671  0.0495  1.9696
  910SOL     OW 2728   1.815   0.064   2.065 -0.1348  0.0779 -0.3696
  910SOL    HW1 2729   1.747   3.065   2.079  0.2008  0.8137 -0.7502
  910SOL    HW2 2730   1.904   0.025   2.040 -1.2258 -0.4002 -0.6027
  911SOL     OW 2731   2.644   0.853   2.671  0.4215  0.3503 -0.2277
  911SOL    HW1 2732   2.659   0.940   2.725 -0.7783  2.9243  1.5769
  911SOL    HW2 2733   2.734   0.809   2.654  0.1404  0.8823 -2.4634
  912SOL     OW 2734   3.005   1.253   1.715 -0.4058 -0.0423  0.2095
  912SOL    HW1 2735   3.004   1.354   1.700 -0.9357 -0.2365  0.4396
  912SOL    HW2 2736   0.029   1.215   1.706  3.0202 -1.1340 -0.0689
  913SOL     OW 2737   2.932   2.383   1.400 -0.0278  0.2345 -0.6519
  913SOL    HW1 2738   2.952   2.297   1.450 -1.2774  0.6513 -0.7740
  913SOL    HW2 2739   2.912   2.366   1.306 -0.9346  2.7519  0.9332
  914SOL     OW 2740   1.604   1.049   1.634  0.1649 -0.1563 -0.1273
  914SOL    HW1 2741   1.609   0.983   1.559 -2.9442  3.4219  2.0605
  914SOL    HW2 2742   1.662   1.131   1.617  0.3249 -5.8125  0.3760
  915SOL     OW 2743   1.987   0.572   1.502 -0.0609 -0.3484  0.1453
  915SOL    HW1 2744   2.059   0.548   1.571 -0.0535 -0.3138 -0.9477
  915SOL    HW2 2745   1.913   0.506   1.503  0.8088  1.8920  0.3084
  916SOL     OW 2746   2.676   2.547   1.120 -0.1442  0.4283  0.3174
  916SOL    HW1 2747   2.620   2.553   1.207  1.5935  1.4347  1.6229
  916SOL    HW2 2748   2.632   2.579   1.036 -0.1861  0.4156  0.7434
  917SOL     OW 2749   1.682   2.228   2.939  0.2002  0.1712 -0.0414
  917SOL    HW1 2750   1.757   2.290   2.960  1.5362 -1.3152  1.0381
  917SOL    HW2 2751   1.711   2.136   2.902 -0.6449 -2.0942 -0.5262
  918SOL     OW 2752   1.911   2.746   2.432  0.5677 -0.0735  0.0534
  918SOL    HW1 2753   1.996   2.803   2.450  0.4367  2.5193 -1.3184
  918SOL    HW2 2754   1.832   2.806   2.465 -0.3330  0.9026  0.0915
  919SOL     OW 2755   1.133   2.532   1.395  0.2344 -0.1501  0.2268
  919SOL    HW1 2756   1.209   2.556   1.326  1.0703  0.5967 -1.7349
  919SOL    HW2 2757   1.169   2.507   1.487 -2.9029  1.5062 -1.7135
  920SOL     OW 2758   0.005   0.299   2.260 -0.2527 -0.2956  0.3566
  920SOL    HW1 2759   3.064   0.219   2.207  1.2840  1.1443  0.6559
  920SOL    HW2 2760   2.993   0.332   2.317  1.6873  0.0658  0.7806
  921SOL     OW 2761   2.956   0.929   1.659 -0.1393 -0.4268 -0.3840
  921SOL    HW1 2762   2.940   0.977   1.744 -0.0706 -4.1638  0.1885
  921SOL    HW2 2763   3.057   0.907   1.653  0.3964 -0.0568 -0.0665
  922SOL     OW 2764   1.960   1.950   0.487  0.0454 -0.2333  0.5513
  922SOL    HW1 2765   2.016   1.892   0.422 -0.5084 -1.5906  0.8715
  922SOL    HW2 2766   2.000   2.043   0.495  1.4515  2.9445 -1.0939
  923SOL     OW 2767   0.771   1.888   0.311  0.2613 -0.3776  0.3851
  923SOL    HW1 2768   0.780   1.810   0.243  1.0892 -0.5998 -0.4644
  923SOL    HW2 2769   0.723   1.963   0.267  0.0036 -0.9434  0.7626
  924SOL     OW 2770   1.049   0.458   0.104  0.1667  0.4315 -0.1344
  924SOL    HW1 2771   1.007   0.440   0.012  0.2369  1.2863  0.0913
  924SOL    HW2 2772   1.032   0.558   0.131 -1.8922  1.9393  0.7858
  925SOL     OW 2773   2.597   0.521   0.867  0.0936  0.6418  0.0228
  925SOL    HW1 2774   2.630   0.556   0.780  0.7872 -0.2558  0.1784
  925SOL    HW2 2775   2.541   0.438   0.851  1.3595  0.0168  0.0249
  926SOL     OW 2776   0.724   0.130   1.168  0.0533 -0.1373  0.7813
  926SOL    HW1 2777   0.645   0.067   1.155 -2.1865 -2.9198 -0.5433
  926SOL    HW2 2778   0.761   0.115   1.264  0.2709 -1.8926  1.0112
  927SOL     OW 2779   0.037   1.562   2.283 -0.3161 -0.0039  0.4622
  927SOL    HW1 2780   3.024   1.557   2.227 -1.1779 -1.6335 -2.8786
  927SOL    HW2 2781   0.093   1.479   2.277  0.9310 -0.2670 -0.1183
  928SOL     OW 2782   2.975   0.308   2.672  0.4261 -0.2859  0.2766
  928SOL    HW1 2783   3.015   0.307   2.766  1.6171 -0.6835 -1.7036
  928SOL    HW2 2784   2.986   0.217   2.632  0.1056  1.8747  0.9531
  929SOL     OW 2785   2.720   0.346   1.357  0.2519 -0.1098  0.2063
  929SOL    HW1 2786   2.816   0.321   1.326  1.4133 -0.8067 -0.5955
  929SOL    HW2 2787   2.667   0.259   1.362 -1.4427  3.5475  0.1930
  930SOL     OW 2788   1.758   0.978   1.849 -0.2615  0.0184 -0.1689
  930SOL    HW1 2789   1.688   1.016   1.785 -1.2137  1.2864  1.8691
  930SOL    HW2 2790   1.756   1.034   1.939  1.4003 -1.2166  0.9597
  931SOL     OW 2791   1.960   1.005   0.137 -0.9632  0.2519 -0.1223
  931SOL    HW1 2792   2.016   0.970   0.062 -1.5255 -0.7144 -0.6412
  931SOL    HW2 2793   1.865   1.024   0.108 -0.2943 -1.2202  0.9417
  932SOL     OW 2794   2.109   1.123   0.629 -0.0212 -0.0773  0.1104
  932SOL    HW1 2795   2.215   1.118   0.625 -1.0792 -0.6575  2.9195
  932SOL    HW2 2796   2.071   1.036   0.603  1.5084  0.6306 -1.2676
  933SOL     OW 2797   2.485   1.747   0.783 -0.0473  0.4953  0.2345
  933SOL    HW1 2798   2.433   1.743   0.692 -2.8218 -1.4886 -1.8922
  933SOL    HW2 2799   2.449   1.824   0.835  1.4358 -2.7227 -0.5921
  934SOL     OW 2800   2.111   0.626   2.482 -0.2017  0.2624 -0.3809
  934SOL    HW1 2801   2.158   0.564   2.419 -1.9233  0.5869 -2.5707
  934SOL    HW2 2802   2.010   0.625   2.464  0.2774 -1.6547  1.9809
  935SOL     OW 2803   0.147   1.086   0.482  0.4557 -0.5545  0.0938
  935SOL    HW1 2804   0.118   1.138   0.397  0.5907  0.3540 -1.7185
  935SOL    HW2 2805   0.076   1.096   0.553  0.6700 -2.2264  1.4806
  936SOL     OW 2806   0.037   0.334   0.531 -0.3992  0.0034  0.1981
  936SOL    HW1 2807   0.089   0.244   0.519 -0.0221 -1.7648 -0.0322
  936SOL    HW2 2808   3.069   0.339   0.627 -3.2425 -0.5449 -0.6593
  937SOL     OW 2809   2.866   0.040   1.308 -0.1965 -0.0695  0.3801
  937SOL    HW1 2810   2.897   0.009   1.214  1.9290  0.0790 -3.3484
  937SOL    HW2 2811   2.932   0.105   1.352  1.3966 -0.1221  0.9096
  938SOL     OW 2812   2.999   2.279   0.076  0.3535 -0.8984 -0.0429
  938SOL    HW1 2813   2.935   2.352   0.090  1.3122 -1.3974 -1.7840
  938SOL    HW2 2814   0.022   2.324   0.079  1.7222  4.5307  1.8122
  939SOL     OW 2815   0.705   1.875   0.882 -0.4287 -0.0210 -0.0031
  939SOL    HW1 2816   0.722   1.890   0.983 -0.2701  1.0098 -0.2766
  939SOL    HW2 2817   0.619   1.919   0.855  0.3906 -1.6224 -0.9361
  940SOL     OW 2818   0.127   0.289   2.852  0.1628 -0.2158 -0.1771
  940SOL    HW1 2819   0.078   0.233   2.918 -1.2914  0.5091  0.1017
  940SOL    HW2 2820   0.204   0.238   2.808  0.0985  1.5228 -0.3618
  941SOL     OW 2821   1.725   0.420   2.617 -0.0330 -0.0057 -0.8579
  941SOL    HW1 2822   1.635   0.372   2.626  0.3097 -1.7993  0.2181
  941SOL    HW2 2823   1.725   0.497   2.680 -0.6369 -4.4535 -1.0202
  942SOL     OW 2824   1.191   0.856   1.537  0.7252 -0.8323 -0.4590
  942SOL    HW1 2825   1.262   0.904   1.595  1.3931  1.3993  2.8009
  942SOL    HW2 2826   1.230   0.795   1.468  0.0729 -0.0134 -0.4842
  943SOL     OW 2827   1.150   1.105   1.785 -0.2469  0.4875 -0.4227
  943SOL    HW1 2828   1.236   1.051   1.782  1.3604  0.3821 -0.8362
  943SOL    HW2 2829   1.069   1.059   1.827  0.3830  0.7388 -2.8619
  944SOL     OW 2830   1.966   0.981   1.650 -0.3582  0.0428  0.0054
  944SOL    HW1 2831   1.904   0.976   1.731 -1.4108 -3.6703 -1.7596
  944SOL    HW2 2832   1.964   1.076   1.618 -0.5299 -0.5594 -2.1064
  945SOL     OW 2833   2.689   2.947   0.234  0.3742  0.2518 -0.0894
  945SOL    HW1 2834   2.657   2.951   0.335  3.5904  1.2314 -0.9084
  945SOL    HW2 2835   2.791   2.962   0.234  0.5573  1.5588  1.1963
  946SOL     OW 2836   2.952   0.478   1.794 -0.2720  0.0779  0.5147
  946SOL    HW1 2837   2.962   0.573   1.834  0.7309  1.0098 -1.3961
  946SOL    HW2 2838   2.863   0.462   1.746  0.2563 -0.9843 -0.3846
  947SOL     OW 2839   1.085   2.895   0.491 -0.2055  0.3132  0.6174
  947SOL    HW1 2840   1.141   2.890   0.403 -0.4125 -0.3712  1.2681
  947SOL    HW2 2841   1.016   2.820   0.494 -1.4308 -0.1950 -0.7414
  948SOL     OW 2842   2.573   1.672   1.306  0.6253  0.4671 -0.2902
  948SOL    HW1 2843   2.604   1.723   1.388  0.6050  0.2807  0.2253
  948SOL    HW2 2844   2.540   1.574   1.324 -0.5920 -2.8783  0.1752
  949SOL     OW 2845   0.312   1.486   2.985  0.1442 -0.4276  0.2874
  949SOL    HW1 2846   0.300   1.488   2.885  1.0490  2.9466 -2.2749
  949SOL    HW2 2847   0.353   1.400   3.014 -0.3902 -0.2522 -0.6099
  950SOL     OW 2848   0.738   2.299   0.948  0.0441 -0.1932  0.2221
  950SOL    HW1 2849   0.676   2.336   0.882  2.0322  3.5581  2.2909
  950SOL    HW2 2850   0.778   2.214   0.912 -4.7265  1.8673  3.2901
  951SOL     OW 2851   0.649   1.017   2.437  0.7205  0.5428 -0.3271
  951SOL    HW1 2852   0.707   1.006   2.521 -1.3595 -0.4393 -0.9847
  951SOL    HW2 2853   0.707   1.047   2.364 -0.8371  0.8917  0.2427
  952SOL     OW 2854   0.332   0.872   0.469 -0.0143  0.5949 -0.0300
  952SOL    HW1 2855   0.422   0.916   0.469 -1.0467 -0.4616 -2.5327
  952SOL    HW2 2856   0.257   0.941   0.490 -1.7348  1.2733  2.1788
  953SOL     OW 2857   2.673   0.078   2.324  0.2508  0.3451 -0.1516
  953SOL    HW1 2858   2.602   0.138   2.375 -2.2719  1.4449  0.3740
  953SOL    HW2 2859   2.683   3.064   2.377 -0.5444 -2.5551  1.2924
  954SOL     OW 2860   1.424   1.239   0.441  0.1620 -0.2505  0.3998
  954SOL    HW1 2861   1.481   1.320   0.449  2.0904 -0.9653  0.7266
  954SOL    HW2 2862   1.449   1.170   0.509 -2.4812  3.0053  0.8685
  955SOL     OW 2863   0.705   2.086   0.081 -0.1690 -0.1517  0.2913
  955SOL    HW1 2864   0.797   2.127   0.077 -2.5900 -1.1009 -2.0115
  955SOL    HW2 2865   0.633   2.156   0.089 -1.3321 -0.4130 -0.8273
  956SOL     OW 2866   2.117   0.485   2.038 -0.0444  0.8811 -0.2422
  956SOL    HW1 2867   2.191   0.471   2.105 -1.1283 -1.5750 -0.7510
  956SOL    HW2 2868   2.115   0.580   2.002  0.2799 -2.8842  1.6349
  957SOL     OW 2869   2.004   2.235   2.507  0.1358 -0.1347  0.1508
  957SOL    HW1 2870   1.986   2.327   2.546 -1.7530 -0.5025 -2.2697
  957SOL    HW2 2871   2.069   2.182   2.561 -3.5205 -1.9476 -0.9749
  958SOL     OW 2872   1.590   1.330   1.181 -0.2974 -0.7853 -0.3378
  958SOL    HW1 2873   1.685   1.296   1.163  2.7541  0.7344 -0.6348
  958SOL    HW2 2874   1.556   1.316   1.275  1.8511 -0.6676 -0.9446
  959SOL     OW 2875   1.954   1.977   2.431 -0.3624 -0.2890 -1.1459
  959SOL    HW1 2876   1.964   2.078   2.452  1.1913  0.6004  1.4150
  959SOL    HW2 2877   1.877   1.935   2.491  1.2069 -2.8018  0.1214
  960SOL     OW 2878   0.214   0.815   2.613  0.0944  0.3536 -0.2492
  960SOL    HW1 2879   0.214   0.871   2.527  1.0756 -0.8043  0.8784
  960SOL    HW2 2880   0.137   0.745   2.609 -0.2552  0.3229  1.5466
  961SOL     OW 2881   0.366   0.979   2.751 -0.3717  0.4137 -0.4824
  961SOL    HW1 2882   0.302   0.914   2.705  0.4885  2.0408  0.8738
  961SOL    HW2 2883   0.320   1.010   2.837 -1.1803 -2.8727 -4.5525
  962SOL     OW 2884   0.445   1.149   2.557  0.2477  0.0846  0.0799
  962SOL    HW1 2885   0.408   1.089   2.632 -1.4577 -1.3581  3.7731
  962SOL    HW2 2886   0.501   1.093   2.491 -0.7918  1.0775  1.8174
  963SOL     OW 2887   2.640   2.210   0.255 -0.7143  0.1064 -0.3809
  963SOL    HW1 2888   2.733   2.197   0.282 -3.5239  0.5755  0.9196
  963SOL    HW2 2889   2.617   2.168   0.163 -1.6425 -3.1901 -0.0561
  964SOL     OW 2890   0.840   2.341   1.701  0.1085  0.3133 -0.2205
  964SOL    HW1 2891   0.902   2.263   1.699 -2.3637  0.3751  0.2175
  964SOL    HW2 2892   0.779   2.332   1.781  1.6841 -0.4563 -0.7931
  965SOL     OW 2893   1.866   1.590   0.216 -0.0975 -0.1631  0.3236
  965SOL    HW1 2894   1.868   1.679   0.162  0.4710 -0.7780 -1.9519
  965SOL    HW2 2895   1.791   1.538   0.176  3.5823  0.8874  1.9644
  966SOL     OW 2896   2.944   1.540   0.353  0.1109 -0.2969  0.1024
  966SOL    HW1 2897   3.029   1.489   0.375 -2.3348  0.1966 -0.8931
  966SOL    HW2 2898   2.962   1.637   0.358  0.8067 -1.7465  2.1909
  967SOL     OW 2899   1.860   2.696   1.892  0.4803 -0.4017 -0.7313
  967SOL    HW1 2900   1.833   2.602   1.871 -0.6443  1.3473  1.1283
  967SOL    HW2 2901   1.908   2.699   1.982 -1.1775  1.0356  2.7658
  968SOL     OW 2902   1.305   0.386   0.565  0.1074  0.5137 -0.1114
  968SOL    HW1 2903   1.221   0.384   0.512  2.3040  0.4724 -0.0511
  968SOL    HW2 2904   1.325   0.476   0.599 -0.8901  0.9554  1.5786
  969SOL     OW 2905   0.198   1.357   2.237  0.4071 -0.1367 -0.5692
  969SOL    HW1 2906   0.283   1.359   2.291 -3.0717 -0.5469 -1.0561
  969SOL    HW2 2907   0.213   1.349   2.133  1.1696 -0.4071 -0.7804
  970SOL     OW 2908   2.198   1.990   1.168 -0.2785 -0.1325 -0.1152
  970SOL    HW1 2909   2.128   1.940   1.220  1.7680  1.4560 -2.6420
  970SOL    HW2 2910   2.156   2.079   1.137 -1.6671 -0.3861 -1.1092
  971SOL     OW 2911   2.794   2.847   0.935  0.7331  0.2378  0.2092
  971SOL    HW1 2912   2.852   2.785   0.987  1.9047  2.4065 -2.0248
  971SOL    HW2 2913   2.837   2.932   0.904 -2.8834  0.8870 -0.7372
  972SOL     OW 2914   3.018   1.181   2.564  0.0711 -0.2303  0.4226
  972SOL    HW1 2915   3.036   1.178   2.463 -1.6317 -0.2783  0.1498
  972SOL    HW2 2916   2.922   1.201   2.583 -1.6819 -1.4742 -1.9591
  973SOL     OW 2917   0.720   0.604   0.559 -0.0048  0.0917 -0.2577
  973SOL    HW1 2918   0.740   0.670   0.632 -1.0554 -1.5475 -0.5598
  973SOL    HW2 2919   0.658   0.530   0.595  0.2268 -3.1654 -0.4072
  974SOL     OW 2920   2.212   0.864   1.734 -0.5031  0.5007 -0.3558
  974SOL    HW1 2921   2.119   0.895   1.708  2.0999 -0.5972  3.7431
  974SOL    HW2 2922   2.252   0.803   1.660  2.6896 -1.7814 -2.1422
  975SOL     OW 2923   2.803   2.756   0.041 -0.2070 -0.0144  0.1285
  975SOL    HW1 2924   2.744   2.800   0.109  2.0860 -1.1556 -4.1805
  975SOL    HW2 2925   2.893   2.753   0.085  1.1518  0.2779 -0.5084
  976SOL     OW 2926   0.563   1.533   1.174 -0.0961  0.0573 -0.4928
  976SOL    HW1 2927   0.526   1.470   1.243  2.5823  0.9807 -0.2839
  976SOL    HW2 2928   0.494   1.558   1.106 -1.4367  0.3314 -2.2208
  977SOL     OW 2929   1.124   1.946   0.677  0.0498 -0.1200  0.2047
  977SOL    HW1 2930   1.202   1.939   0.620 -1.8283 -0.2525  1.4311
  977SOL    HW2 2931   1.038   1.918   0.623 -1.8916 -0.7640  0.0352
  978SOL     OW 2932   0.381   1.054   0.192  0.4660 -0.6922 -0.7349
  978SOL    HW1 2933   0.311   0.982   0.215  0.3813  0.0349  0.9613
  978SOL    HW2 2934   0.476   1.017   0.173  0.8950  3.0802  0.3604
  979SOL     OW 2935   2.087   1.458   0.263 -0.0230  0.5376  0.0011
  979SOL    HW1 2936   2.091   1.384   0.333 -1.0197 -1.4552  1.4843
  979SOL    HW2 2937   1.994   1.507   0.254  0.1716  2.2344 -2.2641
  980SOL     OW 2938   0.423   2.018   2.250  0.1538  0.5388 -0.5282
  980SOL    HW1 2939   0.463   1.929   2.282  2.9926 -1.4833 -0.8946
  980SOL    HW2 2940   0.320   2.021   2.265 -0.8640  0.9265 -0.9750
  981SOL     OW 2941   2.675   0.953   3.063 -0.7139  0.2798 -0.5032
  981SOL    HW1 2942   2.659   0.856   3.049 -0.3180 -0.0762  0.1685
  981SOL    HW2 2943   2.649   0.976   0.085  0.8004  1.3150  0.5378
  982SOL     OW 2944   0.046   2.797   1.847  0.3780 -0.7375 -0.0038
  982SOL    HW1 2945   3.019   2.792   1.839  0.3160  0.6859  0.5947
  982SOL    HW2 2946   0.087   2.715   1.796  0.0912 -2.3129  0.5782
  983SOL     OW 2947   1.710   0.127   1.569  0.1295 -0.2226 -0.2870
  983SOL    HW1 2948   1.660   0.164   1.490  1.9495 -1.1132  2.0860
  983SOL    HW2 2949   1.761   0.047   1.533  0.2781 -0.3648 -0.2581
  984SOL     OW 2950   1.354   2.932   2.620 -0.5580  0.2486  0.4433
  984SOL    HW1 2951   1.454   2.913   2.639  3.3575  0.3434 -1.9885
  984SOL    HW2 2952   1.307   2.848   2.586  0.6049  0.2846 -0.8763
  985SOL     OW 2953   1.356   1.663   1.460  0.4956 -0.3037  0.3849
  985SOL    HW1 2954   1.316   1.674   1.367  1.4445 -0.9402  1.7198
  985SOL    HW2 2955   1.294   1.620   1.522  1.7020 -0.6118 -1.0101
  986SOL     OW 2956   2.108   2.947   2.461 -0.6790  0.0366  0.2064
  986SOL    HW1 2957   2.164   2.917   2.384  1.1602 -1.5136 -3.1339
  986SOL    HW2 2958   2.099   3.051   2.466  0.0302  4.5814  2.1099
  987SOL     OW 2959   2.518   1.725   2.593  0.1918 -0.0328  0.2626
  987SOL    HW1 2960   2.565   1.785   2.663 -3.2124 -0.4162  0.7603
  987SOL    HW2 2961   2.546   1.751   2.499 -1.9351  1.8269 -0.0634
  988SOL     OW 2962   2.722   0.508   1.602 -0.1653 -0.0733 -0.4891
  988SOL    HW1 2963   2.732   0.611   1.606  0.0148  1.6651 -0.4596
  988SOL    HW2 2964   2.734   0.465   1.510 -3.3470  0.4338  2.3202
  989SOL     OW 2965   1.705   1.292   1.552 -0.1397  0.0685 -0.3307
  989SOL    HW1 2966   1.677   1.384   1.533  2.2185 -1.6327  0.9385
  989SOL    HW2 2967   1.805   1.283   1.546 -2.2160  1.0652 -0.5913
  990SOL     OW 2968   2.939   1.053   3.041 -0.3137  0.2347 -0.2839
  990SOL    HW1 2969   2.847   1.016   0.003  3.4419 -0.5385  0.6628
  990SOL    HW2 2970   2.952   1.038   2.943  0.1099 -3.5085  4.6400
  991SOL     OW 2971   0.262   2.108   2.839  0.6053 -0.6576  1.0608
  991SOL    HW1 2972   0.248   2.048   2.919  0.8084 -2.4505  0.1573
  991SOL    HW2 2973   0.363   2.107   2.817  1.2856 -1.9648  2.3422
  992SOL     OW 2974   2.606   1.912   1.793  0.3497 -0.0813 -0.4059
  992SOL    HW1 2975   2.545   1.881   1.872  0.6852 -0.2048 -2.0484
  992SOL    HW2 2976   2.704   1.923   1.821 -2.7291 -1.5320 -1.5159
  993SOL     OW 2977   0.650   3.022   0.746 -0.2242 -0.3743 -0.7942
  993SOL    HW1 2978   0.682   3.007   0.650  3.8430 -0.0418 -1.4204
  993SOL    HW2 2979   0.715   0.003   0.804  0.7803  1.1833  3.1363
  994SOL     OW 2980   3.048   1.869   1.509  0.3411 -0.8972 -0.0572
  994SOL    HW1 2981   3.068   1.869   1.610 -2.2958  0.1728 -1.6552
  994SOL    HW2 2982   0.053   1.828   1.461 -0.7752  0.9053  1.3300
  995SOL     OW 2983   2.168   1.825   2.507  0.7351 -0.2974 -0.1832
  995SOL    HW1 2984   2.123   1.776   2.585  2.3941  2.3387 -0.7091
  995SOL    HW2 2985   2.104   1.898   2.478 -1.0781  1.6518  1.1055
  996SOL     OW 2986   2.009   1.754   2.962 -0.4346 -0.5408  0.1335
  996SOL    HW1 2987   1.955   1.791   3.038  1.6427 -0.3233 -0.5561
  996SOL    HW2 2988   2.107   1.784   2.966 -4.2622 -0.9131 -0.3161
  997SOL     OW 2989   1.044   1.396   1.521  0.7361 -0.2018 -0.4078
  997SOL    HW1 2990   1.103   1.312   1.526 -1.3038  0.2771  1.6666
  997SOL    HW2 2991   0.979   1.382   1.442  1.5866  0.4945  0.5488
  998SOL     OW 2992   2.710   2.113   0.931 -0.5918  0.0759  0.1725
  998SOL    HW1 2993   2.766   2.044   0.886 -0.9645  0.5184 -0.1452
  998SOL    HW2 2994   2.660   2.073   1.011  0.4737 -1.6832  2.0149
  999SOL     OW 2995   2.813   2.491   0.070 -0.3610 -0.2501  0.5701
  999SOL    HW1 2996   2.724   2.448   0.062  0.0818  0.8552 -3.1653
  999SOL    HW2 2997   2.809   2.590   0.047 -0.5740  0.2169  0.0430
 1000SOL     OW 2998   1.186   0.163   2.973 -0.0410  0.2325  0.2880
 1000SOL    HW1 2999   1.230   0.236   3.026 -2.5489 -0.6772 -1.0807
 1000SOL    HW2 3000   1.184   0.179   2.876  0.2820  0.6615  0.6132
   3.07182   3.07182   3.07182
