1000 SPC/Fw water molecules t= 168.00000 step= 168000
 3000
    1SOL     OW    1   2.451   2.788   0.719 -0.1801 -0.2488  0.3637
    1SOL    HW1    2   2.439   2.796   0.617 -1.8840 -2.3479 -0.0349
    1SOL    HW2    3   2.362   2.803   0.763  0.6366  0.7220  0.6596
    2SOL     OW    4   1.367   1.880   2.356 -0.0763  0.3243 -0.2515
    2SOL    HW1    5   1.304   1.828   2.297 -3.0311  1.4594 -2.4605
    2SOL    HW2    6   1.330   1.972   2.376 -1.4767 -0.2271  0.0016
    3SOL     OW    7   1.621   2.437   2.225 -0.0470 -0.1121  0.0045
    3SOL    HW1    8   1.707   2.491   2.247 -3.3890 -0.5558 -4.0963
    3SOL    HW2    9   1.570   2.492   2.151  0.3575  0.7892  3.2198
    4SOL     OW   10   1.973   1.979   2.063  0.2870 -0.4224  0.3569
    4SOL    HW1   11   2.024   2.055   2.110  0.2549  0.5555  0.8529
    4SOL    HW2   12   1.872   2.000   2.049 -3.6158 -1.2382  0.4200
    5SOL     OW   13   0.738   0.535   1.756 -0.0004  0.0666  0.4793
    5SOL    HW1   14   0.825   0.485   1.769 -1.8122 -0.2786  0.7986
    5SOL    HW2   15   0.727   0.603   1.827  0.0950 -0.8169 -2.7189
    6SOL     OW   16   2.425   1.003   2.877 -0.2227  0.3110  0.3103
    6SOL    HW1   17   2.459   0.977   2.783  0.0681 -0.0504 -0.8106
    6SOL    HW2   18   2.340   1.055   2.879 -0.9407 -0.6217  1.7449
    7SOL     OW   19   1.112   0.565   1.470 -0.1688 -0.1122 -0.1212
    7SOL    HW1   20   1.185   0.552   1.399  1.5334 -2.5692  2.0958
    7SOL    HW2   21   1.017   0.583   1.427 -2.4362  4.0063 -0.2236
    8SOL     OW   22   1.028   2.493   1.444  0.2431 -0.1112  0.2344
    8SOL    HW1   23   0.957   2.541   1.505  0.6488  3.4120  1.3568
    8SOL    HW2   24   1.121   2.534   1.451 -1.5707 -2.4447 -0.7058
    9SOL     OW   25   0.914   1.121   0.041 -0.1010  0.0974  0.1975
    9SOL    HW1   26   0.813   1.117   0.065 -2.2643 -0.3964 -0.2696
    9SOL    HW2   27   0.968   1.111   0.122 -2.7040 -0.9214 -2.7241
   10SOL     OW   28   0.543   2.910   0.284 -0.3359 -0.0722 -0.6140
   10SOL    HW1   29   0.633   2.872   0.261 -1.8384  0.5435  0.9978
   10SOL    HW2   30   0.496   2.843   0.349 -0.6878  1.4108  1.0849
   11SOL     OW   31   0.094   1.390   2.789  0.7104 -0.6674 -0.7519
   11SOL    HW1   32   0.184   1.392   2.741  1.0877  3.5460 -1.2638
   11SOL    HW2   33   0.101   1.400   2.890  0.3728  0.1016 -0.2810
   12SOL     OW   34   0.752   3.069   1.327 -0.3991 -0.5983  0.0611
   12SOL    HW1   35   0.693   3.056   1.242 -1.7910 -3.5151 -2.5855
   12SOL    HW2   36   0.690   3.112   1.399 -1.8147 -0.3229  2.8734
   13SOL     OW   37   0.491   3.045   0.523 -0.0366 -0.0235  0.4152
   13SOL    HW1   38   0.511   2.991   0.441  1.0394  0.6263  0.1925
   13SOL    HW2   39   0.496   0.023   0.493 -4.0200  1.0595 -3.5013
   14SOL     OW   40   1.135   1.996   1.056  0.1066 -0.5632  0.1674
   14SOL    HW1   41   1.105   1.991   1.157 -2.1162 -1.9081  1.2392
   14SOL    HW2   42   1.224   1.940   1.048  1.1897  1.8197 -0.0476
   15SOL     OW   43   2.564   0.766   2.395  0.2426  0.4178  0.1108
   15SOL    HW1   44   2.590   0.817   2.479  0.5330  1.0514 -1.5257
   15SOL    HW2   45   2.486   0.809   2.347 -0.2371  0.2084 -1.3792
   16SOL     OW   46   1.259   2.931   3.028  0.1162 -0.0577  0.2457
   16SOL    HW1   47   1.227   2.854   3.088 -1.6141 -0.0187  0.1811
   16SOL    HW2   48   1.315   2.897   2.949  1.9828 -0.2002  1.1140
   17SOL     OW   49   0.813   2.861   1.713  0.0231  0.0315 -0.4347
   17SOL    HW1   50   0.782   2.848   1.811  0.1019  0.6741  0.1868
   17SOL    HW2   51   0.904   2.915   1.711  1.2939 -0.1985  0.4288
   18SOL     OW   52   1.527   0.847   0.137  0.0254  0.2817  0.0376
   18SOL    HW1   53   1.556   0.858   0.036 -0.7121 -0.7590 -0.4384
   18SOL    HW2   54   1.530   0.749   0.155 -1.4831  1.8506 -1.2585
   19SOL     OW   55   2.099   1.799   2.772 -1.1242 -0.9910 -0.3777
   19SOL    HW1   56   2.199   1.821   2.790 -0.9203  2.1179 -1.6282
   19SOL    HW2   57   2.060   1.847   2.688 -0.3158 -1.0137 -0.0904
   20SOL     OW   58   2.150   1.927   1.866 -0.3203  0.3989 -0.4965
   20SOL    HW1   59   2.234   1.917   1.922 -3.4506 -1.8287  1.4647
   20SOL    HW2   60   2.071   1.921   1.931 -0.1441 -0.4571 -0.3105
   21SOL     OW   61   0.362   1.348   2.758 -0.0601  1.2377 -0.7949
   21SOL    HW1   62   0.401   1.372   2.849  1.3818 -2.2097 -1.6207
   21SOL    HW2   63   0.413   1.398   2.688  0.8622 -3.7630  2.4233
   22SOL     OW   64   2.659   0.014   1.453  0.6211  0.7064 -0.5639
   22SOL    HW1   65   2.689   3.098   1.368  0.5965  1.5971  1.8456
   22SOL    HW2   66   2.582   0.077   1.436  2.8181 -0.1027  0.3910
   23SOL     OW   67   2.895   0.813   1.817 -0.0995 -0.3821 -0.3076
   23SOL    HW1   68   2.873   0.843   1.723  2.8229  0.4201 -1.4516
   23SOL    HW2   69   2.950   0.726   1.817 -0.7571 -1.0597  2.4656
   24SOL     OW   70   2.779   1.951   1.406  0.3811  0.2536  0.3583
   24SOL    HW1   71   2.697   1.977   1.455  1.3025 -2.0244  0.5081
   24SOL    HW2   72   2.792   1.849   1.413 -0.3806  1.6331 -2.3194
   25SOL     OW   73   1.787   0.005   2.527 -0.1372 -0.7573 -0.2398
   25SOL    HW1   74   1.844   3.099   2.450 -3.1121 -4.5621  3.8268
   25SOL    HW2   75   1.789   3.043   2.584 -1.6711  1.9908 -1.7142
   26SOL     OW   76   1.225   0.015   0.210  0.2394 -0.2229 -0.4667
   26SOL    HW1   77   1.314   0.023   0.264  2.2840 -0.2253  0.0903
   26SOL    HW2   78   1.234   0.064   0.120 -1.2128 -0.1855  0.1157
   27SOL     OW   79   0.742   2.036   3.042  0.4664  0.2909  0.1986
   27SOL    HW1   80   0.697   1.948   3.062  0.5741 -2.0868  0.1180
   27SOL    HW2   81   0.846   2.036   3.052  1.4953  2.9871 -1.5773
   28SOL     OW   82   2.645   1.377   1.196 -0.0801  0.4136 -0.3706
   28SOL    HW1   83   2.642   1.477   1.171 -4.1400 -0.2318 -0.0176
   28SOL    HW2   84   2.734   1.371   1.254  2.0147 -1.1874  0.4024
   29SOL     OW   85   2.552   2.080   2.178 -0.3294 -0.2532 -0.2777
   29SOL    HW1   86   2.487   2.065   2.257 -1.2160 -1.2572 -1.9014
   29SOL    HW2   87   2.638   2.124   2.216  0.5279  1.1229  0.2770
   30SOL     OW   88   1.006   2.853   0.841 -0.0077 -0.2386 -0.6041
   30SOL    HW1   89   0.961   2.937   0.802  1.5373  0.1477 -1.3681
   30SOL    HW2   90   0.958   2.834   0.931  0.0971  0.6559 -2.4894
   31SOL     OW   91   0.002   2.420   1.934 -0.2109 -1.0275  0.5437
   31SOL    HW1   92   3.059   2.438   1.850 -2.2711 -1.6699 -3.4510
   31SOL    HW2   93   0.100   2.393   1.913  2.9398  0.3239  0.0238
   32SOL     OW   94   1.440   0.947   1.913  0.0340 -0.4061  0.5648
   32SOL    HW1   95   1.439   1.024   1.847  0.6651 -0.7981 -2.1861
   32SOL    HW2   96   1.523   0.938   1.972 -0.3049  3.7721  1.6222
   33SOL     OW   97   0.511   2.817   2.630  0.6629 -0.0376  0.5338
   33SOL    HW1   98   0.535   2.807   2.530 -0.8380 -1.8841 -1.8722
   33SOL    HW2   99   0.570   2.885   2.681  0.4751 -1.1911  1.6281
   34SOL     OW  100   1.797   3.098   1.375  0.2257  0.3824 -0.3805
   34SOL    HW1  101   1.756   3.000   1.393  0.9393 -3.0995 -1.6773
   34SOL    HW2  102   1.769   0.020   1.284  0.2632  2.7015 -0.7387
   35SOL     OW  103   2.358   0.821   1.164 -0.3363  0.0995 -0.1147
   35SOL    HW1  104   2.314   0.907   1.187  0.7974  1.5043 -3.6450
   35SOL    HW2  105   2.354   0.753   1.240  0.1215  1.3205 -2.8179
   36SOL     OW  106   2.517   2.573   2.264  0.4381 -0.9551 -0.0024
   36SOL    HW1  107   2.517   2.577   2.364 -0.6070 -3.1153  0.6489
   36SOL    HW2  108   2.489   2.662   2.221  1.0515 -3.3024  0.4006
   37SOL     OW  109   1.165   2.340   2.389  0.4007  0.0455 -0.3106
   37SOL    HW1  110   1.216   2.402   2.446 -0.0977 -2.3742 -2.9942
   37SOL    HW2  111   1.064   2.346   2.401 -0.9857  0.5355  0.3384
   38SOL     OW  112   2.451   0.305   3.103  0.6264 -0.0134 -0.3904
   38SOL    HW1  113   2.497   0.226   3.071 -0.3434  2.2728 -0.7346
   38SOL    HW2  114   2.410   0.360   3.029  3.2988 -1.7402  2.3632
   39SOL     OW  115   2.129   1.624   2.405  0.1088 -0.1608 -0.3403
   39SOL    HW1  116   2.061   1.684   2.358  2.7609  0.9104 -3.2654
   39SOL    HW2  117   2.086   1.535   2.432  0.0405  1.6275  0.4112
   40SOL     OW  118   0.199   3.059   2.485 -0.0630  0.1809 -0.7039
   40SOL    HW1  119   0.107   3.044   2.447  2.0313 -0.3387  3.1605
   40SOL    HW2  120   0.221   2.986   2.554  4.0532 -0.2436  0.1106
   41SOL     OW  121   1.705   0.438   1.426  0.2299 -0.2936 -0.2837
   41SOL    HW1  122   1.675   0.344   1.451  3.6628 -2.2778  2.9427
   41SOL    HW2  123   1.807   0.430   1.418  0.1442  1.8648 -0.8834
   42SOL     OW  124   0.745   0.192   1.675 -0.2060  0.1379 -0.0207
   42SOL    HW1  125   0.796   0.256   1.617 -1.1656  0.6770 -0.6605
   42SOL    HW2  126   0.682   0.127   1.622  0.3402  1.5085  2.0689
   43SOL     OW  127   1.728   0.454   1.796  0.2525 -0.2805 -0.1189
   43SOL    HW1  128   1.737   0.373   1.859  1.9302  0.7143  0.8235
   43SOL    HW2  129   1.811   0.462   1.739  0.5605  1.8130  0.9713
   44SOL     OW  130   0.193   2.970   2.911 -0.0045 -0.2602  0.3518
   44SOL    HW1  131   0.205   2.893   2.841 -2.6279 -0.2745 -1.2671
   44SOL    HW2  132   0.098   3.013   2.905 -2.4234  0.1695 -0.8406
   45SOL     OW  133   0.200   2.351   1.550 -0.3262 -0.0886  0.7300
   45SOL    HW1  134   0.195   2.401   1.637  0.1920 -0.7683  0.3473
   45SOL    HW2  135   0.294   2.310   1.553 -3.5923  1.3806 -0.2904
   46SOL     OW  136   2.283   2.045   2.377  0.1598  0.2104  0.2733
   46SOL    HW1  137   2.271   2.086   2.468  1.0984  1.9264  1.5849
   46SOL    HW2  138   2.289   1.943   2.385  1.4967  2.4512  2.2143
   47SOL     OW  139   1.910   1.952   1.618 -0.2247  0.4428  0.7342
   47SOL    HW1  140   1.941   2.048   1.611 -2.2614  0.2639 -1.5127
   47SOL    HW2  141   1.814   1.950   1.651  0.9256  3.6195  0.6566
   48SOL     OW  142   0.328   1.689   0.299 -0.3173  0.2704 -1.2600
   48SOL    HW1  143   0.392   1.771   0.298 -1.2579  2.2508 -0.8059
   48SOL    HW2  144   0.272   1.694   0.385 -2.2042 -0.2682 -0.2733
   49SOL     OW  145   2.745   0.371   2.513 -0.2476  0.2446 -0.0118
   49SOL    HW1  146   2.729   0.407   2.608 -1.4638  2.1652  4.2408
   49SOL    HW2  147   2.695   0.439   2.449 -0.2429 -0.1833 -0.7566
   50SOL     OW  148   1.946   0.701   0.855  0.1320  0.2663 -0.3344
   50SOL    HW1  149   1.972   0.790   0.901  1.8479 -0.7537  1.0418
   50SOL    HW2  150   1.907   0.714   0.759 -1.4444  1.1778 -2.3666
   51SOL     OW  151   1.266   0.655   0.967  0.1052 -0.0649 -0.8205
   51SOL    HW1  152   1.176   0.624   0.936  0.0282 -0.6647  0.9765
   51SOL    HW2  153   1.289   0.744   0.921  1.5466 -0.2870  0.6994
   52SOL     OW  154   1.364   1.279   3.085  0.5378  0.4002  0.2913
   52SOL    HW1  155   1.377   1.216   0.046  0.1039 -0.8352  2.7568
   52SOL    HW2  156   1.377   1.376   3.108 -0.3474 -0.1540 -0.3690
   53SOL     OW  157   1.468   2.197   2.911  0.5281 -0.5699 -0.0298
   53SOL    HW1  158   1.378   2.211   2.947 -0.7176  0.8609 -2.1691
   53SOL    HW2  159   1.495   2.267   2.840  0.3722  0.3090  0.1836
   54SOL     OW  160   1.997   0.396   1.403 -0.1348  0.1260  0.5509
   54SOL    HW1  161   1.994   0.315   1.344  2.0587 -2.1164  1.8050
   54SOL    HW2  162   2.092   0.438   1.397  1.1362  0.1761  3.3365
   55SOL     OW  163   2.142   2.751   0.627  0.0677  0.7815  0.2985
   55SOL    HW1  164   2.201   2.694   0.575 -1.8880  1.2102 -1.1755
   55SOL    HW2  165   2.045   2.732   0.597 -1.1536 -2.1290  0.3270
   56SOL     OW  166   0.890   2.830   1.320  0.0337 -0.1812  0.6023
   56SOL    HW1  167   0.883   2.756   1.386  0.2312 -0.3703  1.7317
   56SOL    HW2  168   0.833   2.909   1.354 -0.0638 -0.4795 -3.7486
   57SOL     OW  169   1.733   1.373   0.427 -0.0233  0.2317  0.7749
   57SOL    HW1  170   1.690   1.349   0.338 -0.9478  0.0634  1.5531
   57SOL    HW2  171   1.830   1.392   0.415 -0.2438 -0.3431 -0.6584
   58SOL     OW  172   0.303   1.053   2.238 -0.6942 -0.0399  0.6038
   58SOL    HW1  173   0.299   1.153   2.223 -0.3061  0.3847 -1.7597
   58SOL    HW2  174   0.223   1.016   2.294  1.4200  1.0145 -0.9057
   59SOL     OW  175   0.859   2.746   2.601  0.0600 -0.5666  0.0587
   59SOL    HW1  176   0.910   2.685   2.664 -0.9483  3.0479  1.9301
   59SOL    HW2  177   0.796   2.803   2.657 -0.0896 -0.4698 -0.1310
   60SOL     OW  178   2.429   2.526   1.014  0.3146  0.2077 -0.5180
   60SOL    HW1  179   2.346   2.526   0.956  1.7142 -1.6949  0.4052
   60SOL    HW2  180   2.396   2.525   1.111 -1.2726 -0.2437 -0.4441
   61SOL     OW  181   1.152   2.048   0.715  0.4544  0.2555 -0.0861
   61SOL    HW1  182   1.082   2.072   0.786 -1.0903  1.6288  1.7171
   61SOL    HW2  183   1.225   2.124   0.705  2.6042  1.5225  0.2202
   62SOL     OW  184   2.194   2.725   2.807  0.1453  0.6030  0.3008
   62SOL    HW1  185   2.217   2.645   2.865  0.2133 -3.3670  3.0930
   62SOL    HW2  186   2.185   2.811   2.860  2.1021 -2.2493 -0.7358
   63SOL     OW  187   2.262   0.700   0.115  0.1752 -0.5360 -0.4520
   63SOL    HW1  188   2.170   0.681   0.145 -2.1175 -0.8078  0.1923
   63SOL    HW2  189   2.335   0.638   0.156  1.3048  0.3430  0.8558
   64SOL     OW  190   0.998   1.029   2.907 -0.0659 -0.4553 -0.0133
   64SOL    HW1  191   1.049   1.109   2.865 -1.1580  2.9065  3.1837
   64SOL    HW2  192   0.944   1.063   2.985  1.9751 -2.1779 -0.8028
   65SOL     OW  193   1.254   2.449   0.323  0.7723  0.7857  0.0155
   65SOL    HW1  194   1.271   2.549   0.341  2.8904 -2.3869 -1.4301
   65SOL    HW2  195   1.316   2.386   0.377 -0.6604  0.8833 -0.5168
   66SOL     OW  196   0.769   1.134   1.792 -0.3964 -0.0350 -0.2196
   66SOL    HW1  197   0.840   1.060   1.806  0.0165 -0.5186 -2.2532
   66SOL    HW2  198   0.715   1.164   1.877 -3.0289 -0.6664  2.3720
   67SOL     OW  199   2.371   3.088   2.366 -0.0956 -0.3302 -0.0354
   67SOL    HW1  200   2.281   3.108   2.313  1.1023  1.1986  0.6827
   67SOL    HW2  201   2.409   0.056   2.393 -1.3873 -0.6658  0.0562
   68SOL     OW  202   0.887   1.357   1.325 -0.8687  0.6995  0.4471
   68SOL    HW1  203   0.922   1.260   1.340  1.0505  0.7082  1.3837
   68SOL    HW2  204   0.955   1.401   1.265 -4.1982 -1.6327  1.0290
   69SOL     OW  205   1.588   2.548   0.344 -0.2460  0.7487 -0.2490
   69SOL    HW1  206   1.540   2.637   0.321  0.2459  2.8611  1.1041
   69SOL    HW2  207   1.680   2.554   0.297  0.4343 -0.0836 -0.7174
   70SOL     OW  208   2.558   1.083   2.253 -0.2681  0.0858  0.2611
   70SOL    HW1  209   2.619   1.040   2.324  0.0606 -1.2770 -1.7978
   70SOL    HW2  210   2.472   1.024   2.250 -0.0594 -0.7716  0.4480
   71SOL     OW  211   3.027   1.662   2.927 -0.1778  0.0182 -0.1434
   71SOL    HW1  212   2.978   1.575   2.903  0.9099 -1.0248 -1.5268
   71SOL    HW2  213   3.005   1.695   3.022 -0.5190  1.3651  0.6802
   72SOL     OW  214   2.793   2.388   0.453  0.1286 -0.4866  0.6262
   72SOL    HW1  215   2.693   2.401   0.462 -0.6573 -0.6230  0.3945
   72SOL    HW2  216   2.818   2.362   0.355 -0.1294  0.5339 -0.6792
   73SOL     OW  217   0.617   1.471   0.536 -0.2131  0.1351  0.0909
   73SOL    HW1  218   0.646   1.480   0.438  1.4118  2.4574  0.4523
   73SOL    HW2  219   0.557   1.547   0.573 -2.4920  1.2438 -0.0488
   74SOL     OW  220   0.090   1.650   2.520  0.1481 -0.0483 -0.4086
   74SOL    HW1  221   0.097   1.745   2.481 -2.1388 -1.7777 -1.2499
   74SOL    HW2  222   0.077   1.668   2.622 -1.2695 -1.7276  2.5286
   75SOL     OW  223   1.678   1.385   1.677 -0.2792 -0.4654 -0.1362
   75SOL    HW1  224   1.717   1.444   1.601  0.1397  2.1602  0.4718
   75SOL    HW2  225   1.581   1.409   1.697 -1.1687 -1.7097  0.3767
   76SOL     OW  226   2.077   2.691   1.562  0.0027 -0.0587 -0.1580
   76SOL    HW1  227   2.149   2.645   1.615  0.7384 -0.5044  0.6103
   76SOL    HW2  228   2.043   2.769   1.621  0.5938  2.1255  0.0322
   77SOL     OW  229   2.763   0.940   1.183  0.2608  0.2954  0.3448
   77SOL    HW1  230   2.824   0.910   1.262 -0.7760 -0.4497 -0.2348
   77SOL    HW2  231   2.744   0.871   1.112 -0.9476  4.7272  0.7218
   78SOL     OW  232   1.434   1.013   0.641  0.3218 -0.2721 -0.1770
   78SOL    HW1  233   1.447   1.120   0.636  0.6712  1.7857 -0.5704
   78SOL    HW2  234   1.502   0.960   0.581  3.1720 -0.5506 -3.5556
   79SOL     OW  235   3.119   1.528   1.806 -0.2448 -0.6707  0.1283
   79SOL    HW1  236   0.057   1.510   1.721 -0.5498 -0.7512  1.8651
   79SOL    HW2  237   3.037   1.469   1.804  1.5593 -1.0354 -0.3202
   80SOL     OW  238   1.414   0.824   1.578 -0.4241 -0.2252 -0.2047
   80SOL    HW1  239   1.341   0.789   1.639  2.4836  0.1801 -0.5586
   80SOL    HW2  240   1.428   0.756   1.503 -0.8708  2.5030  1.0386
   81SOL     OW  241   0.674   0.150   1.015 -0.1842 -0.2310 -0.1280
   81SOL    HW1  242   0.696   0.147   0.912  0.0751  0.7480 -1.2516
   81SOL    HW2  243   0.600   0.089   1.036  3.7556  1.8301 -0.5839
   82SOL     OW  244   1.544   2.736   1.515  0.6304  0.2999  0.1108
   82SOL    HW1  245   1.456   2.788   1.522  0.0269 -0.6721  2.5977
   82SOL    HW2  246   1.604   2.780   1.446  0.0550  1.3183 -0.2952
   83SOL     OW  247   0.969   2.133   0.917 -0.5983 -0.0332 -0.0820
   83SOL    HW1  248   0.882   2.105   0.953  1.1342  1.1620 -0.7939
   83SOL    HW2  249   1.040   2.102   0.981 -0.7441 -0.5898 -0.8371
   84SOL     OW  250   0.529   1.480   2.599  0.1029 -0.4612  0.4036
   84SOL    HW1  251   0.460   1.515   2.530 -0.3884 -0.8849 -0.3987
   84SOL    HW2  252   0.619   1.470   2.551 -3.1552  0.2392 -0.6588
   85SOL     OW  253   0.079   2.128   1.401  0.6257  0.0147  0.2294
   85SOL    HW1  254   3.097   2.128   1.429 -0.7384 -0.8433 -0.5646
   85SOL    HW2  255   0.131   2.187   1.468 -0.4537  2.2778  1.7476
   86SOL     OW  256   2.421   2.257   1.312 -0.0731 -0.3859  0.0690
   86SOL    HW1  257   2.373   2.189   1.372  1.0805  1.6269 -0.0303
   86SOL    HW2  258   2.388   2.349   1.328  0.3052  0.8920 -0.2633
   87SOL     OW  259   2.818   2.337   0.175  0.8287 -0.8236 -0.1968
   87SOL    HW1  260   2.729   2.283   0.176 -0.6228 -0.3064  1.3630
   87SOL    HW2  261   2.904   2.283   0.170 -0.1227  1.3772  0.8907
   88SOL     OW  262   0.658   1.488   1.393 -0.2112 -0.0067  0.6399
   88SOL    HW1  263   0.622   1.553   1.326  0.3533  0.0818  0.3277
   88SOL    HW2  264   0.739   1.442   1.356 -1.7248  1.4151 -0.3717
   89SOL     OW  265   1.090   3.040   2.007 -0.4100  0.2886 -0.4180
   89SOL    HW1  266   1.036   2.951   2.012  2.4354 -1.3363 -0.2100
   89SOL    HW2  267   1.037   3.115   1.964 -1.2969 -2.8430 -1.0215
   90SOL     OW  268   3.014   1.726   1.157  0.1339 -0.3923  0.1320
   90SOL    HW1  269   2.912   1.746   1.148 -1.8109 -0.4453 -0.2493
   90SOL    HW2  270   3.037   1.665   1.235  0.6227 -2.1946  0.9755
   91SOL     OW  271   1.390   1.923   1.093 -0.0087 -0.6813 -0.1541
   91SOL    HW1  272   1.377   1.918   1.195  0.0918  2.4134 -0.0290
   91SOL    HW2  273   1.480   1.886   1.069 -0.0954 -0.5245  0.7901
   92SOL     OW  274   2.462   2.480   1.535 -0.4221  0.0411  1.1116
   92SOL    HW1  275   2.488   2.570   1.573  2.5930 -0.4277 -0.6241
   92SOL    HW2  276   2.532   2.434   1.480 -0.8595 -0.6246 -1.0083
   93SOL     OW  277   2.692   1.559   2.656 -0.2465  0.0749 -0.2788
   93SOL    HW1  278   2.631   1.499   2.601  1.2009  0.6422 -1.1629
   93SOL    HW2  279   2.780   1.518   2.673 -2.2807  2.2473  0.7376
   94SOL     OW  280   2.824   2.766   2.090  0.0285 -0.2932  0.0245
   94SOL    HW1  281   2.806   2.792   2.184  3.8263 -2.4193 -1.9369
   94SOL    HW2  282   2.926   2.737   2.083  1.0788  0.2440  0.0557
   95SOL     OW  283   1.748   0.075   1.709  0.3781  0.2886  0.2070
   95SOL    HW1  284   1.757   0.133   1.795 -0.0054  2.3538  0.8464
   95SOL    HW2  285   1.668   0.009   1.710 -2.0962  1.0726 -1.6971
   96SOL     OW  286   3.105   2.906   1.575 -0.0042 -0.2051  0.5819
   96SOL    HW1  287   3.056   2.980   1.623 -1.2358 -0.9405 -1.2058
   96SOL    HW2  288   3.055   2.851   1.509  0.5972 -2.0914  1.7788
   97SOL     OW  289   2.340   0.349   1.590  0.1892  0.4646  0.2514
   97SOL    HW1  290   2.250   0.346   1.636  1.3147 -2.1079 -2.1412
   97SOL    HW2  291   2.408   0.381   1.658  0.1813  2.3467  1.9415
   98SOL     OW  292   1.703   2.529   1.475 -0.0095  0.0356  0.0412
   98SOL    HW1  293   1.793   2.567   1.434  2.7558  0.9062  0.9892
   98SOL    HW2  294   1.639   2.603   1.503  0.4638  2.0470  0.3115
   99SOL     OW  295   3.107   2.841   1.865  0.2141  0.1841 -0.2925
   99SOL    HW1  296   0.008   2.841   1.761 -0.2881  1.8613  1.5282
   99SOL    HW2  297   0.000   2.933   1.908 -1.7673 -0.2318  0.5549
  100SOL     OW  298   2.791   1.132   2.115  0.4264 -0.6009  0.6790
  100SOL    HW1  299   2.837   1.217   2.129 -1.0727 -1.4693  0.0349
  100SOL    HW2  300   2.700   1.132   2.165 -1.5367 -2.0309 -0.8637
  101SOL     OW  301   1.678   0.550   0.458  0.0198 -0.2318  0.2754
  101SOL    HW1  302   1.587   0.573   0.419  2.1280 -1.2200  1.1570
  101SOL    HW2  303   1.712   0.631   0.510 -1.0729  0.4740 -2.2691
  102SOL     OW  304   0.112   0.675   1.543  0.5630 -0.0736 -0.5708
  102SOL    HW1  305   0.187   0.609   1.568  2.2864  0.5113  0.5902
  102SOL    HW2  306   0.141   0.767   1.578  1.6683  0.5448 -2.5269
  103SOL     OW  307   2.235   0.689   2.958 -0.1447 -0.0516 -0.3221
  103SOL    HW1  308   2.245   0.700   3.059 -0.8192  2.3333  1.1415
  103SOL    HW2  309   2.198   0.774   2.922 -0.8864 -2.7983 -0.7824
  104SOL     OW  310   0.009   0.177   2.152  0.1376  0.0028 -0.5970
  104SOL    HW1  311   0.067   0.247   2.104  1.5140 -2.7310 -0.7230
  104SOL    HW2  312   0.016   0.194   2.256  0.6367  1.3614 -0.1982
  105SOL     OW  313   1.962   0.825   1.667  0.3266  0.3929  0.0135
  105SOL    HW1  314   1.882   0.891   1.670 -2.2204 -2.2592 -2.9404
  105SOL    HW2  315   2.020   0.851   1.586  0.6413  0.4293 -0.5514
  106SOL     OW  316   1.375   3.115   0.984 -0.0748  0.0142 -0.0255
  106SOL    HW1  317   1.315   0.080   0.974  2.1275 -0.1138 -0.7185
  106SOL    HW2  318   1.394   3.092   1.083 -1.0951  0.0165  1.3839
  107SOL     OW  319   0.268   1.318   0.778 -0.7504 -0.5962  0.3823
  107SOL    HW1  320   0.283   1.328   0.676  2.5843  0.9295  1.2896
  107SOL    HW2  321   0.173   1.295   0.792  3.7699 -0.8257 -2.2448
  108SOL     OW  322   0.014   0.235   2.414  0.0975  0.1304  0.2905
  108SOL    HW1  323   3.066   0.193   2.479  0.2981  2.0568  0.5003
  108SOL    HW2  324   0.098   0.258   2.463 -0.5486  1.2467  0.8284
  109SOL     OW  325   2.587   0.204   0.428 -0.1874 -0.0296 -0.0658
  109SOL    HW1  326   2.516   0.244   0.366 -0.7865  1.5854 -0.3554
  109SOL    HW2  327   2.677   0.246   0.406 -0.0757  2.1922  2.5094
  110SOL     OW  328   0.401   2.380   2.984  0.1572  0.5501  0.5347
  110SOL    HW1  329   0.308   2.336   2.980 -1.3820 -0.1532  1.4888
  110SOL    HW2  330   0.412   2.450   2.912  3.6742 -0.0418 -1.4150
  111SOL     OW  331   1.785   2.943   2.000  0.1781 -0.1767 -0.5346
  111SOL    HW1  332   1.807   2.879   1.925 -1.5322  2.1064 -1.7140
  111SOL    HW2  333   1.866   2.966   2.052  1.7282  1.1579 -0.3652
  112SOL     OW  334   2.291   2.521   2.973  0.2090  0.6549 -0.1896
  112SOL    HW1  335   2.209   2.460   2.989 -1.5838 -1.0250  2.1522
  112SOL    HW2  336   2.371   2.488   3.026 -0.1435  0.0320  0.4404
  113SOL     OW  337   2.863   2.157   1.740 -0.1449  0.1461 -0.1314
  113SOL    HW1  338   2.941   2.171   1.809 -0.2765 -0.0208  4.6677
  113SOL    HW2  339   2.782   2.210   1.765 -2.4434 -3.8494 -2.6058
  114SOL     OW  340   2.673   0.780   1.000 -0.1634 -0.0670 -0.4995
  114SOL    HW1  341   2.574   0.769   0.965 -2.3984  1.3364 -1.3669
  114SOL    HW2  342   2.716   0.691   1.025 -2.0263 -0.5163 -2.3800
  115SOL     OW  343   2.948   1.735   0.066 -0.2403  0.1745 -0.3602
  115SOL    HW1  344   3.008   1.670   0.118 -1.3140 -0.4795 -0.6140
  115SOL    HW2  345   2.966   1.834   0.091  1.1407  2.6386 -2.2278
  116SOL     OW  346   0.186   1.400   1.981 -0.1165  0.1848  0.3519
  116SOL    HW1  347   0.256   1.427   1.914 -3.6464 -0.3232  2.5881
  116SOL    HW2  348   0.097   1.441   1.955 -0.6524  0.9846 -0.9232
  117SOL     OW  349   2.570   3.013   0.846  0.6421  0.1461 -0.1533
  117SOL    HW1  350   2.526   2.929   0.807  0.0207  1.5989  0.4338
  117SOL    HW2  351   2.632   3.060   0.778 -1.1280 -0.0532  1.4135
  118SOL     OW  352   0.443   2.221   1.559 -0.2249 -0.4189  0.2497
  118SOL    HW1  353   0.424   2.194   1.463  0.2081 -2.8710 -0.3110
  118SOL    HW2  354   0.539   2.229   1.581 -0.7981 -2.1826  0.6732
  119SOL     OW  355   1.475   2.323   0.453  0.1384 -0.5904 -0.2062
  119SOL    HW1  356   1.521   2.231   0.458  0.3987  1.1377  0.3362
  119SOL    HW2  357   1.529   2.396   0.406  0.3959 -0.2761 -2.3090
  120SOL     OW  358   0.140   1.876   2.368 -0.2651 -0.0381 -0.0662
  120SOL    HW1  359   0.071   1.892   2.296  0.4885  1.6713  2.7693
  120SOL    HW2  360   0.231   1.920   2.333  0.9431  0.5205 -2.0421
  121SOL     OW  361   2.200   2.100   1.390  0.0621 -0.3188  0.2662
  121SOL    HW1  362   2.178   2.003   1.386  0.0569  3.0774  2.0355
  121SOL    HW2  363   2.126   2.163   1.349 -0.9246  3.2351 -1.5886
  122SOL     OW  364   2.332   1.793   2.391  0.3047 -0.0702 -0.1938
  122SOL    HW1  365   2.423   1.753   2.416  6.6609 -0.8765  1.9427
  122SOL    HW2  366   2.254   1.729   2.414 -1.5621 -0.3859 -2.0296
  123SOL     OW  367   0.021   2.960   0.790 -0.5278  0.2098 -0.5341
  123SOL    HW1  368   3.079   3.044   0.793  0.7092  2.3537 -1.3373
  123SOL    HW2  369   3.095   2.874   0.763  1.4318  0.1700  1.8885
  124SOL     OW  370   1.626   0.747   2.495  0.2862  0.1722  0.3183
  124SOL    HW1  371   1.674   0.791   2.412 -0.8643  0.2932 -2.1982
  124SOL    HW2  372   1.627   0.816   2.572 -0.2634 -0.7431 -1.0134
  125SOL     OW  373   0.455   1.416   2.994 -0.3970  0.4091  0.6872
  125SOL    HW1  374   0.547   1.389   2.955 -0.0409  1.6204 -2.0633
  125SOL    HW2  375   0.440   1.364   3.078  1.4827  0.0696 -3.1194
  126SOL     OW  376   2.600   2.021   0.345 -0.5444 -0.6820 -0.4636
  126SOL    HW1  377   2.564   2.090   0.272  0.5706  0.8952 -2.9754
  126SOL    HW2  378   2.550   2.039   0.435  0.2841  0.6516  0.4687
  127SOL     OW  379   0.525   1.667   1.193 -0.4337 -1.2146  0.2308
  127SOL    HW1  380   0.492   1.767   1.184  0.2375  1.0252  1.4118
  127SOL    HW2  381   0.448   1.610   1.178  2.1968  4.0419 -2.6250
  128SOL     OW  382   0.745   0.810   0.139 -0.6746  0.5783 -0.0767
  128SOL    HW1  383   0.798   0.777   0.058 -1.8991  2.7153  2.5119
  128SOL    HW2  384   0.733   0.909   0.147 -0.2524 -0.8266 -0.6838
  129SOL     OW  385   2.316   1.402   0.767 -0.1855 -0.1890  0.0409
  129SOL    HW1  386   2.227   1.443   0.805 -3.3746 -1.3450 -0.4618
  129SOL    HW2  387   2.340   1.308   0.802 -0.2337 -2.6450 -1.1433
  130SOL     OW  388   2.184   1.752   1.102 -0.9488 -0.2730 -0.4457
  130SOL    HW1  389   2.192   1.806   1.015  0.5356  1.1301  0.5264
  130SOL    HW2  390   2.117   1.678   1.096  0.3863  3.7656  0.7597
  131SOL     OW  391   2.821   1.151   2.845 -0.0030  0.1799 -0.8097
  131SOL    HW1  392   2.778   1.115   2.932 -1.5795 -1.2085  3.3346
  131SOL    HW2  393   2.922   1.133   2.839 -1.2351 -0.0207  2.0487
  132SOL     OW  394   2.804   1.631   1.722  0.2087 -0.1212 -0.0374
  132SOL    HW1  395   2.825   1.720   1.762  0.0156  0.7094 -2.6164
  132SOL    HW2  396   2.824   1.562   1.791 -0.0441  0.1018  2.0757
  133SOL     OW  397   2.991   0.707   0.389 -0.3533  0.3602  0.3142
  133SOL    HW1  398   3.076   0.651   0.413  2.9121  0.8480  0.6388
  133SOL    HW2  399   2.919   0.691   0.463 -4.1503 -0.2594  0.2354
  134SOL     OW  400   0.221   1.070   0.040  0.5358  0.0699  0.3319
  134SOL    HW1  401   0.136   1.092   0.092  0.0830 -0.8125 -0.0802
  134SOL    HW2  402   0.189   1.010   3.087 -1.2865 -0.0477  1.1134
  135SOL     OW  403   2.098   1.696   0.663 -0.1295  0.6112 -0.0434
  135SOL    HW1  404   2.068   1.615   0.719  0.0567  0.9643  0.0154
  135SOL    HW2  405   2.036   1.702   0.586  3.7252  2.2026  1.4663
  136SOL     OW  406   1.912   1.456   1.126  0.4838  0.0749  0.3192
  136SOL    HW1  407   1.899   1.423   1.225 -1.3817 -1.4818  2.7641
  136SOL    HW2  408   1.908   1.558   1.129  2.4881 -1.1267 -1.1470
  137SOL     OW  409   2.471   1.646   0.773  0.2610  0.1418  0.2473
  137SOL    HW1  410   2.402   1.575   0.759  2.8717  3.4445 -0.6667
  137SOL    HW2  411   2.525   1.631   0.853 -0.9537  1.0809  0.3713
  138SOL     OW  412   1.470   0.297   1.722 -0.0181 -0.0837  0.1443
  138SOL    HW1  413   1.496   0.399   1.732  0.5456  2.7787 -0.1615
  138SOL    HW2  414   1.519   0.261   1.638  4.3858 -2.5559  1.4491
  139SOL     OW  415   1.912   0.166   3.105  0.2996 -0.1683 -0.0804
  139SOL    HW1  416   1.972   0.236   3.062 -0.4996  0.4796  1.8787
  139SOL    HW2  417   1.920   0.157   0.085 -2.0260  0.3662 -1.7995
  140SOL     OW  418   1.492   2.241   2.526 -0.1370 -0.5663 -0.6373
  140SOL    HW1  419   1.410   2.178   2.519  1.5237 -2.0664 -0.8894
  140SOL    HW2  420   1.556   2.216   2.447 -1.7338 -3.3672 -1.5977
  141SOL     OW  421   1.175   1.286   1.608 -0.2912 -0.9064 -0.0190
  141SOL    HW1  422   1.092   1.252   1.567 -0.9134  0.8070 -1.2281
  141SOL    HW2  423   1.152   1.380   1.644 -2.1227  2.3398  1.4573
  142SOL     OW  424   2.609   0.118   2.974  0.3344  0.4370  0.4374
  142SOL    HW1  425   2.568   0.051   3.039  2.8632  0.9440  1.0416
  142SOL    HW2  426   2.709   0.133   2.987 -0.7664  0.8565  0.5214
  143SOL     OW  427   0.718   2.483   2.924 -0.2046  0.1933 -0.3455
  143SOL    HW1  428   0.676   2.521   3.008 -0.0418 -0.9925  0.1711
  143SOL    HW2  429   0.806   2.531   2.907  0.1589 -4.8293 -0.6548
  144SOL     OW  430   1.010   2.834   2.349 -0.1626 -0.6069 -0.0500
  144SOL    HW1  431   0.989   2.800   2.444 -0.9914 -0.0018  1.7656
  144SOL    HW2  432   1.094   2.891   2.362 -1.0656 -0.1310 -0.1543
  145SOL     OW  433   2.537   1.475   0.231  0.0316 -0.4657  0.1180
  145SOL    HW1  434   2.606   1.402   0.210  0.4201 -0.3208 -2.1752
  145SOL    HW2  435   2.572   1.573   0.213  1.7175  3.7382  1.0107
  146SOL     OW  436   2.755   2.971   2.871 -0.2449  0.1458 -0.8555
  146SOL    HW1  437   2.700   3.056   2.866 -0.7378  1.1784  2.8984
  146SOL    HW2  438   2.809   2.960   2.958  1.1430 -1.1960  2.0594
  147SOL     OW  439   2.256   2.245   1.084 -0.0177  0.2689  0.0306
  147SOL    HW1  440   2.208   2.334   1.099 -1.5993  1.4873  3.4601
  147SOL    HW2  441   2.288   2.206   1.173 -1.1211 -1.6510  3.0612
  148SOL     OW  442   1.656   0.072   3.100  0.8701  0.1348 -0.2840
  148SOL    HW1  443   1.616   0.095   0.075 -2.3134  1.1283  2.8584
  148SOL    HW2  444   1.741   0.124   3.094 -1.7603  0.5748  0.9746
  149SOL     OW  445   0.935   1.336   2.815  0.0578  0.2114 -0.5718
  149SOL    HW1  446   1.028   1.298   2.842 -0.5948  0.6099  2.3254
  149SOL    HW2  447   0.943   1.383   2.724  0.0532  0.8730  0.1281
  150SOL     OW  448   0.640   2.683   0.680 -0.0783  0.3201 -0.5332
  150SOL    HW1  449   0.688   2.719   0.595  0.8168 -0.8205  0.1419
  150SOL    HW2  450   0.542   2.661   0.656 -0.2917 -1.4198 -3.2751
  151SOL     OW  451   0.395   1.887   3.040  0.0825 -0.2145 -0.2707
  151SOL    HW1  452   0.335   1.817   3.002  0.5544  0.0730  1.2609
  151SOL    HW2  453   0.487   1.853   3.068 -2.0865 -0.7229  0.4181
  152SOL     OW  454   3.087   0.955   0.413 -0.4850  0.2046  0.5670
  152SOL    HW1  455   3.088   0.970   0.514 -1.0108  1.3551  0.3628
  152SOL    HW2  456   3.048   0.866   0.386 -1.4278  0.4264  1.0916
  153SOL     OW  457   2.675   2.577   3.011 -0.1623 -0.3549  0.2810
  153SOL    HW1  458   2.733   2.620   3.086  2.8666  1.6343  1.0191
  153SOL    HW2  459   2.645   2.648   2.941 -0.5285  1.2043 -0.5001
  154SOL     OW  460   0.566   3.022   1.139  0.1856 -0.2698  0.1636
  154SOL    HW1  461   0.575   3.008   1.039 -0.2873  0.4047 -0.4159
  154SOL    HW2  462   0.487   2.976   1.179  1.8569 -1.3314  1.7565
  155SOL     OW  463   0.401   1.902   1.153 -0.0262  0.3947  0.1660
  155SOL    HW1  464   0.384   1.911   1.052 -0.1094 -2.5827 -0.5128
  155SOL    HW2  465   0.315   1.873   1.204 -3.2446  0.2425  1.8261
  156SOL     OW  466   2.658   2.349   2.851  0.2409  0.7142 -0.0578
  156SOL    HW1  467   2.750   2.306   2.852  3.1502  0.3841 -1.8201
  156SOL    HW2  468   2.677   2.442   2.880  0.5467  0.2463 -1.1000
  157SOL     OW  469   0.938   2.504   1.187  0.4685 -0.2068  0.2308
  157SOL    HW1  470   0.839   2.514   1.186  4.6341  0.6755 -0.8045
  157SOL    HW2  471   0.970   2.475   1.278  0.3189 -0.9646 -1.6263
  158SOL     OW  472   1.855   0.867   2.766  0.3321 -0.2836 -0.1128
  158SOL    HW1  473   1.807   0.776   2.772  1.0841 -1.6113  1.7196
  158SOL    HW2  474   1.787   0.944   2.755 -2.6397  1.0411 -0.2585
  159SOL     OW  475   1.031   0.468   2.405 -0.1432 -0.2116  0.3875
  159SOL    HW1  476   0.938   0.502   2.414  0.5137  0.9781  2.7342
  159SOL    HW2  477   1.083   0.489   2.490 -2.1871 -1.3209 -0.5280
  160SOL     OW  478   1.006   1.944   0.529 -0.1119  0.4450 -0.6135
  160SOL    HW1  479   1.066   1.982   0.597 -1.3284 -0.4233 -0.3077
  160SOL    HW2  480   0.978   1.847   0.556  1.5352 -0.9342  0.4784
  161SOL     OW  481   3.054   2.176   0.175 -0.2597 -0.4008 -0.2741
  161SOL    HW1  482   3.052   2.070   0.172  0.9094  1.0417 -0.1066
  161SOL    HW2  483   3.101   2.211   0.263  1.6393  1.0443 -2.7983
  162SOL     OW  484   0.566   2.651   1.047  0.4528  0.1054 -0.1671
  162SOL    HW1  485   0.628   2.722   1.006  1.2731  1.8877  0.3708
  162SOL    HW2  486   0.582   2.636   1.145 -1.3639 -0.4358  0.9527
  163SOL     OW  487   2.402   0.955   0.156 -0.2479 -0.6908 -0.1698
  163SOL    HW1  488   2.441   1.000   0.076  0.5453 -0.2352 -0.6839
  163SOL    HW2  489   2.370   0.867   0.130 -0.2922 -1.6664  0.3298
  164SOL     OW  490   0.142   2.904   0.171  0.3432 -0.1139 -0.5587
  164SOL    HW1  491   0.118   2.809   0.166 -0.9667  2.6468 -1.4055
  164SOL    HW2  492   0.235   2.917   0.135 -0.5026 -0.4892 -2.0653
  165SOL     OW  493   2.255   0.486   1.371 -0.1851 -0.9675 -0.1346
  165SOL    HW1  494   2.284   0.442   1.458 -0.2090 -1.1390  0.7744
  165SOL    HW2  495   2.260   0.586   1.390  1.4916 -1.1884  0.7809
  166SOL     OW  496   2.011   0.273   0.984 -0.3608 -0.4651  0.4907
  166SOL    HW1  497   2.088   0.291   1.049  0.8179  0.6554  1.9838
  166SOL    HW2  498   1.992   0.176   0.986 -0.0355  3.2422  2.3052
  167SOL     OW  499   0.445   0.763   1.621  0.2772 -0.5050  0.0047
  167SOL    HW1  500   0.382   0.700   1.569  0.5841 -0.0244  0.3488
  167SOL    HW2  501   0.406   0.798   1.708  1.0063  0.0838 -1.2121
  168SOL     OW  502   2.913   3.119   2.239  0.2920 -0.4672  0.3366
  168SOL    HW1  503   2.811   0.002   2.217 -1.7405  1.6275  1.3862
  168SOL    HW2  504   2.962   0.076   2.194 -1.7815  2.1304  1.0627
  169SOL     OW  505   3.108   1.421   0.456  0.3482 -0.3265  0.5290
  169SOL    HW1  506   0.069   1.398   0.516  3.9383  0.5243  0.2930
  169SOL    HW2  507   3.031   1.358   0.484  0.0597 -1.8284 -1.2159
  170SOL     OW  508   3.110   0.608   1.799  0.6949  0.3693 -0.0244
  170SOL    HW1  509   0.043   0.644   1.721  0.5322  0.3519 -1.1220
  170SOL    HW2  510   3.052   0.525   1.775 -2.4734  0.0732 -0.1955
  171SOL     OW  511   1.176   1.987   1.910  0.1951  0.8407  1.0559
  171SOL    HW1  512   1.159   2.045   1.988 -1.8783 -1.1170 -0.5064
  171SOL    HW2  513   1.156   2.035   1.822 -1.5280  0.6646  0.2369
  172SOL     OW  514   0.702   2.262   1.258  0.2328 -0.3715  0.2688
  172SOL    HW1  515   0.616   2.214   1.291 -0.8974  1.3121 -0.6483
  172SOL    HW2  516   0.717   2.253   1.159  0.8154 -4.1558  1.5163
  173SOL     OW  517   1.085   0.227   0.396  0.0017  0.1770  0.4573
  173SOL    HW1  518   0.991   0.190   0.423  0.1276  0.1344  0.7781
  173SOL    HW2  519   1.083   0.250   0.299 -0.0155 -1.5030 -0.7474
  174SOL     OW  520   0.839   2.937   3.094 -0.3584 -0.1430 -0.0567
  174SOL    HW1  521   0.790   3.021   3.060 -0.6466  3.0533 -2.1718
  174SOL    HW2  522   0.907   2.914   3.022 -3.0118 -0.0329  1.6527
  175SOL     OW  523   1.170   0.837   3.015  0.1061 -0.3878  0.4299
  175SOL    HW1  524   1.198   0.835   3.115  1.5244 -0.6404  0.8160
  175SOL    HW2  525   1.096   0.902   2.999  1.6501 -1.8207 -0.9104
  176SOL     OW  526   1.446   0.647   0.342 -0.1292  0.3349  0.7823
  176SOL    HW1  527   1.425   0.548   0.316 -1.3792 -0.6012 -1.0865
  176SOL    HW2  528   1.363   0.703   0.365 -2.1328 -2.0248 -0.7640
  177SOL     OW  529   1.306   0.916   0.856 -0.4881  0.0261 -0.4323
  177SOL    HW1  530   1.362   0.951   0.777  1.1633 -1.8627  0.7054
  177SOL    HW2  531   1.220   0.975   0.872 -1.1174 -1.2833  2.1889
  178SOL     OW  532   2.724   1.832   2.686  0.4351 -0.0200  0.1118
  178SOL    HW1  533   2.720   1.731   2.671  1.8376 -0.6502  1.3715
  178SOL    HW2  534   2.631   1.871   2.656 -1.4143 -1.3890 -1.8588
  179SOL     OW  535   0.724   2.956   2.715 -0.1417 -0.0926  0.5558
  179SOL    HW1  536   0.739   3.014   2.796  0.1691  0.5020 -0.0376
  179SOL    HW2  537   0.778   2.998   2.642  2.6831  1.2951  4.3073
  180SOL     OW  538   1.798   1.548   1.499 -0.2190  0.3178 -0.3766
  180SOL    HW1  539   1.840   1.469   1.440 -0.3984 -2.0263 -1.9288
  180SOL    HW2  540   1.798   1.640   1.452  0.8571 -1.6660 -0.2153
  181SOL     OW  541   1.308   1.558   2.215  0.3684  0.0873  0.6785
  181SOL    HW1  542   1.329   1.627   2.148  2.5650  1.1649  1.2560
  181SOL    HW2  543   1.395   1.515   2.252  0.8065 -0.0229 -0.4901
  182SOL     OW  544   2.970   0.606   2.592  0.3909 -0.0895 -0.2392
  182SOL    HW1  545   2.874   0.597   2.632 -2.0384 -4.6047  0.6972
  182SOL    HW2  546   2.988   0.557   2.505 -0.0852  1.6651 -1.0009
  183SOL     OW  547   1.595   3.013   2.867 -0.2599  0.0506 -0.4195
  183SOL    HW1  548   1.685   2.994   2.825 -0.6051  2.6634  0.3830
  183SOL    HW2  549   1.594   3.103   2.913  1.7561 -0.7018 -2.4813
  184SOL     OW  550   0.580   0.464   1.536 -0.0337 -0.0792 -0.1189
  184SOL    HW1  551   0.625   0.499   1.623  1.4912 -2.4142  2.9935
  184SOL    HW2  552   0.492   0.521   1.528 -3.5728  0.4932  1.2820
  185SOL     OW  553   2.752   1.103   0.789 -0.0908 -0.3389 -0.0012
  185SOL    HW1  554   2.734   1.195   0.750  0.5427 -2.0312 -0.4101
  185SOL    HW2  555   2.737   1.106   0.889  1.5862  0.4910  0.9126
  186SOL     OW  556   0.424   1.913   2.745 -0.3984 -0.1209 -0.0317
  186SOL    HW1  557   0.321   1.919   2.733 -2.3515 -0.5827  0.0920
  186SOL    HW2  558   0.445   1.932   2.843 -2.0730 -3.2918  2.1486
  187SOL     OW  559   2.695   1.240   0.194 -0.0621 -0.0511 -0.6570
  187SOL    HW1  560   2.791   1.277   0.185 -0.4470  2.9464  1.3357
  187SOL    HW2  561   2.653   1.215   0.104 -1.2003 -1.0084 -0.0370
  188SOL     OW  562   0.403   2.158   0.536  0.1971  0.4408 -0.5570
  188SOL    HW1  563   0.483   2.170   0.478 -2.5950  0.6261  2.5936
  188SOL    HW2  564   0.327   2.215   0.509 -0.9130 -2.9262 -1.2227
  189SOL     OW  565   2.560   0.832   0.326  0.6038  0.1484 -0.9696
  189SOL    HW1  566   2.512   0.898   0.262 -1.0872  0.1479  0.4752
  189SOL    HW2  567   2.586   0.882   0.411 -0.0974  0.4830 -1.1196
  190SOL     OW  568   1.036   1.631   2.200  0.2540  0.0013 -0.0264
  190SOL    HW1  569   1.132   1.597   2.208  2.6766  0.9199  0.2990
  190SOL    HW2  570   1.014   1.708   2.267  0.7889 -0.4810  1.8757
  191SOL     OW  571   2.852   0.577   1.615 -0.4069 -0.0720  0.4892
  191SOL    HW1  572   2.813   0.504   1.551  0.2349  0.9476 -0.5904
  191SOL    HW2  573   2.856   0.666   1.571 -0.6981 -2.8653 -0.3139
  192SOL     OW  574   2.143   0.259   1.988 -0.4860 -0.0356  0.5853
  192SOL    HW1  575   2.185   0.168   1.968  3.5385  3.2930  0.4969
  192SOL    HW2  576   2.155   0.288   2.086 -1.6795 -0.5641  0.4458
  193SOL     OW  577   0.573   0.816   0.501 -0.4303 -0.1911  0.2506
  193SOL    HW1  578   0.593   0.860   0.588  0.4890 -3.1006 -1.9364
  193SOL    HW2  579   0.529   0.877   0.434  0.0313  0.3845  1.2526
  194SOL     OW  580   1.280   2.373   1.675  0.2515  0.5510  0.8515
  194SOL    HW1  581   1.203   2.312   1.684  1.0563  0.7983 -0.6612
  194SOL    HW2  582   1.364   2.339   1.620  2.8542 -2.4482 -2.5202
  195SOL     OW  583   2.204   0.577   0.933  0.3457 -0.0687 -0.6257
  195SOL    HW1  584   2.272   0.653   0.936  1.0424  0.8405  0.3402
  195SOL    HW2  585   2.110   0.609   0.913 -0.6313 -3.6964  2.2970
  196SOL     OW  586   1.725   2.053   2.002  0.2756  0.6297 -0.2353
  196SOL    HW1  587   1.651   1.998   2.044  0.4264  0.3377  1.5033
  196SOL    HW2  588   1.689   2.103   1.917 -0.7432  0.5812 -0.6098
  197SOL     OW  589   0.250   0.164   3.097 -0.2006  0.3217 -0.1340
  197SOL    HW1  590   0.277   0.077   3.050  0.2435  0.3766  0.5067
  197SOL    HW2  591   0.150   0.176   3.115  0.4658 -1.5692  1.1368
  198SOL     OW  592   1.210   1.385   0.649 -0.1600  0.7110  0.0410
  198SOL    HW1  593   1.143   1.394   0.575  2.9662 -2.7686  1.8511
  198SOL    HW2  594   1.195   1.437   0.731  2.6799 -1.8414 -0.0496
  199SOL     OW  595   2.520   0.971   1.899 -0.5744  0.2868 -0.1681
  199SOL    HW1  596   2.535   0.914   1.982 -4.4166 -0.6107  1.0899
  199SOL    HW2  597   2.589   1.049   1.896  0.4886  0.5527 -0.6092
  200SOL     OW  598   2.780   2.455   2.493 -0.4526  0.0585  0.6134
  200SOL    HW1  599   2.806   2.477   2.395 -1.3590 -3.0152  0.9342
  200SOL    HW2  600   2.683   2.484   2.514 -3.7787 -1.5130 -0.2899
  201SOL     OW  601   2.798   0.206   1.178 -0.1360 -0.1111  0.0645
  201SOL    HW1  602   2.885   0.206   1.127 -1.6141 -1.1728  1.1177
  201SOL    HW2  603   2.719   0.164   1.130  0.4546  0.4055 -1.3308
  202SOL     OW  604   1.872   0.302   0.731 -0.0829 -0.3039 -0.0170
  202SOL    HW1  605   1.780   0.340   0.713  0.7706 -2.5929  0.1105
  202SOL    HW2  606   1.885   0.301   0.831  0.4568 -0.1537 -0.8007
  203SOL     OW  607   1.589   1.876   2.194  0.4343 -0.3307  0.1068
  203SOL    HW1  608   1.503   1.882   2.248  1.5808 -1.1325  0.7083
  203SOL    HW2  609   1.654   1.820   2.243 -1.3565  0.0398 -1.4136
  204SOL     OW  610   0.694   1.621   2.078  0.5353 -0.3096  0.5214
  204SOL    HW1  611   0.766   1.619   2.002 -1.1126  0.4487 -0.0066
  204SOL    HW2  612   0.709   1.700   2.141 -0.8009 -1.3787 -0.8295
  205SOL     OW  613   0.863   1.659   1.550 -0.2390  0.1455  0.1186
  205SOL    HW1  614   0.857   1.555   1.556  0.0806 -2.1057 -0.2631
  205SOL    HW2  615   0.768   1.688   1.573 -1.3840 -1.0871  1.4892
  206SOL     OW  616   3.077   0.528   3.113  0.5332 -0.1050 -0.2109
  206SOL    HW1  617   3.062   0.620   0.041  0.6665 -1.6153 -1.0654
  206SOL    HW2  618   2.988   0.517   3.060  1.2914  0.5483  0.2665
  207SOL     OW  619   1.805   2.645   1.962  0.0113  0.4435 -0.5385
  207SOL    HW1  620   1.812   2.671   2.060 -1.2792 -2.8442 -1.1130
  207SOL    HW2  621   1.855   2.558   1.950 -2.0377  0.5123 -1.4171
  208SOL     OW  622   0.419   2.155   1.301  0.8581 -0.5971 -0.1191
  208SOL    HW1  623   0.411   2.058   1.269 -0.0598 -2.5277  1.6602
  208SOL    HW2  624   0.346   2.217   1.256 -2.9239  1.8003  0.1449
  209SOL     OW  625   1.428   1.294   2.281 -0.4622  0.0050 -0.1449
  209SOL    HW1  626   1.376   1.256   2.198 -1.6480  0.8848 -2.4715
  209SOL    HW2  627   1.370   1.282   2.369 -0.5626  0.5242  2.9169
  210SOL     OW  628   1.855   0.918   1.263 -0.4899  0.5455 -0.1102
  210SOL    HW1  629   1.885   0.929   1.166 -4.0733  0.5050  2.4294
  210SOL    HW2  630   1.814   0.824   1.281 -0.0068  0.0833 -2.4180
  211SOL     OW  631   0.557   0.184   0.452 -0.3888  0.5039 -0.4853
  211SOL    HW1  632   0.567   0.224   0.362 -0.5208 -0.0531  0.9413
  211SOL    HW2  633   0.625   0.231   0.515 -0.4961  3.0221  2.2052
  212SOL     OW  634   1.845   1.491   0.164 -0.5607 -0.2053 -0.0774
  212SOL    HW1  635   1.830   1.592   0.146  2.9471  0.8616 -4.5291
  212SOL    HW2  636   1.890   1.471   0.253  0.4371  0.8938 -0.6327
  213SOL     OW  637   1.432   0.324   2.726  0.2167  0.3385  0.3196
  213SOL    HW1  638   1.520   0.280   2.699 -2.2978  0.4834  1.3937
  213SOL    HW2  639   1.440   0.351   2.823 -0.5675  0.8774  2.8726
  214SOL     OW  640   1.644   1.555   2.059 -0.6205 -0.0376  0.6042
  214SOL    HW1  641   1.684   1.587   2.150 -0.7753  0.5194 -2.6026
  214SOL    HW2  642   1.667   1.621   1.984 -1.0509  1.1675  0.5774
  215SOL     OW  643   0.499   1.922   0.319  0.0845 -0.1015  0.4905
  215SOL    HW1  644   0.466   1.985   0.245  1.6462 -1.0831  1.0299
  215SOL    HW2  645   0.502   1.968   0.410 -0.6230 -0.6429  1.2429
  216SOL     OW  646   0.536   2.846   2.351 -0.3186  0.2200  0.3414
  216SOL    HW1  647   0.634   2.877   2.322  3.3695 -1.8968 -0.5170
  216SOL    HW2  648   0.468   2.927   2.345 -1.2495 -0.4592 -1.1457
  217SOL     OW  649   2.331   0.949   0.728  0.4660  0.2476  0.0047
  217SOL    HW1  650   2.423   0.941   0.677  1.6567  2.1957 -0.1182
  217SOL    HW2  651   2.260   0.963   0.658  1.8789 -1.7135  1.2673
  218SOL     OW  652   1.785   1.752   1.863 -0.3344  0.4547 -0.2223
  218SOL    HW1  653   1.829   1.791   1.942 -0.4115 -0.2461 -1.4533
  218SOL    HW2  654   1.846   1.691   1.804  1.6833 -0.5378  0.7079
  219SOL     OW  655   1.804   1.301   3.034  0.1511 -0.0439  0.1437
  219SOL    HW1  656   1.870   1.309   2.956 -0.3884  0.1223  0.2925
  219SOL    HW2  657   1.758   1.392   3.059 -0.0390  0.9360  0.0590
  220SOL     OW  658   1.319   1.624   1.079 -0.3328 -0.2079 -0.0242
  220SOL    HW1  659   1.355   1.718   1.056 -2.4332 -0.2239 -2.0457
  220SOL    HW2  660   1.385   1.554   1.113 -2.3329  0.6279 -1.5529
  221SOL     OW  661   0.806   0.630   3.045 -0.8693  0.3069  0.5262
  221SOL    HW1  662   0.767   0.695   2.979 -2.0357 -0.4554  1.6582
  221SOL    HW2  663   0.732   0.560   3.070 -3.2829 -1.2960  2.6959
  222SOL     OW  664   0.896   1.640   0.929  0.2405 -0.1234 -0.2776
  222SOL    HW1  665   0.828   1.586   0.878  1.3283  2.3430  1.3309
  222SOL    HW2  666   0.857   1.707   0.996  0.9872 -2.6155  1.3398
  223SOL     OW  667   1.208   0.090   3.049  0.1416  0.0606 -0.3521
  223SOL    HW1  668   1.237   3.112   3.048 -0.6144 -0.1146  0.0505
  223SOL    HW2  669   1.201   0.125   2.954  0.4431 -2.0292  1.0650
  224SOL     OW  670   2.806   0.352   1.431 -0.2131 -0.4880  0.3369
  224SOL    HW1  671   2.794   0.285   1.507 -2.0865 -1.2355 -0.7560
  224SOL    HW2  672   2.797   0.304   1.341 -0.6253 -2.4248  2.8132
  225SOL     OW  673   0.866   0.356   1.492  0.4220  0.2725 -0.2868
  225SOL    HW1  674   0.958   0.399   1.496 -1.3273 -0.6343  0.4450
  225SOL    HW2  675   0.791   0.426   1.483 -0.4879 -0.7219 -0.1971
  226SOL     OW  676   1.639   1.762   2.888  0.3786 -0.0659  0.3550
  226SOL    HW1  677   1.548   1.771   2.844  2.7697  1.6983  0.4077
  226SOL    HW2  678   1.672   1.851   2.922  0.4554 -3.2787 -0.4868
  227SOL     OW  679   1.349   1.925   1.383  0.3080  0.3864  0.4436
  227SOL    HW1  680   1.363   1.872   1.469 -0.5101 -0.6874  0.9572
  227SOL    HW2  681   1.252   1.955   1.363  1.5251 -0.7055  1.4427
  228SOL     OW  682   0.481   1.710   0.672  0.3973  0.7522  0.1701
  228SOL    HW1  683   0.537   1.794   0.673 -1.7510 -0.3889  2.3796
  228SOL    HW2  684   0.464   1.670   0.760 -0.2740 -0.7855  1.0353
  229SOL     OW  685   1.288   0.518   0.038  0.2613  0.0254 -0.4961
  229SOL    HW1  686   1.205   0.562   3.114 -2.6695  1.2604 -2.0643
  229SOL    HW2  687   1.365   0.495   3.093 -1.6056  1.7948 -1.8318
  230SOL     OW  688   1.230   0.506   2.232  0.4655 -0.4339 -0.4213
  230SOL    HW1  689   1.203   0.455   2.151 -2.0996  0.9401 -1.7242
  230SOL    HW2  690   1.152   0.513   2.297 -1.8751 -1.5278  0.8283
  231SOL     OW  691   0.990   1.845   2.383  0.1993 -0.7719  0.3356
  231SOL    HW1  692   1.003   1.879   2.474  1.7386  3.0008  0.4621
  231SOL    HW2  693   0.993   1.927   2.320 -1.8262  2.6059  0.1158
  232SOL     OW  694   2.227   1.853   0.844 -0.4139 -0.1654  0.1223
  232SOL    HW1  695   2.169   1.799   0.775 -1.3643 -1.2728 -1.4520
  232SOL    HW2  696   2.326   1.854   0.814 -1.2195  1.9361  2.1240
  233SOL     OW  697   2.195   2.792   0.087 -0.0692  0.0912  0.2468
  233SOL    HW1  698   2.184   2.888   0.119 -0.1910 -0.6647 -0.7944
  233SOL    HW2  699   2.246   2.790   0.002  1.5563  0.6781 -0.0836
  234SOL     OW  700   0.862   0.248   2.904  0.2310 -0.1101  0.1562
  234SOL    HW1  701   0.879   0.293   2.995  0.5705  0.0529  0.5245
  234SOL    HW2  702   0.844   0.146   2.907 -2.0897 -1.0383 -2.6852
  235SOL     OW  703   2.259   3.114   2.674  0.0491  0.0936  0.0830
  235SOL    HW1  704   2.334   0.058   2.689  1.4304 -0.5112 -2.0664
  235SOL    HW2  705   2.287   3.054   2.597  2.4304  3.2208  4.5311
  236SOL     OW  706   2.427   2.329   2.349  0.0633  0.3305  0.1702
  236SOL    HW1  707   2.450   2.427   2.329  0.9396  0.7238  0.6208
  236SOL    HW2  708   2.372   2.284   2.278  0.5999 -0.4958  0.1954
  237SOL     OW  709   0.908   1.418   2.053  0.2019  0.4117 -0.1211
  237SOL    HW1  710   0.873   1.444   1.961 -1.1464 -1.6174  0.8271
  237SOL    HW2  711   0.913   1.499   2.112 -0.3363  0.6066  1.2834
  238SOL     OW  712   1.656   0.223   2.606  0.2860  0.0890  0.1044
  238SOL    HW1  713   1.706   0.139   2.578  0.9533  0.2360 -2.0793
  238SOL    HW2  714   1.726   0.293   2.618 -0.5269 -1.2299 -1.2209
  239SOL     OW  715   0.236   1.867   1.876  0.5403 -0.6955  0.3980
  239SOL    HW1  716   0.259   1.831   1.971  0.7556 -0.0704 -1.4896
  239SOL    HW2  717   0.137   1.851   1.853 -1.6993 -0.7905 -0.4448
  240SOL     OW  718   2.835   2.779   0.346  0.0212 -0.0154  0.0030
  240SOL    HW1  719   2.886   2.730   0.421  4.3784  0.0110 -0.3290
  240SOL    HW2  720   2.875   2.869   0.320 -0.6961  0.2476  0.6108
  241SOL     OW  721   1.980   1.715   0.424 -0.0325 -0.5022 -0.6485
  241SOL    HW1  722   2.044   1.743   0.350 -1.5047  1.2235  1.8778
  241SOL    HW2  723   1.908   1.785   0.442 -0.6432  0.3000  0.5786
  242SOL     OW  724   1.386   1.895   2.832  0.5251 -0.1458  0.1497
  242SOL    HW1  725   1.379   1.890   2.732  0.1645 -1.4627  1.1662
  242SOL    HW2  726   1.411   1.990   2.873 -0.8530  1.4869  1.5646
  243SOL     OW  727   0.736   2.536   2.450 -0.0927 -0.4043  0.3480
  243SOL    HW1  728   0.638   2.511   2.464 -0.3650 -0.4917  1.3988
  243SOL    HW2  729   0.746   2.632   2.490 -3.5304  1.2348  1.3389
  244SOL     OW  730   2.056   0.175   2.742 -0.0323 -0.3394 -0.0441
  244SOL    HW1  731   2.046   0.177   2.843  0.8191  1.6129 -0.1956
  244SOL    HW2  732   2.121   0.102   2.710  2.0123 -1.4537  1.6964
  245SOL     OW  733   1.357   3.007   0.728 -0.0268  0.4071  0.8606
  245SOL    HW1  734   1.382   3.064   0.808 -3.8775 -0.3056  0.2139
  245SOL    HW2  735   1.284   3.061   0.678 -2.9365  0.4886  1.1248
  246SOL     OW  736   1.231   2.705   0.360 -0.7795  0.0712  0.3129
  246SOL    HW1  737   1.326   2.749   0.358  2.6667  1.4198  0.5773
  246SOL    HW2  738   1.167   2.772   0.410 -3.2529  2.1321  4.0861
  247SOL     OW  739   0.782   0.541   2.391  0.1837  0.1252  0.5598
  247SOL    HW1  740   0.800   0.500   2.300 -0.8235  0.0093 -1.0966
  247SOL    HW2  741   0.700   0.601   2.405 -0.6215  1.5696  1.2251
  248SOL     OW  742   0.571   1.403   2.194 -0.0213  0.1968 -0.2549
  248SOL    HW1  743   0.660   1.364   2.225 -2.5726  1.6783 -1.1411
  248SOL    HW2  744   0.584   1.499   2.166  1.2048 -0.0204 -1.1146
  249SOL     OW  745   2.189   0.220   0.361  0.3391  0.0984  0.3697
  249SOL    HW1  746   2.274   0.254   0.308  1.1812  0.4221  1.5772
  249SOL    HW2  747   2.169   0.278   0.443  1.2317  1.1029 -0.3120
  250SOL     OW  748   0.694   0.218   0.739 -0.7437  0.2816 -0.5032
  250SOL    HW1  749   0.723   0.129   0.709 -1.7702  3.7494  2.0407
  250SOL    HW2  750   0.721   0.287   0.672  2.4905 -3.1069 -0.2476
  251SOL     OW  751   1.870   0.530   2.957  0.2735  0.9702  0.3528
  251SOL    HW1  752   1.817   0.544   2.866 -0.9051 -0.6761 -1.4839
  251SOL    HW2  753   1.852   0.602   3.019 -2.6578 -3.4380 -1.5079
  252SOL     OW  754   2.103   1.566   2.107 -0.2502 -0.0408  0.6449
  252SOL    HW1  755   2.082   1.476   2.153 -0.5101 -0.8738 -0.1123
  252SOL    HW2  756   2.038   1.642   2.128 -1.7202  0.8111  1.4835
  253SOL     OW  757   2.642   2.333   1.755 -0.4421  0.0799 -0.6350
  253SOL    HW1  758   2.641   2.398   1.830  1.1181 -1.5559 -0.8539
  253SOL    HW2  759   2.671   2.366   1.664 -0.6351  1.0549 -0.3342
  254SOL     OW  760   0.206   1.314   1.113  0.0711  0.3537  0.3798
  254SOL    HW1  761   0.251   1.272   1.029  1.6795  0.4448  0.2837
  254SOL    HW2  762   0.221   1.265   1.206 -1.1825  0.4168  4.6564
  255SOL     OW  763   0.845   0.616   1.336  0.0614  0.4223 -0.1285
  255SOL    HW1  764   0.743   0.631   1.329  1.2025  1.8876 -1.0984
  255SOL    HW2  765   0.890   0.710   1.338  1.6639 -0.9419 -1.0166
  256SOL     OW  766   2.155   2.537   1.806  0.2018  0.2883 -0.0961
  256SOL    HW1  767   2.193   2.619   1.851  0.4051 -0.9781  0.6230
  256SOL    HW2  768   2.217   2.454   1.804  1.4486  0.2923  2.6836
  257SOL     OW  769   0.394   2.818   3.095  0.5823  0.4172  0.0730
  257SOL    HW1  770   0.462   2.890   3.118 -3.4795 -1.7113 -0.5598
  257SOL    HW2  771   0.340   2.857   3.014 -2.5709  0.7907 -0.0411
  258SOL     OW  772   0.761   2.767   0.186  0.5157  0.3302  0.1651
  258SOL    HW1  773   0.721   2.678   0.150 -0.6084  2.0703 -1.5788
  258SOL    HW2  774   0.782   2.827   0.103  0.8644  0.7485 -1.5036
  259SOL     OW  775   1.183   0.078   2.215 -0.0550  0.0878  0.1740
  259SOL    HW1  776   1.156   3.116   2.160  1.1569 -0.9098  1.1591
  259SOL    HW2  777   1.282   0.096   2.191 -2.2739 -2.2709  0.3960
  260SOL     OW  778   1.897   0.499   1.075  0.2660  0.1823 -0.0777
  260SOL    HW1  779   1.936   0.401   1.067 -0.7155 -1.3465  2.4803
  260SOL    HW2  780   1.881   0.542   0.987 -0.1363 -2.0984 -0.2830
  261SOL     OW  781   0.484   0.406   2.494 -0.2034 -0.0193 -0.1121
  261SOL    HW1  782   0.408   0.465   2.528  1.2962 -0.1676  2.6070
  261SOL    HW2  783   0.556   0.388   2.561  2.6937  1.2430 -1.7943
  262SOL     OW  784   0.183   2.286   2.273  0.2184 -0.6410 -0.0071
  262SOL    HW1  785   0.228   2.376   2.285  0.8616 -2.6854 -0.8480
  262SOL    HW2  786   0.217   2.236   2.191 -1.7308 -0.3392  2.2708
  263SOL     OW  787   3.024   1.554   2.347 -0.0329 -0.0341 -0.2399
  263SOL    HW1  788   3.057   1.610   2.269 -1.1866 -2.7352  4.7369
  263SOL    HW2  789   3.084   1.572   2.428  1.6971 -1.3408  0.6575
  264SOL     OW  790   0.406   1.125   0.923  0.9411  0.0045 -0.1345
  264SOL    HW1  791   0.359   1.207   0.874 -1.4199  2.8713 -1.5329
  264SOL    HW2  792   0.340   1.043   0.929 -1.7495 -0.6062 -1.2280
  265SOL     OW  793   1.073   2.350   0.640  0.2741 -0.1252  0.2835
  265SOL    HW1  794   1.158   2.299   0.624 -2.2679 -0.0235  0.8065
  265SOL    HW2  795   1.071   2.395   0.732 -0.5254 -0.3856  0.5762
  266SOL     OW  796   1.685   0.726   0.991  0.2044 -0.4098 -0.0477
  266SOL    HW1  797   1.711   0.701   1.085 -1.6644 -0.3672  1.3200
  266SOL    HW2  798   1.763   0.718   0.927 -0.7555  1.6493  1.3674
  267SOL     OW  799   2.596   1.075   3.076 -0.2623  0.1278 -0.4564
  267SOL    HW1  800   2.662   0.998   3.076  0.9250  0.3804  1.6511
  267SOL    HW2  801   2.522   1.057   3.004  1.5641 -0.8101 -0.5839
  268SOL     OW  802   1.884   0.454   0.311  0.0969 -0.6578 -0.5766
  268SOL    HW1  803   1.866   0.354   0.296  0.6531 -0.1552 -1.5938
  268SOL    HW2  804   1.816   0.491   0.384 -1.8644 -1.0471 -0.1531
  269SOL     OW  805   2.096   0.906   2.887  0.2579 -0.5846 -0.1754
  269SOL    HW1  806   2.011   0.903   2.831 -1.5528  3.1949 -0.1730
  269SOL    HW2  807   2.126   1.006   2.893 -0.1892  1.0474 -0.1462
  270SOL     OW  808   2.994   0.957   3.043 -0.5290 -0.3843 -0.1666
  270SOL    HW1  809   3.058   0.998   2.964  0.3294  2.7624 -1.5647
  270SOL    HW2  810   3.045   0.888   3.101  0.8032  0.9462  0.1017
  271SOL     OW  811   2.791   0.714   0.229 -0.2572  0.1467 -0.1745
  271SOL    HW1  812   2.721   0.769   0.279 -1.7805  2.0862  0.4010
  271SOL    HW2  813   2.879   0.704   0.279 -3.1666 -2.5471  2.7086
  272SOL     OW  814   0.159   2.270   2.896  0.1171 -0.0899 -0.2849
  272SOL    HW1  815   0.134   2.325   2.816  0.8087  0.8452  1.5171
  272SOL    HW2  816   0.077   2.263   2.961 -0.8586 -0.1209 -0.2109
  273SOL     OW  817   2.512   3.081   0.331  0.0570  0.2707  0.2407
  273SOL    HW1  818   2.576   0.039   0.360  1.8754  0.5596  0.6415
  273SOL    HW2  819   2.415   3.086   0.363  0.8272 -1.1869 -0.6412
  274SOL     OW  820   0.653   2.365   0.987 -0.2551  0.5125  0.2307
  274SOL    HW1  821   0.637   2.464   0.993  1.5820  0.1962  1.5288
  274SOL    HW2  822   0.598   2.331   0.912  1.9769 -0.9443 -0.0350
  275SOL     OW  823   2.864   1.600   0.523 -0.1205  0.0640 -0.0072
  275SOL    HW1  824   2.940   1.546   0.563  1.1710 -0.0788 -0.6565
  275SOL    HW2  825   2.889   1.697   0.503  0.3607  0.3792  3.2301
  276SOL     OW  826   3.013   0.979   1.982  0.5439  0.4894 -0.1669
  276SOL    HW1  827   2.939   1.000   2.050  1.3020  2.8598 -1.3624
  276SOL    HW2  828   2.979   0.920   1.906  3.2590  1.6685 -1.1597
  277SOL     OW  829   2.133   2.975   1.262 -0.0108 -0.2841 -0.0928
  277SOL    HW1  830   2.052   2.941   1.211  0.5572  0.1361  1.4382
  277SOL    HW2  831   2.113   3.069   1.301  1.5635  0.6745  2.1989
  278SOL     OW  832   1.469   2.602   2.361 -0.1969 -0.9373 -0.3434
  278SOL    HW1  833   1.392   2.656   2.318 -1.6131  2.9174 -1.9543
  278SOL    HW2  834   1.487   2.514   2.316 -0.3950  3.3251 -0.6007
  279SOL     OW  835   1.544   2.021   0.484  0.0169  0.1598 -0.2440
  279SOL    HW1  836   1.622   1.975   0.439 -0.3509  2.9052  1.3129
  279SOL    HW2  837   1.457   1.998   0.439 -0.1302  0.8382 -0.5608
  280SOL     OW  838   0.286   1.582   1.117  0.1621 -0.2818 -0.3475
  280SOL    HW1  839   0.230   1.637   1.053  1.7410  3.0529  1.0738
  280SOL    HW2  840   0.265   1.482   1.115 -0.9763 -0.1280  0.3977
  281SOL     OW  841   2.971   0.859   2.355 -0.9038 -0.0305  0.5933
  281SOL    HW1  842   2.946   0.810   2.265 -0.2816 -3.8084 -0.5906
  281SOL    HW2  843   2.919   0.816   2.435  0.3754 -1.0742  2.0688
  282SOL     OW  844   0.707   1.498   0.790 -0.5253  0.9285  0.0776
  282SOL    HW1  845   0.622   1.518   0.838  0.4481 -2.7389 -1.9905
  282SOL    HW2  846   0.690   1.480   0.693 -2.3399 -0.6106  0.2115
  283SOL     OW  847   1.963   2.284   0.128  0.0399 -0.2990  0.7891
  283SOL    HW1  848   1.918   2.363   0.177 -1.3297  2.3532  0.2832
  283SOL    HW2  849   2.048   2.260   0.173  0.4624 -0.7492 -1.9099
  284SOL     OW  850   0.982   0.572   0.483 -0.3038  0.0761  0.1226
  284SOL    HW1  851   0.932   0.560   0.398  0.7122  0.7530 -1.0904
  284SOL    HW2  852   0.943   0.650   0.534 -0.6808  0.8441 -1.4095
  285SOL     OW  853   2.184   1.176   2.905  0.1424  0.1579  0.5133
  285SOL    HW1  854   2.111   1.222   2.851 -0.2307  0.1127 -0.5389
  285SOL    HW2  855   2.221   1.233   2.982 -0.6779 -1.4281 -2.4306
  286SOL     OW  856   1.750   2.180   1.263 -0.1437 -0.2032 -0.0013
  286SOL    HW1  857   1.693   2.131   1.326 -0.3297 -1.1092 -0.9172
  286SOL    HW2  858   1.703   2.263   1.218 -2.7436  2.6583 -2.6436
  287SOL     OW  859   1.042   1.187   0.711 -0.3021 -0.1013 -0.1367
  287SOL    HW1  860   1.115   1.257   0.717  0.3561 -1.4877  0.7515
  287SOL    HW2  861   0.977   1.197   0.630 -2.0775  3.4033  0.0176
  288SOL     OW  862   1.013   2.530   0.188  0.9489 -0.1289 -0.1821
  288SOL    HW1  863   1.089   2.498   0.247 -0.7414  1.5202  1.6772
  288SOL    HW2  864   1.033   2.616   0.143 -0.4217 -1.4481 -2.1493
  289SOL     OW  865   0.116   1.573   1.544  0.1082 -0.2218 -0.2138
  289SOL    HW1  866   0.059   1.659   1.543  3.4913  0.9012 -0.2804
  289SOL    HW2  867   0.210   1.600   1.534 -3.5007 -1.3510 -0.8367
  290SOL     OW  868   1.535   2.316   0.888 -0.0329  0.1090 -0.8235
  290SOL    HW1  869   1.471   2.277   0.957 -2.6825 -0.0025 -0.3121
  290SOL    HW2  870   1.615   2.255   0.875  0.8403  0.4235  2.4170
  291SOL     OW  871   1.936   3.045   2.996 -0.4192 -0.4099  0.2149
  291SOL    HW1  872   1.935   0.015   3.051 -0.8551  1.8648  0.2004
  291SOL    HW2  873   1.890   2.974   3.055 -0.0509 -0.6047  0.1004
  292SOL     OW  874   0.802   0.418   2.144  0.0562 -0.2058 -0.0485
  292SOL    HW1  875   0.880   0.439   2.088 -2.0536 -0.6800 -3.7180
  292SOL    HW2  876   0.796   0.316   2.158  1.2042  2.0657 -2.8069
  293SOL     OW  877   2.004   2.364   0.796 -0.0920 -0.0585 -0.2923
  293SOL    HW1  878   1.933   2.335   0.730 -1.2155  0.1809  0.8987
  293SOL    HW2  879   1.979   2.319   0.885 -2.4200 -1.6724  0.3830
  294SOL     OW  880   0.558   0.713   2.410 -0.5010  0.2773 -0.2479
  294SOL    HW1  881   0.488   0.660   2.364  1.5644  1.5831  0.6715
  294SOL    HW2  882   0.537   0.739   2.505  0.6186  1.1053 -0.8662
  295SOL     OW  883   1.660   1.412   0.740  0.0556  0.5482 -0.8303
  295SOL    HW1  884   1.712   1.360   0.809  1.3268  0.0843  0.5798
  295SOL    HW2  885   1.692   1.509   0.737 -0.1535  1.5911 -2.1470
  296SOL     OW  886   2.543   1.751   0.265 -0.4921  0.2654  0.6327
  296SOL    HW1  887   2.555   1.851   0.291 -1.0918  1.0919  0.9920
  296SOL    HW2  888   2.536   1.694   0.354  1.8314  3.9975  1.0717
  297SOL     OW  889   2.083   2.983   0.259  0.2692  0.4385  0.2923
  297SOL    HW1  890   2.034   3.072   0.227  0.0349  0.8724 -1.6184
  297SOL    HW2  891   2.144   3.008   0.336 -0.3876  2.7544 -1.3893
  298SOL     OW  892   0.964   2.611   2.850  0.3896  0.4176  0.2182
  298SOL    HW1  893   1.040   2.546   2.822  0.1549 -2.8056 -1.6751
  298SOL    HW2  894   0.997   2.703   2.879 -1.3827 -0.1348 -0.5227
  299SOL     OW  895   1.159   2.176   2.126 -0.1021  0.2353  0.0846
  299SOL    HW1  896   1.255   2.190   2.151 -0.5547  2.1028  0.0477
  299SOL    HW2  897   1.117   2.270   2.104 -1.6234  1.9238 -0.2453
  300SOL     OW  898   2.485   0.166   2.710  0.1365  0.6707  0.9251
  300SOL    HW1  899   2.516   0.162   2.807 -0.5561  2.0451 -1.2785
  300SOL    HW2  900   2.455   0.258   2.680  0.5790  0.3661 -0.4575
  301SOL     OW  901   1.304   1.119   2.101 -0.1886  0.3166 -0.0936
  301SOL    HW1  902   1.239   1.183   2.064 -1.2131  0.2526 -1.3451
  301SOL    HW2  903   1.349   1.056   2.034 -0.4552 -0.9946  1.0377
  302SOL     OW  904   2.829   2.992   0.036  0.2018 -0.0978 -0.3953
  302SOL    HW1  905   2.731   3.018   0.052 -1.8646 -0.6013 -0.5038
  302SOL    HW2  906   2.893   2.992   0.118  1.6819  0.5310  0.0952
  303SOL     OW  907   2.592   2.514   1.950  0.7202  0.5595 -0.1017
  303SOL    HW1  908   2.539   2.451   2.011  0.2311 -0.0851 -1.4726
  303SOL    HW2  909   2.620   2.600   1.998  0.0550  2.5522  1.3928
  304SOL     OW  910   2.710   0.718   2.002  0.1462  0.0800  0.0529
  304SOL    HW1  911   2.749   0.753   1.916 -0.5512  0.0761  1.9264
  304SOL    HW2  912   2.786   0.724   2.073  0.2902  2.8297 -2.2674
  305SOL     OW  913   0.421   1.430   1.517  0.5453 -0.0734 -0.1452
  305SOL    HW1  914   0.516   1.426   1.480 -2.3225  0.2242 -1.9267
  305SOL    HW2  915   0.387   1.526   1.499 -1.9743  1.3306 -1.4894
  306SOL     OW  916   0.014   1.148   1.793  0.5901 -0.0333  0.2241
  306SOL    HW1  917   0.085   1.178   1.859  1.5589  0.1065  0.1415
  306SOL    HW2  918   3.057   1.095   1.845 -0.3538 -1.3703 -0.3127
  307SOL     OW  919   1.093   0.546   1.736 -0.2532 -0.1142  0.1042
  307SOL    HW1  920   1.086   0.563   1.636 -0.9830 -3.0161 -0.3363
  307SOL    HW2  921   1.148   0.614   1.789  1.6828 -0.1196  0.0841
  308SOL     OW  922   3.038   1.018   1.094  0.0102 -0.2233  0.5081
  308SOL    HW1  923   2.935   1.032   1.086 -2.5711  0.3894  0.0923
  308SOL    HW2  924   3.080   1.009   1.190  2.2487  0.7738 -0.4072
  309SOL     OW  925   2.334   1.168   1.354  0.0438 -0.2191 -0.0161
  309SOL    HW1  926   2.353   1.266   1.326 -2.1437  1.9187  2.2162
  309SOL    HW2  927   2.415   1.107   1.373  1.8129 -2.9402  1.5932
  310SOL     OW  928   2.978   2.247   2.591  0.2496 -0.0864  0.4287
  310SOL    HW1  929   2.958   2.152   2.626  0.5470 -0.8963 -1.8851
  310SOL    HW2  930   2.890   2.302   2.587 -0.0446 -0.0987  0.4935
  311SOL     OW  931   2.931   2.948   2.649 -0.1382 -0.2810 -0.3793
  311SOL    HW1  932   2.848   2.972   2.705 -0.9311 -1.2752 -2.9090
  311SOL    HW2  933   2.925   2.854   2.608 -0.1457  0.6842  1.1770
  312SOL     OW  934   2.243   1.973   0.053  0.6532  0.0720  0.2320
  312SOL    HW1  935   2.333   1.989   0.019 -2.5165 -0.5876 -1.6379
  312SOL    HW2  936   2.196   1.893   0.008 -1.5931 -0.4184  0.3231
  313SOL     OW  937   2.535   2.801   0.441  0.2014 -0.0075  0.0616
  313SOL    HW1  938   2.630   2.782   0.458 -0.9996  0.5208  0.5300
  313SOL    HW2  939   2.531   2.885   0.376  0.8250 -1.1871  0.4032
  314SOL     OW  940   1.625   1.291   0.178 -0.9352 -0.4407  0.0162
  314SOL    HW1  941   1.559   1.219   0.162 -0.9790  1.1069  2.8976
  314SOL    HW2  942   1.668   1.318   0.089 -0.6427 -2.0033 -1.2770
  315SOL     OW  943   1.341   2.767   1.920  0.1015 -0.2110 -0.1581
  315SOL    HW1  944   1.336   2.835   1.991 -2.0208 -1.7721  0.0911
  315SOL    HW2  945   1.363   2.803   1.828  1.1547 -0.1494 -2.2058
  316SOL     OW  946   2.759   0.856   3.099  0.1884  0.6382  0.2621
  316SOL    HW1  947   2.849   0.888   3.053  2.3211  1.0870  0.2251
  316SOL    HW2  948   2.781   0.807   0.067  0.5900  0.6432 -0.3537
  317SOL     OW  949   0.412   0.015   0.234  0.6240 -0.3459  0.3979
  317SOL    HW1  950   0.321   0.030   0.285 -0.5088  0.5611 -0.7536
  317SOL    HW2  951   0.456   3.047   0.266  1.1856 -1.5340  2.3712
  318SOL     OW  952   2.209   2.532   0.865  0.0787 -0.2043  0.4713
  318SOL    HW1  953   2.135   2.472   0.839 -2.0039  0.0318  1.1003
  318SOL    HW2  954   2.190   2.629   0.832 -0.7250  1.2979  3.0171
  319SOL     OW  955   1.025   1.908   2.910 -0.2161  0.0073 -0.1264
  319SOL    HW1  956   1.006   1.901   3.012  1.7285 -0.9997  1.9440
  319SOL    HW2  957   0.982   1.830   2.867  0.0744  2.2586  0.8384
  320SOL     OW  958   0.287   2.394   1.833 -0.3994 -0.1295 -0.0020
  320SOL    HW1  959   0.379   2.437   1.851  1.0239 -1.5172  1.6499
  320SOL    HW2  960   0.290   2.293   1.848  0.1637  0.3473 -1.5399
  321SOL     OW  961   1.389   2.865   2.796 -0.0906 -0.2092 -0.2931
  321SOL    HW1  962   1.471   2.923   2.823  2.4986 -0.7231 -0.4908
  321SOL    HW2  963   1.416   2.808   2.714  1.4115  1.1442 -0.6366
  322SOL     OW  964   2.852   1.408   2.170 -0.1518 -0.2715  0.0722
  322SOL    HW1  965   2.927   1.425   2.235  2.0282  2.1355  1.9228
  322SOL    HW2  966   2.762   1.412   2.218 -2.4560  1.0737 -0.4126
  323SOL     OW  967   2.231   1.061   1.132 -0.5942 -0.3883  0.7084
  323SOL    HW1  968   2.266   1.113   1.048 -0.0456  0.5687 -3.5040
  323SOL    HW2  969   2.255   1.108   1.221 -1.5081 -0.8878  0.6592
  324SOL     OW  970   3.065   3.007   2.426 -0.2343  0.0406  0.2119
  324SOL    HW1  971   3.003   3.036   2.349  1.1921 -2.7993  0.5516
  324SOL    HW2  972   3.024   2.975   2.510 -0.0029  2.2525 -2.6110
  325SOL     OW  973   1.326   0.779   2.619  0.6007  0.7372 -0.3178
  325SOL    HW1  974   1.335   0.678   2.614 -2.0820  1.4893 -1.1307
  325SOL    HW2  975   1.226   0.803   2.606  1.1388  0.0570  0.5742
  326SOL     OW  976   2.073   2.683   2.202 -0.3943  0.2218 -0.1393
  326SOL    HW1  977   2.132   2.724   2.127 -3.9827  1.9910 -1.3108
  326SOL    HW2  978   2.055   2.581   2.183 -4.6759  0.2072 -1.2078
  327SOL     OW  979   1.968   0.102   0.234  0.1185  0.2876 -0.3302
  327SOL    HW1  980   1.890   0.120   0.300 -2.0792 -0.6758  1.8133
  327SOL    HW2  981   2.049   0.159   0.259 -0.4557  1.6027 -0.6095
  328SOL     OW  982   0.312   1.540   2.403 -0.3169 -0.3045 -0.1058
  328SOL    HW1  983   0.293   1.450   2.355  1.5379 -1.3466  1.0512
  328SOL    HW2  984   0.224   1.574   2.445  1.7526  1.6130 -0.2798
  329SOL     OW  985   2.231   0.017   1.937 -0.3745 -0.8193 -0.3992
  329SOL    HW1  986   2.176   3.087   1.866  2.0058 -0.9635 -2.1959
  329SOL    HW2  987   2.331   3.117   1.923  1.6654 -0.7546  0.6224
  330SOL     OW  988   0.009   1.308   0.882 -0.3928  0.1562 -0.1345
  330SOL    HW1  989   0.011   1.403   0.839 -2.9786  0.3880 -1.6313
  330SOL    HW2  990   3.045   1.290   0.932  0.9797  2.0194  1.1412
  331SOL     OW  991   0.499   1.699   2.293 -0.2968 -0.1331  0.3027
  331SOL    HW1  992   0.430   1.640   2.348  0.3315 -3.6112  0.7271
  331SOL    HW2  993   0.585   1.714   2.349  1.0017 -0.9610 -1.0944
  332SOL     OW  994   0.252   3.004   1.633 -0.0158  0.2543  0.6173
  332SOL    HW1  995   0.346   2.963   1.609 -1.5098  2.7824  0.8585
  332SOL    HW2  996   0.173   2.952   1.590 -1.4857 -0.0025 -1.3297
  333SOL     OW  997   2.246   3.050   0.990  0.2520  0.3001  0.3242
  333SOL    HW1  998   2.148   3.079   0.979  1.3160  2.2290  2.2972
  333SOL    HW2  999   2.288   3.113   1.061  0.4096 -0.1326  1.2468
  334SOL     OW 1000   0.569   1.974   0.695  0.1227  0.3391  0.3975
  334SOL    HW1 1001   0.513   2.023   0.625 -1.0291 -0.1458 -5.4470
  334SOL    HW2 1002   0.663   2.019   0.710  4.7824  1.8589  1.4140
  335SOL     OW 1003   0.315   2.557   0.083  0.7292  0.3607  0.0645
  335SOL    HW1 1004   0.334   2.471   0.026 -2.6746  2.2267 -0.0505
  335SOL    HW2 1005   0.357   2.637   0.040 -0.8273 -2.5247  0.6992
  336SOL     OW 1006   0.389   3.063   2.291 -0.4055  0.0572  0.5742
  336SOL    HW1 1007   0.315   3.069   2.358  1.4725  3.3865 -0.9143
  336SOL    HW2 1008   0.367   3.022   2.201  2.1264 -0.8209 -1.2800
  337SOL     OW 1009   2.560   2.201   2.585 -0.0637 -0.2020 -0.1299
  337SOL    HW1 1010   2.540   2.255   2.500 -1.2144 -1.7212 -0.3527
  337SOL    HW2 1011   2.585   2.258   2.669  0.0249  0.2794 -0.0503
  338SOL     OW 1012   0.896   0.949   1.046  0.4816  0.4156 -0.1794
  338SOL    HW1 1013   0.901   0.933   0.941  0.2069 -2.4307 -3.2400
  338SOL    HW2 1014   0.808   0.994   1.062  0.9712 -0.8682 -0.2690
  339SOL     OW 1015   0.164   0.919   2.031  0.0069  0.4506 -0.5524
  339SOL    HW1 1016   0.218   0.959   2.105  0.8324  0.8496 -0.9246
  339SOL    HW2 1017   0.070   0.962   2.025 -2.7959  0.4629 -2.0752
  340SOL     OW 1018   1.480   2.804   0.295  0.2058 -0.0158 -0.8065
  340SOL    HW1 1019   1.497   2.875   0.366  0.8566 -0.0293  0.4741
  340SOL    HW2 1020   1.496   2.846   0.206  0.5755  0.3571 -0.0782
  341SOL     OW 1021   1.965   0.938   1.010 -0.3383 -0.0061  0.4210
  341SOL    HW1 1022   1.922   0.975   0.923  2.3089 -0.3565  1.7779
  341SOL    HW2 1023   2.064   0.962   1.029  0.8216 -0.9714  2.3089
  342SOL     OW 1024   2.414   2.855   3.050  0.1504 -0.4394  0.6370
  342SOL    HW1 1025   2.360   2.924   2.996 -1.5124  0.5436 -1.0405
  342SOL    HW2 1026   2.467   2.789   2.993 -0.1119 -0.5069  0.7224
  343SOL     OW 1027   1.615   2.180   1.791 -0.0158 -0.2111  0.3266
  343SOL    HW1 1028   1.654   2.236   1.712 -0.5900  1.9137 -0.5457
  343SOL    HW2 1029   1.534   2.234   1.831 -0.5671 -0.1228 -1.2430
  344SOL     OW 1030   2.126   2.463   1.182  0.4275  0.3155 -0.2200
  344SOL    HW1 1031   2.078   2.522   1.115  1.5821 -2.1818 -0.6798
  344SOL    HW2 1032   2.203   2.513   1.222  0.0594 -0.7821 -1.1129
  345SOL     OW 1033   2.823   2.616   0.120  0.1115 -0.7511 -0.1976
  345SOL    HW1 1034   2.797   2.521   0.150 -0.7592 -2.3560 -0.7216
  345SOL    HW2 1035   2.840   2.680   0.199 -0.2934  3.2852 -0.2916
  346SOL     OW 1036   2.735   1.372   0.685 -0.0586 -0.0599 -0.4884
  346SOL    HW1 1037   2.813   1.375   0.619  0.7361  0.5009 -0.2383
  346SOL    HW2 1038   2.650   1.355   0.634  1.3791 -0.9715  1.1289
  347SOL     OW 1039   1.981   2.224   1.578 -0.3991  0.0566 -0.0690
  347SOL    HW1 1040   2.073   2.198   1.619  2.1139 -0.0599 -0.7770
  347SOL    HW2 1041   1.994   2.235   1.478  1.2387  1.1803 -0.0869
  348SOL     OW 1042   0.637   1.785   3.080  0.5007  0.5070 -0.0981
  348SOL    HW1 1043   0.627   1.708   3.011  2.5575 -1.4457 -1.1891
  348SOL    HW2 1044   0.654   1.747   0.050 -2.0443  1.4846 -1.2245
  349SOL     OW 1045   2.493   1.459   1.594 -0.1727 -0.5726  0.2911
  349SOL    HW1 1046   2.538   1.545   1.576 -0.5650 -0.7925 -1.1676
  349SOL    HW2 1047   2.493   1.408   1.508  1.3586  0.5654  1.0411
  350SOL     OW 1048   2.778   2.489   1.024  0.0736 -0.3129  0.0127
  350SOL    HW1 1049   2.756   2.544   1.103  0.7303  1.0106  1.1099
  350SOL    HW2 1050   2.732   2.532   0.941  1.6858  0.1888  3.2524
  351SOL     OW 1051   0.391   0.508   2.260  0.8313 -0.8359 -0.1264
  351SOL    HW1 1052   0.452   0.543   2.182  3.8471  1.4636  0.8786
  351SOL    HW2 1053   0.442   0.444   2.322  0.6932 -1.1599  1.2940
  352SOL     OW 1054   0.787   1.800   1.136  0.1446 -0.1884 -0.3746
  352SOL    HW1 1055   0.859   1.809   1.207 -0.2674 -0.2574 -1.0680
  352SOL    HW2 1056   0.709   1.744   1.171 -0.3982 -1.0089  0.1830
  353SOL     OW 1057   1.486   1.811   2.576  0.0446  0.2303 -0.1866
  353SOL    HW1 1058   1.431   1.862   2.507  0.9752  0.8793  2.0735
  353SOL    HW2 1059   1.481   1.710   2.559 -2.3655  0.4311  3.2097
  354SOL     OW 1060   1.023   0.560   0.890 -0.0990  0.0133 -0.0008
  354SOL    HW1 1061   0.992   0.521   0.981  0.4019  1.0352 -0.8182
  354SOL    HW2 1062   1.038   0.490   0.820 -0.5424 -2.1473  1.8388
  355SOL     OW 1063   2.510   0.644   0.648  0.1385  0.2554  0.0937
  355SOL    HW1 1064   2.524   0.733   0.700  2.7348 -0.4325  1.1407
  355SOL    HW2 1065   2.413   0.633   0.606 -0.0237  1.3303  0.3217
  356SOL     OW 1066   2.616   1.729   2.399  0.4206 -0.3425 -0.3329
  356SOL    HW1 1067   2.649   1.671   2.476 -0.6999 -2.0068  1.5003
  356SOL    HW2 1068   2.692   1.748   2.336 -1.5907  2.1031  1.5312
  357SOL     OW 1069   0.699   2.543   1.309 -0.3586  0.2145  0.5259
  357SOL    HW1 1070   0.720   2.584   1.400 -0.7299  0.3394 -0.2244
  357SOL    HW2 1071   0.688   2.439   1.314 -0.1532 -0.5773  1.2825
  358SOL     OW 1072   2.478   0.766   1.653  0.4891  0.0067  0.3382
  358SOL    HW1 1073   2.560   0.774   1.597 -1.8918 -0.5669 -0.0556
  358SOL    HW2 1074   2.485   0.839   1.726 -1.6148 -0.0400  1.0663
  359SOL     OW 1075   2.371   2.789   2.617 -0.1742 -0.0352  0.1357
  359SOL    HW1 1076   2.313   2.777   2.535  0.8671  0.3166  1.1995
  359SOL    HW2 1077   2.320   2.784   2.707 -0.7181  1.7761  1.2221
  360SOL     OW 1078   1.611   0.406   0.694  0.6814 -0.2212 -0.1341
  360SOL    HW1 1079   1.634   0.456   0.611  0.9791  1.6982  2.9493
  360SOL    HW2 1080   1.577   0.465   0.768  1.0491 -0.0501 -1.3889
  361SOL     OW 1081   2.385   0.144   1.418 -0.4898  0.0570 -0.2474
  361SOL    HW1 1082   2.358   0.221   1.475  2.0496 -0.3609 -1.6962
  361SOL    HW2 1083   2.336   0.059   1.445 -0.0654  1.4059 -0.2377
  362SOL     OW 1084   1.325   1.222   0.384 -0.2953 -0.2171  0.3076
  362SOL    HW1 1085   1.376   1.248   0.465 -0.2337  2.4021 -2.7405
  362SOL    HW2 1086   1.273   1.304   0.353  1.9244  0.4471  1.8563
  363SOL     OW 1087   2.532   1.629   2.863 -0.2429 -0.3934  0.6715
  363SOL    HW1 1088   2.520   1.546   2.919  0.4738 -0.6942  0.9018
  363SOL    HW2 1089   2.592   1.603   2.785 -0.4595 -1.7229  0.7562
  364SOL     OW 1090   0.958   0.104   1.388  0.1918 -0.3244  1.2143
  364SOL    HW1 1091   0.909   0.182   1.428 -2.1028  1.8805  0.7152
  364SOL    HW2 1092   0.889   0.030   1.369 -0.7641  0.0356  1.0046
  365SOL     OW 1093   0.195   3.060   0.386 -0.2541 -0.6786 -0.1672
  365SOL    HW1 1094   0.198   3.001   0.307  0.2548  2.5411  1.0322
  365SOL    HW2 1095   0.219   3.009   0.473 -2.0029 -0.3498  0.7003
  366SOL     OW 1096   2.684   1.670   0.036 -0.3936 -0.3564 -0.1175
  366SOL    HW1 1097   2.628   1.728   0.096 -0.8060  0.2339  0.1925
  366SOL    HW2 1098   2.785   1.670   0.059 -3.3415  0.5537 -2.2884
  367SOL     OW 1099   2.897   2.676   2.566  0.1859 -0.0929  0.3052
  367SOL    HW1 1100   2.858   2.733   2.488 -2.1318  1.1532 -2.3893
  367SOL    HW2 1101   2.861   2.580   2.557 -0.6736 -1.4733 -0.6867
  368SOL     OW 1102   0.157   1.735   0.896  0.1769  0.0909  0.5318
  368SOL    HW1 1103   0.095   1.814   0.926  0.7486  1.4426  0.0142
  368SOL    HW2 1104   0.243   1.778   0.871 -2.0247 -1.4417 -1.9910
  369SOL     OW 1105   0.832   0.103   0.321  0.1030 -0.1349  0.6815
  369SOL    HW1 1106   0.895   0.030   0.281  2.7315 -1.5980 -0.7146
  369SOL    HW2 1107   0.777   0.153   0.248 -0.0588 -1.3492 -0.9703
  370SOL     OW 1108   0.253   0.872   0.695 -0.1147  0.1196 -0.0462
  370SOL    HW1 1109   0.314   0.790   0.717 -1.6800 -2.8865 -1.3824
  370SOL    HW2 1110   0.203   0.898   0.784  1.4711  0.5615  0.9891
  371SOL     OW 1111   1.783   2.910   0.678 -0.2308  0.7408  0.9427
  371SOL    HW1 1112   1.858   2.978   0.668  0.4625  0.0510 -1.7101
  371SOL    HW2 1113   1.805   2.823   0.623 -0.1524 -1.3179  1.2511
  372SOL     OW 1114   0.127   0.960   2.654  0.6135 -0.1752 -0.4422
  372SOL    HW1 1115   0.221   0.995   2.679  3.7116 -1.0715 -1.4133
  372SOL    HW2 1116   0.110   0.970   2.551  2.2377  1.3259 -1.7338
  373SOL     OW 1117   2.783   1.843   0.727 -0.3404 -0.0389  0.1311
  373SOL    HW1 1118   2.828   1.913   0.785 -2.8699 -0.2861 -0.3600
  373SOL    HW2 1119   2.786   1.749   0.772  1.4314 -1.9688 -0.4090
  374SOL     OW 1120   0.314   2.507   0.361 -0.0761  0.2823 -0.0982
  374SOL    HW1 1121   0.311   2.533   0.264 -0.3759 -0.9972  0.8467
  374SOL    HW2 1122   0.407   2.467   0.375 -1.5704  2.0676 -0.3221
  375SOL     OW 1123   0.275   0.641   0.084 -0.1644 -0.7026  0.4509
  375SOL    HW1 1124   0.356   0.680   0.139  3.5836  1.5546  1.6464
  375SOL    HW2 1125   0.298   0.549   0.053  0.9723  0.7812  0.6926
  376SOL     OW 1126   0.545   2.465   2.133 -0.2349 -0.0743 -0.0531
  376SOL    HW1 1127   0.518   2.486   2.040 -0.9474 -0.3983  1.3855
  376SOL    HW2 1128   0.489   2.517   2.204 -0.2148  0.7759  1.2171
  377SOL     OW 1129   1.334   2.441   2.606  0.6592 -0.3100  0.2337
  377SOL    HW1 1130   1.393   2.527   2.615  3.2564 -1.1637 -3.2256
  377SOL    HW2 1131   1.392   2.366   2.570  1.4426  0.2753  0.2579
  378SOL     OW 1132   1.160   0.943   0.603 -0.4022  0.2563  0.5005
  378SOL    HW1 1133   1.099   1.022   0.639  0.4705  5.2752  2.3224
  378SOL    HW2 1134   1.257   0.975   0.599 -3.1615  0.4110  1.0063
  379SOL     OW 1135   1.042   1.814   0.283 -0.1885 -0.5817  0.2741
  379SOL    HW1 1136   1.064   1.804   0.379 -1.7956 -1.1922 -4.0677
  379SOL    HW2 1137   1.037   1.727   0.233  1.1809  0.7789 -0.5046
  380SOL     OW 1138   0.192   1.884   1.333 -0.1177 -0.2368 -0.3553
  380SOL    HW1 1139   0.141   1.816   1.386 -1.3866  1.1991 -1.0114
  380SOL    HW2 1140   0.144   1.977   1.353  0.0376  1.5882  0.5590
  381SOL     OW 1141   0.188   0.962   1.635 -0.0505 -0.0924  0.2025
  381SOL    HW1 1142   0.112   1.020   1.665  2.6626 -0.2265  0.3587
  381SOL    HW2 1143   0.225   0.916   1.716 -2.2081  0.2946  0.3777
  382SOL     OW 1144   2.435   2.145   0.536  0.9014  0.3058  0.5648
  382SOL    HW1 1145   2.337   2.158   0.567  1.3330  0.0393 -2.3009
  382SOL    HW2 1146   2.488   2.092   0.602  0.2792  0.4123 -0.0976
  383SOL     OW 1147   2.698   1.878   2.043  0.0110  0.4964 -0.3735
  383SOL    HW1 1148   2.648   1.956   2.086 -1.8098  0.4547 -1.7438
  383SOL    HW2 1149   2.733   1.816   2.117 -0.5889 -0.6291 -0.1619
  384SOL     OW 1150   0.219   2.074   2.080  0.4144 -0.0594 -0.0540
  384SOL    HW1 1151   0.262   2.036   2.164 -2.0936 -1.2147 -0.6721
  384SOL    HW2 1152   0.280   2.090   1.999 -2.2553  2.0239 -0.9800
  385SOL     OW 1153   2.903   2.227   0.702  0.1219 -0.0513  0.3114
  385SOL    HW1 1154   2.852   2.266   0.616  0.9286  2.2787 -1.3922
  385SOL    HW2 1155   2.954   2.310   0.733 -2.9522  2.3974 -0.3095
  386SOL     OW 1156   1.823   0.762   0.627  0.6460 -0.3538 -0.5691
  386SOL    HW1 1157   1.742   0.812   0.590  0.5121 -0.0141  0.7016
  386SOL    HW2 1158   1.909   0.773   0.571 -0.6926 -2.1782 -0.3098
  387SOL     OW 1159   0.363   0.879   1.850 -0.2232  0.0811  0.7679
  387SOL    HW1 1160   0.276   0.892   1.910 -2.1271  2.2441  1.7015
  387SOL    HW2 1161   0.445   0.921   1.905 -0.2152  1.2698  0.1961
  388SOL     OW 1162   2.275   0.953   2.487  0.0380  0.5243 -0.2851
  388SOL    HW1 1163   2.278   1.052   2.496  1.4979 -3.2387 -0.6740
  388SOL    HW2 1164   2.182   0.916   2.505  0.3607  0.9362  0.0069
  389SOL     OW 1165   1.894   1.277   1.798 -0.2233  0.4169  0.3825
  389SOL    HW1 1166   1.815   1.326   1.757 -0.3334  1.7943  0.8779
  389SOL    HW2 1167   1.981   1.305   1.756  1.3160 -0.5188 -0.3626
  390SOL     OW 1168   1.916   2.754   0.264  0.0175 -0.1957  0.0840
  390SOL    HW1 1169   1.979   2.832   0.284 -1.4069  1.5826  0.2593
  390SOL    HW2 1170   1.863   2.770   0.179  1.5614  1.4427 -0.9341
  391SOL     OW 1171   1.991   2.258   1.310  0.0605 -0.0582 -0.4866
  391SOL    HW1 1172   2.012   2.339   1.253  1.4516  0.9851 -0.6394
  391SOL    HW2 1173   1.902   2.215   1.296 -0.4588  2.0043 -0.7577
  392SOL     OW 1174   3.025   2.530   0.950 -0.4383 -0.3911 -0.4668
  392SOL    HW1 1175   2.930   2.496   0.965 -0.6955 -1.0475  0.0211
  392SOL    HW2 1176   3.083   2.461   0.900  0.7843 -0.7773  0.4830
  393SOL     OW 1177   2.085   1.805   3.056 -0.3321  0.4109 -0.1844
  393SOL    HW1 1178   2.059   1.712   3.090  0.8462  1.3720 -1.2552
  393SOL    HW2 1179   2.075   1.807   2.955 -0.7050 -2.2554  1.2757
  394SOL     OW 1180   3.110   0.256   3.116 -0.2412  0.4966 -0.4478
  394SOL    HW1 1181   3.083   0.354   3.098 -1.0805  2.1950 -0.1506
  394SOL    HW2 1182   3.084   0.208   3.032 -3.4398 -0.1904 -1.0392
  395SOL     OW 1183   1.312   1.057   1.177  0.0464 -0.1488  0.4773
  395SOL    HW1 1184   1.393   1.034   1.116  0.4506 -0.9099 -0.1907
  395SOL    HW2 1185   1.234   1.068   1.114  0.5727 -0.7952 -2.1015
  396SOL     OW 1186   1.617   0.890   3.003 -0.2322  0.5213 -0.1480
  396SOL    HW1 1187   1.635   0.985   2.964 -1.3493  1.6480 -0.9904
  396SOL    HW2 1188   1.541   0.844   2.951 -0.2939 -3.3315 -1.3065
  397SOL     OW 1189   0.087   0.689   2.701  0.3458  0.0763  0.6968
  397SOL    HW1 1190   3.119   0.655   2.657 -0.0506 -1.0682  1.7991
  397SOL    HW2 1191   0.094   0.792   2.695  4.0596 -2.0327  0.0237
  398SOL     OW 1192   0.865   0.358   0.075  0.0989 -0.2411  0.6057
  398SOL    HW1 1193   0.837   0.424   0.149 -0.2858  0.0669 -0.1681
  398SOL    HW2 1194   0.968   0.339   0.088 -0.1049  0.2489 -0.0322
  399SOL     OW 1195   2.666   2.923   1.895 -0.2465 -0.8068  0.5172
  399SOL    HW1 1196   2.691   2.943   1.798 -3.0078  1.8583  2.5453
  399SOL    HW2 1197   2.732   2.858   1.939  0.0098 -0.3246 -0.5081
  400SOL     OW 1198   0.317   1.737   2.102 -0.1899 -0.3744 -0.2880
  400SOL    HW1 1199   0.376   1.739   2.183 -3.1727 -2.5350 -1.6244
  400SOL    HW2 1200   0.244   1.665   2.103 -0.1134 -1.2665  0.2124
  401SOL     OW 1201   0.615   0.337   2.798 -0.7028 -0.2704 -0.0461
  401SOL    HW1 1202   0.565   0.386   2.872  1.3384  1.4060 -0.0240
  401SOL    HW2 1203   0.700   0.287   2.829  0.3348 -0.8893  0.5911
  402SOL     OW 1204   0.338   2.099   1.778  0.4834  0.5867 -0.4236
  402SOL    HW1 1205   0.314   1.997   1.793  0.8525  0.3249  1.6396
  402SOL    HW2 1206   0.359   2.126   1.681  0.9873  0.9972 -0.5936
  403SOL     OW 1207   0.728   1.042   1.535  0.5563 -0.3061  0.3334
  403SOL    HW1 1208   0.722   0.942   1.539  0.5724 -2.2129  3.0950
  403SOL    HW2 1209   0.706   1.084   1.626  0.0916 -2.2101  1.2354
  404SOL     OW 1210   2.774   2.400   1.487  0.4061  0.7927 -0.0426
  404SOL    HW1 1211   2.791   2.486   1.429 -0.6999 -0.8696 -1.4654
  404SOL    HW2 1212   2.834   2.325   1.454 -1.9340 -0.8426  0.4581
  405SOL     OW 1213   0.133   0.194   1.624  0.2010 -0.0010 -0.3824
  405SOL    HW1 1214   0.163   0.169   1.527  0.9219 -0.0667 -0.5839
  405SOL    HW2 1215   0.190   0.132   1.679 -3.2771  1.3623 -1.0860
  406SOL     OW 1216   1.823   2.549   3.014 -0.3478  0.0475  0.0840
  406SOL    HW1 1217   1.920   2.524   3.036 -0.0524  0.7252 -0.4972
  406SOL    HW2 1218   1.816   2.565   2.914  0.5275 -3.8008 -3.6333
  407SOL     OW 1219   1.414   1.191   1.748  0.4355 -0.1653  0.6551
  407SOL    HW1 1220   1.421   1.273   1.802  1.2953 -0.9799 -2.5850
  407SOL    HW2 1221   1.326   1.204   1.696  0.2659  0.1821  1.6170
  408SOL     OW 1222   0.871   3.100   2.510 -0.2182 -0.2922 -0.4805
  408SOL    HW1 1223   0.853   3.031   2.439  2.4149 -0.6123 -1.7014
  408SOL    HW2 1224   0.887   0.071   2.462  1.7373  0.3042  0.5772
  409SOL     OW 1225   2.927   2.605   0.527 -0.0808  0.0652  0.5467
  409SOL    HW1 1226   2.873   2.522   0.501  2.6340  1.4509 -0.8383
  409SOL    HW2 1227   3.023   2.589   0.502  2.4510 -0.3420  1.1055
  410SOL     OW 1228   2.583   1.614   0.506 -0.4172 -0.4907  0.1548
  410SOL    HW1 1229   2.561   1.642   0.606 -1.0022  0.0286 -0.1499
  410SOL    HW2 1230   2.684   1.590   0.498  1.4169 -1.8783  0.0421
  411SOL     OW 1231   3.092   0.672   0.943  0.5802  0.4948  1.0084
  411SOL    HW1 1232   0.032   0.589   0.956 -1.3376 -1.1225  2.2421
  411SOL    HW2 1233   0.033   0.752   0.940  1.3063 -0.3044 -0.1843
  412SOL     OW 1234   1.507   0.560   0.890 -0.2050 -0.4975  0.5498
  412SOL    HW1 1235   1.567   0.624   0.943  3.2086  0.5913  0.6141
  412SOL    HW2 1236   1.406   0.579   0.913 -1.1268 -0.2071  2.8386
  413SOL     OW 1237   0.955   0.459   1.125  0.1752 -0.0511 -0.0637
  413SOL    HW1 1238   0.989   0.366   1.136 -0.5130 -0.8048 -0.7917
  413SOL    HW2 1239   0.919   0.493   1.211  1.4159 -0.2033 -1.2162
  414SOL     OW 1240   0.287   1.653   2.942  0.1209 -0.0840 -0.4098
  414SOL    HW1 1241   0.243   1.670   2.848 -1.8915  0.9896 -2.6025
  414SOL    HW2 1242   0.345   1.569   2.942 -1.5983 -0.9365  0.9790
  415SOL     OW 1243   0.559   2.229   0.033 -0.0559  0.4268 -0.0578
  415SOL    HW1 1244   0.628   2.170   3.107  1.9570  0.1167 -0.7913
  415SOL    HW2 1245   0.503   2.283   3.088  0.3464 -2.5078  0.2496
  416SOL     OW 1246   1.565   0.875   0.449 -0.1640 -0.1056 -0.1899
  416SOL    HW1 1247   1.521   0.808   0.387 -1.4987 -1.1144  1.0643
  416SOL    HW2 1248   1.614   0.945   0.394  0.5107  0.0934 -0.7363
  417SOL     OW 1249   0.246   1.021   0.475 -0.0639  0.5858 -0.3652
  417SOL    HW1 1250   0.151   1.001   0.441 -2.2151 -1.2263 -1.9547
  417SOL    HW2 1251   0.254   0.983   0.571 -0.7353 -2.3111 -1.0642
  418SOL     OW 1252   2.554   1.376   2.518  0.2036  0.1054  0.2148
  418SOL    HW1 1253   2.524   1.362   2.420  0.0792  1.5332 -4.1002
  418SOL    HW2 1254   2.476   1.373   2.578  1.8052 -1.0482  1.3543
  419SOL     OW 1255   0.335   0.412   3.051 -0.0989 -0.8140 -0.2620
  419SOL    HW1 1256   0.303   0.315   3.070 -0.0103 -0.7716  0.3841
  419SOL    HW2 1257   0.265   0.467   2.998 -2.5594 -1.3743  1.0433
  420SOL     OW 1258   0.448   1.542   0.882 -0.3278  0.0830  0.3904
  420SOL    HW1 1259   0.419   1.580   0.974 -1.1074  0.6590  1.6169
  420SOL    HW2 1260   0.396   1.459   0.864  0.8585  1.8773  0.6835
  421SOL     OW 1261   0.541   2.287   0.746  0.1439 -0.5460  0.4207
  421SOL    HW1 1262   0.613   2.336   0.701 -1.8026  0.0264  1.3604
  421SOL    HW2 1263   0.489   2.231   0.682  0.8917  2.4396  1.2525
  422SOL     OW 1264   2.937   0.825   1.368  0.3931 -0.3309 -0.7025
  422SOL    HW1 1265   3.018   0.881   1.339  0.7209  1.7409  1.8412
  422SOL    HW2 1266   2.959   0.725   1.367  0.9135 -3.1661 -1.9192
  423SOL     OW 1267   1.452   1.401   1.208 -0.8488  0.4941 -0.3346
  423SOL    HW1 1268   1.502   1.338   1.144  0.0189  2.8175 -0.4015
  423SOL    HW2 1269   1.382   1.358   1.268 -1.4419 -1.7630 -1.2291
  424SOL     OW 1270   1.714   1.033   0.285  0.5114 -0.0440 -0.2901
  424SOL    HW1 1271   1.669   1.117   0.263 -0.0113 -0.4231  0.5960
  424SOL    HW2 1272   1.788   1.014   0.219  0.4791 -0.9364 -0.2193
  425SOL     OW 1273   0.048   0.002   1.951 -0.0352  0.1167 -0.4501
  425SOL    HW1 1274   0.035   0.065   2.029 -0.9310  0.2493 -0.8599
  425SOL    HW2 1275   0.145   0.006   1.913  1.3998 -1.5507 -0.3867
  426SOL     OW 1276   2.555   2.902   2.448  0.3250  0.1537 -0.0735
  426SOL    HW1 1277   2.499   2.867   2.527 -0.7890 -1.1670  2.5246
  426SOL    HW2 1278   2.503   2.972   2.392  0.0599  1.0398  1.3905
  427SOL     OW 1279   1.203   0.760   2.318  0.0422 -0.3721  0.1962
  427SOL    HW1 1280   1.201   0.670   2.270  0.6036 -1.2970  1.0336
  427SOL    HW2 1281   1.290   0.776   2.369  1.3977 -0.7199  1.0036
  428SOL     OW 1282   2.111   1.154   2.018  0.7846 -0.0020  0.2022
  428SOL    HW1 1283   2.020   1.101   2.015 -1.8302 -2.3950 -4.2892
  428SOL    HW2 1284   2.183   1.114   1.958 -1.0486 -0.6855  0.3380
  429SOL     OW 1285   2.699   0.050   0.656  0.1666  0.0777  0.1337
  429SOL    HW1 1286   2.654   0.084   0.574  1.7191  0.7964  2.0027
  429SOL    HW2 1287   2.799   0.062   0.654  0.6240 -0.4444 -0.1441
  430SOL     OW 1288   1.988   1.337   2.185 -0.1588 -0.3006 -0.2395
  430SOL    HW1 1289   2.040   1.282   2.116  0.5937 -2.5086  0.9738
  430SOL    HW2 1290   1.887   1.326   2.172  2.7503 -0.4941 -1.8823
  431SOL     OW 1291   3.095   1.920   0.991  0.0900 -0.6985 -0.1732
  431SOL    HW1 1292   3.005   1.965   0.958 -0.4129 -0.9419 -0.0399
  431SOL    HW2 1293   3.071   1.867   1.075 -1.9480 -1.4814  1.3863
  432SOL     OW 1294   1.530   2.932   2.163 -0.9654  0.0425 -0.0694
  432SOL    HW1 1295   1.484   3.013   2.198  1.8424 -0.2499 -0.4029
  432SOL    HW2 1296   1.595   2.958   2.087 -0.7937 -0.1297 -1.0577
  433SOL     OW 1297   1.531   3.011   1.738  0.0738 -0.0603 -0.6731
  433SOL    HW1 1298   1.443   2.988   1.688  0.6913  1.2910  1.1022
  433SOL    HW2 1299   1.582   2.923   1.769  0.1288 -2.2014 -1.1016
  434SOL     OW 1300   0.430   2.585   2.366 -0.1157  0.2153 -0.1018
  434SOL    HW1 1301   0.452   2.687   2.375 -1.0320  1.6493 -0.6916
  434SOL    HW2 1302   0.324   2.579   2.362 -4.3308 -1.6106 -2.0416
  435SOL     OW 1303   0.187   2.168   0.319  0.1299 -0.4006 -0.0277
  435SOL    HW1 1304   0.247   2.152   0.234 -1.4884  0.2549  0.9823
  435SOL    HW2 1305   0.171   2.078   0.365  2.7006  2.0708 -0.0687
  436SOL     OW 1306   0.911   0.889   1.796 -0.1217 -0.5231  0.6666
  436SOL    HW1 1307   0.989   0.825   1.806 -1.1324 -1.0109 -3.7963
  436SOL    HW2 1308   0.853   0.861   1.718 -0.2305 -0.1135 -0.5754
  437SOL     OW 1309   0.750   0.154   2.227  0.3154  0.4764  0.0032
  437SOL    HW1 1310   0.838   0.172   2.273  1.2541  0.3686 -0.0318
  437SOL    HW2 1311   0.678   0.161   2.302  0.0618 -0.8934 -0.2486
  438SOL     OW 1312   0.613   1.746   1.658 -0.2793 -0.2983 -0.1331
  438SOL    HW1 1313   0.677   1.829   1.662  0.6175  2.4257 -0.9067
  438SOL    HW2 1314   0.580   1.714   1.750  1.0673  0.8844 -0.2616
  439SOL     OW 1315   1.849   0.792   3.113 -0.1252 -0.0571  0.2977
  439SOL    HW1 1316   1.756   0.815   3.080 -0.9082 -4.0989 -2.6853
  439SOL    HW2 1317   1.901   0.875   0.019 -0.7322 -1.1626 -0.7301
  440SOL     OW 1318   0.864   0.822   0.503  0.8879  0.0733 -0.0664
  440SOL    HW1 1319   0.871   0.921   0.524  0.5478  1.0947 -1.7275
  440SOL    HW2 1320   0.771   0.790   0.474  0.7965  2.0918 -1.3303
  441SOL     OW 1321   0.774   2.425   1.709 -0.3142  0.0669  0.0007
  441SOL    HW1 1322   0.830   2.387   1.789  0.8267 -2.3440  2.1757
  441SOL    HW2 1323   0.739   2.346   1.657 -1.1321  4.0590  0.4916
  442SOL     OW 1324   2.824   1.905   0.472 -0.2018  0.4594 -0.7153
  442SOL    HW1 1325   2.741   1.949   0.426 -2.1409  1.3968  0.4195
  442SOL    HW2 1326   2.805   1.864   0.565  1.0393  1.3026 -0.0189
  443SOL     OW 1327   2.969   1.994   2.712  0.1339  0.6021  0.1442
  443SOL    HW1 1328   2.927   1.904   2.721 -0.4780  0.3820  2.5255
  443SOL    HW2 1329   3.071   1.988   2.689  3.7408 -0.8793 -0.5986
  444SOL     OW 1330   1.430   1.094   0.144  0.0027  0.2033 -0.2401
  444SOL    HW1 1331   1.475   1.001   0.139  2.2636 -1.8250  0.1261
  444SOL    HW2 1332   1.407   1.119   0.241 -2.0744  0.2055  3.7233
  445SOL     OW 1333   2.610   2.666   1.722 -0.0389  0.2488  0.4891
  445SOL    HW1 1334   2.708   2.694   1.694  3.9412 -2.6053 -1.5272
  445SOL    HW2 1335   2.602   2.619   1.814 -0.9512  0.3721  1.9329
  446SOL     OW 1336   2.897   1.244   0.531 -0.5063  1.0309 -0.3815
  446SOL    HW1 1337   2.948   1.172   0.579 -1.1873 -1.9358 -0.4210
  446SOL    HW2 1338   2.839   1.217   0.451 -2.1559  2.3822  0.9787
  447SOL     OW 1339   0.920   2.243   1.393 -0.2626 -0.7755  0.6048
  447SOL    HW1 1340   0.836   2.240   1.336  1.1273 -0.3897 -0.8444
  447SOL    HW2 1341   0.931   2.336   1.435 -1.4259 -2.2189  0.0258
  448SOL     OW 1342   1.436   1.523   1.704  0.2457 -0.0129 -0.8408
  448SOL    HW1 1343   1.440   1.498   1.804 -2.1326  2.6658 -1.3136
  448SOL    HW2 1344   1.338   1.530   1.671 -2.6506  2.8702 -0.6561
  449SOL     OW 1345   3.039   2.256   2.311  0.0962 -0.7846  0.0788
  449SOL    HW1 1346   3.029   2.268   2.416  0.5420  1.4256  2.9343
  449SOL    HW2 1347   0.017   2.261   2.281  0.2161 -1.3465 -1.7976
  450SOL     OW 1348   3.092   1.728   2.111 -0.6183  0.0249 -0.4892
  450SOL    HW1 1349   3.094   1.828   2.135  0.1545 -0.0615 -3.2571
  450SOL    HW2 1350   3.097   1.706   2.015  2.0515 -1.5030  0.3451
  451SOL     OW 1351   2.288   0.730   1.449  0.3009  0.1585 -0.8115
  451SOL    HW1 1352   2.224   0.811   1.445 -0.4970 -0.2305 -1.1977
  451SOL    HW2 1353   2.349   0.736   1.530  2.2716  1.7897 -2.1358
  452SOL     OW 1354   0.816   1.229   0.886 -0.5816 -0.3865  0.5177
  452SOL    HW1 1355   0.881   1.194   0.815  2.1141 -2.8492 -0.5036
  452SOL    HW2 1356   0.818   1.326   0.896 -1.9477 -1.8267 -0.6775
  453SOL     OW 1357   1.352   2.238   0.675 -0.7679  0.2922 -0.0743
  453SOL    HW1 1358   1.421   2.258   0.749  2.6526  1.6539  0.0072
  453SOL    HW2 1359   1.388   2.276   0.588  0.9139  2.6796 -1.6727
  454SOL     OW 1360   0.183   1.600   0.072  0.8237  0.2247 -0.1009
  454SOL    HW1 1361   0.236   1.654   0.141  2.4995 -0.6799  3.0180
  454SOL    HW2 1362   0.212   1.618   3.098  1.6134 -1.9433  1.1938
  455SOL     OW 1363   1.104   1.088   0.263  0.3001  0.1168 -0.5755
  455SOL    HW1 1364   1.140   1.021   0.191 -1.7319 -2.8092 -0.8134
  455SOL    HW2 1365   1.181   1.120   0.326  0.3480  1.3203  0.1981
  456SOL     OW 1366   1.777   2.722   0.881  0.4596 -0.7558  0.7112
  456SOL    HW1 1367   1.773   2.807   0.822  1.2206  1.1387 -2.1007
  456SOL    HW2 1368   1.750   2.642   0.829 -0.8086  2.5004 -2.6218
  457SOL     OW 1369   1.532   2.915   0.055 -0.1486 -0.4769 -0.0537
  457SOL    HW1 1370   1.596   2.978   0.005  0.8762 -0.7324 -0.2721
  457SOL    HW2 1371   1.439   2.915   0.017 -0.7484  0.3191 -0.1097
  458SOL     OW 1372   2.447   0.580   0.316  0.4471 -0.3194  0.1785
  458SOL    HW1 1373   2.381   0.575   0.394 -0.0225 -0.9220  3.6845
  458SOL    HW2 1374   2.499   0.669   0.322 -0.8313  1.8616 -1.5170
  459SOL     OW 1375   2.436   0.439   2.277  0.5734 -0.0500  0.0798
  459SOL    HW1 1376   2.370   0.514   2.293 -2.6622  0.1291 -0.6727
  459SOL    HW2 1377   2.528   0.482   2.280 -1.7135 -0.6155 -0.9130
  460SOL     OW 1378   2.724   0.545   2.732  0.3193 -0.0813 -0.0604
  460SOL    HW1 1379   2.783   0.546   2.817 -1.3745 -0.0492  2.1991
  460SOL    HW2 1380   2.634   0.595   2.750 -1.2799 -0.2712  0.5132
  461SOL     OW 1381   0.062   2.335   0.840 -0.4461 -0.6582 -0.2306
  461SOL    HW1 1382   0.106   2.261   0.889 -1.2227  2.3374 -1.9393
  461SOL    HW2 1383   0.091   2.331   0.743 -2.2926 -0.7624  0.1113
  462SOL     OW 1384   2.788   2.610   1.346 -0.0429 -0.5712  0.0898
  462SOL    HW1 1385   2.733   2.689   1.322  1.6771 -4.8001  1.7240
  462SOL    HW2 1386   2.890   2.646   1.356  2.7349 -1.4545  1.2618
  463SOL     OW 1387   2.360   1.849   2.801  0.2738 -0.5194 -0.7175
  463SOL    HW1 1388   2.413   1.873   2.717 -2.8057 -2.4260  1.9787
  463SOL    HW2 1389   2.411   1.775   2.850 -0.3807 -1.1841 -0.5454
  464SOL     OW 1390   0.820   2.647   1.542 -0.1440 -0.0256  0.7094
  464SOL    HW1 1391   0.789   2.582   1.614  1.1014 -0.6828  0.2662
  464SOL    HW2 1392   0.824   2.733   1.592 -0.3144 -4.5603 -2.3166
  465SOL     OW 1393   1.054   3.005   1.712 -0.1013  0.4051  0.5350
  465SOL    HW1 1394   1.145   2.970   1.689  1.7701 -0.2317  0.1036
  465SOL    HW2 1395   1.064   3.085   1.772  1.3163  0.3023 -0.8472
  466SOL     OW 1396   1.523   2.574   2.021  0.0087 -0.2726  0.0967
  466SOL    HW1 1397   1.604   2.624   1.981 -1.1837  1.9650  2.0991
  466SOL    HW2 1398   1.439   2.633   2.014 -1.3802  1.3022 -1.8079
  467SOL     OW 1399   1.078   2.036   1.341  0.5205 -0.4150  0.0207
  467SOL    HW1 1400   1.031   1.946   1.337 -0.2865 -1.2449 -1.6666
  467SOL    HW2 1401   1.021   2.123   1.340 -1.0427 -2.2110  0.0152
  468SOL     OW 1402   2.825   1.709   2.217 -0.1537 -0.2669  0.3523
  468SOL    HW1 1403   2.920   1.744   2.209 -0.4215  0.2957 -0.4763
  468SOL    HW2 1404   2.815   1.610   2.188 -0.0006 -0.1089 -2.7843
  469SOL     OW 1405   0.811   2.095   0.690 -0.2249 -0.1725 -0.1088
  469SOL    HW1 1406   0.867   2.119   0.773 -0.7620 -1.4055  2.0984
  469SOL    HW2 1407   0.866   2.036   0.626 -1.2156 -1.0606  1.2646
  470SOL     OW 1408   1.944   1.604   1.725  0.5653 -0.7219  0.6274
  470SOL    HW1 1409   1.890   1.566   1.645  2.0672  0.8211  0.7465
  470SOL    HW2 1410   2.032   1.634   1.693 -1.2391  0.3268  2.7626
  471SOL     OW 1411   0.613   2.543   0.086  0.3296 -0.7895 -0.5263
  471SOL    HW1 1412   0.538   2.574   0.152  0.7619 -3.7616 -0.9453
  471SOL    HW2 1413   0.634   2.450   0.109 -0.2590 -0.1119  1.9155
  472SOL     OW 1414   3.074   2.679   2.066  0.0541 -0.0483 -0.6267
  472SOL    HW1 1415   3.112   2.585   2.049 -0.8769  0.9130  0.7502
  472SOL    HW2 1416   3.098   2.738   1.982  0.7743  2.0727 -1.5684
  473SOL     OW 1417   0.799   2.731   0.471  0.1717  0.2227 -0.2098
  473SOL    HW1 1418   0.867   2.656   0.474  0.8802  2.0442 -1.4379
  473SOL    HW2 1419   0.775   2.757   0.374 -0.6011 -0.9766 -0.7739
  474SOL     OW 1420   2.621   2.636   0.873 -0.6857  0.5907 -0.0837
  474SOL    HW1 1421   2.543   2.599   0.928  3.0370 -0.5257 -3.2838
  474SOL    HW2 1422   2.577   2.700   0.802  1.4555  1.0180  0.5534
  475SOL     OW 1423   2.161   2.937   1.727 -0.6131 -0.3493  0.2795
  475SOL    HW1 1424   2.216   2.962   1.643 -0.1845 -0.0007  0.3243
  475SOL    HW2 1425   2.061   2.951   1.706 -1.2669 -2.5482 -0.0356
  476SOL     OW 1426   0.628   1.185   0.483  0.3603 -0.3628  0.3147
  476SOL    HW1 1427   0.609   1.285   0.493  0.6251 -3.7313 -2.7331
  476SOL    HW2 1428   0.615   1.135   0.568 -2.2584  1.2919 -2.4740
  477SOL     OW 1429   0.352   1.923   0.882  0.2040 -0.5289  0.4289
  477SOL    HW1 1430   0.320   2.017   0.898 -0.2729 -1.2200 -2.6176
  477SOL    HW2 1431   0.431   1.925   0.814  2.4150  2.1167  2.7818
  478SOL     OW 1432   0.178   2.589   2.354  0.3732  0.1321  0.5817
  478SOL    HW1 1433   0.162   2.675   2.299 -0.5263  1.8649 -2.6135
  478SOL    HW2 1434   0.149   2.607   2.448 -1.1476 -2.9907 -2.9861
  479SOL     OW 1435   0.228   0.143   1.368  0.0345  0.6700 -0.4069
  479SOL    HW1 1436   0.324   0.175   1.371 -1.5858  0.2108 -3.4945
  479SOL    HW2 1437   0.173   0.204   1.309  0.3922  1.5853  0.1083
  480SOL     OW 1438   3.020   2.519   3.070 -0.2514 -0.5067  0.4893
  480SOL    HW1 1439   3.038   2.424   3.038  0.3086  0.4257 -1.5337
  480SOL    HW2 1440   2.945   2.530   0.015  2.4799 -1.7912 -2.4444
  481SOL     OW 1441   2.213   2.110   1.680  0.4409 -0.4438 -0.2506
  481SOL    HW1 1442   2.192   2.039   1.751  0.2368 -0.9499 -0.4577
  481SOL    HW2 1443   2.224   2.058   1.589 -0.5545 -1.0944 -2.0490
  482SOL     OW 1444   1.856   2.253   2.651  0.6824  0.0451 -0.3755
  482SOL    HW1 1445   1.793   2.172   2.640  2.7773  1.3394  0.0027
  482SOL    HW2 1446   1.898   2.282   2.560  1.1826  3.5290  1.1419
  483SOL     OW 1447   0.740   1.713   2.435 -0.1055 -0.1183  0.7175
  483SOL    HW1 1448   0.763   1.615   2.448  0.4163  0.6065  0.4394
  483SOL    HW2 1449   0.825   1.772   2.444  2.5322 -0.5227  2.5475
  484SOL     OW 1450   0.032   0.295   1.248 -0.4316 -0.1582  0.7649
  484SOL    HW1 1451   3.096   0.252   1.173 -0.3764  1.0153  0.2102
  484SOL    HW2 1452   0.010   0.395   1.255 -0.2137 -0.5445 -1.8117
  485SOL     OW 1453   2.127   1.023   0.528  0.2851 -0.8908  0.1447
  485SOL    HW1 1454   2.168   1.097   0.469  0.1213 -1.8213 -1.5704
  485SOL    HW2 1455   2.025   1.036   0.525  1.5684 -0.1559  0.2078
  486SOL     OW 1456   1.443   0.090   2.203 -0.6534  0.6114  0.1149
  486SOL    HW1 1457   1.482   0.124   2.113 -0.2224 -0.9740  1.0417
  486SOL    HW2 1458   1.480   0.150   2.280  2.3216 -0.0606  0.2365
  487SOL     OW 1459   0.995   1.779   1.302  0.2403  0.0555 -0.1126
  487SOL    HW1 1460   0.947   1.730   1.379 -0.4920 -1.7429 -1.2463
  487SOL    HW2 1461   1.043   1.713   1.245  0.2772  1.2075  3.1593
  488SOL     OW 1462   2.338   1.331   3.100  0.2382 -0.4045 -0.0805
  488SOL    HW1 1463   2.440   1.332   3.086  3.3064 -2.7048 -1.0399
  488SOL    HW2 1464   2.306   1.413   0.037  0.5637  0.8902 -0.8689
  489SOL     OW 1465   2.273   3.082   0.455 -0.0664 -0.1376  0.7590
  489SOL    HW1 1466   2.253   3.070   0.553  1.3962  1.5805  0.1432
  489SOL    HW2 1467   2.247   0.053   0.417 -0.5033 -1.3974 -1.3246
  490SOL     OW 1468   1.201   2.695   0.082 -0.2786 -0.4600  0.3814
  490SOL    HW1 1469   1.254   2.615   0.037  0.0686 -4.3894  0.1103
  490SOL    HW2 1470   1.219   2.695   0.185  0.3682 -1.5706 -1.0650
  491SOL     OW 1471   1.119   1.081   0.965  0.0628 -0.4213 -0.6445
  491SOL    HW1 1472   1.053   1.018   1.008  1.4380 -0.5442 -0.8175
  491SOL    HW2 1473   1.073   1.152   0.910  1.4134 -1.6027  1.2513
  492SOL     OW 1474   1.176   0.198   2.806 -0.0983  0.5835  0.3100
  492SOL    HW1 1475   1.267   0.207   2.771 -3.7147 -1.2609  0.3601
  492SOL    HW2 1476   1.127   0.285   2.802 -0.4813 -1.9789  0.3599
  493SOL     OW 1477   1.946   2.074   3.062 -0.0964 -0.2445 -0.1473
  493SOL    HW1 1478   1.938   2.163   3.113  0.6598  1.0672 -1.4609
  493SOL    HW2 1479   2.017   2.023   3.117  1.1239 -1.1644  0.4844
  494SOL     OW 1480   0.409   1.431   0.249  0.5513 -0.2374 -0.0419
  494SOL    HW1 1481   0.355   1.518   0.262  2.0658  0.5066 -0.0507
  494SOL    HW2 1482   0.507   1.454   0.262 -2.7946 -1.1042 -1.2351
  495SOL     OW 1483   3.001   2.737   0.759  0.3017  0.0929 -0.3292
  495SOL    HW1 1484   3.043   2.666   0.815  0.2005 -0.5341 -0.1026
  495SOL    HW2 1485   2.958   2.688   0.679  0.7410 -0.3594  1.6654
  496SOL     OW 1486   2.791   0.168   1.627  0.3790  0.5102  0.5081
  496SOL    HW1 1487   2.745   0.101   1.563 -1.4412 -1.1619 -3.1264
  496SOL    HW2 1488   2.743   0.187   1.715  0.8247 -0.4212 -0.2451
  497SOL     OW 1489   2.264   1.228   2.499  0.3657  0.0957 -0.0785
  497SOL    HW1 1490   2.292   1.257   2.596 -0.1917 -1.2412  2.7403
  497SOL    HW2 1491   2.176   1.274   2.469  0.9041  2.1299 -1.5536
  498SOL     OW 1492   0.749   2.043   1.005 -0.3143 -1.3863 -0.2834
  498SOL    HW1 1493   0.648   2.050   1.001  0.7358 -1.1185 -2.3189
  498SOL    HW2 1494   0.780   1.966   1.065 -2.3865  0.0336 -0.3829
  499SOL     OW 1495   0.714   2.194   1.567  0.2664 -0.0051 -0.9399
  499SOL    HW1 1496   0.727   2.098   1.595  3.1858 -0.9991  1.8674
  499SOL    HW2 1497   0.783   2.216   1.498 -2.6805  0.7519  0.9829
  500SOL     OW 1498   1.016   1.956   0.053  0.5047  0.0478 -0.0111
  500SOL    HW1 1499   1.043   1.906   0.137  2.0001  1.4194 -2.3957
  500SOL    HW2 1500   0.995   2.053   0.072 -2.4250 -0.5717  0.4376
  501SOL     OW 1501   2.590   2.794   1.247 -0.4916  0.3096 -0.1280
  501SOL    HW1 1502   2.500   2.813   1.202 -0.6702  1.5823 -0.1515
  501SOL    HW2 1503   2.655   2.875   1.247  3.0322  1.9562  0.7533
  502SOL     OW 1504   3.022   0.310   1.705 -0.1498 -0.1821 -0.1125
  502SOL    HW1 1505   3.110   0.262   1.672  1.2993  0.6929 -0.0502
  502SOL    HW2 1506   2.957   0.342   1.633 -0.3734  1.3939  0.4963
  503SOL     OW 1507   2.272   1.081   1.820  0.1212  0.4729  0.4205
  503SOL    HW1 1508   2.354   1.022   1.837 -0.1905 -3.3265  0.2116
  503SOL    HW2 1509   2.283   1.165   1.768 -1.5296  3.4612 -3.6895
  504SOL     OW 1510   1.285   0.709   1.802 -0.5103  0.1137 -0.0804
  504SOL    HW1 1511   1.344   0.625   1.778  0.7494 -1.4247 -1.6514
  504SOL    HW2 1512   1.332   0.786   1.855  2.2466  3.5298  1.3129
  505SOL     OW 1513   0.779   2.973   2.286 -0.2622  0.0894  0.1190
  505SOL    HW1 1514   0.856   2.920   2.250  1.0553 -0.5713  2.1090
  505SOL    HW2 1515   0.755   3.055   2.227  2.5517  1.7793 -1.7289
  506SOL     OW 1516   0.147   0.455   0.955  0.2021  0.0803  0.3725
  506SOL    HW1 1517   0.146   0.413   0.862 -2.5671  1.3729 -0.8634
  506SOL    HW2 1518   0.199   0.397   1.022  0.4879  0.7713 -0.4247
  507SOL     OW 1519   1.472   0.331   3.031  0.3470  0.0800  0.1415
  507SOL    HW1 1520   1.553   0.369   3.084  0.1740 -0.5003  0.5851
  507SOL    HW2 1521   1.458   0.235   3.067  2.2529  1.7426 -0.3831
  508SOL     OW 1522   1.552   0.292   2.369 -0.4340 -0.2345 -0.5828
  508SOL    HW1 1523   1.537   0.392   2.342 -2.4122 -0.2218 -1.2456
  508SOL    HW2 1524   1.564   0.289   2.468 -1.6530  0.4754 -0.5441
  509SOL     OW 1525   0.795   1.264   2.278 -0.0702 -0.2327  0.2065
  509SOL    HW1 1526   0.843   1.293   2.189  0.0914  0.9133 -0.7068
  509SOL    HW2 1527   0.827   1.174   2.308 -0.5742  1.5598  0.1369
  510SOL     OW 1528   3.044   1.002   0.678 -0.6202  0.1546  0.3051
  510SOL    HW1 1529   2.943   0.990   0.696 -3.5440 -0.5664 -1.0800
  510SOL    HW2 1530   3.097   0.993   0.761 -1.2751  0.8507 -0.5614
  511SOL     OW 1531   1.839   2.003   1.076  0.0976  0.0195  0.1667
  511SOL    HW1 1532   1.808   2.081   1.137 -0.5447  0.4269 -0.2020
  511SOL    HW2 1533   1.918   2.038   1.015  2.0974  0.4609 -1.1699
  512SOL     OW 1534   0.240   1.657   0.551  0.3818  0.6279  0.2244
  512SOL    HW1 1535   0.190   1.608   0.624 -0.7827 -1.8533  0.1413
  512SOL    HW2 1536   0.342   1.670   0.567 -1.4782  0.9892  2.0135
  513SOL     OW 1537   0.096   2.348   0.563 -0.6420  0.5047 -0.1700
  513SOL    HW1 1538   0.108   2.251   0.535  1.2085  2.8443  0.9763
  513SOL    HW2 1539   0.091   2.417   0.485  1.6390 -1.0249  0.3981
  514SOL     OW 1540   2.502   1.954   2.595 -0.6598 -0.5442  0.2493
  514SOL    HW1 1541   2.517   2.055   2.583 -0.6803  0.1416 -1.6662
  514SOL    HW2 1542   2.547   1.907   2.512 -0.2518  0.0721 -1.8577
  515SOL     OW 1543   2.212   1.265   0.407 -0.1841 -0.1028  0.3673
  515SOL    HW1 1544   2.196   1.224   0.316  0.3919  0.2082  3.5120
  515SOL    HW2 1545   2.313   1.287   0.431  0.4926  0.4786 -1.5035
  516SOL     OW 1546   1.958   0.006   0.671 -0.1012  0.1044  0.6770
  516SOL    HW1 1547   1.957   0.107   0.686  0.4417 -1.2390  3.5423
  516SOL    HW2 1548   2.048   3.094   0.639  2.5215  0.8556 -0.6069
  517SOL     OW 1549   1.127   2.179   2.938  0.2757 -0.3583  0.2100
  517SOL    HW1 1550   1.074   2.215   3.017 -1.9965  0.4435  0.6708
  517SOL    HW2 1551   1.112   2.082   2.917  0.3539  1.9706 -1.3060
  518SOL     OW 1552   0.570   0.553   2.049  0.4035  0.0450 -0.2347
  518SOL    HW1 1553   0.643   0.481   2.069  3.3289 -2.3526 -0.8013
  518SOL    HW2 1554   0.619   0.633   2.014 -0.7318 -1.9479 -0.1208
  519SOL     OW 1555   2.947   1.316   0.153 -0.0610 -0.4465  0.5752
  519SOL    HW1 1556   3.003   1.406   0.159  1.1684  0.7492 -1.1579
  519SOL    HW2 1557   3.010   1.237   0.160 -0.7001  0.1867  0.3043
  520SOL     OW 1558   2.496   2.094   1.827  0.1256 -0.3488  0.5776
  520SOL    HW1 1559   2.415   2.100   1.764 -2.8190  1.2341 -0.2919
  520SOL    HW2 1560   2.560   2.174   1.817 -0.7976 -1.3818  0.7315
  521SOL     OW 1561   0.803   2.528   2.193  0.0842  0.5018 -0.5480
  521SOL    HW1 1562   0.786   2.541   2.291  1.5951 -0.8441  1.1403
  521SOL    HW2 1563   0.715   2.498   2.158  3.5058 -0.0511  4.4348
  522SOL     OW 1564   1.784   0.177   2.219 -0.0780  0.4204 -0.3297
  522SOL    HW1 1565   1.811   0.087   2.256  0.2443 -0.0794  1.8765
  522SOL    HW2 1566   1.697   0.207   2.262  2.0570 -0.4700 -0.2346
  523SOL     OW 1567   1.632   1.810   1.070 -0.0449 -0.0182 -0.0073
  523SOL    HW1 1568   1.709   1.871   1.093  0.0990 -2.0498  0.8097
  523SOL    HW2 1569   1.618   1.746   1.148  1.3615  3.9795  0.8400
  524SOL     OW 1570   1.010   2.560   0.489  0.6732 -0.5772 -0.5075
  524SOL    HW1 1571   1.093   2.591   0.442  0.6104 -1.0307  2.0181
  524SOL    HW2 1572   1.030   2.479   0.552  0.6053 -1.5296  3.6843
  525SOL     OW 1573   2.820   0.310   0.293  0.1442  0.3088 -0.7993
  525SOL    HW1 1574   2.764   0.370   0.234  3.4416 -1.5465  0.1234
  525SOL    HW2 1575   2.917   0.303   0.268 -0.1232 -0.3400 -0.1808
  526SOL     OW 1576   0.768   3.095   0.558  0.0333 -0.0936  0.0596
  526SOL    HW1 1577   0.669   3.070   0.560  2.7190 -0.3091 -0.3613
  526SOL    HW2 1578   0.794   0.020   0.468  0.1852 -1.6926 -0.8978
  527SOL     OW 1579   2.543   1.953   0.676  0.1700  0.2492 -0.2166
  527SOL    HW1 1580   2.631   1.898   0.677 -2.2440 -1.7058 -4.0991
  527SOL    HW2 1581   2.539   2.006   0.762  1.0074 -0.6539 -1.6432
  528SOL     OW 1582   2.906   0.635   2.189  0.1139 -0.2210 -0.3188
  528SOL    HW1 1583   2.933   0.566   2.260  0.9567  1.6894 -1.1990
  528SOL    HW2 1584   2.994   0.665   2.148  2.0573 -1.4648 -0.9350
  529SOL     OW 1585   1.201   1.627   2.675 -0.0674 -0.5320 -0.7184
  529SOL    HW1 1586   1.293   1.599   2.639  0.6245  0.8625 -0.0117
  529SOL    HW2 1587   1.202   1.661   2.769 -2.5362  0.4501  1.1901
  530SOL     OW 1588   1.676   1.185   2.302  0.1444  0.1540  0.3986
  530SOL    HW1 1589   1.595   1.244   2.324 -1.6577 -0.0173 -2.6188
  530SOL    HW2 1590   1.697   1.205   2.203  0.1863  0.9688 -2.1127
  531SOL     OW 1591   0.544   1.937   2.489 -0.6789 -0.1738  0.6542
  531SOL    HW1 1592   0.601   1.858   2.472  0.1896  1.2106 -1.0480
  531SOL    HW2 1593   0.476   1.920   2.559  4.0623  1.7452 -0.9304
  532SOL     OW 1594   2.011   1.430   0.429  0.1381  0.3656  0.0820
  532SOL    HW1 1595   2.095   1.376   0.429  0.8001  1.7115  2.4873
  532SOL    HW2 1596   2.035   1.530   0.426  1.0746  2.5464  0.4506
  533SOL     OW 1597   0.297   0.025   1.876  0.6585 -0.2452  0.4253
  533SOL    HW1 1598   0.372   0.095   1.879  1.0674  0.2809  0.7790
  533SOL    HW2 1599   0.305   3.090   1.787  0.0749 -2.5261 -4.0835
  534SOL     OW 1600   0.671   0.016   3.013  0.0910 -0.1955 -0.4258
  534SOL    HW1 1601   0.580   0.008   2.972  0.3942  1.2647  1.7261
  534SOL    HW2 1602   0.668   0.097   3.076  0.4010 -0.5112  1.4262
  535SOL     OW 1603   0.276   0.198   0.515  0.2153  0.0357 -0.3078
  535SOL    HW1 1604   0.363   0.249   0.494 -0.7037  0.4339  1.5442
  535SOL    HW2 1605   0.250   0.126   0.450  1.7899 -1.2667  0.4729
  536SOL     OW 1606   0.209   1.276   1.403 -0.9603 -0.0869  0.5862
  536SOL    HW1 1607   0.237   1.180   1.398 -1.6562 -0.2070  0.4903
  536SOL    HW2 1608   0.277   1.333   1.450  2.3557  1.8137  0.6820
  537SOL     OW 1609   1.213   2.646   1.637  0.1902 -0.7159 -0.3007
  537SOL    HW1 1610   1.140   2.636   1.712 -3.5731 -0.7385 -0.4445
  537SOL    HW2 1611   1.260   2.558   1.629 -0.5169  0.9583 -2.5176
  538SOL     OW 1612   0.132   1.925   0.451 -0.6415  0.0813  0.3283
  538SOL    HW1 1613   0.193   1.863   0.504 -0.3616  0.0791  1.1735
  538SOL    HW2 1614   0.050   1.946   0.506  2.0808  1.7630  1.6530
  539SOL     OW 1615   2.670   1.133   2.603 -0.4971 -0.1680  0.5493
  539SOL    HW1 1616   2.743   1.145   2.676 -1.3909  2.1458  1.4989
  539SOL    HW2 1617   2.640   1.222   2.565 -3.0006 -1.4829 -0.7993
  540SOL     OW 1618   1.900   0.972   1.963  0.4605 -0.4314  0.2682
  540SOL    HW1 1619   1.969   0.901   1.947  2.0083  1.4678 -4.1655
  540SOL    HW2 1620   1.854   0.983   1.876  1.8418 -0.2397 -0.2743
  541SOL     OW 1621   0.726   0.742   1.954  0.3038 -0.1542  0.4263
  541SOL    HW1 1622   0.740   0.767   2.048 -1.1077  0.2883 -1.6018
  541SOL    HW2 1623   0.773   0.806   1.888 -0.0291  1.4756 -0.1258
  542SOL     OW 1624   2.064   0.354   3.007 -0.3128 -0.1855 -0.0994
  542SOL    HW1 1625   1.996   0.427   2.976 -0.7586  3.6978 -0.5365
  542SOL    HW2 1626   2.158   0.382   2.978  0.0985 -0.2705 -3.8747
  543SOL     OW 1627   0.993   3.003   0.210 -0.7378 -0.1375 -0.1099
  543SOL    HW1 1628   0.960   2.960   0.119  0.3553  2.0736  0.7267
  543SOL    HW2 1629   1.067   3.074   0.199  2.5760  0.9674 -0.2546
  544SOL     OW 1630   2.839   1.433   1.900  0.2884  0.1494  0.1734
  544SOL    HW1 1631   2.849   1.417   2.000  1.6494 -0.0125 -2.5637
  544SOL    HW2 1632   2.743   1.421   1.878  2.0928  0.7107 -0.7198
  545SOL     OW 1633   1.944   2.414   1.891  0.0000  0.2000 -0.4784
  545SOL    HW1 1634   1.905   2.347   1.825  0.5605 -0.3927 -2.6797
  545SOL    HW2 1635   2.012   2.471   1.838 -0.6697 -1.5401 -1.6127
  546SOL     OW 1636   0.180   0.193   2.640 -0.9382  0.2089  0.2009
  546SOL    HW1 1637   0.152   0.106   2.595  0.4186 -0.1982  2.8713
  546SOL    HW2 1638   0.282   0.189   2.652  0.3278  0.3742 -2.2518
  547SOL     OW 1639   1.866   1.073   0.796  0.7479  0.1403  0.4371
  547SOL    HW1 1640   1.862   1.076   0.695  1.7362 -0.6538  1.7290
  547SOL    HW2 1641   1.850   1.162   0.837 -1.8955  0.1780 -1.8246
  548SOL     OW 1642   1.911   1.816   2.281  0.8062 -0.5357 -0.3914
  548SOL    HW1 1643   1.948   1.868   2.364  1.9527 -0.4860  0.4419
  548SOL    HW2 1644   1.925   1.860   2.194 -1.0938 -2.9717  0.8497
  549SOL     OW 1645   2.123   0.339   0.596 -0.8480 -0.3371 -0.3426
  549SOL    HW1 1646   2.031   0.333   0.642 -0.4263 -0.4932  0.4727
  549SOL    HW2 1647   2.197   0.302   0.658  0.6981 -2.2504  1.4053
  550SOL     OW 1648   2.345   1.833   0.530  0.0607  0.1131 -0.2045
  550SOL    HW1 1649   2.418   1.889   0.578  1.3074  0.1787  1.5268
  550SOL    HW2 1650   2.301   1.766   0.594 -0.5887  0.3003  0.2766
  551SOL     OW 1651   1.257   2.725   2.258 -0.1952  0.1139  0.2540
  551SOL    HW1 1652   1.274   2.825   2.259  0.0259  0.5338  0.3006
  551SOL    HW2 1653   1.161   2.700   2.266  1.4671 -1.8887 -2.5335
  552SOL     OW 1654   0.081   2.378   2.648 -0.0293  0.8673 -0.2575
  552SOL    HW1 1655   3.108   2.337   2.623 -1.7674 -2.5986 -0.5121
  552SOL    HW2 1656   0.149   2.303   2.620 -1.6732 -1.1289 -0.1463
  553SOL     OW 1657   0.239   0.204   1.032 -0.4489 -0.2910  0.0744
  553SOL    HW1 1658   0.265   0.191   0.934  2.1030  1.1012  2.8660
  553SOL    HW2 1659   0.172   0.137   1.059 -0.4749  2.3838 -0.6837
  554SOL     OW 1660   2.376   2.255   2.062 -0.2956 -0.0642  0.0710
  554SOL    HW1 1661   2.436   2.174   2.075  2.9047 -1.3687  2.8056
  554SOL    HW2 1662   2.361   2.275   1.962  1.6194  1.9654  0.0326
  555SOL     OW 1663   1.428   2.338   1.911  0.0803  0.5142 -0.7336
  555SOL    HW1 1664   1.360   2.354   1.833 -2.3751  0.6425 -3.6613
  555SOL    HW2 1665   1.468   2.426   1.937 -1.0612 -0.2101  0.2999
  556SOL     OW 1666   1.473   1.753   1.579  0.4707  0.1418  0.1412
  556SOL    HW1 1667   1.525   1.820   1.635 -2.3832 -0.0466 -0.0050
  556SOL    HW2 1668   1.475   1.665   1.626  0.4681  1.5310 -0.3789
  557SOL     OW 1669   1.965   2.362   2.421  0.5528  0.0120 -0.2557
  557SOL    HW1 1670   2.056   2.394   2.461 -0.8265  0.7974  1.5302
  557SOL    HW2 1671   1.955   2.388   2.323  0.1007 -2.4389 -1.8446
  558SOL     OW 1672   0.450   2.792   1.876  0.3184 -0.0619 -0.9820
  558SOL    HW1 1673   0.487   2.848   1.806 -1.3457 -0.6532  0.9725
  558SOL    HW2 1674   0.391   2.847   1.941 -1.1296  4.1725  0.3445
  559SOL     OW 1675   2.189   2.814   0.872 -0.1764  0.2135  0.0931
  559SOL    HW1 1676   2.165   2.799   0.772  1.2431 -1.0080  3.6330
  559SOL    HW2 1677   2.199   2.910   0.905  0.7245 -0.6668  2.7711
  560SOL     OW 1678   1.797   2.445   0.540  0.0026  0.0686  0.3962
  560SOL    HW1 1679   1.696   2.450   0.565 -1.4734  0.7792 -1.7325
  560SOL    HW2 1680   1.853   2.363   0.572  2.2916 -0.8484  0.0239
  561SOL     OW 1681   1.011   0.306   0.792  0.1654  0.3119 -0.6598
  561SOL    HW1 1682   1.065   0.331   0.711 -0.4173  1.1797  1.9041
  561SOL    HW2 1683   0.966   0.216   0.788  3.9326  1.5247  3.5692
  562SOL     OW 1684   0.909   0.650   2.642 -0.5408  0.3494  0.0375
  562SOL    HW1 1685   0.915   0.551   2.654 -2.2250 -0.4979 -0.3473
  562SOL    HW2 1686   0.861   0.674   2.558 -0.2027 -0.8979  1.0694
  563SOL     OW 1687   1.855   1.644   2.758  0.8711  0.0431 -0.3894
  563SOL    HW1 1688   1.775   1.689   2.801 -1.6676 -0.3527 -0.0085
  563SOL    HW2 1689   1.940   1.699   2.755 -1.1023  0.7207 -2.1550
  564SOL     OW 1690   2.554   1.011   1.371 -0.2066  0.0357  0.5581
  564SOL    HW1 1691   2.619   1.022   1.448  0.4732  2.9374 -3.8336
  564SOL    HW2 1692   2.606   0.978   1.288  1.3477  1.6030 -0.2597
  565SOL     OW 1693   1.074   0.577   3.003  0.1840  0.2076  0.5242
  565SOL    HW1 1694   1.115   0.673   3.016 -0.7350  2.5928  0.1906
  565SOL    HW2 1695   0.975   0.579   3.025  1.4055 -2.1027 -0.4177
  566SOL     OW 1696   1.885   0.385   2.640 -0.2595 -0.1980 -0.1995
  566SOL    HW1 1697   1.925   0.399   2.549  0.3571 -0.1360  3.1471
  566SOL    HW2 1698   1.949   0.317   2.688  2.7804 -0.6769 -1.9803
  567SOL     OW 1699   2.190   1.837   0.281 -0.2000 -0.2895  0.1854
  567SOL    HW1 1700   2.262   1.819   0.351 -0.7219  0.6843  1.7558
  567SOL    HW2 1701   2.225   1.893   0.201  2.0386 -2.3097  0.5473
  568SOL     OW 1702   1.838   1.758   0.126 -0.1034 -0.1112 -0.2589
  568SOL    HW1 1703   1.886   1.785   0.039  0.5589  0.6994 -0.3767
  568SOL    HW2 1704   1.740   1.799   0.123 -1.3079  0.6632 -0.2449
  569SOL     OW 1705   1.923   1.104   0.071  0.1561  0.0537  0.0960
  569SOL    HW1 1706   1.879   1.193   0.035 -1.8023  0.6304 -1.7285
  569SOL    HW2 1707   2.021   1.114   0.080 -5.3355 -1.7249 -0.4688
  570SOL     OW 1708   0.542   2.527   1.876  0.2112 -0.1134 -0.1244
  570SOL    HW1 1709   0.502   2.620   1.868 -0.5178  1.2035  1.6807
  570SOL    HW2 1710   0.633   2.515   1.835 -0.2683 -1.0819 -0.1133
  571SOL     OW 1711   0.508   1.025   2.047 -0.0487  0.0161 -0.4061
  571SOL    HW1 1712   0.494   1.115   2.007 -0.2694  0.8045 -0.4451
  571SOL    HW2 1713   0.446   1.012   2.127  0.5349  0.7791 -0.2975
  572SOL     OW 1714   0.996   1.458   0.476 -0.4709  0.8456  0.7475
  572SOL    HW1 1715   0.956   1.363   0.476 -1.8810 -1.3937 -1.8967
  572SOL    HW2 1716   1.058   1.466   0.396  0.7711 -0.7054 -1.8521
  573SOL     OW 1717   1.676   2.036   2.964 -0.3400  0.2867 -0.1265
  573SOL    HW1 1718   1.607   2.114   2.984 -2.8667  1.2017  1.1672
  573SOL    HW2 1719   1.766   2.057   3.007  1.3967  0.1553  1.7319
  574SOL     OW 1720   0.927   0.187   1.122  0.2447  0.3965 -0.3358
  574SOL    HW1 1721   0.898   0.175   1.221 -1.7120 -0.7276  1.8162
  574SOL    HW2 1722   0.852   0.145   1.068 -2.6286  0.3557 -0.2544
  575SOL     OW 1723   0.293   1.005   1.379  0.1485 -0.0472  0.5617
  575SOL    HW1 1724   0.278   0.989   1.477 -1.2095  0.6226  2.2034
  575SOL    HW2 1725   0.388   1.028   1.361 -0.9855  0.4470 -0.3670
  576SOL     OW 1726   2.346   2.847   1.148  0.7195  0.0051 -0.0033
  576SOL    HW1 1727   2.254   2.898   1.174 -2.6673  1.2475  0.2602
  576SOL    HW2 1728   2.363   2.862   1.048 -1.3326 -0.2746  1.4312
  577SOL     OW 1729   1.141   1.012   2.311 -0.3856  0.1035 -0.3219
  577SOL    HW1 1730   1.195   1.055   2.238 -1.0244 -2.6690  0.7859
  577SOL    HW2 1731   1.162   0.913   2.311 -1.0958  1.8716 -1.1742
  578SOL     OW 1732   1.994   0.902   2.540 -0.0351 -0.2393 -0.2123
  578SOL    HW1 1733   1.917   0.907   2.470 -2.4229 -0.5883 -1.5809
  578SOL    HW2 1734   1.952   0.882   2.630  2.6781 -0.6210 -3.2681
  579SOL     OW 1735   2.334   2.330   1.795 -0.4246 -0.1761 -0.5287
  579SOL    HW1 1736   2.266   2.273   1.744  2.2009 -0.7532 -1.2805
  579SOL    HW2 1737   2.402   2.373   1.729  0.6599  1.2405 -1.4554
  580SOL     OW 1738   1.724   1.632   2.318 -0.1414  0.2362  0.8885
  580SOL    HW1 1739   1.809   1.689   2.325  3.1514 -1.8084  0.0172
  580SOL    HW2 1740   1.692   1.590   2.402 -2.9826 -0.0327 -1.3270
  581SOL     OW 1741   1.446   1.519   2.592  0.7167  0.0673  0.0924
  581SOL    HW1 1742   1.549   1.522   2.595  0.7937 -0.2817  1.5525
  581SOL    HW2 1743   1.412   1.425   2.571 -1.4189  1.9927 -0.6348
  582SOL     OW 1744   0.825   1.562   1.831 -0.2181 -0.2971  0.7950
  582SOL    HW1 1745   0.832   1.506   1.747 -1.8989  0.2389  0.9546
  582SOL    HW2 1746   0.892   1.639   1.823  2.0605  0.9119 -1.4309
  583SOL     OW 1747   1.572   1.040   1.585  0.4667 -0.0776  0.0018
  583SOL    HW1 1748   1.513   0.955   1.585 -0.2649  0.7402 -0.8767
  583SOL    HW2 1749   1.517   1.112   1.626 -0.1830  1.1791 -1.7266
  584SOL     OW 1750   1.885   2.693   0.519  0.1003 -0.0467  0.0723
  584SOL    HW1 1751   1.851   2.597   0.538  2.4255 -0.4985  1.7441
  584SOL    HW2 1752   1.895   2.722   0.420 -0.7001  1.4477 -0.0929
  585SOL     OW 1753   1.843   2.909   2.784  0.3043 -0.1252  0.1743
  585SOL    HW1 1754   1.908   2.847   2.739 -1.4406  1.5087  0.2486
  585SOL    HW2 1755   1.889   2.965   2.854  0.1305 -0.0920  1.9087
  586SOL     OW 1756   2.855   2.060   0.899  0.3571 -0.5358 -0.1922
  586SOL    HW1 1757   2.826   2.109   0.984  1.0913 -1.5924  1.6276
  586SOL    HW2 1758   2.869   2.123   0.821 -0.7684  0.2654 -0.3782
  587SOL     OW 1759   1.589   1.853   0.108  0.4712  0.0382 -0.4174
  587SOL    HW1 1760   1.559   1.946   0.144 -2.1701  0.9234  1.7148
  587SOL    HW2 1761   1.535   1.819   0.028 -1.8188 -1.5820 -1.7053
  588SOL     OW 1762   0.425   0.387   1.104 -0.1073 -0.0014  0.6253
  588SOL    HW1 1763   0.476   0.418   1.022  1.0064  0.1917 -0.5564
  588SOL    HW2 1764   0.364   0.303   1.087 -0.9207 -2.4223 -2.2721
  589SOL     OW 1765   1.183   0.385   0.588 -0.3766  0.5116  0.1060
  589SOL    HW1 1766   1.130   0.468   0.560 -0.8113 -2.9930  0.7147
  589SOL    HW2 1767   1.160   0.316   0.516  0.1186 -1.4244  2.0060
  590SOL     OW 1768   1.405   0.800   2.875 -0.0299 -0.0020  0.0129
  590SOL    HW1 1769   1.390   0.791   2.777 -0.0760 -0.3270  0.3350
  590SOL    HW2 1770   1.322   0.818   2.923  2.6796  2.0799 -0.3737
  591SOL     OW 1771   2.770   2.186   2.301  0.2517  0.2647  0.0326
  591SOL    HW1 1772   2.728   2.275   2.273  0.1388  1.5246  0.7247
  591SOL    HW2 1773   2.868   2.197   2.316 -3.0815 -0.5430 -0.7665
  592SOL     OW 1774   2.585   1.372   1.845 -0.3435 -0.9888  0.1920
  592SOL    HW1 1775   2.546   1.406   1.758 -0.9676 -1.0811 -0.7209
  592SOL    HW2 1776   2.514   1.371   1.915  0.7866 -1.1018 -4.9323
  593SOL     OW 1777   1.222   0.960   1.417 -0.1061 -0.6533 -0.5853
  593SOL    HW1 1778   1.260   0.972   1.321  0.7820 -0.8363  1.3513
  593SOL    HW2 1779   1.289   0.914   1.478 -0.1116 -1.7454 -0.9270
  594SOL     OW 1780   2.595   1.425   3.051  0.7700 -0.2769 -0.2487
  594SOL    HW1 1781   2.607   1.508   3.116 -0.3746  1.0648  0.2830
  594SOL    HW2 1782   2.685   1.404   3.007 -0.5680  0.0003 -1.8129
  595SOL     OW 1783   0.466   0.389   0.760  0.2484  0.2867  0.4202
  595SOL    HW1 1784   0.389   0.325   0.788 -0.7107 -0.8531  3.5350
  595SOL    HW2 1785   0.552   0.354   0.799 -3.0671  0.9796 -1.9078
  596SOL     OW 1786   3.068   1.323   1.204 -0.1210  0.4781  0.3011
  596SOL    HW1 1787   3.055   1.230   1.230  3.8111  3.4855 -1.6802
  596SOL    HW2 1788   0.018   1.329   1.134  0.7217 -1.0402 -0.1569
  597SOL     OW 1789   1.234   1.793   0.777  0.1240  0.2566  0.3021
  597SOL    HW1 1790   1.171   1.716   0.808 -1.3850 -0.5639  0.6223
  597SOL    HW2 1791   1.192   1.890   0.782  0.9458  0.8688  0.7445
  598SOL     OW 1792   0.529   2.906   1.628 -0.2540  0.4952  0.9380
  598SOL    HW1 1793   0.631   2.901   1.627 -0.5472  0.2927 -1.2968
  598SOL    HW2 1794   0.494   2.859   1.545  1.1075 -0.6893  0.3662
  599SOL     OW 1795   0.111   1.742   2.754 -0.2380 -0.3667  0.4635
  599SOL    HW1 1796   0.053   1.725   2.838  0.4471 -0.8494 -0.8004
  599SOL    HW2 1797   0.145   1.839   2.755 -2.3792 -1.1590  1.1706
  600SOL     OW 1798   0.171   0.879   2.949 -0.2179  0.0308 -0.2920
  600SOL    HW1 1799   0.134   0.786   2.970 -0.5742  0.3957  0.8045
  600SOL    HW2 1800   0.179   0.889   2.850  0.1300  1.1055  0.4524
  601SOL     OW 1801   0.588   0.725   1.268  0.1253  0.1194 -0.0555
  601SOL    HW1 1802   0.580   0.821   1.301  3.6222 -3.2050 -1.3145
  601SOL    HW2 1803   0.502   0.668   1.268  0.3426 -3.4725 -0.6219
  602SOL     OW 1804   0.959   0.037   0.746  0.1498  0.1065  0.6020
  602SOL    HW1 1805   1.044   3.113   0.712  1.2435  0.5012 -1.5858
  602SOL    HW2 1806   0.880   0.017   0.680 -0.9745 -1.7774  0.1444
  603SOL     OW 1807   1.659   2.179   2.288 -0.1509  0.4434  0.1957
  603SOL    HW1 1808   1.738   2.137   2.245  0.7083  1.1685 -0.6472
  603SOL    HW2 1809   1.654   2.278   2.258 -0.0428  1.7969 -1.1290
  604SOL     OW 1810   0.431   3.087   2.916  0.1211 -0.1487  0.1487
  604SOL    HW1 1811   0.341   3.040   2.910  1.0217  1.7892 -0.4718
  604SOL    HW2 1812   0.442   0.019   2.830 -1.5812  1.1007  1.1875
  605SOL     OW 1813   2.692   1.155   1.563 -0.0794  0.2367  0.4018
  605SOL    HW1 1814   2.679   1.187   1.660 -0.9683 -1.1109 -1.3661
  605SOL    HW2 1815   2.725   1.231   1.507  0.0474 -0.0759  1.3030
  606SOL     OW 1816   0.916   1.690   2.779 -0.1012  0.2912  0.4042
  606SOL    HW1 1817   0.967   1.640   2.709  1.1395  0.8410 -0.5860
  606SOL    HW2 1818   0.815   1.691   2.765 -2.2508  2.5892 -0.5827
  607SOL     OW 1819   0.730   0.376   0.543  0.0951  0.0063 -0.0621
  607SOL    HW1 1820   0.656   0.440   0.546  3.6210 -1.6146 -2.3786
  607SOL    HW2 1821   0.814   0.420   0.505  1.5985  1.4219 -1.7132
  608SOL     OW 1822   2.833   1.685   1.440 -0.3256 -0.2910 -0.2883
  608SOL    HW1 1823   2.790   1.657   1.529 -0.0552 -0.5768  0.6814
  608SOL    HW2 1824   2.909   1.624   1.403  1.1027  1.1894 -1.5146
  609SOL     OW 1825   2.663   0.347   0.933  0.3880 -0.1987  0.1294
  609SOL    HW1 1826   2.648   0.262   0.990 -1.9743 -1.1208  0.5486
  609SOL    HW2 1827   2.577   0.384   0.894 -0.3631 -1.6320 -1.1701
  610SOL     OW 1828   0.168   2.589   1.400 -0.2134 -0.4538  0.1100
  610SOL    HW1 1829   0.193   2.506   1.455 -1.8188 -0.6470 -0.4112
  610SOL    HW2 1830   0.152   2.553   1.306  0.9782 -1.0777  2.6625
  611SOL     OW 1831   1.379   1.650   0.297  0.3277 -0.4215  0.7277
  611SOL    HW1 1832   1.457   1.626   0.363  0.1187  1.6004  0.8638
  611SOL    HW2 1833   1.373   1.754   0.284  0.9703  1.6887  0.3938
  612SOL     OW 1834   0.951   2.755   2.054 -0.5943 -0.8191 -0.1791
  612SOL    HW1 1835   0.942   2.728   2.150  1.5876  0.0306 -0.9418
  612SOL    HW2 1836   0.867   2.785   2.012  1.9718  0.2075  0.2347
  613SOL     OW 1837   0.308   2.600   0.948  0.1444  0.6050  0.0896
  613SOL    HW1 1838   0.322   2.545   0.865 -0.0421  4.0454  0.4207
  613SOL    HW2 1839   0.401   2.633   0.979 -2.2503  1.5343 -0.8653
  614SOL     OW 1840   2.166   0.034   2.213 -0.1214 -0.2930  0.1031
  614SOL    HW1 1841   2.175   0.135   2.229 -1.8483 -1.7873 -0.2494
  614SOL    HW2 1842   2.207   0.013   2.123  0.3423 -0.3951 -0.8703
  615SOL     OW 1843   1.214   1.435   0.268  0.3699 -0.5033  0.5676
  615SOL    HW1 1844   1.148   1.467   0.194 -0.9306  1.0240 -0.7199
  615SOL    HW2 1845   1.278   1.517   0.287  0.4336 -0.1245 -2.0927
  616SOL     OW 1846   1.576   1.601   0.478  0.2417  0.3533 -0.4409
  616SOL    HW1 1847   1.624   1.510   0.476 -1.0287  0.9376  1.1944
  616SOL    HW2 1848   1.526   1.607   0.567  0.2742 -1.8355  2.0334
  617SOL     OW 1849   1.317   1.254   2.576  0.1389 -0.1390  0.0089
  617SOL    HW1 1850   1.220   1.225   2.579  3.9881 -0.9240 -2.4225
  617SOL    HW2 1851   1.377   1.174   2.569  0.7573  2.7580  0.6644
  618SOL     OW 1852   0.694   0.006   2.001 -0.3108  0.3079  0.3145
  618SOL    HW1 1853   0.639   0.048   1.932  1.9493  1.0349  1.9452
  618SOL    HW2 1854   0.708   0.068   2.082  1.3003 -1.6327  1.2693
  619SOL     OW 1855   3.034   1.529   1.358 -0.2102  0.0350 -0.0735
  619SOL    HW1 1856   0.001   1.518   1.413  1.1833  0.5665 -0.6655
  619SOL    HW2 1857   3.026   1.456   1.285 -1.8924  0.9307  0.4240
  620SOL     OW 1858   2.417   0.435   2.651  0.2168  0.2438 -0.0151
  620SOL    HW1 1859   2.480   0.492   2.703 -0.5489 -3.8328 -0.7273
  620SOL    HW2 1860   2.366   0.486   2.576  0.4249  0.9021  1.1055
  621SOL     OW 1861   2.181   2.078   2.639  0.4821  0.0184 -0.5500
  621SOL    HW1 1862   2.273   2.039   2.670  0.3451  1.4520 -0.3656
  621SOL    HW2 1863   2.127   2.123   2.715 -1.1835 -1.4241  2.0541
  622SOL     OW 1864   1.085   0.893   2.640 -0.4763 -0.3445  0.3701
  622SOL    HW1 1865   1.013   0.820   2.652 -1.5368 -0.3886  0.8853
  622SOL    HW2 1866   1.090   0.961   2.713 -0.9605 -1.1856  0.4502
  623SOL     OW 1867   0.867   0.971   2.367 -0.6448  0.3393  0.5839
  623SOL    HW1 1868   0.963   0.959   2.339  1.2642 -1.3604  0.3634
  623SOL    HW2 1869   0.806   0.923   2.304  1.8771  0.7763 -1.9822
  624SOL     OW 1870   2.888   0.412   0.550 -0.0449 -0.8006  0.1100
  624SOL    HW1 1871   2.852   0.386   0.457 -0.9870 -0.8773 -0.0743
  624SOL    HW2 1872   2.856   0.506   0.573 -1.7448  0.1811 -1.8198
  625SOL     OW 1873   0.768   2.403   0.677 -0.0791  0.2939  0.2681
  625SOL    HW1 1874   0.775   2.498   0.704 -0.9548 -1.3139  0.1167
  625SOL    HW2 1875   0.821   2.345   0.729 -1.9533  3.5721 -3.4371
  626SOL     OW 1876   2.119   0.676   2.662  0.0880  0.2997  0.4041
  626SOL    HW1 1877   2.128   0.664   2.762 -1.1604  2.4759  0.8806
  626SOL    HW2 1878   2.071   0.759   2.631  1.6787 -1.3702 -1.4049
  627SOL     OW 1879   1.580   2.394   2.748 -0.3208  0.3212 -0.3618
  627SOL    HW1 1880   1.553   2.329   2.673  0.9852 -0.8539 -0.0397
  627SOL    HW2 1881   1.674   2.428   2.732 -0.5008 -2.4146  0.8247
  628SOL     OW 1882   2.794   2.837   2.351 -1.0428  0.4136 -0.0743
  628SOL    HW1 1883   2.831   2.921   2.309  1.1994  1.6207  1.0687
  628SOL    HW2 1884   2.702   2.854   2.395  0.6630  0.4606 -0.3576
  629SOL     OW 1885   1.227   2.985   2.412 -0.5950  0.8052 -0.2945
  629SOL    HW1 1886   1.306   2.961   2.476  2.2529 -2.1577 -0.5860
  629SOL    HW2 1887   1.230   3.080   2.385  2.3245 -1.2605  1.0875
  630SOL     OW 1888   1.000   0.199   2.357 -0.5657  0.2221 -0.5547
  630SOL    HW1 1889   1.028   0.288   2.397  0.4193 -0.0201  1.7301
  630SOL    HW2 1890   1.071   0.158   2.299 -0.7860  3.3779  4.3189
  631SOL     OW 1891   2.062   1.460   0.873  0.3865 -0.9913  0.0988
  631SOL    HW1 1892   1.990   1.403   0.822  0.6429  2.0210 -1.9192
  631SOL    HW2 1893   2.042   1.458   0.973  1.2168 -2.3146 -1.6750
  632SOL     OW 1894   2.645   0.219   1.842 -0.1294 -0.2868  0.4068
  632SOL    HW1 1895   2.581   0.293   1.818 -1.6087 -4.5376 -0.8377
  632SOL    HW2 1896   2.728   0.254   1.887  1.7245 -0.1159 -1.1970
  633SOL     OW 1897   1.047   1.598   0.093 -0.2254  0.2069 -0.1453
  633SOL    HW1 1898   1.102   1.665   0.037  1.5669  2.9855  3.5548
  633SOL    HW2 1899   0.968   1.552   0.044 -1.3250  1.1237 -0.5469
  634SOL     OW 1900   2.751   2.986   1.654  0.4273 -0.0701 -0.0951
  634SOL    HW1 1901   2.834   3.040   1.681 -0.9033 -0.1194  2.0674
  634SOL    HW2 1902   2.701   3.034   1.576 -1.6217 -2.5832  0.5236
  635SOL     OW 1903   1.695   0.268   1.128  0.2894  0.4444  0.5512
  635SOL    HW1 1904   1.725   0.365   1.132 -1.4110 -0.4543  0.5052
  635SOL    HW2 1905   1.592   0.267   1.139 -1.2669  0.4190  0.2585
  636SOL     OW 1906   0.666   1.069   0.132 -0.2682 -0.3227 -0.4625
  636SOL    HW1 1907   0.628   1.068   0.227  2.1975 -0.1649  1.7517
  636SOL    HW2 1908   0.603   1.120   0.071 -0.1832 -1.8129  1.4525
  637SOL     OW 1909   3.061   2.263   3.040  0.2957 -0.3632 -0.2337
  637SOL    HW1 1910   2.987   2.223   2.978  0.1666 -0.5629 -4.6304
  637SOL    HW2 1911   3.061   2.229   0.017 -0.9206  1.8545  0.9583
  638SOL     OW 1912   1.479   2.670   2.619  0.4220  0.1236  0.3735
  638SOL    HW1 1913   1.471   2.658   2.519 -2.1292  0.9579 -0.5415
  638SOL    HW2 1914   1.576   2.654   2.648 -0.4719 -0.5960  0.0393
  639SOL     OW 1915   1.504   1.911   0.723  0.0874  0.5137 -0.1929
  639SOL    HW1 1916   1.406   1.893   0.743  0.6438 -1.0952 -0.1203
  639SOL    HW2 1917   1.505   1.968   0.643 -1.2834 -3.6271  0.5873
  640SOL     OW 1918   2.331   2.628   0.438 -0.1135 -0.1277 -0.5460
  640SOL    HW1 1919   2.277   2.629   0.351  2.7329 -0.2827 -1.2818
  640SOL    HW2 1920   2.410   2.696   0.438 -0.2173  1.7512 -0.0926
  641SOL     OW 1921   2.833   0.451   2.993  0.1365 -0.0014 -0.0493
  641SOL    HW1 1922   2.765   0.466   3.070 -1.2472  1.9214  1.8017
  641SOL    HW2 1923   2.828   0.355   2.963 -0.7484  1.1097  0.2135
  642SOL     OW 1924   0.358   0.582   1.277  0.0091 -0.1507  0.3434
  642SOL    HW1 1925   0.260   0.612   1.284  0.7392  0.3552 -1.4510
  642SOL    HW2 1926   0.371   0.510   1.204  1.1792 -0.0618 -0.8357
  643SOL     OW 1927   0.774   1.439   2.475  0.1231 -0.0262  0.1376
  643SOL    HW1 1928   0.875   1.437   2.509  4.4654  0.9400 -0.4698
  643SOL    HW2 1929   0.759   1.391   2.389  0.2977  0.7469 -2.9450
  644SOL     OW 1930   1.858   2.195   0.621  0.0443 -0.1058  0.1182
  644SOL    HW1 1931   1.918   2.132   0.576 -0.3449  1.1438  2.9207
  644SOL    HW2 1932   1.811   2.147   0.697  1.3967 -0.6367 -4.6866
  645SOL     OW 1933   1.595   2.545   0.759 -0.3649 -0.1710  0.1384
  645SOL    HW1 1934   1.569   2.469   0.818 -1.3492 -0.6732 -1.1676
  645SOL    HW2 1935   1.518   2.612   0.747 -1.4637  2.1245 -0.4557
  646SOL     OW 1936   0.695   2.224   2.841 -0.2431 -0.4472  0.1368
  646SOL    HW1 1937   0.706   2.152   2.916 -0.6048 -1.0124  2.4933
  646SOL    HW2 1938   0.710   2.321   2.876 -1.2658  0.5362  1.5354
  647SOL     OW 1939   1.232   2.661   1.322  0.7808 -0.3379 -0.0800
  647SOL    HW1 1940   1.184   2.725   1.386 -2.8876 -3.3784 -0.4594
  647SOL    HW2 1941   1.225   2.693   1.224  1.5636 -1.1667 -0.8425
  648SOL     OW 1942   1.402   0.258   1.170 -0.1128 -0.5248  0.1062
  648SOL    HW1 1943   1.421   0.180   1.232  0.1923 -3.6369 -0.0595
  648SOL    HW2 1944   1.327   0.231   1.106  0.9704  1.3235  0.5589
  649SOL     OW 1945   1.265   2.137   0.167 -0.7842  0.0448  0.4474
  649SOL    HW1 1946   1.183   2.184   0.135  0.7954 -0.2030  2.5980
  649SOL    HW2 1947   1.352   2.185   0.142  2.9371  2.2282 -1.5381
  650SOL     OW 1948   2.411   1.752   1.514 -0.3746  0.2399  0.3089
  650SOL    HW1 1949   2.464   1.841   1.527  1.0912 -0.6643  2.0281
  650SOL    HW2 1950   2.315   1.754   1.554 -0.1859  0.2387  0.1515
  651SOL     OW 1951   1.788   2.791   0.025  0.2723  0.8023  0.0607
  651SOL    HW1 1952   1.691   2.832   0.028  0.9882  0.1248  0.0213
  651SOL    HW2 1953   1.788   2.694   3.105 -1.4318 -0.5529 -1.4165
  652SOL     OW 1954   3.048   1.933   0.270  0.1868  0.0102  0.5193
  652SOL    HW1 1955   2.972   1.919   0.330  1.3990 -1.9434 -1.3046
  652SOL    HW2 1956   0.013   1.914   0.320 -2.4298 -0.6151 -0.7398
  653SOL     OW 1957   2.822   2.925   0.952  0.0215  0.3193 -0.7064
  653SOL    HW1 1958   2.852   2.889   0.860 -0.2723 -0.3165 -1.2371
  653SOL    HW2 1959   2.729   2.962   0.944  1.5767  0.6364 -0.3483
  654SOL     OW 1960   2.866   2.748   1.755  0.0812  0.0950 -0.1541
  654SOL    HW1 1961   2.930   2.789   1.822 -0.5548 -0.5965 -0.3115
  654SOL    HW2 1962   2.827   2.825   1.700 -1.5792  1.2932  0.9174
  655SOL     OW 1963   0.196   2.128   0.969 -0.2762 -0.1878  0.3888
  655SOL    HW1 1964   0.120   2.061   0.960  0.5693 -2.4353 -1.0845
  655SOL    HW2 1965   0.201   2.177   1.060 -1.4616 -0.2756  0.2459
  656SOL     OW 1966   0.102   2.847   2.224 -0.1654  0.2885  0.4889
  656SOL    HW1 1967   0.046   2.779   2.168 -2.7564 -1.3088 -1.0407
  656SOL    HW2 1968   0.052   2.887   2.301  1.4520 -0.5167 -2.6361
  657SOL     OW 1969   2.928   1.430   2.786 -0.1980  0.3255 -0.7636
  657SOL    HW1 1970   3.029   1.429   2.766 -0.3616 -0.3408 -0.3189
  657SOL    HW2 1971   2.897   1.339   2.816 -0.9966 -0.5581 -0.9095
  658SOL     OW 1972   2.615   1.637   1.108  0.2948  0.3077 -0.1552
  658SOL    HW1 1973   2.672   1.721   1.121  2.2562  2.0621 -2.0095
  658SOL    HW2 1974   2.522   1.651   1.143  2.6402 -1.4636  1.3554
  659SOL     OW 1975   1.435   0.048   0.401 -0.0689  0.1117 -0.3110
  659SOL    HW1 1976   1.463   3.075   0.432  0.9798  1.1566  2.6601
  659SOL    HW2 1977   1.428   0.114   0.479  0.8477 -0.4698 -0.2780
  660SOL     OW 1978   1.662   1.534   3.059 -0.2292 -0.0509  0.1900
  660SOL    HW1 1979   1.573   1.548   3.104  1.9283 -1.2377 -1.8260
  660SOL    HW2 1980   1.666   1.604   2.990 -0.6693 -1.8684  0.9673
  661SOL     OW 1981   0.199   2.262   1.188 -0.2517  0.0117 -0.1992
  661SOL    HW1 1982   0.178   2.360   1.172  2.5448 -0.8288 -0.2196
  661SOL    HW2 1983   0.126   2.219   1.244  0.9428 -1.1087 -0.2840
  662SOL     OW 1984   0.027   0.772   0.084  0.0775 -0.0194 -0.1687
  662SOL    HW1 1985   3.115   0.772   0.180 -0.9553 -0.6097 -3.2327
  662SOL    HW2 1986   0.123   0.737   0.083 -0.7167 -2.2945 -0.7637
  663SOL     OW 1987   1.903   1.730   1.024 -0.2678  0.1670  0.0803
  663SOL    HW1 1988   1.850   1.714   0.937 -0.4980 -0.2967 -2.0991
  663SOL    HW2 1989   1.912   1.830   1.038  1.0418  2.4581 -0.0600
  664SOL     OW 1990   1.101   1.476   1.192 -0.3059 -0.7860 -0.4006
  664SOL    HW1 1991   1.144   1.390   1.218  2.0736  2.8100  0.8288
  664SOL    HW2 1992   1.176   1.540   1.156  1.9421 -0.0089  1.1142
  665SOL     OW 1993   1.939   2.814   2.386  0.4639  0.2171 -0.1212
  665SOL    HW1 1994   1.851   2.779   2.358 -0.2338 -0.6091  0.1942
  665SOL    HW2 1995   2.010   2.766   2.331 -0.9078 -1.5903  0.0574
  666SOL     OW 1996   3.046   3.041   2.876 -0.2628 -0.3622 -0.3219
  666SOL    HW1 1997   3.039   2.954   2.923  1.2289  2.1344 -0.7370
  666SOL    HW2 1998   3.014   3.035   2.780 -1.5986 -1.9978  1.5210
  667SOL     OW 1999   2.382   1.338   2.026 -0.3505 -0.2926  0.2972
  667SOL    HW1 2000   2.306   1.276   2.049 -0.7320 -0.4730 -0.6134
  667SOL    HW2 2001   2.342   1.428   1.986 -0.5875 -1.2873 -2.1905
  668SOL     OW 2002   0.486   1.024   2.472  0.0894 -0.0284  0.1382
  668SOL    HW1 2003   0.424   1.042   2.549  0.1083 -1.4404  1.2413
  668SOL    HW2 2004   0.438   1.056   2.388 -1.1784 -1.2618  1.3146
  669SOL     OW 2005   2.231   2.422   2.528  0.2851 -0.1368 -0.0069
  669SOL    HW1 2006   2.298   2.376   2.464  0.4460  0.1196 -1.6072
  669SOL    HW2 2007   2.285   2.446   2.616 -1.2427  2.0906  2.6113
  670SOL     OW 2008   2.276   1.410   1.751 -0.1077  0.3154 -0.7066
  670SOL    HW1 2009   2.347   1.431   1.679 -0.5644  2.3754 -1.7054
  670SOL    HW2 2010   2.296   1.468   1.830  3.6660 -2.3716 -0.1145
  671SOL     OW 2011   2.579   1.120   0.436  0.5208 -0.2107 -0.0885
  671SOL    HW1 2012   2.632   1.156   0.358 -0.4109  1.5615 -0.2815
  671SOL    HW2 2013   2.508   1.191   0.466  0.5366  2.4127  0.5032
  672SOL     OW 2014   2.339   0.905   2.221  0.7708  0.1458  0.3383
  672SOL    HW1 2015   2.284   0.841   2.163 -0.2065 -1.0319 -0.2739
  672SOL    HW2 2016   2.291   0.928   2.311  0.2382 -0.8115 -0.7234
  673SOL     OW 2017   2.991   3.099   1.730 -0.4520 -0.1952 -0.0991
  673SOL    HW1 2018   3.050   3.107   1.814  0.7179 -0.7947  1.6450
  673SOL    HW2 2019   2.951   0.072   1.702  0.0608  0.9862 -1.3564
  674SOL     OW 2020   1.838   1.804   1.394  0.5190 -0.0823  0.0086
  674SOL    HW1 2021   1.755   1.856   1.370  0.6793 -1.2954 -1.1248
  674SOL    HW2 2022   1.879   1.834   1.482 -0.4666 -0.7056 -1.4273
  675SOL     OW 2023   0.703   0.826   0.785 -0.2588  0.2730  0.3775
  675SOL    HW1 2024   0.657   0.795   0.871  0.3887 -1.0490 -2.2493
  675SOL    HW2 2025   0.804   0.818   0.795 -1.9799 -1.6468  1.1615
  676SOL     OW 2026   1.618   1.194   1.094 -0.1354  0.3210  0.2476
  676SOL    HW1 2027   1.593   1.101   1.060 -0.7097 -0.8226  0.6791
  676SOL    HW2 2028   1.639   1.191   1.193  2.7849  0.8097  0.4465
  677SOL     OW 2029   2.584   1.363   2.255  0.1873 -0.1364  0.1697
  677SOL    HW1 2030   2.573   1.263   2.268 -1.5875 -0.9973 -1.2687
  677SOL    HW2 2031   2.515   1.397   2.186 -0.0202  1.0205 -0.3228
  678SOL     OW 2032   2.800   1.582   0.839  0.0821 -0.0769 -0.6154
  678SOL    HW1 2033   2.761   1.507   0.782  0.1716  0.0710  1.7033
  678SOL    HW2 2034   2.745   1.585   0.927 -0.6302  1.2217  0.1866
  679SOL     OW 2035   2.200   2.565   0.201  0.5222 -0.2864  0.1899
  679SOL    HW1 2036   2.109   2.523   0.215 -1.0503  0.4938 -1.3582
  679SOL    HW2 2037   2.196   2.648   0.143 -1.8205 -0.5487  0.3681
  680SOL     OW 2038   3.100   2.153   1.882 -0.4676 -0.3226 -0.0577
  680SOL    HW1 2039   0.042   2.078   1.903 -1.0600  1.6654 -1.7677
  680SOL    HW2 2040   3.106   2.244   1.924 -2.4592 -2.5063 -0.6341
  681SOL     OW 2041   0.567   1.026   1.317  0.3341 -0.1423  0.4968
  681SOL    HW1 2042   0.620   1.047   1.233 -0.3389 -1.2653  2.5615
  681SOL    HW2 2043   0.615   1.049   1.407  0.5761 -0.6863  0.3853
  682SOL     OW 2044   1.383   2.741   0.785 -0.1218  0.4599 -0.3393
  682SOL    HW1 2045   1.367   2.841   0.788 -2.9390  0.9213  0.1918
  682SOL    HW2 2046   1.290   2.697   0.772 -3.0344 -0.6312  0.0794
  683SOL     OW 2047   2.431   1.351   0.529  0.1127  0.0457 -0.1858
  683SOL    HW1 2048   2.372   1.360   0.613 -0.3745  0.6454  2.4780
  683SOL    HW2 2049   2.462   1.440   0.498  1.2567 -1.5071  0.1396
  684SOL     OW 2050   0.592   2.082   1.914 -0.1884  0.1413 -0.1888
  684SOL    HW1 2051   0.637   2.145   1.979  0.1072 -1.0175 -0.6763
  684SOL    HW2 2052   0.508   2.120   1.872  1.3382  0.8057  1.0637
  685SOL     OW 2053   2.044   1.540   3.101 -0.1401 -0.3704 -0.3238
  685SOL    HW1 2054   2.121   1.542   0.044  3.0581 -0.9183 -0.9965
  685SOL    HW2 2055   1.961   1.500   0.026  1.8370  0.7823  2.1116
  686SOL     OW 2056   0.412   0.662   0.819 -0.3438 -0.0682  0.4516
  686SOL    HW1 2057   0.437   0.565   0.794 -1.5524 -1.6037 -3.5002
  686SOL    HW2 2058   0.480   0.698   0.887  3.2420  0.1905  2.9948
  687SOL     OW 2059   1.159   2.425   2.801  0.3816 -0.3242 -0.3753
  687SOL    HW1 2060   1.135   2.329   2.830  0.1830  1.5605  2.0790
  687SOL    HW2 2061   1.229   2.422   2.730 -2.9276  1.9798 -2.8698
  688SOL     OW 2062   2.591   1.936   1.598  0.1112  0.0674 -1.0837
  688SOL    HW1 2063   2.629   1.859   1.649 -0.6040  2.3341 -1.3529
  688SOL    HW2 2064   2.588   2.018   1.660 -0.9773 -0.8140  2.3432
  689SOL     OW 2065   2.160   0.685   2.091 -0.3801  0.4316  0.6585
  689SOL    HW1 2066   2.232   0.615   2.059  0.6497 -2.8751 -0.6705
  689SOL    HW2 2067   2.139   0.741   2.006 -2.3905  1.3802 -3.6328
  690SOL     OW 2068   2.088   0.944   1.430  0.1381  0.0712 -0.2871
  690SOL    HW1 2069   2.018   0.936   1.353 -2.4102 -0.8991 -0.7938
  690SOL    HW2 2070   2.131   1.037   1.438 -0.9135  0.3114 -1.1136
  691SOL     OW 2071   0.748   1.980   1.725 -0.4453  0.1805  0.2937
  691SOL    HW1 2072   0.678   2.013   1.790  1.4356  3.0253 -0.2678
  691SOL    HW2 2073   0.815   1.919   1.774 -0.0225  0.9697 -2.1799
  692SOL     OW 2074   2.047   0.078   1.382 -0.3838 -0.0930 -0.5157
  692SOL    HW1 2075   2.094   0.080   1.472 -1.1742  0.2001 -0.8607
  692SOL    HW2 2076   1.950   0.053   1.392  1.6337  1.9712 -2.0833
  693SOL     OW 2077   0.806   1.061   2.620 -0.4133  1.0500  0.2476
  693SOL    HW1 2078   0.827   1.035   2.525 -0.7500  0.6259 -0.9660
  693SOL    HW2 2079   0.704   1.076   2.629  0.1293 -0.3393  0.3608
  694SOL     OW 2080   1.926   2.601   1.362  0.3869  0.4707 -0.2316
  694SOL    HW1 2081   1.970   2.566   1.274  2.4070 -0.9414  1.7074
  694SOL    HW2 2082   1.993   2.636   1.431 -1.2596  2.6183  0.9602
  695SOL     OW 2083   1.445   1.419   1.952 -0.0895 -0.0557 -0.2856
  695SOL    HW1 2084   1.372   1.416   2.019  1.6714 -2.2072 -3.8936
  695SOL    HW2 2085   1.526   1.453   2.004 -1.3384  1.5694 -0.6497
  696SOL     OW 2086   1.752   0.020   1.102 -0.6586 -0.1413 -0.2742
  696SOL    HW1 2087   1.663   3.096   1.083  2.9658 -1.9383 -1.1231
  696SOL    HW2 2088   1.737   0.123   1.125 -1.4926  0.8570  1.1761
  697SOL     OW 2089   1.202   0.211   1.003 -0.2657 -0.5403  0.0858
  697SOL    HW1 2090   1.124   0.170   1.050 -0.6730  1.0300  1.8657
  697SOL    HW2 2091   1.173   0.279   0.938  1.8008 -1.3983 -2.2843
  698SOL     OW 2092   1.726   1.288   2.053  0.2120  0.4882 -0.1557
  698SOL    HW1 2093   1.788   1.278   1.976  1.2556  0.0650 -4.9259
  698SOL    HW2 2094   1.669   1.368   2.050 -0.7172 -0.2838 -0.5420
  699SOL     OW 2095   1.232   1.275   1.331  0.2977  0.0649 -0.0338
  699SOL    HW1 2096   1.212   1.279   1.435  2.0960 -1.1546  1.9655
  699SOL    HW2 2097   1.260   1.186   1.293  0.3245  1.2939 -1.7180
  700SOL     OW 2098   1.351   0.377   0.257 -0.3450 -0.0914 -0.1790
  700SOL    HW1 2099   1.311   0.430   0.175 -2.8046  1.7904 -1.7864
  700SOL    HW2 2100   1.282   0.315   0.298  1.5104 -1.1100 -0.4378
  701SOL     OW 2101   0.503   0.197   1.798 -0.3624 -0.4771  0.4483
  701SOL    HW1 2102   0.456   0.284   1.834 -2.5068  0.8074  2.3976
  701SOL    HW2 2103   0.598   0.211   1.758 -0.3616  0.4855 -0.5623
  702SOL     OW 2104   1.169   3.118   0.550  0.2930 -0.1381 -0.0718
  702SOL    HW1 2105   1.170   0.082   0.495 -1.2896 -1.4728  2.0092
  702SOL    HW2 2106   1.124   3.040   0.505  2.9798  0.1105  2.7117
  703SOL     OW 2107   2.653   0.001   2.200  0.0713 -0.0669 -0.1850
  703SOL    HW1 2108   2.598   0.054   2.272  0.7840  1.1989 -0.6816
  703SOL    HW2 2109   2.608   0.003   2.112 -0.1105  0.9498 -0.2013
  704SOL     OW 2110   1.037   2.415   0.928 -0.3073  0.5551 -0.0706
  704SOL    HW1 2111   1.022   2.314   0.940 -0.4758  2.1744  1.5269
  704SOL    HW2 2112   1.022   2.459   1.014  0.5979 -2.2757 -4.3014
  705SOL     OW 2113   0.101   0.949   2.386  0.3469  0.0688  0.2364
  705SOL    HW1 2114   0.140   0.858   2.397 -0.4244  1.4787  0.2285
  705SOL    HW2 2115   0.000   0.933   2.367 -0.2218  1.2187 -0.9912
  706SOL     OW 2116   1.550   0.200   0.215  0.6063 -0.4339  0.1161
  706SOL    HW1 2117   1.521   0.141   0.292 -0.7603  2.1670 -1.5734
  706SOL    HW2 2118   1.470   0.262   0.194 -0.9965 -1.8164 -3.0485
  707SOL     OW 2119   1.252   2.095   2.485 -0.3126 -0.1317  0.0089
  707SOL    HW1 2120   1.171   2.084   2.544 -1.7489 -1.3826 -1.3490
  707SOL    HW2 2121   1.234   2.180   2.428  0.0709  1.7548 -0.5542
  708SOL     OW 2122   2.915   2.173   1.467 -0.3056  0.0041  0.4049
  708SOL    HW1 2123   2.855   2.103   1.425 -0.7618  0.4131  1.7190
  708SOL    HW2 2124   2.894   2.173   1.565  1.5451 -3.4650 -0.2315
  709SOL     OW 2125   2.124   0.352   1.734  0.3114  0.1660 -0.0248
  709SOL    HW1 2126   2.136   0.325   1.833  0.6665  0.5460 -0.9796
  709SOL    HW2 2127   2.059   0.424   1.723  1.0061 -1.6165  0.7133
  710SOL     OW 2128   2.751   3.030   1.233  0.3796 -0.4485  0.7162
  710SOL    HW1 2129   2.711   3.073   1.155  0.3671  1.9987  0.4072
  710SOL    HW2 2130   2.852   3.022   1.216 -1.3859  1.7067  0.6718
  711SOL     OW 2131   0.327   2.455   0.706  0.1020 -0.5789  0.1669
  711SOL    HW1 2132   0.407   2.395   0.729  0.1862 -1.7512 -0.4627
  711SOL    HW2 2133   0.268   2.421   0.632 -1.9430  0.9841  1.8927
  712SOL     OW 2134   0.361   2.037   2.308 -0.2090  0.5198  0.6778
  712SOL    HW1 2135   0.410   2.125   2.289 -2.2567 -0.2475 -0.7690
  712SOL    HW2 2136   0.412   1.975   2.366 -3.6545  2.3197  0.2455
  713SOL     OW 2137   2.013   0.670   0.215  0.4124  0.2603  0.3289
  713SOL    HW1 2138   1.980   0.584   0.263  2.6783 -1.9769  0.8736
  713SOL    HW2 2139   1.955   0.695   0.135  0.6499 -1.7531  0.1221
  714SOL     OW 2140   1.294   1.947   0.348 -0.1935  0.5347  0.3913
  714SOL    HW1 2141   1.213   1.956   0.412 -0.8655  1.4652  0.6830
  714SOL    HW2 2142   1.284   2.024   0.282 -1.6696  0.6604 -3.5056
  715SOL     OW 2143   2.263   3.100   0.721 -0.0701  0.0283  0.0047
  715SOL    HW1 2144   2.288   0.079   0.703 -0.1890 -4.3382 -0.3749
  715SOL    HW2 2145   2.275   3.071   0.818  1.3587 -2.1751 -1.6676
  716SOL     OW 2146   0.683   0.872   2.187 -0.2044  0.0562  0.7005
  716SOL    HW1 2147   0.627   0.843   2.264 -0.5004 -1.7589 -2.1682
  716SOL    HW2 2148   0.626   0.923   2.118 -1.0287  0.2083 -1.8678
  717SOL     OW 2149   0.159   0.564   2.928 -0.7981 -0.0795 -0.1413
  717SOL    HW1 2150   0.119   0.603   2.842  2.9107  3.2721  0.9199
  717SOL    HW2 2151   0.083   0.551   2.997 -1.8495 -2.5794  0.7520
  718SOL     OW 2152   1.234   0.835   0.146 -0.3767  0.3785 -0.3459
  718SOL    HW1 2153   1.335   0.825   0.125  3.3637 -1.3222  0.2893
  718SOL    HW2 2154   1.217   0.799   0.240 -3.0046 -0.5977  0.6172
  719SOL     OW 2155   2.865   2.126   2.932 -0.1701 -0.2913 -0.8184
  719SOL    HW1 2156   2.771   2.096   2.960 -2.4413 -0.3685  2.9479
  719SOL    HW2 2157   2.911   2.072   2.862 -2.3550  0.3771  1.0188
  720SOL     OW 2158   1.532   0.950   1.014  0.0367 -0.3118 -0.2730
  720SOL    HW1 2159   1.453   0.923   0.957 -1.2647  1.9858 -0.3094
  720SOL    HW2 2160   1.604   0.881   1.024 -1.3974  0.8756  0.1944
  721SOL     OW 2161   2.799   0.668   0.575 -0.2225  0.4056 -0.1909
  721SOL    HW1 2162   2.698   0.642   0.586  0.7072  2.3529  0.2943
  721SOL    HW2 2163   2.830   0.733   0.650  1.7140 -1.5434  2.7266
  722SOL     OW 2164   1.032   1.992   2.615 -0.0644 -0.2756  0.5583
  722SOL    HW1 2165   1.046   1.946   2.704  1.7273  0.3428 -0.0547
  722SOL    HW2 2166   0.945   2.045   2.615 -0.7108  1.6442 -1.6208
  723SOL     OW 2167   0.475   1.008   0.332  0.7244  0.0322  0.0184
  723SOL    HW1 2168   0.529   1.081   0.379  1.2793 -0.6860  0.3011
  723SOL    HW2 2169   0.373   1.020   0.349 -1.7271 -1.1681  1.4358
  724SOL     OW 2170   0.922   1.819   1.854  0.3585 -0.4054 -0.0719
  724SOL    HW1 2171   1.006   1.877   1.861 -1.6846 -0.3005  0.4164
  724SOL    HW2 2172   0.870   1.831   1.938 -0.0364 -0.0138  0.0885
  725SOL     OW 2173   0.029   1.012   1.332 -0.0055  0.2885 -0.0904
  725SOL    HW1 2174   0.130   0.996   1.344  2.4961 -0.9468  0.4674
  725SOL    HW2 2175   3.113   1.062   1.412  0.3090  1.0158  1.6917
  726SOL     OW 2176   1.776   0.187   0.412 -0.1200  0.3659  0.0132
  726SOL    HW1 2177   1.680   0.197   0.381 -3.0068  1.2933 -0.5154
  726SOL    HW2 2178   1.781   0.186   0.512 -1.4966  0.9440 -1.0513
  727SOL     OW 2179   1.451   0.954   2.281  0.2967 -0.4896  0.0513
  727SOL    HW1 2180   1.381   1.000   2.227 -2.0698 -0.8203  0.3028
  727SOL    HW2 2181   1.539   0.953   2.231  2.1536 -1.7604  1.1398
  728SOL     OW 2182   1.479   2.338   1.472  0.1140  0.0669 -0.2284
  728SOL    HW1 2183   1.506   2.251   1.419  1.7079 -0.5966  1.4990
  728SOL    HW2 2184   1.547   2.407   1.450 -1.4304 -2.9715 -0.1473
  729SOL     OW 2185   1.478   0.603   1.418  0.2402  0.1396  0.0001
  729SOL    HW1 2186   1.419   0.567   1.338  0.7800  2.0851 -1.3154
  729SOL    HW2 2187   1.555   0.539   1.419 -1.8790  1.5303 -1.3035
  730SOL     OW 2188   0.775   1.893   2.089  0.1567  0.0005 -0.0530
  730SOL    HW1 2189   0.834   1.949   2.157 -1.3760 -0.2865  1.0351
  730SOL    HW2 2190   0.685   1.939   2.080 -0.3394 -0.9335  1.9584
  731SOL     OW 2191   0.458   0.402   0.275  0.0823  0.6495 -0.0483
  731SOL    HW1 2192   0.463   0.463   0.359  0.6170 -0.8804 -0.4215
  731SOL    HW2 2193   0.360   0.402   0.236 -2.1772  2.0012 -1.8906
  732SOL     OW 2194   0.585   0.471   3.090 -0.0964  0.1381  0.6299
  732SOL    HW1 2195   0.638   0.393   0.006  0.5189  0.7812 -1.3048
  732SOL    HW2 2196   0.488   0.441   3.073 -0.2069 -0.2823  1.1028
  733SOL     OW 2197   1.610   2.011   1.431 -0.6306 -0.4867  0.1552
  733SOL    HW1 2198   1.513   1.984   1.410  3.9297  1.3784 -1.0323
  733SOL    HW2 2199   1.632   1.980   1.525 -2.2007 -0.5786 -2.7041
  734SOL     OW 2200   0.077   2.645   2.612 -0.3435  0.4260  0.0337
  734SOL    HW1 2201   0.091   2.548   2.642 -0.0843  0.3053  1.8889
  734SOL    HW2 2202   3.096   2.665   2.606 -1.0674  1.5696  1.6899
  735SOL     OW 2203   0.681   2.868   0.894  0.1855 -0.0892 -0.0273
  735SOL    HW1 2204   0.760   2.837   0.953  2.8574  0.5395  1.6088
  735SOL    HW2 2205   0.672   2.814   0.803 -2.2479 -0.4369 -1.7717
  736SOL     OW 2206   1.663   1.041   2.703 -0.4459 -0.0966 -0.6094
  736SOL    HW1 2207   1.581   1.028   2.638  0.1418  0.1854 -1.1242
  736SOL    HW2 2208   1.624   1.088   2.789  0.2448  2.0245  3.3910
  737SOL     OW 2209   0.102   0.402   0.660 -0.4814  0.0246 -0.1324
  737SOL    HW1 2210   0.169   0.339   0.616  2.1889  0.3099 -1.4533
  737SOL    HW2 2211   0.011   0.381   0.630  2.5074 -0.3863  0.2453
  738SOL     OW 2212   2.828   2.181   1.140  0.0436  0.4444 -0.1837
  738SOL    HW1 2213   2.742   2.236   1.120 -0.9885 -1.5320  2.6807
  738SOL    HW2 2214   2.895   2.231   1.190 -2.1202 -0.0042 -1.7291
  739SOL     OW 2215   1.534   2.954   0.534  0.1649  0.2021  0.1715
  739SOL    HW1 2216   1.459   2.943   0.600  1.5244 -0.9990 -0.8232
  739SOL    HW2 2217   1.619   2.930   0.580 -2.1201  1.3831 -2.6074
  740SOL     OW 2218   1.417   2.927   1.211  0.3457 -0.2939  0.1618
  740SOL    HW1 2219   1.338   2.881   1.166  0.9862 -0.4089  1.8391
  740SOL    HW2 2220   1.500   2.878   1.176 -0.4521  0.7911  2.5115
  741SOL     OW 2221   2.390   0.238   0.672 -0.1346 -0.2152  0.0055
  741SOL    HW1 2222   2.460   0.211   0.598  1.7942 -3.2787 -1.7063
  741SOL    HW2 2223   2.433   0.305   0.734 -0.3763  3.1291 -2.6466
  742SOL     OW 2224   1.435   2.140   2.111 -0.5573 -0.5781 -0.4794
  742SOL    HW1 2225   1.518   2.149   2.172  0.5375 -0.1154  0.5281
  742SOL    HW2 2226   1.438   2.217   2.047  0.6121  1.7589 -0.5204
  743SOL     OW 2227   2.514   0.473   1.792  0.0399 -0.6731 -1.0908
  743SOL    HW1 2228   2.464   0.516   1.877 -1.2941 -0.5600  2.4668
  743SOL    HW2 2229   2.549   0.542   1.725 -0.5994  3.2002  0.1900
  744SOL     OW 2230   2.214   0.382   1.125  0.1834  0.2729 -0.5482
  744SOL    HW1 2231   2.212   0.454   1.053  0.9188  1.1013 -1.2325
  744SOL    HW2 2232   2.222   0.423   1.220 -1.0951 -0.8842  0.7357
  745SOL     OW 2233   2.314   1.592   1.946  0.6997 -0.2408  0.1423
  745SOL    HW1 2234   2.234   1.585   2.008 -0.2343  0.5357  1.3837
  745SOL    HW2 2235   2.345   1.692   1.950  1.4784 -0.0964  1.3819
  746SOL     OW 2236   1.120   1.486   0.902  0.6246  0.2450 -0.4298
  746SOL    HW1 2237   1.028   1.528   0.911 -0.7790 -0.3519  0.1293
  746SOL    HW2 2238   1.191   1.515   0.967  2.2595 -0.0583  0.3388
  747SOL     OW 2239   1.817   1.308   0.932  0.3725  0.0813 -0.3518
  747SOL    HW1 2240   1.746   1.245   0.967 -0.6978 -2.2406 -0.7341
  747SOL    HW2 2241   1.859   1.352   1.016  1.4998 -2.2744  1.0317
  748SOL     OW 2242   3.082   0.096   0.422  0.0037 -0.2337  0.1223
  748SOL    HW1 2243   3.109   0.192   0.382 -0.1655  0.2128 -2.4034
  748SOL    HW2 2244   0.038   0.024   0.416  0.1882 -2.2491 -0.1132
  749SOL     OW 2245   0.160   0.410   2.117  0.0501  0.0564  0.3884
  749SOL    HW1 2246   0.243   0.431   2.167 -0.9554 -0.0523  0.3689
  749SOL    HW2 2247   0.112   0.493   2.082 -3.1357  0.3021 -0.1915
  750SOL     OW 2248   1.871   2.925   1.725 -0.3672  0.5268 -0.3155
  750SOL    HW1 2249   1.837   3.008   1.682  3.0763  1.3580 -0.8533
  750SOL    HW2 2250   1.800   2.852   1.732  1.6855 -1.3020  1.2392
  751SOL     OW 2251   2.896   0.306   0.801 -0.1907 -0.2227 -0.4905
  751SOL    HW1 2252   2.888   0.337   0.703 -2.0239 -2.6471 -0.5918
  751SOL    HW2 2253   2.806   0.293   0.845  1.2083  1.4393  0.6858
  752SOL     OW 2254   0.233   2.862   0.924 -0.0771 -0.1380 -0.0603
  752SOL    HW1 2255   0.242   2.762   0.901 -0.0284 -1.9131 -1.0184
  752SOL    HW2 2256   0.152   2.903   0.874  0.0977  0.5614  2.6037
  753SOL     OW 2257   1.213   0.311   1.803  0.0229  0.6402  0.2536
  753SOL    HW1 2258   1.164   0.398   1.783  0.7764 -1.6433 -1.0381
  753SOL    HW2 2259   1.312   0.312   1.778 -0.8148 -1.6438  1.8804
  754SOL     OW 2260   1.129   2.604   1.902  0.5267  0.3822  0.1193
  754SOL    HW1 2261   1.227   2.639   1.919  2.5242  0.9124  2.5108
  754SOL    HW2 2262   1.057   2.647   1.959 -0.9320 -0.7420 -0.2324
  755SOL     OW 2263   2.575   0.945   0.633 -0.2573 -0.2400 -0.4016
  755SOL    HW1 2264   2.634   0.982   0.708 -0.7339 -1.1645  0.8372
  755SOL    HW2 2265   2.580   1.010   0.556  0.5090 -1.0661  1.0712
  756SOL     OW 2266   1.987   1.929   2.515 -0.2743 -0.0211 -0.4890
  756SOL    HW1 2267   1.898   1.934   2.570 -1.8823  2.8122  0.8020
  756SOL    HW2 2268   2.053   2.003   2.553  1.2143  1.6895  1.3394
  757SOL     OW 2269   1.972   3.097   0.944  0.2035  0.1514 -0.9192
  757SOL    HW1 2270   1.883   3.082   0.995  1.2648 -1.9144 -1.2453
  757SOL    HW2 2271   1.957   3.083   0.844  1.6001 -0.1318 -1.7236
  758SOL     OW 2272   1.134   2.633   0.784  0.1773 -0.0506 -0.7657
  758SOL    HW1 2273   1.092   2.562   0.839  0.9880 -0.4317  0.0698
  758SOL    HW2 2274   1.090   2.727   0.806  0.7763  4.7240  0.4725
  759SOL     OW 2275   2.919   0.541   1.273  0.0355  0.0735 -0.6730
  759SOL    HW1 2276   2.871   0.529   1.183 -0.1626  1.8002  0.5741
  759SOL    HW2 2277   2.889   0.476   1.345  0.9052  0.5982 -2.6305
  760SOL     OW 2278   2.141   1.303   1.551 -0.2679 -0.4039  0.2482
  760SOL    HW1 2279   2.217   1.259   1.504  0.9826  0.6424 -0.3157
  760SOL    HW2 2280   2.169   1.340   1.642  1.3581  1.9588  1.7222
  761SOL     OW 2281   0.598   1.063   0.720 -0.0416  0.3909  0.6035
  761SOL    HW1 2282   0.535   1.105   0.790 -2.3174 -0.2379  1.1683
  761SOL    HW2 2283   0.645   0.983   0.762  0.0453  0.9512 -0.8998
  762SOL     OW 2284   2.089   1.856   1.347  0.2315  0.5392  0.0613
  762SOL    HW1 2285   2.128   1.838   1.253  2.2733  0.5585  0.1693
  762SOL    HW2 2286   1.988   1.832   1.354 -1.6240 -1.4869  2.6005
  763SOL     OW 2287   1.139   1.652   1.921 -0.6856  0.4939  0.6195
  763SOL    HW1 2288   1.075   1.669   1.999 -0.6970  1.9193 -2.4731
  763SOL    HW2 2289   1.232   1.699   1.926 -0.0733  2.1198  1.6318
  764SOL     OW 2290   3.083   1.991   2.175 -0.1717 -0.5623 -0.5300
  764SOL    HW1 2291   3.028   2.073   2.205 -1.6684  0.0300  0.7995
  764SOL    HW2 2292   0.048   2.018   2.122  2.6409  2.3438  0.7610
  765SOL     OW 2293   1.289   2.398   1.277  0.3743  0.5506  0.0868
  765SOL    HW1 2294   1.262   2.494   1.287  1.3024 -1.6917 -0.5456
  765SOL    HW2 2295   1.343   2.370   1.359 -2.1228  0.4339  1.3676
  766SOL     OW 2296   0.489   2.281   2.644 -0.2042 -0.0149  0.3861
  766SOL    HW1 2297   0.543   2.228   2.713 -0.3440  3.7098 -0.3966
  766SOL    HW2 2298   0.503   2.382   2.660  1.9385  1.4788  0.6264
  767SOL     OW 2299   1.471   0.993   2.535 -0.3615 -0.0960  0.1640
  767SOL    HW1 2300   1.423   0.908   2.566 -0.8540  0.5552 -1.7200
  767SOL    HW2 2301   1.477   0.993   2.431 -0.4582 -3.7417  2.3152
  768SOL     OW 2302   1.304   2.489   3.042  0.1509 -0.1461  0.3970
  768SOL    HW1 2303   1.266   2.468   2.950 -1.2463 -0.9628  1.5506
  768SOL    HW2 2304   1.404   2.491   3.044  0.0014 -0.3569  0.0441
  769SOL     OW 2305   3.033   2.706   1.372 -0.7938  0.2514  0.2693
  769SOL    HW1 2306   3.039   2.730   1.274  1.1702  0.4149  0.3139
  769SOL    HW2 2307   0.011   2.681   1.394 -0.1292  0.6575 -4.1438
  770SOL     OW 2308   1.021   0.425   2.787 -0.2429 -0.2444 -0.3304
  770SOL    HW1 2309   0.953   0.351   2.812 -0.9507  0.5407  0.2967
  770SOL    HW2 2310   1.042   0.484   2.866  0.3174 -0.2840  0.3514
  771SOL     OW 2311   0.549   0.149   2.392 -0.0482  0.3183 -0.3579
  771SOL    HW1 2312   0.477   0.086   2.346 -1.6253  0.6909 -1.0286
  771SOL    HW2 2313   0.513   0.238   2.418  1.8973 -0.4319 -0.0965
  772SOL     OW 2314   2.505   0.024   1.950 -0.5560 -0.0977  0.1159
  772SOL    HW1 2315   2.562   0.106   1.913  1.6827  0.6288  0.4333
  772SOL    HW2 2316   2.552   3.058   1.921 -0.7191  1.6264 -1.8127
  773SOL     OW 2317   0.886   2.269   1.900  0.4835  0.1285  0.1573
  773SOL    HW1 2318   0.950   2.312   1.967 -0.9257 -0.6521 -1.4180
  773SOL    HW2 2319   0.808   2.225   1.952  0.2312 -1.4206 -2.7296
  774SOL     OW 2320   1.108   0.314   2.051 -0.1465 -0.0240  0.3029
  774SOL    HW1 2321   1.140   0.247   2.121  0.9883 -2.5536  0.2547
  774SOL    HW2 2322   1.151   0.292   1.961  2.2593  0.2907 -2.9871
  775SOL     OW 2323   2.207   2.984   2.921 -0.2417  0.3102 -0.5912
  775SOL    HW1 2324   2.115   3.012   2.955  0.0323  1.4662 -0.4672
  775SOL    HW2 2325   2.226   3.035   2.834 -0.0387 -1.5371  0.2265
  776SOL     OW 2326   1.940   0.446   2.346  0.6134  0.5969 -0.0070
  776SOL    HW1 2327   1.885   0.523   2.303 -2.2082  1.9803 -0.9490
  776SOL    HW2 2328   1.898   0.356   2.319  2.5955  0.2018 -0.6675
  777SOL     OW 2329   2.502   0.925   2.638  0.4681 -0.0287  0.0586
  777SOL    HW1 2330   2.561   1.010   2.626 -0.4601  1.1975  0.1393
  777SOL    HW2 2331   2.417   0.930   2.578 -1.8994  1.8900 -1.8735
  778SOL     OW 2332   1.905   0.681   2.175  0.1593  0.4900  0.5195
  778SOL    HW1 2333   1.999   0.668   2.133 -1.4770 -1.0398 -1.8618
  778SOL    HW2 2334   1.827   0.651   2.115 -2.3628 -0.8657 -1.4033
  779SOL     OW 2335   3.098   0.331   0.258 -0.3701 -0.2713 -0.3847
  779SOL    HW1 2336   0.041   0.407   0.286 -0.5403 -1.3775  0.5463
  779SOL    HW2 2337   3.106   0.310   0.158  1.7072  0.3898  0.9787
  780SOL     OW 2338   2.309   0.441   2.916  0.1703 -0.1033  0.5828
  780SOL    HW1 2339   2.319   0.421   2.816  0.3608  0.0594 -2.3088
  780SOL    HW2 2340   2.274   0.533   2.935  3.7786 -3.1385  0.6185
  781SOL     OW 2341   0.365   2.779   1.418 -0.1560 -0.4883  0.0225
  781SOL    HW1 2342   0.358   2.814   1.318  2.2231  2.0389 -2.4394
  781SOL    HW2 2343   0.290   2.711   1.443 -1.5526 -2.0204 -1.4126
  782SOL     OW 2344   1.879   2.487   0.280 -0.2550  0.3457 -0.1531
  782SOL    HW1 2345   1.839   2.449   0.367 -1.6921  0.0007  0.6821
  782SOL    HW2 2346   1.904   2.586   0.287  0.0073  1.5477 -1.3735
  783SOL     OW 2347   0.865   1.395   1.632 -0.3480 -0.4081 -0.0912
  783SOL    HW1 2348   0.851   1.366   1.535 -1.0930 -2.1136 -3.7588
  783SOL    HW2 2349   0.857   1.312   1.694 -0.8917 -1.0366  3.7831
  784SOL     OW 2350   1.658   0.910   2.071 -0.0476 -0.6786 -0.8020
  784SOL    HW1 2351   1.751   0.923   2.035  0.1515 -0.8360 -0.3773
  784SOL    HW2 2352   1.633   0.812   2.066  1.0341  0.5491  1.3241
  785SOL     OW 2353   2.585   0.065   1.046 -0.4521 -0.1028 -0.0312
  785SOL    HW1 2354   2.495   0.090   1.082  4.7212  0.7349 -0.2491
  785SOL    HW2 2355   2.575   0.002   0.965 -0.6539 -1.0411 -0.3157
  786SOL     OW 2356   1.714   2.812   1.316 -0.3956  0.2755 -0.0200
  786SOL    HW1 2357   1.808   2.765   1.329  0.9525  0.5944 -0.5372
  786SOL    HW2 2358   1.665   2.781   1.234 -0.4937 -2.1545 -0.2208
  787SOL     OW 2359   1.437   0.053   1.343 -0.3441  0.2682  0.0274
  787SOL    HW1 2360   1.352   0.080   1.397 -3.8025 -1.3165  0.8205
  787SOL    HW2 2361   1.420   3.079   1.308  0.7892  1.3140 -2.3566
  788SOL     OW 2362   3.084   1.078   0.148 -0.1848  0.0454 -0.0048
  788SOL    HW1 2363   3.018   1.048   0.080 -0.7243  2.0793  0.6648
  788SOL    HW2 2364   3.094   1.015   0.232 -0.4975  0.6230  1.4221
  789SOL     OW 2365   0.544   1.274   1.958  0.0266 -0.0530 -0.9357
  789SOL    HW1 2366   0.558   1.327   2.044  1.2365 -0.0394 -2.9717
  789SOL    HW2 2367   0.493   1.324   1.887  0.6509 -1.8926  0.7908
  790SOL     OW 2368   0.325   0.627   2.607  0.3192 -0.3859 -0.4187
  790SOL    HW1 2369   0.388   0.656   2.679 -0.5389 -2.0095 -1.5329
  790SOL    HW2 2370   0.228   0.634   2.641 -0.3378  1.5673 -1.5029
  791SOL     OW 2371   2.239   0.570   0.536 -0.0118  0.4426 -0.3233
  791SOL    HW1 2372   2.169   0.640   0.544  0.4867 -1.6246  1.5080
  791SOL    HW2 2373   2.198   0.479   0.547  0.6981  1.1671 -0.5101
  792SOL     OW 2374   1.142   2.980   1.375  0.4714  0.0666 -0.6932
  792SOL    HW1 2375   1.088   2.918   1.314  1.3700 -0.4145 -0.5813
  792SOL    HW2 2376   1.094   3.066   1.401  0.2337 -1.7838 -1.4750
  793SOL     OW 2377   0.321   2.886   1.182 -0.2734 -0.2779  0.1214
  793SOL    HW1 2378   0.292   2.866   1.085 -0.2880  0.8988 -0.6484
  793SOL    HW2 2379   0.246   2.922   1.244  0.6614  0.7263  2.9501
  794SOL     OW 2380   0.211   0.694   2.372  0.3037  0.1027  0.3161
  794SOL    HW1 2381   0.245   0.662   2.466  0.8616 -2.3758  1.0070
  794SOL    HW2 2382   0.252   0.644   2.296 -1.3261  0.0437 -1.8216
  795SOL     OW 2383   0.516   2.546   2.722  0.3370 -0.0421 -0.1182
  795SOL    HW1 2384   0.599   2.526   2.777  1.5051 -0.3325  2.7925
  795SOL    HW2 2385   0.493   2.645   2.712  1.0813 -0.4634 -1.2569
  796SOL     OW 2386   2.204   0.571   2.420 -0.3548  0.0348  0.2878
  796SOL    HW1 2387   2.169   0.627   2.500 -1.2483 -1.3387 -1.4909
  796SOL    HW2 2388   2.126   0.565   2.357  1.5449  0.5775 -0.8481
  797SOL     OW 2389   2.525   2.569   2.519 -0.6931  0.0248  0.6319
  797SOL    HW1 2390   2.495   2.523   2.605  0.2866  0.6558  0.3456
  797SOL    HW2 2391   2.482   2.661   2.520 -1.0606 -1.2835  1.2638
  798SOL     OW 2392   0.303   0.508   1.616  0.2127 -0.2165 -0.0580
  798SOL    HW1 2393   0.358   0.496   1.701  0.0753  0.5677  0.0632
  798SOL    HW2 2394   0.269   0.419   1.579  3.4950  1.4347 -1.3852
  799SOL     OW 2395   0.714   2.830   1.970 -0.3335 -0.2185  0.2412
  799SOL    HW1 2396   0.708   2.928   2.005 -2.1528  2.6643  0.8843
  799SOL    HW2 2397   0.622   2.791   1.964  1.3693 -0.4047 -1.8231
  800SOL     OW 2398   0.058   2.551   0.386 -0.2558  0.0008  0.2539
  800SOL    HW1 2399   0.023   2.573   0.297  1.0691  1.1649  1.6210
  800SOL    HW2 2400   0.158   2.535   0.376  0.1248 -2.0350 -0.7159
  801SOL     OW 2401   1.698   1.735   0.808  0.0926  0.4325  0.1121
  801SOL    HW1 2402   1.613   1.758   0.752 -0.8668  0.4158  0.8374
  801SOL    HW2 2403   1.677   1.765   0.903 -2.1046 -1.7264 -0.5274
  802SOL     OW 2404   0.500   0.541   0.522  0.1894  0.2124  0.0350
  802SOL    HW1 2405   0.480   0.492   0.614 -0.2352 -1.0446  4.2675
  802SOL    HW2 2406   0.522   0.635   0.542  2.3593 -3.3844  0.7565
  803SOL     OW 2407   1.146   1.286   1.955 -0.0318  0.0803 -0.7208
  803SOL    HW1 2408   1.091   1.355   2.011  0.8978 -1.2471  2.0018
  803SOL    HW2 2409   1.115   1.301   1.862 -3.0683 -0.3905  1.0280
  804SOL     OW 2410   1.700   2.076   0.836  0.0672  0.0250  0.2461
  804SOL    HW1 2411   1.757   2.027   0.908  1.0021 -0.1973 -0.1120
  804SOL    HW2 2412   1.632   2.017   0.786  1.2106  1.1435 -2.1988
  805SOL     OW 2413   0.162   1.992   2.744 -0.0315  0.2299 -0.2651
  805SOL    HW1 2414   0.143   2.042   2.830  1.2434  0.7366 -1.2788
  805SOL    HW2 2415   0.188   2.063   2.671  1.7855 -0.3069  0.0397
  806SOL     OW 2416   0.587   2.494   0.406  0.3048  0.1705  0.1691
  806SOL    HW1 2417   0.617   2.503   0.505 -1.2992  0.5477  5.2636
  806SOL    HW2 2418   0.658   2.445   0.351  0.0325  0.7272  2.7442
  807SOL     OW 2419   2.364   1.337   2.721 -0.0327 -0.5250  0.5415
  807SOL    HW1 2420   2.384   1.269   2.795  0.9313 -0.2244 -2.3083
  807SOL    HW2 2421   2.289   1.401   2.742  1.8155  0.4434 -1.5004
  808SOL     OW 2422   1.326   2.233   1.041 -0.4254  0.3271 -0.3607
  808SOL    HW1 2423   1.281   2.142   1.027  0.2496  1.8676 -0.9277
  808SOL    HW2 2424   1.295   2.274   1.131 -3.0635 -1.5484  2.0348
  809SOL     OW 2425   0.186   0.635   0.559 -0.0752 -0.0198  0.3105
  809SOL    HW1 2426   0.205   0.720   0.612 -0.6695 -4.0866  0.6517
  809SOL    HW2 2427   0.155   0.563   0.620 -0.3364 -0.1662 -0.3505
  810SOL     OW 2428   1.397   1.551   0.046 -0.1746  0.2940  0.0966
  810SOL    HW1 2429   1.331   1.625   0.031 -0.4100  1.0820  0.1146
  810SOL    HW2 2430   1.417   1.555   0.144 -0.5031  0.2944 -4.7191
  811SOL     OW 2431   1.604   2.400   1.202 -0.4911  0.0847  0.2482
  811SOL    HW1 2432   1.559   2.407   1.113  1.2007  2.4723  0.5598
  811SOL    HW2 2433   1.643   2.492   1.223 -2.7586 -2.1921 -1.1987
  812SOL     OW 2434   1.229   2.767   1.073  0.5315 -0.3757  0.1936
  812SOL    HW1 2435   1.289   2.752   0.992  1.5175  0.9356  2.7316
  812SOL    HW2 2436   1.133   2.790   1.041 -1.8688  0.5282  0.0713
  813SOL     OW 2437   1.012   0.145   1.838  0.0434  0.4536 -0.4895
  813SOL    HW1 2438   1.092   0.202   1.803  1.6838  1.3676 -0.1627
  813SOL    HW2 2439   0.920   0.172   1.812  2.1066 -1.6382  0.4805
  814SOL     OW 2440   1.035   2.407   2.075  0.4010 -0.5476  0.4042
  814SOL    HW1 2441   0.963   2.434   2.139  0.4530 -0.9303 -1.0502
  814SOL    HW2 2442   1.055   2.480   2.005 -0.4544  2.4038 -0.6242
  815SOL     OW 2443   0.470   0.123   2.685 -0.1733 -0.2512  0.3263
  815SOL    HW1 2444   0.509   0.208   2.730  3.5935 -1.7839 -1.7628
  815SOL    HW2 2445   0.510   0.103   2.591 -1.8454 -1.8689  0.1667
  816SOL     OW 2446   2.194   1.165   0.152  0.1561  0.2283 -0.2114
  816SOL    HW1 2447   2.251   1.235   0.100  1.7724  2.1815 -1.5580
  816SOL    HW2 2448   2.247   1.080   0.179  1.3218  0.0619  1.3722
  817SOL     OW 2449   2.866   2.479   2.240 -0.3324 -0.1303 -0.5097
  817SOL    HW1 2450   2.829   2.514   2.157 -1.4971 -0.3045  0.3859
  817SOL    HW2 2451   2.939   2.408   2.227 -0.1812  1.2848 -2.3003
  818SOL     OW 2452   0.903   1.155   0.470 -0.5248 -0.0011 -0.5152
  818SOL    HW1 2453   0.804   1.163   0.452  0.8581 -1.1080  0.6984
  818SOL    HW2 2454   0.960   1.132   0.390 -0.5983  0.3839  1.1314
  819SOL     OW 2455   1.788   1.245   2.550 -0.0284 -1.0491 -0.3091
  819SOL    HW1 2456   1.760   1.219   2.455 -1.2226  0.7860  1.5338
  819SOL    HW2 2457   1.765   1.165   2.610 -2.6465 -1.2782  2.3491
  820SOL     OW 2458   0.443   1.228   0.073 -0.5146  0.2206 -0.4513
  820SOL    HW1 2459   0.421   1.301   0.140  0.1713 -0.5943 -0.7826
  820SOL    HW2 2460   0.372   1.151   0.071  0.4713 -0.6754  1.6391
  821SOL     OW 2461   0.437   3.057   0.857  0.0761  0.0404 -0.1951
  821SOL    HW1 2462   0.489   2.995   0.791  0.6988  0.6632 -1.4967
  821SOL    HW2 2463   0.370   3.007   0.920  0.5771 -0.5446  0.7720
  822SOL     OW 2464   2.426   2.432   2.732  0.4970 -0.1792  0.0934
  822SOL    HW1 2465   2.512   2.399   2.775 -2.2185  1.8564 -0.3672
  822SOL    HW2 2466   2.372   2.486   2.802  0.1005  0.1768 -0.0344
  823SOL     OW 2467   1.266   0.513   2.614 -0.1594  1.1360 -0.0269
  823SOL    HW1 2468   1.347   0.456   2.648  2.1324 -0.1425  1.0481
  823SOL    HW2 2469   1.182   0.490   2.670 -0.7125  1.4666  0.0805
  824SOL     OW 2470   2.480   2.811   1.489 -0.0702 -0.2475 -0.5393
  824SOL    HW1 2471   2.521   2.791   1.581  1.0544 -1.4000  0.4383
  824SOL    HW2 2472   2.540   2.808   1.407 -3.1380  0.4874 -2.2149
  825SOL     OW 2473   0.244   2.190   2.565  0.5054  0.1048 -0.2397
  825SOL    HW1 2474   0.244   2.179   2.467  0.3949  1.9905 -0.7748
  825SOL    HW2 2475   0.339   2.222   2.595  0.4284  1.8485 -0.3626
  826SOL     OW 2476   1.665   0.456   0.037 -0.4436  0.3084 -0.0171
  826SOL    HW1 2477   1.713   0.440   0.123  0.6463 -2.4668 -2.0370
  826SOL    HW2 2478   1.728   0.497   3.089  0.6077  3.6155  1.6345
  827SOL     OW 2479   3.091   1.804   1.808 -0.3006  0.1191  0.2759
  827SOL    HW1 2480   3.078   1.709   1.783  0.5987  1.4509 -3.0493
  827SOL    HW2 2481   3.010   1.861   1.816  0.5910  0.7866 -0.3955
  828SOL     OW 2482   0.122   2.998   1.340  0.8727  1.0238 -0.2829
  828SOL    HW1 2483   0.148   3.086   1.379  2.1351 -1.8131 -0.4890
  828SOL    HW2 2484   0.064   2.951   1.410 -1.3261 -0.5162 -2.0100
  829SOL     OW 2485   0.883   2.272   2.422 -0.0141  0.2039  0.0173
  829SOL    HW1 2486   0.865   2.214   2.502  0.8833  0.7551 -2.4872
  829SOL    HW2 2487   0.851   2.367   2.443 -1.3147 -1.7231 -1.0086
  830SOL     OW 2488   0.714   0.787   1.588  0.1105  0.5881 -0.2542
  830SOL    HW1 2489   0.736   0.694   1.557 -0.1552  1.2615 -0.5334
  830SOL    HW2 2490   0.612   0.799   1.613  1.5203  2.3126  1.0998
  831SOL     OW 2491   2.700   1.875   2.957 -0.2846 -0.1514  0.3263
  831SOL    HW1 2492   2.709   1.868   2.853 -1.6487 -1.2244 -1.0660
  831SOL    HW2 2493   2.717   1.789   3.009  0.1000  1.1141 -1.1854
  832SOL     OW 2494   1.573   2.457   3.008  0.2686 -0.9414 -0.0320
  832SOL    HW1 2495   1.674   2.481   3.023 -0.1655  0.1788  3.1203
  832SOL    HW2 2496   1.569   2.416   2.914 -0.3602 -2.1200 -1.9260
  833SOL     OW 2497   0.367   0.438   1.877 -0.0729 -0.2435 -0.4997
  833SOL    HW1 2498   0.435   0.491   1.938  0.6891 -1.5777  1.0836
  833SOL    HW2 2499   0.280   0.419   1.929 -2.4715 -1.8470 -1.3841
  834SOL     OW 2500   0.278   0.864   1.122 -0.1241 -0.2164 -0.0153
  834SOL    HW1 2501   0.252   0.767   1.148 -0.0071  1.2074  0.9853
  834SOL    HW2 2502   0.335   0.892   1.201  0.5577 -0.7070 -0.2306
  835SOL     OW 2503   2.420   0.310   0.251  0.1777 -0.2005 -0.4655
  835SOL    HW1 2504   2.430   0.294   0.150 -1.4265  1.5353 -0.3795
  835SOL    HW2 2505   2.420   0.409   0.275  0.0629  0.0625  3.6985
  836SOL     OW 2506   0.948   2.192   0.405  0.2759 -0.0498 -0.1959
  836SOL    HW1 2507   0.970   2.092   0.422 -1.1204 -1.2260 -1.6637
  836SOL    HW2 2508   0.994   2.256   0.474 -2.5900  3.1322 -0.2980
  837SOL     OW 2509   1.730   1.821   0.388 -0.5775 -0.6533 -0.4127
  837SOL    HW1 2510   1.788   1.797   0.307  0.9993 -0.1531 -0.6238
  837SOL    HW2 2511   1.682   1.744   0.428  1.1680  2.1610 -2.1992
  838SOL     OW 2512   1.815   0.876   2.340  0.2418  0.1281 -0.2109
  838SOL    HW1 2513   1.862   0.821   2.266 -1.3559  0.3032 -3.1556
  838SOL    HW2 2514   1.770   0.958   2.301 -0.1685 -0.9551 -1.8552
  839SOL     OW 2515   1.018   1.445   2.581 -0.2494  0.1771 -0.1033
  839SOL    HW1 2516   1.059   1.366   2.529  0.2954  2.0079  0.8993
  839SOL    HW2 2517   1.078   1.525   2.582 -3.6348  1.7389 -0.5693
  840SOL     OW 2518   0.861   1.414   0.007  0.8202  0.0717 -0.7459
  840SOL    HW1 2519   0.906   1.326   0.006  0.7193  0.9824 -0.5481
  840SOL    HW2 2520   0.802   1.422   3.042 -2.5721  1.5357  0.2563
  841SOL     OW 2521   1.503   2.283   0.099  0.1081 -0.2129  0.1784
  841SOL    HW1 2522   1.515   2.347   0.177  1.4333  0.3743 -0.1169
  841SOL    HW2 2523   1.507   2.331   0.011 -1.9586 -0.4340 -4.2274
  842SOL     OW 2524   0.147   0.527   0.317  0.4537  0.0219  0.2530
  842SOL    HW1 2525   0.174   0.570   0.230 -1.5029 -2.0236  2.2786
  842SOL    HW2 2526   0.175   0.577   0.404 -0.5268 -1.6829  0.0573
  843SOL     OW 2527   0.717   0.451   0.949 -0.0968  0.2629 -0.2491
  843SOL    HW1 2528   0.728   0.354   0.922  0.0707  1.5137 -0.9900
  843SOL    HW2 2529   0.805   0.491   0.984  0.3857  1.6231 -1.8259
  844SOL     OW 2530   2.211   2.679   2.435 -0.6389  0.2776  0.5433
  844SOL    HW1 2531   2.207   2.586   2.481 -0.6408 -1.5084 -0.3189
  844SOL    HW2 2532   2.164   2.674   2.338 -2.4766 -0.4214 -2.4694
  845SOL     OW 2533   2.948   2.490   1.718 -0.5657 -0.1468 -0.0390
  845SOL    HW1 2534   2.913   2.582   1.729  1.6064 -0.6230  0.7382
  845SOL    HW2 2535   2.920   2.455   1.626 -0.4342 -0.5844 -0.0809
  846SOL     OW 2536   2.032   1.380   2.439  0.2587  0.4074  0.4890
  846SOL    HW1 2537   1.946   1.352   2.477  3.5176  2.1747 -0.4966
  846SOL    HW2 2538   2.020   1.370   2.334  0.0914  0.7510 -1.3219
  847SOL     OW 2539   0.061   0.671   2.041 -0.4658  0.4532  0.3134
  847SOL    HW1 2540   0.039   0.649   1.943  0.0916 -1.3596  1.2892
  847SOL    HW2 2541   0.130   0.751   2.042  0.5747 -0.5623  2.9069
  848SOL     OW 2542   2.574   2.762   2.825 -0.2866  0.3355 -0.0988
  848SOL    HW1 2543   2.638   2.844   2.837  2.3123  3.8981 -0.0038
  848SOL    HW2 2544   2.536   2.762   2.731 -1.2409 -0.7904  1.9289
  849SOL     OW 2545   0.252   2.903   0.630 -0.2070  0.2990  0.4915
  849SOL    HW1 2546   0.331   2.905   0.692 -1.5174 -0.1995 -1.2117
  849SOL    HW2 2547   0.169   2.931   0.680  0.0419 -0.5412 -0.6415
  850SOL     OW 2548   0.801   2.370   0.277  0.2753 -0.6193  0.0899
  850SOL    HW1 2549   0.864   2.444   0.259 -1.3663 -4.3405  0.2471
  850SOL    HW2 2550   0.844   2.305   0.350  0.6337 -1.7864 -0.4201
  851SOL     OW 2551   1.748   0.600   2.702  0.2255  0.4699  0.5474
  851SOL    HW1 2552   1.689   0.635   2.625  1.7312 -0.4526  0.0918
  851SOL    HW2 2553   1.806   0.520   2.671  1.5848  1.4137 -4.0782
  852SOL     OW 2554   1.834   2.513   2.735  0.2999  0.2924 -0.5676
  852SOL    HW1 2555   1.859   2.420   2.705 -0.6419  1.9998  3.2442
  852SOL    HW2 2556   1.881   2.588   2.685 -0.2805 -0.4604  4.2567
  853SOL     OW 2557   0.071   2.654   0.117 -0.2219 -0.2945 -0.3711
  853SOL    HW1 2558   0.168   2.627   0.109  1.5293 -0.2611  0.3490
  853SOL    HW2 2559   0.011   2.603   0.050  0.9290 -0.9825  0.9453
  854SOL     OW 2560   1.496   0.539   2.307  0.4762 -0.5399  0.2925
  854SOL    HW1 2561   1.402   0.532   2.283  3.4953 -0.6020 -1.0948
  854SOL    HW2 2562   1.516   0.605   2.380 -1.8759 -3.0834 -0.4573
  855SOL     OW 2563   0.408   2.752   0.462 -0.5729 -0.1069 -0.3021
  855SOL    HW1 2564   0.389   2.653   0.445 -0.8999  2.8184 -0.9520
  855SOL    HW2 2565   0.344   2.798   0.528 -2.5757 -0.4518  1.5483
  856SOL     OW 2566   0.250   2.839   2.669 -0.6535  0.3850 -0.0420
  856SOL    HW1 2567   0.349   2.825   2.673 -1.9805  0.4663 -0.1874
  856SOL    HW2 2568   0.195   2.756   2.636  0.0929  0.3811  0.4407
  857SOL     OW 2569   1.312   2.890   1.615 -0.3490  0.8939  0.0684
  857SOL    HW1 2570   1.295   2.792   1.639  0.3329  1.5010  0.6710
  857SOL    HW2 2571   1.264   2.920   1.531  0.7482  2.8002 -1.4286
  858SOL     OW 2572   3.075   1.811   1.519 -0.8617  0.5518  0.5300
  858SOL    HW1 2573   3.089   1.850   1.613  0.2615  0.1979 -4.0592
  858SOL    HW2 2574   2.982   1.784   1.494  3.1734 -1.2855  2.3609
  859SOL     OW 2575   1.980   2.421   2.149  0.2782  0.0641  0.8419
  859SOL    HW1 2576   1.957   2.421   2.049  0.0485  0.3503 -0.8444
  859SOL    HW2 2577   2.026   2.334   2.161 -1.0220  0.5673  0.4145
  860SOL     OW 2578   1.414   0.246   0.613  0.5078  0.5619 -0.5374
  860SOL    HW1 2579   1.497   0.296   0.639 -1.6154 -1.2957 -1.8285
  860SOL    HW2 2580   1.339   0.314   0.608 -0.4273  0.7537 -2.3157
  861SOL     OW 2581   2.828   0.548   1.034 -0.1536  0.2953  0.5540
  861SOL    HW1 2582   2.788   0.466   0.989  1.5789  3.1602 -0.1991
  861SOL    HW2 2583   2.909   0.587   0.983 -2.7020  0.2464  0.2011
  862SOL     OW 2584   1.637   0.633   2.068  0.4845 -0.2265  0.3685
  862SOL    HW1 2585   1.581   0.591   2.142  0.8814  0.1449 -1.3518
  862SOL    HW2 2586   1.647   0.579   1.982 -1.6365  1.9279 -3.6406
  863SOL     OW 2587   0.620   0.719   0.998 -0.1800  0.3795 -0.7977
  863SOL    HW1 2588   0.641   0.621   0.979  1.2910 -1.3291  0.7894
  863SOL    HW2 2589   0.623   0.736   1.099 -0.6879 -3.1936 -1.6057
  864SOL     OW 2590   0.300   2.964   2.061  0.2658  0.3243 -0.0223
  864SOL    HW1 2591   0.207   2.934   2.095  1.5735 -3.6520  1.0744
  864SOL    HW2 2592   0.288   3.032   1.981 -2.7370 -0.0299  1.0314
  865SOL     OW 2593   1.070   1.173   2.534  0.7293 -0.0076 -0.0938
  865SOL    HW1 2594   1.101   1.101   2.464  2.1573 -3.3197  0.1741
  865SOL    HW2 2595   0.984   1.138   2.584  2.3863 -0.8226 -1.2619
  866SOL     OW 2596   2.989   2.982   0.256 -0.4914  0.2819  0.2718
  866SOL    HW1 2597   2.994   3.083   0.276 -0.5795  4.1358 -2.1006
  866SOL    HW2 2598   3.078   2.945   0.228 -1.7628  1.5972  0.5745
  867SOL     OW 2599   2.997   2.795   3.017  0.2835 -0.2401 -0.3159
  867SOL    HW1 2600   3.031   2.696   3.025  1.3908 -1.7174  0.1608
  867SOL    HW2 2601   2.947   2.827   3.102  0.3309  1.2934  0.1150
  868SOL     OW 2602   1.590   1.164   2.928 -0.0003 -0.0095 -0.4941
  868SOL    HW1 2603   1.671   1.215   2.963 -0.8873  2.1814 -2.0771
  868SOL    HW2 2604   1.506   1.189   2.976 -0.7831 -1.4499 -3.5289
  869SOL     OW 2605   3.043   1.996   0.601  0.0762 -0.2411  0.0459
  869SOL    HW1 2606   2.958   1.966   0.556  1.0621 -1.6411 -0.5094
  869SOL    HW2 2607   3.022   2.074   0.668 -0.4790  0.0373 -1.6811
  870SOL     OW 2608   2.071   2.059   0.449 -0.7096  0.3334  0.3228
  870SOL    HW1 2609   2.106   1.961   0.442  0.7783  0.7846 -1.6536
  870SOL    HW2 2610   2.095   2.114   0.368 -0.1417  2.3493  0.0641
  871SOL     OW 2611   0.642   1.076   1.044 -0.1925  0.0028  0.0930
  871SOL    HW1 2612   0.547   1.092   1.011  0.9724  0.5160  3.7432
  871SOL    HW2 2613   0.708   1.144   1.006 -0.3856 -2.1690  0.1680
  872SOL     OW 2614   1.366   1.794   2.037 -0.0435 -0.7355 -0.4702
  872SOL    HW1 2615   1.328   1.881   2.004  1.4986  1.5053  0.3060
  872SOL    HW2 2616   1.463   1.798   2.074 -0.5610  0.4005  0.4097
  873SOL     OW 2617   0.688   2.229   2.129  0.0181 -0.2845  0.9561
  873SOL    HW1 2618   0.741   2.237   2.217  3.3019  1.5208 -1.1043
  873SOL    HW2 2619   0.613   2.290   2.127 -0.5195 -2.9736  0.8052
  874SOL     OW 2620   0.898   2.744   1.067  0.4114  0.6062 -0.1940
  874SOL    HW1 2621   0.864   2.784   1.157  0.9624 -1.5559  2.1088
  874SOL    HW2 2622   0.920   2.646   1.083 -2.5244 -1.1393 -1.0332
  875SOL     OW 2623   3.003   0.201   1.018  0.1913  0.3464 -0.0858
  875SOL    HW1 2624   3.059   0.115   1.013 -1.0150  0.1500 -0.5284
  875SOL    HW2 2625   2.963   0.234   0.931  1.0498  2.4708 -0.5868
  876SOL     OW 2626   0.474   0.779   0.157 -0.0648  0.6330 -0.1316
  876SOL    HW1 2627   0.471   0.864   0.217  2.1322  1.5610 -0.9883
  876SOL    HW2 2628   0.569   0.751   0.151 -0.3517 -2.4045 -0.1914
  877SOL     OW 2629   0.090   0.648   1.268  0.5402  0.6120 -0.0567
  877SOL    HW1 2630   3.119   0.646   1.223  2.9634 -1.2699 -2.1574
  877SOL    HW2 2631   0.083   0.675   1.363  0.5926  0.1485  0.0843
  878SOL     OW 2632   2.491   2.412   0.458  0.3805 -0.3289 -0.0638
  878SOL    HW1 2633   2.471   2.331   0.515  0.4327  1.1997 -0.4266
  878SOL    HW2 2634   2.428   2.491   0.476 -0.6709 -0.2893  1.3873
  879SOL     OW 2635   2.415   1.418   1.313 -0.0046  0.9790  0.2028
  879SOL    HW1 2636   2.508   1.392   1.272 -0.0986  1.2271  0.1342
  879SOL    HW2 2637   2.392   1.512   1.289 -1.9090  1.2711  0.4782
  880SOL     OW 2638   1.598   2.740   1.089  0.1636  0.3341  0.0832
  880SOL    HW1 2639   1.663   2.739   1.010 -0.0764  0.8355  0.5359
  880SOL    HW2 2640   1.530   2.665   1.084 -0.1393  0.4501 -1.1477
  881SOL     OW 2641   1.019   2.276   0.058  0.4646  0.4429 -0.9540
  881SOL    HW1 2642   0.956   2.282   0.139 -2.3890  2.5718  3.3968
  881SOL    HW2 2643   1.064   2.362   0.039  4.6845 -3.2236  0.2386
  882SOL     OW 2644   1.791   0.649   1.259  0.0881  0.0913  0.0663
  882SOL    HW1 2645   1.854   0.606   1.188  1.3780  1.3755 -2.9464
  882SOL    HW2 2646   1.737   0.581   1.314 -1.5105 -1.0293  0.4330
  883SOL     OW 2647   1.464   0.554   1.694  0.3506  0.5039  0.1589
  883SOL    HW1 2648   1.434   0.569   1.597  1.8327 -1.7770 -2.2712
  883SOL    HW2 2649   1.562   0.583   1.709  1.3177  2.2562 -0.0584
  884SOL     OW 2650   2.698   0.490   0.129 -0.0191 -0.4165  0.3386
  884SOL    HW1 2651   2.600   0.491   0.147  0.3094  0.3703 -0.3009
  884SOL    HW2 2652   2.731   0.585   0.146 -2.3335  0.7321  1.6681
  885SOL     OW 2653   1.258   1.811   3.100  0.1248 -0.0272  0.0762
  885SOL    HW1 2654   1.190   1.879   0.017  2.2774 -0.6595  0.0245
  885SOL    HW2 2655   1.297   1.837   3.010 -0.7737  2.1733 -2.7371
  886SOL     OW 2656   1.715   1.504   2.564 -0.1776 -0.0379  0.0490
  886SOL    HW1 2657   1.755   1.561   2.640 -0.1021  1.6990  0.0122
  886SOL    HW2 2658   1.740   1.406   2.575  1.7022  2.4495 -1.3064
  887SOL     OW 2659   1.607   0.207   1.501  0.2305 -0.2986 -0.1088
  887SOL    HW1 2660   1.553   0.137   1.450  2.2591 -1.1244 -1.4422
  887SOL    HW2 2661   1.683   0.160   1.550 -0.7952  1.1509  1.9747
  888SOL     OW 2662   2.425   0.620   1.998  0.1783  0.3752  0.1414
  888SOL    HW1 2663   2.521   0.599   2.020 -0.0974  2.1543  0.1967
  888SOL    HW2 2664   2.424   0.709   1.951  2.0103  1.8693  1.2206
  889SOL     OW 2665   0.122   2.527   1.142  1.0034  0.0678  0.2624
  889SOL    HW1 2666   0.028   2.523   1.097 -2.7545 -0.3639 -0.2352
  889SOL    HW2 2667   0.193   2.548   1.078 -1.5149  0.2409  2.3758
  890SOL     OW 2668   2.389   2.384   0.211 -0.6899  0.0915  0.3983
  890SOL    HW1 2669   2.318   2.461   0.191 -1.8049  0.4116 -2.4271
  890SOL    HW2 2670   2.442   2.410   0.296 -1.3991  2.7379  4.7293
  891SOL     OW 2671   0.674   1.315   2.897 -0.3390  0.0931  0.2332
  891SOL    HW1 2672   0.768   1.331   2.866  0.0228 -1.1073  1.9414
  891SOL    HW2 2673   0.637   1.235   2.854  0.8182  0.7615  2.1937
  892SOL     OW 2674   0.054   3.105   1.091 -0.6964 -0.2002 -0.2554
  892SOL    HW1 2675   0.075   3.074   1.184 -2.8034 -0.8137 -5.5298
  892SOL    HW2 2676   0.053   3.022   1.034 -2.6201 -1.4581 -0.1784
  893SOL     OW 2677   1.227   0.143   1.465  0.0411  0.1832 -0.4068
  893SOL    HW1 2678   1.234   0.205   1.548  0.3038  0.1610 -0.7767
  893SOL    HW2 2679   1.132   0.122   1.431  0.7041  0.6958 -2.3259
  894SOL     OW 2680   2.440   0.464   0.843 -0.1798  0.1468  0.0783
  894SOL    HW1 2681   2.348   0.498   0.879  0.0980  0.6348  0.5951
  894SOL    HW2 2682   2.479   0.520   0.769  1.1843  1.5469 -1.1838
  895SOL     OW 2683   2.130   2.190   2.178  0.1614 -0.0758  0.4738
  895SOL    HW1 2684   2.138   2.144   2.267  0.0182  1.5405 -0.8308
  895SOL    HW2 2685   2.220   2.194   2.128  0.8245  0.0890  0.6432
  896SOL     OW 2686   1.451   0.122   1.918 -0.1699 -0.6576 -0.0663
  896SOL    HW1 2687   1.467   0.203   1.859  2.3819 -2.6433  0.9498
  896SOL    HW2 2688   1.484   0.041   1.869 -1.8476  1.0216  3.0949
  897SOL     OW 2689   0.509   1.658   1.898  1.0942 -0.1830 -0.5602
  897SOL    HW1 2690   0.451   1.737   1.930 -0.3029  0.0002 -0.1495
  897SOL    HW2 2691   0.579   1.633   1.965 -1.4206  0.8369  1.3961
  898SOL     OW 2692   2.252   2.755   1.965 -0.9439 -0.2764  0.4809
  898SOL    HW1 2693   2.236   2.838   1.910  0.9472  0.7755  0.8576
  898SOL    HW2 2694   2.329   2.771   2.029 -0.6380  0.6735  0.2750
  899SOL     OW 2695   0.998   0.842   1.319  0.2281 -0.4353 -0.4523
  899SOL    HW1 2696   1.082   0.883   1.362  0.6586  0.1945 -0.2506
  899SOL    HW2 2697   0.993   0.866   1.218  1.6028  0.9187 -1.5413
  900SOL     OW 2698   2.047   2.186   2.854 -0.0739  0.0134  0.1262
  900SOL    HW1 2699   2.011   2.134   2.933  3.4137  1.3178  0.0695
  900SOL    HW2 2700   1.979   2.232   2.795  1.2980  0.6480 -0.4061
  901SOL     OW 2701   0.786   2.118   2.622  0.0560 -0.4021 -0.0564
  901SOL    HW1 2702   0.758   2.163   2.712  0.7346 -0.4686  3.6681
  901SOL    HW2 2703   0.716   2.056   2.589  1.0933 -0.1339 -0.1833
  902SOL     OW 2704   2.252   1.559   0.155 -0.4646  0.3901  0.0910
  902SOL    HW1 2705   2.341   1.525   0.196  0.6577 -0.1294  1.0923
  902SOL    HW2 2706   2.239   1.660   0.175 -0.8691  1.1531  0.5153
  903SOL     OW 2707   2.043   0.768   0.478  0.0276 -0.8349 -0.1544
  903SOL    HW1 2708   2.093   0.859   0.485  1.4014 -0.7227  3.1314
  903SOL    HW2 2709   2.042   0.730   0.381 -1.4082 -0.4523 -1.7221
  904SOL     OW 2710   0.429   0.834   3.001  0.1030  0.3044  0.4500
  904SOL    HW1 2711   0.461   0.819   3.096  0.3306 -0.8765 -0.6356
  904SOL    HW2 2712   0.326   0.844   3.000  0.4639  1.7979  0.3538
  905SOL     OW 2713   2.351   0.142   1.148 -0.7329  0.6717  0.1572
  905SOL    HW1 2714   2.376   0.128   1.247  1.9017  0.1267 -1.0037
  905SOL    HW2 2715   2.315   0.239   1.140 -1.8588  2.0738 -3.8632
  906SOL     OW 2716   2.568   2.283   1.089  0.1183 -0.0188 -0.0067
  906SOL    HW1 2717   2.526   2.252   1.178 -0.6252 -3.3623 -1.7602
  906SOL    HW2 2718   2.518   2.360   1.040 -1.1393  0.0346  0.5877
  907SOL     OW 2719   1.197   0.749   0.411  0.4222  0.2557 -0.3915
  907SOL    HW1 2720   1.131   0.684   0.450 -2.6691 -0.0286  2.0425
  907SOL    HW2 2721   1.200   0.832   0.468 -1.0561 -1.0827 -2.3739
  908SOL     OW 2722   2.281   2.999   1.479  0.3566 -0.0951 -0.3359
  908SOL    HW1 2723   2.356   2.933   1.478  0.1730  1.4983  0.2644
  908SOL    HW2 2724   2.232   2.977   1.389  1.4186  1.6687 -0.7560
  909SOL     OW 2725   2.778   0.882   1.577 -0.5455  0.3352 -0.0948
  909SOL    HW1 2726   2.830   0.884   1.486  2.5319 -1.3409 -3.5451
  909SOL    HW2 2727   2.740   0.972   1.603  0.1037 -4.0707 -1.1995
  910SOL     OW 2728   1.694   2.738   2.289  0.4469 -0.4569 -0.1350
  910SOL    HW1 2729   1.602   2.691   2.317 -2.1017 -0.4320 -0.7409
  910SOL    HW2 2730   1.670   2.826   2.247 -0.2057  1.8168 -0.2895
  911SOL     OW 2731   2.201   0.287   2.272 -0.3486  0.2309 -0.7026
  911SOL    HW1 2732   2.148   0.343   2.342  0.4787  0.5783  0.4446
  911SOL    HW2 2733   2.298   0.323   2.262  1.3030  1.1348  1.5943
  912SOL     OW 2734   2.842   1.331   1.410  0.2299 -0.4129 -0.0607
  912SOL    HW1 2735   2.921   1.276   1.419 -4.4606  0.9621 -1.7181
  912SOL    HW2 2736   2.864   1.430   1.425 -2.6886  0.0359 -1.9741
  913SOL     OW 2737   2.786   1.872   1.135 -0.3802 -0.2107 -0.1232
  913SOL    HW1 2738   2.800   1.915   1.229 -2.4122  0.1706  0.1129
  913SOL    HW2 2739   2.779   1.946   1.066  0.2918 -1.3811  0.1521
  914SOL     OW 2740   1.932   1.338   1.376 -0.3248 -0.3055  0.3757
  914SOL    HW1 2741   2.013   1.344   1.441  1.0558  4.3350  0.6389
  914SOL    HW2 2742   1.885   1.250   1.365  0.7764 -1.9682 -1.3805
  915SOL     OW 2743   0.983   1.135   1.458  0.3536  0.5174  0.1656
  915SOL    HW1 2744   0.896   1.080   1.476 -2.4889  0.0292  0.4755
  915SOL    HW2 2745   1.066   1.075   1.458  1.0676  0.1630  0.2232
  916SOL     OW 2746   2.353   2.585   1.271  0.2019 -0.1243  0.1806
  916SOL    HW1 2747   2.405   2.579   1.362  0.3338  0.7992  2.1408
  916SOL    HW2 2748   2.367   2.670   1.217 -2.4180  0.3247  0.4579
  917SOL     OW 2749   2.583   2.194   0.134  0.5152  0.1052  0.1324
  917SOL    HW1 2750   2.551   2.160   0.044  0.0278  0.5442  3.1096
  917SOL    HW2 2751   2.510   2.256   0.175 -0.4301 -1.4835  2.4522
  918SOL     OW 2752   1.977   2.725   2.645  0.2224  0.2957 -0.8299
  918SOL    HW1 2753   1.994   2.766   2.553  1.3735  0.1630  1.8482
  918SOL    HW2 2754   2.059   2.731   2.703  0.6808 -3.5923 -2.9165
  919SOL     OW 2755   1.662   1.935   1.693 -0.5283 -0.1118  0.2458
  919SOL    HW1 2756   1.699   1.864   1.757 -0.9112 -0.0413  4.0229
  919SOL    HW2 2757   1.641   2.018   1.745 -1.6308  0.2271  1.8279
  920SOL     OW 2758   2.917   0.157   2.579 -0.4131  0.3482 -0.2306
  920SOL    HW1 2759   2.897   0.076   2.521 -2.8544 -1.3704 -0.2904
  920SOL    HW2 2760   2.843   0.227   2.564  2.1568  0.6869  1.9204
  921SOL     OW 2761   2.886   0.302   1.959 -0.1345  0.1618 -0.0578
  921SOL    HW1 2762   2.944   0.303   2.039  0.2863  0.9153 -0.3395
  921SOL    HW2 2763   2.941   0.293   1.879 -0.5264 -0.7659 -3.6189
  922SOL     OW 2764   2.180   2.206   0.249 -0.5156 -0.0626  0.4466
  922SOL    HW1 2765   2.272   2.248   0.261  2.7613  0.2720 -3.7750
  922SOL    HW2 2766   2.179   2.115   0.206 -4.2984 -0.1434 -0.0184
  923SOL     OW 2767   0.361   2.070   0.123  0.4680 -0.0883 -0.4380
  923SOL    HW1 2768   0.351   1.991   0.054 -0.6921  1.2390  0.5908
  923SOL    HW2 2769   0.431   2.136   0.091 -1.1234 -1.9625  2.7931
  924SOL     OW 2770   0.792   0.548   0.288 -0.0869  0.4982  0.2604
  924SOL    HW1 2771   0.699   0.506   0.300 -1.1701 -2.7298 -1.0167
  924SOL    HW2 2772   0.786   0.648   0.274 -1.5549 -0.2074 -0.3074
  925SOL     OW 2773   2.430   0.771   0.914 -0.2182 -0.2078 -0.5840
  925SOL    HW1 2774   2.360   0.819   0.857  0.6494 -0.9231 -1.3168
  925SOL    HW2 2775   2.399   0.776   1.015 -2.8647  1.8546  1.6033
  926SOL     OW 2776   2.864   0.760   0.815  0.0874  0.2622 -0.7877
  926SOL    HW1 2777   2.789   0.790   0.880 -1.6919  1.9017 -0.3492
  926SOL    HW2 2778   2.954   0.739   0.862  0.5511 -1.3771  0.7956
  927SOL     OW 2779   3.103   1.121   2.803  0.2162 -0.5899  0.5110
  927SOL    HW1 2780   0.052   1.061   2.756 -0.0989  0.1621  1.0429
  927SOL    HW2 2781   0.024   1.215   2.802  0.0752 -1.9049 -0.2650
  928SOL     OW 2782   2.983   0.447   2.377 -0.3525 -0.0514  0.2738
  928SOL    HW1 2783   3.066   0.385   2.380  2.0337 -0.6158 -1.3612
  928SOL    HW2 2784   2.900   0.401   2.412 -1.3368  2.3178  0.7019
  929SOL     OW 2785   3.013   2.763   1.107  0.2561 -0.3250 -0.0605
  929SOL    HW1 2786   2.940   2.815   1.061  2.6633 -1.4921  0.3129
  929SOL    HW2 2787   3.037   2.678   1.054  1.1768  2.4092 -0.4122
  930SOL     OW 2788   2.152   1.775   1.629 -0.4888  0.2025 -0.5121
  930SOL    HW1 2789   2.117   1.821   1.713  1.1077  1.1826  0.8599
  930SOL    HW2 2790   2.117   1.812   1.540  1.1910 -1.0945 -0.8612
  931SOL     OW 2791   1.434   1.607   0.723  0.2684  0.1049 -0.6586
  931SOL    HW1 2792   1.445   1.554   0.809 -0.6246 -1.6756 -0.0293
  931SOL    HW2 2793   1.350   1.665   0.723  1.9640 -3.4780  2.0305
  932SOL     OW 2794   2.630   1.148   1.031  0.3321 -0.4703  0.0578
  932SOL    HW1 2795   2.663   1.072   1.094  1.8854 -2.8118  1.8721
  932SOL    HW2 2796   2.620   1.234   1.087  1.1609  1.4367  0.4262
  933SOL     OW 2797   2.402   1.685   1.257 -0.0715 -0.1666  0.6543
  933SOL    HW1 2798   2.312   1.704   1.213  1.5764 -1.9159 -0.8321
  933SOL    HW2 2799   2.406   1.697   1.362  0.7406  0.0243  0.7540
  934SOL     OW 2800   1.641   2.758   1.780  0.3087 -0.0684 -0.3886
  934SOL    HW1 2801   1.711   2.707   1.832  3.0443  3.6312  1.0826
  934SOL    HW2 2802   1.627   2.720   1.685  0.6019 -2.4853  1.3859
  935SOL     OW 2803   3.107   1.553   0.771  0.0890 -0.4252 -0.2692
  935SOL    HW1 2804   3.015   1.580   0.800  2.1466  1.1212  0.1713
  935SOL    HW2 2805   0.056   1.613   0.822 -0.8631  1.1885  2.8842
  936SOL     OW 2806   0.259   1.300   0.505  0.3856  0.2740 -0.6097
  936SOL    HW1 2807   0.250   1.203   0.487 -0.7305  3.2306  0.1920
  936SOL    HW2 2808   0.282   1.345   0.419 -0.8388  0.3390  2.5500
  937SOL     OW 2809   1.981   2.639   1.048 -0.1103  0.2335 -0.3118
  937SOL    HW1 2810   1.897   2.669   1.009  2.9161 -1.7283 -0.5212
  937SOL    HW2 2811   2.056   2.696   1.014 -0.2568 -2.5904  3.0080
  938SOL     OW 2812   2.435   2.111   0.895  0.9080 -0.4724 -0.5101
  938SOL    HW1 2813   2.347   2.119   0.938  2.1044 -0.9283 -1.3550
  938SOL    HW2 2814   2.512   2.138   0.958  0.9717 -2.1025  0.0548
  939SOL     OW 2815   0.635   2.187   0.400  0.0594  0.2832 -0.7512
  939SOL    HW1 2816   0.708   2.211   0.462 -2.4649 -2.6990 -1.3700
  939SOL    HW2 2817   0.661   2.218   0.306  0.8653  2.0676 -1.1055
  940SOL     OW 2818   2.870   0.147   2.935 -0.5038  0.2911  0.0972
  940SOL    HW1 2819   2.937   0.206   2.885 -2.0287  1.0506  0.9384
  940SOL    HW2 2820   2.916   0.053   2.928  1.0864 -1.6164 -1.7111
  941SOL     OW 2821   1.124   0.303   0.124  0.1160  0.0131 -0.4641
  941SOL    HW1 2822   1.140   0.220   0.068 -1.7141 -0.5086  1.8048
  941SOL    HW2 2823   1.174   0.381   0.079  2.8575  0.7098 -3.8888
  942SOL     OW 2824   1.116   1.545   1.694  0.2299 -0.8005  0.5263
  942SOL    HW1 2825   1.117   1.589   1.787  0.6690  1.5841 -0.1418
  942SOL    HW2 2826   1.046   1.587   1.631  0.0221 -1.0186 -1.6227
  943SOL     OW 2827   1.749   1.145   1.378  0.1883  0.5569  0.2454
  943SOL    HW1 2828   1.683   1.114   1.452  0.1645  0.2472  0.0927
  943SOL    HW2 2829   1.791   1.066   1.320  0.7586 -0.6163 -0.1659
  944SOL     OW 2830   1.950   0.559   1.671 -0.3520 -0.4884 -0.1464
  944SOL    HW1 2831   1.949   0.511   1.579  1.9893 -0.9251 -1.0764
  944SOL    HW2 2832   1.951   0.662   1.675 -2.6338 -1.6273  1.4941
  945SOL     OW 2833   2.992   0.077   0.688  0.2511 -0.2550 -0.6778
  945SOL    HW1 2834   2.982   0.158   0.749 -0.1495 -1.6100  0.4841
  945SOL    HW2 2835   3.046   0.098   0.600 -0.9479  0.3224  0.6112
  946SOL     OW 2836   0.500   0.261   1.363  0.4627  0.8083  0.4402
  946SOL    HW1 2837   0.542   0.319   1.435  1.5033  2.0037  0.2465
  946SOL    HW2 2838   0.499   0.303   1.270  1.3459 -1.0830 -0.2279
  947SOL     OW 2839   0.559   0.175   0.081  0.4153  0.0189  0.2645
  947SOL    HW1 2840   0.522   0.093   0.126  0.1794  0.5189  2.0941
  947SOL    HW2 2841   0.493   0.248   0.088 -1.1881 -1.1019  1.5801
  948SOL     OW 2842   2.715   1.147   1.869  0.5601  0.0037 -0.1667
  948SOL    HW1 2843   2.657   1.228   1.864 -0.7362  0.3122 -1.7877
  948SOL    HW2 2844   2.759   1.141   1.959 -0.2657  1.0342 -0.8306
  949SOL     OW 2845   0.581   1.001   2.861  0.3188 -0.5036  0.4252
  949SOL    HW1 2846   0.524   0.966   2.941 -2.8365  2.2790 -1.5296
  949SOL    HW2 2847   0.670   0.953   2.851 -2.3304  0.4920 -2.0819
  950SOL     OW 2848   0.974   0.812   0.803  0.0066  0.0059 -0.3887
  950SOL    HW1 2849   0.977   0.714   0.834 -0.9916 -0.2051  0.4904
  950SOL    HW2 2850   1.026   0.831   0.715 -0.6632  1.2487  0.0069
  951SOL     OW 2851   0.927   2.081   2.234  0.1589  0.0234  0.2928
  951SOL    HW1 2852   1.026   2.097   2.204  2.7989 -0.0596  0.3700
  951SOL    HW2 2853   0.895   2.157   2.289 -0.1074 -0.9334 -0.4290
  952SOL     OW 2854   0.718   1.755   0.250 -0.2388 -0.4386 -0.3607
  952SOL    HW1 2855   0.817   1.772   0.272 -0.7355  0.6077 -0.7188
  952SOL    HW2 2856   0.661   1.841   0.275  0.0598  1.6780 -0.7933
  953SOL     OW 2857   1.946   3.072   2.320 -0.3020 -0.0786  0.7575
  953SOL    HW1 2858   1.969   2.982   2.360 -1.0270 -1.6691 -0.9711
  953SOL    HW2 2859   2.037   3.110   2.291  1.1752 -0.3073  0.7345
  954SOL     OW 2860   1.438   1.270   0.626 -0.0265  0.4099 -0.0153
  954SOL    HW1 2861   1.523   1.319   0.651 -1.5759 -0.0548 -0.6588
  954SOL    HW2 2862   1.353   1.326   0.644  0.3586  1.5342  0.9986
  955SOL     OW 2863   0.492   2.285   2.385  0.1782  0.6229  0.2560
  955SOL    HW1 2864   0.492   2.384   2.371 -1.5298 -0.7414  1.0166
  955SOL    HW2 2865   0.501   2.259   2.484 -1.1432 -0.6419  0.7471
  956SOL     OW 2866   2.017   0.122   1.655  0.1978 -0.3194  0.0544
  956SOL    HW1 2867   2.063   0.207   1.685 -1.2939  0.5764  1.5069
  956SOL    HW2 2868   1.922   0.115   1.690  2.3845  1.6279  0.0227
  957SOL     OW 2869   1.692   2.013   2.684 -0.9619  0.1584  0.1133
  957SOL    HW1 2870   1.627   1.946   2.645 -0.6266 -0.5857 -0.0971
  957SOL    HW2 2871   1.678   2.008   2.784 -1.0228  0.0647  0.0183
  958SOL     OW 2872   1.056   2.142   1.720 -0.2815  0.5018  0.2481
  958SOL    HW1 2873   1.004   2.127   1.629  0.7029  1.0975 -2.5220
  958SOL    HW2 2874   0.994   2.176   1.790 -0.6813 -1.4717  0.4267
  959SOL     OW 2875   2.064   2.403   3.027  0.1668 -0.4833 -0.0520
  959SOL    HW1 2876   2.031   2.374   0.000  1.6625  3.0248  0.0021
  959SOL    HW2 2877   2.064   2.323   2.970  0.9269  0.6117 -1.2432
  960SOL     OW 2878   3.063   0.257   2.780 -0.6130 -0.2162 -0.0671
  960SOL    HW1 2879   0.039   0.239   2.746  2.4885  1.1205 -0.4099
  960SOL    HW2 2880   2.997   0.225   2.705  0.9791 -0.5445 -1.6563
  961SOL     OW 2881   0.790   0.803   2.830  0.4067 -0.5876 -0.7852
  961SOL    HW1 2882   0.846   0.888   2.833 -0.8396  3.9878 -1.3327
  961SOL    HW2 2883   0.820   0.737   2.763 -0.0996  3.6181  1.5065
  962SOL     OW 2884   1.195   1.283   2.881  0.5885  0.2909 -0.2100
  962SOL    HW1 2885   1.256   1.305   2.808 -1.6105 -1.0794  2.3436
  962SOL    HW2 2886   1.253   1.278   2.968  0.7865 -0.7577  0.5998
  963SOL     OW 2887   2.470   2.021   3.026 -0.3363  0.0006 -0.2085
  963SOL    HW1 2888   2.561   1.966   3.014  3.6638 -2.3971 -1.3248
  963SOL    HW2 2889   2.406   2.004   2.953  0.5443  0.8445  2.0639
  964SOL     OW 2890   1.420   2.541   1.060  0.1759 -0.2823 -0.7658
  964SOL    HW1 2891   1.396   2.496   0.972 -1.6187 -1.7420  2.7400
  964SOL    HW2 2892   1.370   2.494   1.136  0.5267 -1.0911 -1.8260
  965SOL     OW 2893   0.909   1.697   0.589 -0.4115  0.0547 -0.4579
  965SOL    HW1 2894   0.875   1.689   0.682 -0.1440  1.6251 -2.1933
  965SOL    HW2 2895   0.942   1.612   0.552  2.1178  1.6607 -2.3320
  966SOL     OW 2896   0.155   1.356   3.050  0.7534 -0.1939  0.1128
  966SOL    HW1 2897   0.180   1.424   0.006 -0.4962 -1.2249  2.0258
  966SOL    HW2 2898   0.201   1.266   3.079 -1.5907 -1.3798  3.3796
  967SOL     OW 2899   1.834   0.210   1.943  0.4678  0.4673 -0.2196
  967SOL    HW1 2900   1.806   0.198   2.038  0.9379  1.5789 -3.0323
  967SOL    HW2 2901   1.931   0.186   1.930 -0.3721  1.1610 -0.1823
  968SOL     OW 2902   1.840   1.116   0.523  0.0804  0.2988 -0.0399
  968SOL    HW1 2903   1.797   1.208   0.526 -0.9765  0.1614  1.4509
  968SOL    HW2 2904   1.792   1.066   0.448 -2.1465  1.0253  1.8786
  969SOL     OW 2905   0.311   1.332   2.215 -0.7763 -0.0923  0.1802
  969SOL    HW1 2906   0.259   1.344   2.132  0.8965 -1.6988  4.1113
  969SOL    HW2 2907   0.408   1.351   2.203 -2.7389  0.2634  3.2913
  970SOL     OW 2908   2.375   1.155   0.894 -0.5050  0.4395  0.2658
  970SOL    HW1 2909   2.465   1.140   0.938  1.4856 -0.7758 -3.2095
  970SOL    HW2 2910   2.359   1.084   0.820 -0.0969 -0.2788  0.7258
  971SOL     OW 2911   0.591   0.057   1.511 -0.4136 -0.0617  0.1450
  971SOL    HW1 2912   0.556   0.129   1.443 -1.4288 -1.7231  1.9671
  971SOL    HW2 2913   0.516   3.119   1.551  1.7860  0.4725  2.3740
  972SOL     OW 2914   0.530   0.709   2.781 -0.0040  0.8193  0.2873
  972SOL    HW1 2915   0.485   0.758   2.862  0.3424 -0.6556  0.3059
  972SOL    HW2 2916   0.628   0.730   2.780  0.7285  0.9402 -1.1613
  973SOL     OW 2917   0.114   0.965   0.940  0.2699 -0.5051  0.1653
  973SOL    HW1 2918   0.026   1.006   0.973  1.1466  2.2680 -1.3052
  973SOL    HW2 2919   0.171   0.928   1.015 -3.0730 -0.6616 -2.5281
  974SOL     OW 2920   2.146   0.845   1.887  0.3017  0.3472  0.4059
  974SOL    HW1 2921   2.092   0.808   1.808  2.8416  1.9002  2.1658
  974SOL    HW2 2922   2.184   0.934   1.849  0.1830 -2.2289 -0.5050
  975SOL     OW 2923   2.540   3.057   0.040 -0.0861  0.1771 -0.2011
  975SOL    HW1 2924   2.487   2.976   0.012 -0.3031 -0.3267 -2.7321
  975SOL    HW2 2925   2.526   3.076   0.142 -0.3796 -0.7745 -0.2065
  976SOL     OW 2926   3.071   1.216   1.494 -0.5941  0.2523  0.1631
  976SOL    HW1 2927   0.041   1.251   1.455 -1.0011  0.0380  0.2287
  976SOL    HW2 2928   3.069   1.206   1.596 -0.3896  1.3422  2.1126
  977SOL     OW 2929   1.039   2.906   0.453 -0.2968  0.5646 -1.2286
  977SOL    HW1 2930   1.025   2.923   0.351  1.0330  0.9161 -5.9018
  977SOL    HW2 2931   0.965   2.847   0.488 -1.0860  0.2039 -0.0918
  978SOL     OW 2932   0.684   1.486   0.261 -0.5170  0.2890 -0.0074
  978SOL    HW1 2933   0.727   1.580   0.265  0.0783 -1.0162  0.0186
  978SOL    HW2 2934   0.738   1.438   0.189  0.2963 -0.2584 -1.9411
  979SOL     OW 2935   1.526   1.655   1.294  0.0149 -0.0753 -0.0852
  979SOL    HW1 2936   1.493   1.703   1.375 -0.3347 -0.7550  0.1418
  979SOL    HW2 2937   1.513   1.554   1.307 -1.8515  3.4402  0.0466
  980SOL     OW 2938   0.361   1.461   1.781  0.1151 -0.3371  0.2688
  980SOL    HW1 2939   0.415   1.543   1.813 -0.7434 -0.7729  1.0751
  980SOL    HW2 2940   0.385   1.429   1.685 -0.0884  1.4455 -2.4056
  981SOL     OW 2941   3.085   1.554   0.218 -0.2301  0.6188  0.0733
  981SOL    HW1 2942   3.099   1.531   0.313  2.5940  0.3837 -2.8897
  981SOL    HW2 2943   0.056   1.555   0.167  2.8378  0.1560 -1.1078
  982SOL     OW 2944   2.479   2.810   2.126 -0.1243  0.7209 -0.4864
  982SOL    HW1 2945   2.456   2.857   2.213 -0.2566  1.4103 -0.3571
  982SOL    HW2 2946   2.559   2.843   2.075 -2.7994 -2.7022  0.0115
  983SOL     OW 2947   1.282   0.523   1.253  0.2914 -0.7297 -0.1182
  983SOL    HW1 2948   1.274   0.580   1.170  0.9944 -1.0093 -0.1771
  983SOL    HW2 2949   1.335   0.438   1.234  1.8032 -0.1280 -1.3827
  984SOL     OW 2950   0.978   3.112   2.750 -0.3598 -0.0435 -0.0139
  984SOL    HW1 2951   1.055   0.061   2.749  2.3957  0.2757  1.9912
  984SOL    HW2 2952   0.935   3.098   2.659 -0.6688  1.3506  0.3803
  985SOL     OW 2953   1.736   2.314   1.617 -0.1935  0.1560  0.5062
  985SOL    HW1 2954   1.721   2.398   1.560 -1.6145  0.7979  0.4578
  985SOL    HW2 2955   1.834   2.279   1.611 -2.0713  0.5965 -1.4892
  986SOL     OW 2956   2.534   0.196   2.370  0.1174  0.0951  0.1632
  986SOL    HW1 2957   2.498   0.279   2.326 -1.2315 -3.2322 -0.9899
  986SOL    HW2 2958   2.580   0.226   2.452 -0.8395 -0.3025 -2.5210
  987SOL     OW 2959   2.685   0.546   2.319 -0.2372  0.0309  0.5305
  987SOL    HW1 2960   2.748   0.560   2.242 -0.6364  1.0164 -2.0154
  987SOL    HW2 2961   2.656   0.638   2.349  0.9345 -1.9434  1.0961
  988SOL     OW 2962   2.489   0.681   2.799  0.4226 -1.3199 -0.4689
  988SOL    HW1 2963   2.412   0.677   2.865 -0.4892 -0.6753 -0.3094
  988SOL    HW2 2964   2.495   0.767   2.750 -1.2873 -1.2469 -0.1860
  989SOL     OW 2965   2.353   1.848   2.022  0.7063  0.5123 -0.1088
  989SOL    HW1 2966   2.353   1.849   2.125  0.3910  2.7954  2.0655
  989SOL    HW2 2967   2.440   1.901   1.998  2.6235  2.2715  0.7897
  990SOL     OW 2968   0.377   1.083   2.714  0.1712  0.7150  0.2265
  990SOL    HW1 2969   0.376   1.180   2.752  0.5201  0.3031  2.1443
  990SOL    HW2 2970   0.456   1.039   2.754  0.3322  1.3010 -0.6621
  991SOL     OW 2971   0.630   1.713   2.766 -0.5387 -0.4590  0.2184
  991SOL    HW1 2972   0.616   1.628   2.714 -0.1545 -0.2715  0.7993
  991SOL    HW2 2973   0.542   1.768   2.769 -1.0060 -0.5317  4.8749
  992SOL     OW 2974   2.843   1.907   1.801 -0.3259  0.1345 -0.4319
  992SOL    HW1 2975   2.850   2.007   1.775 -0.4793  0.8982  1.1337
  992SOL    HW2 2976   2.805   1.902   1.897  0.5725  3.2252 -0.3837
  993SOL     OW 2977   0.313   0.165   0.785 -0.3322  0.7956 -0.0428
  993SOL    HW1 2978   0.360   0.072   0.802  1.3633  2.6561  1.2232
  993SOL    HW2 2979   0.291   0.168   0.686 -0.2867 -0.3116 -1.5901
  994SOL     OW 2980   0.362   1.705   1.500 -0.4857 -0.1684  0.0639
  994SOL    HW1 2981   0.448   1.726   1.555  2.7915  0.6998  0.1922
  994SOL    HW2 2982   0.352   1.760   1.419  2.7832 -2.6988  2.0387
  995SOL     OW 2983   2.135   1.529   2.826 -0.1187 -0.1582  0.4359
  995SOL    HW1 2984   2.118   1.535   2.925 -0.8806 -1.6798 -0.0391
  995SOL    HW2 2985   2.124   1.618   2.783  0.8480 -1.6634  1.6795
  996SOL     OW 2986   1.993   1.297   2.777 -0.1789 -0.3596  0.8205
  996SOL    HW1 2987   2.031   1.393   2.779 -1.3489  0.2206  0.3257
  996SOL    HW2 2988   1.963   1.281   2.682 -0.1769  1.4690 -0.0084
  997SOL     OW 2989   1.801   1.039   1.716  0.4174  0.3354 -0.1266
  997SOL    HW1 2990   1.831   1.131   1.742  0.5603 -1.0128  0.2237
  997SOL    HW2 2991   1.712   1.052   1.671  0.6581  1.5205 -0.7389
  998SOL     OW 2992   2.050   2.106   0.940 -0.3924  0.0891 -0.2431
  998SOL    HW1 2993   2.106   2.047   0.878  0.8360  0.2633 -0.7038
  998SOL    HW2 2994   2.114   2.157   0.998  0.4403  0.5892 -0.6836
  999SOL     OW 2995   2.193   2.252   0.589 -0.1973 -0.0728  0.1294
  999SOL    HW1 2996   2.148   2.290   0.674 -1.3957 -3.5744  1.2768
  999SOL    HW2 2997   2.126   2.182   0.549  0.7998  0.3720  1.7646
 1000SOL     OW 2998   1.030   2.890   2.910  0.1479  0.5732  0.6066
 1000SOL    HW1 2999   0.998   2.959   2.839 -3.2088  2.8498 -0.3344
 1000SOL    HW2 3000   1.123   2.915   2.945 -0.6444  1.2398  0.9790
   3.11930   3.11930   3.11930
