1000 SPC/Fw water molecules t= 245.00000 step= 245000
 3000
    1SOL     OW    1   2.778   2.485   1.114 -0.0545 -0.2469  0.2895
    1SOL    HW1    2   2.777   2.412   1.186 -3.1825 -0.1048 -1.4790
    1SOL    HW2    3   2.710   2.453   1.047 -0.7317  2.6765  1.8484
    2SOL     OW    4   1.706   1.931   1.316 -0.1412  0.5507  0.2728
    2SOL    HW1    5   1.615   1.929   1.359 -0.2295 -1.2890 -2.2384
    2SOL    HW2    6   1.779   1.908   1.386 -0.8531  2.2284  3.3954
    3SOL     OW    7   1.566   2.674   3.101 -0.3198 -0.1557 -0.0003
    3SOL    HW1    8   1.545   2.771   0.006  0.3379  0.2519 -2.3650
    3SOL    HW2    9   1.638   2.656   3.028  2.1739  0.1191  0.2627
    4SOL     OW   10   1.718   1.907   1.963 -0.4630  0.3687  0.0021
    4SOL    HW1   11   1.808   1.876   1.997  0.9334  3.0102  2.8263
    4SOL    HW2   12   1.714   1.928   1.864  0.1125 -1.8047  1.6628
    5SOL     OW   13   1.187   1.080   1.413 -0.4432 -0.0884 -0.3246
    5SOL    HW1   14   1.267   1.077   1.354  0.5615 -0.3426  2.4687
    5SOL    HW2   15   1.151   0.988   1.436 -0.6339  2.3380  0.2886
    6SOL     OW   16   2.443   0.034   0.015 -0.2295 -0.0789  0.1880
    6SOL    HW1   17   2.476   0.060   3.024 -1.4867  2.6568 -1.2774
    6SOL    HW2   18   2.419   3.035   0.010  0.3513 -2.1477  1.0713
    7SOL     OW   19   2.764   1.610   1.575 -0.3042  0.0101 -0.2331
    7SOL    HW1   20   2.740   1.582   1.672 -0.2349  2.9201 -0.4604
    7SOL    HW2   21   2.764   1.535   1.507 -1.9406  0.2763 -1.5589
    8SOL     OW   22   1.151   0.213   0.912 -0.1445  0.2521 -0.0209
    8SOL    HW1   23   1.077   0.141   0.924 -2.1219 -0.7988 -4.0278
    8SOL    HW2   24   1.203   0.195   0.826  0.3492  0.3025 -1.7659
    9SOL     OW   25   1.700   0.568   2.562 -0.1047 -0.4197  0.1097
    9SOL    HW1   26   1.721   0.662   2.528  0.4841  2.2310  0.3595
    9SOL    HW2   27   1.762   0.505   2.519  1.7295  2.4422  2.3931
   10SOL     OW   28   0.431   2.064   0.256  0.3355 -0.4679  0.2125
   10SOL    HW1   29   0.378   2.000   0.317  1.2302  2.0524  2.5540
   10SOL    HW2   30   0.495   2.120   0.312 -2.4712  0.8196 -2.4236
   11SOL     OW   31   0.890   0.954   0.569 -0.3256  0.0231 -0.9361
   11SOL    HW1   32   0.803   0.935   0.613  0.6675  1.3931 -2.1917
   11SOL    HW2   33   0.897   1.052   0.537  3.1500  0.6605  0.2560
   12SOL     OW   34   0.101   0.067   1.737  0.0889  0.0128  0.2188
   12SOL    HW1   35   0.042   0.141   1.703  1.4424 -1.9762 -0.9126
   12SOL    HW2   36   0.181   0.054   1.672  1.5671 -0.2533 -0.4982
   13SOL     OW   37   1.506   0.175   0.357  0.2812 -0.4758  0.3762
   13SOL    HW1   38   1.423   0.222   0.392  1.9228  0.4089 -0.2197
   13SOL    HW2   39   1.582   0.190   0.425  0.2068 -0.2067  5.2378
   14SOL     OW   40   1.016   2.427   1.368 -0.2993  0.1576 -0.3512
   14SOL    HW1   41   1.036   2.448   1.465  2.6437 -0.9524 -1.5624
   14SOL    HW2   42   1.099   2.443   1.314 -0.7717 -0.4725  2.3749
   15SOL     OW   43   2.698   1.125   1.761 -0.0260 -0.0095 -0.3921
   15SOL    HW1   44   2.651   1.180   1.689 -0.7910  0.6695 -0.6699
   15SOL    HW2   45   2.709   1.180   1.850  1.5560 -0.1369  1.3611
   16SOL     OW   46   2.059   2.740   0.203 -0.8656  0.7164 -0.1918
   16SOL    HW1   47   2.117   2.819   0.191 -0.2010  1.3754 -0.2397
   16SOL    HW2   48   1.962   2.771   0.189  1.0237 -0.6870  0.9018
   17SOL     OW   49   0.998   0.067   1.324 -0.1408 -0.2189 -0.6610
   17SOL    HW1   50   0.956   0.157   1.306  2.3403  1.1085  0.0817
   17SOL    HW2   51   0.926   0.001   1.352  1.5917  0.2711 -1.6538
   18SOL     OW   52   1.464   0.667   2.881 -0.0781 -0.5424  0.1849
   18SOL    HW1   53   1.453   0.661   2.982 -1.4872 -0.6965 -0.1090
   18SOL    HW2   54   1.547   0.721   2.848  0.5027 -1.5458 -1.0089
   19SOL     OW   55   1.982   2.081   0.102 -0.9686 -0.2406  0.5428
   19SOL    HW1   56   2.030   1.993   0.088 -2.4474 -0.5846 -0.5249
   19SOL    HW2   57   1.925   2.107   0.019  0.8336 -0.9081 -0.4868
   20SOL     OW   58   2.034   2.049   1.749 -0.3384 -0.5510  0.7628
   20SOL    HW1   59   1.977   1.965   1.746 -2.1867  0.1248  1.1929
   20SOL    HW2   60   1.992   2.114   1.816 -2.5647 -0.3550  2.2868
   21SOL     OW   61   0.768   1.571   3.012 -0.0416 -0.2438 -0.3085
   21SOL    HW1   62   0.856   1.524   2.993 -3.4814 -0.0811 -1.1879
   21SOL    HW2   63   0.775   1.621   3.099  0.0857  0.9534 -0.2946
   22SOL     OW   64   1.814   2.928   1.340  0.5251  0.0699  0.8198
   22SOL    HW1   65   1.771   2.908   1.252 -0.1743  0.5306 -1.8361
   22SOL    HW2   66   1.752   2.895   1.408 -0.2198  2.1277 -2.2002
   23SOL     OW   67   0.010   0.456   1.490  0.2530  0.1474  0.6125
   23SOL    HW1   68   0.107   0.429   1.488 -1.3012  2.5584 -0.0795
   23SOL    HW2   69   3.092   0.554   1.462 -0.7097  0.8052  0.8301
   24SOL     OW   70   2.203   2.591   0.831  0.1519  0.1388 -0.2088
   24SOL    HW1   71   2.279   2.626   0.892  2.6131 -0.0012 -1.9608
   24SOL    HW2   72   2.160   2.510   0.869 -0.5917  0.6517  1.3097
   25SOL     OW   73   1.197   2.778   2.777  0.3382 -0.3309 -0.1049
   25SOL    HW1   74   1.291   2.755   2.753  1.5813 -2.0166 -1.6557
   25SOL    HW2   75   1.151   2.830   2.700  3.5286 -1.6952  0.3432
   26SOL     OW   76   1.990   2.822   2.851 -0.3506  0.3811 -0.7501
   26SOL    HW1   77   2.048   2.849   2.774 -3.7357 -0.0598  1.0298
   26SOL    HW2   78   1.906   2.883   2.853 -1.0467  0.7720 -0.0564
   27SOL     OW   79   0.054   1.888   2.633  0.3733 -0.1726  0.3253
   27SOL    HW1   80   3.082   1.942   2.590  1.6676  4.1707  0.2216
   27SOL    HW2   81   0.044   1.793   2.605 -0.4515  1.3045 -1.6084
   28SOL     OW   82   2.904   0.997   1.500 -0.5960 -0.1298 -0.0942
   28SOL    HW1   83   2.823   0.949   1.539 -2.6507 -0.0434  2.1228
   28SOL    HW2   84   2.922   1.087   1.546 -0.2578  0.7741 -2.8375
   29SOL     OW   85   2.476   2.514   1.417  0.0141  0.3467 -0.0738
   29SOL    HW1   86   2.440   2.580   1.482  0.2009  0.3803 -2.8086
   29SOL    HW2   87   2.566   2.544   1.383 -0.2918 -2.1160  0.5461
   30SOL     OW   88   1.385   0.632   0.044 -0.0179 -0.1277 -0.3521
   30SOL    HW1   89   1.355   0.537   0.054  2.6892 -0.1376 -1.1754
   30SOL    HW2   90   1.463   0.647   0.106 -2.0633  2.0459 -0.7723
   31SOL     OW   91   2.583   2.907   1.732  0.0730 -0.0215  0.4229
   31SOL    HW1   92   2.535   2.989   1.766  3.4965 -3.6092 -0.4492
   31SOL    HW2   93   2.679   2.936   1.702  0.7159 -0.4500 -0.8031
   32SOL     OW   94   0.829   1.675   1.450  0.4107 -0.5587 -0.0318
   32SOL    HW1   95   0.795   1.726   1.373  0.4196 -2.7680  1.4655
   32SOL    HW2   96   0.857   1.583   1.420 -1.4376  0.1923 -1.5922
   33SOL     OW   97   0.439   2.703   2.261  0.2333 -0.0417  0.1706
   33SOL    HW1   98   0.410   2.635   2.189 -3.3892 -0.6977 -1.1533
   33SOL    HW2   99   0.499   2.772   2.218  1.7106 -0.6376 -0.1808
   34SOL     OW  100   1.509   3.011   0.672 -0.0272 -0.0311  0.7882
   34SOL    HW1  101   1.602   3.048   0.691 -4.2421 -0.0111  1.9518
   34SOL    HW2  102   1.506   2.961   0.581  0.4479  0.8728 -2.2697
   35SOL     OW  103   2.025   2.994   0.907 -0.7644  0.1108 -0.5994
   35SOL    HW1  104   1.997   2.988   0.806 -0.3872  1.2410  0.0049
   35SOL    HW2  105   1.985   3.079   0.940 -0.1126 -2.4651  0.3962
   36SOL     OW  106   1.858   2.537   2.470 -0.3051  0.4619  0.7318
   36SOL    HW1  107   1.784   2.478   2.434  3.0368  0.9635  0.1974
   36SOL    HW2  108   1.927   2.481   2.516  1.7954  0.7842 -2.2322
   37SOL     OW  109   0.736   2.960   2.370  0.3469 -0.0126 -0.2250
   37SOL    HW1  110   0.674   2.956   2.289 -3.1967 -0.2032  0.0189
   37SOL    HW2  111   0.677   2.981   2.451 -2.0063  1.0741  1.9924
   38SOL     OW  112   0.153   2.727   2.533 -0.4635 -0.2449 -0.0689
   38SOL    HW1  113   0.252   2.697   2.540  0.9792 -1.1626 -0.5347
   38SOL    HW2  114   0.123   2.750   2.439 -0.1926  1.2229 -1.0576
   39SOL     OW  115   2.532   1.191   2.112  0.5396  0.2105 -0.1080
   39SOL    HW1  116   2.500   1.255   2.036  0.0153  1.2056  0.0926
   39SOL    HW2  117   2.456   1.168   2.174 -0.1390 -0.9389  0.8621
   40SOL     OW  118   0.725   2.818   3.061 -0.2334  0.7186  0.7419
   40SOL    HW1  119   0.755   2.902   3.097 -0.8373 -4.5963 -0.3332
   40SOL    HW2  120   0.740   2.739   0.021  1.0337 -2.3366 -1.3366
   41SOL     OW  121   2.025   0.957   1.186  0.1994  0.1358  0.4950
   41SOL    HW1  122   2.097   0.886   1.181 -0.6768  1.8596  2.4323
   41SOL    HW2  123   2.059   1.036   1.133 -0.7959 -0.4420 -3.1995
   42SOL     OW  124   0.458   0.308   1.130  0.2126  0.5784  0.2893
   42SOL    HW1  125   0.524   0.338   1.056  0.6300  0.2526  3.6070
   42SOL    HW2  126   0.437   0.390   1.188  2.8912 -0.4921 -0.4331
   43SOL     OW  127   2.487   1.315   2.644 -0.1960  0.9023  0.2437
   43SOL    HW1  128   2.459   1.216   2.629 -2.2215  0.1315  1.1765
   43SOL    HW2  129   2.478   1.365   2.554 -2.8340  0.0832  1.2025
   44SOL     OW  130   3.041   2.863   0.650 -0.0676  0.6138  0.2340
   44SOL    HW1  131   2.995   2.951   0.637  0.3322 -1.3939 -0.8627
   44SOL    HW2  132   0.039   2.881   0.658  0.1122  1.4450  0.7386
   45SOL     OW  133   0.068   2.714   1.098  0.0252  0.4271  0.2611
   45SOL    HW1  134   0.148   2.714   1.032  0.2545  1.1155 -0.2841
   45SOL    HW2  135   3.087   2.678   1.052  1.4990 -2.4459 -0.7885
   46SOL     OW  136   2.208   2.478   2.532  0.0825  0.0834  0.0938
   46SOL    HW1  137   2.144   2.399   2.495  0.5802 -2.0522 -0.2494
   46SOL    HW2  138   2.153   2.559   2.561  0.7374  0.0834 -0.1727
   47SOL     OW  139   2.044   2.048   1.244 -0.0054 -0.5246  0.0431
   47SOL    HW1  140   2.137   2.019   1.213  0.1218 -0.4904 -1.8968
   47SOL    HW2  141   1.968   2.004   1.196 -1.8039  0.6126  1.6426
   48SOL     OW  142   0.609   1.559   0.294 -0.2448  0.0419  0.4139
   48SOL    HW1  143   0.649   1.618   0.223 -0.5745 -2.0878  1.4438
   48SOL    HW2  144   0.611   1.463   0.267  1.9098  2.8865  1.9192
   49SOL     OW  145   3.051   0.073   2.538  0.0640  0.2697 -0.2152
   49SOL    HW1  146   3.035   0.045   2.637 -0.5465 -0.7378  1.3046
   49SOL    HW2  147   2.964   0.080   2.490  1.8217  0.0598 -3.4199
   50SOL     OW  148   2.199   0.728   0.472 -0.1027  0.1295  0.0738
   50SOL    HW1  149   2.143   0.803   0.434 -0.9677 -0.5139 -1.4387
   50SOL    HW2  150   2.146   0.643   0.491  1.4797  1.3018  2.9962
   51SOL     OW  151   2.436   0.806   1.107  0.6677  0.4147  0.0920
   51SOL    HW1  152   2.515   0.818   1.172 -1.4573  0.7738  0.8022
   51SOL    HW2  153   2.435   0.887   1.044 -0.1385 -0.7148 -0.5515
   52SOL     OW  154   1.459   1.297   2.508 -0.1839  0.3705  0.0378
   52SOL    HW1  155   1.507   1.276   2.421 -0.6659  0.0984 -0.0866
   52SOL    HW2  156   1.389   1.225   2.521  1.2310  2.9918 -2.8623
   53SOL     OW  157   0.656   1.816   2.180 -0.0763 -0.3555 -0.4046
   53SOL    HW1  158   0.714   1.760   2.121  1.7885  1.2224  0.0899
   53SOL    HW2  159   0.713   1.851   2.256 -1.2756  0.4692 -1.1914
   54SOL     OW  160   2.136   0.428   0.975  0.5321  0.4091 -0.4633
   54SOL    HW1  161   2.201   0.498   0.939  0.2487  0.9882 -0.2759
   54SOL    HW2  162   2.156   0.414   1.078  1.4150 -3.1554  3.2023
   55SOL     OW  163   2.561   2.275   1.008  0.1257  0.2299 -0.7763
   55SOL    HW1  164   2.560   2.175   1.037 -0.5556  1.0323  0.2213
   55SOL    HW2  165   2.619   2.289   0.926 -1.0372  0.9218 -1.8942
   56SOL     OW  166   1.096   0.040   1.827 -0.6480 -0.1234 -0.0348
   56SOL    HW1  167   1.157   0.069   1.905  1.2324 -0.0738  2.0332
   56SOL    HW2  168   1.128   0.078   1.738 -1.3392 -1.7006 -0.2471
   57SOL     OW  169   1.457   1.499   0.103 -0.1889 -0.5018  0.2789
   57SOL    HW1  170   1.454   1.526   0.204 -1.3434  3.1849  0.2151
   57SOL    HW2  171   1.543   1.532   0.060  2.0584 -2.5788 -1.4032
   58SOL     OW  172   3.060   0.886   2.488 -0.4597 -0.2488  0.0683
   58SOL    HW1  173   0.042   0.941   2.490  0.8417 -0.2056 -0.4184
   58SOL    HW2  174   3.051   0.830   2.404 -3.3641  0.9459  0.2041
   59SOL     OW  175   0.730   2.819   2.787  0.4595 -0.2719 -0.0714
   59SOL    HW1  176   0.739   2.802   2.887  0.7034 -1.8291 -0.2216
   59SOL    HW2  177   0.814   2.862   2.755  1.6363 -2.7955  1.9070
   60SOL     OW  178   2.518   2.392   0.563 -0.5802 -0.0070  0.5957
   60SOL    HW1  179   2.518   2.450   0.645 -3.7225 -0.7677 -2.7450
   60SOL    HW2  180   2.608   2.375   0.523 -1.3281  0.4886  1.1438
   61SOL     OW  181   1.197   2.008   0.638 -0.2936 -0.1501  0.1145
   61SOL    HW1  182   1.229   1.951   0.720 -1.0374  1.5476  1.7606
   61SOL    HW2  183   1.126   1.958   0.581 -2.0729  3.5959 -0.8050
   62SOL     OW  184   2.272   2.060   2.738 -0.4998  0.1329 -0.1665
   62SOL    HW1  185   2.210   2.103   2.797  0.2210 -0.0906 -1.5420
   62SOL    HW2  186   2.240   1.965   2.704 -0.0473 -0.4493  0.5910
   63SOL     OW  187   2.229   2.766   2.975 -0.4887 -0.0091  0.0640
   63SOL    HW1  188   2.130   2.770   2.976  0.8831 -0.8153 -2.3912
   63SOL    HW2  189   2.265   2.790   2.882  0.7473 -0.5270 -2.5921
   64SOL     OW  190   1.305   1.075   2.524  0.2058  0.0179 -0.2957
   64SOL    HW1  191   1.223   1.106   2.479 -0.7744  0.9874 -1.4962
   64SOL    HW2  192   1.371   1.019   2.469 -1.6025  1.5481 -0.4274
   65SOL     OW  193   1.339   2.434   3.074  0.1519  0.0929 -0.4217
   65SOL    HW1  194   1.409   2.498   3.044 -1.5979 -0.5886 -0.6315
   65SOL    HW2  195   1.301   2.460   0.062 -2.1847 -2.4707  0.9286
   66SOL     OW  196   0.354   1.254   1.828 -0.2656  0.5377 -0.1028
   66SOL    HW1  197   0.388   1.213   1.920 -2.7320 -1.3000  0.2108
   66SOL    HW2  198   0.286   1.184   1.796 -1.2770 -3.2587  2.7405
   67SOL     OW  199   2.708   2.878   2.821  0.2353  0.3805 -0.3120
   67SOL    HW1  200   2.650   2.805   2.781 -1.8837 -0.8935 -0.1833
   67SOL    HW2  201   2.805   2.869   2.795 -0.5641 -3.0269 -2.4867
   68SOL     OW  202   0.735   2.514   1.475 -0.3297 -0.5423 -0.3245
   68SOL    HW1  203   0.834   2.534   1.480  0.8288 -0.2968  0.1588
   68SOL    HW2  204   0.711   2.477   1.384  0.4926 -0.6573 -2.4693
   69SOL     OW  205   0.593   2.167   0.431 -0.2606 -0.5835  0.3367
   69SOL    HW1  206   0.664   2.137   0.497  1.1517 -0.3326 -0.1629
   69SOL    HW2  207   0.553   2.254   0.461  0.2900 -1.0550 -0.6862
   70SOL     OW  208   2.584   0.881   2.492 -0.3847  0.2485  0.6121
   70SOL    HW1  209   2.671   0.929   2.504 -1.0625 -0.5450  1.5412
   70SOL    HW2  210   2.583   0.793   2.543 -0.5196 -0.0921  0.3060
   71SOL     OW  211   0.581   0.977   2.509  0.1821 -0.3991 -0.1422
   71SOL    HW1  212   0.569   0.918   2.427 -0.7014 -1.1647 -1.4936
   71SOL    HW2  213   0.594   0.921   2.588 -0.7903  1.3938 -0.9463
   72SOL     OW  214   0.275   2.088   0.548 -0.5191 -0.7839  0.6603
   72SOL    HW1  215   0.265   1.993   0.519 -1.8122 -0.0889 -0.7115
   72SOL    HW2  216   0.360   2.115   0.588 -0.4968 -0.1743  0.9620
   73SOL     OW  217   1.087   1.426   0.178 -0.5982 -0.8499 -0.2161
   73SOL    HW1  218   1.045   1.519   0.201 -1.1723  3.5034  0.1768
   73SOL    HW2  219   1.139   1.389   0.261  1.4272 -1.5600  1.4083
   74SOL     OW  220   2.642   3.014   0.208 -0.2865 -0.6327 -0.2001
   74SOL    HW1  221   2.682   2.961   0.133 -4.9685  1.9328  2.7278
   74SOL    HW2  222   2.576   3.087   0.176 -0.8837 -2.4529 -2.6928
   75SOL     OW  223   2.331   1.566   2.208  0.1994 -0.1780  0.2946
   75SOL    HW1  224   2.327   1.583   2.106  0.8421  2.1342 -1.4254
   75SOL    HW2  225   2.354   1.651   2.260 -1.9672  1.7606 -1.1450
   76SOL     OW  226   1.993   2.676   1.738 -0.3869  0.8262 -0.5444
   76SOL    HW1  227   1.927   2.694   1.813 -0.2797  1.4797 -0.0166
   76SOL    HW2  228   1.947   2.671   1.645  2.9060  0.0303 -0.4037
   77SOL     OW  229   2.439   0.496   1.253 -0.3936 -0.2071 -0.3104
   77SOL    HW1  230   2.459   0.517   1.157 -0.5923  2.5959  0.5263
   77SOL    HW2  231   2.490   0.557   1.323 -0.9912  1.3499 -0.4057
   78SOL     OW  232   2.068   1.003   2.801 -0.2675  0.1408 -0.6586
   78SOL    HW1  233   2.163   0.977   2.826  1.4156  2.5127  2.4199
   78SOL    HW2  234   2.012   1.026   2.883  0.1103  2.4084  0.3493
   79SOL     OW  235   0.289   1.594   1.951 -0.1064  0.0552 -0.3136
   79SOL    HW1  236   0.258   1.693   1.960 -1.2499  5.6356 -1.8026
   79SOL    HW2  237   0.245   1.552   1.869 -0.5255 -1.8927  0.0483
   80SOL     OW  238   1.909   1.008   1.428 -0.2468 -0.5204  0.4828
   80SOL    HW1  239   1.956   0.995   1.333  0.8723 -0.8801 -1.8455
   80SOL    HW2  240   1.814   0.968   1.430 -0.3250 -2.2000 -2.6300
   81SOL     OW  241   1.366   0.338   1.252 -0.0007  0.6553 -0.4668
   81SOL    HW1  242   1.352   0.242   1.225  0.1855 -0.6050 -1.4038
   81SOL    HW2  243   1.298   0.397   1.204  0.2014  2.0032 -0.3490
   82SOL     OW  244   1.410   2.405   1.789 -0.1360 -0.1803  0.7960
   82SOL    HW1  245   1.376   2.398   1.691  1.0896  3.1181  0.9458
   82SOL    HW2  246   1.504   2.370   1.784 -1.2466 -0.2083 -1.3429
   83SOL     OW  247   0.612   3.026   0.818  0.6437 -0.2875 -0.1670
   83SOL    HW1  248   0.617   3.035   0.919  0.2186 -1.1400 -2.9903
   83SOL    HW2  249   0.667   3.096   0.763 -1.3371  0.8663  1.6337
   84SOL     OW  250   0.067   0.915   2.913 -0.7985 -0.4421 -0.0926
   84SOL    HW1  251   0.163   0.935   2.875  1.9934  0.1364  1.1374
   84SOL    HW2  252   0.027   1.005   2.942  1.1157 -0.6232 -0.6270
   85SOL     OW  253   2.654   2.352   1.679 -0.2234 -0.5454  0.2144
   85SOL    HW1  254   2.701   2.413   1.614 -1.7506  0.2986  1.2301
   85SOL    HW2  255   2.571   2.401   1.714 -3.6874 -1.0152  1.4827
   86SOL     OW  256   2.882   2.537   1.563  0.0535 -0.5203  0.2005
   86SOL    HW1  257   2.940   2.620   1.556  1.5114 -3.3986 -1.4058
   86SOL    HW2  258   2.935   2.448   1.543  0.9020 -0.6059  1.3113
   87SOL     OW  259   0.600   2.640   0.230 -0.1680  0.2875 -0.0269
   87SOL    HW1  260   0.570   2.582   0.153  0.9116 -4.4599  0.4316
   87SOL    HW2  261   0.676   2.597   0.289  3.1047  0.7983 -0.1533
   88SOL     OW  262   0.124   2.051   1.138 -0.0855  0.4970  0.2786
   88SOL    HW1  263   0.105   2.126   1.076  0.6358  0.4469  1.1388
   88SOL    HW2  264   0.048   1.987   1.149  1.5367  0.5978  0.2441
   89SOL     OW  265   1.176   0.681   1.862  0.7373  0.0724  0.1277
   89SOL    HW1  266   1.119   0.598   1.863 -0.2330  2.4925 -0.9326
   89SOL    HW2  267   1.256   0.668   1.925 -1.1059 -2.1151 -1.8805
   90SOL     OW  268   2.606   1.647   1.976  0.1995  0.0892  1.0835
   90SOL    HW1  269   2.681   1.677   2.036  0.4250  0.1813 -2.0066
   90SOL    HW2  270   2.528   1.713   1.978 -3.2444 -0.3396 -0.3059
   91SOL     OW  271   1.546   1.919   0.797 -0.3411 -0.1370 -0.7715
   91SOL    HW1  272   1.445   1.896   0.802  0.7269 -1.6960  0.6099
   91SOL    HW2  273   1.585   1.945   0.892  1.6648 -1.7576  0.5040
   92SOL     OW  274   2.205   0.739   1.226 -0.1573 -0.3119  0.2917
   92SOL    HW1  275   2.166   0.650   1.209 -0.1807  2.5814  1.6232
   92SOL    HW2  276   2.298   0.737   1.188 -2.9164 -0.0815  0.6271
   93SOL     OW  277   2.329   1.320   0.222 -0.1663 -0.0327 -0.1225
   93SOL    HW1  278   2.293   1.275   0.137 -0.3109  1.9548  1.7115
   93SOL    HW2  279   2.429   1.351   0.211  3.1739 -0.7391  0.3137
   94SOL     OW  280   2.254   2.088   2.438 -0.6087 -0.1755  0.2827
   94SOL    HW1  281   2.318   2.099   2.522  0.9245  0.0138  2.3186
   94SOL    HW2  282   2.287   2.141   2.355 -0.4132  1.3038  1.3973
   95SOL     OW  283   1.875   0.505   1.040 -0.1377 -0.0910  0.6135
   95SOL    HW1  284   1.868   0.598   1.087  0.9478  0.0684 -1.9970
   95SOL    HW2  285   1.967   0.483   1.005  0.3974  0.3968  1.0672
   96SOL     OW  286   2.809   2.915   1.542 -0.6680 -0.8602  0.1147
   96SOL    HW1  287   2.738   2.895   1.470  3.0019  1.5182  0.2686
   96SOL    HW2  288   2.845   3.005   1.514  3.0531  2.9564 -0.0443
   97SOL     OW  289   2.143   0.091   1.250  0.1686  0.7910 -0.1690
   97SOL    HW1  290   2.093   0.119   1.167  1.6275 -1.0604  1.5181
   97SOL    HW2  291   2.244   0.073   1.227  2.1951 -1.0100  1.2018
   98SOL     OW  292   1.335   2.389   1.523  0.7755  0.0788  0.2936
   98SOL    HW1  293   1.384   2.460   1.466 -2.6406 -1.1315  2.3691
   98SOL    HW2  294   1.353   2.292   1.500  0.4037 -1.3726  1.1079
   99SOL     OW  295   2.497   2.695   1.911  0.0130  0.0329 -0.0316
   99SOL    HW1  296   2.427   2.739   1.973  0.4443  1.3069  2.3580
   99SOL    HW2  297   2.557   2.759   1.856  3.4281  1.0184  1.9043
  100SOL     OW  298   0.307   0.937   2.741 -0.0899 -0.2341  0.5687
  100SOL    HW1  299   0.367   0.986   2.809  1.0156  2.3429  0.6825
  100SOL    HW2  300   0.330   0.841   2.729  1.2926  0.0140 -0.2964
  101SOL     OW  301   2.005   0.907   0.115 -0.3202  0.1628  0.0196
  101SOL    HW1  302   1.933   0.902   0.186  0.0192  0.1419  2.6134
  101SOL    HW2  303   2.088   0.956   0.143 -1.5085 -0.0834 -0.7984
  102SOL     OW  304   0.267   0.339   1.511 -0.0454 -0.5706 -0.2378
  102SOL    HW1  305   0.295   0.373   1.602 -0.4095  1.4499  1.1585
  102SOL    HW2  306   0.287   0.240   1.499  0.6114  2.3803 -0.6715
  103SOL     OW  307   3.057   1.017   2.054  0.1000 -0.4089 -0.5563
  103SOL    HW1  308   3.022   1.099   2.107  0.5338 -0.6761  0.2943
  103SOL    HW2  309   3.031   1.021   1.955 -1.4055 -0.6083 -0.5669
  104SOL     OW  310   0.340   0.307   2.632  0.0175  0.2415 -0.4899
  104SOL    HW1  311   0.436   0.282   2.604 -0.1693  0.9244  1.3695
  104SOL    HW2  312   0.325   0.404   2.609  0.9454  0.6021 -1.5547
  105SOL     OW  313   1.948   1.951   1.504  0.1989  0.4721  0.2044
  105SOL    HW1  314   2.023   1.936   1.573 -1.7047 -3.3210  1.7405
  105SOL    HW2  315   1.991   1.975   1.413  1.6640  2.7252 -1.8490
  106SOL     OW  316   1.951   0.221   0.394  0.6894  0.3052  0.6099
  106SOL    HW1  317   2.015   0.166   0.340 -0.7959  0.9606  1.6057
  106SOL    HW2  318   1.963   0.318   0.371 -0.9307 -1.1657 -2.0798
  107SOL     OW  319   0.080   1.772   1.625 -0.2363 -0.1101  0.5772
  107SOL    HW1  320   0.090   1.864   1.672 -0.3294  1.2678  2.7126
  107SOL    HW2  321   0.075   1.787   1.520 -2.3151 -1.8910 -4.2169
  108SOL     OW  322   2.834   2.731   1.938  0.6757 -0.0956  0.4335
  108SOL    HW1  323   2.915   2.758   1.994 -3.0362 -0.0754  0.5277
  108SOL    HW2  324   2.847   2.651   1.874  2.1315 -1.8618 -0.2746
  109SOL     OW  325   1.716   0.175   0.515  0.3726 -0.1305  0.7437
  109SOL    HW1  326   1.795   0.213   0.458  1.9263 -2.3766 -2.1467
  109SOL    HW2  327   1.744   0.125   0.598 -3.0564  0.0164 -1.5746
  110SOL     OW  328   0.376   2.190   2.353  0.2904 -0.0462 -0.1476
  110SOL    HW1  329   0.340   2.270   2.409  0.9425  1.8803  2.3649
  110SOL    HW2  330   0.352   2.101   2.405 -0.9745 -0.8975  2.1200
  111SOL     OW  331   1.464   2.354   2.258  0.0392 -0.3805  0.3583
  111SOL    HW1  332   1.520   2.273   2.260 -2.6021  5.3515  1.0315
  111SOL    HW2  333   1.381   2.328   2.316 -0.0571  1.9476  0.9614
  112SOL     OW  334   1.720   2.723   2.615  0.0161  0.5681  0.0348
  112SOL    HW1  335   1.730   2.694   2.709  1.8117 -1.2707 -1.3392
  112SOL    HW2  336   1.753   2.646   2.553 -0.6304 -4.0563 -1.0625
  113SOL     OW  337   1.855   2.581   1.513 -0.3879 -0.6608 -0.0341
  113SOL    HW1  338   1.857   2.563   1.413  4.7862 -0.1351 -0.5869
  113SOL    HW2  339   1.880   2.500   1.565 -0.6999  0.1969 -0.6457
  114SOL     OW  340   2.838   0.871   0.696  0.1955  0.1268 -0.1727
  114SOL    HW1  341   2.846   0.933   0.615 -2.7112  2.7264 -1.6989
  114SOL    HW2  342   2.924   0.819   0.719  3.0110 -0.1453 -0.4486
  115SOL     OW  343   0.474   1.108   2.891 -0.1245  0.4695  0.2457
  115SOL    HW1  344   0.458   1.153   2.976  1.1904 -0.8467 -2.7029
  115SOL    HW2  345   0.542   1.032   2.903  2.8257  2.5494 -0.8553
  116SOL     OW  346   0.141   1.347   2.252 -0.0862 -0.7486 -0.2587
  116SOL    HW1  347   0.117   1.329   2.157  2.3541  1.3804  0.9684
  116SOL    HW2  348   0.232   1.313   2.278  1.0114 -0.4397  4.2156
  117SOL     OW  349   2.685   3.042   0.626  0.0912  0.3484 -0.5313
  117SOL    HW1  350   2.784   3.061   0.612  2.8648  5.3729  1.0637
  117SOL    HW2  351   2.637   2.995   0.551  1.1843  0.8809  0.1660
  118SOL     OW  352   1.180   2.072   1.487  0.4648  0.4912  0.0445
  118SOL    HW1  353   1.215   2.001   1.423  0.1262 -0.4173 -0.6614
  118SOL    HW2  354   1.255   2.105   1.543 -0.8416  0.7483  1.2912
  119SOL     OW  355   0.728   2.341   2.800 -0.2893 -0.7329 -0.4337
  119SOL    HW1  356   0.817   2.329   2.851  2.6199  2.3488 -0.0869
  119SOL    HW2  357   0.658   2.283   2.842  0.1713  1.3347  2.4260
  120SOL     OW  358   0.690   0.927   2.937 -0.2422 -0.0802  0.3200
  120SOL    HW1  359   0.695   0.846   2.880  2.5749  1.0233  0.9827
  120SOL    HW2  360   0.780   0.966   2.961  0.0567 -0.4836  2.4639
  121SOL     OW  361   1.690   2.594   1.220  0.1444  0.1025  0.3299
  121SOL    HW1  362   1.785   2.625   1.215 -3.3924  1.0361 -1.4544
  121SOL    HW2  363   1.672   2.521   1.149 -1.5998 -0.4825 -0.8133
  122SOL     OW  364   2.155   2.464   1.778 -0.0627 -0.2740 -0.0367
  122SOL    HW1  365   2.093   2.539   1.751  0.1103  3.0546  1.6845
  122SOL    HW2  366   2.141   2.377   1.731 -0.1233  1.5599 -0.3822
  123SOL     OW  367   0.232   2.763   0.548  0.0886  0.7912  0.7131
  123SOL    HW1  368   0.283   2.845   0.586  1.5137  1.1588 -0.3678
  123SOL    HW2  369   0.176   2.791   0.472  3.0007  1.1095 -0.1640
  124SOL     OW  370   2.213   1.396   2.793  0.6964  0.4137  0.0095
  124SOL    HW1  371   2.280   1.325   2.778 -0.7444  3.5102  2.4636
  124SOL    HW2  372   2.261   1.482   2.807 -0.0183  0.1863 -0.6251
  125SOL     OW  373   0.569   0.989   0.447  0.4410 -0.0783 -0.0489
  125SOL    HW1  374   0.570   0.956   0.543 -0.1030 -0.2465 -2.0748
  125SOL    HW2  375   0.530   1.088   0.447 -0.0392  1.3161  1.7497
  126SOL     OW  376   2.714   1.646   0.989 -0.0293 -0.2947 -0.0762
  126SOL    HW1  377   2.756   1.736   1.010  1.0822  0.1204 -2.0027
  126SOL    HW2  378   2.772   1.578   0.943 -1.6970 -0.8060 -0.4047
  127SOL     OW  379   0.011   2.073   1.822 -0.1011  0.0333  0.2167
  127SOL    HW1  380   0.079   2.070   1.748  0.3759  1.5577 -1.9625
  127SOL    HW2  381   0.057   2.100   1.905  1.5555  0.4384 -2.2941
  128SOL     OW  382   1.031   1.011   0.155 -0.4498 -0.0982  0.0706
  128SOL    HW1  383   1.098   0.931   0.138  0.4375 -1.4400 -3.2723
  128SOL    HW2  384   0.934   0.987   0.188 -0.6630 -1.3116 -1.6142
  129SOL     OW  385   2.459   1.048   0.961 -0.0430 -0.1939 -0.0590
  129SOL    HW1  386   2.481   1.135   1.012  2.3030  0.8911 -0.3188
  129SOL    HW2  387   2.439   1.063   0.864  1.4678 -0.2282  4.4487
  130SOL     OW  388   2.449   0.982   1.502  0.0636 -0.3077 -0.1901
  130SOL    HW1  389   2.532   0.942   1.545 -0.0300  0.0472  0.4630
  130SOL    HW2  390   2.479   1.043   1.424  1.2109  2.0458 -2.0349
  131SOL     OW  391   2.816   2.890   3.067 -0.4297 -0.1000  0.0193
  131SOL    HW1  392   2.791   2.895   2.969  0.1371 -1.8477 -1.2854
  131SOL    HW2  393   2.853   2.797   3.093 -2.4717  1.3537  0.3155
  132SOL     OW  394   2.852   2.142   1.695 -0.2975 -0.0097 -0.2915
  132SOL    HW1  395   2.802   2.232   1.707 -1.9907 -0.2136 -3.3113
  132SOL    HW2  396   2.945   2.142   1.739  0.8672 -0.0158 -2.9193
  133SOL     OW  397   1.160   0.455   1.070 -0.2482  0.4566 -0.2805
  133SOL    HW1  398   1.151   0.375   1.010 -2.9853  1.2060  0.7628
  133SOL    HW2  399   1.068   0.498   1.078 -2.4856  0.2294  1.1271
  134SOL     OW  400   0.014   1.288   0.423 -0.2907  0.1212  0.0311
  134SOL    HW1  401   3.051   1.318   0.355 -0.2126 -0.4866  1.8480
  134SOL    HW2  402   0.094   1.250   0.371  0.5813 -1.1954  1.5501
  135SOL     OW  403   2.293   1.095   1.658  0.2246 -0.2329  0.1946
  135SOL    HW1  404   2.322   1.049   1.751  0.0097 -3.3680  6.2189
  135SOL    HW2  405   2.355   1.052   1.589  2.0910  1.1547  1.4261
  136SOL     OW  406   0.145   0.984   0.508  0.2317 -0.1046  0.2405
  136SOL    HW1  407   0.045   1.008   0.525  0.6949  0.1903  0.5221
  136SOL    HW2  408   0.173   1.021   0.415 -0.0151  0.8782 -1.2198
  137SOL     OW  409   2.633   1.247   1.539  0.2139 -0.2153 -0.5083
  137SOL    HW1  410   2.622   1.189   1.455 -0.1851  3.2525  2.9074
  137SOL    HW2  411   2.702   1.322   1.519 -1.0187  1.8664  1.2211
  138SOL     OW  412   2.016   1.096   1.656  0.4022 -0.0063 -0.2288
  138SOL    HW1  413   2.117   1.080   1.655  0.2280 -1.5170 -1.4538
  138SOL    HW2  414   1.967   1.054   1.577 -0.2422  0.8712 -2.8642
  139SOL     OW  415   2.204   0.189   0.031  0.2682  0.3723 -0.3253
  139SOL    HW1  416   2.284   0.126   0.009  0.9841 -0.3451  0.2870
  139SOL    HW2  417   2.134   0.139   0.089  0.0165 -0.1066  0.2037
  140SOL     OW  418   1.420   2.004   1.905 -0.1354  0.1456  0.5933
  140SOL    HW1  419   1.340   2.020   1.966  2.8029 -2.1970 -0.4741
  140SOL    HW2  420   1.459   1.915   1.925 -0.9560  1.0844 -2.0126
  141SOL     OW  421   1.908   2.140   0.666  0.5288 -0.0411 -0.1870
  141SOL    HW1  422   1.986   2.082   0.690 -2.1338 -1.0428  1.3114
  141SOL    HW2  423   1.939   2.222   0.616 -1.1520 -2.4800  0.8836
  142SOL     OW  424   0.346   0.866   0.089 -0.1677 -0.1641  0.3828
  142SOL    HW1  425   0.443   0.838   0.064 -0.5721  1.5563 -1.3583
  142SOL    HW2  426   0.283   0.817   0.028 -0.7437  0.9850 -0.0252
  143SOL     OW  427   0.217   2.154   2.796 -0.1690 -0.3221  0.8640
  143SOL    HW1  428   0.167   2.186   2.713  1.2013  1.2781 -1.8246
  143SOL    HW2  429   0.170   2.084   2.847 -0.1804 -0.3763 -2.3463
  144SOL     OW  430   1.370   3.101   1.405 -0.4299 -0.4250 -0.1193
  144SOL    HW1  431   1.286   0.035   1.443  2.3957  0.4347 -0.2370
  144SOL    HW2  432   1.372   0.013   1.303 -3.2226 -1.7592 -3.3608
  145SOL     OW  433   2.329   1.269   0.498  0.3133 -0.0122  0.4137
  145SOL    HW1  434   2.334   1.275   0.395  0.0455  0.7370 -0.6099
  145SOL    HW2  435   2.337   1.358   0.541 -0.5368 -2.4057 -2.1570
  146SOL     OW  436   2.512   2.330   0.071 -0.0936  0.2708 -0.3947
  146SOL    HW1  437   2.599   2.364   0.026 -1.6227  1.8242  2.3711
  146SOL    HW2  438   2.430   2.390   0.059  0.6013  0.4187 -1.5709
  147SOL     OW  439   1.953   0.043   1.408 -0.4645 -0.2244  0.6260
  147SOL    HW1  440   2.039   0.044   1.343  1.5160  0.9170 -2.1703
  147SOL    HW2  441   1.888   3.076   1.374  1.0092 -0.6361 -2.2508
  148SOL     OW  442   1.442   2.997   2.269 -0.4533 -0.0514  0.2371
  148SOL    HW1  443   1.474   2.951   2.356 -0.1222 -0.8456  1.3424
  148SOL    HW2  444   1.379   3.076   2.294 -1.3064  3.0845  0.4507
  149SOL     OW  445   1.242   0.426   2.287  0.1093  0.1563 -0.3736
  149SOL    HW1  446   1.340   0.395   2.297 -0.1022 -0.1467  2.3086
  149SOL    HW2  447   1.216   0.508   2.345 -0.2393 -0.5868  1.5211
  150SOL     OW  448   0.686   2.564   0.567 -0.1464 -0.0818 -0.9100
  150SOL    HW1  449   0.674   2.667   0.571  0.5371  1.6580  0.8202
  150SOL    HW2  450   0.743   2.547   0.481 -1.6352  0.7811 -0.4017
  151SOL     OW  451   0.137   1.529   0.198 -0.0147 -0.1531  0.1544
  151SOL    HW1  452   0.051   1.571   0.217 -0.5187 -1.6048  0.0171
  151SOL    HW2  453   0.168   1.558   0.107 -0.7597  0.8220  1.2458
  152SOL     OW  454   2.979   0.031   0.627  0.3415 -0.0905  0.0148
  152SOL    HW1  455   2.947   0.093   0.704  1.3696  2.5312 -1.5987
  152SOL    HW2  456   2.988   0.084   0.542  1.7658 -0.4614  0.5553
  153SOL     OW  457   2.278   3.055   0.759 -0.0436  0.2720  0.0874
  153SOL    HW1  458   2.186   3.032   0.793  1.1975  0.0638 -1.6563
  153SOL    HW2  459   2.297   3.039   0.662  0.7062  3.2482 -2.2827
  154SOL     OW  460   1.146   0.384   1.587  0.1524  0.4129 -0.0880
  154SOL    HW1  461   1.120   0.387   1.685 -0.8999 -2.0467 -0.2915
  154SOL    HW2  462   1.236   0.425   1.575 -2.0198 -0.5618  1.6252
  155SOL     OW  463   2.576   1.306   1.032 -0.0724 -0.2001 -0.2287
  155SOL    HW1  464   2.652   1.251   1.062 -0.8407  1.8275 -0.3840
  155SOL    HW2  465   2.562   1.381   1.101  2.8085  2.8835  1.7795
  156SOL     OW  466   2.606   2.072   0.003 -0.4549 -0.0761  0.2727
  156SOL    HW1  467   2.519   2.020   3.080 -0.1587  1.5843  0.7132
  156SOL    HW2  468   2.580   2.164   0.029  0.9959 -0.7066  1.5490
  157SOL     OW  469   1.282   3.057   0.389  0.5479  0.1683  0.1007
  157SOL    HW1  470   1.290   2.967   0.339 -2.3835 -2.0073 -4.3908
  157SOL    HW2  471   1.377   3.092   0.405  1.0845 -0.0796  0.2272
  158SOL     OW  472   2.371   0.445   2.520 -0.1392  0.2755 -0.2313
  158SOL    HW1  473   2.460   0.458   2.470  0.7850 -1.8843 -2.0731
  158SOL    HW2  474   2.326   0.361   2.486  0.4592  0.2702  0.2285
  159SOL     OW  475   0.524   2.890   0.222  1.0743  0.1715  0.0874
  159SOL    HW1  476   0.568   2.799   0.234 -1.9281 -0.2955  1.1699
  159SOL    HW2  477   0.446   2.883   0.162  1.4826 -1.6978  2.2434
  160SOL     OW  478   1.133   1.961   0.072  0.0994  0.2621 -0.0328
  160SOL    HW1  479   1.075   2.037   0.036 -2.8730 -0.4166  0.9523
  160SOL    HW2  480   1.157   1.892   0.003  0.3696 -0.8805  1.4974
  161SOL     OW  481   2.821   1.907   2.326 -0.5166 -0.5805  0.1639
  161SOL    HW1  482   2.886   1.971   2.371 -1.3517  2.9040 -3.6115
  161SOL    HW2  483   2.724   1.938   2.345 -3.0649  1.1669  1.9925
  162SOL     OW  484   0.050   2.516   1.314  0.0853  0.3857  0.3104
  162SOL    HW1  485   0.126   2.526   1.379 -3.9110  1.6843 -0.0261
  162SOL    HW2  486   0.057   2.585   1.242 -0.1800 -0.8814 -0.3598
  163SOL     OW  487   2.393   0.371   2.785 -0.2369  0.1230 -0.5284
  163SOL    HW1  488   2.300   0.365   2.819  1.1017  2.3163  1.6925
  163SOL    HW2  489   2.397   0.406   2.693 -1.0576 -3.9970  3.9799
  164SOL     OW  490   2.872   1.466   0.814 -0.0182  0.5114 -0.6147
  164SOL    HW1  491   2.793   1.486   0.755  2.4527  1.2062 -1.1893
  164SOL    HW2  492   2.955   1.453   0.755 -1.1113 -0.6788  0.7780
  165SOL     OW  493   2.843   3.078   1.790 -0.3853 -0.3431  0.6982
  165SOL    HW1  494   2.888   2.995   1.761 -1.3895  0.0374 -0.8934
  165SOL    HW2  495   2.901   0.046   1.834  0.1918  0.6082 -1.2582
  166SOL     OW  496   2.104   0.762   0.759 -0.0839  0.2374  0.0183
  166SOL    HW1  497   2.010   0.734   0.790  0.3126 -3.4326  0.0610
  166SOL    HW2  498   2.121   0.719   0.667 -1.1547 -3.0729 -2.9796
  167SOL     OW  499   0.398   0.357   0.377 -0.3885 -0.4467 -0.4805
  167SOL    HW1  500   0.336   0.439   0.378  0.4122 -0.1732  0.8212
  167SOL    HW2  501   0.434   0.341   0.474  0.1226  0.7453  2.6484
  168SOL     OW  502   1.869   2.805   2.269  0.0839  0.0103  0.5468
  168SOL    HW1  503   1.846   2.718   2.316 -2.0361 -1.2295  0.3753
  168SOL    HW2  504   1.889   2.879   2.339 -0.7029 -1.4555  2.9021
  169SOL     OW  505   1.088   0.966   0.774  0.4190 -0.1720 -0.4912
  169SOL    HW1  506   1.016   0.961   0.705  4.2465 -0.6227  1.0181
  169SOL    HW2  507   1.052   1.028   0.842  0.8981  2.6638 -1.8794
  170SOL     OW  508   3.002   0.293   1.277  0.2017  0.1350 -0.3543
  170SOL    HW1  509   2.971   0.228   1.352 -2.2107 -2.2819  1.4189
  170SOL    HW2  510   3.062   0.369   1.316  1.6091  2.9099  1.3538
  171SOL     OW  511   1.084   2.860   1.812 -0.2137  0.1857 -0.2564
  171SOL    HW1  512   1.091   2.824   1.717 -1.2492  3.3441 -0.1744
  171SOL    HW2  513   1.077   2.963   1.806  0.3269 -1.5792 -0.7281
  172SOL     OW  514   0.293   2.316   1.757  0.1305 -0.4002  0.2673
  172SOL    HW1  515   0.279   2.218   1.740  0.9986  0.9641 -1.0101
  172SOL    HW2  516   0.378   2.352   1.709  4.5088  1.0386 -2.3463
  173SOL     OW  517   1.212   0.740   2.797  0.3643  0.1159  0.3141
  173SOL    HW1  518   1.211   0.786   2.705 -2.5707 -0.0254  1.3697
  173SOL    HW2  519   1.304   0.699   2.825  0.3344 -1.6685  3.7884
  174SOL     OW  520   1.778   0.068   2.643  0.4876 -0.4758 -0.3022
  174SOL    HW1  521   1.679   0.105   2.633 -4.5535  3.2716 -0.5427
  174SOL    HW2  522   1.846   0.147   2.644  0.6939  1.3476 -3.3254
  175SOL     OW  523   1.797   2.830   0.173 -0.1120  0.1401  0.1858
  175SOL    HW1  524   1.743   2.760   0.225 -0.0285  0.2584 -0.6125
  175SOL    HW2  525   1.739   2.845   0.093  0.6780  2.0570  3.4011
  176SOL     OW  526   1.761   0.396   2.858  0.2824  0.4364  0.1689
  176SOL    HW1  527   1.836   0.443   2.904 -1.4789 -0.0878  0.1764
  176SOL    HW2  528   1.729   0.444   2.776 -1.4656  1.3149  2.0533
  177SOL     OW  529   1.037   1.450   0.570  0.4139  0.3412 -0.3580
  177SOL    HW1  530   1.097   1.456   0.650 -0.5905 -1.1811 -0.6693
  177SOL    HW2  531   0.950   1.507   0.575  1.2191  1.5984 -3.0546
  178SOL     OW  532   2.863   2.341   2.334  0.2863  0.0395  0.1107
  178SOL    HW1  533   2.864   2.424   2.277 -2.3906 -1.5338  2.0379
  178SOL    HW2  534   2.956   2.312   2.358  2.7493  0.0226 -2.6286
  179SOL     OW  535   0.395   2.594   2.523  0.1964 -0.5304 -0.1141
  179SOL    HW1  536   0.432   2.622   2.433 -0.7839 -0.6362  0.0120
  179SOL    HW2  537   0.472   2.595   2.599  0.6239 -0.5284  1.9008
  180SOL     OW  538   1.829   1.891   1.039 -0.4243 -0.2028 -0.8130
  180SOL    HW1  539   1.813   1.868   1.132  1.5003  0.9798 -2.0062
  180SOL    HW2  540   1.754   1.845   0.983  0.3737  0.2372 -1.7913
  181SOL     OW  541   1.906   1.074   2.356  0.3608  0.4904  0.2685
  181SOL    HW1  542   1.999   1.098   2.325  2.1133 -0.9063 -0.2027
  181SOL    HW2  543   1.898   1.063   2.459  1.4353  1.0354 -0.4636
  182SOL     OW  544   2.701   2.785   2.459 -0.2152 -0.0603 -0.0589
  182SOL    HW1  545   2.683   2.717   2.384 -0.1562  0.4495  0.1602
  182SOL    HW2  546   2.796   2.823   2.452 -0.8579  0.2772  2.8517
  183SOL     OW  547   1.473   0.853   2.419  0.3433 -0.2424 -0.0405
  183SOL    HW1  548   1.542   0.885   2.351 -0.9322  0.6075 -0.9505
  183SOL    HW2  549   1.512   0.784   2.479 -0.4558  2.5812  2.7051
  184SOL     OW  550   0.706   0.632   1.679 -0.0426 -0.8305 -0.2310
  184SOL    HW1  551   0.694   0.611   1.776  2.0351  0.0157  0.8190
  184SOL    HW2  552   0.778   0.704   1.668  3.2084 -0.3258  0.2640
  185SOL     OW  553   1.915   1.047   0.670  0.0403 -0.2661  0.0696
  185SOL    HW1  554   1.864   1.133   0.682  0.1168 -3.2926  0.6743
  185SOL    HW2  555   2.017   1.068   0.676  0.6993  0.0522 -0.4505
  186SOL     OW  556   0.102   1.888   2.901  0.1945  0.1184  0.6320
  186SOL    HW1  557   0.191   1.841   2.900  2.3344 -0.6099 -0.0507
  186SOL    HW2  558   0.062   1.872   2.809  0.1599  2.8241  1.6499
  187SOL     OW  559   2.572   1.401   0.169 -0.4464  0.1337  0.0778
  187SOL    HW1  560   2.599   1.493   0.202 -0.8082  3.5203 -0.1835
  187SOL    HW2  561   2.641   1.333   0.200 -0.2995 -0.7756  1.9900
  188SOL     OW  562   0.243   1.876   0.833 -0.2757  0.0672  0.4903
  188SOL    HW1  563   0.252   1.803   0.760 -0.8858 -1.2201  0.3261
  188SOL    HW2  564   0.327   1.930   0.842 -1.6029 -1.6961 -2.3567
  189SOL     OW  565   2.505   0.606   0.072 -0.0161  0.2085 -0.1089
  189SOL    HW1  566   2.444   0.565   0.141  0.0165 -0.5827  0.4306
  189SOL    HW2  567   2.601   0.578   0.089 -1.2534  0.4310  1.9660
  190SOL     OW  568   1.167   1.491   2.108  0.2843 -0.3720  0.5038
  190SOL    HW1  569   1.158   1.593   2.128  0.6499  2.2026  0.6024
  190SOL    HW2  570   1.091   1.435   2.151 -0.5671 -1.1231  0.1766
  191SOL     OW  571   2.904   0.076   1.462 -0.3066  0.3437  0.5303
  191SOL    HW1  572   2.809   0.110   1.459  3.9514 -0.1539 -0.4423
  191SOL    HW2  573   2.958   0.125   1.536  0.5217  1.5587  1.1384
  192SOL     OW  574   1.921   1.559   1.465  0.0358  0.4535  0.2833
  192SOL    HW1  575   1.912   1.465   1.422  0.2807 -1.4406 -1.1609
  192SOL    HW2  576   1.862   1.569   1.548 -0.4659  2.0500 -1.2204
  193SOL     OW  577   1.215   0.630   0.623 -0.1949  0.2081  0.1306
  193SOL    HW1  578   1.122   0.626   0.577  1.3589 -0.8646 -0.7680
  193SOL    HW2  579   1.214   0.686   0.708  1.8760  0.9201  0.8995
  194SOL     OW  580   1.163   2.839   1.222 -0.1093  0.0237 -0.0424
  194SOL    HW1  581   1.171   2.817   1.125 -0.0188 -2.3470  0.3271
  194SOL    HW2  582   1.069   2.838   1.256  2.1722 -3.1025 -0.9831
  195SOL     OW  583   2.428   0.480   0.301 -0.4426  0.0549 -0.8062
  195SOL    HW1  584   2.474   0.392   0.285 -1.1066 -0.3620  3.5112
  195SOL    HW2  585   2.397   0.496   0.396  0.9128 -1.8288 -0.3990
  196SOL     OW  586   0.534   2.347   1.646 -0.2740  0.1511 -0.6833
  196SOL    HW1  587   0.579   2.253   1.655  2.8324 -3.4768 -1.5921
  196SOL    HW2  588   0.603   2.420   1.624 -0.1749 -3.9567 -2.3419
  197SOL     OW  589   0.471   2.397   0.505 -0.0590  0.0118 -0.1877
  197SOL    HW1  590   0.556   2.457   0.517 -0.1185  0.6385 -1.7247
  197SOL    HW2  591   0.384   2.449   0.519 -1.9304  0.3449  1.3531
  198SOL     OW  592   0.656   0.986   0.718 -0.6185 -0.2503  0.3836
  198SOL    HW1  593   0.636   0.970   0.814  0.4276  1.2162 -2.7612
  198SOL    HW2  594   0.696   1.074   0.705  2.4867 -3.4202  0.1726
  199SOL     OW  595   0.040   0.017   1.347  0.2066  0.1157  0.3687
  199SOL    HW1  596   3.043   0.029   1.370 -1.0352  3.3552 -0.2405
  199SOL    HW2  597   0.061   3.022   1.326  1.6095  1.3345  0.5650
  200SOL     OW  598   2.328   1.681   2.781 -0.6276 -0.6306 -0.3847
  200SOL    HW1  599   2.432   1.672   2.777 -0.0966  1.4329  0.7324
  200SOL    HW2  600   2.292   1.733   2.697  0.8787  1.2622 -2.7965
  201SOL     OW  601   2.792   2.301   1.297  0.0066 -0.4402  0.7351
  201SOL    HW1  602   2.884   2.312   1.332  1.9894  0.2802  0.8952
  201SOL    HW2  603   2.752   2.205   1.300  0.7284 -1.5819 -0.9113
  202SOL     OW  604   2.770   0.323   0.342 -0.2251 -0.4131  0.2081
  202SOL    HW1  605   2.770   0.373   0.250  1.8016 -0.1476 -1.3698
  202SOL    HW2  606   2.851   0.259   0.356 -0.7212 -1.6009 -1.1282
  203SOL     OW  607   1.245   2.284   2.410 -0.0255  0.2087  0.0165
  203SOL    HW1  608   1.149   2.285   2.374 -1.0150 -2.5970 -0.7866
  203SOL    HW2  609   1.270   2.193   2.442 -2.5047 -0.6409  1.7566
  204SOL     OW  610   1.086   1.723   1.582 -0.3079 -0.6885 -0.1847
  204SOL    HW1  611   0.992   1.726   1.538  1.5811 -1.4538  1.5805
  204SOL    HW2  612   1.086   1.737   1.681  0.4814 -0.4085 -1.0424
  205SOL     OW  613   0.990   2.074   1.726 -0.0907 -0.2324  0.4650
  205SOL    HW1  614   1.063   2.076   1.655 -1.3954  1.0785  0.4583
  205SOL    HW2  615   0.951   1.985   1.745  3.1325  1.9944  0.3712
  206SOL     OW  616   0.162   0.553   2.605 -0.1290 -0.1075  0.1396
  206SOL    HW1  617   0.227   0.623   2.579  1.5211  0.7264 -1.7739
  206SOL    HW2  618   0.080   0.587   2.653 -0.8209  0.5944  2.8343
  207SOL     OW  619   1.622   0.010   2.080  0.4261 -0.4092  0.0158
  207SOL    HW1  620   1.592   3.081   1.991  0.2511 -3.1973  1.3608
  207SOL    HW2  621   1.560   3.077   2.156  1.9739  0.6645 -0.5674
  208SOL     OW  622   0.788   2.433   1.941  0.2743 -0.2593 -0.3152
  208SOL    HW1  623   0.742   2.424   2.035  2.1834  0.2996 -0.3549
  208SOL    HW2  624   0.808   2.535   1.925 -1.6321 -0.0490  1.5033
  209SOL     OW  625   1.904   1.038   3.012 -0.3879  0.2406 -0.3806
  209SOL    HW1  626   1.957   1.011   3.099  0.4695  0.9009  4.4664
  209SOL    HW2  627   1.824   1.092   3.034  2.0423 -2.4589 -3.3940
  210SOL     OW  628   2.996   0.432   1.002 -0.0822 -0.3815  0.1405
  210SOL    HW1  629   2.916   0.426   0.943  2.9050 -0.0585  1.9027
  210SOL    HW2  630   2.975   0.401   1.095  1.0797  1.0294 -2.6158
  211SOL     OW  631   0.888   0.876   1.269 -0.1804  0.0287  0.1905
  211SOL    HW1  632   0.867   0.780   1.238 -1.3939 -1.7913 -0.3475
  211SOL    HW2  633   0.949   0.868   1.349 -0.8249 -0.8028 -0.8717
  212SOL     OW  634   1.060   2.062   1.014 -0.5028  0.0114  0.1200
  212SOL    HW1  635   0.974   2.041   1.064 -1.5283  0.6193 -1.4404
  212SOL    HW2  636   1.032   2.113   0.929 -3.3820 -0.8745 -2.4222
  213SOL     OW  637   2.133   0.333   1.750  0.6926 -0.1448  0.0447
  213SOL    HW1  638   2.041   0.318   1.796 -0.0305 -0.6263  0.2827
  213SOL    HW2  639   2.206   0.281   1.790 -1.9619 -1.5257  0.0746
  214SOL     OW  640   1.465   2.292   2.671  0.5028  0.2047  0.1026
  214SOL    HW1  641   1.431   2.221   2.607  0.5969  1.7796  2.6530
  214SOL    HW2  642   1.559   2.322   2.644 -0.2656  0.8968 -2.8955
  215SOL     OW  643   2.937   1.735   1.419  0.5603 -0.6112  0.2646
  215SOL    HW1  644   2.927   1.836   1.440  0.4028 -0.1230 -1.5933
  215SOL    HW2  645   2.864   1.680   1.466 -0.4374  0.5758  1.1645
  216SOL     OW  646   0.585   0.125   2.285  0.1146  0.3384  0.1320
  216SOL    HW1  647   0.563   0.120   2.182 -0.4799  1.0219  0.8890
  216SOL    HW2  648   0.545   0.052   2.341  1.9807  3.6979  1.2419
  217SOL     OW  649   2.761   0.209   3.003 -0.1993 -0.0870  0.4697
  217SOL    HW1  650   2.834   0.252   2.946 -2.2505 -1.3058 -1.7387
  217SOL    HW2  651   2.804   0.129   3.050  0.6360  0.5172  1.3305
  218SOL     OW  652   1.632   1.902   2.413 -0.0335  0.1275  0.3745
  218SOL    HW1  653   1.661   1.816   2.453  0.3971  2.2285 -2.3885
  218SOL    HW2  654   1.589   1.887   2.323 -0.5929 -2.3214 -1.0631
  219SOL     OW  655   1.787   0.943   0.329  0.4087  0.2335 -0.2516
  219SOL    HW1  656   1.751   1.028   0.287  0.3908  2.6059 -3.4577
  219SOL    HW2  657   1.712   0.895   0.376  2.2445 -1.0822 -0.2468
  220SOL     OW  658   1.327   2.221   1.041  0.2300 -0.1742 -0.3236
  220SOL    HW1  659   1.231   2.198   1.062  0.3577 -1.7648  1.8442
  220SOL    HW2  660   1.345   2.206   0.945 -0.9566 -0.1545  1.9075
  221SOL     OW  661   0.186   0.707   3.032 -0.2409  0.5066  0.1985
  221SOL    HW1  662   0.124   0.641   3.081  1.6970 -0.6871 -0.2962
  221SOL    HW2  663   0.131   0.787   2.996 -0.4517  0.5717 -0.5609
  222SOL     OW  664   1.149   2.758   1.576  0.3080  0.0156  0.3591
  222SOL    HW1  665   1.132   2.656   1.571 -2.4205 -0.8569  0.6298
  222SOL    HW2  666   1.234   2.789   1.527 -0.8606 -0.0775  1.3749
  223SOL     OW  667   1.452   0.478   2.693  0.0080 -0.2645  0.1776
  223SOL    HW1  668   1.527   0.502   2.634 -1.6719 -0.3116  0.2033
  223SOL    HW2  669   1.452   0.531   2.782  0.3025 -0.2329 -0.1899
  224SOL     OW  670   2.838   0.908   1.095  0.6894 -0.2611  0.3901
  224SOL    HW1  671   2.919   0.846   1.085 -1.0276 -0.4540  0.7591
  224SOL    HW2  672   2.774   0.881   1.021 -0.2581 -1.8227 -0.0853
  225SOL     OW  673   0.848   1.284   1.733 -0.2585  0.0775  0.2683
  225SOL    HW1  674   0.861   1.290   1.631  0.9229  0.0018 -0.6510
  225SOL    HW2  675   0.783   1.209   1.757  1.2372  1.8562 -1.1195
  226SOL     OW  676   1.575   2.964   3.097 -0.4549  0.2076  0.0795
  226SOL    HW1  677   1.528   3.028   3.036  2.3222 -1.6138  0.6824
  226SOL    HW2  678   1.595   3.007   0.090  0.6786  0.2627  0.2130
  227SOL     OW  679   0.615   1.491   1.284  0.1417  0.5365  0.3010
  227SOL    HW1  680   0.532   1.487   1.340  0.0582  0.4636 -0.7183
  227SOL    HW2  681   0.637   1.587   1.256  3.6994 -0.4572 -0.1168
  228SOL     OW  682   0.241   2.578   1.488 -0.5810  0.2149 -0.1124
  228SOL    HW1  683   0.329   2.623   1.501  0.6990  1.9573  0.8283
  228SOL    HW2  684   0.210   2.567   1.582  0.3100 -0.5658  2.4234
  229SOL     OW  685   2.383   1.095   0.043 -0.0850  0.1987  0.3091
  229SOL    HW1  686   2.337   1.062   0.129  1.0509 -0.4174 -2.3492
  229SOL    HW2  687   2.479   1.124   0.063 -0.3099  0.5038 -1.3432
  230SOL     OW  688   0.757   1.151   2.066 -0.9197  0.0566 -0.5864
  230SOL    HW1  689   0.785   1.119   1.971  2.5396 -0.3940 -0.2405
  230SOL    HW2  690   0.828   1.120   2.136  2.8308 -1.7965 -0.1837
  231SOL     OW  691   1.403   2.126   1.653  0.2487  0.8379  0.0183
  231SOL    HW1  692   1.493   2.167   1.630 -0.7550  0.5021  0.4090
  231SOL    HW2  693   1.405   2.100   1.750 -1.8430 -0.2594  2.0226
  232SOL     OW  694   1.999   2.388   0.624  0.1047 -0.0762  0.1655
  232SOL    HW1  695   1.958   2.425   0.713 -0.8387 -1.1516  2.8733
  232SOL    HW2  696   1.960   2.435   0.540 -1.9917  1.9124 -0.9774
  233SOL     OW  697   0.861   2.564   0.012 -0.1384 -0.8972  0.1466
  233SOL    HW1  698   0.934   2.576   0.082 -1.3324 -1.4336 -0.4671
  233SOL    HW2  699   0.876   2.604   3.024 -0.2262  0.3466 -1.1946
  234SOL     OW  700   1.110   0.187   2.516 -0.7466  0.2448  0.6609
  234SOL    HW1  701   1.070   0.273   2.480 -1.0739  6.1792  1.0323
  234SOL    HW2  702   1.034   0.122   2.531 -2.5770  2.1484 -1.0718
  235SOL     OW  703   2.947   2.361   0.110  0.5086  0.4223  0.1222
  235SOL    HW1  704   2.938   2.394   0.207  1.2403 -0.7822  1.4586
  235SOL    HW2  705   2.987   2.265   0.122  1.5056 -3.3114  0.9125
  236SOL     OW  706   2.072   2.281   2.462 -0.0597 -0.1461  0.8418
  236SOL    HW1  707   1.990   2.240   2.510  0.5243 -1.2400  1.9586
  236SOL    HW2  708   2.147   2.210   2.450  0.8571 -1.6566  1.9567
  237SOL     OW  709   1.902   1.311   1.304 -0.0631 -0.1013 -0.0607
  237SOL    HW1  710   1.927   1.248   1.375 -1.5936 -1.7870 -1.2275
  237SOL    HW2  711   1.889   1.260   1.215 -0.6431  1.3267 -3.3273
  238SOL     OW  712   2.078   0.257   2.207  0.1694  0.3859  0.3464
  238SOL    HW1  713   2.084   0.360   2.184  0.9851  1.8373 -0.0544
  238SOL    HW2  714   1.986   0.212   2.192  2.6543  0.3101  1.2193
  239SOL     OW  715   0.562   1.680   1.597  0.4978  0.4840 -0.0605
  239SOL    HW1  716   0.552   1.611   1.670  1.2036  2.8572 -0.9976
  239SOL    HW2  717   0.658   1.681   1.568 -2.2186  0.3395 -1.0367
  240SOL     OW  718   0.007   1.964   0.648  0.2431 -0.6753  0.5800
  240SOL    HW1  719   3.052   2.020   0.712 -1.3203 -0.6069  3.5165
  240SOL    HW2  720   0.100   1.955   0.688  0.9004  2.5526 -0.4408
  241SOL     OW  721   1.262   2.186   0.446 -0.1857  0.2522 -0.1161
  241SOL    HW1  722   1.244   2.114   0.517  1.9191 -0.1031  2.3363
  241SOL    HW2  723   1.361   2.204   0.443 -0.9665 -0.2537  0.6731
  242SOL     OW  724   1.614   1.278   0.420 -0.1218 -0.3691  0.1799
  242SOL    HW1  725   1.671   1.252   0.342  1.3009 -1.1667  1.3620
  242SOL    HW2  726   1.537   1.214   0.434  0.7303  0.7570 -1.2335
  243SOL     OW  727   0.836   3.011   2.067 -0.3807 -0.1498  0.0168
  243SOL    HW1  728   0.924   3.034   2.116  0.3667 -0.2951  0.9151
  243SOL    HW2  729   0.838   3.018   1.966  1.3241 -0.1905  2.9442
  244SOL     OW  730   1.777   2.984   2.841 -0.4590 -0.7033  0.3358
  244SOL    HW1  731   1.764   3.052   2.770 -1.5253 -2.5166  0.8767
  244SOL    HW2  732   1.697   2.967   2.896 -1.1596  1.8451 -0.2279
  245SOL     OW  733   1.420   0.028   2.940  0.1524  0.1665  0.8048
  245SOL    HW1  734   1.484   0.102   2.960  2.8500 -0.4174  0.5679
  245SOL    HW2  735   1.371   0.041   2.853  1.5397  0.3889  1.4248
  246SOL     OW  736   0.878   0.824   2.459  0.1273  0.0101 -0.4395
  246SOL    HW1  737   0.840   0.761   2.526 -0.0211 -3.0704  0.2962
  246SOL    HW2  738   0.876   0.919   2.497 -0.9520 -1.8862 -1.6020
  247SOL     OW  739   0.278   0.436   1.798  0.2761  0.1943  0.0198
  247SOL    HW1  740   0.334   0.460   1.877 -0.4898 -2.2674 -0.8837
  247SOL    HW2  741   0.190   0.489   1.783 -2.3540 -1.4554 -0.5868
  248SOL     OW  742   0.756   0.843   2.054  0.3011  0.6364  0.5700
  248SOL    HW1  743   0.844   0.839   2.109  4.2068 -1.1688  1.3353
  248SOL    HW2  744   0.781   0.900   1.972 -1.1750  0.3329 -1.1447
  249SOL     OW  745   2.193   0.434   0.127 -0.1300 -0.2873 -0.3037
  249SOL    HW1  746   2.204   0.338   0.090 -0.2543 -1.7303  0.1779
  249SOL    HW2  747   2.264   0.460   0.195  0.6200  0.5393 -1.7081
  250SOL     OW  748   0.672   0.194   0.616  0.3907  0.6322 -0.2084
  250SOL    HW1  749   0.736   0.198   0.696  0.0665 -0.9398  0.9172
  250SOL    HW2  750   0.579   0.223   0.638  2.6613  1.6695 -0.9499
  251SOL     OW  751   0.984   0.358   2.327  0.0445 -0.3658  0.1352
  251SOL    HW1  752   1.070   0.376   2.274 -2.3961  0.1284  1.1070
  251SOL    HW2  753   0.915   0.306   2.273  3.5376  1.2068 -0.3279
  252SOL     OW  754   1.417   1.721   1.882  0.1252  0.3884 -0.3849
  252SOL    HW1  755   1.474   1.739   1.798  3.9194 -2.3941 -4.2170
  252SOL    HW2  756   1.410   1.618   1.890 -2.6611 -1.5284 -1.7115
  253SOL     OW  757   1.621   2.526   2.104  0.3422 -0.3333  0.1064
  253SOL    HW1  758   1.614   2.629   2.116  1.9924  2.2406 -1.4727
  253SOL    HW2  759   1.540   2.485   2.151 -1.5473  2.8219  0.0227
  254SOL     OW  760   0.911   2.107   2.194 -0.5275 -0.3775 -0.3687
  254SOL    HW1  761   0.931   2.184   2.254 -0.8115 -1.7968 -4.4808
  254SOL    HW2  762   0.867   2.026   2.246  3.3852 -2.4234  1.0982
  255SOL     OW  763   1.343   0.552   0.395  0.5365  0.3641 -0.7538
  255SOL    HW1  764   1.303   0.573   0.488 -1.1915  4.7011 -1.1955
  255SOL    HW2  765   1.315   0.625   0.331  1.6993 -3.1424  1.6306
  256SOL     OW  766   1.738   1.960   1.680  0.2340 -0.1454 -0.5211
  256SOL    HW1  767   1.808   1.948   1.611 -0.1150  2.3502  0.3579
  256SOL    HW2  768   1.685   2.043   1.664 -2.4368 -1.3771 -1.5718
  257SOL     OW  769   0.290   2.342   2.545  0.3023 -0.3109  0.2798
  257SOL    HW1  770   0.333   2.434   2.536  1.3221  1.7724 -0.8020
  257SOL    HW2  771   0.293   2.312   2.642 -1.9272  2.3421 -0.3561
  258SOL     OW  772   0.839   0.207   2.163 -0.0090 -0.0842 -0.0985
  258SOL    HW1  773   0.929   0.149   2.170  4.9468  0.0770  0.6303
  258SOL    HW2  774   0.759   0.154   2.195 -0.5438  3.0986 -2.0508
  259SOL     OW  775   1.247   1.039   2.174  0.3087  0.1571  0.2609
  259SOL    HW1  776   1.158   1.079   2.141  2.9237  1.7256 -0.4032
  259SOL    HW2  777   1.242   0.935   2.175 -0.2434  0.0773 -1.9009
  260SOL     OW  778   1.597   0.730   0.700 -0.3316  0.2776 -0.0939
  260SOL    HW1  779   1.523   0.699   0.767 -0.7407  0.6730  1.8944
  260SOL    HW2  780   1.687   0.693   0.723 -1.5566  0.1776 -1.6084
  261SOL     OW  781   0.573   0.032   2.900 -0.2296 -0.0817  0.2060
  261SOL    HW1  782   0.643   3.069   2.925  1.9902  0.9189  0.9266
  261SOL    HW2  783   0.489   3.087   2.866  1.0640  0.3218  0.9703
  262SOL     OW  784   2.548   3.061   2.709 -0.4033 -0.4663 -0.4711
  262SOL    HW1  785   2.622   2.995   2.737  1.7133 -2.0278  0.4138
  262SOL    HW2  786   2.545   0.041   2.769  0.2142  0.5991 -2.0202
  263SOL     OW  787   3.065   2.122   0.120 -0.1696  0.1209 -0.0260
  263SOL    HW1  788   3.078   2.062   0.199  1.8929  1.2113  1.0000
  263SOL    HW2  789   3.041   2.084   0.033  0.4445 -0.2504  1.5259
  264SOL     OW  790   0.577   1.134   1.690 -0.6766  0.3814  0.1594
  264SOL    HW1  791   0.540   1.079   1.614 -1.0790  0.6848  1.0829
  264SOL    HW2  792   0.510   1.178   1.747  3.3870 -2.1808 -4.3536
  265SOL     OW  793   0.426   1.216   0.407  0.4547 -0.2962 -0.4847
  265SOL    HW1  794   0.343   1.182   0.349 -0.3168 -0.4852 -0.1445
  265SOL    HW2  795   0.484   1.283   0.358 -0.0292 -1.8783  1.4539
  266SOL     OW  796   1.964   1.433   0.496 -0.0934  0.0880 -0.1172
  266SOL    HW1  797   1.979   1.391   0.405 -0.3927 -0.5188 -1.0432
  266SOL    HW2  798   1.950   1.368   0.574 -0.0317  0.4601 -1.0809
  267SOL     OW  799   0.033   0.532   0.052  0.6392  0.2734  0.0093
  267SOL    HW1  800   0.092   0.448   0.066 -1.1114 -3.2194 -2.0829
  267SOL    HW2  801   3.066   0.516   3.083  0.3184  0.2689  0.2057
  268SOL     OW  802   0.359   3.032   2.770  0.1329 -0.3875 -0.0047
  268SOL    HW1  803   0.287   2.967   2.790  3.3064 -0.2568  0.1897
  268SOL    HW2  804   0.320   0.009   2.722 -0.6526  1.6699  2.0053
  269SOL     OW  805   2.040   0.231   2.640 -0.1271  0.0674 -0.1977
  269SOL    HW1  806   2.077   0.259   2.731 -0.9924  2.3672 -0.1006
  269SOL    HW2  807   2.123   0.230   2.575  1.6255 -0.6246  1.0162
  270SOL     OW  808   0.822   1.107   2.482 -0.5213 -0.3523 -0.1567
  270SOL    HW1  809   0.727   1.088   2.474  3.1721  3.8308  2.1245
  270SOL    HW2  810   0.839   1.188   2.538 -1.0670  0.3221 -0.4687
  271SOL     OW  811   2.636   1.097   0.144 -0.3763 -0.1467 -0.2757
  271SOL    HW1  812   2.606   1.004   0.175  0.4629  0.8660  0.7646
  271SOL    HW2  813   2.730   1.098   0.095  3.7386 -0.1938 -0.4249
  272SOL     OW  814   2.809   1.689   2.489 -0.0058 -0.2618 -0.0064
  272SOL    HW1  815   2.822   1.770   2.423 -0.8601  2.4992 -1.5279
  272SOL    HW2  816   2.714   1.694   2.525  1.9279  1.8243  0.4873
  273SOL     OW  817   2.526   0.564   2.914  0.3115 -0.0647  0.5844
  273SOL    HW1  818   2.480   0.479   2.898  1.9813  1.1222  1.7645
  273SOL    HW2  819   2.518   0.586   3.013 -1.1680 -3.2453 -2.3440
  274SOL     OW  820   0.235   2.852   0.881  0.5208 -0.8492 -0.2568
  274SOL    HW1  821   0.318   2.882   0.824  1.3234  0.4054  0.9006
  274SOL    HW2  822   0.181   2.934   0.916 -1.5060  2.6697  0.5060
  275SOL     OW  823   1.893   1.601   0.808 -0.2066  0.3058  0.4881
  275SOL    HW1  824   1.830   1.600   0.724 -1.0518  1.3197 -3.0047
  275SOL    HW2  825   1.965   1.676   0.813  0.7961  0.0143  2.7981
  276SOL     OW  826   0.199   1.266   2.770  0.6149 -0.0038 -0.0484
  276SOL    HW1  827   0.287   1.219   2.753 -1.6200  0.8747  2.1003
  276SOL    HW2  828   0.147   1.270   2.686  4.7946  0.3907 -0.2648
  277SOL     OW  829   1.700   2.560   1.849  0.2729  0.0426 -0.4096
  277SOL    HW1  830   1.636   2.633   1.819  0.7098  0.0941 -1.1905
  277SOL    HW2  831   1.674   2.520   1.939  2.0724 -0.5666  2.9656
  278SOL     OW  832   1.626   0.345   1.948  0.2306  0.2501  0.0493
  278SOL    HW1  833   1.559   0.307   1.880 -0.3735 -0.8165 -1.2931
  278SOL    HW2  834   1.645   0.445   1.930 -0.7634 -0.7184 -3.7844
  279SOL     OW  835   1.997   1.681   0.311  0.3741 -0.0371 -1.2674
  279SOL    HW1  836   2.034   1.634   0.396  4.4066 -0.4400  3.1391
  279SOL    HW2  837   1.900   1.713   0.319  0.7368 -1.0059  1.1288
  280SOL     OW  838   0.409   1.531   0.882  0.8214  0.0455  0.5340
  280SOL    HW1  839   0.403   1.467   0.804 -2.3278  0.8605  0.1527
  280SOL    HW2  840   0.317   1.559   0.916  0.1465 -0.7495 -1.0804
  281SOL     OW  841   0.228   0.077   2.552 -0.2235  0.0290  0.3483
  281SOL    HW1  842   0.280   0.158   2.583  0.2598 -1.9008  1.1835
  281SOL    HW2  843   0.129   0.091   2.567 -1.0075  2.8076  1.3791
  282SOL     OW  844   0.349   0.862   0.975 -0.0069 -0.0746 -0.1760
  282SOL    HW1  845   0.370   0.893   0.880  1.0121  2.8543 -3.3013
  282SOL    HW2  846   0.250   0.873   1.002 -2.8233  0.1343 -3.3258
  283SOL     OW  847   1.877   2.207   0.304  0.0630 -0.4988  0.1010
  283SOL    HW1  848   1.923   2.178   0.222 -0.1998  1.6128  4.9569
  283SOL    HW2  849   1.790   2.165   0.294  2.9798  0.0148 -1.3328
  284SOL     OW  850   1.579   1.633   0.747  0.0071  0.4030 -0.4040
  284SOL    HW1  851   1.594   1.731   0.780  0.8142  1.3603  0.3773
  284SOL    HW2  852   1.667   1.604   0.707 -0.3830 -2.2157  0.4641
  285SOL     OW  853   3.052   0.054   2.789  0.3535 -0.4530 -0.3404
  285SOL    HW1  854   3.015   0.125   2.849 -0.9412 -2.1961 -0.8658
  285SOL    HW2  855   3.056   3.073   2.849 -1.0923 -0.9918 -0.3780
  286SOL     OW  856   1.562   3.072   1.598  0.3717 -0.0800  0.1613
  286SOL    HW1  857   1.602   2.981   1.583 -3.6765  0.8004  2.8612
  286SOL    HW2  858   1.496   3.088   1.521  1.7927 -0.7799  0.0052
  287SOL     OW  859   0.723   0.985   1.082  0.7968  0.0522 -0.2179
  287SOL    HW1  860   0.773   0.954   1.164  0.5869  1.0815  2.4535
  287SOL    HW2  861   0.627   1.014   1.111  0.6552 -0.0315 -0.0421
  288SOL     OW  862   1.596   0.233   3.000 -0.0237  0.0949  0.5130
  288SOL    HW1  863   1.664   0.272   2.934  1.3132  0.1005 -1.3145
  288SOL    HW2  864   1.609   0.267   3.093  0.3152  0.4467 -0.3928
  289SOL     OW  865   0.137   1.570   2.762 -0.2223 -0.5309  0.2892
  289SOL    HW1  866   0.082   1.590   2.678 -2.0861 -0.1887  0.1862
  289SOL    HW2  867   0.182   1.479   2.754  3.1333 -0.0933  1.7049
  290SOL     OW  868   1.433   2.437   0.855  0.2596  0.7391  0.3668
  290SOL    HW1  869   1.345   2.474   0.894 -1.8310  2.5427 -2.5164
  290SOL    HW2  870   1.415   2.363   0.784  0.0346 -2.6866 -1.0727
  291SOL     OW  871   2.207   2.100   3.027  0.0332  0.6069 -0.3374
  291SOL    HW1  872   2.169   2.103   0.020 -1.0226  2.4092  1.6380
  291SOL    HW2  873   2.271   2.020   3.020 -0.3538  0.5761 -0.7167
  292SOL     OW  874   1.533   0.963   1.838 -0.2994  0.3797  0.4942
  292SOL    HW1  875   1.446   0.994   1.799  4.1810  1.0068 -2.7460
  292SOL    HW2  876   1.569   1.035   1.898 -0.6596 -2.5982 -3.5052
  293SOL     OW  877   2.006   2.734   0.958  0.0266 -0.0774  0.6859
  293SOL    HW1  878   2.018   2.835   0.955 -1.7626  1.6294 -1.7642
  293SOL    HW2  879   2.075   2.689   0.897 -0.7629  0.7820  0.2049
  294SOL     OW  880   0.157   0.420   2.326 -0.1912 -0.1379 -0.3847
  294SOL    HW1  881   0.141   0.426   2.433  0.6921 -0.3571 -0.3902
  294SOL    HW2  882   0.255   0.424   2.307 -1.7169  1.8737  0.7962
  295SOL     OW  883   1.392   1.865   0.393  0.0528 -0.9751 -0.5193
  295SOL    HW1  884   1.306   1.850   0.445  0.1085 -1.2169 -1.0713
  295SOL    HW2  885   1.457   1.793   0.423  0.7351 -0.3780  0.1502
  296SOL     OW  886   2.109   1.805   0.085 -0.1148  0.6494 -0.3535
  296SOL    HW1  887   2.111   1.754   3.096  0.6591  1.3502  0.0068
  296SOL    HW2  888   2.070   1.745   0.161 -1.1450 -1.6477  0.4416
  297SOL     OW  889   2.173   0.701   0.048 -0.5334 -0.1385 -0.2634
  297SOL    HW1  890   2.092   0.759   0.081 -2.2006  1.8928 -0.4123
  297SOL    HW2  891   2.156   0.600   0.062  0.1442  0.7551  4.7760
  298SOL     OW  892   1.017   2.490   2.643  0.3087  0.1431 -0.0928
  298SOL    HW1  893   1.016   2.536   2.550  1.4928  2.0447 -2.2934
  298SOL    HW2  894   1.112   2.461   2.668  2.0536  1.6181 -2.0288
  299SOL     OW  895   1.078   2.925   2.583 -0.2845 -0.3382  0.0398
  299SOL    HW1  896   1.055   2.905   2.485  0.0917  1.0707 -0.4950
  299SOL    HW2  897   0.999   2.970   2.626  1.4190  0.6678 -2.8549
  300SOL     OW  898   2.531   0.151   2.896 -0.0358 -0.3148  0.3216
  300SOL    HW1  899   2.621   0.175   2.928  1.0640  0.9736 -0.8410
  300SOL    HW2  900   2.486   0.231   2.858  1.0122  1.7536 -1.7239
  301SOL     OW  901   1.336   1.512   1.293  0.1320  0.3444  0.3910
  301SOL    HW1  902   1.314   1.440   1.359  0.0166  0.7389 -2.3093
  301SOL    HW2  903   1.432   1.549   1.305  0.3535  0.9457  1.6245
  302SOL     OW  904   2.713   2.383   0.357  0.3597  0.4783 -0.2832
  302SOL    HW1  905   2.809   2.358   0.388  3.0612 -2.2893  0.1213
  302SOL    HW2  906   2.692   2.359   0.259  0.3491  0.2687  0.1524
  303SOL     OW  907   2.898   2.561   2.199 -0.2731 -0.0110 -0.5579
  303SOL    HW1  908   2.961   2.638   2.198 -1.6200  0.3983  0.0399
  303SOL    HW2  909   2.810   2.585   2.155 -0.7679  0.5850 -0.5133
  304SOL     OW  910   0.067   0.613   1.761  0.1924  0.9492 -0.5799
  304SOL    HW1  911   0.009   0.575   1.683 -1.8431  0.9123  0.2294
  304SOL    HW2  912   0.006   0.628   1.842  0.7328  3.0988 -4.2556
  305SOL     OW  913   0.418   1.897   2.081  0.2561 -0.5858 -0.2561
  305SOL    HW1  914   0.510   1.880   2.118 -0.6441  1.3674 -1.4400
  305SOL    HW2  915   0.426   1.968   2.011 -3.1985 -0.8259  4.0268
  306SOL     OW  916   2.791   0.784   1.929 -0.5421  0.2272  0.4125
  306SOL    HW1  917   2.754   0.869   1.978  0.2026  2.1733  0.9961
  306SOL    HW2  918   2.720   0.728   1.884  2.4513  0.1642 -1.8213
  307SOL     OW  919   1.787   1.278   1.681 -0.1197 -0.0840 -0.0631
  307SOL    HW1  920   1.728   1.284   1.598  0.0308 -1.8270 -0.2259
  307SOL    HW2  921   1.874   1.227   1.668  0.3373  3.1262  0.3623
  308SOL     OW  922   2.614   1.523   1.210 -0.7799 -0.3873  0.1992
  308SOL    HW1  923   2.520   1.550   1.236  0.6556 -0.1791 -2.3618
  308SOL    HW2  924   2.645   1.578   1.128 -1.1507  0.0345 -0.0717
  309SOL     OW  925   2.243   1.667   1.568 -0.3423 -0.3046 -0.0170
  309SOL    HW1  926   2.292   1.729   1.632  2.8573  1.8671 -2.4909
  309SOL    HW2  927   2.287   1.575   1.558 -0.2474  2.2827 -0.6032
  310SOL     OW  928   2.818   1.417   2.523 -0.0720  0.0762  0.0300
  310SOL    HW1  929   2.767   1.388   2.442  1.6242  1.6278  0.2192
  310SOL    HW2  930   2.833   1.518   2.524  1.9769 -0.0504 -3.7251
  311SOL     OW  931   2.789   1.958   2.918 -0.7003  0.1612 -0.1006
  311SOL    HW1  932   2.743   1.999   3.000 -0.4073 -2.2455  1.4509
  311SOL    HW2  933   2.797   1.855   2.927  0.2818 -0.6909  1.1385
  312SOL     OW  934   2.374   1.594   1.246  0.7099  0.1399  0.2780
  312SOL    HW1  935   2.312   1.671   1.278  2.3560 -3.0993 -0.3649
  312SOL    HW2  936   2.316   1.536   1.182 -0.9880  0.3846 -1.8551
  313SOL     OW  937   2.419   2.669   0.958  0.0926  0.3967 -0.0095
  313SOL    HW1  938   2.432   2.757   1.009 -1.6595  0.6467  0.9124
  313SOL    HW2  939   2.411   2.591   1.020  3.2448 -1.5703  0.5305
  314SOL     OW  940   0.986   1.637   0.300  0.3665  0.4128  0.1240
  314SOL    HW1  941   1.075   1.671   0.332 -1.0972 -0.8238 -2.4461
  314SOL    HW2  942   0.919   1.614   0.376 -0.1744 -3.4407  1.9059
  315SOL     OW  943   0.722   2.611   2.379 -0.4529 -0.2529 -0.0739
  315SOL    HW1  944   0.802   2.646   2.432 -0.1949  0.5965  1.6280
  315SOL    HW2  945   0.697   2.674   2.305 -0.3365 -0.3404  0.1701
  316SOL     OW  946   0.175   0.701   0.608 -0.2781  0.1158 -0.1433
  316SOL    HW1  947   0.191   0.780   0.545  2.7758 -0.2429 -1.9775
  316SOL    HW2  948   0.098   0.649   0.571 -0.7441 -0.3605 -0.5455
  317SOL     OW  949   0.848   0.408   0.425 -1.1181 -0.7910  0.5243
  317SOL    HW1  950   0.764   0.353   0.411 -3.8453 -0.3731 -1.7581
  317SOL    HW2  951   0.836   0.499   0.375 -0.1135  1.7561 -1.0507
  318SOL     OW  952   2.971   2.316   0.404 -0.4719 -0.3691 -0.4627
  318SOL    HW1  953   3.072   2.344   0.415  1.5240  0.9704 -0.6456
  318SOL    HW2  954   2.966   2.219   0.397  1.0015  1.2813 -0.6352
  319SOL     OW  955   0.382   1.258   2.311  0.2119 -0.1017  0.4252
  319SOL    HW1  956   0.371   1.241   2.414 -0.6212 -3.1036 -0.2200
  319SOL    HW2  957   0.476   1.286   2.292 -0.7910 -0.4470  2.9285
  320SOL     OW  958   0.861   2.710   1.916 -0.8371 -0.1864 -0.4014
  320SOL    HW1  959   0.944   2.749   1.871  1.1765  1.7747 -1.1077
  320SOL    HW2  960   0.775   2.741   1.876  2.5948  1.5321  2.4975
  321SOL     OW  961   1.031   2.620   0.234 -0.0311 -0.6781  0.3369
  321SOL    HW1  962   1.133   2.597   0.221  1.4484  0.0961 -1.2229
  321SOL    HW2  963   1.022   2.726   0.245 -0.1834  0.9595 -2.0860
  322SOL     OW  964   2.715   0.995   2.059 -0.4115  0.0718 -0.7786
  322SOL    HW1  965   2.654   1.079   2.074  1.9684  0.1803  2.2337
  322SOL    HW2  966   2.798   1.005   2.119 -0.4105 -0.9361  0.3244
  323SOL     OW  967   2.461   0.764   0.497 -0.4875 -0.0047 -0.2905
  323SOL    HW1  968   2.360   0.753   0.489  0.7553  0.6218  2.8608
  323SOL    HW2  969   2.514   0.762   0.411 -2.0934  1.3532  0.1713
  324SOL     OW  970   0.240   2.620   0.062 -0.3040  0.0384  0.3322
  324SOL    HW1  971   0.301   2.568   0.002 -1.5886  0.1432  1.9654
  324SOL    HW2  972   0.212   2.553   0.134 -2.1545 -2.0478 -0.8016
  325SOL     OW  973   1.875   0.371   2.490 -0.5740 -0.0591 -0.0602
  325SOL    HW1  974   1.929   0.309   2.549  0.0241 -0.4019 -1.7535
  325SOL    HW2  975   1.833   0.320   2.415  1.8131  1.3952  0.0508
  326SOL     OW  976   2.420   2.751   1.560  0.4646 -0.1567 -0.0947
  326SOL    HW1  977   2.476   2.799   1.628 -1.6293 -3.2911 -2.1881
  326SOL    HW2  978   2.398   2.813   1.481  2.6209  0.6453  0.2478
  327SOL     OW  979   1.968   0.555   2.916 -0.8856  0.8942 -0.5734
  327SOL    HW1  980   1.943   0.592   3.008 -2.6470 -0.7075 -1.7873
  327SOL    HW2  981   1.988   0.626   2.843  1.1378  1.1292 -5.0135
  328SOL     OW  982   2.889   1.143   2.258 -0.2113 -0.0765 -0.1453
  328SOL    HW1  983   2.853   1.233   2.236  0.2083  1.5775 -0.4771
  328SOL    HW2  984   2.860   1.111   2.354 -2.1019  1.3813 -0.4096
  329SOL     OW  985   1.870   0.290   1.827  0.1980  0.2106  0.0186
  329SOL    HW1  986   1.851   0.205   1.772  0.9510 -0.9600 -1.5437
  329SOL    HW2  987   1.793   0.301   1.895  0.3932 -1.7423 -1.8033
  330SOL     OW  988   2.574   1.798   1.624  0.2262  0.5180  0.8634
  330SOL    HW1  989   2.600   1.890   1.592 -0.2580  1.2244 -2.2257
  330SOL    HW2  990   2.637   1.726   1.591 -0.2690  1.8245 -0.8475
  331SOL     OW  991   0.523   1.513   1.804 -0.3937 -0.5087 -0.2024
  331SOL    HW1  992   0.480   1.425   1.792  1.5110  1.4467 -1.2646
  331SOL    HW2  993   0.474   1.571   1.872  2.6582  2.5118  0.4235
  332SOL     OW  994   0.639   0.154   1.266  0.0747 -0.3477 -0.1655
  332SOL    HW1  995   0.567   0.215   1.227 -0.9169 -2.0699 -1.0582
  332SOL    HW2  996   0.728   0.196   1.253 -0.2452 -0.7826 -0.9454
  333SOL     OW  997   2.167   2.900   1.753 -0.0390 -0.1982  0.0448
  333SOL    HW1  998   2.231   2.899   1.833 -0.0356  0.8496  0.8301
  333SOL    HW2  999   2.119   2.814   1.745  0.3644  2.7281  0.9498
  334SOL     OW 1000   0.913   1.461   1.283  0.4888 -0.1076  0.1060
  334SOL    HW1 1001   0.821   1.425   1.301  0.8299  1.0140  0.4025
  334SOL    HW2 1002   0.927   1.501   1.188 -2.5834 -1.3745 -0.4611
  335SOL     OW 1003   0.383   2.493   2.921  0.0032 -0.8288 -0.4274
  335SOL    HW1 1004   0.458   2.496   2.848  1.5305  1.7955 -0.0171
  335SOL    HW2 1005   0.291   2.516   2.889  2.3718  2.2662  0.9612
  336SOL     OW 1006   0.003   2.887   1.786 -0.1123 -0.1427 -0.4026
  336SOL    HW1 1007   0.039   2.976   1.754  1.5591 -0.2366  1.0378
  336SOL    HW2 1008   0.026   2.822   1.714  0.7751 -1.5056  1.4835
  337SOL     OW 1009   2.548   2.043   0.474 -0.0143  0.2521  0.0828
  337SOL    HW1 1010   2.498   2.071   0.556 -0.8247 -0.1647 -0.5015
  337SOL    HW2 1011   2.490   2.072   0.393  0.4039 -0.4158 -1.2683
  338SOL     OW 1012   0.836   2.051   1.461 -0.2245  0.0042 -0.2277
  338SOL    HW1 1013   0.932   2.035   1.494 -1.8231 -1.8421  3.5202
  338SOL    HW2 1014   0.842   2.121   1.385  0.7939  2.3015 -1.3372
  339SOL     OW 1015   0.111   0.580   2.113 -0.1248 -0.0519 -0.0285
  339SOL    HW1 1016   0.023   0.588   2.064  1.3377  2.9928  1.4290
  339SOL    HW2 1017   0.103   0.521   2.199 -0.5871 -2.1779 -1.0162
  340SOL     OW 1018   1.516   2.657   0.995 -0.0000  0.0901  0.1358
  340SOL    HW1 1019   1.492   2.583   0.926  0.6717 -1.6169 -2.8507
  340SOL    HW2 1020   1.536   2.615   1.085 -0.8962 -3.6562 -0.6452
  341SOL     OW 1021   1.587   1.539   1.148 -0.3939 -0.3266 -0.6583
  341SOL    HW1 1022   1.514   1.518   1.080  1.2596  0.5528  2.9793
  341SOL    HW2 1023   1.676   1.504   1.110  1.1831  1.9159  0.2197
  342SOL     OW 1024   0.184   1.243   0.893  0.1618 -0.4638  0.5336
  342SOL    HW1 1025   0.157   1.339   0.864  2.0054 -1.2554 -1.3528
  342SOL    HW2 1026   0.278   1.222   0.855 -0.0925 -1.4286 -0.2241
  343SOL     OW 1027   1.825   0.238   1.230  0.8430  0.1804 -0.1102
  343SOL    HW1 1028   1.737   0.298   1.235 -1.5968 -2.5182  0.1478
  343SOL    HW2 1029   1.860   0.216   1.320 -2.0126  0.7457  2.3760
  344SOL     OW 1030   2.119   2.486   1.162  0.0168 -0.5177 -0.1259
  344SOL    HW1 1031   2.199   2.479   1.226 -4.0232  1.2320 -4.0836
  344SOL    HW2 1032   2.069   2.578   1.177 -3.7235  1.4297 -1.8639
  345SOL     OW 1033   2.800   2.317   2.780  0.0987 -1.2259 -0.4480
  345SOL    HW1 1034   2.783   2.408   2.735  0.0555 -1.2030 -0.7680
  345SOL    HW2 1035   2.767   2.242   2.720 -0.3648 -1.1051  0.0649
  346SOL     OW 1036   0.080   1.487   0.839 -0.6201 -0.0841  0.1351
  346SOL    HW1 1037   0.063   1.570   0.889 -0.5684 -1.3350 -0.7191
  346SOL    HW2 1038   0.028   1.495   0.748 -3.8115 -2.4506 -1.3345
  347SOL     OW 1039   1.784   2.580   0.838  0.2110  0.4670 -0.0650
  347SOL    HW1 1040   1.684   2.583   0.858 -0.9388  1.0125 -0.9603
  347SOL    HW2 1041   1.849   2.631   0.904  0.4806  3.2060  1.0238
  348SOL     OW 1042   1.324   1.490   2.344  0.6963 -0.0740  0.1061
  348SOL    HW1 1043   1.288   1.459   2.251  0.5822 -1.0360 -1.0841
  348SOL    HW2 1044   1.359   1.404   2.395 -3.4952 -0.9894 -0.2978
  349SOL     OW 1045   2.352   1.157   2.312 -0.0644  0.5275 -0.1072
  349SOL    HW1 1046   2.256   1.176   2.290 -1.8126  0.3545 -1.3021
  349SOL    HW2 1047   2.354   1.129   2.411  0.7229  2.0270  1.9737
  350SOL     OW 1048   0.069   2.075   1.421 -0.1962 -0.0601  0.1139
  350SOL    HW1 1049   3.078   2.030   1.422 -1.3479  1.5745  0.2094
  350SOL    HW2 1050   0.102   2.091   1.325 -0.4541  1.5782  1.7085
  351SOL     OW 1051   0.626   0.292   2.599 -0.3474 -0.3201  0.2986
  351SOL    HW1 1052   0.668   0.276   2.696 -2.9759 -0.3551  1.7010
  351SOL    HW2 1053   0.674   0.368   2.551  1.0958 -0.0371  0.5221
  352SOL     OW 1054   0.936   2.810   1.380 -0.1385  0.3892  0.4265
  352SOL    HW1 1055   1.010   2.787   1.447 -3.0257 -0.6784  0.3433
  352SOL    HW2 1056   0.897   2.897   1.414  0.7878  0.0065  0.4404
  353SOL     OW 1057   0.979   1.089   2.266  0.0286  0.0668 -0.1492
  353SOL    HW1 1058   1.000   0.992   2.232 -0.3287 -3.8294  2.2427
  353SOL    HW2 1059   0.929   1.089   2.353  2.4017 -0.5937 -2.9535
  354SOL     OW 1060   1.755   1.277   0.665 -0.3018  0.0036  0.3250
  354SOL    HW1 1061   1.697   1.285   0.747  2.8997 -0.4987 -1.7902
  354SOL    HW2 1062   1.707   1.277   0.574  1.4695 -1.0642  0.3061
  355SOL     OW 1063   2.432   0.391   0.563 -0.5010  0.2592 -0.0468
  355SOL    HW1 1064   2.496   0.460   0.605 -0.0396 -0.9669 -0.3399
  355SOL    HW2 1065   2.474   0.300   0.547  0.5225  2.9161  0.5200
  356SOL     OW 1066   2.840   1.030   2.532 -0.6211 -0.2135 -0.1544
  356SOL    HW1 1067   2.878   1.113   2.579  0.8427  2.1179  0.3148
  356SOL    HW2 1068   2.919   0.966   2.523  0.7375 -1.4144 -2.0003
  357SOL     OW 1069   0.650   2.859   1.841  0.1433 -0.4627  0.0366
  357SOL    HW1 1070   0.724   2.924   1.820 -0.5071  0.1351 -1.2366
  357SOL    HW2 1071   0.562   2.907   1.870 -0.4968  2.1506  1.0051
  358SOL     OW 1072   2.936   1.255   2.695  0.4306  0.0056 -0.0851
  358SOL    HW1 1073   2.892   1.317   2.626  2.0975 -1.4821 -0.0013
  358SOL    HW2 1074   3.030   1.232   2.659  1.1412 -0.6731 -0.9894
  359SOL     OW 1075   2.500   2.675   2.769  0.1396  0.2210 -0.2406
  359SOL    HW1 1076   2.428   2.738   2.735  0.5809 -3.0497  0.1219
  359SOL    HW2 1077   2.477   2.579   2.743 -0.7739 -1.9558  0.3934
  360SOL     OW 1078   1.853   1.233   1.053 -0.1548  0.0818 -0.2623
  360SOL    HW1 1079   1.782   1.227   0.979  0.0972 -2.4210  0.2334
  360SOL    HW2 1080   1.944   1.198   1.027 -0.6714 -1.1399  0.5802
  361SOL     OW 1081   1.952   2.696   1.214  0.1415 -0.0976 -0.3996
  361SOL    HW1 1082   1.970   2.782   1.268  0.6003  0.0991 -0.5159
  361SOL    HW2 1083   1.966   2.710   1.114 -0.4496 -0.5766  3.1700
  362SOL     OW 1084   1.439   1.511   0.929 -0.0035  0.6988 -0.0563
  362SOL    HW1 1085   1.340   1.497   0.909  1.4906  1.2304 -2.1752
  362SOL    HW2 1086   1.494   1.548   0.854 -0.6878 -1.8642  3.3109
  363SOL     OW 1087   2.957   2.031   2.511 -0.6413 -0.1388 -0.6236
  363SOL    HW1 1088   2.869   2.024   2.558 -0.8178 -0.3433 -0.6563
  363SOL    HW2 1089   2.989   2.129   2.513  1.5703  0.1906  0.7062
  364SOL     OW 1090   1.658   0.879   1.475  0.0096  0.2818  0.0179
  364SOL    HW1 1091   1.629   0.861   1.570 -1.1322  0.4165 -3.0427
  364SOL    HW2 1092   1.673   0.795   1.421  2.2113 -1.0066 -3.5815
  365SOL     OW 1093   2.974   2.568   0.964  0.0576 -0.2456  0.1160
  365SOL    HW1 1094   2.935   2.647   0.914  1.4309  0.5382 -1.5699
  365SOL    HW2 1095   2.906   2.539   1.034 -0.3026 -1.2492 -0.6442
  366SOL     OW 1096   2.934   1.302   0.223 -0.2754  0.4570 -0.7295
  366SOL    HW1 1097   2.916   1.389   0.178  0.1224  0.9249  1.9902
  366SOL    HW2 1098   2.857   1.270   0.282 -0.9085  0.1539  0.8891
  367SOL     OW 1099   2.743   2.063   2.657  0.1328  0.0832 -0.5003
  367SOL    HW1 1100   2.655   2.093   2.616  2.0259 -0.1630  0.2853
  367SOL    HW2 1101   2.727   2.009   2.742 -0.3783 -1.3384  2.6087
  368SOL     OW 1102   2.675   2.050   1.294  0.2306  0.5190  0.2219
  368SOL    HW1 1103   2.625   2.077   1.383 -1.3711 -3.9391 -0.0834
  368SOL    HW2 1104   2.619   2.029   1.209 -2.0604  0.9769 -1.7935
  369SOL     OW 1105   0.647   0.284   0.244  0.3156 -0.4149 -0.0576
  369SOL    HW1 1106   0.634   0.196   0.200 -0.5018 -2.8509 -0.6232
  369SOL    HW2 1107   0.563   0.327   0.282 -1.1583  1.2957 -0.6885
  370SOL     OW 1108   0.892   0.523   1.107 -0.2429  0.0807  0.2448
  370SOL    HW1 1109   0.823   0.578   1.155  0.8902 -1.7253 -0.0879
  370SOL    HW2 1110   0.865   0.510   1.005  0.1889  0.1637 -1.9073
  371SOL     OW 1111   2.626   1.703   0.194 -0.1838 -0.2602 -0.2364
  371SOL    HW1 1112   2.697   1.764   0.166  0.3385 -0.3198  1.1724
  371SOL    HW2 1113   2.540   1.758   0.213  0.0785 -1.4362  2.1707
  372SOL     OW 1114   0.205   1.013   2.517 -0.2395 -0.1508 -0.2408
  372SOL    HW1 1115   0.253   0.992   2.607 -1.1221 -0.4926  0.6925
  372SOL    HW2 1116   0.277   1.007   2.445 -1.0775 -1.6475  1.5253
  373SOL     OW 1117   2.680   1.247   0.645 -0.1399  0.0154 -0.4787
  373SOL    HW1 1118   2.620   1.305   0.708  1.1922  0.8694 -0.2472
  373SOL    HW2 1119   2.747   1.198   0.702 -1.1334  0.0335 -1.7111
  374SOL     OW 1120   0.449   2.212   0.034 -0.3320  0.1510 -0.1929
  374SOL    HW1 1121   0.439   2.147   0.110  0.3968  0.7006  0.1099
  374SOL    HW2 1122   0.512   2.289   0.053 -2.3009  3.3852  1.9139
  375SOL     OW 1123   0.963   0.526   3.096  0.3210 -0.4168 -0.0922
  375SOL    HW1 1124   1.006   0.616   3.071 -0.5964 -0.7841 -2.6277
  375SOL    HW2 1125   0.872   0.537   0.033  1.7173  1.3075 -0.0560
  376SOL     OW 1126   3.055   2.850   2.049  0.3152  0.5203  0.0126
  376SOL    HW1 1127   3.082   2.832   1.953 -1.0507  1.0463  2.2294
  376SOL    HW2 1128   3.068   2.948   2.071  0.8606 -1.0263 -1.3288
  377SOL     OW 1129   0.320   1.943   2.487 -0.9594  0.2239 -0.7777
  377SOL    HW1 1130   0.326   1.866   2.417 -1.1966 -0.3899 -1.8241
  377SOL    HW2 1131   0.240   1.927   2.546 -0.8376  0.3025 -0.4018
  378SOL     OW 1132   1.558   0.816   0.429  0.2933  0.0518 -0.4181
  378SOL    HW1 1133   1.461   0.808   0.396  1.6279 -0.7014 -0.1815
  378SOL    HW2 1134   1.558   0.801   0.528 -1.7505 -0.9115 -1.4468
  379SOL     OW 1135   1.275   1.346   3.103  0.2952 -0.1953  0.4806
  379SOL    HW1 1136   1.205   1.368   0.069  0.3850 -0.9473 -0.2964
  379SOL    HW2 1137   1.363   1.400   0.020  1.2389  3.0053 -2.8588
  380SOL     OW 1138   2.385   2.225   2.238 -0.2818 -0.5562  0.1039
  380SOL    HW1 1139   2.433   2.317   2.254  0.5165 -0.1930 -0.9296
  380SOL    HW2 1140   2.342   2.227   2.150  3.7196  0.5132  0.3175
  381SOL     OW 1141   0.219   0.817   1.883 -0.2998 -0.2682  0.6543
  381SOL    HW1 1142   0.189   0.900   1.836 -0.5603 -1.0464  0.2469
  381SOL    HW2 1143   0.166   0.736   1.853  1.5589  0.5581  0.5054
  382SOL     OW 1144   2.602   2.656   3.038  0.2270  0.2665 -0.1891
  382SOL    HW1 1145   2.544   2.670   2.955 -1.3062 -0.7999  1.2599
  382SOL    HW2 1146   2.639   2.564   3.038  0.0711  0.1967  2.2938
  383SOL     OW 1147   2.045   1.608   2.239  0.3081 -0.3141  0.0331
  383SOL    HW1 1148   2.136   1.596   2.197 -0.7142 -0.8385  0.3928
  383SOL    HW2 1149   1.991   1.525   2.229  1.4353  0.4091 -0.1681
  384SOL     OW 1150   0.637   2.181   2.319 -0.5350 -0.1361 -0.8349
  384SOL    HW1 1151   0.655   2.081   2.327  1.6044  0.2405 -1.3968
  384SOL    HW2 1152   0.538   2.202   2.302  0.0030 -2.1758 -0.2701
  385SOL     OW 1153   2.729   2.379   0.795  0.1616  0.3202 -0.0189
  385SOL    HW1 1154   2.827   2.364   0.769 -1.2840  0.9576 -0.0982
  385SOL    HW2 1155   2.693   2.467   0.760 -2.5581 -1.3089  0.4246
  386SOL     OW 1156   1.783   0.743   3.069 -0.0287 -0.5160 -0.8878
  386SOL    HW1 1157   1.731   0.685   0.032 -0.0581  0.5029 -0.5780
  386SOL    HW2 1158   1.846   0.811   0.016  1.3082 -0.6074  2.2105
  387SOL     OW 1159   0.469   1.015   1.483  0.0567 -0.1288  0.0835
  387SOL    HW1 1160   0.370   1.016   1.485  0.9465  1.0211  1.0589
  387SOL    HW2 1161   0.497   0.985   1.388 -2.7714 -2.9421  0.3086
  388SOL     OW 1162   3.090   0.714   1.408 -0.2973  0.2010 -0.1191
  388SOL    HW1 1163   3.015   0.680   1.348 -0.1678 -2.3660 -2.4050
  388SOL    HW2 1164   3.060   0.809   1.440 -2.1513  1.1393  0.9968
  389SOL     OW 1165   1.869   1.043   2.617  0.4812  0.3480  0.4023
  389SOL    HW1 1166   1.795   1.092   2.669 -1.0573  1.7252  1.2998
  389SOL    HW2 1167   1.957   1.040   2.670 -1.0077  0.9450  0.0493
  390SOL     OW 1168   2.141   2.138   0.442 -0.4423 -0.0947  0.0621
  390SOL    HW1 1169   2.110   2.043   0.460  1.1669 -2.0761 -1.3531
  390SOL    HW2 1170   2.068   2.185   0.386 -1.1691 -0.9068  0.6845
  391SOL     OW 1171   1.198   2.517   0.967  0.8341  0.1006 -0.1956
  391SOL    HW1 1172   1.117   2.550   0.917  2.1261  0.6724 -0.0459
  391SOL    HW2 1173   1.181   2.519   1.068 -0.6226  1.7428 -1.5662
  392SOL     OW 1174   2.641   2.872   1.334 -0.4063 -0.2407 -0.1422
  392SOL    HW1 1175   2.670   2.776   1.315  1.6445 -0.7011 -1.9979
  392SOL    HW2 1176   2.540   2.891   1.339  0.6739  0.8848  0.3286
  393SOL     OW 1177   1.722   2.325   2.636 -0.0803  0.1733 -0.6093
  393SOL    HW1 1178   1.789   2.369   2.696  1.5352 -3.8699  0.4954
  393SOL    HW2 1179   1.777   2.251   2.590 -1.0853 -0.6473 -2.7748
  394SOL     OW 1180   0.587   2.573   2.732  0.5642  0.5278 -0.1074
  394SOL    HW1 1181   0.626   2.666   2.749 -0.2473 -0.7434  2.7183
  394SOL    HW2 1182   0.652   2.499   2.755  2.3743  1.8608 -0.9765
  395SOL     OW 1183   0.477   0.981   1.213  0.0133 -0.4894  0.1276
  395SOL    HW1 1184   0.425   0.930   1.142  0.0579  1.2573  1.4440
  395SOL    HW2 1185   0.464   1.081   1.209 -1.4934  2.4007 -0.4100
  396SOL     OW 1186   1.941   1.404   2.667  0.0894  0.2675 -0.0474
  396SOL    HW1 1187   2.010   1.370   2.736  1.1606  0.7300 -0.6866
  396SOL    HW2 1188   1.880   1.337   2.623 -2.5590  2.1180 -1.8355
  397SOL     OW 1189   2.839   0.336   2.429  0.1470  0.9267  0.7744
  397SOL    HW1 1190   2.801   0.239   2.411 -2.8827  0.6035 -0.1613
  397SOL    HW2 1191   2.920   0.339   2.490  2.3224 -0.7923 -1.8842
  398SOL     OW 1192   1.646   0.421   0.591  0.5910 -0.2015 -0.0143
  398SOL    HW1 1193   1.668   0.332   0.549 -1.5024  1.6559  1.2315
  398SOL    HW2 1194   1.575   0.480   0.541 -0.6060 -1.3187 -0.0453
  399SOL     OW 1195   2.259   3.044   1.552 -0.5718  0.1502  0.1308
  399SOL    HW1 1196   2.198   3.027   1.479 -3.7162  0.7758 -0.0898
  399SOL    HW2 1197   2.215   2.996   1.632 -0.0788  1.9271 -0.6317
  400SOL     OW 1198   3.052   2.433   1.928 -0.0815 -0.1244 -0.4907
  400SOL    HW1 1199   3.081   2.347   1.885 -2.7400  2.9239 -0.0031
  400SOL    HW2 1200   0.016   2.502   1.889  0.4934 -0.4469 -2.3375
  401SOL     OW 1201   0.564   0.033   0.162  0.5426  0.2898 -0.2410
  401SOL    HW1 1202   0.561   3.037   0.183 -0.6153  0.4912  1.4539
  401SOL    HW2 1203   0.465   0.059   0.153  0.8248 -1.5559 -0.7030
  402SOL     OW 1204   0.518   2.643   1.554  0.1881 -0.0800 -0.6080
  402SOL    HW1 1205   0.610   2.608   1.523 -2.3737 -0.5515  1.0982
  402SOL    HW2 1206   0.501   2.736   1.510 -3.2308  1.0773 -1.7011
  403SOL     OW 1207   0.127   1.050   1.755 -0.0143 -0.1655  0.5469
  403SOL    HW1 1208   0.026   1.032   1.767 -4.2537 -2.2357 -2.5725
  403SOL    HW2 1209   0.142   1.088   1.662  0.6724  3.5246  0.0566
  404SOL     OW 1210   2.776   2.369   1.914  0.0588 -0.2883  0.3444
  404SOL    HW1 1211   2.863   2.417   1.924 -0.2570 -1.9261  1.4185
  404SOL    HW2 1212   2.735   2.375   1.820 -0.6749  2.5328 -0.7975
  405SOL     OW 1213   2.473   0.162   2.095 -0.6463  0.8066 -0.0722
  405SOL    HW1 1214   2.390   0.107   2.118 -2.9549 -2.1146 -1.9143
  405SOL    HW2 1215   2.559   0.102   2.110  2.0552 -0.0592 -1.2469
  406SOL     OW 1216   1.675   2.645   0.331 -0.0183  0.5557 -0.0205
  406SOL    HW1 1217   1.757   2.592   0.314  0.1528 -1.2105  0.8487
  406SOL    HW2 1218   1.595   2.579   0.342 -1.7783  0.9358  0.6024
  407SOL     OW 1219   1.769   1.590   0.569  0.0175 -0.3080 -0.4620
  407SOL    HW1 1220   1.817   1.515   0.521  1.1054  1.8795  1.2641
  407SOL    HW2 1221   1.755   1.673   0.510  0.1005 -2.5602 -0.3277
  408SOL     OW 1222   0.413   0.543   2.027  0.1447 -0.2192  0.2437
  408SOL    HW1 1223   0.424   0.455   2.069  1.6551 -2.4674  0.9699
  408SOL    HW2 1224   0.337   0.594   2.069 -0.7057  1.7252 -2.9145
  409SOL     OW 1225   2.866   1.511   0.085  0.1168 -0.6131 -0.1701
  409SOL    HW1 1226   2.805   1.542   0.004 -1.9500 -0.0149 -2.5300
  409SOL    HW2 1227   2.932   1.581   0.095 -3.3575 -1.4878 -0.7515
  410SOL     OW 1228   2.213   1.793   1.331  0.3193 -0.0431 -0.4774
  410SOL    HW1 1229   2.213   1.755   1.425  2.6456 -0.3900  0.6886
  410SOL    HW2 1230   2.122   1.783   1.289  0.0675  2.2185  0.4266
  411SOL     OW 1231   3.064   0.572   0.528 -0.4697  0.1416 -0.4238
  411SOL    HW1 1232   3.068   0.609   0.434  0.9384 -0.3286  0.8023
  411SOL    HW2 1233   2.971   0.534   0.541  1.7162 -0.2263  1.7772
  412SOL     OW 1234   1.620   0.375   0.143  0.1229 -0.0356 -0.0310
  412SOL    HW1 1235   1.715   0.405   0.113  0.8511  1.0539 -0.4600
  412SOL    HW2 1236   1.616   0.313   0.226 -0.7107 -1.6349  0.3728
  413SOL     OW 1237   1.406   0.494   1.576  0.2971  0.2046  0.1906
  413SOL    HW1 1238   1.428   0.587   1.610  1.1477 -0.8937  0.6412
  413SOL    HW2 1239   1.423   0.486   1.473  0.4232 -2.2017 -0.4195
  414SOL     OW 1240   0.207   1.092   0.256 -0.1821  0.2877  0.7004
  414SOL    HW1 1241   0.255   1.012   0.222 -1.5756 -0.5702  1.1389
  414SOL    HW2 1242   0.174   1.149   0.176  0.9540  0.8845 -0.8304
  415SOL     OW 1243   3.071   1.505   0.589 -0.3289 -0.5453  0.1650
  415SOL    HW1 1244   3.083   1.581   0.526 -3.2926 -1.9339  1.9526
  415SOL    HW2 1245   0.014   1.425   0.556 -0.7670  3.1487  0.4343
  416SOL     OW 1246   2.048   0.948   0.416  0.6784 -0.1089 -0.1262
  416SOL    HW1 1247   2.049   0.971   0.516 -1.4817 -1.0530  1.9187
  416SOL    HW2 1248   1.951   0.954   0.378 -0.9584  1.1022 -1.2420
  417SOL     OW 1249   2.891   0.024   0.247 -0.1518 -0.2294 -0.2299
  417SOL    HW1 1250   2.928   0.018   0.151 -2.5387  1.9746  1.4315
  417SOL    HW2 1251   2.797   3.084   0.245 -0.3699  2.3810 -2.7100
  418SOL     OW 1252   2.533   0.847   0.199 -0.1648  0.3213  0.0694
  418SOL    HW1 1253   2.512   0.785   0.122 -2.6085  2.2161 -0.2736
  418SOL    HW2 1254   2.613   0.805   0.248 -0.0469  0.8694  0.5094
  419SOL     OW 1255   0.706   0.507   0.095 -0.2764 -0.6564  0.3063
  419SOL    HW1 1256   0.656   0.507   0.003  0.0747 -2.2424 -4.0316
  419SOL    HW2 1257   0.675   0.435   0.158  2.8243  2.2742  1.2893
  420SOL     OW 1258   0.446   1.204   0.811  0.3713 -0.0558 -0.0533
  420SOL    HW1 1259   0.418   1.117   0.767 -0.0402 -0.9569  1.5744
  420SOL    HW2 1260   0.550   1.213   0.806  1.9983 -1.6512  1.3585
  421SOL     OW 1261   0.262   1.876   0.367  0.0927 -0.4556 -0.3018
  421SOL    HW1 1262   0.280   1.774   0.376 -2.1448 -2.7710 -0.0126
  421SOL    HW2 1263   0.164   1.897   0.344 -0.7416 -0.6666  1.5784
  422SOL     OW 1264   2.660   0.209   1.429  0.4612  0.3656 -1.0094
  422SOL    HW1 1265   2.564   0.245   1.431 -1.0554 -0.8959 -1.0089
  422SOL    HW2 1266   2.678   0.165   1.339 -2.7437  0.9141  2.5370
  423SOL     OW 1267   2.023   1.859   0.563  0.0671 -0.5118 -0.4794
  423SOL    HW1 1268   2.011   1.831   0.662 -0.0111 -1.4080  1.2816
  423SOL    HW2 1269   1.935   1.850   0.510 -1.5436  0.9454 -1.0103
  424SOL     OW 1270   1.723   1.592   0.034 -0.2686  0.3583  0.6811
  424SOL    HW1 1271   1.706   1.672   0.094 -2.5346 -0.4060 -2.2814
  424SOL    HW2 1272   1.815   1.548   0.047 -1.5193  2.1762  1.2209
  425SOL     OW 1273   0.285   2.909   2.149 -0.0393 -0.1527 -0.1686
  425SOL    HW1 1274   0.317   2.980   2.211 -1.6720 -1.3157  2.1140
  425SOL    HW2 1275   0.281   2.828   2.207 -0.1992  0.1950 -0.2036
  426SOL     OW 1276   2.340   2.881   2.749 -0.2858  0.1161 -0.3263
  426SOL    HW1 1277   2.410   2.957   2.740 -1.6516 -1.0319 -0.1836
  426SOL    HW2 1278   2.248   2.928   2.736 -1.6002  1.1115  2.0384
  427SOL     OW 1279   0.636   1.348   2.204  0.5712  0.2803  0.1199
  427SOL    HW1 1280   0.681   1.276   2.153 -0.5938  1.6839 -0.8302
  427SOL    HW2 1281   0.606   1.425   2.150 -0.9106  0.6522  0.2380
  428SOL     OW 1282   2.442   1.399   2.400  0.3292  0.3789 -0.1481
  428SOL    HW1 1283   2.438   1.300   2.379  1.0636  0.1868  2.2555
  428SOL    HW2 1284   2.406   1.451   2.321 -0.9329 -0.8242 -0.1289
  429SOL     OW 1285   2.573   0.172   0.531 -0.4531  0.0732 -0.0380
  429SOL    HW1 1286   2.610   0.172   0.435  1.6783  1.1753  0.7067
  429SOL    HW2 1287   2.603   0.091   0.588  0.0615 -4.5245 -0.4078
  430SOL     OW 1288   1.730   1.655   2.481 -0.1772  0.3435  0.1087
  430SOL    HW1 1289   1.730   1.627   2.386 -2.3442  0.0821 -0.5268
  430SOL    HW2 1290   1.828   1.666   2.508 -2.1177  1.3901  3.7439
  431SOL     OW 1291   2.796   1.890   1.802 -0.0340 -0.9429  0.1831
  431SOL    HW1 1292   2.712   1.852   1.758 -0.3764 -0.2408  1.6165
  431SOL    HW2 1293   2.830   1.972   1.756 -1.8449 -2.0941  0.3430
  432SOL     OW 1294   1.015   2.676   2.143 -0.4881 -0.1500 -0.1375
  432SOL    HW1 1295   1.116   2.659   2.119  0.0887 -1.4139 -1.0197
  432SOL    HW2 1296   0.949   2.688   2.061 -0.0821 -0.8299 -0.5467
  433SOL     OW 1297   1.377   2.802   0.811  0.0755 -0.0309 -0.2863
  433SOL    HW1 1298   1.413   2.888   0.772 -0.2080 -1.0636  0.3796
  433SOL    HW2 1299   1.430   2.760   0.886  0.7774  1.4070 -1.0545
  434SOL     OW 1300   0.330   2.237   2.074 -0.3496  0.3341  0.0288
  434SOL    HW1 1301   0.381   2.184   2.003  0.1317 -0.2546  0.6589
  434SOL    HW2 1302   0.338   2.198   2.168 -1.7368  2.3350 -1.6384
  435SOL     OW 1303   0.496   1.438   0.625 -0.5218 -0.3040 -0.7699
  435SOL    HW1 1304   0.566   1.378   0.671 -0.0930 -0.7617 -1.1943
  435SOL    HW2 1305   0.438   1.388   0.557  0.5672  1.2474  1.1759
  436SOL     OW 1306   0.156   1.543   1.708  0.0602  0.0981  0.0899
  436SOL    HW1 1307   0.125   1.634   1.684 -1.5371 -2.7653 -2.8324
  436SOL    HW2 1308   0.145   1.481   1.629 -0.6391  5.9578  3.1085
  437SOL     OW 1309   0.955   0.258   0.174 -0.1359  0.1050 -0.1231
  437SOL    HW1 1310   0.927   0.289   0.266  1.1033 -1.8717 -2.1522
  437SOL    HW2 1311   0.962   0.333   0.104 -0.6575 -1.8666 -0.5082
  438SOL     OW 1312   0.673   1.784   1.243 -0.2897 -0.1570  0.3441
  438SOL    HW1 1313   0.576   1.806   1.258  1.5183 -1.0550  0.1712
  438SOL    HW2 1314   0.729   1.843   1.177  3.9723  0.0371 -0.6099
  439SOL     OW 1315   1.556   1.924   2.772  0.2198 -0.0808  0.1851
  439SOL    HW1 1316   1.487   1.847   2.753 -0.0128 -2.3169  3.2063
  439SOL    HW2 1317   1.649   1.898   2.738  0.7429  0.3561 -0.4062
  440SOL     OW 1318   1.623   0.410   1.251 -0.3189  0.2240  0.1434
  440SOL    HW1 1319   1.536   0.362   1.277 -1.7683 -2.9092  1.4621
  440SOL    HW2 1320   1.615   0.434   1.150 -0.7087  0.2365  2.1682
  441SOL     OW 1321   0.803   3.028   1.477  0.2902 -0.1340 -0.1190
  441SOL    HW1 1322   0.713   3.044   1.435  0.1390 -2.0531 -2.4628
  441SOL    HW2 1323   0.813   3.044   1.572 -1.4302 -0.2972 -1.8497
  442SOL     OW 1324   2.456   2.149   0.700  0.1349  0.0178  0.0752
  442SOL    HW1 1325   2.493   2.233   0.653 -0.7152  0.5915  1.8330
  442SOL    HW2 1326   2.362   2.174   0.734 -1.6395  0.3528  0.0260
  443SOL     OW 1327   2.870   0.457   2.190  0.1649 -0.3847 -0.3429
  443SOL    HW1 1328   2.778   0.493   2.161  0.3911  1.0795 -0.3834
  443SOL    HW2 1329   2.857   0.418   2.283  3.1894  2.6049 -0.6743
  444SOL     OW 1330   1.668   0.973   2.245  0.1695 -0.0088  0.3469
  444SOL    HW1 1331   1.746   1.006   2.302  0.4234 -0.2948  1.6484
  444SOL    HW2 1332   1.693   0.905   2.171 -0.3731 -1.3060  1.4566
  445SOL     OW 1333   2.560   2.116   1.550 -0.2858 -0.8116 -0.5944
  445SOL    HW1 1334   2.622   2.182   1.599 -1.2698 -0.9296 -1.0141
  445SOL    HW2 1335   2.474   2.170   1.529  0.4703  2.7187 -0.6225
  446SOL     OW 1336   0.347   0.951   0.697 -0.4540 -0.1949 -0.8500
  446SOL    HW1 1337   0.376   0.875   0.642 -0.9314 -0.0371  0.0574
  446SOL    HW2 1338   0.266   0.994   0.655 -0.1632 -2.1560 -1.8928
  447SOL     OW 1339   0.663   1.929   0.902 -0.1817 -0.3725 -0.2785
  447SOL    HW1 1340   0.581   1.991   0.906  0.6217  2.7238 -0.2794
  447SOL    HW2 1341   0.658   1.850   0.837  1.2296 -2.0804  0.3979
  448SOL     OW 1342   1.351   1.301   1.517 -0.3536  0.0479 -0.5008
  448SOL    HW1 1343   1.301   1.357   1.593 -0.6278  1.0236  1.4952
  448SOL    HW2 1344   1.286   1.234   1.478 -1.0416  0.7629  1.6500
  449SOL     OW 1345   0.394   1.777   2.961 -0.2281  0.4049  0.5420
  449SOL    HW1 1346   0.418   1.679   2.942  1.0889 -0.5276  0.8266
  449SOL    HW2 1347   0.429   1.806   3.055 -0.4857  0.4387 -0.1888
  450SOL     OW 1348   2.300   2.286   1.960 -0.2515  0.9067  0.4493
  450SOL    HW1 1349   2.237   2.365   1.965 -2.7842  0.7239 -0.1320
  450SOL    HW2 1350   2.379   2.318   1.904 -2.5007  0.5655  3.5542
  451SOL     OW 1351   2.475   0.396   1.758  0.0826 -0.0245  0.0657
  451SOL    HW1 1352   2.430   0.309   1.733 -1.9086  0.0201 -0.8754
  451SOL    HW2 1353   2.437   0.473   1.706  1.4728  1.6385  0.0922
  452SOL     OW 1354   0.776   2.726   1.158  0.4802 -0.1034  0.1744
  452SOL    HW1 1355   0.683   2.726   1.197 -0.2222 -0.4244  0.3545
  452SOL    HW2 1356   0.844   2.757   1.232  2.0568  0.4854 -2.3251
  453SOL     OW 1357   0.948   1.143   0.964  0.3539  0.0726  0.1470
  453SOL    HW1 1358   0.940   1.238   0.927  0.8448  0.1147 -0.5873
  453SOL    HW2 1359   0.858   1.101   0.990 -1.3967 -1.0320 -1.2606
  454SOL     OW 1360   2.939   1.159   0.810  0.9884 -0.1111 -0.2729
  454SOL    HW1 1361   2.999   1.098   0.861 -0.6339  0.7247  0.3568
  454SOL    HW2 1362   2.937   1.255   0.851 -3.1391 -1.8267 -0.8508
  455SOL     OW 1363   0.178   0.214   0.253  0.5116  0.3393 -0.3419
  455SOL    HW1 1364   0.182   0.247   0.156  0.6793  0.1031 -0.8883
  455SOL    HW2 1365   0.242   0.274   0.310  0.3760  2.7837  1.0903
  456SOL     OW 1366   2.271   2.453   0.458  0.1598 -0.4668 -0.1101
  456SOL    HW1 1367   2.232   2.504   0.542 -2.4691  1.5244  0.9223
  456SOL    HW2 1368   2.361   2.417   0.487 -0.2896  0.7012  0.0646
  457SOL     OW 1369   1.266   2.881   3.021 -0.1701  0.4274  0.4036
  457SOL    HW1 1370   1.337   2.949   2.986  1.7432 -0.8920 -1.1894
  457SOL    HW2 1371   1.222   2.841   2.936 -0.4038  2.9601 -0.5503
  458SOL     OW 1372   2.975   2.623   0.250  0.6451  0.3519  0.2895
  458SOL    HW1 1373   2.882   2.660   0.257  0.9871 -1.1050  1.9221
  458SOL    HW2 1374   3.007   2.613   0.153 -0.1279  1.7434 -0.7121
  459SOL     OW 1375   2.664   0.369   1.933 -0.6152 -0.4222 -0.2051
  459SOL    HW1 1376   2.645   0.424   2.020  0.2347  0.8140  1.5069
  459SOL    HW2 1377   2.578   0.374   1.872  2.6321 -1.3901  1.4974
  460SOL     OW 1378   3.057   0.667   0.283  0.2638 -0.2497  0.0497
  460SOL    HW1 1379   3.000   0.742   0.248  0.8604  0.8057 -2.3385
  460SOL    HW2 1380   3.075   0.601   0.207 -0.6680  1.0574 -2.3451
  461SOL     OW 1381   0.210   1.724   1.289  0.8389 -0.1631 -0.0088
  461SOL    HW1 1382   0.171   1.693   1.204  0.0451  0.2312  2.7159
  461SOL    HW2 1383   0.276   1.795   1.269 -0.4813 -1.1093 -1.6819
  462SOL     OW 1384   2.806   2.761   0.797  0.1489 -0.1882  0.3098
  462SOL    HW1 1385   2.865   2.802   0.724  0.4973 -1.2164 -1.2796
  462SOL    HW2 1386   2.765   2.827   0.859 -1.2009  1.5481  0.5456
  463SOL     OW 1387   2.905   1.096   0.061  0.0094 -0.0546 -0.2826
  463SOL    HW1 1388   2.893   1.109   3.061  1.8826  2.9743  0.6461
  463SOL    HW2 1389   2.927   1.186   0.109 -1.0517  0.8202  0.8767
  464SOL     OW 1390   0.367   2.351   1.370  0.3633 -0.1474 -0.1954
  464SOL    HW1 1391   0.466   2.351   1.400  0.1191 -2.1100  0.1929
  464SOL    HW2 1392   0.307   2.406   1.431 -3.1773  0.0372  0.8402
  465SOL     OW 1393   0.805   0.469   0.865 -0.0150  0.4723 -0.4436
  465SOL    HW1 1394   0.846   0.450   0.771 -2.6218  1.3920  1.6571
  465SOL    HW2 1395   0.708   0.439   0.874  2.9086 -1.4879 -0.0834
  466SOL     OW 1396   1.604   2.759   2.237 -0.3306 -0.1998 -0.3707
  466SOL    HW1 1397   1.537   2.833   2.213 -5.1265  4.0075 -2.7686
  466SOL    HW2 1398   1.692   2.801   2.267  0.4374 -1.5909 -2.5662
  467SOL     OW 1399   1.071   0.419   1.831 -0.2826  0.1589 -0.0328
  467SOL    HW1 1400   1.138   0.393   1.901  1.9127 -0.0741 -0.5487
  467SOL    HW2 1401   0.977   0.389   1.859 -2.1843  3.4449 -1.4255
  468SOL     OW 1402   0.306   0.851   2.147 -0.0641  0.3857 -0.3856
  468SOL    HW1 1403   0.302   0.840   2.045 -2.3540  0.0771 -0.4307
  468SOL    HW2 1404   0.211   0.839   2.184 -0.6178 -1.4254 -2.0443
  469SOL     OW 1405   0.627   1.858   0.471 -0.0282  0.1334 -0.0597
  469SOL    HW1 1406   0.638   1.956   0.487 -2.5919  0.6009 -2.0718
  469SOL    HW2 1407   0.588   1.844   0.383 -2.9595  1.5438  3.6175
  470SOL     OW 1408   2.232   1.853   2.101  0.2074  0.4283 -0.0854
  470SOL    HW1 1409   2.273   1.925   2.041 -0.1493 -2.4655  0.2160
  470SOL    HW2 1410   2.131   1.843   2.101  0.7221  2.3635  1.8460
  471SOL     OW 1411   1.171   0.447   2.671  0.9097  0.0670  0.0875
  471SOL    HW1 1412   1.142   0.411   2.760 -0.7804  1.3710 -0.0022
  471SOL    HW2 1413   1.273   0.452   2.669  0.8771  1.8072 -1.2029
  472SOL     OW 1414   0.358   2.687   1.790 -0.2488  0.3057  0.0222
  472SOL    HW1 1415   0.403   2.660   1.878 -0.8244 -0.3716 -1.5466
  472SOL    HW2 1416   0.431   2.707   1.721 -0.3311 -1.0088  1.6628
  473SOL     OW 1417   0.809   0.120   2.503  0.1639 -0.5446  0.1438
  473SOL    HW1 1418   0.734   0.188   2.533 -0.7044  1.6672  0.4198
  473SOL    HW2 1419   0.778   0.065   2.420 -5.4010 -2.4071 -1.9012
  474SOL     OW 1420   1.708   0.039   1.001 -0.1654 -0.4833  0.4208
  474SOL    HW1 1421   1.617   0.083   0.987 -1.3963 -0.3075 -2.9504
  474SOL    HW2 1422   1.768   0.086   1.070  1.3579  0.4312  1.5160
  475SOL     OW 1423   1.705   0.671   1.313 -0.3110 -0.0427 -0.2396
  475SOL    HW1 1424   1.774   0.703   1.245 -0.5918 -3.1603  1.3252
  475SOL    HW2 1425   1.681   0.576   1.310 -2.4250  3.4453 -0.7048
  476SOL     OW 1426   0.556   0.713   1.021  0.3598 -0.0130 -0.2638
  476SOL    HW1 1427   0.467   0.756   1.010  0.4296 -0.0199 -0.0628
  476SOL    HW2 1428   0.627   0.784   1.008  1.0274  0.9391  1.0742
  477SOL     OW 1429   0.932   2.194   0.783 -0.0692 -0.1257 -0.1217
  477SOL    HW1 1430   1.007   2.242   0.728  2.7077  3.6197  0.5740
  477SOL    HW2 1431   0.872   2.265   0.825  1.3188 -0.0109  0.2290
  478SOL     OW 1432   0.066   2.706   2.259  0.0122 -0.1768  0.2750
  478SOL    HW1 1433   0.024   2.753   2.185 -0.9125 -3.1290  4.8339
  478SOL    HW2 1434   0.087   2.607   2.240 -0.0417  0.7520  1.4861
  479SOL     OW 1435   2.753   0.605   1.045 -0.1748 -0.1923 -0.2903
  479SOL    HW1 1436   2.740   0.692   0.997  0.0366  0.4872  0.6966
  479SOL    HW2 1437   2.667   0.558   1.031 -0.8028 -0.1223  1.2506
  480SOL     OW 1438   0.136   2.303   0.404 -0.0393  0.0885  0.5218
  480SOL    HW1 1439   0.179   2.332   0.316 -0.5557  0.2169 -1.2033
  480SOL    HW2 1440   0.182   2.227   0.447  0.5831  2.3463 -1.1117
  481SOL     OW 1441   2.112   2.252   1.593  0.2747  0.2747 -0.9689
  481SOL    HW1 1442   2.027   2.282   1.540  2.5143 -3.2531 -0.8756
  481SOL    HW2 1443   2.090   2.176   1.659 -3.3272  1.4836 -0.8120
  482SOL     OW 1444   1.456   2.679   2.727 -0.7846  0.1688 -0.1842
  482SOL    HW1 1445   1.530   2.707   2.661  2.4525  0.2391 -0.8884
  482SOL    HW2 1446   1.486   2.601   2.785 -1.4151 -1.3160 -2.3777
  483SOL     OW 1447   0.855   1.843   1.804  0.1478  0.5832  0.1063
  483SOL    HW1 1448   0.925   1.821   1.878  0.8774  0.3880  2.5915
  483SOL    HW2 1449   0.826   1.748   1.767 -0.0787 -2.3175 -1.5911
  484SOL     OW 1450   0.862   0.302   1.260 -0.0306  0.0231 -0.2253
  484SOL    HW1 1451   0.858   0.328   1.359 -0.3967  0.6063 -0.4512
  484SOL    HW2 1452   0.896   0.383   1.206  1.7106 -0.6363 -2.4146
  485SOL     OW 1453   2.249   0.972   0.229  0.2543  0.3311  0.0980
  485SOL    HW1 1454   2.310   0.893   0.226  0.7199 -2.2824  0.7615
  485SOL    HW2 1455   2.189   0.977   0.315 -1.1794 -0.1439 -1.9768
  486SOL     OW 1456   2.129   0.309   1.483 -0.3791  0.7152 -0.6731
  486SOL    HW1 1457   2.122   0.311   1.589  0.5158 -0.6436  1.7603
  486SOL    HW2 1458   2.090   0.222   1.440  3.0777 -2.0922  1.6837
  487SOL     OW 1459   0.417   1.910   1.295  0.7601  0.6733  0.3867
  487SOL    HW1 1460   0.405   2.001   1.251  1.9270  0.2541  0.5254
  487SOL    HW2 1461   0.442   1.930   1.392  0.3859 -2.1927  1.7819
  488SOL     OW 1462   2.146   2.330   2.918 -0.2156  0.0411 -0.0930
  488SOL    HW1 1463   2.163   2.233   2.937 -1.9562 -0.6458  1.5908
  488SOL    HW2 1464   2.215   2.385   2.963 -2.8326  0.2050 -4.2386
  489SOL     OW 1465   1.926   2.936   0.628  0.4350 -0.1367  0.3053
  489SOL    HW1 1466   1.892   2.840   0.622 -0.6725 -1.7858 -1.0830
  489SOL    HW2 1467   1.944   2.979   0.536  0.3530  1.1991  2.2703
  490SOL     OW 1468   0.982   2.331   2.917 -0.8805 -0.1399 -0.0251
  490SOL    HW1 1469   1.063   2.309   2.853 -0.2677 -2.1443 -0.1432
  490SOL    HW2 1470   0.989   2.425   2.960 -0.0356 -0.5023 -0.9041
  491SOL     OW 1471   0.454   1.934   1.587  0.0704 -0.3292  0.1045
  491SOL    HW1 1472   0.496   1.840   1.588  2.3010  2.0994  1.2552
  491SOL    HW2 1473   0.524   2.010   1.598  0.5835  2.1721  0.1878
  492SOL     OW 1474   1.060   1.247   1.888 -0.3504  0.4047 -0.2554
  492SOL    HW1 1475   0.997   1.264   1.808  0.8390  2.8058 -1.5993
  492SOL    HW2 1476   1.021   1.277   1.976  1.3713 -2.2849  0.9035
  493SOL     OW 1477   2.500   1.811   0.853  0.2977  0.1252 -0.4512
  493SOL    HW1 1478   2.520   1.810   0.755  0.1902 -3.5289 -1.8399
  493SOL    HW2 1479   2.567   1.748   0.897  0.9327 -0.3096 -3.2941
  494SOL     OW 1480   3.023   1.851   1.152 -0.0660 -0.6387 -0.0948
  494SOL    HW1 1481   2.929   1.848   1.101  0.8948 -1.9669 -1.7576
  494SOL    HW2 1482   3.010   1.837   1.250 -0.2335 -1.8945 -0.4712
  495SOL     OW 1483   2.301   2.712   0.613 -0.0234  0.4590 -0.0048
  495SOL    HW1 1484   2.406   2.691   0.618  2.7828  1.1717 -1.5067
  495SOL    HW2 1485   2.257   2.668   0.696 -0.0973  0.8035  0.1331
  496SOL     OW 1486   2.402   0.106   1.179 -0.4488  0.1544 -1.0016
  496SOL    HW1 1487   2.499   0.072   1.167 -1.1674  1.0515 -1.5383
  496SOL    HW2 1488   2.403   0.164   1.266  0.7279  1.0190  0.4620
  497SOL     OW 1489   2.637   1.300   2.860  0.0359 -0.4282 -0.6145
  497SOL    HW1 1490   2.575   1.293   2.777 -0.2101  0.2932  1.1717
  497SOL    HW2 1491   2.696   1.220   2.871 -0.9907 -0.8013  1.1737
  498SOL     OW 1492   2.908   2.012   1.439  0.0419 -0.2429  0.5217
  498SOL    HW1 1493   2.900   2.057   1.531 -0.0534  1.3607  0.2486
  498SOL    HW2 1494   2.820   2.020   1.381 -1.8120  1.5548 -2.2104
  499SOL     OW 1495   0.989   2.318   2.383 -0.2269  0.6243 -0.1486
  499SOL    HW1 1496   1.012   2.415   2.366  2.1537 -1.7854  1.2840
  499SOL    HW2 1497   0.924   2.305   2.465 -0.1254 -1.5152 -0.3207
  500SOL     OW 1498   1.349   1.640   0.577  0.4257 -0.2981 -0.0276
  500SOL    HW1 1499   1.432   1.630   0.633 -2.1198  0.3002  2.1348
  500SOL    HW2 1500   1.273   1.587   0.619 -1.2973  0.6892 -0.8076
  501SOL     OW 1501   1.825   0.088   1.670 -0.3835  0.7694 -0.6499
  501SOL    HW1 1502   1.882   0.068   1.591 -1.7310 -1.5640  2.0116
  501SOL    HW2 1503   1.726   0.080   1.646  0.5226  0.6320 -1.9769
  502SOL     OW 1504   2.771   0.450   1.509  0.4467  0.3016 -0.4599
  502SOL    HW1 1505   2.809   0.432   1.601 -3.2487  0.8490 -0.3452
  502SOL    HW2 1506   2.732   0.363   1.461 -0.3857 -0.9537 -1.2910
  503SOL     OW 1507   2.717   1.356   2.240  0.0471  0.0427 -0.1666
  503SOL    HW1 1508   2.720   1.448   2.207 -0.8529  1.5375 -0.9323
  503SOL    HW2 1509   2.635   1.302   2.207 -0.4438  0.1615 -0.2912
  504SOL     OW 1510   1.617   1.306   1.473  0.4361  0.2135 -0.1551
  504SOL    HW1 1511   1.604   1.244   1.394  0.2754 -1.2437  0.9756
  504SOL    HW2 1512   1.519   1.322   1.511  0.7835  0.3347  0.5736
  505SOL     OW 1513   0.528   3.087   1.438 -0.2810 -0.4176  0.1785
  505SOL    HW1 1514   0.541   0.023   1.532  1.2537 -0.5843  1.0337
  505SOL    HW2 1515   0.556   0.052   1.364 -0.0933  0.2952 -1.8993
  506SOL     OW 1516   0.202   0.286   3.092  0.0747  1.0179  0.2753
  506SOL    HW1 1517   0.296   0.326   0.014  1.8651  0.0204  0.9579
  506SOL    HW2 1518   0.205   0.251   2.996 -0.2606 -0.1517 -1.5556
  507SOL     OW 1519   0.114   2.532   2.860  0.4625 -0.0753  0.1155
  507SOL    HW1 1520   0.064   2.533   2.772 -0.9533 -0.6655 -0.5602
  507SOL    HW2 1521   0.071   2.457   2.916 -3.1975 -2.4154  0.5226
  508SOL     OW 1522   1.267   0.401   2.014  0.1674 -0.3413 -0.1779
  508SOL    HW1 1523   1.312   0.311   2.010  1.1112  2.4324  2.4568
  508SOL    HW2 1524   1.261   0.427   2.115  1.0581 -0.6060  1.4178
  509SOL     OW 1525   1.552   2.022   1.074  0.5269  0.2069 -0.1764
  509SOL    HW1 1526   1.594   1.985   1.161 -0.4954 -0.2410 -0.6753
  509SOL    HW2 1527   1.463   2.071   1.088 -3.0454  4.8230  0.3571
  510SOL     OW 1528   2.666   0.892   1.623  0.7108 -0.1915 -0.1317
  510SOL    HW1 1529   2.666   0.811   1.684  1.9992  1.0385 -0.3182
  510SOL    HW2 1530   2.660   0.978   1.679  1.2237 -1.7761  0.6539
  511SOL     OW 1531   1.224   1.820   1.080 -0.4745 -0.0538  0.0202
  511SOL    HW1 1532   1.197   1.916   1.091 -1.0044  2.3834  1.5372
  511SOL    HW2 1533   1.230   1.778   1.173  0.1711  1.3339  0.0849
  512SOL     OW 1534   3.049   1.681   0.382  0.2663  0.8200 -0.0606
  512SOL    HW1 1535   2.957   1.651   0.402  0.7586 -1.9672 -3.0075
  512SOL    HW2 1536   3.052   1.739   0.300  1.0889 -2.5439  1.8503
  513SOL     OW 1537   0.133   1.261   0.066 -0.1008  0.1329 -0.2751
  513SOL    HW1 1538   0.097   1.352   0.085 -0.0659 -0.7102  0.8341
  513SOL    HW2 1539   0.082   1.229   3.085 -1.5097  2.2319  0.1920
  514SOL     OW 1540   1.964   2.176   2.209  0.1371  0.0021  0.2228
  514SOL    HW1 1541   2.041   2.208   2.264 -0.6699  0.1842  0.1407
  514SOL    HW2 1542   1.934   2.081   2.233 -0.5935  0.1781 -2.0851
  515SOL     OW 1543   2.474   1.000   0.693  0.5028  0.2221 -0.5862
  515SOL    HW1 1544   2.456   0.935   0.615 -0.8949  0.6929  0.8893
  515SOL    HW2 1545   2.493   1.095   0.660 -1.2568 -0.0343 -0.4946
  516SOL     OW 1546   2.724   2.693   0.192 -0.8369  0.2069  0.0742
  516SOL    HW1 1547   2.672   2.689   0.106 -0.4004 -0.4427  1.4783
  516SOL    HW2 1548   2.666   2.658   0.263 -1.9548  2.5119 -5.3651
  517SOL     OW 1549   0.762   1.621   2.736  0.6707  0.4536 -0.0301
  517SOL    HW1 1550   0.852   1.636   2.689 -1.4797  4.2526 -0.9788
  517SOL    HW2 1551   0.766   1.617   2.837  1.8384  0.8157 -5.0268
  518SOL     OW 1552   0.290   0.192   1.913  0.2238  0.2384  0.5956
  518SOL    HW1 1553   0.223   0.127   1.883 -0.9273 -0.2497  1.5172
  518SOL    HW2 1554   0.276   0.281   1.861 -2.0934  0.8375  2.5053
  519SOL     OW 1555   1.257   1.167   0.232  0.4640  0.9085 -0.2228
  519SOL    HW1 1556   1.165   1.122   0.214 -2.1221  3.4609  0.8898
  519SOL    HW2 1557   1.329   1.133   0.167  1.0192  2.0548  1.7882
  520SOL     OW 1558   2.619   2.653   2.199 -0.3584  0.2488  0.5302
  520SOL    HW1 1559   2.634   2.743   2.161  2.5149 -1.4859 -1.8266
  520SOL    HW2 1560   2.520   2.633   2.179  1.0956  0.4179 -0.5817
  521SOL     OW 1561   0.157   1.881   1.998  0.7530 -0.0835  0.3756
  521SOL    HW1 1562   0.099   1.959   2.031  1.5414  0.0784  1.8775
  521SOL    HW2 1563   0.259   1.892   2.015 -2.3385  1.0114 -0.1482
  522SOL     OW 1564   1.446   3.086   1.855 -0.4767 -0.3365  0.1357
  522SOL    HW1 1565   1.421   2.991   1.872 -1.3787 -0.3161 -1.0823
  522SOL    HW2 1566   1.478   3.093   1.756  0.2922 -0.1076 -1.8930
  523SOL     OW 1567   1.939   2.292   1.292  0.3797 -0.3691 -0.0077
  523SOL    HW1 1568   1.966   2.195   1.266 -1.7867 -1.4036 -1.5883
  523SOL    HW2 1569   2.001   2.353   1.239  3.4447 -0.0389 -1.0712
  524SOL     OW 1570   0.802   2.072   0.578 -0.2097  0.0828  0.7987
  524SOL    HW1 1571   0.826   2.124   0.668  1.0333  0.1528  3.0653
  524SOL    HW2 1572   0.852   1.983   0.583  1.0064 -3.1003  3.4295
  525SOL     OW 1573   2.807   0.509   0.551  0.1682  0.4838 -0.8790
  525SOL    HW1 1574   2.734   0.561   0.597 -1.8370 -2.3175  2.5919
  525SOL    HW2 1575   2.769   0.456   0.471  0.8799  1.0081  0.5998
  526SOL     OW 1576   1.060   0.095   0.482  0.3470 -0.3903 -0.8191
  526SOL    HW1 1577   1.005   0.055   0.557 -0.1409  0.1948 -0.1103
  526SOL    HW2 1578   1.141   0.040   0.455  0.6819  0.7059  0.1105
  527SOL     OW 1579   1.917   1.524   1.072 -0.2495 -0.0288  0.4164
  527SOL    HW1 1580   1.888   1.428   1.094  1.3031 -1.9035 -1.9534
  527SOL    HW2 1581   1.896   1.543   0.974  0.1333 -0.3735 -0.5840
  528SOL     OW 1582   2.590   2.418   2.359  0.0048 -0.0483  0.1480
  528SOL    HW1 1583   2.611   2.489   2.290 -1.9810 -1.7688 -1.6648
  528SOL    HW2 1584   2.666   2.345   2.362  0.5566  0.5478  0.1512
  529SOL     OW 1585   0.896   1.380   2.596  0.2623  0.2412 -0.1594
  529SOL    HW1 1586   0.793   1.380   2.592 -2.5193 -1.1624 -0.4180
  529SOL    HW2 1587   0.938   1.457   2.544 -0.7233 -1.5371 -0.3541
  530SOL     OW 1588   1.695   0.798   2.798  0.7765 -0.8484  0.9006
  530SOL    HW1 1589   1.752   0.773   2.717  0.4038  0.2869  4.3392
  530SOL    HW2 1590   1.746   0.783   2.882 -1.1686  0.7488 -0.6528
  531SOL     OW 1591   0.377   0.809   0.348  0.3153  0.2410 -0.4897
  531SOL    HW1 1592   0.445   0.877   0.381 -0.3135 -1.5332  0.8451
  531SOL    HW2 1593   0.356   0.825   0.250 -2.6710 -2.1781 -0.3868
  532SOL     OW 1594   1.616   1.241   0.910  0.2009  0.2698 -0.2261
  532SOL    HW1 1595   1.600   1.140   0.917  4.6031  2.9898  2.0381
  532SOL    HW2 1596   1.523   1.288   0.914 -2.2988 -0.0263  0.3103
  533SOL     OW 1597   0.445   0.363   2.252  0.5567 -0.2895 -0.2872
  533SOL    HW1 1598   0.485   0.275   2.284  0.1388  1.7363  1.0955
  533SOL    HW2 1599   0.504   0.438   2.287 -0.6165  0.6964  2.4764
  534SOL     OW 1600   0.736   0.243   2.840 -0.2362  0.2436  0.2428
  534SOL    HW1 1601   0.831   0.206   2.860 -1.3171 -0.5324 -1.3366
  534SOL    HW2 1602   0.663   0.173   2.861 -3.7823  2.3598 -0.0409
  535SOL     OW 1603   0.548   0.507   2.986  0.3453 -0.0390 -0.2205
  535SOL    HW1 1604   0.465   0.534   3.037  3.4263  0.6598  1.2103
  535SOL    HW2 1605   0.529   0.418   2.941  0.2870  2.2035  1.6681
  536SOL     OW 1606   0.558   0.837   2.245 -0.0120 -0.2174 -0.5381
  536SOL    HW1 1607   0.462   0.830   2.212  2.6844 -0.3096  2.0306
  536SOL    HW2 1608   0.622   0.855   2.167  0.8326  2.4631  1.4437
  537SOL     OW 1609   1.315   0.067   1.140 -0.2686  0.4277 -0.7083
  537SOL    HW1 1610   1.309   3.074   1.113  1.3660 -1.2476 -1.8674
  537SOL    HW2 1611   1.318   0.125   1.060 -0.3917 -0.8590 -0.7440
  538SOL     OW 1612   0.753   1.946   0.027  0.0395  0.1549  0.2957
  538SOL    HW1 1613   0.798   2.039   0.015 -1.3167  3.7356  0.8307
  538SOL    HW2 1614   0.748   1.886   3.046 -2.6403 -2.6059  1.0412
  539SOL     OW 1615   2.464   1.383   1.933  0.1106 -0.6965 -0.2363
  539SOL    HW1 1616   2.551   1.402   1.887  0.2304  4.0746 -0.2172
  539SOL    HW2 1617   2.401   1.461   1.911 -2.3068  1.5696  1.8804
  540SOL     OW 1618   1.579   1.734   1.653  0.0849 -0.1872  0.3078
  540SOL    HW1 1619   1.589   1.706   1.557  1.5530 -0.2078  1.8753
  540SOL    HW2 1620   1.624   1.827   1.662 -0.1922  0.2537  0.1049
  541SOL     OW 1621   0.784   1.559   1.798 -0.1438 -0.7407  0.0184
  541SOL    HW1 1622   0.683   1.555   1.810  0.9708 -0.0083  0.8521
  541SOL    HW2 1623   0.828   1.464   1.789  2.0938 -1.5046  1.3339
  542SOL     OW 1624   1.936   0.818   2.266 -0.1496 -0.3941  0.8201
  542SOL    HW1 1625   1.930   0.921   2.268 -3.6378  0.8641  0.7714
  542SOL    HW2 1626   1.902   0.778   2.180 -2.0673 -1.4105 -0.0289
  543SOL     OW 1627   1.029   0.762   0.432 -0.4720  0.2172 -0.7223
  543SOL    HW1 1628   0.978   0.830   0.488 -0.4316 -1.1804  1.5699
  543SOL    HW2 1629   0.961   0.712   0.377 -1.2940  1.6602  0.0913
  544SOL     OW 1630   2.385   1.823   2.327 -0.5938  0.1399  0.0901
  544SOL    HW1 1631   2.324   1.831   2.242 -1.5265 -1.0218 -2.6144
  544SOL    HW2 1632   2.419   1.914   2.350  2.2767  1.3154  0.0084
  545SOL     OW 1633   1.647   2.237   1.596 -0.2763  0.4070  0.6171
  545SOL    HW1 1634   1.658   2.253   1.495  4.1520  0.8132  0.8543
  545SOL    HW2 1635   1.726   2.275   1.651 -0.6420 -2.4468  0.9990
  546SOL     OW 1636   0.404   0.281   2.906 -0.0309 -0.5099 -0.6795
  546SOL    HW1 1637   0.359   0.288   2.818 -2.5294  1.5610  2.0023
  546SOL    HW2 1638   0.470   0.202   2.908  2.6945 -2.7749 -0.7006
  547SOL     OW 1639   2.393   0.849   3.017 -0.5549  0.0315 -0.0849
  547SOL    HW1 1640   2.398   0.930   3.083 -0.6502  1.7628  1.4626
  547SOL    HW2 1641   2.321   0.781   3.043 -1.9783 -1.5557  0.5409
  548SOL     OW 1642   1.909   1.939   2.334  0.0827  0.3722 -0.2013
  548SOL    HW1 1643   1.984   1.872   2.315 -0.6077  0.3922 -1.7110
  548SOL    HW2 1644   1.817   1.899   2.318  0.3138  2.1067 -0.1362
  549SOL     OW 1645   2.181   0.314   0.682 -0.0560 -0.0791  0.2337
  549SOL    HW1 1646   2.186   0.314   0.784  1.1514 -0.2012  0.3600
  549SOL    HW2 1647   2.278   0.325   0.656 -1.4744 -1.5223 -0.4076
  550SOL     OW 1648   2.275   1.764   0.452 -0.1934 -0.2555  0.3607
  550SOL    HW1 1649   2.300   1.783   0.356 -1.6112 -0.5781  2.2600
  550SOL    HW2 1650   2.200   1.824   0.488  1.4344 -0.5270 -0.8419
  551SOL     OW 1651   1.465   0.295   1.750 -0.2919  0.2517  0.0020
  551SOL    HW1 1652   1.486   0.211   1.696  3.0848 -3.0781  2.8324
  551SOL    HW2 1653   1.444   0.376   1.686  0.2584  1.7613  1.6123
  552SOL     OW 1654   0.052   2.271   2.369 -0.0376 -0.3280 -0.0981
  552SOL    HW1 1655   0.129   2.333   2.347  1.6064 -0.5868 -1.1321
  552SOL    HW2 1656   0.029   2.272   2.468  1.0399  0.7909 -1.4918
  553SOL     OW 1657   1.037   2.899   0.301  0.3164  0.8476  0.3727
  553SOL    HW1 1658   1.019   2.996   0.292 -1.5240  0.1041  0.6735
  553SOL    HW2 1659   1.026   2.871   0.398  0.8369  1.5888 -2.4966
  554SOL     OW 1660   1.867   2.392   1.729  0.3449 -0.0646  0.1534
  554SOL    HW1 1661   1.898   2.314   1.790 -0.2566 -0.3929  2.9989
  554SOL    HW2 1662   1.803   2.456   1.773 -0.6568 -0.3769 -2.9296
  555SOL     OW 1663   1.202   2.118   2.120 -0.0835 -0.0498  0.3740
  555SOL    HW1 1664   1.222   2.201   2.067 -3.1503 -0.0251 -0.2056
  555SOL    HW2 1665   1.097   2.115   2.121  0.3911  1.8808 -0.4706
  556SOL     OW 1666   1.291   1.824   0.806  0.5917  0.0386 -0.0906
  556SOL    HW1 1667   1.279   1.740   0.748 -0.4228  0.1110  1.9195
  556SOL    HW2 1668   1.251   1.801   0.901 -0.3432 -0.9767  0.7874
  557SOL     OW 1669   1.631   2.209   1.959 -0.2161 -0.1669  0.1869
  557SOL    HW1 1670   1.586   2.290   1.998  1.7039  0.3175 -0.8193
  557SOL    HW2 1671   1.571   2.127   1.967 -1.3333 -2.4285 -0.4171
  558SOL     OW 1672   0.544   0.079   1.706  0.0446  0.1162 -0.2985
  558SOL    HW1 1673   0.524   0.075   1.806  2.3546 -1.5201  0.7246
  558SOL    HW2 1674   0.613   0.150   1.697  0.3754 -1.4564 -0.0449
  559SOL     OW 1675   2.381   2.933   1.307  0.3583 -0.7156  0.0536
  559SOL    HW1 1676   2.375   2.935   1.205 -1.5145  2.0015 -2.3610
  559SOL    HW2 1677   2.361   3.024   1.349 -0.6294  2.2129 -3.2740
  560SOL     OW 1678   0.809   2.216   0.251  0.1903  0.3701 -0.5528
  560SOL    HW1 1679   0.900   2.178   0.292  0.2658  1.3450 -2.0209
  560SOL    HW2 1680   0.722   2.189   0.297  0.0185  3.0638  0.5747
  561SOL     OW 1681   0.833   0.648   0.297 -0.4438  0.4034  0.2602
  561SOL    HW1 1682   0.770   0.599   0.235 -1.2265  0.8877  2.6978
  561SOL    HW2 1683   0.832   0.747   0.280  0.9264  0.3228  0.3878
  562SOL     OW 1684   0.802   0.482   2.521 -0.4242  0.0866 -0.3637
  562SOL    HW1 1685   0.851   0.473   2.612 -1.6365 -0.3845  3.0464
  562SOL    HW2 1686   0.856   0.455   2.437  1.2618  1.9303  0.3595
  563SOL     OW 1687   1.584   2.409   2.899 -0.5462 -0.3213  0.0539
  563SOL    HW1 1688   1.539   2.349   2.831  0.6730 -0.1064  0.9592
  563SOL    HW2 1689   1.605   2.368   2.990 -2.5255  1.3784 -0.4423
  564SOL     OW 1690   2.996   1.077   0.551  0.3532  0.6664  0.1512
  564SOL    HW1 1691   3.034   1.165   0.512 -0.6293 -0.7670  2.8451
  564SOL    HW2 1692   2.957   1.100   0.644  2.2679  0.0306 -2.1699
  565SOL     OW 1693   1.520   0.144   2.625  0.9291  0.1147 -0.3695
  565SOL    HW1 1694   1.436   0.088   2.619  1.5673 -0.0788 -1.7316
  565SOL    HW2 1695   1.508   0.221   2.689 -0.0075 -1.5462  0.6103
  566SOL     OW 1696   1.745   0.177   2.359  0.2441 -0.1468  0.2741
  566SOL    HW1 1697   1.734   0.109   2.432 -1.0564  1.3316  0.2739
  566SOL    HW2 1698   1.803   0.135   2.286 -2.8289 -1.3164  0.6302
  567SOL     OW 1699   2.484   1.378   0.787  0.3278  0.3195  0.4506
  567SOL    HW1 1700   2.405   1.432   0.822  0.6397  2.9507  1.8442
  567SOL    HW2 1701   2.526   1.331   0.866  2.1851  1.3199 -1.6243
  568SOL     OW 1702   1.769   1.798   0.392  0.3865 -0.7021  0.0076
  568SOL    HW1 1703   1.727   1.825   0.303 -1.3242 -1.1072  1.2743
  568SOL    HW2 1704   1.753   1.876   0.458 -1.9092 -1.7987  1.3460
  569SOL     OW 1705   2.131   1.624   2.959  0.1744  0.1748  0.1752
  569SOL    HW1 1706   2.229   1.618   2.932  1.3716  1.3461 -0.4391
  569SOL    HW2 1707   2.076   1.646   2.879 -2.2210 -0.9061  5.3350
  570SOL     OW 1708   3.031   2.770   1.536  0.1912  0.3095 -0.6145
  570SOL    HW1 1709   2.943   2.819   1.543 -0.0052 -4.1918  1.9178
  570SOL    HW2 1710   3.087   2.788   1.450  0.3941  0.6929 -2.1542
  571SOL     OW 1711   0.068   0.237   2.130  0.2390  0.3334 -0.3461
  571SOL    HW1 1712   0.142   0.258   2.063  1.9780 -1.2730  1.3965
  571SOL    HW2 1713   0.078   0.306   2.207 -0.8425  2.5675 -1.6637
  572SOL     OW 1714   0.891   1.400   0.867 -0.4553  0.0516  0.4155
  572SOL    HW1 1715   0.819   1.457   0.911  1.8135  0.8010  1.2571
  572SOL    HW2 1716   0.982   1.452   0.865  1.3505  2.2632 -0.0601
  573SOL     OW 1717   0.973   0.118   2.904 -0.1321  0.6402 -0.1736
  573SOL    HW1 1718   0.984   0.080   2.995  1.2410  2.9331 -1.4513
  573SOL    HW2 1719   1.028   0.200   2.891 -0.5091 -3.0860 -0.9573
  574SOL     OW 1720   0.854   0.181   0.830 -0.3783 -0.7177 -0.0506
  574SOL    HW1 1721   0.897   0.263   0.786  1.1186  0.3015 -2.9203
  574SOL    HW2 1722   0.854   0.188   0.929 -0.3117  2.7545 -1.5774
  575SOL     OW 1723   2.962   1.271   1.579  0.3087 -0.1358 -0.4309
  575SOL    HW1 1724   2.972   1.314   1.669 -0.0469  1.2519 -0.0715
  575SOL    HW2 1725   3.042   1.290   1.521 -2.0672 -1.5135  0.8348
  576SOL     OW 1726   2.145   0.623   1.731  0.1767 -0.1165  0.4460
  576SOL    HW1 1727   2.163   0.523   1.725  3.7720 -0.9178 -2.0419
  576SOL    HW2 1728   2.074   0.649   1.664 -0.5546  0.7441  2.8379
  577SOL     OW 1729   0.095   1.333   1.990 -0.2855  0.4796  0.1063
  577SOL    HW1 1730   0.146   1.250   1.964  0.1650  2.3969 -0.0745
  577SOL    HW2 1731   0.147   1.418   1.966 -1.6457  1.5809  0.1125
  578SOL     OW 1732   1.829   2.938   2.503  0.7245  0.3790 -0.5399
  578SOL    HW1 1733   1.810   3.029   2.551 -1.0920  0.7708  1.4858
  578SOL    HW2 1734   1.785   2.862   2.558  1.3670  0.9332 -0.2023
  579SOL     OW 1735   1.898   2.200   1.928  0.0721  0.2567  0.4298
  579SOL    HW1 1736   1.943   2.211   2.020  1.2720 -1.7110  1.0912
  579SOL    HW2 1737   1.796   2.193   1.930  0.1569 -1.1200 -0.3804
  580SOL     OW 1738   1.891   1.401   2.162  0.4737  1.1048 -0.7186
  580SOL    HW1 1739   1.826   1.476   2.183 -0.5653 -1.2017 -0.5272
  580SOL    HW2 1740   1.844   1.340   2.100 -0.4107 -0.7008 -0.2305
  581SOL     OW 1741   1.431   1.010   2.795 -0.3237  0.6897  0.1497
  581SOL    HW1 1742   1.392   1.067   2.718 -1.7034  2.0263 -1.8146
  581SOL    HW2 1743   1.435   0.911   2.772 -1.7263 -0.7566  0.4327
  582SOL     OW 1744   0.483   2.065   1.898 -0.5365 -0.4195 -0.1765
  582SOL    HW1 1745   0.574   2.097   1.926 -0.0162  1.1139  0.5809
  582SOL    HW2 1746   0.478   2.067   1.795  0.4711 -1.1715  1.3233
  583SOL     OW 1747   1.563   1.192   1.205  0.2539  0.2890 -0.3934
  583SOL    HW1 1748   1.474   1.171   1.155 -2.2969 -0.9400 -1.2836
  583SOL    HW2 1749   1.636   1.219   1.135 -0.1162  0.5837 -0.0901
  584SOL     OW 1750   1.094   2.332   0.635  0.4985  0.6063 -0.2738
  584SOL    HW1 1751   1.130   2.264   0.566  5.4703 -2.1865 -0.3963
  584SOL    HW2 1752   1.065   2.423   0.598  0.7470  0.4718  0.4637
  585SOL     OW 1753   2.742   2.384   3.032 -0.5653  0.1311 -0.3378
  585SOL    HW1 1754   2.823   2.372   3.091 -2.9319 -0.9717 -0.2815
  585SOL    HW2 1755   2.758   2.343   2.937  1.1231 -2.7285 -1.2018
  586SOL     OW 1756   2.650   1.575   0.674 -0.4388 -0.1197  0.0437
  586SOL    HW1 1757   2.568   1.526   0.707 -0.3164  0.9384 -1.4407
  586SOL    HW2 1758   2.639   1.669   0.638  2.8718 -1.2408  0.6505
  587SOL     OW 1759   1.041   1.501   2.974  0.1342 -0.7125  0.3585
  587SOL    HW1 1760   1.035   1.424   2.906  0.1327 -1.0571 -2.1026
  587SOL    HW2 1761   1.093   1.472   3.052 -0.8733  2.0201 -0.3789
  588SOL     OW 1762   0.408   0.259   0.677 -0.0572  0.5120  0.0237
  588SOL    HW1 1763   0.322   0.212   0.648  3.8923 -1.3075  0.7218
  588SOL    HW2 1764   0.396   0.351   0.714 -0.6269 -1.2616 -0.3205
  589SOL     OW 1765   1.256   0.283   0.466 -0.1916 -0.1804  0.2412
  589SOL    HW1 1766   1.161   0.251   0.479  2.4239 -0.8963 -1.5258
  589SOL    HW2 1767   1.266   0.376   0.432  1.0865 -3.2152  1.0626
  590SOL     OW 1768   2.126   2.472   0.223  0.0517  0.1612 -0.0230
  590SOL    HW1 1769   2.188   2.437   0.297  0.8880  1.3184 -0.8065
  590SOL    HW2 1770   2.118   2.571   0.227  2.3082 -0.2011 -1.7146
  591SOL     OW 1771   0.384   2.945   1.910 -0.5261  0.2266  0.2661
  591SOL    HW1 1772   0.348   2.939   2.006  1.4851 -2.0926 -1.1694
  591SOL    HW2 1773   0.332   2.894   1.839  2.0283  0.4475 -0.4347
  592SOL     OW 1774   0.134   1.618   2.287 -0.0491  0.0238  0.4370
  592SOL    HW1 1775   0.146   1.518   2.293 -0.0965  0.9255  2.4894
  592SOL    HW2 1776   0.066   1.642   2.214  0.4560  0.6090 -0.1416
  593SOL     OW 1777   1.946   1.725   1.250  0.4846  0.0511 -0.1647
  593SOL    HW1 1778   1.930   1.661   1.328 -0.8052  0.3138 -0.3350
  593SOL    HW2 1779   1.944   1.672   1.164 -0.9090  1.5198 -0.7145
  594SOL     OW 1780   0.412   1.281   0.016 -0.1302  0.1907  0.6932
  594SOL    HW1 1781   0.419   1.354   3.049  0.9524 -0.3047  0.9777
  594SOL    HW2 1782   0.321   1.265   0.055  1.2678  0.8001 -1.8162
  595SOL     OW 1783   1.355   1.111   1.028  0.0770  0.4972  0.5450
  595SOL    HW1 1784   1.282   1.048   1.058  1.0865  0.9998 -0.0909
  595SOL    HW2 1785   1.331   1.140   0.932 -1.1048  1.2493  0.4665
  596SOL     OW 1786   2.772   1.157   1.119  0.1046  0.1500 -0.6865
  596SOL    HW1 1787   2.794   1.058   1.111 -1.9093  2.2787 -0.3841
  596SOL    HW2 1788   2.851   1.217   1.094 -0.7215 -2.2376 -0.3910
  597SOL     OW 1789   1.011   2.321   1.814  0.3366 -0.1279  0.1292
  597SOL    HW1 1790   0.926   2.358   1.852  0.3049 -0.8353  0.5028
  597SOL    HW2 1791   1.003   2.222   1.801  1.4431  2.1622  3.3579
  598SOL     OW 1792   2.119   2.540   2.046  0.2933  0.1047  0.1688
  598SOL    HW1 1793   2.035   2.522   2.101  0.5952  2.4289  2.0882
  598SOL    HW2 1794   2.110   2.528   1.943  2.0998  0.5557 -1.1874
  599SOL     OW 1795   0.889   1.239   0.152 -0.5539  0.3735  0.0791
  599SOL    HW1 1796   0.937   1.329   0.132 -1.7141  0.2142  0.9920
  599SOL    HW2 1797   0.946   1.156   0.167  0.4575  2.1214 -2.9790
  600SOL     OW 1798   1.271   0.908   0.092 -0.5274 -0.1648  0.3478
  600SOL    HW1 1799   1.320   0.979   0.035  0.6388 -0.4161  0.0203
  600SOL    HW2 1800   1.309   0.816   0.069  1.3253 -1.4051  1.3218
  601SOL     OW 1801   0.846   0.415   1.535  0.1677  0.4282  0.5412
  601SOL    HW1 1802   0.949   0.424   1.535 -0.5964  0.9410 -0.8839
  601SOL    HW2 1803   0.797   0.497   1.577  0.3566  0.5476 -1.1721
  602SOL     OW 1804   0.405   2.286   0.740 -0.1174 -0.3129  0.4868
  602SOL    HW1 1805   0.306   2.280   0.764 -0.7397  0.2549  0.5480
  602SOL    HW2 1806   0.428   2.353   0.670  2.5291 -0.7138  0.7432
  603SOL     OW 1807   1.030   2.601   2.404 -0.1526  0.1458 -0.5419
  603SOL    HW1 1808   1.012   2.636   2.309 -0.5015 -0.1536  1.4867
  603SOL    HW2 1809   1.129   2.606   2.421  0.5356 -1.4049  1.0464
  604SOL     OW 1810   3.038   2.107   2.897 -0.1036 -0.0445 -0.3978
  604SOL    HW1 1811   0.007   2.034   2.923  3.1472 -1.9839 -0.0916
  604SOL    HW2 1812   2.944   2.066   2.877 -1.8495 -1.8719 -1.5347
  605SOL     OW 1813   2.022   1.739   1.764 -0.1440  0.1422 -0.2039
  605SOL    HW1 1814   1.939   1.684   1.734 -1.8225 -2.1425 -1.0306
  605SOL    HW2 1815   2.099   1.728   1.698 -0.6713 -1.8405 -0.5271
  606SOL     OW 1816   1.025   1.228   2.791  0.3442 -0.4071 -0.2707
  606SOL    HW1 1817   0.956   1.284   2.740  1.4850 -1.2198 -2.6888
  606SOL    HW2 1818   1.120   1.263   2.780  2.5648 -1.3363 -0.6796
  607SOL     OW 1819   1.166   0.950   1.116  0.2651  0.3554  0.0001
  607SOL    HW1 1820   1.177   0.857   1.154 -3.4494  3.0185 -0.9392
  607SOL    HW2 1821   1.083   0.997   1.150  1.2000 -1.6597 -0.2909
  608SOL     OW 1822   2.649   1.961   2.047  0.2459 -0.3816 -0.0084
  608SOL    HW1 1823   2.706   1.929   1.965 -0.6930  0.3598  0.5684
  608SOL    HW2 1824   2.689   2.050   2.079  1.1225  0.8780  1.2441
  609SOL     OW 1825   2.455   0.199   0.233  0.2257 -0.4777 -0.6807
  609SOL    HW1 1826   2.466   0.158   0.142 -0.0641  0.8331 -0.4827
  609SOL    HW2 1827   2.374   0.153   0.272 -1.6055  0.3345  0.7229
  610SOL     OW 1828   3.025   2.321   1.455  0.0124 -0.0817  0.5593
  610SOL    HW1 1829   3.070   2.405   1.417 -0.7742  2.2846 -0.6706
  610SOL    HW2 1830   3.090   2.243   1.454  3.0114  0.9376  1.0576
  611SOL     OW 1831   1.529   2.222   0.441  0.2450  0.0981  0.1867
  611SOL    HW1 1832   1.531   2.214   0.340  0.7704  0.4709  0.6278
  611SOL    HW2 1833   1.585   2.155   0.491  0.6436 -1.6067  1.8635
  612SOL     OW 1834   0.855   3.069   1.785  0.6624 -0.1647 -0.3536
  612SOL    HW1 1835   0.950   3.082   1.816 -2.7210  0.7716 -0.4076
  612SOL    HW2 1836   0.816   0.055   1.765  0.3397 -0.0047 -3.2905
  613SOL     OW 1837   2.894   1.799   0.706 -0.2077 -0.1792  0.7840
  613SOL    HW1 1838   2.882   1.700   0.675 -0.2366 -2.2155 -0.7770
  613SOL    HW2 1839   2.969   1.853   0.663 -0.1548  1.6506 -0.6788
  614SOL     OW 1840   2.032   0.712   1.950  0.0928  0.5775  0.0627
  614SOL    HW1 1841   2.065   0.804   1.973  1.4652  1.9959  0.9046
  614SOL    HW2 1842   2.074   0.671   1.866  2.5857 -2.4888 -0.2068
  615SOL     OW 1843   1.144   1.514   1.049  0.3781 -0.2517  0.2602
  615SOL    HW1 1844   1.118   1.609   1.032  0.5655 -1.7512 -1.7133
  615SOL    HW2 1845   1.198   1.504   1.134 -1.1673  1.9657  1.0179
  616SOL     OW 1846   1.653   1.835   0.162 -0.9361  0.0481  0.3803
  616SOL    HW1 1847   1.559   1.858   0.144  4.7152 -2.0450 -0.3292
  616SOL    HW2 1848   1.714   1.899   0.113 -1.1208 -1.5249 -0.4568
  617SOL     OW 1849   2.095   0.034   0.217  0.4251 -0.5497  0.3367
  617SOL    HW1 1850   2.167   3.065   0.207 -2.3150  0.9709  2.7790
  617SOL    HW2 1851   2.009   3.094   0.259 -0.5655  0.4017  0.1719
  618SOL     OW 1852   0.582   0.586   2.387 -0.2289  0.1847 -0.2800
  618SOL    HW1 1853   0.581   0.667   2.328 -0.1029 -2.7744  3.5359
  618SOL    HW2 1854   0.677   0.562   2.421 -0.1410  2.9842  0.5550
  619SOL     OW 1855   2.774   1.415   1.384  0.5431  0.2174 -0.3885
  619SOL    HW1 1856   2.873   1.413   1.353 -0.8995 -0.6250  5.0933
  619SOL    HW2 1857   2.706   1.447   1.309 -0.5566  0.0463  1.3542
  620SOL     OW 1858   2.112   2.980   2.673 -0.4764 -0.3695 -0.2729
  620SOL    HW1 1859   2.061   3.060   2.720 -2.0833  1.9071  0.8372
  620SOL    HW2 1860   2.110   2.993   2.570  2.2972  0.8424 -1.6189
  621SOL     OW 1861   2.405   1.647   3.098 -0.1327  0.3552  0.0316
  621SOL    HW1 1862   2.404   1.550   3.066  2.3053 -0.8804  2.8759
  621SOL    HW2 1863   2.439   1.652   0.091 -0.0090 -0.1033 -1.4113
  622SOL     OW 1864   1.866   0.097   2.148 -0.2779  0.1099 -0.1817
  622SOL    HW1 1865   1.767   0.078   2.117 -0.8669  0.7763 -0.2762
  622SOL    HW2 1866   1.931   0.043   2.090 -0.0645 -0.8635  0.3140
  623SOL     OW 1867   0.822   1.977   1.111  0.1232 -0.0595  0.5481
  623SOL    HW1 1868   0.795   2.058   1.167  0.9257  3.0475  0.7904
  623SOL    HW2 1869   0.777   1.964   1.015 -1.0842 -1.3114 -2.3117
  624SOL     OW 1870   0.116   2.975   3.042 -0.3267 -0.6285  0.6039
  624SOL    HW1 1871   0.194   2.953   0.001 -0.4298  0.1404  2.8220
  624SOL    HW2 1872   0.099   2.906   2.965  0.6738 -0.0455  2.2869
  625SOL     OW 1873   0.988   1.691   0.784  0.0752 -0.6597 -0.9834
  625SOL    HW1 1874   0.960   1.700   0.883 -2.6439 -0.7885  0.4915
  625SOL    HW2 1875   0.954   1.775   0.732  0.0475  4.4381 -3.4330
  626SOL     OW 1876   2.975   0.008   3.089 -0.2003 -0.6313  0.4713
  626SOL    HW1 1877   3.071   3.095   3.077 -0.8708  1.3104 -0.6407
  626SOL    HW2 1878   2.919   3.022   3.089 -1.1403  0.3635  2.1181
  627SOL     OW 1879   1.389   1.713   2.690  0.3514 -0.3311  0.1588
  627SOL    HW1 1880   1.429   1.617   2.699  2.6644  0.0552  1.4436
  627SOL    HW2 1881   1.376   1.734   2.593 -1.4111 -2.7266  1.6050
  628SOL     OW 1882   0.137   2.807   2.812 -0.1291  0.3999  0.0105
  628SOL    HW1 1883   0.144   2.796   2.711 -0.2402 -2.0481  1.7009
  628SOL    HW2 1884   0.146   2.719   2.862 -1.7725 -1.1720 -0.1156
  629SOL     OW 1885   0.563   2.918   2.593 -0.1659 -0.6485  0.1460
  629SOL    HW1 1886   0.627   2.863   2.656  0.2162 -0.2141  1.8992
  629SOL    HW2 1887   0.490   2.949   2.658 -0.9191  0.6251 -2.2138
  630SOL     OW 1888   1.543   1.394   2.086  0.6890  0.3148  0.1642
  630SOL    HW1 1889   1.487   1.327   2.135  1.6825  2.2181 -3.5145
  630SOL    HW2 1890   1.488   1.410   1.999 -1.1472  2.4154  1.4375
  631SOL     OW 1891   2.182   1.080   0.638  0.1254  0.5285  0.6072
  631SOL    HW1 1892   2.231   1.152   0.588 -1.9135 -0.4354 -0.4664
  631SOL    HW2 1893   2.250   0.998   0.641  2.7493 -2.3127 -2.1073
  632SOL     OW 1894   2.897   0.409   1.794 -0.6122 -0.9921 -0.1213
  632SOL    HW1 1895   2.937   0.482   1.852 -0.0232 -1.3145 -0.3378
  632SOL    HW2 1896   2.805   0.381   1.832 -2.7071  0.0747 -0.5412
  633SOL     OW 1897   0.794   1.708   0.132  0.0135 -0.3302  0.1196
  633SOL    HW1 1898   0.775   1.808   0.121 -2.7337 -1.7643  0.0997
  633SOL    HW2 1899   0.881   1.684   0.183  1.7543 -1.3032 -2.1402
  634SOL     OW 1900   2.056   2.703   2.575  0.0795  0.4089 -0.2081
  634SOL    HW1 1901   2.106   2.784   2.552  0.7864 -2.2997 -1.9385
  634SOL    HW2 1902   1.963   2.697   2.532  1.5797 -1.4224  1.5629
  635SOL     OW 1903   1.904   0.439   0.127 -0.3270  0.6780  0.0767
  635SOL    HW1 1904   1.894   0.443   0.226 -0.9776 -2.5705 -2.5424
  635SOL    HW2 1905   2.005   0.436   0.105  1.5578  0.6632  3.1640
  636SOL     OW 1906   0.711   1.271   0.679  0.2693 -0.0859  0.3590
  636SOL    HW1 1907   0.753   1.243   0.590 -1.0148  1.6843 -1.4404
  636SOL    HW2 1908   0.789   1.304   0.738 -2.1236 -0.1664 -0.5184
  637SOL     OW 1909   3.063   2.012   0.383 -0.1133 -0.1634 -0.1676
  637SOL    HW1 1910   2.963   2.010   0.380  1.9729  3.2467  1.3849
  637SOL    HW2 1911   3.101   1.993   0.479  0.8087 -2.2366  0.2861
  638SOL     OW 1912   0.996   2.629   2.881  0.1872  0.0437  0.0906
  638SOL    HW1 1913   1.074   2.692   2.864 -0.9524  0.2743  0.2494
  638SOL    HW2 1914   0.964   2.584   2.798  0.8662  2.0544 -1.2415
  639SOL     OW 1915   1.393   1.944   0.132 -0.6750 -0.2612  0.2932
  639SOL    HW1 1916   1.292   1.951   0.121 -1.6374 -0.5318  1.1110
  639SOL    HW2 1917   1.395   1.929   0.234  0.1583 -0.2237  1.4351
  640SOL     OW 1918   1.749   0.010   0.735  0.0212 -0.1305  0.2119
  640SOL    HW1 1919   1.756   0.036   0.832 -3.0740  1.5008  0.5257
  640SOL    HW2 1920   1.826   3.044   0.711  1.7747 -2.8006 -0.4830
  641SOL     OW 1921   0.070   2.850   0.345  0.1968  0.1661  0.1825
  641SOL    HW1 1922   0.049   2.944   0.311  0.6601  1.2093  0.5839
  641SOL    HW2 1923   3.097   2.791   0.322  0.7119 -0.0295  1.5617
  642SOL     OW 1924   1.151   0.115   1.571  0.2989  0.2151  0.5365
  642SOL    HW1 1925   1.101   0.066   1.496 -0.9212  0.1485 -0.0852
  642SOL    HW2 1926   1.128   0.214   1.567  0.9676 -0.0410 -1.1369
  643SOL     OW 1927   0.516   1.574   2.097 -0.5613 -0.1310 -0.5215
  643SOL    HW1 1928   0.429   1.575   2.043  1.5803  0.9860 -1.5816
  643SOL    HW2 1929   0.514   1.636   2.177 -2.0294 -0.6992  0.4421
  644SOL     OW 1930   0.815   2.500   0.341 -0.0302  0.5851 -0.0917
  644SOL    HW1 1931   0.793   2.407   0.296 -2.6519 -1.4620 -1.6387
  644SOL    HW2 1932   0.894   2.549   0.300  0.5137 -0.2318 -3.9869
  645SOL     OW 1933   1.580   2.187   0.171  0.0030 -0.0058  0.1989
  645SOL    HW1 1934   1.580   2.264   0.103 -0.3688 -0.7419 -1.6902
  645SOL    HW2 1935   1.542   2.103   0.128  0.5817 -1.4233 -1.1843
  646SOL     OW 1936   0.207   1.567   3.033  0.7643 -0.1173  0.2309
  646SOL    HW1 1937   0.172   1.575   2.936 -0.6764 -3.0919  1.7577
  646SOL    HW2 1938   0.305   1.546   3.029  0.4268 -1.0100  2.9367
  647SOL     OW 1939   0.563   3.041   1.102  0.9423  0.7062  0.8222
  647SOL    HW1 1940   0.605   0.002   1.170  3.6797 -0.6041  1.3645
  647SOL    HW2 1941   0.481   3.084   1.061  0.4581  0.0784  0.1738
  648SOL     OW 1942   1.831   0.546   1.700  0.0565 -0.5393  0.5916
  648SOL    HW1 1943   1.853   0.451   1.739  0.1904 -3.6025  1.9812
  648SOL    HW2 1944   1.890   0.574   1.619 -2.1747 -0.8033 -1.8379
  649SOL     OW 1945   1.232   1.898   2.809  0.7362  0.3951 -0.2871
  649SOL    HW1 1946   1.287   1.820   2.782 -1.4341  0.5241 -1.9625
  649SOL    HW2 1947   1.169   1.873   2.885  1.3924 -1.8630  0.4727
  650SOL     OW 1948   2.794   1.649   2.159 -0.4299 -0.0030  0.3198
  650SOL    HW1 1949   2.798   1.736   2.215 -1.4622  0.1142  1.2033
  650SOL    HW2 1950   2.889   1.626   2.123  1.7935  2.2165 -1.0384
  651SOL     OW 1951   1.087   3.047   0.009 -0.7908  0.2561 -0.2023
  651SOL    HW1 1952   1.144   2.971   3.074 -1.1404  2.6050  0.7909
  651SOL    HW2 1953   1.150   0.016   0.047  0.3426 -0.3317  0.9981
  652SOL     OW 1954   2.810   1.917   0.123 -0.3498  0.1011  0.6137
  652SOL    HW1 1955   2.814   1.925   0.228  2.0230  1.6574  2.8514
  652SOL    HW2 1956   2.732   1.978   0.089 -4.1165  0.9617 -2.2199
  653SOL     OW 1957   0.148   0.048   0.858 -0.4690  0.3214  0.1745
  653SOL    HW1 1958   0.081   0.084   0.928 -0.7488  0.6236  0.8608
  653SOL    HW2 1959   0.242   0.056   0.897  0.7441  2.9528  2.1162
  654SOL     OW 1960   2.238   0.214   2.434  0.6718 -0.5060 -0.0267
  654SOL    HW1 1961   2.191   0.209   2.346 -0.7314 -0.0476  2.0517
  654SOL    HW2 1962   2.310   0.142   2.439 -1.3337 -0.6096  0.3481
  655SOL     OW 1963   0.327   2.528   1.135 -0.5172  0.2685 -0.2022
  655SOL    HW1 1964   0.273   2.529   1.043 -1.0236  1.2334 -0.6416
  655SOL    HW2 1965   0.316   2.443   1.191 -0.5880 -2.6317 -1.2645
  656SOL     OW 1966   2.957   2.881   2.417 -0.5277 -0.2037 -0.1276
  656SOL    HW1 1967   2.931   2.959   2.350 -0.6982 -0.6335 -1.6420
  656SOL    HW2 1968   3.055   2.846   2.395  2.8471 -1.0678  1.1313
  657SOL     OW 1969   2.632   0.497   2.425 -0.1994 -0.1426  0.1518
  657SOL    HW1 1970   2.628   0.532   2.331  0.4516  3.6233  0.7965
  657SOL    HW2 1971   2.716   0.444   2.442 -0.1456  1.6912  2.3682
  658SOL     OW 1972   2.232   1.962   0.853 -0.0479 -0.2742  0.3828
  658SOL    HW1 1973   2.332   1.942   0.866 -2.2696 -0.1022 -0.1349
  658SOL    HW2 1974   2.220   2.050   0.802 -3.7576 -0.4305 -1.4136
  659SOL     OW 1975   2.448   2.858   0.004  0.0548  0.5826 -0.4424
  659SOL    HW1 1976   2.360   2.828   3.067  0.2871  2.5038 -0.6174
  659SOL    HW2 1977   2.522   2.789   3.092 -3.3335 -1.0798 -0.9655
  660SOL     OW 1978   1.644   1.167   2.713  0.5148  0.4472  0.3480
  660SOL    HW1 1979   1.637   1.252   2.767  0.5427 -0.8398 -0.6888
  660SOL    HW2 1980   1.595   1.088   2.758  0.9242 -0.5837 -1.0419
  661SOL     OW 1981   2.422   2.471   1.138 -0.1457  0.2375 -0.4365
  661SOL    HW1 1982   2.449   2.379   1.098 -0.4199  2.3135  3.1878
  661SOL    HW2 1983   2.466   2.484   1.228 -1.3192 -0.3597  0.3488
  662SOL     OW 1984   0.765   0.917   0.235 -0.1583  0.1703  0.0283
  662SOL    HW1 1985   0.728   0.876   0.151  1.4996 -3.3743 -1.5173
  662SOL    HW2 1986   0.693   0.938   0.305  0.6048  0.6993 -1.3980
  663SOL     OW 1987   1.884   2.465   0.385  0.2894  0.5199 -0.4117
  663SOL    HW1 1988   1.859   2.362   0.384 -0.7670 -3.6227  0.2095
  663SOL    HW2 1989   1.968   2.489   0.330 -2.2172  0.9031 -1.5413
  664SOL     OW 1990   0.659   2.088   1.673 -0.1636 -0.1677 -0.2897
  664SOL    HW1 1991   0.735   2.099   1.605  1.8169  1.8990  0.4085
  664SOL    HW2 1992   0.695   2.046   1.761  0.7317 -1.1233  2.9290
  665SOL     OW 1993   1.651   2.166   2.243  0.4312  0.0545 -0.5254
  665SOL    HW1 1994   1.747   2.182   2.216  1.3089  2.3114  0.3761
  665SOL    HW2 1995   1.637   2.101   2.321  0.4457  2.5561 -2.3421
  666SOL     OW 1996   0.196   2.341   0.139  0.7087  0.2893 -0.0713
  666SOL    HW1 1997   0.281   2.290   0.165 -1.4091 -1.6231  1.6305
  666SOL    HW2 1998   0.157   2.329   0.046  1.3704 -1.2417  1.4617
  667SOL     OW 1999   2.271   1.599   1.919  0.7901 -0.3803 -0.0262
  667SOL    HW1 2000   2.303   1.680   1.863  1.0654  1.2157  0.8256
  667SOL    HW2 2001   2.217   1.541   1.856  1.0865  0.5175  0.4887
  668SOL     OW 2002   0.415   0.682   2.620  0.0407  0.1554  0.2893
  668SOL    HW1 2003   0.457   0.686   2.528  0.3451  1.2335 -2.0175
  668SOL    HW2 2004   0.490   0.682   2.693  1.3760  1.8085 -0.2040
  669SOL     OW 2005   1.699   2.427   0.055 -0.3554 -0.5558 -0.3875
  669SOL    HW1 2006   1.658   2.521   0.049  2.6015 -1.3997  2.0098
  669SOL    HW2 2007   1.795   2.429   0.016  1.8489  0.2303  0.1316
  670SOL     OW 2008   2.408   1.908   2.988 -0.1330 -0.0693 -0.0875
  670SOL    HW1 2009   2.393   1.900   2.886  0.8995 -0.8700  0.8129
  670SOL    HW2 2010   2.399   1.815   3.029 -1.6376  1.4603 -0.7803
  671SOL     OW 2011   0.156   1.280   1.169  0.9248 -0.8799  0.0125
  671SOL    HW1 2012   0.167   1.283   1.069  0.3236  0.2510 -0.5415
  671SOL    HW2 2013   0.093   1.208   1.189  2.5732 -0.8254 -0.2983
  672SOL     OW 2014   2.590   0.813   2.220  0.3890  0.0748  0.3524
  672SOL    HW1 2015   2.645   0.872   2.158  2.5226  1.3881  0.8613
  672SOL    HW2 2016   2.582   0.846   2.315 -2.6161  0.7397  0.8516
  673SOL     OW 2017   2.328   2.593   2.288  0.2692  0.0418 -0.6340
  673SOL    HW1 2018   2.293   2.556   2.373  1.1650  0.5076 -0.4993
  673SOL    HW2 2019   2.274   2.575   2.208  1.6677 -0.1742  1.1805
  674SOL     OW 2020   1.280   2.602   2.111 -0.1710 -0.4644  0.1093
  674SOL    HW1 2021   1.258   2.510   2.069  2.0552 -0.9048  1.0360
  674SOL    HW2 2022   1.335   2.587   2.189 -1.1824  0.0838 -3.5697
  675SOL     OW 2023   0.704   0.660   1.236  0.6956  0.3968 -0.0485
  675SOL    HW1 2024   0.620   0.664   1.177  0.4280 -1.2889  0.1733
  675SOL    HW2 2025   0.674   0.673   1.331 -0.9806  0.5504 -2.3134
  676SOL     OW 2026   1.804   0.878   0.836  0.0941  0.3926  0.0372
  676SOL    HW1 2027   1.716   0.841   0.805  2.3323 -1.0972  1.9864
  676SOL    HW2 2028   1.843   0.929   0.757  0.1603  3.2715  2.2462
  677SOL     OW 2029   0.018   1.646   2.535  0.8249  0.7004 -0.0965
  677SOL    HW1 2030   0.078   1.632   2.452 -0.6187  2.3029  2.0183
  677SOL    HW2 2031   3.027   1.628   2.504  1.9414 -0.2272  1.1422
  678SOL     OW 2032   2.524   2.011   1.063  0.3655 -0.3078 -0.2550
  678SOL    HW1 2033   2.507   1.944   0.984 -0.4422 -2.8415 -0.9391
  678SOL    HW2 2034   2.447   2.010   1.129  0.9037 -2.0591 -1.4002
  679SOL     OW 2035   1.807   2.710   0.579 -0.6127 -0.3319  0.2005
  679SOL    HW1 2036   1.764   2.687   0.490 -1.2792  0.7191 -0.5331
  679SOL    HW2 2037   1.792   2.638   0.654 -0.0282  0.9348 -1.0477
  680SOL     OW 2038   0.453   2.490   2.042  0.3562 -0.0219  0.2014
  680SOL    HW1 2039   0.535   2.465   2.094 -1.1247  2.0317  1.0331
  680SOL    HW2 2040   0.398   2.404   2.021 -0.6296 -0.3136  1.7396
  681SOL     OW 2041   2.701   1.477   1.800 -0.3813 -0.1282  0.0730
  681SOL    HW1 2042   2.804   1.460   1.802  1.6029  0.4260 -1.4889
  681SOL    HW2 2043   2.673   1.542   1.875 -0.8749 -0.5124 -0.3815
  682SOL     OW 2044   0.653   1.512   0.995  0.2981  0.1104  0.4974
  682SOL    HW1 2045   0.568   1.535   0.935 -0.2980  2.4716  0.1332
  682SOL    HW2 2046   0.627   1.472   1.089 -1.2985  0.4070  4.1945
  683SOL     OW 2047   2.195   1.426   1.095  0.4990 -0.0756 -0.5588
  683SOL    HW1 2048   2.238   1.436   1.000 -1.4619  2.3936 -0.8194
  683SOL    HW2 2049   2.099   1.460   1.092 -1.4142 -2.0202 -2.2021
  684SOL     OW 2050   2.728   1.697   2.984  0.4451  0.0864  0.1576
  684SOL    HW1 2051   2.688   1.662   2.897 -1.0037 -1.3599 -1.7690
  684SOL    HW2 2052   2.677   1.692   3.070 -1.0844 -1.0707  0.0050
  685SOL     OW 2053   1.648   1.180   3.066 -0.2901  0.0813  0.0767
  685SOL    HW1 2054   1.652   1.266   3.015  1.1189  0.7315 -1.6161
  685SOL    HW2 2055   1.558   1.135   3.069 -1.1820 -0.8256  0.7222
  686SOL     OW 2056   0.389   0.520   1.319  0.2341  0.1618  0.0185
  686SOL    HW1 2057   0.445   0.570   1.383 -2.3338  1.1663  0.7610
  686SOL    HW2 2058   0.329   0.451   1.365 -2.2024 -0.4459 -2.1771
  687SOL     OW 2059   1.178   2.158   2.716 -0.0050  0.3450 -0.1328
  687SOL    HW1 2060   1.211   2.075   2.767  0.5752 -2.2978  3.4537
  687SOL    HW2 2061   1.219   2.240   2.751 -1.1745  0.3071 -0.0791
  688SOL     OW 2062   0.387   1.546   1.425 -0.1110 -0.0174  0.1750
  688SOL    HW1 2063   0.424   1.597   1.500  2.8548 -0.0628 -3.1529
  688SOL    HW2 2064   0.335   1.614   1.367 -0.4258  1.6040  0.1183
  689SOL     OW 2065   1.256   1.110   1.715  0.2638 -0.5398  0.7015
  689SOL    HW1 2066   1.197   1.162   1.776  0.9902 -3.2038 -0.3435
  689SOL    HW2 2067   1.335   1.157   1.672  0.4534 -1.0139  2.0379
  690SOL     OW 2068   2.639   0.842   1.297  0.1758 -0.5992 -0.5059
  690SOL    HW1 2069   2.644   0.772   1.375 -1.0391  2.4663  1.9968
  690SOL    HW2 2070   2.728   0.860   1.253 -1.4142  0.8014 -0.3821
  691SOL     OW 2071   0.714   2.170   1.981  0.2076 -0.0097  0.1856
  691SOL    HW1 2072   0.774   2.154   2.058 -3.0892  0.2179 -2.5237
  691SOL    HW2 2073   0.741   2.264   1.940 -0.8239  0.4651  0.3615
  692SOL     OW 2074   1.987   0.158   1.032  0.4815 -0.1244 -0.6375
  692SOL    HW1 2075   2.013   0.249   0.990 -0.9760  0.1350  0.0348
  692SOL    HW2 2076   1.923   0.184   1.108 -0.7139 -0.4744  2.5137
  693SOL     OW 2077   0.394   1.125   2.070  0.1072 -0.2969  0.2718
  693SOL    HW1 2078   0.415   1.188   2.146 -2.3149  0.9051 -3.5432
  693SOL    HW2 2079   0.354   1.035   2.093  0.2508  0.8316 -0.6520
  694SOL     OW 2080   2.155   0.458   1.248  0.4107  0.1604  0.0842
  694SOL    HW1 2081   2.121   0.422   1.337 -2.2581 -3.7713 -1.5176
  694SOL    HW2 2082   2.259   0.454   1.247  1.7954  2.5351  0.7153
  695SOL     OW 2083   1.195   1.468   1.668 -0.6328  0.3850  0.0551
  695SOL    HW1 2084   1.172   1.568   1.667 -0.4249  3.0155 -1.0642
  695SOL    HW2 2085   1.114   1.413   1.631  3.0714 -1.7888 -0.0525
  696SOL     OW 2086   1.279   2.563   0.213  0.0118 -0.2865 -0.2124
  696SOL    HW1 2087   1.306   2.662   0.202  1.8983  0.5132  0.0948
  696SOL    HW2 2088   1.346   2.513   0.274  0.9134  0.2466 -0.5278
  697SOL     OW 2089   0.975   0.390   0.686  0.2606 -0.2220  0.0735
  697SOL    HW1 2090   0.936   0.405   0.598  1.2125  0.6501  2.2524
  697SOL    HW2 2091   1.079   0.393   0.677  3.0037 -1.3341  0.0923
  698SOL     OW 2092   1.344   1.745   2.426 -0.5666 -0.1625  0.0015
  698SOL    HW1 2093   1.344   1.646   2.401  0.5720 -0.1227  1.9355
  698SOL    HW2 2094   1.319   1.796   2.344  0.9910 -0.4826 -1.8103
  699SOL     OW 2095   1.438   0.980   1.325  0.0274 -0.6141  0.1640
  699SOL    HW1 2096   1.492   1.056   1.281  0.0442 -0.3621  0.2449
  699SOL    HW2 2097   1.473   0.957   1.418 -2.1146  1.6096  2.9932
  700SOL     OW 2098   0.953   2.854   0.592 -0.6576  0.1808  0.7906
  700SOL    HW1 2099   0.857   2.848   0.570 -0.7706 -0.1630 -1.9910
  700SOL    HW2 2100   0.975   2.937   0.650  0.7237  2.5149 -0.1857
  701SOL     OW 2101   2.436   0.013   2.450  0.1263 -0.2582  0.3891
  701SOL    HW1 2102   2.474   0.009   2.544 -2.7595 -1.8578  0.9886
  701SOL    HW2 2103   2.418   3.022   2.418 -0.1196 -0.1461  0.8508
  702SOL     OW 2104   1.116   0.349   2.928  0.1965 -0.4273 -0.1209
  702SOL    HW1 2105   1.199   0.330   2.987  3.6689 -0.0149  1.3694
  702SOL    HW2 2106   1.050   0.407   2.977 -0.7657 -0.7992 -0.3900
  703SOL     OW 2107   2.419   2.829   2.432 -0.5050 -0.3391  0.1717
  703SOL    HW1 2108   2.382   2.749   2.390 -0.8306 -0.9484 -0.7780
  703SOL    HW2 2109   2.515   2.821   2.467 -0.0954  1.0991  0.6242
  704SOL     OW 2110   0.180   2.242   0.905  0.1597 -0.5852  0.2321
  704SOL    HW1 2111   0.095   2.185   0.896  0.9587 -4.1713 -0.4260
  704SOL    HW2 2112   0.156   2.334   0.947 -1.3120  1.9279 -1.6639
  705SOL     OW 2113   2.733   0.034   2.113 -0.1419  0.0142 -0.9503
  705SOL    HW1 2114   2.821   0.077   2.091 -1.0807  0.8370  2.0266
  705SOL    HW2 2115   2.727   3.048   2.070  0.4039 -0.4160  1.0573
  706SOL     OW 2116   1.874   3.036   0.353 -0.0447 -0.4811  0.3067
  706SOL    HW1 2117   1.848   2.968   0.277  1.2328 -0.2542  0.4417
  706SOL    HW2 2118   1.800   3.100   0.366  0.3624  0.3358  0.7903
  707SOL     OW 2119   1.072   1.740   2.207  0.4547  0.2499  0.3251
  707SOL    HW1 2120   1.062   1.782   2.300 -1.0609  0.0817  2.7133
  707SOL    HW2 2121   0.980   1.719   2.162 -0.1046  0.3024 -2.2013
  708SOL     OW 2122   0.133   2.542   1.749 -0.2765  0.0918 -0.1867
  708SOL    HW1 2123   0.175   2.450   1.740  0.5014 -0.0768 -1.9516
  708SOL    HW2 2124   0.204   2.607   1.784  0.0624 -0.0477  0.0242
  709SOL     OW 2125   1.991   3.074   1.932  0.0541  0.0839  0.0409
  709SOL    HW1 2126   2.016   2.976   1.912 -0.1457  1.6769  1.7351
  709SOL    HW2 2127   1.938   0.013   1.858  0.5415  0.7895  0.0095
  710SOL     OW 2128   2.194   0.719   2.286  0.0154  0.3782  0.0639
  710SOL    HW1 2129   2.101   0.759   2.283  1.7932 -1.4779  0.8939
  710SOL    HW2 2130   2.256   0.765   2.352  0.4256 -0.5300  0.7788
  711SOL     OW 2131   0.927   2.154   0.014 -0.8084 -0.5530 -0.6170
  711SOL    HW1 2132   0.875   2.199   0.090  0.4669 -0.1153 -0.2491
  711SOL    HW2 2133   0.953   2.224   3.051 -1.4847  0.2841 -4.7358
  712SOL     OW 2134   0.662   2.424   2.193  0.1446  0.4229  0.4189
  712SOL    HW1 2135   0.671   2.327   2.232 -0.2543 -2.9568 -0.6404
  712SOL    HW2 2136   0.680   2.494   2.263 -1.0044 -2.2459 -1.7227
  713SOL     OW 2137   1.758   1.190   0.222 -0.1407 -0.2167 -0.2646
  713SOL    HW1 2138   1.717   1.204   0.126 -0.9308  0.7034 -2.0797
  713SOL    HW2 2139   1.852   1.229   0.233  0.4031  3.5394 -0.3582
  714SOL     OW 2140   0.493   1.242   1.205  0.1744 -0.1388  0.6210
  714SOL    HW1 2141   0.413   1.306   1.198 -0.0554  1.9422  1.7028
  714SOL    HW2 2142   0.561   1.273   1.279  1.9118 -0.0269  0.2752
  715SOL     OW 2143   2.122   0.301   2.898  0.3875  0.2470 -0.0504
  715SOL    HW1 2144   2.060   0.383   2.897  0.0143 -0.3304 -2.5703
  715SOL    HW2 2145   2.151   0.271   2.992 -1.6836 -1.9838  1.7120
  716SOL     OW 2146   2.659   2.879   2.058  0.2878  0.2891 -0.6224
  716SOL    HW1 2147   2.574   2.879   2.008  0.1407  1.2876  2.0555
  716SOL    HW2 2148   2.722   2.828   1.998 -1.1069 -1.3433 -2.3740
  717SOL     OW 2149   3.098   0.802   0.806 -0.7596 -0.4515  0.5124
  717SOL    HW1 2150   0.076   0.765   0.754  5.0853  0.6591 -0.4202
  717SOL    HW2 2151   3.085   0.761   0.898 -2.5545  0.6575 -0.1562
  718SOL     OW 2152   0.637   1.403   2.474  0.2873 -0.1239  0.3285
  718SOL    HW1 2153   0.619   1.506   2.456 -0.0302  1.0487 -2.9196
  718SOL    HW2 2154   0.645   1.366   2.379 -0.8553  1.9274 -0.3251
  719SOL     OW 2155   2.429   1.366   3.050 -0.2665 -0.2295 -0.3462
  719SOL    HW1 2156   2.483   1.362   0.030  1.9822 -0.2552 -0.2760
  719SOL    HW2 2157   2.493   1.354   2.973 -0.2422 -0.1822  0.6002
  720SOL     OW 2158   1.223   0.755   0.883  0.2464 -0.3209 -0.0045
  720SOL    HW1 2159   1.186   0.735   0.973  0.8633 -3.0286  3.3060
  720SOL    HW2 2160   1.172   0.830   0.833 -0.4828 -0.4759 -0.4354
  721SOL     OW 2161   2.736   0.413   0.071  0.4937  0.4955 -0.0310
  721SOL    HW1 2162   2.736   0.332   0.010 -0.9211  0.2256  2.3024
  721SOL    HW2 2163   2.806   0.476   0.036 -0.6625  0.2500 -3.0155
  722SOL     OW 2164   1.986   0.746   2.736 -0.2735  0.2704  0.1917
  722SOL    HW1 2165   2.013   0.843   2.757  0.8563  0.0102 -2.0484
  722SOL    HW2 2166   2.009   0.722   2.644 -1.0861 -1.0159  1.4776
  723SOL     OW 2167   2.734   0.746   0.328 -0.0797 -0.2951 -0.4586
  723SOL    HW1 2168   2.761   0.675   0.398  1.8041  1.3505  0.8325
  723SOL    HW2 2169   2.812   0.807   0.308  1.9461 -0.4598  0.4637
  724SOL     OW 2170   0.856   1.648   2.063 -0.1027  0.1851 -0.2091
  724SOL    HW1 2171   0.824   1.620   1.969 -0.2521 -0.9796  2.4591
  724SOL    HW2 2172   0.860   1.567   2.125 -0.2770 -0.3771  0.6639
  725SOL     OW 2173   2.104   0.958   2.005  0.0318 -0.1498 -0.0233
  725SOL    HW1 2174   2.167   1.034   2.033 -1.0249  0.8867  1.7469
  725SOL    HW2 2175   2.025   1.002   1.956 -0.6877  2.6212 -0.2364
  726SOL     OW 2176   1.504   2.841   0.436 -0.3218  0.2840  0.0038
  726SOL    HW1 2177   1.580   2.780   0.407  2.5951 -2.7464  2.0681
  726SOL    HW2 2178   1.432   2.779   0.466  1.8786  2.2300 -0.3489
  727SOL     OW 2179   1.682   1.589   2.218 -0.5825  0.3982  0.4140
  727SOL    HW1 2180   1.625   1.510   2.175 -0.7111 -2.8241 -1.7807
  727SOL    HW2 2181   1.647   1.681   2.201  2.1797 -1.3186 -0.0746
  728SOL     OW 2182   1.716   2.795   1.566 -0.1415 -0.2381  0.2382
  728SOL    HW1 2183   1.659   2.776   1.650  0.7609  0.8590  0.6145
  728SOL    HW2 2184   1.772   2.716   1.543  0.5265  0.8241 -0.8688
  729SOL     OW 2185   2.140   1.176   1.029 -0.9811  0.0679  0.4079
  729SOL    HW1 2186   2.167   1.260   1.075 -3.8172 -1.0715 -0.3403
  729SOL    HW2 2187   2.216   1.137   0.976 -0.6307 -1.4295 -0.0318
  730SOL     OW 2188   0.417   1.240   2.575  0.1043  0.5219  0.1563
  730SOL    HW1 2189   0.471   1.321   2.596 -0.8271 -0.4978 -2.1555
  730SOL    HW2 2190   0.470   1.154   2.578 -1.5418  3.1810  0.6359
  731SOL     OW 2191   0.191   0.125   0.584  0.1488  0.1788 -0.0058
  731SOL    HW1 2192   0.162   0.089   0.493 -1.0922  0.0495 -0.7696
  731SOL    HW2 2193   0.136   0.081   0.661 -1.8829 -0.6758 -0.6202
  732SOL     OW 2194   1.306   0.845   0.352  0.1520  0.0621  0.6617
  732SOL    HW1 2195   1.312   0.885   0.263  0.1710 -0.0035  0.6812
  732SOL    HW2 2196   1.213   0.803   0.373  0.8843  1.8165 -0.3889
  733SOL     OW 2197   0.641   1.717   0.704  0.5061  0.6083  0.6787
  733SOL    HW1 2198   0.575   1.644   0.704  4.9215 -1.5354 -0.8070
  733SOL    HW2 2199   0.633   1.766   0.615  0.1456 -1.9897  1.0212
  734SOL     OW 2200   0.002   2.348   3.001  0.1201  0.1363  0.5420
  734SOL    HW1 2201   3.089   2.258   2.955  1.9864  0.7128  2.3948
  734SOL    HW2 2202   3.041   2.363   3.074  2.9295  1.5697  0.4775
  735SOL     OW 2203   1.226   0.666   1.218 -0.0896 -0.0006  0.2132
  735SOL    HW1 2204   1.199   0.587   1.159  1.5845 -2.5883 -0.0608
  735SOL    HW2 2205   1.325   0.682   1.212 -1.9983  1.7039 -1.6799
  736SOL     OW 2206   2.278   2.492   3.096  0.1868 -0.2382  0.0460
  736SOL    HW1 2207   2.286   2.589   3.062 -1.4397 -1.0160 -3.8090
  736SOL    HW2 2208   2.231   2.485   0.083 -1.0257 -2.5170 -0.1157
  737SOL     OW 2209   2.590   0.279   0.797 -0.2635 -0.2278  0.2176
  737SOL    HW1 2210   2.579   0.239   0.707 -2.0890  2.2531  2.1766
  737SOL    HW2 2211   2.522   0.235   0.862 -2.2938 -1.6572  1.5985
  738SOL     OW 2212   2.376   0.148   0.914 -0.5954  0.2267  0.2666
  738SOL    HW1 2213   2.357   0.148   1.014 -0.3801  0.8758 -2.8850
  738SOL    HW2 2214   2.320   0.078   0.861 -1.7613 -2.1819 -2.1169
  739SOL     OW 2215   1.471   2.478   0.383  0.2463  0.4341  0.5371
  739SOL    HW1 2216   1.523   2.389   0.394  0.4777  1.4422 -0.3265
  739SOL    HW2 2217   1.430   2.509   0.470  1.3751 -2.8285 -0.1165
  740SOL     OW 2218   1.589   0.439   0.967 -0.6154 -0.3258  0.4634
  740SOL    HW1 2219   1.533   0.509   0.926 -1.3396  1.7167  0.6087
  740SOL    HW2 2220   1.688   0.464   0.968  0.9235 -0.5516  1.6743
  741SOL     OW 2221   2.658   0.825   0.893 -0.2881  0.0691 -0.3115
  741SOL    HW1 2222   2.726   0.852   0.822  1.6972 -0.8517  0.8104
  741SOL    HW2 2223   2.585   0.896   0.899 -0.7581 -0.1842  0.5014
  742SOL     OW 2224   0.884   1.620   2.428 -0.0759 -0.9214 -0.1565
  742SOL    HW1 2225   0.963   1.682   2.419 -1.5169  2.9941 -0.3842
  742SOL    HW2 2226   0.801   1.677   2.435 -1.3009 -1.9885 -0.6406
  743SOL     OW 2227   1.662   0.599   1.907  0.2001 -0.3226  0.1486
  743SOL    HW1 2228   1.707   0.585   1.814  0.8054  1.1304  0.6891
  743SOL    HW2 2229   1.716   0.666   1.960  0.2233 -2.5298 -2.7475
  744SOL     OW 2230   2.167   0.819   1.496 -0.5306  0.1557 -0.2701
  744SOL    HW1 2231   2.195   0.808   1.399 -0.2608  3.3046 -0.9676
  744SOL    HW2 2232   2.187   0.907   1.540  1.1526 -0.7673 -0.7683
  745SOL     OW 2233   1.606   1.598   1.427  0.0060 -0.2277  0.1259
  745SOL    HW1 2234   1.625   1.586   1.328  1.5243  1.6745 -2.3090
  745SOL    HW2 2235   1.632   1.511   1.479  0.7024 -0.6537  0.0198
  746SOL     OW 2236   1.996   1.837   0.829  0.1539  0.3931 -1.3799
  746SOL    HW1 2237   1.951   1.847   0.925  0.8318 -0.1226  1.9813
  746SOL    HW2 2238   2.091   1.871   0.842 -1.1230 -0.8402 -1.0384
  747SOL     OW 2239   2.324   1.562   0.859  0.3255 -0.3434 -0.7634
  747SOL    HW1 2240   2.365   1.651   0.871 -2.4515 -2.0033 -0.8242
  747SOL    HW2 2241   2.262   1.559   0.775 -2.5040 -0.5071 -1.9772
  748SOL     OW 2242   0.447   2.090   0.902 -0.6988  0.4811  0.1150
  748SOL    HW1 2243   0.435   2.162   0.838  2.1406 -2.8243 -0.3200
  748SOL    HW2 2244   0.425   2.128   0.995  2.1829  0.8423  1.1734
  749SOL     OW 2245   2.314   2.918   1.994  0.3800  0.1392  0.5789
  749SOL    HW1 2246   2.225   2.895   2.038  0.1968  0.9860 -2.5269
  749SOL    HW2 2247   2.324   3.019   1.986  1.0397  1.7232 -2.6576
  750SOL     OW 2248   2.301   0.642   0.908 -0.5784 -0.2131  0.1706
  750SOL    HW1 2249   2.239   0.696   0.851  1.7957  1.8397  0.5976
  750SOL    HW2 2250   2.342   0.699   0.979  0.4245  1.5810 -1.4343
  751SOL     OW 2251   2.579   2.880   0.443 -0.2079 -0.2771  0.6364
  751SOL    HW1 2252   2.566   2.780   0.430  0.7356 -4.1155 -2.6375
  751SOL    HW2 2253   2.603   2.921   0.346  2.1786 -1.4797 -1.2159
  752SOL     OW 2254   0.389   2.972   0.666  0.3746 -0.1598  0.6392
  752SOL    HW1 2255   0.471   2.981   0.727  2.3199 -2.3587 -1.6429
  752SOL    HW2 2256   0.384   3.055   0.610 -1.1882 -0.5718 -0.8224
  753SOL     OW 2257   1.796   0.801   2.016  0.5951 -0.0733  0.2106
  753SOL    HW1 2258   1.878   0.750   1.985 -1.5537  0.8769  1.1705
  753SOL    HW2 2259   1.777   0.889   1.968 -1.5173  1.0426  0.7248
  754SOL     OW 2260   1.214   2.357   1.976 -0.1492 -0.2275  0.2735
  754SOL    HW1 2261   1.129   2.350   1.919  2.8287  1.5216 -2.0133
  754SOL    HW2 2262   1.296   2.363   1.916 -1.0386  3.6995  0.3149
  755SOL     OW 2263   2.616   0.653   0.675  0.1710 -0.1776 -0.3849
  755SOL    HW1 2264   2.622   0.702   0.768 -0.4499  3.0727  2.4870
  755SOL    HW2 2265   2.552   0.710   0.615 -1.3365 -0.4629 -2.3536
  756SOL     OW 2266   1.055   1.775   2.977 -0.3701 -0.6156 -0.3067
  756SOL    HW1 2267   1.037   1.677   2.975 -0.1282  1.3439  2.6470
  756SOL    HW2 2268   0.970   1.832   2.962 -0.6220 -0.5753  0.3741
  757SOL     OW 2269   0.985   3.066   0.747  0.7020 -0.0321  0.4305
  757SOL    HW1 2270   1.041   3.023   0.817 -2.3742 -2.0730 -1.7817
  757SOL    HW2 2271   0.917   0.025   0.790 -2.0371  0.5948  2.1402
  758SOL     OW 2272   0.985   0.017   1.045  0.2208  0.5368 -0.1415
  758SOL    HW1 2273   1.010   3.036   0.996  2.9956 -0.9543 -1.9775
  758SOL    HW2 2274   1.006   0.031   1.147 -0.2465 -0.7526  0.1843
  759SOL     OW 2275   0.298   0.496   0.765 -0.3675 -0.3548  0.2454
  759SOL    HW1 2276   0.256   0.560   0.704  1.7634  0.7740  0.2615
  759SOL    HW2 2277   0.239   0.492   0.857 -4.0135 -0.6953  1.5766
  760SOL     OW 2278   2.591   1.101   1.312  0.1581  0.2882  0.1204
  760SOL    HW1 2279   2.594   0.999   1.317 -1.6628  3.5288 -1.0195
  760SOL    HW2 2280   2.673   1.141   1.262 -0.9412  2.2742 -1.8292
  761SOL     OW 2281   1.828   0.560   0.725 -0.4264  0.1733 -0.4530
  761SOL    HW1 2282   1.757   0.506   0.676 -1.8838 -3.3875 -2.2190
  761SOL    HW2 2283   1.850   0.519   0.813 -0.0506  0.4333  0.8965
  762SOL     OW 2284   2.202   2.213   0.740  0.1840 -0.5876  0.2371
  762SOL    HW1 2285   2.191   2.245   0.648 -0.1730 -2.1870  2.8674
  762SOL    HW2 2286   2.147   2.264   0.813  0.2624  0.4610  0.4546
  763SOL     OW 2287   1.349   1.431   1.891  0.8521  0.1588  0.0956
  763SOL    HW1 2288   1.293   1.456   1.969  3.0777 -2.4574  0.6009
  763SOL    HW2 2289   1.294   1.425   1.808 -1.3403  1.6428 -0.3751
  764SOL     OW 2290   2.576   2.065   2.354 -0.2129  0.0068 -0.4734
  764SOL    HW1 2291   2.548   2.128   2.430 -1.8595  0.2665  1.0201
  764SOL    HW2 2292   2.532   2.099   2.268  0.9145  1.7214  3.0494
  765SOL     OW 2293   0.691   2.435   1.187  0.5788 -0.5071 -0.1595
  765SOL    HW1 2294   0.616   2.406   1.127  1.2244 -0.4144  0.1051
  765SOL    HW2 2295   0.733   2.518   1.159  0.0446 -0.7839  4.2173
  766SOL     OW 2296   0.360   1.752   2.305  0.3145  0.1138  0.7254
  766SOL    HW1 2297   0.272   1.696   2.309 -1.8322  1.4891 -1.5456
  766SOL    HW2 2298   0.361   1.804   2.212  3.4203  0.7252 -1.6759
  767SOL     OW 2299   2.339   0.825   2.747  0.2338 -0.2225  0.4328
  767SOL    HW1 2300   2.371   0.739   2.702  1.4815 -0.5799 -3.1536
  767SOL    HW2 2301   2.345   0.819   2.847 -0.0713 -0.4986 -0.4212
  768SOL     OW 2302   0.873   3.054   2.713  0.1450  0.9391  0.8287
  768SOL    HW1 2303   0.916   0.009   2.779 -0.8800 -3.4972 -3.9760
  768SOL    HW2 2304   0.817   0.015   2.656 -0.5841  0.5713 -1.7038
  769SOL     OW 2305   0.222   2.583   0.886 -1.0124  0.2390  0.0034
  769SOL    HW1 2306   0.215   2.542   0.790 -1.0060  0.3419 -2.4829
  769SOL    HW2 2307   0.237   2.680   0.872  0.2068 -2.3176 -0.8111
  770SOL     OW 2308   0.812   3.081   0.040 -0.2581  0.1935 -0.4143
  770SOL    HW1 2309   0.904   3.094   0.076 -1.1850 -2.2044  0.6539
  770SOL    HW2 2310   0.743   0.010   0.108  1.3990  1.5019 -0.0044
  771SOL     OW 2311   0.960   2.036   2.599  0.2782  0.2130 -0.1239
  771SOL    HW1 2312   1.045   2.064   2.654  0.8629 -0.8059 -1.4435
  771SOL    HW2 2313   0.900   2.117   2.590 -1.0991  0.0438  0.7175
  772SOL     OW 2314   2.206   0.063   2.082 -0.4620 -0.0924  0.0789
  772SOL    HW1 2315   2.134   0.033   2.011  0.8180 -0.9978 -1.5099
  772SOL    HW2 2316   2.173   0.145   2.131 -0.5121  0.0259  1.1408
  773SOL     OW 2317   1.333   0.137   2.029  0.0587  0.5883 -0.0857
  773SOL    HW1 2318   1.363   0.108   2.122 -0.2036  0.2954  3.0526
  773SOL    HW2 2319   1.382   0.083   1.955 -0.6691  0.4276 -1.8561
  774SOL     OW 2320   1.234   0.852   1.661 -0.0948  0.2030 -0.8692
  774SOL    HW1 2321   1.227   0.946   1.693  1.7372 -0.9448  2.0529
  774SOL    HW2 2322   1.225   0.792   1.741  0.2574  1.1383 -1.9106
  775SOL     OW 2323   2.281   2.951   0.226 -0.2954 -0.0020 -0.0425
  775SOL    HW1 2324   2.291   2.950   0.328  0.9640 -0.6778  0.2676
  775SOL    HW2 2325   2.369   2.930   0.181 -1.4876  1.7261  1.1947
  776SOL     OW 2326   2.233   1.228   1.926 -0.8778 -0.4056 -0.2162
  776SOL    HW1 2327   2.163   1.262   1.863 -0.2499 -0.6002  0.2216
  776SOL    HW2 2328   2.325   1.267   1.909  3.1184  1.4136  0.1409
  777SOL     OW 2329   0.071   1.237   2.547 -0.2370  0.1882  0.7059
  777SOL    HW1 2330   0.112   1.139   2.545  2.1475 -2.5546  1.1593
  777SOL    HW2 2331   0.090   1.286   2.457 -1.4961  0.3867 -1.5159
  778SOL     OW 2332   2.392   1.064   2.582  0.4172  0.4259 -0.3131
  778SOL    HW1 2333   2.352   1.013   2.660  0.0136 -1.1734 -0.9570
  778SOL    HW2 2334   2.455   1.000   2.539 -2.0892  0.7486 -0.1807
  779SOL     OW 2335   3.074   0.343   2.600 -0.2548 -0.0298 -0.4426
  779SOL    HW1 2336   0.063   0.376   2.618 -0.4486 -0.6763 -3.3779
  779SOL    HW2 2337   3.069   0.251   2.550 -1.4830 -0.2645 -1.0146
  780SOL     OW 2338   2.147   2.945   2.380  0.0162 -0.5674  0.4770
  780SOL    HW1 2339   2.148   2.982   2.290 -3.9620 -0.3130  1.2277
  780SOL    HW2 2340   2.244   2.915   2.403  0.4941  0.5298 -0.4295
  781SOL     OW 2341   2.953   1.009   1.811 -0.3512  0.0882 -0.5371
  781SOL    HW1 2342   2.892   0.931   1.837 -1.6117  0.7010 -1.4701
  781SOL    HW2 2343   2.899   1.085   1.770 -0.2576  0.8206 -1.6720
  782SOL     OW 2344   1.962   2.428   3.093 -0.1542 -0.2160 -0.3526
  782SOL    HW1 2345   2.000   2.431   0.081  0.9385 -1.5238 -0.7268
  782SOL    HW2 2346   2.035   2.427   3.019 -0.9984 -0.4405 -1.9653
  783SOL     OW 2347   0.379   2.152   1.178  0.1820  0.1826 -0.0825
  783SOL    HW1 2348   0.288   2.110   1.152 -1.6634 -0.7575 -0.1332
  783SOL    HW2 2349   0.368   2.227   1.249 -0.0893  2.0705 -0.4024
  784SOL     OW 2350   2.621   0.552   2.137  0.2033 -0.5291  0.2161
  784SOL    HW1 2351   2.529   0.513   2.110  1.2638  0.8788  0.3480
  784SOL    HW2 2352   2.618   0.653   2.135 -1.8316  2.1584 -0.4885
  785SOL     OW 2353   0.003   0.166   1.044  0.3634 -0.0048 -0.3792
  785SOL    HW1 2354   0.007   0.247   0.981  1.1045  1.9096 -0.9966
  785SOL    HW2 2355   3.076   0.200   1.136 -0.7880  1.3786 -0.9518
  786SOL     OW 2356   1.356   2.666   0.567 -0.2161  0.1655 -0.4454
  786SOL    HW1 2357   1.378   2.705   0.656  0.7879 -2.6272  0.2732
  786SOL    HW2 2358   1.261   2.631   0.565 -1.5433 -1.2058 -0.0031
  787SOL     OW 2359   1.363   0.153   0.719 -0.7390  0.2831  0.0039
  787SOL    HW1 2360   1.330   0.183   0.628 -0.0672 -1.9093  1.1454
  787SOL    HW2 2361   1.417   0.069   0.702 -0.2001 -1.1470 -2.6111
  788SOL     OW 2362   2.948   1.360   1.039 -0.3859 -0.4223 -0.2766
  788SOL    HW1 2363   2.950   1.416   0.957 -1.7720 -2.8655  1.6486
  788SOL    HW2 2364   2.975   1.410   1.124 -1.3402  2.1349 -1.3248
  789SOL     OW 2365   2.985   0.613   1.980 -0.2944 -0.3973 -0.1160
  789SOL    HW1 2366   2.921   0.692   1.955 -1.6049  0.7043 -2.2654
  789SOL    HW2 2367   2.932   0.563   2.047 -2.8078  2.6996 -1.4528
  790SOL     OW 2368   0.983   0.778   2.961 -0.4598 -0.2742 -0.2305
  790SOL    HW1 2369   1.063   0.754   2.902  0.1448  0.7721 -2.2596
  790SOL    HW2 2370   0.982   0.882   2.978  1.7652  1.6128  0.1334
  791SOL     OW 2371   3.060   2.658   3.093  0.5379  0.5044 -0.0645
  791SOL    HW1 2372   0.056   2.683   0.010 -0.1864  1.4923 -1.8843
  791SOL    HW2 2373   3.054   2.610   3.004 -2.2072  0.2508 -1.0700
  792SOL     OW 2374   1.387   0.639   2.015  0.0952 -0.0077  0.0897
  792SOL    HW1 2375   1.353   0.546   2.005 -0.7541  0.9910  1.6678
  792SOL    HW2 2376   1.488   0.644   1.990  1.5821  0.6877  0.0679
  793SOL     OW 2377   2.872   0.591   1.296 -0.1345 -0.0725 -0.0710
  793SOL    HW1 2378   2.823   0.538   1.371  1.2453  0.9442 -0.4260
  793SOL    HW2 2379   2.810   0.600   1.211 -2.1750 -0.7738 -4.0519
  794SOL     OW 2380   2.920   0.190   2.024 -0.5067  0.0403 -0.4808
  794SOL    HW1 2381   2.877   0.281   2.055 -0.8940  2.2400  1.9241
  794SOL    HW2 2382   3.021   0.188   2.046  1.0883  4.4390 -2.2021
  795SOL     OW 2383   0.513   1.857   0.107 -0.0583 -0.1417  0.0630
  795SOL    HW1 2384   0.454   1.914   0.161  0.3911 -0.5635  0.3107
  795SOL    HW2 2385   0.603   1.907   0.091  1.2418 -1.6369 -0.5983
  796SOL     OW 2386   2.856   0.825   0.012  0.0767 -0.5364 -0.1895
  796SOL    HW1 2387   2.888   0.921   0.020 -0.2644 -0.8833  0.7871
  796SOL    HW2 2388   2.774   0.820   3.055 -2.3417 -0.7282  0.6205
  797SOL     OW 2389   2.490   2.181   2.615 -0.0336 -0.0827  0.0427
  797SOL    HW1 2390   2.426   2.131   2.672  2.7404  1.7630 -0.5903
  797SOL    HW2 2391   2.482   2.279   2.625 -1.2848 -0.9699 -1.7540
  798SOL     OW 2392   2.856   0.046   0.995  0.1521  0.0272 -0.0776
  798SOL    HW1 2393   2.941   0.071   1.042 -1.0415 -1.8170  2.3937
  798SOL    HW2 2394   2.845   0.118   0.922 -1.4873  0.0421 -1.6002
  799SOL     OW 2395   0.255   0.071   1.509 -0.7296 -0.0992  1.1463
  799SOL    HW1 2396   0.177   0.044   1.449 -1.5931 -0.7516 -0.3966
  799SOL    HW2 2397   0.339   0.017   1.490 -0.8286 -1.2299  0.4184
  800SOL     OW 2398   0.332   1.615   0.384 -0.0979 -0.0125 -0.2338
  800SOL    HW1 2399   0.272   1.555   0.324 -0.2748 -2.6413 -0.1570
  800SOL    HW2 2400   0.425   1.585   0.372 -1.4288  1.5917 -1.7249
  801SOL     OW 2401   1.672   2.039   0.599  0.1361 -0.1875  0.1818
  801SOL    HW1 2402   1.637   1.980   0.677 -0.2630 -0.6634  1.4752
  801SOL    HW2 2403   1.760   2.082   0.627 -1.1030 -1.2659 -0.7336
  802SOL     OW 2404   1.373   1.106   3.047 -0.7093 -0.0959 -0.3813
  802SOL    HW1 2405   1.378   1.088   2.947 -0.4053 -0.7422 -2.7710
  802SOL    HW2 2406   1.327   1.197   3.068 -0.1934  1.0407 -1.5199
  803SOL     OW 2407   1.130   1.780   1.878  0.1131  0.1425  0.0869
  803SOL    HW1 2408   1.218   1.821   1.865  2.8257  0.5097  0.6866
  803SOL    HW2 2409   1.113   1.745   1.973  1.0409  1.2026  0.0721
  804SOL     OW 2410   1.629   2.401   1.048  0.1988  0.0821 -0.0764
  804SOL    HW1 2411   1.709   2.343   1.021  0.7326  1.2498 -0.2508
  804SOL    HW2 2412   1.554   2.397   0.975  3.1225  0.3597  2.2323
  805SOL     OW 2413   0.134   2.459   2.142  0.3912 -0.2097 -0.1633
  805SOL    HW1 2414   0.047   2.427   2.099 -1.7128  3.3308 -3.7526
  805SOL    HW2 2415   0.208   2.395   2.112 -2.5775 -1.2294 -2.4429
  806SOL     OW 2416   0.668   3.071   0.495  0.5136 -0.0119  0.1778
  806SOL    HW1 2417   0.689   0.058   0.535 -0.9158 -0.6297 -0.7603
  806SOL    HW2 2418   0.632   3.068   0.401  2.5398 -0.1429  2.0947
  807SOL     OW 2419   2.665   0.844   2.921  0.4724 -0.1419  0.0588
  807SOL    HW1 2420   2.564   0.846   2.938 -2.3320 -1.1554  0.6191
  807SOL    HW2 2421   2.691   0.750   2.890  2.2081 -0.5242  0.1988
  808SOL     OW 2422   1.389   2.167   0.763 -0.6270  0.6103 -0.1414
  808SOL    HW1 2423   1.296   2.135   0.739  2.5023  0.1564 -0.4688
  808SOL    HW2 2424   1.461   2.104   0.726  1.1812 -1.8808  0.8537
  809SOL     OW 2425   0.034   0.027   0.362  0.4179 -0.5164 -0.3217
  809SOL    HW1 2426   3.039   0.037   0.334  1.0917  2.1647 -1.1286
  809SOL    HW2 2427   0.087   0.096   0.309 -0.7683 -0.8156  0.1016
  810SOL     OW 2428   1.214   1.428   0.793 -0.5032 -0.7027 -0.2097
  810SOL    HW1 2429   1.174   1.425   0.884  2.6006  0.5867  1.3999
  810SOL    HW2 2430   1.241   1.337   0.762 -1.5161  2.6646 -0.6864
  811SOL     OW 2431   1.367   2.831   1.400 -0.2594 -0.3595 -0.4214
  811SOL    HW1 2432   1.411   2.921   1.422  0.5545  0.0794  0.7043
  811SOL    HW2 2433   1.284   2.846   1.340 -0.3260 -0.3376  1.3407
  812SOL     OW 2434   1.201   0.134   0.171  0.2368 -0.4381 -0.3791
  812SOL    HW1 2435   1.236   0.077   0.248 -2.4807 -1.5658  1.4181
  812SOL    HW2 2436   1.114   0.189   0.190 -2.5501 -0.9749 -1.9568
  813SOL     OW 2437   1.075   0.031   2.179  0.7169  0.6669  0.6707
  813SOL    HW1 2438   1.153   0.090   2.202  1.9446  2.0017 -3.5536
  813SOL    HW2 2439   1.072   3.057   2.245 -0.5782  1.7438  0.5444
  814SOL     OW 2440   0.511   2.742   1.185 -0.0068  0.3129  0.8109
  814SOL    HW1 2441   0.506   2.816   1.113 -0.7296 -0.7240  0.6678
  814SOL    HW2 2442   0.471   2.656   1.149  0.3965  3.3517  0.9049
  815SOL     OW 2443   0.231   2.507   0.616 -0.4126 -0.0038  0.4940
  815SOL    HW1 2444   0.245   2.606   0.586 -1.6414  1.0936 -2.8290
  815SOL    HW2 2445   0.155   2.473   0.559  1.0101  0.4647 -0.7056
  816SOL     OW 2446   2.586   1.580   2.771 -0.1587 -0.0496 -0.0665
  816SOL    HW1 2447   2.610   1.485   2.798 -0.2115  1.9734 -1.6515
  816SOL    HW2 2448   2.582   1.587   2.672  1.2087  0.3147  2.0772
  817SOL     OW 2449   1.768   2.655   2.904  0.1098 -0.2681 -0.2844
  817SOL    HW1 2450   1.790   2.559   2.891 -3.1968 -0.3976  0.1634
  817SOL    HW2 2451   1.849   2.716   2.894  0.8107  0.0932  0.9565
  818SOL     OW 2452   1.378   1.110   0.485  0.1115 -0.5431  0.3152
  818SOL    HW1 2453   1.340   1.152   0.400  2.2480 -4.0594 -0.4399
  818SOL    HW2 2454   1.372   1.010   0.468 -1.1050  1.6625  0.1846
  819SOL     OW 2455   1.567   2.082   2.988 -0.4016  0.3035 -0.5319
  819SOL    HW1 2456   1.472   2.077   3.018  0.8882 -0.8156  0.9211
  819SOL    HW2 2457   1.576   2.030   2.900  1.7127  1.3928  2.4289
  820SOL     OW 2458   0.618   0.782   0.044  0.5451  0.0268  0.2403
  820SOL    HW1 2459   0.638   0.844   3.069  1.0304 -0.8566  1.6776
  820SOL    HW2 2460   0.636   0.680   0.024  3.2492  1.4711 -1.2273
  821SOL     OW 2461   0.398   0.103   0.967  0.0591  0.1558 -0.2444
  821SOL    HW1 2462   0.416   0.124   0.867 -1.5548  0.9086 -1.4704
  821SOL    HW2 2463   0.396   0.193   1.019  0.8781  3.9900  1.2034
  822SOL     OW 2464   1.586   2.520   2.422 -0.4508 -0.3745  0.0599
  822SOL    HW1 2465   1.564   2.610   2.380  2.0414 -1.7656  2.7062
  822SOL    HW2 2466   1.550   2.437   2.366 -2.0351 -3.7325 -0.1364
  823SOL     OW 2467   0.990   0.828   2.215 -0.3113 -0.7921 -0.0132
  823SOL    HW1 2468   1.076   0.775   2.203 -2.1584 -0.8133 -0.0169
  823SOL    HW2 2469   0.938   0.801   2.297  1.2273 -0.8629 -0.7719
  824SOL     OW 2470   2.403   0.276   1.402  0.4570  0.0214 -0.0122
  824SOL    HW1 2471   2.407   0.374   1.370 -2.3087  2.1186  1.2501
  824SOL    HW2 2472   2.311   0.251   1.439 -0.5436 -2.4613 -0.4733
  825SOL     OW 2473   0.633   1.301   0.208 -0.1452 -0.5097 -0.5596
  825SOL    HW1 2474   0.721   1.255   0.196 -1.0825  1.3317 -2.0731
  825SOL    HW2 2475   0.566   1.285   0.132  1.2530 -0.1392 -2.2866
  826SOL     OW 2476   2.025   0.617   2.511  0.3623  0.7157 -0.4378
  826SOL    HW1 2477   1.973   0.536   2.487 -0.6600 -2.5048 -1.8656
  826SOL    HW2 2478   2.093   0.624   2.442 -1.3299 -4.0855 -1.5603
  827SOL     OW 2479   0.780   2.222   2.561 -0.7205  0.1422  0.4174
  827SOL    HW1 2480   0.725   2.222   2.477  0.9660 -0.5949  0.8729
  827SOL    HW2 2481   0.746   2.282   2.637  0.2606  0.5547  2.5904
  828SOL     OW 2482   2.692   0.019   1.202 -0.2118  0.7913  0.1342
  828SOL    HW1 2483   2.743   0.020   1.114  2.0321  0.8313 -0.2412
  828SOL    HW2 2484   2.681   3.026   1.242 -1.6566 -0.4236  2.5297
  829SOL     OW 2485   1.241   1.760   1.347 -0.3011 -0.4620  0.3007
  829SOL    HW1 2486   1.272   1.659   1.337  0.0910 -2.6391  1.3868
  829SOL    HW2 2487   1.177   1.760   1.429  1.6585 -1.7681 -0.1435
  830SOL     OW 2488   0.785   1.005   1.813  0.2444  0.1848  0.0074
  830SOL    HW1 2489   0.838   0.926   1.770  1.6611 -0.9934 -1.6766
  830SOL    HW2 2490   0.698   1.023   1.765 -0.1180  0.1676 -2.6081
  831SOL     OW 2491   3.022   1.746   0.088 -0.2016  0.2538  0.2050
  831SOL    HW1 2492   2.939   1.804   0.096 -0.2453 -2.3907  0.3232
  831SOL    HW2 2493   3.087   1.784   0.018  0.9952 -0.2558 -3.0262
  832SOL     OW 2494   1.281   2.828   0.206 -0.3945  0.3759 -0.1084
  832SOL    HW1 2495   1.187   2.862   0.224  0.4702 -0.2119 -0.9169
  832SOL    HW2 2496   1.317   2.862   0.120  1.0088  0.5707  1.1789
  833SOL     OW 2497   3.030   0.248   1.630 -0.5965 -0.2262  0.0982
  833SOL    HW1 2498   2.974   0.298   1.698 -2.2260 -1.8630 -0.1639
  833SOL    HW2 2499   3.066   0.313   1.565  0.5730 -2.2200  0.5366
  834SOL     OW 2500   0.006   1.049   0.981  0.2340  0.3070  0.6715
  834SOL    HW1 2501   0.062   1.120   0.934  1.6315 -0.5561 -0.8140
  834SOL    HW2 2502   3.100   0.967   0.926  2.8648  2.6594  0.5308
  835SOL     OW 2503   2.392   2.929   1.012  0.1682 -0.0427 -0.8831
  835SOL    HW1 2504   2.343   2.937   0.927  3.2100 -0.0280  1.4441
  835SOL    HW2 2505   2.487   2.964   0.992  1.0811  2.8594  2.0017
  836SOL     OW 2506   0.838   1.931   2.847  0.6495 -0.1312  0.2191
  836SOL    HW1 2507   0.885   1.964   2.762 -0.5958 -0.7018 -0.2487
  836SOL    HW2 2508   0.735   1.923   2.830 -1.4444  0.3569  0.1941
  837SOL     OW 2509   1.857   2.177   2.961 -0.0334 -0.4123  0.3132
  837SOL    HW1 2510   1.755   2.180   2.958 -2.2700  0.1636 -1.2390
  837SOL    HW2 2511   1.899   2.263   3.000  1.5145  0.1852 -1.3161
  838SOL     OW 2512   0.042   0.826   2.225  0.1211  0.7319  0.3212
  838SOL    HW1 2513   0.032   0.732   2.193 -0.0331  0.4927  2.1366
  838SOL    HW2 2514   0.001   0.897   2.160  1.2374 -1.5591  1.5341
  839SOL     OW 2515   0.942   1.052   2.968 -0.0023 -0.0956 -0.0822
  839SOL    HW1 2516   0.973   1.118   2.898 -1.6098 -0.6604  1.0952
  839SOL    HW2 2517   1.003   1.066   3.045 -0.8864 -1.2300 -4.1651
  840SOL     OW 2518   1.605   0.660   0.206 -0.1139  0.2118  0.2658
  840SOL    HW1 2519   1.603   0.559   0.187  0.5336  2.8516  1.3703
  840SOL    HW2 2520   1.584   0.690   0.299 -0.1748 -0.9897 -0.7848
  841SOL     OW 2521   0.766   2.444   0.811 -0.8201 -0.3820  0.1621
  841SOL    HW1 2522   0.690   2.439   0.880 -0.5282 -0.7922  1.0462
  841SOL    HW2 2523   0.749   2.517   0.744 -0.8513  0.2056  0.9673
  842SOL     OW 2524   0.238   0.588   0.335 -0.0439 -0.3125  0.2457
  842SOL    HW1 2525   0.142   0.609   0.303  0.2692 -1.1747  1.5940
  842SOL    HW2 2526   0.282   0.681   0.347 -1.1575 -0.6852  1.0086
  843SOL     OW 2527   0.539   0.688   1.480 -0.3679 -0.2118  0.3634
  843SOL    HW1 2528   0.585   0.670   1.569  0.5138  0.7637  1.2460
  843SOL    HW2 2529   0.525   0.787   1.468 -2.6319 -0.8376 -1.8136
  844SOL     OW 2530   1.985   2.473   2.761 -0.0129 -0.0828  0.2570
  844SOL    HW1 2531   2.052   2.547   2.730  1.0731  2.4470  0.5224
  844SOL    HW2 2532   2.032   2.401   2.816  0.7049 -1.9839  0.5566
  845SOL     OW 2533   2.356   0.144   1.734  0.1323  0.7375  0.0732
  845SOL    HW1 2534   2.433   0.111   1.796 -0.1759  0.9294 -0.7067
  845SOL    HW2 2535   2.320   0.074   1.668 -0.8339 -0.3737 -1.9457
  846SOL     OW 2536   2.197   1.811   2.589 -0.6291 -0.4382 -0.1281
  846SOL    HW1 2537   2.144   1.731   2.552  2.6390  1.3966  1.7283
  846SOL    HW2 2538   2.208   1.880   2.515 -3.7273 -0.5013 -1.0447
  847SOL     OW 2539   2.058   2.826   2.074 -0.4376 -0.3541  0.3357
  847SOL    HW1 2540   1.990   2.826   2.147  0.1310  0.0229 -1.6416
  847SOL    HW2 2541   2.088   2.733   2.054  0.6965  0.6935  1.7009
  848SOL     OW 2542   0.283   2.869   0.126 -0.6404 -0.0303  0.5008
  848SOL    HW1 2543   0.268   2.776   0.086 -1.9264 -4.0045 -0.5876
  848SOL    HW2 2544   0.250   2.869   0.220 -0.1007 -1.5356 -0.7525
  849SOL     OW 2545   0.427   2.847   1.419  0.0070  0.4978  0.0595
  849SOL    HW1 2546   0.441   2.798   1.328  2.1063 -3.0568  1.3651
  849SOL    HW2 2547   0.468   2.940   1.408  1.6981 -1.7784  1.4120
  850SOL     OW 2548   0.061   1.713   0.973  0.0264  0.0320 -0.4159
  850SOL    HW1 2549   3.096   1.750   1.044 -1.5891  0.0581  0.8376
  850SOL    HW2 2550   0.120   1.785   0.929  1.8213  1.0577  0.3437
  851SOL     OW 2551   2.927   0.594   2.975 -0.5621  0.0519  0.5778
  851SOL    HW1 2552   2.962   0.640   2.889  1.7221  0.2019  0.8103
  851SOL    HW2 2553   2.915   0.668   3.041 -1.1526  0.5042  0.7899
  852SOL     OW 2554   1.881   2.120   2.578 -0.1997 -0.0653  0.4865
  852SOL    HW1 2555   1.889   2.118   2.679  0.8151  1.7143 -1.6233
  852SOL    HW2 2556   1.842   2.041   2.530 -0.6860  0.5870 -2.2208
  853SOL     OW 2557   0.829   1.613   0.522  0.0630 -0.7635 -0.3141
  853SOL    HW1 2558   0.805   1.647   0.620 -1.7930  2.9469  0.2602
  853SOL    HW2 2559   0.754   1.619   0.454  0.0778 -0.1405  0.5687
  854SOL     OW 2560   1.650   1.222   1.920 -0.1603 -0.3570  0.1419
  854SOL    HW1 2561   1.604   1.283   1.988  0.8330 -0.8187 -1.0579
  854SOL    HW2 2562   1.659   1.269   1.829  1.0835  0.2012 -3.5662
  855SOL     OW 2563   0.476   2.185   2.873 -0.0884 -0.1496  0.4684
  855SOL    HW1 2564   0.470   2.226   2.966  0.1696  0.8105 -2.9332
  855SOL    HW2 2565   0.383   2.165   2.833 -0.6820 -2.5718 -0.3510
  856SOL     OW 2566   0.505   0.075   2.026 -0.2049  0.2833 -0.2133
  856SOL    HW1 2567   0.499   3.085   1.990  2.4954 -2.0348  1.0720
  856SOL    HW2 2568   0.428   0.139   2.009 -0.3236  2.1593 -0.5684
  857SOL     OW 2569   0.758   0.225   1.733 -0.6539 -0.2253 -0.0042
  857SOL    HW1 2570   0.780   0.280   1.817 -1.4820 -0.6903 -2.8379
  857SOL    HW2 2571   0.793   0.262   1.645  1.6468 -3.9142  0.6107
  858SOL     OW 2572   3.072   2.070   2.121  0.1152  0.0523  0.1874
  858SOL    HW1 2573   2.972   2.055   2.104  1.9602 -0.9133  4.4083
  858SOL    HW2 2574   3.084   2.126   2.204  1.0253 -1.0836  0.9685
  859SOL     OW 2575   2.068   2.348   0.939  0.6438  0.1409  0.2892
  859SOL    HW1 2576   2.101   2.380   1.029  0.9585 -1.0378 -1.5051
  859SOL    HW2 2577   1.977   2.296   0.939 -2.0419 -1.2077  0.7399
  860SOL     OW 2578   2.057   0.520   0.585  0.0282  0.2028  0.6816
  860SOL    HW1 2579   2.110   0.436   0.624 -0.7063 -0.6307  4.9095
  860SOL    HW2 2580   1.976   0.544   0.647  0.2756  1.0814  0.2356
  861SOL     OW 2581   0.155   0.505   0.969 -0.1097 -0.1316 -0.3385
  861SOL    HW1 2582   0.182   0.554   1.052 -0.4638 -1.7616 -1.5910
  861SOL    HW2 2583   0.060   0.472   0.969  3.0228  0.3339  1.7188
  862SOL     OW 2584   2.403   0.698   1.653 -0.0839  0.0988 -0.0874
  862SOL    HW1 2585   2.300   0.675   1.651  0.0539  0.1969 -1.1257
  862SOL    HW2 2586   2.413   0.801   1.665 -1.1407  3.9933  0.9152
  863SOL     OW 2587   0.178   1.403   1.459  0.1308 -0.5026  0.6685
  863SOL    HW1 2588   0.180   1.373   1.362  2.0727  1.0190  1.3286
  863SOL    HW2 2589   0.241   1.484   1.471  2.3252  0.9820  0.0030
  864SOL     OW 2590   2.593   0.078   1.840 -0.5452  0.3025  0.3429
  864SOL    HW1 2591   2.594   0.159   1.899 -1.2533  1.7084  0.1509
  864SOL    HW2 2592   2.689   0.038   1.829 -0.0356 -0.8829  0.2288
  865SOL     OW 2593   1.507   0.372   2.250 -0.3401 -0.7905 -0.2599
  865SOL    HW1 2594   1.550   0.342   2.162  0.8821 -0.3504 -2.7720
  865SOL    HW2 2595   1.571   0.446   2.293  2.8276  3.5628  0.8930
  866SOL     OW 2596   2.322   2.951   0.491 -0.1555 -0.5837  0.0497
  866SOL    HW1 2597   2.296   2.859   0.523  0.5573 -0.5154 -0.4218
  866SOL    HW2 2598   2.422   2.948   0.476 -0.7220  1.1527  1.4929
  867SOL     OW 2599   2.587   2.619   0.733 -0.6048 -0.2259  0.1277
  867SOL    HW1 2600   2.678   2.668   0.747  2.5106 -1.1305 -2.1030
  867SOL    HW2 2601   2.528   2.642   0.814  3.5433 -1.1938  0.2626
  868SOL     OW 2602   1.658   1.388   2.897  0.4065  0.2540  0.8473
  868SOL    HW1 2603   1.664   1.442   2.805 -0.2108  2.6820 -1.1934
  868SOL    HW2 2604   1.710   1.430   2.976 -2.4928  0.7741  1.6659
  869SOL     OW 2605   2.525   1.792   0.565 -0.4099  0.1639  0.2195
  869SOL    HW1 2606   2.443   1.764   0.518  0.4755  0.0454  0.5629
  869SOL    HW2 2607   2.553   1.887   0.528  2.6489  2.7179 -0.5347
  870SOL     OW 2608   2.784   1.934   0.388 -0.3387  0.2852  0.2391
  870SOL    HW1 2609   2.792   1.852   0.445 -1.3159  0.7463 -0.4488
  870SOL    HW2 2610   2.699   1.986   0.414  1.5725 -0.5390 -0.2077
  871SOL     OW 2611   0.180   1.128   1.476  0.3188  0.4037 -0.0327
  871SOL    HW1 2612   0.206   1.227   1.488  1.7259 -0.3752 -1.6793
  871SOL    HW2 2613   0.106   1.122   1.408  2.5022 -0.9801 -0.0273
  872SOL     OW 2614   0.602   1.656   2.453 -0.1291  0.1848  0.1872
  872SOL    HW1 2615   0.515   1.669   2.399 -1.4746 -2.1371  0.2793
  872SOL    HW2 2616   0.612   1.732   2.524  1.8335 -0.7484 -1.2495
  873SOL     OW 2617   0.112   2.844   1.327  0.2472  0.0954 -0.0978
  873SOL    HW1 2618   0.195   2.799   1.370  3.9901  0.6851  0.2367
  873SOL    HW2 2619   0.095   2.802   1.235  1.0205 -2.4184 -1.8768
  874SOL     OW 2620   1.254   0.761   2.225 -0.1465  0.1985 -0.0854
  874SOL    HW1 2621   1.310   0.728   2.144  0.6071 -0.3303  0.3442
  874SOL    HW2 2622   1.311   0.779   2.305 -2.0667  0.7984 -2.0771
  875SOL     OW 2623   2.639   2.995   0.890 -0.3989  0.0766 -0.3823
  875SOL    HW1 2624   2.709   3.045   0.943  0.2737 -2.5917  0.0754
  875SOL    HW2 2625   2.639   3.013   0.787  0.5067  1.4008 -2.4693
  876SOL     OW 2626   0.905   1.214   0.480  0.1254  0.2951  0.7849
  876SOL    HW1 2627   0.900   1.273   0.396  2.7495 -0.2652  2.1056
  876SOL    HW2 2628   0.971   1.258   0.541 -1.2594 -1.3624 -3.2332
  877SOL     OW 2629   1.103   0.819   1.430 -0.0938 -0.6698 -0.2917
  877SOL    HW1 2630   1.157   0.823   1.518  3.3985 -1.9557  2.6461
  877SOL    HW2 2631   1.145   0.758   1.361 -0.3455 -2.5051 -1.4859
  878SOL     OW 2632   2.381   2.133   0.281  0.3615  0.2879 -0.1006
  878SOL    HW1 2633   2.322   2.175   0.354  0.3697  0.7563 -1.1734
  878SOL    HW2 2634   2.417   2.201   0.212  2.1681 -0.9699 -1.3093
  879SOL     OW 2635   2.378   2.021   1.952 -0.4533  0.0417  0.7197
  879SOL    HW1 2636   2.473   2.016   1.980 -0.6106  2.3672  2.2806
  879SOL    HW2 2637   2.342   2.115   1.965 -0.2738 -0.6994  1.7920
  880SOL     OW 2638   0.881   2.234   1.264 -0.1614  0.2689 -0.5481
  880SOL    HW1 2639   0.950   2.298   1.307  0.5911  0.0233  1.1030
  880SOL    HW2 2640   0.797   2.275   1.234  2.3613 -0.5236  0.8860
  881SOL     OW 2641   1.032   1.859   0.486  0.1848 -0.1836  0.1389
  881SOL    HW1 2642   0.973   1.778   0.491 -2.4473  0.5442  0.1323
  881SOL    HW2 2643   1.022   1.922   0.405  1.3450 -2.0603 -1.3537
  882SOL     OW 2644   2.014   1.346   0.250  0.6453  0.4832 -0.7400
  882SOL    HW1 2645   2.006   1.398   0.162  0.3332 -0.7756 -0.6481
  882SOL    HW2 2646   2.112   1.345   0.283 -2.6871 -1.6772  1.4994
  883SOL     OW 2647   1.476   0.757   1.201  0.4430 -0.4523  0.2117
  883SOL    HW1 2648   1.447   0.846   1.239 -0.1460  1.7174  0.1657
  883SOL    HW2 2649   1.570   0.743   1.235 -0.5591  0.1429 -0.9001
  884SOL     OW 2650   3.059   2.614   0.533 -0.0537 -0.5664 -0.0061
  884SOL    HW1 2651   3.017   2.605   0.442 -0.1794  0.7796 -2.2982
  884SOL    HW2 2652   3.075   2.711   0.567  2.2355  1.7988  1.0668
  885SOL     OW 2653   0.951   1.416   2.249  0.1117 -0.1960  0.4009
  885SOL    HW1 2654   0.902   1.464   2.323 -0.3329  1.5899 -1.9877
  885SOL    HW2 2655   0.964   1.318   2.261  1.1257  0.6863 -1.3206
  886SOL     OW 2656   1.072   1.821   2.470  0.3646  0.0612  0.3412
  886SOL    HW1 2657   1.041   1.898   2.531 -0.7153  1.6708  2.7051
  886SOL    HW2 2658   1.165   1.790   2.493 -2.3484  1.4663  0.1660
  887SOL     OW 2659   1.464   0.699   0.930 -0.2633 -0.3473  0.0808
  887SOL    HW1 2660   1.476   0.711   1.032 -0.2622 -1.8960  4.3279
  887SOL    HW2 2661   1.373   0.739   0.903  3.2715  1.7071  2.4503
  888SOL     OW 2662   2.346   0.764   2.046  0.1714 -0.5201 -0.3326
  888SOL    HW1 2663   2.369   0.669   2.072 -1.0049 -0.7486  0.1254
  888SOL    HW2 2664   2.273   0.803   2.101  0.7793  1.4114 -0.5613
  889SOL     OW 2665   2.842   1.877   0.967  0.6150 -0.0355  0.2893
  889SOL    HW1 2666   2.836   1.853   0.868  0.1670  0.7202 -0.4789
  889SOL    HW2 2667   2.848   1.979   0.971  0.6108  2.6479 -0.0405
  890SOL     OW 2668   1.031   2.077   0.301  0.4156  0.1246 -0.0191
  890SOL    HW1 2669   1.106   2.136   0.340  3.1237  0.3704 -0.5899
  890SOL    HW2 2670   1.057   2.028   0.211  0.6904  0.4658 -1.1121
  891SOL     OW 2671   2.943   0.332   2.861  0.7179  0.5152  0.4188
  891SOL    HW1 2672   2.938   0.435   2.884  1.2063 -1.2221 -1.2346
  891SOL    HW2 2673   2.960   0.316   2.758  0.2652 -1.9798 -4.4843
  892SOL     OW 2674   2.894   2.163   1.059 -0.7566 -0.7271 -0.1516
  892SOL    HW1 2675   2.958   2.224   1.105  0.8168 -2.7500 -2.1055
  892SOL    HW2 2676   2.820   2.147   1.125 -0.6664  2.7393  1.0250
  893SOL     OW 2677   1.487   0.194   0.955 -0.2231 -0.1106 -0.9461
  893SOL    HW1 2678   1.457   0.191   0.860 -3.9038 -0.8509  1.3299
  893SOL    HW2 2679   1.525   0.284   0.969 -1.8378  1.4288 -0.4884
  894SOL     OW 2680   2.861   0.247   0.805  0.3341  0.4477 -0.0142
  894SOL    HW1 2681   2.931   0.289   0.740  1.6597  0.3546 -0.7318
  894SOL    HW2 2682   2.765   0.272   0.791  2.3340  1.2765  3.2764
  895SOL     OW 2683   1.903   1.642   2.807 -0.1721 -0.0811 -0.2858
  895SOL    HW1 2684   1.938   1.557   2.758 -1.4780 -1.3839 -1.4419
  895SOL    HW2 2685   1.803   1.636   2.818  1.3915 -0.7179 -3.0922
  896SOL     OW 2686   1.983   0.639   1.489  0.8196  0.3237 -0.6028
  896SOL    HW1 2687   2.058   0.708   1.474  0.4409 -0.4974 -0.6217
  896SOL    HW2 2688   1.887   0.663   1.474  2.5373 -2.4064 -0.2687
  897SOL     OW 2689   3.014   1.498   1.279 -0.3155  0.2792 -0.1637
  897SOL    HW1 2690   3.027   1.592   1.320  4.1866  1.6299  0.5667
  897SOL    HW2 2691   0.006   1.472   1.243  1.3423 -1.5049 -1.6907
  898SOL     OW 2692   1.874   2.488   2.148  0.1653  0.8645  0.1436
  898SOL    HW1 2693   1.776   2.510   2.129 -0.4137 -1.4681 -1.5302
  898SOL    HW2 2694   1.878   2.389   2.180 -1.5186 -2.9400  1.9426
  899SOL     OW 2695   0.879   1.696   1.058  0.1016  0.1263  0.6925
  899SOL    HW1 2696   0.863   1.791   1.098 -0.2448 -0.2007  1.7534
  899SOL    HW2 2697   0.800   1.636   1.047 -1.0876 -1.4139  1.7692
  900SOL     OW 2698   1.298   2.566   2.467 -0.1094 -0.2132 -0.6972
  900SOL    HW1 2699   1.335   2.476   2.451  1.7925  0.4592  0.2917
  900SOL    HW2 2700   1.343   2.597   2.556  4.6983  0.9055  3.9998
  901SOL     OW 2701   0.798   1.942   2.388 -0.4821 -0.3411  0.0473
  901SOL    HW1 2702   0.723   1.931   2.451  2.1579  0.2562  0.2027
  901SOL    HW2 2703   0.880   1.970   2.438  2.0930 -1.0439  1.1486
  902SOL     OW 2704   2.138   1.250   3.054 -0.0417 -0.1181 -0.5174
  902SOL    HW1 2705   2.217   1.194   3.094  4.2495  0.8573  0.9095
  902SOL    HW2 2706   2.164   1.306   2.973  1.7091  1.1261 -1.6190
  903SOL     OW 2707   1.953   1.444   3.089 -0.1005 -0.1289  0.5591
  903SOL    HW1 2708   2.003   1.517   3.040  1.9708 -3.0192 -2.2055
  903SOL    HW2 2709   1.992   1.357   3.065 -3.3688  0.3675  3.3707
  904SOL     OW 2710   1.465   1.187   2.233  0.6857  0.0278 -0.3965
  904SOL    HW1 2711   1.529   1.112   2.248  1.0385  0.5676 -1.6141
  904SOL    HW2 2712   1.377   1.146   2.206  0.4917 -1.9009 -0.2836
  905SOL     OW 2713   2.524   0.482   0.983  0.1551  0.1558 -0.1055
  905SOL    HW1 2714   2.575   0.401   0.944  0.6080 -2.1773 -1.2475
  905SOL    HW2 2715   2.480   0.536   0.910  1.2108 -1.5872  0.1008
  906SOL     OW 2716   0.301   1.703   0.650 -0.0667 -0.1825 -0.1433
  906SOL    HW1 2717   0.347   1.617   0.683  0.3183  2.7571  4.1152
  906SOL    HW2 2718   0.260   1.689   0.556  1.3735  0.1985 -0.6953
  907SOL     OW 2719   1.565   3.038   0.255  0.3284 -0.3626 -0.4327
  907SOL    HW1 2720   1.547   2.957   0.314  1.2069  1.1949 -0.5020
  907SOL    HW2 2721   1.536   0.020   0.302 -1.0252  1.3384  0.6676
  908SOL     OW 2722   1.521   2.742   1.734 -0.1794 -0.1571  0.5171
  908SOL    HW1 2723   1.493   2.648   1.701  1.9294  2.1290 -0.0231
  908SOL    HW2 2724   1.457   2.781   1.795  2.0775 -0.1306 -1.0938
  909SOL     OW 2725   2.639   0.621   1.763  1.0015  0.0792  0.6984
  909SOL    HW1 2726   2.659   0.523   1.744 -1.1626  1.2894  1.7458
  909SOL    HW2 2727   2.534   0.638   1.756 -3.3318  0.4837  0.8577
  910SOL     OW 2728   1.293   0.032   2.696  0.9352 -0.2102 -0.1248
  910SOL    HW1 2729   1.240   0.110   2.662 -0.1714  2.0459 -0.1078
  910SOL    HW2 2730   1.243   3.048   2.685  0.7292 -2.2117 -1.2934
  911SOL     OW 2731   2.538   1.623   2.499 -0.0919  0.0904  0.6098
  911SOL    HW1 2732   2.497   1.686   2.439  1.1300 -2.8258 -2.0065
  911SOL    HW2 2733   2.516   1.532   2.456 -0.4655  0.5924 -0.0538
  912SOL     OW 2734   2.355   2.274   1.453  0.5515 -0.2836 -0.1979
  912SOL    HW1 2735   2.396   2.369   1.441  0.6737  1.3798 -1.6858
  912SOL    HW2 2736   2.264   2.282   1.497  0.7559 -1.4670  1.1090
  913SOL     OW 2737   2.429   2.473   1.783 -0.2103  0.1191 -0.1057
  913SOL    HW1 2738   2.472   2.551   1.836  1.3644  0.5475 -0.0640
  913SOL    HW2 2739   2.333   2.495   1.752 -2.2706  1.6110 -0.2440
  914SOL     OW 2740   2.328   2.044   1.270  0.2629 -0.7046  0.3659
  914SOL    HW1 2741   2.322   2.126   1.324  0.6763 -0.9121  0.2104
  914SOL    HW2 2742   2.317   1.953   1.318  1.4468  0.3241 -0.5432
  915SOL     OW 2743   1.090   2.500   1.619  0.2262 -0.2455  0.4725
  915SOL    HW1 2744   1.045   2.450   1.694  1.4849  2.1840  1.5537
  915SOL    HW2 2745   1.185   2.463   1.591 -0.5866  2.3956 -2.1933
  916SOL     OW 2746   3.095   2.322   1.129 -0.3650  0.4301 -0.5123
  916SOL    HW1 2747   3.079   2.385   1.052  1.2602  1.6848 -0.2621
  916SOL    HW2 2748   0.014   2.381   1.208 -0.3459 -0.0285  0.3841
  917SOL     OW 2749   2.798   1.091   2.881 -0.0120  0.6897 -0.8129
  917SOL    HW1 2750   2.740   1.010   2.877 -1.5686 -2.2667  0.5399
  917SOL    HW2 2751   2.850   1.116   2.796 -0.1554  0.1711 -1.6807
  918SOL     OW 2752   1.824   1.890   2.763  0.0527 -0.3223  0.2583
  918SOL    HW1 2753   1.815   1.938   2.854  1.2140 -0.9113  0.3864
  918SOL    HW2 2754   1.863   1.802   2.778 -1.8795  1.4170  0.6248
  919SOL     OW 2755   1.672   2.302   1.329  0.6568 -0.1777 -0.6831
  919SOL    HW1 2756   1.620   2.318   1.243  0.3539 -0.5760 -0.2236
  919SOL    HW2 2757   1.771   2.320   1.307 -0.5972  0.0178 -0.6285
  920SOL     OW 2758   0.922   0.590   2.747  0.2989 -0.2735 -0.4708
  920SOL    HW1 2759   1.022   0.589   2.720  0.4970 -0.4560 -1.2690
  920SOL    HW2 2760   0.918   0.619   2.846 -1.7467  0.7302  0.4121
  921SOL     OW 2761   2.942   2.865   2.707  0.4796  0.4506  0.7673
  921SOL    HW1 2762   2.953   2.879   2.607  0.1740  2.0767  0.9647
  921SOL    HW2 2763   3.032   2.891   2.754  1.1007  0.0608 -0.8441
  922SOL     OW 2764   2.349   1.813   1.771  0.0645 -0.6806  0.0672
  922SOL    HW1 2765   2.429   1.821   1.709  3.4390 -2.1532 -2.2903
  922SOL    HW2 2766   2.343   1.896   1.833 -1.1779  0.2368  1.2732
  923SOL     OW 2767   0.579   1.924   2.833  0.2653 -0.0333 -0.5003
  923SOL    HW1 2768   0.501   1.866   2.870  0.6376  2.6027  0.0681
  923SOL    HW2 2769   0.547   2.019   2.850 -0.4516 -0.4826 -1.3854
  924SOL     OW 2770   1.772   0.815   2.500  0.3640  0.6517  0.5032
  924SOL    HW1 2771   1.787   0.904   2.544  0.7316 -1.7544 -0.1427
  924SOL    HW2 2772   1.839   0.806   2.423  2.3437  0.3961 -1.4743
  925SOL     OW 2773   2.927   0.937   0.303  0.0613 -0.5185  0.3579
  925SOL    HW1 2774   2.926   0.999   0.222 -1.3364  1.8135 -0.4821
  925SOL    HW2 2775   2.926   0.994   0.388 -2.3423  0.0146  2.0346
  926SOL     OW 2776   3.068   0.320   0.658 -0.1793 -0.0690  0.0828
  926SOL    HW1 2777   0.048   0.266   0.631  1.1324  0.3380 -1.3123
  926SOL    HW2 2778   3.085   0.416   0.633 -0.2734 -1.4639 -0.7011
  927SOL     OW 2779   1.288   1.145   0.733  0.1593  0.2447  0.4806
  927SOL    HW1 2780   1.338   1.138   0.642 -0.5240 -2.0450 -2.5891
  927SOL    HW2 2781   1.223   1.068   0.748 -2.4916 -2.5453 -0.2697
  928SOL     OW 2782   0.042   3.061   2.183  0.1530 -0.5301  0.6889
  928SOL    HW1 2783   0.135   3.019   2.168  0.1136 -0.2449  0.3955
  928SOL    HW2 2784   0.051   0.058   2.181 -0.2733 -0.4493  0.4125
  929SOL     OW 2785   2.560   0.616   1.448  0.2256 -0.4934 -0.2082
  929SOL    HW1 2786   2.496   0.667   1.505 -0.1155  0.0940 -1.3147
  929SOL    HW2 2787   2.631   0.562   1.500  2.5061 -1.0720  0.4867
  930SOL     OW 2788   1.797   2.222   0.936  0.2997 -0.2877 -0.0526
  930SOL    HW1 2789   1.817   2.186   0.843 -1.6867  0.3735 -1.1553
  930SOL    HW2 2790   1.737   2.157   0.983  3.3648 -0.1809 -1.1402
  931SOL     OW 2791   1.836   0.788   1.107 -0.3841  0.0995  0.4493
  931SOL    HW1 2792   1.807   0.823   1.016 -0.4674 -0.1842  0.4004
  931SOL    HW2 2793   1.918   0.844   1.134  0.1039  0.4140  2.4233
  932SOL     OW 2794   0.170   0.648   1.224  0.3572 -0.2938  0.1363
  932SOL    HW1 2795   0.118   0.677   1.307  0.8482 -1.4586 -1.7112
  932SOL    HW2 2796   0.262   0.620   1.253 -1.0999  0.2606 -2.2861
  933SOL     OW 2797   1.962   1.801   2.037 -0.5183  0.2279  0.1934
  933SOL    HW1 2798   1.974   1.765   1.945 -0.9877  1.7782  1.6583
  933SOL    HW2 2799   1.957   1.732   2.112 -1.7414 -2.2587  0.1390
  934SOL     OW 2800   1.669   2.892   1.112 -0.2417  0.0925 -0.1575
  934SOL    HW1 2801   1.686   2.975   1.049 -0.7902  1.1285 -2.9574
  934SOL    HW2 2802   1.626   2.810   1.062 -0.5172 -1.9765 -2.3016
  935SOL     OW 2803   3.053   1.083   1.254 -0.3664 -0.5596  0.3616
  935SOL    HW1 2804   2.984   1.038   1.303  4.3202  3.2581 -2.5977
  935SOL    HW2 2805   3.039   1.071   1.150 -0.6853  2.8183 -1.4933
  936SOL     OW 2806   3.044   0.713   1.062  0.5675  0.0570  0.3147
  936SOL    HW1 2807   0.024   0.700   1.116 -1.7261  1.7602  1.7389
  936SOL    HW2 2808   2.980   0.634   1.076 -0.4721 -0.9197 -1.7491
  937SOL     OW 2809   1.131   2.878   0.926  0.1380 -0.0044  0.5451
  937SOL    HW1 2810   1.067   2.800   0.906 -0.9003 -0.0384 -1.4663
  937SOL    HW2 2811   1.224   2.854   0.890 -0.1510  2.4459  0.2728
  938SOL     OW 2812   2.981   2.142   0.807  0.1422 -0.8870  0.2098
  938SOL    HW1 2813   2.947   2.166   0.897  0.7192  0.2182  2.8309
  938SOL    HW2 2814   3.001   2.225   0.748 -0.3695  3.0956 -1.3229
  939SOL     OW 2815   0.484   1.547   2.737  0.5793  0.4414  0.2436
  939SOL    HW1 2816   0.446   1.627   2.688 -0.7641  0.8638 -5.4947
  939SOL    HW2 2817   0.581   1.526   2.712  0.2266  0.3837  1.4998
  940SOL     OW 2818   2.804   2.545   2.582 -0.0564  0.4039  0.0606
  940SOL    HW1 2819   2.784   2.496   2.493  1.5685 -3.1793 -0.9460
  940SOL    HW2 2820   2.743   2.629   2.591 -2.3173  1.0327  0.6573
  941SOL     OW 2821   1.312   0.341   0.018 -0.1842  0.6351  0.2612
  941SOL    HW1 2822   1.409   0.335   3.102  0.9042  1.6086 -1.1645
  941SOL    HW2 2823   1.277   0.262   0.072  2.4102 -0.9459  0.9330
  942SOL     OW 2824   1.460   1.924   1.424  0.0066 -0.1566 -0.5250
  942SOL    HW1 2825   1.432   1.828   1.440  0.7554  1.0826 -0.1568
  942SOL    HW2 2826   1.427   1.989   1.496 -1.6236 -0.3232 -2.6775
  943SOL     OW 2827   2.137   1.433   1.725  0.4889 -0.2272  0.2969
  943SOL    HW1 2828   2.068   1.445   1.660  4.1789  0.7366  1.2939
  943SOL    HW2 2829   2.223   1.427   1.674  0.4086  3.4227 -0.7378
  944SOL     OW 2830   1.866   1.042   1.873  0.2508  0.4382 -0.4010
  944SOL    HW1 2831   1.929   1.058   1.797  1.0271 -1.7977  0.2321
  944SOL    HW2 2832   1.803   1.120   1.880  1.6145  0.8224  0.2766
  945SOL     OW 2833   2.723   2.622   1.326 -0.2732  0.0663 -0.3079
  945SOL    HW1 2834   2.757   2.584   1.237 -1.3655  0.4049 -3.3402
  945SOL    HW2 2835   2.766   2.573   1.405 -0.2665 -0.7816 -0.0207
  946SOL     OW 2836   0.922   0.806   1.679 -0.1061 -0.8684  0.3152
  946SOL    HW1 2837   0.995   0.793   1.746  2.2325  2.4451 -0.7890
  946SOL    HW2 2838   0.962   0.802   1.584  3.0870 -0.0791 -0.9526
  947SOL     OW 2839   0.527   2.432   0.938 -0.0640 -0.6210  0.0072
  947SOL    HW1 2840   0.449   2.472   0.988 -0.4754 -1.2048  0.3632
  947SOL    HW2 2841   0.495   2.367   0.869  1.7135  0.2217  2.4463
  948SOL     OW 2842   2.992   1.418   1.793 -0.7451 -0.4236 -0.0940
  948SOL    HW1 2843   3.066   1.395   1.856  1.7404  3.6716 -1.1056
  948SOL    HW2 2844   2.988   1.519   1.777  0.5420 -0.1311  0.7042
  949SOL     OW 2845   0.846   0.347   1.953 -0.5595 -0.3579 -0.2147
  949SOL    HW1 2846   0.849   0.287   2.037 -0.6229 -2.3108  1.4376
  949SOL    HW2 2847   0.776   0.418   1.965 -2.5291 -0.3455  0.9723
  950SOL     OW 2848   0.550   0.476   0.880  0.5434 -0.3476 -0.2017
  950SOL    HW1 2849   0.557   0.555   0.943  0.8650  1.6111 -1.9989
  950SOL    HW2 2850   0.459   0.473   0.830  0.9259 -0.4692 -2.3624
  951SOL     OW 2851   1.297   1.881   2.188 -0.2383 -0.5636  0.0202
  951SOL    HW1 2852   1.221   1.820   2.167  2.8392  0.8041 -0.1686
  951SOL    HW2 2853   1.271   1.980   2.183  0.0907  2.3810  0.2197
  952SOL     OW 2854   1.296   1.340   2.776 -0.1719 -0.2774 -0.8930
  952SOL    HW1 2855   1.357   1.344   2.855 -0.7638  2.7913  2.3750
  952SOL    HW2 2856   1.330   1.412   2.713  1.0050 -1.8361 -0.8984
  953SOL     OW 2857   0.992   2.920   2.315  0.1344  0.2318 -0.5233
  953SOL    HW1 2858   0.994   2.846   2.242 -0.8410  1.3129 -2.9175
  953SOL    HW2 2859   0.897   2.934   2.350 -1.8216 -0.2562 -1.7130
  954SOL     OW 2860   2.212   1.527   0.580  0.4301 -0.6294 -0.0001
  954SOL    HW1 2861   2.237   1.623   0.556 -2.0461  1.9692 -3.0056
  954SOL    HW2 2862   2.117   1.497   0.559 -2.1219 -1.8692 -0.2489
  955SOL     OW 2863   3.072   2.278   2.649  0.2962  0.2710 -0.1696
  955SOL    HW1 2864   3.072   2.379   2.656 -1.4342 -1.6070 -0.8304
  955SOL    HW2 2865   3.028   2.236   2.729 -0.8255 -0.8281  2.7135
  956SOL     OW 2866   1.041   1.316   1.510 -0.4211 -0.2359  0.2666
  956SOL    HW1 2867   1.080   1.230   1.474  0.3827 -0.3340 -2.0475
  956SOL    HW2 2868   1.022   1.377   1.426  2.8770  2.1390 -1.1109
  957SOL     OW 2869   2.016   1.618   2.507 -0.2443  0.2132  0.0691
  957SOL    HW1 2870   2.031   1.613   2.406 -0.2698  1.1715  0.2204
  957SOL    HW2 2871   2.007   1.522   2.544 -0.0299 -0.1379 -3.1175
  958SOL     OW 2872   1.462   2.562   1.363 -0.4839  0.1680 -0.2060
  958SOL    HW1 2873   1.558   2.554   1.328  4.1701  1.2676  1.5556
  958SOL    HW2 2874   1.445   2.658   1.374  2.2691  0.2063 -0.0175
  959SOL     OW 2875   1.557   1.835   2.162  0.3208 -0.0693 -0.1664
  959SOL    HW1 2876   1.599   1.895   2.092  0.5163 -0.0221 -0.6422
  959SOL    HW2 2877   1.457   1.849   2.171  1.0749  0.7423 -0.9001
  960SOL     OW 2878   3.043   0.726   2.727 -0.2570  0.0473  0.5266
  960SOL    HW1 2879   3.067   0.804   2.785  1.1612 -1.9405  2.7892
  960SOL    HW2 2880   3.001   0.766   2.644 -0.9053  1.3303  0.5125
  961SOL     OW 2881   0.674   0.600   1.947 -0.1697 -0.1884 -0.0489
  961SOL    HW1 2882   0.683   0.678   2.003  0.1048  0.2144 -3.0447
  961SOL    HW2 2883   0.574   0.583   1.939  1.9630 -1.2612  0.9925
  962SOL     OW 2884   1.482   1.515   0.380  0.2062  0.4104 -0.1760
  962SOL    HW1 2885   1.441   1.559   0.463 -0.7369 -0.6345  0.0883
  962SOL    HW2 2886   1.521   1.423   0.404  0.3948  0.3441 -0.7603
  963SOL     OW 2887   1.238   2.408   2.790  0.5661 -0.2241  0.2595
  963SOL    HW1 2888   1.327   2.377   2.752  0.6497  1.4048 -0.2238
  963SOL    HW2 2889   1.254   2.436   2.885  0.0343 -0.7955 -0.5657
  964SOL     OW 2890   1.073   2.600   0.552  0.0142 -0.0275 -0.0550
  964SOL    HW1 2891   1.042   2.571   0.461  0.0311  2.6939  1.4616
  964SOL    HW2 2892   1.026   2.687   0.582 -2.9907 -0.3011  4.5289
  965SOL     OW 2893   0.942   2.655   0.941 -1.0884  0.1311 -0.8764
  965SOL    HW1 2894   0.878   2.680   1.015  3.4975 -1.1742  1.0422
  965SOL    HW2 2895   0.902   2.576   0.886 -0.6674  1.6107  2.2981
  966SOL     OW 2896   0.011   1.196   2.949 -0.5822  0.3534  0.2588
  966SOL    HW1 2897   0.102   1.232   2.904  1.8170  3.2965 -2.3780
  966SOL    HW2 2898   3.033   1.213   2.893  1.1753 -0.0768  0.6312
  967SOL     OW 2899   1.336   2.831   1.898 -0.5259  0.4045  0.5979
  967SOL    HW1 2900   1.245   2.856   1.866  2.2597  0.5399  0.8422
  967SOL    HW2 2901   1.333   2.753   1.965 -1.8190  0.9330 -0.1945
  968SOL     OW 2902   1.896   0.512   0.369  0.2735  0.0584 -0.4675
  968SOL    HW1 2903   1.945   0.492   0.454  0.4656  1.4823  0.5506
  968SOL    HW2 2904   1.866   0.608   0.369  1.9407  0.7016  2.8095
  969SOL     OW 2905   3.092   1.677   2.024 -0.0233  0.2572 -0.0846
  969SOL    HW1 2906   3.053   1.669   1.926 -2.9716 -1.4861 -2.0807
  969SOL    HW2 2907   0.052   1.756   2.030  0.6522 -1.8956  2.1214
  970SOL     OW 2908   2.384   1.415   1.586 -0.1351 -0.1489 -0.1718
  970SOL    HW1 2909   2.357   1.344   1.518 -0.3281 -0.5347 -0.9665
  970SOL    HW2 2910   2.479   1.405   1.614 -2.7406 -3.5112 -1.7497
  971SOL     OW 2911   1.489   0.736   1.658  0.0107 -0.1289  0.4473
  971SOL    HW1 2912   1.533   0.770   1.743 -1.9398  1.6100  0.4917
  971SOL    HW2 2913   1.405   0.787   1.633  0.7062  1.1531  0.2591
  972SOL     OW 2914   0.410   3.031   2.397  0.4454 -0.1612  0.5156
  972SOL    HW1 2915   0.448   2.954   2.448 -1.0453 -0.3412 -3.8601
  972SOL    HW2 2916   0.352   3.094   2.454 -0.0216  1.0681  0.9762
  973SOL     OW 2917   2.721   1.252   0.379 -0.0967  0.6777 -0.2805
  973SOL    HW1 2918   2.656   1.192   0.334  0.3130 -0.0092 -0.0508
  973SOL    HW2 2919   2.700   1.261   0.480 -1.2888 -1.7762  0.7771
  974SOL     OW 2920   2.112   1.237   2.205  0.6264 -0.2069 -0.0373
  974SOL    HW1 2921   2.165   1.253   2.119 -0.0475 -0.3659  0.6137
  974SOL    HW2 2922   2.023   1.289   2.204 -1.2089 -1.3695  0.0053
  975SOL     OW 2923   2.995   2.406   0.712 -0.3950  0.4572 -0.6601
  975SOL    HW1 2924   3.036   2.462   0.632  2.0879  2.5744 -0.8559
  975SOL    HW2 2925   3.003   2.449   0.803  2.7545 -1.2917 -0.5988
  976SOL     OW 2926   2.963   1.691   1.774  0.2205  0.6278  0.4364
  976SOL    HW1 2927   3.019   1.738   1.702  1.0484  1.4938 -1.6827
  976SOL    HW2 2928   2.908   1.763   1.823 -0.2024  1.9753 -0.8739
  977SOL     OW 2929   0.577   2.479   0.018  0.1472  0.3758 -0.0521
  977SOL    HW1 2930   0.503   2.498   3.053 -0.7254  1.8410 -1.6607
  977SOL    HW2 2931   0.672   2.487   3.085 -1.4775  2.2334  1.0585
  978SOL     OW 2932   0.590   1.892   2.575  0.4351  0.1329  0.1167
  978SOL    HW1 2933   0.501   1.921   2.531 -0.4888 -0.9953  0.1935
  978SOL    HW2 2934   0.587   1.911   2.674 -2.0151 -3.2195  1.7218
  979SOL     OW 2935   1.257   2.451   1.223 -0.0386  0.6435  0.6566
  979SOL    HW1 2936   1.322   2.516   1.263  0.6830  0.0638  3.3521
  979SOL    HW2 2937   1.315   2.375   1.186  2.8710 -0.6497  1.2574
  980SOL     OW 2938   0.496   1.512   2.981 -0.1902 -0.0814  0.0309
  980SOL    HW1 2939   0.484   1.506   2.874 -1.0191  2.0279 -0.4613
  980SOL    HW2 2940   0.592   1.528   3.013 -2.0017  0.9867 -1.8885
  981SOL     OW 2941   2.738   0.068   2.391 -0.1656 -0.3458 -0.5336
  981SOL    HW1 2942   2.752   0.033   2.295 -1.6660 -0.4920 -0.0444
  981SOL    HW2 2943   2.644   0.043   2.416  1.6837  0.3500  0.8570
  982SOL     OW 2944   3.059   2.550   2.639  0.1268 -0.1250  0.7020
  982SOL    HW1 2945   0.020   2.616   2.592  3.1939  3.7645 -1.0838
  982SOL    HW2 2946   2.961   2.572   2.617 -1.5701  1.3948 -3.1089
  983SOL     OW 2947   2.458   0.941   1.871 -0.4833 -0.3283 -0.1970
  983SOL    HW1 2948   2.528   0.990   1.930  2.1109 -2.6405 -0.8007
  983SOL    HW2 2949   2.404   0.873   1.928  0.0902  2.6691  1.0382
  984SOL     OW 2950   1.316   0.128   2.316 -0.5818  0.4381  0.6025
  984SOL    HW1 2951   1.394   0.191   2.326 -0.3450 -0.5743 -1.8957
  984SOL    HW2 2952   1.249   0.148   2.385  2.2288 -0.6123 -1.1141
  985SOL     OW 2953   1.391   2.063   2.528 -0.6284 -0.0842  0.6987
  985SOL    HW1 2954   1.468   1.998   2.519 -2.2593 -0.0042 -2.1687
  985SOL    HW2 2955   1.322   2.035   2.595 -1.3675  1.8093 -1.1194
  986SOL     OW 2956   2.127   0.520   2.120 -0.3776  0.2736 -0.1497
  986SOL    HW1 2957   2.146   0.575   2.206  3.7927 -1.6667  1.2227
  986SOL    HW2 2958   2.085   0.576   2.046  1.9330 -2.0355  2.7397
  987SOL     OW 2959   2.389   0.427   2.061  0.1100 -0.0970 -0.1550
  987SOL    HW1 2960   2.293   0.455   2.085  1.6091 -0.5546 -3.7394
  987SOL    HW2 2961   2.397   0.326   2.075 -0.1106 -0.5892  0.4425
  988SOL     OW 2962   2.581   0.656   2.654 -0.0724  0.0427  0.4952
  988SOL    HW1 2963   2.552   0.603   2.736 -0.5032  0.4584 -4.2853
  988SOL    HW2 2964   2.588   0.599   2.570 -0.4940 -0.9472  0.4554
  989SOL     OW 2965   2.467   2.470   2.582 -0.0285  0.2898  0.2753
  989SOL    HW1 2966   2.370   2.476   2.545 -2.3100 -0.7619 -4.2567
  989SOL    HW2 2967   2.529   2.450   2.502 -0.9355  1.0295  1.0577
  990SOL     OW 2968   0.355   0.537   0.066  0.4953 -0.1910  0.1390
  990SOL    HW1 2969   0.333   0.538   0.165  1.5626 -0.9290  0.5140
  990SOL    HW2 2970   0.300   0.599   0.005  2.8666  0.0330  0.3020
  991SOL     OW 2971   0.655   0.685   2.795 -0.0541 -0.2232 -0.6669
  991SOL    HW1 2972   0.622   0.617   2.869 -1.5655 -0.5443  1.8073
  991SOL    HW2 2973   0.741   0.650   2.747  0.7689 -0.6939 -0.3817
  992SOL     OW 2974   2.804   2.194   2.117  0.4406  0.1591  0.4032
  992SOL    HW1 2975   2.811   2.232   2.209  1.8186  0.2775  1.8455
  992SOL    HW2 2976   2.798   2.268   2.048  1.5036 -1.5371  2.0688
  993SOL     OW 2977   0.666   2.826   0.591  0.4814 -0.9017 -0.0000
  993SOL    HW1 2978   0.658   2.903   0.523 -0.4802 -0.1982 -2.4369
  993SOL    HW2 2979   0.642   2.863   0.684  0.6314  2.0384  0.0320
  994SOL     OW 2980   0.210   2.042   1.650  0.4066  0.7737 -0.3289
  994SOL    HW1 2981   0.284   1.974   1.645 -3.8806  0.8134  2.4346
  994SOL    HW2 2982   0.166   2.060   1.560 -0.6343 -0.9787 -1.6775
  995SOL     OW 2983   2.355   1.850   0.219  0.2858  0.0349 -0.1875
  995SOL    HW1 2984   2.372   1.952   0.220  0.1550  0.8738 -0.4127
  995SOL    HW2 2985   2.280   1.825   0.161  0.3282  0.1592 -0.9296
  996SOL     OW 2986   1.587   1.490   2.645 -0.2684 -0.0748 -0.0100
  996SOL    HW1 2987   1.538   1.413   2.596  0.2723  0.8923 -0.6581
  996SOL    HW2 2988   1.654   1.538   2.577  3.5911  1.6824 -0.8145
  997SOL     OW 2989   1.779   1.552   1.692  0.4125  0.0430 -0.1711
  997SOL    HW1 2990   1.689   1.603   1.700 -3.6021  1.3313  3.4817
  997SOL    HW2 2991   1.778   1.459   1.725 -1.1804 -1.5265 -1.2888
  998SOL     OW 2992   2.799   1.624   0.429 -0.2689  0.1612 -0.1381
  998SOL    HW1 2993   2.750   1.580   0.503  2.8119  1.6010 -1.2923
  998SOL    HW2 2994   2.748   1.629   0.341 -2.9467  0.9174 -0.8641
  999SOL     OW 2995   2.522   2.610   0.369  0.5533  0.4442  0.3960
  999SOL    HW1 2996   2.432   2.584   0.404  0.5689  2.4820  0.1499
  999SOL    HW2 2997   2.596   2.543   0.392  0.2739 -0.5721  1.2614
 1000SOL     OW 2998   0.654   2.821   2.134  0.3805 -0.5326 -0.5744
 1000SOL    HW1 2999   0.729   2.887   2.125  0.6068  0.1641  0.9746
 1000SOL    HW2 3000   0.663   2.755   2.060 -2.1655 -1.6863 -0.6161
   3.10341   3.10341   3.10341
