1000 SPC/Fw water molecules t= 308.00000 step= 308000
 3000
    1SOL     OW    1   2.769   0.020   1.018  0.0129 -0.2235  0.4257
    1SOL    HW1    2   2.748   3.009   0.974  0.0022 -0.0272  0.8461
    1SOL    HW2    3   2.849   0.004   1.074 -2.4990  0.4220 -1.2483
    2SOL     OW    4   0.069   2.382   0.850  0.1240 -0.2403 -0.3125
    2SOL    HW1    5   0.020   2.327   0.915 -0.9713  2.4585 -0.5924
    2SOL    HW2    6   0.114   2.320   0.782 -2.5225  0.5600 -0.7016
    3SOL     OW    7   0.688   2.733   2.969 -0.0027  0.0356 -0.1621
    3SOL    HW1    8   0.723   2.638   2.955 -0.4404  0.1452 -0.2166
    3SOL    HW2    9   0.645   2.761   2.886  1.5717 -0.2420 -1.1497
    4SOL     OW   10   2.081   2.379   1.801  0.2988  0.3794  0.6056
    4SOL    HW1   11   1.991   2.335   1.775 -1.8933  0.1203 -1.8437
    4SOL    HW2   12   2.142   2.310   1.844  0.1901 -0.6588 -0.6019
    5SOL     OW   13   1.576   0.995   1.201  0.6238  0.0969 -0.1452
    5SOL    HW1   14   1.532   0.928   1.137  0.1107 -2.2923 -4.4104
    5SOL    HW2   15   1.520   1.076   1.221  1.8783 -3.5419 -0.4217
    6SOL     OW   16   2.083   2.778   0.190  0.2013  0.0693 -0.3312
    6SOL    HW1   17   2.007   2.844   0.192  0.6857  1.7869 -2.0311
    6SOL    HW2   18   2.084   2.720   0.274  2.5364 -2.0466  2.1056
    7SOL     OW   19   2.800   1.312   1.280  0.0109  0.7780 -0.0567
    7SOL    HW1   20   2.791   1.413   1.287 -0.3028  1.1320 -0.7639
    7SOL    HW2   21   2.739   1.264   1.346  1.6504 -2.8099 -0.2796
    8SOL     OW   22   1.338   2.339   1.534 -0.3134 -0.0387  0.1470
    8SOL    HW1   23   1.262   2.338   1.467 -1.8271 -2.5741 -0.4783
    8SOL    HW2   24   1.344   2.426   1.587  0.1185  0.6251  0.1785
    9SOL     OW   25   1.438   2.806   2.251 -0.0442 -0.1940  0.0933
    9SOL    HW1   26   1.348   2.797   2.292  2.4352 -2.8169 -1.0190
    9SOL    HW2   27   1.430   2.824   2.150  1.3279  2.6309 -0.1630
   10SOL     OW   28   0.791   1.892   1.208  0.1628  0.1816  1.0255
   10SOL    HW1   29   0.883   1.860   1.227 -1.9830 -1.0274 -0.3054
   10SOL    HW2   30   0.796   1.979   1.157 -2.0195 -0.9842  1.2580
   11SOL     OW   31   1.914   1.744   1.061  0.3272  0.0596  0.4981
   11SOL    HW1   32   1.992   1.758   1.127  1.0275 -0.0688 -1.1255
   11SOL    HW2   33   1.922   1.808   0.977 -0.6932  2.1250 -0.7729
   12SOL     OW   34   2.449   2.686   1.558  0.0312  0.1054  0.1788
   12SOL    HW1   35   2.547   2.652   1.548 -2.6440  3.4864  2.3650
   12SOL    HW2   36   2.454   2.759   1.630  0.6073  3.5304  1.0137
   13SOL     OW   37   2.387   3.005   0.297 -0.3872 -0.0447  0.0835
   13SOL    HW1   38   2.368   2.958   0.382  2.6774  0.4459  0.5593
   13SOL    HW2   39   2.483   3.039   0.295 -2.8339 -2.8663 -1.2552
   14SOL     OW   40   1.732   2.449   0.609 -0.3153 -0.1768 -0.4389
   14SOL    HW1   41   1.631   2.451   0.632 -0.5257 -3.6182  0.0364
   14SOL    HW2   42   1.783   2.366   0.643  2.7733  3.0528 -1.9479
   15SOL     OW   43   2.819   1.903   2.026  0.3951 -0.5010  0.0739
   15SOL    HW1   44   2.911   1.908   2.069  0.3421  2.9807  0.0499
   15SOL    HW2   45   2.768   1.994   2.033 -0.6070 -0.4681  1.6793
   16SOL     OW   46   2.128   2.761   0.645  0.5074  0.0826 -0.0465
   16SOL    HW1   47   2.055   2.754   0.568 -0.7960  1.2662 -1.2454
   16SOL    HW2   48   2.083   2.783   0.734 -0.9823 -0.6414 -0.2702
   17SOL     OW   49   0.598   0.210   1.180  0.0579 -0.0212 -0.1093
   17SOL    HW1   50   0.656   0.277   1.226 -2.3219 -1.3122 -1.3402
   17SOL    HW2   51   0.586   0.226   1.080 -0.9221  3.5358  3.2853
   18SOL     OW   52   1.796   1.077   0.061  0.1790  0.0162  0.3120
   18SOL    HW1   53   1.752   1.017   0.129  2.0545 -0.2099 -0.3419
   18SOL    HW2   54   1.740   1.088   3.055 -3.0812  2.3739  0.1660
   19SOL     OW   55   1.700   2.134   0.588  0.2214  0.1576  0.1439
   19SOL    HW1   56   1.768   2.164   0.660  0.5183  3.0048  1.1046
   19SOL    HW2   57   1.747   2.143   0.500  1.0942 -0.1450 -1.1435
   20SOL     OW   58   2.381   1.801   2.083 -0.2095  0.1543 -0.2024
   20SOL    HW1   59   2.332   1.867   2.136  1.7718 -3.3193 -1.5013
   20SOL    HW2   60   2.421   1.841   1.998  3.9852 -0.3682 -1.1116
   21SOL     OW   61   1.691   0.542   0.769  0.1736 -0.3807  0.1575
   21SOL    HW1   62   1.636   0.622   0.737  2.7000  0.2267 -1.9944
   21SOL    HW2   63   1.785   0.554   0.737 -1.0541  0.2475  1.3371
   22SOL     OW   64   2.221   0.081   1.447 -0.9242  0.6456 -0.6883
   22SOL    HW1   65   2.128   0.051   1.460  0.3465  0.2301  0.2044
   22SOL    HW2   66   2.225   0.151   1.375 -0.3055  1.2384  3.0649
   23SOL     OW   67   0.077   0.511   2.016 -0.0123 -0.0681 -0.1357
   23SOL    HW1   68   0.041   0.420   2.036 -0.0944 -1.3979 -1.0558
   23SOL    HW2   69   0.017   0.564   1.950  0.9494  0.5860  0.2451
   24SOL     OW   70   2.559   2.761   0.427 -0.0300  0.2395  0.4977
   24SOL    HW1   71   2.475   2.804   0.462 -0.7447  0.9543  2.7882
   24SOL    HW2   72   2.636   2.793   0.486 -2.6102  0.3188 -1.4020
   25SOL     OW   73   1.497   0.122   2.209  0.3351 -0.0294  0.2875
   25SOL    HW1   74   1.505   0.027   2.235  0.3754 -1.0864  0.5515
   25SOL    HW2   75   1.423   0.168   2.266  2.5692 -0.2041 -0.7857
   26SOL     OW   76   1.443   2.461   0.416  0.3219 -0.2440 -0.0053
   26SOL    HW1   77   1.415   2.385   0.481  0.7322 -1.9697  1.6181
   26SOL    HW2   78   1.521   2.427   0.357  1.3792 -0.4188  0.6018
   27SOL     OW   79   2.257   1.756   0.033 -0.5833  0.0309 -0.6248
   27SOL    HW1   80   2.163   1.766   3.072  0.0052  0.1434  2.3038
   27SOL    HW2   81   2.279   1.655   0.038 -1.0928  1.5362  0.1691
   28SOL     OW   82   0.772   1.533   1.616  0.0070  0.1928 -0.1761
   28SOL    HW1   83   0.768   1.432   1.630 -4.7212 -0.7905 -0.2214
   28SOL    HW2   84   0.770   1.556   1.518  1.8971  0.6964  0.3036
   29SOL     OW   85   2.781   2.398   1.606  0.1850 -0.3365 -0.4427
   29SOL    HW1   86   2.730   2.477   1.558  0.3230  1.6404 -1.5760
   29SOL    HW2   87   2.742   2.311   1.571 -0.2469 -2.4385  0.3819
   30SOL     OW   88   1.318   0.590   1.122  0.3531 -0.0136  0.4066
   30SOL    HW1   89   1.278   0.601   1.030 -1.9339 -0.3123  0.0198
   30SOL    HW2   90   1.342   0.493   1.133  0.1547  2.8494 -3.4354
   31SOL     OW   91   2.077   2.833   1.776 -0.3713  0.0171  0.3168
   31SOL    HW1   92   2.030   2.739   1.788  0.8979  1.2405  1.7378
   31SOL    HW2   93   2.074   2.887   1.862 -2.3324  0.8664 -0.0906
   32SOL     OW   94   1.131   1.544   0.606  0.4907  0.5487 -0.3728
   32SOL    HW1   95   1.061   1.488   0.657 -0.3356  1.2758  0.0669
   32SOL    HW2   96   1.087   1.626   0.561 -0.5193 -0.2310 -0.0158
   33SOL     OW   97   0.281   0.349   2.518 -0.1452  0.8165  0.1590
   33SOL    HW1   98   0.376   0.359   2.555  0.3781 -1.3011 -0.3955
   33SOL    HW2   99   0.287   0.327   2.421 -0.2485  1.0774  2.8846
   34SOL     OW  100   1.871   3.005   0.618 -0.6768  0.1047  0.0857
   34SOL    HW1  101   1.829   3.033   0.708  2.9033 -1.0719 -0.2147
   34SOL    HW2  102   1.967   3.044   0.616  0.5140  1.2079  0.4472
   35SOL     OW  103   2.194   2.573   1.212  0.3301 -0.9045  0.2452
   35SOL    HW1  104   2.227   2.668   1.210  2.0035 -0.9550  0.4933
   35SOL    HW2  105   2.092   2.579   1.204  0.0972 -1.7434  1.3941
   36SOL     OW  106   1.759   2.349   2.723  0.5709  0.1928 -0.2932
   36SOL    HW1  107   1.675   2.290   2.729 -0.7603  0.8027  0.9698
   36SOL    HW2  108   1.765   2.399   2.634 -0.9369 -1.6005 -0.8450
   37SOL     OW  109   1.284   0.245   2.312 -0.3582 -0.0281 -0.4404
   37SOL    HW1  110   1.267   0.346   2.318  0.5627  1.1994  3.2341
   37SOL    HW2  111   1.266   0.191   2.403  1.1867 -1.0254  2.1915
   38SOL     OW  112   0.370   0.028   2.716  0.6854  0.2865  0.2209
   38SOL    HW1  113   0.451   0.078   2.741 -2.5600  0.1564  0.5378
   38SOL    HW2  114   0.392   3.021   2.663 -2.5764 -1.2132  2.2487
   39SOL     OW  115   2.426   1.142   1.605 -0.1874 -0.4165 -0.9447
   39SOL    HW1  116   2.447   1.114   1.699  1.6609  1.7879 -1.0032
   39SOL    HW2  117   2.353   1.212   1.611  0.9400 -2.4374 -0.6420
   40SOL     OW  118   1.201   2.820   0.203 -0.0800 -0.2027 -0.5126
   40SOL    HW1  119   1.167   2.914   0.236 -1.5843  0.7755  1.3834
   40SOL    HW2  120   1.131   2.755   0.238 -0.7904 -3.3164 -0.4185
   41SOL     OW  121   2.459   1.543   0.975  0.1323 -0.1838  0.1536
   41SOL    HW1  122   2.458   1.530   1.073  0.1423 -2.1570  0.4861
   41SOL    HW2  123   2.538   1.484   0.944 -0.6210  0.3088  0.7122
   42SOL     OW  124   1.054   0.424   1.287 -0.1041 -0.1979 -0.0423
   42SOL    HW1  125   0.984   0.490   1.259  1.9638  1.9896  3.0521
   42SOL    HW2  126   1.096   0.460   1.373 -2.9905 -0.5821 -0.6542
   43SOL     OW  127   2.929   1.615   2.462  0.1726  0.1900 -0.4237
   43SOL    HW1  128   2.907   1.583   2.557  1.1616  1.1023  0.4384
   43SOL    HW2  129   2.884   1.702   2.439  0.7879 -0.9595  1.7527
   44SOL     OW  130   2.391   0.280   1.715  0.2175  0.1978  0.4081
   44SOL    HW1  131   2.435   0.272   1.621  0.9375  2.4726  0.0498
   44SOL    HW2  132   2.456   0.269   1.792 -2.1025 -1.3418 -0.8235
   45SOL     OW  133   1.011   3.016   1.982  0.9247  0.5367 -0.1748
   45SOL    HW1  134   0.994   3.043   1.889 -0.2209 -2.0089  2.9663
   45SOL    HW2  135   1.083   3.072   2.020 -2.1103  2.0132 -0.7574
   46SOL     OW  136   1.153   2.898   2.550 -0.4080 -0.2477 -0.4077
   46SOL    HW1  137   1.060   2.885   2.586  2.8915 -0.5794  0.5183
   46SOL    HW2  138   1.222   2.900   2.627  0.1142  1.6025  2.3806
   47SOL     OW  139   1.768   1.792   0.442 -0.1982  0.3714 -0.3541
   47SOL    HW1  140   1.836   1.863   0.466  0.4566 -2.6037  2.3800
   47SOL    HW2  141   1.765   1.729   0.521 -0.8785  0.4875  1.0218
   48SOL     OW  142   1.160   2.125   0.689 -0.4134 -0.5898 -0.3411
   48SOL    HW1  143   1.111   2.137   0.601 -0.8106 -2.0722  1.0836
   48SOL    HW2  144   1.207   2.034   0.704  2.1639 -0.3113 -0.8348
   49SOL     OW  145   2.258   2.752   2.457  0.3639 -0.0356 -0.0129
   49SOL    HW1  146   2.220   2.798   2.372  0.0625 -0.2301 -1.8976
   49SOL    HW2  147   2.282   2.821   2.526 -1.0855  1.5861  2.3632
   50SOL     OW  148   1.595   2.871   0.101  0.3417  0.1463 -0.1466
   50SOL    HW1  149   1.683   2.918   0.126 -0.2679  1.5546  0.5454
   50SOL    HW2  150   1.546   2.930   0.039  1.9191 -1.1817  1.6712
   51SOL     OW  151   2.170   0.961   0.705 -0.5451 -0.8220 -0.2243
   51SOL    HW1  152   2.096   0.932   0.768  0.4685  0.0019 -0.0625
   51SOL    HW2  153   2.168   1.063   0.706 -0.7917  3.1797 -1.3583
   52SOL     OW  154   1.272   1.509   1.019 -0.0986  0.0326  0.1430
   52SOL    HW1  155   1.345   1.494   1.092 -0.8833 -0.4864 -0.8532
   52SOL    HW2  156   1.177   1.501   1.054  1.9404 -1.5806  0.9265
   53SOL     OW  157   0.901   1.735   2.470  0.5108  0.0003 -0.4693
   53SOL    HW1  158   0.862   1.820   2.442 -1.7290 -4.2293 -0.2745
   53SOL    HW2  159   0.951   1.743   2.561  1.5589 -0.8546  2.9626
   54SOL     OW  160   2.563   0.773   1.677 -0.1256  0.0301  0.1534
   54SOL    HW1  161   2.656   0.765   1.639  1.7307 -0.3435 -0.6887
   54SOL    HW2  162   2.541   0.697   1.744  1.1766 -0.4000  1.5154
   55SOL     OW  163   2.665   1.994   0.540  0.0531 -0.1259 -0.1596
   55SOL    HW1  164   2.692   1.901   0.493  0.1677 -0.2000 -2.1536
   55SOL    HW2  165   2.732   2.067   0.522  0.1342  1.8133 -0.5423
   56SOL     OW  166   1.349   0.334   1.873  0.5457  0.5128  0.2982
   56SOL    HW1  167   1.401   0.308   1.785  3.5262 -0.0506 -0.7297
   56SOL    HW2  168   1.265   0.383   1.844  2.6512 -0.1365 -0.9623
   57SOL     OW  169   1.220   1.390   2.962  0.0867 -0.0227 -0.1758
   57SOL    HW1  170   1.299   1.448   2.943 -3.6300 -0.6167 -1.7840
   57SOL    HW2  171   1.246   1.293   2.951 -1.6363  3.3871  0.6161
   58SOL     OW  172   2.954   0.655   1.852 -0.2442 -0.1952  0.0866
   58SOL    HW1  173   3.028   0.674   1.781 -3.5641  1.7852  1.9656
   58SOL    HW2  174   2.880   0.597   1.812  2.0827  3.0640  0.3228
   59SOL     OW  175   1.646   2.610   0.123 -0.1122 -0.1218 -0.5049
   59SOL    HW1  176   1.692   2.580   0.037  1.0550 -1.8517  0.1037
   59SOL    HW2  177   1.625   2.710   0.116  0.2195 -0.2258  0.2137
   60SOL     OW  178   2.869   1.889   0.027 -0.1068 -0.0424  0.0337
   60SOL    HW1  179   2.888   1.903   0.131  0.2231 -0.9476  2.6488
   60SOL    HW2  180   2.873   1.981   3.061 -0.2594  2.4472 -2.5125
   61SOL     OW  181   0.810   2.824   0.998 -0.2481 -0.6113  0.0466
   61SOL    HW1  182   0.907   2.847   0.972 -0.9526  1.1618  1.0199
   61SOL    HW2  183   0.744   2.826   0.920 -0.3321  1.2740  2.6040
   62SOL     OW  184   1.907   2.073   2.515 -1.0386 -0.4740 -0.3667
   62SOL    HW1  185   2.002   2.100   2.495 -1.1262  0.1094  3.2804
   62SOL    HW2  186   1.883   1.996   2.453  3.6677 -1.5284  2.2349
   63SOL     OW  187   2.305   2.555   0.681  0.3235 -0.0387  0.8383
   63SOL    HW1  188   2.259   2.642   0.663 -1.4202 -2.3830 -0.4927
   63SOL    HW2  189   2.396   2.550   0.635 -0.3831 -0.7859  1.8714
   64SOL     OW  190   1.346   0.857   2.455  0.1168 -0.0348  0.8170
   64SOL    HW1  191   1.266   0.846   2.514  1.0228 -1.7737 -1.6471
   64SOL    HW2  192   1.387   0.764   2.437 -0.7398 -1.6976  1.2177
   65SOL     OW  193   1.912   1.670   2.443 -0.1347  0.8285 -0.0274
   65SOL    HW1  194   1.863   1.580   2.457  1.3234  1.1836  2.0486
   65SOL    HW2  195   1.854   1.740   2.389  0.0970 -0.8611 -1.7178
   66SOL     OW  196   0.252   0.873   1.554  0.1635 -0.0521 -0.5373
   66SOL    HW1  197   0.265   0.970   1.528  1.9811  0.1508  1.3122
   66SOL    HW2  198   0.341   0.845   1.588 -3.2724  1.6317 -0.1510
   67SOL     OW  199   2.290   2.875   2.683 -0.0995  0.1434  0.0188
   67SOL    HW1  200   2.321   2.801   2.749 -0.3275 -0.9322  1.3848
   67SOL    HW2  201   2.328   2.965   2.704  1.5837 -2.4029  1.5957
   68SOL     OW  202   1.098   2.752   1.364 -0.1335  0.4776 -0.1395
   68SOL    HW1  203   1.128   2.844   1.333  1.0909 -0.3886 -1.0050
   68SOL    HW2  204   1.012   2.720   1.320 -1.5762 -2.6774 -0.5750
   69SOL     OW  205   0.556   2.441   0.148  0.2356 -0.0232  0.3430
   69SOL    HW1  206   0.651   2.468   0.177  4.5672 -0.2625  1.5835
   69SOL    HW2  207   0.557   2.340   0.139  1.1283 -0.9421 -0.6889
   70SOL     OW  208   2.675   0.210   2.235 -0.4728 -0.1213  0.0127
   70SOL    HW1  209   2.623   0.140   2.281  0.2707  0.0457 -1.0204
   70SOL    HW2  210   2.635   0.232   2.146  1.3010 -0.5794  0.2512
   71SOL     OW  211   0.472   1.241   2.606 -0.4343 -1.0776  0.2319
   71SOL    HW1  212   0.431   1.215   2.514  2.0980 -0.8535  1.1000
   71SOL    HW2  213   0.400   1.285   2.667  0.5669  1.5588  0.9780
   72SOL     OW  214   2.900   2.117   2.937 -0.0333 -0.1528  0.1772
   72SOL    HW1  215   2.864   2.206   2.909  1.8840  0.4859  0.9218
   72SOL    HW2  216   2.861   2.048   2.871  0.9068  0.0147  1.6439
   73SOL     OW  217   1.440   1.054   0.630 -0.0333  0.2905  0.2989
   73SOL    HW1  218   1.520   1.030   0.690  1.3184  2.0147 -1.4537
   73SOL    HW2  219   1.466   1.047   0.532 -1.7708  1.3022 -1.0916
   74SOL     OW  220   2.359   2.664   2.860  0.3200 -0.0695  0.0885
   74SOL    HW1  221   2.295   2.593   2.830 -1.2245 -0.6475 -1.0136
   74SOL    HW2  222   2.355   2.687   2.956 -0.6138 -0.1497 -1.8013
   75SOL     OW  223   2.220   1.933   0.863 -0.1312  0.1609  0.3794
   75SOL    HW1  224   2.260   1.972   0.945  0.4101  0.7966  1.2254
   75SOL    HW2  225   2.275   1.864   0.813 -3.8124  0.6029  1.6417
   76SOL     OW  226   2.101   2.476   1.544 -0.1891 -0.3731 -0.2303
   76SOL    HW1  227   2.184   2.442   1.490 -1.4965  3.0674  0.7075
   76SOL    HW2  228   2.096   2.432   1.636 -2.5221 -0.5710 -1.1639
   77SOL     OW  229   2.426   0.030   2.012  0.0050 -0.3279  0.3682
   77SOL    HW1  230   2.472   0.120   2.006  0.3648 -2.4935 -2.7800
   77SOL    HW2  231   2.357   0.019   1.932 -1.0087 -1.6485  0.2764
   78SOL     OW  232   1.692   0.941   2.879  0.3197  0.0022 -0.0627
   78SOL    HW1  233   1.597   0.901   2.878 -0.3250  0.6983 -0.6315
   78SOL    HW2  234   1.756   0.890   2.937 -0.5494 -0.7617  1.2335
   79SOL     OW  235   2.349   1.517   2.255  0.0121 -0.0537 -0.1550
   79SOL    HW1  236   2.443   1.533   2.287  2.0158  1.9406 -2.3558
   79SOL    HW2  237   2.286   1.582   2.304 -0.4107  0.3275  2.0035
   80SOL     OW  238   2.081   1.666   1.526 -0.1082  0.1829 -0.4017
   80SOL    HW1  239   2.011   1.715   1.579  0.3467  1.3916 -1.0311
   80SOL    HW2  240   2.171   1.650   1.574  0.1442  2.8870 -0.9018
   81SOL     OW  241   1.612   0.641   1.296 -0.3771  0.2785 -0.4820
   81SOL    HW1  242   1.630   0.647   1.197 -0.5035 -0.6177 -0.2271
   81SOL    HW2  243   1.516   0.672   1.324 -4.8986  0.6565 -0.9926
   82SOL     OW  244   1.725   2.564   1.605 -0.1597  0.4847 -0.3123
   82SOL    HW1  245   1.758   2.488   1.541  0.8586 -0.3069 -1.1692
   82SOL    HW2  246   1.784   2.574   1.688  1.7983 -0.2138  0.3582
   83SOL     OW  247   3.039   3.038   0.461  0.5649  0.0054 -0.0261
   83SOL    HW1  248   0.059   2.998   0.467  2.5413 -1.6296 -4.8955
   83SOL    HW2  249   3.020   0.019   0.375 -1.9924 -2.0573  0.6030
   84SOL     OW  250   0.343   1.042   0.197  0.0333  0.8899 -0.5718
   84SOL    HW1  251   0.359   1.003   0.291  0.7142  2.2057 -2.2219
   84SOL    HW2  252   0.386   0.987   0.126 -0.5707  1.3949  0.0534
   85SOL     OW  253   2.780   1.985   1.551  0.1226 -0.3037  0.4654
   85SOL    HW1  254   2.875   1.991   1.592 -0.1550  0.9550  1.6304
   85SOL    HW2  255   2.724   1.913   1.601 -1.3226 -0.0012  2.0943
   86SOL     OW  256   0.016   2.629   1.401 -0.2624  0.1691  0.0993
   86SOL    HW1  257   0.072   2.544   1.402 -0.8286 -0.0429  0.6757
   86SOL    HW2  258   0.073   2.711   1.385 -0.7489 -0.1907  1.2506
   87SOL     OW  259   0.410   2.946   2.188  0.5077  0.2229 -0.9534
   87SOL    HW1  260   0.490   2.996   2.155  0.3293 -0.6267  0.4572
   87SOL    HW2  261   0.380   2.990   2.275  2.7490  2.5894  1.2116
   88SOL     OW  262   0.477   2.248   1.111  0.2271 -0.4628  0.0864
   88SOL    HW1  263   0.524   2.329   1.069 -0.1026  2.4625  0.3321
   88SOL    HW2  264   0.424   2.191   1.048 -2.2612 -1.4288  0.7344
   89SOL     OW  265   0.944   0.697   1.630  0.4677 -0.2085 -0.3980
   89SOL    HW1  266   1.036   0.721   1.653 -1.2823 -0.4181 -1.6558
   89SOL    HW2  267   0.939   0.604   1.592  0.8514  2.6654  1.9300
   90SOL     OW  268   2.881   0.885   1.687 -0.3031 -0.8253  0.4053
   90SOL    HW1  269   2.925   0.810   1.739 -0.7486  0.6981  1.4130
   90SOL    HW2  270   2.835   0.954   1.747 -1.7085  0.3325 -2.6111
   91SOL     OW  271   1.355   1.143   1.044  0.0825 -0.1248 -0.7761
   91SOL    HW1  272   1.324   1.086   0.966  0.4763  2.1804  1.1201
   91SOL    HW2  273   1.438   1.199   1.025 -3.1010 -2.3695  0.9142
   92SOL     OW  274   2.451   1.190   1.000 -0.2747  0.2063 -0.4733
   92SOL    HW1  275   2.528   1.192   0.934  0.7736  0.4483 -1.7690
   92SOL    HW2  276   2.374   1.244   0.969  0.4407 -0.1337  0.2124
   93SOL     OW  277   2.328   0.500   2.508 -0.2223  0.3166  0.8549
   93SOL    HW1  278   2.405   0.477   2.443  0.1636 -0.9610  2.4535
   93SOL    HW2  279   2.258   0.560   2.471  2.3049 -0.1708  1.4587
   94SOL     OW  280   2.280   1.877   2.483  0.2920 -0.0180  0.4012
   94SOL    HW1  281   2.270   1.928   2.393 -0.5568  5.0776 -1.7359
   94SOL    HW2  282   2.251   1.936   2.559  0.1330  0.2787  0.0888
   95SOL     OW  283   2.136   0.556   0.968  0.1646  0.2132  0.2377
   95SOL    HW1  284   2.103   0.473   1.017  1.4618  0.5931  1.8175
   95SOL    HW2  285   2.236   0.556   0.976  3.0117 -2.9240 -1.7243
   96SOL     OW  286   2.681   2.960   1.725 -0.0227  0.5685 -0.1599
   96SOL    HW1  287   2.586   2.924   1.748 -1.6353 -0.2072  0.4008
   96SOL    HW2  288   2.682   3.056   1.695  1.4600 -1.7577 -0.4613
   97SOL     OW  289   2.453   0.782   1.268 -0.0174 -0.2584 -0.1957
   97SOL    HW1  290   2.502   0.866   1.232  0.0909 -0.5713 -0.4666
   97SOL    HW2  291   2.415   0.804   1.359  1.3748  1.8708 -1.9676
   98SOL     OW  292   1.347   2.122   1.689 -0.2243  0.1890 -0.0386
   98SOL    HW1  293   1.258   2.106   1.734  0.6411  0.3380 -0.6889
   98SOL    HW2  294   1.339   2.193   1.616  0.0841 -0.4701 -0.9660
   99SOL     OW  295   2.995   2.241   1.662 -0.5051  0.2754 -0.4426
   99SOL    HW1  296   2.920   2.312   1.643 -1.0044 -0.3728 -2.3202
   99SOL    HW2  297   3.005   2.223   1.764 -0.7295 -2.0584  2.4488
  100SOL     OW  298   0.943   0.949   3.023 -0.1146  0.3861  0.3685
  100SOL    HW1  299   0.880   0.914   0.012  3.3748 -0.8508 -0.9829
  100SOL    HW2  300   1.025   0.999   3.064  2.7910 -0.3545 -1.3750
  101SOL     OW  301   2.030   0.199   2.708  1.2111 -0.0433 -0.2191
  101SOL    HW1  302   1.966   0.120   2.735 -1.8471 -0.1832  0.0401
  101SOL    HW2  303   2.031   0.273   2.778  2.7871  1.0593  1.2066
  102SOL     OW  304   0.639   0.517   1.671  0.0858 -0.1196  0.0454
  102SOL    HW1  305   0.609   0.612   1.660 -1.2104 -2.2443  0.8189
  102SOL    HW2  306   0.596   0.485   1.753 -1.4674  0.6124 -1.1183
  103SOL     OW  307   0.479   0.347   2.872  0.1152  0.2851  0.2102
  103SOL    HW1  308   0.514   0.446   2.888  1.6334  0.9259  1.1605
  103SOL    HW2  309   0.380   0.349   2.876  1.4183  1.2350 -0.1546
  104SOL     OW  310   1.135   0.511   2.593  0.4226 -0.9466 -0.2474
  104SOL    HW1  311   1.071   0.438   2.634 -0.0387 -0.7162 -1.4321
  104SOL    HW2  312   1.167   0.484   2.500  0.5953  1.4897 -2.7024
  105SOL     OW  313   2.284   1.920   1.723 -0.6731  0.2061  0.6984
  105SOL    HW1  314   2.277   1.822   1.703  0.4151  0.8153  1.7725
  105SOL    HW2  315   2.368   1.940   1.779  0.7513 -0.5493 -0.7190
  106SOL     OW  316   1.674   0.441   0.435  0.0230 -0.4417  0.3919
  106SOL    HW1  317   1.628   0.408   0.514 -0.0006  3.6034 -0.8291
  106SOL    HW2  318   1.708   0.360   0.384  1.2030 -0.5992 -0.3897
  107SOL     OW  319   2.856   1.937   0.889 -0.4195 -0.2136 -0.1979
  107SOL    HW1  320   2.835   1.960   0.989 -0.3682  3.9189  2.9931
  107SOL    HW2  321   2.959   1.925   0.884 -0.2829  0.3743  0.3473
  108SOL     OW  322   2.648   2.527   1.396  0.0743  0.4223  0.2671
  108SOL    HW1  323   2.736   2.578   1.383 -1.4409  2.1836 -0.1771
  108SOL    HW2  324   2.604   2.522   1.305  1.2232 -0.2083  1.0367
  109SOL     OW  325   2.022   2.745   0.892 -0.5820  0.1952  0.0246
  109SOL    HW1  326   1.985   2.669   0.948  2.1498  3.2133  1.3034
  109SOL    HW2  327   1.994   2.835   0.935  1.4995  2.7999  0.9229
  110SOL     OW  328   0.596   1.896   2.371 -0.1748 -0.8550 -0.3421
  110SOL    HW1  329   0.545   1.984   2.365  0.8742 -0.7297  1.0385
  110SOL    HW2  330   0.586   1.853   2.464  0.6901 -1.6073  1.0468
  111SOL     OW  331   1.769   2.402   1.986  0.0023 -0.2516  0.3015
  111SOL    HW1  332   1.676   2.403   2.029 -2.5496 -2.3207 -0.8389
  111SOL    HW2  333   1.773   2.350   1.896  0.2469  0.3340 -1.7258
  112SOL     OW  334   2.048   2.036   3.048  0.9366 -0.4906 -0.5480
  112SOL    HW1  335   2.109   2.085   0.036 -0.0265 -0.9548  1.2547
  112SOL    HW2  336   2.020   2.095   2.968 -1.7602 -1.3380 -1.3436
  113SOL     OW  337   1.747   2.095   1.471 -0.2057 -0.5806 -0.1514
  113SOL    HW1  338   1.839   2.054   1.443  1.8059 -2.7430 -4.5968
  113SOL    HW2  339   1.699   2.029   1.531 -0.5579 -0.9295 -0.0056
  114SOL     OW  340   2.882   1.185   0.557  0.0921  0.0810 -0.1902
  114SOL    HW1  341   2.886   1.236   0.646  0.2721  1.4234  2.6445
  114SOL    HW2  342   2.786   1.161   0.537  0.6059  1.9549 -1.5023
  115SOL     OW  343   0.613   0.752   0.233  0.2208  0.3068 -0.3049
  115SOL    HW1  344   0.559   0.789   0.154 -1.6342  0.6467  1.9295
  115SOL    HW2  345   0.563   0.681   0.293 -1.0590 -0.8922  2.1039
  116SOL     OW  346   2.603   1.543   2.412  0.2090  0.1087 -0.3745
  116SOL    HW1  347   2.578   1.470   2.483 -1.6031 -1.5389  0.5867
  116SOL    HW2  348   2.599   1.636   2.451  0.7064  2.3827  1.0823
  117SOL     OW  349   3.043   3.012   0.760 -0.2864  0.0076  0.4542
  117SOL    HW1  350   3.022   3.034   0.661  0.9551  2.1782  0.5185
  117SOL    HW2  351   2.994   2.931   0.792  0.8091 -1.9872  0.0827
  118SOL     OW  352   1.008   1.717   2.733 -0.1016 -0.2318  0.5582
  118SOL    HW1  353   1.044   1.693   2.827 -1.1061  1.0813  0.8980
  118SOL    HW2  354   0.901   1.717   2.746 -1.6981  0.2941  2.3379
  119SOL     OW  355   0.467   2.321   0.466  0.4197 -0.1108  0.1524
  119SOL    HW1  356   0.538   2.345   0.535 -0.4593 -0.3837 -1.1215
  119SOL    HW2  357   0.425   2.405   0.431  1.4174 -1.1798  1.4781
  120SOL     OW  358   1.202   0.742   0.033  0.3793  0.2206  0.0534
  120SOL    HW1  359   1.158   0.785   3.028  2.6637  3.4502  0.7640
  120SOL    HW2  360   1.158   0.761   0.123 -1.2904 -2.7089 -1.5584
  121SOL     OW  361   1.289   2.636   0.676  0.5778  0.6163  0.2954
  121SOL    HW1  362   1.365   2.571   0.688 -2.2153 -0.3511  1.1484
  121SOL    HW2  363   1.309   2.706   0.606 -1.1169 -3.7678  0.9482
  122SOL     OW  364   2.327   2.467   1.414 -0.0657  0.1631  0.2177
  122SOL    HW1  365   2.351   2.542   1.477 -0.7282 -2.3574 -1.9948
  122SOL    HW2  366   2.284   2.507   1.331  0.0885  0.2292 -1.9827
  123SOL     OW  367   0.883   1.997   0.511  0.7768  0.3060  0.2884
  123SOL    HW1  368   0.929   2.088   0.498 -0.7346  1.6976 -0.5697
  123SOL    HW2  369   0.781   2.011   0.494 -0.6237  0.3310  1.2006
  124SOL     OW  370   2.536   0.671   0.107  0.1073 -0.6571  0.5840
  124SOL    HW1  371   2.464   0.606   0.072  1.0876  0.5242 -0.6310
  124SOL    HW2  372   2.541   0.670   0.213  0.0030  0.1656  3.6403
  125SOL     OW  373   0.374   0.853   0.395 -0.3417 -0.2707 -0.4712
  125SOL    HW1  374   0.310   0.839   0.470  0.4444 -2.1072 -2.5264
  125SOL    HW2  375   0.436   0.774   0.390  1.9498  2.2136  2.1663
  126SOL     OW  376   0.125   1.747   1.097  0.0084 -0.6534  0.2416
  126SOL    HW1  377   0.225   1.736   1.092 -3.0237  0.6592 -0.1185
  126SOL    HW2  378   0.088   1.754   1.194  0.8580 -1.4196  2.4373
  127SOL     OW  379   1.152   1.831   1.923  0.3657 -1.1459  0.3145
  127SOL    HW1  380   1.080   1.821   1.997 -0.4433 -0.4606  2.8944
  127SOL    HW2  381   1.158   1.931   1.903 -1.3403  2.1036  1.6520
  128SOL     OW  382   1.164   1.023   0.467 -0.0661 -0.6607 -0.5994
  128SOL    HW1  383   1.265   1.039   0.488  0.5148 -2.7448  2.1066
  128SOL    HW2  384   1.108   1.104   0.473 -0.6462 -1.7279  0.0059
  129SOL     OW  385   2.110   1.225   0.724 -0.2577  0.6376 -0.1746
  129SOL    HW1  386   2.141   1.315   0.745 -1.1315 -0.4640 -0.9106
  129SOL    HW2  387   2.082   1.215   0.626  1.3657  0.7380  1.6955
  130SOL     OW  388   2.609   1.558   1.357 -0.1761 -0.0665  0.0834
  130SOL    HW1  389   2.690   1.594   1.305 -0.8028  1.0942 -1.6651
  130SOL    HW2  390   2.553   1.500   1.296  1.7298 -0.6687  0.6367
  131SOL     OW  391   3.009   2.807   2.800 -0.3384 -0.4029  0.0534
  131SOL    HW1  392   3.017   2.876   2.876 -1.1803 -1.5253 -0.3339
  131SOL    HW2  393   3.039   2.835   2.711 -1.6948  0.1617  0.5789
  132SOL     OW  394   0.171   1.446   0.700  0.7516  0.0025  0.3062
  132SOL    HW1  395   0.101   1.457   0.624 -0.9864 -1.1755 -1.9346
  132SOL    HW2  396   0.163   1.355   0.737 -0.6158  0.5822 -0.8062
  133SOL     OW  397   0.868   0.445   1.552 -0.2859 -0.5859  0.3272
  133SOL    HW1  398   0.793   0.492   1.608 -1.3277  0.4575  2.2175
  133SOL    HW2  399   0.915   0.374   1.607 -0.4514 -0.6198  1.4029
  134SOL     OW  400   0.170   1.833   2.893 -0.1056 -0.0860 -0.3511
  134SOL    HW1  401   0.153   1.870   2.982  0.2185 -1.8041 -3.9685
  134SOL    HW2  402   0.125   1.897   2.826 -0.6659 -0.4684  1.0508
  135SOL     OW  403   1.673   0.568   1.754  0.2948 -0.0731  0.2138
  135SOL    HW1  404   1.697   0.565   1.653  0.8171  0.9957 -0.7064
  135SOL    HW2  405   1.682   0.664   1.795  1.6109 -0.5136  0.4372
  136SOL     OW  406   2.936   1.134   0.048  0.4855  0.2938  0.8080
  136SOL    HW1  407   3.019   1.075   0.069  1.1788  0.4182 -0.0357
  136SOL    HW2  408   2.847   1.102   0.091 -0.6837 -2.2519 -1.1575
  137SOL     OW  409   0.242   1.267   0.974 -0.0166  0.2917 -0.1014
  137SOL    HW1  410   0.211   1.225   0.887  0.2295 -2.2171 -1.2136
  137SOL    HW2  411   0.246   1.370   0.965  0.9208 -1.9157  1.7556
  138SOL     OW  412   1.937   0.706   1.057  1.1787  0.9091  0.3350
  138SOL    HW1  413   2.008   0.641   1.019 -0.6410 -2.8258  1.2102
  138SOL    HW2  414   1.850   0.662   1.067  0.6561  0.6119 -0.1118
  139SOL     OW  415   1.403   2.763   0.408 -0.4199 -0.8407 -0.1661
  139SOL    HW1  416   1.430   2.666   0.419 -0.4874 -1.9782 -0.7927
  139SOL    HW2  417   1.329   2.780   0.338  2.1980 -2.0887  2.7571
  140SOL     OW  418   1.452   1.506   1.701  0.5476  0.3697 -0.5189
  140SOL    HW1  419   1.412   1.575   1.767 -0.3820  0.9236  0.0874
  140SOL    HW2  420   1.377   1.457   1.656  1.4283 -0.7366  1.1146
  141SOL     OW  421   1.463   2.038   0.477  0.1314 -0.4717  0.3664
  141SOL    HW1  422   1.554   2.056   0.521 -0.5044  1.4330  0.1071
  141SOL    HW2  423   1.470   1.995   0.384 -1.0317 -0.8653  0.4648
  142SOL     OW  424   1.073   0.345   0.190 -0.0210 -0.2110 -0.3017
  142SOL    HW1  425   1.123   0.380   0.106 -1.0837 -0.1970 -0.4040
  142SOL    HW2  426   1.003   0.415   0.214  0.7535 -0.4508  0.7687
  143SOL     OW  427   0.352   2.046   2.615  0.1436 -0.3196  0.1233
  143SOL    HW1  428   0.319   2.119   2.674 -1.1718 -1.4990 -2.2291
  143SOL    HW2  429   0.396   2.088   2.531  0.2508  0.9447 -2.6697
  144SOL     OW  430   1.457   2.656   1.093  0.2052  0.1246  0.0708
  144SOL    HW1  431   1.468   2.610   1.182 -1.3866 -0.1798 -0.3943
  144SOL    HW2  432   1.550   2.681   1.062  1.9603 -0.9588  1.0938
  145SOL     OW  433   1.944   0.958   2.754  0.4707  0.0199 -0.1059
  145SOL    HW1  434   2.003   0.967   2.839 -0.4602  0.1346 -0.8365
  145SOL    HW2  435   1.847   0.958   2.779  1.5445  2.1634 -2.0053
  146SOL     OW  436   0.244   2.586   0.938  0.7824  0.3776  0.0130
  146SOL    HW1  437   0.228   2.682   0.907  0.4471  0.2426 -0.5772
  146SOL    HW2  438   0.169   2.527   0.912  2.3910  1.4434 -1.1625
  147SOL     OW  439   2.259   0.026   1.788 -0.3950 -0.2105 -0.3932
  147SOL    HW1  440   2.163   0.020   1.755  2.2325  1.3221  0.5798
  147SOL    HW2  441   2.315   0.081   1.722 -1.3390 -0.4651 -1.3868
  148SOL     OW  442   0.763   2.907   2.023  0.3351 -0.2303 -0.3465
  148SOL    HW1  443   0.855   2.932   1.994 -3.1618  0.3863 -0.5670
  148SOL    HW2  444   0.720   2.850   1.949  1.2862 -1.0438  0.3745
  149SOL     OW  445   1.666   0.323   2.540 -0.1230 -0.0613 -0.1858
  149SOL    HW1  446   1.577   0.339   2.587 -2.1715 -0.4814  0.8117
  149SOL    HW2  447   1.652   0.323   2.441  1.1588  2.2888  1.3259
  150SOL     OW  448   3.010   0.096   0.210 -0.2048 -0.1841  0.0400
  150SOL    HW1  449   2.949   0.070   0.134  2.0466 -0.1141 -0.4724
  150SOL    HW2  450   3.015   0.198   0.213 -1.4246  0.0161 -3.4179
  151SOL     OW  451   0.588   1.880   0.597  0.2565 -0.5224  0.8018
  151SOL    HW1  452   0.643   1.796   0.593 -1.0654 -2.7219 -0.7496
  151SOL    HW2  453   0.505   1.856   0.650  1.1412 -1.7476 -2.4084
  152SOL     OW  454   2.898   0.338   0.509 -0.5365  0.2134  0.3626
  152SOL    HW1  455   2.966   0.294   0.568  1.3553  1.8012  0.2457
  152SOL    HW2  456   2.900   0.438   0.516  3.1852  1.4359 -1.7043
  153SOL     OW  457   2.716   0.348   1.282 -0.3900 -0.6272 -0.3640
  153SOL    HW1  458   2.811   0.309   1.270 -0.8717 -4.8048  0.8970
  153SOL    HW2  459   2.671   0.365   1.192  2.0310 -0.0255 -1.0314
  154SOL     OW  460   1.223   0.033   2.123  0.0894 -0.4519  0.0233
  154SOL    HW1  461   1.265   0.125   2.139 -0.4172 -1.3153  0.8655
  154SOL    HW2  462   1.287   3.044   2.090 -0.4130  1.1738 -2.2244
  155SOL     OW  463   0.599   1.922   1.007 -0.2686  0.1199 -0.3518
  155SOL    HW1  464   0.571   2.017   0.983  0.1352 -3.1998 -1.0401
  155SOL    HW2  465   0.646   1.912   1.097  0.3665 -0.9088 -0.7066
  156SOL     OW  466   2.224   2.135   0.166  0.2993  0.1703  0.1822
  156SOL    HW1  467   2.197   2.232   0.169  0.4200 -1.5704  1.7852
  156SOL    HW2  468   2.197   2.090   0.256  0.2547 -0.7780  0.1429
  157SOL     OW  469   0.917   0.555   0.270  0.3281  0.1523  0.0338
  157SOL    HW1  470   0.880   0.582   0.360 -2.9752 -1.1461 -1.0241
  157SOL    HW2  471   0.976   0.630   0.235  2.0218 -1.2381  0.5572
  158SOL     OW  472   2.515   0.133   2.603 -0.0822  0.2702  0.2038
  158SOL    HW1  473   2.500   0.109   2.702 -1.2428 -0.1078 -0.0536
  158SOL    HW2  474   2.429   0.167   2.561 -0.6201 -1.2550  0.2988
  159SOL     OW  475   3.041   0.245   0.729 -0.0884 -0.3404  0.4147
  159SOL    HW1  476   0.027   0.314   0.690 -1.9999  0.1407 -1.3694
  159SOL    HW2  477   0.007   0.176   0.785 -4.5125 -1.4245 -0.6702
  160SOL     OW  478   1.508   1.728   2.315 -0.5381 -0.1395 -0.3441
  160SOL    HW1  479   1.469   1.683   2.401 -1.4739 -2.3154  0.7087
  160SOL    HW2  480   1.444   1.800   2.275 -2.0284  1.8721 -2.0380
  161SOL     OW  481   2.857   1.029   2.548  0.3811 -0.8533 -0.2420
  161SOL    HW1  482   2.863   0.930   2.523  0.5060  1.6243  2.1209
  161SOL    HW2  483   2.912   1.049   2.631  0.0032  1.0081 -1.0518
  162SOL     OW  484   0.426   2.264   1.384 -0.2033 -0.4941 -0.8099
  162SOL    HW1  485   0.427   2.171   1.417 -0.5332  3.1440  0.0684
  162SOL    HW2  486   0.451   2.276   1.288  0.3411  1.5837 -4.0411
  163SOL     OW  487   1.947   0.232   2.312 -0.0149 -0.1710 -0.1930
  163SOL    HW1  488   2.026   0.170   2.307 -0.4659  1.5402 -1.2915
  163SOL    HW2  489   1.952   0.272   2.406  3.8831  0.6586 -0.7413
  164SOL     OW  490   2.052   1.799   0.257 -0.3889  0.4476 -0.0625
  164SOL    HW1  491   1.960   1.758   0.243 -1.2916  1.0247  1.7665
  164SOL    HW2  492   2.109   1.802   0.170  0.8515 -2.0900 -4.3028
  165SOL     OW  493   0.019   0.338   1.501  0.1552 -0.0585 -0.3736
  165SOL    HW1  494   0.014   0.431   1.462 -3.0161 -0.0015 -1.0266
  165SOL    HW2  495   3.057   0.264   1.442  1.0338 -1.0328 -0.3255
  166SOL     OW  496   2.050   0.999   2.990 -0.7902 -0.5271  0.3130
  166SOL    HW1  497   2.118   0.953   3.053  2.4753  0.7692 -0.1079
  166SOL    HW2  498   1.969   1.036   3.029  3.5777 -1.3592 -2.7026
  167SOL     OW  499   2.801   0.722   0.058 -0.2990  0.1115 -0.6661
  167SOL    HW1  500   2.701   0.693   0.065 -0.5723 -0.1016  0.7318
  167SOL    HW2  501   2.852   0.668   3.073  2.1778  3.7808  2.1517
  168SOL     OW  502   1.572   2.695   2.646  0.1370 -0.5243 -0.3806
  168SOL    HW1  503   1.489   2.755   2.661 -1.8388  0.8960  0.8176
  168SOL    HW2  504   1.640   2.715   2.717 -3.2943  1.0143 -0.7119
  169SOL     OW  505   0.439   1.576   0.519  0.1225  0.3487  0.2882
  169SOL    HW1  506   0.523   1.539   0.482  2.3363  0.1995 -0.7852
  169SOL    HW2  507   0.363   1.510   0.505 -2.0556 -1.3034  0.0822
  170SOL     OW  508   0.339   0.342   1.273 -0.1331  0.4480 -0.1503
  170SOL    HW1  509   0.367   0.391   1.361  1.1553  0.8812  1.4369
  170SOL    HW2  510   0.424   0.318   1.220  1.5761  0.7126  3.0308
  171SOL     OW  511   1.179   2.245   2.823 -0.4283  0.8917 -0.8780
  171SOL    HW1  512   1.175   2.209   2.725 -0.5171 -0.0667 -3.9394
  171SOL    HW2  513   1.172   2.347   2.819  3.0748 -2.7201  3.3130
  172SOL     OW  514   2.849   2.666   1.288 -0.1892 -0.5705  0.1761
  172SOL    HW1  515   2.848   2.646   1.189  2.5928 -1.0250 -0.1823
  172SOL    HW2  516   2.934   2.630   1.335  0.9585 -1.6288  1.2322
  173SOL     OW  517   1.578   0.561   2.912  0.2592 -0.3365  0.1413
  173SOL    HW1  518   1.646   0.554   2.987  1.9493  1.0432  0.7738
  173SOL    HW2  519   1.626   0.576   2.821  2.6751 -0.8320 -0.6424
  174SOL     OW  520   1.152   0.059   2.811 -0.2551  0.3437  0.0603
  174SOL    HW1  521   1.089   3.065   2.846  1.1136  3.4337 -0.8407
  174SOL    HW2  522   1.220   0.086   2.879  0.6015 -1.0516 -2.0890
  175SOL     OW  523   2.229   2.115   0.640  0.1700 -0.3979  0.0071
  175SOL    HW1  524   2.191   2.208   0.613  0.6704 -0.3037 -0.3161
  175SOL    HW2  525   2.158   2.073   0.699  0.3232 -0.1278  0.4080
  176SOL     OW  526   1.340   0.059   3.024  0.3142  0.0676 -0.3819
  176SOL    HW1  527   1.340   0.088   0.040 -0.4228 -0.2398 -2.9291
  176SOL    HW2  528   1.302   3.049   3.009  1.1673  4.1696 -3.6347
  177SOL     OW  529   0.979   1.540   0.346  0.2897  0.6829  0.3777
  177SOL    HW1  530   0.959   1.637   0.335  0.4394  1.5132 -1.2216
  177SOL    HW2  531   1.055   1.516   0.281  1.5574 -0.2613 -0.5602
  178SOL     OW  532   2.492   2.292   3.029  0.5640 -0.1915  0.0248
  178SOL    HW1  533   2.485   2.356   0.027  2.5097 -0.9476 -0.1110
  178SOL    HW2  534   2.482   2.197   3.065  0.1514  0.1911  0.4307
  179SOL     OW  535   2.614   2.755   2.889 -0.4345  0.8306  0.1027
  179SOL    HW1  536   2.525   2.710   2.869 -0.0065  0.4720  0.4186
  179SOL    HW2  537   2.643   2.809   2.809  0.4600 -0.4761 -0.7160
  180SOL     OW  538   1.673   1.556   0.895  0.3044 -0.7597 -0.4276
  180SOL    HW1  539   1.703   1.524   0.986 -0.5352  1.0274 -2.1341
  180SOL    HW2  540   1.650   1.477   0.834  1.4275  1.1541 -0.0407
  181SOL     OW  541   1.868   0.770   2.375 -0.1061  0.2750 -0.1613
  181SOL    HW1  542   1.822   0.858   2.387  0.8466 -0.7560  0.2531
  181SOL    HW2  543   1.803   0.703   2.341  2.7969 -0.1552 -3.2148
  182SOL     OW  544   2.603   3.069   2.375  0.1040 -0.7247  0.5262
  182SOL    HW1  545   2.605   2.972   2.409 -0.7974 -2.0035 -0.6557
  182SOL    HW2  546   2.585   0.054   2.458  1.5111 -2.0802 -0.4099
  183SOL     OW  547   1.676   0.574   2.271 -0.3345 -0.4242  0.4185
  183SOL    HW1  548   1.635   0.624   2.193  0.7391 -1.0044  1.2480
  183SOL    HW2  549   1.686   0.478   2.247 -0.0755  1.1354 -0.0647
  184SOL     OW  550   0.129   1.152   1.198 -0.1802  0.5107  0.5167
  184SOL    HW1  551   0.178   1.174   1.112  2.5989  2.0775 -1.4542
  184SOL    HW2  552   0.137   1.055   1.225  0.3462  2.2949  1.0881
  185SOL     OW  553   1.970   0.397   0.500 -0.1310  0.2006  0.4581
  185SOL    HW1  554   1.981   0.465   0.578  1.5598  0.4533  1.1761
  185SOL    HW2  555   1.899   0.324   0.521  1.1732 -1.4742 -1.1421
  186SOL     OW  556   0.355   2.613   3.032  0.4973  0.0442 -0.3824
  186SOL    HW1  557   0.441   2.581   3.075 -0.4746  0.0926 -2.3373
  186SOL    HW2  558   0.307   2.692   3.078 -1.2655 -0.6880 -0.5567
  187SOL     OW  559   2.299   0.784   2.782  0.0589 -0.1777 -0.3553
  187SOL    HW1  560   2.339   0.782   2.689  0.6135 -0.7286 -2.1325
  187SOL    HW2  561   2.376   0.812   2.846 -0.9873  0.0319  1.3000
  188SOL     OW  562   3.045   1.479   1.318 -0.2265 -0.0417 -0.7531
  188SOL    HW1  563   3.008   1.393   1.348  1.2578  1.1974  0.8607
  188SOL    HW2  564   0.066   1.487   1.333  0.2170 -0.2722  0.8547
  189SOL     OW  565   2.604   0.328   2.905 -0.0648 -0.4091 -0.1123
  189SOL    HW1  566   2.614   0.354   2.805  0.0163  0.1184  0.0878
  189SOL    HW2  567   2.561   0.401   2.964 -0.3495  1.9420  0.8650
  190SOL     OW  568   1.367   1.084   1.862  0.6449 -0.0122  0.5581
  190SOL    HW1  569   1.408   1.003   1.815  0.2088  1.3670 -0.2984
  190SOL    HW2  570   1.435   1.129   1.923  1.0913 -1.9334 -2.7956
  191SOL     OW  571   0.438   0.415   1.882 -0.0783 -0.0494  0.8713
  191SOL    HW1  572   0.370   0.406   1.804 -0.1794 -0.9239  1.8510
  191SOL    HW2  573   0.386   0.443   1.966 -4.3113  1.2565  0.2638
  192SOL     OW  574   2.088   1.393   1.162  0.2582 -0.5396  0.7687
  192SOL    HW1  575   2.084   1.448   1.076  1.4651 -0.0237  1.2126
  192SOL    HW2  576   2.026   1.435   1.233  0.0341  2.5245 -0.9772
  193SOL     OW  577   1.429   0.820   1.041 -0.2772  0.2157 -0.5362
  193SOL    HW1  578   1.373   0.869   0.974  0.2205  1.4350  1.5545
  193SOL    HW2  579   1.372   0.754   1.089 -0.8551 -1.0308 -0.4982
  194SOL     OW  580   0.805   2.343   1.674 -0.1984 -0.0874 -0.2385
  194SOL    HW1  581   0.889   2.397   1.645  2.6029 -2.7407 -1.5370
  194SOL    HW2  582   0.799   2.257   1.619  1.7196  2.9534  0.6757
  195SOL     OW  583   1.991   0.013   3.036 -0.0651  0.0368 -0.3606
  195SOL    HW1  584   1.947   0.010   2.943 -1.2072 -0.8364 -2.3479
  195SOL    HW2  585   2.095   0.028   3.030 -0.7906  0.8874 -0.6522
  196SOL     OW  586   0.769   1.941   1.934 -0.7502  0.1248  0.0928
  196SOL    HW1  587   0.834   1.974   1.864 -4.0625 -1.0652  1.9372
  196SOL    HW2  588   0.811   1.868   1.992  0.3404  0.4292  1.2551
  197SOL     OW  589   1.097   0.193   1.409 -0.3716  0.0467 -0.0370
  197SOL    HW1  590   1.193   0.214   1.419 -1.8980  0.2016 -1.7275
  197SOL    HW2  591   1.044   0.275   1.379  0.2142 -0.2778  1.2926
  198SOL     OW  592   0.746   0.907   0.984 -0.1760  0.5422  0.2408
  198SOL    HW1  593   0.809   0.897   1.059 -0.9378 -1.3300 -0.9165
  198SOL    HW2  594   0.671   0.837   0.990  0.0294  2.0855  1.3421
  199SOL     OW  595   3.041   2.616   1.680 -0.3555  0.2921  0.3342
  199SOL    HW1  596   0.026   2.695   1.695 -3.3554  0.9052 -0.1383
  199SOL    HW2  597   3.053   2.586   1.580  0.2811  1.4325 -4.2157
  200SOL     OW  598   1.922   2.120   1.999  0.8411 -0.0295  0.5983
  200SOL    HW1  599   1.850   2.172   1.952 -0.4587  1.9927  1.2455
  200SOL    HW2  600   2.005   2.120   1.945  1.3463 -2.6893  1.3470
  201SOL     OW  601   0.315   1.501   2.016  0.3578  0.1323  0.6414
  201SOL    HW1  602   0.222   1.467   2.008  0.8495 -0.4710 -0.6078
  201SOL    HW2  603   0.384   1.437   1.970  0.7541  3.1208 -1.9331
  202SOL     OW  604   1.944   0.468   0.208  0.1239  0.2416 -0.0146
  202SOL    HW1  605   1.856   0.501   0.172  2.6437 -1.7737  1.3451
  202SOL    HW2  606   1.939   0.446   0.304 -0.5237 -0.2227 -1.8906
  203SOL     OW  607   1.039   2.391   2.214 -0.3312  0.0051 -0.1416
  203SOL    HW1  608   1.070   2.386   2.309  2.1712 -1.4014  2.8346
  203SOL    HW2  609   0.971   2.468   2.198 -3.3393  0.6336 -0.4511
  204SOL     OW  610   1.124   2.109   1.853 -0.0639  0.2650  0.4053
  204SOL    HW1  611   1.048   2.072   1.798  0.9681  4.7632 -0.4550
  204SOL    HW2  612   1.115   2.212   1.858  0.2286 -0.5686 -3.3505
  205SOL     OW  613   1.546   1.704   2.018 -0.5396  0.3540 -0.3103
  205SOL    HW1  614   1.449   1.679   1.977 -3.0220 -0.0283  0.2951
  205SOL    HW2  615   1.567   1.633   2.090  0.3054  0.8699 -2.2575
  206SOL     OW  616   0.529   0.717   2.512  0.0766 -0.1963 -0.3566
  206SOL    HW1  617   0.598   0.653   2.554  0.8382  1.7720 -0.6187
  206SOL    HW2  618   0.554   0.819   2.529  2.8525  1.6429 -1.3652
  207SOL     OW  619   1.151   2.764   1.914 -0.7762  0.2243 -0.3323
  207SOL    HW1  620   1.081   2.826   1.943 -0.9876  0.0625  0.8989
  207SOL    HW2  621   1.172   2.765   1.817 -0.0590  0.8927 -0.2934
  208SOL     OW  622   0.654   2.792   1.809 -0.1206  0.4384  0.0944
  208SOL    HW1  623   0.667   2.697   1.776 -1.3442 -2.6267 -2.7583
  208SOL    HW2  624   0.564   2.795   1.852 -0.7305 -0.3620 -2.5462
  209SOL     OW  625   1.595   0.224   0.067  0.3797  0.0364  0.1722
  209SOL    HW1  626   1.689   0.220   0.025  1.1665  0.1548  0.6367
  209SOL    HW2  627   1.535   0.273   3.075  0.2789 -2.0185 -1.3244
  210SOL     OW  628   2.926   0.587   0.605  0.0665 -0.3867  0.2030
  210SOL    HW1  629   2.846   0.645   0.589  3.0482  1.1663  1.0954
  210SOL    HW2  630   2.987   0.629   0.674 -0.1340  0.8323  1.8714
  211SOL     OW  631   0.736   0.403   1.318  0.2142  0.1083  0.1290
  211SOL    HW1  632   0.679   0.487   1.301 -1.9614  3.6274 -0.8122
  211SOL    HW2  633   0.779   0.421   1.405 -1.5742  0.0282 -0.4206
  212SOL     OW  634   1.490   1.998   1.130 -0.0714 -0.1247  0.6652
  212SOL    HW1  635   1.512   1.915   1.079 -0.1215  1.6314 -0.0571
  212SOL    HW2  636   1.401   2.038   1.100 -0.9555 -0.1088  1.2807
  213SOL     OW  637   2.133   0.371   1.732 -0.0764  0.4134  0.3582
  213SOL    HW1  638   2.223   0.334   1.710 -0.9777 -0.4181  2.9817
  213SOL    HW2  639   2.139   0.475   1.730  0.9542  1.6203  0.8090
  214SOL     OW  640   0.861   2.542   2.704 -0.2579  0.0230  0.5390
  214SOL    HW1  641   0.814   2.533   2.792 -0.3712  0.9498 -1.1129
  214SOL    HW2  642   0.840   2.457   2.649 -0.3628 -1.9017 -2.0094
  215SOL     OW  643   2.957   1.425   1.642 -0.8020  0.1905  0.1111
  215SOL    HW1  644   3.025   1.348   1.635 -0.7172 -1.5096 -0.0171
  215SOL    HW2  645   2.997   1.513   1.599  1.1014  2.8055 -0.5641
  216SOL     OW  646   0.599   1.006   1.498 -0.2927  0.2265  0.0340
  216SOL    HW1  647   0.662   1.082   1.470 -1.1838 -1.8737 -0.0308
  216SOL    HW2  648   0.515   0.994   1.444 -0.0848  2.8247 -1.5741
  217SOL     OW  649   2.720   0.202   0.324  0.4145  0.5744  0.1610
  217SOL    HW1  650   2.709   0.113   0.379  0.3712  2.1291  0.6177
  217SOL    HW2  651   2.783   0.268   0.368  1.4233  0.5265 -2.0257
  218SOL     OW  652   1.773   2.038   0.971  0.1097 -0.1888  0.7892
  218SOL    HW1  653   1.831   2.115   1.003 -2.1014 -0.7387  0.4225
  218SOL    HW2  654   1.695   2.021   1.031  0.1147 -2.6772 -0.6278
  219SOL     OW  655   1.595   3.065   0.474 -0.5028 -0.7571 -0.0240
  219SOL    HW1  656   1.494   3.041   0.490 -1.5369  0.0000 -0.0739
  219SOL    HW2  657   1.655   2.983   0.477 -3.7005 -1.8066  0.3929
  220SOL     OW  658   1.573   2.174   0.832 -0.1291  0.4437  0.7761
  220SOL    HW1  659   1.579   2.139   0.734 -3.6964 -1.3495  1.7737
  220SOL    HW2  660   1.644   2.132   0.891  1.2739 -1.3222 -1.0531
  221SOL     OW  661   2.697   1.039   0.146  0.5799  0.5168 -0.0851
  221SOL    HW1  662   2.626   1.057   0.070 -0.5701  1.4292  1.1557
  221SOL    HW2  663   2.743   0.952   0.129 -2.7246  1.5384  1.2118
  222SOL     OW  664   0.875   2.321   1.355  0.3595  0.5511  0.2673
  222SOL    HW1  665   0.821   2.400   1.376  3.6693 -0.7700  0.9112
  222SOL    HW2  666   0.971   2.341   1.339 -0.3411  0.8004  0.9837
  223SOL     OW  667   1.380   0.144   0.208 -0.4976  0.3704 -0.1975
  223SOL    HW1  668   1.374   0.213   0.284  2.0527  3.5601  1.8346
  223SOL    HW2  669   1.470   0.156   0.160 -0.3484 -0.1042  1.7721
  224SOL     OW  670   2.762   0.941   1.043  0.1824 -0.1338 -0.3484
  224SOL    HW1  671   2.697   0.992   1.101 -1.2224 -0.4596 -1.5125
  224SOL    HW2  672   2.856   0.979   1.058 -0.3325  1.1814  0.2995
  225SOL     OW  673   0.758   1.516   1.345 -0.5435  0.3471  0.3414
  225SOL    HW1  674   0.862   1.521   1.351  0.8806  1.4308  1.4340
  225SOL    HW2  675   0.715   1.425   1.345  0.5813 -0.8477  3.1066
  226SOL     OW  676   0.637   2.796   0.818  0.1331 -0.1058  0.5203
  226SOL    HW1  677   0.668   2.817   0.722 -3.0005 -1.1403 -0.0439
  226SOL    HW2  678   0.593   2.706   0.822  2.3697  4.0437  0.3900
  227SOL     OW  679   1.128   1.772   1.599  0.5792 -0.6202  0.3084
  227SOL    HW1  680   1.099   1.689   1.654  0.7316 -1.5630 -0.7535
  227SOL    HW2  681   1.178   1.841   1.652  0.2551 -0.8746  1.2956
  228SOL     OW  682   0.949   0.271   1.767  0.5954  0.0292  0.0181
  228SOL    HW1  683   0.892   0.245   1.847  1.8552 -0.5341  0.4113
  228SOL    HW2  684   0.986   0.187   1.727 -0.6844  0.2207  0.8972
  229SOL     OW  685   2.752   0.644   2.756 -0.2754  0.1333 -0.2439
  229SOL    HW1  686   2.670   0.696   2.786 -0.7171  0.5359 -1.5307
  229SOL    HW2  687   2.818   0.634   2.832  1.9415 -0.1703  0.2939
  230SOL     OW  688   0.339   0.710   1.304  0.2673  0.0211 -0.5407
  230SOL    HW1  689   0.282   0.651   1.245 -2.4095 -0.2625  0.8991
  230SOL    HW2  690   0.349   0.665   1.394 -1.8695  1.5764  0.1447
  231SOL     OW  691   0.919   3.035   1.424  0.6145  0.6535 -0.7461
  231SOL    HW1  692   0.841   3.040   1.357  1.4182  2.5142  2.4400
  231SOL    HW2  693   0.972   0.043   1.424 -1.4535  1.5858 -0.1851
  232SOL     OW  694   0.040   2.107   0.368 -0.0229  0.5204  0.6314
  232SOL    HW1  695   0.125   2.088   0.422  1.2000 -1.4171 -0.4844
  232SOL    HW2  696   0.056   2.197   0.314  0.0895  3.3692 -1.1977
  233SOL     OW  697   1.080   2.527   2.986 -0.0549  0.1963 -0.6137
  233SOL    HW1  698   1.070   2.526   2.887  1.5546 -1.4153 -0.0065
  233SOL    HW2  699   1.178   2.538   3.014 -1.6303 -0.3559 -0.5848
  234SOL     OW  700   0.678   1.114   1.859 -0.6111  0.2790 -0.0610
  234SOL    HW1  701   0.616   1.034   1.848  3.0864  0.3778 -0.0641
  234SOL    HW2  702   0.724   1.110   1.944  0.5791  0.8513 -1.4683
  235SOL     OW  703   0.012   2.278   2.701  0.2584  0.0689 -0.1199
  235SOL    HW1  704   0.071   2.281   2.614 -2.2987  1.4130  1.8936
  235SOL    HW2  705   3.025   2.354   2.707 -1.1484 -1.1908 -0.8150
  236SOL     OW  706   1.519   2.216   2.712  0.7266  0.3371 -0.1065
  236SOL    HW1  707   1.469   2.166   2.785  1.1650  1.2092  2.3245
  236SOL    HW2  708   1.476   2.208   2.620 -0.3604 -2.2709  2.4786
  237SOL     OW  709   1.969   0.939   0.902  0.0158 -0.3213 -0.2657
  237SOL    HW1  710   1.957   0.870   0.977 -0.7546 -0.3010  2.2325
  237SOL    HW2  711   2.026   1.019   0.937 -1.5626 -0.2849  0.2795
  238SOL     OW  712   1.221   2.514   2.037  0.5357 -0.3731 -1.1507
  238SOL    HW1  713   1.159   2.460   2.100 -1.7185 -2.3358 -0.2535
  238SOL    HW2  714   1.165   2.598   2.011  0.8865  1.8020 -2.3087
  239SOL     OW  715   0.606   2.388   1.991  0.3559  0.7031  0.3185
  239SOL    HW1  716   0.607   2.288   1.962  0.1217 -1.1700 -1.2898
  239SOL    HW2  717   0.627   2.450   1.915 -0.3436 -4.0899  4.0402
  240SOL     OW  718   2.606   0.135   0.689 -0.1114 -0.5739 -0.0297
  240SOL    HW1  719   2.654   0.083   0.614 -1.2005  0.3921  0.3314
  240SOL    HW2  720   2.664   0.203   0.736 -0.6549  1.1792 -0.7732
  241SOL     OW  721   1.133   1.647   2.976 -0.2828 -0.0432  0.1052
  241SOL    HW1  722   1.041   1.667   3.012  2.1628  1.3562 -1.3587
  241SOL    HW2  723   1.161   1.549   2.978 -0.3899  0.5074 -1.8162
  242SOL     OW  724   2.542   0.814   2.909  0.2434 -0.0454  0.0659
  242SOL    HW1  725   2.561   0.810   3.009  2.7616 -0.9459 -0.8428
  242SOL    HW2  726   2.597   0.886   2.860  1.3310 -0.0887 -1.0532
  243SOL     OW  727   0.921   0.596   1.956 -0.5689 -0.4032 -0.6195
  243SOL    HW1  728   0.896   0.697   1.940 -0.9453  3.9735 -0.3877
  243SOL    HW2  729   0.835   0.543   1.956  0.8532 -1.5545 -1.3829
  244SOL     OW  730   1.324   2.521   0.045  0.3352  0.1706 -0.4831
  244SOL    HW1  731   1.373   2.561   0.124 -0.3655 -0.5772  0.6384
  244SOL    HW2  732   1.391   2.467   3.070 -1.2741  0.2562  0.0401
  245SOL     OW  733   1.611   2.321   0.260 -0.2148 -0.1924  0.2318
  245SOL    HW1  734   1.543   2.263   0.207 -0.9750 -0.8069  2.4472
  245SOL    HW2  735   1.689   2.334   0.196 -1.9811 -1.7870  0.2450
  246SOL     OW  736   0.993   0.940   2.182  0.0538 -0.1669  0.3847
  246SOL    HW1  737   1.044   0.961   2.098  0.0820  2.5434  2.0294
  246SOL    HW2  738   0.990   0.841   2.205 -2.1138  0.2643 -1.6175
  247SOL     OW  739   0.291   0.758   2.679  0.4276 -0.5281 -1.1965
  247SOL    HW1  740   0.354   0.753   2.598 -0.7228 -1.8475 -1.4083
  247SOL    HW2  741   0.252   0.666   2.693 -0.6060 -1.4270  0.2583
  248SOL     OW  742   0.110   1.153   1.974 -0.0104  0.0674 -0.4167
  248SOL    HW1  743   0.029   1.095   2.001 -0.5255 -0.4889  1.1901
  248SOL    HW2  744   0.197   1.107   1.995 -3.0386  0.8623 -1.4652
  249SOL     OW  745   0.008   0.348   0.299  0.1158 -0.4213 -0.2459
  249SOL    HW1  746   0.014   0.418   0.224 -0.4001 -1.8166  3.4994
  249SOL    HW2  747   3.034   0.383   0.379 -0.7673 -0.2814  0.6866
  250SOL     OW  748   2.881   0.025   3.076 -0.3087 -0.3324  0.1187
  250SOL    HW1  749   2.964   3.063   3.027 -2.4664 -1.0755 -3.9736
  250SOL    HW2  750   2.789   3.073   3.037  1.7840  1.9251 -1.1710
  251SOL     OW  751   1.103   1.471   1.989  0.7405 -0.1249 -0.3604
  251SOL    HW1  752   1.136   1.449   2.085 -0.7651  0.0818 -0.3657
  251SOL    HW2  753   1.043   1.398   1.947 -1.9314 -2.2247 -0.3840
  252SOL     OW  754   2.129   1.790   1.250 -0.5962 -0.2850  0.2907
  252SOL    HW1  755   2.225   1.763   1.243 -3.5982 -0.9003  1.6177
  252SOL    HW2  756   2.097   1.751   1.340 -0.0714  0.8990 -0.1874
  253SOL     OW  757   1.956   2.447   2.206 -0.4484  0.5369  0.2017
  253SOL    HW1  758   1.883   2.406   2.141 -3.0490 -1.2858  0.5536
  253SOL    HW2  759   2.008   2.379   2.261 -1.0041  1.8273  0.1027
  254SOL     OW  760   0.698   2.223   2.231  0.4011 -0.4492 -0.7692
  254SOL    HW1  761   0.721   2.321   2.228 -0.0567 -2.3577  0.3074
  254SOL    HW2  762   0.650   2.196   2.148  1.2797  2.0065  1.1291
  255SOL     OW  763   1.532   0.290   0.811  0.3104 -0.1116  0.0978
  255SOL    HW1  764   1.519   0.243   0.720 -0.3847  1.4172  0.2375
  255SOL    HW2  765   1.561   0.386   0.805  1.4554 -2.5895  0.4427
  256SOL     OW  766   2.407   2.206   1.385 -0.1210 -0.3270  0.5619
  256SOL    HW1  767   2.384   2.303   1.415  1.4713 -0.9041 -0.1927
  256SOL    HW2  768   2.378   2.194   1.289 -1.0379  1.1004 -2.8556
  257SOL     OW  769   0.419   2.430   2.836 -0.0640 -0.1630  0.1785
  257SOL    HW1  770   0.352   2.350   2.844  0.6706 -3.0100  1.0372
  257SOL    HW2  771   0.405   2.503   2.910 -1.2506 -1.2144  2.0280
  258SOL     OW  772   0.695   0.777   2.065  0.0633 -0.0563  0.0388
  258SOL    HW1  773   0.671   0.831   2.147 -0.5486  0.0385 -0.7997
  258SOL    HW2  774   0.747   0.835   2.004  2.0228 -1.2947 -0.5874
  259SOL     OW  775   1.006   1.138   2.388 -0.5611  0.0816  0.9836
  259SOL    HW1  776   1.083   1.187   2.433  0.3829 -1.1888  2.7888
  259SOL    HW2  777   1.035   1.071   2.315 -0.1400 -0.6979  0.2229
  260SOL     OW  778   2.008   0.791   0.491 -0.0674 -0.2051 -0.6119
  260SOL    HW1  779   2.068   0.863   0.534  0.1019 -0.0521 -3.8031
  260SOL    HW2  780   2.054   0.750   0.409  2.9253  0.6555 -0.8774
  261SOL     OW  781   0.932   0.116   0.620  0.0925 -0.4811  0.0687
  261SOL    HW1  782   0.936   0.164   0.526 -0.9641  2.4517 -1.9336
  261SOL    HW2  783   1.013   0.144   0.677  2.1556  2.0988  2.7243
  262SOL     OW  784   2.113   2.488   2.533  0.5684  0.2807 -0.3416
  262SOL    HW1  785   2.172   2.565   2.502 -0.2808 -1.4741 -0.3898
  262SOL    HW2  786   2.022   2.532   2.546  0.1769 -2.5452 -1.6218
  263SOL     OW  787   0.365   1.605   2.917 -0.3735  0.1991  0.3749
  263SOL    HW1  788   0.458   1.599   2.874 -0.2223  2.9372 -1.4540
  263SOL    HW2  789   0.319   1.698   2.900  1.5108  2.9005  1.9662
  264SOL     OW  790   0.434   1.626   1.482 -0.4214  0.3942  0.1653
  264SOL    HW1  791   0.372   1.701   1.512 -1.5286 -1.3128 -1.5028
  264SOL    HW2  792   0.495   1.666   1.409 -2.0341 -0.3734  0.6688
  265SOL     OW  793   0.932   0.874   0.580  0.0727 -0.0257 -0.1392
  265SOL    HW1  794   1.016   0.909   0.530 -1.9559 -2.9325  1.5642
  265SOL    HW2  795   0.854   0.938   0.554  0.0574 -0.6165 -0.9236
  266SOL     OW  796   1.271   1.877   3.068 -0.0530 -0.9698 -0.2927
  266SOL    HW1  797   1.330   1.854   0.071 -0.4851  1.0308  0.7862
  266SOL    HW2  798   1.231   1.792   3.024  1.0211 -0.0069 -0.2243
  267SOL     OW  799   0.214   0.333   2.941  0.1822  0.6458 -0.3018
  267SOL    HW1  800   0.180   0.256   2.887  0.6757  2.5811  0.3715
  267SOL    HW2  801   0.266   0.302   3.028  1.5670 -1.7219 -0.1320
  268SOL     OW  802   0.969   0.481   2.885 -0.0500 -0.8686  0.0804
  268SOL    HW1  803   0.905   0.565   2.879 -1.0639  0.4984 -0.8863
  268SOL    HW2  804   0.937   0.411   2.816 -2.3627 -1.0728 -0.8909
  269SOL     OW  805   1.696   0.057   2.596 -0.2530 -0.0664 -0.1258
  269SOL    HW1  806   1.691   3.067   2.519 -0.5037 -2.2380  1.5527
  269SOL    HW2  807   1.686   0.152   2.560 -0.0350  2.1673  1.4591
  270SOL     OW  808   0.786   0.656   2.710  0.3263  0.0551 -0.4577
  270SOL    HW1  809   0.812   0.596   2.632  1.0312 -1.2168 -2.4558
  270SOL    HW2  810   0.806   0.751   2.687  2.0183  0.1082 -1.1453
  271SOL     OW  811   0.060   0.974   0.168 -0.5871  0.2168  0.0719
  271SOL    HW1  812   0.160   0.995   0.179  0.0433  0.5763  0.3965
  271SOL    HW2  813   0.031   0.926   0.253 -0.7898  1.2224  1.9213
  272SOL     OW  814   2.212   1.219   2.542  0.2623  0.4399 -0.4293
  272SOL    HW1  815   2.223   1.307   2.596 -1.4968  3.7348  1.1848
  272SOL    HW2  816   2.297   1.163   2.539  0.1439 -1.1924  0.5743
  273SOL     OW  817   0.009   0.318   2.341 -0.4365 -0.0967  0.0355
  273SOL    HW1  818   0.092   0.260   2.347  0.1624  0.1242 -1.2651
  273SOL    HW2  819   0.017   0.388   2.419 -0.6335  0.9706  0.6511
  274SOL     OW  820   2.767   0.137   1.610  0.2955  0.7095  0.0735
  274SOL    HW1  821   2.681   0.139   1.556 -0.6744  3.2164  1.3145
  274SOL    HW2  822   2.790   0.231   1.640  1.3394  0.5528 -1.6487
  275SOL     OW  823   1.802   1.392   0.177  0.3491 -0.0796  0.1875
  275SOL    HW1  824   1.836   1.487   0.151 -0.8001  0.6084  2.7966
  275SOL    HW2  825   1.719   1.398   0.237 -1.6693 -1.1753 -0.2670
  276SOL     OW  826   0.226   1.356   2.736  0.4568 -0.2693 -0.2469
  276SOL    HW1  827   0.176   1.444   2.747 -1.4119  1.4725  2.1254
  276SOL    HW2  828   0.204   1.310   2.651 -0.0528  0.1203  1.2478
  277SOL     OW  829   1.797   2.677   2.199 -0.2317  0.2519  0.3297
  277SOL    HW1  830   1.833   2.582   2.200  0.4070  1.8284  0.7344
  277SOL    HW2  831   1.728   2.688   2.267  0.5713 -0.1022  2.0277
  278SOL     OW  832   1.955   3.005   1.253  0.4092  0.7077 -0.7492
  278SOL    HW1  833   1.888   2.925   1.275 -2.6168 -1.0179  4.3536
  278SOL    HW2  834   1.947   3.068   1.332  0.3902 -0.3736  1.1393
  279SOL     OW  835   0.940   1.383   2.775 -0.1071  0.3525 -0.2353
  279SOL    HW1  836   1.041   1.388   2.763 -1.1729  0.0890 -0.2425
  279SOL    HW2  837   0.905   1.391   2.870 -1.9774 -0.6566  0.1840
  280SOL     OW  838   0.728   1.433   0.304 -0.4593 -0.2839 -0.5846
  280SOL    HW1  839   0.682   1.504   0.245  0.8861  0.9306  1.0981
  280SOL    HW2  840   0.831   1.440   0.302 -2.3744 -0.4859 -0.8702
  281SOL     OW  841   0.058   2.758   2.030  0.1146 -0.2372 -0.7858
  281SOL    HW1  842   0.080   2.787   1.937  0.0033  0.2965  3.2232
  281SOL    HW2  843   0.121   2.682   2.064  0.3138 -3.1662  1.2322
  282SOL     OW  844   0.152   2.099   1.113  0.5860  0.1741 -0.3736
  282SOL    HW1  845   0.218   2.062   1.045  2.4613  1.2806  3.0925
  282SOL    HW2  846   0.187   2.189   1.149  2.6291  1.3790 -2.1985
  283SOL     OW  847   1.338   2.284   2.277  0.0314 -0.1482 -0.1020
  283SOL    HW1  848   1.263   2.246   2.217  1.3683 -0.3686  4.7454
  283SOL    HW2  849   1.431   2.291   2.238 -1.1883 -1.2333 -0.6129
  284SOL     OW  850   2.257   0.913   0.099  0.5199 -0.2044 -0.6698
  284SOL    HW1  851   2.255   0.982   0.177 -0.4810 -0.3472 -0.1651
  284SOL    HW2  852   2.344   0.929   0.050 -2.0168 -2.2572 -1.3850
  285SOL     OW  853   2.641   2.823   2.484 -0.5697  0.3843 -0.1188
  285SOL    HW1  854   2.682   2.846   2.571 -0.6493  0.6563 -0.1079
  285SOL    HW2  855   2.619   2.722   2.475  2.0077 -2.3209 -0.4165
  286SOL     OW  856   1.927   2.603   1.104 -0.5059 -0.1652 -0.0676
  286SOL    HW1  857   1.902   2.670   1.179 -2.5517 -2.4136  2.2858
  286SOL    HW2  858   1.866   2.519   1.112  5.0028 -0.3862 -0.8711
  287SOL     OW  859   0.717   1.288   1.069 -0.0705  0.0493  0.0416
  287SOL    HW1  860   0.754   1.371   1.025  0.5479  0.1661 -1.2784
  287SOL    HW2  861   0.788   1.213   1.071  2.6331 -0.8147 -0.7166
  288SOL     OW  862   1.174   2.258   0.190 -0.2355 -0.0544  0.6058
  288SOL    HW1  863   1.153   2.362   0.197  2.2304 -0.4614 -0.4464
  288SOL    HW2  864   1.269   2.240   0.159  1.7842 -0.3365  0.1588
  289SOL     OW  865   0.114   1.984   2.470 -0.5590  0.5353 -0.1698
  289SOL    HW1  866   0.099   1.882   2.479  0.5824 -2.8105  1.6861
  289SOL    HW2  867   0.209   2.005   2.499  0.3487 -1.1682 -3.4087
  290SOL     OW  868   1.201   2.138   1.054  0.6074 -0.0033  0.6125
  290SOL    HW1  869   1.173   2.123   1.149 -1.7667 -0.5781 -0.4462
  290SOL    HW2  870   1.201   2.047   1.006  2.9593  0.8422 -1.2850
  291SOL     OW  871   1.769   1.518   2.833 -0.4603 -0.1789 -0.2995
  291SOL    HW1  872   1.871   1.517   2.812 -0.1559  1.4834 -0.3970
  291SOL    HW2  873   1.738   1.616   2.843 -3.5279  0.4942  0.4968
  292SOL     OW  874   1.203   1.389   1.624 -0.4559  0.4644  0.5844
  292SOL    HW1  875   1.137   1.455   1.669 -1.5048  0.0557 -0.9721
  292SOL    HW2  876   1.195   1.288   1.648 -1.1180  0.6093 -0.7570
  293SOL     OW  877   1.698   2.720   0.974 -0.0690  0.2002 -0.3007
  293SOL    HW1  878   1.788   2.688   1.005  0.6272  1.5190 -2.1414
  293SOL    HW2  879   1.699   2.737   0.874 -0.1254  1.4895  1.9544
  294SOL     OW  880   0.302   1.118   2.412  0.4254 -0.0977 -0.3786
  294SOL    HW1  881   0.239   1.150   2.485  0.5177  1.4157  2.6764
  294SOL    HW2  882   0.259   1.042   2.362 -1.3866  0.8264 -1.0706
  295SOL     OW  883   0.834   2.006   2.938  0.0717 -0.9974  0.3038
  295SOL    HW1  884   0.879   2.094   2.962 -0.7534 -3.5852 -1.5050
  295SOL    HW2  885   0.886   1.932   2.989  1.1580  2.3804 -0.8275
  296SOL     OW  886   1.743   1.861   2.357 -0.5221 -0.3698  0.0847
  296SOL    HW1  887   1.758   1.934   2.290 -1.7078 -0.4087 -2.2233
  296SOL    HW2  888   1.649   1.824   2.348  2.5256  1.5644  0.5093
  297SOL     OW  889   2.877   0.728   2.523 -0.0710  0.1703  0.3077
  297SOL    HW1  890   2.913   0.644   2.483 -0.8573  0.2114  0.1204
  297SOL    HW2  891   2.826   0.708   2.608  1.6586 -0.5814  1.3823
  298SOL     OW  892   0.978   2.208   2.421  0.2140 -0.3620  0.1093
  298SOL    HW1  893   0.915   2.238   2.491  3.7687  1.4847  0.2709
  298SOL    HW2  894   0.942   2.128   2.375 -0.1026  2.4200  2.2327
  299SOL     OW  895   0.906   2.805   2.635 -0.7242  0.2165 -0.3977
  299SOL    HW1  896   0.826   2.816   2.569 -1.0902  0.2016  0.6810
  299SOL    HW2  897   0.912   2.708   2.669 -1.4986 -0.4026 -1.7277
  300SOL     OW  898   2.931   0.532   2.971  0.4881  0.0122 -0.0422
  300SOL    HW1  899   2.902   0.434   2.965  1.4323  0.9661  2.4501
  300SOL    HW2  900   3.003   0.535   3.039 -0.9104 -0.5237 -1.0880
  301SOL     OW  901   1.320   0.725   1.358  0.1122 -0.0809  0.5436
  301SOL    HW1  902   1.322   0.651   1.287  0.3601 -0.4700  0.1912
  301SOL    HW2  903   1.255   0.801   1.334  0.5580  2.8251 -0.1027
  302SOL     OW  904   2.841   1.885   2.754  0.1257 -0.0845  0.3187
  302SOL    HW1  905   2.938   1.913   2.738  1.5326 -0.4494  0.1064
  302SOL    HW2  906   2.832   1.784   2.756  0.2206  0.7832  1.4596
  303SOL     OW  907   2.886   3.056   2.514 -0.4641 -0.8312 -0.5402
  303SOL    HW1  908   2.870   3.027   2.414 -1.7721 -0.5511 -1.2092
  303SOL    HW2  909   2.863   0.078   2.528 -1.4868  2.4147 -1.1496
  304SOL     OW  910   2.988   0.328   1.760  0.0447 -0.0686  0.3837
  304SOL    HW1  911   3.038   0.311   1.674  0.9682 -0.5478  3.0906
  304SOL    HW2  912   2.989   0.243   1.819  0.1764 -0.4081  5.0127
  305SOL     OW  913   0.046   2.915   2.251  0.0319 -0.4593  0.3688
  305SOL    HW1  914   0.037   2.835   2.190  0.8799  0.3124  0.7001
  305SOL    HW2  915   3.041   2.975   2.265 -0.4610  3.7858  3.7285
  306SOL     OW  916   2.627   1.171   1.442  0.0738  0.6502  0.0481
  306SOL    HW1  917   2.707   1.125   1.489  0.4466  1.1359  1.6352
  306SOL    HW2  918   2.540   1.166   1.507  1.8481 -1.3711  0.7263
  307SOL     OW  919   2.001   0.376   1.221  0.2398 -0.0291  0.1242
  307SOL    HW1  920   1.995   0.369   1.320 -1.0093 -1.5312  2.9040
  307SOL    HW2  921   1.913   0.348   1.170 -1.0810  1.4048 -2.2075
  308SOL     OW  922   0.163   2.040   1.377 -0.0531  0.2039  0.4971
  308SOL    HW1  923   0.132   2.067   1.283  0.1622 -1.3296  1.5467
  308SOL    HW2  924   0.133   1.953   1.412  1.8138  0.2698  1.3699
  309SOL     OW  925   2.401   1.759   1.268 -0.2853 -0.5281 -0.2826
  309SOL    HW1  926   2.467   1.686   1.292 -1.0846  1.6620 -0.9102
  309SOL    HW2  927   2.383   1.820   1.348 -2.8883  2.8262 -2.9411
  310SOL     OW  928   2.702   1.705   3.035  0.4105  0.1217  0.1672
  310SOL    HW1  929   2.773   1.773   3.049 -1.6389 -2.6723 -4.0250
  310SOL    HW2  930   2.669   1.671   0.047 -0.2314  0.8858  0.6788
  311SOL     OW  931   2.176   1.643   2.418 -0.4291 -0.3085 -0.0953
  311SOL    HW1  932   2.077   1.656   2.414  0.9466 -1.0194  0.6963
  311SOL    HW2  933   2.227   1.729   2.444 -1.9116  0.3944 -0.9454
  312SOL     OW  934   2.432   2.214   0.831  0.4390  0.2723 -0.0769
  312SOL    HW1  935   2.525   2.194   0.788  1.4886 -0.8000 -0.5520
  312SOL    HW2  936   2.362   2.163   0.783  3.5041  0.5067 -0.8206
  313SOL     OW  937   2.878   2.533   1.025 -0.5627  0.2613 -0.0446
  313SOL    HW1  938   2.935   2.453   1.046 -1.8867  0.4560 -0.9405
  313SOL    HW2  939   2.781   2.507   1.023  0.3981  0.5966 -0.6883
  314SOL     OW  940   1.178   2.078   1.317  0.0959 -0.3301 -0.1039
  314SOL    HW1  941   1.276   2.051   1.340  0.4779  2.0197 -0.5662
  314SOL    HW2  942   1.107   2.002   1.328 -0.1105  0.4330  2.5225
  315SOL     OW  943   0.240   2.708   2.341 -0.4510  0.5798  0.1078
  315SOL    HW1  944   0.179   2.674   2.417 -0.1681  0.5879  2.9181
  315SOL    HW2  945   0.263   2.809   2.341  0.2671  0.3497 -0.6557
  316SOL     OW  946   0.041   1.880   0.850 -0.5779  0.0470 -0.0411
  316SOL    HW1  947   0.058   1.841   0.942 -1.0472 -0.7532  2.4072
  316SOL    HW2  948   0.104   1.824   0.791  0.2985 -2.3569 -0.3349
  317SOL     OW  949   1.996   0.136   0.328 -0.4257  0.9848  0.1985
  317SOL    HW1  950   1.897   0.162   0.318 -1.8392  3.4924  2.2658
  317SOL    HW2  951   2.015   0.125   0.425 -1.3908  1.5361 -1.1200
  318SOL     OW  952   2.825   2.831   0.209 -0.1025 -0.2511 -0.6512
  318SOL    HW1  953   2.827   2.795   0.115  0.9571 -0.4338 -0.6503
  318SOL    HW2  954   2.779   2.920   0.210  4.0198 -1.3334  0.8871
  319SOL     OW  955   1.114   1.402   0.137 -0.5107 -0.3813 -0.5611
  319SOL    HW1  956   1.154   1.408   0.041  3.5652 -0.9592 -0.7173
  319SOL    HW2  957   1.026   1.353   0.135 -0.6635 -3.8595 -1.8161
  320SOL     OW  958   0.543   2.823   2.728 -0.1125 -0.0036  0.0890
  320SOL    HW1  959   0.593   2.833   2.640 -0.6918  0.1383  1.5323
  320SOL    HW2  960   0.446   2.795   2.711 -1.8485 -0.2763 -0.1152
  321SOL     OW  961   0.956   3.078   0.077 -0.6373  0.7278  0.0510
  321SOL    HW1  962   1.040   0.002   0.135  1.0868  1.5125  0.3021
  321SOL    HW2  963   0.915   2.986   0.080 -1.4056  0.9604  2.8788
  322SOL     OW  964   2.424   1.109   1.915  0.8081  0.7711 -0.1379
  322SOL    HW1  965   2.363   1.171   1.977 -0.0069 -0.2226  1.7403
  322SOL    HW2  966   2.518   1.158   1.911 -0.4191  0.3556  0.7259
  323SOL     OW  967   2.517   1.001   0.349 -0.2350  0.3230  0.2880
  323SOL    HW1  968   2.515   0.903   0.370  1.3152  1.6018  1.6727
  323SOL    HW2  969   2.588   1.022   0.277 -0.8014 -0.4692 -2.1585
  324SOL     OW  970   0.192   0.505   2.733  0.1041  0.6342 -0.3622
  324SOL    HW1  971   0.188   0.453   2.820 -0.4726  1.9133 -4.9381
  324SOL    HW2  972   0.219   0.439   2.658  1.0873  0.4552 -0.7457
  325SOL     OW  973   1.382   2.924   2.002 -0.0035 -0.0865 -0.3322
  325SOL    HW1  974   1.449   2.935   1.924  0.7281 -2.4181 -3.5638
  325SOL    HW2  975   1.300   2.873   1.961 -0.3307  0.0148 -0.2488
  326SOL     OW  976   2.487   0.131   1.484 -0.2479  0.7781 -0.1463
  326SOL    HW1  977   2.383   0.116   1.498 -3.7490 -2.3803 -0.1304
  326SOL    HW2  978   2.523   0.118   1.389  1.4034  0.2466  0.4262
  327SOL     OW  979   1.844   0.752   3.001 -0.4178 -0.0616  0.2577
  327SOL    HW1  980   1.801   0.703   3.077  0.9403  2.2449 -1.5614
  327SOL    HW2  981   1.878   0.681   2.933  0.1873 -1.7015  0.8325
  328SOL     OW  982   2.921   1.461   2.189 -0.4240 -0.0868  0.6241
  328SOL    HW1  983   2.999   1.397   2.207  1.7390  1.1299 -1.6141
  328SOL    HW2  984   2.881   1.502   2.269 -1.6302 -1.4215  2.6444
  329SOL     OW  985   1.458   2.634   1.759 -0.1434 -0.5557 -0.4881
  329SOL    HW1  986   1.497   2.594   1.844 -0.6982 -0.7028  0.9772
  329SOL    HW2  987   1.500   2.594   1.676 -2.0057 -0.9951  2.1571
  330SOL     OW  988   2.717   1.495   1.777  0.3251  0.2072  0.0899
  330SOL    HW1  989   2.790   1.476   1.709  3.0677 -0.2980  2.2305
  330SOL    HW2  990   2.762   1.531   1.861 -0.4976 -2.5747 -0.0391
  331SOL     OW  991   0.148   2.141   0.736 -0.5623  0.0661 -0.1701
  331SOL    HW1  992   0.086   2.062   0.762  0.2101 -2.4124  1.5369
  331SOL    HW2  993   0.182   2.129   0.642 -1.1889 -0.2543 -1.1221
  332SOL     OW  994   0.618   0.388   0.588 -0.4232 -0.1982 -0.1799
  332SOL    HW1  995   0.532   0.410   0.629  0.9821 -1.3376  0.7453
  332SOL    HW2  996   0.698   0.393   0.657  0.6181  2.6689  1.5159
  333SOL     OW  997   2.112   2.856   2.254  0.8647 -0.3090  0.3338
  333SOL    HW1  998   2.071   2.825   2.164 -4.4474 -0.8888 -2.1152
  333SOL    HW2  999   2.140   2.955   2.251 -0.6501 -0.0075  2.2658
  334SOL     OW 1000   1.157   1.261   1.175 -0.3545 -0.4770  0.1363
  334SOL    HW1 1001   1.238   1.221   1.129 -0.4329 -0.3782 -0.7829
  334SOL    HW2 1002   1.172   1.289   1.269 -0.0279 -0.5849 -1.7664
  335SOL     OW 1003   0.063   2.536   2.483  0.0429 -0.6308 -0.2467
  335SOL    HW1 1004   0.129   2.459   2.502  0.4655 -0.6986 -0.8879
  335SOL    HW2 1005   3.063   2.545   2.548  1.1718  1.0375  0.1386
  336SOL     OW 1006   2.715   2.448   1.870 -0.7797  0.2393 -0.1489
  336SOL    HW1 1007   2.773   2.512   1.920  1.0685 -0.6894  0.3295
  336SOL    HW2 1008   2.761   2.440   1.779 -1.8309  0.6539 -1.0757
  337SOL     OW 1009   2.009   1.528   0.511  0.2901 -0.2870  0.2189
  337SOL    HW1 1010   2.077   1.607   0.510 -2.0028 -2.1516  0.3820
  337SOL    HW2 1011   1.910   1.557   0.524 -0.8052 -1.3085  1.3398
  338SOL     OW 1012   1.258   1.693   1.359  0.1497  0.5131  0.5538
  338SOL    HW1 1013   1.218   1.725   1.450 -3.2716 -0.2719  1.4121
  338SOL    HW2 1014   1.356   1.667   1.370 -0.1339 -1.1417 -0.2098
  339SOL     OW 1015   2.737   0.676   0.982  0.0833  0.4870 -0.5497
  339SOL    HW1 1016   2.713   0.776   0.976  1.2588 -0.2133  1.1407
  339SOL    HW2 1017   2.719   0.646   1.077  0.6851  0.6359 -0.5720
  340SOL     OW 1018   1.906   2.648   1.816  0.0665  0.2230  0.1411
  340SOL    HW1 1019   1.888   2.559   1.869 -0.8624 -3.6187 -0.4105
  340SOL    HW2 1020   1.856   2.721   1.862  0.4408 -4.3827 -1.6047
  341SOL     OW 1021   2.243   1.474   0.807 -0.1276  0.4017  0.5372
  341SOL    HW1 1022   2.324   1.501   0.863 -3.1706  0.3890  1.5216
  341SOL    HW2 1023   2.163   1.532   0.836 -0.1514 -0.7947 -0.1726
  342SOL     OW 1024   0.399   1.829   0.835  0.1285 -0.1613 -0.0338
  342SOL    HW1 1025   0.481   1.856   0.886 -4.0706  0.9561  0.1257
  342SOL    HW2 1026   0.389   1.731   0.858  1.9457  1.7346  0.8754
  343SOL     OW 1027   2.362   0.892   1.506 -0.1680 -0.3063 -0.2199
  343SOL    HW1 1028   2.365   0.991   1.530 -3.3263  2.9447  0.5457
  343SOL    HW2 1029   2.427   0.837   1.565 -0.1852 -0.1884 -0.5807
  344SOL     OW 1030   2.281   0.357   0.745 -0.1762 -0.1989 -0.0573
  344SOL    HW1 1031   2.292   0.459   0.725  2.7451 -0.3210  2.3383
  344SOL    HW2 1032   2.311   0.290   0.674 -2.6796 -1.4496 -0.5771
  345SOL     OW 1033   2.852   2.514   2.348  0.1191 -0.0205  0.7782
  345SOL    HW1 1034   2.937   2.569   2.348  1.8252 -0.1799 -1.2553
  345SOL    HW2 1035   2.777   2.564   2.292  0.0475 -1.8208 -3.8991
  346SOL     OW 1036   3.060   1.381   0.471  0.0872  0.4320 -0.0891
  346SOL    HW1 1037   3.010   1.293   0.480 -0.5677  1.7041 -0.4897
  346SOL    HW2 1038   3.041   1.419   0.374 -1.1544  2.5428 -0.4283
  347SOL     OW 1039   1.853   2.754   1.321 -0.7717  0.1179 -0.4523
  347SOL    HW1 1040   1.914   2.757   1.405 -1.2527 -1.2538 -0.9990
  347SOL    HW2 1041   1.759   2.731   1.347  2.9335  2.0751 -0.0115
  348SOL     OW 1042   1.203   1.119   1.665  0.2145  0.7616  0.4998
  348SOL    HW1 1043   1.276   1.119   1.736 -1.2328 -1.2276 -1.2077
  348SOL    HW2 1044   1.127   1.054   1.684 -2.1682 -1.1273 -0.0007
  349SOL     OW 1045   2.309   1.565   1.962 -0.5144  0.3294  0.5334
  349SOL    HW1 1046   2.337   1.483   2.005 -2.8615  2.2805 -0.6778
  349SOL    HW2 1047   2.343   1.641   2.020  0.6408  0.9725  0.9628
  350SOL     OW 1048   2.856   2.195   0.523  0.5162 -0.4761 -0.5263
  350SOL    HW1 1049   2.826   2.281   0.574 -1.6802  2.3058 -0.0552
  350SOL    HW2 1050   2.957   2.186   0.524  0.0501 -1.4475  0.9797
  351SOL     OW 1051   0.237   0.429   1.710  0.6496  0.1412  0.0680
  351SOL    HW1 1052   0.185   0.342   1.715  2.4866  1.4987 -0.7461
  351SOL    HW2 1053   0.188   0.501   1.759  0.6210 -3.0958 -0.1435
  352SOL     OW 1054   1.215   2.788   1.640  0.4309 -0.2194  0.3830
  352SOL    HW1 1055   1.174   2.784   1.545 -2.2751  1.4190  1.1091
  352SOL    HW2 1056   1.317   2.777   1.647  0.0707  0.3147  2.1347
  353SOL     OW 1057   0.633   1.464   2.785  0.2249  0.0449 -0.2459
  353SOL    HW1 1058   0.706   1.414   2.734 -2.1915  1.2190 -3.4224
  353SOL    HW2 1059   0.549   1.464   2.727 -0.3052 -2.8134  0.2071
  354SOL     OW 1060   1.485   1.868   0.215  1.0549 -0.0532 -0.2401
  354SOL    HW1 1061   1.512   1.792   0.274 -0.4060  0.4391  0.5331
  354SOL    HW2 1062   1.544   1.860   0.131 -0.0806 -1.0154  1.2301
  355SOL     OW 1063   1.989   0.287   0.768 -0.2483  0.3754  0.0306
  355SOL    HW1 1064   1.934   0.278   0.853 -0.6887 -0.1300 -3.1679
  355SOL    HW2 1065   2.074   0.342   0.769 -0.6431 -1.2423  0.1197
  356SOL     OW 1066   0.023   1.418   3.037 -0.4220 -0.4987 -0.1247
  356SOL    HW1 1067   0.102   1.379   0.012  0.3599  0.1067 -1.4733
  356SOL    HW2 1068   3.022   1.365   3.061  0.0919  0.9472 -2.0407
  357SOL     OW 1069   0.114   0.089   1.699  0.3090  0.3151  0.6032
  357SOL    HW1 1070   0.204   0.055   1.742 -0.5219 -1.3866  3.2825
  357SOL    HW2 1071   0.040   0.088   1.769 -0.9602 -0.9603 -0.4688
  358SOL     OW 1072   0.307   1.194   2.929  0.6783 -0.3699  0.0329
  358SOL    HW1 1073   0.287   1.276   2.870  0.0743  3.1154  1.2564
  358SOL    HW2 1074   0.262   1.196   3.019  1.8001  0.0125  1.7630
  359SOL     OW 1075   2.493   2.586   2.456 -0.2774 -0.2507  0.2760
  359SOL    HW1 1076   2.406   2.633   2.470  0.4596  0.4145 -0.1933
  359SOL    HW2 1077   2.517   2.593   2.353  1.1228  1.8505  0.0902
  360SOL     OW 1078   1.514   1.330   0.779 -0.0165  0.0134 -0.1983
  360SOL    HW1 1079   1.414   1.297   0.778 -3.9497 -0.6349  0.5041
  360SOL    HW2 1080   1.543   1.314   0.873 -0.1092 -0.8738  0.1523
  361SOL     OW 1081   2.142   2.239   1.164 -0.2466 -0.3581  0.3028
  361SOL    HW1 1082   2.231   2.193   1.148 -1.1834 -0.3977 -3.7060
  361SOL    HW2 1083   2.153   2.340   1.171  1.0863  2.3330 -1.3961
  362SOL     OW 1084   1.997   1.568   0.879 -0.6087  0.3301  0.4656
  362SOL    HW1 1085   1.962   1.604   0.789  0.6040 -0.1512  1.1127
  362SOL    HW2 1086   1.974   1.640   0.952  1.0261 -0.2619  1.5585
  363SOL     OW 1087   2.551   2.291   0.380 -0.3236  0.0194 -0.6010
  363SOL    HW1 1088   2.495   2.206   0.402  0.3404 -1.4212  0.8039
  363SOL    HW2 1089   2.640   2.267   0.338  2.1434  2.3170 -2.1002
  364SOL     OW 1090   2.592   0.010   1.263 -0.7307 -0.7109 -0.6061
  364SOL    HW1 1091   2.639   0.041   1.179  0.0689 -0.2931  3.6506
  364SOL    HW2 1092   2.640   3.009   1.306 -0.0344  0.1840 -2.2220
  365SOL     OW 1093   0.563   2.846   1.151  0.2243 -0.1541  0.3865
  365SOL    HW1 1094   0.631   2.827   1.077  0.0033  0.2746  1.4865
  365SOL    HW2 1095   0.536   2.755   1.187  0.8586 -1.0247  0.0516
  366SOL     OW 1096   2.975   1.499   0.255  0.1268 -0.3337 -0.6032
  366SOL    HW1 1097   2.892   1.458   0.205 -4.1681 -1.2476 -2.6692
  366SOL    HW2 1098   3.007   1.580   0.204 -1.3096 -2.3204 -1.1774
  367SOL     OW 1099   2.199   2.456   2.786  0.6446 -0.0801  0.1606
  367SOL    HW1 1100   2.169   2.454   2.689 -0.5759  0.4655  0.2481
  367SOL    HW2 1101   2.274   2.383   2.795 -0.2139 -0.9152  0.0606
  368SOL     OW 1102   2.676   2.118   0.795 -0.1516  0.2110 -0.9041
  368SOL    HW1 1103   2.650   2.057   0.714  1.2628 -1.3213 -2.2098
  368SOL    HW2 1104   2.765   2.080   0.820 -1.1076  1.8707 -2.5005
  369SOL     OW 1105   0.675   1.087   0.795 -0.4559  0.9027 -0.1243
  369SOL    HW1 1106   0.699   1.028   0.873 -1.0219 -1.2527  2.2224
  369SOL    HW2 1107   0.746   1.090   0.721 -2.1405 -1.5830  0.0838
  370SOL     OW 1108   0.551   0.251   0.924 -0.5503  0.0204  0.4072
  370SOL    HW1 1109   0.621   0.182   0.895 -1.0621  2.0428  1.5681
  370SOL    HW2 1110   0.453   0.229   0.909  1.3371  3.4341  0.3804
  371SOL     OW 1111   2.356   1.096   2.766  0.0955  0.1748  0.1421
  371SOL    HW1 1112   2.438   1.053   2.724  2.5317  0.0767  2.2937
  371SOL    HW2 1113   2.279   1.023   2.762  0.2862 -2.7401 -0.7284
  372SOL     OW 1114   0.816   0.460   2.525 -0.0691 -0.2923  0.0099
  372SOL    HW1 1115   0.829   0.471   2.422  2.7618 -0.3694 -2.5363
  372SOL    HW2 1116   0.876   0.383   2.553  0.9903  1.8818  1.7137
  373SOL     OW 1117   0.634   0.558   2.922 -0.4464 -0.4116 -0.2839
  373SOL    HW1 1118   0.674   0.618   2.851  0.7140 -1.0656  0.7610
  373SOL    HW2 1119   0.695   0.548   3.006  1.6018  0.2946  1.5454
  374SOL     OW 1120   0.801   2.158   0.196  0.2320 -0.2654 -0.4755
  374SOL    HW1 1121   0.861   2.093   0.142  0.4131 -0.1650 -0.6591
  374SOL    HW2 1122   0.747   2.106   0.263  1.4647  1.0876 -1.2763
  375SOL     OW 1123   0.782   0.078   0.851  0.5545 -0.0161  0.1916
  375SOL    HW1 1124   0.851   0.039   0.912 -1.7919  0.8975 -0.6294
  375SOL    HW2 1125   0.819   0.116   0.763 -1.0303  3.6400 -1.3287
  376SOL     OW 1126   0.055   2.219   1.948  0.1882 -0.1337  0.0286
  376SOL    HW1 1127   0.039   2.253   2.040 -2.4284  1.3421 -1.5716
  376SOL    HW2 1128   0.101   2.288   1.899 -3.3798 -2.5959  0.2937
  377SOL     OW 1129   2.488   2.042   0.061 -0.1941  0.0726 -0.3524
  377SOL    HW1 1130   2.392   2.070   0.072 -2.8447 -0.5013  1.2568
  377SOL    HW2 1131   2.501   1.972   3.066 -0.8929  2.6138  0.1664
  378SOL     OW 1132   1.800   0.209   0.604 -0.1888  0.4023  0.3163
  378SOL    HW1 1133   1.793   0.109   0.606  1.3478  1.7872 -0.8480
  378SOL    HW2 1134   1.875   0.245   0.662  0.2957  0.8133 -3.7894
  379SOL     OW 1135   1.298   0.968   0.846 -0.0734 -0.0024  0.3078
  379SOL    HW1 1136   1.201   0.931   0.839  0.0290 -2.9199 -0.1466
  379SOL    HW2 1137   1.334   0.987   0.754 -2.5437  2.9508  1.2961
  380SOL     OW 1138   2.507   1.929   1.861 -0.0021  0.0181  0.6936
  380SOL    HW1 1139   2.588   1.879   1.821  0.0778  2.0377 -2.1692
  380SOL    HW2 1140   2.540   2.024   1.871 -0.0019  0.3389  0.3121
  381SOL     OW 1141   0.056   1.294   2.198 -0.1674  0.0653  0.0777
  381SOL    HW1 1142   0.022   1.212   2.248  0.9132  0.4861 -0.3668
  381SOL    HW2 1143   0.081   1.264   2.107  1.0574 -3.1753 -0.6171
  382SOL     OW 1144   2.884   2.358   0.163  0.3964 -0.2432 -0.1679
  382SOL    HW1 1145   2.836   2.275   0.199 -0.1902 -0.4740  0.4445
  382SOL    HW2 1146   2.853   2.441   0.210 -1.1150 -1.8652  1.1527
  383SOL     OW 1147   1.412   0.903   2.179 -0.4106 -0.2756  0.6669
  383SOL    HW1 1148   1.451   0.995   2.177 -2.9952 -0.5384  1.5637
  383SOL    HW2 1149   1.382   0.889   2.273  0.2526  1.0144 -3.0881
  384SOL     OW 1150   1.199   2.162   2.567 -0.4211 -0.0464 -0.2992
  384SOL    HW1 1151   1.294   2.165   2.525  1.5731 -0.4105  2.8103
  384SOL    HW2 1152   1.128   2.193   2.502  1.3140  1.0230  0.9613
  385SOL     OW 1153   2.189   2.413   0.158 -0.1320 -0.3371 -0.9099
  385SOL    HW1 1154   2.142   2.455   0.075  1.4486 -0.4125 -1.0429
  385SOL    HW2 1155   2.291   2.435   0.163 -0.1953  0.9739 -1.7861
  386SOL     OW 1156   1.580   1.403   0.360 -0.4270  0.1313  0.0992
  386SOL    HW1 1157   1.556   1.498   0.376  0.4305 -0.6761 -1.4774
  386SOL    HW2 1158   1.622   1.361   0.446  2.7127 -0.4074  1.2984
  387SOL     OW 1159   2.853   1.027   1.452  0.5329  0.0474  0.3904
  387SOL    HW1 1160   2.921   1.100   1.426  0.4540  0.0211 -1.0742
  387SOL    HW2 1161   2.865   0.990   1.546 -0.1375  1.3301 -0.7824
  388SOL     OW 1162   0.445   0.970   1.249  0.1855 -0.3359 -0.5704
  388SOL    HW1 1163   0.477   0.999   1.157  0.2387  1.5833  2.2646
  388SOL    HW2 1164   0.388   0.886   1.259 -1.2021  2.5429  0.6893
  389SOL     OW 1165   2.305   1.297   2.098  0.1627 -0.1128 -0.4669
  389SOL    HW1 1166   2.322   1.371   2.165  2.7263  0.5373  2.4548
  389SOL    HW2 1167   2.206   1.272   2.089  0.4457 -0.3264  0.1256
  390SOL     OW 1168   1.289   1.879   0.626 -0.5281  0.4154 -0.6522
  390SOL    HW1 1169   1.356   1.939   0.572 -1.1903 -0.7345 -0.7070
  390SOL    HW2 1170   1.328   1.828   0.702 -0.6487  0.3950 -1.9029
  391SOL     OW 1171   1.192   1.887   0.957  0.0882 -0.4320  0.5607
  391SOL    HW1 1172   1.234   1.801   0.930 -1.4640  1.6788  0.0132
  391SOL    HW2 1173   1.101   1.897   0.903 -0.1832 -1.6563 -5.9972
  392SOL     OW 1174   2.462   2.481   2.002  1.0055 -0.0998  0.4024
  392SOL    HW1 1175   2.404   2.561   1.985  0.1729 -2.0081  0.5893
  392SOL    HW2 1176   2.542   2.476   1.941 -1.6785 -0.7596  0.7578
  393SOL     OW 1177   1.378   2.103   2.920 -0.4624 -0.1953 -0.5241
  393SOL    HW1 1178   1.299   2.157   2.887  0.1074  0.6104  2.0876
  393SOL    HW2 1179   1.351   2.009   2.953 -0.4664  1.4861  1.8995
  394SOL     OW 1180   0.275   0.266   2.251 -0.0266 -0.0336  0.1997
  394SOL    HW1 1181   0.304   0.350   2.201  0.2449 -0.7723  3.8115
  394SOL    HW2 1182   0.265   0.187   2.184 -2.1552 -1.8421  0.6860
  395SOL     OW 1183   0.328   0.980   0.882  0.1795  0.0076 -0.3216
  395SOL    HW1 1184   0.397   1.017   0.947  0.4756  0.7839 -1.0817
  395SOL    HW2 1185   0.383   0.940   0.806 -2.3091 -1.6171 -0.3954
  396SOL     OW 1186   2.262   1.474   2.610  0.3936 -0.4124 -0.2434
  396SOL    HW1 1187   2.365   1.471   2.611  0.0761 -1.4763 -0.0191
  396SOL    HW2 1188   2.231   1.505   2.517 -1.4712 -0.6286  0.5952
  397SOL     OW 1189   0.468   0.736   3.055 -0.0121 -0.2122 -0.0672
  397SOL    HW1 1190   0.431   0.807   2.990 -1.6510  0.0347 -3.2593
  397SOL    HW2 1191   0.515   0.663   3.004 -2.7923  2.8916 -0.5033
  398SOL     OW 1192   1.040   2.633   0.546 -0.1529  0.5608  0.1939
  398SOL    HW1 1193   1.097   2.633   0.628 -1.9676  0.7269 -1.7529
  398SOL    HW2 1194   0.984   2.717   0.549  0.0312 -0.2426 -1.1638
  399SOL     OW 1195   2.130   2.604   2.092  0.4811  0.5362 -0.1844
  399SOL    HW1 1196   2.090   2.570   2.178  0.1483 -1.6793  2.2439
  399SOL    HW2 1197   2.081   2.567   2.012  1.3832  2.5278 -0.0442
  400SOL     OW 1198   0.140   1.254   1.736  0.2868 -0.1761  0.0383
  400SOL    HW1 1199   0.110   1.219   1.827  0.8155  0.2276  1.7190
  400SOL    HW2 1200   0.181   1.348   1.746  3.0788 -1.6493 -0.7726
  401SOL     OW 1201   0.496   0.934   0.664  0.6396  0.4571  0.2988
  401SOL    HW1 1202   0.528   0.844   0.628  2.9995 -1.6657 -0.6252
  401SOL    HW2 1203   0.569   0.993   0.701 -3.1542 -2.8794 -1.2350
  402SOL     OW 1204   0.798   2.946   2.283  0.1947 -0.6808  0.2438
  402SOL    HW1 1205   0.874   3.011   2.312  0.2843 -0.3330  1.4938
  402SOL    HW2 1206   0.788   2.929   2.183 -3.5962 -2.0891 -1.7423
  403SOL     OW 1207   2.723   1.804   1.750 -0.2790  0.1379  0.3526
  403SOL    HW1 1208   2.795   1.839   1.816  0.0241  1.3039 -0.0372
  403SOL    HW2 1209   2.712   1.703   1.771 -1.3203 -4.0136  1.8225
  404SOL     OW 1210   2.613   2.199   1.900  0.1036 -0.6540 -0.3158
  404SOL    HW1 1211   2.616   2.186   2.003  0.5612 -1.7756 -1.6005
  404SOL    HW2 1212   2.653   2.291   1.871 -0.2217  0.0165 -2.4543
  405SOL     OW 1213   1.891   3.050   2.776 -0.0546 -0.1835  0.2875
  405SOL    HW1 1214   1.952   2.979   2.743 -0.3405  1.4949 -0.1660
  405SOL    HW2 1215   1.812   3.075   2.714  0.3718  0.2154 -0.7360
  406SOL     OW 1216   0.961   1.830   0.284 -0.1729  0.5530  0.3560
  406SOL    HW1 1217   1.005   1.907   0.236  1.4999 -1.0922  2.7329
  406SOL    HW2 1218   0.996   1.828   0.379 -0.0752  1.2421 -1.5907
  407SOL     OW 1219   1.368   1.278   0.241  0.0150  0.5019 -0.4539
  407SOL    HW1 1220   1.288   1.343   0.220 -1.6912 -0.1428  0.8937
  407SOL    HW2 1221   1.454   1.335   0.266  0.8131  1.0815  0.4851
  408SOL     OW 1222   0.406   0.478   1.505 -0.0064 -0.2381 -0.3503
  408SOL    HW1 1223   0.346   0.448   1.582 -0.6587  2.1377 -0.0661
  408SOL    HW2 1224   0.506   0.491   1.530  2.8277  1.6644  0.8786
  409SOL     OW 1225   2.698   1.453   2.908 -0.4869  0.3985 -0.5326
  409SOL    HW1 1226   2.610   1.401   2.905  1.8089 -1.3847 -0.1676
  409SOL    HW2 1227   2.697   1.544   2.951 -0.4513 -1.8610 -1.1556
  410SOL     OW 1228   2.728   2.844   0.629 -0.0673  0.6501  0.0142
  410SOL    HW1 1229   2.693   2.839   0.725  0.4712 -0.8733  0.2819
  410SOL    HW2 1230   2.808   2.782   0.619 -0.5345 -0.8201 -1.5002
  411SOL     OW 1231   0.302   0.703   0.803  0.3294 -0.4192 -0.0827
  411SOL    HW1 1232   0.389   0.686   0.849 -2.0984 -0.9609 -2.0317
  411SOL    HW2 1233   0.224   0.659   0.850 -2.2059 -2.2244 -1.4737
  412SOL     OW 1234   1.324   3.000   0.504 -0.1849  0.1733  0.4168
  412SOL    HW1 1235   1.272   3.039   0.426 -0.4973 -0.8831  2.3519
  412SOL    HW2 1236   1.351   2.901   0.492  1.2263  0.9692  0.5927
  413SOL     OW 1237   1.877   0.683   2.028  0.3839 -0.5242 -0.1526
  413SOL    HW1 1238   1.914   0.592   2.059 -0.9508 -1.1417  0.9130
  413SOL    HW2 1239   1.774   0.679   2.017 -2.4468 -1.0490 -2.3259
  414SOL     OW 1240   3.066   0.851   0.424 -0.0452 -0.2320 -0.2745
  414SOL    HW1 1241   2.981   0.810   0.384  2.7987 -2.7433 -4.3085
  414SOL    HW2 1242   3.040   0.916   0.501  0.0186  1.4693  0.1461
  415SOL     OW 1243   2.789   1.370   0.108  0.0202  0.0631  0.1580
  415SOL    HW1 1244   2.739   1.406   0.032  1.3783 -1.5295  4.0561
  415SOL    HW2 1245   2.760   1.276   0.136 -0.6368  1.6123  0.9528
  416SOL     OW 1246   2.643   0.422   2.646 -0.0116  0.4907  0.2440
  416SOL    HW1 1247   2.617   0.436   2.548 -1.3605 -2.2845  0.4453
  416SOL    HW2 1248   2.685   0.507   2.675 -2.6548 -0.9745  0.4622
  417SOL     OW 1249   2.360   0.149   0.579 -0.3780 -0.5854 -0.4035
  417SOL    HW1 1250   2.449   0.155   0.629 -0.0877  1.3604 -0.0543
  417SOL    HW2 1251   2.375   0.187   0.484 -1.4438 -0.8395 -0.6518
  418SOL     OW 1252   0.357   0.226   0.079  0.3953  0.4741  0.1403
  418SOL    HW1 1253   0.427   0.289   0.120  0.4567 -1.4121  1.9549
  418SOL    HW2 1254   0.394   0.152   0.023 -1.2622  0.5638 -0.8405
  419SOL     OW 1255   0.542   0.724   1.026  0.2227 -0.1229 -0.4347
  419SOL    HW1 1256   0.558   0.699   1.126 -0.9803 -0.1694  1.6177
  419SOL    HW2 1257   0.510   0.638   0.979 -0.0254 -2.0246  1.9440
  420SOL     OW 1258   0.100   0.848   1.021 -0.5989 -0.0457  0.3699
  420SOL    HW1 1259   0.194   0.868   0.984  0.0786 -0.3309  1.7666
  420SOL    HW2 1260   0.089   0.863   1.119 -2.0026  0.7759 -0.7031
  421SOL     OW 1261   0.620   1.852   0.012 -0.6265 -0.8777 -0.2049
  421SOL    HW1 1262   0.525   1.886   0.031  3.1535 -0.9413 -3.0113
  421SOL    HW2 1263   0.665   1.924   3.036 -2.1576  2.1023  3.8128
  422SOL     OW 1264   2.516   0.290   1.972 -0.3456 -0.3080  0.5433
  422SOL    HW1 1265   2.602   0.350   1.972  1.9744  2.0012  1.6326
  422SOL    HW2 1266   2.437   0.331   2.021 -0.3082 -2.2020 -2.0717
  423SOL     OW 1267   1.863   1.662   0.108  0.2407 -0.1234 -0.1394
  423SOL    HW1 1268   1.919   1.707   0.038 -0.2800  2.9694 -0.4339
  423SOL    HW2 1269   1.786   1.719   0.134  1.0369 -2.0125  2.5785
  424SOL     OW 1270   1.481   1.478   2.197  0.0912  0.1921 -0.7515
  424SOL    HW1 1271   1.489   1.569   2.245 -0.1148 -0.3003 -2.5527
  424SOL    HW2 1272   1.487   1.398   2.260 -2.3536 -0.3673 -1.5442
  425SOL     OW 1273   3.061   2.336   2.193 -0.6896 -0.1323  0.1934
  425SOL    HW1 1274   0.063   2.397   2.210 -2.0578  2.1954 -0.5942
  425SOL    HW2 1275   2.973   2.384   2.214  0.3339 -0.0232 -0.2188
  426SOL     OW 1276   2.362   2.875   0.547  0.4900 -0.1033  0.2007
  426SOL    HW1 1277   2.282   2.823   0.577  1.9315 -0.9506  1.4376
  426SOL    HW2 1278   2.408   2.918   0.630  0.6977  0.3930  2.8815
  427SOL     OW 1279   0.612   0.970   2.548  0.5314 -0.0329 -0.0645
  427SOL    HW1 1280   0.578   1.057   2.597  1.1167  0.1317  1.3285
  427SOL    HW2 1281   0.714   0.977   2.542 -4.0848  1.6576  1.2932
  428SOL     OW 1282   2.525   1.381   2.617  0.7961  0.3245  0.0056
  428SOL    HW1 1283   2.549   1.288   2.576  2.2624  1.0670  1.2383
  428SOL    HW2 1284   2.476   1.366   2.708  0.3252 -0.2368  1.8004
  429SOL     OW 1285   2.362   0.560   0.417 -0.0755 -0.7714 -0.1117
  429SOL    HW1 1286   2.284   0.605   0.378  2.5114 -0.8202 -0.8476
  429SOL    HW2 1287   2.379   0.461   0.399 -3.2092 -0.5068  0.6014
  430SOL     OW 1288   1.460   2.075   2.468 -0.1219  0.0489 -0.0908
  430SOL    HW1 1289   1.539   2.135   2.458 -1.9501 -2.1883  1.9914
  430SOL    HW2 1290   1.409   2.056   2.380 -0.4691  1.5175 -2.4453
  431SOL     OW 1291   0.221   1.626   1.781 -0.0519 -0.5890  0.6247
  431SOL    HW1 1292   0.184   1.579   1.866 -0.0938 -0.9987  1.5871
  431SOL    HW2 1293   0.295   1.559   1.746 -3.2541 -2.3818 -1.6033
  432SOL     OW 1294   1.345   1.931   2.224 -0.2783 -0.0507 -0.2972
  432SOL    HW1 1295   1.417   1.944   2.152 -1.4904 -3.0900 -0.7050
  432SOL    HW2 1296   1.255   1.975   2.196 -0.3313  1.1097 -0.7210
  433SOL     OW 1297   1.071   2.211   0.436 -1.0345 -0.6744 -0.0764
  433SOL    HW1 1298   1.004   2.279   0.477 -1.2254  2.4644  2.6823
  433SOL    HW2 1299   1.106   2.240   0.343 -0.6186 -2.0482  1.6898
  434SOL     OW 1300   0.473   2.122   2.366 -0.1092 -0.0151 -0.3640
  434SOL    HW1 1301   0.536   2.199   2.352 -1.0481  0.8406 -0.3664
  434SOL    HW2 1302   0.385   2.148   2.323  0.0510  1.3825 -0.2857
  435SOL     OW 1303   0.291   1.384   0.411  0.4428  0.3831  0.2085
  435SOL    HW1 1304   0.194   1.354   0.425 -1.0587 -1.3258 -0.7289
  435SOL    HW2 1305   0.354   1.310   0.433  2.3517  1.1552 -0.6088
  436SOL     OW 1306   0.190   2.419   1.784  0.0605 -0.1356  0.2701
  436SOL    HW1 1307   0.105   2.456   1.739  0.1091 -0.0765 -1.8243
  436SOL    HW2 1308   0.267   2.413   1.717 -1.2483 -5.0668  2.5706
  437SOL     OW 1309   0.964   0.181   0.364  0.2073  0.4580  0.7823
  437SOL    HW1 1310   1.010   0.229   0.286  0.0136  1.4425  0.7600
  437SOL    HW2 1311   0.860   0.172   0.354 -1.1386 -0.1344 -0.9109
  438SOL     OW 1312   0.663   2.357   0.664  0.4526 -0.1116  0.2810
  438SOL    HW1 1313   0.747   2.385   0.616 -0.4937 -1.5412  0.8786
  438SOL    HW2 1314   0.666   2.382   0.764 -1.9377  2.2877  0.4489
  439SOL     OW 1315   0.406   2.479   1.572  0.3557  0.1400  0.7277
  439SOL    HW1 1316   0.423   2.404   1.507  2.1887 -0.0477  1.0621
  439SOL    HW2 1317   0.438   2.567   1.537 -3.1037 -1.7648  1.2659
  440SOL     OW 1318   1.744   2.909   1.693  0.3674 -0.4521  0.1768
  440SOL    HW1 1319   1.771   2.911   1.793  1.0581 -1.3878 -0.2856
  440SOL    HW2 1320   1.784   2.840   1.635  1.5694  1.8995  0.4737
  441SOL     OW 1321   2.779   0.493   1.731 -0.6878 -0.0676 -0.1504
  441SOL    HW1 1322   2.722   0.480   1.651  0.9741 -2.5332  1.6157
  441SOL    HW2 1323   2.859   0.430   1.726 -1.2922  0.7590 -2.8963
  442SOL     OW 1324   1.899   2.235   0.730 -0.0534  0.8043  0.1758
  442SOL    HW1 1325   1.884   2.211   0.827  0.9098  1.0732 -0.5543
  442SOL    HW2 1326   1.984   2.287   0.703  2.0688  1.9524  1.3032
  443SOL     OW 1327   2.840   0.480   2.260 -0.0323 -0.3013  0.1216
  443SOL    HW1 1328   2.913   0.427   2.309  1.9811 -1.6185 -0.3089
  443SOL    HW2 1329   2.788   0.419   2.195  3.6349 -1.3070  0.5313
  444SOL     OW 1330   2.189   1.029   1.775 -0.1771  0.2727 -0.2276
  444SOL    HW1 1331   2.281   1.036   1.817 -0.2205  0.8157  1.0814
  444SOL    HW2 1332   2.129   0.967   1.825  2.0250  3.7738 -1.6038
  445SOL     OW 1333   2.765   2.272   1.193  0.4684  0.1093 -0.6877
  445SOL    HW1 1334   2.747   2.246   1.293  0.4272 -0.8085 -0.2186
  445SOL    HW2 1335   2.699   2.346   1.177  2.2534 -0.0955 -0.6371
  446SOL     OW 1336   2.815   1.530   0.530  0.0108 -0.4525  0.4698
  446SOL    HW1 1337   2.875   1.473   0.472 -1.1066 -0.1569  2.2002
  446SOL    HW2 1338   2.873   1.558   0.611 -2.7871  0.9629 -0.3702
  447SOL     OW 1339   0.572   1.353   0.816  0.2046  0.7277  0.3352
  447SOL    HW1 1340   0.615   1.264   0.844  3.7714  1.6208  1.6671
  447SOL    HW2 1341   0.573   1.364   0.716  2.2197 -0.4374  0.4439
  448SOL     OW 1342   1.472   1.244   1.330 -0.2886 -0.3411  0.2943
  448SOL    HW1 1343   1.553   1.237   1.392 -1.5776  2.2205 -2.6437
  448SOL    HW2 1344   1.450   1.334   1.294  0.7434  3.7716 -1.8525
  449SOL     OW 1345   0.952   1.194   0.182  0.6069 -0.6697 -0.6959
  449SOL    HW1 1346   1.037   1.157   0.144 -1.6890  1.2300  1.4990
  449SOL    HW2 1347   0.867   1.166   0.130 -0.9095  1.3626 -3.1502
  450SOL     OW 1348   2.344   2.224   2.063 -0.1787 -0.0748 -0.1722
  450SOL    HW1 1349   2.339   2.324   2.053 -2.2775  1.6244 -1.1303
  450SOL    HW2 1350   2.439   2.193   2.046  1.9069  2.3751 -0.1096
  451SOL     OW 1351   1.875   2.913   2.428  0.1672 -0.0988 -0.1676
  451SOL    HW1 1352   1.937   2.918   2.509 -0.5578 -2.4685  0.3971
  451SOL    HW2 1353   1.933   2.904   2.346 -2.4157  1.1777  0.6250
  452SOL     OW 1354   1.570   2.966   1.347  0.0184 -0.5921  0.1025
  452SOL    HW1 1355   1.508   2.969   1.265  0.8956  0.0936  0.1741
  452SOL    HW2 1356   1.592   2.867   1.375  1.7171 -0.0673  0.9240
  453SOL     OW 1357   1.670   0.996   0.793  0.2323 -0.0148  0.5023
  453SOL    HW1 1358   1.762   0.991   0.752 -0.4575  0.5687  1.3028
  453SOL    HW2 1359   1.683   1.045   0.882  0.3403 -1.7442  0.8489
  454SOL     OW 1360   0.403   1.545   0.863 -0.2749  0.1212  0.1794
  454SOL    HW1 1361   0.335   1.510   0.795 -2.4161 -1.0843 -0.4062
  454SOL    HW2 1362   0.481   1.475   0.866  3.3045 -0.8554  0.1403
  455SOL     OW 1363   2.647   3.041   0.201 -0.8467 -0.7421  0.1039
  455SOL    HW1 1364   2.638   3.034   0.098 -1.1864 -0.3030 -2.5685
  455SOL    HW2 1365   2.663   0.063   0.225  0.5047  0.8292  0.3286
  456SOL     OW 1366   2.590   2.489   1.116  0.1590 -0.1339  0.0291
  456SOL    HW1 1367   2.570   2.588   1.132 -2.4154 -0.3154  0.0757
  456SOL    HW2 1368   2.519   2.454   1.054  3.4209 -2.2106 -1.7569
  457SOL     OW 1369   1.142   3.063   0.277  0.3356 -0.0087  0.0515
  457SOL    HW1 1370   1.231   0.023   0.247 -1.0368  0.5597  0.4922
  457SOL    HW2 1371   1.077   0.054   0.309  2.4870  1.7915  0.5404
  458SOL     OW 1372   2.566   0.725   0.394 -0.1162 -0.1622  0.0008
  458SOL    HW1 1373   2.613   0.730   0.486  3.4430  1.2276  0.4871
  458SOL    HW2 1374   2.497   0.645   0.387  0.8025 -1.8345 -0.3624
  459SOL     OW 1375   1.948   0.398   2.536  0.1720 -0.7857 -0.5391
  459SOL    HW1 1376   1.845   0.387   2.532 -3.2870  1.3811 -0.8107
  459SOL    HW2 1377   1.991   0.335   2.604 -0.1473 -3.5581 -0.4355
  460SOL     OW 1378   2.792   0.239   2.480  0.5539  0.0113  0.0157
  460SOL    HW1 1379   2.725   0.257   2.556  0.7107 -3.6777 -0.0677
  460SOL    HW2 1380   2.740   0.235   2.394  3.1949 -1.3845  0.3856
  461SOL     OW 1381   1.300   1.674   0.811 -0.1703  0.0651 -0.5020
  461SOL    HW1 1382   1.289   1.607   0.893  2.4187 -0.8648  2.6548
  461SOL    HW2 1383   1.260   1.634   0.729 -0.0298 -0.6136  0.4607
  462SOL     OW 1384   2.439   2.860   1.332 -0.2895 -0.0986 -0.1123
  462SOL    HW1 1385   2.482   2.950   1.356  2.0459  3.4088 -2.2482
  462SOL    HW2 1386   2.414   2.800   1.415 -1.0510  1.2450  1.3911
  463SOL     OW 1387   2.625   1.112   0.578 -0.1526  0.0520 -0.2242
  463SOL    HW1 1388   2.571   1.073   0.500  2.4341 -1.1150  1.2129
  463SOL    HW2 1389   2.637   1.045   0.655  1.3156  3.8606 -2.7724
  464SOL     OW 1390   0.307   2.566   1.210  0.9607 -0.1054 -0.0421
  464SOL    HW1 1391   0.288   2.560   1.111  0.2749  0.8788 -3.1063
  464SOL    HW2 1392   0.257   2.495   1.267  0.3856 -0.1081  1.7561
  465SOL     OW 1393   3.046   1.669   0.060  0.2285  0.1823 -0.3814
  465SOL    HW1 1394   3.059   1.575   0.023 -1.2087 -2.2216  0.3160
  465SOL    HW2 1395   2.986   1.726   3.078  1.1077  0.7052 -0.0524
  466SOL     OW 1396   1.419   0.339   2.949  0.2170  0.1049 -0.4345
  466SOL    HW1 1397   1.325   0.345   2.985 -1.2316  0.5715 -1.6012
  466SOL    HW2 1398   1.468   0.427   2.938 -2.2118 -0.7509  2.3148
  467SOL     OW 1399   1.028   0.673   2.214  0.1609  0.2550  0.1527
  467SOL    HW1 1400   1.013   0.646   2.115  2.6462 -0.1850  0.6518
  467SOL    HW2 1401   1.114   0.636   2.257  0.1895 -0.6291  0.1614
  468SOL     OW 1402   0.578   0.951   2.263  0.4169 -0.3588  0.0036
  468SOL    HW1 1403   0.555   0.972   2.360  0.6245 -3.9367  0.7172
  468SOL    HW2 1404   0.634   1.027   2.222  0.6958  0.2513  0.3588
  469SOL     OW 1405   0.063   2.175   3.074  0.5736  0.5133 -0.2846
  469SOL    HW1 1406   3.042   2.183   3.057 -2.0765 -0.1159 -3.2535
  469SOL    HW2 1407   0.112   2.261   3.052 -2.3496 -2.7320  0.1400
  470SOL     OW 1408   2.473   1.818   2.952  0.3415  0.3794 -0.4511
  470SOL    HW1 1409   2.392   1.799   3.013  1.5996 -1.9965  0.5168
  470SOL    HW2 1410   2.554   1.762   2.979 -0.9201 -0.2643  0.5213
  471SOL     OW 1411   2.299   0.610   2.215  0.1482 -0.5225  0.0349
  471SOL    HW1 1412   2.272   0.691   2.159 -0.2254  0.7577 -1.6465
  471SOL    HW2 1413   2.214   0.571   2.260  0.7886  0.8350 -0.1866
  472SOL     OW 1414   0.576   2.561   1.222  0.2518 -0.4335 -0.5051
  472SOL    HW1 1415   0.605   2.587   1.317 -0.9936  1.7788  1.8457
  472SOL    HW2 1416   0.476   2.562   1.211  2.2888 -2.6745  1.6007
  473SOL     OW 1417   0.349   3.034   2.448  0.0494  0.2451 -0.0745
  473SOL    HW1 1418   0.416   0.032   2.464  2.1030  1.4183 -0.3129
  473SOL    HW2 1419   0.276   3.039   2.521  0.6350 -0.8847  1.1388
  474SOL     OW 1420   1.662   0.011   1.972  0.4590 -0.1663  0.4528
  474SOL    HW1 1421   1.716   0.092   1.938  1.2452 -0.4210  0.3633
  474SOL    HW2 1422   1.572   0.040   2.010  0.1957  2.2341  0.0976
  475SOL     OW 1423   1.707   2.762   0.693 -0.0666 -0.3847  0.0610
  475SOL    HW1 1424   1.790   2.826   0.695  2.6729  0.2584  0.0619
  475SOL    HW2 1425   1.716   2.683   0.632 -1.2083  1.1670  1.2609
  476SOL     OW 1426   0.139   0.506   0.911  0.3699 -0.3689 -0.3944
  476SOL    HW1 1427   0.037   0.510   0.936 -4.6188  1.1464 -1.2379
  476SOL    HW2 1428   0.144   0.483   0.814  1.6566  0.5741  1.6166
  477SOL     OW 1429   1.396   2.272   0.590 -0.7927  0.2779  0.0579
  477SOL    HW1 1430   1.415   2.184   0.537 -0.8383 -1.3762 -1.1787
  477SOL    HW2 1431   1.304   2.268   0.631  1.5508 -3.1733 -1.2808
  478SOL     OW 1432   0.211   2.315   2.507  0.4936 -0.4176 -0.1590
  478SOL    HW1 1433   0.298   2.333   2.551 -3.6468  1.8612  0.1909
  478SOL    HW2 1434   0.221   2.279   2.410  0.5560 -3.9757 -0.5554
  479SOL     OW 1435   2.558   0.390   1.039  0.0066 -0.1803  0.0928
  479SOL    HW1 1436   2.602   0.408   0.949  1.3534  1.7035  3.0551
  479SOL    HW2 1437   2.475   0.325   1.031 -2.6641 -1.6984  0.3735
  480SOL     OW 1438   0.021   2.819   0.282 -0.0195  0.0686 -0.6044
  480SOL    HW1 1439   0.074   2.886   0.225 -0.5467 -1.3218 -1.0376
  480SOL    HW2 1440   2.998   2.814   0.268 -1.2268 -0.5398  1.1079
  481SOL     OW 1441   2.671   2.195   1.424  0.4351  0.6225  0.5957
  481SOL    HW1 1442   2.571   2.190   1.397 -1.0323 -0.9278  1.5465
  481SOL    HW2 1443   2.706   2.114   1.474  1.2710 -1.6610 -1.8596
  482SOL     OW 1444   1.127   2.491   2.716 -0.0414  0.3293  0.1622
  482SOL    HW1 1445   1.200   2.537   2.664 -0.4078  1.0158  1.3581
  482SOL    HW2 1446   1.037   2.512   2.676 -0.3357 -0.5315  2.5913
  483SOL     OW 1447   0.498   2.648   2.391  0.3863  0.1811 -0.3496
  483SOL    HW1 1448   0.400   2.674   2.365 -2.6157 -1.4309 -1.4034
  483SOL    HW2 1449   0.550   2.626   2.309 -1.3369 -0.1341 -1.0916
  484SOL     OW 1450   1.164   0.844   1.733 -0.1744 -0.0657 -0.0510
  484SOL    HW1 1451   1.261   0.832   1.710  3.4344 -2.0916 -1.8223
  484SOL    HW2 1452   1.146   0.834   1.836  2.2722  0.8619  2.7048
  485SOL     OW 1453   2.431   0.868   2.545 -0.0363  0.1974  0.0955
  485SOL    HW1 1454   2.532   0.859   2.532 -3.5266 -2.0182  3.0386
  485SOL    HW2 1455   2.383   0.909   2.463 -0.6960 -3.4558 -0.1458
  486SOL     OW 1456   2.273   3.057   0.962  0.3029  0.0634 -0.2771
  486SOL    HW1 1457   2.268   2.989   1.040  1.4756  2.3786 -1.3620
  486SOL    HW2 1458   2.342   3.030   0.892  2.6177  1.5677  0.9803
  487SOL     OW 1459   0.533   2.017   1.556 -0.0730  0.4693 -0.5556
  487SOL    HW1 1460   0.490   1.929   1.530  1.1672  0.4560 -1.0853
  487SOL    HW2 1461   0.499   2.052   1.646  1.8109 -3.4440  1.3912
  488SOL     OW 1462   2.434   1.353   2.900 -0.4278 -0.2170  0.0271
  488SOL    HW1 1463   2.380   1.420   2.956  0.6124 -0.4598  3.1794
  488SOL    HW2 1464   2.376   1.278   2.877  0.3438  4.2022  0.9160
  489SOL     OW 1465   1.773   3.076   0.849 -0.6209 -0.5143 -0.0013
  489SOL    HW1 1466   1.839   3.031   0.909  0.0292  1.1234  2.7097
  489SOL    HW2 1467   1.775   0.098   0.875  1.9410 -0.5988 -0.0572
  490SOL     OW 1468   0.830   1.111   0.574 -0.4037  0.5156  0.0821
  490SOL    HW1 1469   0.908   1.169   0.541 -1.3961 -3.3842 -2.5486
  490SOL    HW2 1470   0.740   1.149   0.536 -0.4627  2.9156 -1.6635
  491SOL     OW 1471   0.665   2.406   0.964 -0.1783  0.2263  0.0195
  491SOL    HW1 1472   0.746   2.348   0.962 -2.9149 -0.2110  0.9854
  491SOL    HW2 1473   0.667   2.476   1.042  3.0310  1.1577  0.4253
  492SOL     OW 1474   1.320   1.636   1.923 -0.6522 -0.0505 -0.1513
  492SOL    HW1 1475   1.262   1.724   1.919 -2.4665 -1.3478  2.4694
  492SOL    HW2 1476   1.258   1.564   1.962  3.2502 -1.5093  0.9172
  493SOL     OW 1477   2.906   2.612   0.580 -0.5750 -0.8885  0.8971
  493SOL    HW1 1478   3.004   2.614   0.618  1.3677 -1.5112  0.4428
  493SOL    HW2 1479   2.858   2.528   0.612  1.8199 -1.1000 -0.9808
  494SOL     OW 1480   2.703   2.134   0.212 -0.1887  0.7305 -0.7733
  494SOL    HW1 1481   2.625   2.093   0.159  0.3955  1.3852  0.0946
  494SOL    HW2 1482   2.769   2.063   0.247 -1.0144  0.3197  0.5887
  495SOL     OW 1483   2.995   2.448   2.991 -0.5120 -0.0585  0.8950
  495SOL    HW1 1484   2.921   2.412   2.931 -0.9117 -0.2748  4.9522
  495SOL    HW2 1485   2.953   2.444   0.003 -0.1834  1.2194 -1.1561
  496SOL     OW 1486   2.632   0.417   1.521 -0.1637 -0.2107  0.1933
  496SOL    HW1 1487   2.539   0.449   1.508  1.0729  0.9752 -0.3469
  496SOL    HW2 1488   2.671   0.385   1.430 -0.9814  0.3978 -1.1344
  497SOL     OW 1489   2.789   1.191   2.904  0.0216 -0.0325  0.2881
  497SOL    HW1 1490   2.850   1.163   2.980 -3.1752  0.9581  1.0625
  497SOL    HW2 1491   2.768   1.290   2.910 -1.2003 -0.5007 -0.9137
  498SOL     OW 1492   0.044   1.500   1.954 -0.1948  0.2673 -0.4014
  498SOL    HW1 1493   0.027   1.530   2.049  0.7991 -0.9812 -2.9005
  498SOL    HW2 1494   3.046   1.524   1.897 -0.1424 -0.1386  0.7953
  499SOL     OW 1495   0.751   2.300   2.589 -0.0393 -0.2926 -0.1345
  499SOL    HW1 1496   0.671   2.357   2.569  0.1072  1.8025  2.3171
  499SOL    HW2 1497   0.719   2.214   2.637  0.4631 -1.3079  2.1625
  500SOL     OW 1498   1.822   0.248   3.011 -0.1951  0.2063 -0.0880
  500SOL    HW1 1499   1.897   0.305   2.963  2.1052 -0.5384 -2.8946
  500SOL    HW2 1500   1.860   0.155   3.008 -1.5392 -0.8561 -0.2411
  501SOL     OW 1501   1.279   0.025   1.716  0.1980 -0.3103  0.4802
  501SOL    HW1 1502   1.325   0.104   1.672 -3.8756  2.4939 -0.0795
  501SOL    HW2 1503   1.347   3.030   1.732 -1.0778 -1.3349 -2.2222
  502SOL     OW 1504   2.485   0.784   1.950 -0.2133 -0.2118  0.0144
  502SOL    HW1 1505   2.521   0.844   1.874 -0.2470 -1.1236  1.3375
  502SOL    HW2 1506   2.447   0.702   1.908  2.2587 -0.5049 -1.6987
  503SOL     OW 1507   2.216   1.979   2.226  0.3560  0.0429  0.9335
  503SOL    HW1 1508   2.232   2.079   2.226 -2.8773 -1.2693  3.2443
  503SOL    HW2 1509   2.120   1.952   2.214  2.1444  2.4624 -0.8617
  504SOL     OW 1510   1.450   0.866   1.655  0.2280  0.0833  0.1139
  504SOL    HW1 1511   1.425   0.925   1.573  1.0201  3.1004  1.1807
  504SOL    HW2 1512   1.445   0.768   1.636 -0.3511 -1.5232 -0.6560
  505SOL     OW 1513   0.865   0.850   1.867 -0.1443 -0.0591  0.2514
  505SOL    HW1 1514   0.930   0.919   1.883 -4.9818  1.4010 -1.3792
  505SOL    HW2 1515   0.856   0.825   1.773 -0.0992  0.4001  1.5506
  506SOL     OW 1516   0.568   0.360   2.593 -0.5584 -0.0358 -0.2033
  506SOL    HW1 1517   0.562   0.356   2.691  2.4573  3.5365 -1.6070
  506SOL    HW2 1518   0.654   0.409   2.576 -0.6050 -0.6764  2.6909
  507SOL     OW 1519   0.156   3.027   0.182 -0.2212  0.6711  0.0080
  507SOL    HW1 1520   0.238   3.051   0.235 -2.4485  1.0069  1.2156
  507SOL    HW2 1521   0.082   0.016   0.202  0.8417  0.3059 -1.5123
  508SOL     OW 1522   1.348   1.029   1.458  0.3101  0.1797  0.2038
  508SOL    HW1 1523   1.264   1.050   1.516  2.3660 -0.2566 -0.9220
  508SOL    HW2 1524   1.397   1.115   1.439 -2.7873 -1.6626  2.8021
  509SOL     OW 1525   1.489   2.157   1.340  0.5931 -0.0329  0.6035
  509SOL    HW1 1526   1.490   2.074   1.277  0.6699 -0.7525 -0.4330
  509SOL    HW2 1527   1.569   2.157   1.407 -2.2336 -1.3924  1.3798
  510SOL     OW 1528   2.615   1.307   1.953  0.0153  0.4947 -0.0697
  510SOL    HW1 1529   2.623   1.383   1.883 -0.3926 -1.6830 -1.4828
  510SOL    HW2 1530   2.575   1.339   2.040  0.1304  0.5554 -0.6614
  511SOL     OW 1531   0.788   2.106   1.510  0.3423  0.2891  0.1369
  511SOL    HW1 1532   0.801   2.169   1.433  1.8648 -0.1619 -0.5472
  511SOL    HW2 1533   0.698   2.054   1.514  0.4902 -1.4427  0.9062
  512SOL     OW 1534   2.677   1.763   0.765  0.1780  0.2103  0.7395
  512SOL    HW1 1535   2.721   1.696   0.701  0.9862 -1.3067  0.8499
  512SOL    HW2 1536   2.742   1.840   0.787  1.4378 -1.2186  0.0999
  513SOL     OW 1537   0.035   1.572   2.811  0.3107 -0.5112  0.1628
  513SOL    HW1 1538   0.083   1.664   2.827  1.8967  0.4310  0.6192
  513SOL    HW2 1539   0.030   1.510   2.893 -0.0224 -0.1865 -3.1334
  514SOL     OW 1540   2.796   2.263   2.391  0.1965  0.2502  0.2684
  514SOL    HW1 1541   2.861   2.225   2.454  2.6662  1.2725 -4.4749
  514SOL    HW2 1542   2.826   2.356   2.361  1.0888 -0.1738 -2.5931
  515SOL     OW 1543   2.129   1.142   0.980  0.3436  0.0423  0.4924
  515SOL    HW1 1544   2.112   1.179   0.887 -2.4573  0.1463 -0.5161
  515SOL    HW2 1545   2.101   1.210   1.050  1.1401 -0.4932  1.5078
  516SOL     OW 1546   2.126   2.016   0.395  0.4405 -0.3334 -0.5293
  516SOL    HW1 1547   2.192   2.006   0.474  1.8209  0.2218  0.8896
  516SOL    HW2 1548   2.098   1.917   0.367 -1.8508 -1.7400  1.5471
  517SOL     OW 1549   0.710   1.122   0.102  0.8310 -0.2821  0.2221
  517SOL    HW1 1550   0.655   1.160   0.025  1.8597 -1.8026  1.9649
  517SOL    HW2 1551   0.671   1.145   0.196 -1.2713  2.6631 -2.2618
  518SOL     OW 1552   2.844   2.951   1.948 -0.9743 -0.3209 -0.2228
  518SOL    HW1 1553   2.877   2.853   1.967 -1.5864 -1.4768 -1.4229
  518SOL    HW2 1554   2.761   2.947   1.891  1.9795 -1.7128  2.4863
  519SOL     OW 1555   1.399   1.636   2.566 -0.4984  0.4955  0.3706
  519SOL    HW1 1556   1.424   1.722   2.612  0.5680  0.3438 -1.9324
  519SOL    HW2 1557   1.476   1.569   2.563  0.5624  1.1087  1.4719
  520SOL     OW 1558   2.509   2.889   2.161  0.1479  0.1031 -0.3738
  520SOL    HW1 1559   2.484   2.959   2.091  0.3930 -0.3118  0.9541
  520SOL    HW2 1560   2.525   2.942   2.249 -2.3533  1.2726  3.5452
  521SOL     OW 1561   0.248   1.711   2.171  0.5385  0.4592 -0.3099
  521SOL    HW1 1562   0.298   1.800   2.174  0.0790  0.0151 -0.2051
  521SOL    HW2 1563   0.295   1.642   2.108  0.2513 -2.1320  0.2051
  522SOL     OW 1564   0.610   2.515   1.751 -0.4419  0.1821 -0.2432
  522SOL    HW1 1565   0.531   2.519   1.681  0.7929  0.7657 -2.2096
  522SOL    HW2 1566   0.676   2.444   1.725 -1.0232 -0.3279 -0.5722
  523SOL     OW 1567   2.979   2.300   1.375  0.5281  0.2393 -0.1805
  523SOL    HW1 1568   2.951   2.254   1.458  0.3638  3.2340 -1.1660
  523SOL    HW2 1569   2.902   2.297   1.314  3.0278  0.1379 -0.5032
  524SOL     OW 1570   1.485   2.489   0.761  0.5602  0.0847 -0.8623
  524SOL    HW1 1571   1.469   2.407   0.700 -0.6311 -0.9143 -0.8323
  524SOL    HW2 1572   1.444   2.470   0.855 -3.3377 -2.3273  2.3086
  525SOL     OW 1573   2.572   1.028   1.210  0.4038 -0.1421 -0.7661
  525SOL    HW1 1574   2.609   1.082   1.294  0.9365  3.3116  1.1638
  525SOL    HW2 1575   2.503   1.084   1.154 -0.2105  3.3107  0.4671
  526SOL     OW 1576   0.999   2.262   0.902 -0.0566  0.0101  0.1148
  526SOL    HW1 1577   0.933   2.214   0.839 -0.2450  1.0138  0.1753
  526SOL    HW2 1578   1.092   2.225   0.894 -0.8961  1.7283  0.4049
  527SOL     OW 1579   2.099   2.380   0.632 -0.1516 -0.0887  0.3324
  527SOL    HW1 1580   2.043   2.426   0.559 -1.1627  2.0904  1.4175
  527SOL    HW2 1581   2.175   2.445   0.655 -1.3355  0.8791 -0.4283
  528SOL     OW 1582   2.170   0.331   0.110 -0.2332  0.4009 -0.3201
  528SOL    HW1 1583   2.120   0.368   0.188  0.9320  0.2708 -1.3657
  528SOL    HW2 1584   2.192   0.232   0.123 -1.3870 -1.0835 -0.0123
  529SOL     OW 1585   1.175   1.505   2.275 -1.0811  0.2160  0.2362
  529SOL    HW1 1586   1.273   1.538   2.272 -2.8681 -1.2540  0.3914
  529SOL    HW2 1587   1.145   1.489   2.370 -0.0329 -0.4598 -0.5995
  530SOL     OW 1588   2.332   1.013   2.306 -0.0545  0.5529  0.4663
  530SOL    HW1 1589   2.425   1.055   2.277  3.5916  2.4959 -2.9668
  530SOL    HW2 1590   2.261   1.085   2.299  0.0546  0.0553  2.8881
  531SOL     OW 1591   0.832   0.906   0.203  0.2215 -0.5877 -0.4382
  531SOL    HW1 1592   0.801   1.000   0.179  0.7825 -0.4573 -2.0229
  531SOL    HW2 1593   0.750   0.840   0.214 -1.7727  1.2455  2.2211
  532SOL     OW 1594   1.703   1.297   0.571  0.2185  0.2421  0.0010
  532SOL    HW1 1595   1.743   1.205   0.563 -1.9769  2.4272 -0.6453
  532SOL    HW2 1596   1.647   1.302   0.655  2.9453  1.6776 -0.3299
  533SOL     OW 1597   0.413   0.706   2.268  0.2980  0.3668  0.0872
  533SOL    HW1 1598   0.473   0.769   2.217  2.2014  0.3004  0.2510
  533SOL    HW2 1599   0.458   0.707   2.360  2.4751 -1.5017 -1.4455
  534SOL     OW 1600   1.431   0.313   2.664 -0.3474 -0.0734  0.1053
  534SOL    HW1 1601   1.396   0.330   2.760 -2.4918 -0.5347 -0.7841
  534SOL    HW2 1602   1.380   0.239   2.613  1.5029 -2.1650 -0.8978
  535SOL     OW 1603   0.662   0.183   0.374  0.3205 -0.3952 -0.5832
  535SOL    HW1 1604   0.643   0.088   0.401 -2.9485  3.1065 -1.1757
  535SOL    HW2 1605   0.640   0.249   0.450 -2.2293  1.9762 -0.9179
  536SOL     OW 1606   0.755   0.491   0.074  0.0239  0.9781  0.3866
  536SOL    HW1 1607   0.811   0.524   0.154  2.4942  0.1311  0.4083
  536SOL    HW2 1608   0.776   0.393   0.056 -1.9564  1.8311 -0.7254
  537SOL     OW 1609   1.485   2.902   1.762  0.6327  0.1637 -0.0591
  537SOL    HW1 1610   1.463   2.799   1.772 -2.0219 -2.2154 -0.5649
  537SOL    HW2 1611   1.579   2.911   1.719  2.7968  1.0529 -1.3285
  538SOL     OW 1612   0.352   2.814   0.158  0.1316 -0.1188  0.3180
  538SOL    HW1 1613   0.272   2.875   0.158  1.6986 -0.4712  2.4477
  538SOL    HW2 1614   0.428   2.874   0.130 -3.9777 -0.9938  0.5229
  539SOL     OW 1615   2.774   1.033   1.887 -0.0340  0.1281 -0.0091
  539SOL    HW1 1616   2.739   0.978   1.973 -0.5573 -1.6824  2.1991
  539SOL    HW2 1617   2.726   1.123   1.889  0.3275 -0.9687 -2.1044
  540SOL     OW 1618   2.169   2.101   1.891 -0.1838  0.2378  0.0805
  540SOL    HW1 1619   2.233   2.132   1.961 -0.2282 -0.1218 -1.7108
  540SOL    HW2 1620   2.208   2.013   1.849 -0.5195 -1.5491 -1.0384
  541SOL     OW 1621   0.450   2.735   1.440  0.1201 -0.2386  0.3665
  541SOL    HW1 1622   0.352   2.743   1.424  1.1015  0.2363  1.1951
  541SOL    HW2 1623   0.494   2.818   1.476 -2.4261 -3.5371 -0.5917
  542SOL     OW 1624   2.744   0.430   1.987  0.0548  0.8293 -0.4560
  542SOL    HW1 1625   2.725   0.469   1.895  3.2714 -0.2706  1.9728
  542SOL    HW2 1626   2.844   0.395   1.989  1.3126 -1.2686 -0.5476
  543SOL     OW 1627   1.175   0.634   0.892  0.4243  0.1056 -0.1274
  543SOL    HW1 1628   1.242   0.632   0.811  2.1123 -0.0103  1.5573
  543SOL    HW2 1629   1.106   0.709   0.882  0.0991 -0.9095  0.6271
  544SOL     OW 1630   2.387   2.124   1.094 -0.4545 -0.3825 -0.2641
  544SOL    HW1 1631   2.428   2.035   1.063  1.2631 -1.3295  2.6892
  544SOL    HW2 1632   2.412   2.195   1.025  0.2012 -1.2547 -0.7069
  545SOL     OW 1633   1.487   1.506   1.207 -0.2731  0.0282  0.0879
  545SOL    HW1 1634   1.579   1.500   1.162 -1.2350  0.5584  3.2027
  545SOL    HW2 1635   1.489   1.580   1.276 -1.2519 -0.9077  0.4828
  546SOL     OW 1636   2.971   0.217   2.685 -0.2587 -0.2140 -0.2199
  546SOL    HW1 1637   2.923   0.245   2.603  1.0043  0.8669  1.2160
  546SOL    HW2 1638   2.920   0.253   2.768 -0.8665  1.1376  0.8149
  547SOL     OW 1639   2.252   0.242   2.550 -0.5946 -0.1113  0.4369
  547SOL    HW1 1640   2.166   0.230   2.609 -2.4797  1.6512 -1.0488
  547SOL    HW2 1641   2.277   0.341   2.558  1.0702 -0.1098  0.0187
  548SOL     OW 1642   2.575   1.951   2.744 -0.4561  0.0820  0.3333
  548SOL    HW1 1643   2.526   1.891   2.812 -1.1404 -2.1564  2.1130
  548SOL    HW2 1644   2.675   1.926   2.743  2.5071  2.6239  2.6408
  549SOL     OW 1645   2.335   0.627   0.670  0.5193 -0.1160  0.7298
  549SOL    HW1 1646   2.378   0.715   0.704  1.6914 -2.6526 -0.2911
  549SOL    HW2 1647   2.342   0.605   0.569  2.3508 -0.0187 -0.2037
  550SOL     OW 1648   2.484   1.086   3.039  0.1594 -0.1601  0.5696
  550SOL    HW1 1649   2.472   1.058   2.939  1.7444  1.1073  0.9376
  550SOL    HW2 1650   2.430   1.169   3.062  0.0310 -1.2696 -0.2541
  551SOL     OW 1651   1.358   2.618   1.380  0.4135  0.2539  0.4281
  551SOL    HW1 1652   1.283   2.675   1.342 -0.3351 -1.5438 -0.0826
  551SOL    HW2 1653   1.344   2.519   1.352  0.3686 -4.0134 -3.7924
  552SOL     OW 1654   2.756   2.342   2.879 -0.1120 -0.5126  0.4544
  552SOL    HW1 1655   2.743   2.402   2.800 -3.5194 -0.6688  3.5561
  552SOL    HW2 1656   2.672   2.339   2.938  0.1024 -0.1591 -2.1787
  553SOL     OW 1657   0.459   0.083   0.609  0.3422  0.3153 -0.1195
  553SOL    HW1 1658   0.409   0.163   0.655 -0.7147 -1.5364  2.3986
  553SOL    HW2 1659   0.509   0.027   0.678  2.3981 -1.9912 -0.4965
  554SOL     OW 1660   1.662   1.808   1.801  0.3693  0.1388 -0.1549
  554SOL    HW1 1661   1.623   1.748   1.873  0.1221  2.0764  0.1052
  554SOL    HW2 1662   1.742   1.768   1.750  1.6976  1.7834 -0.3931
  555SOL     OW 1663   1.475   2.427   1.984  0.0514 -0.3245 -0.6039
  555SOL    HW1 1664   1.522   2.413   2.074 -2.4882  0.8308 -2.6839
  555SOL    HW2 1665   1.376   2.458   1.998  1.1261  2.1810 -3.2330
  556SOL     OW 1666   1.834   1.062   0.533  0.0766  0.2930  0.1563
  556SOL    HW1 1667   1.827   0.965   0.504 -1.2480 -1.2898 -0.9525
  556SOL    HW2 1668   1.862   1.121   0.455 -0.9933  2.1521  1.1989
  557SOL     OW 1669   1.549   2.232   1.841  0.3194  0.6019 -0.1152
  557SOL    HW1 1670   1.472   2.218   1.774  0.1346 -1.1747  0.9338
  557SOL    HW2 1671   1.536   2.324   1.885 -1.9850  0.9560 -0.2485
  558SOL     OW 1672   3.018   1.084   2.330  0.7648  0.2864  0.0414
  558SOL    HW1 1673   2.942   1.074   2.395 -1.5781 -0.8020 -1.2931
  558SOL    HW2 1674   3.075   1.003   2.305 -0.4343  1.5518 -0.1333
  559SOL     OW 1675   2.351   2.734   2.019 -0.3321 -0.0722 -0.0310
  559SOL    HW1 1676   2.263   2.715   2.068 -0.1249  1.7687  0.9577
  559SOL    HW2 1677   2.421   2.781   2.080 -2.1876 -1.1593  1.9132
  560SOL     OW 1678   0.049   2.895   2.537  0.1016 -0.0735 -0.0363
  560SOL    HW1 1679   3.060   2.972   2.545 -0.6161 -0.5749 -1.0040
  560SOL    HW2 1680   0.065   2.876   2.438  2.9998 -2.1420 -2.2318
  561SOL     OW 1681   1.719   0.737   0.434  0.1261 -0.1021  0.0110
  561SOL    HW1 1682   1.701   0.640   0.407 -1.1794  1.6005  1.9964
  561SOL    HW2 1683   1.808   0.745   0.481  0.9599  0.6894 -0.7929
  562SOL     OW 1684   0.804   1.098   2.096  0.0077  0.2543 -0.3987
  562SOL    HW1 1685   0.879   1.037   2.124  1.2662  1.1866 -0.7719
  562SOL    HW2 1686   0.821   1.197   2.106 -1.5641  1.4304  1.3314
  563SOL     OW 1687   1.418   2.166   0.100 -0.3803  0.0769  0.7881
  563SOL    HW1 1688   1.427   2.078   0.150 -0.6749  0.5685  2.8442
  563SOL    HW2 1689   1.402   2.149   3.077  0.2598 -1.1540  0.7656
  564SOL     OW 1690   0.347   2.092   0.921  0.0993 -0.5525  0.2192
  564SOL    HW1 1691   0.268   2.142   0.881 -2.7576  0.6638 -2.9995
  564SOL    HW2 1692   0.353   1.997   0.886  0.7882 -0.2616  1.6350
  565SOL     OW 1693   0.550   2.970   0.053  0.0488  0.3541 -0.6991
  565SOL    HW1 1694   0.548   2.891   3.074 -2.1428 -1.1577  3.0983
  565SOL    HW2 1695   0.534   3.053   3.074  1.3524 -1.4370 -0.1857
  566SOL     OW 1696   1.721   2.518   2.938 -0.3213  0.3084  0.1020
  566SOL    HW1 1697   1.738   2.449   2.868 -1.0612  1.3859 -0.8371
  566SOL    HW2 1698   1.723   2.612   2.895 -0.6492  1.5198  1.1575
  567SOL     OW 1699   2.416   1.742   0.784  0.6953 -0.2067  0.1514
  567SOL    HW1 1700   2.513   1.752   0.760  2.2177 -1.8161  0.4918
  567SOL    HW2 1701   2.416   1.666   0.848 -0.1426  0.2209 -0.7200
  568SOL     OW 1702   1.521   1.067   2.543 -0.2107 -0.3419 -0.1359
  568SOL    HW1 1703   1.458   0.990   2.522 -0.0869 -1.0475 -0.5454
  568SOL    HW2 1704   1.521   1.090   2.642  3.2217  2.1553 -0.1471
  569SOL     OW 1705   2.290   1.628   1.684 -0.4790 -0.0987 -0.3948
  569SOL    HW1 1706   2.378   1.604   1.639 -0.2911  0.5459  0.5362
  569SOL    HW2 1707   2.298   1.622   1.787 -2.1702 -0.9924  0.2091
  570SOL     OW 1708   2.898   2.661   1.949  0.2150 -0.2236  0.3480
  570SOL    HW1 1709   2.990   2.679   1.990  0.2753  0.1243  1.8440
  570SOL    HW2 1710   2.903   2.656   1.848 -1.5292  4.1016 -1.4632
  571SOL     OW 1711   0.069   0.595   1.411  0.9339 -0.0501 -0.0583
  571SOL    HW1 1712   0.107   0.592   1.313  0.5688 -0.1435  1.6304
  571SOL    HW2 1713   3.051   0.637   1.407 -2.5070 -0.9633 -0.1929
  572SOL     OW 1714   0.792   1.687   0.635  0.0169 -0.5459 -0.6009
  572SOL    HW1 1715   0.791   1.706   0.737  2.5117 -0.6541 -1.1035
  572SOL    HW2 1716   0.881   1.713   0.594 -0.4253 -1.2975  1.0262
  573SOL     OW 1717   1.068   0.822   0.272  0.1806 -0.2225 -0.1816
  573SOL    HW1 1718   0.973   0.854   0.248 -2.2210  1.2909  1.7180
  573SOL    HW2 1719   1.108   0.893   0.333  0.3608 -0.2047  0.6797
  574SOL     OW 1720   0.256   0.279   0.368 -0.3659  0.6829 -0.1780
  574SOL    HW1 1721   0.310   0.318   0.291 -0.5232  0.8260 -0.6751
  574SOL    HW2 1722   0.155   0.276   0.351  1.7582  0.3426 -2.8712
  575SOL     OW 1723   1.066   1.821   1.214 -0.1497 -0.4797  0.0393
  575SOL    HW1 1724   1.122   1.855   1.132  1.8814 -0.6434 -0.6024
  575SOL    HW2 1725   1.120   1.760   1.273  1.0372 -0.8119 -1.7938
  576SOL     OW 1726   2.995   0.082   1.905  0.0029  0.2626  0.4287
  576SOL    HW1 1727   2.943   3.075   1.926 -1.3825 -2.2645  0.9242
  576SOL    HW2 1728   3.022   0.139   1.986  0.6751 -0.2046 -3.5377
  577SOL     OW 1729   2.805   1.629   1.991 -0.4358  0.4193 -0.3977
  577SOL    HW1 1730   2.814   1.722   2.028  1.4875 -1.0455 -0.2263
  577SOL    HW2 1731   2.834   1.562   2.065 -1.1529 -3.5067 -1.0873
  578SOL     OW 1732   1.033   3.078   2.329  0.3860  0.1542 -0.8930
  578SOL    HW1 1733   1.083   0.021   2.247 -2.0534  0.2251  3.7525
  578SOL    HW2 1734   1.082   3.012   2.392  2.8629 -0.1320 -0.5368
  579SOL     OW 1735   1.966   1.877   2.148 -0.5322 -0.2032 -0.0230
  579SOL    HW1 1736   1.957   1.942   2.070  0.7825 -1.5609 -0.8693
  579SOL    HW2 1737   1.924   1.786   2.131  1.1156  0.3840 -0.0567
  580SOL     OW 1738   1.856   0.962   2.113 -0.1172 -0.7516  0.4113
  580SOL    HW1 1739   1.856   0.867   2.081 -0.1072 -0.3837  1.0748
  580SOL    HW2 1740   1.833   0.971   2.212 -0.4354 -0.2428  0.9850
  581SOL     OW 1741   1.215   1.276   2.501 -0.2115  0.3100  0.1197
  581SOL    HW1 1742   1.304   1.283   2.452 -0.6891 -0.5132  3.0538
  581SOL    HW2 1743   1.175   1.360   2.542  0.5807 -1.4612 -2.5064
  582SOL     OW 1744   0.086   1.963   1.910 -0.0019 -0.0233 -0.4491
  582SOL    HW1 1745   0.046   1.906   1.985 -0.6765 -0.6126  2.5045
  582SOL    HW2 1746   0.098   2.061   1.944 -1.5498  1.8772 -0.3838
  583SOL     OW 1747   1.870   1.333   0.836 -0.0144 -0.5946  0.0106
  583SOL    HW1 1748   1.937   1.270   0.793 -1.1007 -1.0467  0.7876
  583SOL    HW2 1749   1.913   1.428   0.858  1.9138  5.6617  0.7020
  584SOL     OW 1750   0.796   2.436   0.261 -0.2385  0.1918 -0.1197
  584SOL    HW1 1751   0.856   2.499   0.205  2.0453  1.6363 -1.3466
  584SOL    HW2 1752   0.800   2.337   0.229  1.5513 -0.0147  1.6238
  585SOL     OW 1753   0.183   2.488   0.442  0.1535 -0.5573 -0.4482
  585SOL    HW1 1754   0.122   2.429   0.387  1.3400  2.8420 -0.3865
  585SOL    HW2 1755   0.250   2.535   0.382 -1.8874 -0.4404  0.3395
  586SOL     OW 1756   2.125   1.288   0.438  0.0346 -0.3395  0.5470
  586SOL    HW1 1757   2.062   1.248   0.371 -0.6564  0.4741  2.4618
  586SOL    HW2 1758   2.093   1.383   0.458 -2.6943 -0.7999  0.3415
  587SOL     OW 1759   2.898   1.961   0.284 -0.0528 -0.7609 -0.4409
  587SOL    HW1 1760   2.966   2.031   0.316 -1.0924 -0.7352 -2.0860
  587SOL    HW2 1761   2.872   1.897   0.362  2.0090  0.4717  5.5589
  588SOL     OW 1762   2.995   0.737   0.865 -0.2873 -0.1982 -0.1324
  588SOL    HW1 1763   3.075   0.773   0.924  2.9290  0.7794  0.4234
  588SOL    HW2 1764   2.906   0.740   0.911 -2.0644 -0.6738 -2.0319
  589SOL     OW 1765   1.192   0.391   0.637 -0.7956 -0.1725 -0.0429
  589SOL    HW1 1766   1.238   0.458   0.703  1.9740  0.8623  0.3969
  589SOL    HW2 1767   1.176   0.295   0.674 -1.2526 -2.9437  0.4782
  590SOL     OW 1768   2.467   2.445   0.177  0.8683  0.3864  0.1810
  590SOL    HW1 1769   2.495   2.388   0.255 -0.3752  0.6731 -1.2568
  590SOL    HW2 1770   2.484   2.545   0.186 -0.9512 -1.3118 -1.9047
  591SOL     OW 1771   0.350   2.538   1.943  0.1007 -0.1002  0.3404
  591SOL    HW1 1772   0.450   2.524   1.931  0.1659  0.2275 -1.9696
  591SOL    HW2 1773   0.289   2.487   1.881 -4.9888 -0.4311  1.2859
  592SOL     OW 1774   0.510   1.336   1.921  0.0290 -0.0391 -0.2380
  592SOL    HW1 1775   0.529   1.328   2.023  0.2293 -0.7752  0.7795
  592SOL    HW2 1776   0.555   1.263   1.870 -2.5083  0.9286  2.1434
  593SOL     OW 1777   1.540   1.672   1.441  0.4420  0.1742  0.4525
  593SOL    HW1 1778   1.588   1.595   1.484  0.0871  4.3773 -1.7264
  593SOL    HW2 1779   1.557   1.753   1.501  1.2374  3.5295  2.9966
  594SOL     OW 1780   0.368   0.941   2.883 -0.0843 -0.1773 -0.0822
  594SOL    HW1 1781   0.340   1.038   2.894 -0.1698  1.5556 -0.7184
  594SOL    HW2 1782   0.351   0.906   2.788 -3.4106 -0.4355  0.4136
  595SOL     OW 1783   1.775   0.253   0.942 -0.4913  0.2064  0.4767
  595SOL    HW1 1784   1.706   0.272   0.872  0.8377 -2.0909 -2.2745
  595SOL    HW2 1785   1.747   0.276   1.040 -0.6822 -0.7934  2.3769
  596SOL     OW 1786   0.486   1.141   1.041 -0.2650 -0.2187 -0.7262
  596SOL    HW1 1787   0.569   1.199   1.056 -0.0599 -2.3030  0.8308
  596SOL    HW2 1788   0.406   1.198   1.009  4.3329  2.4920  0.5186
  597SOL     OW 1789   2.949   2.569   2.666 -0.0134  0.1543 -0.0318
  597SOL    HW1 1790   2.955   2.629   2.745 -0.4184 -2.2939 -0.8269
  597SOL    HW2 1791   2.854   2.558   2.634  2.1718 -1.2718  1.3163
  598SOL     OW 1792   2.204   2.056   2.668 -0.1891  0.1261 -0.2613
  598SOL    HW1 1793   2.110   2.062   2.705  0.6867 -0.8846 -0.5814
  598SOL    HW2 1794   2.268   2.093   2.739 -1.6094 -1.0667  1.8180
  599SOL     OW 1795   1.488   0.498   0.254 -0.6739 -0.3370 -0.2561
  599SOL    HW1 1796   1.402   0.519   0.298  2.8576  3.4459 -1.0843
  599SOL    HW2 1797   1.558   0.468   0.324  0.6427  0.5246  1.5843
  600SOL     OW 1798   0.742   0.186   0.126 -0.3467  0.1326  0.4088
  600SOL    HW1 1799   0.713   0.189   0.222  0.7949 -0.3273 -0.0654
  600SOL    HW2 1800   0.811   0.113   0.107 -1.3348 -1.2611 -0.1600
  601SOL     OW 1801   0.581   0.099   1.443  0.0284  0.0348  0.2611
  601SOL    HW1 1802   0.566   0.069   1.349 -0.7455  1.1618  2.6068
  601SOL    HW2 1803   0.643   0.177   1.453  0.6852 -0.1912 -0.2347
  602SOL     OW 1804   0.204   2.854   0.851 -0.8871 -0.5032  0.5787
  602SOL    HW1 1805   0.178   2.835   0.751 -0.0934 -2.6504 -2.8859
  602SOL    HW2 1806   0.129   2.836   0.918 -1.5362  0.7090 -1.6216
  603SOL     OW 1807   0.673   2.834   2.487 -0.7562 -0.1329  0.4450
  603SOL    HW1 1808   0.718   2.884   2.408  0.0284 -1.2593  1.2602
  603SOL    HW2 1809   0.599   2.772   2.459  3.5749  0.7216  1.5391
  604SOL     OW 1810   1.008   2.568   0.150 -0.5052 -0.1659  0.4152
  604SOL    HW1 1811   1.072   2.550   0.223 -3.0279  0.2588 -3.5952
  604SOL    HW2 1812   1.039   2.557   0.052  3.8221 -2.4878 -1.7659
  605SOL     OW 1813   1.651   0.819   1.838 -0.2327 -0.0648  0.0819
  605SOL    HW1 1814   1.571   0.843   1.777 -1.5676 -2.5666  1.0413
  605SOL    HW2 1815   1.711   0.903   1.850 -1.4219 -0.2267 -2.1106
  606SOL     OW 1816   1.153   0.873   2.863 -0.7054 -0.1262 -0.3086
  606SOL    HW1 1817   1.159   0.839   2.769  0.3127 -0.9960  3.9228
  606SOL    HW2 1818   1.061   0.907   2.885 -1.0553 -0.0144 -0.6032
  607SOL     OW 1819   0.363   1.269   1.310  0.3167  0.0315 -0.1522
  607SOL    HW1 1820   0.350   1.195   1.242  3.1892  1.6654  0.6943
  607SOL    HW2 1821   0.301   1.349   1.289 -0.1966 -0.8635 -1.2831
  608SOL     OW 1822   2.583   2.174   2.566 -0.4653  0.2127  0.2232
  608SOL    HW1 1823   2.655   2.165   2.496 -0.5492  2.2374  0.7380
  608SOL    HW2 1824   2.577   2.095   2.630 -0.2705 -1.8294  2.2314
  609SOL     OW 1825   2.211   0.082   0.181 -0.9191 -0.7768 -0.4000
  609SOL    HW1 1826   2.116   0.080   0.222 -1.7145  0.4408  0.3596
  609SOL    HW2 1827   2.287   0.029   0.234  0.4689  1.8636  1.6794
  610SOL     OW 1828   0.790   2.579   1.419 -0.3099 -0.0990 -0.8131
  610SOL    HW1 1829   0.815   2.605   1.324 -0.9819  1.2464  0.8806
  610SOL    HW2 1830   0.820   2.647   1.493  1.3635  0.2523  2.6286
  611SOL     OW 1831   0.935   1.370   0.715  0.5031 -0.0465 -0.1226
  611SOL    HW1 1832   0.852   1.373   0.652 -1.8784  2.4540 -0.9516
  611SOL    HW2 1833   0.970   1.275   0.730 -0.9230 -0.6977 -0.6264
  612SOL     OW 1834   0.563   0.134   2.415  0.9057  0.4712 -0.2274
  612SOL    HW1 1835   0.586   0.210   2.481  1.4368  0.2040  1.0479
  612SOL    HW2 1836   0.601   0.157   2.325 -2.1342  2.1529 -1.6582
  613SOL     OW 1837   2.746   1.761   0.435 -0.3669  0.4749 -0.2540
  613SOL    HW1 1838   2.787   1.676   0.482  2.2738 -1.9087  2.5941
  613SOL    HW2 1839   2.683   1.734   0.359 -0.6881  1.0736  0.2705
  614SOL     OW 1840   1.712   0.306   1.765  0.8852  0.4984  0.9271
  614SOL    HW1 1841   1.696   0.405   1.759 -0.4610 -2.9341  1.6051
  614SOL    HW2 1842   1.633   0.254   1.717 -0.1063 -3.3362 -2.1888
  615SOL     OW 1843   1.013   1.549   1.133 -0.2468  0.0004  0.1082
  615SOL    HW1 1844   1.026   1.489   1.212  0.5416 -0.7829  0.8027
  615SOL    HW2 1845   1.045   1.641   1.154 -0.1520 -1.5804  0.2612
  616SOL     OW 1846   1.449   1.532   2.932  0.3924  0.6379 -0.4260
  616SOL    HW1 1847   1.514   1.461   2.973  0.6848 -1.7872  3.0331
  616SOL    HW2 1848   1.494   1.606   2.887 -0.6230  0.7796 -1.5643
  617SOL     OW 1849   1.692   2.703   0.382  0.3878 -0.1059  0.6256
  617SOL    HW1 1850   1.659   2.658   0.296 -0.8413 -2.1178  0.5067
  617SOL    HW2 1851   1.622   2.702   0.450  1.5235 -0.7673  0.7907
  618SOL     OW 1852   0.896   0.920   2.580 -0.1445 -0.1099 -0.4758
  618SOL    HW1 1853   0.898   0.991   2.654 -1.3318 -0.7975  0.0132
  618SOL    HW2 1854   0.926   0.962   2.495 -1.1435 -2.1297 -0.1639
  619SOL     OW 1855   2.577   1.430   0.413  0.0144 -0.0641 -0.0016
  619SOL    HW1 1856   2.498   1.420   0.476 -0.3883  0.9014 -0.0973
  619SOL    HW2 1857   2.663   1.415   0.463  0.7806 -0.3301  0.6157
  620SOL     OW 1858   2.323   2.786   0.035 -0.1594  0.8606  0.0381
  620SOL    HW1 1859   2.404   2.766   0.099 -1.2739 -2.4452 -2.3269
  620SOL    HW2 1860   2.232   2.786   0.087 -2.0002 -0.6921  2.9806
  621SOL     OW 1861   2.274   1.258   0.042  0.0872 -0.5941 -0.0703
  621SOL    HW1 1862   2.274   1.196   0.126  0.6638  0.1748 -0.3131
  621SOL    HW2 1863   2.183   1.278   0.008 -0.6915 -0.0316 -1.6683
  622SOL     OW 1864   1.261   2.474   2.442  0.1609  0.3808  0.3520
  622SOL    HW1 1865   1.279   2.400   2.372  1.5015 -0.5669  0.2540
  622SOL    HW2 1866   1.325   2.465   2.520 -0.1005  0.1517 -2.1005
  623SOL     OW 1867   0.625   1.611   0.141  0.5731 -0.1693  0.0679
  623SOL    HW1 1868   0.623   1.708   0.106 -0.6644  2.7068  1.0712
  623SOL    HW2 1869   0.533   1.571   0.126 -1.2514 -2.5297  2.0963
  624SOL     OW 1870   0.707   3.073   2.815 -0.1056  0.6329 -0.0464
  624SOL    HW1 1871   0.676   0.040   2.900  1.6106  1.6932 -1.5494
  624SOL    HW2 1872   0.666   2.981   2.794 -1.7581  0.5435 -1.4759
  625SOL     OW 1873   1.044   1.792   0.540 -0.3310 -0.0396  0.4408
  625SOL    HW1 1874   0.969   1.861   0.553 -0.0584  1.0989 -0.8913
  625SOL    HW2 1875   1.130   1.819   0.582 -3.8954  0.7295 -1.4666
  626SOL     OW 1876   2.442   0.088   2.862  0.9833  0.0750  0.5255
  626SOL    HW1 1877   2.369   0.058   2.930  0.0317  1.4676 -0.3855
  626SOL    HW2 1878   2.489   0.174   2.890 -0.2694  0.3126  2.0288
  627SOL     OW 1879   1.480   1.304   2.408 -0.5956  0.2446  0.1527
  627SOL    HW1 1880   1.528   1.217   2.435  0.5784  0.0046  0.2542
  627SOL    HW2 1881   1.501   1.381   2.477  0.6427 -1.7081  0.8686
  628SOL     OW 1882   0.828   0.464   2.243  0.5404 -0.5291 -0.5110
  628SOL    HW1 1883   0.901   0.531   2.242  0.0434  1.3038 -1.3191
  628SOL    HW2 1884   0.754   0.497   2.185  1.5067  0.7486 -1.1374
  629SOL     OW 1885   0.325   0.002   1.837  0.0299 -0.1457  0.2939
  629SOL    HW1 1886   0.345   2.984   1.859 -1.0901  2.5061 -0.7054
  629SOL    HW2 1887   0.404   0.055   1.870  0.2037 -0.5247  0.6039
  630SOL     OW 1888   2.147   0.650   1.677 -0.0138  0.0979  0.0809
  630SOL    HW1 1889   2.093   0.687   1.601  0.2650  0.8103  1.4504
  630SOL    HW2 1890   2.123   0.710   1.755  3.3929  0.5918 -0.9360
  631SOL     OW 1891   2.302   1.120   0.275  0.0932  0.2937 -0.0290
  631SOL    HW1 1892   2.391   1.080   0.311 -0.2798 -2.5428  0.8353
  631SOL    HW2 1893   2.262   1.172   0.356 -1.5776 -1.0884  4.1044
  632SOL     OW 1894   1.961   0.426   2.096  0.1155 -0.0175 -0.0218
  632SOL    HW1 1895   1.945   0.333   2.056  0.2356  1.3505 -0.5290
  632SOL    HW2 1896   1.970   0.425   2.194  1.0539  0.6332 -3.2516
  633SOL     OW 1897   0.684   2.838   0.551  0.2259 -0.0078  0.0136
  633SOL    HW1 1898   0.602   2.775   0.547  1.6187  2.5571 -1.1228
  633SOL    HW2 1899   0.676   2.909   0.475 -0.4677  0.7959 -0.9779
  634SOL     OW 1900   1.385   2.886   2.717  0.1501  0.2945  0.2633
  634SOL    HW1 1901   1.465   2.955   2.718  4.7850 -0.5938  0.8309
  634SOL    HW2 1902   1.342   2.870   2.808  1.2532  0.5326  1.9174
  635SOL     OW 1903   2.399   0.462   3.067  0.2366  0.4529  0.1963
  635SOL    HW1 1904   2.376   0.488   2.970  0.4270 -2.1639  0.1023
  635SOL    HW2 1905   2.317   0.412   0.029 -0.6879 -3.3564  1.2395
  636SOL     OW 1906   0.842   1.487   0.941  0.6035 -0.2511 -0.4763
  636SOL    HW1 1907   0.916   1.490   1.008 -1.9759 -0.4772 -2.3266
  636SOL    HW2 1908   0.876   1.442   0.850 -1.0793 -2.7815 -1.7944
  637SOL     OW 1909   0.151   2.843   0.514 -0.0040  0.1277  0.3867
  637SOL    HW1 1910   0.154   2.760   0.570 -0.9824  0.1153  1.3431
  637SOL    HW2 1911   0.094   2.823   0.431  1.6295 -1.6316 -0.1500
  638SOL     OW 1912   0.332   3.010   0.411 -0.0220 -0.0686 -0.8894
  638SOL    HW1 1913   0.370   0.001   0.476  2.0740  2.1654 -2.0128
  638SOL    HW2 1914   0.282   2.933   0.455  0.1576 -0.0038 -1.8054
  639SOL     OW 1915   0.999   1.247   0.447  0.1066 -0.4079 -0.1959
  639SOL    HW1 1916   0.980   1.241   0.349  0.9639 -1.0164  0.4618
  639SOL    HW2 1917   1.049   1.340   0.463 -0.7616  1.4094  0.2821
  640SOL     OW 1918   1.240   2.688   0.956 -0.0798 -0.0617  0.2834
  640SOL    HW1 1919   1.324   2.671   1.012 -0.9413  2.1997  0.6427
  640SOL    HW2 1920   1.258   2.665   0.859 -1.3778 -2.9859  1.3634
  641SOL     OW 1921   0.091   2.596   0.666  0.1575  0.0113 -0.1180
  641SOL    HW1 1922   0.072   2.525   0.739 -0.3294 -0.7229 -1.2964
  641SOL    HW2 1923   0.135   2.542   0.588 -1.4819 -0.6672 -1.0021
  642SOL     OW 1924   1.026   3.067   1.673 -0.6041 -0.1076 -0.5540
  642SOL    HW1 1925   1.127   0.011   1.680 -2.0685 -1.1339  2.0103
  642SOL    HW2 1926   1.009   3.014   1.588 -0.4949  0.1429 -0.1563
  643SOL     OW 1927   0.845   2.016   2.270  0.6161 -0.3474 -0.1545
  643SOL    HW1 1928   0.808   2.105   2.241  0.2466 -1.2781 -0.1305
  643SOL    HW2 1929   0.769   1.962   2.298 -1.1243  0.0717 -0.3860
  644SOL     OW 1930   0.938   2.885   0.574 -0.5696  0.3407  0.2255
  644SOL    HW1 1931   0.842   2.855   0.565  2.3055 -0.9887 -1.7495
  644SOL    HW2 1932   0.941   2.984   0.573  3.2551 -0.5280  1.1811
  645SOL     OW 1933   1.146   1.524   2.542 -0.6088  0.6027 -0.1858
  645SOL    HW1 1934   1.063   1.576   2.564 -2.7974 -1.6362 -2.2648
  645SOL    HW2 1935   1.231   1.576   2.569 -0.3384  2.3515 -0.0330
  646SOL     OW 1936   0.625   1.168   0.359  0.4119 -0.3044 -0.1223
  646SOL    HW1 1937   0.526   1.166   0.397  0.8950 -1.6480 -0.5069
  646SOL    HW2 1938   0.658   1.263   0.351  0.0520  1.2158 -0.6943
  647SOL     OW 1939   1.114   0.256   1.074 -0.3453  0.3531  0.3407
  647SOL    HW1 1940   1.090   0.312   1.157  0.3397  0.7665 -0.8666
  647SOL    HW2 1941   1.066   0.167   1.074 -0.4663  2.8534 -0.2825
  648SOL     OW 1942   2.774   2.716   1.672 -0.0420  0.4549 -0.3957
  648SOL    HW1 1943   2.747   2.813   1.690  0.4537  1.5237  2.1087
  648SOL    HW2 1944   2.877   2.710   1.662 -0.6579  0.0484  0.0018
  649SOL     OW 1945   0.513   2.138   0.114 -0.0467  0.9123 -0.3491
  649SOL    HW1 1946   0.594   2.148   0.045  2.5275 -0.5402 -0.4730
  649SOL    HW2 1947   0.544   2.133   0.212  0.4125 -3.1630  0.1466
  650SOL     OW 1948   0.281   1.826   1.600 -0.7863 -0.0657 -0.1116
  650SOL    HW1 1949   0.251   1.770   1.681  0.7469 -1.4617  0.9347
  650SOL    HW2 1950   0.276   1.926   1.619  3.5306  0.7911  1.0302
  651SOL     OW 1951   0.021   3.000   2.984 -0.6169 -0.2862 -0.4626
  651SOL    HW1 1952   0.079   2.974   3.063 -2.1111 -2.6083  0.4836
  651SOL    HW2 1953   0.072   3.066   2.921  0.7975  3.5639 -2.2014
  652SOL     OW 1954   2.386   1.825   0.274  0.4061  0.2201 -0.8719
  652SOL    HW1 1955   2.399   1.913   0.321 -1.2648 -1.1495 -0.5797
  652SOL    HW2 1956   2.343   1.836   0.180  0.5442 -1.6833  0.8668
  653SOL     OW 1957   0.124   0.159   1.235 -0.6556 -0.2757  0.2272
  653SOL    HW1 1958   0.180   0.107   1.170 -0.2945  4.6550  0.7031
  653SOL    HW2 1959   0.185   0.224   1.287  0.5440  1.0947  1.3343
  654SOL     OW 1960   1.574   3.077   2.846  0.0741 -0.1367 -0.4719
  654SOL    HW1 1961   1.596   0.060   2.770  3.0344  0.7951  0.5196
  654SOL    HW2 1962   1.500   0.040   2.906 -2.6247  0.2191  2.1220
  655SOL     OW 1963   0.902   2.651   1.177 -0.4910 -0.0487  0.1223
  655SOL    HW1 1964   0.872   2.718   1.109  2.0435 -1.3430  1.4474
  655SOL    HW2 1965   0.962   2.582   1.136  1.6113 -1.0583  1.8005
  656SOL     OW 1966   0.374   2.815   1.924  0.4464 -0.4567  0.3187
  656SOL    HW1 1967   0.372   2.868   2.013  2.0666 -0.1271  0.5961
  656SOL    HW2 1968   0.374   2.713   1.936 -1.1304 -1.4032  0.1167
  657SOL     OW 1969   2.078   0.787   1.890  0.4745  0.0269 -0.5592
  657SOL    HW1 1970   2.135   0.807   1.973  1.0498 -0.9814  4.6033
  657SOL    HW2 1971   1.992   0.737   1.926 -0.8042 -2.0371  1.2915
  658SOL     OW 1972   2.454   1.874   1.012 -0.7152 -0.4473 -0.4179
  658SOL    HW1 1973   2.421   1.815   1.090 -1.1609 -1.1560  0.5014
  658SOL    HW2 1974   2.469   1.816   0.929 -1.0361  2.3123 -2.1135
  659SOL     OW 1975   2.540   2.706   0.173 -0.3080 -0.3349  0.1709
  659SOL    HW1 1976   2.610   2.693   0.098 -0.3013 -1.0302 -0.7560
  659SOL    HW2 1977   2.575   2.734   0.265 -0.3850 -0.7193  2.6750
  660SOL     OW 1978   0.873   1.096   2.785  0.1307 -0.3099  0.4212
  660SOL    HW1 1979   0.889   1.196   2.789  0.0188  0.4814  2.8236
  660SOL    HW2 1980   0.883   1.053   2.878 -0.9395  1.2534  2.1049
  661SOL     OW 1981   2.360   2.431   0.992 -0.0125  0.4875  0.6389
  661SOL    HW1 1982   2.280   2.496   1.000 -0.4623 -2.9282 -1.0413
  661SOL    HW2 1983   2.361   2.379   0.907  2.1585 -2.2357  1.9277
  662SOL     OW 1984   0.416   0.558   0.395  0.7154  0.0697 -0.5625
  662SOL    HW1 1985   0.468   0.487   0.340 -1.2450  1.8451 -1.3138
  662SOL    HW2 1986   0.318   0.541   0.406 -0.5700  1.2414 -1.9071
  663SOL     OW 1987   0.971   2.201   3.003 -0.3212 -0.5476  0.2858
  663SOL    HW1 1988   1.012   2.235   0.011  0.0275 -0.9461 -0.5401
  663SOL    HW2 1989   1.028   2.222   2.919 -0.6821 -2.2416  2.1428
  664SOL     OW 1990   0.897   2.813   1.576  0.0394 -0.5521  0.1620
  664SOL    HW1 1991   0.961   2.849   1.646  0.9578  0.5489  1.9805
  664SOL    HW2 1992   0.871   2.878   1.502  3.1713  0.3702  2.1887
  665SOL     OW 1993   1.885   1.648   1.709  0.1755 -0.2228 -0.5015
  665SOL    HW1 1994   1.832   1.575   1.664  0.3450 -0.0959 -2.5247
  665SOL    HW2 1995   1.910   1.624   1.804 -0.4481  0.8516 -0.3512
  666SOL     OW 1996   0.413   2.581   0.326 -0.3094 -0.4177 -0.7927
  666SOL    HW1 1997   0.472   2.527   0.262  1.4910 -1.5492  2.5155
  666SOL    HW2 1998   0.417   2.682   0.303  0.1349 -0.9425 -2.4293
  667SOL     OW 1999   1.910   1.479   1.391  0.5202 -0.1178 -0.4208
  667SOL    HW1 2000   1.828   1.458   1.451 -2.2168 -0.2269 -1.2797
  667SOL    HW2 2001   1.970   1.546   1.440  0.4466 -1.6884 -0.6318
  668SOL     OW 2002   0.191   0.074   2.079 -0.4137 -0.0020  0.3304
  668SOL    HW1 2003   0.223   0.043   1.988 -0.4872 -1.9903 -0.5131
  668SOL    HW2 2004   0.204   3.073   2.142 -0.5050  1.4951  2.4835
  669SOL     OW 2005   1.701   2.052   2.168 -0.0396  0.0729 -0.2847
  669SOL    HW1 2006   1.784   2.072   2.109 -0.5429  0.9070 -0.3198
  669SOL    HW2 2007   1.621   2.018   2.115  0.9478  0.8104 -0.1157
  670SOL     OW 2008   2.430   2.057   0.474  0.0514 -0.1631 -0.0982
  670SOL    HW1 2009   2.520   2.027   0.503 -4.1711  2.8351 -1.3743
  670SOL    HW2 2010   2.369   2.067   0.554  0.3162 -0.2603 -0.9335
  671SOL     OW 2011   0.663   1.248   1.333  0.2293 -0.0965  0.5405
  671SOL    HW1 2012   0.667   1.281   1.234 -1.1426  2.8488 -1.3161
  671SOL    HW2 2013   0.562   1.238   1.360 -1.7588 -0.0794  2.4282
  672SOL     OW 2014   2.638   1.356   2.231 -0.5886 -0.3016 -0.3526
  672SOL    HW1 2015   2.627   1.430   2.299  0.5084  3.3637 -0.5387
  672SOL    HW2 2016   2.731   1.359   2.188 -0.7009 -0.1116  0.1112
  673SOL     OW 2017   2.878   1.876   2.341 -0.2040  0.0980  0.4982
  673SOL    HW1 2018   2.785   1.873   2.303  2.9242 -1.5865 -0.4359
  673SOL    HW2 2019   2.917   1.971   2.324  0.9204 -1.9834  1.8028
  674SOL     OW 2020   0.925   2.631   2.211  0.2993 -0.4283  0.6150
  674SOL    HW1 2021   0.981   2.661   2.289 -1.0307  0.0118 -2.5154
  674SOL    HW2 2022   0.893   2.710   2.152 -0.1306  2.0411 -0.5782
  675SOL     OW 2023   0.803   0.830   1.445  0.1576  0.3453 -0.2635
  675SOL    HW1 2024   0.858   0.799   1.530  2.0157  0.5108  0.6017
  675SOL    HW2 2025   0.729   0.891   1.470  4.1005  0.4499 -1.9429
  676SOL     OW 2026   1.685   0.945   0.263 -0.2130 -0.2516 -0.0055
  676SOL    HW1 2027   1.614   0.999   0.311 -0.6083 -0.2590  0.1609
  676SOL    HW2 2028   1.716   0.869   0.324 -0.0286  0.4458 -3.3193
  677SOL     OW 2029   2.847   1.621   2.731 -0.3916  0.1078 -0.0142
  677SOL    HW1 2030   2.784   1.563   2.784  0.3945 -0.4805  1.7607
  677SOL    HW2 2031   2.946   1.608   2.768  2.3271 -0.2307  0.1943
  678SOL     OW 2032   2.795   2.934   1.379 -0.2026 -0.0966 -0.5192
  678SOL    HW1 2033   2.837   2.944   1.474  0.1654 -0.1011 -2.7265
  678SOL    HW2 2034   2.821   2.844   1.339 -1.0947 -1.1166  3.8165
  679SOL     OW 2035   2.088   0.081   0.626  0.1307  0.6519 -0.5905
  679SOL    HW1 2036   2.058   0.154   0.687 -0.6348 -0.3279  1.0030
  679SOL    HW2 2037   2.191   0.085   0.609  0.0226  1.8900 -0.1209
  680SOL     OW 2038   0.242   2.163   2.225 -0.3203  0.4230  0.1699
  680SOL    HW1 2039   0.294   2.078   2.199  2.2094 -1.2141  0.9646
  680SOL    HW2 2040   0.152   2.177   2.173 -1.5555  1.5244  0.9165
  681SOL     OW 2041   0.242   1.520   1.316 -0.1583  0.8782 -0.0739
  681SOL    HW1 2042   0.266   1.570   1.231 -1.9567 -0.8301 -1.8167
  681SOL    HW2 2043   0.311   1.542   1.390 -1.0469  1.9061  1.1320
  682SOL     OW 2044   0.203   2.143   1.620 -0.7104 -0.2523  0.2985
  682SOL    HW1 2045   0.192   2.090   1.532  0.3173 -0.3918 -1.6102
  682SOL    HW2 2046   0.137   2.218   1.629  1.9262 -0.5812 -1.7396
  683SOL     OW 2047   0.003   1.699   1.608 -0.4243 -0.0474 -0.1678
  683SOL    HW1 2048   3.052   1.793   1.633  1.0950 -0.9925 -0.9061
  683SOL    HW2 2049   0.081   1.658   1.659 -1.3212  0.4058  2.9959
  684SOL     OW 2050   2.539   1.622   0.213  0.0591  0.1531 -0.2571
  684SOL    HW1 2051   2.471   1.698   0.238 -1.0263 -2.5549  1.2775
  684SOL    HW2 2052   2.554   1.546   0.284  0.0706  0.2962  1.6934
  685SOL     OW 2053   1.298   0.685   0.426  0.1382  0.8068 -0.8038
  685SOL    HW1 2054   1.344   0.713   0.341 -1.2029 -0.0862  2.5570
  685SOL    HW2 2055   1.201   0.671   0.410 -0.5760  0.4987 -1.5203
  686SOL     OW 2056   0.311   0.034   1.068 -0.5979  0.0885  0.3602
  686SOL    HW1 2057   0.316   3.064   1.158  2.9696  0.0042 -0.2743
  686SOL    HW2 2058   0.384   0.008   1.002 -0.8037 -0.5486 -1.5864
  687SOL     OW 2059   0.859   1.319   2.528  0.2010  0.7671  0.3806
  687SOL    HW1 2060   0.923   1.259   2.482 -0.3640  0.2500 -0.5282
  687SOL    HW2 2061   0.880   1.332   2.626  0.3632 -2.1847 -2.5752
  688SOL     OW 2062   1.024   1.577   1.741  0.3802 -0.7084 -0.3945
  688SOL    HW1 2063   0.939   1.561   1.695  0.7196 -0.5853 -0.7466
  688SOL    HW2 2064   1.025   1.580   1.843 -1.0831  0.6404 -1.2030
  689SOL     OW 2065   2.265   0.336   1.287 -0.3231 -0.2601  0.1348
  689SOL    HW1 2066   2.316   0.318   1.202 -0.5949  2.1342  2.8856
  689SOL    HW2 2067   2.174   0.371   1.269  3.8000  2.2571 -0.7505
  690SOL     OW 2068   2.900   1.269   0.830 -0.2399 -0.6608 -0.4292
  690SOL    HW1 2069   2.905   1.366   0.865  1.9942  4.3993  0.1923
  690SOL    HW2 2070   2.932   1.208   0.905 -1.5685 -0.3486  0.5208
  691SOL     OW 2071   0.151   2.372   1.345 -0.5127  0.0168  0.4083
  691SOL    HW1 2072   0.230   2.316   1.381  2.9608 -2.1216  2.3693
  691SOL    HW2 2073   0.059   2.331   1.365  3.4787  0.3815  3.7889
  692SOL     OW 2074   1.990   2.993   0.985  0.3753 -0.2659 -0.2795
  692SOL    HW1 2075   2.085   3.019   0.961  0.0966  0.6777  1.4219
  692SOL    HW2 2076   1.967   3.008   1.083 -1.3105  3.6988 -0.0894
  693SOL     OW 2077   0.444   1.549   2.582  0.1458  0.1402 -0.1512
  693SOL    HW1 2078   0.536   1.539   2.545 -0.0215 -0.4470  1.1305
  693SOL    HW2 2079   0.378   1.517   2.512 -0.2314  2.6279 -1.7479
  694SOL     OW 2080   1.869   0.922   1.208  0.2404 -0.6108  0.1021
  694SOL    HW1 2081   1.893   0.832   1.163  1.9634  0.4279  0.2840
  694SOL    HW2 2082   1.768   0.938   1.210 -2.0000 -0.6619 -0.2658
  695SOL     OW 2083   0.920   0.880   1.203 -0.1579 -0.4289 -0.5868
  695SOL    HW1 2084   0.847   0.864   1.277 -0.1088  1.2323  2.4310
  695SOL    HW2 2085   1.009   0.837   1.211 -0.4736 -0.8740 -1.3490
  696SOL     OW 2086   1.247   3.034   0.772  0.6141  0.1969 -0.0761
  696SOL    HW1 2087   1.337   3.012   0.817  1.0878 -0.3732  1.3580
  696SOL    HW2 2088   1.257   3.050   0.670  0.4711  3.0440  0.2450
  697SOL     OW 2089   1.213   0.499   1.514 -0.3111 -0.9805 -0.2722
  697SOL    HW1 2090   1.197   0.465   1.611  1.0304  0.7854 -0.8783
  697SOL    HW2 2091   1.260   0.590   1.512  1.2919  0.8181  0.5503
  698SOL     OW 2092   1.569   1.144   2.047  0.3825 -0.4978  0.2566
  698SOL    HW1 2093   1.658   1.117   2.085 -1.1273  1.4148  0.3564
  698SOL    HW2 2094   1.564   1.243   2.028  1.2117  0.6467 -0.1207
  699SOL     OW 2095   1.650   0.668   1.022  0.1665 -0.1242  0.0811
  699SOL    HW1 2096   1.662   0.615   0.937  0.6151 -0.7164 -0.5297
  699SOL    HW2 2097   1.552   0.705   1.025 -1.4858  2.9091 -1.4264
  700SOL     OW 2098   1.185   2.507   0.351 -0.3467  0.0670  0.6434
  700SOL    HW1 2099   1.133   2.564   0.422 -0.0145  0.8480 -0.2175
  700SOL    HW2 2100   1.280   2.487   0.375 -0.6977 -1.4304  0.6573
  701SOL     OW 2101   2.020   2.507   3.010 -0.6366  0.3579 -0.4618
  701SOL    HW1 2102   1.953   2.432   3.033  2.2575  1.6317  0.1156
  701SOL    HW2 2103   2.067   2.487   2.921 -1.4361 -1.5767 -1.4644
  702SOL     OW 2104   0.880   0.414   0.735  0.3280  0.6521 -0.3717
  702SOL    HW1 2105   0.955   0.350   0.746 -0.8357  1.1067 -0.5094
  702SOL    HW2 2106   0.884   0.484   0.807 -2.6004 -1.7869 -0.8825
  703SOL     OW 2107   2.403   0.275   2.276 -0.5581  0.1979 -0.2627
  703SOL    HW1 2108   2.353   0.243   2.361  0.0348 -2.5944  3.0784
  703SOL    HW2 2109   2.347   0.307   2.198  0.6416  1.9737  1.1332
  704SOL     OW 2110   0.280   2.109   0.502 -0.4780  0.2902  0.2165
  704SOL    HW1 2111   0.324   2.019   0.514  1.2994  0.3432  0.4028
  704SOL    HW2 2112   0.350   2.182   0.512 -0.9105  1.9377 -2.7763
  705SOL     OW 2113   2.644   2.619   2.219 -0.2155 -0.3526 -0.5602
  705SOL    HW1 2114   2.597   2.560   2.149 -2.3401 -3.3671 -1.9633
  705SOL    HW2 2115   2.619   2.714   2.205  2.3116 -3.8114  1.0352
  706SOL     OW 2116   2.324   2.717   0.944  0.5020 -0.0200 -0.5054
  706SOL    HW1 2117   2.224   2.748   0.928 -2.7397  1.3334 -0.5421
  706SOL    HW2 2118   2.349   2.642   0.877 -0.2792 -0.2612  0.5748
  707SOL     OW 2119   0.683   2.520   2.222  0.4621  0.9473 -0.2873
  707SOL    HW1 2120   0.645   2.470   2.142  0.2655  1.3715  3.0455
  707SOL    HW2 2121   0.777   2.555   2.210  2.6558 -2.4033 -1.2881
  708SOL     OW 2122   3.037   2.082   2.280  0.3002  0.0221 -0.2052
  708SOL    HW1 2123   0.016   2.058   2.360  0.1162 -0.6643  1.4555
  708SOL    HW2 2124   3.037   2.180   2.252 -0.9188 -0.7251  0.3016
  709SOL     OW 2125   2.002   0.004   1.973 -0.7893  0.6311  0.1196
  709SOL    HW1 2126   1.977   0.099   1.944 -1.7658 -1.4480  0.4076
  709SOL    HW2 2127   1.933   3.020   1.931 -1.8270  1.1350 -1.3539
  710SOL     OW 2128   1.491   0.638   2.444  0.0608 -0.1091  0.1732
  710SOL    HW1 2129   1.533   0.621   2.535  1.6115 -0.7836  2.9675
  710SOL    HW2 2130   1.559   0.621   2.367  0.5107  0.8639  0.8608
  711SOL     OW 2131   0.679   2.061   2.716  0.0314  0.3917  0.2827
  711SOL    HW1 2132   0.753   2.030   2.775 -1.2187 -0.2105  2.4167
  711SOL    HW2 2133   0.602   1.994   2.712  2.0607 -1.3009  3.1527
  712SOL     OW 2134   0.484   2.426   2.564  0.1956 -0.0535  0.1078
  712SOL    HW1 2135   0.467   2.457   2.662 -2.7790  2.3427  1.0189
  712SOL    HW2 2136   0.487   2.512   2.508 -0.3548 -0.7037 -2.4282
  713SOL     OW 2137   1.617   1.485   2.560  0.4928  0.0225 -0.5051
  713SOL    HW1 2138   1.691   1.466   2.490  0.0138  0.3183 -0.6073
  713SOL    HW2 2139   1.663   1.483   2.649  1.7367  1.4627 -2.9337
  714SOL     OW 2140   1.582   1.405   1.963  0.4249  0.6701  0.6022
  714SOL    HW1 2141   1.558   1.436   1.866  1.8990 -0.6229 -2.1857
  714SOL    HW2 2142   1.516   1.431   2.033 -1.9933 -3.8813  1.9733
  715SOL     OW 2143   2.068   0.574   2.357 -0.0445  0.0176 -0.5231
  715SOL    HW1 2144   2.042   0.505   2.429 -1.7447  0.4169  0.4985
  715SOL    HW2 2145   2.013   0.659   2.365 -0.8891 -1.4002  0.9792
  716SOL     OW 2146   3.024   1.969   1.667 -0.0281  0.1912 -0.2461
  716SOL    HW1 2147   3.062   1.967   1.760 -0.2913  1.0026 -0.8578
  716SOL    HW2 2148   3.043   2.058   1.627 -0.7725 -1.2237 -0.3890
  717SOL     OW 2149   2.612   1.301   0.801 -0.5953 -0.2955  0.0196
  717SOL    HW1 2150   2.714   1.328   0.798  0.4438  4.4665  0.8960
  717SOL    HW2 2151   2.582   1.249   0.720 -2.1944  2.5674  0.1633
  718SOL     OW 2152   0.960   1.816   2.120 -0.2722  0.2961 -0.1507
  718SOL    HW1 2153   0.923   1.892   2.181 -0.1116  1.8435 -1.3520
  718SOL    HW2 2154   0.934   1.728   2.161  1.3113  0.4903 -0.6015
  719SOL     OW 2155   1.942   0.728   2.626 -0.2659  0.0431  0.0926
  719SOL    HW1 2156   1.924   0.732   2.525  0.9360 -1.3433  2.0574
  719SOL    HW2 2157   1.970   0.822   2.662  1.1664  1.5432 -0.4712
  720SOL     OW 2158   0.437   0.485   0.934 -0.1627  0.6840  0.0311
  720SOL    HW1 2159   0.508   0.410   0.940  1.7333 -1.8970 -2.0784
  720SOL    HW2 2160   0.354   0.450   0.888 -1.4122  0.9321 -0.3769
  721SOL     OW 2161   2.838   0.776   0.317  0.0080 -0.2708  0.0167
  721SOL    HW1 2162   2.746   0.776   0.363  1.9566 -2.3199 -1.4574
  721SOL    HW2 2163   2.823   0.759   0.216 -0.5938  1.1055 -3.5319
  722SOL     OW 2164   3.078   0.510   2.527  0.4022 -0.1070 -0.6331
  722SOL    HW1 2165   3.049   0.519   2.622 -0.7815 -0.8174 -0.5347
  722SOL    HW2 2166   0.103   0.513   2.517  1.7278  1.8047 -0.0428
  723SOL     OW 2167   1.733   0.140   0.291  0.8821 -0.1547  0.2541
  723SOL    HW1 2168   1.671   0.178   0.222 -0.2548 -0.3558  1.4805
  723SOL    HW2 2169   1.684   0.072   0.359 -0.5886 -0.3078  0.0043
  724SOL     OW 2170   0.643   1.744   2.142  0.5153  0.2048 -0.7947
  724SOL    HW1 2171   0.625   1.785   2.054  1.7327 -1.5565 -1.4709
  724SOL    HW2 2172   0.617   1.805   2.217  1.1139 -0.8579 -2.9061
  725SOL     OW 2173   1.500   2.960   0.867 -0.3026  0.2383  0.0444
  725SOL    HW1 2174   1.510   2.872   0.814 -1.4191 -1.8923 -2.4779
  725SOL    HW2 2175   1.595   2.994   0.894  1.6570 -0.0692  1.9258
  726SOL     OW 2176   1.913   2.402   0.184  0.2995  0.1638  0.1689
  726SOL    HW1 2177   2.008   2.401   0.219  1.8259 -2.2476  3.1878
  726SOL    HW2 2178   1.857   2.474   0.230  2.3725 -0.2070  0.5833
  727SOL     OW 2179   1.751   1.531   1.155 -0.7349 -0.0224 -0.3498
  727SOL    HW1 2180   1.807   1.512   1.240 -0.3312  2.0000 -0.0699
  727SOL    HW2 2181   1.773   1.624   1.123 -2.5040  0.9429  0.0341
  728SOL     OW 2182   2.059   2.745   1.527  0.1743 -0.2623  0.7209
  728SOL    HW1 2183   2.068   2.643   1.545 -0.9407  0.2191 -0.4536
  728SOL    HW2 2184   2.100   2.798   1.605  1.6995 -0.3648  1.9589
  729SOL     OW 2185   2.045   2.041   1.368 -0.0730  0.1520 -0.2710
  729SOL    HW1 2186   2.058   2.120   1.307 -1.8940  0.2868 -1.8822
  729SOL    HW2 2187   2.083   1.963   1.317 -0.3647  0.3146  0.9947
  730SOL     OW 2188   1.456   0.813   2.869  0.1835  0.3720  0.5568
  730SOL    HW1 2189   1.356   0.826   2.884 -1.6981  0.7235  1.1593
  730SOL    HW2 2190   1.473   0.713   2.864 -1.1635  1.9650 -0.2796
  731SOL     OW 2191   0.301   0.280   0.779 -0.0389 -0.1659  0.0490
  731SOL    HW1 2192   0.226   0.236   0.829 -0.1988  1.5262 -0.2768
  731SOL    HW2 2193   0.268   0.341   0.707 -1.1076 -0.3635  1.3227
  732SOL     OW 2194   1.500   0.236   0.551 -0.2408 -0.1882  0.0955
  732SOL    HW1 2195   1.416   0.256   0.499  1.4404  0.2723  0.0016
  732SOL    HW2 2196   1.550   0.156   0.514 -1.2150 -1.8279 -3.4751
  733SOL     OW 2197   0.593   1.707   1.277 -0.0001  0.1520 -0.2530
  733SOL    HW1 2198   0.647   1.629   1.314 -0.3441 -0.8366  1.3438
  733SOL    HW2 2199   0.643   1.794   1.266  0.4317  0.9177  1.3106
  734SOL     OW 2200   2.805   2.700   3.054 -0.1339 -0.1630 -0.1229
  734SOL    HW1 2201   2.721   2.711   3.000  2.0605  1.5119  2.6089
  734SOL    HW2 2202   2.879   2.650   3.008 -2.2670  0.3653  0.7464
  735SOL     OW 2203   1.227   2.993   1.282  0.7118  0.5421 -0.0046
  735SOL    HW1 2204   1.201   0.013   1.287  0.3755 -2.8913  1.9824
  735SOL    HW2 2205   1.310   2.979   1.229 -0.1946 -0.4503  1.0516
  736SOL     OW 2206   1.853   2.143   0.348  0.2986 -0.2525 -0.3359
  736SOL    HW1 2207   1.946   2.104   0.342 -1.5292 -0.6099 -2.4173
  736SOL    HW2 2208   1.863   2.242   0.320 -0.3764 -2.8275 -3.1309
  737SOL     OW 2209   0.020   1.504   1.011 -0.0114  0.4172  0.3718
  737SOL    HW1 2210   0.077   1.579   1.039  0.5923 -1.5366  0.5666
  737SOL    HW2 2211   3.054   1.473   1.096 -0.3972 -1.4740 -0.0043
  738SOL     OW 2212   2.099   2.249   2.413 -0.6506  0.6479  0.1550
  738SOL    HW1 2213   2.105   2.330   2.473 -0.5912 -1.0886 -1.3657
  738SOL    HW2 2214   2.191   2.216   2.393  1.7591 -2.6215  3.5959
  739SOL     OW 2215   1.205   1.909   2.694  0.6121 -0.0490 -0.0013
  739SOL    HW1 2216   1.184   2.003   2.658 -0.0117 -0.6754 -3.2190
  739SOL    HW2 2217   1.118   1.860   2.720 -4.8454  2.3829  0.6841
  740SOL     OW 2218   1.442   2.933   1.110  0.4528  0.0383 -0.0428
  740SOL    HW1 2219   1.429   2.831   1.095  1.5342  2.1400 -1.2727
  740SOL    HW2 2220   1.443   2.979   1.017 -1.1851  0.4751  0.1728
  741SOL     OW 2221   0.161   1.155   0.728  0.1099  0.4876 -0.0708
  741SOL    HW1 2222   0.222   1.087   0.768 -0.2407 -0.7097  0.4738
  741SOL    HW2 2223   0.069   1.110   0.717 -0.5430 -1.9116 -0.6856
  742SOL     OW 2224   0.573   1.484   2.207 -0.2185 -0.0594 -0.7050
  742SOL    HW1 2225   0.632   1.488   2.292 -3.0918  0.5357  2.6253
  742SOL    HW2 2226   0.548   1.578   2.179  0.0303  1.8525 -0.9060
  743SOL     OW 2227   1.078   1.059   1.937 -0.0458 -0.5554  0.2959
  743SOL    HW1 2228   1.048   1.157   1.920 -0.6546 -0.3157 -1.2463
  743SOL    HW2 2229   1.179   1.055   1.944 -1.3833  2.7364 -0.4293
  744SOL     OW 2230   1.928   0.245   1.883  0.8815 -1.0113  0.2118
  744SOL    HW1 2231   1.841   0.274   1.833 -1.9577  2.2108 -0.4212
  744SOL    HW2 2232   2.012   0.281   1.834  1.7903 -0.8207 -1.2543
  745SOL     OW 2233   2.225   1.341   1.590 -0.0620 -0.0576  0.2613
  745SOL    HW1 2234   2.304   1.407   1.601 -0.0822  1.1734 -0.0972
  745SOL    HW2 2235   2.211   1.316   1.490  0.2548 -2.6128 -1.8449
  746SOL     OW 2236   1.901   1.179   0.298 -0.3537 -0.2023  0.1150
  746SOL    HW1 2237   1.861   1.264   0.263 -2.1242 -1.8119  3.6171
  746SOL    HW2 2238   1.901   1.112   0.219  1.6022  0.7003  1.4437
  747SOL     OW 2239   2.758   1.534   1.006 -0.0143 -0.0660  0.2882
  747SOL    HW1 2240   2.766   1.582   1.095 -0.9402  1.3674  2.6829
  747SOL    HW2 2241   2.775   1.603   0.933 -0.2045  0.0488  2.3149
  748SOL     OW 2242   0.308   1.837   0.469  0.8316  0.4067  0.4390
  748SOL    HW1 2243   0.264   1.806   0.379 -2.1257 -1.1753 -3.1479
  748SOL    HW2 2244   0.384   1.772   0.486 -0.2955 -1.1705 -1.7981
  749SOL     OW 2245   2.688   2.490   2.625 -0.8399  0.1679  0.3156
  749SOL    HW1 2246   2.722   2.442   2.540 -0.6205 -0.6198  0.6450
  749SOL    HW2 2247   2.601   2.540   2.608  2.4977  0.2471 -0.4965
  750SOL     OW 2248   2.398   0.863   0.816 -0.0522 -0.0772  0.3083
  750SOL    HW1 2249   2.305   0.910   0.788 -2.7016 -2.1148 -1.5350
  750SOL    HW2 2250   2.382   0.803   0.894  0.3330  1.7509 -3.0928
  751SOL     OW 2251   2.628   3.026   3.008  0.2954  0.2816  0.6099
  751SOL    HW1 2252   2.542   3.061   2.966 -1.1180 -0.7035 -0.7101
  751SOL    HW2 2253   2.637   2.927   2.979  0.2908 -2.0293 -1.7429
  752SOL     OW 2254   2.958   2.773   0.876 -0.8204 -0.4569  0.6753
  752SOL    HW1 2255   2.922   2.678   0.884 -1.6545 -1.0782 -1.3763
  752SOL    HW2 2256   3.016   2.801   0.953 -0.4220  0.4326  0.2728
  753SOL     OW 2257   1.742   0.988   2.399  0.4325  0.2222 -0.2347
  753SOL    HW1 2258   1.805   1.068   2.419  0.3035  3.8007  1.1280
  753SOL    HW2 2259   1.656   1.006   2.455 -1.4768 -0.3048  2.1643
  754SOL     OW 2260   2.024   2.137   1.640  0.4952 -0.0516 -0.3084
  754SOL    HW1 2261   2.067   2.093   1.560  4.8888 -0.1415  1.4747
  754SOL    HW2 2262   2.079   2.110   1.723  0.3212 -0.5901  2.3264
  755SOL     OW 2263   2.658   0.940   0.802 -0.3569  0.2510 -0.3512
  755SOL    HW1 2264   2.556   0.937   0.808 -0.9283  1.6728  0.7077
  755SOL    HW2 2265   2.693   0.945   0.902 -1.0420 -0.0064  2.6204
  756SOL     OW 2266   0.600   1.247   2.960  0.0698  0.6183 -0.1886
  756SOL    HW1 2267   0.503   1.207   2.964  2.6724  0.9705 -0.6412
  756SOL    HW2 2268   0.611   1.317   2.885  0.2388  1.0901 -1.4734
  757SOL     OW 2269   1.478   2.397   1.229 -0.3199 -0.7508 -0.0838
  757SOL    HW1 2270   1.436   2.386   1.137 -2.4279 -1.9070 -0.8667
  757SOL    HW2 2271   1.486   2.309   1.279  1.7501  2.6915  0.0082
  758SOL     OW 2272   1.067   2.484   1.581  0.1807  0.4024  0.0231
  758SOL    HW1 2273   1.124   2.457   1.501  1.8127  1.2412 -1.6667
  758SOL    HW2 2274   1.012   2.564   1.567  1.6285 -1.4662 -0.1590
  759SOL     OW 2275   2.944   1.145   1.091 -1.0592 -0.7754 -0.1245
  759SOL    HW1 2276   2.887   1.207   1.147 -1.6312 -0.6891  0.7778
  759SOL    HW2 2277   3.034   1.138   1.140 -0.3449  0.3976  1.5190
  760SOL     OW 2278   2.263   1.279   1.320 -0.1239  0.3414  0.5939
  760SOL    HW1 2279   2.260   1.175   1.309  0.0583 -3.8289  0.0694
  760SOL    HW2 2280   2.204   1.323   1.246  0.0196  0.9991  0.1232
  761SOL     OW 2281   1.856   2.979   0.161 -0.1001 -0.3197 -0.1909
  761SOL    HW1 2282   1.830   3.047   0.228 -1.5818 -0.6956 -0.6205
  761SOL    HW2 2283   1.906   3.011   0.082 -1.0046 -2.8746  0.0563
  762SOL     OW 2284   2.062   1.543   2.788  0.1545 -0.4736 -0.1380
  762SOL    HW1 2285   2.126   1.501   2.718  1.5160  1.6390  1.4925
  762SOL    HW2 2286   2.113   1.609   2.840  0.2803 -1.6405 -4.4050
  763SOL     OW 2287   0.393   2.062   1.814  1.1385 -0.1197  0.3554
  763SOL    HW1 2288   0.366   1.986   1.878  2.2438 -2.5974  1.7710
  763SOL    HW2 2289   0.315   2.099   1.759  1.3722 -0.5079 -2.2624
  764SOL     OW 2290   0.064   2.337   0.250  0.2354  0.4689 -0.0282
  764SOL    HW1 2291   3.041   2.362   0.243 -1.5642  0.9686  2.1414
  764SOL    HW2 2292   0.106   2.354   0.158  1.4302  1.1345  0.3678
  765SOL     OW 2293   0.386   3.001   1.310  0.0480  0.5439 -0.3081
  765SOL    HW1 2294   0.441   3.037   1.388 -0.7634 -0.1421  1.8803
  765SOL    HW2 2295   0.447   2.967   1.234 -1.8330 -2.3799 -0.1608
  766SOL     OW 2296   2.666   2.121   2.187 -0.5517  0.5351  0.2343
  766SOL    HW1 2297   2.728   2.182   2.247  2.3993  0.4321  1.8069
  766SOL    HW2 2298   2.643   2.035   2.235  0.5272  1.6463 -0.5406
  767SOL     OW 2299   2.675   0.890   2.098  0.0124  0.1302 -0.3319
  767SOL    HW1 2300   2.598   0.846   2.045 -1.1827  1.1501  0.3382
  767SOL    HW2 2301   2.756   0.829   2.112 -0.1477 -0.0824  0.5172
  768SOL     OW 2302   0.999   0.278   2.673  0.7284  0.2851 -0.0749
  768SOL    HW1 2303   0.907   0.232   2.661  0.4719 -2.1682 -0.5659
  768SOL    HW2 2304   1.063   0.227   2.736  4.1882 -1.2979 -0.2924
  769SOL     OW 2305   2.704   2.840   0.919  0.4446  0.0414  0.2043
  769SOL    HW1 2306   2.800   2.799   0.907 -0.5084 -3.5779  0.6218
  769SOL    HW2 2307   2.653   2.801   0.996 -0.6716  3.5191 -1.5895
  770SOL     OW 2308   0.244   2.802   2.708  0.1354  0.1754 -0.1199
  770SOL    HW1 2309   0.171   2.837   2.640 -3.0229  0.4784 -1.2476
  770SOL    HW2 2310   0.202   2.731   2.765  1.4046  0.1326 -1.4365
  771SOL     OW 2311   1.486   1.979   2.009  0.0806 -0.6788 -0.3350
  771SOL    HW1 2312   1.504   2.065   1.957  1.5272  1.6171  0.9129
  771SOL    HW2 2313   1.509   1.896   1.954  1.2410 -1.5388 -1.4467
  772SOL     OW 2314   1.257   2.835   2.996  0.2389 -0.2430 -0.3087
  772SOL    HW1 2315   1.155   2.851   2.983  0.0804 -1.2776 -1.7474
  772SOL    HW2 2316   1.281   2.795   0.007 -0.6216  1.3331  0.6774
  773SOL     OW 2317   2.000   0.755   1.436  0.4474  0.5289 -0.5153
  773SOL    HW1 2318   2.006   0.856   1.432 -3.2366 -0.6885  0.0926
  773SOL    HW2 2319   2.050   0.713   1.356  1.8137  0.8199 -0.6535
  774SOL     OW 2320   0.959   1.116   1.068 -0.1073  0.0352  1.0001
  774SOL    HW1 2321   1.022   1.167   1.127 -0.8677 -0.6608  1.0659
  774SOL    HW2 2322   0.965   1.019   1.094  0.2899  1.2385 -1.2061
  775SOL     OW 2323   1.982   2.796   2.940  0.3989  0.1240 -0.1585
  775SOL    HW1 2324   2.027   2.862   3.002 -1.3875  2.6332  0.1645
  775SOL    HW2 2325   1.987   2.699   2.974  1.8713 -1.1534  3.0213
  776SOL     OW 2326   2.075   1.007   1.517 -0.9814 -0.2469 -0.4888
  776SOL    HW1 2327   2.124   1.004   1.611  0.8908  0.0809  2.5346
  776SOL    HW2 2328   2.123   1.076   1.455  1.6942  1.3390 -0.7356
  777SOL     OW 2329   0.353   1.007   2.091 -0.4222  0.4212 -0.4131
  777SOL    HW1 2330   0.431   0.953   2.123  1.2624 -0.5231  2.9219
  777SOL    HW2 2331   0.373   1.105   2.112  1.1553  0.3019 -1.5040
  778SOL     OW 2332   0.248   0.703   0.154  0.2849 -0.6128  0.7585
  778SOL    HW1 2333   0.337   0.716   0.108 -0.0905  1.6342  0.0368
  778SOL    HW2 2334   0.259   0.713   0.253  1.6272 -1.2407  0.6526
  779SOL     OW 2335   0.783   0.134   2.610 -0.3216 -0.3479  0.0691
  779SOL    HW1 2336   0.743   0.080   2.530  0.4782 -2.5150  0.0843
  779SOL    HW2 2337   0.766   0.087   2.703 -0.1796  1.2094  1.5083
  780SOL     OW 2338   1.926   1.137   2.545 -0.0551  0.1443  0.1859
  780SOL    HW1 2339   1.896   1.100   2.634  1.0919 -0.1486 -2.9753
  780SOL    HW2 2340   2.027   1.138   2.534  2.5120 -0.5380 -0.4302
  781SOL     OW 2341   2.999   0.984   2.019 -0.0942 -0.7423  0.2334
  781SOL    HW1 2342   2.923   1.008   1.952 -1.8951  0.3616 -1.4769
  781SOL    HW2 2343   2.966   0.910   2.082  1.3085  0.9245  3.0374
  782SOL     OW 2344   0.754   1.706   2.749 -0.0572 -0.2287  0.0322
  782SOL    HW1 2345   0.727   1.614   2.787 -0.2435  0.7556 -2.3447
  782SOL    HW2 2346   0.671   1.748   2.705 -1.3118  0.5786 -0.5615
  783SOL     OW 2347   1.159   2.366   1.307  0.6684 -0.3075 -0.2106
  783SOL    HW1 2348   1.185   2.270   1.292 -4.9483 -0.3825 -0.5699
  783SOL    HW2 2349   1.147   2.410   1.212  1.3897 -1.9640 -0.8251
  784SOL     OW 2350   1.692   0.580   2.669 -0.0812 -0.1730 -0.0876
  784SOL    HW1 2351   1.783   0.626   2.653  0.6991  1.7539  2.9479
  784SOL    HW2 2352   1.697   0.479   2.661 -0.5069  5.5160  2.7991
  785SOL     OW 2353   0.586   0.054   2.048  0.3506  0.3367  0.1323
  785SOL    HW1 2354   0.651   3.057   2.048 -0.1412  1.5782  1.7676
  785SOL    HW2 2355   0.638   0.139   2.035 -0.1143 -3.2120  0.3265
  786SOL     OW 2356   0.616   2.099   0.412 -0.5750 -0.1976  0.0617
  786SOL    HW1 2357   0.567   2.021   0.457  0.0512  1.4883 -1.1775
  786SOL    HW2 2358   0.564   2.187   0.400 -1.1944  0.7622  0.4303
  787SOL     OW 2359   1.277   0.322   0.400 -0.0953 -0.2227 -0.3526
  787SOL    HW1 2360   1.249   0.341   0.495  0.6589  0.7620 -1.6900
  787SOL    HW2 2361   1.210   0.351   0.328 -0.6270  1.6958  0.0903
  788SOL     OW 2362   2.847   1.619   1.253 -0.4387  0.2841 -0.5236
  788SOL    HW1 2363   2.863   1.707   1.299 -0.5055 -1.1143 -0.9286
  788SOL    HW2 2364   2.937   1.570   1.275  0.0057  1.7757  0.9842
  789SOL     OW 2365   2.580   1.088   2.281 -0.2107  0.6146 -0.2279
  789SOL    HW1 2366   2.613   1.025   2.206 -0.6096  0.1420 -0.7129
  789SOL    HW2 2367   2.603   1.183   2.256  1.2869 -1.4564 -0.4449
  790SOL     OW 2368   0.536   0.385   0.215 -0.7734  0.3382  0.2623
  790SOL    HW1 2369   0.585   0.318   0.272  0.4735  0.3286  1.8123
  790SOL    HW2 2370   0.596   0.433   0.147 -0.5300 -0.5962  0.8194
  791SOL     OW 2371   2.866   0.256   2.944 -0.4937 -0.1179 -0.2963
  791SOL    HW1 2372   2.767   0.278   2.934  2.4865  0.5377  1.9919
  791SOL    HW2 2373   2.881   0.167   2.993 -0.4385  0.8401 -0.5802
  792SOL     OW 2374   1.253   0.525   2.334 -1.3544  0.1038  0.0697
  792SOL    HW1 2375   1.273   0.515   2.234  0.9991 -0.8306 -0.7740
  792SOL    HW2 2376   1.329   0.570   2.386 -1.2911 -2.9771 -0.6946
  793SOL     OW 2377   2.656   0.494   0.798 -0.3858  0.3311 -0.1588
  793SOL    HW1 2378   2.717   0.416   0.778 -2.0500  0.3413 -0.5213
  793SOL    HW2 2379   2.695   0.568   0.863 -0.5921  0.8369 -1.3298
  794SOL     OW 2380   0.320   0.506   2.117 -0.5911 -0.2965  0.2440
  794SOL    HW1 2381   0.366   0.567   2.183 -2.7305 -4.7625 -3.4853
  794SOL    HW2 2382   0.223   0.530   2.091 -2.4464 -1.0777 -2.6065
  795SOL     OW 2383   0.374   1.139   0.526 -0.6852  0.3015  0.5163
  795SOL    HW1 2384   0.304   1.165   0.591 -0.1398 -0.7707  2.3856
  795SOL    HW2 2385   0.430   1.059   0.561  0.0798 -1.3400  3.1859
  796SOL     OW 2386   0.051   0.906   2.954 -0.2284 -0.5774 -0.2094
  796SOL    HW1 2387   0.064   0.894   3.055 -0.8182 -2.9094 -0.4291
  796SOL    HW2 2388   0.136   0.863   2.908  2.3024 -1.5736 -0.9624
  797SOL     OW 2389   1.876   2.638   2.523 -0.6542 -0.1054  0.1172
  797SOL    HW1 2390   1.915   2.676   2.609 -0.4784 -1.6613 -0.1298
  797SOL    HW2 2391   1.883   2.713   2.453  0.4323 -1.2196 -0.9337
  798SOL     OW 2392   0.064   0.026   1.445  0.1097  0.2922 -0.1728
  798SOL    HW1 2393   0.089   0.086   1.366  3.9993  0.2660 -1.1581
  798SOL    HW2 2394   0.102   0.073   1.532  2.3344  1.9091 -0.6939
  799SOL     OW 2395   2.388   0.546   1.790  0.4897  0.4918  0.2927
  799SOL    HW1 2396   2.301   0.588   1.760  0.4692  1.6659  1.2090
  799SOL    HW2 2397   2.393   0.447   1.770 -0.8451  2.2642  1.0848
  800SOL     OW 2398   0.148   1.728   0.660  0.4378 -0.1816 -0.4359
  800SOL    HW1 2399   0.188   1.631   0.668 -0.9236  2.4223 -0.4851
  800SOL    HW2 2400   0.202   1.786   0.594  3.3378  3.0676 -1.9409
  801SOL     OW 2401   1.533   1.671   0.383 -0.4842  0.5903 -0.2244
  801SOL    HW1 2402   1.472   1.641   0.456 -0.7101  2.2630 -0.7508
  801SOL    HW2 2403   1.622   1.702   0.419  0.4767 -1.3005 -0.6289
  802SOL     OW 2404   1.294   1.109   2.922 -0.5666 -0.1243 -0.1715
  802SOL    HW1 2405   1.252   1.026   2.888  0.9826 -0.2856 -2.3584
  802SOL    HW2 2406   1.385   1.124   2.886 -1.2359  0.2653  2.1175
  803SOL     OW 2407   0.387   1.795   1.932 -0.1135 -0.3257 -0.3617
  803SOL    HW1 2408   0.320   1.727   1.902  1.4982  1.9173 -0.4287
  803SOL    HW2 2409   0.476   1.779   1.885 -0.7004 -1.5358  4.0282
  804SOL     OW 2410   1.401   2.322   0.983  0.0466 -0.0793 -0.3137
  804SOL    HW1 2411   1.470   2.277   0.923  0.8342 -0.1172  0.5147
  804SOL    HW2 2412   1.322   2.259   0.996  5.2613  1.6134  0.3795
  805SOL     OW 2413   2.365   2.238   2.792  0.1868 -0.5646 -0.1598
  805SOL    HW1 2414   2.402   2.259   2.883 -0.9647 -0.0670 -0.7294
  805SOL    HW2 2415   2.437   2.233   2.723 -2.0565  0.3996 -0.0012
  806SOL     OW 2416   2.808   0.259   0.855  0.1805 -0.8838 -0.1075
  806SOL    HW1 2417   2.787   0.184   0.915 -3.1308  0.9697 -2.3857
  806SOL    HW2 2418   2.899   0.252   0.811 -2.2019 -0.4693 -3.8882
  807SOL     OW 2419   2.647   1.003   2.774  0.5047  0.4719  0.5485
  807SOL    HW1 2420   2.667   1.039   2.681 -1.3057  1.9988  1.2311
  807SOL    HW2 2421   2.700   1.059   2.843 -0.7754 -0.5751  2.2203
  808SOL     OW 2422   0.946   1.954   0.816 -0.0892  0.0778 -0.3355
  808SOL    HW1 2423   0.949   1.968   0.714 -0.6375 -0.1173  0.2308
  808SOL    HW2 2424   0.884   1.875   0.837 -0.5404 -0.2995  0.3944
  809SOL     OW 2425   2.852   3.040   2.216 -0.0656  0.4165  0.1789
  809SOL    HW1 2426   2.838   3.005   2.123  0.7095  0.3850 -0.5465
  809SOL    HW2 2427   2.805   0.053   2.231  1.8016  3.1053  2.6274
  810SOL     OW 2428   1.585   0.760   0.665  0.2227 -0.2945 -0.0453
  810SOL    HW1 2429   1.635   0.744   0.576  2.7417  1.5113  0.1057
  810SOL    HW2 2430   1.609   0.849   0.715 -1.6438  2.0703 -2.8753
  811SOL     OW 2431   1.798   2.852   1.978 -0.4507  0.4409 -0.0859
  811SOL    HW1 2432   1.801   2.790   2.064 -0.3895 -1.0276  3.7126
  811SOL    HW2 2433   1.744   2.935   1.995 -1.1932 -1.8866 -0.7477
  812SOL     OW 2434   1.939   2.511   0.453  0.2949 -0.3420 -0.1961
  812SOL    HW1 2435   1.855   2.500   0.507 -0.2780 -0.2676 -1.3684
  812SOL    HW2 2436   1.957   2.608   0.423  2.4767  1.5080 -0.1380
  813SOL     OW 2437   1.140   0.472   1.814 -0.5218 -0.0298  0.0002
  813SOL    HW1 2438   1.081   0.388   1.811  1.9897  1.3198 -0.2692
  813SOL    HW2 2439   1.092   0.553   1.851  1.0530 -4.1689  0.0972
  814SOL     OW 2440   0.163   2.853   1.392  0.4367 -0.3078  0.0868
  814SOL    HW1 2441   0.240   2.891   1.342  0.2671 -1.6629  1.8539
  814SOL    HW2 2442   0.101   2.919   1.433  0.5873 -1.3059 -0.3339
  815SOL     OW 2443   0.119   0.102   0.880  0.0402  0.6530 -0.5368
  815SOL    HW1 2444   0.070   0.029   0.827 -0.4097  2.0450  0.7207
  815SOL    HW2 2445   0.195   0.062   0.934 -0.5343 -1.3332  2.6348
  816SOL     OW 2446   2.599   1.874   2.278 -0.3260 -0.1957 -0.0014
  816SOL    HW1 2447   2.571   1.854   2.375 -0.6430 -0.0494  1.1983
  816SOL    HW2 2448   2.531   1.839   2.208  1.1366  1.3110 -0.2294
  817SOL     OW 2449   1.119   0.193   0.800  0.0595  0.4357  0.9114
  817SOL    HW1 2450   1.104   0.228   0.897 -1.2608  0.7147  0.4104
  817SOL    HW2 2451   1.172   0.102   0.807  2.9744 -0.9404  3.0578
  818SOL     OW 2452   1.710   0.528   0.061 -0.3958  0.3377 -0.5916
  818SOL    HW1 2453   1.736   0.434   0.025 -2.3342 -1.4399 -2.5925
  818SOL    HW2 2454   1.644   0.515   0.143 -1.4287  0.9615  2.4465
  819SOL     OW 2455   2.278   3.038   3.039 -0.9187  0.2653  0.4306
  819SOL    HW1 2456   2.247   3.077   0.053 -0.0365 -2.7743 -1.0443
  819SOL    HW2 2457   2.306   2.939   3.046  2.5468  0.4307 -1.2978
  820SOL     OW 2458   1.545   1.174   2.858  0.3569  0.0911  0.3475
  820SOL    HW1 2459   1.562   1.250   2.923  0.2644 -0.5041 -1.3219
  820SOL    HW2 2460   1.622   1.112   2.864 -3.7864  2.4263  0.7889
  821SOL     OW 2461   0.182   0.549   1.185 -0.0019 -0.0557 -0.1078
  821SOL    HW1 2462   0.227   0.461   1.205 -1.5461  1.3274 -0.1935
  821SOL    HW2 2463   0.160   0.559   1.085 -1.0924 -1.4683  0.2298
  822SOL     OW 2464   1.184   2.710   2.355 -0.2760  0.1921 -0.4303
  822SOL    HW1 2465   1.214   2.610   2.368 -0.2997 -2.1417 -0.2914
  822SOL    HW2 2466   1.175   2.766   2.440  2.3693 -1.3758  0.5918
  823SOL     OW 2467   0.387   1.447   1.695 -0.1303  0.0178  0.0870
  823SOL    HW1 2468   0.421   1.433   1.597  2.0666  2.2768 -0.3549
  823SOL    HW2 2469   0.460   1.418   1.759 -2.4805 -0.9446 -0.3054
  824SOL     OW 2470   1.581   2.605   2.370  0.4057  0.1910 -0.0565
  824SOL    HW1 2471   1.594   2.624   2.467  1.0333  0.5099 -1.1499
  824SOL    HW2 2472   1.524   2.671   2.320 -0.2558  1.0571 -0.4385
  825SOL     OW 2473   1.452   1.046   0.358  1.0839  0.1852 -0.1077
  825SOL    HW1 2474   1.404   0.963   0.321 -0.6656  0.7894  0.7799
  825SOL    HW2 2475   1.423   1.123   0.302 -0.7485 -2.5171 -0.5444
  826SOL     OW 2476   2.058   0.640   2.867  0.3938  0.4363  0.4105
  826SOL    HW1 2477   2.025   0.664   2.771  0.1950 -0.4712 -0.3149
  826SOL    HW2 2478   2.119   0.716   2.898  0.5609 -1.8696 -0.5372
  827SOL     OW 2479   0.627   2.261   2.896 -0.0680  0.1685  0.3308
  827SOL    HW1 2480   0.562   2.328   2.864  3.1788  0.1554 -0.2518
  827SOL    HW2 2481   0.644   2.183   2.831  3.3141 -0.1292 -1.2777
  828SOL     OW 2482   2.900   0.782   1.363 -0.1844  0.4200 -0.3000
  828SOL    HW1 2483   2.829   0.738   1.305 -1.1013  0.4475 -0.9579
  828SOL    HW2 2484   2.871   0.878   1.382  0.8799  1.2754 -0.3784
  829SOL     OW 2485   0.772   1.749   0.894 -0.5289  0.4635 -0.0016
  829SOL    HW1 2486   0.709   1.805   0.948 -0.7346 -0.8625 -4.1055
  829SOL    HW2 2487   0.789   1.653   0.930 -0.5240 -0.5187  0.5582
  830SOL     OW 2488   0.922   1.176   1.365 -0.4651 -0.1678  0.4063
  830SOL    HW1 2489   0.834   1.212   1.327  0.7120 -0.8782 -2.8697
  830SOL    HW2 2490   0.939   1.085   1.329  4.1528  3.1547  3.6705
  831SOL     OW 2491   0.271   2.003   0.106 -0.0774  0.7356 -0.3500
  831SOL    HW1 2492   0.187   2.054   0.096 -0.3536 -0.7064  0.1902
  831SOL    HW2 2493   0.353   2.061   0.107  1.7348  1.8119  0.3921
  832SOL     OW 2494   0.576   0.133   3.005 -0.3332  0.0552  0.1331
  832SOL    HW1 2495   0.547   0.219   2.961 -1.7172  2.7050 -0.2455
  832SOL    HW2 2496   0.637   0.152   0.009  1.6146  1.9501 -0.6655
  833SOL     OW 2497   0.676   0.507   2.012  0.7206  0.5274 -0.0354
  833SOL    HW1 2498   0.678   0.610   2.016  2.1452  1.5935  0.2022
  833SOL    HW2 2499   0.590   0.485   1.961  1.5648  0.2428 -2.4407
  834SOL     OW 2500   2.961   0.472   0.992  0.1402  0.2649  0.8614
  834SOL    HW1 2501   2.900   0.547   1.022  1.4723  0.1759 -1.0566
  834SOL    HW2 2502   2.902   0.398   0.951 -0.1289  1.3739 -0.3651
  835SOL     OW 2503   2.982   3.028   1.184 -0.0455  0.3155 -0.6913
  835SOL    HW1 2504   3.054   0.017   1.215  2.5309  0.5246 -2.3349
  835SOL    HW2 2505   2.926   3.002   1.263  3.7061 -1.1224  0.2242
  836SOL     OW 2506   0.237   2.188   2.821  0.1769  0.1928  0.5289
  836SOL    HW1 2507   0.160   2.251   2.795  0.2597  0.3687 -0.2245
  836SOL    HW2 2508   0.218   2.140   2.910 -0.5132  1.3912 -1.8854
  837SOL     OW 2509   1.694   1.802   2.836  0.3532 -0.1957 -0.1206
  837SOL    HW1 2510   1.775   1.796   2.780 -1.1805 -0.0251  0.1858
  837SOL    HW2 2511   1.616   1.853   2.790 -1.4223 -1.4929  0.6947
  838SOL     OW 2512   0.086   0.895   1.296  0.2454  0.1188 -0.1076
  838SOL    HW1 2513   0.151   0.859   1.369  2.5730 -3.1671 -0.7834
  838SOL    HW2 2514   0.006   0.830   1.306  1.0790  1.2118 -1.0372
  839SOL     OW 2515   0.980   0.815   0.833  0.3663 -0.1909  0.0411
  839SOL    HW1 2516   0.894   0.847   0.884 -1.0475  1.1037  1.4035
  839SOL    HW2 2517   0.958   0.810   0.734 -0.2909 -1.0073 -0.3484
  840SOL     OW 2518   1.648   0.040   1.537  0.2352  0.2975  0.0117
  840SOL    HW1 2519   1.683   3.042   1.600  0.2287  2.2291 -0.7604
  840SOL    HW2 2520   1.625   0.003   1.444  1.5054 -1.8237  2.6445
  841SOL     OW 2521   0.490   2.682   0.587 -0.1372  0.2974 -0.6440
  841SOL    HW1 2522   0.421   2.647   0.516  0.6091 -1.4972 -2.2868
  841SOL    HW2 2523   0.504   2.608   0.661  1.4048 -1.2378 -0.1489
  842SOL     OW 2524   0.585   0.686   0.581 -0.3897 -0.4483 -0.0161
  842SOL    HW1 2525   0.676   0.644   0.559  0.2792  0.7810  0.2216
  842SOL    HW2 2526   0.511   0.623   0.551  2.4829  0.1807  0.5177
  843SOL     OW 2527   0.938   1.304   1.874  0.4409  0.0089 -0.2833
  843SOL    HW1 2528   0.873   1.336   1.949 -0.6031 -0.1986 -0.8379
  843SOL    HW2 2529   0.884   1.260   1.801 -0.0871 -2.2514  2.5527
  844SOL     OW 2530   1.044   2.028   0.123  0.2462 -0.0213 -0.2968
  844SOL    HW1 2531   1.101   1.972   0.058 -0.2883 -1.2129 -0.7417
  844SOL    HW2 2532   1.083   2.121   0.150  0.4746  1.0388 -2.0893
  845SOL     OW 2533   2.361   2.217   2.357 -0.5069  0.1203  0.2963
  845SOL    HW1 2534   2.419   2.229   2.270  3.0549 -1.1513 -2.3815
  845SOL    HW2 2535   2.421   2.201   2.433  1.2293  0.5692  1.0754
  846SOL     OW 2536   1.972   2.148   2.801 -0.2726  0.1066  0.0676
  846SOL    HW1 2537   1.939   2.243   2.777 -2.2324  0.8771 -0.9013
  846SOL    HW2 2538   1.925   2.079   2.736 -0.0359 -3.7079 -2.9326
  847SOL     OW 2539   2.036   2.837   2.684  0.1147 -0.0233 -0.3625
  847SOL    HW1 2540   2.139   2.842   2.675 -0.4972  0.5795  0.2651
  847SOL    HW2 2541   2.014   2.823   2.782  0.1484 -0.9108 -0.6841
  848SOL     OW 2542   0.848   0.610   0.534  0.4839  0.1289 -0.6812
  848SOL    HW1 2543   0.878   0.542   0.605  0.8922 -0.3431 -1.5400
  848SOL    HW2 2544   0.880   0.700   0.562  0.6717 -4.1293 -0.6250
  849SOL     OW 2545   0.738   3.037   1.229  0.1700  0.0474 -0.0753
  849SOL    HW1 2546   0.680   2.956   1.203  1.1558 -2.3468 -0.0758
  849SOL    HW2 2547   0.682   0.037   1.197  0.2134  0.3966 -1.6703
  850SOL     OW 2548   0.360   1.558   0.103  0.2021  0.0215  0.6120
  850SOL    HW1 2549   0.299   1.617   0.162 -2.3992  1.8773 -0.9817
  850SOL    HW2 2550   0.347   1.578   0.002  0.0773  1.9099 -0.8712
  851SOL     OW 2551   3.040   0.966   0.663  0.0728  0.7703 -0.2599
  851SOL    HW1 2552   2.963   1.029   0.645 -1.3525 -0.3604  2.7170
  851SOL    HW2 2553   3.003   0.897   0.731 -0.8367 -4.1540 -1.0140
  852SOL     OW 2554   1.829   2.270   1.754 -0.0782  0.4225 -0.2768
  852SOL    HW1 2555   1.888   2.221   1.685  1.6928 -0.5235 -1.3462
  852SOL    HW2 2556   1.730   2.244   1.734 -2.6137 -0.2355  0.2501
  853SOL     OW 2557   0.194   1.770   0.225  0.5434  1.0294 -0.1794
  853SOL    HW1 2558   0.108   1.747   0.177  1.0146  1.0138 -1.6190
  853SOL    HW2 2559   0.222   1.864   0.200 -1.2600 -1.6106  2.5539
  854SOL     OW 2560   1.715   1.216   1.494 -0.3808 -0.0575  0.2244
  854SOL    HW1 2561   1.765   1.222   1.404 -0.9617  0.4963  1.4108
  854SOL    HW2 2562   1.752   1.133   1.544  0.5207 -4.6098  0.2127
  855SOL     OW 2563   0.790   2.484   2.942  0.5795 -0.7615 -0.1468
  855SOL    HW1 2564   0.884   2.470   2.977  1.4820  0.3493  0.6412
  855SOL    HW2 2565   0.742   2.393   2.935 -0.5200  2.8449  1.7056
  856SOL     OW 2566   3.061   0.271   2.077  0.0322  0.4878 -0.1734
  856SOL    HW1 2567   0.070   0.218   2.085 -1.7478 -4.0432  0.7123
  856SOL    HW2 2568   3.024   0.283   2.173  1.0022  0.7216  2.0309
  857SOL     OW 2569   0.546   0.779   1.655  0.0179  0.1061 -0.3044
  857SOL    HW1 2570   0.498   0.828   1.732 -0.0347  1.2503  2.5979
  857SOL    HW2 2571   0.577   0.847   1.591  1.6576 -2.1600  0.0044
  858SOL     OW 2572   0.416   1.249   2.203  0.6107 -0.3352 -0.1248
  858SOL    HW1 2573   0.380   1.208   2.290 -0.3898 -0.1430  0.1749
  858SOL    HW2 2574   0.456   1.340   2.218  1.4361 -0.0927  1.5924
  859SOL     OW 2575   2.432   0.269   0.342 -0.6787  0.1126  0.2631
  859SOL    HW1 2576   2.531   0.261   0.334  3.0329  0.6593  0.7579
  859SOL    HW2 2577   2.378   0.240   0.261 -0.4032 -0.3275 -0.1389
  860SOL     OW 2578   1.731   2.775   2.830 -0.4456 -0.9768 -0.9404
  860SOL    HW1 2579   1.678   2.863   2.822 -2.8978  0.5635 -4.7759
  860SOL    HW2 2580   1.820   2.797   2.878 -1.4193 -0.6366  4.0624
  861SOL     OW 2581   0.169   0.691   0.561  0.2692  0.1036  0.2923
  861SOL    HW1 2582   0.098   0.754   0.526 -0.5576  2.2166  1.5641
  861SOL    HW2 2583   0.234   0.740   0.625  1.8509  0.0206 -2.4870
  862SOL     OW 2584   1.698   0.296   2.271 -0.1155  0.1528  0.2384
  862SOL    HW1 2585   1.790   0.252   2.269 -2.1388 -1.2083  0.6511
  862SOL    HW2 2586   1.625   0.232   2.236  2.0931  0.8848  4.9417
  863SOL     OW 2587   2.715   2.004   1.115 -0.2991  0.2007 -0.4014
  863SOL    HW1 2588   2.641   1.960   1.056 -0.8347 -0.8081  0.4060
  863SOL    HW2 2589   2.696   2.106   1.127 -1.1933  2.6189  1.0894
  864SOL     OW 2590   2.429   2.850   1.772 -0.0157 -0.3768 -0.1996
  864SOL    HW1 2591   2.377   2.934   1.774  4.3428 -0.9002  0.4687
  864SOL    HW2 2592   2.397   2.791   1.848  0.5762 -0.6724  0.4133
  865SOL     OW 2593   1.390   0.603   1.702 -0.1129 -0.3310 -0.1927
  865SOL    HW1 2594   1.477   0.559   1.735 -0.4954 -2.2242  1.6431
  865SOL    HW2 2595   1.311   0.580   1.766 -3.6400 -2.1088  3.0612
  866SOL     OW 2596   2.464   3.002   0.780  0.5366  0.1425  0.2097
  866SOL    HW1 2597   2.527   3.076   0.741  1.6061  0.6759 -0.2059
  866SOL    HW2 2598   2.517   2.947   0.850  0.4215 -0.8574 -0.3742
  867SOL     OW 2599   2.750   3.071   0.475  0.2554  0.3136 -0.2147
  867SOL    HW1 2600   2.850   0.004   0.457  1.6740 -1.0938  1.6935
  867SOL    HW2 2601   2.743   2.978   0.519  3.8243  1.2495  3.4636
  868SOL     OW 2602   1.141   2.138   2.156  0.1980  0.4133 -0.2880
  868SOL    HW1 2603   1.127   2.106   2.061  3.1389 -0.3540 -0.9854
  868SOL    HW2 2604   1.078   2.212   2.188 -0.1372  2.6217  0.1653
  869SOL     OW 2605   1.780   2.100   0.090 -0.9605  0.4138 -0.1201
  869SOL    HW1 2606   1.775   2.131   0.189  0.0987  0.0116 -1.4622
  869SOL    HW2 2607   1.876   2.086   0.056  0.1931  0.4265 -0.4772
  870SOL     OW 2608   2.542   2.533   0.548 -0.0125  0.2745 -0.2547
  870SOL    HW1 2609   2.551   2.623   0.491  0.6119  4.2025 -1.9700
  870SOL    HW2 2610   2.537   2.452   0.490  0.2496  1.3542  2.8610
  871SOL     OW 2611   0.294   1.141   1.559  0.0709  0.1046 -0.3746
  871SOL    HW1 2612   0.331   1.197   1.481 -0.2615 -0.2963  1.7806
  871SOL    HW2 2613   0.234   1.191   1.625 -0.6635 -0.9410 -0.7964
  872SOL     OW 2614   0.700   1.535   2.477  0.1954  0.3690 -0.5372
  872SOL    HW1 2615   0.767   1.610   2.469  1.8167  0.8391 -1.6420
  872SOL    HW2 2616   0.746   1.448   2.501 -1.5198 -0.9606 -0.6944
  873SOL     OW 2617   0.566   2.917   1.593 -0.3173  0.4194  0.2516
  873SOL    HW1 2618   0.648   2.884   1.644  0.2169 -0.7508  1.4984
  873SOL    HW2 2619   0.559   3.015   1.611  0.4240 -0.2704 -0.2917
  874SOL     OW 2620   1.248   0.758   1.985  0.2915 -0.3799  0.0229
  874SOL    HW1 2621   1.316   0.824   2.026  2.8517 -1.2539 -0.6349
  874SOL    HW2 2622   1.282   0.664   2.000  2.8547  0.1426  0.4963
  875SOL     OW 2623   2.537   2.757   1.109  0.1222 -0.2002  0.0315
  875SOL    HW1 2624   2.516   2.815   1.195  0.2878 -0.2814  0.6811
  875SOL    HW2 2625   2.457   2.735   1.052  2.3321  1.1180  2.0965
  876SOL     OW 2626   1.005   1.122   0.818  0.2751  0.1895  0.6201
  876SOL    HW1 2627   0.985   1.122   0.914 -2.0136 -0.2194 -2.0489
  876SOL    HW2 2628   0.995   1.024   0.781  0.2995 -2.4954  0.6022
  877SOL     OW 2629   2.975   0.310   1.204  0.2018 -0.0466  0.4599
  877SOL    HW1 2630   2.956   0.387   1.138 -1.3785 -0.2069  0.3156
  877SOL    HW2 2631   3.060   0.258   1.185  0.8818 -1.7970  0.9012
  878SOL     OW 2632   2.361   1.516   0.043  0.1905  0.3399  0.0356
  878SOL    HW1 2633   2.425   1.546   0.115 -0.9208  0.0472 -1.1244
  878SOL    HW2 2634   2.332   1.416   0.056 -0.1699 -2.0590  1.5605
  879SOL     OW 2635   2.873   1.885   1.318  0.4011  0.2914  0.0772
  879SOL    HW1 2636   2.828   1.913   1.408  0.6634 -2.1975  2.4070
  879SOL    HW2 2637   2.825   1.935   1.244 -1.0303 -0.2179  0.3727
  880SOL     OW 2638   0.746   2.150   1.134 -0.3067 -0.0295  0.1402
  880SOL    HW1 2639   0.647   2.180   1.127  2.8276 -2.8226  2.2636
  880SOL    HW2 2640   0.809   2.216   1.185  1.9998 -1.4986 -0.5254
  881SOL     OW 2641   1.251   1.296   0.789 -0.4027  0.2801  0.0537
  881SOL    HW1 2642   1.230   1.197   0.769 -2.3519 -3.3376  0.9580
  881SOL    HW2 2643   1.194   1.337   0.863 -1.9493  2.9109 -1.6920
  882SOL     OW 2644   2.586   1.155   2.520  0.0208  0.5040  0.1116
  882SOL    HW1 2645   2.572   1.121   2.429  0.8993  1.6983  1.9447
  882SOL    HW2 2646   2.683   1.136   2.548 -1.2632  1.9239  0.2783
  883SOL     OW 2647   1.402   0.290   1.119 -0.1397 -0.3582 -0.3646
  883SOL    HW1 2648   1.305   0.259   1.108 -0.9498 -2.4830  1.2832
  883SOL    HW2 2649   1.444   0.291   1.027  0.3157  1.2710 -0.7030
  884SOL     OW 2650   0.039   2.828   1.089 -0.0851 -0.0082 -0.1505
  884SOL    HW1 2651   3.063   2.908   1.121  2.1027 -0.4068  0.6889
  884SOL    HW2 2652   0.069   2.774   1.171 -0.9534  1.0205  0.7564
  885SOL     OW 2653   1.018   1.432   1.382 -0.1534 -0.8892  0.0983
  885SOL    HW1 2654   0.982   1.339   1.378 -0.2957  0.9725  1.0627
  885SOL    HW2 2655   1.075   1.438   1.471  1.1598 -2.4231  5.1547
  886SOL     OW 2656   1.172   1.084   0.090 -0.1986 -0.2900 -0.0561
  886SOL    HW1 2657   1.243   1.105   0.161 -2.1394 -1.4214  0.7617
  886SOL    HW2 2658   1.220   1.084   3.075 -3.2174  0.3523 -3.9132
  887SOL     OW 2659   1.347   0.631   0.704 -0.0770 -0.1124  0.0135
  887SOL    HW1 2660   1.334   0.609   0.607  0.5664 -0.7101  0.7389
  887SOL    HW2 2661   1.431   0.691   0.705 -2.0451  1.5372  1.6658
  888SOL     OW 2662   2.043   1.273   1.784 -0.2840 -0.2520 -0.1187
  888SOL    HW1 2663   2.072   1.341   1.713 -1.6610  0.4874  0.0172
  888SOL    HW2 2664   2.086   1.186   1.757  1.2888  2.9150  1.9202
  889SOL     OW 2665   2.732   2.419   0.709 -0.2000  0.0873 -0.0488
  889SOL    HW1 2666   2.717   2.324   0.750 -0.3798 -2.4376  1.1389
  889SOL    HW2 2667   2.643   2.453   0.666 -2.2574  1.0966 -0.5198
  890SOL     OW 2668   1.525   1.773   0.966 -0.3555 -0.7517  0.5086
  890SOL    HW1 2669   1.583   1.695   0.934 -1.4342  0.4354 -0.6548
  890SOL    HW2 2670   1.440   1.763   0.915  0.5650 -0.7516  1.7132
  891SOL     OW 2671   2.579   0.447   2.384  0.3700  0.0860  0.2631
  891SOL    HW1 2672   2.650   0.496   2.325  1.6203 -0.9423 -1.2751
  891SOL    HW2 2673   2.526   0.374   2.334  0.3587 -0.3446 -0.3753
  892SOL     OW 2674   0.815   0.187   2.262  0.3876  0.5881  0.1377
  892SOL    HW1 2675   0.899   0.147   2.305 -1.0188 -0.6992  0.8050
  892SOL    HW2 2676   0.815   0.286   2.268 -2.6145 -1.3374 -4.0262
  893SOL     OW 2677   1.463   0.225   1.636  0.5942 -0.1442  0.0467
  893SOL    HW1 2678   1.531   0.151   1.626 -0.2929  2.9098  0.4222
  893SOL    HW2 2679   1.440   0.270   1.544  1.6411 -1.4149 -0.7471
  894SOL     OW 2680   2.662   0.720   0.636  0.4827  0.4194  0.5036
  894SOL    HW1 2681   2.643   0.625   0.675 -0.7959 -0.8763 -1.1188
  894SOL    HW2 2682   2.657   0.799   0.698  0.9077  0.1532 -0.1664
  895SOL     OW 2683   1.698   2.200   2.407  0.1629 -0.3547  0.4559
  895SOL    HW1 2684   1.786   2.173   2.451 -2.0232  0.4302 -1.7065
  895SOL    HW2 2685   1.679   2.147   2.323 -1.2852  2.2966 -0.2850
  896SOL     OW 2686   1.932   0.091   1.467 -0.3018  0.2885 -0.1339
  896SOL    HW1 2687   1.927   0.193   1.452  0.5799 -0.6752 -0.3555
  896SOL    HW2 2688   1.860   0.060   1.528  1.0922  0.5388 -0.9110
  897SOL     OW 2689   0.578   1.669   1.763  0.8520 -0.5617  0.2462
  897SOL    HW1 2690   0.520   1.633   1.684  0.5422 -1.8603 -0.3624
  897SOL    HW2 2691   0.673   1.645   1.744 -0.6529  1.3648 -1.2345
  898SOL     OW 2692   1.993   1.497   1.942  0.0760 -0.0331  0.5231
  898SOL    HW1 2693   1.997   1.402   1.901 -0.3236  2.6003  0.5555
  898SOL    HW2 2694   2.083   1.527   1.975 -0.4866 -3.4923 -0.3475
  899SOL     OW 2695   1.912   2.256   1.009 -0.5735 -0.0537  0.1436
  899SOL    HW1 2696   2.001   2.246   1.062  0.6026 -1.2281  0.0237
  899SOL    HW2 2697   1.848   2.303   1.076  2.1141  0.1844  1.0961
  900SOL     OW 2698   1.010   2.913   2.882  0.0081  0.2654 -0.0909
  900SOL    HW1 2699   0.961   2.880   2.961  1.1612  1.7807 -4.9176
  900SOL    HW2 2700   0.945   2.911   2.804  0.9637  2.8890 -1.6317
  901SOL     OW 2701   0.911   1.578   2.247 -0.4201 -0.0314 -0.4782
  901SOL    HW1 2702   0.888   1.645   2.322 -0.4085 -0.3807 -1.9417
  901SOL    HW2 2703   1.011   1.550   2.254  0.3133  2.2514  1.0511
  902SOL     OW 2704   2.043   0.376   2.901 -0.6953 -0.4351  0.3207
  902SOL    HW1 2705   2.054   0.479   2.877  0.0069 -2.2849 -0.8816
  902SOL    HW2 2706   2.102   0.352   2.984  1.2524 -3.3634 -1.1395
  903SOL     OW 2707   2.251   0.849   2.090  0.0388 -0.0283 -0.0833
  903SOL    HW1 2708   2.339   0.820   2.044  0.0508 -0.0954  1.1752
  903SOL    HW2 2709   2.281   0.907   2.168 -1.1491 -1.6685 -0.3992
  904SOL     OW 2710   1.815   1.040   1.681 -0.5440  0.1391 -0.1670
  904SOL    HW1 2711   1.876   0.978   1.625  2.3273 -1.4248  1.1968
  904SOL    HW2 2712   1.868   1.093   1.753  1.1569 -1.5748  1.9176
  905SOL     OW 2713   1.960   0.620   0.704  0.4526 -0.4058  0.3772
  905SOL    HW1 2714   1.982   0.683   0.628  2.0797  0.9187  1.2689
  905SOL    HW2 2715   2.033   0.613   0.773  0.1014 -1.1654 -2.5033
  906SOL     OW 2716   2.220   1.735   0.543  0.3104  0.2329  0.0969
  906SOL    HW1 2717   2.287   1.742   0.623 -2.8357  0.4288  1.8673
  906SOL    HW2 2718   2.255   1.743   0.446 -1.6609  0.3352  0.3343
  907SOL     OW 2719   1.078   2.915   0.965  0.4118 -0.1219  0.2142
  907SOL    HW1 2720   1.127   2.826   0.986  1.5291 -0.7919 -1.3275
  907SOL    HW2 2721   1.126   2.970   0.888  0.2614  1.1337  0.5957
  908SOL     OW 2722   1.613   2.384   2.217  0.0079 -0.5451  0.1145
  908SOL    HW1 2723   1.636   2.310   2.280  0.5872  0.1579 -0.3438
  908SOL    HW2 2724   1.593   2.466   2.275  0.9710 -0.1344 -1.1090
  909SOL     OW 2725   2.274   0.385   2.073 -0.1254 -0.0765  0.0879
  909SOL    HW1 2726   2.285   0.475   2.115 -0.7170 -4.3335 -0.2165
  909SOL    HW2 2727   2.187   0.381   2.021  0.8852 -1.8381  2.3076
  910SOL     OW 2728   1.129   0.781   2.594 -0.0145 -0.1104 -0.2178
  910SOL    HW1 2729   1.118   0.679   2.597  0.5591 -3.3408 -3.1470
  910SOL    HW2 2730   1.042   0.827   2.573  2.4220  0.3930  2.9146
  911SOL     OW 2731   3.012   1.081   2.770 -0.0206 -0.1381 -0.5985
  911SOL    HW1 2732   3.053   1.007   2.823 -2.0851  2.0977 -1.1834
  911SOL    HW2 2733   2.945   1.132   2.827  1.3957 -0.9597 -0.5563
  912SOL     OW 2734   2.994   2.263   1.041 -0.2218  0.5522  0.2362
  912SOL    HW1 2735   2.902   2.267   1.089 -0.7925 -0.9824  1.1004
  912SOL    HW2 2736   3.041   2.180   1.081  0.0934 -2.4401  1.4143
  913SOL     OW 2737   2.522   1.784   2.533  0.2877 -0.0747  0.2032
  913SOL    HW1 2738   2.429   1.807   2.500 -2.2286 -0.0079  1.1141
  913SOL    HW2 2739   2.537   1.848   2.611 -1.5570 -0.6685  0.1251
  914SOL     OW 2740   1.765   1.585   0.630  0.7355 -0.6323 -0.0005
  914SOL    HW1 2741   1.740   1.491   0.597  2.7316  3.3869 -0.4169
  914SOL    HW2 2742   1.732   1.597   0.726  0.4443 -0.2922 -0.4021
  915SOL     OW 2743   0.186   2.530   2.152 -0.7736 -0.6814 -0.0670
  915SOL    HW1 2744   0.209   2.587   2.236  2.2136  1.6833 -2.1948
  915SOL    HW2 2745   0.268   2.528   2.081  3.0091  0.7217 -0.5059
  916SOL     OW 2746   0.985   0.032   1.100 -0.0262  0.4230 -0.5971
  916SOL    HW1 2747   1.031   3.026   1.056  3.7994 -1.7010  0.0429
  916SOL    HW2 2748   0.911   0.001   1.167 -0.5614 -2.0323  1.6724
  917SOL     OW 2749   2.337   0.503   2.813  0.2272 -0.5220  0.1750
  917SOL    HW1 2750   2.306   0.598   2.817  2.7216 -4.0193 -0.5162
  917SOL    HW2 2751   2.353   0.468   2.721  0.4084  0.0351  1.7263
  918SOL     OW 2752   1.423   2.466   2.652 -0.4463  0.0643 -0.6168
  918SOL    HW1 2753   1.490   2.547   2.656  1.4014  0.7683  1.5941
  918SOL    HW2 2754   1.463   2.387   2.704 -0.4355 -2.9098 -0.1886
  919SOL     OW 2755   1.767   2.406   1.195  0.3005 -0.0957  0.1786
  919SOL    HW1 2756   1.823   2.389   1.275 -1.8034  0.5780 -3.5683
  919SOL    HW2 2757   1.668   2.401   1.221  0.2436 -2.2846  0.0916
  920SOL     OW 2758   1.279   0.113   2.547 -0.7956  0.5485 -0.0002
  920SOL    HW1 2759   1.226   0.125   2.633  1.0356  1.1558 -1.4246
  920SOL    HW2 2760   1.266   0.026   2.501  0.8990  2.4724 -3.5403
  921SOL     OW 2761   0.089   1.189   2.549 -0.7569  0.5240 -0.0376
  921SOL    HW1 2762   0.035   1.165   2.469  0.4185  0.2588  0.1520
  921SOL    HW2 2763   0.048   1.139   2.629  0.8018  2.1152 -0.4309
  922SOL     OW 2764   0.047   1.798   1.343  0.6599  0.4646 -0.0593
  922SOL    HW1 2765   3.036   1.839   1.329  1.3404 -1.8589  0.6372
  922SOL    HW2 2766   0.048   1.749   1.430  3.1618  4.1521  1.2403
  923SOL     OW 2767   0.256   1.505   2.387 -0.1881 -0.2028 -0.3561
  923SOL    HW1 2768   0.262   1.574   2.315  1.4663 -2.2845 -0.9260
  923SOL    HW2 2769   0.273   1.411   2.349  0.4485 -0.5880 -2.4457
  924SOL     OW 2770   1.616   2.988   2.356  0.1980  0.4876  0.5101
  924SOL    HW1 2771   1.541   2.927   2.321  0.1496  1.7397  0.9220
  924SOL    HW2 2772   1.700   2.941   2.383  0.0460 -0.0501 -2.0513
  925SOL     OW 2773   2.969   1.602   0.725 -0.7011  0.0788 -0.1983
  925SOL    HW1 2774   3.017   1.681   0.681  1.4738  1.5303  0.2004
  925SOL    HW2 2775   3.041   1.555   0.785  0.1604 -0.5568  2.4396
  926SOL     OW 2776   2.414   0.647   1.005 -0.5190  0.2468  0.4880
  926SOL    HW1 2777   2.455   0.561   0.973 -3.8181 -1.2405 -0.2939
  926SOL    HW2 2778   2.439   0.673   1.098  0.9282  1.9141  1.5968
  927SOL     OW 2779   1.705   0.281   1.258  0.4889  0.0330  0.4741
  927SOL    HW1 2780   1.697   0.327   1.348  1.5462 -0.0529  0.3942
  927SOL    HW2 2781   1.652   0.195   1.249  2.3173  1.5522  0.7139
  928SOL     OW 2782   0.177   0.887   2.321  0.3035  0.7407 -0.0246
  928SOL    HW1 2783   0.224   0.852   2.237  3.1384 -1.4360 -2.0986
  928SOL    HW2 2784   0.171   0.820   2.399  2.5234 -0.0234  1.5614
  929SOL     OW 2785   2.263   1.013   1.256  0.1024 -0.0916 -0.0994
  929SOL    HW1 2786   2.279   0.924   1.305  0.4334  0.3089  0.7913
  929SOL    HW2 2787   2.270   1.016   1.157  1.8356  1.1527  1.5245
  930SOL     OW 2788   1.840   2.376   1.465  0.0090 -0.2185  0.0078
  930SOL    HW1 2789   1.809   2.280   1.478  2.1993  3.6541 -0.1454
  930SOL    HW2 2790   1.940   2.390   1.485  1.3008 -0.1230  1.3050
  931SOL     OW 2791   1.848   1.195   1.253 -0.2916  0.1434 -0.0817
  931SOL    HW1 2792   1.935   1.242   1.237 -1.9257 -0.5603  1.2054
  931SOL    HW2 2793   1.850   1.093   1.229  2.0922 -2.2932 -1.1525
  932SOL     OW 2794   0.079   0.693   1.669 -0.3970 -0.0625  0.2525
  932SOL    HW1 2795   0.093   0.648   1.583 -1.1929  4.6050  2.2584
  932SOL    HW2 2796   0.138   0.779   1.672  0.3722  2.2975  1.3138
  933SOL     OW 2797   2.349   1.945   1.461  0.5830  0.2281  0.4802
  933SOL    HW1 2798   2.365   2.045   1.435 -0.8980  1.4380  0.1214
  933SOL    HW2 2799   2.318   1.947   1.557 -2.1676 -0.6596  3.2769
  934SOL     OW 2800   1.176   2.387   1.815 -0.3203 -0.2039 -0.1100
  934SOL    HW1 2801   1.133   2.447   1.744 -1.1736 -0.1895  0.5598
  934SOL    HW2 2802   1.202   2.455   1.891 -3.4265  1.1606 -0.2863
  935SOL     OW 2803   3.076   1.188   1.460 -0.2912  0.1483 -0.3265
  935SOL    HW1 2804   0.046   1.129   1.523  0.3750  2.8268 -0.6624
  935SOL    HW2 2805   0.022   1.180   1.363  1.8823  0.3923  0.3970
  936SOL     OW 2806   2.692   0.615   1.235  0.3167  0.2806  0.0902
  936SOL    HW1 2807   2.708   0.526   1.269 -0.6650  3.5300 -3.0708
  936SOL    HW2 2808   2.613   0.665   1.281 -0.7689 -0.1670  0.5207
  937SOL     OW 2809   1.350   0.291   1.382  0.6650 -0.3216  0.6480
  937SOL    HW1 2810   1.392   0.286   1.292 -1.3617  0.9593  3.0518
  937SOL    HW2 2811   1.298   0.380   1.383 -2.5578  1.1690 -2.2966
  938SOL     OW 2812   0.436   3.001   0.843 -0.4575  0.3483  0.1080
  938SOL    HW1 2813   0.348   2.949   0.843  0.6929 -0.4551  3.7941
  938SOL    HW2 2814   0.516   2.931   0.856 -2.0775 -2.5448  0.6878
  939SOL     OW 2815   0.028   1.987   2.727 -0.1923 -0.2170 -0.0125
  939SOL    HW1 2816   0.056   1.995   2.632 -0.9915 -0.2239 -0.3639
  939SOL    HW2 2817   0.011   2.079   2.769 -1.4017 -0.6140  0.1564
  940SOL     OW 2818   1.666   1.870   0.011  0.2351  0.2773  0.4584
  940SOL    HW1 2819   1.713   1.957   0.026 -0.0107 -2.9164  2.1377
  940SOL    HW2 2820   1.661   1.838   2.993 -0.4441  3.4679  1.5141
  941SOL     OW 2821   1.935   2.793   0.453 -0.1155  0.3096  0.1804
  941SOL    HW1 2822   1.917   2.880   0.503  1.0320  1.6207  0.1443
  941SOL    HW2 2823   1.846   2.751   0.420  0.4434  0.3760 -1.4764
  942SOL     OW 2824   1.964   1.855   0.823 -0.1606 -0.6772  0.0243
  942SOL    HW1 2825   1.876   1.907   0.824  1.3517  0.8688 -1.1380
  942SOL    HW2 2826   2.044   1.912   0.862  1.1947  0.6223  2.2038
  943SOL     OW 2827   1.785   0.604   1.499  0.2654 -0.1000  0.1471
  943SOL    HW1 2828   1.717   0.609   1.427 -0.0027  1.7305 -1.1777
  943SOL    HW2 2829   1.858   0.672   1.483  2.0646 -0.7435  0.2475
  944SOL     OW 2830   1.550   0.701   2.059  0.2014 -0.0740 -0.3243
  944SOL    HW1 2831   1.483   0.766   2.105 -1.2625  1.0649 -2.0201
  944SOL    HW2 2832   1.570   0.743   1.966  2.3602  1.8733 -0.5792
  945SOL     OW 2833   2.201   2.872   1.173 -0.2355  0.0205  0.0911
  945SOL    HW1 2834   2.283   2.875   1.232 -3.5862  1.2068 -2.0317
  945SOL    HW2 2835   2.119   2.919   1.214  0.8116 -2.2283  2.4115
  946SOL     OW 2836   0.701   1.418   0.570  0.4876 -0.1913  0.4700
  946SOL    HW1 2837   0.722   1.517   0.592 -0.6425 -1.3989  0.0159
  946SOL    HW2 2838   0.718   1.412   0.469 -2.0940 -1.2456  1.5853
  947SOL     OW 2839   1.083   2.481   1.071 -0.1653  0.2910  0.5856
  947SOL    HW1 2840   1.118   2.548   1.008  1.4894 -2.5098 -0.4688
  947SOL    HW2 2841   1.039   2.400   1.024 -0.6208 -1.8010  3.3717
  948SOL     OW 2842   0.386   1.659   1.116 -0.0762 -0.3339  0.1562
  948SOL    HW1 2843   0.404   1.625   1.022  0.8933  1.2074 -0.2483
  948SOL    HW2 2844   0.476   1.677   1.163 -0.6100  2.8817 -0.3556
  949SOL     OW 2845   0.771   1.251   1.646 -0.2991  0.2173  0.3284
  949SOL    HW1 2846   0.724   1.189   1.710  1.7915  1.4229 -1.8513
  949SOL    HW2 2847   0.820   1.202   1.574 -1.3606  0.4125  2.2568
  950SOL     OW 2848   0.621   0.663   1.281  0.0350 -0.3540  0.5762
  950SOL    HW1 2849   0.678   0.723   1.348 -0.7538 -0.7821  1.5410
  950SOL    HW2 2850   0.521   0.690   1.283 -1.2036 -0.5988  1.5017
  951SOL     OW 2851   0.584   2.115   1.985 -0.4442  0.6584  0.1521
  951SOL    HW1 2852   0.500   2.098   1.930  0.2328 -0.3238 -1.2071
  951SOL    HW2 2853   0.649   2.035   1.967  2.5829 -2.5884 -2.4772
  952SOL     OW 2854   0.902   1.746   0.007 -0.1183 -0.4536 -0.6391
  952SOL    HW1 2855   0.801   1.735   0.012 -0.6162  1.0022  0.6050
  952SOL    HW2 2856   0.936   1.784   0.097 -0.9816 -2.6315 -1.7883
  953SOL     OW 2857   0.913   2.810   0.034  0.1094  0.0704 -0.3582
  953SOL    HW1 2858   0.825   2.790   3.060 -0.1305  1.9769  0.0215
  953SOL    HW2 2859   0.954   2.722   0.061  0.2556  4.4810 -0.2706
  954SOL     OW 2860   1.648   1.359   3.022  0.1599  0.5159  0.5211
  954SOL    HW1 2861   1.698   1.354   0.029 -2.8892 -0.5906  1.4413
  954SOL    HW2 2862   1.699   1.405   2.949  0.2960  0.1116 -0.9123
  955SOL     OW 2863   0.178   2.422   3.051  0.2445 -0.5292 -0.4093
  955SOL    HW1 2864   0.248   2.494   3.066 -1.4207 -1.8141 -2.6100
  955SOL    HW2 2865   0.092   2.470   3.027 -0.1373 -2.4447  0.2372
  956SOL     OW 2866   1.222   0.953   1.216 -0.7987 -0.9449 -0.4090
  956SOL    HW1 2867   1.278   1.002   1.145 -1.4282  1.4262  3.1792
  956SOL    HW2 2868   1.261   0.977   1.308  0.4308 -0.1157  0.2938
  957SOL     OW 2869   1.489   1.900   1.622  0.0289 -0.3649  0.2361
  957SOL    HW1 2870   1.546   1.871   1.699 -0.7892  3.0460  0.0429
  957SOL    HW2 2871   1.419   1.974   1.642  1.2404  0.1744 -2.0979
  958SOL     OW 2872   0.936   1.960   1.704  0.1383  0.1489  0.5197
  958SOL    HW1 2873   0.981   1.878   1.659  0.9500  0.6041  1.2518
  958SOL    HW2 2874   0.888   2.013   1.628  0.6533  0.6015 -0.1254
  959SOL     OW 2875   1.666   1.237   1.003 -0.0421  0.1679 -0.6359
  959SOL    HW1 2876   1.731   1.285   0.940 -1.3625  1.0477 -1.7339
  959SOL    HW2 2877   1.708   1.237   1.095 -1.0075 -1.5023  0.8791
  960SOL     OW 2878   0.254   1.297   0.101  0.0947 -0.0450  0.2356
  960SOL    HW1 2879   0.315   1.374   0.129  0.4140 -0.1450 -2.1778
  960SOL    HW2 2880   0.287   1.208   0.132 -1.3971  1.4432 -0.2443
  961SOL     OW 2881   0.783   1.378   2.068 -0.0560 -0.1854 -0.1418
  961SOL    HW1 2882   0.689   1.392   2.115 -2.6720  2.9956 -0.7924
  961SOL    HW2 2883   0.847   1.452   2.094 -1.5497 -1.2316  0.3292
  962SOL     OW 2884   1.414   1.503   0.577 -0.3254 -0.0095  0.1340
  962SOL    HW1 2885   1.440   1.434   0.648  0.7806 -1.8156  2.0942
  962SOL    HW2 2886   1.319   1.494   0.542  1.4494  0.9687 -0.6175
  963SOL     OW 2887   1.465   1.874   2.674  0.0805 -0.8526 -0.0877
  963SOL    HW1 2888   1.498   1.950   2.621 -2.2809 -1.1165  1.5288
  963SOL    HW2 2889   1.362   1.875   2.674 -0.9022 -2.5777 -0.7261
  964SOL     OW 2890   0.602   2.968   0.338 -0.4484  0.1622  0.1280
  964SOL    HW1 2891   0.504   2.983   0.368  0.3261  1.3099  4.0691
  964SOL    HW2 2892   0.609   2.961   0.237  1.4961  1.4653  0.1492
  965SOL     OW 2893   0.500   2.579   0.863  0.1437  0.2114 -0.1100
  965SOL    HW1 2894   0.561   2.507   0.912  0.8723 -2.1169 -0.5330
  965SOL    HW2 2895   0.402   2.558   0.890 -0.9023  0.0378  0.3532
  966SOL     OW 2896   0.496   1.803   2.642  0.1913 -0.1135 -0.1693
  966SOL    HW1 2897   0.430   1.874   2.627  0.9239  0.8115 -0.2310
  966SOL    HW2 2898   0.450   1.713   2.624  2.9437 -0.1320 -1.1987
  967SOL     OW 2899   2.753   2.923   2.710  0.6434  0.5343  0.5314
  967SOL    HW1 2900   2.785   2.991   2.640  2.2250  0.1637  1.2836
  967SOL    HW2 2901   2.833   2.872   2.754 -0.2152 -0.8392  0.3029
  968SOL     OW 2902   2.150   0.690   0.281 -0.7730 -0.3081  0.6811
  968SOL    HW1 2903   2.107   0.608   0.235  2.0970  0.4443  2.7997
  968SOL    HW2 2904   2.187   0.752   0.208  0.8368  0.5672 -0.3088
  969SOL     OW 2905   0.421   0.955   1.824 -0.3901  0.1047  0.3704
  969SOL    HW1 2906   0.376   1.020   1.761  1.4583 -0.1035  2.6335
  969SOL    HW2 2907   0.374   0.962   1.915 -1.7064  1.9158  0.0293
  970SOL     OW 2908   2.484   1.381   1.196  0.0179 -0.2320  0.1898
  970SOL    HW1 2909   2.401   1.347   1.238 -1.0066  1.5096  3.5414
  970SOL    HW2 2910   2.520   1.318   1.127 -0.8695 -2.4415  1.0657
  971SOL     OW 2911   2.319   0.252   0.986 -0.5076  0.6099 -0.0275
  971SOL    HW1 2912   2.296   0.278   0.891  0.9301  0.5821  2.5983
  971SOL    HW2 2913   2.311   0.149   0.996 -0.8842 -0.6930 -0.4324
  972SOL     OW 2914   0.123   2.827   1.773 -0.1159  0.6968 -0.4433
  972SOL    HW1 2915   0.225   2.835   1.786  0.9937  0.6891 -0.8205
  972SOL    HW2 2916   0.083   2.903   1.717  2.5563  2.4522 -2.6839
  973SOL     OW 2917   0.088   0.524   0.018  0.2486  0.1848  0.1035
  973SOL    HW1 2918   0.151   0.597   0.057  2.3885 -1.7493  4.4725
  973SOL    HW2 2919   0.134   0.466   3.028  0.3095  0.9658  0.6976
  974SOL     OW 2920   1.822   1.433   2.141  0.5753 -0.2316 -0.0752
  974SOL    HW1 2921   1.743   1.435   2.081 -2.0535 -0.7727 -2.0567
  974SOL    HW2 2922   1.908   1.451   2.089  0.4077 -1.3967 -1.4125
  975SOL     OW 2923   2.956   2.968   1.602 -0.3406  0.6756  0.3252
  975SOL    HW1 2924   3.006   3.036   1.549 -0.2424 -2.2885  1.8329
  975SOL    HW2 2925   2.872   3.016   1.635  0.0456  2.7176  2.0753
  976SOL     OW 2926   0.400   1.953   2.143  0.2655 -0.2831  0.1390
  976SOL    HW1 2927   0.484   2.004   2.158  1.4486 -0.9813 -0.3928
  976SOL    HW2 2928   0.398   1.901   2.056 -0.1178 -1.5349  0.3934
  977SOL     OW 2929   0.890   2.392   0.513  0.1297 -0.2339 -0.3022
  977SOL    HW1 2930   0.822   2.404   0.436 -2.5617 -1.1898  1.0332
  977SOL    HW2 2931   0.948   2.474   0.536 -0.1315  3.5996  2.8279
  978SOL     OW 2932   0.097   1.699   2.522  0.3049 -0.6215 -0.1696
  978SOL    HW1 2933   0.168   1.651   2.463  0.2545  2.6238 -0.5812
  978SOL    HW2 2934   0.010   1.659   2.496  2.6987  1.4092  0.6166
  979SOL     OW 2935   1.589   2.709   1.414 -0.0919  0.2480 -0.5918
  979SOL    HW1 2936   1.648   2.654   1.479 -0.6801  0.6964  1.6837
  979SOL    HW2 2937   1.492   2.675   1.411 -4.3708 -3.1242  0.4209
  980SOL     OW 2938   0.818   1.445   3.015 -0.0910  0.1565 -0.8004
  980SOL    HW1 2939   0.813   1.514   0.013  0.1036  0.4123  0.9027
  980SOL    HW2 2940   0.733   1.393   3.007  0.7976  0.7067  0.2284
  981SOL     OW 2941   2.153   0.059   2.226  0.3911  0.0627  0.1538
  981SOL    HW1 2942   2.251   0.061   2.236  0.7621  0.6955 -1.6321
  981SOL    HW2 2943   2.117   0.039   2.133 -2.0789  1.4550 -1.9835
  982SOL     OW 2944   0.135   0.126   2.798  0.3657 -0.9345 -0.5323
  982SOL    HW1 2945   0.063   0.161   2.735 -1.7918  0.5991 -1.9441
  982SOL    HW2 2946   0.218   0.089   2.749 -1.5845  0.7034 -1.7665
  983SOL     OW 2947   2.044   1.168   2.048 -0.3798 -0.0307  0.2026
  983SOL    HW1 2948   2.044   1.183   1.952  3.3124 -0.9312  2.2768
  983SOL    HW2 2949   1.978   1.097   2.073 -0.1826  1.2545 -0.2056
  984SOL     OW 2950   1.346   0.502   2.076 -0.0692 -0.3961  0.4501
  984SOL    HW1 2951   1.340   0.426   2.005 -0.3776 -1.2501 -0.6834
  984SOL    HW2 2952   1.441   0.536   2.086  0.2522 -1.2670  0.4949
  985SOL     OW 2953   1.705   1.478   1.591 -0.0423 -0.4625  0.0159
  985SOL    HW1 2954   1.615   1.483   1.628  0.9733  0.1845 -0.6281
  985SOL    HW2 2955   1.726   1.383   1.559  2.8553 -0.2821  0.4586
  986SOL     OW 2956   1.949   0.372   1.497  0.2846  0.7449 -0.2410
  986SOL    HW1 2957   2.002   0.349   1.587 -0.5285  0.1032 -1.2711
  986SOL    HW2 2958   1.906   0.464   1.508 -1.5735  0.5716 -0.3363
  987SOL     OW 2959   2.355   0.474   1.503  0.0551  0.0358 -0.5962
  987SOL    HW1 2960   2.274   0.516   1.550  2.7610  2.2180  2.3743
  987SOL    HW2 2961   2.327   0.430   1.415  0.6822 -0.9309 -0.3450
  988SOL     OW 2962   2.882   0.707   2.120  0.2171 -0.7909 -0.0959
  988SOL    HW1 2963   2.904   0.665   2.028  1.5464  0.4488 -3.4618
  988SOL    HW2 2964   2.868   0.633   2.189 -1.8219  0.6245 -0.0178
  989SOL     OW 2965   2.020   1.784   2.976  0.7446  0.3872  0.3092
  989SOL    HW1 2966   1.978   1.764   2.888 -0.1068  1.4921  0.2864
  989SOL    HW2 2967   2.033   1.887   2.988  0.7226  0.3577  2.6455
  990SOL     OW 2968   1.182   0.448   3.045  0.2612 -0.5764  0.2149
  990SOL    HW1 2969   1.099   0.429   2.987  0.7080 -0.3265 -1.3244
  990SOL    HW2 2970   1.208   0.548   3.050  4.4170  1.9876 -0.1533
  991SOL     OW 2971   1.376   0.842   0.198 -0.1156 -0.0069  0.3077
  991SOL    HW1 2972   1.470   0.837   0.163 -0.4125 -0.4583  0.2991
  991SOL    HW2 2973   1.310   0.810   0.124  0.4307 -3.8126 -0.3938
  992SOL     OW 2974   2.035   1.358   3.016  0.2917  0.4356 -0.2478
  992SOL    HW1 2975   2.002   1.379   2.922  0.1141  1.2871  1.8337
  992SOL    HW2 2976   1.959   1.351   0.007 -2.0665  1.2668  1.5369
  993SOL     OW 2977   0.138   0.419   0.604 -0.0647  0.1666  0.1461
  993SOL    HW1 2978   0.187   0.366   0.525  2.3216  0.7265 -1.6819
  993SOL    HW2 2979   0.125   0.516   0.582  0.9639 -0.6101 -0.0488
  994SOL     OW 2980   3.067   1.805   2.143 -0.5318  0.0444  0.3612
  994SOL    HW1 2981   3.011   1.797   2.231 -1.2863 -0.8030  4.0647
  994SOL    HW2 2982   0.087   1.784   2.163 -1.2822  1.6636 -0.0629
  995SOL     OW 2983   1.831   1.395   2.417  0.1931 -0.5361  0.1096
  995SOL    HW1 2984   1.842   1.397   2.314 -0.0099  1.2721  1.5146
  995SOL    HW2 2985   1.855   1.303   2.451  1.8195  2.0495 -0.5209
  996SOL     OW 2986   1.913   1.823   2.679 -0.1036 -0.3222  0.1027
  996SOL    HW1 2987   1.913   1.910   2.634  0.4854 -3.2042 -0.0162
  996SOL    HW2 2988   1.912   1.747   2.607 -0.5569  0.6102  1.0150
  997SOL     OW 2989   2.516   1.521   1.602 -0.5573  0.3143 -0.1610
  997SOL    HW1 2990   2.542   1.535   1.502 -0.9151 -0.8022 -3.1393
  997SOL    HW2 2991   2.591   1.492   1.661 -1.6564  1.1324  0.7134
  998SOL     OW 2992   2.354   1.361   0.562  0.1032 -1.0713 -0.4601
  998SOL    HW1 2993   2.270   1.329   0.514  1.0743  1.6628  1.6481
  998SOL    HW2 2994   2.321   1.412   0.644  1.0845 -0.6805 -2.4143
  999SOL     OW 2995   2.858   2.589   0.313 -0.4573  0.5097 -0.1477
  999SOL    HW1 2996   2.889   2.602   0.410  1.5150 -0.7113  0.0737
  999SOL    HW2 2997   2.844   2.680   0.263  0.8224  2.8671 -3.0969
 1000SOL     OW 2998   0.778   0.238   1.997 -0.1898 -0.2561  0.6294
 1000SOL    HW1 2999   0.808   0.223   2.094  3.2112  3.0784 -1.4124
 1000SOL    HW2 3000   0.744   0.333   1.989  0.4187  1.1421  2.9672
   3.07852   3.07852   3.07852
