1000 SPC/Fw water molecules t= 337.00000 step= 337000
 3000
    1SOL     OW    1   2.533   0.246   1.366 -0.3931 -0.0709 -0.8628
    1SOL    HW1    2   2.606   0.178   1.358  0.7703  1.1652 -0.2222
    1SOL    HW2    3   2.490   0.256   1.461 -1.0138 -0.0913 -1.5114
    2SOL     OW    4   2.721   2.586   1.026  0.2130  0.4341  0.1494
    2SOL    HW1    5   2.744   2.621   1.121 -0.5425 -1.2720  3.0085
    2SOL    HW2    6   2.659   2.503   1.039 -1.9130  0.0535  1.9625
    3SOL     OW    7   1.045   2.793   2.776 -0.5680  0.3886 -0.0556
    3SOL    HW1    8   1.043   2.773   2.873 -1.0591 -0.3568 -1.7552
    3SOL    HW2    9   0.958   2.829   2.739  1.7760 -2.0797  0.8320
    4SOL     OW   10   1.906   2.609   2.073  0.0417  0.5673 -0.1304
    4SOL    HW1   11   1.913   2.699   2.121  1.1639  0.0159 -3.2986
    4SOL    HW2   12   1.890   2.631   1.976  1.2095 -2.7431  0.0132
    5SOL     OW   13   1.498   1.051   1.749 -0.5845  0.1743  0.1214
    5SOL    HW1   14   1.566   0.988   1.708 -1.0056 -2.3911 -2.3738
    5SOL    HW2   15   1.492   1.047   1.852  1.9296  1.5039 -0.2991
    6SOL     OW   16   2.007   2.813   0.733  0.5465  0.1749  0.2562
    6SOL    HW1   17   1.933   2.740   0.723 -2.2872  0.1799 -1.6425
    6SOL    HW2   18   2.042   2.821   0.828 -0.2501 -0.4462 -2.7772
    7SOL     OW   19   2.072   1.283   1.169 -0.7170  0.4109  0.2459
    7SOL    HW1   20   2.016   1.355   1.215 -1.4131 -0.5172  2.3242
    7SOL    HW2   21   2.011   1.218   1.115  1.3979 -0.1355  1.2953
    8SOL     OW   22   0.797   1.785   1.231  0.1099  0.4711  0.1207
    8SOL    HW1   23   0.719   1.723   1.259  0.3636  0.0407 -2.1298
    8SOL    HW2   24   0.792   1.874   1.277  0.5851  1.2253  1.0769
    9SOL     OW   25   1.164   2.444   2.045 -0.6063  0.5720  0.0876
    9SOL    HW1   26   1.103   2.431   2.123  2.1903 -0.3579 -2.9060
    9SOL    HW2   27   1.148   2.376   1.970  3.3176 -1.6168  0.8517
   10SOL     OW   28   0.262   2.162   0.778  0.5233 -0.1906 -0.0735
   10SOL    HW1   29   0.327   2.080   0.775  0.1228 -2.6946 -2.2341
   10SOL    HW2   30   0.269   2.211   0.865 -0.8231  0.0290  0.4078
   11SOL     OW   31   1.509   2.065   1.080  0.0581 -0.2801 -0.2463
   11SOL    HW1   32   1.475   2.114   1.166 -1.3888  0.4890 -0.0640
   11SOL    HW2   33   1.432   2.030   1.020  1.3270  0.1556 -0.7147
   12SOL     OW   34   2.314   0.302   2.137  0.2242 -0.1923  0.3087
   12SOL    HW1   35   2.392   0.349   2.098 -1.3008  0.8181 -2.1589
   12SOL    HW2   36   2.268   0.248   2.067  0.9722  0.2192  1.5281
   13SOL     OW   37   2.773   2.759   0.676  0.2359  0.2619  0.3742
   13SOL    HW1   38   2.715   2.791   0.751 -0.3655 -0.0325  0.5739
   13SOL    HW2   39   2.870   2.756   0.706 -0.2336  3.0944  1.3306
   14SOL     OW   40   1.517   1.631   3.049 -0.2780 -0.2106 -0.1483
   14SOL    HW1   41   1.589   1.567   3.018 -0.1521  1.6531  0.2002
   14SOL    HW2   42   1.525   1.716   3.004  1.4689 -1.5061  1.7480
   15SOL     OW   43   2.870   2.722   1.598  0.0057 -0.2036 -0.0076
   15SOL    HW1   44   2.946   2.793   1.590  1.0410  2.9633  1.2062
   15SOL    HW2   45   2.784   2.776   1.587 -0.2095  0.6183  1.5979
   16SOL     OW   46   2.722   2.886   0.210 -0.2192 -0.0785  0.1046
   16SOL    HW1   47   2.692   2.841   0.295 -1.3618  0.9489 -0.2001
   16SOL    HW2   48   2.822   2.885   0.207 -0.0106  0.0367 -0.6348
   17SOL     OW   49   0.343   0.299   1.046 -0.1178 -0.5090 -0.4241
   17SOL    HW1   50   0.403   0.381   1.054 -4.0889  0.3398  0.5459
   17SOL    HW2   51   0.385   0.233   1.114  0.2845  1.8535  2.1333
   18SOL     OW   52   2.342   0.675   0.489 -0.2840  0.1947  0.1361
   18SOL    HW1   53   2.337   0.768   0.532 -0.4361  0.5134  1.0131
   18SOL    HW2   54   2.418   0.621   0.516 -0.9081 -0.8510 -2.5098
   19SOL     OW   55   1.681   1.861   0.268  0.3509  0.5138  0.4591
   19SOL    HW1   56   1.703   1.921   0.349 -2.1693 -2.0193 -0.0829
   19SOL    HW2   57   1.746   1.881   0.189 -0.8704 -0.0142 -0.0539
   20SOL     OW   58   2.512   2.067   2.293  0.2124  0.0902 -0.4467
   20SOL    HW1   59   2.493   2.000   2.224  0.9231 -1.6684  0.5922
   20SOL    HW2   60   2.426   2.113   2.317 -0.9128 -2.2687 -1.1902
   21SOL     OW   61   1.828   0.065   0.492  0.2035  0.3828 -0.0589
   21SOL    HW1   62   1.836   3.087   0.488  0.8372 -2.3491 -1.2513
   21SOL    HW2   63   1.920   0.103   0.473 -0.7625  2.1008  1.7851
   22SOL     OW   64   2.465   0.254   1.642  0.0207  0.1881 -0.3326
   22SOL    HW1   65   2.422   0.172   1.687 -0.6507 -3.4318  0.8306
   22SOL    HW2   66   2.414   0.336   1.677 -0.0380 -0.9468  1.5042
   23SOL     OW   67   0.459   0.756   1.727  0.1682 -0.3290 -0.0716
   23SOL    HW1   68   0.483   0.789   1.820  2.0675  0.4427 -1.6400
   23SOL    HW2   69   0.394   0.815   1.674 -2.2912  1.1489  0.1681
   24SOL     OW   70   2.681   2.739   0.419  0.0099 -0.3469  0.1711
   24SOL    HW1   71   2.693   2.643   0.397 -1.6295  0.8999  1.1085
   24SOL    HW2   72   2.700   2.757   0.519 -1.6411 -1.7683  0.6299
   25SOL     OW   73   1.183   2.610   2.542  0.1802 -0.2080 -0.8190
   25SOL    HW1   74   1.177   2.688   2.605  0.8211  2.1932  0.1249
   25SOL    HW2   75   1.186   2.641   2.447 -2.7132 -0.7508 -0.0397
   26SOL     OW   76   1.199   2.493   0.185  0.4277  0.1196 -0.0151
   26SOL    HW1   77   1.235   2.474   0.089 -0.8564  0.5544  1.0513
   26SOL    HW2   78   1.255   2.558   0.238 -0.0857 -0.3431 -1.2733
   27SOL     OW   79   2.171   1.040   2.966 -0.4534 -0.2265 -0.2908
   27SOL    HW1   80   2.148   1.060   3.067  0.8095  1.1653  2.7784
   27SOL    HW2   81   2.263   1.082   2.941 -1.1315  0.0230 -0.2096
   28SOL     OW   82   1.122   1.635   0.967 -0.3179  0.0364  0.3352
   28SOL    HW1   83   1.103   1.541   0.994 -1.6376  1.3061  1.7585
   28SOL    HW2   84   1.032   1.684   0.956 -1.3516  1.0458  0.0473
   29SOL     OW   85   3.062   2.717   1.909  0.1685  0.5277  0.4485
   29SOL    HW1   86   0.025   2.695   1.860  0.3123 -0.7103  1.1818
   29SOL    HW2   87   3.001   2.636   1.908  1.9071  1.3591  1.7081
   30SOL     OW   88   1.334   0.104   1.322 -0.0999  0.2090  0.3872
   30SOL    HW1   89   1.414   0.049   1.352  1.0832  0.6905  0.6340
   30SOL    HW2   90   1.366   0.164   1.247 -1.6884 -0.2962  1.0451
   31SOL     OW   91   2.169   3.023   2.425  0.9211  0.5885 -0.5113
   31SOL    HW1   92   2.107   2.986   2.504 -3.2577 -0.9932  1.6926
   31SOL    HW2   93   2.118   3.101   2.377 -5.0672  0.3969 -1.4658
   32SOL     OW   94   0.668   1.384   0.239 -0.2865  0.5730 -0.1791
   32SOL    HW1   95   0.752   1.330   0.216 -0.2904 -3.1577  0.6406
   32SOL    HW2   96   0.678   1.451   0.315  0.9579  1.4543  0.6025
   33SOL     OW   97   0.183   0.962   2.488  0.2537  0.5867  0.3053
   33SOL    HW1   98   0.241   0.881   2.473  1.4198  2.3358  0.2513
   33SOL    HW2   99   0.149   0.996   2.394 -0.6380  1.1235 -3.8377
   34SOL     OW  100   2.629   3.051   0.660 -0.1940 -0.1796 -0.3588
   34SOL    HW1  101   2.543   3.013   0.618 -2.3660  0.1005 -0.9985
   34SOL    HW2  102   2.640   3.040   0.761  1.2822  0.2081  0.8618
   35SOL     OW  103   2.412   2.830   2.089  0.0911 -0.1112 -0.1645
   35SOL    HW1  104   2.347   2.753   2.063 -1.1253  1.0791  0.0424
   35SOL    HW2  105   2.363   2.896   2.155  0.0295  2.5209  2.1713
   36SOL     OW  106   2.208   2.223   3.116  0.2308 -0.2229  0.2260
   36SOL    HW1  107   2.280   2.294   3.097 -0.0628  0.2797 -1.1273
   36SOL    HW2  108   2.137   2.229   3.040 -1.0201  1.3245 -1.0148
   37SOL     OW  109   1.426   0.464   2.307  0.5100  0.6158  0.0636
   37SOL    HW1  110   1.485   0.537   2.349  0.0571 -2.0593  0.8621
   37SOL    HW2  111   1.400   0.393   2.376  1.8763  2.0134  0.0197
   38SOL     OW  112   0.261   0.511   2.674  0.1145  0.1920 -0.3771
   38SOL    HW1  113   0.227   0.571   2.750  0.5163 -0.2438 -0.7738
   38SOL    HW2  114   0.354   0.540   2.652 -0.8842  2.2540  0.9457
   39SOL     OW  115   2.008   1.402   1.637 -0.2326  0.0631  0.1794
   39SOL    HW1  116   2.098   1.425   1.601 -0.7386  0.5660  0.0793
   39SOL    HW2  117   2.010   1.425   1.738  1.8166  1.7450  2.3193
   40SOL     OW  118   1.412   2.667   0.275  0.1768  0.3245  0.1882
   40SOL    HW1  119   1.415   2.756   0.324  0.3694 -1.0740  1.4706
   40SOL    HW2  120   1.438   2.589   0.331  0.8427  2.8361 -0.7480
   41SOL     OW  121   2.386   1.346   0.840  0.2578 -0.1550 -0.3129
   41SOL    HW1  122   2.386   1.333   0.941  1.0485  0.8714  0.0857
   41SOL    HW2  123   2.480   1.367   0.811  0.2396  2.5419  0.8091
   42SOL     OW  124   0.926   0.376   1.244  0.3823  0.1814 -0.3345
   42SOL    HW1  125   0.998   0.345   1.179  1.3015 -0.4675 -0.3845
   42SOL    HW2  126   0.925   0.314   1.328  1.6143 -1.8695  1.5044
   43SOL     OW  127   0.064   1.454   2.375 -0.1781  0.0494 -0.7379
   43SOL    HW1  128   0.031   1.361   2.401  1.1349 -1.1278  0.3279
   43SOL    HW2  129   0.166   1.461   2.395 -1.0433  0.7639  1.7101
   44SOL     OW  130   2.424   0.016   1.758  0.0474  0.1697  0.0932
   44SOL    HW1  131   2.355   0.056   1.823 -0.8748 -0.7047  0.2661
   44SOL    HW2  132   2.471   3.057   1.800  0.4074 -0.9473  1.3503
   45SOL     OW  133   1.447   2.944   2.285  0.1304  0.3668 -0.3237
   45SOL    HW1  134   1.526   2.879   2.274  0.8610 -0.6264  0.0171
   45SOL    HW2  135   1.430   2.963   2.384 -2.1086  0.0669  1.6785
   46SOL     OW  136   0.949   2.463   2.669 -0.1517 -0.0096  0.3000
   46SOL    HW1  137   1.022   2.491   2.603  0.4958  1.7659 -2.1241
   46SOL    HW2  138   0.863   2.501   2.631  0.5041 -1.6758 -1.6932
   47SOL     OW  139   1.594   1.632   0.783 -0.4598  0.0921 -0.3245
   47SOL    HW1  140   1.539   1.689   0.717  1.7034 -0.0560  1.0953
   47SOL    HW2  141   1.689   1.605   0.746 -2.1174 -2.7577 -2.0762
   48SOL     OW  142   1.255   2.380   0.701  0.4514 -0.2171 -0.4553
   48SOL    HW1  143   1.248   2.311   0.628 -2.0284  1.9206  0.3307
   48SOL    HW2  144   1.217   2.339   0.789 -0.4552 -2.5552  1.0835
   49SOL     OW  145   2.014   0.085   2.776  0.5065 -0.6497  0.2810
   49SOL    HW1  146   1.978   3.120   2.751 -0.7223 -1.1595  1.1288
   49SOL    HW2  147   2.042   0.135   2.691 -0.0928 -2.0960  0.6738
   50SOL     OW  148   1.844   3.088   3.019 -0.0113 -0.2111  0.0826
   50SOL    HW1  149   1.928   0.015   3.045  2.0121 -0.3988  0.0745
   50SOL    HW2  150   1.784   0.021   2.964  0.7815  0.7308 -1.0202
   51SOL     OW  151   2.342   0.736   1.318  0.4300  0.5430  0.4494
   51SOL    HW1  152   2.365   0.660   1.385 -0.6751 -1.9021 -1.5350
   51SOL    HW2  153   2.427   0.790   1.300 -1.4070  1.4999 -0.9495
   52SOL     OW  154   0.990   1.601   0.622  0.3699  0.5065 -0.4489
   52SOL    HW1  155   0.988   1.661   0.540 -0.4864  0.0200  2.2464
   52SOL    HW2  156   1.084   1.603   0.658 -1.3665 -0.9363  0.6241
   53SOL     OW  157   0.326   1.684   2.614 -0.0319 -0.0384 -0.2017
   53SOL    HW1  158   0.311   1.786   2.608  1.4619 -0.6848  1.7999
   53SOL    HW2  159   0.327   1.660   2.710  0.8456  0.0183 -1.6213
   54SOL     OW  160   2.627   1.462   1.748 -0.0438  0.1447 -0.0858
   54SOL    HW1  161   2.654   1.555   1.710 -1.5499  0.6482 -0.7670
   54SOL    HW2  162   2.686   1.438   1.832  1.0614  0.3377  1.1539
   55SOL     OW  163   2.412   1.910   0.578  0.0842  0.0655 -0.1416
   55SOL    HW1  164   2.432   1.838   0.651 -1.8502 -0.0496  4.7710
   55SOL    HW2  165   2.354   1.989   0.616 -0.6561 -0.1439  1.3336
   56SOL     OW  166   1.353   0.217   1.656  0.2813  0.1690 -0.2386
   56SOL    HW1  167   1.301   0.253   1.579 -1.4558 -0.2496 -1.9336
   56SOL    HW2  168   1.321   0.257   1.741  1.6168  1.2084 -2.5443
   57SOL     OW  169   1.573   1.053   2.799 -0.7078  0.6337 -0.1801
   57SOL    HW1  170   1.611   0.991   2.722  0.4436 -0.0258 -2.1249
   57SOL    HW2  171   1.532   1.144   2.772  0.5474 -0.9801 -3.0701
   58SOL     OW  172   0.144   0.441   1.200 -0.2266 -0.3131 -0.3950
   58SOL    HW1  173   0.206   0.373   1.152  2.5320  1.0204  0.3562
   58SOL    HW2  174   0.161   0.537   1.168 -0.0881 -2.8483  0.9574
   59SOL     OW  175   1.611   2.734   0.111  0.0466 -0.5703  0.4793
   59SOL    HW1  176   1.614   2.837   0.112 -1.2654  3.6793  1.4400
   59SOL    HW2  177   1.528   2.711   0.167  2.0187  0.9488  3.3820
   60SOL     OW  178   2.910   1.994   3.054  0.3728 -0.0783  0.0547
   60SOL    HW1  179   2.974   1.920   3.089  2.0860 -1.0260  0.8241
   60SOL    HW2  180   2.828   1.947   3.008 -0.2272 -1.5265 -1.9743
   61SOL     OW  181   0.918   2.649   0.810  0.4403  0.0323  0.0459
   61SOL    HW1  182   0.856   2.707   0.874 -0.7320  0.6205 -1.5093
   61SOL    HW2  183   0.921   2.552   0.840 -1.3683 -2.3016  0.6619
   62SOL     OW  184   1.740   1.498   2.664 -0.5609  0.2896 -0.3982
   62SOL    HW1  185   1.661   1.560   2.685 -1.3251 -0.6019  0.3035
   62SOL    HW2  186   1.778   1.452   2.747  0.0121 -0.2718 -1.2306
   63SOL     OW  187   2.345   2.156   0.239  0.0709 -0.2041  0.1024
   63SOL    HW1  188   2.447   2.174   0.227  2.1709  1.8934  0.0170
   63SOL    HW2  189   2.291   2.184   0.156 -3.1666  2.1410 -1.2334
   64SOL     OW  190   1.803   0.982   0.232 -0.2881 -0.3935 -0.2502
   64SOL    HW1  191   1.824   0.907   0.166  1.5069 -2.3356 -1.4796
   64SOL    HW2  192   1.736   0.956   0.305  0.9337 -0.3957  1.4481
   65SOL     OW  193   1.899   1.829   2.315 -0.3586  0.3497 -0.7369
   65SOL    HW1  194   1.976   1.815   2.384  2.5104 -0.8266  2.3070
   65SOL    HW2  195   1.931   1.842   2.218 -1.2665  0.4783  0.7562
   66SOL     OW  196   0.275   0.845   1.280 -0.3321 -0.0473 -0.3111
   66SOL    HW1  197   0.362   0.825   1.232  0.5224  0.8695 -3.3134
   66SOL    HW2  198   0.248   0.940   1.253 -1.6994 -1.6761 -0.9329
   67SOL     OW  199   2.312   2.763   2.671  0.1253  0.1042  0.1766
   67SOL    HW1  200   2.246   2.837   2.656  1.6865  0.4753  2.5754
   67SOL    HW2  201   2.326   2.710   2.583 -0.3954  0.9158 -1.4453
   68SOL     OW  202   1.090   2.416   1.476  0.4487 -0.0541 -0.3800
   68SOL    HW1  203   1.148   2.438   1.395 -1.3903  2.7097 -1.3984
   68SOL    HW2  204   1.148   2.383   1.549 -0.0906  1.2361 -1.9654
   69SOL     OW  205   0.698   2.458   0.006 -0.0652  0.1184  0.7889
   69SOL    HW1  206   0.634   2.456   0.086  0.6487  1.0610 -2.9351
   69SOL    HW2  207   0.796   2.436   0.033  1.6561 -0.5868  1.9568
   70SOL     OW  208   3.026   0.586   2.409 -0.3920  0.5165  0.2028
   70SOL    HW1  209   3.058   0.580   2.312  0.0367 -1.0778  1.1081
   70SOL    HW2  210   3.035   0.682   2.443 -3.4318 -0.3835  0.2783
   71SOL     OW  211   0.728   1.808   2.879  0.4176 -0.3972  0.1554
   71SOL    HW1  212   0.727   1.724   2.938 -0.2958  0.9371 -1.8774
   71SOL    HW2  213   0.720   1.895   2.935  1.9628 -1.3369  0.6139
   72SOL     OW  214   3.046   1.669   2.307 -0.5231  0.0361  0.5175
   72SOL    HW1  215   3.093   1.578   2.330 -5.4168 -2.3181 -1.5993
   72SOL    HW2  216   3.108   1.750   2.320  0.5080  1.3789  1.6043
   73SOL     OW  217   1.678   1.319   0.464 -0.5228  0.4721 -0.1265
   73SOL    HW1  218   1.719   1.293   0.373 -1.7766  0.4493 -0.5128
   73SOL    HW2  219   1.702   1.258   0.545 -1.0472  0.8059 -0.4390
   74SOL     OW  220   2.249   2.650   2.981  0.1452 -0.2539 -0.4239
   74SOL    HW1  221   2.245   2.680   2.885 -1.4782 -5.2195  0.9721
   74SOL    HW2  222   2.314   2.571   2.997 -0.3334 -0.9401  1.0495
   75SOL     OW  223   2.115   1.983   0.836 -0.6483  0.2772  0.4112
   75SOL    HW1  224   2.071   2.063   0.881 -2.3116  0.8957  0.5206
   75SOL    HW2  225   2.101   1.900   0.896  0.7674  0.1624 -1.0778
   76SOL     OW  226   2.740   2.138   2.143  0.7847  0.1536 -0.1416
   76SOL    HW1  227   2.649   2.133   2.191  1.8582  4.9564 -1.3668
   76SOL    HW2  228   2.734   2.219   2.080 -1.9059 -1.5248 -2.3895
   77SOL     OW  229   2.746   0.247   2.304  0.0634 -0.4028  0.2586
   77SOL    HW1  230   2.651   0.208   2.294 -0.3580 -2.4335  0.6586
   77SOL    HW2  231   2.811   0.186   2.251 -1.1735 -0.8361 -0.3614
   78SOL     OW  232   2.102   1.136   0.094  0.1068  0.4566  0.6658
   78SOL    HW1  233   2.172   1.186   0.153  0.6798  0.7207 -0.9993
   78SOL    HW2  234   2.005   1.169   0.114 -3.6119 -0.5445  1.0328
   79SOL     OW  235   2.659   1.672   2.703  0.0833 -0.0972  0.3076
   79SOL    HW1  236   2.579   1.631   2.652 -1.9939 -0.6970  0.3989
   79SOL    HW2  237   2.699   1.751   2.656 -0.6563  1.7140  0.1609
   80SOL     OW  238   1.445   1.643   1.650 -0.0894  0.3736 -0.1935
   80SOL    HW1  239   1.438   1.740   1.675  1.0117  0.1533 -1.3473
   80SOL    HW2  240   1.471   1.580   1.732  0.8124 -2.1243  1.0880
   81SOL     OW  241   1.776   0.785   1.967 -0.0461 -0.1647 -0.0560
   81SOL    HW1  242   1.824   0.733   2.043  0.2691  1.5650  1.4665
   81SOL    HW2  243   1.808   0.752   1.874 -0.5681 -2.5372  0.4965
   82SOL     OW  244   1.793   1.886   1.624 -0.4893 -0.0406  0.8448
   82SOL    HW1  245   1.818   1.807   1.682  1.4732 -1.4770 -2.1082
   82SOL    HW2  246   1.879   1.938   1.595 -1.0513 -0.0950  1.0993
   83SOL     OW  247   3.114   0.096   0.298  0.2666  0.4678  0.1292
   83SOL    HW1  248   3.104   0.137   0.392  1.0781  0.0370  1.3237
   83SOL    HW2  249   3.038   0.124   0.232  0.3967 -0.7741 -1.0050
   84SOL     OW  250   0.803   0.805   3.123 -0.5595 -0.1545  0.0659
   84SOL    HW1  251   0.783   0.771   0.093 -3.0438  1.7898 -0.1059
   84SOL    HW2  252   0.731   0.862   3.086  4.1222 -1.1109  1.0022
   85SOL     OW  253   2.457   2.063   1.483  0.0762  0.0743  0.1087
   85SOL    HW1  254   2.414   1.974   1.451 -1.8352 -2.7835 -0.7550
   85SOL    HW2  255   2.485   2.128   1.405 -0.6472  5.3706 -1.0515
   86SOL     OW  256   0.459   2.746   1.332  0.3374 -0.1788  0.0147
   86SOL    HW1  257   0.556   2.753   1.365 -0.3461 -1.4657  0.0614
   86SOL    HW2  258   0.459   2.751   1.231  1.8989  0.4788  0.4343
   87SOL     OW  259   0.470   2.525   2.361 -0.0131  0.2217 -0.3195
   87SOL    HW1  260   0.546   2.509   2.301  3.3669  0.5069  0.3487
   87SOL    HW2  261   0.382   2.484   2.327  1.8140  0.3360  0.4979
   88SOL     OW  262   0.178   2.437   0.353  0.0409 -0.5245  0.0604
   88SOL    HW1  263   0.149   2.364   0.289 -0.2194  1.5878  2.7497
   88SOL    HW2  264   0.230   2.402   0.429 -3.2444  1.1857 -2.6199
   89SOL     OW  265   0.936   0.950   0.934  0.6531 -0.0547 -0.1648
   89SOL    HW1  266   0.987   0.868   0.899 -0.7653 -1.2170  1.5114
   89SOL    HW2  267   0.975   0.974   1.025 -1.3164 -0.4532  1.1684
   90SOL     OW  268   0.207   1.104   1.732  0.1010  0.4131 -0.5554
   90SOL    HW1  269   0.184   1.199   1.702 -0.6731 -0.9478  1.0668
   90SOL    HW2  270   0.294   1.107   1.787  2.0638  0.3739  2.7642
   91SOL     OW  271   1.054   0.735   0.825 -0.4501  0.1880  0.3787
   91SOL    HW1  272   1.071   0.683   0.736  1.7393  0.0419  0.9982
   91SOL    HW2  273   1.107   0.695   0.904  2.3090 -1.9881 -2.2052
   92SOL     OW  274   1.929   1.074   1.005 -0.5948 -0.3037 -0.6830
   92SOL    HW1  275   1.936   0.992   1.064  1.9704 -0.6701 -1.4025
   92SOL    HW2  276   1.968   1.060   0.909 -1.4861 -0.1141 -0.9940
   93SOL     OW  277   2.647   1.105   2.294  0.5396 -0.0795  0.2168
   93SOL    HW1  278   2.685   1.015   2.308 -0.9752  1.4753 -0.3009
   93SOL    HW2  279   2.558   1.110   2.336  1.0297 -0.5885  0.5610
   94SOL     OW  280   2.053   1.635   2.814  0.1445 -0.0396 -0.2668
   94SOL    HW1  281   2.026   1.702   2.887 -1.4417  0.5185 -2.5950
   94SOL    HW2  282   2.130   1.675   2.755  1.8403 -1.4875 -2.3389
   95SOL     OW  283   2.646   0.703   1.482 -0.6726 -0.1648  0.5603
   95SOL    HW1  284   2.644   0.783   1.421 -1.2585 -0.8893  1.2007
   95SOL    HW2  285   2.637   0.621   1.423 -0.2358  2.1034  0.7225
   96SOL     OW  286   2.549   2.943   1.901 -0.0968  0.0325  0.0567
   96SOL    HW1  287   2.644   2.968   1.924  1.8329 -1.2278 -0.6148
   96SOL    HW2  288   2.494   2.909   1.976  1.2329  1.3924 -0.4089
   97SOL     OW  289   2.440   1.058   1.471 -0.3472  0.1941 -0.3885
   97SOL    HW1  290   2.471   1.118   1.552  0.2254  4.1559  1.6571
   97SOL    HW2  291   2.367   1.107   1.417 -3.5416 -1.4088  1.8150
   98SOL     OW  292   1.606   2.376   1.630  0.0228 -0.4125  0.0564
   98SOL    HW1  293   1.620   2.278   1.644 -2.4897  0.4371 -2.5588
   98SOL    HW2  294   1.567   2.418   1.712  0.2600 -2.1113 -0.3741
   99SOL     OW  295   0.487   2.422   1.570 -0.1450 -0.0341  0.2770
   99SOL    HW1  296   0.515   2.397   1.474  1.4441 -1.4857 -2.8572
   99SOL    HW2  297   0.478   2.521   1.577  0.9185 -1.9612  0.3576
  100SOL     OW  298   1.169   0.312   2.845  0.0856  0.2228 -0.0652
  100SOL    HW1  299   1.180   0.290   2.944  0.4021 -0.4661  2.6693
  100SOL    HW2  300   1.166   0.233   2.783 -1.1807 -0.3686  0.9716
  101SOL     OW  301   2.460   0.206   2.649  0.1763  0.2430  0.0979
  101SOL    HW1  302   2.427   0.118   2.684  0.7160  0.7913  0.8254
  101SOL    HW2  303   2.457   0.280   2.716  0.8911 -0.9247  0.2480
  102SOL     OW  304   0.533   0.654   1.350 -0.1251  0.1991 -0.2174
  102SOL    HW1  305   0.469   0.609   1.285  1.2067 -0.8795  0.5035
  102SOL    HW2  306   0.518   0.608   1.439 -1.3947 -1.6103 -0.3749
  103SOL     OW  307   0.831   0.361   2.569 -0.2227  0.1083  0.4654
  103SOL    HW1  308   0.792   0.341   2.662 -0.4663 -0.0336  1.8718
  103SOL    HW2  309   0.778   0.309   2.493  0.2471  0.0249 -2.9288
  104SOL     OW  310   1.057   0.845   2.678 -0.1316  0.8268 -0.3452
  104SOL    HW1  311   1.026   0.893   2.766  0.4642 -1.2508  1.9599
  104SOL    HW2  312   1.092   0.752   2.701  1.8071  0.5079 -0.7411
  105SOL     OW  313   1.980   2.135   1.644 -0.8668  0.0875  0.1649
  105SOL    HW1  314   1.983   2.112   1.746  0.4546 -0.9477 -0.7174
  105SOL    HW2  315   2.075   2.151   1.605  0.4662 -0.1518 -0.9144
  106SOL     OW  316   1.852   2.896   0.491  0.3541 -0.2846  0.2986
  106SOL    HW1  317   1.907   2.890   0.577  0.4171 -0.9339  2.0041
  106SOL    HW2  318   1.898   2.839   0.417 -2.2003 -1.1439  0.4972
  107SOL     OW  319   2.353   1.957   1.063  0.1808  0.4555  0.1354
  107SOL    HW1  320   2.261   1.914   1.046  2.6106  0.2761 -0.1658
  107SOL    HW2  321   2.407   1.970   0.976  3.0141  1.7861 -1.6669
  108SOL     OW  322   2.678   3.087   1.418  0.1310  0.5927  0.3125
  108SOL    HW1  323   2.646   3.005   1.474 -3.3235 -1.9303 -0.3710
  108SOL    HW2  324   2.701   0.037   1.489  0.3840 -2.0098  3.5757
  109SOL     OW  325   1.989   2.431   1.053 -0.2307 -1.1799  0.1360
  109SOL    HW1  326   1.954   2.436   1.149 -1.2824 -1.0982 -1.5393
  109SOL    HW2  327   2.046   2.514   1.029 -0.5775  0.1283 -0.3533
  110SOL     OW  328   0.717   1.625   1.878  0.7208 -1.4110 -0.2097
  110SOL    HW1  329   0.675   1.596   1.794  1.1476  1.5001  3.6076
  110SOL    HW2  330   0.652   1.695   1.916 -2.5738 -0.0262 -1.6878
  111SOL     OW  331   1.636   2.242   2.316  0.4323 -0.2592 -0.2261
  111SOL    HW1  332   1.705   2.309   2.279  0.3353  1.1975  0.5113
  111SOL    HW2  333   1.611   2.170   2.243 -0.9008 -2.3329 -1.9288
  112SOL     OW  334   1.429   1.710   2.446 -0.5180 -0.1713  0.0978
  112SOL    HW1  335   1.383   1.707   2.357 -0.6445  0.7273  0.2528
  112SOL    HW2  336   1.508   1.772   2.444 -0.9862 -3.8551 -1.0782
  113SOL     OW  337   1.619   2.117   1.684 -0.2961 -0.1154 -0.2680
  113SOL    HW1  338   1.546   2.068   1.729 -0.8737 -0.1567 -1.0223
  113SOL    HW2  339   1.679   2.053   1.627 -1.1610 -3.8576 -2.7950
  114SOL     OW  340   2.932   0.987   0.835 -0.0806 -0.1171  0.1326
  114SOL    HW1  341   2.980   1.018   0.922 -1.3613  2.4025  1.5117
  114SOL    HW2  342   2.837   1.017   0.843  1.1110 -0.0177  0.6272
  115SOL     OW  343   0.693   0.750   0.248 -0.1425  0.3793  0.3303
  115SOL    HW1  344   0.652   0.809   0.319  1.4252 -0.6690 -1.1740
  115SOL    HW2  345   0.623   0.730   0.177  0.8177 -0.4183 -0.1011
  116SOL     OW  346   2.792   1.851   2.573 -0.2628 -0.0221 -1.0723
  116SOL    HW1  347   2.757   1.938   2.541 -0.3463 -0.9274  0.2593
  116SOL    HW2  348   2.872   1.850   2.635 -1.2283 -1.4943 -2.1754
  117SOL     OW  349   3.037   2.707   0.714 -0.5302  0.5981  0.0646
  117SOL    HW1  350   3.091   2.662   0.644  1.8815  1.5288  1.9136
  117SOL    HW2  351   3.079   2.698   0.808  0.2807  2.4612 -0.3110
  118SOL     OW  352   0.930   1.524   2.605 -0.0434 -0.3144 -0.2609
  118SOL    HW1  353   0.849   1.567   2.563 -1.9714 -2.3619 -1.2483
  118SOL    HW2  354   1.005   1.593   2.625  3.0075  0.9023 -3.0701
  119SOL     OW  355   0.379   2.192   0.316 -0.4963 -0.0906 -0.7563
  119SOL    HW1  356   0.292   2.140   0.319  1.9794 -0.5480 -0.2522
  119SOL    HW2  357   0.401   2.226   0.411  3.3824 -2.8111 -1.7116
  120SOL     OW  358   1.450   0.514   0.479  0.3059  0.1408 -0.4384
  120SOL    HW1  359   1.491   0.560   0.400 -1.9917 -0.2281 -0.4609
  120SOL    HW2  360   1.425   0.572   0.558  0.5451  0.3708 -1.0294
  121SOL     OW  361   1.455   2.445   0.434 -0.5919 -0.0917  0.0814
  121SOL    HW1  362   1.548   2.405   0.406 -0.5480 -1.1063  0.5665
  121SOL    HW2  363   1.382   2.375   0.438  2.3997 -1.4578  2.1284
  122SOL     OW  364   2.460   2.353   1.808 -0.1391 -0.1390  0.8966
  122SOL    HW1  365   2.435   2.416   1.733  0.1246  0.6274 -2.2198
  122SOL    HW2  366   2.500   2.267   1.762 -2.0474 -4.1908 -0.2636
  123SOL     OW  367   0.662   1.799   0.670  0.0103 -0.5909 -0.6553
  123SOL    HW1  368   0.682   1.780   0.573  0.6800  0.2702  1.2846
  123SOL    HW2  369   0.748   1.838   0.706 -0.1820 -0.2367  2.9896
  124SOL     OW  370   2.982   0.816   0.075 -0.2588 -0.4481  0.1929
  124SOL    HW1  371   3.075   0.781   0.112  1.4890 -0.4416  1.0398
  124SOL    HW2  372   2.899   0.770   0.115  0.0845 -1.0451 -0.2275
  125SOL     OW  373   0.571   0.911   0.434  0.4532 -0.0050 -0.2238
  125SOL    HW1  374   0.476   0.877   0.457  0.9191 -3.1188 -0.0401
  125SOL    HW2  375   0.623   0.926   0.519 -0.0655 -0.7975  0.7058
  126SOL     OW  376   2.920   1.960   0.729  0.3353 -0.1275 -0.0280
  126SOL    HW1  377   2.944   1.957   0.832 -1.1621  3.0661  2.5580
  126SOL    HW2  378   3.010   1.987   0.690  0.7368 -0.6722  0.4249
  127SOL     OW  379   1.439   1.912   1.741 -0.1053  0.1092  0.5988
  127SOL    HW1  380   1.477   1.873   1.827 -0.3705  0.4571 -0.8995
  127SOL    HW2  381   1.348   1.961   1.749  0.0152  4.4382 -0.6445
  128SOL     OW  382   0.936   1.259   0.162  0.1935 -0.5682 -0.1666
  128SOL    HW1  383   0.993   1.171   0.149 -2.4989 -2.5407  0.9064
  128SOL    HW2  384   0.977   1.327   0.224 -0.2572  1.6114 -1.7889
  129SOL     OW  385   1.703   1.596   1.233  0.2693  0.5075 -0.6525
  129SOL    HW1  386   1.673   1.655   1.157  1.6786 -0.9325  2.3827
  129SOL    HW2  387   1.689   1.639   1.329  2.7969 -0.6571  1.8877
  130SOL     OW  388   2.274   1.666   1.604 -0.1215  0.0042 -0.3964
  130SOL    HW1  389   2.240   1.757   1.571 -1.6844 -0.4786  0.8958
  130SOL    HW2  390   2.288   1.665   1.705  3.5449 -0.1729  0.4414
  131SOL     OW  391   0.055   2.924   2.880  0.0147  0.1402 -0.2060
  131SOL    HW1  392   3.106   2.925   2.812 -2.8736 -0.6571  0.4681
  131SOL    HW2  393   0.136   2.867   2.852  2.4492  2.0115 -0.2999
  132SOL     OW  394   2.737   1.792   0.617  0.2034 -0.0790  0.1685
  132SOL    HW1  395   2.790   1.860   0.676  0.1494  2.0685  0.7976
  132SOL    HW2  396   2.666   1.748   0.677 -2.5844 -0.8149  2.1943
  133SOL     OW  397   0.392   3.121   2.025  0.0473 -0.0619  0.3672
  133SOL    HW1  398   0.361   3.035   2.066 -0.4555  0.4980 -1.6074
  133SOL    HW2  399   0.375   0.080   2.080  3.4208  0.0242 -0.5510
  134SOL     OW  400   0.147   1.864   2.997 -0.1264  0.1759 -0.4165
  134SOL    HW1  401   0.076   1.822   3.060  0.5467  0.7786  0.7042
  134SOL    HW2  402   0.121   1.952   2.952  0.2521 -1.4465 -1.8416
  135SOL     OW  403   1.554   0.774   2.105  0.5345 -0.3763 -0.8979
  135SOL    HW1  404   1.476   0.841   2.091 -0.5407 -2.4388  0.6644
  135SOL    HW2  405   1.628   0.784   2.041 -3.5810 -1.3082  2.3686
  136SOL     OW  406   2.946   1.487   0.374  0.0817 -0.1398  0.0270
  136SOL    HW1  407   2.962   1.571   0.428 -0.5883  0.2245 -2.4753
  136SOL    HW2  408   2.962   1.507   0.271  0.7608  1.3916 -4.1946
  137SOL     OW  409   3.055   1.985   0.958  0.1623 -0.3950  0.3822
  137SOL    HW1  410   3.123   1.927   1.009  1.2427  0.6568 -2.3004
  137SOL    HW2  411   3.096   2.082   0.937 -0.7790  1.0774  0.2063
  138SOL     OW  412   2.390   0.497   1.065  0.1113  0.6204 -0.3814
  138SOL    HW1  413   2.464   0.499   1.134 -2.1599 -1.1625 -0.3670
  138SOL    HW2  414   2.299   0.474   1.111 -2.0096 -0.6286 -1.1709
  139SOL     OW  415   1.334   2.519   3.055 -0.2454  0.8537 -0.3050
  139SOL    HW1  416   1.348   2.618   3.065  1.0990 -0.6259  3.1888
  139SOL    HW2  417   1.269   2.501   2.975 -1.1508  0.3638  0.3573
  140SOL     OW  418   1.325   1.794   1.052 -0.5445 -0.1145 -0.2068
  140SOL    HW1  419   1.250   1.726   1.024  0.4619  0.4749  2.5536
  140SOL    HW2  420   1.323   1.881   1.000 -0.8071 -1.9658  2.5818
  141SOL     OW  421   1.271   2.200   0.489  0.3695  0.5191  0.1934
  141SOL    HW1  422   1.184   2.178   0.436 -2.6188 -1.3688 -1.5634
  141SOL    HW2  423   1.355   2.168   0.444 -1.6616 -1.5680  1.4572
  142SOL     OW  424   1.088   0.307   0.815 -0.1455 -0.2731 -0.1835
  142SOL    HW1  425   1.187   0.326   0.801  3.1160 -3.2685  1.2066
  142SOL    HW2  426   1.047   0.265   0.734  0.0983 -1.5158  1.7612
  143SOL     OW  427   0.770   1.456   2.885 -0.1976 -0.3997  0.3029
  143SOL    HW1  428   0.762   1.404   2.793  0.8145 -4.0790 -1.3581
  143SOL    HW2  429   0.745   1.389   2.953  0.0288  1.5450 -0.5631
  144SOL     OW  430   1.837   2.589   0.716 -0.2277  0.1935  0.2187
  144SOL    HW1  431   1.745   2.558   0.691  0.5907 -0.6295 -0.6725
  144SOL    HW2  432   1.904   2.511   0.709 -0.9520 -0.2830  0.4218
  145SOL     OW  433   2.020   0.549   2.668  0.1073  0.2377  0.0479
  145SOL    HW1  434   1.995   0.597   2.582 -1.8931  2.0064  0.6151
  145SOL    HW2  435   2.118   0.522   2.663 -1.4206  0.7961 -0.0878
  146SOL     OW  436   0.220   2.946   0.471 -0.0845 -0.4659  0.1244
  146SOL    HW1  437   0.129   2.959   0.516 -2.2825 -1.0765  1.1823
  146SOL    HW2  438   0.219   3.015   0.393  1.1890 -0.0969 -0.7965
  147SOL     OW  439   1.856   0.296   2.035 -0.1369 -0.0912  0.1574
  147SOL    HW1  440   1.845   0.336   2.125  1.0943 -2.3401  0.2838
  147SOL    HW2  441   1.950   0.309   1.995  0.0698  0.2359  0.8142
  148SOL     OW  442   1.102   0.110   1.952 -0.6168 -0.2678  0.1631
  148SOL    HW1  443   1.135   0.203   1.932  2.7850 -0.6504  0.5535
  148SOL    HW2  444   1.165   0.062   2.024  0.7964  0.8914 -0.6078
  149SOL     OW  445   1.526   0.492   2.063 -0.3413  0.4300  0.0631
  149SOL    HW1  446   1.533   0.591   2.092  3.5265 -0.7784  0.9536
  149SOL    HW2  447   1.464   0.435   2.124 -1.2592  0.8125 -0.1406
  150SOL     OW  448   3.105   0.318   3.102 -0.2723 -0.2437 -0.3071
  150SOL    HW1  449   3.031   0.279   0.039 -3.8137  1.3951  1.4694
  150SOL    HW2  450   3.065   0.338   3.010  0.2868 -0.6496 -0.7698
  151SOL     OW  451   0.497   1.364   0.026  0.5322  0.6048  0.4335
  151SOL    HW1  452   0.556   1.302   3.096  2.3133 -2.4155  1.2043
  151SOL    HW2  453   0.551   1.393   0.105 -2.6442  2.5395 -1.1510
  152SOL     OW  454   2.788   0.284   0.426  0.3743 -0.3056  0.5350
  152SOL    HW1  455   2.772   0.313   0.333  1.1209  1.4755 -2.4810
  152SOL    HW2  456   2.856   0.343   0.469  0.6229 -3.4870  0.7168
  153SOL     OW  457   2.623   0.508   1.283  0.2263  0.6501  0.0492
  153SOL    HW1  458   2.594   0.415   1.319 -2.7697 -2.2232  2.2661
  153SOL    HW2  459   2.694   0.498   1.211 -1.0491 -1.0716 -0.5245
  154SOL     OW  460   1.768   3.041   2.178  0.7773  0.3207  0.1994
  154SOL    HW1  461   1.758   3.062   2.079  2.3372 -0.7929  2.6315
  154SOL    HW2  462   1.721   2.952   2.205 -0.5179 -2.2557 -4.8667
  155SOL     OW  463   0.055   2.024   0.632 -0.4597  0.8130 -0.0249
  155SOL    HW1  464   0.124   2.065   0.697  1.3722  1.4169  0.1868
  155SOL    HW2  465   0.073   1.926   0.628 -0.7252  1.7972  0.4659
  156SOL     OW  466   2.298   1.967   3.065 -0.8639  0.2256 -0.2835
  156SOL    HW1  467   2.287   1.966   2.962  0.0222  2.6347 -0.0075
  156SOL    HW2  468   2.247   2.046   3.104  0.6380 -1.3794 -1.7385
  157SOL     OW  469   1.008   0.204   0.571 -0.6000 -0.6555  0.2129
  157SOL    HW1  470   0.959   0.282   0.531  1.0550 -0.2481  0.3193
  157SOL    HW2  471   1.086   0.171   0.507  1.1085 -1.3463  0.1895
  158SOL     OW  472   2.207   0.529   2.249  0.1082 -0.0826 -0.1967
  158SOL    HW1  473   2.229   0.432   2.227 -0.7972  1.2558 -0.2145
  158SOL    HW2  474   2.273   0.590   2.208 -0.6438 -1.6499 -0.9945
  159SOL     OW  475   0.039   0.193   0.573  0.4077  0.0445  0.1001
  159SOL    HW1  476   0.021   0.126   0.651 -1.4279 -1.4250  1.4970
  159SOL    HW2  477   0.134   0.220   0.570 -1.4755 -1.2048 -0.3464
  160SOL     OW  478   1.553   2.066   2.123  0.6617 -0.0322  0.0841
  160SOL    HW1  479   1.459   2.099   2.110 -1.0296 -0.9065  1.7457
  160SOL    HW2  480   1.545   1.966   2.093 -2.2566 -2.6726 -0.0995
  161SOL     OW  481   2.728   0.720   2.614 -0.4785  0.9215 -0.0165
  161SOL    HW1  482   2.791   0.798   2.643 -2.9043  1.6863  0.5141
  161SOL    HW2  483   2.779   0.630   2.612  0.2146 -0.3566 -2.0563
  162SOL     OW  484   0.877   2.594   1.710  1.0346 -0.3987 -0.2393
  162SOL    HW1  485   0.893   2.634   1.616  0.5402  0.0006  2.4638
  162SOL    HW2  486   0.802   2.638   1.757  0.3819 -0.5888  0.2799
  163SOL     OW  487   2.731   0.211   2.570 -0.2631  0.3530  0.1704
  163SOL    HW1  488   2.744   0.226   2.466  1.3055 -2.2583 -1.4512
  163SOL    HW2  489   2.637   0.222   2.603 -1.1184  0.3290 -0.5290
  164SOL     OW  490   2.044   1.625   0.186 -0.0347 -0.2936  0.1351
  164SOL    HW1  491   1.980   1.626   0.107  3.1731  0.1914 -0.1653
  164SOL    HW2  492   2.137   1.656   0.162 -0.9472  0.0881 -0.0509
  165SOL     OW  493   2.917   0.348   1.572 -0.2589 -0.6250 -0.1984
  165SOL    HW1  494   2.943   0.445   1.601  1.0429  0.4521  2.7611
  165SOL    HW2  495   2.986   0.314   1.504  1.2209  0.4473  0.0737
  166SOL     OW  496   2.348   0.733   2.949  0.3192  0.4275 -0.2488
  166SOL    HW1  497   2.440   0.690   2.924  2.0089  1.0049 -0.1278
  166SOL    HW2  498   2.363   0.835   2.968  0.8379  0.8816 -1.0730
  167SOL     OW  499   2.862   0.764   2.975 -0.6749 -0.3502  0.0304
  167SOL    HW1  500   2.914   0.781   3.063 -1.4050  3.5221  3.3269
  167SOL    HW2  501   2.900   0.692   2.920 -1.9509  2.6329 -0.6753
  168SOL     OW  502   1.872   2.855   2.848  0.6595  0.7320 -0.0421
  168SOL    HW1  503   1.896   2.798   2.929 -0.5898 -2.4546 -1.4339
  168SOL    HW2  504   1.845   2.948   2.875  3.0777 -1.1992 -1.9232
  169SOL     OW  505   0.056   1.329   1.029  0.1769  0.3553  0.4935
  169SOL    HW1  506   0.009   1.380   0.956  0.5169 -1.0520  0.7843
  169SOL    HW2  507   0.119   1.255   0.987 -1.2311 -3.9011 -0.5834
  170SOL     OW  508   2.952   0.654   1.144  0.1661 -0.6497  0.5427
  170SOL    HW1  509   2.909   0.565   1.130  1.9630  1.4377  0.5416
  170SOL    HW2  510   3.018   0.651   1.227 -0.8808  0.5725  0.7377
  171SOL     OW  511   2.003   2.069   1.915  0.3167  0.0209  0.0927
  171SOL    HW1  512   1.918   2.129   1.936  0.8453  0.4595  2.5256
  171SOL    HW2  513   2.056   2.055   2.001  0.2447 -1.5868 -0.1979
  172SOL     OW  514   0.200   2.358   1.489  0.0335 -0.4080  0.2825
  172SOL    HW1  515   0.176   2.257   1.473  0.9252  1.2153  2.4098
  172SOL    HW2  516   0.299   2.370   1.503 -1.0322 -0.2626  0.0041
  173SOL     OW  517   1.488   1.096   0.228 -0.1463  0.7492 -0.4170
  173SOL    HW1  518   1.562   1.077   0.295  0.3011  0.4183  0.9001
  173SOL    HW2  519   1.459   1.014   0.178  0.7566  0.9429  2.1880
  174SOL     OW  520   1.411   3.064   2.527 -0.0653  0.0099 -0.1107
  174SOL    HW1  521   1.482   3.068   2.596 -1.2475  1.2228 -2.1279
  174SOL    HW2  522   1.330   3.017   2.570 -0.0138 -1.3279 -3.2633
  175SOL     OW  523   1.827   1.813   0.939 -0.1301  0.1691 -0.6161
  175SOL    HW1  524   1.918   1.777   0.963 -1.2782  1.4975 -0.0569
  175SOL    HW2  525   1.751   1.767   0.992 -1.1074 -1.3586  0.3400
  176SOL     OW  526   1.482   0.120   0.175 -0.0413 -0.0113  0.0286
  176SOL    HW1  527   1.534   0.140   0.259  0.6816  1.1118 -1.5405
  176SOL    HW2  528   1.479   0.192   0.108 -0.5679 -1.9250  1.8966
  177SOL     OW  529   0.623   0.982   3.002  0.0547 -0.5424  0.4050
  177SOL    HW1  530   0.649   0.984   2.905  0.6233 -1.8943  4.1312
  177SOL    HW2  531   0.529   1.029   3.015 -2.1926  1.1358 -1.4745
  178SOL     OW  532   2.655   2.338   2.701  0.1362 -0.7325  0.3399
  178SOL    HW1  533   2.752   2.339   2.657 -0.1126 -0.7289  2.7457
  178SOL    HW2  534   2.587   2.387   2.643  0.7546 -0.8505  2.1239
  179SOL     OW  535   2.635   0.231   2.929 -0.0735  0.0522 -0.3523
  179SOL    HW1  536   2.715   0.194   2.882 -0.7222  0.2305  2.3094
  179SOL    HW2  537   2.570   0.158   2.961  1.0590  0.6461  0.8066
  180SOL     OW  538   1.757   1.086   0.617  0.1878 -0.0943 -0.1757
  180SOL    HW1  539   1.682   1.096   0.683  2.5789  1.4995 -2.2346
  180SOL    HW2  540   1.847   1.086   0.665 -0.2875 -2.0675 -0.9491
  181SOL     OW  541   1.978   1.506   2.527 -0.5120 -0.2311 -0.5082
  181SOL    HW1  542   2.018   1.597   2.501  1.1988 -1.3153 -0.6327
  181SOL    HW2  543   1.896   1.515   2.586 -1.0072  0.9444 -0.3401
  182SOL     OW  544   2.906   2.619   2.581  0.0070  0.0584  0.5722
  182SOL    HW1  545   2.974   2.665   2.515  1.5650  2.1748 -3.8210
  182SOL    HW2  546   2.891   2.524   2.551  1.1931  1.7329 -2.5920
  183SOL     OW  547   1.897   0.634   2.160  0.3251  0.0572 -0.4572
  183SOL    HW1  548   1.980   0.662   2.211  1.4244  1.9543  0.3933
  183SOL    HW2  549   1.855   0.556   2.209 -0.7424  0.6470  0.7334
  184SOL     OW  550   0.159   1.358   1.646  0.0459 -0.1333 -0.1909
  184SOL    HW1  551   0.198   1.368   1.552 -1.1881  2.5035 -1.8375
  184SOL    HW2  552   0.067   1.401   1.645  1.3970  1.9481 -0.0434
  185SOL     OW  553   1.761   0.328   0.897 -0.3842 -0.2424 -0.1583
  185SOL    HW1  554   1.713   0.336   0.985 -2.5752 -2.1422 -0.0460
  185SOL    HW2  555   1.702   0.301   0.817 -1.0432 -0.6940 -2.0560
  186SOL     OW  556   0.336   2.563   2.716  0.5249  0.2888  0.5540
  186SOL    HW1  557   0.264   2.492   2.711 -0.5560 -0.5318  0.8013
  186SOL    HW2  558   0.349   2.619   2.633 -1.0202  0.2918  0.0717
  187SOL     OW  559   2.912   1.224   0.447  0.0411 -0.2809  0.1987
  187SOL    HW1  560   2.903   1.322   0.417 -1.6502  0.1231  2.4470
  187SOL    HW2  561   2.827   1.165   0.427  1.9384  2.1191 -0.4128
  188SOL     OW  562   2.528   1.478   1.261 -0.9380  0.2711  0.1039
  188SOL    HW1  563   2.566   1.462   1.357 -1.0449  2.2538  1.5219
  188SOL    HW2  564   2.605   1.518   1.206 -2.0309 -1.6329 -2.3145
  189SOL     OW  565   2.874   0.463   2.616  0.2096 -0.0856  0.0226
  189SOL    HW1  566   2.854   0.366   2.600  0.4806  1.7506  1.9830
  189SOL    HW2  567   2.940   0.498   2.546 -0.0894  0.6679 -0.1591
  190SOL     OW  568   1.259   1.114   1.584 -0.3507 -0.0432  0.1883
  190SOL    HW1  569   1.350   1.144   1.617 -1.1808  0.4631  0.5411
  190SOL    HW2  570   1.185   1.172   1.629 -0.7518  1.0560  0.1375
  191SOL     OW  571   0.620   0.399   2.084  0.0631 -0.3095  0.2468
  191SOL    HW1  572   0.525   0.400   2.050  1.3300 -1.0072 -0.1331
  191SOL    HW2  573   0.658   0.304   2.085 -0.4453  2.6581 -0.3712
  192SOL     OW  574   1.685   1.986   1.280  0.5177  0.2488  0.4116
  192SOL    HW1  575   1.622   2.011   1.202  1.4667 -0.8105  3.5868
  192SOL    HW2  576   1.630   1.950   1.355  0.1602  3.1847  0.5234
  193SOL     OW  577   1.633   0.719   1.406 -0.0461  0.3018 -0.2668
  193SOL    HW1  578   1.602   0.626   1.436  0.3315 -1.1489  0.0940
  193SOL    HW2  579   1.639   0.725   1.304  0.6853  1.0961 -0.1251
  194SOL     OW  580   0.503   2.121   1.206  0.2211 -0.1035 -0.3135
  194SOL    HW1  581   0.521   2.218   1.236 -1.2609 -0.2875  1.4466
  194SOL    HW2  582   0.520   2.118   1.105  1.7319 -0.3412 -2.2905
  195SOL     OW  583   1.655   0.227   0.394  0.0992  0.4532 -0.1380
  195SOL    HW1  584   1.730   0.170   0.440 -0.9448  0.2164  0.1719
  195SOL    HW2  585   1.695   0.278   0.313  0.6497  0.8134  0.8368
  196SOL     OW  586   0.269   1.313   1.395  0.0863  0.7132  0.5404
  196SOL    HW1  587   0.271   1.382   1.321  0.4515  0.2891 -1.4448
  196SOL    HW2  588   0.361   1.264   1.412 -0.9490 -0.1006  1.2211
  197SOL     OW  589   0.884   0.080   1.795  0.1672  0.0794  0.3263
  197SOL    HW1  590   0.927   0.014   1.725 -0.0636 -1.6697  0.2620
  197SOL    HW2  591   0.962   0.101   1.861  2.1718  0.8433  2.8253
  198SOL     OW  592   0.674   1.200   1.025 -0.4844  0.4824 -0.2719
  198SOL    HW1  593   0.648   1.135   1.099  1.1386 -1.2803  0.6667
  198SOL    HW2  594   0.613   1.188   0.943 -0.1601 -1.0722 -0.4565
  199SOL     OW  595   0.049   2.432   1.720  0.0555 -0.2152  0.2788
  199SOL    HW1  596   0.097   2.519   1.748  0.1174 -2.2551 -2.3443
  199SOL    HW2  597   0.107   2.379   1.659 -2.0003 -1.7250  1.4739
  200SOL     OW  598   1.709   1.642   1.906 -0.9763 -0.1850 -0.1487
  200SOL    HW1  599   1.789   1.659   1.844  0.2850  1.2847  2.5311
  200SOL    HW2  600   1.742   1.585   1.988  0.1938 -1.8666  3.8960
  201SOL     OW  601   0.558   1.826   2.010  0.8664  0.1036 -0.7457
  201SOL    HW1  602   0.543   1.911   2.066 -0.2186 -2.0016  0.7008
  201SOL    HW2  603   0.538   1.742   2.067 -2.6663  0.0794 -0.0127
  202SOL     OW  604   1.628   0.522   0.049  0.1152 -0.0360 -0.3856
  202SOL    HW1  605   1.668   0.555   3.089 -1.7857 -1.7437 -1.1598
  202SOL    HW2  606   1.633   0.596   0.120  3.5604 -1.4901 -0.5842
  203SOL     OW  607   1.344   2.706   1.864  0.0917 -0.0860  0.1405
  203SOL    HW1  608   1.409   2.760   1.922 -0.2771 -2.2139  0.0426
  203SOL    HW2  609   1.269   2.660   1.916 -0.3903 -1.5888  1.3394
  204SOL     OW  610   0.626   1.831   1.536 -0.2602  0.6786  0.2635
  204SOL    HW1  611   0.656   1.897   1.462  2.5945  0.6593  0.4741
  204SOL    HW2  612   0.593   1.742   1.500 -0.6049 -0.9056  1.4949
  205SOL     OW  613   1.529   1.826   1.987  0.0524 -0.3271  0.3673
  205SOL    HW1  614   1.612   1.768   1.971  0.1601 -1.1618  1.5542
  205SOL    HW2  615   1.445   1.767   1.995 -0.6198 -3.5079  3.3381
  206SOL     OW  616   0.035   1.340   2.079  0.0846 -0.0438  0.3293
  206SOL    HW1  617   0.120   1.294   2.052 -0.7496 -2.0855  1.9077
  206SOL    HW2  618   0.022   1.360   2.178  1.2224  0.3364  3.5098
  207SOL     OW  619   0.770   2.907   2.093 -0.4499  0.1027  0.4194
  207SOL    HW1  620   0.738   2.917   2.190  2.3728 -0.8076 -1.9710
  207SOL    HW2  621   0.734   2.980   2.033 -0.9216  1.0191 -0.3611
  208SOL     OW  622   0.629   2.521   2.061  0.0830  0.6192 -0.1043
  208SOL    HW1  623   0.664   2.599   2.009 -0.9780  1.9747  1.3551
  208SOL    HW2  624   0.632   2.433   2.004 -0.8334 -1.7139 -1.2675
  209SOL     OW  625   1.406   2.922   0.409  0.0358  0.0072 -0.6197
  209SOL    HW1  626   1.479   2.863   0.455  2.0222  1.0771 -1.0820
  209SOL    HW2  627   1.426   3.022   0.436 -0.1625 -0.7514  3.2710
  210SOL     OW  628   2.594   0.631   0.664  0.0230  0.1750  0.0362
  210SOL    HW1  629   2.592   0.530   0.644  2.4630 -1.3166 -1.5218
  210SOL    HW2  630   2.653   0.672   0.592 -1.4811  0.1349  0.7397
  211SOL     OW  631   0.577   0.542   1.623 -0.0782 -0.3054  0.5583
  211SOL    HW1  632   0.528   0.627   1.652 -0.6665 -1.1111  1.1334
  211SOL    HW2  633   0.677   0.561   1.605 -0.5607 -0.9675 -1.6037
  212SOL     OW  634   1.452   2.195   1.351 -0.2803 -0.0755 -0.1233
  212SOL    HW1  635   1.483   2.118   1.409  0.2869  1.1642 -3.0056
  212SOL    HW2  636   1.518   2.272   1.350 -0.0975  2.1199  0.4826
  213SOL     OW  637   2.734   0.448   1.838  0.0018 -0.2242  0.1972
  213SOL    HW1  638   2.767   0.386   1.767  0.5213  0.4010 -3.1344
  213SOL    HW2  639   2.817   0.462   1.902  2.2099 -0.9292  0.5218
  214SOL     OW  640   0.749   2.510   2.297 -0.1549  0.0910 -0.1867
  214SOL    HW1  641   0.717   2.517   2.200 -1.9191 -2.1202  1.6865
  214SOL    HW2  642   0.773   2.606   2.330  0.5357 -1.0697 -0.6235
  215SOL     OW  643   2.724   1.691   1.647  0.1888  0.2920 -0.2525
  215SOL    HW1  644   2.818   1.675   1.685 -2.5433  1.2513  2.1535
  215SOL    HW2  645   2.723   1.747   1.556 -1.0094  1.6300 -3.4705
  216SOL     OW  646   0.783   0.986   1.995  0.3688 -0.6075 -0.6300
  216SOL    HW1  647   0.826   1.081   1.997 -0.4187  2.0694  0.4640
  216SOL    HW2  648   0.751   0.966   2.093  0.5930  2.3470  1.4598
  217SOL     OW  649   2.803   0.437   1.078  0.3286 -0.2454 -0.1415
  217SOL    HW1  650   2.792   0.454   0.983 -1.2933 -1.3296  1.6866
  217SOL    HW2  651   2.823   0.337   1.094 -1.4213  2.0916  0.5015
  218SOL     OW  652   1.290   2.019   0.903  0.3516 -0.1393 -0.6083
  218SOL    HW1  653   1.297   1.981   0.808  1.9938 -0.7494  1.8927
  218SOL    HW2  654   1.263   2.117   0.903 -0.3783 -1.3979  1.1658
  219SOL     OW  655   2.176   2.765   0.555 -0.1466  0.0631  0.2906
  219SOL    HW1  656   2.109   2.799   0.622 -0.0267 -1.6954 -3.2793
  219SOL    HW2  657   2.128   2.771   0.462  0.2029 -0.4018  0.4421
  220SOL     OW  658   1.829   2.359   0.142  0.4859 -0.3685 -0.0609
  220SOL    HW1  659   1.804   2.337   0.046  2.8040  0.0745  0.8568
  220SOL    HW2  660   1.908   2.301   0.171 -1.8877  2.6541  1.2812
  221SOL     OW  661   3.016   1.922   0.281 -0.0192  0.6326 -0.4777
  221SOL    HW1  662   2.951   2.005   0.292  1.6069 -1.4067  0.6911
  221SOL    HW2  663   2.986   1.850   0.351  2.5130  3.8942  3.1645
  222SOL     OW  664   0.638   2.360   0.805  0.2605 -0.3619 -0.1371
  222SOL    HW1  665   0.615   2.409   0.717  0.9190 -0.1020  1.4708
  222SOL    HW2  666   0.741   2.359   0.822 -1.6411  3.5838  0.9815
  223SOL     OW  667   1.187   0.116   0.401  0.3159  0.0403 -0.5789
  223SOL    HW1  668   1.267   0.072   0.450 -0.1587  0.0672 -0.1884
  223SOL    HW2  669   1.135   0.050   0.343 -1.0105  1.2800  0.2215
  224SOL     OW  670   2.865   1.265   0.998 -0.3420  0.0995  0.2973
  224SOL    HW1  671   2.793   1.194   0.984  1.1297  1.2335 -1.4286
  224SOL    HW2  672   2.953   1.215   1.023  0.4618  1.0753  2.1631
  225SOL     OW  673   0.142   1.834   1.081  0.0997 -0.4472  0.6061
  225SOL    HW1  674   0.195   1.897   1.142 -0.6419 -0.2398  0.1265
  225SOL    HW2  675   0.129   1.741   1.119  1.1072 -0.8530  0.0587
  226SOL     OW  676   0.803   3.035   0.956  0.1591  0.2328 -0.4649
  226SOL    HW1  677   0.801   3.084   0.867 -0.5272  0.2220  3.4544
  226SOL    HW2  678   0.886   3.065   1.007 -1.8418 -1.0970  1.2995
  227SOL     OW  679   1.199   1.532   1.661 -0.1093  0.0447  0.0020
  227SOL    HW1  680   1.143   1.597   1.716 -1.1809 -0.2545 -2.7783
  227SOL    HW2  681   1.289   1.571   1.627  0.8483  0.4183 -2.9701
  228SOL     OW  682   0.745   0.171   2.099 -0.2558  0.3717 -0.1532
  228SOL    HW1  683   0.705   0.096   2.040 -0.6572 -0.9654  1.6317
  228SOL    HW2  684   0.831   0.198   2.051 -1.4172 -0.2219  0.8635
  229SOL     OW  685   3.058   0.822   2.509  0.0161  0.3438 -0.2067
  229SOL    HW1  686   3.039   0.813   2.606 -2.9890 -0.2614 -0.0317
  229SOL    HW2  687   0.015   0.877   2.492 -0.0980 -2.5655  1.4671
  230SOL     OW  688   0.198   0.684   1.065  0.5626  0.2443  0.0847
  230SOL    HW1  689   0.117   0.725   1.015  2.2549 -1.1992 -0.2327
  230SOL    HW2  690   0.220   0.729   1.156 -1.8586  1.9703  1.5381
  231SOL     OW  691   1.428   0.115   2.041  0.2677 -0.0212  0.3941
  231SOL    HW1  692   1.522   0.073   2.033  1.0875 -0.6578  2.8631
  231SOL    HW2  693   1.364   0.049   2.081  1.0448 -0.8334  0.5757
  232SOL     OW  694   0.098   2.253   0.150  0.1517 -0.4119 -0.1861
  232SOL    HW1  695   0.111   2.197   0.235  1.6069  1.3350 -3.7243
  232SOL    HW2  696   3.121   2.257   0.136 -0.8854  2.2392  2.5439
  233SOL     OW  697   1.372   2.451   2.645 -0.1629  0.1285 -0.5098
  233SOL    HW1  698   1.410   2.392   2.571  0.2367  0.7669 -0.1629
  233SOL    HW2  699   1.317   2.527   2.608 -0.1340  0.6997 -0.9837
  234SOL     OW  700   0.621   1.111   1.684 -0.3909 -0.4139 -0.0160
  234SOL    HW1  701   0.682   1.030   1.670 -0.2594  1.6537  0.7444
  234SOL    HW2  702   0.665   1.176   1.753 -3.0085  2.1436  1.6003
  235SOL     OW  703   0.102   2.479   2.444  0.1152  0.1657 -0.4170
  235SOL    HW1  704   0.181   2.440   2.391  2.4840 -0.1914  1.2439
  235SOL    HW2  705   0.110   2.450   2.543 -1.6858 -0.6973  2.6802
  236SOL     OW  706   1.579   1.850   2.864  0.1102  0.1247  0.0532
  236SOL    HW1  707   1.576   1.773   2.795 -0.3736  0.6301 -1.2299
  236SOL    HW2  708   1.563   1.939   2.817 -0.7149 -0.1734 -2.7727
  237SOL     OW  709   1.485   0.711   0.817 -0.3168 -0.3240  0.1246
  237SOL    HW1  710   1.583   0.718   0.784  0.2357  0.2963  0.7442
  237SOL    HW2  711   1.464   0.796   0.867 -0.0936 -1.6775  1.3709
  238SOL     OW  712   1.045   2.828   2.091  0.2004  0.0468 -0.2914
  238SOL    HW1  713   0.960   2.872   2.083  1.3582 -3.8192  0.1725
  238SOL    HW2  714   1.039   2.753   2.022 -3.4190  1.2694 -0.6110
  239SOL     OW  715   1.042   2.645   1.914  0.0560 -0.8898 -0.0733
  239SOL    HW1  716   0.996   2.614   1.827 -0.1799 -0.6019  0.9764
  239SOL    HW2  717   1.090   2.566   1.954 -1.6896 -0.5261 -3.8052
  240SOL     OW  718   1.963   3.058   0.887 -0.0332  0.5106 -0.0402
  240SOL    HW1  719   1.869   3.033   0.850  1.9549  0.4789 -0.3439
  240SOL    HW2  720   2.028   3.043   0.811 -0.9563 -1.8926 -0.0042
  241SOL     OW  721   1.240   1.342   2.491  0.3544 -0.0124 -0.1281
  241SOL    HW1  722   1.194   1.258   2.523 -0.2445  3.7084 -0.1037
  241SOL    HW2  723   1.213   1.426   2.540 -2.1284 -1.1326 -0.5167
  242SOL     OW  724   2.591   0.671   2.849  0.0370  0.3782 -0.2976
  242SOL    HW1  725   2.682   0.668   2.896  1.1469 -2.1061 -0.0564
  242SOL    HW2  726   2.608   0.683   2.754 -2.7703  0.0688 -0.5523
  243SOL     OW  727   0.940   0.617   1.350  0.1142 -0.5985  0.2293
  243SOL    HW1  728   0.924   0.519   1.316 -0.1900  1.2074 -0.8274
  243SOL    HW2  729   1.038   0.635   1.326 -0.1868  0.7372  0.1685
  244SOL     OW  730   1.484   2.813   2.824 -0.0961 -0.1949 -0.1192
  244SOL    HW1  731   1.407   2.840   2.882  1.9263  2.3044  0.8065
  244SOL    HW2  732   1.533   2.736   2.876 -1.1677 -1.9151  3.1723
  245SOL     OW  733   1.935   2.682   3.043  0.1091  0.3558 -0.5744
  245SOL    HW1  734   1.899   2.668   0.013 -1.4475  1.3710 -2.2988
  245SOL    HW2  735   2.018   2.743   3.041  2.2960 -1.0819  0.8321
  246SOL     OW  736   0.750   0.818   1.321 -0.1807  0.2809 -0.3083
  246SOL    HW1  737   0.667   0.771   1.350 -2.4366  2.1406  1.2458
  246SOL    HW2  738   0.826   0.749   1.320 -1.1932 -2.0246  0.4508
  247SOL     OW  739   0.256   0.438   2.035 -0.1597 -0.8491 -0.0622
  247SOL    HW1  740   0.172   0.387   2.042  1.9302  0.5195 -0.0929
  247SOL    HW2  741   0.291   0.422   1.939 -0.1520 -1.2899 -2.8288
  248SOL     OW  742   2.965   1.216   1.946 -0.2737  0.6759 -0.0522
  248SOL    HW1  743   2.884   1.273   1.917 -2.3248  1.0219  0.5752
  248SOL    HW2  744   3.047   1.276   1.971  1.5177  1.1230  0.6117
  249SOL     OW  745   0.180   0.469   0.122 -0.0529 -0.1238 -0.5325
  249SOL    HW1  746   0.246   0.398   0.150 -3.4276  0.3810 -1.4713
  249SOL    HW2  747   0.109   0.423   0.067 -0.4876  2.0580 -0.1668
  250SOL     OW  748   2.905   0.176   0.116  0.3774 -0.2405 -0.6257
  250SOL    HW1  749   2.843   0.254   0.144  0.2961  0.1276 -0.3891
  250SOL    HW2  750   2.841   0.109   0.073 -0.8055  0.6115 -0.9219
  251SOL     OW  751   0.940   1.884   1.610 -0.0250  0.8262 -0.6389
  251SOL    HW1  752   0.938   1.981   1.581 -2.4808  0.3764  0.6877
  251SOL    HW2  753   0.848   1.848   1.612  0.5607 -2.7137  1.0059
  252SOL     OW  754   2.014   2.172   0.986 -0.3146 -0.0397  0.2027
  252SOL    HW1  755   1.915   2.166   0.968 -1.1878 -1.1081  0.9970
  252SOL    HW2  756   2.034   2.261   1.035  0.9445  3.2568 -0.5235
  253SOL     OW  757   1.651   1.877   2.480 -0.1338 -0.4421  0.4141
  253SOL    HW1  758   1.727   1.848   2.414 -0.8490 -2.7090 -1.0368
  253SOL    HW2  759   1.676   1.962   2.538  2.0826  3.6387  0.9498
  254SOL     OW  760   0.664   2.302   1.920  0.5952  0.4172 -0.1113
  254SOL    HW1  761   0.653   2.283   1.818 -1.6462  0.2641 -0.4632
  254SOL    HW2  762   0.740   2.251   1.968  2.5416  1.5428 -2.5157
  255SOL     OW  763   1.081   0.089   1.440 -0.6673  0.0012  0.4112
  255SOL    HW1  764   1.177   0.096   1.408  1.5367 -1.0040  0.5193
  255SOL    HW2  765   1.069   0.026   1.516  1.5969  1.9727 -3.5489
  256SOL     OW  766   2.238   2.195   1.500 -0.3415  0.3062  0.0597
  256SOL    HW1  767   2.173   2.171   1.427  3.9591 -0.5874  1.6917
  256SOL    HW2  768   2.328   2.146   1.502 -0.3058  0.2757 -0.0462
  257SOL     OW  769   0.676   2.190   2.676 -0.2703 -0.0884  0.5479
  257SOL    HW1  770   0.631   2.277   2.709  0.2447 -1.7192  0.9293
  257SOL    HW2  771   0.757   2.163   2.729  0.3903  3.1071 -1.1598
  258SOL     OW  772   0.437   1.035   2.340 -0.2997  0.2575 -0.2078
  258SOL    HW1  773   0.447   1.095   2.417  0.0921 -0.4892 -3.1646
  258SOL    HW2  774   0.393   0.950   2.373  0.7652 -0.8369 -0.2345
  259SOL     OW  775   0.686   1.427   2.140 -0.2653  0.5146  0.5673
  259SOL    HW1  776   0.674   1.408   2.045  0.7710  0.4455  2.7371
  259SOL    HW2  777   0.783   1.400   2.172  0.9866 -0.1821  1.0715
  260SOL     OW  778   1.890   0.953   1.410  0.0414 -0.0377 -0.7635
  260SOL    HW1  779   1.828   1.006   1.349  0.6712  2.4449  0.0630
  260SOL    HW2  780   1.939   1.015   1.477  0.5293  2.0945 -2.4125
  261SOL     OW  781   1.304   3.058   0.734  0.0092 -0.3948  0.1434
  261SOL    HW1  782   1.374   2.987   0.757  0.6105 -2.4603 -1.4216
  261SOL    HW2  783   1.235   3.006   0.681  0.7730 -1.6614  1.7020
  262SOL     OW  784   2.101   2.144   2.710  0.0864 -0.2248  0.4242
  262SOL    HW1  785   2.054   2.095   2.633 -0.4849 -0.9373  0.4580
  262SOL    HW2  786   2.138   2.235   2.683 -0.5328 -0.3946  0.4528
  263SOL     OW  787   0.222   1.594   2.892 -0.0043 -0.0291 -0.5072
  263SOL    HW1  788   0.221   1.697   2.911  0.5266  3.7248 -0.2760
  263SOL    HW2  789   0.220   1.548   2.987  0.3428 -1.8692  0.3289
  264SOL     OW  790   0.227   2.019   1.244 -0.7055 -0.2510 -0.6715
  264SOL    HW1  791   0.319   2.049   1.279  1.0216 -1.0009 -0.7997
  264SOL    HW2  792   0.160   2.036   1.319  0.7046 -0.8036 -0.4502
  265SOL     OW  793   0.725   0.864   0.770  0.5790  0.4852  0.5121
  265SOL    HW1  794   0.799   0.896   0.832 -0.5184 -0.6680  2.3274
  265SOL    HW2  795   0.659   0.940   0.750 -2.8260 -0.7857 -1.1971
  266SOL     OW  796   1.451   1.756   0.153  0.2879 -0.1140 -0.3094
  266SOL    HW1  797   1.489   1.716   0.067 -0.5297 -0.2818  0.4333
  266SOL    HW2  798   1.523   1.792   0.214 -1.8973 -1.0276  0.4233
  267SOL     OW  799   0.792   0.862   2.539 -0.0202 -0.6092  0.6337
  267SOL    HW1  800   0.885   0.839   2.567 -1.8594  0.1400  0.4486
  267SOL    HW2  801   0.753   0.774   2.505 -0.8239  1.3888 -0.0250
  268SOL     OW  802   0.978   0.580   2.932  0.1358 -0.4041  0.1018
  268SOL    HW1  803   0.973   0.672   2.982 -1.1382  2.1262 -1.0762
  268SOL    HW2  804   1.051   0.588   2.857  2.0747  0.3589 -0.6531
  269SOL     OW  805   1.982   2.975   2.621 -0.5827  0.2066  0.2383
  269SOL    HW1  806   1.896   2.987   2.566 -0.1742 -0.0692  0.8909
  269SOL    HW2  807   1.959   2.918   2.704 -2.2609 -1.0517  2.1137
  270SOL     OW  808   1.097   1.194   2.871 -0.0016  0.4729 -1.0623
  270SOL    HW1  809   1.199   1.212   2.875  1.6573 -1.5987  1.1967
  270SOL    HW2  810   1.081   1.095   2.892  0.0688 -1.8707 -1.5108
  271SOL     OW  811   0.120   0.728   0.171 -0.5913  0.6350 -0.0634
  271SOL    HW1  812   0.165   0.778   0.095  1.7384 -2.4427 -1.1091
  271SOL    HW2  813   0.144   0.627   0.168 -0.6070  0.3197  0.9069
  272SOL     OW  814   2.496   1.307   2.621  0.0090 -0.4276  0.3510
  272SOL    HW1  815   2.447   1.322   2.709  0.5570  2.7674 -0.3198
  272SOL    HW2  816   2.581   1.259   2.630 -2.5524 -0.0294 -0.5554
  273SOL     OW  817   0.061   0.212   2.319  0.0252 -0.5692  0.1902
  273SOL    HW1  818   0.155   0.170   2.313  0.1793 -1.3519  2.8589
  273SOL    HW2  819   0.058   0.286   2.390 -2.8366  2.1926  0.3426
  274SOL     OW  820   0.016   0.273   2.040  0.1029  0.5661 -0.3548
  274SOL    HW1  821   3.099   0.188   1.997 -0.8563  1.0101 -1.2276
  274SOL    HW2  822   0.009   0.271   2.144  1.6363  0.5021  0.6237
  275SOL     OW  823   2.088   1.362   0.603 -0.7544  0.2715  0.1019
  275SOL    HW1  824   2.091   1.263   0.635  2.0109  1.3784  1.1141
  275SOL    HW2  825   2.029   1.370   0.520  0.6016  0.8147 -1.1845
  276SOL     OW  826   0.459   0.886   2.681  0.2932 -0.1524  0.6471
  276SOL    HW1  827   0.519   0.966   2.698 -2.7719 -0.3336 -1.7433
  276SOL    HW2  828   0.456   0.862   2.582  0.1739  1.6256  0.3506
  277SOL     OW  829   2.041   2.563   2.463  0.9569 -0.4718  0.0804
  277SOL    HW1  830   2.096   2.621   2.399  0.3935  1.6275  0.4129
  277SOL    HW2  831   1.970   2.619   2.510 -0.9037 -0.0723 -1.4182
  278SOL     OW  832   1.670   0.135   1.691  0.5741 -0.9338  0.0870
  278SOL    HW1  833   1.638   0.215   1.630 -3.1700  2.0172 -0.9576
  278SOL    HW2  834   1.761   0.104   1.669  1.2961 -1.2432 -0.4029
  279SOL     OW  835   1.561   1.311   0.073  0.0585  0.1285  0.0340
  279SOL    HW1  836   1.469   1.359   0.067 -0.0297  0.0229  1.3395
  279SOL    HW2  837   1.541   1.216   0.105  1.3775  0.1312 -0.8010
  280SOL     OW  838   0.739   1.233   3.043  0.2404  0.0813 -0.1110
  280SOL    HW1  839   0.805   1.252   3.120 -1.7888  1.9143 -0.3171
  280SOL    HW2  840   0.708   1.139   3.039  3.2193  3.6254  0.2936
  281SOL     OW  841   3.039   2.944   1.574  0.1285  0.3705  0.6204
  281SOL    HW1  842   0.005   2.949   1.618 -2.0667 -1.6659  0.6246
  281SOL    HW2  843   2.970   2.994   1.631 -1.0131  0.4759  1.5063
  282SOL     OW  844   0.018   2.369   0.696  0.5699 -0.0611  0.1428
  282SOL    HW1  845   0.050   2.443   0.637 -2.3287 -2.3631 -0.5246
  282SOL    HW2  846   3.043   2.343   0.675 -0.1272 -0.0571 -1.4390
  283SOL     OW  847   1.015   1.988   1.914 -0.1752 -0.1772 -0.1265
  283SOL    HW1  848   0.950   2.060   1.942  0.8926 -1.6780  0.3027
  283SOL    HW2  849   0.988   1.903   1.965 -0.6214  2.4490 -1.0272
  284SOL     OW  850   2.074   0.597   0.522  0.2555  0.0214 -0.0462
  284SOL    HW1  851   2.080   0.534   0.601  0.9025 -3.1479 -0.3668
  284SOL    HW2  852   2.172   0.632   0.509 -1.8819 -1.1414 -0.2996
  285SOL     OW  853   0.157   2.801   2.619 -0.4119 -0.3979 -0.4504
  285SOL    HW1  854   0.071   2.784   2.570 -0.8433  2.8784  2.7215
  285SOL    HW2  855   0.241   2.777   2.565 -1.6419  2.2558  2.0864
  286SOL     OW  856   1.918   2.639   1.454 -0.2890  0.2924 -0.2122
  286SOL    HW1  857   2.001   2.694   1.494  1.2736 -0.0971 -3.1063
  286SOL    HW2  858   1.842   2.704   1.440  1.3085 -1.2977 -0.2845
  287SOL     OW  859   0.833   1.695   0.971 -0.3030 -0.8043 -0.1776
  287SOL    HW1  860   0.803   1.597   0.954  1.2573  1.2356 -0.6742
  287SOL    HW2  861   0.814   1.722   1.068  0.5542  3.4040  0.2530
  288SOL     OW  862   2.005   2.227   2.944 -0.3344  0.4544 -0.4784
  288SOL    HW1  863   1.907   2.204   2.974 -3.1550  1.1553 -0.2957
  288SOL    HW2  864   2.039   2.163   2.876  1.3703 -0.5962  1.9591
  289SOL     OW  865   0.524   1.824   2.397 -0.1043 -0.5459 -0.0244
  289SOL    HW1  866   0.493   1.884   2.322 -0.9115 -1.5587 -1.6355
  289SOL    HW2  867   0.536   1.876   2.484  0.5539  0.9914  0.7786
  290SOL     OW  868   1.201   2.275   0.959  0.4723  0.2843 -0.0046
  290SOL    HW1  869   1.290   2.310   0.993 -1.6047 -2.1645 -0.2040
  290SOL    HW2  870   1.138   2.255   1.034  1.0441  0.6897  0.1473
  291SOL     OW  871   1.710   1.422   2.993  0.5448  0.0196 -0.2710
  291SOL    HW1  872   1.722   1.342   2.924 -0.8170  0.6941 -4.7820
  291SOL    HW2  873   1.656   1.393   3.073 -1.4137  0.0023  0.0005
  292SOL     OW  874   1.449   1.389   0.921 -0.1097 -0.1883 -0.8580
  292SOL    HW1  875   1.511   1.453   0.876 -1.2665 -1.3762  1.4863
  292SOL    HW2  876   1.472   1.398   1.022 -2.6305 -0.5769 -2.0419
  293SOL     OW  877   1.454   2.880   1.074  0.4762 -0.4327  0.3929
  293SOL    HW1  878   1.525   2.832   1.125  0.0109 -0.7746 -2.3355
  293SOL    HW2  879   1.469   2.865   0.975  1.2768  0.2334 -2.0696
  294SOL     OW  880   2.980   1.137   2.657  0.5570 -0.4570  0.1306
  294SOL    HW1  881   3.063   1.161   2.706 -2.4087 -1.6203 -3.4502
  294SOL    HW2  882   2.996   1.169   2.562  3.3775 -1.3133 -0.3708
  295SOL     OW  883   1.525   2.070   2.702 -0.0861 -0.3706  0.3506
  295SOL    HW1  884   1.453   2.127   2.745  1.7680 -1.9200 -0.7672
  295SOL    HW2  885   1.604   2.126   2.661 -1.1020 -1.7438  2.3839
  296SOL     OW  886   2.059   1.099   2.214 -0.7495  0.4231 -0.1277
  296SOL    HW1  887   1.963   1.067   2.190  0.6187  1.4989  1.8204
  296SOL    HW2  888   2.085   1.090   2.312 -4.5186 -0.1116 -3.0251
  297SOL     OW  889   0.362   0.703   2.157  0.3773  0.5620 -0.6122
  297SOL    HW1  890   0.348   0.606   2.129 -1.9089 -0.9602 -0.2068
  297SOL    HW2  891   0.275   0.745   2.121  0.1037 -2.7666  0.9130
  298SOL     OW  892   0.858   2.168   2.066 -0.1660 -0.1707  0.4950
  298SOL    HW1  893   0.902   2.242   2.119  0.6271 -1.8807  1.4464
  298SOL    HW2  894   0.851   2.083   2.124 -0.5623 -0.5111 -0.2813
  299SOL     OW  895   0.622   3.074   2.672  0.2558  0.1719 -0.5218
  299SOL    HW1  896   0.720   3.089   2.694 -2.2861 -1.4461  0.9300
  299SOL    HW2  897   0.588   2.980   2.696 -1.3470  0.0956 -0.1341
  300SOL     OW  898   0.241   0.935   2.841 -0.2065 -0.7843  0.0012
  300SOL    HW1  899   0.258   1.016   2.901  0.0294  0.6184  1.2847
  300SOL    HW2  900   0.322   0.926   2.777 -0.5884 -2.6662 -2.4193
  301SOL     OW  901   1.514   1.283   1.603 -0.2632  0.7184 -0.0904
  301SOL    HW1  902   1.517   1.191   1.644  0.1473  1.4372  0.6777
  301SOL    HW2  903   1.515   1.351   1.680 -1.3590  0.5776  0.5208
  302SOL     OW  904   2.687   2.082   2.494  0.0472  0.2297  0.0278
  302SOL    HW1  905   2.744   2.168   2.490  0.2314 -3.4951 -0.9962
  302SOL    HW2  906   2.621   2.075   2.419  3.2297  1.3198  0.4036
  303SOL     OW  907   0.030   0.198   2.719 -0.3298  0.1966 -1.3505
  303SOL    HW1  908   0.068   0.111   2.686 -1.1703  0.3866  0.9458
  303SOL    HW2  909   0.017   0.272   2.653 -1.1034 -0.3700  1.7176
  304SOL     OW  910   3.013   0.610   1.631  0.1207  0.6866  0.2786
  304SOL    HW1  911   3.107   0.640   1.661 -0.7306 -2.3184 -1.6624
  304SOL    HW2  912   2.944   0.683   1.631  0.1770 -2.4597 -1.2693
  305SOL     OW  913   2.885   3.089   1.733  0.3148  0.2168 -0.5579
  305SOL    HW1  914   2.847   3.035   1.805  1.2249 -1.8974  0.6739
  305SOL    HW2  915   2.819   0.034   1.706  1.8384 -1.0951  1.4777
  306SOL     OW  916   2.649   1.411   1.478 -0.3666 -0.1622 -0.5128
  306SOL    HW1  917   2.672   1.444   1.568  0.3500 -3.2809 -2.5497
  306SOL    HW2  918   2.727   1.352   1.443 -0.9358 -1.6455  1.9322
  307SOL     OW  919   2.134   0.384   1.140  0.3558 -0.7118  0.4338
  307SOL    HW1  920   2.119   0.330   1.058 -1.1658  0.0463  2.4913
  307SOL    HW2  921   2.051   0.436   1.167 -1.3220  1.0734  1.6101
  308SOL     OW  922   2.916   1.925   1.199 -1.3007 -0.1053  0.2115
  308SOL    HW1  923   2.965   1.940   1.112  0.7223  3.2170  1.0585
  308SOL    HW2  924   2.875   1.833   1.207  1.1458 -0.0379  1.2540
  309SOL     OW  925   2.137   1.896   1.530  0.1591 -0.2396 -0.1723
  309SOL    HW1  926   2.091   1.948   1.451 -1.1372 -0.0749 -0.1927
  309SOL    HW2  927   2.114   1.946   1.617  0.3474  1.5438  1.6557
  310SOL     OW  928   2.483   1.530   0.033 -0.5131  0.4949  0.1918
  310SOL    HW1  929   2.407   1.599   0.049 -1.8840 -1.3635 -0.5079
  310SOL    HW2  930   2.531   1.562   3.070 -0.1406  0.0613 -2.5794
  311SOL     OW  931   2.388   1.318   2.863 -0.1269  0.2104 -0.0912
  311SOL    HW1  932   2.457   1.336   2.934 -0.3454 -1.5596  0.7592
  311SOL    HW2  933   2.299   1.366   2.883  0.2181 -0.5124 -1.7348
  312SOL     OW  934   1.304   2.306   1.608  0.5800  0.1242 -0.2880
  312SOL    HW1  935   1.404   2.309   1.596  0.9141 -1.5640  1.4417
  312SOL    HW2  936   1.288   2.253   1.690  0.4426 -1.6493  0.1609
  313SOL     OW  937   0.402   2.790   1.065 -0.0156  0.2713 -0.0305
  313SOL    HW1  938   0.306   2.799   1.106  0.3344  0.5051  0.6728
  313SOL    HW2  939   0.403   2.723   0.984  1.0641  0.4989  0.5644
  314SOL     OW  940   1.039   1.739   1.396  0.2978 -0.3194 -0.1656
  314SOL    HW1  941   0.965   1.758   1.332  1.3853 -1.7782 -0.5296
  314SOL    HW2  942   1.026   1.782   1.485 -0.3100 -0.8182 -1.8709
  315SOL     OW  943   0.433   2.993   2.430  0.2939 -0.0483 -0.2510
  315SOL    HW1  944   0.409   3.075   2.481 -0.6867  0.0226 -1.2161
  315SOL    HW2  945   0.370   2.989   2.348 -2.2597  1.3893 -1.2124
  316SOL     OW  946   0.002   2.248   0.943  0.0349  0.1936 -0.0244
  316SOL    HW1  947   0.006   2.296   0.855  3.5449 -0.9295 -1.8574
  316SOL    HW2  948   0.088   2.257   0.999  1.0947  0.2450 -0.1396
  317SOL     OW  949   1.887   0.567   0.318  0.1604 -0.3718 -0.5984
  317SOL    HW1  950   1.905   0.483   0.265 -0.6474 -0.7047  0.7753
  317SOL    HW2  951   1.931   0.564   0.410 -1.2924 -2.9506 -0.0283
  318SOL     OW  952   3.069   2.663   0.034 -0.0611 -0.2468 -0.3366
  318SOL    HW1  953   2.994   2.724   3.121 -0.6249 -1.3341  0.1155
  318SOL    HW2  954   3.071   2.661   0.135 -0.7798 -0.6188 -1.6630
  319SOL     OW  955   1.623   1.607   0.425  0.1818 -0.2094  0.2259
  319SOL    HW1  956   1.651   1.509   0.424 -1.7316 -0.6216  0.6951
  319SOL    HW2  957   1.647   1.645   0.333 -0.7916 -1.3899 -1.0221
  320SOL     OW  958   0.686   2.555   2.619 -0.2841 -0.0446  0.1276
  320SOL    HW1  959   0.624   2.544   2.536 -0.5174 -1.0263 -1.6674
  320SOL    HW2  960   0.653   2.483   2.687  3.3625 -2.2575 -2.3635
  321SOL     OW  961   1.063   3.061   0.269  0.3076  0.1117  0.5327
  321SOL    HW1  962   1.015   2.974   0.295 -0.9845 -3.8688  2.8445
  321SOL    HW2  963   1.145   3.043   0.212 -0.4041  0.8772  0.7374
  322SOL     OW  964   2.306   0.961   2.134 -0.4328 -0.1527  0.0487
  322SOL    HW1  965   2.211   0.973   2.148  0.5099  0.4420  1.4338
  322SOL    HW2  966   2.337   0.956   2.229 -2.0475  0.9683  2.9232
  323SOL     OW  967   2.895   0.909   0.570  0.2118 -0.3295  0.2835
  323SOL    HW1  968   2.927   0.941   0.663  1.2743 -0.5920 -0.4384
  323SOL    HW2  969   2.847   0.985   0.528 -2.3690 -0.2538  0.7164
  324SOL     OW  970   0.073   0.404   2.517 -0.1728  0.7973 -0.1363
  324SOL    HW1  971   0.017   0.477   2.475 -1.0705 -2.2241  1.2831
  324SOL    HW2  972   0.157   0.435   2.572  0.5393 -0.2381  1.1940
  325SOL     OW  973   0.846   0.010   2.463 -0.0869  0.1802 -0.2062
  325SOL    HW1  974   0.939   3.122   2.424  2.6638  0.7518 -0.3222
  325SOL    HW2  975   0.852   0.030   2.561 -1.2106 -1.9824 -0.1309
  326SOL     OW  976   2.484   2.845   1.173  0.2231 -0.4277  0.2593
  326SOL    HW1  977   2.523   2.828   1.265  2.0449 -0.1033  0.7684
  326SOL    HW2  978   2.455   2.762   1.124 -1.6555 -3.2422 -1.8821
  327SOL     OW  979   1.626   0.658   0.294 -0.3371  0.0265  0.2570
  327SOL    HW1  980   1.711   0.619   0.316 -1.3066 -3.0269  2.1635
  327SOL    HW2  981   1.621   0.754   0.328 -1.4409 -0.6282  2.2369
  328SOL     OW  982   2.969   1.664   2.041  0.2825 -0.8558 -0.1665
  328SOL    HW1  983   2.990   1.651   2.141  1.1621 -1.3229  2.2136
  328SOL    HW2  984   2.929   1.758   2.027  1.0931  1.2693  0.9531
  329SOL     OW  985   2.200   2.682   2.009 -0.5514  0.7981  0.2497
  329SOL    HW1  986   2.188   2.586   1.979 -1.5596 -1.2113 -1.8790
  329SOL    HW2  987   2.149   2.743   1.948  2.1343 -0.2469  3.5453
  330SOL     OW  988   2.419   1.654   1.876 -0.1619 -0.2692  0.4178
  330SOL    HW1  989   2.431   1.557   1.905  0.5508  1.0027  1.2808
  330SOL    HW2  990   2.510   1.700   1.862 -1.8739 -2.0535 -0.8926
  331SOL     OW  991   2.699   2.236   1.066  0.1854 -0.2917 -0.7744
  331SOL    HW1  992   2.777   2.172   1.087 -0.7976  1.1417 -0.1454
  331SOL    HW2  993   2.659   2.221   0.976 -1.5831 -1.5458 -0.1795
  332SOL     OW  994   0.863   2.754   0.090 -0.0254 -0.1079  0.3572
  332SOL    HW1  995   0.762   2.764   0.104  1.0309  1.7018  2.0964
  332SOL    HW2  996   0.909   2.806   0.164  0.4042 -0.7214  2.2738
  333SOL     OW  997   1.766   0.405   2.550  0.0893  0.2447 -0.3292
  333SOL    HW1  998   1.682   0.377   2.600 -1.4731  1.8771 -1.3938
  333SOL    HW2  999   1.844   0.339   2.561 -0.3678  1.1998  0.9392
  334SOL     OW 1000   0.540   1.285   0.599  0.6002  0.3581 -0.2643
  334SOL    HW1 1001   0.635   1.312   0.589 -1.9475  0.5692 -1.2129
  334SOL    HW2 1002   0.491   1.303   0.509 -1.3690  2.9804 -2.7920
  335SOL     OW 1003   0.050   3.083   2.156 -0.0703 -0.1654  0.5372
  335SOL    HW1 1004   0.019   0.024   2.229  3.5166 -1.5556  0.4144
  335SOL    HW2 1005   0.026   3.116   2.064  0.4075 -0.8451  0.6593
  336SOL     OW 1006   2.803   3.097   2.177  0.0528  0.4288 -0.3699
  336SOL    HW1 1007   2.891   3.106   2.224 -1.1474  1.0270 -3.5619
  336SOL    HW2 1008   2.721   3.100   2.235  0.5716  2.1297  0.1669
  337SOL     OW 1009   1.855   1.506   0.736  0.0687  0.0731 -0.1010
  337SOL    HW1 1010   1.873   1.473   0.827 -0.9318  0.3425 -1.2795
  337SOL    HW2 1011   1.909   1.448   0.672 -0.4538  0.2014  0.0035
  338SOL     OW 1012   0.902   1.884   0.822 -0.4419 -0.3775  0.7987
  338SOL    HW1 1013   0.877   1.798   0.873  2.2722 -1.4666 -1.8622
  338SOL    HW2 1014   0.877   1.956   0.888  0.8875 -2.2007  2.5199
  339SOL     OW 1015   3.021   1.064   1.093  0.0059  0.2255 -0.2650
  339SOL    HW1 1016   3.100   1.057   1.160  3.1102  0.6942 -0.2094
  339SOL    HW2 1017   2.934   1.021   1.128 -2.3927 -2.0820  0.8965
  340SOL     OW 1018   1.667   2.781   2.229  0.5275 -0.4843 -0.6106
  340SOL    HW1 1019   1.610   2.698   2.262  0.2063 -0.6100  0.8083
  340SOL    HW2 1020   1.766   2.768   2.243  0.5364  0.3885 -4.2210
  341SOL     OW 1021   2.163   1.516   0.842  0.1783 -0.3869  0.0924
  341SOL    HW1 1022   2.247   1.461   0.841 -0.4557 -2.0899 -0.1175
  341SOL    HW2 1023   2.099   1.481   0.769 -2.5036  1.0193 -1.3977
  342SOL     OW 1024   3.008   1.433   0.830 -0.1778  0.4293 -0.1630
  342SOL    HW1 1025   2.946   1.370   0.878 -1.1803 -0.4430 -1.2403
  342SOL    HW2 1026   2.955   1.518   0.814  0.4968  1.1502 -0.6476
  343SOL     OW 1027   2.488   1.224   1.675  0.3104  0.2958 -0.1436
  343SOL    HW1 1028   2.499   1.179   1.766  0.2171 -0.0656  1.2694
  343SOL    HW2 1029   2.556   1.302   1.670 -2.0360 -0.1481 -0.1020
  344SOL     OW 1030   1.954   0.603   1.190 -0.3046 -0.2444  0.4303
  344SOL    HW1 1031   1.861   0.650   1.179 -3.2333 -1.0493  0.9807
  344SOL    HW2 1032   2.031   0.669   1.179  1.3084  1.5967  0.7015
  345SOL     OW 1033   0.152   3.101   2.609  0.4772  0.0356  0.0494
  345SOL    HW1 1034   0.156   3.000   2.605 -1.7289 -0.3198 -2.7702
  345SOL    HW2 1035   0.240   0.010   2.592 -0.3264  0.1083 -1.8491
  346SOL     OW 1036   2.735   1.594   0.158 -0.2234 -0.1024 -0.4060
  346SOL    HW1 1037   2.730   1.666   0.232 -0.3582 -0.8226  0.0775
  346SOL    HW2 1038   2.639   1.568   0.129 -0.9997 -3.6883  3.4542
  347SOL     OW 1039   1.863   2.669   1.807  0.4586 -0.6417  0.0342
  347SOL    HW1 1040   1.892   2.597   1.740  2.1202 -0.2433  0.6318
  347SOL    HW2 1041   1.794   2.728   1.760 -1.4477  2.8068 -1.6187
  348SOL     OW 1042   1.062   1.300   1.716  0.1436  0.2838  0.4337
  348SOL    HW1 1043   1.132   1.376   1.708  2.1543  2.4229 -1.4257
  348SOL    HW2 1044   1.005   1.299   1.632  1.5330 -1.1286  0.3541
  349SOL     OW 1045   2.165   1.233   1.997  0.3093 -0.7012 -0.3400
  349SOL    HW1 1046   2.137   1.187   2.081  2.5868  3.6204 -0.6394
  349SOL    HW2 1047   2.256   1.278   2.006 -3.2550 -2.3803 -0.6143
  350SOL     OW 1048   2.512   2.415   0.543 -0.2932  1.0132  0.2284
  350SOL    HW1 1049   2.564   2.430   0.458  0.7677 -0.2738  0.2132
  350SOL    HW2 1050   2.571   2.445   0.622 -1.3832 -2.6332 -1.8483
  351SOL     OW 1051   0.185   0.266   1.616 -1.0691 -0.2646 -0.0290
  351SOL    HW1 1052   0.263   0.221   1.567 -1.5164  1.4667  0.8094
  351SOL    HW2 1053   0.107   0.272   1.552  0.7559 -1.9737 -1.6861
  352SOL     OW 1054   1.522   2.517   1.852 -0.8087 -0.0035 -0.2368
  352SOL    HW1 1055   1.461   2.597   1.838 -0.3527 -1.5125  0.4644
  352SOL    HW2 1056   1.528   2.499   1.953 -3.2602  0.1889  2.7623
  353SOL     OW 1057   0.945   1.147   2.424  0.3614 -0.1667 -0.2709
  353SOL    HW1 1058   0.900   1.169   2.516 -1.4673  2.1557  1.2849
  353SOL    HW2 1059   1.022   1.081   2.436 -1.8313  1.7303  1.6673
  354SOL     OW 1060   1.428   1.741   0.600  0.3115 -0.2927 -0.5814
  354SOL    HW1 1061   1.358   1.682   0.645 -1.5425 -0.5433  1.9494
  354SOL    HW2 1062   1.474   1.695   0.523 -0.4473 -2.1258  1.0365
  355SOL     OW 1063   2.020   0.205   0.966 -0.9009 -0.5245  0.2995
  355SOL    HW1 1064   2.042   0.112   0.936  1.6211  0.7316  1.0722
  355SOL    HW2 1065   1.921   0.230   0.951  1.3140  1.4585 -0.1919
  356SOL     OW 1066   2.997   1.296   3.028  0.1018  0.1714  0.3392
  356SOL    HW1 1067   3.038   1.288   2.935 -2.5541  0.2171 -0.0163
  356SOL    HW2 1068   3.017   1.216   3.088 -2.4770  1.1540  0.2971
  357SOL     OW 1069   3.086   0.014   1.910  0.0271 -0.0545  0.4068
  357SOL    HW1 1070   0.055   0.018   1.865  1.1943 -0.9017 -2.3471
  357SOL    HW2 1071   3.016   3.122   1.837 -2.9168  1.7757  0.6682
  358SOL     OW 1072   0.399   1.358   2.800  0.1109  0.2609 -0.0652
  358SOL    HW1 1073   0.299   1.365   2.822 -0.9080  2.8883  2.1828
  358SOL    HW2 1074   0.454   1.400   2.879  2.1404 -0.4632 -0.7751
  359SOL     OW 1075   2.733   2.831   2.631 -0.0554  0.3396 -0.2688
  359SOL    HW1 1076   2.779   2.740   2.642  0.8007 -1.2854  0.4145
  359SOL    HW2 1077   2.677   2.845   2.713 -0.1085 -0.5362 -0.4075
  360SOL     OW 1078   1.725   1.130   1.286  0.4227 -0.1239  0.6958
  360SOL    HW1 1079   1.732   1.167   1.379 -2.4334 -0.3401  0.0729
  360SOL    HW2 1080   1.678   1.198   1.225  1.4701 -1.4994 -3.5264
  361SOL     OW 1081   1.945   2.401   1.337  0.3997  0.1054  0.4608
  361SOL    HW1 1082   1.857   2.344   1.361 -0.5051 -0.5538 -0.4729
  361SOL    HW2 1083   1.946   2.495   1.380 -0.4814 -0.5609 -0.4714
  362SOL     OW 1084   1.541   0.926   1.193  0.1324 -0.0181  0.5632
  362SOL    HW1 1085   1.460   0.961   1.241  0.7607 -0.2564 -2.4302
  362SOL    HW2 1086   1.621   0.985   1.207 -1.2241  0.8654  2.1012
  363SOL     OW 1087   2.259   2.494   0.638 -0.1482 -0.3907  0.0973
  363SOL    HW1 1088   2.345   2.462   0.593  1.1764  0.0533  1.1211
  363SOL    HW2 1089   2.247   2.595   0.628 -0.0897 -1.4936  1.0684
  364SOL     OW 1090   3.104   0.290   0.974 -0.0471 -0.1304 -0.1164
  364SOL    HW1 1091   0.023   0.208   0.935  3.2090  2.1896 -1.8559
  364SOL    HW2 1092   0.022   0.325   1.061 -0.7000  1.4406 -0.5123
  365SOL     OW 1093   0.400   2.925   0.679  0.3046  0.0705  0.5863
  365SOL    HW1 1094   0.333   2.931   0.600 -0.4628  1.1858 -0.4444
  365SOL    HW2 1095   0.422   3.020   0.714 -0.0098  0.6402  0.2022
  366SOL     OW 1096   0.129   1.459   0.484 -0.1917 -1.2208  0.2594
  366SOL    HW1 1097   0.082   1.391   0.539  3.2932 -3.4038 -1.6267
  366SOL    HW2 1098   0.220   1.467   0.533  0.8567  0.7658  1.5411
  367SOL     OW 1099   2.677   2.342   2.981 -0.3209  0.1108 -0.1735
  367SOL    HW1 1100   2.775   2.353   3.004 -0.5274  0.1133  1.6660
  367SOL    HW2 1101   2.668   2.361   2.876 -2.1547 -0.5321 -1.0264
  368SOL     OW 1102   2.492   1.702   0.788 -0.4703  0.5608  0.2975
  368SOL    HW1 1103   2.406   1.651   0.803  0.1453  0.6901 -1.4638
  368SOL    HW2 1104   2.566   1.675   0.858  4.3245 -0.4556  0.5473
  369SOL     OW 1105   1.176   0.803   0.391  0.6672 -0.5100  0.5340
  369SOL    HW1 1106   1.125   0.739   0.451 -1.0425  1.8481  1.3842
  369SOL    HW2 1107   1.270   0.816   0.426 -1.3751 -2.1927 -0.8186
  370SOL     OW 1108   0.558   3.025   1.098  0.3570  0.6369 -0.0356
  370SOL    HW1 1109   0.519   2.929   1.081 -1.8567 -2.5732  1.5136
  370SOL    HW2 1110   0.646   3.038   1.048  0.4427  0.4200 -0.3925
  371SOL     OW 1111   2.836   1.462   2.734  0.4978  0.7344  0.2087
  371SOL    HW1 1112   2.772   1.536   2.709 -0.1064  0.1683  0.2371
  371SOL    HW2 1113   2.820   1.409   2.817 -1.0889 -1.0824 -1.6872
  372SOL     OW 1114   0.750   0.587   2.411  0.1239 -0.7737 -0.4750
  372SOL    HW1 1115   0.744   0.579   2.310  1.5754  0.6152  2.9967
  372SOL    HW2 1116   0.787   0.499   2.461 -0.4616 -2.1423 -0.0985
  373SOL     OW 1117   0.588   0.375   0.011  0.7632 -0.0244  0.1455
  373SOL    HW1 1118   0.607   0.284   3.105 -1.3342  1.2362 -1.7849
  373SOL    HW2 1119   0.669   0.396   0.072  0.8770 -0.2006 -0.0197
  374SOL     OW 1120   1.208   2.110   0.079 -0.3684 -0.2966  0.1649
  374SOL    HW1 1121   1.294   2.164   0.060  0.9464 -0.1498 -0.1022
  374SOL    HW2 1122   1.215   2.013   0.056  2.8211  0.7558 -2.4766
  375SOL     OW 1123   0.774   2.916   1.644 -0.4933  0.1320 -0.1230
  375SOL    HW1 1124   0.858   2.926   1.577  0.8241  1.1130 -1.1074
  375SOL    HW2 1125   0.702   2.982   1.615  2.9696 -1.6935 -1.0300
  376SOL     OW 1126   0.370   2.620   2.041  0.1712  0.7736 -0.3937
  376SOL    HW1 1127   0.466   2.600   2.050 -1.7915 -0.1791 -0.0270
  376SOL    HW2 1128   0.311   2.538   2.046  0.6875 -0.7361 -0.1262
  377SOL     OW 1129   2.559   1.983   0.053  0.0144 -0.1775  0.0671
  377SOL    HW1 1130   2.458   1.972   0.064 -0.8750 -0.6583  1.7160
  377SOL    HW2 1131   2.595   1.928   3.099  0.1242  0.6243 -2.3741
  378SOL     OW 1132   2.234   0.196   0.727 -0.0690  0.0274  0.1217
  378SOL    HW1 1133   2.203   0.297   0.735 -0.1586  2.8554 -1.7948
  378SOL    HW2 1134   2.330   0.184   0.755 -2.9769 -1.5743 -3.2134
  379SOL     OW 1135   1.081   0.576   0.583  0.5076  0.0581  0.5252
  379SOL    HW1 1136   1.107   0.520   0.502 -0.7720 -1.6817  3.5019
  379SOL    HW2 1137   0.977   0.574   0.597  0.1028  2.0828  0.5426
  380SOL     OW 1138   2.689   2.345   1.966  0.4576 -0.5297 -0.6621
  380SOL    HW1 1139   2.750   2.419   1.931 -1.4335  3.4570 -0.6706
  380SOL    HW2 1140   2.608   2.333   1.904  0.3137  0.4523 -1.6748
  381SOL     OW 1141   2.804   1.434   1.967 -0.3837  0.2899 -0.0779
  381SOL    HW1 1142   2.855   1.515   2.002 -1.1958  2.9112  0.3401
  381SOL    HW2 1143   2.785   1.369   2.045  0.9106  0.0680  1.0133
  382SOL     OW 1144   3.022   2.201   2.923 -0.4258 -0.3088 -0.2686
  382SOL    HW1 1145   3.025   2.294   2.964  1.4713 -1.5251  0.4226
  382SOL    HW2 1146   2.964   2.139   2.982  0.0683 -1.4011  0.1268
  383SOL     OW 1147   1.378   0.789   2.721  0.1183  0.4679  0.3636
  383SOL    HW1 1148   1.359   0.858   2.794  2.2265 -2.0490 -1.9042
  383SOL    HW2 1149   1.400   0.845   2.638 -3.4082 -2.1975 -0.2075
  384SOL     OW 1150   1.341   2.221   2.117  0.1067 -0.4299  0.5909
  384SOL    HW1 1151   1.383   2.315   2.111  2.3401 -0.0929  1.6664
  384SOL    HW2 1152   1.258   2.224   2.059  0.2968 -0.3543 -0.1395
  385SOL     OW 1153   2.577   2.740   3.101  0.1399 -0.4038  0.0714
  385SOL    HW1 1154   2.516   2.693   0.038 -1.2756 -0.8731  1.7124
  385SOL    HW2 1155   2.635   2.810   0.024  0.1215 -0.9462 -0.9333
  386SOL     OW 1156   1.570   1.132   0.809  0.0514  0.2289  0.2510
  386SOL    HW1 1157   1.481   1.120   0.764  1.2131  0.9743  0.8138
  386SOL    HW2 1158   1.568   1.126   0.912 -0.4162  1.0262 -0.0459
  387SOL     OW 1159   3.119   1.821   1.661 -0.3457  0.1359  0.0058
  387SOL    HW1 1160   0.003   1.888   1.740  1.2696 -2.4865 -0.1531
  387SOL    HW2 1161   3.062   1.866   1.590  0.1183 -1.6597 -1.8663
  388SOL     OW 1162   0.505   1.197   1.434 -0.6128  0.3809 -0.3832
  388SOL    HW1 1163   0.524   1.155   1.523 -3.2834 -0.8545  1.3251
  388SOL    HW2 1164   0.552   1.138   1.361  0.0891 -1.9897  2.0083
  389SOL     OW 1165   2.070   1.033   2.570 -0.1032  0.1693 -0.3105
  389SOL    HW1 1166   2.122   0.961   2.623 -0.5954  2.0000 -1.2090
  389SOL    HW2 1167   2.083   1.125   2.616 -0.5976  0.1547  2.4431
  390SOL     OW 1168   0.951   1.663   0.034 -0.3309 -0.1172  0.0289
  390SOL    HW1 1169   0.848   1.671   0.016 -0.9409  1.7217 -3.0747
  390SOL    HW2 1170   1.002   1.614   3.080  3.3889 -2.5968 -2.8518
  391SOL     OW 1171   1.099   1.627   0.252 -0.1154 -0.0213 -0.2317
  391SOL    HW1 1172   1.075   1.708   0.311 -0.0008  0.1270  2.1053
  391SOL    HW2 1173   1.032   1.624   0.172 -0.1567  0.9970 -0.9231
  392SOL     OW 1174   2.615   3.017   2.439 -0.2862  0.1050  0.3653
  392SOL    HW1 1175   2.632   3.098   2.494  0.9528 -1.2408  1.0554
  392SOL    HW2 1176   2.648   2.930   2.481 -0.0456  1.8891 -3.2334
  393SOL     OW 1177   1.607   2.164   0.104  0.1313 -0.8807  0.5076
  393SOL    HW1 1178   1.615   2.216   0.189  0.5720 -1.2077  0.1244
  393SOL    HW2 1179   1.517   2.169   0.057 -1.9154 -0.5719  1.3308
  394SOL     OW 1180   0.721   0.238   2.376  0.7310  0.3221  0.3447
  394SOL    HW1 1181   0.761   0.143   2.391 -1.9711 -1.0216  0.2580
  394SOL    HW2 1182   0.734   0.266   2.281 -1.3404 -1.4250  2.5392
  395SOL     OW 1183   0.322   1.669   1.318 -0.3023  0.4728 -0.1083
  395SOL    HW1 1184   0.298   1.697   1.413  0.8140  0.4110  0.9091
  395SOL    HW2 1185   0.249   1.604   1.295  1.2034 -0.2810 -1.8511
  396SOL     OW 1186   2.164   1.429   2.945 -0.1069  0.2176  0.6038
  396SOL    HW1 1187   2.119   1.509   2.898 -0.1274 -1.9904 -2.0499
  396SOL    HW2 1188   2.187   1.445   3.041 -1.2257 -3.6940 -0.1214
  397SOL     OW 1189   0.455   0.719   2.886  0.4264 -0.4408  0.3615
  397SOL    HW1 1190   0.550   0.687   2.883  0.3164 -3.5439 -0.6737
  397SOL    HW2 1191   0.449   0.791   2.812  0.8889 -0.0491 -0.0061
  398SOL     OW 1192   0.949   2.463   0.101  0.6705  0.4452 -0.1685
  398SOL    HW1 1193   1.042   2.475   0.139  1.9797 -0.8528 -2.5488
  398SOL    HW2 1194   0.899   2.553   0.096 -0.8999  4.3281  1.2557
  399SOL     OW 1195   1.946   2.327   2.389 -0.0084 -0.3648 -0.2950
  399SOL    HW1 1196   1.972   2.423   2.415 -1.3582 -1.6422 -0.3761
  399SOL    HW2 1197   1.909   2.331   2.290  1.4919  0.1625 -1.8468
  400SOL     OW 1198   3.073   0.992   1.836 -0.0338  0.0682 -0.1300
  400SOL    HW1 1199   3.016   1.071   1.866 -0.8348  1.6195  0.0158
  400SOL    HW2 1200   0.034   1.027   1.798  0.9050 -1.6745  0.1836
  401SOL     OW 1201   0.815   0.610   0.680  0.0642 -0.4291 -0.2849
  401SOL    HW1 1202   0.721   0.578   0.651 -1.0970  0.9377  1.5033
  401SOL    HW2 1203   0.802   0.706   0.715  0.8997  1.0383 -0.0163
  402SOL     OW 1204   0.893   3.111   2.759 -0.1383  0.0706 -0.2939
  402SOL    HW1 1205   0.926   0.050   2.830  0.6545 -0.3119  0.1829
  402SOL    HW2 1206   0.864   3.025   2.806  0.6355  0.6442  0.4316
  403SOL     OW 1207   2.630   1.831   1.862 -0.2850  0.2208 -0.1826
  403SOL    HW1 1208   2.703   1.867   1.913 -3.3628 -2.8152 -0.5142
  403SOL    HW2 1209   2.651   1.795   1.769  1.4109 -0.4698 -0.1679
  404SOL     OW 1210   2.580   2.400   1.482 -0.2628 -0.4339 -0.3935
  404SOL    HW1 1211   2.677   2.430   1.474 -0.0038 -1.3220 -3.7669
  404SOL    HW2 1212   2.561   2.328   1.412 -0.0772  1.0913  1.2968
  405SOL     OW 1213   1.897   0.339   2.823 -0.1055 -0.6271 -0.1999
  405SOL    HW1 1214   1.940   0.255   2.787  1.6645  3.5023  2.8113
  405SOL    HW2 1215   1.920   0.416   2.763 -0.8747 -0.3966  0.8539
  406SOL     OW 1216   1.207   1.841   0.035  0.0976 -0.0677 -0.2937
  406SOL    HW1 1217   1.296   1.806   0.074  1.3897  0.8233  2.7920
  406SOL    HW2 1218   1.122   1.779   0.053 -1.3306 -2.6503 -0.1175
  407SOL     OW 1219   1.813   1.786   0.643 -0.1322  1.0846  0.0439
  407SOL    HW1 1220   1.790   1.811   0.735  3.0507 -2.7808 -1.9242
  407SOL    HW2 1221   1.801   1.684   0.638 -1.0130  1.2916  0.5551
  408SOL     OW 1222   0.013   0.298   1.398 -0.2878  0.1741 -0.1501
  408SOL    HW1 1223   0.070   0.376   1.363  0.1539 -0.1751  0.0991
  408SOL    HW2 1224   3.108   0.232   1.321  2.3539 -1.2405 -0.8521
  409SOL     OW 1225   2.531   1.262   3.105  0.0748 -0.0279  0.0384
  409SOL    HW1 1226   2.543   1.180   0.034  0.4444  1.8258 -0.5787
  409SOL    HW2 1227   2.500   1.340   0.036  0.8247 -1.5936  1.3601
  410SOL     OW 1228   2.494   2.427   0.964  0.2200 -0.4858  0.2955
  410SOL    HW1 1229   2.441   2.363   1.028 -2.2234 -0.7602  2.4514
  410SOL    HW2 1230   2.536   2.372   0.892 -1.9903  1.1116 -1.1934
  411SOL     OW 1231   0.251   0.016   0.304 -0.2421  0.0353  0.4248
  411SOL    HW1 1232   0.152   0.045   0.306 -1.9716  0.8524 -1.4479
  411SOL    HW2 1233   0.283   0.004   0.209  1.3428  1.3667  0.6458
  412SOL     OW 1234   1.609   2.784   0.526  0.4615  0.1853 -0.1094
  412SOL    HW1 1235   1.705   2.821   0.521  1.2275 -1.5279  1.2462
  412SOL    HW2 1236   1.610   2.700   0.582  1.0386  0.6429  1.0977
  413SOL     OW 1237   1.755   0.407   2.262  0.4177  0.4430 -0.4065
  413SOL    HW1 1238   1.741   0.393   2.360  0.6661  1.1967  1.0353
  413SOL    HW2 1239   1.667   0.394   2.215  1.2710 -0.1597  3.3209
  414SOL     OW 1240   0.035   0.589   0.412 -0.3031 -0.1582 -0.2168
  414SOL    HW1 1241   0.068   0.648   0.334  0.3437  3.8285  0.8162
  414SOL    HW2 1242   0.119   0.555   0.469  0.5958 -1.7928  1.4316
  415SOL     OW 1243   3.110   1.283   0.614  0.6115 -0.1464 -0.0243
  415SOL    HW1 1244   3.025   1.261   0.553 -2.1434 -1.7911  0.4952
  415SOL    HW2 1245   3.085   1.346   0.692  0.4672  1.0661 -0.1511
  416SOL     OW 1246   0.041   0.741   2.836  0.0417  0.3909  0.2399
  416SOL    HW1 1247   0.086   0.668   2.897  1.8761 -1.0071  1.7766
  416SOL    HW2 1248   0.095   0.825   2.840 -2.1623 -1.5538  2.1075
  417SOL     OW 1249   2.570   0.137   1.042  0.1997 -0.0308  0.3415
  417SOL    HW1 1250   2.491   0.174   1.097 -1.0413 -0.7220  1.3755
  417SOL    HW2 1251   2.665   0.159   1.080  1.4691  0.2121  0.4301
  418SOL     OW 1252   0.813   2.921   2.919 -0.1499 -0.2478  0.2328
  418SOL    HW1 1253   0.791   2.956   3.014  1.0609  0.4391 -1.9154
  418SOL    HW2 1254   0.789   2.823   2.913  1.4788  2.4977 -1.3905
  419SOL     OW 1255   0.373   0.871   0.786 -0.1780 -0.0672  0.4447
  419SOL    HW1 1256   0.288   0.896   0.835 -0.7469  0.3752  0.4492
  419SOL    HW2 1257   0.354   0.810   0.703  1.4414  2.3881 -0.3230
  420SOL     OW 1258   2.854   1.244   1.461 -0.2695  0.3761  0.1076
  420SOL    HW1 1259   2.926   1.270   1.532 -0.8255  2.0110  1.9787
  420SOL    HW2 1260   2.856   1.142   1.441 -0.0326 -2.6229 -0.7166
  421SOL     OW 1261   1.231   1.826   2.891  0.0826 -0.0125 -0.2352
  421SOL    HW1 1262   1.321   1.869   2.865  3.3706  1.4981  0.2321
  421SOL    HW2 1263   1.212   1.833   2.991  1.2169 -0.6639 -0.1459
  422SOL     OW 1264   2.357   0.838   2.429 -0.0557  0.0476 -0.7025
  422SOL    HW1 1265   2.329   0.847   2.530 -2.1573 -1.8823  2.2984
  422SOL    HW2 1266   2.405   0.752   2.404 -0.8715  1.9690  0.7821
  423SOL     OW 1267   2.027   1.400   0.324  0.8951 -0.7759  0.4748
  423SOL    HW1 1268   2.025   1.484   0.268  0.0837 -1.9572 -0.2270
  423SOL    HW2 1269   1.948   1.340   0.300 -0.7216  1.8050  1.7308
  424SOL     OW 1270   0.909   0.729   1.934 -0.2817  0.3694 -0.2775
  424SOL    HW1 1271   0.870   0.823   1.950  0.8262  2.2066 -1.7164
  424SOL    HW2 1272   1.002   0.719   1.976  0.6975  1.2385 -1.1244
  425SOL     OW 1273   3.085   2.825   2.169  0.3199 -0.0871 -0.3452
  425SOL    HW1 1274   3.072   2.788   2.074  0.5822 -1.4221 -0.8005
  425SOL    HW2 1275   3.106   2.923   2.167 -2.9985 -2.2036  0.1254
  426SOL     OW 1276   2.401   2.734   0.372 -0.2651  0.3452  0.6750
  426SOL    HW1 1277   2.492   2.759   0.408 -0.0855 -0.1918 -1.3907
  426SOL    HW2 1278   2.322   2.729   0.435 -1.0193 -0.8933  3.2476
  427SOL     OW 1279   0.709   0.617   2.849 -0.0738  0.9108 -0.3231
  427SOL    HW1 1280   0.709   0.610   2.747 -0.2241 -1.4119  0.2911
  427SOL    HW2 1281   0.802   0.604   2.885 -3.6832  0.3243  0.4687
  428SOL     OW 1282   2.751   1.369   2.964 -0.7799 -0.2179  0.2564
  428SOL    HW1 1283   2.676   1.315   3.004  0.5358  0.0841 -1.2739
  428SOL    HW2 1284   2.841   1.322   2.993  2.9786 -1.2424  0.1228
  429SOL     OW 1285   2.523   0.458   0.309  0.5035 -0.5541  0.1718
  429SOL    HW1 1286   2.522   0.449   0.409 -1.7920  2.1978 -4.2880
  429SOL    HW2 1287   2.490   0.550   0.277  1.1978 -2.5075 -0.8650
  430SOL     OW 1288   1.428   2.502   2.120 -0.0220  0.1449  0.2524
  430SOL    HW1 1289   1.447   2.545   2.211 -0.0406 -3.2400 -1.2632
  430SOL    HW2 1290   1.327   2.505   2.090 -1.8813 -1.6244 -0.6416
  431SOL     OW 1291   0.105   2.117   1.474 -0.4095 -0.2971 -0.0454
  431SOL    HW1 1292   0.016   2.076   1.486  0.9845  0.4330  2.1076
  431SOL    HW2 1293   0.174   2.073   1.536  0.7902  2.2930  1.7810
  432SOL     OW 1294   1.917   2.821   2.245 -0.5832 -0.2439  0.0249
  432SOL    HW1 1295   2.005   2.795   2.282 -2.9691  1.9681 -2.3832
  432SOL    HW2 1296   1.922   2.903   2.187  1.3774 -0.1855  1.6794
  433SOL     OW 1297   1.092   2.063   0.328 -0.0771  0.0189  0.6575
  433SOL    HW1 1298   1.053   1.971   0.342  1.1079  0.5944 -0.1810
  433SOL    HW2 1299   1.141   2.075   0.238  1.9328  2.1510  0.1118
  434SOL     OW 1300   0.303   1.967   2.655  0.5296  0.1605  0.1295
  434SOL    HW1 1301   0.399   1.946   2.664  0.2097  0.2067  3.0178
  434SOL    HW2 1302   0.263   2.016   2.733 -0.6345 -0.2787 -3.3960
  435SOL     OW 1303   0.174   0.954   0.297  0.0714  0.2609 -0.0832
  435SOL    HW1 1304   0.091   1.019   0.302  1.6598  1.7249 -2.0836
  435SOL    HW2 1305   0.145   0.863   0.265  0.7180 -0.6812 -0.2185
  436SOL     OW 1306   0.476   2.684   1.631  0.1405  0.6158  0.8134
  436SOL    HW1 1307   0.448   2.764   1.571  0.0426  0.9718  0.9818
  436SOL    HW2 1308   0.533   2.717   1.710  0.2222  0.5179 -1.4116
  437SOL     OW 1309   0.831   0.069   0.742  0.3973  0.1987  0.1351
  437SOL    HW1 1310   0.893   0.096   0.668 -2.0244 -0.5566  0.6339
  437SOL    HW2 1311   0.751   0.136   0.757 -0.2102  0.0420 -1.0628
  438SOL     OW 1312   0.327   2.335   0.544 -0.1920 -0.2969 -0.2004
  438SOL    HW1 1313   0.406   2.385   0.590  0.1144 -0.8709  0.2299
  438SOL    HW2 1314   0.283   2.275   0.614 -0.3223 -0.9522 -1.2720
  439SOL     OW 1315   0.914   2.294   1.686  0.3315 -0.1552 -0.1304
  439SOL    HW1 1316   0.833   2.233   1.676  3.1464 -1.6588 -2.0685
  439SOL    HW2 1317   0.892   2.390   1.670 -1.3895 -1.5085 -2.2082
  440SOL     OW 1318   1.948   0.054   2.337 -0.2115 -0.2574 -0.5918
  440SOL    HW1 1319   1.905   0.037   2.246  1.3388  0.4034  0.3607
  440SOL    HW2 1320   1.893   3.123   2.401 -1.2240  1.8101 -0.0104
  441SOL     OW 1321   3.006   0.453   1.912 -0.2725  0.0427  0.2186
  441SOL    HW1 1322   3.056   0.380   1.964 -2.6161  0.6504 -1.4278
  441SOL    HW2 1323   3.066   0.489   1.837 -0.4871 -0.6213 -0.0912
  442SOL     OW 1324   2.036   2.378   0.742 -0.3445  0.0397 -0.0792
  442SOL    HW1 1325   2.123   2.433   0.737 -2.6275  0.4090 -1.2705
  442SOL    HW2 1326   2.008   2.363   0.840  0.4281 -4.3736  2.2935
  443SOL     OW 1327   2.766   0.854   2.379 -0.1945 -0.2266 -0.0551
  443SOL    HW1 1328   2.733   0.781   2.442 -3.0023  0.1612 -0.3276
  443SOL    HW2 1329   2.859   0.884   2.413  1.4028  0.1008 -1.0544
  444SOL     OW 1330   1.817   1.002   2.120  0.5623 -0.2324  0.9727
  444SOL    HW1 1331   1.779   0.924   2.065 -0.3052 -1.6763  0.9681
  444SOL    HW2 1332   1.735   1.045   2.169 -2.9560  0.5215  1.4337
  445SOL     OW 1333   3.062   2.495   1.337 -0.1747  0.0912  0.1559
  445SOL    HW1 1334   0.000   2.462   1.407 -0.4316  2.2993 -1.1884
  445SOL    HW2 1335   3.095   2.498   1.240 -0.5084 -1.8348 -0.9244
  446SOL     OW 1336   2.799   1.662   1.203 -0.0879  0.2620  0.2328
  446SOL    HW1 1337   2.750   1.712   1.281 -2.6161 -0.0461 -0.0253
  446SOL    HW2 1338   2.858   1.587   1.244  0.3312  0.9508 -1.3464
  447SOL     OW 1339   0.493   1.116   0.830 -0.8227 -0.6013 -0.3088
  447SOL    HW1 1340   0.459   1.029   0.790  0.5153 -0.4408 -1.5108
  447SOL    HW2 1341   0.512   1.195   0.765  0.5885  0.2867 -3.1766
  448SOL     OW 1342   1.287   1.688   1.967  0.2923 -0.0422  0.3055
  448SOL    HW1 1343   1.210   1.708   1.903  2.1639 -1.0281  0.2276
  448SOL    HW2 1344   1.294   1.586   1.984  1.2189  1.2038 -0.3776
  449SOL     OW 1345   1.413   1.275   0.454  0.1467 -0.0098  0.0613
  449SOL    HW1 1346   1.503   1.327   0.472  1.8098  1.7719 -1.5277
  449SOL    HW2 1347   1.420   1.222   0.362 -1.2043  0.6376 -0.0341
  450SOL     OW 1348   2.848   2.592   2.240  0.0709  0.0137  0.1841
  450SOL    HW1 1349   2.909   2.667   2.208  0.3109 -0.6350  2.7219
  450SOL    HW2 1350   2.753   2.627   2.244 -1.3557  1.7969 -1.1453
  451SOL     OW 1351   2.289   0.310   2.445 -1.0590 -0.3300  0.1637
  451SOL    HW1 1352   2.301   0.285   2.352  1.1371  2.2665  3.1116
  451SOL    HW2 1353   2.361   0.270   2.505 -0.9828 -0.8080 -2.7483
  452SOL     OW 1354   1.616   0.335   1.139 -0.3572 -0.2870  0.1039
  452SOL    HW1 1355   1.651   0.250   1.185 -0.7453 -0.9025  0.6495
  452SOL    HW2 1356   1.603   0.419   1.199 -2.0793  1.4975 -0.9020
  453SOL     OW 1357   1.672   0.875   1.620  1.0232  0.1252 -0.3641
  453SOL    HW1 1358   1.629   0.826   1.539  0.7467  0.3935  0.7834
  453SOL    HW2 1359   1.756   0.924   1.586 -0.6537  0.8483 -0.6910
  454SOL     OW 1360   2.975   1.747   0.476  0.1633  0.2802 -0.0489
  454SOL    HW1 1361   3.053   1.757   0.541  0.7280  1.6632 -0.1493
  454SOL    HW2 1362   2.892   1.747   0.532  2.7551 -3.1364  1.3201
  455SOL     OW 1363   2.848   0.029   0.527  0.3092  0.1766 -0.0269
  455SOL    HW1 1364   2.823   0.114   0.479 -1.5381 -2.0724  1.3640
  455SOL    HW2 1365   2.766   3.106   0.561 -0.8044  0.1614  1.0681
  456SOL     OW 1366   0.155   2.830   1.211  0.2230 -0.1421 -0.4620
  456SOL    HW1 1367   0.084   2.892   1.258 -1.2168 -0.6854  0.9258
  456SOL    HW2 1368   0.175   2.743   1.260 -1.3018  1.0235 -2.5201
  457SOL     OW 1369   1.437   0.040   0.507 -0.0251 -0.6619  0.4163
  457SOL    HW1 1370   1.400   0.033   0.603  0.4160  0.3463 -2.4155
  457SOL    HW2 1371   1.504   0.114   0.499 -0.4696 -0.7401  0.6728
  458SOL     OW 1372   2.513   0.175   0.767  0.5831  0.0974  0.2956
  458SOL    HW1 1373   2.540   0.195   0.862  2.3983 -1.7053  0.6666
  458SOL    HW2 1374   2.578   0.110   0.722  1.7424 -0.8829  3.9687
  459SOL     OW 1375   2.289   0.511   2.614 -0.1649 -0.1242 -0.1942
  459SOL    HW1 1376   2.283   0.444   2.535 -1.0136 -1.6822 -0.7039
  459SOL    HW2 1377   2.352   0.481   2.686 -1.3169  3.8588 -1.3157
  460SOL     OW 1378   2.863   3.041   3.043  0.3430 -0.1004 -0.1428
  460SOL    HW1 1379   2.918   3.077   3.118  1.0810  0.8871 -1.3601
  460SOL    HW2 1380   2.889   3.095   2.961  1.9545 -2.3943 -0.5207
  461SOL     OW 1381   0.983   1.796   0.411  0.7203  0.1506 -0.0303
  461SOL    HW1 1382   0.988   1.856   0.493  0.9768 -0.2099 -0.5015
  461SOL    HW2 1383   0.885   1.794   0.378 -1.2019  0.9398  0.9980
  462SOL     OW 1384   2.303   2.237   1.106 -0.6811  0.4530  0.2359
  462SOL    HW1 1385   2.239   2.239   1.182  0.4014 -2.6265 -0.9402
  462SOL    HW2 1386   2.304   2.148   1.058  1.3747 -1.2108  0.7416
  463SOL     OW 1387   2.570   0.911   0.702  0.4058  0.0173 -0.3685
  463SOL    HW1 1388   2.487   0.919   0.651 -0.0180  0.0615 -2.9493
  463SOL    HW2 1389   2.605   0.813   0.713  1.9527 -3.7337  0.7266
  464SOL     OW 1390   0.390   0.157   1.472 -0.1898 -0.0605 -0.1902
  464SOL    HW1 1391   0.382   0.118   1.376 -0.8276 -1.7301  1.1173
  464SOL    HW2 1392   0.486   0.140   1.517  2.1017 -2.5821  0.1238
  465SOL     OW 1393   2.986   1.510   0.091 -0.0973 -0.0009 -0.5053
  465SOL    HW1 1394   2.887   1.538   0.105  1.4878  0.8741 -1.3656
  465SOL    HW2 1395   2.993   1.434   0.021  2.5027 -0.7823 -0.9208
  466SOL     OW 1396   1.708   0.142   2.822 -0.1440 -0.2193 -0.0263
  466SOL    HW1 1397   1.770   0.220   2.824 -1.8709 -2.6225  0.4709
  466SOL    HW2 1398   1.613   0.163   2.843 -0.9411  1.4935  0.7260
  467SOL     OW 1399   0.852   0.533   1.621  0.3074 -0.2510 -0.0980
  467SOL    HW1 1400   0.900   0.523   1.707 -1.9214 -1.7457  0.7663
  467SOL    HW2 1401   0.906   0.596   1.560  1.0441 -0.5035  0.5637
  468SOL     OW 1402   0.676   1.044   2.728 -0.0296 -0.4039  0.1803
  468SOL    HW1 1403   0.712   1.137   2.708 -1.0492 -1.2270  0.4507
  468SOL    HW2 1404   0.709   0.979   2.661 -2.8231  0.6202  1.6523
  469SOL     OW 1405   0.266   2.295   3.066  0.7874 -0.2313  0.2065
  469SOL    HW1 1406   0.252   2.396   3.050  0.0527  3.2175  0.5466
  469SOL    HW2 1407   0.215   2.263   0.023 -0.9307  0.9153 -3.2330
  470SOL     OW 1408   2.262   1.755   2.686  0.0901 -0.0579 -0.5909
  470SOL    HW1 1409   2.324   1.676   2.675  2.3935 -3.6544  3.6126
  470SOL    HW2 1410   2.301   1.849   2.687 -1.7441 -0.4285  0.6816
  471SOL     OW 1411   2.720   1.341   2.216 -0.3953 -0.0883 -0.2632
  471SOL    HW1 1412   2.689   1.242   2.228 -0.6985 -2.7552  2.6708
  471SOL    HW2 1413   2.743   1.374   2.309  1.6061  1.0263 -1.6041
  472SOL     OW 1414   0.552   2.760   0.541 -0.2440 -0.0043 -0.1279
  472SOL    HW1 1415   0.490   2.741   0.465  1.9840 -0.7888  0.4697
  472SOL    HW2 1416   0.515   2.832   0.602  0.0646 -0.9256 -1.3739
  473SOL     OW 1417   0.632   0.037   3.007  0.1464 -0.3114  0.9943
  473SOL    HW1 1418   0.641   3.118   3.098  2.0056  1.4019  0.2800
  473SOL    HW2 1419   0.724   0.074   2.968  4.5965 -1.6621 -0.9336
  474SOL     OW 1420   1.751   3.080   2.482  0.2005 -0.1966  0.0715
  474SOL    HW1 1421   1.704   3.080   2.573  0.4491 -2.0962  0.5507
  474SOL    HW2 1422   1.682   3.069   2.410  1.6953  1.8361 -0.8113
  475SOL     OW 1423   1.686   2.322   0.370  0.2496 -0.2380  0.4599
  475SOL    HW1 1424   1.724   2.307   0.462 -1.4971  0.9775  0.4235
  475SOL    HW2 1425   1.753   2.349   0.297  0.2044 -0.3621  0.4693
  476SOL     OW 1426   0.234   0.407   0.817  0.5338 -0.1931 -0.1159
  476SOL    HW1 1427   0.146   0.419   0.870 -0.1198  0.4187  1.0625
  476SOL    HW2 1428   0.300   0.354   0.873 -1.5037  0.0558 -1.5162
  477SOL     OW 1429   1.496   2.320   0.838 -0.2251 -0.0508 -0.0789
  477SOL    HW1 1430   1.591   2.299   0.803  0.0633  1.7886  0.7071
  477SOL    HW2 1431   1.428   2.334   0.762  0.8822 -2.6544  0.5132
  478SOL     OW 1432   0.277   2.355   2.289 -0.2621 -0.3633  0.6199
  478SOL    HW1 1433   0.270   2.262   2.325  0.0678  1.8999 -1.7861
  478SOL    HW2 1434   0.256   2.353   2.188  2.6892 -0.7546 -0.6916
  479SOL     OW 1435   2.388   0.656   0.859 -0.4638 -0.3179 -0.3428
  479SOL    HW1 1436   2.486   0.658   0.836  2.5515 -0.5467 -0.7254
  479SOL    HW2 1437   2.382   0.600   0.942 -0.2047  0.3260 -2.8171
  480SOL     OW 1438   3.019   2.960   0.229 -0.1879 -0.0083  0.9365
  480SOL    HW1 1439   3.040   3.032   0.300  1.4387 -0.5407 -1.8523
  480SOL    HW2 1440   3.064   2.987   0.141  0.5871  0.8558 -2.3806
  481SOL     OW 1441   2.776   2.708   1.259  0.0631  0.2081  0.1025
  481SOL    HW1 1442   2.857   2.672   1.308 -0.7961  3.2544  0.2671
  481SOL    HW2 1443   2.781   2.810   1.242 -0.5616  1.5207  1.0526
  482SOL     OW 1444   1.310   2.210   2.779  0.4212 -0.1940 -0.6821
  482SOL    HW1 1445   1.231   2.155   2.737 -1.4389  0.1503 -0.8656
  482SOL    HW2 1446   1.308   2.309   2.744  2.2697  1.1448 -0.9666
  483SOL     OW 1447   0.573   1.928   2.678  0.0203  0.1753  0.3566
  483SOL    HW1 1448   0.651   1.876   2.723 -0.4404  0.1206 -0.8169
  483SOL    HW2 1449   0.582   2.030   2.683  1.0379  0.8761  1.6453
  484SOL     OW 1450   0.991   0.940   1.220  0.8376  0.3035  0.7476
  484SOL    HW1 1451   0.911   0.909   1.273  1.5019 -0.1041 -1.3820
  484SOL    HW2 1452   1.078   0.915   1.268 -0.7868  0.3932 -2.5235
  485SOL     OW 1453   2.495   0.700   0.125  0.2707  0.0300 -0.0931
  485SOL    HW1 1454   2.393   0.689   0.134  1.4842 -0.8918  0.0129
  485SOL    HW2 1455   2.516   0.749   0.041  1.1054  0.7866  2.3952
  486SOL     OW 1456   1.724   0.097   1.275 -0.0423  0.1443 -0.0136
  486SOL    HW1 1457   1.665   0.043   1.336 -0.8245 -0.0453  1.0722
  486SOL    HW2 1458   1.810   0.130   1.328  0.4532  2.7838 -2.1099
  487SOL     OW 1459   0.354   2.490   1.165  0.5079 -0.0005  0.2962
  487SOL    HW1 1460   0.350   2.519   1.067  0.4442  0.7502  1.6030
  487SOL    HW2 1461   0.295   2.542   1.224 -1.4944 -2.1052 -2.1722
  488SOL     OW 1462   2.676   1.098   0.405 -0.3092 -0.1263  0.6644
  488SOL    HW1 1463   2.644   1.077   0.309  0.0503 -0.6173  0.2813
  488SOL    HW2 1464   2.603   1.099   0.477 -1.2175  1.6301 -1.7065
  489SOL     OW 1465   1.876   3.025   1.155 -0.6148  0.2859 -0.1249
  489SOL    HW1 1466   1.912   3.025   1.060  0.0514  2.3209  0.4491
  489SOL    HW2 1467   1.813   3.102   1.172 -2.1386  1.1582  1.3336
  490SOL     OW 1468   0.860   0.404   0.450  0.1030 -0.1377  0.8104
  490SOL    HW1 1469   0.798   0.442   0.519 -1.3359 -0.8236 -0.8874
  490SOL    HW2 1470   0.904   0.477   0.391 -0.4999  1.8644 -0.3397
  491SOL     OW 1471   0.556   2.505   0.599 -0.5084  0.1633  0.4641
  491SOL    HW1 1472   0.595   2.450   0.522 -0.3915 -2.3391 -0.4796
  491SOL    HW2 1473   0.561   2.606   0.585 -2.3713 -1.5066 -0.6603
  492SOL     OW 1474   1.200   1.593   2.609  0.1862  0.0250 -0.1304
  492SOL    HW1 1475   1.208   1.587   2.712 -0.9314  0.5629  0.8347
  492SOL    HW2 1476   1.247   1.674   2.569 -1.1570 -1.8521  2.7244
  493SOL     OW 1477   0.042   2.677   0.944 -0.7841  0.7210 -0.9548
  493SOL    HW1 1478   0.011   2.585   0.969 -1.4769  1.3783 -0.3890
  493SOL    HW2 1479   0.049   2.724   1.035  3.5381 -2.1380 -0.3163
  494SOL     OW 1480   2.942   2.286   0.187 -0.0537  0.1466  0.6290
  494SOL    HW1 1481   2.953   2.369   0.248 -1.8147  2.2036 -1.4483
  494SOL    HW2 1482   2.866   2.218   0.204 -1.0108 -1.8287  0.1424
  495SOL     OW 1483   2.678   1.891   2.942 -0.3359 -0.5564  0.3244
  495SOL    HW1 1484   2.649   1.943   2.855 -1.4422 -1.7459 -0.1617
  495SOL    HW2 1485   2.666   1.792   2.927  0.9219  1.1856 -1.2287
  496SOL     OW 1486   2.720   0.142   1.621  0.6763 -0.8510  0.1292
  496SOL    HW1 1487   2.790   0.211   1.595  0.4226  0.2994  0.8235
  496SOL    HW2 1488   2.630   0.193   1.638 -0.2459  3.1430 -2.6934
  497SOL     OW 1489   2.595   0.900   3.042 -0.0078  0.1432 -0.1567
  497SOL    HW1 1490   2.544   0.943   2.969 -0.8995  1.4371  1.5075
  497SOL    HW2 1491   2.684   0.856   3.011  0.8657 -1.9169 -0.2783
  498SOL     OW 1492   0.025   1.936   2.375 -0.8166  0.0603  0.3705
  498SOL    HW1 1493   3.096   2.004   2.326  2.1994 -1.8673  0.2849
  498SOL    HW2 1494   0.122   1.969   2.379  3.2941  0.5072 -0.6445
  499SOL     OW 1495   0.880   2.109   2.824 -0.4204 -0.2254 -1.0708
  499SOL    HW1 1496   0.908   2.143   2.916 -1.3139 -1.1074 -1.1757
  499SOL    HW2 1497   0.958   2.065   2.778 -0.0083  1.1148  1.1850
  500SOL     OW 1498   1.649   3.026   0.089 -0.0179  0.3409 -0.4421
  500SOL    HW1 1499   1.721   3.045   0.020 -1.1587 -1.5794  0.5627
  500SOL    HW2 1500   1.591   3.107   0.111 -0.7944  2.2286 -0.7496
  501SOL     OW 1501   1.414   3.094   1.681  0.4103 -0.3883 -0.1899
  501SOL    HW1 1502   1.478   3.096   1.759  0.7462 -1.4990  1.1992
  501SOL    HW2 1503   1.382   0.065   1.661 -1.0258  0.8276 -0.5632
  502SOL     OW 1504   2.834   0.818   2.105 -0.3732 -0.3603 -0.3399
  502SOL    HW1 1505   2.907   0.747   2.103  3.2019  0.4185  0.4458
  502SOL    HW2 1506   2.779   0.807   2.185  4.3016  1.6499 -0.4823
  503SOL     OW 1507   2.290   2.195   2.356 -0.0649  0.1246  0.4719
  503SOL    HW1 1508   2.282   2.283   2.302  0.2832  0.8563 -1.4341
  503SOL    HW2 1509   2.202   2.174   2.396  1.6902  1.0143  1.1813
  504SOL     OW 1510   1.518   0.692   1.771 -0.9655 -0.1054 -0.1036
  504SOL    HW1 1511   1.589   0.750   1.724  0.1287 -1.6503  1.9919
  504SOL    HW2 1512   1.542   0.597   1.795 -2.1481 -1.0099  1.1221
  505SOL     OW 1513   0.790   0.922   1.567  0.0492 -0.0755 -0.7288
  505SOL    HW1 1514   0.784   0.882   1.472 -1.5899  0.1519 -0.6829
  505SOL    HW2 1515   0.873   0.890   1.620  0.5836 -1.8673  2.5087
  506SOL     OW 1516   0.384   0.761   2.424 -0.3502 -0.1201 -0.1221
  506SOL    HW1 1517   0.389   0.747   2.325  0.5296  2.8662 -0.2501
  506SOL    HW2 1518   0.391   0.677   2.477 -1.3654  2.1186 -1.3209
  507SOL     OW 1519   0.315   3.117   0.046 -0.0315 -0.0638  0.1438
  507SOL    HW1 1520   0.378   3.069   3.106  1.5684 -2.4381 -0.6968
  507SOL    HW2 1521   0.242   0.045   3.117 -0.1265  0.7312 -1.3882
  508SOL     OW 1522   1.282   0.846   1.729  0.2637  0.1604 -0.8308
  508SOL    HW1 1523   1.373   0.799   1.737  1.1188 -1.6633  0.2538
  508SOL    HW2 1524   1.288   0.937   1.677  0.9247  4.2109 -2.5352
  509SOL     OW 1525   1.197   2.104   1.240 -0.0983 -0.4116 -0.6540
  509SOL    HW1 1526   1.214   2.006   1.260  0.4326 -2.7047 -0.5816
  509SOL    HW2 1527   1.265   2.172   1.274 -1.8062  2.4095 -2.0496
  510SOL     OW 1528   2.429   1.375   2.290 -0.7981 -0.2167 -0.0745
  510SOL    HW1 1529   2.404   1.289   2.338  0.1157  0.7863  1.9905
  510SOL    HW2 1530   2.529   1.386   2.288  0.0281 -0.1581  0.1574
  511SOL     OW 1531   0.792   2.027   1.020 -0.0610  0.1190 -0.4974
  511SOL    HW1 1532   0.705   2.077   0.991 -0.8332  0.4725 -0.9122
  511SOL    HW2 1533   0.759   1.940   1.060 -0.0018 -0.7548 -0.8114
  512SOL     OW 1534   2.565   2.118   0.457  0.1906  0.0675 -0.4016
  512SOL    HW1 1535   2.526   2.207   0.489 -1.6687 -0.0438  0.6081
  512SOL    HW2 1536   2.500   2.040   0.450 -0.3641 -0.0417  2.5607
  513SOL     OW 1537   3.077   1.885   2.680  0.2677 -0.4231 -0.9148
  513SOL    HW1 1538   3.099   1.865   2.585  0.6695 -0.3078  1.3475
  513SOL    HW2 1539   3.111   1.803   2.738  1.1630 -2.3458  2.2558
  514SOL     OW 1540   3.098   2.751   2.421 -0.3411 -0.6227 -0.0870
  514SOL    HW1 1541   0.013   2.660   2.418 -2.8659  2.7010 -0.6629
  514SOL    HW2 1542   3.096   2.791   2.323 -0.2005 -0.2203 -1.9412
  515SOL     OW 1543   2.249   1.213   1.373 -0.2073  0.3289 -0.0437
  515SOL    HW1 1544   2.167   1.235   1.318 -0.3602  0.1131  2.6767
  515SOL    HW2 1545   2.271   1.276   1.448  1.2012 -0.3298 -1.0686
  516SOL     OW 1546   2.625   2.243   0.119 -0.1704 -0.4891  0.2402
  516SOL    HW1 1547   2.649   2.288   0.031  0.7072 -0.0210 -2.0756
  516SOL    HW2 1548   2.632   2.146   0.108 -0.2354 -0.3136 -0.5196
  517SOL     OW 1549   1.346   0.918   0.020 -0.2991 -0.1127 -0.2493
  517SOL    HW1 1550   1.442   0.904   3.112 -2.2992  1.3636  0.2686
  517SOL    HW2 1551   1.299   0.827   0.041 -2.4892 -0.0257 -2.8876
  518SOL     OW 1552   2.997   0.011   2.377 -0.0130  1.1170 -0.3653
  518SOL    HW1 1553   3.037   0.095   2.411 -0.2105 -1.9154 -1.3142
  518SOL    HW2 1554   3.009   3.063   2.449 -1.1220 -3.1731  1.7105
  519SOL     OW 1555   1.284   1.775   2.228  0.3036  0.3056  0.3393
  519SOL    HW1 1556   1.281   1.755   2.126 -0.6883  2.2438 -1.3153
  519SOL    HW2 1557   1.240   1.866   2.248  0.4922  3.9659  0.8629
  520SOL     OW 1558   2.992   2.942   2.592 -0.2416 -0.1233  0.3994
  520SOL    HW1 1559   3.020   2.871   2.524 -0.1343  2.3664 -1.9498
  520SOL    HW2 1560   2.895   2.940   2.619  2.5058  0.4467 -1.6379
  521SOL     OW 1561   0.248   1.605   2.052  0.1773  0.1722 -0.0713
  521SOL    HW1 1562   0.340   1.588   2.095 -2.0570  0.1408  1.1476
  521SOL    HW2 1563   0.185   1.527   2.061 -0.8638  1.1797 -1.3981
  522SOL     OW 1564   0.702   2.761   1.863  0.1436  0.4936  0.3598
  522SOL    HW1 1565   0.758   2.805   1.791  0.7954 -0.1952  0.5498
  522SOL    HW2 1566   0.720   2.796   1.954  0.3101 -1.4433 -0.3427
  523SOL     OW 1567   0.219   2.623   1.364 -0.0794 -0.3966 -0.1045
  523SOL    HW1 1568   0.196   2.571   1.448 -0.2984 -1.2853  0.5277
  523SOL    HW2 1569   0.315   2.656   1.356 -2.0075 -1.3815  0.2733
  524SOL     OW 1570   1.561   2.552   0.655  0.1571  0.0260 -0.2083
  524SOL    HW1 1571   1.490   2.521   0.594  0.7298 -2.0266  1.6098
  524SOL    HW2 1572   1.550   2.506   0.744 -1.8024  1.1065  1.1437
  525SOL     OW 1573   2.440   1.060   1.084 -0.6992  0.6522 -0.1416
  525SOL    HW1 1574   2.406   1.141   1.133  0.9885  1.5951 -1.7221
  525SOL    HW2 1575   2.360   1.015   1.039 -0.4703 -1.3781  1.7238
  526SOL     OW 1576   0.919   2.248   0.631  0.5177  0.1693 -0.1664
  526SOL    HW1 1577   0.912   2.284   0.536 -0.3739 -1.9637  1.7347
  526SOL    HW2 1578   0.959   2.153   0.630 -0.7440 -1.3623 -2.4927
  527SOL     OW 1579   2.519   2.136   0.814 -0.9232  1.0359  0.1236
  527SOL    HW1 1580   2.600   2.126   0.749  1.9797 -1.6174  0.4760
  527SOL    HW2 1581   2.427   2.138   0.772  0.2455 -2.1081 -1.2016
  528SOL     OW 1582   2.189   0.514   3.021 -0.0223 -0.1768 -0.1541
  528SOL    HW1 1583   2.246   0.593   2.984  2.2633  1.1955  0.3950
  528SOL    HW2 1584   2.239   0.425   3.016  1.3531 -3.2009 -0.5731
  529SOL     OW 1585   1.197   1.195   1.941  0.2638  0.1474  0.1028
  529SOL    HW1 1586   1.121   1.162   2.000 -1.1540  1.0576  0.6304
  529SOL    HW2 1587   1.156   1.226   1.852  1.4330  0.0487  0.3325
  530SOL     OW 1588   2.699   1.142   2.644  0.1690 -0.3778 -0.1354
  530SOL    HW1 1589   2.781   1.199   2.645  0.7394 -2.2403  1.4647
  530SOL    HW2 1590   2.731   1.048   2.647  0.7960 -1.2475  0.4651
  531SOL     OW 1591   1.097   1.028   0.180 -0.2214  0.6505  0.4487
  531SOL    HW1 1592   1.181   1.022   0.126  2.0965 -0.5657  0.4599
  531SOL    HW2 1593   1.104   0.967   0.258  0.3494  1.7245 -1.6306
  532SOL     OW 1594   1.983   0.748   0.724  0.1759 -0.1199  0.2840
  532SOL    HW1 1595   1.990   0.674   0.799  1.6440 -0.6387  1.6811
  532SOL    HW2 1596   2.012   0.718   0.630 -2.1704 -0.2190 -1.5666
  533SOL     OW 1597   0.532   0.849   1.976  0.2258 -0.2399  0.2007
  533SOL    HW1 1598   0.502   0.813   2.065  0.9215 -1.1924 -2.8266
  533SOL    HW2 1599   0.626   0.891   1.978  0.7677  1.7484  0.1121
  534SOL     OW 1600   1.619   3.048   2.722  0.2719 -0.2246  0.5272
  534SOL    HW1 1601   1.646   3.124   2.779  0.9816 -1.9184 -0.9406
  534SOL    HW2 1602   1.596   2.960   2.771  0.0914 -0.9881  1.0505
  535SOL     OW 1603   0.816   0.049   0.323 -0.2230 -0.2768 -0.0117
  535SOL    HW1 1604   0.800   0.068   0.420 -0.9345  1.0177 -0.1249
  535SOL    HW2 1605   0.912   0.015   0.308  0.9314  1.2260 -0.1522
  536SOL     OW 1606   1.246   2.992   1.228 -0.2648 -0.1344  0.3130
  536SOL    HW1 1607   1.270   3.082   1.259 -0.6208 -0.8068 -1.9151
  536SOL    HW2 1608   1.323   2.958   1.166  0.8495 -2.0632  0.1217
  537SOL     OW 1609   1.566   2.839   1.940  0.1416 -0.0197  0.3312
  537SOL    HW1 1610   1.605   2.792   2.024  1.7175 -1.6905 -2.3002
  537SOL    HW2 1611   1.618   2.826   1.849  1.4344  0.7929 -2.8446
  538SOL     OW 1612   0.573   2.796   2.742  0.2067 -0.4956 -0.7301
  538SOL    HW1 1613   0.635   2.734   2.792  1.0203 -2.0958  0.9660
  538SOL    HW2 1614   0.520   2.746   2.667 -0.6101  1.3519 -1.1022
  539SOL     OW 1615   2.986   1.606   1.737 -0.3386  0.6239 -0.5741
  539SOL    HW1 1616   3.039   1.684   1.691  0.6692  0.5628 -0.6853
  539SOL    HW2 1617   2.993   1.604   1.839  0.5652  0.1052  1.0970
  540SOL     OW 1618   2.514   2.439   2.224  0.1861 -0.3406 -0.4871
  540SOL    HW1 1619   2.421   2.406   2.198 -1.2078 -0.7401 -0.2067
  540SOL    HW2 1620   2.592   2.394   2.180 -1.6983 -0.4689 -2.4246
  541SOL     OW 1621   0.183   2.915   1.675 -0.2447  0.4844  0.1543
  541SOL    HW1 1622   0.178   3.011   1.714 -1.3137  1.8493 -0.1744
  541SOL    HW2 1623   0.269   2.906   1.618  0.6451  1.1697  0.2504
  542SOL     OW 1624   3.065   0.623   2.135  0.1120  0.9078  0.1939
  542SOL    HW1 1625   0.006   0.700   2.120  0.2613 -1.1655  1.6998
  542SOL    HW2 1626   3.047   0.570   2.051  0.3021  2.9034  1.3040
  543SOL     OW 1627   0.856   0.441   0.877 -0.1750 -0.1746 -0.4415
  543SOL    HW1 1628   0.944   0.390   0.894  1.1061 -1.1285  1.9127
  543SOL    HW2 1629   0.857   0.503   0.795  0.1192 -0.2414  1.3144
  544SOL     OW 1630   2.082   2.181   1.289 -0.3154 -0.7832 -0.2914
  544SOL    HW1 1631   2.032   2.095   1.268 -0.7841 -1.0262  1.3974
  544SOL    HW2 1632   2.022   2.265   1.292 -0.9084  0.0622 -0.5043
  545SOL     OW 1633   1.247   1.573   0.719  0.0116  0.3272 -0.4955
  545SOL    HW1 1634   1.287   1.479   0.725  0.5788 -3.3103  1.9846
  545SOL    HW2 1635   1.204   1.598   0.809  1.0517 -2.7743 -0.7936
  546SOL     OW 1636   2.772   0.545   2.263  0.3500  0.1678  0.1375
  546SOL    HW1 1637   2.764   0.445   2.279 -0.8892 -0.7281 -0.2191
  546SOL    HW2 1638   2.863   0.584   2.299 -0.0723  0.3878  2.1280
  547SOL     OW 1639   2.978   0.547   2.830  0.3749 -0.2606 -0.1481
  547SOL    HW1 1640   2.944   0.511   2.738 -1.5046 -0.0724  2.3057
  547SOL    HW2 1641   3.048   0.621   2.811  0.5935 -0.3853 -1.5728
  548SOL     OW 1642   2.615   2.063   2.744 -0.4846 -0.0334 -0.0046
  548SOL    HW1 1643   2.640   2.158   2.763 -0.2574 -1.8006 -1.3696
  548SOL    HW2 1644   2.646   2.053   2.648  0.2131 -1.6115  1.4327
  549SOL     OW 1645   2.152   0.460   0.761 -0.5953 -0.2112  0.3903
  549SOL    HW1 1646   2.096   0.475   0.847 -2.6087  2.3278 -0.1756
  549SOL    HW2 1647   2.222   0.533   0.759 -2.2853 -0.2211 -0.1664
  550SOL     OW 1648   2.679   1.438   0.490  0.5848 -0.1790  0.5631
  550SOL    HW1 1649   2.591   1.416   0.446  0.6990  1.2449  2.0144
  550SOL    HW2 1650   2.757   1.458   0.429  1.1448 -1.8376 -2.7205
  551SOL     OW 1651   1.429   2.656   1.416  0.1479 -0.4128  0.3340
  551SOL    HW1 1652   1.344   2.653   1.362  2.2969  0.3806  0.5303
  551SOL    HW2 1653   1.408   2.705   1.504 -1.4495  1.8116 -2.0131
  552SOL     OW 1654   2.442   2.402   2.515 -0.0235 -0.3865 -0.2309
  552SOL    HW1 1655   2.450   2.363   2.419 -1.2352 -1.2207 -0.3450
  552SOL    HW2 1656   2.352   2.387   2.562 -1.4555  1.1625  0.2903
  553SOL     OW 1657   0.863   2.762   0.565 -0.0186 -0.3189  0.1206
  553SOL    HW1 1658   0.879   2.721   0.655  0.0609 -0.4494 -1.6898
  553SOL    HW2 1659   0.778   2.812   0.568  1.1760 -1.0707  1.0366
  554SOL     OW 1660   1.891   2.435   1.669 -0.2347 -0.6273 -0.2493
  554SOL    HW1 1661   1.793   2.416   1.690  0.9377 -0.3453  0.3912
  554SOL    HW2 1662   1.900   2.429   1.565 -3.6873  2.8497 -2.2331
  555SOL     OW 1663   1.822   2.370   2.147 -0.0791 -0.3441  0.1261
  555SOL    HW1 1664   1.796   2.317   2.062 -2.0966  0.9688  1.2753
  555SOL    HW2 1665   1.863   2.463   2.114  0.1450 -1.1308  0.2067
  556SOL     OW 1666   1.362   0.462   0.837  0.1192 -0.1691 -0.7071
  556SOL    HW1 1667   1.307   0.473   0.924 -0.4543 -0.0534  1.4916
  556SOL    HW2 1668   1.424   0.542   0.823  0.1387  0.7925 -2.2819
  557SOL     OW 1669   1.048   2.131   1.520 -0.0728 -0.0227 -0.5561
  557SOL    HW1 1670   1.110   2.159   1.439  0.4242  1.2518 -2.6136
  557SOL    HW2 1671   1.007   2.209   1.572  1.5574  1.9220 -0.1025
  558SOL     OW 1672   2.836   1.434   2.447 -0.4001 -0.4044 -0.0341
  558SOL    HW1 1673   2.824   1.525   2.405  1.9747 -0.2011  1.0704
  558SOL    HW2 1674   2.859   1.444   2.545 -1.5084 -2.3241 -0.8829
  559SOL     OW 1675   2.252   2.407   2.199  0.0156 -0.2435  0.0637
  559SOL    HW1 1676   2.214   2.382   2.107 -0.8965 -0.9766 -0.1475
  559SOL    HW2 1677   2.186   2.476   2.241  1.0277 -2.7419  2.1687
  560SOL     OW 1678   0.458   0.277   2.417  0.1932  0.4720  0.1421
  560SOL    HW1 1679   0.559   0.276   2.392 -0.2979  2.3245 -1.3638
  560SOL    HW2 1680   0.429   0.214   2.493 -0.6468 -0.3381 -0.1249
  561SOL     OW 1681   1.205   0.407   0.389  0.1172  0.0993  0.4560
  561SOL    HW1 1682   1.296   0.434   0.422  0.0822 -0.3389  0.2181
  561SOL    HW2 1683   1.206   0.307   0.367  1.6160  0.3697  1.2637
  562SOL     OW 1684   0.756   1.315   1.821  0.5480  0.4153  0.0841
  562SOL    HW1 1685   0.734   1.412   1.811 -0.5428 -0.0839  0.3329
  562SOL    HW2 1686   0.856   1.302   1.834 -0.8864  0.4992  0.6651
  563SOL     OW 1687   2.019   2.155   0.190  0.0134  0.0121  0.6125
  563SOL    HW1 1688   2.096   2.189   0.123  0.8746 -0.1638 -1.3738
  563SOL    HW2 1689   2.057   2.136   0.284 -1.2310 -0.4071  3.9579
  564SOL     OW 1690   2.883   2.383   0.621 -0.1769 -0.2031  0.3516
  564SOL    HW1 1691   2.845   2.444   0.688 -2.6524 -0.6436  1.6833
  564SOL    HW2 1692   2.835   2.292   0.629 -2.3665  0.1997 -0.4091
  565SOL     OW 1693   0.402   0.084   2.608 -0.0698  0.0106 -0.2448
  565SOL    HW1 1694   0.383   0.136   2.692 -1.0779 -0.8418 -2.8117
  565SOL    HW2 1695   0.482   0.015   2.616  2.3801 -3.6749 -0.8098
  566SOL     OW 1696   1.549   2.787   2.560 -0.2971  0.7017  0.2412
  566SOL    HW1 1697   1.645   2.750   2.579 -0.7058 -0.0716 -3.0184
  566SOL    HW2 1698   1.492   2.809   2.639  0.4006  2.2387  0.6811
  567SOL     OW 1699   1.979   1.936   1.271 -0.0484 -0.2900  0.2071
  567SOL    HW1 1700   2.008   1.838   1.257  1.5453  2.7944 -0.9223
  567SOL    HW2 1701   1.877   1.947   1.255 -0.2971 -0.6271 -2.9627
  568SOL     OW 1702   1.926   0.941   2.888 -0.4464  0.2812 -0.5586
  568SOL    HW1 1703   1.950   0.842   2.902 -0.8092 -0.1679  3.7445
  568SOL    HW2 1704   2.004   1.002   2.917 -1.5029 -0.2582 -0.0331
  569SOL     OW 1705   2.178   2.062   2.117 -0.0337 -0.1370  0.2090
  569SOL    HW1 1706   2.245   1.985   2.120 -0.7946 -1.4149  1.3586
  569SOL    HW2 1707   2.202   2.133   2.186 -1.4505  0.5918  0.4981
  570SOL     OW 1708   2.844   2.935   1.947  0.1718 -0.0018 -0.4934
  570SOL    HW1 1709   2.848   2.992   2.027  0.0560 -0.1860 -0.6030
  570SOL    HW2 1710   2.928   2.879   1.936  0.0997  1.0567 -0.6951
  571SOL     OW 1711   3.105   0.646   1.375  0.6634  0.3371 -0.3665
  571SOL    HW1 1712   0.059   0.702   1.396 -0.8313 -1.2331 -0.9332
  571SOL    HW2 1713   3.071   0.597   1.463 -0.8271 -0.4559 -0.8684
  572SOL     OW 1714   0.092   1.512   1.230  0.2718  0.1422 -0.3482
  572SOL    HW1 1715   0.010   1.506   1.284  1.5528  0.7930  4.4343
  572SOL    HW2 1716   0.094   1.435   1.161 -0.4446 -4.6930 -2.4328
  573SOL     OW 1717   0.928   0.628   0.301 -0.2823 -0.0756  0.0690
  573SOL    HW1 1718   0.834   0.667   0.294  0.2733 -0.6586 -0.6886
  573SOL    HW2 1719   0.993   0.707   0.292 -1.4440 -0.0521  1.4667
  574SOL     OW 1720   0.367   0.272   0.142  0.2180  0.1771 -0.0467
  574SOL    HW1 1721   0.451   0.315   0.093  1.8900 -0.3856  1.0176
  574SOL    HW2 1722   0.363   0.170   0.130 -1.0131 -2.1013  0.0647
  575SOL     OW 1723   0.907   2.378   0.864 -0.0744  0.8372  0.0528
  575SOL    HW1 1724   0.915   2.328   0.771 -3.4140 -0.6696 -1.0866
  575SOL    HW2 1725   0.956   2.322   0.933  0.3995  2.0809 -0.8349
  576SOL     OW 1726   3.067   2.966   1.313  0.3440  0.5306  0.5408
  576SOL    HW1 1727   2.969   2.956   1.284 -2.1756 -0.4834 -0.3787
  576SOL    HW2 1728   3.072   2.958   1.419  1.6152  1.7248 -1.7132
  577SOL     OW 1729   2.861   1.929   1.997 -0.6295  0.4830 -0.7795
  577SOL    HW1 1730   2.827   1.994   2.069  0.1164 -1.5173  0.9415
  577SOL    HW2 1731   2.930   1.978   1.940 -0.5664 -2.7188  0.4396
  578SOL     OW 1732   1.205   2.908   2.606  0.0766  0.3125 -0.3941
  578SOL    HW1 1733   1.156   2.893   2.517  0.0231 -0.4512 -0.9437
  578SOL    HW2 1734   1.164   2.861   2.685  0.0827 -0.0688 -0.3771
  579SOL     OW 1735   1.969   1.820   2.044  0.0615 -0.0565  0.5238
  579SOL    HW1 1736   1.955   1.912   1.998 -4.7108 -0.3178 -1.6145
  579SOL    HW2 1737   2.043   1.776   1.993 -0.5769  0.9669  1.7368
  580SOL     OW 1738   1.570   0.707   2.366  0.1344 -0.6409 -0.2141
  580SOL    HW1 1739   1.559   0.747   2.272  1.5469 -1.5073  0.5487
  580SOL    HW2 1740   1.671   0.699   2.382 -0.6447 -0.4662  0.8639
  581SOL     OW 1741   0.939   1.392   2.243 -0.5102 -0.0051 -0.0927
  581SOL    HW1 1742   0.968   1.490   2.264 -2.1693  2.7042 -0.1544
  581SOL    HW2 1743   0.933   1.334   2.325  0.4113  1.2254 -0.2119
  582SOL     OW 1744   0.159   2.670   1.795 -0.5340 -0.3067  0.1057
  582SOL    HW1 1745   0.238   2.645   1.846 -3.1783  2.4864 -0.0420
  582SOL    HW2 1746   0.180   2.762   1.752 -0.7340  3.2800  1.5879
  583SOL     OW 1747   1.359   1.363   1.371  0.3858 -0.5249  0.0214
  583SOL    HW1 1748   1.405   1.357   1.465  0.0143 -0.5225 -0.0209
  583SOL    HW2 1749   1.292   1.442   1.362  0.4970  2.7983  0.3201
  584SOL     OW 1750   1.333   1.960   2.523 -0.1526  0.4048  0.7313
  584SOL    HW1 1751   1.348   1.865   2.482  0.1541  0.2563  0.8749
  584SOL    HW2 1752   1.414   2.000   2.566 -1.8095  0.8906 -1.0588
  585SOL     OW 1753   0.271   2.564   0.147  0.1989  0.2906 -0.1255
  585SOL    HW1 1754   0.231   2.574   0.054  1.4535  3.8589  1.0842
  585SOL    HW2 1755   0.203   2.529   0.216 -0.9966 -1.2219  0.1499
  586SOL     OW 1756   2.088   1.849   0.568 -0.5629 -0.1195 -0.4784
  586SOL    HW1 1757   1.994   1.811   0.584 -0.7532  1.2615  0.7301
  586SOL    HW2 1758   2.110   1.899   0.659  2.8756  1.8049  2.3069
  587SOL     OW 1759   2.740   2.141   0.662  0.2189 -0.1608 -0.7123
  587SOL    HW1 1760   2.807   2.067   0.685 -0.3598  0.8893  0.3761
  587SOL    HW2 1761   2.688   2.118   0.581  0.1234 -0.1186 -0.8482
  588SOL     OW 1762   2.344   0.180   1.196  0.4020 -0.4011 -0.1801
  588SOL    HW1 1763   2.395   0.196   1.286  2.8089  1.8331 -1.2311
  588SOL    HW2 1764   2.270   0.251   1.177 -0.2799  1.7465 -0.3555
  589SOL     OW 1765   0.728   0.632   1.036  0.5192 -0.0055 -0.7696
  589SOL    HW1 1766   0.751   0.545   0.992 -2.1934 -0.4299  0.9592
  589SOL    HW2 1767   0.803   0.669   1.086 -1.3848 -1.4730  2.5354
  590SOL     OW 1768   2.662   2.428   0.299 -0.4086 -0.2700 -0.4324
  590SOL    HW1 1769   2.639   2.346   0.239 -0.8632 -1.7314 -0.1154
  590SOL    HW2 1770   2.765   2.437   0.304 -1.5854  1.5018  0.5172
  591SOL     OW 1771   0.635   2.195   1.654 -0.3435  0.1426 -0.1953
  591SOL    HW1 1772   0.566   2.127   1.672 -0.0416  1.1017 -0.3387
  591SOL    HW2 1773   0.589   2.276   1.614  1.6152  1.2323  2.3443
  592SOL     OW 1774   0.669   1.424   1.428 -0.0502 -0.7450 -0.6268
  592SOL    HW1 1775   0.764   1.398   1.454  0.8827 -1.4925  1.4782
  592SOL    HW2 1776   0.615   1.338   1.419  1.7971 -0.2037 -2.5848
  593SOL     OW 1777   0.974   2.197   1.132  0.1203  0.1712  0.1800
  593SOL    HW1 1778   1.065   2.160   1.161  1.0754 -1.8957  0.4727
  593SOL    HW2 1779   0.924   2.122   1.081  0.9285 -2.6786 -0.3694
  594SOL     OW 1780   0.878   1.258   2.680 -0.4877 -0.2592  0.1060
  594SOL    HW1 1781   0.956   1.227   2.737  0.0175  2.0784 -0.9321
  594SOL    HW2 1782   0.899   1.353   2.641  1.1496  1.9563 -1.7610
  595SOL     OW 1783   1.213   0.646   1.040  0.2058  0.2460  0.3205
  595SOL    HW1 1784   1.269   0.726   1.019 -1.8087 -0.2350 -1.1149
  595SOL    HW2 1785   1.184   0.630   1.135  2.0184 -1.3229  1.8186
  596SOL     OW 1786   0.244   1.144   0.954  0.2638  0.4280  0.4416
  596SOL    HW1 1787   0.344   1.156   0.939 -0.2393 -1.4045  0.1441
  596SOL    HW2 1788   0.190   1.134   0.867  1.3047  0.7861  1.0769
  597SOL     OW 1789   0.149   2.116   2.874 -0.0313  0.2508 -0.2845
  597SOL    HW1 1790   0.047   2.128   2.890 -2.3466  0.2478 -0.9973
  597SOL    HW2 1791   0.197   2.185   2.932 -1.4216 -2.8826  1.4020
  598SOL     OW 1792   2.034   2.091   2.432 -0.3087 -0.8568 -0.1569
  598SOL    HW1 1793   1.994   2.183   2.407  3.4698  0.0562  1.9952
  598SOL    HW2 1794   1.985   2.009   2.383 -2.6815  0.1302  0.2423
  599SOL     OW 1795   1.548   0.323   0.683  0.5122 -0.0492  0.1282
  599SOL    HW1 1796   1.575   0.387   0.612 -0.5377  0.2022 -0.2563
  599SOL    HW2 1797   1.462   0.348   0.727  1.8290 -1.3918 -0.9177
  600SOL     OW 1798   1.001   2.813   0.333  0.0084 -0.1031 -0.1695
  600SOL    HW1 1799   0.931   2.792   0.404  1.8160 -2.8843 -1.3348
  600SOL    HW2 1800   1.069   2.734   0.348  1.5732 -1.0560 -2.2580
  601SOL     OW 1801   0.634   0.367   1.247 -0.0116  0.1764  0.0488
  601SOL    HW1 1802   0.613   0.431   1.169  0.9057 -1.1544  0.2149
  601SOL    HW2 1803   0.734   0.364   1.247  0.4576 -2.4766  0.6036
  602SOL     OW 1804   3.085   2.980   0.608  0.0745 -0.5137  0.5234
  602SOL    HW1 1805   3.065   2.898   0.662 -0.0162 -0.4488 -1.1103
  602SOL    HW2 1806   2.999   3.020   0.567 -1.6468  1.1208 -1.7217
  603SOL     OW 1807   0.817   2.743   2.414  0.1685 -0.4211 -0.2024
  603SOL    HW1 1808   0.749   2.821   2.386  0.7929 -0.1813 -1.3701
  603SOL    HW2 1809   0.786   2.712   2.507  0.1847  1.0879  0.9400
  604SOL     OW 1810   1.083   2.458   2.903 -0.3298  0.0938  0.4046
  604SOL    HW1 1811   1.066   2.367   2.942  1.6065  3.4476  3.2169
  604SOL    HW2 1812   1.023   2.472   2.822 -1.4027  0.0930  0.6322
  605SOL     OW 1813   1.015   0.817   1.689 -0.0750  0.3562  0.6616
  605SOL    HW1 1814   1.113   0.825   1.708 -1.5559  0.9022 -2.2676
  605SOL    HW2 1815   0.964   0.785   1.774  0.3444 -1.5260 -0.4780
  606SOL     OW 1816   1.526   0.379   2.662  0.3497  0.0702  0.0130
  606SOL    HW1 1817   1.541   0.475   2.688  0.1367  0.3884 -1.3260
  606SOL    HW2 1818   1.481   0.331   2.740 -0.0522 -1.1971  0.7350
  607SOL     OW 1819   0.235   1.093   1.245  0.0827  0.6577 -1.0083
  607SOL    HW1 1820   0.244   1.164   1.320 -0.9855 -0.0869  0.9120
  607SOL    HW2 1821   0.239   1.135   1.149 -1.4725 -1.0894 -0.5580
  608SOL     OW 1822   3.027   2.405   2.268 -0.0425  0.4825 -0.0972
  608SOL    HW1 1823   2.954   2.472   2.239  1.7059  0.3399  0.4830
  608SOL    HW2 1824   3.109   2.452   2.313  3.9536 -0.3114  1.2619
  609SOL     OW 1825   1.803   0.324   0.155  0.1148 -0.8472  0.1907
  609SOL    HW1 1826   1.873   0.275   0.093  0.5672 -1.9045 -1.2390
  609SOL    HW2 1827   1.737   0.382   0.097  0.5716  1.4782 -1.9028
  610SOL     OW 1828   0.864   2.783   1.070  0.5661  0.4865 -0.3518
  610SOL    HW1 1829   0.840   2.870   1.025  4.0711  0.2151 -0.8862
  610SOL    HW2 1830   0.958   2.752   1.049 -0.2632  0.3771  0.2056
  611SOL     OW 1831   0.413   1.328   0.368  0.2229  0.2747 -0.3591
  611SOL    HW1 1832   0.478   1.352   0.294  1.4313 -0.8674 -0.5098
  611SOL    HW2 1833   0.361   1.243   0.354  0.4475 -1.4806  0.4531
  612SOL     OW 1834   1.085   0.436   2.492  0.3024  0.0081  0.1440
  612SOL    HW1 1835   1.002   0.379   2.516 -2.2887  1.0082  0.6176
  612SOL    HW2 1836   1.116   0.485   2.581  1.5114 -1.1536  1.7402
  613SOL     OW 1837   2.339   0.940   0.578  0.1245  0.4753  0.2054
  613SOL    HW1 1838   2.289   1.013   0.634  1.2777  0.2352  1.1871
  613SOL    HW2 1839   2.321   0.938   0.477  0.0343  0.7522  0.9125
  614SOL     OW 1840   1.691   0.449   1.859  0.1607  0.0533 -0.1834
  614SOL    HW1 1841   1.613   0.456   1.928 -1.9980 -1.8611  2.4920
  614SOL    HW2 1842   1.775   0.424   1.912 -2.6428 -0.3815  2.2687
  615SOL     OW 1843   0.567   2.130   0.927 -0.5948 -0.1641 -0.0598
  615SOL    HW1 1844   0.512   2.070   0.862 -2.6257  0.5611 -3.8084
  615SOL    HW2 1845   0.589   2.220   0.883  1.2978 -0.3427 -0.4273
  616SOL     OW 1846   1.635   1.138   2.499  0.0939  0.1635  0.4328
  616SOL    HW1 1847   1.646   1.235   2.460  0.6737 -0.0677 -0.9869
  616SOL    HW2 1848   1.710   1.105   2.556 -2.6415 -2.2377  0.2827
  617SOL     OW 1849   1.848   2.623   0.161 -0.4835  0.2010 -0.1471
  617SOL    HW1 1850   1.761   2.675   0.160  0.8724  0.5167  1.0059
  617SOL    HW2 1851   1.835   2.519   0.160 -0.3701 -1.3583  1.0803
  618SOL     OW 1852   0.938   0.973   2.894 -0.2419  0.2743 -0.2695
  618SOL    HW1 1853   0.872   1.052   2.882 -0.8435  2.2077  0.1830
  618SOL    HW2 1854   0.908   0.913   2.967  0.8696  2.4177 -0.6406
  619SOL     OW 1855   2.640   1.357   0.765 -0.5604 -0.6635  0.3121
  619SOL    HW1 1856   2.677   1.271   0.802 -0.0277  2.2318 -1.8311
  619SOL    HW2 1857   2.652   1.364   0.664 -0.1360 -1.7618 -0.1532
  620SOL     OW 1858   2.541   2.857   2.851 -0.2202 -0.5700 -0.4742
  620SOL    HW1 1859   2.454   2.821   2.803 -3.6550 -0.0629 -1.4413
  620SOL    HW2 1860   2.544   2.814   2.946 -1.4027  0.2259 -0.0938
  621SOL     OW 1861   2.303   0.969   0.305 -0.1399 -0.0899 -0.2894
  621SOL    HW1 1862   2.237   0.902   0.258 -0.5180 -1.0710 -1.6431
  621SOL    HW2 1863   2.297   1.070   0.280  1.3183  3.1904 -1.0865
  622SOL     OW 1864   1.129   2.271   2.432 -0.0397 -0.3893  0.0349
  622SOL    HW1 1865   1.231   2.287   2.435 -2.5197 -1.5496 -1.2619
  622SOL    HW2 1866   1.079   2.248   2.518  2.1720  0.5828  0.0884
  623SOL     OW 1867   0.417   1.856   3.081 -0.0650  0.1824 -0.2414
  623SOL    HW1 1868   0.324   1.863   3.040  1.6936  0.7931  3.3022
  623SOL    HW2 1869   0.448   1.948   3.123  1.3916  0.3435 -1.4305
  624SOL     OW 1870   0.432   0.190   2.856  0.5744 -0.5845  0.7841
  624SOL    HW1 1871   0.482   0.139   2.923 -0.0622  1.2100 -1.0194
  624SOL    HW2 1872   0.351   0.216   2.907  3.2401  2.2640  0.7741
  625SOL     OW 1873   0.684   1.696   3.120 -0.1151  0.1303 -0.3893
  625SOL    HW1 1874   0.679   1.794   0.022  0.3636  1.1008  0.3909
  625SOL    HW2 1875   0.599   1.648   0.027 -0.4353  0.7174  2.4211
  626SOL     OW 1876   2.436   0.215   0.173 -0.3263  0.0132  0.1790
  626SOL    HW1 1877   2.515   0.160   0.134  1.8316 -2.5283  0.5263
  626SOL    HW2 1878   2.464   0.306   0.213  0.5687 -2.0524 -1.7329
  627SOL     OW 1879   1.317   0.984   2.885  0.2709  0.7602  0.1603
  627SOL    HW1 1880   1.300   0.966   2.984  0.3475  3.1789  2.1936
  627SOL    HW2 1881   1.416   1.016   2.864  2.7161 -0.5194 -0.1518
  628SOL     OW 1882   1.163   0.551   2.730  0.4322  0.6359  0.5493
  628SOL    HW1 1883   1.152   0.468   2.788  0.0578  0.4636  0.3097
  628SOL    HW2 1884   1.250   0.599   2.733  0.5686 -0.8472 -0.0952
  629SOL     OW 1885   0.200   0.037   1.777  0.7053  0.4166  0.1708
  629SOL    HW1 1886   0.291   0.043   1.822 -2.3165  0.3565 -0.7828
  629SOL    HW2 1887   0.179   0.124   1.730  3.6999 -0.7658  1.3939
  630SOL     OW 1888   2.496   1.125   1.939 -0.1347 -0.0081  0.1274
  630SOL    HW1 1889   2.441   1.098   2.018  0.5234  3.3606  0.0527
  630SOL    HW2 1890   2.549   1.042   1.911 -1.0050 -0.5615 -1.8486
  631SOL     OW 1891   2.243   1.132   0.765  0.7203 -0.3934 -0.2079
  631SOL    HW1 1892   2.303   1.216   0.781 -0.6521  2.8359  1.2126
  631SOL    HW2 1893   2.269   1.051   0.830  0.4179  1.5969  4.9538
  632SOL     OW 1894   2.672   0.694   1.740  0.2947 -0.0507  0.7315
  632SOL    HW1 1895   2.719   0.613   1.772  0.1539  1.6178  0.8498
  632SOL    HW2 1896   2.656   0.695   1.640  0.7474  1.6938  0.3677
  633SOL     OW 1897   1.060   2.725   3.034 -0.3569  0.2054 -0.1876
  633SOL    HW1 1898   1.057   2.623   3.005  0.8743 -1.1373  0.7835
  633SOL    HW2 1899   0.984   2.748   3.097 -2.3625  1.6973 -1.3476
  634SOL     OW 1900   1.649   2.670   2.974  0.1714 -0.1932  0.2287
  634SOL    HW1 1901   1.636   2.689   3.071  0.7542  2.4521 -2.6935
  634SOL    HW2 1902   1.742   2.688   2.946 -1.0422 -2.0914 -1.8021
  635SOL     OW 1903   2.718   0.378   0.141  0.7468  0.3812 -0.5422
  635SOL    HW1 1904   2.723   0.401   0.040  0.4886  0.7717 -2.2426
  635SOL    HW2 1905   2.649   0.439   0.186  1.6083 -1.7843  0.8491
  636SOL     OW 1906   0.349   1.497   0.657  0.2280  0.1573  0.4140
  636SOL    HW1 1907   0.364   1.564   0.730 -0.0526 -3.0777  0.5352
  636SOL    HW2 1908   0.425   1.426   0.653  1.8799 -0.4541  1.5070
  637SOL     OW 1909   0.375   2.750   0.343 -0.2144 -0.3340  0.5819
  637SOL    HW1 1910   0.328   2.705   0.266  0.5706 -0.0836 -1.7161
  637SOL    HW2 1911   0.320   2.830   0.380 -1.2255  1.3209  0.7055
  638SOL     OW 1912   3.093   2.695   0.341  0.2900  0.6871  0.2372
  638SOL    HW1 1913   3.088   2.797   0.323 -0.4624 -0.5438  3.1669
  638SOL    HW2 1914   0.027   2.673   0.423  0.2830 -0.6495  2.3755
  639SOL     OW 1915   1.120   1.364   0.345 -0.1301  0.3956 -0.3024
  639SOL    HW1 1916   1.210   1.335   0.378  0.9233 -1.8636  2.0244
  639SOL    HW2 1917   1.119   1.468   0.328 -1.1742  4.9285 -0.3705
  640SOL     OW 1918   1.405   2.406   1.076  0.5288 -0.0450  0.1546
  640SOL    HW1 1919   1.457   2.489   1.096 -1.2310  0.0574  0.9392
  640SOL    HW2 1920   1.459   2.362   0.996  2.0334 -0.7008 -2.5325
  641SOL     OW 1921   3.031   2.477   1.053  0.5996  0.1413 -0.0874
  641SOL    HW1 1922   3.034   2.391   0.997  1.1241 -2.7425 -0.3717
  641SOL    HW2 1923   2.934   2.503   1.059 -2.3099 -0.9761 -1.6438
  642SOL     OW 1924   0.649   3.095   1.954 -0.0220 -0.1397 -0.1516
  642SOL    HW1 1925   0.689   3.120   1.866 -2.2541  0.6753  2.5784
  642SOL    HW2 1926   0.547   3.086   1.952  1.7561 -0.8364  2.4248
  643SOL     OW 1927   0.734   2.233   2.390  0.4916 -0.4690  0.1448
  643SOL    HW1 1928   0.738   2.332   2.365  0.0228 -1.5042  0.1905
  643SOL    HW2 1929   0.703   2.222   2.489  0.0598 -1.6755  0.4696
  644SOL     OW 1930   1.202   2.634   0.790 -0.0223  0.9145  0.3011
  644SOL    HW1 1931   1.227   2.548   0.740  0.9693  0.8242  0.6472
  644SOL    HW2 1932   1.101   2.632   0.793  1.2152 -0.8513  0.5846
  645SOL     OW 1933   1.335   1.428   2.023 -0.1904 -0.4060 -0.0628
  645SOL    HW1 1934   1.274   1.351   1.985  0.1039 -1.6604 -3.5915
  645SOL    HW2 1935   1.349   1.404   2.121  1.2011  1.9901 -0.0852
  646SOL     OW 1936   0.403   1.095   3.086 -0.3220  0.2757 -0.1875
  646SOL    HW1 1937   0.316   1.140   3.062 -2.2459 -2.6444  1.9841
  646SOL    HW2 1938   0.425   1.096   0.062  0.2420 -1.0196  1.3844
  647SOL     OW 1939   1.473   0.040   0.915  0.5444 -0.3034  0.5927
  647SOL    HW1 1940   1.554   0.073   0.858 -1.1253  1.3456 -0.6004
  647SOL    HW2 1941   1.399   0.006   0.855 -2.3295  1.6349  2.1877
  648SOL     OW 1942   2.606   2.837   1.609 -0.6459 -0.0137 -0.3111
  648SOL    HW1 1943   2.581   2.888   1.696 -2.9971  1.4085  2.8022
  648SOL    HW2 1944   2.530   2.772   1.589  1.7990 -0.7588  0.9025
  649SOL     OW 1945   0.700   2.019   3.069  0.2262 -0.7024  0.4596
  649SOL    HW1 1946   0.775   2.083   3.096  1.9474  0.8100  2.2543
  649SOL    HW2 1947   0.610   2.058   3.100 -3.0978  1.7378  0.8555
  650SOL     OW 1948   2.856   2.173   1.625  0.0638 -0.1111  0.0159
  650SOL    HW1 1949   2.864   2.266   1.585  1.9194  0.7009  2.2965
  650SOL    HW2 1950   2.766   2.162   1.666  0.0178  0.8992 -1.2169
  651SOL     OW 1951   0.193   0.188   2.987 -0.1010 -0.1328 -0.4568
  651SOL    HW1 1952   0.142   0.172   2.904 -1.0584  0.2454 -0.4525
  651SOL    HW2 1953   0.137   0.250   3.049 -2.4021  0.1264  2.1617
  652SOL     OW 1954   2.288   1.721   0.081 -0.2554 -0.0627  0.0344
  652SOL    HW1 1955   2.279   1.791   0.004  1.6357  2.2003 -2.4097
  652SOL    HW2 1956   2.326   1.772   0.162 -2.1771  0.5579  1.2172
  653SOL     OW 1957   0.081   0.072   0.867 -0.4556  0.4638 -0.0145
  653SOL    HW1 1958   0.131   0.017   0.936 -1.0467  0.1710 -1.6651
  653SOL    HW2 1959   0.047   0.007   0.797  1.2547 -0.1542 -0.0653
  654SOL     OW 1960   1.312   3.014   0.172  0.6056  0.3006 -0.0703
  654SOL    HW1 1961   1.344   2.959   0.251 -1.6472 -1.2180  0.5822
  654SOL    HW2 1962   1.357   3.110   0.160  0.2835  1.6749 -0.1580
  655SOL     OW 1963   0.732   2.772   1.311  0.0309  0.0464  0.5280
  655SOL    HW1 1964   0.765   2.767   1.216 -1.6312 -1.3391  2.9150
  655SOL    HW2 1965   0.798   2.737   1.377 -1.3698  1.7048  0.0794
  656SOL     OW 1966   0.320   0.194   2.198  0.0918  0.7330  0.2733
  656SOL    HW1 1967   0.385   0.224   2.270 -2.4240  2.8647  0.1081
  656SOL    HW2 1968   0.290   0.268   2.135 -1.7014 -0.6752  0.5801
  657SOL     OW 1969   1.815   0.676   2.496 -0.2095  0.2729  0.4843
  657SOL    HW1 1970   1.791   0.580   2.517 -0.2536  2.2843 -0.0801
  657SOL    HW2 1971   1.899   0.684   2.438  1.4357  0.5923  2.3983
  658SOL     OW 1972   2.058   1.667   1.218  0.6645 -0.3422  0.5200
  658SOL    HW1 1973   1.995   1.591   1.237 -2.1903 -0.1427  2.1875
  658SOL    HW2 1974   2.153   1.654   1.255 -0.6600 -0.7180  1.5797
  659SOL     OW 1975   2.844   2.764   3.029 -0.0752 -0.5462 -0.3969
  659SOL    HW1 1976   2.853   2.866   3.008  1.7856 -0.2477 -1.5257
  659SOL    HW2 1977   2.748   2.737   3.041  1.9032 -1.0685 -0.6853
  660SOL     OW 1978   1.226   0.714   0.132  0.2973 -0.1624  0.0353
  660SOL    HW1 1979   1.212   0.610   0.124 -2.6982 -1.0942  0.9627
  660SOL    HW2 1980   1.230   0.742   0.229 -2.4181 -0.1874  0.5620
  661SOL     OW 1981   2.372   2.672   0.956  0.2099  0.0953 -0.2899
  661SOL    HW1 1982   2.423   2.720   0.883  0.3884 -0.8016 -3.1244
  661SOL    HW2 1983   2.411   2.585   0.981  0.0326  1.3622  0.5143
  662SOL     OW 1984   0.574   0.524   0.591 -0.1183 -0.6645  0.2733
  662SOL    HW1 1985   0.520   0.566   0.668  2.0444  0.1435  1.8076
  662SOL    HW2 1986   0.536   0.546   0.497  3.1888  0.3245  0.8734
  663SOL     OW 1987   1.391   2.296   2.407  0.2377 -0.6782 -0.2164
  663SOL    HW1 1988   1.492   2.278   2.397  1.5316  1.3999  1.5923
  663SOL    HW2 1989   1.349   2.242   2.332 -1.1508  0.5779 -0.9936
  664SOL     OW 1990   0.557   2.390   1.314  0.4597 -0.3724  0.2465
  664SOL    HW1 1991   0.649   2.423   1.305 -2.2808 -2.2702  2.2358
  664SOL    HW2 1992   0.483   2.436   1.256 -5.7042  1.3251 -0.1682
  665SOL     OW 1993   1.478   1.942   1.456  0.2983  0.3480 -0.1369
  665SOL    HW1 1994   1.470   1.931   1.560  2.0869  1.0406  3.3288
  665SOL    HW2 1995   1.397   1.907   1.406  0.3030  1.6663  0.0201
  666SOL     OW 1996   0.502   2.924   3.007 -0.2207 -0.0241  0.0224
  666SOL    HW1 1997   0.553   3.012   2.977  0.7412 -1.7522  1.9775
  666SOL    HW2 1998   0.501   2.850   2.933 -0.1547 -1.0460 -1.9061
  667SOL     OW 1999   1.660   1.677   1.480  0.1066  1.0796 -0.4010
  667SOL    HW1 2000   1.716   1.745   1.529 -1.0455 -2.0985  1.8994
  667SOL    HW2 2001   1.568   1.669   1.528 -2.1877 -1.6259  0.0847
  668SOL     OW 2002   1.119   0.023   2.394 -0.5296 -0.2526 -0.0703
  668SOL    HW1 2003   1.156   3.097   2.315  1.2088  1.2736  0.1777
  668SOL    HW2 2004   1.110   0.120   2.369 -0.9884  0.1934  0.9647
  669SOL     OW 2005   2.161   2.378   1.939  0.3324  0.0534  0.3439
  669SOL    HW1 2006   2.250   2.385   1.890 -1.2190 -3.5557 -2.1524
  669SOL    HW2 2007   2.103   2.312   1.888 -0.1118  1.3483 -0.7508
  670SOL     OW 2008   2.385   1.764   0.349  0.3067 -0.1329  0.4214
  670SOL    HW1 2009   2.399   1.841   0.415 -0.0232 -0.6747 -0.8271
  670SOL    HW2 2010   2.328   1.694   0.400  0.6441 -2.8099  1.3146
  671SOL     OW 2011   1.343   1.123   1.215  0.0106  0.3055 -0.0194
  671SOL    HW1 2012   1.312   1.150   1.123 -1.9208 -1.5966  1.6389
  671SOL    HW2 2013   1.344   1.206   1.271  2.0662 -2.3905  0.1427
  672SOL     OW 2014   2.330   1.661   2.266  0.4736 -0.0799  0.1123
  672SOL    HW1 2015   2.426   1.691   2.246 -1.8916  2.9064 -0.9567
  672SOL    HW2 2016   2.320   1.559   2.263 -2.2867  0.2829  1.7195
  673SOL     OW 2017   2.583   1.672   2.165 -0.0113 -0.2320 -0.1198
  673SOL    HW1 2018   2.606   1.637   2.074 -1.4718  4.9970  4.2795
  673SOL    HW2 2019   2.662   1.658   2.231 -0.2412 -0.9159  1.5989
  674SOL     OW 2020   1.092   2.821   2.370 -0.4558 -0.3472 -0.2531
  674SOL    HW1 2021   0.997   2.803   2.399 -1.8345  0.6778 -0.5513
  674SOL    HW2 2022   1.097   2.832   2.267 -0.2593 -1.6727  0.3958
  675SOL     OW 2023   0.594   1.035   1.235  0.3898  0.1089 -0.2133
  675SOL    HW1 2024   0.516   0.997   1.179  1.7452  2.9636  3.2976
  675SOL    HW2 2025   0.655   0.956   1.263 -1.3212 -1.4208 -0.8164
  676SOL     OW 2026   1.945   0.546   0.927  0.2370 -0.0487 -0.1892
  676SOL    HW1 2027   1.907   0.454   0.896  0.6621  0.0097 -1.9580
  676SOL    HW2 2028   1.946   0.551   1.028 -1.1082 -1.6974  1.9206
  677SOL     OW 2029   2.635   1.612   2.947 -0.0537  0.0437 -0.3676
  677SOL    HW1 2030   2.682   1.524   2.969  0.3208  1.2216  0.5951
  677SOL    HW2 2031   2.646   1.639   2.846  0.1283  0.8643 -1.1973
  678SOL     OW 2032   0.252   3.102   1.065  0.5333  0.2929 -0.3829
  678SOL    HW1 2033   0.197   3.024   1.107 -1.7992 -3.3376  1.4841
  678SOL    HW2 2034   0.340   3.107   1.117  0.2302 -2.2823 -2.7023
  679SOL     OW 2035   2.332   0.023   0.325 -0.2320 -0.1115 -0.4800
  679SOL    HW1 2036   2.363   0.099   0.269 -2.0268  1.3127  1.3083
  679SOL    HW2 2037   2.387   0.007   0.410  0.8625  2.5327  3.7134
  680SOL     OW 2038   0.252   2.346   2.027 -0.5227 -0.0668 -0.0912
  680SOL    HW1 2039   0.326   2.283   1.992  2.8251  0.0862  2.1628
  680SOL    HW2 2040   0.161   2.322   1.986 -1.5593  1.2089  0.2029
  681SOL     OW 2041   2.673   1.836   1.401  0.1439 -0.4258 -0.2219
  681SOL    HW1 2042   2.729   1.906   1.362 -2.0382  0.4848  1.1861
  681SOL    HW2 2043   2.573   1.857   1.400 -0.2438 -0.8544  1.4549
  682SOL     OW 2044   0.020   2.293   1.957  0.4288  0.2765  0.0516
  682SOL    HW1 2045   0.034   2.346   1.871 -1.1653 -0.3189 -1.9291
  682SOL    HW2 2046   3.055   2.316   2.003 -0.9912 -0.0552  0.6687
  683SOL     OW 2047   3.013   2.077   1.824  0.4866  0.1835  0.1272
  683SOL    HW1 2048   3.087   2.135   1.868  0.9093 -0.3756  4.1390
  683SOL    HW2 2049   2.956   2.128   1.757 -0.8487  5.1100 -1.1827
  684SOL     OW 2050   2.452   1.585   2.562  0.5361 -0.1627  0.0016
  684SOL    HW1 2051   2.447   1.601   2.460 -0.8521 -0.2161 -2.5716
  684SOL    HW2 2052   2.471   1.486   2.581  0.3303 -0.0804  1.6261
  685SOL     OW 2053   1.627   0.936   0.431 -0.2254  0.3660  0.6274
  685SOL    HW1 2054   1.541   0.906   0.478 -0.6440  1.6055 -0.7926
  685SOL    HW2 2055   1.702   0.968   0.496 -0.3665 -0.2307  1.3124
  686SOL     OW 2056   0.431   0.049   0.804  0.3754 -0.0121  0.2938
  686SOL    HW1 2057   0.514   0.107   0.818  0.2054 -2.0017 -0.4666
  686SOL    HW2 2058   0.364   0.054   0.876  1.8146 -2.8268 -0.8833
  687SOL     OW 2059   1.427   1.311   2.278  0.6837  0.1159  0.3396
  687SOL    HW1 2060   1.503   1.325   2.345 -2.0085 -1.7128 -1.3589
  687SOL    HW2 2061   1.338   1.343   2.323 -1.7376  2.4856 -0.6372
  688SOL     OW 2062   1.253   1.852   1.298 -0.2455  0.1828  0.2687
  688SOL    HW1 2063   1.286   1.821   1.203  0.7799  0.0133 -3.1585
  688SOL    HW2 2064   1.172   1.805   1.332  0.8390  0.6063 -1.3899
  689SOL     OW 2065   1.951   0.172   1.443  0.1120  0.2205  0.0452
  689SOL    HW1 2066   2.024   0.158   1.378 -2.6724  0.7539  0.0844
  689SOL    HW2 2067   1.930   0.274   1.459 -0.5091 -0.2395  1.8678
  690SOL     OW 2068   2.940   1.437   1.268 -0.1544  0.0395 -0.0353
  690SOL    HW1 2069   2.916   1.394   1.353 -0.1802  0.8711 -0.5318
  690SOL    HW2 2070   2.946   1.365   1.194  2.1513 -0.4653 -0.4509
  691SOL     OW 2071   0.399   2.566   0.907  1.2083  0.2796 -0.4308
  691SOL    HW1 2072   0.459   2.495   0.869 -1.5674 -0.9323  3.9320
  691SOL    HW2 2073   0.352   2.625   0.835 -0.1371 -0.6025 -1.0310
  692SOL     OW 2074   2.275   0.412   1.792  0.2871 -0.0833  0.2981
  692SOL    HW1 2075   2.332   0.496   1.788 -0.4794  1.0467 -0.5902
  692SOL    HW2 2076   2.178   0.426   1.830  1.2095 -2.3439  0.3299
  693SOL     OW 2077   0.137   1.845   1.985  0.0674  0.3949  0.6882
  693SOL    HW1 2078   0.163   1.753   2.023  0.3394 -3.0457  1.6526
  693SOL    HW2 2079   0.050   1.884   2.018 -2.1855  2.8992 -0.1496
  694SOL     OW 2080   1.530   1.450   1.818 -1.0219  0.1491 -0.8560
  694SOL    HW1 2081   1.601   1.526   1.839  0.4754  2.4705  1.8522
  694SOL    HW2 2082   1.476   1.434   1.899 -0.4941  1.4051 -0.7218
  695SOL     OW 2083   0.514   0.845   1.061 -0.8385  0.2385  0.2146
  695SOL    HW1 2084   0.449   0.820   0.988 -0.8399  2.8882  0.8074
  695SOL    HW2 2085   0.606   0.808   1.037  0.6430  0.8289 -0.8299
  696SOL     OW 2086   1.732   2.975   0.804  0.4558  0.3845 -0.3609
  696SOL    HW1 2087   1.697   3.050   0.748 -0.3206 -2.4335 -0.0037
  696SOL    HW2 2088   1.676   2.956   0.887 -0.9788 -0.4454 -0.1173
  697SOL     OW 2089   1.153   0.333   1.532  0.0493 -0.1255  0.3916
  697SOL    HW1 2090   1.098   0.374   1.608  2.0278 -0.3769 -0.1050
  697SOL    HW2 2091   1.100   0.253   1.496  0.7454  1.2637  1.5755
  698SOL     OW 2092   1.756   1.439   2.097  0.0133 -0.2062 -0.5662
  698SOL    HW1 2093   1.723   1.344   2.096  3.6521 -0.1205 -0.7254
  698SOL    HW2 2094   1.736   1.493   2.185 -0.1151  2.1911 -0.0173
  699SOL     OW 2095   2.040   0.722   1.499 -0.1011  0.0367 -0.1423
  699SOL    HW1 2096   2.137   0.734   1.478 -0.5592  1.1100 -1.7259
  699SOL    HW2 2097   1.979   0.779   1.441 -0.5454  0.5804 -1.3060
  700SOL     OW 2098   0.995   2.215   3.069 -0.2913 -0.3378  0.1104
  700SOL    HW1 2099   0.988   2.300   3.124 -1.0179  0.8913  1.1383
  700SOL    HW2 2100   1.084   2.165   3.090  1.5543 -0.3758 -1.4544
  701SOL     OW 2101   2.194   2.402   2.631  0.4004 -0.4364 -0.6974
  701SOL    HW1 2102   2.144   2.440   2.551  1.9378 -2.9632 -2.3686
  701SOL    HW2 2103   2.163   2.445   2.720 -2.0140 -3.1645  2.5837
  702SOL     OW 2104   0.991   0.013   1.160 -0.0681  0.0565 -0.0317
  702SOL    HW1 2105   1.034   0.104   1.158  0.1445  1.4055  0.6683
  702SOL    HW2 2106   1.063   3.072   1.188  2.1753 -1.7555  0.4381
  703SOL     OW 2107   2.016   0.238   2.546 -0.1694 -0.2757  0.2843
  703SOL    HW1 2108   2.097   0.295   2.517  1.9206 -0.0082 -1.2232
  703SOL    HW2 2109   1.991   0.176   2.467 -0.9623  2.0202 -0.6232
  704SOL     OW 2110   2.911   2.487   0.363 -0.0827  0.1668  0.4311
  704SOL    HW1 2111   2.973   2.568   0.348 -1.3942 -0.4797 -0.4043
  704SOL    HW2 2112   2.922   2.436   0.450 -3.1337 -1.1060  0.9278
  705SOL     OW 2113   2.503   0.160   2.260  0.2839 -0.1027  0.2092
  705SOL    HW1 2114   2.444   0.228   2.214  1.9119 -3.4039 -0.5788
  705SOL    HW2 2115   2.457   0.071   2.245  0.2851  1.8123 -0.6173
  706SOL     OW 2116   2.152   2.804   1.469  0.2878  0.5514  0.3900
  706SOL    HW1 2117   2.245   2.762   1.476 -0.6341 -0.0635  1.3953
  706SOL    HW2 2118   2.147   2.849   1.378  0.1578 -1.6217 -1.9160
  707SOL     OW 2119   0.676   2.955   2.338  0.9067 -0.2840  0.0727
  707SOL    HW1 2120   0.578   2.968   2.373  0.6963  2.0024 -2.6582
  707SOL    HW2 2121   0.742   3.020   2.377 -2.9010 -0.4964 -3.7827
  708SOL     OW 2122   2.888   2.521   1.797  0.1156  0.9357  0.1862
  708SOL    HW1 2123   2.872   2.594   1.734 -0.4708  0.3474  3.4210
  708SOL    HW2 2124   2.978   2.476   1.775  0.5936 -2.4267  2.5158
  709SOL     OW 2125   1.700   0.403   1.592 -0.2426 -0.0741  0.2121
  709SOL    HW1 2126   1.783   0.432   1.536  1.9674 -0.8493  0.4592
  709SOL    HW2 2127   1.711   0.414   1.693 -0.0794 -1.6106 -1.4391
  710SOL     OW 2128   1.299   3.117   2.933 -0.5104  0.0949 -0.3736
  710SOL    HW1 2129   1.213   3.124   2.884 -0.1139  1.3745 -0.4675
  710SOL    HW2 2130   1.311   3.022   2.963  0.9309 -0.9804  0.2556
  711SOL     OW 2131   0.854   1.833   2.496  0.3449 -0.2294  0.0586
  711SOL    HW1 2132   0.925   1.817   2.566  1.2598  2.0114  0.8656
  711SOL    HW2 2133   0.765   1.790   2.516 -0.4301 -0.1804  0.0405
  712SOL     OW 2134   0.988   1.792   2.750  0.2524 -0.0114  0.9371
  712SOL    HW1 2135   0.902   1.820   2.806 -2.9297 -1.6903  1.2295
  712SOL    HW2 2136   1.062   1.767   2.815 -3.0909  0.4480 -0.6255
  713SOL     OW 2137   2.027   1.266   2.688  0.3467  0.5663  0.0696
  713SOL    HW1 2138   2.029   1.357   2.638 -1.1431 -0.7665 -1.5397
  713SOL    HW2 2139   2.059   1.273   2.781 -0.7407  1.9215 -2.6106
  714SOL     OW 2140   1.082   1.720   1.793  0.2760  0.3321  0.0646
  714SOL    HW1 2141   1.008   1.719   1.862 -0.2599 -0.3582 -1.8684
  714SOL    HW2 2142   1.051   1.781   1.716 -2.5800  1.5770 -2.0066
  715SOL     OW 2143   1.967   0.247   3.096  0.1911  0.4770 -0.4730
  715SOL    HW1 2144   2.068   0.235   3.074 -0.2293 -2.4798 -1.0994
  715SOL    HW2 2145   1.908   0.305   3.032  2.4538  1.7831  0.7713
  716SOL     OW 2146   2.848   2.428   1.489 -0.0894  0.3910  0.1059
  716SOL    HW1 2147   2.849   2.507   1.553 -0.1784 -1.0431  0.9760
  716SOL    HW2 2148   2.930   2.437   1.426  1.1277 -1.3157 -0.5652
  717SOL     OW 2149   2.654   1.083   0.896  0.3957  0.3099 -0.1177
  717SOL    HW1 2150   2.586   1.084   0.976 -0.4557 -0.1914  1.5118
  717SOL    HW2 2151   2.617   1.022   0.820 -2.1806  0.1448  0.5298
  718SOL     OW 2152   1.195   2.008   1.727  0.3416 -0.7083  0.2043
  718SOL    HW1 2153   1.154   2.037   1.637 -2.7384 -1.1841  0.2334
  718SOL    HW2 2154   1.125   1.983   1.801 -0.4196 -0.6610  3.7623
  719SOL     OW 2155   2.455   0.424   2.820 -0.0836  0.4264  0.0895
  719SOL    HW1 2156   2.518   0.506   2.841  2.5444  1.8398 -0.8327
  719SOL    HW2 2157   2.481   0.352   2.887 -0.8157  0.3699 -2.3522
  720SOL     OW 2158   1.105   0.238   1.082  0.2840 -0.3167  0.9532
  720SOL    HW1 2159   1.206   0.216   1.073 -0.1883  2.6054  2.0651
  720SOL    HW2 2160   1.063   0.243   0.991 -0.7698  0.2131  0.8970
  721SOL     OW 2161   2.744   0.702   0.448 -0.2797 -0.2502  0.0350
  721SOL    HW1 2162   2.763   0.685   0.347  1.5432  1.3851 -0.0598
  721SOL    HW2 2163   2.805   0.776   0.487  2.9434  0.5925  0.8193
  722SOL     OW 2164   0.404   2.729   2.519 -0.1102  0.7363 -0.1555
  722SOL    HW1 2165   0.415   2.660   2.443 -0.2815  0.4441 -1.0253
  722SOL    HW2 2166   0.411   2.824   2.479  3.4477 -2.0582  0.9467
  723SOL     OW 2167   1.657   0.077   0.697 -0.4277 -0.1271 -0.0937
  723SOL    HW1 2168   1.738   0.078   0.636 -0.6629  0.7077 -1.8255
  723SOL    HW2 2169   1.608   0.168   0.688  0.8544  0.1954 -0.8166
  724SOL     OW 2170   0.925   1.762   2.016  0.5748 -0.1484 -0.2906
  724SOL    HW1 2171   0.950   1.749   2.116 -0.0550 -1.1631  0.0616
  724SOL    HW2 2172   0.848   1.697   1.985  0.4997 -1.3831 -0.0910
  725SOL     OW 2173   1.548   3.085   1.422 -0.1136  0.3127  0.2488
  725SOL    HW1 2174   1.543   3.116   1.517  0.5919 -1.7530 -1.2105
  725SOL    HW2 2175   1.538   2.984   1.418 -0.2948  1.0858  0.9195
  726SOL     OW 2176   2.237   2.907   0.211 -0.2640 -0.1065  0.1500
  726SOL    HW1 2177   2.287   2.997   0.220  0.1156  0.6382  1.2030
  726SOL    HW2 2178   2.281   2.838   0.274  2.6937 -0.4842 -1.2629
  727SOL     OW 2179   1.305   1.984   0.655  0.2005 -0.0522  0.3290
  727SOL    HW1 2180   1.325   2.071   0.602  2.2146 -1.4204 -0.8079
  727SOL    HW2 2181   1.351   1.905   0.618  1.3866  2.5824 -0.4813
  728SOL     OW 2182   2.169   2.691   2.261 -0.4935  0.3998 -0.2936
  728SOL    HW1 2183   2.194   2.695   2.160  1.3710  1.0579 -0.0308
  728SOL    HW2 2184   2.257   2.696   2.314 -0.8160 -0.4249 -0.0106
  729SOL     OW 2185   1.807   2.194   1.422 -0.0614  0.0269 -0.2494
  729SOL    HW1 2186   1.868   2.176   1.498 -0.0221  0.0285  0.4285
  729SOL    HW2 2187   1.766   2.104   1.397  2.6462 -1.3769  1.5423
  730SOL     OW 2188   1.607   0.892   3.040  0.4832  0.3386 -0.4317
  730SOL    HW1 2189   1.642   0.802   3.008  0.7101  0.4613  2.0131
  730SOL    HW2 2190   1.627   0.967   2.974 -0.0370  4.0711  0.7845
  731SOL     OW 2191   0.771   3.095   1.349  0.1939 -0.0137  0.1869
  731SOL    HW1 2192   0.863   3.113   1.312 -2.8922  1.5676 -0.3170
  731SOL    HW2 2193   0.727   3.010   1.311  1.1420  0.5762  0.2638
  732SOL     OW 2194   1.391   0.225   1.076 -0.6020 -0.6923  0.3756
  732SOL    HW1 2195   1.464   0.291   1.105  1.4641  0.4482 -0.3014
  732SOL    HW2 2196   1.419   0.168   0.997  0.6401  0.3878  3.2627
  733SOL     OW 2197   0.905   1.195   1.183  0.2551  0.1713  0.1305
  733SOL    HW1 2198   0.942   1.104   1.209 -0.0877  1.7949 -0.6191
  733SOL    HW2 2199   0.816   1.186   1.136  0.6909 -0.5898 -0.8739
  734SOL     OW 2200   3.030   2.509   2.792 -0.1417  0.4287  0.5627
  734SOL    HW1 2201   3.011   2.584   2.729  2.1004  2.7359  1.1551
  734SOL    HW2 2202   2.949   2.502   2.856 -2.2859  3.0919 -0.3153
  735SOL     OW 2203   1.145   2.860   1.462 -0.5308 -0.0131  0.5926
  735SOL    HW1 2204   1.175   2.909   1.374  0.2014 -1.6229 -0.5664
  735SOL    HW2 2205   1.224   2.849   1.525  0.0873 -0.6744 -0.4935
  736SOL     OW 2206   1.839   2.009   0.073  0.2236  0.1316 -0.1724
  736SOL    HW1 2207   1.752   2.059   0.077  2.3470  0.4543 -0.2100
  736SOL    HW2 2208   1.913   2.047   0.131 -0.2397  0.7781  1.6286
  737SOL     OW 2209   2.991   1.966   1.468  0.0895  0.5351 -0.6464
  737SOL    HW1 2210   2.979   1.940   1.370 -0.3573  3.2267  1.1379
  737SOL    HW2 2211   2.917   2.035   1.500  2.5189  1.7310  0.5115
  738SOL     OW 2212   1.785   2.448   2.694  0.7938  0.2485  0.3169
  738SOL    HW1 2213   1.716   2.410   2.759 -2.8947 -1.1739  3.2168
  738SOL    HW2 2214   1.886   2.441   2.729  2.0569  1.1585 -0.8457
  739SOL     OW 2215   1.128   2.040   2.687 -0.1807  0.2483 -0.2904
  739SOL    HW1 2216   1.206   2.013   2.632 -2.4989 -1.9483  2.0272
  739SOL    HW2 2217   1.096   1.954   2.733  0.0501 -2.4858  2.4748
  740SOL     OW 2218   1.153   2.748   1.054  0.4120 -0.4128  0.0400
  740SOL    HW1 2219   1.216   2.822   1.086  0.6364  2.4512 -0.3812
  740SOL    HW2 2220   1.177   2.713   0.961 -0.8480  0.0840 -0.3848
  741SOL     OW 2221   3.100   1.153   0.279 -0.3955 -0.5158 -0.1037
  741SOL    HW1 2222   3.023   1.170   0.348 -1.3683  0.8460  1.8727
  741SOL    HW2 2223   0.030   1.236   0.264  0.0874 -0.4179 -0.9625
  742SOL     OW 2224   0.981   1.683   2.281 -0.3435  1.4669 -0.2002
  742SOL    HW1 2225   1.075   1.701   2.252 -1.9815  1.0655 -1.8158
  742SOL    HW2 2226   0.941   1.749   2.347 -1.5977  1.3690  0.0380
  743SOL     OW 2227   1.157   1.010   2.491  0.6696  0.2293  0.2892
  743SOL    HW1 2228   1.140   0.958   2.576 -0.5462  1.2595 -0.9471
  743SOL    HW2 2229   1.192   0.951   2.415  1.5631  0.6477  2.3400
  744SOL     OW 2230   2.185   3.017   1.661  0.0740 -0.3985 -0.0825
  744SOL    HW1 2231   2.280   3.046   1.666 -1.1155  0.9242  1.4543
  744SOL    HW2 2232   2.170   2.948   1.589  0.2150  2.4681  1.0697
  745SOL     OW 2233   1.927   1.463   1.317 -0.4282  0.4722  0.4629
  745SOL    HW1 2234   1.844   1.502   1.269  0.7524  1.0911 -0.0563
  745SOL    HW2 2235   1.898   1.415   1.399  2.3658 -2.4620 -0.2831
  746SOL     OW 2236   1.985   1.022   0.760 -0.5975  0.1054  0.1233
  746SOL    HW1 2237   2.080   1.063   0.750  0.0326 -0.3285 -1.6754
  746SOL    HW2 2238   1.985   0.922   0.742  0.1145 -1.5644  0.0094
  747SOL     OW 2239   2.249   1.581   0.505  0.0363  0.2700 -0.0958
  747SOL    HW1 2240   2.228   1.494   0.557  2.1126  0.3610  2.8262
  747SOL    HW2 2241   2.197   1.664   0.536  0.2549  3.1635  1.4729
  748SOL     OW 2242   0.495   1.618   0.364  0.1317 -0.6346  0.4916
  748SOL    HW1 2243   0.439   1.559   0.426 -0.7328 -0.3135  0.9157
  748SOL    HW2 2244   0.463   1.623   0.265 -1.1037  1.6008 -0.9834
  749SOL     OW 2245   0.135   2.380   2.708 -0.2257 -0.4054  0.2460
  749SOL    HW1 2246   0.146   2.296   2.768  1.4065 -1.3937  1.8756
  749SOL    HW2 2247   0.046   2.426   2.720  0.0613 -1.4124 -3.2413
  750SOL     OW 2248   2.253   0.893   0.932  0.4282  0.3944 -0.4011
  750SOL    HW1 2249   2.264   0.803   0.880 -0.1110  0.4123  0.0183
  750SOL    HW2 2250   2.179   0.886   1.007 -2.3344  2.1203  2.1138
  751SOL     OW 2251   2.655   0.040   0.117 -0.0740  0.1987  0.6116
  751SOL    HW1 2252   2.645   0.019   0.014  0.8969 -1.1831 -2.5754
  751SOL    HW2 2253   2.668   3.086   0.177  2.2770 -1.6246 -1.6441
  752SOL     OW 2254   2.380   2.969   0.564 -0.3619 -0.0832 -0.0568
  752SOL    HW1 2255   2.330   3.021   0.638 -2.8189 -2.2777 -0.7759
  752SOL    HW2 2256   2.329   2.879   0.556 -3.9314 -0.8489  0.3405
  753SOL     OW 2257   1.777   1.602   2.322  0.1198  0.0260 -0.1429
  753SOL    HW1 2258   1.846   1.544   2.366 -2.1086  0.4983 -0.3059
  753SOL    HW2 2259   1.805   1.703   2.321  0.5157  0.5210  1.6026
  754SOL     OW 2260   2.213   2.454   1.644 -0.1514  0.4385 -0.0566
  754SOL    HW1 2261   2.235   2.363   1.608 -0.3254 -1.4411  1.4611
  754SOL    HW2 2262   2.113   2.483   1.644 -2.0619 -1.9520  1.1861
  755SOL     OW 2263   2.556   0.905   1.270 -0.1049  0.4690  0.1562
  755SOL    HW1 2264   2.520   0.955   1.188 -0.6949  1.2783 -1.2465
  755SOL    HW2 2265   2.558   0.960   1.358  0.7213  1.2358 -0.3487
  756SOL     OW 2266   1.039   1.500   2.942  0.0480  0.5426  0.7472
  756SOL    HW1 2267   1.031   1.400   2.958  0.6029  3.9347  1.7851
  756SOL    HW2 2268   0.947   1.520   2.896 -3.0084 -1.2220 -2.7061
  757SOL     OW 2269   1.738   2.599   0.983  0.1742  0.2907  0.2968
  757SOL    HW1 2270   1.781   2.590   0.889  2.9949 -0.7872  0.6505
  757SOL    HW2 2271   1.734   2.510   1.037 -2.0149  0.5611  1.9421
  758SOL     OW 2272   0.854   2.334   1.337 -0.0854 -0.0959  0.0107
  758SOL    HW1 2273   0.932   2.373   1.390 -0.0964 -1.2582 -0.0155
  758SOL    HW2 2274   0.890   2.287   1.248  2.3518 -1.5294 -4.1215
  759SOL     OW 2275   2.351   1.322   1.100 -0.4655 -0.1639 -0.0982
  759SOL    HW1 2276   2.394   1.377   1.173  1.2910  0.3166  0.4858
  759SOL    HW2 2277   2.253   1.306   1.116  0.1258  0.0016  0.9526
  760SOL     OW 2278   2.032   1.126   1.584  0.0058 -0.9905  0.3027
  760SOL    HW1 2279   2.042   1.097   1.678  1.5014  2.2900  0.2202
  760SOL    HW2 2280   2.029   1.226   1.585  3.7721 -1.1505 -0.4199
  761SOL     OW 2281   2.039   2.755   0.330 -0.1347  0.0689 -0.4095
  761SOL    HW1 2282   1.975   2.696   0.274  0.4148  0.4643  0.7387
  761SOL    HW2 2283   2.083   2.826   0.269  0.1584  0.4421 -0.5080
  762SOL     OW 2284   1.867   1.621   3.121  0.4337 -0.3657  0.2340
  762SOL    HW1 2285   1.816   1.537   3.087 -1.3611 -1.1389 -0.0469
  762SOL    HW2 2286   1.859   1.694   3.048 -0.0028 -2.5827  0.5754
  763SOL     OW 2287   0.594   1.661   1.337 -0.1456  0.1212  0.0200
  763SOL    HW1 2288   0.496   1.656   1.310  0.3658 -1.3866 -0.9251
  763SOL    HW2 2289   0.628   1.572   1.372 -0.4524  2.2045 -0.1354
  764SOL     OW 2290   0.164   2.549   3.014  0.2656 -0.5198 -0.1034
  764SOL    HW1 2291   0.076   2.586   3.054 -2.7327 -3.5414  2.2673
  764SOL    HW2 2292   0.177   2.580   2.922 -1.5434  0.7654  1.2481
  765SOL     OW 2293   0.627   0.049   1.568  0.0220 -0.2647  0.2799
  765SOL    HW1 2294   0.706   0.023   1.509 -0.1531 -1.6290  0.1834
  765SOL    HW2 2295   0.634   0.146   1.602 -0.7073  1.0381  1.2084
  766SOL     OW 2296   2.994   2.135   2.266  0.7145  0.5110 -0.8100
  766SOL    HW1 2297   3.048   2.221   2.249  0.0322 -1.4771  1.0087
  766SOL    HW2 2298   2.904   2.125   2.214 -1.1812  0.2427 -1.8942
  767SOL     OW 2299   2.946   1.051   2.160 -0.2065 -0.1321 -0.0741
  767SOL    HW1 2300   2.917   0.955   2.145  1.5044  1.4018 -1.3699
  767SOL    HW2 2301   2.931   1.109   2.080  0.2942  0.1847  2.7573
  768SOL     OW 2302   0.853   0.181   2.929 -0.0819 -0.1280  0.2676
  768SOL    HW1 2303   0.814   0.234   2.849 -2.4081 -1.5027 -1.5220
  768SOL    HW2 2304   0.895   0.249   2.994  0.8250 -0.3456  0.3056
  769SOL     OW 2305   2.099   2.704   0.981 -0.5147 -0.9298  0.3521
  769SOL    HW1 2306   2.200   2.695   0.985  1.7037  2.0387  2.5631
  769SOL    HW2 2307   2.054   2.738   1.069 -2.1732  1.6486  0.8058
  770SOL     OW 2308   2.865   0.147   2.793 -0.2005  0.0300 -0.2787
  770SOL    HW1 2309   2.806   0.170   2.711 -0.6740 -0.7927 -1.8625
  770SOL    HW2 2310   2.968   0.150   2.766  1.6582 -1.2945 -0.2079
  771SOL     OW 2311   1.734   2.167   1.930  0.3280 -0.6976  0.5190
  771SOL    HW1 2312   1.707   2.164   1.829  2.7605 -1.0548 -1.4454
  771SOL    HW2 2313   1.675   2.128   2.001  1.2159 -1.4968  1.1291
  772SOL     OW 2314   1.177   0.448   0.114 -0.2405  0.2173 -0.1937
  772SOL    HW1 2315   1.182   0.425   0.214  1.8663  0.9196 -2.9553
  772SOL    HW2 2316   1.117   0.375   0.074 -1.3399  0.8888  1.0962
  773SOL     OW 2317   2.672   0.912   1.899  0.3438 -0.3633  0.0303
  773SOL    HW1 2318   2.733   0.877   1.969 -1.0452 -0.3703 -0.5049
  773SOL    HW2 2319   2.643   0.834   1.839 -2.8207  1.0384 -1.7229
  774SOL     OW 2320   1.091   1.090   0.751 -0.0661 -0.0124  0.6077
  774SOL    HW1 2321   1.042   1.133   0.670  0.2002  1.7379  0.0412
  774SOL    HW2 2322   1.027   1.028   0.807  2.3374  0.0284  1.8306
  775SOL     OW 2323   2.523   3.117   3.004  0.5172 -0.0487 -0.1371
  775SOL    HW1 2324   2.425   3.107   3.039  0.1402  2.0073  0.1905
  775SOL    HW2 2325   2.552   3.038   2.947 -1.8886 -0.3448  1.3922
  776SOL     OW 2326   2.405   1.393   2.005 -0.7672 -0.0127  0.2438
  776SOL    HW1 2327   2.421   1.370   2.107 -0.3303  1.8996  2.7148
  776SOL    HW2 2328   2.460   1.320   1.958 -0.9019 -2.2106  1.6578
  777SOL     OW 2329   0.432   1.279   2.537 -0.7144 -0.3275 -0.3106
  777SOL    HW1 2330   0.427   1.364   2.476  0.9252  0.3773  1.3740
  777SOL    HW2 2331   0.404   1.292   2.636  2.5702 -0.1401  0.8389
  778SOL     OW 2332   0.522   0.661   0.055  0.2314  0.1803 -0.4830
  778SOL    HW1 2333   0.563   0.593   3.120  0.7719  0.3556  1.2829
  778SOL    HW2 2334   0.499   0.746   0.000  0.0441  0.5236 -0.2671
  779SOL     OW 2335   0.507   0.536   2.537  0.3169 -0.5204 -0.6744
  779SOL    HW1 2336   0.577   0.592   2.484  1.0321  3.0446 -0.0825
  779SOL    HW2 2337   0.485   0.452   2.491 -1.3497  1.3076  0.2590
  780SOL     OW 2338   2.258   0.810   2.684 -0.3809 -0.0088  0.3266
  780SOL    HW1 2339   2.275   0.792   2.784  1.2607  0.4326  3.1955
  780SOL    HW2 2340   2.238   0.724   2.630 -0.1901  2.5169 -1.7483
  781SOL     OW 2341   2.885   0.856   1.654 -0.1496 -0.2670  0.1704
  781SOL    HW1 2342   2.788   0.869   1.687 -2.9951  2.4337  2.5398
  781SOL    HW2 2343   2.959   0.886   1.723  0.9949  2.0444 -1.1800
  782SOL     OW 2344   0.691   1.616   2.608 -0.5204  0.3023  0.1659
  782SOL    HW1 2345   0.705   1.615   2.708 -2.1810  1.1546 -4.8624
  782SOL    HW2 2346   0.598   1.586   2.591  3.0833 -1.4581  1.6204
  783SOL     OW 2347   0.940   2.670   1.454  0.3104  0.4686  0.2956
  783SOL    HW1 2348   1.020   2.732   1.457 -2.9242 -0.0656 -0.5111
  783SOL    HW2 2349   0.971   2.573   1.448  0.6220 -2.5313  0.5749
  784SOL     OW 2350   1.420   0.359   0.001 -0.1385  0.2358  0.4924
  784SOL    HW1 2351   1.344   0.423   0.026  0.9388  1.2246  0.5601
  784SOL    HW2 2352   1.505   0.399   0.036 -5.1619 -2.6958  0.3215
  785SOL     OW 2353   0.969   0.349   2.085  0.3523  0.3091 -0.0380
  785SOL    HW1 2354   0.944   0.449   2.102 -1.2854  3.7261  5.0348
  785SOL    HW2 2355   1.040   0.308   2.148  0.4420 -2.2784  0.3743
  786SOL     OW 2356   0.693   1.782   0.413 -0.6380  0.2532  0.0866
  786SOL    HW1 2357   0.619   1.707   0.399 -0.0726 -0.0917 -0.9688
  786SOL    HW2 2358   0.657   1.871   0.386  0.1770 -0.5380 -1.6335
  787SOL     OW 2359   1.396   0.843   0.566  0.2391  0.0902  0.3621
  787SOL    HW1 2360   1.356   0.935   0.588 -1.4753 -1.9516 -0.6550
  787SOL    HW2 2361   1.399   0.782   0.651  0.9224  0.1163  0.0608
  788SOL     OW 2362   2.289   1.575   1.321  0.1190  0.0908 -0.3028
  788SOL    HW1 2363   2.377   1.542   1.284  1.8517 -0.3370  1.3306
  788SOL    HW2 2364   2.297   1.583   1.424  0.6180 -2.6362  1.4956
  789SOL     OW 2365   2.992   1.219   2.377  0.1131 -0.2106  0.4785
  789SOL    HW1 2366   2.973   1.160   2.291 -0.3019 -1.1726 -1.7076
  789SOL    HW2 2367   2.951   1.312   2.373 -0.0342 -0.5313  1.0987
  790SOL     OW 2368   0.690   3.044   0.119  0.0713  0.1373  0.3559
  790SOL    HW1 2369   0.647   2.958   0.163 -1.2990 -1.1439  1.0759
  790SOL    HW2 2370   0.735   3.100   0.187 -1.2452 -0.9289 -3.2284
  791SOL     OW 2371   0.284   0.830   3.111 -0.2100 -0.2025  0.3811
  791SOL    HW1 2372   0.340   0.916   0.005  1.8569  1.0611 -1.0592
  791SOL    HW2 2373   0.292   0.809   3.012  1.4011  0.7309  1.5982
  792SOL     OW 2374   1.589   0.630   2.701  0.3799  0.4180 -0.8257
  792SOL    HW1 2375   1.508   0.696   2.709 -1.6782  1.2325  0.6515
  792SOL    HW2 2376   1.659   0.674   2.641 -0.7852  0.7518 -3.6107
  793SOL     OW 2377   2.996   0.412   0.556 -0.2039  0.1421 -0.2519
  793SOL    HW1 2378   3.031   0.504   0.519  0.1381  0.2025 -0.6862
  793SOL    HW2 2379   3.064   0.343   0.526 -2.8723 -1.2194 -0.7212
  794SOL     OW 2380   0.326   0.445   1.772  0.2931  0.6426 -0.3736
  794SOL    HW1 2381   0.398   0.466   1.702 -0.5158 -1.8783 -0.6993
  794SOL    HW2 2382   0.258   0.373   1.746  0.4371 -0.5341  1.5582
  795SOL     OW 2383   0.244   1.443   3.120  0.0106 -0.1710  0.2069
  795SOL    HW1 2384   0.337   1.399   0.004 -1.7489 -1.6837 -1.7256
  795SOL    HW2 2385   0.183   1.408   0.069 -1.2489 -2.4276  2.8685
  796SOL     OW 2386   0.156   1.184   3.010  0.0015 -0.3362 -0.1452
  796SOL    HW1 2387   0.082   1.117   3.038  0.1407  0.5890 -2.3361
  796SOL    HW2 2388   0.112   1.263   2.964 -0.9163  1.4850 -0.2028
  797SOL     OW 2389   1.555   2.419   2.857 -0.3427  0.0325  0.2001
  797SOL    HW1 2390   1.565   2.513   2.888 -3.2935 -0.3918 -2.6655
  797SOL    HW2 2391   1.481   2.413   2.785  0.1139 -0.9995 -0.5517
  798SOL     OW 2392   3.084   0.766   0.932 -0.1830  0.1897 -0.0330
  798SOL    HW1 2393   3.050   0.722   1.017 -0.1179 -0.7015 -1.8968
  798SOL    HW2 2394   3.008   0.824   0.894  0.3713  1.0719 -1.3966
  799SOL     OW 2395   2.375   0.686   2.065 -0.0129  0.1301 -0.0729
  799SOL    HW1 2396   2.385   0.780   2.105  2.5077 -2.0781  0.7367
  799SOL    HW2 2397   2.380   0.691   1.965  0.2845  0.4801  0.4773
  800SOL     OW 2398   0.114   2.078   0.348  0.6495  0.0629 -0.0969
  800SOL    HW1 2399   0.086   2.071   0.447 -0.2605 -0.6535 -1.7341
  800SOL    HW2 2400   0.060   1.998   0.312  1.2757 -0.7468 -2.1387
  801SOL     OW 2401   1.716   2.239   0.750 -0.0479  0.4446  0.1299
  801SOL    HW1 2402   1.789   2.221   0.681  1.7056  0.4228 -2.2928
  801SOL    HW2 2403   1.716   2.173   0.824 -0.1031  0.1056 -0.6482
  802SOL     OW 2404   1.313   1.494   2.881 -0.1409 -0.0150  0.0507
  802SOL    HW1 2405   1.215   1.498   2.895  0.6329  2.6492  0.4184
  802SOL    HW2 2406   1.352   1.556   2.951 -0.5259  1.4662 -0.1627
  803SOL     OW 2407   0.244   2.010   1.676 -0.1261 -0.4354 -0.1110
  803SOL    HW1 2408   0.257   2.069   1.759 -0.1751  1.6388 -1.5741
  803SOL    HW2 2409   0.300   1.925   1.690 -2.0986 -3.0191  0.4185
  804SOL     OW 2410   1.230   2.540   1.249  0.1732 -0.2717 -0.5139
  804SOL    HW1 2411   1.279   2.466   1.194  3.3859 -1.6009 -0.4871
  804SOL    HW2 2412   1.170   2.596   1.191  0.5626  2.1518 -1.0118
  805SOL     OW 2413   2.350   1.993   2.757 -0.1678  0.2264  0.5072
  805SOL    HW1 2414   2.279   2.066   2.737  0.7574  0.5823 -1.0990
  805SOL    HW2 2415   2.439   2.036   2.768 -0.6548 -1.6974 -2.0350
  806SOL     OW 2416   2.224   3.061   0.768  0.0248  0.1839  0.1824
  806SOL    HW1 2417   2.279   3.052   0.855  1.1714  0.2152 -0.1799
  806SOL    HW2 2418   2.220   0.042   0.747 -1.7426  0.9090  2.0614
  807SOL     OW 2419   0.170   1.198   2.603 -0.3645 -0.0473  0.1610
  807SOL    HW1 2420   0.262   1.233   2.568  0.4209  2.9937 -1.7716
  807SOL    HW2 2421   0.150   1.105   2.563 -0.6538  0.4433 -1.5413
  808SOL     OW 2422   0.533   1.659   0.858 -0.2179 -0.2429  0.1063
  808SOL    HW1 2423   0.608   1.590   0.874 -1.7121 -1.1618 -1.5472
  808SOL    HW2 2424   0.575   1.725   0.793  0.5587  0.9439 -0.7869
  809SOL     OW 2425   2.535   0.444   2.048  0.1647 -0.5161 -0.1856
  809SOL    HW1 2426   2.489   0.536   2.030 -1.5165  2.0594  1.6900
  809SOL    HW2 2427   2.616   0.430   1.985  0.7996 -0.8105 -0.2751
  810SOL     OW 2428   1.326   0.559   1.549 -0.1984  0.0743 -0.3375
  810SOL    HW1 2429   1.263   0.481   1.551  0.1798  1.2308  0.8793
  810SOL    HW2 2430   1.308   0.624   1.626 -3.8122  0.9987  0.9421
  811SOL     OW 2431   1.998   3.111   1.964  0.1189 -0.8111  0.0633
  811SOL    HW1 2432   1.901   0.016   1.969  0.2684  2.6708  2.3106
  811SOL    HW2 2433   2.014   3.017   1.945 -2.9750  1.0814  2.6676
  812SOL     OW 2434   1.756   2.011   0.491  0.3162 -0.8448  0.0443
  812SOL    HW1 2435   1.849   2.052   0.511  0.9406  0.5570 -0.3487
  812SOL    HW2 2436   1.739   1.926   0.544  0.9240  1.1489 -1.2941
  813SOL     OW 2437   1.162   0.683   2.014 -0.3729  0.0116 -0.2883
  813SOL    HW1 2438   1.157   0.669   2.118 -2.0946  2.3183 -0.6693
  813SOL    HW2 2439   1.237   0.747   1.990 -3.3946 -4.0095  0.8691
  814SOL     OW 2440   0.481   0.113   1.204  0.4685 -0.1042  0.1055
  814SOL    HW1 2441   0.518   0.034   1.149  1.8374 -1.0914 -1.0422
  814SOL    HW2 2442   0.562   0.162   1.250 -2.2195 -1.1918 -1.1894
  815SOL     OW 2443   0.324   0.192   0.584 -0.5959 -0.0549  0.1779
  815SOL    HW1 2444   0.369   0.139   0.656  1.6883 -0.1427 -0.2569
  815SOL    HW2 2445   0.331   0.144   0.492  0.3682 -1.4024 -2.7922
  816SOL     OW 2446   2.122   1.751   2.444  0.2217 -0.0525 -0.9909
  816SOL    HW1 2447   2.183   1.724   2.368 -0.2822  2.1806 -2.9028
  816SOL    HW2 2448   2.178   1.785   2.517 -0.5182 -1.4271 -3.3590
  817SOL     OW 2449   1.128   2.872   0.649 -0.7285  0.7233 -0.5450
  817SOL    HW1 2450   1.164   2.795   0.704  0.3161 -1.0972 -2.0351
  817SOL    HW2 2451   1.034   2.852   0.612 -0.6780  0.5402  2.1327
  818SOL     OW 2452   1.703   0.651   2.946 -0.9506  0.4151 -0.3365
  818SOL    HW1 2453   1.663   0.625   2.858  1.9656  2.4021  3.2970
  818SOL    HW2 2454   1.806   0.651   2.942  0.9521  2.0298  0.5111
  819SOL     OW 2455   2.283   0.250   3.063  0.3282 -0.4011  0.0462
  819SOL    HW1 2456   2.314   0.243   0.034 -2.8125 -0.8401  2.4491
  819SOL    HW2 2457   2.271   0.154   3.026  3.2256 -0.7792 -0.7642
  820SOL     OW 2458   1.970   0.645   2.910 -0.3256 -0.1658 -0.0505
  820SOL    HW1 2459   2.039   0.585   2.959  0.7739  0.7665  1.6327
  820SOL    HW2 2460   1.977   0.615   2.812 -1.7423  0.9790  0.8490
  821SOL     OW 2461   2.892   0.374   0.813 -0.1765  0.2144 -0.1868
  821SOL    HW1 2462   2.977   0.355   0.867 -1.9102  0.9449 -0.4082
  821SOL    HW2 2463   2.915   0.393   0.715  1.2508  1.1666  1.1366
  822SOL     OW 2464   0.979   2.376   2.226  0.0183 -0.0964  0.0958
  822SOL    HW1 2465   1.052   2.352   2.292 -2.2716 -0.3257  1.6917
  822SOL    HW2 2466   0.910   2.440   2.267  0.1801 -0.8442  0.6293
  823SOL     OW 2467   0.327   1.544   1.790  0.6239 -0.0691 -0.0555
  823SOL    HW1 2468   0.296   1.564   1.884 -2.2955  0.6415  2.8686
  823SOL    HW2 2469   0.309   1.445   1.773  1.7399  1.8751 -0.7838
  824SOL     OW 2470   1.456   2.615   2.377  0.1432  0.5746 -0.7510
  824SOL    HW1 2471   1.494   2.680   2.449  1.4891 -1.3702  0.8349
  824SOL    HW2 2472   1.410   2.535   2.423 -1.3675 -2.7504  1.3137
  825SOL     OW 2473   1.720   0.751   0.662 -0.5833  0.4739 -0.2679
  825SOL    HW1 2474   1.815   0.763   0.698 -3.3428  0.6141  1.3883
  825SOL    HW2 2475   1.705   0.787   0.566  0.8286 -0.0470 -1.5288
  826SOL     OW 2476   2.217   0.659   0.148 -0.6288  0.5434 -1.1301
  826SOL    HW1 2477   2.160   0.661   0.233 -2.0672  0.1168 -3.2544
  826SOL    HW2 2478   2.182   0.600   0.074  1.3619 -0.0813  0.5504
  827SOL     OW 2479   0.479   1.617   2.195 -0.1991 -0.0440 -0.4586
  827SOL    HW1 2480   0.509   1.686   2.265  0.1758 -0.2365 -1.5189
  827SOL    HW2 2481   0.546   1.542   2.190  1.6896  1.1592 -2.0903
  828SOL     OW 2482   2.292   1.386   1.589 -0.5471 -0.1433  0.5484
  828SOL    HW1 2483   2.289   1.475   1.635 -0.5024  2.0234 -2.7563
  828SOL    HW2 2484   2.363   1.329   1.633 -0.3815 -0.0377 -0.5557
  829SOL     OW 2485   0.089   1.739   0.628 -0.0606  0.5475  0.1206
  829SOL    HW1 2486   0.157   1.743   0.706  2.8189 -1.6087  2.9862
  829SOL    HW2 2487   0.103   1.660   0.562  1.9613  0.0564 -0.5548
  830SOL     OW 2488   1.376   0.907   0.967 -0.5007  0.1068 -0.2293
  830SOL    HW1 2489   1.319   0.993   0.953 -0.6669  0.7423  0.8756
  830SOL    HW2 2490   1.429   0.908   1.051 -0.0669  1.4764 -5.1966
  831SOL     OW 2491   3.059   1.803   0.054 -0.1461  0.0072  0.2054
  831SOL    HW1 2492   3.050   1.859   0.139  0.6958 -0.1592  1.1664
  831SOL    HW2 2493   3.014   1.712   0.059 -0.0161  0.3108  0.0307
  832SOL     OW 2494   0.791   0.306   0.197  0.1833  0.1938  0.1327
  832SOL    HW1 2495   0.826   0.352   0.279 -0.9808 -1.2597 -3.9585
  832SOL    HW2 2496   0.773   0.208   0.217 -0.5811 -1.5253  1.1285
  833SOL     OW 2497   0.796   0.575   2.146 -0.2938 -0.3398 -0.1231
  833SOL    HW1 2498   0.836   0.626   2.068 -1.2587  1.3929 -2.3143
  833SOL    HW2 2499   0.725   0.509   2.113 -2.3820 -0.8834 -1.4793
  834SOL     OW 2500   0.262   0.486   0.543  0.1304 -0.5656 -0.0507
  834SOL    HW1 2501   0.249   0.466   0.642 -1.6102  0.8224 -1.2032
  834SOL    HW2 2502   0.316   0.410   0.498  2.1674 -1.8794  1.6070
  835SOL     OW 2503   2.806   2.983   1.213  0.1457  0.0241 -0.1705
  835SOL    HW1 2504   2.753   3.034   1.285 -2.8590 -1.6090  0.0834
  835SOL    HW2 2505   2.764   3.000   1.121 -1.4964  2.4977 -0.9640
  836SOL     OW 2506   0.450   2.101   0.064  0.3332 -0.4271 -0.5005
  836SOL    HW1 2507   0.391   2.149   3.122 -0.9088 -0.7912  0.9285
  836SOL    HW2 2508   0.423   2.118   0.163 -0.3261 -1.0640 -0.1634
  837SOL     OW 2509   1.618   1.399   2.429  0.5535 -0.0037 -0.0418
  837SOL    HW1 2510   1.663   1.414   2.519 -1.0045 -1.6839  2.2479
  837SOL    HW2 2511   1.626   1.488   2.376  0.2891  0.1850 -1.8768
  838SOL     OW 2512   0.284   0.868   1.568  0.4078 -0.3740  0.2854
  838SOL    HW1 2513   0.268   0.864   1.468  1.2487 -0.7254  2.4246
  838SOL    HW2 2514   0.261   0.960   1.606  1.9122  0.2090 -1.0984
  839SOL     OW 2515   0.755   1.434   0.875  0.1410 -0.7593 -0.2723
  839SOL    HW1 2516   0.743   1.357   0.936  1.0398  2.9568  0.0755
  839SOL    HW2 2517   0.801   1.413   0.789  0.1554 -1.2382  1.7264
  840SOL     OW 2518   1.718   0.071   1.967  0.2513  0.3087  0.6608
  840SOL    HW1 2519   1.682   0.092   1.875  2.8540  2.8877 -0.6648
  840SOL    HW2 2520   1.753   0.160   2.004 -1.1924  0.6026 -2.8318
  841SOL     OW 2521   0.658   2.320   0.423 -0.3283 -0.2383 -0.5631
  841SOL    HW1 2522   0.754   2.332   0.386 -0.1621  0.5278  0.7317
  841SOL    HW2 2523   0.578   2.317   0.354 -0.6155  0.2967  0.3634
  842SOL     OW 2524   0.636   0.239   0.766  0.0668  0.1367 -0.4369
  842SOL    HW1 2525   0.573   0.279   0.700  0.5646 -2.9854  1.8827
  842SOL    HW2 2526   0.699   0.309   0.800 -1.4253 -1.6175 -1.7405
  843SOL     OW 2527   0.699   0.973   2.248 -0.1270 -0.3926  0.5411
  843SOL    HW1 2528   0.603   0.966   2.277  0.2830 -0.4629 -0.1696
  843SOL    HW2 2529   0.764   0.987   2.324  1.5176 -0.6431 -2.5994
  844SOL     OW 2530   1.397   2.258   3.072  0.1039  0.2166 -0.0939
  844SOL    HW1 2531   1.372   2.230   2.978 -1.1576  1.1726  0.7688
  844SOL    HW2 2532   1.390   2.360   3.076 -0.7039  0.6624  1.2156
  845SOL     OW 2533   2.397   2.662   2.406  0.5611 -0.1704 -0.0170
  845SOL    HW1 2534   2.474   2.703   2.347 -0.5476  0.1234 -1.0293
  845SOL    HW2 2535   2.434   2.575   2.452  0.8296 -3.7596 -0.8930
  846SOL     OW 2536   1.824   1.839   2.974 -0.7702 -0.1493  0.5882
  846SOL    HW1 2537   1.724   1.842   2.938 -0.3353  0.3723 -0.6620
  846SOL    HW2 2538   1.848   1.895   3.055  0.8445  1.4722  1.1033
  847SOL     OW 2539   2.232   0.006   2.986 -0.5523 -0.1978  0.2407
  847SOL    HW1 2540   2.189   3.048   3.026  1.7400 -1.0436 -0.8830
  847SOL    HW2 2541   2.168   0.040   2.914 -2.7155  0.1752  0.1487
  848SOL     OW 2542   0.309   0.794   0.482 -0.3868 -0.0020  0.2286
  848SOL    HW1 2543   0.230   0.849   0.444 -2.3774 -0.3993  3.8052
  848SOL    HW2 2544   0.281   0.695   0.482  1.7076 -1.4500 -1.6721
  849SOL     OW 2545   1.364   2.836   1.618 -0.2374  0.1237  0.6754
  849SOL    HW1 2546   1.385   2.935   1.620 -0.3603 -3.6984  1.7861
  849SOL    HW2 2547   1.354   2.788   1.710 -1.5794 -2.5902  0.2767
  850SOL     OW 2548   0.430   1.638   0.107 -0.0438  0.2278  0.4928
  850SOL    HW1 2549   0.422   1.725   0.053 -0.3854 -4.2537  1.8697
  850SOL    HW2 2550   0.383   1.565   0.057  0.4893  1.0947 -0.0153
  851SOL     OW 2551   0.100   1.054   0.741 -0.1227  0.2099  0.2794
  851SOL    HW1 2552   0.045   1.124   0.691 -1.3743  0.7826  0.6338
  851SOL    HW2 2553   0.068   0.958   0.732 -0.7409 -0.6339  0.5096
  852SOL     OW 2554   1.616   2.440   1.375 -0.1549  0.2247  0.1364
  852SOL    HW1 2555   1.638   2.401   1.468  1.6023  2.7002  1.1040
  852SOL    HW2 2556   1.545   2.513   1.382  1.7929 -2.8556 -1.4635
  853SOL     OW 2557   0.095   1.403   0.219  0.1644 -0.4524 -0.1283
  853SOL    HW1 2558   0.040   1.468   0.166 -1.0908  0.8283 -0.3162
  853SOL    HW2 2559   0.098   1.434   0.315 -2.2546 -2.3770 -0.0712
  854SOL     OW 2560   1.588   1.160   2.119 -0.1180  0.3123 -0.4246
  854SOL    HW1 2561   1.551   1.227   2.181 -0.5949 -1.2172 -2.7583
  854SOL    HW2 2562   1.523   1.092   2.088 -0.6931  1.9719  0.1644
  855SOL     OW 2563   0.554   2.412   2.793 -0.2028 -0.0295  0.4184
  855SOL    HW1 2564   0.469   2.461   2.757  0.6699  0.8933 -0.7969
  855SOL    HW2 2565   0.571   2.424   2.894 -2.1265 -2.0471 -0.2790
  856SOL     OW 2566   0.150   0.679   1.739  0.2730  0.2455  0.2220
  856SOL    HW1 2567   0.230   0.622   1.763  1.8657 -1.3135  0.6217
  856SOL    HW2 2568   0.184   0.755   1.681 -1.2990 -0.8346  1.4254
  857SOL     OW 2569   0.986   1.158   2.107  0.5773 -0.3538 -0.0773
  857SOL    HW1 2570   0.986   1.107   2.190  1.5430  0.6788 -3.1668
  857SOL    HW2 2571   0.975   1.255   2.139  0.9064  0.4310  1.1317
  858SOL     OW 2572   0.347   1.505   2.418  0.4829  0.1954  0.0864
  858SOL    HW1 2573   0.339   1.574   2.494  0.4038  1.4728 -0.5194
  858SOL    HW2 2574   0.363   1.559   2.332 -1.6495 -1.3493 -1.7286
  859SOL     OW 2575   2.703   3.059   0.943  0.0842  0.0455 -0.3258
  859SOL    HW1 2576   2.639   0.007   0.980  1.0199 -1.2555  0.0991
  859SOL    HW2 2577   2.782   3.102   0.899 -0.5744 -1.0728  0.8573
  860SOL     OW 2578   2.165   2.885   3.074  1.1837  0.0391  0.0765
  860SOL    HW1 2579   2.187   2.897   0.046  0.3377 -1.6601 -1.2922
  860SOL    HW2 2580   2.210   2.803   3.029 -0.1242  0.2502 -0.4331
  861SOL     OW 2581   0.506   0.489   0.318 -0.2123  0.3762  0.6414
  861SOL    HW1 2582   0.516   0.547   0.234  1.3953  1.2530  1.5983
  861SOL    HW2 2583   0.471   0.395   0.291  2.3190 -1.6051 -0.3687
  862SOL     OW 2584   1.317   0.358   1.918  0.0298 -0.5765  0.4380
  862SOL    HW1 2585   1.333   0.275   1.985  0.0582 -1.4025  3.8287
  862SOL    HW2 2586   1.373   0.441   1.941  0.5232 -0.8198  0.7723
  863SOL     OW 2587   2.531   2.231   1.280  0.2064 -0.3225 -0.0327
  863SOL    HW1 2588   2.451   2.228   1.217  3.1008 -0.0504  0.9362
  863SOL    HW2 2589   2.617   2.238   1.228  2.5724  0.1645 -0.3945
  864SOL     OW 2590   2.409   3.044   2.275 -0.0068 -0.0234 -0.4752
  864SOL    HW1 2591   2.330   3.042   2.337 -1.4779 -0.0149  2.0067
  864SOL    HW2 2592   2.495   3.033   2.329  1.7296 -0.4885  0.0326
  865SOL     OW 2593   1.137   0.494   1.778 -0.1167  0.0396 -0.0470
  865SOL    HW1 2594   1.197   0.425   1.815  0.0992  0.4811  0.4589
  865SOL    HW2 2595   1.128   0.569   1.847  1.1667 -1.4090  0.9109
  866SOL     OW 2596   2.138   2.918   1.242 -0.5636  0.9582  0.5374
  866SOL    HW1 2597   2.197   2.975   1.182  1.4625 -0.0314 -0.4661
  866SOL    HW2 2598   2.045   2.954   1.244  1.9364 -0.2669  1.4927
  867SOL     OW 2599   2.682   2.515   0.717  0.1760  0.2171  0.0215
  867SOL    HW1 2600   2.683   2.534   0.818  1.0720 -1.2777  1.2171
  867SOL    HW2 2601   2.716   2.600   0.673 -2.4026  1.6717  0.1999
  868SOL     OW 2602   0.740   2.024   1.366 -0.2997  0.0336 -0.3694
  868SOL    HW1 2603   0.807   2.099   1.393  2.0372 -0.8825 -0.5539
  868SOL    HW2 2604   0.669   2.047   1.295 -2.7502  0.1909 -2.4385
  869SOL     OW 2605   2.400   2.416   3.051  0.4610  0.0293 -0.0537
  869SOL    HW1 2606   2.502   2.399   3.037  0.4276  0.4200 -1.6666
  869SOL    HW2 2607   2.389   2.460   0.017 -1.3209  0.7960  0.0554
  870SOL     OW 2608   2.100   1.738   0.968 -0.3444  0.0133  0.4082
  870SOL    HW1 2609   2.134   1.656   0.917 -1.1234 -0.3811 -0.4909
  870SOL    HW2 2610   2.085   1.714   1.066  1.0853 -3.0803 -1.8525
  871SOL     OW 2611   0.214   1.673   1.585  0.3074  0.3094  0.2946
  871SOL    HW1 2612   0.140   1.738   1.606 -1.2374 -0.1511  2.3561
  871SOL    HW2 2613   0.242   1.626   1.674  1.6122  1.1218  0.8285
  872SOL     OW 2614   0.458   1.292   2.204 -0.0512  0.4637  0.3730
  872SOL    HW1 2615   0.541   1.350   2.183  3.7097  1.7134 -3.1066
  872SOL    HW2 2616   0.483   1.216   2.265  0.5947 -2.0244 -1.3585
  873SOL     OW 2617   1.142   2.258   1.842  0.0120  0.0577 -0.0049
  873SOL    HW1 2618   1.146   2.158   1.843  1.8822  1.0615 -4.5118
  873SOL    HW2 2619   1.071   2.290   1.785  3.6401 -1.1415  1.3482
  874SOL     OW 2620   1.367   1.000   2.069 -0.0433  0.3070  0.5846
  874SOL    HW1 2621   1.310   1.050   2.000  2.1327  0.0930 -0.4509
  874SOL    HW2 2622   1.323   0.996   2.159 -1.6166  0.2686 -0.5349
  875SOL     OW 2623   2.617   2.805   0.901 -0.3572  0.5155  0.9691
  875SOL    HW1 2624   2.656   2.737   0.964  1.5623 -0.9276 -1.8181
  875SOL    HW2 2625   2.647   2.899   0.927  1.5297 -1.1735  0.0242
  876SOL     OW 2626   0.964   1.178   0.497 -0.5570  0.1773  0.3582
  876SOL    HW1 2627   1.024   1.245   0.447  1.4918  2.7904  0.8378
  876SOL    HW2 2628   0.929   1.113   0.430  0.9217  1.3041 -1.1792
  877SOL     OW 2629   2.838   0.163   1.105 -0.1927 -0.0347 -0.1008
  877SOL    HW1 2630   2.876   0.122   1.019  0.5662 -0.6224  2.0901
  877SOL    HW2 2631   2.912   0.147   1.176  2.4255 -0.2305  0.4932
  878SOL     OW 2632   2.677   1.776   0.348 -0.5277 -0.0606  0.1874
  878SOL    HW1 2633   2.688   1.789   0.445 -0.1287  0.2090 -0.8073
  878SOL    HW2 2634   2.586   1.756   0.320  1.8204  2.7625 -0.2026
  879SOL     OW 2635   2.410   1.856   1.330  0.8293  1.1769  0.9152
  879SOL    HW1 2636   2.335   1.782   1.335 -0.6262 -0.3239 -0.3537
  879SOL    HW2 2637   2.385   1.922   1.259  0.7229 -0.1610  1.3408
  880SOL     OW 2638   0.233   2.730   0.757 -0.5512 -0.3227 -0.0494
  880SOL    HW1 2639   0.159   2.737   0.830 -1.6041  0.7563 -1.1947
  880SOL    HW2 2640   0.293   2.811   0.744  0.1486 -2.3556 -0.1776
  881SOL     OW 2641   1.268   1.183   0.955  0.0375 -0.4108 -0.1665
  881SOL    HW1 2642   1.332   1.254   0.918 -0.4331  1.0178  0.3770
  881SOL    HW2 2643   1.206   1.156   0.877 -0.6143  1.7867  2.5151
  882SOL     OW 2644   2.449   1.009   2.850 -0.4672 -0.4200  0.0415
  882SOL    HW1 2645   2.489   1.104   2.837  0.7389  0.6509 -1.1537
  882SOL    HW2 2646   2.397   0.982   2.768 -0.6683 -2.2105  1.3698
  883SOL     OW 2647   1.053   3.031   1.672 -0.0921 -0.3755  0.1220
  883SOL    HW1 2648   1.073   3.003   1.763 -0.7289  1.1211 -1.8020
  883SOL    HW2 2649   1.088   2.963   1.606 -0.3756 -0.5641  0.6119
  884SOL     OW 2650   2.887   0.103   0.821  0.2349 -0.0507 -0.2756
  884SOL    HW1 2651   2.894   0.071   0.722 -0.3944  2.8911 -2.2151
  884SOL    HW2 2652   2.875   0.203   0.819  2.0044 -0.2191 -0.9212
  885SOL     OW 2653   1.226   0.961   1.362 -0.4340 -0.4425 -0.3777
  885SOL    HW1 2654   1.224   0.994   1.457  0.2963 -3.2433 -3.2188
  885SOL    HW2 2655   1.268   1.039   1.303  1.4682  0.4890  0.6356
  886SOL     OW 2656   1.812   1.000   2.652 -0.8163  0.1161  0.3489
  886SOL    HW1 2657   1.828   0.969   2.747  1.6508 -1.1297  2.1379
  886SOL    HW2 2658   1.903   1.009   2.593  3.9862  2.4661 -1.0207
  887SOL     OW 2659   1.716   0.693   1.100 -0.4407  0.2213 -0.0792
  887SOL    HW1 2660   1.680   0.623   1.039 -0.6437 -0.9461 -0.4343
  887SOL    HW2 2661   1.648   0.771   1.100 -0.7500  0.0414 -3.8622
  888SOL     OW 2662   2.145   1.660   1.894  0.3792  0.5922 -0.6232
  888SOL    HW1 2663   2.101   1.584   1.944  0.6124  2.9605 -1.1881
  888SOL    HW2 2664   2.250   1.669   1.901  2.4922  0.4857 -0.4130
  889SOL     OW 2665   2.283   2.147   0.683 -0.3399 -0.2260  0.0662
  889SOL    HW1 2666   2.272   2.249   0.671  0.0071  0.7791 -1.2360
  889SOL    HW2 2667   2.200   2.106   0.726 -1.5924  0.6651  0.5050
  890SOL     OW 2668   1.028   1.984   0.626  0.8323  0.3250  0.5235
  890SOL    HW1 2669   1.129   1.981   0.629  2.1761  0.8597  0.6371
  890SOL    HW2 2670   0.989   1.945   0.711  2.7802  0.0594 -1.5648
  891SOL     OW 2671   2.505   0.647   2.296  0.5081 -0.1047 -0.7091
  891SOL    HW1 2672   2.601   0.608   2.280 -1.2118 -2.2280  0.0330
  891SOL    HW2 2673   2.458   0.651   2.207  1.1149 -0.4621  1.8743
  892SOL     OW 2674   1.179   0.279   2.251 -0.5927 -0.0391 -0.0835
  892SOL    HW1 2675   1.277   0.254   2.242 -1.1376  0.0862 -1.1258
  892SOL    HW2 2676   1.171   0.345   2.322  1.8232  0.1483 -1.7325
  893SOL     OW 2677   1.544   0.469   1.398 -0.0674 -0.0190 -0.1900
  893SOL    HW1 2678   1.602   0.427   1.474  0.1183 -4.4290  0.0688
  893SOL    HW2 2679   1.447   0.476   1.428  1.7702  3.9008 -1.1206
  894SOL     OW 2680   2.570   0.358   0.574  0.5610  0.8781 -0.6745
  894SOL    HW1 2681   2.529   0.295   0.647 -0.1200 -3.3536  0.8134
  894SOL    HW2 2682   2.642   0.308   0.530  0.6905  0.9897 -0.1977
  895SOL     OW 2683   2.018   2.486   2.839 -0.0644  0.5842  0.1496
  895SOL    HW1 2684   1.991   2.567   2.894 -0.8421 -0.0254  1.5012
  895SOL    HW2 2685   2.025   2.403   2.899 -1.2531  0.3581  0.4900
  896SOL     OW 2686   1.745   2.870   1.658  0.8220 -0.4036  0.2043
  896SOL    HW1 2687   1.780   2.965   1.664 -2.1953 -3.9011 -2.1388
  896SOL    HW2 2688   1.701   2.849   1.567  2.0257 -0.6418 -1.8034
  897SOL     OW 2689   0.337   2.050   1.930  0.2044 -0.6253  0.0806
  897SOL    HW1 2690   0.424   2.034   1.878  0.9436  0.7389 -0.1983
  897SOL    HW2 2691   0.296   1.965   1.968  2.3507  2.1053 -2.7010
  898SOL     OW 2692   2.390   1.877   2.111  0.3007 -0.1448  0.3566
  898SOL    HW1 2693   2.477   1.856   2.060  1.1696 -1.2301  1.0845
  898SOL    HW2 2694   2.354   1.788   2.152  1.2564 -2.4085  1.3838
  899SOL     OW 2695   1.955   2.200   0.553 -0.4122 -0.3465 -0.6592
  899SOL    HW1 2696   1.991   2.275   0.615  0.4079  0.7953  1.9472
  899SOL    HW2 2697   2.032   2.146   0.509  0.0293  1.2989 -1.1033
  900SOL     OW 2698   0.957   0.377   3.097  0.0341 -0.4566  0.1129
  900SOL    HW1 2699   0.947   0.461   3.040  4.1429  0.0981  1.1507
  900SOL    HW2 2700   0.885   0.368   0.043 -1.0158 -1.2511  0.4264
  901SOL     OW 2701   1.122   2.008   2.287 -0.0477 -0.7690 -0.7157
  901SOL    HW1 2702   1.018   2.016   2.279  1.9388  0.1446 -1.7262
  901SOL    HW2 2703   1.162   2.088   2.338  1.4792  1.1372  0.4670
  902SOL     OW 2704   2.789   0.447   3.022 -0.3257 -0.6443  0.4736
  902SOL    HW1 2705   2.855   0.480   2.951 -0.9812 -0.0130 -0.7682
  902SOL    HW2 2706   2.725   0.377   2.978  1.6707 -0.9290  2.1415
  903SOL     OW 2707   2.057   0.696   2.380  0.0645 -0.6968 -0.0844
  903SOL    HW1 2708   2.107   0.786   2.400 -1.5010 -2.3323 -1.1582
  903SOL    HW2 2709   2.122   0.629   2.335 -2.9374  1.3081 -1.6321
  904SOL     OW 2710   1.465   0.903   2.483  0.0944 -0.2108 -0.1785
  904SOL    HW1 2711   1.504   0.995   2.478 -1.2729  1.0906  0.1579
  904SOL    HW2 2712   1.521   0.831   2.434  2.7270 -1.1015 -0.4176
  905SOL     OW 2713   2.061   2.845   1.858 -0.2974  0.0215 -0.1308
  905SOL    HW1 2714   2.105   2.903   1.786  0.3431  0.6110 -0.4342
  905SOL    HW2 2715   1.986   2.783   1.818 -0.3041  1.9995 -3.4165
  906SOL     OW 2716   2.148   2.078   0.423  0.0183 -0.2332  0.2678
  906SOL    HW1 2717   2.224   2.087   0.353  3.4750  1.2024 -0.4347
  906SOL    HW2 2718   2.144   1.983   0.461  1.3676 -2.9190 -1.2555
  907SOL     OW 2719   1.460   2.828   0.781  0.7173  0.4372 -0.1413
  907SOL    HW1 2720   1.541   2.817   0.719 -1.6038  3.5270  5.8560
  907SOL    HW2 2721   1.387   2.760   0.766  3.2191  2.6135  0.9297
  908SOL     OW 2722   1.729   2.168   2.572  0.2744  0.0671 -0.6563
  908SOL    HW1 2723   1.790   2.240   2.609  1.5495 -0.8325 -2.3403
  908SOL    HW2 2724   1.699   2.198   2.478 -0.4143  2.5223 -2.7167
  909SOL     OW 2725   2.022   0.510   1.911  0.1658  0.6837 -0.5142
  909SOL    HW1 2726   2.033   0.597   1.864 -0.7781 -0.5662  0.8147
  909SOL    HW2 2727   1.977   0.538   1.995  1.5029 -0.0872 -0.3406
  910SOL     OW 2728   1.447   0.220   2.871  0.3076  0.0059 -0.2720
  910SOL    HW1 2729   1.414   0.295   2.935 -2.8492  1.1113 -0.4532
  910SOL    HW2 2730   1.389   0.136   2.888 -1.6669  1.1102 -4.4652
  911SOL     OW 2731   3.059   1.058   0.026 -0.2580 -0.1251  0.6490
  911SOL    HW1 2732   3.090   1.086   0.118 -0.1131  0.4031 -0.6827
  911SOL    HW2 2733   3.013   0.969   0.028  2.5093  0.4162  0.9550
  912SOL     OW 2734   0.112   2.604   0.551  0.0041 -0.0596 -0.0653
  912SOL    HW1 2735   0.161   2.544   0.482  0.8350 -0.0894  0.6452
  912SOL    HW2 2736   0.177   2.634   0.624 -0.2136  3.4898 -0.4658
  913SOL     OW 2737   2.866   2.330   2.503 -0.1869 -0.3092 -0.5809
  913SOL    HW1 2738   2.891   2.373   2.413 -2.4529 -1.7452 -1.4816
  913SOL    HW2 2739   2.936   2.276   2.547 -1.6603  0.2313 -1.0665
  914SOL     OW 2740   1.581   1.738   1.020 -0.4206  0.3817 -0.4912
  914SOL    HW1 2741   1.593   1.696   0.930 -0.4086  0.2132  1.8983
  914SOL    HW2 2742   1.490   1.775   1.036  2.2339  0.7864  0.2506
  915SOL     OW 2743   0.297   2.916   2.189 -0.3920  0.4072 -0.4375
  915SOL    HW1 2744   0.304   2.827   2.143  1.4764 -3.7603  0.0419
  915SOL    HW2 2745   0.209   2.968   2.183  1.0878  2.3148 -0.0281
  916SOL     OW 2746   0.669   0.276   1.697 -0.2780  0.1828 -0.0989
  916SOL    HW1 2747   0.758   0.234   1.725 -1.0862 -0.3736 -1.5511
  916SOL    HW2 2748   0.672   0.377   1.688  0.7991  0.7992 -1.7292
  917SOL     OW 2749   2.750   0.647   0.195  0.2410  0.4579 -0.2017
  917SOL    HW1 2750   2.764   0.554   0.153  0.9748 -0.7612  0.7101
  917SOL    HW2 2751   2.658   0.681   0.178 -0.7794 -3.4033  0.3251
  918SOL     OW 2752   1.730   2.260   2.999  0.4868 -0.1134  0.7149
  918SOL    HW1 2753   1.659   2.307   2.943  0.5381 -2.6725 -1.6860
  918SOL    HW2 2754   1.687   2.192   3.064 -0.1916 -1.2238 -0.6575
  919SOL     OW 2755   1.712   2.801   1.154 -0.6998  0.4936  0.1871
  919SOL    HW1 2756   1.781   2.879   1.143 -0.4178  2.2867 -0.4353
  919SOL    HW2 2757   1.728   2.730   1.082 -2.5991  0.1331  0.1063
  920SOL     OW 2758   1.360   0.255   2.500  0.6368  0.3102  0.3095
  920SOL    HW1 2759   1.395   0.158   2.501  0.1751  0.3042 -0.0718
  920SOL    HW2 2760   1.403   0.316   2.566  1.0099 -0.4421  2.3879
  921SOL     OW 2761   2.883   0.904   2.730  0.3046  0.1836  0.0761
  921SOL    HW1 2762   2.920   0.996   2.703 -1.8240 -0.4952 -0.7401
  921SOL    HW2 2763   2.882   0.896   2.835 -3.1961  2.0845  1.3470
  922SOL     OW 2764   0.250   2.243   1.075  0.2106 -0.3275 -0.5799
  922SOL    HW1 2765   0.261   2.161   1.131 -0.4385  1.7596 -2.1530
  922SOL    HW2 2766   0.288   2.328   1.118 -0.2283 -2.2618 -0.4953
  923SOL     OW 2767   0.566   1.528   1.682 -0.0120  0.2326 -0.0232
  923SOL    HW1 2768   0.600   1.477   1.602  0.9724  1.2229  1.3330
  923SOL    HW2 2769   0.469   1.517   1.703  2.5853 -1.3090  0.2030
  924SOL     OW 2770   1.816   2.694   2.638 -0.0838 -0.0211  0.1561
  924SOL    HW1 2771   1.808   2.594   2.653  0.9110  0.4021  0.2718
  924SOL    HW2 2772   1.844   2.744   2.725  0.4261 -1.4310 -0.6151
  925SOL     OW 2773   2.674   1.605   0.959 -0.2977 -0.0015 -0.2469
  925SOL    HW1 2774   2.687   1.509   0.928 -0.2832  0.3448 -0.0899
  925SOL    HW2 2775   2.741   1.635   1.036  2.6208 -1.6822  2.4380
  926SOL     OW 2776   2.113   0.836   1.183  0.6101 -0.4274  0.5545
  926SOL    HW1 2777   2.196   0.817   1.232 -0.4768 -2.0118  0.6880
  926SOL    HW2 2778   2.051   0.896   1.238 -2.8231 -1.1461 -0.1702
  927SOL     OW 2779   1.913   3.117   1.625  0.3038 -0.2657  0.3227
  927SOL    HW1 2780   1.936   0.060   1.553 -0.4059  0.4976 -3.0835
  927SOL    HW2 2781   1.992   3.055   1.653  2.8265 -2.4896  1.1884
  928SOL     OW 2782   0.091   1.056   2.207 -0.3347  0.1192  0.6409
  928SOL    HW1 2783   0.144   1.128   2.161 -0.4232 -0.3085  0.9024
  928SOL    HW2 2784   3.115   1.076   2.213  1.2306  0.9370 -0.0384
  929SOL     OW 2785   2.310   0.874   1.608 -0.4733  0.1656  0.1123
  929SOL    HW1 2786   2.220   0.922   1.621 -2.0274  0.8840 -1.5561
  929SOL    HW2 2787   2.373   0.933   1.555 -0.2308 -0.1114 -0.4545
  930SOL     OW 2788   2.601   2.691   2.233 -0.3421 -0.0837 -0.4693
  930SOL    HW1 2789   2.537   2.750   2.185 -1.0442 -1.0278  2.2844
  930SOL    HW2 2790   2.562   2.596   2.233 -1.5466 -0.6135  1.5113
  931SOL     OW 2791   1.783   1.294   1.515  0.6610  0.3482  0.1300
  931SOL    HW1 2792   1.684   1.313   1.538 -4.3755  1.6261 -1.0950
  931SOL    HW2 2793   1.849   1.338   1.582  0.7123  1.6459  3.1459
  932SOL     OW 2794   0.440   1.077   1.874  0.2225 -0.1118 -0.0078
  932SOL    HW1 2795   0.435   0.988   1.919 -0.1686  1.6809 -0.3553
  932SOL    HW2 2796   0.516   1.079   1.808  0.8310  0.3562 -1.2413
  933SOL     OW 2797   2.582   2.105   1.719  0.0925 -0.2525  0.4944
  933SOL    HW1 2798   2.546   2.069   1.629 -1.2545  1.9966 -3.3008
  933SOL    HW2 2799   2.570   2.031   1.793  1.3790 -0.6382  0.1382
  934SOL     OW 2800   0.542   1.952   1.767 -0.1781 -0.0802 -0.2003
  934SOL    HW1 2801   0.521   1.891   1.846  1.5059 -0.4028  1.0659
  934SOL    HW2 2802   0.567   1.904   1.677  0.4277  0.1448  0.1457
  935SOL     OW 2803   3.001   1.344   1.659 -0.0838 -0.2810 -0.5031
  935SOL    HW1 2804   2.977   1.434   1.702  1.0996 -1.6274 -2.2242
  935SOL    HW2 2805   3.047   1.286   1.730  2.0342  1.4951 -0.4110
  936SOL     OW 2806   2.931   0.978   1.421  0.4588 -0.0090 -0.2544
  936SOL    HW1 2807   2.912   0.927   1.334 -2.5390  2.0748  0.1265
  936SOL    HW2 2808   2.930   0.914   1.505  0.7214 -0.4165 -0.7283
  937SOL     OW 2809   1.924   0.453   1.442  0.0287  0.1660 -0.2217
  937SOL    HW1 2810   1.951   0.527   1.506 -0.5379  0.3319 -0.9726
  937SOL    HW2 2811   1.911   0.498   1.352 -0.8308 -0.8239  0.6509
  938SOL     OW 2812   0.595   2.781   0.156  0.1631  0.0582  0.2777
  938SOL    HW1 2813   0.550   2.731   0.234  1.1587  2.5508 -1.4631
  938SOL    HW2 2814   0.528   2.825   0.089  0.3309  0.5643 -0.6521
  939SOL     OW 2815   3.036   2.155   2.644  0.2826  0.5111  0.2238
  939SOL    HW1 2816   3.066   2.056   2.657  1.7587 -0.4896 -1.8551
  939SOL    HW2 2817   3.025   2.195   2.736  1.3596 -0.0284  0.2788
  940SOL     OW 2818   1.495   2.109   0.376  0.0872  0.1164  0.0125
  940SOL    HW1 2819   1.591   2.148   0.390 -2.0940 -0.2773 -1.4263
  940SOL    HW2 2820   1.495   2.015   0.336 -0.6045 -0.3724  0.5844
  941SOL     OW 2821   2.454   2.561   0.151 -0.0704 -0.0327  0.2655
  941SOL    HW1 2822   2.431   2.621   0.228  0.3546  0.3719  0.7594
  941SOL    HW2 2823   2.536   2.506   0.169  0.2159  0.5978 -1.1391
  942SOL     OW 2824   1.762   2.083   0.963 -0.3222 -0.0475  0.0402
  942SOL    HW1 2825   1.784   1.986   0.939 -1.2807 -3.6144 -0.2577
  942SOL    HW2 2826   1.676   2.085   1.017 -0.0404  1.3148  1.9590
  943SOL     OW 2827   2.012   0.750   1.775  0.0010 -0.2098  0.4801
  943SOL    HW1 2828   2.010   0.746   1.673  0.9059  0.3653 -2.7984
  943SOL    HW2 2829   2.039   0.845   1.800  0.8434  0.4142  0.6767
  944SOL     OW 2830   1.246   0.856   2.308 -0.3821  0.2576 -0.4264
  944SOL    HW1 2831   1.320   0.830   2.368  0.2259 -0.8486 -1.1708
  944SOL    HW2 2832   1.178   0.776   2.300 -0.8732  1.6531 -0.3037
  945SOL     OW 2833   2.429   2.622   1.554  0.0316  0.0847  0.4311
  945SOL    HW1 2834   2.485   2.539   1.527 -0.6126 -4.4154 -0.6273
  945SOL    HW2 2835   2.338   2.589   1.578 -0.2324  2.2727  1.0493
  946SOL     OW 2836   0.415   1.069   0.241 -0.3987 -0.3011  0.0696
  946SOL    HW1 2837   0.324   1.028   0.259 -0.6190 -0.2618  0.1966
  946SOL    HW2 2838   0.489   1.028   0.296  0.2434 -0.0784 -3.1604
  947SOL     OW 2839   1.731   2.397   1.149  0.1080  0.3238 -0.2955
  947SOL    HW1 2840   1.680   2.423   1.235 -0.1219 -3.0036  1.9576
  947SOL    HW2 2841   1.784   2.308   1.148 -1.2354  0.6777 -1.2512
  948SOL     OW 2842   0.276   1.748   0.843  0.2528 -1.0736 -0.0861
  948SOL    HW1 2843   0.233   1.778   0.933 -1.9076 -0.3235  2.0084
  948SOL    HW2 2844   0.359   1.696   0.862  1.1023 -1.6160 -2.3437
  949SOL     OW 2845   1.079   1.380   1.078 -0.4642 -0.5673 -0.5922
  949SOL    HW1 2846   1.014   1.312   1.120  1.0970  0.7074 -0.8117
  949SOL    HW2 2847   1.145   1.326   1.016 -0.8429 -1.2296  0.9286
  950SOL     OW 2848   0.445   0.548   1.084  0.0955  0.3990  0.0231
  950SOL    HW1 2849   0.513   0.623   1.092 -1.4153  1.3910  0.9087
  950SOL    HW2 2850   0.354   0.588   1.067  1.6320 -1.8544  1.2144
  951SOL     OW 2851   0.522   2.041   2.179  0.0712  0.4300 -0.4064
  951SOL    HW1 2852   0.491   2.112   2.113  1.4970 -2.5626  0.5152
  951SOL    HW2 2853   0.589   2.075   2.244  0.0170 -0.4035  0.0851
  952SOL     OW 2854   1.326   1.503   0.104  0.2646 -0.0630  0.3951
  952SOL    HW1 2855   1.387   1.583   0.102 -0.3635 -3.1058 -0.1296
  952SOL    HW2 2856   1.254   1.532   0.170  1.0999  0.1772 -2.0089
  953SOL     OW 2857   1.285   2.866   3.051 -0.2066 -0.7584  0.2922
  953SOL    HW1 2858   1.298   2.914   0.016 -2.3062 -0.2679  0.3526
  953SOL    HW2 2859   1.201   2.807   3.045 -0.5087  0.8590  0.6814
  954SOL     OW 2860   1.808   1.249   0.225 -0.3742 -0.5963  0.7215
  954SOL    HW1 2861   1.810   1.142   0.227  2.2632 -0.3149  0.7777
  954SOL    HW2 2862   1.724   1.277   0.177 -0.5088 -0.1086 -2.2041
  955SOL     OW 2863   0.058   3.007   0.006  0.1567 -0.0572 -0.3001
  955SOL    HW1 2864   0.159   3.021   0.032  3.4923 -0.9583 -2.1420
  955SOL    HW2 2865   0.052   2.982   3.033 -0.3129 -0.8486 -1.7462
  956SOL     OW 2866   1.214   0.676   1.327 -0.4334  0.8988  0.0016
  956SOL    HW1 2867   1.237   0.771   1.346  0.3479 -3.6469 -1.3076
  956SOL    HW2 2868   1.262   0.615   1.397  1.6175 -1.8674 -0.5809
  957SOL     OW 2869   1.108   1.480   1.343  0.0073  0.9074 -0.1005
  957SOL    HW1 2870   1.080   1.573   1.369  1.5019 -0.8929 -0.2013
  957SOL    HW2 2871   1.078   1.461   1.243  0.3429 -2.0780  0.7742
  958SOL     OW 2872   0.439   1.939   0.773 -0.2420 -0.2785 -0.0530
  958SOL    HW1 2873   0.367   1.862   0.786  1.1961  0.4641 -0.6233
  958SOL    HW2 2874   0.507   1.908   0.701  0.0651 -2.1544 -3.2633
  959SOL     OW 2875   1.546   1.386   1.194  0.3453 -0.5238 -0.2181
  959SOL    HW1 2876   1.618   1.458   1.217 -1.0047  1.9725 -2.0031
  959SOL    HW2 2877   1.487   1.376   1.276  2.0634  1.5323  3.2528
  960SOL     OW 2878   0.087   1.353   2.811 -0.2342 -0.1631 -0.0421
  960SOL    HW1 2879   0.114   1.451   2.804 -1.4593  0.7621 -1.0070
  960SOL    HW2 2880   0.115   1.299   2.732 -0.5775 -0.1053 -0.2725
  961SOL     OW 2881   0.937   1.298   1.470 -0.2385 -0.6883 -0.0227
  961SOL    HW1 2882   0.924   1.214   1.409  0.1787  0.8572 -1.7020
  961SOL    HW2 2883   1.010   1.360   1.438  1.8398  0.0667  1.1518
  962SOL     OW 2884   0.800   1.369   0.593 -0.1823 -0.1650  0.2253
  962SOL    HW1 2885   0.855   1.452   0.619 -1.5124  2.9440 -0.4207
  962SOL    HW2 2886   0.860   1.289   0.569  1.1249  1.2996 -0.3420
  963SOL     OW 2887   1.504   1.630   2.699  0.2084 -0.0692  0.0269
  963SOL    HW1 2888   1.469   1.672   2.612 -0.2820  2.0221  0.3432
  963SOL    HW2 2889   1.437   1.569   2.750 -1.7358 -0.1723  1.6653
  964SOL     OW 2890   0.747   2.658   2.941  0.7086  0.0523  0.2859
  964SOL    HW1 2891   0.763   2.577   2.877 -0.0080 -0.1538  0.5161
  964SOL    HW2 2892   0.746   2.629   3.037 -1.4373 -1.7017 -0.8869
  965SOL     OW 2893   0.510   2.415   0.187 -0.6635 -0.1265 -0.2292
  965SOL    HW1 2894   0.480   2.323   0.205  0.6826 -0.4691 -2.7530
  965SOL    HW2 2895   0.432   2.481   0.180  0.1951  1.8574  1.1366
  966SOL     OW 2896   3.090   1.606   2.786  0.3800  0.1763 -0.1223
  966SOL    HW1 2897   3.005   1.569   2.750  1.2785  2.7736 -0.6366
  966SOL    HW2 2898   3.111   1.568   2.876 -1.2972  1.3573  1.0524
  967SOL     OW 2899   2.328   3.088   2.696  0.3980  0.6283  0.2573
  967SOL    HW1 2900   2.336   3.048   2.603  1.4867 -2.3546  0.8165
  967SOL    HW2 2901   2.329   3.017   2.766 -0.0095 -0.5531  0.4507
  968SOL     OW 2902   2.094   0.111   0.458  0.1692  0.1189 -0.5801
  968SOL    HW1 2903   2.149   0.070   0.381  2.9582 -2.3136  0.2047
  968SOL    HW2 2904   2.156   0.157   0.524 -0.9473 -1.1176  1.5443
  969SOL     OW 2905   0.268   1.221   2.047  0.4701 -0.5486  0.1130
  969SOL    HW1 2906   0.323   1.176   1.974  2.3286 -0.2020 -1.6558
  969SOL    HW2 2907   0.332   1.255   2.120  0.4868  1.3006 -0.7041
  970SOL     OW 2908   1.785   1.281   0.909 -0.0034 -0.0476 -0.0722
  970SOL    HW1 2909   1.837   1.206   0.954 -0.2512 -2.0330 -1.5571
  970SOL    HW2 2910   1.702   1.242   0.870  0.9440  1.9319 -0.5764
  971SOL     OW 2911   2.306   3.049   1.061 -0.4624  0.2928 -0.3178
  971SOL    HW1 2912   2.365   2.969   1.087 -0.6318  0.5352  2.1134
  971SOL    HW2 2913   2.332   0.009   1.117 -0.6716 -2.0055  1.6862
  972SOL     OW 2914   0.437   2.953   1.530  0.0108  0.2569  0.5001
  972SOL    HW1 2915   0.418   2.928   1.432  1.4431 -2.0069 -1.3988
  972SOL    HW2 2916   0.483   3.042   1.531 -1.7705 -2.7811  1.0998
  973SOL     OW 2917   0.691   0.358   2.795  0.5924  0.5322  0.0220
  973SOL    HW1 2918   0.672   0.456   2.817 -0.5502 -1.2186 -0.4330
  973SOL    HW2 2919   0.604   0.303   2.783 -0.0819 -0.2630 -0.2170
  974SOL     OW 2920   1.991   1.412   1.926  0.0328 -0.6098  0.3971
  974SOL    HW1 2921   1.905   1.412   1.980 -0.8914 -2.5064  1.3790
  974SOL    HW2 2922   2.063   1.351   1.961  0.4281  2.0590 -1.3791
  975SOL     OW 2923   3.082   0.085   1.234 -0.2262 -0.0071  0.1407
  975SOL    HW1 2924   3.089   3.114   1.266  0.6934 -0.7758  0.2880
  975SOL    HW2 2925   0.028   0.100   1.162 -2.4968  0.0172 -1.6642
  976SOL     OW 2926   0.820   2.015   2.297  0.9462 -0.3532  0.6576
  976SOL    HW1 2927   0.794   2.106   2.337 -0.6759  0.5974 -0.5292
  976SOL    HW2 2928   0.815   1.935   2.355 -0.9930  1.5833  0.3359
  977SOL     OW 2929   0.914   2.307   0.341 -0.1933 -0.1609  0.3536
  977SOL    HW1 2930   0.923   2.381   0.267 -3.1839  2.3292 -1.6454
  977SOL    HW2 2931   0.946   2.218   0.312 -1.9336  0.2662  2.3649
  978SOL     OW 2932   2.783   1.695   2.347  0.1978  0.4603  0.4500
  978SOL    HW1 2933   2.883   1.694   2.324  2.9109 -0.3323 -0.8145
  978SOL    HW2 2934   2.761   1.762   2.423  3.8791  0.1427 -1.2950
  979SOL     OW 2935   1.662   2.803   1.416  0.1492 -0.0021  0.0352
  979SOL    HW1 2936   1.689   2.786   1.317 -0.1248 -1.5498  0.0803
  979SOL    HW2 2937   1.574   2.749   1.436 -3.6715 -2.5070  0.5246
  980SOL     OW 2938   1.440   1.265   2.744  0.4447  0.7250 -0.1935
  980SOL    HW1 2939   1.437   1.245   2.643 -2.0103  0.0497 -1.5812
  980SOL    HW2 2940   1.397   1.355   2.775 -1.8529 -0.0312  1.4237
  981SOL     OW 2941   2.244   0.156   1.893  0.2665  0.0720  0.3176
  981SOL    HW1 2942   2.239   0.250   1.860 -2.3479 -2.7012  2.0870
  981SOL    HW2 2943   2.150   0.115   1.890 -2.1874 -0.4663 -1.5844
  982SOL     OW 2944   0.247   0.561   2.973 -0.4625  0.4000 -0.3073
  982SOL    HW1 2945   0.259   0.535   3.072  0.7664 -0.2798  1.3187
  982SOL    HW2 2946   0.333   0.597   2.929 -1.5969  1.7784 -1.2510
  983SOL     OW 2947   2.395   1.121   2.416 -0.2662  0.5721  1.1724
  983SOL    HW1 2948   2.433   1.176   2.488 -0.3762 -2.6574 -3.3677
  983SOL    HW2 2949   2.374   1.026   2.441 -0.8607  1.6050 -1.1020
  984SOL     OW 2950   1.233   3.062   2.142  0.2458 -0.5214  0.6885
  984SOL    HW1 2951   1.314   3.037   2.200 -1.1370  1.1422  1.6607
  984SOL    HW2 2952   1.166   2.985   2.129  1.8439 -0.4814  1.8624
  985SOL     OW 2953   1.909   1.676   1.729 -0.0167 -0.0323  0.3319
  985SOL    HW1 2954   1.926   1.613   1.648 -2.2769 -0.7600 -1.6942
  985SOL    HW2 2955   1.987   1.675   1.799 -0.8209  3.0793  2.4823
  986SOL     OW 2956   2.402   0.668   1.772  0.1103  0.2171  0.6666
  986SOL    HW1 2957   2.502   0.672   1.755  1.8901 -1.2853 -2.2654
  986SOL    HW2 2958   2.345   0.744   1.729  0.5908  0.6195 -1.9333
  987SOL     OW 2959   2.816   0.886   1.180  0.8945 -0.0362 -0.5223
  987SOL    HW1 2960   2.854   0.793   1.162  0.4774  0.2018 -0.0341
  987SOL    HW2 2961   2.718   0.878   1.213 -1.9554  0.4013 -0.1354
  988SOL     OW 2962   0.112   0.806   2.032 -0.1728  0.3809 -0.3011
  988SOL    HW1 2963   0.113   0.904   2.059 -1.3450 -0.7142 -1.9720
  988SOL    HW2 2964   0.054   0.789   1.948  0.4124  0.5338 -1.8583
  989SOL     OW 2965   2.436   1.446   0.362 -0.2198  1.3365 -0.1948
  989SOL    HW1 2966   2.369   1.490   0.426  2.9962  0.6611  1.0365
  989SOL    HW2 2967   2.438   1.487   0.269 -1.4005 -1.5417  0.0781
  990SOL     OW 2968   1.164   0.130   2.658 -0.0604 -0.4092  0.3288
  990SOL    HW1 2969   1.237   0.180   2.600 -0.1231  1.2762 -0.0811
  990SOL    HW2 2970   1.109   0.078   2.594  2.1265  0.5690  1.7309
  991SOL     OW 2971   1.347   1.117   0.661 -0.1799 -0.1256  0.3551
  991SOL    HW1 2972   1.359   1.180   0.579  2.3746  1.9347 -1.3018
  991SOL    HW2 2973   1.247   1.104   0.682  0.8540  2.3764 -1.0693
  992SOL     OW 2974   2.250   1.247   0.293  0.3647 -0.0650 -0.0457
  992SOL    HW1 2975   2.169   1.299   0.317 -1.9407  0.9445 -0.6538
  992SOL    HW2 2976   2.334   1.286   0.338  0.1911 -2.0659  0.1174
  993SOL     OW 2977   0.069   0.775   0.686  0.6515  0.0103  0.2008
  993SOL    HW1 2978   0.034   0.734   0.771 -0.2940  0.5393 -2.3290
  993SOL    HW2 2979   0.014   0.742   0.608 -1.7410 -0.4488  0.3207
  994SOL     OW 2980   0.173   2.164   2.500 -0.0020 -0.2751 -0.2728
  994SOL    HW1 2981   0.084   2.194   2.544 -2.3400  0.6688 -0.3729
  994SOL    HW2 2982   0.223   2.093   2.555  0.0763 -1.2324  0.2244
  995SOL     OW 2983   1.794   1.249   2.812 -0.0187 -1.3205  0.0001
  995SOL    HW1 2984   1.881   1.260   2.766 -1.9179 -1.4062  2.5803
  995SOL    HW2 2985   1.762   1.156   2.788  0.5150  0.7793  0.1736
  996SOL     OW 2986   2.559   1.031   0.150 -0.7480 -0.0906 -0.7542
  996SOL    HW1 2987   2.488   0.974   0.200 -3.0784 -1.1030  2.8109
  996SOL    HW2 2988   2.597   0.982   0.066  0.9828  2.4305  1.3344
  997SOL     OW 2989   2.047   1.018   1.847 -0.7444 -0.1269 -0.3627
  997SOL    HW1 2990   2.122   1.083   1.875  0.2284  0.6955 -0.5988
  997SOL    HW2 2991   1.989   0.995   1.925 -2.8771  1.5131 -0.5217
  998SOL     OW 2992   2.775   2.053   0.285  0.2600 -0.1076 -1.0623
  998SOL    HW1 2993   2.750   1.956   0.265 -1.6858 -0.2277  0.7084
  998SOL    HW2 2994   2.705   2.090   0.349  0.1643 -0.1748 -0.1664
  999SOL     OW 2995   2.925   2.404   3.054 -0.0634 -0.5842  0.3907
  999SOL    HW1 2996   2.921   2.352   0.014  0.0218  3.2023 -3.0449
  999SOL    HW2 2997   2.956   2.499   3.077 -0.0391 -0.4888  1.0102
 1000SOL     OW 2998   1.093   0.644   2.283  0.1458  0.2992 -0.0868
 1000SOL    HW1 2999   1.118   0.600   2.370 -2.2342  0.1810 -0.2240
 1000SOL    HW2 3000   0.994   0.627   2.273 -1.6730 -1.8687 -0.4502
   3.12523   3.12523   3.12523
