1000 SPC/Fw water molecules t= 243.00000 step= 243000
 3000
    1SOL     OW    1   2.673   2.500   1.249 -0.4123 -0.3231 -0.0951
    1SOL    HW1    2   2.690   2.402   1.273 -0.0844 -1.8490 -1.7502
    1SOL    HW2    3   2.639   2.504   1.152 -0.8496 -0.3282 -0.1298
    2SOL     OW    4   1.842   1.900   1.426 -0.0353  0.4902  0.3009
    2SOL    HW1    5   1.759   1.851   1.459 -0.1711 -0.2796  2.7283
    2SOL    HW2    6   1.921   1.833   1.399  2.9596  0.8038 -0.0465
    3SOL     OW    7   1.518   2.559   3.012 -0.5751 -0.6006 -0.1121
    3SOL    HW1    8   1.520   2.640   3.072 -2.2809  1.9075  0.9887
    3SOL    HW2    9   1.589   2.574   2.936  2.9670  0.0843  0.9264
    4SOL     OW   10   1.776   1.777   2.038 -0.7125  0.6193  0.6352
    4SOL    HW1   11   1.874   1.749   2.055  0.7010 -2.3892 -0.0887
    4SOL    HW2   12   1.771   1.831   1.953  0.6154 -1.3033  2.4925
    5SOL     OW   13   1.225   1.183   1.336 -0.4162  0.2205 -0.5424
    5SOL    HW1   14   1.267   1.164   1.242 -0.2668  0.7512 -0.5192
    5SOL    HW2   15   1.173   1.102   1.373  1.9033 -0.4871  0.3714
    6SOL     OW   16   2.313   0.024   0.020 -0.3691  0.0779  0.1253
    6SOL    HW1   17   2.378   0.091   3.053  0.4143 -0.0258 -2.6011
    6SOL    HW2   18   2.308   3.014   3.048  0.6031 -1.5518  2.1827
    7SOL     OW   19   2.679   1.574   1.578  0.0896  0.3278 -0.4077
    7SOL    HW1   20   2.710   1.523   1.662  0.5325 -3.9339  1.7080
    7SOL    HW2   21   2.713   1.537   1.492 -2.7857 -0.5740 -0.9068
    8SOL     OW   22   1.027   0.385   0.978  0.0715  0.4313 -0.0523
    8SOL    HW1   23   0.985   0.407   0.887 -0.0970 -0.8824  3.6904
    8SOL    HW2   24   1.101   0.309   0.967  2.7862  0.2184  0.3902
    9SOL     OW   25   1.592   0.493   2.573 -0.1729  0.0330  0.2343
    9SOL    HW1   26   1.619   0.589   2.596  1.1243 -0.2763  0.0416
    9SOL    HW2   27   1.649   0.450   2.497  1.0527  1.2720  0.7508
   10SOL     OW   28   0.600   2.122   0.217  0.5827  0.0389  0.5802
   10SOL    HW1   29   0.535   2.044   0.229 -2.5383 -0.8023 -0.6789
   10SOL    HW2   30   0.618   2.178   0.299  1.6897  0.7436  0.3342
   11SOL     OW   31   0.828   1.006   0.420  0.2744  0.5639  0.5444
   11SOL    HW1   32   0.764   0.928   0.400 -1.7723  0.0184 -0.4267
   11SOL    HW2   33   0.778   1.092   0.403  0.3827 -0.7154 -0.2104
   12SOL     OW   34   0.095   0.127   1.691 -0.1553 -0.0851  0.0149
   12SOL    HW1   35   0.027   0.203   1.701 -3.1290  0.1302  2.8680
   12SOL    HW2   36   0.174   0.162   1.636 -0.6849  1.3255  2.7443
   13SOL     OW   37   1.433   0.153   0.278  0.1426 -0.3013 -0.1928
   13SOL    HW1   38   1.342   0.108   0.284 -0.2051 -1.5857  1.0633
   13SOL    HW2   39   1.477   0.174   0.368 -2.2050 -1.6611  0.6172
   14SOL     OW   40   1.118   2.284   1.291  0.7597 -0.3596 -0.5429
   14SOL    HW1   41   1.133   2.351   1.366 -0.5347  0.0735 -1.6052
   14SOL    HW2   42   1.206   2.263   1.242  1.7043 -2.4461  3.3038
   15SOL     OW   43   2.457   1.156   1.586 -0.0702 -0.0321 -0.1342
   15SOL    HW1   44   2.515   1.205   1.515  1.1040 -2.5311  1.2249
   15SOL    HW2   45   2.459   1.221   1.670  2.2543 -0.2355  3.1671
   16SOL     OW   46   1.938   2.786   0.103  0.0965 -0.2072  0.3515
   16SOL    HW1   47   1.985   2.786   0.017 -0.3907 -1.6280  0.2153
   16SOL    HW2   48   1.861   2.716   0.115 -0.0445 -1.0298  0.9777
   17SOL     OW   49   0.938   0.064   1.406  0.1689 -0.3812 -0.1590
   17SOL    HW1   50   0.865   0.107   1.348  0.9686 -1.2710 -1.0829
   17SOL    HW2   51   0.897   0.000   1.471  0.6867  0.4510  1.2992
   18SOL     OW   52   1.381   0.566   2.900 -0.0542 -0.0535 -0.1524
   18SOL    HW1   53   1.369   0.520   2.991  0.5794  0.8166  1.0451
   18SOL    HW2   54   1.482   0.579   2.881 -0.5450 -2.0962 -0.5303
   19SOL     OW   55   1.981   2.047   2.987 -0.1015 -0.1399  0.0134
   19SOL    HW1   56   2.009   1.968   3.042  1.4644  0.7976  0.5444
   19SOL    HW2   57   1.884   2.029   2.946 -3.8969  2.3145 -2.0634
   20SOL     OW   58   2.140   1.859   1.703 -0.4126 -0.2812  0.2422
   20SOL    HW1   59   2.085   1.776   1.688 -0.0584  0.5400 -0.0932
   20SOL    HW2   60   2.228   1.836   1.756  1.0336 -0.7900  1.7047
   21SOL     OW   61   0.702   1.523   2.884 -0.2671 -0.7824  0.0017
   21SOL    HW1   62   0.736   1.588   2.810  0.3795  1.9029  0.0188
   21SOL    HW2   63   0.759   1.530   2.969 -2.6289  2.1345  0.5891
   22SOL     OW   64   1.709   2.821   1.254  0.2432  0.0492  0.5430
   22SOL    HW1   65   1.640   2.864   1.190  0.7954  1.8045 -2.0430
   22SOL    HW2   66   1.671   2.732   1.289 -1.1005 -1.1090  0.8530
   23SOL     OW   67   0.025   0.579   1.597 -0.4539 -0.2704 -0.3612
   23SOL    HW1   68   0.124   0.554   1.593 -2.1388  1.2138 -1.6262
   23SOL    HW2   69   3.067   0.651   1.533  1.0246  2.9746  0.7441
   24SOL     OW   70   2.248   2.514   0.948 -0.0360  0.2037  0.1630
   24SOL    HW1   71   2.285   2.504   1.042  0.5012 -1.9211 -1.5175
   24SOL    HW2   72   2.201   2.426   0.914  1.1877 -2.7566 -0.9374
   25SOL     OW   73   1.473   2.915   2.750  0.0628 -0.4448 -0.0445
   25SOL    HW1   74   1.571   2.875   2.757  0.8425  0.4665  1.0018
   25SOL    HW2   75   1.433   2.914   2.659 -0.2855  0.3634 -0.0628
   26SOL     OW   76   1.970   2.834   2.885 -0.0494  0.4475  0.4998
   26SOL    HW1   77   2.012   2.856   2.795  1.2516 -0.2840 -0.8963
   26SOL    HW2   78   1.888   2.892   2.895 -0.7559 -0.9638  1.3610
   27SOL     OW   79   0.110   1.890   2.570  0.1398  0.1915  0.1560
   27SOL    HW1   80   0.101   1.985   2.541 -0.9004  1.5966  0.3412
   27SOL    HW2   81   0.028   1.827   2.564 -0.8027  2.2666  0.7118
   28SOL     OW   82   2.844   1.022   1.436  0.1358  0.5264  0.1585
   28SOL    HW1   83   2.745   1.007   1.461 -1.5000 -1.0621  0.2799
   28SOL    HW2   84   2.887   1.109   1.481  0.7301  1.8701 -0.6767
   29SOL     OW   85   2.379   2.553   1.430  0.7694 -0.3029 -0.5588
   29SOL    HW1   86   2.311   2.552   1.505 -0.9393  2.3573 -0.8457
   29SOL    HW2   87   2.470   2.596   1.455  0.4007  0.6395  1.3449
   30SOL     OW   88   1.351   0.435   0.050  0.2645  0.1153  0.3559
   30SOL    HW1   89   1.287   0.465   0.123  0.2420 -1.6851 -5.7465
   30SOL    HW2   90   1.443   0.454   0.086 -1.2552  2.7530  2.1057
   31SOL     OW   91   2.467   2.976   1.706  0.0937 -0.0482  0.5983
   31SOL    HW1   92   2.446   3.037   1.782 -1.7006 -1.6571 -2.3449
   31SOL    HW2   93   2.567   2.973   1.694 -1.9227  1.4553  0.1800
   32SOL     OW   94   0.795   1.623   1.489  0.0647  0.0966  0.4744
   32SOL    HW1   95   0.796   1.722   1.507 -1.7349 -0.3147 -2.0769
   32SOL    HW2   96   0.804   1.590   1.393 -2.0021 -1.0767  2.3808
   33SOL     OW   97   0.445   2.759   2.252 -0.3962  0.6400  0.2333
   33SOL    HW1   98   0.480   2.663   2.249 -1.1805 -0.4874  1.2396
   33SOL    HW2   99   0.515   2.823   2.220 -0.5115 -1.8927  3.3325
   34SOL     OW  100   1.350   2.998   0.648 -0.0661  0.1121 -0.3610
   34SOL    HW1  101   1.290   0.002   0.654 -1.1105 -1.7370 -0.0136
   34SOL    HW2  102   1.444   3.027   0.637 -5.0414 -1.3707  2.7998
   35SOL     OW  103   2.014   0.064   0.816  0.1414 -0.0021  0.6699
   35SOL    HW1  104   1.964   0.025   0.737  0.2958  2.0377  2.1847
   35SOL    HW2  105   1.951   0.110   0.881  0.0353  0.6529  1.1801
   36SOL     OW  106   1.878   2.489   2.406 -0.0399  0.0162  0.2217
   36SOL    HW1  107   1.775   2.485   2.419  1.2664 -0.9626  1.9694
   36SOL    HW2  108   1.908   2.393   2.391  0.3762  1.2979  0.8735
   37SOL     OW  109   0.777   2.915   2.422  0.0139  0.6005 -0.3151
   37SOL    HW1  110   0.752   2.884   2.329  1.7469 -0.6876  1.2885
   37SOL    HW2  111   0.698   2.893   2.484 -1.5033  3.2433 -2.4547
   38SOL     OW  112   0.184   2.600   2.475 -0.2762 -0.3430 -0.6768
   38SOL    HW1  113   0.288   2.606   2.491  1.8546  2.6604 -0.2547
   38SOL    HW2  114   0.156   2.610   2.378 -1.4072 -0.7472  0.7495
   39SOL     OW  115   2.396   1.134   1.976 -0.3068 -0.2409 -0.1383
   39SOL    HW1  116   2.407   1.205   1.902  1.7013 -0.5132 -0.3363
   39SOL    HW2  117   2.378   1.182   2.065  1.0264 -1.1656 -1.2922
   40SOL     OW  118   0.723   2.766   3.052  0.5615  0.1785  0.0168
   40SOL    HW1  119   0.771   2.834   0.030  0.8919  4.0639  0.4386
   40SOL    HW2  120   0.739   2.671   0.003 -0.4138  1.6041 -0.3428
   41SOL     OW  121   1.891   0.847   1.120  0.5961  0.2757 -0.3903
   41SOL    HW1  122   1.973   0.791   1.138 -2.1147  0.8718 -0.6660
   41SOL    HW2  123   1.926   0.944   1.115  0.8041 -0.7214  0.1332
   42SOL     OW  124   0.383   0.343   1.060  0.6035 -0.3865  0.1809
   42SOL    HW1  125   0.443   0.388   0.990  0.1751 -0.4464 -1.4006
   42SOL    HW2  126   0.297   0.395   1.075  1.6292  0.5402  2.0900
   43SOL     OW  127   2.604   1.199   2.663  0.1724 -0.1587 -0.2570
   43SOL    HW1  128   2.580   1.115   2.612  1.4208 -0.2208 -0.1331
   43SOL    HW2  129   2.666   1.264   2.614 -1.1005  0.3549  1.2932
   44SOL     OW  130   3.049   2.883   0.709  0.8551  0.1914 -0.1625
   44SOL    HW1  131   3.019   2.946   0.637  2.1850 -0.3218 -1.7598
   44SOL    HW2  132   0.068   2.886   0.732 -0.2088  2.9850  0.7113
   45SOL     OW  133   3.021   2.755   1.354 -0.0238  0.1083  0.0788
   45SOL    HW1  134   3.050   2.853   1.367 -0.0402 -0.1542  0.2861
   45SOL    HW2  135   2.976   2.738   1.266 -0.4183  2.3697  0.6377
   46SOL     OW  136   2.257   2.398   2.393 -0.0887  0.0545 -0.5391
   46SOL    HW1  137   2.239   2.305   2.429  2.5892 -2.5538  1.2477
   46SOL    HW2  138   2.177   2.461   2.416 -0.6161 -1.7804  1.7893
   47SOL     OW  139   2.104   1.996   1.265 -0.3429 -0.5466  0.3948
   47SOL    HW1  140   2.073   2.066   1.197 -0.3085 -0.6728 -1.0835
   47SOL    HW2  141   2.051   1.914   1.246 -0.9555  1.6373  0.0335
   48SOL     OW  142   0.541   1.468   0.238 -0.1778 -0.6957 -0.7467
   48SOL    HW1  143   0.604   1.466   0.159  0.3318  1.2006  0.5080
   48SOL    HW2  144   0.517   1.373   0.259  0.5567  0.4323  1.7891
   49SOL     OW  145   3.072   0.166   2.620  0.1988 -0.0921  0.2589
   49SOL    HW1  146   3.016   0.131   2.704 -3.9758 -1.2870  3.2584
   49SOL    HW2  147   0.049   0.095   2.573 -1.9349 -0.7241  0.6523
   50SOL     OW  148   2.305   0.753   0.255  0.3970 -0.2839  0.5274
   50SOL    HW1  149   2.203   0.764   0.272 -1.9879  3.1471  1.3485
   50SOL    HW2  150   2.326   0.662   0.214 -0.2293  2.0161  1.2173
   51SOL     OW  151   2.341   0.834   1.029 -0.4372  0.1746 -0.1098
   51SOL    HW1  152   2.421   0.846   1.090  1.2046 -1.9536 -0.0094
   51SOL    HW2  153   2.327   0.918   0.976 -1.5931 -2.0980  0.0405
   52SOL     OW  154   1.183   1.129   2.558  0.3890 -0.1843 -0.3269
   52SOL    HW1  155   1.231   1.134   2.474  0.5480  2.2826  0.9519
   52SOL    HW2  156   1.179   1.033   2.588  0.0147 -1.3285  0.4626
   53SOL     OW  157   0.668   1.693   1.799  0.2983 -0.1502  0.1144
   53SOL    HW1  158   0.615   1.660   1.717  0.9681 -0.2544 -2.5096
   53SOL    HW2  159   0.738   1.624   1.824 -0.4498  0.0239  2.3808
   54SOL     OW  160   1.956   0.415   0.938 -0.2382  0.6682  0.6522
   54SOL    HW1  161   2.002   0.413   0.846  1.1211 -0.6077 -2.8472
   54SOL    HW2  162   2.022   0.449   1.010  2.9954  2.4507 -0.1935
   55SOL     OW  163   2.426   2.207   1.178 -0.3272  0.0175 -0.2605
   55SOL    HW1  164   2.406   2.117   1.222  0.8159  0.7054 -0.3792
   55SOL    HW2  165   2.482   2.197   1.091  1.1360  2.2528 -0.2952
   56SOL     OW  166   1.095   0.111   1.750  0.1176  0.0564 -0.4833
   56SOL    HW1  167   1.183   0.094   1.796  1.0137  2.1924  0.1036
   56SOL    HW2  168   1.120   0.157   1.663 -1.3744 -2.3298 -0.2760
   57SOL     OW  169   1.522   1.583   0.059  0.0268  0.5718 -0.0189
   57SOL    HW1  170   1.491   1.594   0.154 -1.2994 -2.0350  0.5037
   57SOL    HW2  171   1.500   1.659   3.075  0.0753  0.3532  1.6454
   58SOL     OW  172   0.011   0.910   2.453 -0.1410 -0.3903 -0.1776
   58SOL    HW1  173   0.069   0.989   2.424 -1.1088  0.5215  1.8077
   58SOL    HW2  174   0.005   0.845   2.375 -1.6097  0.4395  2.8427
   59SOL     OW  175   0.743   2.798   2.761  0.2564  0.4020  0.1346
   59SOL    HW1  176   0.740   2.779   2.858  1.3315  1.6529 -4.1927
   59SOL    HW2  177   0.839   2.832   2.739 -0.6148  0.6328  2.3727
   60SOL     OW  178   2.581   2.353   0.683  0.4223 -0.1228  0.3281
   60SOL    HW1  179   2.622   2.443   0.699 -1.2501 -1.3087 -0.4728
   60SOL    HW2  180   2.604   2.324   0.587  0.0381  0.3285  2.3876
   61SOL     OW  181   1.201   1.895   0.703  0.6160  0.7183 -0.4934
   61SOL    HW1  182   1.174   1.809   0.655 -0.1650  1.3740 -0.0773
   61SOL    HW2  183   1.121   1.959   0.711 -0.5427 -0.9575  1.4305
   62SOL     OW  184   2.128   2.064   2.648  0.3039 -0.4369 -0.0023
   62SOL    HW1  185   2.166   2.115   2.727  0.6446  1.2872 -1.1158
   62SOL    HW2  186   2.158   1.967   2.651  1.1573 -3.1624  1.1796
   63SOL     OW  187   2.304   2.656   3.066 -0.2176 -0.5933 -0.0469
   63SOL    HW1  188   2.392   2.654   3.011 -0.6809 -1.2174 -2.6875
   63SOL    HW2  189   2.229   2.652   3.001  1.9317  3.4537  1.2189
   64SOL     OW  190   1.232   0.857   2.560 -0.0808 -0.0960  0.0174
   64SOL    HW1  191   1.198   0.777   2.613  0.3653 -3.2140 -0.6928
   64SOL    HW2  192   1.285   0.822   2.481 -1.3500 -1.0592 -1.1773
   65SOL     OW  193   1.420   2.388   0.124  0.0705  0.2894 -0.2173
   65SOL    HW1  194   1.430   2.451   0.046  1.4972  1.5631  0.6402
   65SOL    HW2  195   1.450   2.437   0.206 -0.9138 -2.0564 -3.8722
   66SOL     OW  196   0.159   1.306   1.741  0.0381 -0.3382  0.4598
   66SOL    HW1  197   0.126   1.223   1.789  1.2301 -0.0269 -3.2047
   66SOL    HW2  198   0.082   1.368   1.731  3.9658 -0.7065  2.2426
   67SOL     OW  199   2.673   2.842   2.830 -0.2204  0.0670 -0.1337
   67SOL    HW1  200   2.651   2.743   2.816  0.8678  1.1730  0.2173
   67SOL    HW2  201   2.765   2.870   2.783  5.3892  0.9077  0.7413
   68SOL     OW  202   0.862   2.504   1.479 -0.1117 -0.1593  0.4717
   68SOL    HW1  203   0.956   2.536   1.492  1.8125  1.3258 -1.6992
   68SOL    HW2  204   0.817   2.547   1.398 -0.7033 -1.7730 -0.0138
   69SOL     OW  205   0.646   2.300   0.434 -0.0403 -0.4094  0.5040
   69SOL    HW1  206   0.722   2.316   0.501  0.9361  0.2785  0.3476
   69SOL    HW2  207   0.565   2.259   0.481 -1.8681 -0.3279 -2.3467
   70SOL     OW  208   2.554   0.968   2.543 -0.6525 -0.0036 -0.3217
   70SOL    HW1  209   2.652   0.966   2.518  0.7979 -1.6529 -1.0514
   70SOL    HW2  210   2.524   0.887   2.594 -1.4145  0.4744 -0.8658
   71SOL     OW  211   0.577   1.167   2.380  0.0041  0.3944 -0.7312
   71SOL    HW1  212   0.577   1.171   2.283 -0.3166 -2.0239  3.2782
   71SOL    HW2  213   0.507   1.097   2.409  0.5096 -3.8613 -0.2271
   72SOL     OW  214   0.395   2.080   0.471 -0.7476 -0.0694 -0.2002
   72SOL    HW1  215   0.441   2.046   0.557 -0.0614 -1.4859  0.9754
   72SOL    HW2  216   0.338   2.010   0.428 -0.1880  2.3471  0.3526
   73SOL     OW  217   1.118   1.392   0.129  0.2082 -0.2189  0.2771
   73SOL    HW1  218   1.038   1.408   0.187  0.2308 -1.6786 -1.4664
   73SOL    HW2  219   1.146   1.295   0.123 -1.0998  0.1763  2.8693
   74SOL     OW  220   2.541   2.977   0.183  0.7761  0.7839  0.0883
   74SOL    HW1  221   2.472   2.907   0.200 -0.4758  0.8222  0.8494
   74SOL    HW2  222   2.497   3.068   0.201 -1.8751 -1.7152 -0.4171
   75SOL     OW  223   2.321   1.569   2.062  0.2330 -0.2252 -0.4110
   75SOL    HW1  224   2.325   1.558   1.963 -1.9014  1.2808 -0.7210
   75SOL    HW2  225   2.353   1.666   2.079  3.0386  2.6544  1.4930
   76SOL     OW  226   2.082   2.739   1.728 -0.4120 -0.4101  0.1859
   76SOL    HW1  227   1.985   2.712   1.721 -0.4108  1.9883  1.0025
   76SOL    HW2  228   2.087   2.830   1.680  0.2641 -0.1508 -0.5499
   77SOL     OW  229   2.370   0.465   1.251 -0.3109 -0.2095 -0.1244
   77SOL    HW1  230   2.426   0.448   1.167 -1.5687 -1.5312  0.3099
   77SOL    HW2  231   2.420   0.533   1.305  0.2583 -1.1294  0.0294
   78SOL     OW  232   2.067   0.882   2.813  0.7846  0.2121  0.1769
   78SOL    HW1  233   2.143   0.856   2.878  3.4853  0.2178  3.2545
   78SOL    HW2  234   1.993   0.937   2.848  2.8056 -0.2081 -3.2421
   79SOL     OW  235   0.266   1.448   1.950 -0.1938 -0.5003 -0.0564
   79SOL    HW1  236   0.231   1.543   1.974 -1.2022  1.5356  0.5228
   79SOL    HW2  237   0.214   1.397   1.877 -3.8657 -0.8833  1.0971
   80SOL     OW  238   1.746   0.897   1.330 -0.0010 -0.0623  0.0202
   80SOL    HW1  239   1.801   0.856   1.258 -1.4394 -2.1455  0.9000
   80SOL    HW2  240   1.699   0.834   1.395  1.0014  0.1888  1.0103
   81SOL     OW  241   1.273   0.446   1.323 -0.2726  0.0920 -0.2913
   81SOL    HW1  242   1.202   0.379   1.353 -2.1998  2.6876  0.3242
   81SOL    HW2  243   1.240   0.508   1.247 -0.7132  1.7027 -0.7415
   82SOL     OW  244   1.534   2.331   1.771  0.3327  0.2797 -0.2270
   82SOL    HW1  245   1.518   2.336   1.672  0.4968 -1.3696 -0.9121
   82SOL    HW2  246   1.595   2.249   1.795  0.4492  0.4148  0.5225
   83SOL     OW  247   0.625   2.956   0.845 -0.1470  0.0136 -0.1550
   83SOL    HW1  248   0.675   2.956   0.931 -1.6195  2.1678 -1.2369
   83SOL    HW2  249   0.607   3.053   0.825  0.4007  1.3768  2.1385
   84SOL     OW  250   0.187   0.975   2.913  0.2908  0.1203 -0.6957
   84SOL    HW1  251   0.283   0.992   2.892  3.2760  0.6974  2.3021
   84SOL    HW2  252   0.124   1.057   2.901 -1.3159  3.1749 -1.5128
   85SOL     OW  253   2.708   2.340   1.828 -0.0656  0.2323  0.1078
   85SOL    HW1  254   2.742   2.403   1.751  0.2412  2.4029  1.5955
   85SOL    HW2  255   2.617   2.364   1.867 -2.7183  0.9987 -1.8875
   86SOL     OW  256   2.819   2.509   1.664  0.0846  0.0652  0.6549
   86SOL    HW1  257   2.837   2.593   1.713 -0.2913  2.3121 -2.0086
   86SOL    HW2  258   2.881   2.476   1.592 -1.3714 -1.3170  0.0678
   87SOL     OW  259   0.466   2.823   0.022  0.0879 -0.2475 -0.1528
   87SOL    HW1  260   0.415   2.742   3.070 -0.2404  1.3132 -2.9774
   87SOL    HW2  261   0.567   2.799   0.008  1.4997 -2.5208 -1.3431
   88SOL     OW  262   0.139   1.978   1.135  0.5919 -0.4873  0.5792
   88SOL    HW1  263   0.147   2.073   1.106 -0.0577 -0.5276 -0.1241
   88SOL    HW2  264   0.039   1.954   1.125 -2.8215  0.1510  1.7579
   89SOL     OW  265   1.002   0.866   1.795  0.3972  0.7603  0.4166
   89SOL    HW1  266   1.008   0.834   1.698 -0.0851  0.6076  0.3784
   89SOL    HW2  267   0.949   0.809   1.857  0.9353  0.8367 -0.3095
   90SOL     OW  268   2.755   1.606   1.942  0.6399  0.4476 -0.1236
   90SOL    HW1  269   2.779   1.609   2.040  0.9780  1.8506 -2.9398
   90SOL    HW2  270   2.754   1.698   1.899  4.3182 -3.3052  0.3249
   91SOL     OW  271   1.582   1.734   1.045  0.2241  0.1665 -0.2357
   91SOL    HW1  272   1.487   1.705   1.074 -3.8846 -0.6226 -1.4958
   91SOL    HW2  273   1.636   1.772   1.120  1.2135 -0.2020 -2.1200
   92SOL     OW  274   2.151   0.718   1.181 -0.1915  0.0508  0.4255
   92SOL    HW1  275   2.119   0.623   1.174 -1.5357  2.3502  0.4051
   92SOL    HW2  276   2.223   0.742   1.116  0.1158  1.5453  3.6624
   93SOL     OW  277   2.334   1.541   0.105 -0.0914 -0.1024  0.0910
   93SOL    HW1  278   2.287   1.592   0.034  1.8006 -2.1867 -1.3924
   93SOL    HW2  279   2.336   1.443   0.087  1.4436  0.7297  0.7526
   94SOL     OW  280   2.189   2.143   2.391  0.6895  0.1030 -0.1009
   94SOL    HW1  281   2.203   2.089   2.473 -1.1649 -0.8946  0.7161
   94SOL    HW2  282   2.274   2.141   2.343 -2.2201  0.3692  4.3929
   95SOL     OW  283   1.692   0.514   0.859 -0.1554 -0.0070 -0.5329
   95SOL    HW1  284   1.729   0.600   0.901 -1.3175  0.5576  3.3881
   95SOL    HW2  285   1.732   0.432   0.909  1.2117 -1.0022 -0.5238
   96SOL     OW  286   2.749   2.971   1.634  0.4209 -0.3049  0.3650
   96SOL    HW1  287   2.717   2.948   1.542 -1.9904  0.1310  1.4363
   96SOL    HW2  288   2.761   3.072   1.651  0.6881  2.0311  1.1334
   97SOL     OW  289   2.032   0.099   1.292  0.1152 -0.2519 -0.4061
   97SOL    HW1  290   2.004   0.197   1.315  1.1179  2.4249 -0.7490
   97SOL    HW2  291   2.131   0.084   1.302  1.3103 -1.0977 -0.2435
   98SOL     OW  292   1.459   2.352   1.523  0.4823 -0.6890 -0.0435
   98SOL    HW1  293   1.556   2.369   1.503  2.0097 -0.3948 -0.3449
   98SOL    HW2  294   1.418   2.271   1.471 -1.2360 -3.6881 -0.1044
   99SOL     OW  295   2.603   2.617   1.889 -0.1488 -0.3247 -0.9261
   99SOL    HW1  296   2.528   2.687   1.876  1.0635  0.6332 -2.5624
   99SOL    HW2  297   2.693   2.658   1.911  0.4611 -0.9900 -1.1409
  100SOL     OW  298   0.517   0.953   2.601  0.2645 -0.2982 -0.1405
  100SOL    HW1  299   0.503   0.981   2.698 -1.0917  2.0479  0.1939
  100SOL    HW2  300   0.519   0.853   2.585  1.8590  0.2575 -0.3620
  101SOL     OW  301   2.060   0.824   0.046 -0.1800  0.5570 -0.6804
  101SOL    HW1  302   2.026   0.833   0.140  1.6337 -4.2458 -2.6319
  101SOL    HW2  303   2.050   0.724   0.015  0.2689 -1.1318 -1.4436
  102SOL     OW  304   0.287   0.496   1.613 -0.0340  0.6736  0.0180
  102SOL    HW1  305   0.307   0.521   1.711 -0.2344 -0.3050  1.3950
  102SOL    HW2  306   0.316   0.394   1.599 -0.7046 -0.3531 -2.5114
  103SOL     OW  307   2.953   0.940   2.120 -0.6219  0.3052  0.1317
  103SOL    HW1  308   2.884   1.003   2.162 -2.2537  4.2062  1.1791
  103SOL    HW2  309   2.921   0.894   2.032 -1.0145 -1.3820  2.0502
  104SOL     OW  310   0.327   0.319   2.668 -0.4580 -0.4483 -0.4542
  104SOL    HW1  311   0.424   0.285   2.671  0.5413  2.4558 -0.4653
  104SOL    HW2  312   0.328   0.422   2.685  0.3889  1.8047 -0.7013
  105SOL     OW  313   2.068   2.059   1.532 -0.6423  0.6401 -0.1462
  105SOL    HW1  314   2.110   1.981   1.592  0.7649  0.7651  1.9742
  105SOL    HW2  315   2.066   2.023   1.437 -1.3303 -1.0215 -0.3733
  106SOL     OW  316   1.739   0.249   0.380 -0.3523  0.3760  0.0721
  106SOL    HW1  317   1.811   0.178   0.392 -0.5376 -1.6317  1.6892
  106SOL    HW2  318   1.775   0.340   0.368 -2.9766  0.2952 -2.2936
  107SOL     OW  319   0.099   1.860   1.611  0.4241 -0.3913  0.7663
  107SOL    HW1  320   0.170   1.936   1.628  0.8582 -0.3172 -3.8363
  107SOL    HW2  321   0.115   1.817   1.515  0.6476 -0.8901 -2.3859
  108SOL     OW  322   2.842   2.757   1.970  0.3086  0.7337  0.1189
  108SOL    HW1  323   2.893   2.841   1.949 -1.2127  2.3971 -1.2318
  108SOL    HW2  324   2.901   2.692   2.023 -1.5908  0.1453 -0.2667
  109SOL     OW  325   1.516   0.192   0.531  0.0312 -0.4358 -0.4987
  109SOL    HW1  326   1.604   0.198   0.475  0.3953 -1.2115  0.4181
  109SOL    HW2  327   1.536   0.148   0.619 -0.6010 -1.7758 -1.7142
  110SOL     OW  328   0.436   2.169   2.274 -0.3893  0.3774  0.1742
  110SOL    HW1  329   0.385   2.229   2.338 -1.8963 -0.9955 -0.8177
  110SOL    HW2  330   0.431   2.073   2.317 -1.3525 -0.1128  1.0167
  111SOL     OW  331   1.634   2.228   2.135 -0.0548 -0.3056 -0.1261
  111SOL    HW1  332   1.699   2.165   2.178 -0.7604  0.5646 -1.7852
  111SOL    HW2  333   1.547   2.207   2.179  1.5656 -1.0431  1.0177
  112SOL     OW  334   1.617   2.689   2.621  0.7799  0.1011  0.2876
  112SOL    HW1  335   1.667   2.668   2.709  0.1210  0.9530  2.3259
  112SOL    HW2  336   1.598   2.607   2.561 -0.2331 -0.7600  2.2969
  113SOL     OW  337   1.720   2.394   1.475  0.4280  0.0366  0.7487
  113SOL    HW1  338   1.762   2.337   1.405  0.7296  2.5267  1.7114
  113SOL    HW2  339   1.766   2.387   1.566  0.6548  1.0298 -1.1298
  114SOL     OW  340   2.857   0.750   0.626 -0.1085  0.3172 -0.6359
  114SOL    HW1  341   2.956   0.733   0.635 -1.7014 -1.2840  0.7641
  114SOL    HW2  342   2.836   0.811   0.550  1.3946  0.3514  1.5037
  115SOL     OW  343   0.442   1.042   2.848  0.3700  0.5635 -0.1287
  115SOL    HW1  344   0.424   1.133   2.894  0.2933 -2.9079 -4.1023
  115SOL    HW2  345   0.524   0.992   2.874  1.3958  1.4381 -1.9916
  116SOL     OW  346   0.077   1.350   2.214 -0.0114  0.3906 -0.3514
  116SOL    HW1  347   0.074   1.297   2.129 -0.2950 -0.1151  0.5723
  116SOL    HW2  348   0.177   1.362   2.243  0.3521  0.7681  0.5348
  117SOL     OW  349   2.643   2.996   0.614  0.1583 -0.3061 -0.5967
  117SOL    HW1  350   2.732   3.034   0.629 -3.3831 -2.8882 -0.6745
  117SOL    HW2  351   2.667   2.902   0.584  0.9227  1.2357 -0.3797
  118SOL     OW  352   1.136   2.006   1.451 -0.0916 -0.3466  0.1337
  118SOL    HW1  353   1.169   1.915   1.473  2.5677  0.9906 -0.9914
  118SOL    HW2  354   1.213   2.073   1.435  0.8921  2.3316 -0.4773
  119SOL     OW  355   0.846   2.216   2.787  0.0578 -0.1754 -0.2424
  119SOL    HW1  356   0.941   2.251   2.812  1.8121  0.2545  3.0637
  119SOL    HW2  357   0.764   2.260   2.827 -1.2735 -2.6736 -0.8062
  120SOL     OW  358   0.642   0.827   2.899 -0.2135 -0.0426  0.2879
  120SOL    HW1  359   0.625   0.737   2.847 -0.5242 -2.4935 -0.5559
  120SOL    HW2  360   0.726   0.879   2.861  0.7336 -0.8385  0.2276
  121SOL     OW  361   1.626   2.516   1.088  0.2383 -0.0534 -0.2853
  121SOL    HW1  362   1.710   2.570   1.068 -2.5782  1.8651 -0.5360
  121SOL    HW2  363   1.619   2.430   1.030  0.0645 -0.3146  2.3149
  122SOL     OW  364   2.211   2.488   1.625 -0.0461  0.3446 -0.4377
  122SOL    HW1  365   2.152   2.573   1.641  0.0923  1.4867 -1.5416
  122SOL    HW2  366   2.179   2.409   1.675 -2.1782 -0.7459 -0.0767
  123SOL     OW  367   0.169   2.824   0.416  0.1145  0.0047 -0.4570
  123SOL    HW1  368   0.249   2.870   0.463  1.6928 -0.1544  0.8034
  123SOL    HW2  369   0.177   2.828   0.313 -0.7945  0.5196 -0.0488
  124SOL     OW  370   2.177   1.246   2.650  0.1094 -0.3678  0.2535
  124SOL    HW1  371   2.200   1.254   2.551 -2.2021  2.4709 -1.4568
  124SOL    HW2  372   2.249   1.194   2.704  4.3230 -2.1687  0.7267
  125SOL     OW  373   0.417   0.998   0.630 -0.2383  0.3519 -0.0113
  125SOL    HW1  374   0.497   0.982   0.692 -1.0244 -0.3604  0.7087
  125SOL    HW2  375   0.445   1.069   0.561 -1.3834 -1.3768  1.2186
  126SOL     OW  376   2.710   1.724   1.033  0.0488 -0.0730 -0.2429
  126SOL    HW1  377   2.726   1.810   0.981  1.9111 -0.0043 -0.9449
  126SOL    HW2  378   2.785   1.655   1.015  0.6617 -2.9702  1.3016
  127SOL     OW  379   0.074   2.237   1.766  0.5231 -0.2172 -0.4123
  127SOL    HW1  380   0.133   2.231   1.679 -3.0492 -2.4372  0.6354
  127SOL    HW2  381   0.060   2.147   1.816 -0.0883 -0.2181 -1.6988
  128SOL     OW  382   0.938   0.959   0.178  0.5349 -0.1196 -0.0780
  128SOL    HW1  383   0.881   0.970   0.096 -1.1634 -1.0413 -1.5359
  128SOL    HW2  384   0.884   0.963   0.262 -0.0003  1.9149  1.0504
  129SOL     OW  385   2.343   1.070   0.886  0.5705  0.3584  0.1409
  129SOL    HW1  386   2.398   1.131   0.942 -2.8991 -1.2459  0.0488
  129SOL    HW2  387   2.397   1.028   0.809  1.9722  2.9485  2.6838
  130SOL     OW  388   2.235   1.060   1.474 -0.0223 -0.0604  0.0803
  130SOL    HW1  389   2.318   1.083   1.525 -1.4646 -0.2558 -1.2382
  130SOL    HW2  390   2.255   1.083   1.377  0.3655 -2.1906  2.3795
  131SOL     OW  391   2.764   2.935   0.019  0.2034  0.0911  0.1229
  131SOL    HW1  392   2.722   2.908   3.004 -3.1644 -4.1259 -3.2209
  131SOL    HW2  393   2.685   2.940   0.085 -1.3252  1.4739  1.6215
  132SOL     OW  394   2.879   2.091   1.810  0.9895  0.5396 -0.1522
  132SOL    HW1  395   2.887   2.174   1.873  0.8932  1.3351 -0.0830
  132SOL    HW2  396   2.886   2.117   1.713  0.7306  0.9188 -1.6704
  133SOL     OW  397   1.161   0.578   1.121  0.7502 -0.1100 -0.2208
  133SOL    HW1  398   1.132   0.526   1.038  2.0724 -0.0218 -3.0232
  133SOL    HW2  399   1.080   0.591   1.185 -0.6641  1.5306 -0.8653
  134SOL     OW  400   0.077   1.172   0.345 -0.0507 -0.0997  0.1854
  134SOL    HW1  401   3.065   1.194   0.304 -1.9605  0.0946  1.2051
  134SOL    HW2  402   0.150   1.134   0.276 -1.7356 -0.8335 -1.2224
  135SOL     OW  403   2.076   1.021   1.716  0.6870 -0.5074 -0.0695
  135SOL    HW1  404   2.139   0.974   1.778  1.1093  2.0950  0.2766
  135SOL    HW2  405   2.123   1.050   1.631  0.5765 -1.1540  0.1013
  136SOL     OW  406   0.061   0.913   0.516  0.1124 -0.0050  0.0697
  136SOL    HW1  407   3.046   0.958   0.502 -0.1146  0.4918  0.6122
  136SOL    HW2  408   0.134   0.990   0.511  2.3778  2.1933  0.3322
  137SOL     OW  409   2.528   1.224   1.330 -0.2438 -0.3950 -0.4026
  137SOL    HW1  410   2.612   1.206   1.277 -0.3509  1.2812  1.1659
  137SOL    HW2  411   2.453   1.168   1.284 -0.4692  1.5403 -3.4234
  138SOL     OW  412   1.814   1.043   1.596 -0.3928  0.1228 -0.3035
  138SOL    HW1  413   1.891   0.991   1.646 -0.7585 -3.9710 -0.5715
  138SOL    HW2  414   1.809   1.016   1.495 -1.6790 -1.5305 -1.0022
  139SOL     OW  415   2.061   0.127   3.065  0.0520 -0.3510  0.0677
  139SOL    HW1  416   2.151   0.080   3.052 -0.6084 -1.7069  1.5086
  139SOL    HW2  417   1.990   0.059   0.021  0.4058  0.1675 -0.0725
  140SOL     OW  418   1.448   1.922   1.827  0.2447 -0.6349 -0.2898
  140SOL    HW1  419   1.363   1.960   1.871 -1.4465 -0.1190  2.2296
  140SOL    HW2  420   1.451   1.820   1.826  1.2423 -1.4672  1.3435
  141SOL     OW  421   1.824   2.110   0.628 -0.1553 -0.1713 -0.0680
  141SOL    HW1  422   1.883   2.032   0.624 -1.0776  2.8667 -1.2761
  141SOL    HW2  423   1.877   2.195   0.641 -0.8772  1.4108  2.1299
  142SOL     OW  424   0.358   0.860   0.112 -0.3176  0.1655 -0.2334
  142SOL    HW1  425   0.453   0.819   0.099  2.5922  0.1884  1.3347
  142SOL    HW2  426   0.284   0.799   0.078  0.4480  2.2978 -3.1159
  143SOL     OW  427   0.323   2.226   2.762 -0.0776  0.2297  0.1257
  143SOL    HW1  428   0.230   2.264   2.775  1.2554 -1.2206  3.9773
  143SOL    HW2  429   0.318   2.127   2.752 -0.3654  0.3778 -2.2445
  144SOL     OW  430   1.399   0.171   1.423  0.2683  0.4063  0.1932
  144SOL    HW1  431   1.312   0.203   1.470  0.6228  1.3349 -1.2508
  144SOL    HW2  432   1.382   0.185   1.325 -0.8105  2.9406  0.0791
  145SOL     OW  433   2.413   1.454   0.465 -0.1173  0.4777  0.1414
  145SOL    HW1  434   2.459   1.537   0.423 -0.8203 -0.6898  0.7953
  145SOL    HW2  435   2.483   1.389   0.506 -0.4319  2.3817 -2.7926
  146SOL     OW  436   2.571   2.394   0.207  0.1616 -0.4403 -0.0794
  146SOL    HW1  437   2.632   2.440   0.136  1.3378  1.0331  0.0710
  146SOL    HW2  438   2.474   2.389   0.177  1.4372  0.6514  3.2170
  147SOL     OW  439   1.882   2.972   1.408  0.1402  0.5911 -0.8222
  147SOL    HW1  440   1.938   3.038   1.355  1.3519 -1.7209 -3.0614
  147SOL    HW2  441   1.830   2.905   1.346  1.4540 -1.3456 -0.3517
  148SOL     OW  442   1.482   2.870   2.262 -0.2298  0.1556 -0.4779
  148SOL    HW1  443   1.568   2.859   2.314 -2.0410  1.2566 -1.7718
  148SOL    HW2  444   1.502   2.888   2.166 -0.4598 -3.5859  4.9882
  149SOL     OW  445   1.328   0.525   2.255 -0.8428 -0.3823 -0.2031
  149SOL    HW1  446   1.303   0.441   2.302 -0.9796  0.4428 -0.1785
  149SOL    HW2  447   1.388   0.595   2.303 -2.5851  0.3542 -0.0745
  150SOL     OW  448   0.587   2.548   0.309 -0.1196  0.4862 -0.7939
  150SOL    HW1  449   0.601   2.456   0.348  0.3274  1.1672 -1.1716
  150SOL    HW2  450   0.529   2.602   0.375 -3.3974 -0.0127 -2.2182
  151SOL     OW  451   0.135   1.527   0.138 -0.4794 -0.0020  0.2610
  151SOL    HW1  452   0.066   1.552   0.203  0.6335  1.1452 -0.6000
  151SOL    HW2  453   0.131   1.589   0.057 -1.2642 -0.4275 -0.6544
  152SOL     OW  454   2.899   0.047   0.596 -0.0849  0.3947 -0.4257
  152SOL    HW1  455   2.959   0.122   0.630 -1.6903  0.5660  1.4575
  152SOL    HW2  456   2.885   0.047   0.498  0.9456  0.7667 -0.1795
  153SOL     OW  457   2.232   3.029   0.890 -0.5699 -0.0335 -0.0601
  153SOL    HW1  458   2.138   3.075   0.882 -2.5078  1.7768  1.6672
  153SOL    HW2  459   2.257   2.997   0.799 -0.2264  0.8234  2.5187
  154SOL     OW  460   1.074   0.446   1.663 -0.3531  0.0153  0.1304
  154SOL    HW1  461   1.037   0.493   1.747  0.1891 -0.3346 -0.8834
  154SOL    HW2  462   1.145   0.510   1.621  1.1602  1.5898  1.9677
  155SOL     OW  463   2.497   1.254   1.019  0.7523 -0.6506 -0.1847
  155SOL    HW1  464   2.587   1.210   1.041 -2.4561  0.0758 -1.1540
  155SOL    HW2  465   2.490   1.338   1.076  0.4289  2.1134  1.2815
  156SOL     OW  466   2.610   2.151   3.058 -0.2275  0.5024 -0.2022
  156SOL    HW1  467   2.517   2.107   3.070 -0.2514 -2.5978 -0.9908
  156SOL    HW2  468   2.613   2.246   0.017 -1.7708 -0.2214 -0.6550
  157SOL     OW  469   1.172   2.933   0.426 -0.1918  0.4031  0.5063
  157SOL    HW1  470   1.166   2.838   0.386 -2.3035 -1.4797 -0.1659
  157SOL    HW2  471   1.245   2.938   0.498  0.4382 -0.5778  0.0173
  158SOL     OW  472   2.287   0.383   2.506  0.2023 -0.4847 -0.1823
  158SOL    HW1  473   2.383   0.378   2.474 -1.7829 -1.1792  1.8456
  158SOL    HW2  474   2.226   0.311   2.478 -1.1896 -0.7924 -2.0924
  159SOL     OW  475   0.551   3.027   0.201 -0.1816 -0.4165  0.8925
  159SOL    HW1  476   0.548   2.948   0.134  3.4916 -0.9317  0.0325
  159SOL    HW2  477   0.494   0.027   0.184  1.7025 -0.4926  1.5899
  160SOL     OW  478   1.190   2.006   0.100  0.2211 -0.4169 -0.2462
  160SOL    HW1  479   1.244   2.047   0.025 -0.9351 -0.4888  0.5699
  160SOL    HW2  480   1.089   1.999   0.077  1.4371 -1.0583 -1.1704
  161SOL     OW  481   2.736   1.840   2.296 -0.7783  0.5227  0.3218
  161SOL    HW1  482   2.751   1.886   2.206 -0.7277  2.4612 -0.9536
  161SOL    HW2  483   2.679   1.905   2.356 -1.5085 -0.0122  0.8713
  162SOL     OW  484   0.206   2.611   1.211 -0.4048  0.0414  0.0190
  162SOL    HW1  485   0.264   2.560   1.279 -0.7701  0.2498  0.5061
  162SOL    HW2  486   0.128   2.658   1.256  0.5516 -0.7108 -1.4809
  163SOL     OW  487   2.282   0.383   2.801 -0.4378 -0.1062  0.7179
  163SOL    HW1  488   2.190   0.355   2.815  3.8208 -1.2806  2.8213
  163SOL    HW2  489   2.298   0.390   2.700  0.1278 -1.1917  1.7559
  164SOL     OW  490   2.870   1.537   0.906  0.3412  0.4246 -0.2155
  164SOL    HW1  491   2.819   1.531   0.818  2.1959  3.0277  1.8392
  164SOL    HW2  492   2.947   1.605   0.901  2.2638 -1.4474  1.7352
  165SOL     OW  493   2.847   0.141   2.007  0.0082  0.5273 -0.0745
  165SOL    HW1  494   2.849   0.042   2.018  0.4183 -1.2140  0.2890
  165SOL    HW2  495   2.868   0.189   2.094 -0.6658 -0.4870 -0.9720
  166SOL     OW  496   2.100   0.672   0.667  0.4948  0.3318  0.6609
  166SOL    HW1  497   2.056   0.764   0.668  0.5111 -0.0561  3.3089
  166SOL    HW2  498   2.042   0.608   0.611  0.4396 -2.9878 -0.5561
  167SOL     OW  499   0.447   0.386   0.398 -0.1102  0.1401 -0.3990
  167SOL    HW1  500   0.414   0.480   0.360 -2.1700  1.6334  0.2113
  167SOL    HW2  501   0.405   0.367   0.493 -2.0956 -1.9239 -0.3096
  168SOL     OW  502   1.862   2.691   2.228  0.1994  0.0931 -0.0074
  168SOL    HW1  503   1.877   2.614   2.297  2.3410 -1.0812 -0.0156
  168SOL    HW2  504   1.813   2.771   2.263 -1.5717 -0.5193 -1.8284
  169SOL     OW  505   0.937   1.087   0.670  0.0749  0.0072  0.1186
  169SOL    HW1  506   0.886   1.040   0.594  1.2583 -2.5159 -1.7783
  169SOL    HW2  507   0.879   1.147   0.724  0.5008 -2.5777  0.9013
  170SOL     OW  508   2.968   0.345   1.368 -0.4021 -0.4200  0.4230
  170SOL    HW1  509   2.894   0.413   1.371 -1.9471 -0.5757 -2.6651
  170SOL    HW2  510   2.984   0.296   1.456 -0.8158 -0.4488 -5.5079
  171SOL     OW  511   1.102   2.820   1.693  0.1841  0.2729  0.1672
  171SOL    HW1  512   1.125   2.781   1.601 -0.6487  0.7425 -0.8626
  171SOL    HW2  513   1.108   2.920   1.689 -1.5783 -0.3904 -0.4383
  172SOL     OW  514   0.380   2.288   1.717  0.6443 -0.6584  0.7477
  172SOL    HW1  515   0.340   2.198   1.695  1.6837 -0.1516  1.3067
  172SOL    HW2  516   0.481   2.276   1.718 -2.1887 -0.5935  0.4658
  173SOL     OW  517   1.205   0.627   2.696 -0.3598  0.2389 -0.8465
  173SOL    HW1  518   1.171   0.546   2.646  0.5867  0.0045 -1.7537
  173SOL    HW2  519   1.259   0.603   2.780 -0.9867 -1.0293  1.4923
  174SOL     OW  520   1.711   0.017   2.473  0.2689 -0.4130  0.5102
  174SOL    HW1  521   1.614   0.054   2.458  0.1388  0.9594  1.5527
  174SOL    HW2  522   1.760   0.078   2.539  0.1692 -1.0462  2.1528
  175SOL     OW  523   1.699   2.630   0.180  0.0870 -0.4374  0.3494
  175SOL    HW1  524   1.757   2.599   0.250 -1.5571 -1.0988 -2.0091
  175SOL    HW2  525   1.603   2.629   0.219 -0.3710  1.9320 -0.8026
  176SOL     OW  526   1.760   0.352   2.800 -0.4118 -0.2091  0.3199
  176SOL    HW1  527   1.771   0.394   2.891  0.7458 -0.8320 -1.8486
  176SOL    HW2  528   1.686   0.399   2.752  1.8438 -2.0656 -2.1221
  177SOL     OW  529   0.717   1.479   0.503  0.0639  0.2282 -0.0193
  177SOL    HW1  530   0.700   1.495   0.603 -2.4546  0.1582  1.4993
  177SOL    HW2  531   0.674   1.554   0.456 -0.8623  0.0243  1.3905
  178SOL     OW  532   2.913   2.275   2.418  0.0731  0.0371 -0.2718
  178SOL    HW1  533   3.010   2.299   2.397 -1.7018 -1.0959  0.6368
  178SOL    HW2  534   2.904   2.219   2.507  0.3885  1.7203  2.1931
  179SOL     OW  535   0.488   2.557   2.504  0.4710  0.9490 -0.0896
  179SOL    HW1  536   0.507   2.655   2.504  0.9215 -0.8009  4.2341
  179SOL    HW2  537   0.574   2.516   2.469  2.7741  0.9866  0.3706
  180SOL     OW  538   1.932   1.807   1.114 -0.2725  0.0512  0.1241
  180SOL    HW1  539   1.925   1.706   1.141 -0.3831 -2.1229  0.6089
  180SOL    HW2  540   1.829   1.839   1.111 -2.4033  1.7357  1.1299
  181SOL     OW  541   1.916   1.021   2.205 -0.1849 -0.0656 -0.3247
  181SOL    HW1  542   1.929   1.100   2.140  0.0839 -2.4339  0.2581
  181SOL    HW2  543   1.906   1.057   2.304  1.5123 -0.9055  2.5291
  182SOL     OW  544   2.769   2.738   2.366 -0.1568 -0.1218  0.0775
  182SOL    HW1  545   2.817   2.712   2.278  0.3648 -0.0209 -1.7121
  182SOL    HW2  546   2.800   2.834   2.396 -1.7695  0.8099 -0.0134
  183SOL     OW  547   1.480   0.826   2.395 -0.6242 -0.1565 -0.6357
  183SOL    HW1  548   1.510   0.913   2.353  0.8553 -1.6667 -0.1510
  183SOL    HW2  549   1.562   0.767   2.424  1.2596  0.3263  0.8220
  184SOL     OW  550   0.783   0.648   1.596  0.0057  0.0193  0.2919
  184SOL    HW1  551   0.737   0.646   1.687  2.7645 -0.0801  1.4333
  184SOL    HW2  552   0.820   0.742   1.566 -0.1698  0.1349 -2.2938
  185SOL     OW  553   2.041   1.056   0.444  0.4561 -0.3368 -0.0305
  185SOL    HW1  554   1.957   1.114   0.437  3.1640 -1.8705 -0.4401
  185SOL    HW2  555   2.120   1.116   0.423 -1.8628 -2.8767 -1.5465
  186SOL     OW  556   0.277   1.965   2.781  0.7356  0.1863 -0.4182
  186SOL    HW1  557   0.320   1.891   2.833  0.0244  0.1529 -2.3615
  186SOL    HW2  558   0.223   1.939   2.697 -2.7958  0.6325 -1.8114
  187SOL     OW  559   2.581   1.398   0.124 -0.3795  0.0975 -0.0472
  187SOL    HW1  560   2.675   1.442   0.119 -0.3579  0.1658 -1.9912
  187SOL    HW2  561   2.578   1.348   0.211  3.2914  0.8449 -2.8911
  188SOL     OW  562   0.157   1.863   0.723  0.3577  0.3396  1.1462
  188SOL    HW1  563   0.142   1.833   0.623  2.8855 -2.9798 -0.1988
  188SOL    HW2  564   0.182   1.960   0.739 -0.4499 -2.7601  0.9004
  189SOL     OW  565   2.394   0.493   0.186  0.7420  0.4162  0.0402
  189SOL    HW1  566   2.353   0.415   0.239  1.9340  1.3952 -1.0087
  189SOL    HW2  567   2.495   0.477   0.183 -0.3437  0.5327 -1.6001
  190SOL     OW  568   1.142   1.591   2.020 -0.2935  0.6811 -0.8827
  190SOL    HW1  569   1.178   1.675   2.062  0.2717 -5.1349 -0.2185
  190SOL    HW2  570   1.116   1.526   2.099  0.7069  0.0069  2.8351
  191SOL     OW  571   2.784   0.134   1.742  0.2638  0.0508  0.3654
  191SOL    HW1  572   2.733   0.214   1.695 -0.4783  3.4172  0.5792
  191SOL    HW2  573   2.812   0.156   1.833 -1.6634  1.2143 -0.7975
  192SOL     OW  574   2.043   1.299   1.375  0.6377 -0.6641 -0.0796
  192SOL    HW1  575   1.982   1.236   1.323 -1.2142  2.7748 -0.8838
  192SOL    HW2  576   1.991   1.380   1.399  0.9103 -1.9254 -0.6645
  193SOL     OW  577   1.023   0.662   0.706  0.1807 -0.0089  0.8489
  193SOL    HW1  578   0.998   0.712   0.620  1.2475  1.0038 -1.9896
  193SOL    HW2  579   1.055   0.728   0.771 -2.3428 -3.8388 -3.7818
  194SOL     OW  580   1.158   0.001   1.195  0.0348  0.1536 -0.6041
  194SOL    HW1  581   1.153   2.988   1.145 -1.2218 -0.7186  0.3608
  194SOL    HW2  582   1.105   3.073   1.282  0.7073  3.1664  1.0926
  195SOL     OW  583   2.270   0.322   0.353  0.1562 -0.3075 -0.3201
  195SOL    HW1  584   2.298   0.224   0.353 -2.2482  0.2874 -1.7138
  195SOL    HW2  585   2.296   0.377   0.437  1.3169  0.2453  0.1368
  196SOL     OW  586   0.718   2.286   1.484 -0.2540 -0.6701 -0.3550
  196SOL    HW1  587   0.775   2.205   1.461 -0.5022  1.4222  1.3787
  196SOL    HW2  588   0.779   2.371   1.482  1.3781  4.0830 -1.1052
  197SOL     OW  589   0.468   2.631   0.542  0.6114 -0.2228  0.7866
  197SOL    HW1  590   0.533   2.695   0.596  1.3394 -0.0227 -1.0714
  197SOL    HW2  591   0.373   2.629   0.569  3.0527 -2.8169 -1.9666
  198SOL     OW  592   0.610   1.029   0.859  0.1004 -0.1156  0.2632
  198SOL    HW1  593   0.673   1.056   0.938  2.9570  0.2885  0.6828
  198SOL    HW2  594   0.636   1.090   0.779 -0.7894 -1.3189 -0.2121
  199SOL     OW  595   0.036   3.006   1.474 -0.3272 -0.0697  0.0999
  199SOL    HW1  596   0.009   0.009   1.532  2.0379  0.8956  2.2276
  199SOL    HW2  597   0.110   2.948   1.514  2.9740  0.7396  1.4024
  200SOL     OW  598   2.396   1.811   2.784  0.0352  0.0730 -0.1235
  200SOL    HW1  599   2.456   1.736   2.753 -0.4325  2.1642 -0.5692
  200SOL    HW2  600   2.327   1.838   2.712 -2.6928 -1.8878 -0.7332
  201SOL     OW  601   2.886   2.282   1.281 -0.7043  0.5824  0.1942
  201SOL    HW1  602   2.898   2.358   1.346 -1.6519  2.1099 -2.8635
  201SOL    HW2  603   2.887   2.187   1.321 -0.2404  0.2880  0.1110
  202SOL     OW  604   2.711   0.285   0.388  0.7996 -0.1484 -0.1979
  202SOL    HW1  605   2.657   0.310   0.299 -1.8827 -2.3946 -0.1735
  202SOL    HW2  606   2.794   0.233   0.357  0.3081 -1.8136 -1.8173
  203SOL     OW  607   1.392   2.162   2.239 -0.1610 -0.2388  0.4243
  203SOL    HW1  608   1.299   2.147   2.192  1.0911 -1.2523  0.4585
  203SOL    HW2  609   1.416   2.097   2.316  0.0657 -2.9385  2.1505
  204SOL     OW  610   1.016   1.563   1.638  0.2006 -0.0917  0.7046
  204SOL    HW1  611   0.953   1.581   1.557 -0.2964  0.2563 -3.0731
  204SOL    HW2  612   0.957   1.576   1.721 -1.4556 -0.0328  2.5068
  205SOL     OW  613   0.988   2.108   1.644 -0.1741  0.0191 -0.2382
  205SOL    HW1  614   1.052   2.063   1.575 -0.2148  0.5668  0.2376
  205SOL    HW2  615   0.938   2.036   1.691  2.1635 -2.6286 -1.7065
  206SOL     OW  616   0.219   0.570   2.642 -0.7759 -0.1842 -0.0336
  206SOL    HW1  617   0.309   0.610   2.625 -1.4182 -1.1202 -0.5283
  206SOL    HW2  618   0.160   0.652   2.655  2.1831 -1.6749 -0.7928
  207SOL     OW  619   1.597   2.825   1.983  0.3012  0.9888  0.4157
  207SOL    HW1  620   1.550   2.883   1.912 -1.1699  0.4830 -0.7105
  207SOL    HW2  621   1.594   2.722   1.958 -0.1552 -0.3016  1.1718
  208SOL     OW  622   0.947   2.496   1.959  0.3258  0.0356  0.4116
  208SOL    HW1  623   1.012   2.469   2.037  2.7772  0.5370  0.9965
  208SOL    HW2  624   0.937   2.599   1.955  0.5603 -0.5156  2.2145
  209SOL     OW  625   1.950   1.073   3.067 -0.0110 -0.6522  0.7292
  209SOL    HW1  626   1.968   0.976   0.015  1.0146  1.2021  2.5130
  209SOL    HW2  627   1.861   1.086   3.020 -3.9660 -1.5531  0.8639
  210SOL     OW  628   2.964   0.477   1.112  0.8765 -0.5329  0.0160
  210SOL    HW1  629   2.921   0.408   1.045  0.6806 -3.2445  1.6629
  210SOL    HW2  630   2.993   0.424   1.193  1.4830  0.1254 -1.7449
  211SOL     OW  631   0.813   0.939   1.200  0.1550  0.0377  0.6379
  211SOL    HW1  632   0.774   0.845   1.177  0.9331 -2.4638  0.2631
  211SOL    HW2  633   0.823   0.942   1.300  0.4662 -0.8284  2.6816
  212SOL     OW  634   0.912   2.061   1.049 -0.4186  0.1384 -0.0656
  212SOL    HW1  635   0.851   2.003   0.992  0.6306 -0.5535  1.5796
  212SOL    HW2  636   0.966   2.127   0.995 -1.2877 -0.0183  2.1086
  213SOL     OW  637   1.983   0.195   1.607  0.2703  0.3770 -0.0687
  213SOL    HW1  638   1.886   0.173   1.624  0.4598 -0.7221 -0.7230
  213SOL    HW2  639   2.035   0.106   1.620  0.7751  0.4412 -0.6937
  214SOL     OW  640   1.461   2.138   2.714 -0.4814 -0.6282 -0.6558
  214SOL    HW1  641   1.472   2.114   2.615 -1.7600 -0.4953  2.4616
  214SOL    HW2  642   1.544   2.127   2.768  2.7813 -0.1434  0.1254
  215SOL     OW  643   2.873   1.761   1.337 -0.0434 -0.0386 -0.3269
  215SOL    HW1  644   2.841   1.834   1.399  1.6920  2.5268 -1.4957
  215SOL    HW2  645   2.796   1.699   1.319  0.7761 -1.9629 -0.3100
  216SOL     OW  646   0.565   0.158   2.143 -0.0604 -0.2301  0.3549
  216SOL    HW1  647   0.664   0.158   2.113  2.5157  0.1643  0.0106
  216SOL    HW2  648   0.542   0.066   2.185  4.1787 -1.0274 -0.2243
  217SOL     OW  649   2.706   0.280   2.985 -0.6304 -0.0510  0.2734
  217SOL    HW1  650   2.747   0.327   2.909 -2.8131 -0.0452  2.7785
  217SOL    HW2  651   2.784   0.233   3.034  3.5966  1.3659 -1.5053
  218SOL     OW  652   1.783   1.795   2.357  0.1168 -0.4011 -0.5676
  218SOL    HW1  653   1.780   1.800   2.458 -1.1960  0.6086 -4.3487
  218SOL    HW2  654   1.698   1.784   2.311 -0.6951 -1.3322  1.7819
  219SOL     OW  655   1.669   0.902   0.227  0.2555 -0.4170 -0.0081
  219SOL    HW1  656   1.707   0.996   0.215 -1.8458 -1.5016 -1.1874
  219SOL    HW2  657   1.578   0.898   0.274 -0.5221 -0.5309  0.7297
  220SOL     OW  658   1.397   1.959   1.162 -0.1364 -0.8966 -0.1969
  220SOL    HW1  659   1.297   1.951   1.162  1.0955  3.6284 -1.1425
  220SOL    HW2  660   1.431   1.952   1.068 -1.8578  1.2292  1.6430
  221SOL     OW  661   0.135   0.737   3.065  0.6565  0.2277  0.2005
  221SOL    HW1  662   0.048   0.699   3.025  0.2417  1.1781  0.9439
  221SOL    HW2  663   0.160   0.827   3.018 -2.2344  2.6456  0.1608
  222SOL     OW  664   1.149   2.703   1.463 -0.5631 -0.1970 -0.3810
  222SOL    HW1  665   1.183   2.608   1.481 -2.3589 -0.9591 -1.6458
  222SOL    HW2  666   1.224   2.757   1.418  1.2846  2.8816 -1.6345
  223SOL     OW  667   1.356   0.172   2.747 -0.6774 -0.1652 -0.0783
  223SOL    HW1  668   1.448   0.127   2.747  0.0190  0.8690 -0.4684
  223SOL    HW2  669   1.315   0.182   2.837 -2.5994 -0.9575  0.0549
  224SOL     OW  670   2.848   0.967   0.975 -0.7258  0.0005 -0.3605
  224SOL    HW1  671   2.913   0.909   1.032 -0.3098 -3.5190  0.1715
  224SOL    HW2  672   2.785   0.904   0.934  1.1880  0.3256  0.0709
  225SOL     OW  673   0.808   1.123   1.502  0.2938  0.2806  0.0660
  225SOL    HW1  674   0.859   1.186   1.443 -0.0023 -2.7298 -0.7601
  225SOL    HW2  675   0.710   1.140   1.481 -2.6350  0.1013 -0.2840
  226SOL     OW  676   1.486   2.824   0.021  0.0984  0.8566  0.1145
  226SOL    HW1  677   1.424   2.891   3.051  0.2194 -1.5182  2.2869
  226SOL    HW2  678   1.530   2.873   0.103  2.4131  1.8547 -1.6268
  227SOL     OW  679   0.565   1.612   1.156  0.1174  0.0391  0.5332
  227SOL    HW1  680   0.502   1.540   1.123 -4.2375  0.7108 -0.4246
  227SOL    HW2  681   0.516   1.700   1.181 -0.6414 -0.9000 -1.5151
  228SOL     OW  682   0.272   2.545   1.459 -0.3621 -0.2100 -0.1266
  228SOL    HW1  683   0.200   2.475   1.474 -1.6260 -2.0959 -0.4218
  228SOL    HW2  684   0.304   2.573   1.551 -1.3434 -1.1204 -0.2105
  229SOL     OW  685   2.332   1.258   3.075 -0.0290  0.1781 -0.1632
  229SOL    HW1  686   2.332   1.208   0.086  0.9931 -0.6395 -0.6818
  229SOL    HW2  687   2.337   1.197   2.993 -0.9107 -0.0396 -0.4101
  230SOL     OW  688   0.732   1.055   1.915 -0.7522 -0.2722 -0.1572
  230SOL    HW1  689   0.657   1.062   1.845 -1.0901 -0.2654  1.7635
  230SOL    HW2  690   0.811   1.115   1.897 -3.9584 -2.4922 -1.2747
  231SOL     OW  691   1.510   2.042   1.572  0.6548 -0.1817  0.1907
  231SOL    HW1  692   1.609   2.061   1.587 -3.6744 -0.9260 -1.3642
  231SOL    HW2  693   1.477   1.978   1.646  2.1405 -1.7930  1.6287
  232SOL     OW  694   1.940   2.339   0.671 -0.0114 -0.1175 -0.3938
  232SOL    HW1  695   1.917   2.435   0.703 -0.2986  2.8483 -0.0306
  232SOL    HW2  696   1.963   2.347   0.571  1.5910 -1.1754  0.6125
  233SOL     OW  697   1.161   2.523   2.938  0.4000  0.0279  0.4728
  233SOL    HW1  698   1.168   2.587   3.019  0.9199 -0.2086 -0.0654
  233SOL    HW2  699   1.221   2.554   2.867  0.3716  0.5558 -0.2876
  234SOL     OW  700   1.105   0.099   2.446 -0.3071  0.1858 -0.3662
  234SOL    HW1  701   1.095   0.196   2.479  0.1937  4.5487  0.9992
  234SOL    HW2  702   1.065   0.032   2.508  1.3933  2.7978 -2.8069
  235SOL     OW  703   2.856   2.265   0.131  0.7848 -0.3265  0.0559
  235SOL    HW1  704   2.907   2.279   0.219  0.2285  2.4582 -1.8831
  235SOL    HW2  705   2.826   2.168   0.106  0.3234  0.1391 -0.0688
  236SOL     OW  706   1.927   2.211   2.431  0.5386  0.2196 -0.0058
  236SOL    HW1  707   1.906   2.190   2.531 -0.7427 -0.0711  3.7358
  236SOL    HW2  708   2.025   2.191   2.415  1.1555 -0.0643 -1.5726
  237SOL     OW  709   1.799   1.155   1.249 -0.7594  0.0269  0.3821
  237SOL    HW1  710   1.800   1.069   1.302  1.2855 -1.9319  2.3450
  237SOL    HW2  711   1.782   1.139   1.149 -0.6031 -1.2117  0.4824
  238SOL     OW  712   2.026   0.156   2.216  0.0932 -0.0033  0.1253
  238SOL    HW1  713   2.050   0.248   2.172 -1.6050  1.3019 -0.4886
  238SOL    HW2  714   1.928   0.145   2.220 -1.5019 -0.0616  2.7467
  239SOL     OW  715   0.531   1.597   1.553  0.4233 -0.1163  0.4356
  239SOL    HW1  716   0.521   1.511   1.603  0.7419  0.4846  0.9211
  239SOL    HW2  717   0.614   1.595   1.499 -2.3962  0.8809 -0.4983
  240SOL     OW  718   3.055   2.100   0.581 -0.1330 -0.2777 -0.0258
  240SOL    HW1  719   2.987   2.139   0.645  0.1335  1.3260  1.0935
  240SOL    HW2  720   0.067   2.090   0.630  1.3178  1.7950  1.7010
  241SOL     OW  721   1.362   2.002   0.499  0.1118  1.2847 -0.1164
  241SOL    HW1  722   1.325   1.958   0.588 -3.2434 -1.3145  1.6994
  241SOL    HW2  723   1.459   1.985   0.490 -2.4839 -0.7531 -1.0905
  242SOL     OW  724   1.405   1.381   0.375  0.1386 -0.1978  0.1933
  242SOL    HW1  725   1.473   1.344   0.438 -1.4316 -0.4099 -2.2024
  242SOL    HW2  726   1.341   1.311   0.341 -0.0352 -1.9405  1.0726
  243SOL     OW  727   0.800   0.030   2.050 -0.1903 -0.4804 -0.4400
  243SOL    HW1  728   0.894   0.018   2.098  3.4341 -2.3269  1.1858
  243SOL    HW2  729   0.817   0.021   1.950  1.6463  0.7287  0.7014
  244SOL     OW  730   1.709   2.937   2.955 -0.5369 -0.5596  0.1374
  244SOL    HW1  731   1.681   3.030   2.916  0.9474 -0.1039 -2.0715
  244SOL    HW2  732   1.635   2.906   3.018  0.1256  1.0634  0.4462
  245SOL     OW  733   1.359   3.007   2.976 -0.1646 -0.3400 -0.0444
  245SOL    HW1  734   1.336   0.027   2.967  0.3159  0.0897  0.3162
  245SOL    HW2  735   1.408   2.976   2.890 -0.1373 -0.3408 -1.3234
  246SOL     OW  736   0.898   0.826   2.485 -0.3527  0.0372 -0.2319
  246SOL    HW1  737   0.979   0.852   2.428 -0.2763 -0.7022  0.4223
  246SOL    HW2  738   0.838   0.905   2.505  0.8906  1.1243 -2.0721
  247SOL     OW  739   0.356   0.635   1.911  0.0518 -0.3850 -0.2107
  247SOL    HW1  740   0.376   0.571   1.983 -0.7490  3.1406 -1.9769
  247SOL    HW2  741   0.260   0.632   1.885  2.2894 -2.3638  0.7628
  248SOL     OW  742   0.724   0.834   2.072 -0.8693 -0.3431  0.1382
  248SOL    HW1  743   0.815   0.815   2.123  2.4330  2.4654  2.5899
  248SOL    HW2  744   0.735   0.927   2.030  1.6669 -1.3160  1.1404
  249SOL     OW  745   2.061   0.342   0.191  0.4061 -0.2404 -0.4599
  249SOL    HW1  746   2.079   0.259   0.135 -0.1582  0.3892  0.9610
  249SOL    HW2  747   2.122   0.340   0.275  0.4726 -0.4047 -0.2158
  250SOL     OW  748   0.579   0.132   0.741  0.6547  0.5347 -0.5860
  250SOL    HW1  749   0.676   0.149   0.749 -1.4471 -1.9056  0.9573
  250SOL    HW2  750   0.534   0.216   0.706  0.3582 -0.3575  0.4158
  251SOL     OW  751   0.984   0.545   2.258 -0.1460  0.0819  0.0141
  251SOL    HW1  752   1.077   0.508   2.249  0.8359  0.5889 -0.1907
  251SOL    HW2  753   0.915   0.477   2.219 -0.7445 -1.8645 -1.5303
  252SOL     OW  754   1.413   1.666   1.800  0.8890  0.2251  0.4789
  252SOL    HW1  755   1.508   1.657   1.785 -3.0972  2.4910  0.2144
  252SOL    HW2  756   1.372   1.579   1.835 -1.0825  0.7481  0.3440
  253SOL     OW  757   1.752   2.430   1.990 -0.5255 -0.1722  0.2905
  253SOL    HW1  758   1.757   2.517   2.042  1.6384  2.7470 -0.6986
  253SOL    HW2  759   1.721   2.350   2.046  1.7488 -0.6219  1.1719
  254SOL     OW  760   0.837   2.094   2.083  0.5021  0.1360  0.7829
  254SOL    HW1  761   0.919   2.089   2.141 -0.8880 -1.6069  0.2706
  254SOL    HW2  762   0.826   2.003   2.039 -1.2713 -0.0457  0.4489
  255SOL     OW  763   1.268   0.658   0.498 -0.1220  0.2227 -0.2822
  255SOL    HW1  764   1.308   0.713   0.574  0.4267  1.3786  0.3102
  255SOL    HW2  765   1.170   0.679   0.487  1.0184  3.1197  0.3159
  256SOL     OW  766   1.868   1.886   1.775  0.0902 -0.2530 -0.2863
  256SOL    HW1  767   1.956   1.881   1.725 -1.0309  0.8302  1.7647
  256SOL    HW2  768   1.819   1.973   1.760  2.0577 -0.3958 -2.7371
  257SOL     OW  769   0.338   2.317   2.487 -0.1112  0.5010 -0.5189
  257SOL    HW1  770   0.395   2.403   2.498  0.7360 -1.3031  2.6467
  257SOL    HW2  771   0.339   2.269   2.576 -0.4573 -1.1434 -2.3258
  258SOL     OW  772   0.837   0.286   2.239 -0.8236  0.6122 -0.5748
  258SOL    HW1  773   0.900   0.209   2.225  0.8395  1.4020  0.9215
  258SOL    HW2  774   0.815   0.310   2.336  0.0009  0.1657  0.6722
  259SOL     OW  775   1.154   1.216   2.099  0.1401  0.4372  0.3726
  259SOL    HW1  776   1.095   1.150   2.150 -1.0093  4.0177 -2.6998
  259SOL    HW2  777   1.131   1.195   2.000  0.5816 -0.2317  0.3802
  260SOL     OW  778   1.561   0.807   0.598  0.1398  0.6766 -0.2199
  260SOL    HW1  779   1.489   0.806   0.670 -1.0236 -2.2794 -1.3391
  260SOL    HW2  780   1.625   0.728   0.590 -0.2484 -1.1151  0.4373
  261SOL     OW  781   0.492   3.009   2.862 -0.3326  0.3394 -0.5423
  261SOL    HW1  782   0.539   2.944   2.923 -0.2896  3.8263 -1.1896
  261SOL    HW2  783   0.419   2.975   2.802  1.0535  0.3867 -0.1634
  262SOL     OW  784   2.496   3.054   2.717  0.3029  0.0785 -0.2820
  262SOL    HW1  785   2.556   2.979   2.749  1.8599  2.1969 -2.2234
  262SOL    HW2  786   2.550   0.063   2.690  0.1845 -0.1288  1.7757
  263SOL     OW  787   0.176   2.004   0.156 -1.0099 -0.4841 -0.1962
  263SOL    HW1  788   0.097   1.980   0.218  0.4602 -1.1207  0.0159
  263SOL    HW2  789   0.142   2.020   0.062 -0.4687 -0.2017  1.7029
  264SOL     OW  790   0.554   1.214   1.443 -0.0503  0.0281  0.3967
  264SOL    HW1  791   0.488   1.267   1.498 -0.5700 -1.1373 -1.6545
  264SOL    HW2  792   0.528   1.220   1.345  1.5505  1.4693  1.6331
  265SOL     OW  793   0.456   1.195   0.445 -0.1531 -0.6254  0.2863
  265SOL    HW1  794   0.394   1.168   0.361 -1.3941 -3.5126 -0.5900
  265SOL    HW2  795   0.549   1.212   0.410 -1.6971 -0.7113 -0.6489
  266SOL     OW  796   1.718   1.298   0.475  0.0494  0.5170 -0.3752
  266SOL    HW1  797   1.809   1.281   0.436  1.3231  1.0446  0.4185
  266SOL    HW2  798   1.643   1.231   0.454 -4.2256 -1.6747  1.3734
  267SOL     OW  799   2.944   0.552   0.072  0.0881  0.6728 -0.0990
  267SOL    HW1  800   3.031   0.500   0.054  2.7489  0.4570 -0.0133
  267SOL    HW2  801   2.926   0.620   0.003 -0.4547 -0.5276  1.1059
  268SOL     OW  802   0.311   2.905   2.666 -0.2267  0.4140  0.0121
  268SOL    HW1  803   0.238   2.844   2.706 -0.7869 -1.9828  0.3559
  268SOL    HW2  804   0.260   2.984   2.626 -1.8772 -2.9890  0.1286
  269SOL     OW  805   1.872   0.200   2.611  0.1184  0.0767  0.0487
  269SOL    HW1  806   1.841   0.260   2.684 -1.5853  0.6649 -0.4195
  269SOL    HW2  807   1.970   0.216   2.591  2.8976 -1.8674  0.0455
  270SOL     OW  808   0.798   1.068   2.496  0.2804  0.5333  0.6481
  270SOL    HW1  809   0.699   1.053   2.477  0.1645  0.0221  1.1668
  270SOL    HW2  810   0.826   1.148   2.547  0.7058 -1.6911 -0.4416
  271SOL     OW  811   2.670   1.027   0.246 -0.4229 -0.1325 -0.1618
  271SOL    HW1  812   2.626   0.938   0.221 -0.6296  3.2027 -1.7382
  271SOL    HW2  813   2.746   1.053   0.180  1.1970 -1.9744  0.2512
  272SOL     OW  814   2.766   1.678   2.526 -0.4156  0.2983  0.0963
  272SOL    HW1  815   2.764   1.746   2.445  2.1970  0.1361 -1.6800
  272SOL    HW2  816   2.689   1.687   2.588  1.3892 -1.8510 -0.4536
  273SOL     OW  817   2.350   0.594   2.952  0.3873  0.2033 -0.5007
  273SOL    HW1  818   2.319   0.512   2.896 -2.6737 -1.1773  0.2317
  273SOL    HW2  819   2.347   0.568   3.047  1.2065  1.6346 -0.1025
  274SOL     OW  820   0.236   2.906   0.721  0.4317 -0.5543 -0.0804
  274SOL    HW1  821   0.293   2.944   0.646 -1.9293 -0.3851 -0.7639
  274SOL    HW2  822   0.280   2.917   0.810  0.7988  2.8908 -0.5009
  275SOL     OW  823   1.899   1.610   0.754  0.1166  0.3022  0.7909
  275SOL    HW1  824   1.914   1.567   0.662  0.6219  0.3224  3.2838
  275SOL    HW2  825   1.965   1.687   0.774 -0.0767  0.8340 -0.1892
  276SOL     OW  826   0.249   1.382   2.651 -0.8499 -0.3319 -0.5033
  276SOL    HW1  827   0.343   1.378   2.606  4.3897 -1.0081 -2.0245
  276SOL    HW2  828   0.182   1.348   2.586  1.1079 -2.4952 -2.2350
  277SOL     OW  829   1.806   2.705   1.716 -0.0240  0.0285 -0.0527
  277SOL    HW1  830   1.716   2.669   1.744 -2.1774  0.2914 -1.3859
  277SOL    HW2  831   1.789   2.807   1.687  1.1399  1.9222 -0.2624
  278SOL     OW  832   1.569   0.463   1.966 -0.0693 -0.2792 -0.0210
  278SOL    HW1  833   1.473   0.438   1.937  0.4982  0.8578  0.2649
  278SOL    HW2  834   1.630   0.474   1.883 -0.3152 -0.4493 -0.4622
  279SOL     OW  835   2.050   1.665   0.259  0.1371 -0.0817  0.1844
  279SOL    HW1  836   2.029   1.585   0.202  0.2951 -1.7220  0.2138
  279SOL    HW2  837   1.971   1.691   0.317 -1.5939 -2.9553  2.7379
  280SOL     OW  838   0.411   1.631   0.764 -0.3484  0.3253  0.1091
  280SOL    HW1  839   0.395   1.561   0.689  1.6165 -2.7231 -3.4417
  280SOL    HW2  840   0.329   1.634   0.822  1.4343  1.0540 -0.8966
  281SOL     OW  841   0.297   0.101   2.506 -0.0542  0.1255  0.6937
  281SOL    HW1  842   0.290   0.187   2.557  0.3243 -1.7722  1.2201
  281SOL    HW2  843   0.245   0.111   2.420  1.7431 -2.0653  2.2137
  282SOL     OW  844   0.249   0.995   1.118 -0.2997  0.5857 -0.0723
  282SOL    HW1  845   0.185   1.064   1.080 -2.6344 -1.6608 -3.7655
  282SOL    HW2  846   0.208   0.929   1.188  1.3118 -2.5261  0.6772
  283SOL     OW  847   1.823   2.066   0.221  0.0822  0.2265  0.1793
  283SOL    HW1  848   1.887   2.129   0.180 -2.8049 -2.0429 -0.5438
  283SOL    HW2  849   1.731   2.112   0.233 -0.5660 -0.6283  0.7466
  284SOL     OW  850   1.564   1.427   0.682  0.3654 -0.1861  0.4121
  284SOL    HW1  851   1.600   1.523   0.698  0.1695  2.4017 -1.4550
  284SOL    HW2  852   1.625   1.377   0.614 -0.5211  1.7079  1.2887
  285SOL     OW  853   2.886   0.073   2.783  0.0951  0.1738  0.0141
  285SOL    HW1  854   2.850   0.083   2.878 -2.3885  1.8211 -2.0194
  285SOL    HW2  855   2.895   3.056   2.753  2.7474  1.8796 -1.1220
  286SOL     OW  856   1.458   3.002   1.517 -0.5388 -0.3396  0.6481
  286SOL    HW1  857   1.409   2.927   1.464 -1.7253 -0.8383  0.8489
  286SOL    HW2  858   1.452   0.018   1.475  1.5718  1.5452 -1.4367
  287SOL     OW  859   0.712   1.144   1.067 -0.1227  0.4241 -0.1597
  287SOL    HW1  860   0.757   1.059   1.107  1.0032  1.4103  1.4744
  287SOL    HW2  861   0.612   1.144   1.094  0.6866 -2.2416 -1.1695
  288SOL     OW  862   1.617   0.111   2.893 -0.6603 -0.4286 -0.5883
  288SOL    HW1  863   1.663   0.188   2.848 -0.8820 -2.2593  1.5983
  288SOL    HW2  864   1.609   0.127   2.996 -1.3401  0.1706  0.0585
  289SOL     OW  865   0.063   1.579   2.747  0.0210  0.1638 -0.3226
  289SOL    HW1  866   0.028   1.588   2.652 -0.1269 -0.8740  0.7235
  289SOL    HW2  867   0.138   1.508   2.739 -1.7934  1.5468  0.1311
  290SOL     OW  868   1.414   2.244   0.723  0.1353  0.3661 -0.4984
  290SOL    HW1  869   1.339   2.284   0.666  2.3257 -2.0595 -1.1027
  290SOL    HW2  870   1.483   2.211   0.660 -0.7059 -0.8164  1.4268
  291SOL     OW  871   2.193   2.158   2.896 -0.3628  0.5211  0.1751
  291SOL    HW1  872   2.099   2.119   2.909  0.5413 -1.1608 -2.8483
  291SOL    HW2  873   2.264   2.106   2.950 -0.2096  2.2872 -1.1622
  292SOL     OW  874   1.424   1.152   2.047  0.5922  0.2644 -0.2831
  292SOL    HW1  875   1.320   1.157   2.050  0.1850  2.2355  2.5043
  292SOL    HW2  876   1.457   1.146   1.950 -2.5763  0.0881  0.4398
  293SOL     OW  877   2.117   2.761   1.010 -0.3574 -0.0700  0.1343
  293SOL    HW1  878   2.164   2.848   0.997  1.1494 -1.4569 -0.7998
  293SOL    HW2  879   2.177   2.686   0.980 -1.7326 -1.1221 -0.3730
  294SOL     OW  880   0.225   0.413   2.388 -0.0489  0.3156 -0.1434
  294SOL    HW1  881   0.207   0.435   2.485  0.8337  0.0745  0.5190
  294SOL    HW2  882   0.316   0.365   2.377  2.6887 -1.4165  0.2727
  295SOL     OW  883   1.583   1.747   0.505  0.2959 -0.0885 -0.9274
  295SOL    HW1  884   1.588   1.736   0.607 -1.9946 -0.2647 -0.7818
  295SOL    HW2  885   1.503   1.693   0.464 -0.3548 -1.3306 -0.9184
  296SOL     OW  886   2.084   1.831   0.064  0.1729  0.6090  0.6082
  296SOL    HW1  887   2.124   1.765   3.076  0.8029 -1.7883  0.6834
  296SOL    HW2  888   2.073   1.775   0.151  1.3281 -0.1014  0.2579
  297SOL     OW  889   2.071   0.551   0.006 -0.3218  0.4931  0.0188
  297SOL    HW1  890   2.065   0.501   2.991 -1.1126 -0.2858  0.5532
  297SOL    HW2  891   2.060   0.486   0.084  0.2702  2.0605  0.4486
  298SOL     OW  892   1.174   2.435   2.551 -0.0999  0.2840  0.0616
  298SOL    HW1  893   1.196   2.383   2.635 -2.4601 -0.2362  1.9694
  298SOL    HW2  894   1.248   2.418   2.480  1.1526  1.5631 -0.1878
  299SOL     OW  895   1.327   2.889   2.484 -0.5186 -0.0822 -0.7508
  299SOL    HW1  896   1.380   2.873   2.396  1.7822 -0.4922  0.1997
  299SOL    HW2  897   1.228   2.876   2.463 -2.0708  0.4317  0.0226
  300SOL     OW  898   2.443   0.206   2.976 -0.0544 -0.4299  0.8484
  300SOL    HW1  899   2.544   0.216   2.982 -0.1857 -0.6438 -1.1904
  300SOL    HW2  900   2.402   0.268   2.908 -0.4703  0.6343  1.3205
  301SOL     OW  901   1.413   1.584   1.413  0.6106 -0.1030 -0.0389
  301SOL    HW1  902   1.371   1.498   1.450  0.4914 -0.0059  2.2206
  301SOL    HW2  903   1.403   1.583   1.314  0.0954  1.1831  0.2547
  302SOL     OW  904   2.677   2.291   0.436 -0.6175  0.3104 -0.6905
  302SOL    HW1  905   2.777   2.302   0.440 -4.3280  1.2383 -0.2418
  302SOL    HW2  906   2.631   2.312   0.344  0.7945  0.0817 -1.2269
  303SOL     OW  907   2.934   2.628   2.181  0.3768  0.3573 -0.1254
  303SOL    HW1  908   3.022   2.617   2.235 -0.9230  1.5257  1.4945
  303SOL    HW2  909   2.900   2.538   2.147  2.9070 -0.4345 -0.0072
  304SOL     OW  910   0.088   0.615   1.871 -0.3609  0.3626  0.0280
  304SOL    HW1  911   0.052   0.625   1.776 -0.4929 -2.0615 -3.6481
  304SOL    HW2  912   0.020   0.614   1.944 -0.6970  3.3236 -3.2292
  305SOL     OW  913   0.523   1.937   1.758  0.0516 -0.0780  0.3504
  305SOL    HW1  914   0.592   1.858   1.775  0.3742 -1.4739  3.0035
  305SOL    HW2  915   0.575   2.027   1.743 -3.0914  2.8949 -2.2101
  306SOL     OW  916   2.774   0.837   1.936 -0.6516 -0.0824 -0.2894
  306SOL    HW1  917   2.706   0.882   2.001  0.4648 -0.3815  3.1915
  306SOL    HW2  918   2.739   0.826   1.842  3.3607  0.1492  1.2447
  307SOL     OW  919   1.824   1.293   1.700  0.3180  0.2723 -0.0557
  307SOL    HW1  920   1.785   1.218   1.640 -2.7562 -1.8290  1.5096
  307SOL    HW2  921   1.920   1.275   1.734  1.3610  0.5362 -1.5265
  308SOL     OW  922   2.528   1.520   1.129  0.2544 -0.4038 -0.0804
  308SOL    HW1  923   2.456   1.590   1.148  3.4420  2.9996 -0.9410
  308SOL    HW2  924   2.581   1.541   1.047 -1.4440  0.5491  1.4741
  309SOL     OW  925   2.311   1.691   1.411 -0.4277  0.0317 -0.5756
  309SOL    HW1  926   2.362   1.759   1.468  2.1588  0.5934  2.9180
  309SOL    HW2  927   2.364   1.604   1.409 -0.7736 -0.2722 -1.3447
  310SOL     OW  928   2.779   1.403   2.540  0.0129  0.0213  0.1362
  310SOL    HW1  929   2.743   1.369   2.453 -0.7038  1.9535  0.6099
  310SOL    HW2  930   2.771   1.503   2.544  0.4261 -0.2982  0.0099
  311SOL     OW  931   2.903   1.918   2.900  0.2827  0.7710 -0.7094
  311SOL    HW1  932   2.856   1.922   2.995 -0.7616  1.8350 -0.1475
  311SOL    HW2  933   2.897   1.822   2.862 -0.6971  0.4016  0.2180
  312SOL     OW  934   2.336   1.692   1.144 -0.7317 -0.4813  0.3992
  312SOL    HW1  935   2.273   1.628   1.092 -2.7652 -0.4079 -2.9176
  312SOL    HW2  936   2.299   1.711   1.236 -2.4525  0.7533 -1.1158
  313SOL     OW  937   2.543   2.609   1.039 -0.6146 -0.2616  0.3219
  313SOL    HW1  938   2.521   2.705   1.019  0.5917 -2.4640 -2.2292
  313SOL    HW2  939   2.461   2.554   1.076 -1.1724 -1.4349 -0.0394
  314SOL     OW  940   0.924   1.493   0.327  0.4613 -0.0818  0.6028
  314SOL    HW1  941   0.981   1.574   0.346 -0.6767 -2.1994 -2.0854
  314SOL    HW2  942   0.861   1.479   0.408 -0.1096 -2.0159 -0.5894
  315SOL     OW  943   0.983   2.584   2.422  0.2868  0.1051 -0.6691
  315SOL    HW1  944   1.037   2.522   2.485  0.4405  0.5243 -0.8793
  315SOL    HW2  945   1.016   2.678   2.437 -0.3314 -1.0457  1.2413
  316SOL     OW  946   0.105   0.679   0.651 -0.0613 -0.5618  0.6513
  316SOL    HW1  947   0.121   0.759   0.586 -0.1705  1.7161 -0.2439
  316SOL    HW2  948   0.047   0.612   0.603  0.0710  0.7965 -0.4440
  317SOL     OW  949   0.873   0.245   0.505 -0.4216  0.2450 -0.7435
  317SOL    HW1  950   0.792   0.284   0.454 -1.9515  0.3107 -1.9235
  317SOL    HW2  951   0.894   0.152   0.468  0.7213  3.8607  0.3368
  318SOL     OW  952   2.946   2.267   0.371  0.4447 -0.4697 -0.1544
  318SOL    HW1  953   2.976   2.185   0.425  0.1848 -3.4828  0.7556
  318SOL    HW2  954   2.999   2.350   0.397  1.5623  0.1202  1.7899
  319SOL     OW  955   0.305   1.426   2.247 -0.2293  0.1409 -0.0906
  319SOL    HW1  956   0.341   1.407   2.154  0.9049  0.1111  0.5886
  319SOL    HW2  957   0.370   1.476   2.306 -0.4889 -1.3803 -1.4986
  320SOL     OW  958   0.953   2.757   1.907 -0.2896 -0.0974  0.2521
  320SOL    HW1  959   0.999   2.775   1.817 -1.5253 -3.7907 -0.4758
  320SOL    HW2  960   0.856   2.798   1.904 -2.6689  0.1326 -0.6215
  321SOL     OW  961   1.115   2.374   0.191  0.5479 -0.3675  0.0024
  321SOL    HW1  962   1.150   2.291   0.247  1.9752 -3.3522 -0.6143
  321SOL    HW2  963   1.193   2.437   0.186 -1.7260 -2.1432 -0.5865
  322SOL     OW  964   2.600   0.965   2.082 -0.4514 -0.7097 -0.0898
  322SOL    HW1  965   2.533   1.033   2.039  0.0552  1.3840  0.8768
  322SOL    HW2  966   2.660   1.012   2.149  0.5126 -0.1461 -0.0721
  323SOL     OW  967   2.496   0.775   0.433 -0.2063 -0.5073  0.4040
  323SOL    HW1  968   2.413   0.760   0.379 -0.1285  0.6280 -1.6545
  323SOL    HW2  969   2.574   0.749   0.378 -0.5226  1.3348  2.5185
  324SOL     OW  970   0.393   2.565   2.992 -0.9089 -0.1575 -0.2839
  324SOL    HW1  971   0.430   2.526   2.906  2.4714 -1.5014  3.1381
  324SOL    HW2  972   0.413   2.493   3.064  2.0410 -4.1092 -0.0653
  325SOL     OW  973   1.740   0.343   2.413  0.1778 -0.2375 -0.0322
  325SOL    HW1  974   1.797   0.306   2.489  1.0202  0.2283 -0.5924
  325SOL    HW2  975   1.724   0.274   2.341 -1.6130 -1.7518  1.4321
  326SOL     OW  976   2.289   2.881   1.516 -0.3361  0.2308 -0.1547
  326SOL    HW1  977   2.343   2.919   1.594  1.2591  1.7094 -0.1692
  326SOL    HW2  978   2.340   2.867   1.429  0.1752  0.3383 -1.3261
  327SOL     OW  979   1.782   0.463   3.052  0.0160  0.1716 -0.0775
  327SOL    HW1  980   1.731   0.547   3.068 -0.4220  1.7705  2.2557
  327SOL    HW2  981   1.866   0.464   0.036  3.3775  0.2747  0.3458
  328SOL     OW  982   2.766   1.092   2.267  0.1867 -0.2897 -0.0245
  328SOL    HW1  983   2.722   1.181   2.272 -1.0683 -1.2353 -1.0888
  328SOL    HW2  984   2.803   1.065   2.356 -0.6850 -0.9243 -1.3084
  329SOL     OW  985   1.724   0.147   1.701 -0.4647 -0.4823  0.1563
  329SOL    HW1  986   1.663   0.075   1.668  3.9396  3.2256  3.0232
  329SOL    HW2  987   1.769   0.108   1.786 -1.6355 -0.3689 -0.8382
  330SOL     OW  988   2.552   1.804   1.551  0.6494 -0.4739 -0.4777
  330SOL    HW1  989   2.597   1.871   1.484  0.0800  1.0572 -2.6319
  330SOL    HW2  990   2.604   1.716   1.562 -0.6951  2.8404 -1.4413
  331SOL     OW  991   0.553   1.366   1.708 -0.5321  0.2924  0.1479
  331SOL    HW1  992   0.538   1.266   1.726  1.1061 -0.3977  1.9772
  331SOL    HW2  993   0.529   1.423   1.786 -0.5151  0.0921 -2.2840
  332SOL     OW  994   0.485   0.238   1.293  0.2716  0.1829  0.6850
  332SOL    HW1  995   0.439   0.281   1.213 -1.0763 -2.6707 -0.6079
  332SOL    HW2  996   0.580   0.276   1.303 -0.6790  1.5947  0.1392
  333SOL     OW  997   2.348   2.731   1.818  0.3070  0.2908 -0.1676
  333SOL    HW1  998   2.389   2.811   1.771 -2.1424  2.5389 -0.6566
  333SOL    HW2  999   2.249   2.714   1.790  1.6544 -0.5147 -1.4229
  334SOL     OW 1000   0.824   1.521   1.236  0.0706  0.5653  0.0033
  334SOL    HW1 1001   0.724   1.527   1.206 -2.8340 -2.1392  1.7062
  334SOL    HW2 1002   0.877   1.554   1.151 -0.4619 -0.3840  0.9531
  335SOL     OW 1003   0.571   2.258   2.863  0.0212  0.3120 -0.4878
  335SOL    HW1 1004   0.582   2.351   2.818 -1.8332 -0.6892 -1.2827
  335SOL    HW2 1005   0.473   2.232   2.847  1.4587  1.4436  0.1993
  336SOL     OW 1006   3.018   2.944   1.854 -0.4730 -0.1711 -0.0059
  336SOL    HW1 1007   2.991   3.036   1.821 -0.6049 -0.2231  0.4024
  336SOL    HW2 1008   3.000   2.874   1.781  0.7284  3.7366  1.5648
  337SOL     OW 1009   2.610   2.038   0.439  0.0679 -0.8932 -0.5855
  337SOL    HW1 1010   2.664   2.126   0.459  0.5171  0.6459  0.1378
  337SOL    HW2 1011   2.520   2.059   0.394  0.1357  1.0629  2.5606
  338SOL     OW 1012   0.896   2.115   1.332 -0.1164  1.1418 -0.4166
  338SOL    HW1 1013   0.990   2.157   1.341  0.6127  3.7819 -0.2409
  338SOL    HW2 1014   0.886   2.069   1.241 -1.9880  1.6251  0.1875
  339SOL     OW 1015   0.127   0.532   2.141  0.0527  0.6506 -0.2644
  339SOL    HW1 1016   0.161   0.474   2.068  1.0545  0.8983  1.2987
  339SOL    HW2 1017   0.144   0.493   2.235  1.0101 -0.2561 -3.3268
  340SOL     OW 1018   1.564   2.560   0.768  0.2871  0.1608 -0.4407
  340SOL    HW1 1019   1.497   2.614   0.714 -0.3928 -0.1895 -2.2761
  340SOL    HW2 1020   1.530   2.542   0.864  0.5983  0.9378  3.7324
  341SOL     OW 1021   1.507   1.433   1.012 -0.2500 -0.0431  0.0352
  341SOL    HW1 1022   1.466   1.396   0.923 -0.1910  1.3010 -0.2583
  341SOL    HW2 1023   1.559   1.520   0.999 -0.3366 -1.2409  3.3604
  342SOL     OW 1024   0.043   1.303   0.749 -0.2585  0.0211  0.6807
  342SOL    HW1 1025   0.042   1.355   0.659 -0.0983  2.6255 -1.9922
  342SOL    HW2 1026   0.129   1.245   0.751  3.9003  1.2641  0.5217
  343SOL     OW 1027   1.633   0.374   1.357 -0.0881  0.2185 -0.0727
  343SOL    HW1 1028   1.621   0.441   1.278 -1.8432 -0.4375 -1.3227
  343SOL    HW2 1029   1.559   0.299   1.357 -2.8594 -0.6817 -2.2932
  344SOL     OW 1030   2.034   2.451   1.137  0.6474 -0.0388 -0.2017
  344SOL    HW1 1031   2.118   2.501   1.149 -0.7471  0.4934 -1.0724
  344SOL    HW2 1032   1.960   2.508   1.098  0.7309  0.8726 -1.9740
  345SOL     OW 1033   2.783   2.431   2.796 -0.2399 -0.1294 -0.0074
  345SOL    HW1 1034   2.763   2.450   2.699  0.6663 -1.3466 -0.4374
  345SOL    HW2 1035   2.803   2.333   2.820 -0.6027  1.6510  1.3576
  346SOL     OW 1036   0.158   1.512   0.899  0.5417  0.2780 -0.3081
  346SOL    HW1 1037   0.094   1.592   0.910  0.6293  2.9248  1.1245
  346SOL    HW2 1038   0.118   1.436   0.840 -3.9517 -3.5880 -0.5565
  347SOL     OW 1039   1.833   2.570   0.804 -0.3329 -0.5778 -0.8855
  347SOL    HW1 1040   1.735   2.566   0.786  1.4013  0.9613 -0.2095
  347SOL    HW2 1041   1.863   2.590   0.902  0.8236  0.5806  0.4846
  348SOL     OW 1042   1.207   1.464   2.318 -0.2506 -0.6122  0.2707
  348SOL    HW1 1043   1.247   1.379   2.357  1.6761  1.7266  0.6036
  348SOL    HW2 1044   1.122   1.484   2.372  0.2543  1.8927  3.7974
  349SOL     OW 1045   2.201   1.235   2.364 -0.1549 -0.3312 -0.1681
  349SOL    HW1 1046   2.129   1.253   2.294  0.5532  0.0910  1.0262
  349SOL    HW2 1047   2.216   1.134   2.369  1.4522  1.2421 -1.2583
  350SOL     OW 1048   0.115   2.292   1.411  0.1787  0.8255 -0.2944
  350SOL    HW1 1049   0.073   2.204   1.451  0.6646 -1.8884  0.0910
  350SOL    HW2 1050   0.193   2.260   1.352  2.0569 -0.1122 -1.8104
  351SOL     OW 1051   0.569   0.201   2.573  0.1333  0.7301  0.1115
  351SOL    HW1 1052   0.598   0.124   2.631 -0.6983  0.5436  1.4583
  351SOL    HW2 1053   0.646   0.268   2.545  2.6762  0.1175  0.5647
  352SOL     OW 1054   0.947   2.840   1.342 -0.1659 -0.8396 -0.1962
  352SOL    HW1 1055   1.029   2.797   1.376 -0.1119 -2.0200  3.8348
  352SOL    HW2 1056   0.901   2.881   1.423  0.7900 -1.4642  0.7698
  353SOL     OW 1057   0.981   1.082   2.246  0.3582 -0.0967 -0.7466
  353SOL    HW1 1058   0.967   0.982   2.224 -0.8482 -1.1349  3.9589
  353SOL    HW2 1059   0.915   1.108   2.318  0.4990  0.3466  2.3370
  354SOL     OW 1060   1.500   1.136   0.493  0.6373 -0.1595  0.1030
  354SOL    HW1 1061   1.538   1.061   0.550  0.0142  0.6955  2.9780
  354SOL    HW2 1062   1.431   1.101   0.426  0.4729 -0.4229 -1.8331
  355SOL     OW 1063   2.335   0.365   0.628 -0.4090 -0.2907 -0.6176
  355SOL    HW1 1064   2.403   0.447   0.634  1.5308  1.8935 -0.8924
  355SOL    HW2 1065   2.381   0.285   0.664 -1.7150  0.6446 -0.1269
  356SOL     OW 1066   2.839   0.984   2.513  0.7141 -0.1979 -0.2254
  356SOL    HW1 1067   2.839   0.998   2.613  2.5487  2.0431  1.0937
  356SOL    HW2 1068   2.931   0.960   2.491 -2.2627 -1.1839 -0.0789
  357SOL     OW 1069   0.688   2.869   1.875 -0.6502 -0.2821  0.9487
  357SOL    HW1 1070   0.639   2.953   1.851  1.0439  1.2892 -0.6606
  357SOL    HW2 1071   0.669   2.787   1.814  0.5735 -0.1384 -2.5849
  358SOL     OW 1072   2.946   1.236   2.670  0.3871 -0.0193 -0.0657
  358SOL    HW1 1073   2.909   1.330   2.649 -0.3879  1.7734  0.0286
  358SOL    HW2 1074   3.009   1.207   2.595 -1.5436 -0.6652 -1.4230
  359SOL     OW 1075   2.423   2.624   2.767  0.2983  0.0096  0.2982
  359SOL    HW1 1076   2.376   2.715   2.758 -1.0904 -1.6252  0.4787
  359SOL    HW2 1077   2.459   2.585   2.682  1.0972  0.7559 -2.3826
  360SOL     OW 1078   1.789   1.133   0.965 -0.1609  0.1557  0.3877
  360SOL    HW1 1079   1.700   1.108   0.917 -0.3132  1.0299  1.1518
  360SOL    HW2 1080   1.863   1.119   0.899  0.2104 -2.1376 -2.0068
  361SOL     OW 1081   1.856   2.683   1.066  0.2380 -0.3125 -0.2382
  361SOL    HW1 1082   1.823   2.740   1.146 -1.6459 -0.0738 -0.0668
  361SOL    HW2 1083   1.936   2.729   1.022 -0.2171 -0.2935 -2.6983
  362SOL     OW 1084   1.381   1.260   0.781 -0.4365 -0.0638  0.4994
  362SOL    HW1 1085   1.290   1.253   0.736  1.2212  1.5092  2.9763
  362SOL    HW2 1086   1.448   1.315   0.730 -2.9302 -1.0281  0.1434
  363SOL     OW 1087   2.951   2.124   2.647 -0.1208  0.2498 -0.3948
  363SOL    HW1 1088   2.885   2.143   2.721  0.5942  0.3358 -0.9674
  363SOL    HW2 1089   3.048   2.153   2.674  5.2519  1.0474  0.4546
  364SOL     OW 1090   1.669   0.685   1.488  0.1387  0.1686 -0.1147
  364SOL    HW1 1091   1.588   0.708   1.543 -1.1824 -0.1500 -0.2402
  364SOL    HW2 1092   1.647   0.627   1.410 -2.0958  2.8620  2.3212
  365SOL     OW 1093   2.872   2.684   1.112 -0.6329  0.2819  0.6471
  365SOL    HW1 1094   2.853   2.720   1.019  0.1004 -0.5284 -0.7818
  365SOL    HW2 1095   2.799   2.639   1.157  2.1065  0.0546  1.1375
  366SOL     OW 1096   2.903   1.308   0.251  0.0710  0.2116  0.4808
  366SOL    HW1 1097   2.884   1.383   0.176 -2.6360  3.4251 -3.0675
  366SOL    HW2 1098   2.827   1.299   0.315 -0.5581  3.3093  1.0980
  367SOL     OW 1099   2.779   2.150   2.858 -0.8315 -0.6228 -0.2812
  367SOL    HW1 1100   2.695   2.155   2.915  0.8470 -0.0890 -1.6576
  367SOL    HW2 1101   2.832   2.063   2.879 -0.6794 -0.3223 -1.1809
  368SOL     OW 1102   2.773   1.982   1.463 -0.3856 -0.2545 -0.3565
  368SOL    HW1 1103   2.737   2.059   1.518 -1.6955 -0.3148 -0.2570
  368SOL    HW2 1104   2.714   1.966   1.383 -2.9340 -0.4985  1.2789
  369SOL     OW 1105   0.703   0.347   0.315  0.1464 -0.2139  0.2788
  369SOL    HW1 1106   0.717   0.279   0.239 -1.3999  1.1778 -0.8764
  369SOL    HW2 1107   0.606   0.354   0.347 -0.7635 -0.4340 -1.5838
  370SOL     OW 1108   0.962   0.602   1.308 -0.1042  0.7930 -0.4636
  370SOL    HW1 1109   0.886   0.551   1.260 -5.5495  1.5207 -0.1390
  370SOL    HW2 1110   0.925   0.653   1.386  4.1520 -1.8789 -2.0916
  371SOL     OW 1111   2.553   1.614   0.312 -0.3457 -0.3341 -0.1811
  371SOL    HW1 1112   2.521   1.552   0.240  0.3751 -0.7614  1.6423
  371SOL    HW2 1113   2.497   1.696   0.312 -1.1215  0.5693 -2.0535
  372SOL     OW 1114   0.284   1.033   2.454 -0.5378 -0.1369  0.8246
  372SOL    HW1 1115   0.344   0.987   2.524  0.6119  0.9017  0.1204
  372SOL    HW2 1116   0.298   0.987   2.364  3.2237  0.0492 -1.3695
  373SOL     OW 1117   2.610   1.223   0.634 -0.1636 -0.9823  0.4842
  373SOL    HW1 1118   2.557   1.270   0.711  2.3855  2.3642  1.5171
  373SOL    HW2 1119   2.706   1.207   0.655 -0.1611  0.4363  1.3498
  374SOL     OW 1120   0.429   2.399   0.129  0.0282  0.1838  0.3899
  374SOL    HW1 1121   0.494   2.330   0.098  0.3722  0.9498  1.6382
  374SOL    HW2 1122   0.482   2.463   0.184 -0.9519 -2.4942 -1.3290
  375SOL     OW 1123   0.904   0.535   3.026 -0.2970  0.2761  0.4665
  375SOL    HW1 1124   0.933   0.608   2.964 -1.4703  3.2821  3.0279
  375SOL    HW2 1125   0.809   0.538   3.060 -2.3086  1.4408 -1.5820
  376SOL     OW 1126   0.129   2.836   2.028  0.4311 -0.0157  0.1406
  376SOL    HW1 1127   0.060   2.851   1.955  0.6373 -2.4998 -1.7093
  376SOL    HW2 1128   0.121   2.904   2.106 -1.0502  1.3484  3.4225
  377SOL     OW 1129   0.443   1.941   2.425  0.1375 -0.5277  0.0434
  377SOL    HW1 1130   0.360   1.887   2.434  1.3436  2.3426 -2.8693
  377SOL    HW2 1131   0.525   1.890   2.464  0.5704 -2.4302  1.6797
  378SOL     OW 1132   1.406   0.853   0.339 -0.0525 -0.3289 -0.1968
  378SOL    HW1 1133   1.342   0.830   0.268  2.2598  0.6787  6.5813
  378SOL    HW2 1134   1.434   0.775   0.398 -0.2086  1.1393  0.2419
  379SOL     OW 1135   1.443   1.267   2.976 -0.2745  0.4181 -0.0327
  379SOL    HW1 1136   1.392   1.354   2.985 -3.1632  0.0209 -0.4108
  379SOL    HW2 1137   1.516   1.271   3.047 -0.8699  0.6446 -0.2954
  380SOL     OW 1138   2.444   2.167   2.256 -0.3512 -0.3257 -0.6282
  380SOL    HW1 1139   2.520   2.231   2.300  2.7671  0.9876 -0.3521
  380SOL    HW2 1140   2.398   2.218   2.177 -0.2198  0.2661 -0.0432
  381SOL     OW 1141   0.367   0.907   1.832 -0.0772 -0.0446 -0.4200
  381SOL    HW1 1142   0.281   0.926   1.783  0.9335  0.8855 -1.2214
  381SOL    HW2 1143   0.378   0.805   1.848  2.0754 -1.6232  0.5747
  382SOL     OW 1144   2.474   2.382   2.895  0.2095 -0.1208  0.5145
  382SOL    HW1 1145   2.464   2.468   2.838  1.6831  2.4903 -0.2484
  382SOL    HW2 1146   2.568   2.378   2.931 -0.8081  1.9782 -0.2793
  383SOL     OW 1147   2.129   1.539   2.251 -0.3945  0.1804  0.4746
  383SOL    HW1 1148   2.213   1.548   2.186  1.1042  2.3294  0.1484
  383SOL    HW2 1149   2.041   1.537   2.196 -0.8213  0.7643  1.4895
  384SOL     OW 1150   0.709   2.203   2.330  0.1090 -0.2213  0.0835
  384SOL    HW1 1151   0.760   2.156   2.255 -1.2458  0.9872 -0.0952
  384SOL    HW2 1152   0.608   2.189   2.305 -2.1979 -0.4786 -2.2140
  385SOL     OW 1153   2.621   2.271   0.949  0.2388 -0.1260  0.0342
  385SOL    HW1 1154   2.721   2.293   0.965  2.9022  2.1126 -2.4160
  385SOL    HW2 1155   2.601   2.303   0.852 -0.0015  1.9813  0.6247
  386SOL     OW 1156   1.637   0.675   0.058  0.0622 -0.2610  0.1811
  386SOL    HW1 1157   1.590   0.620   0.132  0.1895 -0.3291 -1.3171
  386SOL    HW2 1158   1.657   0.773   0.094  0.8461 -0.6776  1.3037
  387SOL     OW 1159   0.472   0.961   1.501 -0.3449 -0.1752 -0.0061
  387SOL    HW1 1160   0.371   0.945   1.500 -0.0647 -1.0296 -1.7468
  387SOL    HW2 1161   0.485   1.050   1.459  1.6084  1.3931 -0.6324
  388SOL     OW 1162   2.985   0.763   1.419  0.1805 -0.2130 -0.0843
  388SOL    HW1 1163   2.924   0.690   1.386 -0.1639  0.8712 -0.8148
  388SOL    HW2 1164   2.930   0.847   1.447 -3.3069  0.7971 -1.3947
  389SOL     OW 1165   1.846   1.036   2.471 -0.2825 -0.1007  0.4214
  389SOL    HW1 1166   1.746   1.025   2.498  2.5567 -0.7695 -0.4014
  389SOL    HW2 1167   1.891   0.947   2.474 -1.9977  1.1380 -0.8616
  390SOL     OW 1168   2.180   2.079   0.498  0.3009 -0.0371 -0.1371
  390SOL    HW1 1169   2.225   2.100   0.592 -1.1140  3.2698  3.2686
  390SOL    HW2 1170   2.116   2.003   0.503  0.7980  3.3819 -0.5223
  391SOL     OW 1171   1.215   2.623   0.728  0.3518 -0.8926  0.0383
  391SOL    HW1 1172   1.120   2.665   0.716  0.0800 -0.5915 -0.7226
  391SOL    HW2 1173   1.217   2.552   0.808 -1.1288  0.2706  2.6640
  392SOL     OW 1174   2.639   2.883   1.378  0.1783 -0.3282  0.0279
  392SOL    HW1 1175   2.660   2.788   1.409 -0.8930  0.4130  0.3590
  392SOL    HW2 1176   2.549   2.882   1.335  0.9745 -0.5590  1.3985
  393SOL     OW 1177   1.775   2.351   2.686  0.1798 -0.0766 -0.2635
  393SOL    HW1 1178   1.858   2.402   2.707  0.3667 -1.9073 -0.4106
  393SOL    HW2 1179   1.802   2.250   2.690  0.1432 -4.0455 -0.8507
  394SOL     OW 1180   0.545   2.505   2.768 -0.4991  0.0303 -0.0216
  394SOL    HW1 1181   0.635   2.548   2.796  0.6969 -2.0743 -0.0622
  394SOL    HW2 1182   0.529   2.503   2.668  0.0236 -1.7188  0.0089
  395SOL     OW 1183   0.448   1.174   1.171 -0.4796 -0.0992 -0.1918
  395SOL    HW1 1184   0.384   1.101   1.147 -0.7984  1.3759 -1.1329
  395SOL    HW2 1185   0.403   1.264   1.160 -1.7533 -1.3283 -0.4378
  396SOL     OW 1186   1.891   1.284   2.620  0.1735  0.4898  0.6889
  396SOL    HW1 1187   1.986   1.254   2.636 -0.4302 -0.0384 -0.2902
  396SOL    HW2 1188   1.843   1.213   2.566  0.2570  0.8752  1.2405
  397SOL     OW 1189   2.728   0.419   2.563  0.4729  0.3246 -0.8614
  397SOL    HW1 1190   2.684   0.328   2.550  1.1989 -0.8666  1.6535
  397SOL    HW2 1191   2.755   0.427   2.661  0.1805 -2.1076  0.4412
  398SOL     OW 1192   1.452   0.454   0.498  0.5908  0.0856 -0.2470
  398SOL    HW1 1193   1.457   0.356   0.534  1.4835 -2.0719  1.4878
  398SOL    HW2 1194   1.362   0.501   0.499  2.1104 -1.1075  3.0703
  399SOL     OW 1195   2.086   3.018   1.595 -0.1100  0.0528  0.1676
  399SOL    HW1 1196   2.013   2.985   1.525 -0.1898  0.5150 -2.3266
  399SOL    HW2 1197   2.174   2.973   1.566 -1.7164 -1.3867  0.0963
  400SOL     OW 1198   0.068   2.484   1.872  0.0813 -0.2724 -0.1512
  400SOL    HW1 1199   0.079   2.401   1.814 -2.4040 -0.6873  2.5195
  400SOL    HW2 1200   0.124   2.564   1.838 -0.8701 -1.2343 -0.2564
  401SOL     OW 1201   0.736   0.157   0.118 -0.4773 -0.7648 -0.1599
  401SOL    HW1 1202   0.732   0.058   0.133 -1.3503 -0.0098 -0.9053
  401SOL    HW2 1203   0.781   0.172   0.031 -0.7660 -0.1381 -0.4125
  402SOL     OW 1204   0.672   2.629   1.671  0.2404  0.4710 -0.7778
  402SOL    HW1 1205   0.741   2.597   1.608  1.1292 -0.2986  0.1721
  402SOL    HW2 1206   0.611   2.697   1.623 -0.0509 -0.3723  0.3774
  403SOL     OW 1207   0.145   0.940   1.692 -0.1605 -0.5358 -0.7138
  403SOL    HW1 1208   0.051   0.903   1.694 -0.0303  0.1199  1.3664
  403SOL    HW2 1209   0.172   0.968   1.598 -0.5154 -0.2492  0.8778
  404SOL     OW 1210   2.894   2.442   1.990  0.1788 -0.1543 -0.4252
  404SOL    HW1 1211   2.977   2.466   1.939  1.4666 -0.8471  3.5532
  404SOL    HW2 1212   2.818   2.420   1.925  0.7059  2.1252  1.8754
  405SOL     OW 1213   2.447   0.209   2.342 -0.1975 -0.5121  0.0507
  405SOL    HW1 1214   2.380   0.132   2.358  1.2611  0.9146  1.6466
  405SOL    HW2 1215   2.542   0.172   2.355 -1.7085  0.5253 -2.0141
  406SOL     OW 1216   1.848   2.549   0.371 -0.0573  0.3408  0.0171
  406SOL    HW1 1217   1.939   2.500   0.373 -0.7330 -1.1099 -0.3350
  406SOL    HW2 1218   1.784   2.519   0.442 -0.5953  2.6854 -0.9500
  407SOL     OW 1219   1.994   1.508   0.520 -1.3760  0.3012  0.2220
  407SOL    HW1 1220   1.953   1.456   0.443 -0.9360  0.8911  1.1259
  407SOL    HW2 1221   2.060   1.579   0.489 -0.1069 -0.1506 -0.6263
  408SOL     OW 1222   0.528   0.477   2.168  0.2101 -0.3877 -0.1885
  408SOL    HW1 1223   0.515   0.406   2.235 -0.5301 -1.8555  2.5840
  408SOL    HW2 1224   0.524   0.569   2.216  0.2972  0.1230  3.0250
  409SOL     OW 1225   2.820   1.501   0.067  1.2500 -0.2730  0.0352
  409SOL    HW1 1226   2.793   1.485   3.046 -3.0975 -0.5496 -1.3242
  409SOL    HW2 1227   2.858   1.595   0.071 -1.8031 -2.6556 -0.8081
  410SOL     OW 1228   2.032   1.706   1.386  0.0689 -0.0065 -0.4273
  410SOL    HW1 1229   2.135   1.704   1.398  0.0572  1.5695  1.2037
  410SOL    HW2 1230   1.994   1.633   1.328  2.9673  0.8232 -1.3735
  411SOL     OW 1231   2.988   0.508   0.499  0.1517  0.2237 -0.5842
  411SOL    HW1 1232   3.034   0.562   0.427 -1.1018  2.1146  0.1513
  411SOL    HW2 1233   2.890   0.527   0.501  2.3762 -0.5257  1.3097
  412SOL     OW 1234   1.573   0.235   0.061  0.4107  0.3307  0.0086
  412SOL    HW1 1235   1.624   0.311   0.100 -0.6143 -0.1207 -2.4485
  412SOL    HW2 1236   1.502   0.196   0.126 -1.5188 -1.7526  1.1449
  413SOL     OW 1237   1.324   0.535   1.591  0.4649  0.3794 -0.1842
  413SOL    HW1 1238   1.394   0.610   1.607 -0.2122  0.8527  2.1940
  413SOL    HW2 1239   1.344   0.475   1.510  0.2049  0.2210 -0.6354
  414SOL     OW 1240   0.300   1.107   0.212  0.2222 -0.0327 -0.4763
  414SOL    HW1 1241   0.328   1.016   0.182 -3.1839  1.5561  2.9649
  414SOL    HW2 1242   0.270   1.166   0.133  0.6005 -0.1115 -1.2929
  415SOL     OW 1243   0.059   1.393   0.489 -0.7718  0.1346  0.1137
  415SOL    HW1 1244   0.016   1.464   0.430 -0.0268 -0.7564 -0.8745
  415SOL    HW2 1245   0.067   1.300   0.439  1.8968 -2.4235 -2.3901
  416SOL     OW 1246   2.035   0.830   0.313  0.3085 -0.2457  0.1234
  416SOL    HW1 1247   2.034   0.927   0.333  2.5251 -1.9020 -2.3891
  416SOL    HW2 1248   1.962   0.793   0.369  0.9324  2.8568 -2.9464
  417SOL     OW 1249   2.950   0.159   0.345  0.0081  0.2282  0.1085
  417SOL    HW1 1250   2.988   0.066   0.354 -0.5436  0.8787  1.4114
  417SOL    HW2 1251   3.023   0.229   0.354 -1.3366  1.2408  0.6354
  418SOL     OW 1252   2.562   0.807   0.124  0.1865 -0.9062 -0.4538
  418SOL    HW1 1253   2.475   0.761   0.140  1.0133  4.0393  0.7449
  418SOL    HW2 1254   2.637   0.763   0.182  2.8650 -0.4853 -0.3262
  419SOL     OW 1255   0.662   0.505   0.084 -0.0829 -0.8197 -0.5418
  419SOL    HW1 1256   0.585   0.465   0.029  2.2364  0.4936 -0.2203
  419SOL    HW2 1257   0.679   0.445   0.168  0.4176  0.7821  2.2452
  420SOL     OW 1258   0.427   1.292   0.826 -0.0093 -0.0974 -0.0153
  420SOL    HW1 1259   0.376   1.206   0.842 -1.3830  0.1325  0.7121
  420SOL    HW2 1260   0.403   1.324   0.732 -1.2698 -0.1426  0.0783
  421SOL     OW 1261   0.419   1.896   0.192  0.1388 -0.0923  0.9277
  421SOL    HW1 1262   0.409   1.796   0.207  0.4579 -0.8830 -0.4346
  421SOL    HW2 1263   0.325   1.937   0.179 -2.0443 -3.4538  0.1391
  422SOL     OW 1264   2.585   0.244   1.560 -0.3415 -0.4823  0.1171
  422SOL    HW1 1265   2.484   0.254   1.554  3.2064  0.6475 -0.9772
  422SOL    HW2 1266   2.616   0.185   1.481  0.8582 -0.5392  1.1596
  423SOL     OW 1267   1.999   1.893   0.580 -0.0026 -0.0842  0.3879
  423SOL    HW1 1268   1.969   1.856   0.669 -3.3478  0.7372 -0.0706
  423SOL    HW2 1269   1.939   1.855   0.504 -1.4572 -2.3919  0.6127
  424SOL     OW 1270   1.681   1.335   0.006 -0.0009  0.0177  0.3824
  424SOL    HW1 1271   1.663   1.432   0.037 -2.2955  0.8433 -0.5610
  424SOL    HW2 1272   1.711   1.333   2.988 -1.4179 -0.3953 -1.6406
  425SOL     OW 1273   0.232   2.937   2.258  0.5322 -0.0036  0.0058
  425SOL    HW1 1274   0.294   3.002   2.306  1.8781 -0.9263 -1.9244
  425SOL    HW2 1275   0.279   2.855   2.228  1.2278 -2.0862 -0.5612
  426SOL     OW 1276   2.268   2.875   2.740  0.7413  0.7352 -0.0698
  426SOL    HW1 1277   2.339   2.944   2.735 -0.3940 -0.4019 -0.7484
  426SOL    HW2 1278   2.173   2.914   2.732 -0.6686 -0.1555 -0.9578
  427SOL     OW 1279   0.585   1.223   2.107 -0.0755  0.4868 -0.4030
  427SOL    HW1 1280   0.655   1.155   2.065  0.0814  0.1281  0.4101
  427SOL    HW2 1281   0.578   1.313   2.058 -1.4323 -0.9705  0.7716
  428SOL     OW 1282   2.409   1.329   2.169  0.3324  0.0426 -0.1669
  428SOL    HW1 1283   2.334   1.301   2.229  2.2690  1.6444  2.4645
  428SOL    HW2 1284   2.397   1.419   2.122 -0.3052 -0.2605  1.2688
  429SOL     OW 1285   2.555   0.178   0.585  0.2977  0.4855 -0.2074
  429SOL    HW1 1286   2.617   0.213   0.512  1.6953  1.7672 -1.4800
  429SOL    HW2 1287   2.561   0.075   0.590 -0.4280 -2.7095 -0.9084
  430SOL     OW 1288   1.699   1.497   2.485 -0.1034  0.2028 -0.1135
  430SOL    HW1 1289   1.688   1.505   2.385  1.7481 -1.0427  2.2922
  430SOL    HW2 1290   1.783   1.458   2.517 -1.6965  0.3497 -1.1685
  431SOL     OW 1291   2.730   1.852   1.790  0.1491  0.1047 -0.0543
  431SOL    HW1 1292   2.679   1.839   1.700 -1.1614 -1.5437 -2.4339
  431SOL    HW2 1293   2.774   1.943   1.799 -0.6174  1.6038  2.4333
  432SOL     OW 1294   1.109   2.770   2.128  0.0330  0.0259  0.1798
  432SOL    HW1 1295   1.194   2.717   2.116 -2.1006  1.4440  2.9933
  432SOL    HW2 1296   1.055   2.779   2.042 -2.1337  2.1981 -4.6348
  433SOL     OW 1297   1.357   2.842   0.875  0.4490 -0.3515  0.1499
  433SOL    HW1 1298   1.361   2.898   0.792 -1.2703  1.5811  1.2593
  433SOL    HW2 1299   1.339   2.743   0.849 -1.5251 -0.2766 -1.2363
  434SOL     OW 1300   0.480   2.325   2.052  0.6613 -0.1908 -0.1383
  434SOL    HW1 1301   0.534   2.301   1.972  2.0038 -0.5338 -2.1267
  434SOL    HW2 1302   0.474   2.251   2.125  1.7403 -0.1088  0.7573
  435SOL     OW 1303   0.354   1.435   0.588  0.3800  0.7315 -0.1850
  435SOL    HW1 1304   0.401   1.355   0.546  1.1425 -1.5732  0.1978
  435SOL    HW2 1305   0.263   1.444   0.543  1.2010  1.9694 -1.6273
  436SOL     OW 1306   3.042   1.489   1.748  0.1699  0.8218  0.5269
  436SOL    HW1 1307   3.022   1.577   1.788  0.1438 -1.0481 -2.3810
  436SOL    HW2 1308   3.036   1.495   1.648  0.2861  3.9590 -0.9467
  437SOL     OW 1309   1.209   0.526   0.259 -0.1568  0.1357  0.3233
  437SOL    HW1 1310   1.109   0.531   0.266  0.1836 -1.7429  2.2513
  437SOL    HW2 1311   1.259   0.599   0.307 -0.2793  1.2432 -0.2916
  438SOL     OW 1312   0.429   1.861   1.154 -0.2940  0.4869  0.2151
  438SOL    HW1 1313   0.326   1.867   1.147  1.4026 -0.6744 -1.2294
  438SOL    HW2 1314   0.457   1.865   1.250  0.0714 -2.5868 -2.5813
  439SOL     OW 1315   1.732   1.758   2.623 -0.0726 -0.3550  0.2690
  439SOL    HW1 1316   1.706   1.662   2.606  1.4964 -0.2213  1.4563
  439SOL    HW2 1317   1.793   1.760   2.704 -1.7617 -3.2259  1.8014
  440SOL     OW 1318   1.459   0.429   1.086  0.0095 -0.6349  0.2735
  440SOL    HW1 1319   1.393   0.374   1.140  1.8581 -1.3574 -0.2265
  440SOL    HW2 1320   1.436   0.429   0.986 -0.1443  2.8715 -2.5293
  441SOL     OW 1321   0.800   2.966   1.553  0.4355  0.7020  0.3346
  441SOL    HW1 1322   0.702   2.982   1.525  0.3754 -0.9456  1.9778
  441SOL    HW2 1323   0.816   3.003   1.648  2.0566 -2.2431  1.2093
  442SOL     OW 1324   2.346   2.195   0.753 -0.1538 -0.1439  0.4109
  442SOL    HW1 1325   2.424   2.252   0.767 -2.2779  0.0866  1.5674
  442SOL    HW2 1326   2.257   2.226   0.795  1.0405  1.7537 -0.2884
  443SOL     OW 1327   2.774   0.521   2.270 -0.1455 -0.5106  0.2347
  443SOL    HW1 1328   2.685   0.545   2.222 -0.1031 -1.2387  0.6791
  443SOL    HW2 1329   2.749   0.506   2.369 -0.9788  2.6739  0.5271
  444SOL     OW 1330   1.570   1.026   2.233 -0.0756 -0.1283 -0.2092
  444SOL    HW1 1331   1.669   1.007   2.211  0.6980 -0.0842 -1.3035
  444SOL    HW2 1332   1.523   1.062   2.152  0.6557 -1.0787  0.7157
  445SOL     OW 1333   2.660   2.160   1.623 -0.3307  0.4009 -0.3578
  445SOL    HW1 1334   2.688   2.216   1.706  1.3944  0.4968  1.9305
  445SOL    HW2 1335   2.568   2.192   1.590  1.1342 -2.3971  1.3713
  446SOL     OW 1336   0.209   1.094   0.763  0.3254  0.3048  0.4937
  446SOL    HW1 1337   0.291   1.044   0.730 -0.4695  0.7985  0.7041
  446SOL    HW2 1338   0.133   1.025   0.786 -1.0954 -1.6776 -1.3410
  447SOL     OW 1339   0.616   2.006   0.702 -0.0141 -0.9281 -0.2363
  447SOL    HW1 1340   0.582   2.037   0.797  0.8592  1.0534  1.7624
  447SOL    HW2 1341   0.589   1.911   0.674  1.4170 -1.9160  1.0176
  448SOL     OW 1342   1.338   1.331   1.540 -0.0760  0.2872  0.0816
  448SOL    HW1 1343   1.258   1.326   1.607  0.4953 -0.2490  1.1564
  448SOL    HW2 1344   1.310   1.276   1.459  0.5410  0.9981 -2.0256
  449SOL     OW 1345   0.373   1.744   2.928  0.2096  0.6625 -0.6199
  449SOL    HW1 1346   0.378   1.650   2.887  2.8827 -3.4623 -1.8927
  449SOL    HW2 1347   0.450   1.768   2.988  0.6502  0.0127  0.0525
  450SOL     OW 1348   2.301   2.279   2.062 -0.0091  0.1753  0.1496
  450SOL    HW1 1349   2.203   2.304   2.068  0.5807 -0.5837  0.2181
  450SOL    HW2 1350   2.354   2.325   1.984 -2.4090 -0.8952  2.2824
  451SOL     OW 1351   2.361   0.505   1.725 -0.0731 -0.4965  0.1651
  451SOL    HW1 1352   2.286   0.437   1.737 -0.6114  1.9727  0.5748
  451SOL    HW2 1353   2.336   0.573   1.654  4.0682  1.9022  0.5610
  452SOL     OW 1354   0.782   2.633   1.265 -0.3911 -0.0451  0.3277
  452SOL    HW1 1355   0.702   2.693   1.244 -0.1155  0.4093 -5.7175
  452SOL    HW2 1356   0.861   2.699   1.260 -2.0564  0.7555  0.3282
  453SOL     OW 1357   0.872   1.278   0.899 -0.2981  0.2284 -0.2170
  453SOL    HW1 1358   0.803   1.348   0.874  0.1734 -1.2187 -0.4749
  453SOL    HW2 1359   0.832   1.219   0.972  0.7268  3.1064  0.2911
  454SOL     OW 1360   2.857   1.120   0.707  0.0910  0.4444  0.0575
  454SOL    HW1 1361   2.828   1.045   0.770 -0.6704  2.0408  0.4336
  454SOL    HW2 1362   2.944   1.165   0.730  0.0371 -0.9244 -1.9887
  455SOL     OW 1363   0.387   0.200   0.196 -0.1207  0.0595 -0.5306
  455SOL    HW1 1364   0.296   0.229   0.164 -0.9487 -0.9498  1.0482
  455SOL    HW2 1365   0.425   0.280   0.241 -0.2998  0.9265 -1.7085
  456SOL     OW 1366   2.312   2.481   0.570  0.1577  0.3906  0.3412
  456SOL    HW1 1367   2.350   2.548   0.642 -2.2335 -1.5467 -1.9914
  456SOL    HW2 1368   2.287   2.394   0.623 -0.4852 -1.2077 -1.9073
  457SOL     OW 1369   1.208   2.718   0.032 -0.2721 -0.1867 -0.6563
  457SOL    HW1 1370   1.160   2.804   0.011  2.0278  1.7814  3.9477
  457SOL    HW2 1371   1.289   2.698   3.055 -1.2296 -1.0376  0.9635
  458SOL     OW 1372   2.940   2.756   0.148 -0.7070 -0.0258  0.1814
  458SOL    HW1 1373   2.863   2.814   0.115  0.3799  2.5834 -2.7931
  458SOL    HW2 1374   2.987   2.703   0.067  2.1824 -1.6777 -3.0404
  459SOL     OW 1375   2.558   0.350   1.906 -0.3727  0.3657 -0.5655
  459SOL    HW1 1376   2.480   0.326   1.963  2.3787 -1.2123 -1.2098
  459SOL    HW2 1377   2.520   0.397   1.820 -1.1782  3.2803  1.1327
  460SOL     OW 1378   0.022   0.643   0.278  0.3219 -0.0948  0.6119
  460SOL    HW1 1379   0.014   0.734   0.234 -0.1382  0.6855 -0.0760
  460SOL    HW2 1380   3.046   0.583   0.222 -0.8482  0.5875  2.6958
  461SOL     OW 1381   0.093   1.753   1.358 -0.0703  0.4945  0.2079
  461SOL    HW1 1382   3.074   1.720   1.357 -0.5331 -0.7131  1.1975
  461SOL    HW2 1383   0.108   1.815   1.280 -0.4065  1.4498 -1.3448
  462SOL     OW 1384   2.841   2.798   0.848  0.4446  0.0317 -0.2701
  462SOL    HW1 1385   2.918   2.827   0.791 -1.9727 -1.1400  1.3141
  462SOL    HW2 1386   2.814   2.880   0.901  2.2131  2.5481  1.0163
  463SOL     OW 1387   2.852   1.092   0.087 -0.1872  0.0048 -0.2290
  463SOL    HW1 1388   2.835   1.102   3.060  0.7907 -0.6357 -0.4757
  463SOL    HW2 1389   2.904   1.173   0.121 -1.5232 -1.6565  0.7915
  464SOL     OW 1390   0.500   2.333   1.320 -0.1022  0.2472  0.2217
  464SOL    HW1 1391   0.457   2.413   1.360 -1.0848 -1.1973 -3.0838
  464SOL    HW2 1392   0.588   2.308   1.374  0.5912  0.4877  1.4176
  465SOL     OW 1393   0.775   0.445   1.118 -0.1107 -0.3533 -0.0258
  465SOL    HW1 1394   0.851   0.416   1.056 -2.0677 -1.1662 -0.1834
  465SOL    HW2 1395   0.699   0.494   1.069 -3.1500 -0.8849  0.8848
  466SOL     OW 1396   1.487   2.612   2.215  0.3625  0.1976  0.4918
  466SOL    HW1 1397   1.559   2.563   2.271 -0.2873  2.6905 -0.8926
  466SOL    HW2 1398   1.503   2.710   2.231 -1.8929 -0.2047  0.5854
  467SOL     OW 1399   0.969   0.560   1.901  0.1827 -0.3221 -0.1250
  467SOL    HW1 1400   1.055   0.549   1.958 -0.3481 -1.3371  1.7001
  467SOL    HW2 1401   0.891   0.541   1.964  0.3797  1.0490  0.5488
  468SOL     OW 1402   0.331   0.896   2.230 -0.3732 -0.2630 -0.2514
  468SOL    HW1 1403   0.316   0.963   2.151 -1.9487  1.0944 -1.2110
  468SOL    HW2 1404   0.263   0.820   2.240  1.0728 -1.2977 -1.8127
  469SOL     OW 1405   0.851   2.093   0.627  0.4129 -0.0271  0.0691
  469SOL    HW1 1406   0.854   2.198   0.643  2.3011  3.7008 -0.8802
  469SOL    HW2 1407   0.756   2.052   0.631 -1.7032  0.4424  0.3698
  470SOL     OW 1408   2.306   1.823   2.121 -0.2449 -0.1391  0.2667
  470SOL    HW1 1409   2.343   1.900   2.062 -0.2491  0.6997 -1.2180
  470SOL    HW2 1410   2.206   1.824   2.129  1.4195  1.4940  1.2256
  471SOL     OW 1411   1.109   0.375   2.610  0.4807  0.4196  0.0323
  471SOL    HW1 1412   1.131   0.349   2.705 -0.0137 -0.6585 -1.3149
  471SOL    HW2 1413   1.192   0.368   2.554 -1.9374  1.6597  0.8941
  472SOL     OW 1414   0.522   2.629   1.930  0.1894 -0.4846 -0.5875
  472SOL    HW1 1415   0.563   2.610   2.018 -1.2091 -1.5733 -0.8534
  472SOL    HW2 1416   0.584   2.601   1.852 -1.1710  0.7526 -2.2526
  473SOL     OW 1417   0.932   3.051   2.614  0.7783  0.0655 -0.2825
  473SOL    HW1 1418   0.860   0.041   2.645 -1.6168  1.5400 -1.0948
  473SOL    HW2 1419   0.900   3.004   2.530  0.2948  0.6005 -0.8785
  474SOL     OW 1420   1.586   0.105   1.002 -0.2060  0.4237  0.2229
  474SOL    HW1 1421   1.514   0.158   1.054 -3.2612 -1.6123 -0.9218
  474SOL    HW2 1422   1.680   0.127   1.042  2.3459  1.0641  2.6095
  475SOL     OW 1423   1.588   0.633   1.218 -0.1037  0.4761 -0.4707
  475SOL    HW1 1424   1.570   0.726   1.182  0.4920  2.3433 -2.4082
  475SOL    HW2 1425   1.537   0.568   1.159  0.9699  1.6276  1.2880
  476SOL     OW 1426   0.446   0.838   1.000 -0.1636  0.2272  0.4091
  476SOL    HW1 1427   0.353   0.869   1.035 -1.6040  0.0815 -0.0090
  476SOL    HW2 1428   0.495   0.905   0.941 -1.4695  2.1790 -0.2246
  477SOL     OW 1429   1.056   2.208   0.881 -0.1131 -0.2304 -0.5226
  477SOL    HW1 1430   1.071   2.243   0.789  1.6418  1.0471  2.7965
  477SOL    HW2 1431   1.038   2.283   0.951 -0.9488  2.4518  0.5575
  478SOL     OW 1432   0.146   2.620   2.200 -0.4334 -0.9345  0.2493
  478SOL    HW1 1433   0.148   2.683   2.122 -3.5067  1.2801  2.7482
  478SOL    HW2 1434   0.190   2.535   2.162  0.9031  0.7862 -0.8898
  479SOL     OW 1435   2.605   0.671   1.078  0.1961 -0.6317 -0.3113
  479SOL    HW1 1436   2.622   0.729   0.995 -0.2255 -0.4762 -1.6321
  479SOL    HW2 1437   2.561   0.585   1.050 -1.7752 -0.3583  0.9545
  480SOL     OW 1438   0.211   2.288   0.475 -0.5088  0.0990 -0.3209
  480SOL    HW1 1439   0.202   2.277   0.372  0.6368 -0.4983 -1.1230
  480SOL    HW2 1440   0.288   2.235   0.514 -2.7949  1.1723  1.2358
  481SOL     OW 1441   2.141   2.244   1.725  0.0245  0.1827  0.0004
  481SOL    HW1 1442   2.071   2.229   1.799  0.4859  1.4354  1.9744
  481SOL    HW2 1443   2.123   2.182   1.650  2.7830  2.0385  0.8343
  482SOL     OW 1444   1.385   2.409   2.787  0.0428 -0.0227 -0.3277
  482SOL    HW1 1445   1.452   2.439   2.851 -1.5401 -4.0533 -3.0234
  482SOL    HW2 1446   1.402   2.311   2.759  2.7005 -3.0628 -0.3182
  483SOL     OW 1447   0.853   1.894   1.770  0.3005 -0.6721  0.2656
  483SOL    HW1 1448   0.947   1.875   1.798 -1.4157  1.9406  0.6405
  483SOL    HW2 1449   0.798   1.809   1.785  0.9401  0.2114 -0.2383
  484SOL     OW 1450   0.785   0.260   1.293 -0.0366 -0.3239  0.3066
  484SOL    HW1 1451   0.807   0.304   1.380 -0.9180  1.7606  1.3831
  484SOL    HW2 1452   0.751   0.332   1.230  1.2007 -0.6680  0.5821
  485SOL     OW 1453   2.387   1.075   0.207 -0.0132 -0.3406  0.3984
  485SOL    HW1 1454   2.487   1.061   0.229  1.8031  0.0039  1.1301
  485SOL    HW2 1455   2.326   0.989   0.209 -1.1303 -0.1103 -3.0447
  486SOL     OW 1456   1.927   0.340   1.369 -0.2965 -0.1385  0.0322
  486SOL    HW1 1457   1.944   0.306   1.462  1.7626 -0.6702  0.4799
  486SOL    HW2 1458   1.826   0.343   1.352 -0.1123  1.5422  2.9373
  487SOL     OW 1459   0.354   2.089   1.412 -0.3367 -0.4508 -0.3079
  487SOL    HW1 1460   0.397   2.179   1.391 -2.9475  0.3039  1.0792
  487SOL    HW2 1461   0.425   2.018   1.417  0.0007  2.7803  1.6053
  488SOL     OW 1462   2.190   2.418   2.964 -0.5519 -0.2431  0.3479
  488SOL    HW1 1463   2.169   2.320   2.948  3.0091 -2.0339  0.8271
  488SOL    HW2 1464   2.281   2.433   2.921 -3.3416 -1.6348 -0.3637
  489SOL     OW 1465   1.843   2.995   0.645  0.4453 -0.9085 -0.1606
  489SOL    HW1 1466   1.871   2.898   0.647 -1.8864 -2.5972 -1.0527
  489SOL    HW2 1467   1.875   3.044   0.558  1.1506  0.5828  0.6555
  490SOL     OW 1468   1.092   2.282   2.850 -0.5590  0.6824  0.3587
  490SOL    HW1 1469   1.144   2.216   2.908 -0.2709  0.6861  1.4622
  490SOL    HW2 1470   1.114   2.377   2.876 -0.5973 -0.2301  0.7251
  491SOL     OW 1471   0.511   1.883   1.425 -0.0462 -0.2573  0.0751
  491SOL    HW1 1472   0.488   1.815   1.494  0.2597  2.2418 -1.5194
  491SOL    HW2 1473   0.613   1.897   1.427  0.3991 -0.2821  1.1328
  492SOL     OW 1474   1.026   1.126   1.887  0.1398  0.4745 -0.3546
  492SOL    HW1 1475   1.021   1.026   1.852 -1.0169 -2.1831  1.2974
  492SOL    HW2 1476   0.980   1.184   1.823 -1.2134  1.2689 -0.0090
  493SOL     OW 1477   2.447   1.882   1.006  0.1061  0.0558  0.0743
  493SOL    HW1 1478   2.547   1.874   0.994 -0.8133  1.5581  1.2826
  493SOL    HW2 1479   2.418   1.816   1.076  1.3049  0.9861 -1.6981
  494SOL     OW 1480   2.955   1.893   1.103 -0.2406 -0.0980  0.0092
  494SOL    HW1 1481   2.874   1.932   1.061  3.1604 -2.3829 -2.7044
  494SOL    HW2 1482   2.929   1.822   1.180 -2.3503 -0.5036  2.9028
  495SOL     OW 1483   2.426   2.661   0.737 -0.0324 -0.3866 -0.5559
  495SOL    HW1 1484   2.521   2.634   0.741 -0.5603  1.1003 -1.5204
  495SOL    HW2 1485   2.371   2.626   0.811  0.2197  4.3944  0.9068
  496SOL     OW 1486   2.400   0.131   1.278 -0.6544  0.2285  0.1452
  496SOL    HW1 1487   2.500   0.152   1.279  0.2753 -0.6839  0.6185
  496SOL    HW2 1488   2.350   0.182   1.352  0.5301 -1.9276 -1.1667
  497SOL     OW 1489   2.358   1.113   2.830 -0.0225  0.0878  0.1734
  497SOL    HW1 1490   2.453   1.137   2.798 -0.9780  1.0387 -0.8687
  497SOL    HW2 1491   2.327   1.014   2.842 -2.3575 -1.2345  0.1037
  498SOL     OW 1492   3.037   2.071   1.497  0.3715  0.3168 -0.1689
  498SOL    HW1 1493   0.019   2.000   1.536 -0.8520 -0.4280 -0.4900
  498SOL    HW2 1494   2.946   2.025   1.470 -1.2312  0.4007 -0.9991
  499SOL     OW 1495   1.098   2.165   2.227  0.0145 -0.4338  0.2481
  499SOL    HW1 1496   1.103   2.268   2.209  2.1067  1.5906  0.7243
  499SOL    HW2 1497   1.096   2.140   2.325 -2.1233 -1.8550 -0.3671
  500SOL     OW 1498   1.084   1.673   0.517  0.1901 -0.2145 -0.0056
  500SOL    HW1 1499   1.008   1.725   0.562  2.7281  0.3547  0.0677
  500SOL    HW2 1500   1.108   1.583   0.561  1.3603  0.5449  0.4749
  501SOL     OW 1501   1.724   2.936   1.629  0.1920  0.4421  0.3857
  501SOL    HW1 1502   1.783   2.950   1.546 -0.0309 -2.5850 -0.4182
  501SOL    HW2 1503   1.625   2.942   1.597  0.3563 -1.3991 -0.6481
  502SOL     OW 1504   2.675   0.477   1.633  0.6014  0.2038  0.6707
  502SOL    HW1 1505   2.747   0.453   1.699  2.2936  1.4401 -0.2686
  502SOL    HW2 1506   2.633   0.391   1.597  0.2796  2.4648  2.8254
  503SOL     OW 1507   2.661   1.339   2.292 -0.1792  0.8887 -0.1445
  503SOL    HW1 1508   2.706   1.428   2.260  0.8898  0.4396 -1.8813
  503SOL    HW2 1509   2.579   1.332   2.232  1.9143 -1.6456  0.7524
  504SOL     OW 1510   1.581   1.226   1.549  0.4380  0.5350 -0.5857
  504SOL    HW1 1511   1.548   1.144   1.499  0.6684 -0.2137 -0.0101
  504SOL    HW2 1512   1.508   1.297   1.557  3.2919  2.4992 -0.5005
  505SOL     OW 1513   0.571   3.072   1.487  0.1110  0.0252  0.9309
  505SOL    HW1 1514   0.549   0.057   1.563 -0.0620 -0.4261  0.2436
  505SOL    HW2 1515   0.533   0.021   1.397  1.2796 -2.7280  0.4442
  506SOL     OW 1516   0.117   0.321   0.116 -0.2500  0.2348  0.6630
  506SOL    HW1 1517   0.175   0.391   0.070  1.5415  1.1712  1.3530
  506SOL    HW2 1518   0.087   0.242   0.056 -0.4304 -3.2143  1.6105
  507SOL     OW 1519   3.006   2.557   2.922 -0.1238  0.3484 -0.1138
  507SOL    HW1 1520   2.938   2.540   2.843 -0.3077  0.8311  0.9584
  507SOL    HW2 1521   3.016   2.473   2.977 -1.7711 -0.6451  0.2375
  508SOL     OW 1522   1.221   0.542   2.003 -0.0233 -0.4313  0.4861
  508SOL    HW1 1523   1.275   0.474   1.945  0.8334  0.6820 -1.9906
  508SOL    HW2 1524   1.250   0.556   2.098 -1.6097 -0.9530 -1.1278
  509SOL     OW 1525   1.689   1.936   1.206 -0.4787  0.1527  0.1452
  509SOL    HW1 1526   1.756   1.950   1.277  0.0260  1.3643 -1.7342
  509SOL    HW2 1527   1.600   1.907   1.244  0.5643  0.3658 -0.2601
  510SOL     OW 1528   2.615   0.933   1.516  0.2057 -0.0751  0.2972
  510SOL    HW1 1529   2.621   0.865   1.591 -1.0621  0.6466 -1.1528
  510SOL    HW2 1530   2.547   1.002   1.540  3.0642  0.1680 -0.5079
  511SOL     OW 1531   1.069   1.881   1.196  0.5695 -0.1906  0.1290
  511SOL    HW1 1532   1.010   1.953   1.151  1.5741  1.5460 -1.3776
  511SOL    HW2 1533   1.097   1.909   1.283  0.5065 -2.9737 -5.7965
  512SOL     OW 1534   3.038   1.591   0.321 -0.3057 -0.0678  0.2643
  512SOL    HW1 1535   2.952   1.589   0.378 -0.8059 -1.9542 -0.0855
  512SOL    HW2 1536   3.022   1.660   0.251  2.2409 -2.6450 -0.1042
  513SOL     OW 1537   0.166   1.276   0.033 -0.2759  0.5194 -0.0189
  513SOL    HW1 1538   0.140   1.359   0.084  0.6531 -0.0846  1.4742
  513SOL    HW2 1539   0.111   1.269   3.028  0.6809  1.8290  0.0476
  514SOL     OW 1540   2.061   2.054   2.155  0.3277 -0.0613  0.1821
  514SOL    HW1 1541   2.115   2.118   2.213  2.2820 -2.8358 -1.4018
  514SOL    HW2 1542   2.035   1.971   2.214  0.2299  1.0860  0.9756
  515SOL     OW 1543   2.490   0.956   0.634 -0.3682  0.3944 -0.3245
  515SOL    HW1 1544   2.463   0.898   0.555 -0.2155 -0.6475 -1.2166
  515SOL    HW2 1545   2.537   1.039   0.607  2.3469 -0.4499  1.3982
  516SOL     OW 1546   2.375   2.759   0.235 -0.3123 -0.2681  0.6110
  516SOL    HW1 1547   2.356   2.726   0.138  0.7338  0.9333  0.1002
  516SOL    HW2 1548   2.436   2.694   0.280  0.9769 -0.8932 -0.5600
  517SOL     OW 1549   0.846   1.655   2.680 -0.0570 -0.6188  0.5770
  517SOL    HW1 1550   0.910   1.598   2.630 -2.1709  0.3682 -0.1440
  517SOL    HW2 1551   0.882   1.747   2.698  0.5432  0.3639  1.4587
  518SOL     OW 1552   0.167   0.234   2.030  0.2788 -0.2575 -0.3108
  518SOL    HW1 1553   0.238   0.168   2.005 -0.3961 -0.1657  0.4318
  518SOL    HW2 1554   0.102   0.243   1.953  0.4485  1.5282 -0.4854
  519SOL     OW 1555   1.169   1.124   0.058  0.0771  0.1183 -0.3233
  519SOL    HW1 1556   1.104   1.051   0.097 -3.5497 -1.3182  2.1371
  519SOL    HW2 1557   1.229   1.084   3.067 -0.2254  0.1665  0.0513
  520SOL     OW 1558   2.635   2.497   2.145  0.3440 -0.2843 -0.1473
  520SOL    HW1 1559   2.697   2.577   2.170  1.1032  2.8779 -0.6077
  520SOL    HW2 1560   2.536   2.520   2.155  1.2774  1.7597 -2.5572
  521SOL     OW 1561   0.426   1.883   2.002  0.0646  0.6310 -0.4101
  521SOL    HW1 1562   0.425   1.948   2.080 -0.1622 -1.6954 -1.9337
  521SOL    HW2 1563   0.453   1.924   1.913  0.1904  1.3157  3.1928
  522SOL     OW 1564   1.425   2.916   1.780 -0.3781 -0.0263  0.1406
  522SOL    HW1 1565   1.361   2.834   1.790 -0.2141 -1.3544  0.2047
  522SOL    HW2 1566   1.437   2.939   1.683  0.8484 -2.5351 -4.7742
  523SOL     OW 1567   1.967   2.286   1.360 -0.3643 -0.1778  0.2612
  523SOL    HW1 1568   2.012   2.357   1.311 -1.6577 -1.3274 -1.5405
  523SOL    HW2 1569   2.024   2.252   1.436 -0.4249  0.6117 -3.5865
  524SOL     OW 1570   0.841   2.366   0.664 -0.0372 -0.2433 -0.2314
  524SOL    HW1 1571   0.794   2.436   0.724  0.0806 -1.2273  0.3585
  524SOL    HW2 1572   0.915   2.416   0.607  0.4215  1.2973  2.8665
  525SOL     OW 1573   2.714   0.536   0.459  0.4289 -0.2460  0.2205
  525SOL    HW1 1574   2.647   0.562   0.536 -0.2763 -0.2941  2.5687
  525SOL    HW2 1575   2.729   0.437   0.438  1.8957  2.2631 -1.3616
  526SOL     OW 1576   0.940   3.054   0.509  0.2444  0.1734  0.6270
  526SOL    HW1 1577   0.916   3.034   0.610  0.4590  0.5041  1.0553
  526SOL    HW2 1578   1.024   2.998   0.481  0.4786  0.7284 -2.0248
  527SOL     OW 1579   1.836   1.455   0.974 -0.2975 -0.3222 -0.2571
  527SOL    HW1 1580   1.759   1.394   0.960  0.9929  1.3648  0.5987
  527SOL    HW2 1581   1.862   1.510   0.892 -0.0638 -1.9641  1.8944
  528SOL     OW 1582   2.639   2.313   2.354  0.1190 -0.1895  0.5768
  528SOL    HW1 1583   2.645   2.372   2.271  0.0451  3.0395  2.5788
  528SOL    HW2 1584   2.731   2.283   2.375 -2.2178 -0.9932  1.4999
  529SOL     OW 1585   0.962   1.506   2.424 -0.4489 -0.1419 -0.4414
  529SOL    HW1 1586   0.877   1.448   2.390 -0.9493  0.5172 -0.4015
  529SOL    HW2 1587   0.964   1.604   2.389  0.4420  2.7265 -1.5163
  530SOL     OW 1588   1.675   0.670   2.833  0.2367 -0.1713  0.4529
  530SOL    HW1 1589   1.777   0.664   2.807  2.4726 -1.0019 -0.9226
  530SOL    HW2 1590   1.671   0.711   2.924  0.4903 -0.1154 -0.5563
  531SOL     OW 1591   0.395   0.835   0.430 -0.2752 -0.1308  0.1448
  531SOL    HW1 1592   0.369   0.887   0.508 -1.8507 -1.1836 -0.0534
  531SOL    HW2 1593   0.351   0.882   0.348 -1.5117  1.6286  0.0565
  532SOL     OW 1594   1.585   1.067   0.783  0.7754 -0.7036  0.3602
  532SOL    HW1 1595   1.562   0.970   0.797 -0.5479  0.1689 -0.0934
  532SOL    HW2 1596   1.504   1.128   0.754  0.4529  3.8636 -1.5281
  533SOL     OW 1597   0.458   0.287   2.346  0.0050 -0.1240 -0.1627
  533SOL    HW1 1598   0.499   0.224   2.276  1.5192 -1.0796 -0.3962
  533SOL    HW2 1599   0.483   0.249   2.437  0.1169 -0.6339  1.7574
  534SOL     OW 1600   0.728   0.063   2.767 -0.4347  0.1128 -0.6884
  534SOL    HW1 1601   0.798   0.081   2.844  0.9081 -0.6024  2.5444
  534SOL    HW2 1602   0.642   0.026   2.806 -0.6453  1.0651 -0.5914
  535SOL     OW 1603   0.462   0.362   3.015 -0.5516 -0.4130  0.3009
  535SOL    HW1 1604   0.388   0.430   3.038 -2.2118  0.8954  0.3841
  535SOL    HW2 1605   0.430   0.265   3.023 -0.3975 -1.6485  0.0235
  536SOL     OW 1606   0.555   0.750   2.266  0.2681  0.3777 -0.5203
  536SOL    HW1 1607   0.473   0.806   2.260  1.5698 -1.2029 -0.5615
  536SOL    HW2 1608   0.635   0.778   2.206  2.4337 -1.7642  2.9623
  537SOL     OW 1609   1.341   0.189   1.133  0.1339 -0.1984 -0.7650
  537SOL    HW1 1610   1.276   0.112   1.158 -0.4581  1.5777 -0.0140
  537SOL    HW2 1611   1.319   0.211   1.039 -1.1322 -1.5235  1.0281
  538SOL     OW 1612   0.859   1.774   0.084 -0.1314  0.3488 -0.8846
  538SOL    HW1 1613   0.897   1.865   0.118 -0.5228 -1.0693 -0.4517
  538SOL    HW2 1614   0.912   1.751   3.078 -0.8561 -0.7519 -0.7802
  539SOL     OW 1615   2.455   1.346   1.779  0.2136  0.0994 -0.2819
  539SOL    HW1 1616   2.556   1.349   1.784  0.9884  0.5660  0.0573
  539SOL    HW2 1617   2.408   1.433   1.780  1.5911 -2.4276 -2.6046
  540SOL     OW 1618   1.673   1.712   1.723 -0.1660 -0.0950 -0.0524
  540SOL    HW1 1619   1.636   1.736   1.629 -1.0760  1.3018  1.8162
  540SOL    HW2 1620   1.740   1.785   1.752  2.6915  0.0302  1.4126
  541SOL     OW 1621   0.806   1.275   1.707  0.0833  0.3760  0.4307
  541SOL    HW1 1622   0.715   1.323   1.708  0.4516  0.7008 -1.8171
  541SOL    HW2 1623   0.809   1.197   1.635  0.5249 -2.1363 -0.3801
  542SOL     OW 1624   1.836   0.773   2.288  0.3404  0.5372  0.4149
  542SOL    HW1 1625   1.875   0.867   2.271  1.8539  1.6155  1.3140
  542SOL    HW2 1626   1.808   0.723   2.204 -0.0002  0.5992  0.9335
  543SOL     OW 1627   0.985   0.758   0.442 -0.5010  0.0150 -0.0945
  543SOL    HW1 1628   0.960   0.849   0.408 -1.2556 -1.1484 -0.7608
  543SOL    HW2 1629   0.956   0.686   0.374 -0.8688 -0.4449  1.0433
  544SOL     OW 1630   2.375   1.838   2.387 -0.2091 -0.2578  0.1847
  544SOL    HW1 1631   2.348   1.822   2.292  0.9718  0.7332  1.9883
  544SOL    HW2 1632   2.443   1.911   2.407 -1.1736  2.7449  0.6655
  545SOL     OW 1633   1.828   2.129   1.640  0.2175 -0.1348  0.1600
  545SOL    HW1 1634   1.904   2.105   1.580 -1.0401 -1.8642  2.6505
  545SOL    HW2 1635   1.838   2.222   1.683 -3.0641 -0.2624  0.2302
  546SOL     OW 1636   0.287   0.147   2.925 -0.5131  0.4316 -0.0132
  546SOL    HW1 1637   0.279   0.228   2.857  1.5205 -2.6997  0.2261
  546SOL    HW2 1638   0.368   0.093   2.896 -1.0950  1.1204 -0.7584
  547SOL     OW 1639   2.298   0.891   3.002  0.3450 -0.1184 -0.2459
  547SOL    HW1 1640   2.219   0.894   3.072 -2.6795  0.4536  0.0085
  547SOL    HW2 1641   2.335   0.798   3.010 -1.5921 -0.0180 -1.4173
  548SOL     OW 1642   2.063   1.817   2.307  0.3538 -0.2928 -0.3381
  548SOL    HW1 1643   2.119   1.732   2.301  1.4733 -1.6661  0.9427
  548SOL    HW2 1644   1.966   1.789   2.319  4.2464  2.3254 -1.3090
  549SOL     OW 1645   2.074   0.323   0.710 -0.3322  0.5677  0.2911
  549SOL    HW1 1646   2.090   0.231   0.746  1.7808  0.0787  0.9283
  549SOL    HW2 1647   2.157   0.375   0.688  0.4655  0.9143 -0.5419
  550SOL     OW 1648   2.300   1.766   0.621  0.5904  1.1024  0.1635
  550SOL    HW1 1649   2.257   1.789   0.531 -3.9108  2.6878 -1.6038
  550SOL    HW2 1650   2.270   1.833   0.688 -1.1591 -0.1645 -2.9663
  551SOL     OW 1651   1.355   0.371   1.816  0.5824 -0.1068 -0.1253
  551SOL    HW1 1652   1.294   0.294   1.831 -0.8315  0.2854  1.4972
  551SOL    HW2 1653   1.344   0.411   1.725  1.2139  0.4266  1.3681
  552SOL     OW 1654   0.100   2.310   2.334  0.1887  0.0948  0.1962
  552SOL    HW1 1655   0.140   2.332   2.241 -0.3078  0.7949 -1.1689
  552SOL    HW2 1656   0.183   2.307   2.393  1.9423 -1.4733  0.7403
  553SOL     OW 1657   0.871   2.578   0.281  0.2000  0.2168  0.6433
  553SOL    HW1 1658   0.774   2.590   0.311 -3.0146 -0.1842  1.2501
  553SOL    HW2 1659   0.878   2.502   0.209  1.4926 -2.3872 -0.6853
  554SOL     OW 1660   1.838   2.418   1.729  0.2824 -0.3367 -0.2563
  554SOL    HW1 1661   1.822   2.515   1.710  1.3744  0.3326 -1.3832
  554SOL    HW2 1662   1.815   2.402   1.828 -1.9702 -0.5628 -0.8927
  555SOL     OW 1663   1.239   2.072   1.915 -0.3453  0.6173 -0.0792
  555SOL    HW1 1664   1.253   2.171   1.903 -0.0233 -4.7594  3.2631
  555SOL    HW2 1665   1.141   2.039   1.903 -4.0133  1.5940  1.2341
  556SOL     OW 1666   1.343   1.624   1.141 -0.4813  0.2160 -0.2788
  556SOL    HW1 1667   1.373   1.532   1.099  1.0990 -0.3579  0.5899
  556SOL    HW2 1668   1.246   1.641   1.105 -2.9375  1.7437 -0.2046
  557SOL     OW 1669   1.640   2.094   1.896  0.0206 -0.1506  0.7184
  557SOL    HW1 1670   1.625   2.144   1.981 -0.5277 -0.4675 -0.8099
  557SOL    HW2 1671   1.563   2.032   1.876  0.9239  1.6100 -0.7722
  558SOL     OW 1672   0.525   0.154   1.708  0.1959  0.0554  0.1214
  558SOL    HW1 1673   0.473   0.128   1.792  0.5298  1.5637 -0.9118
  558SOL    HW2 1674   0.605   0.216   1.725  1.2553  2.8822 -0.3718
  559SOL     OW 1675   2.423   2.927   1.251  0.3114 -0.3340 -0.1161
  559SOL    HW1 1676   2.416   2.898   1.152 -1.8266 -0.7084 -0.1464
  559SOL    HW2 1677   2.420   3.025   1.258  0.2191 -3.9853 -0.3514
  560SOL     OW 1678   0.973   2.119   0.387 -0.3224  0.0540 -0.2494
  560SOL    HW1 1679   1.069   2.141   0.387  0.5235  0.0863 -0.4982
  560SOL    HW2 1680   0.936   2.096   0.477  0.4838  1.1594  0.0125
  561SOL     OW 1681   0.931   0.516   0.261 -0.2797  0.0258  0.0360
  561SOL    HW1 1682   0.856   0.447   0.289 -0.8250  0.3956  0.5128
  561SOL    HW2 1683   0.946   0.512   0.158  1.3970  0.3571  1.6527
  562SOL     OW 1684   0.768   0.377   2.499 -0.1275 -0.0259 -1.2722
  562SOL    HW1 1685   0.816   0.383   2.594  4.0629 -0.8313  4.3464
  562SOL    HW2 1686   0.727   0.468   2.470  0.0188  1.5762 -1.9527
  563SOL     OW 1687   1.632   2.291   2.901 -0.0055 -0.6127 -0.0058
  563SOL    HW1 1688   1.674   2.338   2.819 -0.2706 -0.2831  0.1985
  563SOL    HW2 1689   1.649   2.342   2.986  1.0740 -1.0622  0.0637
  564SOL     OW 1690   2.874   0.999   0.457  0.4651  0.3645  0.1595
  564SOL    HW1 1691   2.799   1.008   0.388 -1.3604 -1.6463  0.1906
  564SOL    HW2 1692   2.870   1.072   0.530  2.4984  0.2569 -2.1388
  565SOL     OW 1693   1.353   0.340   2.533 -0.2920  0.0917 -0.0315
  565SOL    HW1 1694   1.436   0.402   2.530 -0.7552  0.7319 -0.3994
  565SOL    HW2 1695   1.357   0.284   2.619  0.2827  2.9533  1.7269
  566SOL     OW 1696   1.758   0.113   2.206 -0.4285 -0.1582  0.5727
  566SOL    HW1 1697   1.737   0.049   2.279  0.0719  1.4395  0.3219
  566SOL    HW2 1698   1.759   0.078   2.113 -1.8984 -0.7611 -0.4501
  567SOL     OW 1699   2.506   1.394   0.802  0.0787  0.2685  0.8118
  567SOL    HW1 1700   2.429   1.450   0.778  4.4326 -1.7881 -1.9146
  567SOL    HW2 1701   2.486   1.341   0.888 -1.6812  3.2957  0.1381
  568SOL     OW 1702   1.813   1.806   0.373 -0.0029 -0.3270 -0.2980
  568SOL    HW1 1703   1.800   1.897   0.337 -0.5207 -1.6941  0.7573
  568SOL    HW2 1704   1.728   1.770   0.419  1.2032  0.4797 -0.0043
  569SOL     OW 1705   2.226   1.682   2.962 -0.1438  0.1215 -0.3969
  569SOL    HW1 1706   2.297   1.748   2.922 -0.8093  1.9783  0.3749
  569SOL    HW2 1707   2.166   1.637   2.893 -2.4179 -0.4841  0.8055
  570SOL     OW 1708   2.943   2.771   1.643  0.3042  0.1050 -0.7004
  570SOL    HW1 1709   2.864   2.829   1.653 -1.2283 -0.5506 -2.9853
  570SOL    HW2 1710   2.979   2.765   1.548  2.3505 -0.2677 -2.2374
  571SOL     OW 1711   0.063   0.217   2.281  0.1166 -0.4456 -0.5062
  571SOL    HW1 1712   0.091   0.225   2.185 -0.6013  1.6037  0.3708
  571SOL    HW2 1713   0.109   0.288   2.338  0.9164 -0.7726 -1.7212
  572SOL     OW 1714   0.703   1.461   0.830 -0.3260  0.1583 -0.3039
  572SOL    HW1 1715   0.616   1.464   0.882  0.8358 -0.0901 -1.7518
  572SOL    HW2 1716   0.756   1.550   0.842  0.4669  0.4568  0.4035
  573SOL     OW 1717   0.913   0.141   2.974  0.0085  0.0117 -0.0751
  573SOL    HW1 1718   0.978   0.075   3.015 -2.6372 -2.7975  1.7818
  573SOL    HW2 1719   0.949   0.222   2.934  1.2953  0.4157 -2.7784
  574SOL     OW 1720   0.827   0.179   0.822 -0.2098  0.2866  0.0581
  574SOL    HW1 1721   0.852   0.276   0.813  1.2804 -2.9088 -1.1007
  574SOL    HW2 1722   0.852   0.151   0.916  1.8373  0.2532 -2.5169
  575SOL     OW 1723   2.983   1.221   1.552 -0.9328  0.2581 -0.4202
  575SOL    HW1 1724   2.973   1.204   1.649  0.0535 -1.2676 -3.7340
  575SOL    HW2 1725   3.000   1.319   1.534  0.9889  0.9409 -1.0281
  576SOL     OW 1726   2.045   0.459   1.671  0.1542 -0.0304  0.2013
  576SOL    HW1 1727   1.999   0.373   1.645 -0.3551  1.0870  0.2027
  576SOL    HW2 1728   1.998   0.544   1.636  0.0282  1.3477  1.9547
  577SOL     OW 1729   0.063   1.140   2.008 -0.0120  0.1880  0.8069
  577SOL    HW1 1730   0.015   1.051   2.033 -1.8020 -2.1892 -2.2064
  577SOL    HW2 1731   0.165   1.135   2.026  0.8926 -2.2970 -0.5000
  578SOL     OW 1732   1.710   2.846   2.405  0.5498 -0.1876 -0.3033
  578SOL    HW1 1733   1.692   2.940   2.435 -4.1367  0.0593  0.9434
  578SOL    HW2 1734   1.695   2.786   2.488 -1.1271 -1.6676 -1.0382
  579SOL     OW 1735   1.974   2.154   1.916  0.1851 -0.2837  0.3927
  579SOL    HW1 1736   2.008   2.101   1.997  1.9196  1.1802 -2.3303
  579SOL    HW2 1737   1.891   2.106   1.880 -0.9836  3.1347 -0.8963
  580SOL     OW 1738   1.898   1.518   2.116 -0.0908  0.3780 -0.0367
  580SOL    HW1 1739   1.811   1.538   2.161  1.3040  2.4265 -2.0126
  580SOL    HW2 1740   1.884   1.511   2.015 -0.4911  2.0251  0.8404
  581SOL     OW 1741   1.480   0.885   2.708 -0.1274  0.0211  0.4145
  581SOL    HW1 1742   1.439   0.905   2.617  1.8942 -2.1771  1.0666
  581SOL    HW2 1743   1.524   0.792   2.706 -1.1255  0.1418 -1.7765
  582SOL     OW 1744   0.644   2.160   1.710  0.0113 -0.2013  0.0836
  582SOL    HW1 1745   0.698   2.209   1.785 -1.6258  0.1316 -2.9682
  582SOL    HW2 1746   0.673   2.190   1.618 -2.0212  2.7686  0.5676
  583SOL     OW 1747   1.360   1.173   1.081 -0.0112  0.0745  0.2842
  583SOL    HW1 1748   1.281   1.178   1.016  1.7756 -2.6386  1.7216
  583SOL    HW2 1749   1.440   1.223   1.049 -2.6301 -2.7537  0.8364
  584SOL     OW 1750   1.162   2.275   0.593  0.3035  0.0568 -0.5508
  584SOL    HW1 1751   1.194   2.212   0.522 -1.7493 -1.7882 -0.4401
  584SOL    HW2 1752   1.107   2.349   0.548  1.6843 -0.1390  0.8142
  585SOL     OW 1753   2.714   2.439   3.053  0.0275  0.3491 -0.3530
  585SOL    HW1 1754   2.785   2.389   0.026 -1.7233  0.9957 -1.6464
  585SOL    HW2 1755   2.754   2.476   2.968 -2.4855  1.4072 -2.0662
  586SOL     OW 1756   2.680   1.548   0.667  0.8799  0.2383 -0.4248
  586SOL    HW1 1757   2.606   1.489   0.712 -1.4822  1.6776 -0.4120
  586SOL    HW2 1758   2.649   1.642   0.655 -0.1361 -4.8804  1.1959
  587SOL     OW 1759   1.080   1.477   2.957 -0.6424 -0.0940  0.4711
  587SOL    HW1 1760   1.126   1.414   2.891  0.8686  1.9893  3.0821
  587SOL    HW2 1761   1.102   1.455   3.055  1.5484  0.2414  1.1067
  588SOL     OW 1762   0.364   0.352   0.656 -0.1562 -0.2401 -0.0287
  588SOL    HW1 1763   0.279   0.305   0.671  1.7404 -1.6501 -4.1031
  588SOL    HW2 1764   0.365   0.442   0.707 -1.3977  0.1409 -3.1073
  589SOL     OW 1765   1.176   0.278   0.407 -0.1311 -0.0445  0.0135
  589SOL    HW1 1766   1.091   0.281   0.463  0.1139  1.7287  0.6745
  589SOL    HW2 1767   1.194   0.372   0.365  1.7286  1.3678  2.2277
  590SOL     OW 1768   2.187   2.539   0.336 -0.4112  0.2798  0.0735
  590SOL    HW1 1769   2.224   2.518   0.432 -0.2610 -0.1043  2.6109
  590SOL    HW2 1770   2.144   2.632   0.333  3.1281  1.7637  1.2865
  591SOL     OW 1771   0.383   2.889   1.943  0.1139 -0.0150  0.2898
  591SOL    HW1 1772   0.289   2.859   1.968  1.9945 -0.5995 -0.8047
  591SOL    HW2 1773   0.442   2.811   1.918  0.8519  2.1378  0.6853
  592SOL     OW 1774   3.069   1.597   2.206 -0.1062 -0.6016 -0.1610
  592SOL    HW1 1775   0.017   1.500   2.201 -0.9196  1.2827 -0.4906
  592SOL    HW2 1776   0.036   1.652   2.130  2.0056  0.5154  0.2170
  593SOL     OW 1777   1.912   1.543   1.206 -0.0067  0.3349 -0.0760
  593SOL    HW1 1778   1.844   1.502   1.274  1.3850  2.1857 -2.0047
  593SOL    HW2 1779   1.884   1.518   1.112  0.8425 -1.1002  2.4093
  594SOL     OW 1780   0.420   1.269   2.991  0.1812 -0.1946  0.5541
  594SOL    HW1 1781   0.441   1.362   2.953  1.7278  0.4156  1.4778
  594SOL    HW2 1782   0.331   1.274   3.038 -0.9112 -1.4679 -0.4964
  595SOL     OW 1783   1.120   1.206   0.964 -0.2373 -0.5743 -0.0992
  595SOL    HW1 1784   1.086   1.122   1.014 -0.8771 -1.7193 -2.4477
  595SOL    HW2 1785   1.041   1.254   0.913  1.5790 -0.0826 -0.9211
  596SOL     OW 1786   2.725   1.172   1.134  0.5894 -0.3592  0.2537
  596SOL    HW1 1787   2.786   1.105   1.088  1.5865  0.1111 -1.7843
  596SOL    HW2 1788   2.772   1.251   1.172 -0.7135  1.9175 -1.4757
  597SOL     OW 1789   1.053   2.352   1.726  0.1693 -0.2350 -0.0476
  597SOL    HW1 1790   1.000   2.402   1.796  2.8880  0.3885 -2.6408
  597SOL    HW2 1791   1.028   2.254   1.707 -1.3496  1.8679  1.3211
  598SOL     OW 1792   2.202   2.640   2.054  0.1114  0.3047 -0.1196
  598SOL    HW1 1793   2.150   2.556   2.039 -0.4646  1.0739 -0.5859
  598SOL    HW2 1794   2.260   2.664   1.974  2.4214  1.4335  0.1339
  599SOL     OW 1795   0.834   1.268   2.910 -0.0403 -0.0879  0.0255
  599SOL    HW1 1796   0.806   1.362   2.873 -3.0776  1.8582 -0.1861
  599SOL    HW2 1797   0.933   1.268   2.936 -1.1936  3.2231  0.5763
  600SOL     OW 1798   1.233   0.776   3.006  0.2953  0.5009 -0.5877
  600SOL    HW1 1799   1.282   0.862   2.990 -0.4901 -1.0839 -0.0711
  600SOL    HW2 1800   1.260   0.699   2.950 -1.1998 -0.0306 -0.0085
  601SOL     OW 1801   0.822   0.386   1.513  0.1087 -0.5796 -0.8332
  601SOL    HW1 1802   0.906   0.353   1.558 -0.5637  0.8191  1.6351
  601SOL    HW2 1803   0.795   0.474   1.556  1.6477 -1.4461  2.2759
  602SOL     OW 1804   0.294   2.383   0.769  0.6629 -0.1004 -0.6358
  602SOL    HW1 1805   0.242   2.408   0.855 -0.7831 -0.9243  3.2653
  602SOL    HW2 1806   0.252   2.414   0.681  0.2328 -1.8377 -2.4275
  603SOL     OW 1807   1.100   2.444   2.205  0.1974  0.0667  0.4549
  603SOL    HW1 1808   1.068   2.497   2.285 -0.0754  0.8398  2.6843
  603SOL    HW2 1809   1.177   2.491   2.157  2.5241  2.0752 -1.7163
  604SOL     OW 1810   0.070   2.015   2.988  0.0315  0.2852  0.0019
  604SOL    HW1 1811   0.146   1.993   2.926 -0.2795  3.3643 -0.2420
  604SOL    HW2 1812   3.059   1.991   2.945  2.1800  2.3584  0.7079
  605SOL     OW 1813   2.044   1.596   1.732 -0.2483 -0.1763 -0.0692
  605SOL    HW1 1814   1.945   1.572   1.755 -1.4752 -1.2309  1.3925
  605SOL    HW2 1815   2.080   1.531   1.662 -0.7391 -3.5046  0.6412
  606SOL     OW 1816   0.931   1.269   2.612 -0.4430  0.4357  0.1469
  606SOL    HW1 1817   0.951   1.368   2.625 -1.1235 -0.4327 -1.6813
  606SOL    HW2 1818   1.015   1.222   2.577 -0.5468 -1.1782 -1.6053
  607SOL     OW 1819   1.065   0.977   1.088  0.2842 -0.1813  0.0353
  607SOL    HW1 1820   1.141   0.927   1.132 -1.8439  2.1084 -0.2242
  607SOL    HW2 1821   0.977   0.957   1.134  0.1836  2.7680 -0.6118
  608SOL     OW 1822   2.693   1.990   2.076  0.2757  0.4338 -1.1324
  608SOL    HW1 1823   2.685   1.935   1.995 -0.9652  0.0680  0.8783
  608SOL    HW2 1824   2.764   2.063   2.064  2.4887  2.2073 -1.6129
  609SOL     OW 1825   2.335   0.064   0.302  0.3606 -0.2909 -0.1589
  609SOL    HW1 1826   2.317   0.047   0.206  0.5272  2.7970 -0.9212
  609SOL    HW2 1827   2.293   0.004   0.366  0.2208 -0.3706  0.0393
  610SOL     OW 1828   2.992   2.473   1.423  0.2980  0.0690  0.0090
  610SOL    HW1 1829   2.985   2.565   1.381 -1.9044  0.0801 -2.7221
  610SOL    HW2 1830   0.002   2.427   1.394 -1.6293 -0.7030  1.5585
  611SOL     OW 1831   1.589   2.196   0.509 -0.0869 -0.4937  0.7187
  611SOL    HW1 1832   1.585   2.195   0.407  0.6250 -0.6848 -0.5989
  611SOL    HW2 1833   1.667   2.138   0.544  2.4530  1.9807 -0.0300
  612SOL     OW 1834   0.835   0.058   1.775 -0.1961 -0.2034 -0.4320
  612SOL    HW1 1835   0.936   0.055   1.765  0.0328  0.2390  0.1830
  612SOL    HW2 1836   0.795   0.150   1.789  0.7487 -2.1343 -3.1033
  613SOL     OW 1837   2.793   1.869   0.759 -0.1606  0.7404  0.0597
  613SOL    HW1 1838   2.712   1.858   0.706  0.9246  2.9882  1.1976
  613SOL    HW2 1839   2.878   1.887   0.700  0.9135  0.1655  1.6352
  614SOL     OW 1840   1.978   0.535   1.920  0.3967  0.3787  0.4827
  614SOL    HW1 1841   1.985   0.638   1.917  1.3078  1.7164 -2.0962
  614SOL    HW2 1842   1.993   0.494   1.830 -0.4708  1.4487  1.1249
  615SOL     OW 1843   1.175   1.477   0.931 -0.1257  0.4374 -0.6126
  615SOL    HW1 1844   1.093   1.527   0.963 -1.5316  1.9201 -0.5239
  615SOL    HW2 1845   1.174   1.379   0.964 -2.1866 -1.9300  0.2364
  616SOL     OW 1846   1.799   1.758   0.004  0.6164  0.2102  0.2359
  616SOL    HW1 1847   1.862   1.828   0.042 -2.2477 -0.6808  1.1365
  616SOL    HW2 1848   1.703   1.789   0.001 -1.0522 -0.1114  0.1731
  617SOL     OW 1849   1.950   0.068   0.425  0.2133 -0.1046  0.3254
  617SOL    HW1 1850   2.045   0.044   0.460 -1.8525 -1.0633  0.5929
  617SOL    HW2 1851   1.946   0.058   0.325 -1.6050 -2.8956  2.4613
  618SOL     OW 1852   0.704   0.625   2.459 -0.0702 -0.0934 -0.9620
  618SOL    HW1 1853   0.647   0.648   2.377  0.6708  0.8680 -1.4327
  618SOL    HW2 1854   0.790   0.694   2.462  1.5558  1.9007  0.3407
  619SOL     OW 1855   2.741   1.530   1.301 -0.1993  0.0022 -0.3316
  619SOL    HW1 1856   2.813   1.479   1.257 -1.2010  2.3414  0.3118
  619SOL    HW2 1857   2.653   1.519   1.249 -0.5982  0.3705 -3.2879
  620SOL     OW 1858   2.010   2.900   2.622 -0.0310 -0.4407 -0.3777
  620SOL    HW1 1859   1.943   2.968   2.586 -0.6578 -1.3479 -0.4624
  620SOL    HW2 1860   2.066   2.869   2.544  0.2425  0.2740 -1.4765
  621SOL     OW 1861   2.473   1.782   0.090 -0.2460 -0.1312  0.1744
  621SOL    HW1 1862   2.562   1.765   0.045 -1.3163 -1.1830 -3.8492
  621SOL    HW2 1863   2.416   1.696   0.096 -1.4585 -4.3416 -0.5972
  622SOL     OW 1864   1.811   3.061   1.919  0.1233 -0.1336  0.2090
  622SOL    HW1 1865   1.778   2.965   1.924  1.0654  1.2108 -0.3414
  622SOL    HW2 1866   1.911   3.057   1.934  1.2883 -0.1026  0.3603
  623SOL     OW 1867   0.604   2.147   0.974 -0.3425 -0.1358  0.2553
  623SOL    HW1 1868   0.655   2.235   0.994 -2.3673 -1.3567 -0.4252
  623SOL    HW2 1869   0.513   2.158   1.026 -2.2157  2.4566  0.0204
  624SOL     OW 1870   0.095   0.033   3.076 -0.0316 -0.3604 -0.1948
  624SOL    HW1 1871   0.121   3.015   0.039  2.9155 -0.8365 -1.1971
  624SOL    HW2 1872   0.174   0.061   3.011 -0.1940 -0.7596  1.1052
  625SOL     OW 1873   0.804   1.709   0.843 -0.3323  0.1288  0.6106
  625SOL    HW1 1874   0.756   1.779   0.895  3.4616 -2.8156  0.5476
  625SOL    HW2 1875   0.841   1.751   0.758  0.5510  1.8682  2.1830
  626SOL     OW 1876   2.902   0.093   3.056  0.2675 -0.0144 -0.1752
  626SOL    HW1 1877   3.003   0.073   3.065  0.6399 -0.9555  1.4366
  626SOL    HW2 1878   2.838   0.012   3.076  1.1434  0.0293 -1.7062
  627SOL     OW 1879   1.384   1.569   2.696  0.3815  0.0284 -0.3921
  627SOL    HW1 1880   1.400   1.477   2.663  0.6259  0.2316  1.3275
  627SOL    HW2 1881   1.384   1.631   2.621  1.8637 -2.6712  0.4782
  628SOL     OW 1882   0.069   2.732   2.731 -0.2080 -0.7617 -0.7056
  628SOL    HW1 1883   0.114   2.685   2.653 -0.0692 -1.2755 -0.5609
  628SOL    HW2 1884   0.037   2.664   2.799  0.4235  3.2614 -0.1860
  629SOL     OW 1885   0.555   2.830   2.575  0.1098 -0.0385 -0.3645
  629SOL    HW1 1886   0.628   2.819   2.648  1.2738 -0.0364  2.5107
  629SOL    HW2 1887   0.461   2.842   2.617 -0.7522 -1.7264  0.9548
  630SOL     OW 1888   1.412   1.424   2.124  0.1524 -0.1974 -0.2749
  630SOL    HW1 1889   1.405   1.324   2.105  3.2431 -1.6685 -0.3950
  630SOL    HW2 1890   1.323   1.458   2.164 -4.3549  1.4473  0.2794
  631SOL     OW 1891   2.241   1.260   0.351 -0.0670 -0.2498  0.3071
  631SOL    HW1 1892   2.285   1.349   0.373  1.0404 -1.8652  0.3963
  631SOL    HW2 1893   2.308   1.197   0.300 -0.1035  0.3939 -2.0158
  632SOL     OW 1894   2.824   0.438   1.859  0.4583 -0.4682  0.2238
  632SOL    HW1 1895   2.868   0.508   1.913 -1.9239 -2.3267 -0.4895
  632SOL    HW2 1896   2.733   0.410   1.894 -2.1890 -0.0751 -1.4152
  633SOL     OW 1897   0.779   1.521   0.085  0.1483  0.0248  0.4348
  633SOL    HW1 1898   0.780   1.627   0.080 -1.3691  3.8881  1.2770
  633SOL    HW2 1899   0.849   1.492   0.154  0.9620 -0.7340 -0.0107
  634SOL     OW 1900   2.105   2.591   2.515 -0.0361  0.0965 -0.4071
  634SOL    HW1 1901   2.129   2.680   2.470 -0.4350 -0.8671 -1.0386
  634SOL    HW2 1902   2.016   2.547   2.488 -0.9648 -1.1189 -0.4911
  635SOL     OW 1903   1.851   0.483   0.298  0.1379 -0.5693  0.4024
  635SOL    HW1 1904   1.878   0.510   0.392 -0.7063  1.3512  2.8494
  635SOL    HW2 1905   1.930   0.432   0.261  1.4082  0.2690  0.1216
  636SOL     OW 1906   0.687   1.231   0.681 -0.4078  0.0037 -0.7866
  636SOL    HW1 1907   0.723   1.253   0.590 -0.7914  0.2281  3.2535
  636SOL    HW2 1908   0.671   1.316   0.737 -0.1636 -0.6802 -0.4881
  637SOL     OW 1909   3.073   1.944   0.343 -0.2174 -0.1881  0.4515
  637SOL    HW1 1910   2.982   1.905   0.317  0.5627 -0.4968 -0.4993
  637SOL    HW2 1911   3.064   2.003   0.420  1.3282 -0.7080 -1.7489
  638SOL     OW 1912   1.212   2.683   2.690 -0.0682  0.3413 -0.1232
  638SOL    HW1 1913   1.274   2.741   2.641 -1.9813 -1.5422 -0.2997
  638SOL    HW2 1914   1.206   2.588   2.646 -3.0797  0.5628 -1.7413
  639SOL     OW 1915   1.434   1.916   0.189 -0.3620  0.8781 -0.2125
  639SOL    HW1 1916   1.341   1.938   0.151 -0.7614  2.1134 -0.8257
  639SOL    HW2 1917   1.433   1.830   0.248 -1.4111 -2.7276 -2.7783
  640SOL     OW 1918   1.591   0.024   0.740 -0.1424  0.1695  0.0652
  640SOL    HW1 1919   1.594   0.052   0.840  1.8048  0.4112  0.4436
  640SOL    HW2 1920   1.677   3.059   0.710 -1.7813  1.4420 -0.7654
  641SOL     OW 1921   3.045   2.974   0.329 -0.5382 -0.2157 -0.0335
  641SOL    HW1 1922   0.050   2.921   0.367  2.8561 -2.5510  2.2009
  641SOL    HW2 1923   3.004   2.918   0.254  0.8054 -0.1692 -1.6565
  642SOL     OW 1924   1.135   0.241   1.487 -0.0270  0.0408  0.1036
  642SOL    HW1 1925   1.064   0.186   1.448 -2.8561 -0.0221 -1.7859
  642SOL    HW2 1926   1.104   0.326   1.538 -0.3357  0.5885 -0.5099
  643SOL     OW 1927   0.549   1.461   1.977  0.1045 -0.2523 -0.1553
  643SOL    HW1 1928   0.451   1.471   1.958  0.5633  1.2058  0.1560
  643SOL    HW2 1929   0.589   1.552   2.004 -0.1679  1.8787  0.2308
  644SOL     OW 1930   0.876   2.398   0.080 -0.1762 -0.9270  0.5046
  644SOL    HW1 1931   0.843   2.301   0.062 -3.2939 -2.0097 -1.1232
  644SOL    HW2 1932   0.967   2.394   0.119 -1.2852  1.9442 -0.1695
  645SOL     OW 1933   1.569   2.166   0.228  0.1740 -0.0317 -0.3413
  645SOL    HW1 1934   1.543   2.251   0.177  0.4255  0.0904 -1.1713
  645SOL    HW2 1935   1.496   2.093   0.224 -0.0336  1.2781 -1.0407
  646SOL     OW 1936   0.102   1.693   2.980  0.0586 -0.3376 -0.0498
  646SOL    HW1 1937   0.071   1.651   2.894  1.0437  3.6891  0.4928
  646SOL    HW2 1938   0.201   1.720   2.967  0.4770  1.3279 -0.0539
  647SOL     OW 1939   0.753   2.979   1.198 -0.0937  0.2732  0.3037
  647SOL    HW1 1940   0.813   2.912   1.249 -1.0287 -0.6653  1.4925
  647SOL    HW2 1941   0.803   3.050   1.143 -2.7014  0.5495  1.3270
  648SOL     OW 1942   1.663   0.492   1.718 -0.2977 -0.2556  0.5519
  648SOL    HW1 1943   1.704   0.402   1.691  2.1195  1.6983  0.1341
  648SOL    HW2 1944   1.689   0.571   1.662  0.7039  0.3795 -0.8060
  649SOL     OW 1945   1.340   1.776   2.859 -0.2139 -1.0477  0.2226
  649SOL    HW1 1946   1.347   1.685   2.812 -0.9930 -0.7890  0.4995
  649SOL    HW2 1947   1.250   1.788   2.904  2.3925 -0.6253  0.5432
  650SOL     OW 1948   2.793   1.567   2.211 -0.2254  0.4424 -0.4533
  650SOL    HW1 1949   2.743   1.651   2.235  0.8074 -1.7059  0.7468
  650SOL    HW2 1950   2.890   1.578   2.226 -3.7943 -1.5628 -1.8086
  651SOL     OW 1951   1.093   2.937   3.019  0.0520  0.0925 -0.4001
  651SOL    HW1 1952   1.058   2.899   2.936  0.9251  3.4446  3.2338
  651SOL    HW2 1953   1.192   2.959   3.012 -0.5774  1.2693  0.0741
  652SOL     OW 1954   2.799   1.964   0.055 -0.1875 -0.3745 -0.4721
  652SOL    HW1 1955   2.807   1.959   0.155 -0.8951 -0.8017  0.7258
  652SOL    HW2 1956   2.708   2.008   0.036  0.8634 -1.8213  0.6545
  653SOL     OW 1957   0.277   2.965   0.987  0.4267 -0.0837 -0.5389
  653SOL    HW1 1958   0.190   2.973   1.039  0.5783 -0.4727  0.0315
  653SOL    HW2 1959   0.306   3.055   0.945 -0.3624  0.7345 -0.0694
  654SOL     OW 1960   2.146   0.164   2.448 -0.3509  1.2172  0.2920
  654SOL    HW1 1961   2.098   0.163   2.358 -0.9015 -1.3813 -1.4968
  654SOL    HW2 1962   2.203   0.078   2.453 -2.9889 -0.1233 -0.1766
  655SOL     OW 1963   0.389   2.738   1.059 -0.5698  0.1465  0.5503
  655SOL    HW1 1964   0.354   2.831   1.027  2.6267  0.9634 -0.3089
  655SOL    HW2 1965   0.319   2.681   1.109 -0.0344 -2.5089 -1.7487
  656SOL     OW 1966   2.883   2.956   2.458  0.5258 -1.0529  0.3021
  656SOL    HW1 1967   2.843   3.030   2.401 -0.0960  1.0359  3.3289
  656SOL    HW2 1968   2.985   2.952   2.434  0.4298 -1.2023 -2.2377
  657SOL     OW 1969   2.521   0.578   2.508  0.1238  0.1493  0.1507
  657SOL    HW1 1970   2.511   0.616   2.415  0.7268  0.0820 -0.0059
  657SOL    HW2 1971   2.593   0.511   2.523 -1.9230 -0.5507 -1.1216
  658SOL     OW 1972   2.265   1.954   0.823  0.4038  0.0911  0.3262
  658SOL    HW1 1973   2.319   1.920   0.899 -1.7433  0.3668 -1.1320
  658SOL    HW2 1974   2.300   2.045   0.788  0.1369  3.9914 -2.4626
  659SOL     OW 1975   2.109   2.812   0.313 -0.3506  0.2246 -0.5150
  659SOL    HW1 1976   2.035   2.805   0.242  0.4187 -1.6518 -1.0058
  659SOL    HW2 1977   2.197   2.784   0.269  0.2980  1.2055  1.3211
  660SOL     OW 1978   1.612   1.103   2.604 -0.0006 -0.2794  0.2446
  660SOL    HW1 1979   1.563   1.192   2.617 -0.7063 -2.0971 -1.3801
  660SOL    HW2 1980   1.574   1.034   2.669  0.1896  1.5637  0.5547
  661SOL     OW 1981   2.356   2.500   1.189  0.1188  0.8374  0.3883
  661SOL    HW1 1982   2.383   2.404   1.203 -0.8087 -0.3061  0.3107
  661SOL    HW2 1983   2.334   2.555   1.274 -0.5939  0.2625 -2.0387
  662SOL     OW 1984   0.660   0.815   0.356 -0.2791 -0.1169  0.1381
  662SOL    HW1 1985   0.668   0.786   0.259  1.3155  1.3063  0.1574
  662SOL    HW2 1986   0.565   0.805   0.397 -4.7022 -0.4651 -0.7728
  663SOL     OW 1987   2.023   2.287   0.380 -0.0874  0.0843  0.3479
  663SOL    HW1 1988   2.079   2.204   0.412  2.5667 -0.3729 -0.6205
  663SOL    HW2 1989   2.019   2.280   0.280  0.2067 -0.4434 -0.9571
  664SOL     OW 1990   0.779   1.904   1.510 -0.0543  0.0952  0.3061
  664SOL    HW1 1991   0.832   1.981   1.472 -0.2133 -1.3337  1.8009
  664SOL    HW2 1992   0.790   1.903   1.608 -3.0362 -2.5207 -0.7651
  665SOL     OW 1993   1.749   2.063   2.298 -0.2010  0.7701  0.0379
  665SOL    HW1 1994   1.818   2.122   2.347 -1.6608  0.0300  1.0071
  665SOL    HW2 1995   1.780   1.967   2.286 -0.8710  1.1968 -1.0234
  666SOL     OW 1996   0.207   2.269   0.209 -0.1042 -0.3713  0.0670
  666SOL    HW1 1997   0.293   2.317   0.179  1.7473 -0.8576  0.8192
  666SOL    HW2 1998   0.206   2.169   0.188 -1.2131 -1.8519  0.0745
  667SOL     OW 1999   2.330   1.585   1.791 -0.3971 -0.1673  0.2957
  667SOL    HW1 2000   2.363   1.680   1.787  3.3104  0.0419  2.0890
  667SOL    HW2 2001   2.229   1.579   1.781  1.3645 -0.4577  2.0012
  668SOL     OW 2002   0.514   0.676   2.652 -0.0714 -0.6133  0.2265
  668SOL    HW1 2003   0.573   0.667   2.571  0.0669  0.1609  1.8673
  668SOL    HW2 2004   0.536   0.604   2.720  0.2459  3.1497  0.8478
  669SOL     OW 2005   1.760   2.384   0.056 -0.3646 -0.4309 -0.5299
  669SOL    HW1 2006   1.728   2.481   0.059 -0.4818 -1.2050  2.3340
  669SOL    HW2 2007   1.859   2.370   0.079  0.4277 -1.2628  4.8145
  670SOL     OW 2008   2.404   1.981   2.988  0.1996  0.1542  0.4743
  670SOL    HW1 2009   2.409   1.932   2.898 -2.2233  1.1592  0.3198
  670SOL    HW2 2010   2.410   1.916   3.061  0.6406  2.3586 -3.8394
  671SOL     OW 2011   0.077   1.372   1.291  0.1189  0.8508 -0.2212
  671SOL    HW1 2012   0.179   1.370   1.276  1.9978 -0.2572  0.7497
  671SOL    HW2 2013   0.047   1.276   1.300 -0.9802  1.8535 -1.0704
  672SOL     OW 2014   2.405   0.786   2.188 -0.4425  0.2550  0.8939
  672SOL    HW1 2015   2.487   0.832   2.149  0.7260 -0.0891  1.2270
  672SOL    HW2 2016   2.354   0.855   2.242 -1.4384  1.1473 -2.9736
  673SOL     OW 2017   2.382   2.583   2.245 -0.4996 -0.0243 -0.5030
  673SOL    HW1 2018   2.331   2.515   2.304 -1.6285  0.1888  0.9863
  673SOL    HW2 2019   2.310   2.624   2.189 -0.6820  1.6480  0.5737
  674SOL     OW 2020   1.287   2.542   2.048  0.8928  0.2910  0.4444
  674SOL    HW1 2021   1.302   2.452   1.997  0.1147 -0.5314  0.8439
  674SOL    HW2 2022   1.372   2.566   2.093  0.8846  0.6823 -4.4610
  675SOL     OW 2023   0.664   0.729   1.137  0.7136  0.4639 -0.0497
  675SOL    HW1 2024   0.585   0.729   1.069 -1.0457 -1.9548 -1.6562
  675SOL    HW2 2025   0.623   0.737   1.233 -1.3534  2.3300  3.1992
  676SOL     OW 2026   1.943   0.890   0.696  0.5955 -0.1713 -0.0882
  676SOL    HW1 2027   1.895   0.909   0.604  0.6819  1.5320  0.2343
  676SOL    HW2 2028   1.954   0.978   0.743 -0.5969 -0.7771 -0.2345
  677SOL     OW 2029   3.044   1.676   2.472 -0.2345  0.0987 -0.0144
  677SOL    HW1 2030   3.046   1.665   2.371  0.6055 -1.2590  1.9451
  677SOL    HW2 2031   2.946   1.686   2.504  1.7211  0.4211  4.2454
  678SOL     OW 2032   2.597   1.891   1.274 -0.6189 -0.0912  0.3789
  678SOL    HW1 2033   2.600   1.885   1.173 -1.0843 -0.4829  2.0620
  678SOL    HW2 2034   2.515   1.945   1.303  0.0067 -2.4637 -0.4507
  679SOL     OW 2035   1.924   2.749   0.611  0.2008 -0.0064  0.3287
  679SOL    HW1 2036   1.971   2.708   0.529 -0.8811 -0.8187  1.0646
  679SOL    HW2 2037   1.883   2.677   0.668  0.3264 -0.7650  0.0852
  680SOL     OW 2038   0.576   2.538   2.194  0.3332 -0.3617 -0.1272
  680SOL    HW1 2039   0.645   2.527   2.271  1.0637 -1.4719  0.7887
  680SOL    HW2 2040   0.535   2.449   2.155  0.4422 -0.4357 -0.4641
  681SOL     OW 2041   2.711   1.389   1.793  0.1213  0.7060  0.6170
  681SOL    HW1 2042   2.774   1.312   1.806 -1.8423  1.6373  0.2997
  681SOL    HW2 2043   2.733   1.471   1.856 -1.1377  0.6772 -1.2649
  682SOL     OW 2044   0.683   1.879   1.033  0.6290 -0.6515 -0.3053
  682SOL    HW1 2045   0.674   1.978   1.045 -0.8224 -3.7786  2.3851
  682SOL    HW2 2046   0.604   1.817   1.055  2.6232 -1.7479 -3.5759
  683SOL     OW 2047   2.150   1.257   1.104 -0.6565  0.6597 -0.0547
  683SOL    HW1 2048   2.192   1.335   1.048  1.6254  0.9346 -1.6381
  683SOL    HW2 2049   2.114   1.295   1.193  3.6723 -3.0945  1.0426
  684SOL     OW 2050   2.881   1.640   2.841  0.1954 -0.2637  0.2239
  684SOL    HW1 2051   2.977   1.616   2.827 -0.2246  0.9082 -0.9996
  684SOL    HW2 2052   2.823   1.584   2.784 -1.0188  1.0351 -0.8355
  685SOL     OW 2053   1.711   1.070   2.945 -0.6176  0.1202 -0.0684
  685SOL    HW1 2054   1.693   1.149   2.882 -0.0656  1.3171 -0.8142
  685SOL    HW2 2055   1.636   1.004   2.957 -0.7169 -0.8454 -0.1779
  686SOL     OW 2056   0.329   0.605   1.368  0.6880 -0.0815 -0.8122
  686SOL    HW1 2057   0.406   0.665   1.356  2.4798 -2.6108  0.9621
  686SOL    HW2 2058   0.318   0.559   1.460  2.4763  0.2812 -1.3098
  687SOL     OW 2059   1.248   1.999   2.717  0.1319 -0.5594  0.0949
  687SOL    HW1 2060   1.271   1.918   2.768  2.0490  1.5001  0.6835
  687SOL    HW2 2061   1.317   2.073   2.733  2.9677 -0.1388  0.9698
  688SOL     OW 2062   0.278   1.560   1.409  0.0677 -0.3387 -0.1157
  688SOL    HW1 2063   0.353   1.600   1.465 -0.8653 -0.4060 -1.6916
  688SOL    HW2 2064   0.210   1.631   1.378 -0.9307  2.9300  0.1411
  689SOL     OW 2065   1.441   1.220   1.799  0.0658  0.2947  0.1757
  689SOL    HW1 2066   1.410   1.316   1.808  1.5242 -0.2351  3.9882
  689SOL    HW2 2067   1.513   1.206   1.723  1.5815  0.5044  1.0545
  690SOL     OW 2068   2.510   0.872   1.238  0.0995 -0.0878  0.0253
  690SOL    HW1 2069   2.540   0.896   1.333 -0.2525  0.3096 -0.5733
  690SOL    HW2 2070   2.564   0.797   1.196  0.0521  1.7127  0.7902
  691SOL     OW 2071   0.762   2.304   1.908  0.5489 -0.3899  0.0840
  691SOL    HW1 2072   0.777   2.238   1.983  1.4474  1.5691  0.0145
  691SOL    HW2 2073   0.819   2.392   1.923  0.0937  0.3953  0.5302
  692SOL     OW 2074   1.847   0.163   1.053 -0.3949  0.5359  0.1391
  692SOL    HW1 2075   1.878   0.250   1.009  0.5410  0.0265  2.2429
  692SOL    HW2 2076   1.929   0.128   1.109  1.7577 -0.2031  0.2357
  693SOL     OW 2077   0.334   1.094   2.023 -0.4580 -0.3595 -0.2525
  693SOL    HW1 2078   0.427   1.132   2.051  0.1882  0.4070 -1.5963
  693SOL    HW2 2079   0.345   1.026   1.946 -0.7999 -0.8166 -1.5384
  694SOL     OW 2080   2.112   0.435   1.174  0.4106 -0.5476 -0.2292
  694SOL    HW1 2081   2.053   0.413   1.255 -3.7903  2.5545 -0.1437
  694SOL    HW2 2082   2.209   0.422   1.198 -1.1055  1.0895 -0.7935
  695SOL     OW 2083   1.101   1.289   1.638 -0.2337  0.3343 -0.0801
  695SOL    HW1 2084   1.046   1.378   1.645 -0.3239  3.2920  4.5530
  695SOL    HW2 2085   1.058   1.223   1.570 -0.2655 -2.6103 -2.7549
  696SOL     OW 2086   1.469   2.543   0.356  0.1105 -0.9996 -0.0605
  696SOL    HW1 2087   1.398   2.589   0.412  1.5958 -0.3125 -0.3090
  696SOL    HW2 2088   1.535   2.507   0.421 -0.3056  2.6753 -2.5433
  697SOL     OW 2089   0.918   0.419   0.728  0.0570 -0.1474  0.7079
  697SOL    HW1 2090   0.911   0.375   0.629 -0.7183 -1.7672 -4.7605
  697SOL    HW2 2091   0.950   0.518   0.728 -1.1305  1.8704 -0.1440
  698SOL     OW 2092   1.397   1.663   2.426  0.4835  0.5351 -0.5868
  698SOL    HW1 2093   1.342   1.589   2.377 -0.7944 -2.0346  0.2731
  698SOL    HW2 2094   1.473   1.684   2.363 -1.3524 -0.9388 -1.5524
  699SOL     OW 2095   1.476   0.931   1.173  0.2468 -0.0827  0.9922
  699SOL    HW1 2096   1.427   1.012   1.136  1.0450  1.6906 -2.9400
  699SOL    HW2 2097   1.546   0.962   1.239 -3.0108  0.8075 -1.9764
  700SOL     OW 2098   0.995   2.747   0.663  0.5040  0.1486 -0.1566
  700SOL    HW1 2099   1.008   2.841   0.709 -1.1403 -1.8674  0.4747
  700SOL    HW2 2100   0.911   2.697   0.695 -0.7712 -0.3255  0.9076
  701SOL     OW 2101   2.347   3.048   2.476 -0.2576 -0.1843 -0.4754
  701SOL    HW1 2102   2.380   3.040   2.572 -3.1139  2.7200 -1.1462
  701SOL    HW2 2103   2.394   2.986   2.412 -0.2067  0.7579 -1.2391
  702SOL     OW 2104   1.090   0.339   2.876  0.8019  0.3124 -0.0157
  702SOL    HW1 2105   1.161   0.301   2.938  1.0579  2.1528  0.6098
  702SOL    HW2 2106   1.050   0.429   2.904  2.2353 -0.4062 -0.6506
  703SOL     OW 2107   2.517   2.835   2.327 -0.1188  0.3521 -0.0062
  703SOL    HW1 2108   2.456   2.754   2.332 -1.8400 -0.3185 -1.1927
  703SOL    HW2 2109   2.610   2.807   2.352  0.5520 -1.3667  1.2012
  704SOL     OW 2110   0.062   2.201   0.999  0.0921  0.6793 -0.2978
  704SOL    HW1 2111   3.048   2.168   0.983  2.5110 -0.7262  1.1590
  704SOL    HW2 2112   0.063   2.299   1.017  1.6542 -2.2764 -1.6715
  705SOL     OW 2113   2.738   0.090   2.362 -0.2323 -0.3295 -0.1246
  705SOL    HW1 2114   2.788   0.176   2.327  0.6601  2.5011 -0.0957
  705SOL    HW2 2115   2.708   0.036   2.281 -0.8039  1.3023  0.8456
  706SOL     OW 2116   1.864   3.051   0.129  0.0527 -0.2159 -0.5508
  706SOL    HW1 2117   1.880   2.949   0.123  0.6854 -0.4978  0.3871
  706SOL    HW2 2118   1.767   3.075   0.117  1.7409  1.9353 -2.1550
  707SOL     OW 2119   0.874   1.809   2.052  0.1401  0.2065 -0.1717
  707SOL    HW1 2120   0.902   1.780   2.144 -0.6070  2.8381 -0.0027
  707SOL    HW2 2121   0.906   1.741   1.981  0.3869 -3.1899  2.9810
  708SOL     OW 2122   0.314   2.546   1.747  0.2042 -0.2219 -0.0178
  708SOL    HW1 2123   0.336   2.451   1.723 -0.8770  3.0756  1.2807
  708SOL    HW2 2124   0.381   2.587   1.808 -3.0417 -3.7290 -2.7898
  709SOL     OW 2125   2.089   3.027   1.870 -0.3139  0.1159  0.1151
  709SOL    HW1 2126   2.087   2.925   1.890 -0.8729 -0.5582 -2.2839
  709SOL    HW2 2127   2.110   3.041   1.774  0.0033 -1.0554  3.3674
  710SOL     OW 2128   2.157   0.666   2.236 -1.1577  0.1967  0.2374
  710SOL    HW1 2129   2.089   0.740   2.239  1.2737 -1.0803 -0.9033
  710SOL    HW2 2130   2.252   0.692   2.204  1.8005  2.0065 -0.5167
  711SOL     OW 2131   0.937   2.035   0.115  0.9827  0.0094 -0.0539
  711SOL    HW1 2132   0.936   2.092   0.201  3.7789 -0.0402 -0.2088
  711SOL    HW2 2133   0.861   2.061   0.051 -0.7202 -3.1883 -0.5988
  712SOL     OW 2134   0.714   2.480   2.417 -0.4814  0.2874  0.6111
  712SOL    HW1 2135   0.731   2.382   2.399 -0.1550 -0.8409 -0.7359
  712SOL    HW2 2136   0.808   2.524   2.437  1.0793  1.4172 -1.0314
  713SOL     OW 2137   1.761   1.158   0.221  0.3152 -0.1316  0.3408
  713SOL    HW1 2138   1.732   1.229   0.146  1.8429  1.5040  0.5906
  713SOL    HW2 2139   1.860   1.177   0.229 -0.5421 -3.9042 -0.7138
  714SOL     OW 2140   0.365   1.423   1.035  0.1409 -0.1070 -0.2348
  714SOL    HW1 2141   0.421   1.363   0.972  2.7914 -0.8225 -1.6298
  714SOL    HW2 2142   0.287   1.464   0.984  2.6322  3.3009 -0.1304
  715SOL     OW 2143   2.033   0.348   2.883 -0.2729  0.0385  0.3906
  715SOL    HW1 2144   1.933   0.369   2.867 -0.5759  0.9442 -2.5788
  715SOL    HW2 2145   2.034   0.266   2.943  2.4473 -1.4673 -3.9334
  716SOL     OW 2146   2.734   2.993   2.127  0.0449  0.2061 -0.6129
  716SOL    HW1 2147   2.642   3.032   2.100  0.1115  2.1180 -1.2164
  716SOL    HW2 2148   2.759   2.905   2.079  2.6358 -0.6262  2.0586
  717SOL     OW 2149   0.065   0.861   0.866 -0.7948  0.3581  0.1250
  717SOL    HW1 2150   0.087   0.792   0.797  1.1590 -1.2789 -1.5684
  717SOL    HW2 2151   0.018   0.829   0.951 -0.2460  0.5942  1.5973
  718SOL     OW 2152   0.759   1.371   2.326  0.0527  0.2649 -0.0575
  718SOL    HW1 2153   0.695   1.449   2.346 -2.1697  0.9699 -0.9906
  718SOL    HW2 2154   0.709   1.287   2.329 -1.0570  0.0442 -0.6623
  719SOL     OW 2155   2.656   1.407   2.912 -0.1557  0.2968  0.0780
  719SOL    HW1 2156   2.607   1.383   2.998  0.1968  1.0876  1.8028
  719SOL    HW2 2157   2.661   1.330   2.845 -2.0078  2.4720 -0.2982
  720SOL     OW 2158   1.059   0.901   0.825  0.4794  0.0591 -0.1619
  720SOL    HW1 2159   1.057   0.935   0.924 -0.5346  1.6124  0.8637
  720SOL    HW2 2160   1.029   0.975   0.765 -0.3530 -0.8623  0.3428
  721SOL     OW 2161   2.667   0.449   0.155  0.3574  0.1388  0.1396
  721SOL    HW1 2162   2.672   0.391   0.073 -1.0380  0.1293  1.6932
  721SOL    HW2 2163   2.748   0.511   0.152 -0.4286  0.8064 -0.8429
  722SOL     OW 2164   1.925   0.633   2.738 -0.6793  0.4047  0.2287
  722SOL    HW1 2165   1.980   0.709   2.776 -1.1131 -2.3414 -0.5229
  722SOL    HW2 2166   1.976   0.593   2.660 -1.4148  0.1528  2.4691
  723SOL     OW 2167   2.748   0.726   0.283 -0.1493  0.2008  0.1327
  723SOL    HW1 2168   2.748   0.635   0.330  0.1791 -1.9267 -1.8231
  723SOL    HW2 2169   2.846   0.754   0.253 -0.0862  0.0291 -1.4239
  724SOL     OW 2170   0.889   1.534   1.875  0.7264  0.1907  0.1156
  724SOL    HW1 2171   0.854   1.444   1.837 -0.4678 -2.8426  1.6331
  724SOL    HW2 2172   0.934   1.525   1.962 -0.8585  0.2915 -2.5078
  725SOL     OW 2173   1.993   0.788   1.907  0.3548 -0.1307  0.6817
  725SOL    HW1 2174   2.073   0.849   1.927 -0.5849 -1.3798 -2.0673
  725SOL    HW2 2175   1.905   0.838   1.902 -1.0620  0.6044 -0.7561
  726SOL     OW 2176   1.611   2.892   0.496 -0.1549  0.0617  0.0749
  726SOL    HW1 2177   1.710   2.918   0.509 -3.2378  0.9052  1.2266
  726SOL    HW2 2178   1.581   2.824   0.564 -1.7769  2.5598 -0.7687
  727SOL     OW 2179   1.637   1.519   2.228  0.0960  0.3506  0.5230
  727SOL    HW1 2180   1.551   1.474   2.192 -1.2763 -0.0101  4.4202
  727SOL    HW2 2181   1.645   1.613   2.193 -1.3767 -3.1092  0.0537
  728SOL     OW 2182   1.571   2.615   1.329  0.0915 -0.2575 -0.0859
  728SOL    HW1 2183   1.608   2.553   1.399 -0.6335  2.8141  0.0651
  728SOL    HW2 2184   1.573   2.575   1.233  0.6917 -3.6317 -1.1394
  729SOL     OW 2185   2.063   1.087   0.891 -0.5551  0.3690  0.0072
  729SOL    HW1 2186   2.065   1.155   0.965 -2.3472 -0.2129  1.3071
  729SOL    HW2 2187   2.157   1.065   0.862 -1.3532  0.5722  2.6343
  730SOL     OW 2188   0.493   1.424   2.559  0.1816  0.1202  0.2045
  730SOL    HW1 2189   0.510   1.471   2.469  2.0664  0.7102 -2.9763
  730SOL    HW2 2190   0.571   1.362   2.579  1.7829 -0.3705  0.2228
  731SOL     OW 2191   0.136   0.134   0.658 -0.5580  0.3629 -0.0329
  731SOL    HW1 2192   0.203   0.072   0.608  0.1404  1.8761 -0.3943
  731SOL    HW2 2193   0.149   0.120   0.757  2.5520 -0.2279 -1.4695
  732SOL     OW 2194   1.195   0.823   0.185 -0.4593 -0.3073  0.0002
  732SOL    HW1 2195   1.197   0.799   0.088 -0.8503 -1.3776  0.9995
  732SOL    HW2 2196   1.111   0.879   0.206  2.2694 -0.4237 -3.3108
  733SOL     OW 2197   0.447   1.817   0.578  0.2148 -0.3617  0.1784
  733SOL    HW1 2198   0.433   1.757   0.660 -0.4201 -0.9623 -0.7656
  733SOL    HW2 2199   0.356   1.832   0.535  2.8668  3.7811 -2.3993
  734SOL     OW 2200   3.078   2.330   3.077 -0.0194  0.4333 -0.5655
  734SOL    HW1 2201   0.082   2.333   0.063  2.3189 -3.1772  0.0684
  734SOL    HW2 2202   2.998   2.286   0.042  2.4982  1.6648  0.7544
  735SOL     OW 2203   1.233   0.820   1.241 -0.1031  0.3640  0.0498
  735SOL    HW1 2204   1.211   0.723   1.210 -0.7588  1.3798 -0.0074
  735SOL    HW2 2205   1.330   0.845   1.218  2.6993 -0.6986 -0.0090
  736SOL     OW 2206   2.317   2.343   0.176  0.1179 -1.3252  0.4854
  736SOL    HW1 2207   2.268   2.395   0.247 -0.0719  1.1428 -1.3140
  736SOL    HW2 2208   2.297   2.379   0.084 -1.9649  1.8713 -1.0269
  737SOL     OW 2209   2.633   0.191   0.849 -0.4160  0.5020 -0.6265
  737SOL    HW1 2210   2.629   0.191   0.750 -2.0386  1.0403  2.7509
  737SOL    HW2 2211   2.543   0.200   0.894  1.9960  1.1252 -0.1766
  738SOL     OW 2212   2.386   0.176   0.991 -0.5234  0.0989  0.0950
  738SOL    HW1 2213   2.406   0.168   1.091 -0.6814 -0.8640 -0.0459
  738SOL    HW2 2214   2.341   0.092   0.962  1.2735 -1.4319  2.1960
  739SOL     OW 2215   1.654   2.461   0.523 -0.1363  0.0635  0.1845
  739SOL    HW1 2216   1.665   2.356   0.527  0.6522 -1.1088  0.9080
  739SOL    HW2 2217   1.601   2.493   0.605 -2.5099 -0.0898 -0.3889
  740SOL     OW 2218   1.406   0.500   0.807  0.2194 -0.0508  0.1401
  740SOL    HW1 2219   1.368   0.596   0.809 -0.5486 -1.1635 -0.3765
  740SOL    HW2 2220   1.505   0.494   0.807 -0.9910 -1.5605  1.1023
  741SOL     OW 2221   2.663   0.793   0.846 -0.5467 -0.1550 -0.2902
  741SOL    HW1 2222   2.727   0.757   0.777 -1.4022  3.1897  0.5710
  741SOL    HW2 2223   2.601   0.860   0.800 -0.1831 -3.9859  2.0001
  742SOL     OW 2224   0.999   1.752   2.296  1.0727 -0.4426 -0.0218
  742SOL    HW1 2225   1.088   1.796   2.327 -0.9608 -0.9812  2.6178
  742SOL    HW2 2226   0.917   1.812   2.329 -5.1016  3.5775  1.2006
  743SOL     OW 2227   1.586   0.780   1.917 -0.0981 -0.4722  0.1852
  743SOL    HW1 2228   1.622   0.698   1.959 -2.8010  1.3068 -0.4164
  743SOL    HW2 2229   1.652   0.860   1.927  2.9289  1.0243  1.4962
  744SOL     OW 2230   2.114   0.815   1.434  0.1217  0.3693 -0.5421
  744SOL    HW1 2231   2.135   0.776   1.339  2.1228 -1.9001 -1.4197
  744SOL    HW2 2232   2.160   0.907   1.445  1.9645  1.1856 -1.3066
  745SOL     OW 2233   1.761   1.396   1.359  0.5035 -0.0297  0.5778
  745SOL    HW1 2234   1.737   1.363   1.451 -0.0567 -0.4673 -0.5943
  745SOL    HW2 2235   1.769   1.310   1.301 -0.6928 -2.3583 -1.2582
  746SOL     OW 2236   2.026   1.828   0.848 -0.3138  0.7443  0.2871
  746SOL    HW1 2237   1.984   1.838   0.937  2.3780 -1.9291 -2.0521
  746SOL    HW2 2238   2.110   1.889   0.849  4.4564  0.2743  0.5634
  747SOL     OW 2239   2.179   1.508   0.992  0.0599  0.0263  1.1813
  747SOL    HW1 2240   2.212   1.516   0.895 -2.0563  0.1461 -1.4199
  747SOL    HW2 2241   2.092   1.555   0.996 -0.5937 -1.8286 -0.8809
  748SOL     OW 2242   0.229   2.115   0.760 -0.1262  0.1773  0.0958
  748SOL    HW1 2243   0.255   2.201   0.712  2.4206 -0.6696  2.5350
  748SOL    HW2 2244   0.250   2.122   0.857 -0.1274 -1.3661 -2.5446
  749SOL     OW 2245   2.474   3.015   2.145  0.1433 -0.3409  0.1275
  749SOL    HW1 2246   2.490   2.930   2.202  0.7027 -0.2675  3.5333
  749SOL    HW2 2247   2.377   3.037   2.142  0.4619  0.1055 -0.5438
  750SOL     OW 2248   2.324   0.646   0.833 -0.5176 -0.2802  0.1463
  750SOL    HW1 2249   2.230   0.645   0.793  0.4505  0.7134 -2.1138
  750SOL    HW2 2250   2.328   0.718   0.903 -0.1231 -0.1792 -2.7084
  751SOL     OW 2251   2.677   2.807   0.427 -0.0690 -0.1560  0.2008
  751SOL    HW1 2252   2.612   2.731   0.424  3.6653  1.2004  0.3041
  751SOL    HW2 2253   2.640   2.869   0.353  2.2348 -0.3338 -2.2334
  752SOL     OW 2254   0.385   2.998   0.532  0.3260 -0.0945 -0.4230
  752SOL    HW1 2255   0.487   2.998   0.521  3.5738  0.1530  0.2868
  752SOL    HW2 2256   0.342   0.000   0.490  2.3753 -1.7758  0.0945
  753SOL     OW 2257   1.777   0.604   2.083 -0.6287 -0.2310  0.6288
  753SOL    HW1 2258   1.693   0.549   2.061 -1.0473  2.2808 -1.0382
  753SOL    HW2 2259   1.861   0.567   2.040  0.3901  0.1935  1.2059
  754SOL     OW 2260   1.283   2.342   1.862  0.3942  0.0565 -0.0549
  754SOL    HW1 2261   1.202   2.349   1.805  2.4710  0.7885  1.0476
  754SOL    HW2 2262   1.373   2.341   1.819 -2.6619  0.6535  2.1601
  755SOL     OW 2263   2.507   0.586   0.652  0.0342 -0.6111  0.6058
  755SOL    HW1 2264   2.436   0.605   0.720  1.1850 -2.7142  0.7754
  755SOL    HW2 2265   2.500   0.654   0.577 -1.4014 -2.0403 -0.9894
  756SOL     OW 2266   0.996   1.733   2.944  0.4452 -0.4799 -0.0832
  756SOL    HW1 2267   1.040   1.640   2.940 -0.1766  2.3556  0.6388
  756SOL    HW2 2268   0.965   1.776   2.854 -1.7552 -1.4193  0.3844
  757SOL     OW 2269   0.972   3.017   0.797  0.4285  0.6649 -0.2791
  757SOL    HW1 2270   1.035   2.998   0.874 -1.5093  4.1857  1.4153
  757SOL    HW2 2271   0.911   0.017   0.820 -2.1866 -0.0256  0.6385
  758SOL     OW 2272   0.890   0.114   1.077 -0.7115  0.3444 -0.1650
  758SOL    HW1 2273   0.967   0.082   1.139 -1.6618 -0.6062  0.9680
  758SOL    HW2 2274   0.837   0.182   1.129 -2.9125 -0.3321 -0.4627
  759SOL     OW 2275   0.325   0.585   0.795  0.2688 -0.0892 -0.1223
  759SOL    HW1 2276   0.284   0.655   0.730  0.1965 -1.2562  1.0163
  759SOL    HW2 2277   0.303   0.610   0.892  1.7069  0.5875 -1.1650
  760SOL     OW 2278   2.321   1.085   1.223  0.2499  0.2986  0.3203
  760SOL    HW1 2279   2.355   0.993   1.183 -0.6240 -2.6649 -2.2000
  760SOL    HW2 2280   2.257   1.126   1.154  0.3944 -2.3344 -0.0943
  761SOL     OW 2281   1.692   0.558   0.570  0.0301 -0.4724  0.2238
  761SOL    HW1 2282   1.599   0.536   0.538  2.4264  2.3423  1.4410
  761SOL    HW2 2283   1.708   0.550   0.671  1.3007 -0.5995 -4.4386
  762SOL     OW 2284   2.115   2.282   0.842 -0.3917 -0.5479  0.2334
  762SOL    HW1 2285   2.037   2.287   0.775  1.2704 -1.8588 -1.1350
  762SOL    HW2 2286   2.082   2.251   0.933  0.1362  2.0410  0.4235
  763SOL     OW 2287   1.276   1.438   1.843 -0.5167 -0.2422  0.3979
  763SOL    HW1 2288   1.224   1.487   1.914 -1.0828 -0.2673 -0.1144
  763SOL    HW2 2289   1.211   1.395   1.777 -1.0039  1.3575 -1.2409
  764SOL     OW 2290   2.611   2.021   2.461  0.1808 -0.1961  0.4491
  764SOL    HW1 2291   2.593   2.049   2.555  1.3626 -0.0571 -3.2498
  764SOL    HW2 2292   2.571   2.087   2.394 -1.4309 -0.0113  0.6791
  765SOL     OW 2293   0.698   2.389   1.081  0.3116 -0.4337 -0.2856
  765SOL    HW1 2294   0.619   2.415   1.023  1.4467  1.3142 -1.0040
  765SOL    HW2 2295   0.704   2.461   1.153  1.5344 -0.5123  1.2763
  766SOL     OW 2296   0.224   1.757   2.326 -0.5698 -0.1245 -0.3006
  766SOL    HW1 2297   0.169   1.744   2.410 -1.5426 -1.8442 -2.1970
  766SOL    HW2 2298   0.183   1.703   2.249  0.2133 -1.0991 -2.4946
  767SOL     OW 2299   2.121   0.858   2.534  0.1487  0.4927  0.2604
  767SOL    HW1 2300   2.101   0.879   2.631  1.2443 -2.1446  1.6015
  767SOL    HW2 2301   2.122   0.759   2.520  1.7427 -0.1622  0.1201
  768SOL     OW 2302   1.041   2.876   2.764  0.4595 -1.0490  0.2471
  768SOL    HW1 2303   1.109   2.814   2.722 -2.1511  0.6807 -3.2209
  768SOL    HW2 2304   1.004   2.940   2.691 -0.3874 -0.0954 -0.5427
  769SOL     OW 2305   0.027   2.628   0.757  0.5122  0.4403  0.0397
  769SOL    HW1 2306   0.092   2.611   0.680 -1.2174  1.6165  1.1459
  769SOL    HW2 2307   3.068   2.723   0.751  0.1458  0.5133 -0.1299
  770SOL     OW 2308   0.861   2.932   0.166  0.0271  0.2565 -0.0114
  770SOL    HW1 2309   0.940   2.953   0.109 -0.1797 -3.7594 -2.1763
  770SOL    HW2 2310   0.888   2.903   0.256  0.5325  1.2470  0.1057
  771SOL     OW 2311   1.158   2.099   2.498  0.7116  0.5494  0.4617
  771SOL    HW1 2312   1.205   2.067   2.581  3.1648 -0.2982  0.6936
  771SOL    HW2 2313   1.065   2.140   2.515  1.1758 -0.8122  0.6588
  772SOL     OW 2314   2.214   0.039   2.089  0.1993  0.5663 -0.1144
  772SOL    HW1 2315   2.188   3.049   2.014 -1.2394 -3.7368 -1.5053
  772SOL    HW2 2316   2.126   0.075   2.132 -0.5801  1.4684  3.1472
  773SOL     OW 2317   1.323   0.075   1.856  0.3569 -0.3073  0.2336
  773SOL    HW1 2318   1.340   0.067   1.957 -1.7212  1.9301 -0.8378
  773SOL    HW2 2319   1.381   0.010   1.806 -3.2577  1.4063 -1.0834
  774SOL     OW 2320   1.274   0.964   1.716  0.0457  0.6719  0.6035
  774SOL    HW1 2321   1.304   1.050   1.761 -0.3126  2.6650 -0.6218
  774SOL    HW2 2322   1.210   0.918   1.781  0.7858 -0.2409  3.0840
  775SOL     OW 2323   2.185   3.016   0.482 -0.1218  0.2988 -0.6924
  775SOL    HW1 2324   2.241   2.988   0.562 -1.9261  0.9162 -1.8095
  775SOL    HW2 2325   2.149   2.931   0.437  0.7016  0.7726  0.8868
  776SOL     OW 2326   2.064   1.273   1.800 -0.0738 -0.1538 -0.4239
  776SOL    HW1 2327   2.117   1.304   1.718 -2.9054 -1.5862 -0.9467
  776SOL    HW2 2328   2.061   1.172   1.800  2.4789  4.0499  2.8523
  777SOL     OW 2329   0.108   1.241   2.468 -0.1270  0.3378  0.2729
  777SOL    HW1 2330   0.189   1.180   2.455  0.7734 -0.7969  0.1473
  777SOL    HW2 2331   0.086   1.281   2.376 -1.2864 -1.3731 -1.9045
  778SOL     OW 2332   2.333   0.980   2.354  0.3631 -0.6247 -0.1494
  778SOL    HW1 2333   2.263   0.947   2.414  2.6714  2.9420 -0.2662
  778SOL    HW2 2334   2.424   0.996   2.395 -2.9402 -0.9337 -0.6480
  779SOL     OW 2335   0.016   0.402   2.762 -0.1757  0.1097 -0.0607
  779SOL    HW1 2336   0.099   0.442   2.717  0.7008  0.9584 -1.5030
  779SOL    HW2 2337   3.055   0.325   2.711  0.7955  0.8159  0.5933
  780SOL     OW 2338   2.141   2.838   2.394 -0.6736 -0.4501 -0.0912
  780SOL    HW1 2339   2.114   2.829   2.296  3.3321 -1.6095  1.4057
  780SOL    HW2 2340   2.208   2.916   2.411 -0.2631 -1.1384  0.0858
  781SOL     OW 2341   2.934   0.906   1.669  0.3572  0.1286  0.0027
  781SOL    HW1 2342   2.868   0.848   1.718  1.4707  1.5097  1.4590
  781SOL    HW2 2343   2.897   0.958   1.594  3.3331 -0.3527  0.3827
  782SOL     OW 2344   2.013   2.278   0.096  0.5979  0.6385  0.0635
  782SOL    HW1 2345   2.017   2.190   0.045  1.4925 -1.4844 -1.5337
  782SOL    HW2 2346   2.068   2.343   0.046 -1.2992 -1.7482 -0.4810
  783SOL     OW 2347   0.371   2.176   1.119 -0.0680 -0.0788 -0.0038
  783SOL    HW1 2348   0.330   2.085   1.146 -1.9525 -0.7814  1.4548
  783SOL    HW2 2349   0.429   2.215   1.189 -0.1872 -1.5509 -0.0650
  784SOL     OW 2350   2.512   0.554   2.170  0.1689 -0.2226  0.0113
  784SOL    HW1 2351   2.461   0.466   2.145 -1.5899  0.6041 -1.7605
  784SOL    HW2 2352   2.448   0.625   2.205 -1.6089  1.3245  0.8798
  785SOL     OW 2353   0.115   0.026   1.222  0.1868  0.0005  0.2687
  785SOL    HW1 2354   0.173   0.100   1.266 -1.9526  0.5801  1.4896
  785SOL    HW2 2355   0.083   3.046   1.301  1.2653 -1.9249 -0.0586
  786SOL     OW 2356   1.418   2.716   0.591  0.5817  0.2565 -0.1409
  786SOL    HW1 2357   1.331   2.664   0.627 -1.5375 -2.4735  2.8664
  786SOL    HW2 2358   1.400   2.811   0.565  0.5428  0.1456 -2.8391
  787SOL     OW 2359   1.182   0.109   0.645 -0.5613 -0.7596 -0.3653
  787SOL    HW1 2360   1.201   0.137   0.548  2.2484  1.9874 -2.2919
  787SOL    HW2 2361   1.081   0.106   0.663  0.5746 -0.8523  0.0785
  788SOL     OW 2362   2.900   1.388   1.136 -0.0186 -0.4326  0.6845
  788SOL    HW1 2363   2.896   1.435   1.041  2.3928  2.3011 -1.8783
  788SOL    HW2 2364   2.994   1.365   1.163 -1.8952 -1.9189 -2.4767
  789SOL     OW 2365   2.917   0.643   2.028  0.1665  0.8992 -0.0476
  789SOL    HW1 2366   2.844   0.708   2.001  1.8212  0.1614  2.7632
  789SOL    HW2 2367   2.905   0.611   2.123  0.7686 -3.8011  1.8408
  790SOL     OW 2368   0.965   0.704   2.812 -0.2075 -0.2611  0.4765
  790SOL    HW1 2369   1.051   0.677   2.766  0.9818 -2.5763  1.1948
  790SOL    HW2 2370   0.947   0.801   2.798 -1.2395 -0.7700  1.0100
  791SOL     OW 2371   0.131   2.643   0.004 -0.3494  0.2973 -0.2647
  791SOL    HW1 2372   0.222   2.601   3.063  1.9816  1.8029 -3.2585
  791SOL    HW2 2373   0.058   2.612   3.016  0.4288 -0.9803 -1.0452
  792SOL     OW 2374   1.303   0.796   1.954  0.3049 -0.2349  0.1171
  792SOL    HW1 2375   1.271   0.700   1.947  1.0060  1.3643 -0.9814
  792SOL    HW2 2376   1.401   0.805   1.929 -1.3473  1.0004  0.1235
  793SOL     OW 2377   2.785   0.607   1.332 -0.0152 -0.0867 -0.7095
  793SOL    HW1 2378   2.692   0.602   1.380 -0.5264 -0.8788 -1.9648
  793SOL    HW2 2379   2.767   0.603   1.234 -0.5636 -1.6458  1.4526
  794SOL     OW 2380   2.895   0.291   2.262 -0.0471  1.1366 -0.2829
  794SOL    HW1 2381   2.880   0.390   2.269 -1.2727 -0.4046  0.4606
  794SOL    HW2 2382   2.995   0.264   2.275  1.6918  0.7409 -2.8547
  795SOL     OW 2383   0.584   1.856   3.060 -0.0026 -0.2811 -0.1011
  795SOL    HW1 2384   0.525   1.895   0.060 -2.3822 -0.5429  0.8575
  795SOL    HW2 2385   0.685   1.861   0.002  0.1372 -3.8412 -0.8678
  796SOL     OW 2386   2.735   0.649   2.947  0.2601  0.4216  0.6971
  796SOL    HW1 2387   2.682   0.701   2.875 -4.2679  0.6980 -0.3554
  796SOL    HW2 2388   2.700   0.687   3.032  0.5479  0.7238 -1.4766
  797SOL     OW 2389   2.533   2.167   2.685  0.5165 -0.6079 -0.6000
  797SOL    HW1 2390   2.628   2.176   2.715  0.4618  0.6833  0.8401
  797SOL    HW2 2391   2.472   2.239   2.724  1.1965  1.2778 -3.0543
  798SOL     OW 2392   2.937   0.063   1.094 -0.0277 -0.2895 -0.0748
  798SOL    HW1 2393   3.035   0.049   1.118 -0.6962 -1.5160  2.3835
  798SOL    HW2 2394   2.924   0.150   1.045  2.2082 -3.9488 -0.2815
  799SOL     OW 2395   0.321   0.241   1.532 -0.1561 -0.1442 -0.2958
  799SOL    HW1 2396   0.368   0.228   1.439 -1.5056  0.8454 -2.0592
  799SOL    HW2 2397   0.387   0.221   1.609  2.9228  0.4657  1.3157
  800SOL     OW 2398   0.314   1.591   0.348 -0.6778  0.3040  0.3535
  800SOL    HW1 2399   0.254   1.550   0.275 -0.6433  0.4322 -0.8923
  800SOL    HW2 2400   0.411   1.560   0.340 -1.4926 -0.6889  0.0951
  801SOL     OW 2401   1.624   1.687   0.770 -0.2038  0.1385 -0.3959
  801SOL    HW1 2402   1.604   1.704   0.870  0.1831  0.9982 -0.4328
  801SOL    HW2 2403   1.725   1.660   0.764  0.6979 -1.5439  0.9641
  802SOL     OW 2404   1.377   1.017   2.938  0.1701  0.0062 -0.5327
  802SOL    HW1 2405   1.407   0.992   2.844 -1.9127  2.1149  0.9270
  802SOL    HW2 2406   1.416   1.108   2.964 -0.1487  1.1329  1.7550
  803SOL     OW 2407   1.098   1.810   1.811 -0.0985  0.0535 -0.1319
  803SOL    HW1 2408   1.145   1.804   1.720  1.8922 -1.3224  2.1840
  803SOL    HW2 2409   1.115   1.722   1.864 -0.2421 -1.7710  1.6999
  804SOL     OW 2410   1.566   2.294   0.941  0.4753 -0.8197  1.0197
  804SOL    HW1 2411   1.628   2.213   0.933  1.3726 -0.5172 -0.6903
  804SOL    HW2 2412   1.513   2.302   0.857  0.1570  1.3984  3.5199
  805SOL     OW 2413   0.209   2.376   2.084  0.3779 -0.2520  0.2356
  805SOL    HW1 2414   0.158   2.408   1.999  3.3910 -0.5828 -2.4053
  805SOL    HW2 2415   0.313   2.373   2.064  0.1987  0.9332  0.9866
  806SOL     OW 2416   0.647   3.007   0.435  0.0672 -0.1229 -0.3154
  806SOL    HW1 2417   0.736   3.055   0.430  4.0055  1.5359 -0.4207
  806SOL    HW2 2418   0.597   3.015   0.346  0.3229  2.2129  0.1324
  807SOL     OW 2419   2.601   0.908   2.916 -0.1238 -0.3534 -0.0672
  807SOL    HW1 2420   2.554   0.919   3.005  0.5089 -0.9644 -2.2365
  807SOL    HW2 2421   2.552   0.847   2.852  1.4653  1.1975 -1.3205
  808SOL     OW 2422   1.390   1.995   0.875 -0.2780 -0.9616 -0.3333
  808SOL    HW1 2423   1.413   2.078   0.821  1.9977  0.5144 -1.4833
  808SOL    HW2 2424   1.330   1.934   0.824  3.0911  0.9183  3.5407
  809SOL     OW 2425   0.218   0.078   0.392 -0.7134  0.4532  0.1672
  809SOL    HW1 2426   0.144   0.030   0.338 -1.5406 -0.2603 -1.9633
  809SOL    HW2 2427   0.264   0.144   0.339 -0.5072 -3.4785  3.0601
  810SOL     OW 2428   1.156   1.460   0.666  0.4284  0.0921  0.0533
  810SOL    HW1 2429   1.176   1.470   0.763 -0.5235 -1.2694 -0.6525
  810SOL    HW2 2430   1.185   1.368   0.639 -0.0299  0.5970  0.9125
  811SOL     OW 2431   1.391   2.811   1.329  0.3617 -0.4865 -0.4937
  811SOL    HW1 2432   1.462   2.737   1.316 -0.4480 -0.7747 -0.6066
  811SOL    HW2 2433   1.367   2.847   1.237 -4.0043 -0.2723 -2.0175
  812SOL     OW 2434   1.153   0.090   0.227  0.4729  0.2548  0.1880
  812SOL    HW1 2435   1.122   3.074   0.256  1.1088 -0.3266 -1.2217
  812SOL    HW2 2436   1.139   0.159   0.300 -1.1696 -0.7285 -2.4189
  813SOL     OW 2437   1.053   0.057   2.183  0.3546 -0.6438 -0.1925
  813SOL    HW1 2438   1.140   0.068   2.132 -0.6076  0.4961 -0.9921
  813SOL    HW2 2439   1.073   0.053   2.281 -0.9447  1.2954 -4.5872
  814SOL     OW 2440   0.562   2.816   1.266 -0.0010 -0.5581  0.1822
  814SOL    HW1 2441   0.616   2.894   1.235 -2.7408 -1.0874  0.0873
  814SOL    HW2 2442   0.489   2.794   1.198 -1.8474  0.4295 -0.4856
  815SOL     OW 2443   0.191   2.557   0.555 -0.2463  0.4296 -0.0292
  815SOL    HW1 2444   0.176   2.633   0.494 -0.9778 -2.3301  3.2935
  815SOL    HW2 2445   0.188   2.467   0.507  1.4830  2.2047  1.3657
  816SOL     OW 2446   2.552   1.594   2.693  0.5453  0.1389  0.0805
  816SOL    HW1 2447   2.579   1.535   2.777  1.5395 -1.4472  3.0461
  816SOL    HW2 2448   2.499   1.540   2.624 -0.9548 -1.4817 -2.2669
  817SOL     OW 2449   1.781   2.613   2.855 -0.4626 -0.2639  0.0724
  817SOL    HW1 2450   1.857   2.566   2.810 -2.6277 -0.7920  1.4339
  817SOL    HW2 2451   1.811   2.709   2.881  1.8174  1.3410 -0.3655
  818SOL     OW 2452   1.260   1.101   0.322 -0.1820  0.2011  0.7169
  818SOL    HW1 2453   1.220   1.122   0.230  1.8878  2.1276 -0.6729
  818SOL    HW2 2454   1.281   1.004   0.343  0.6374  1.8281 -0.2712
  819SOL     OW 2455   1.537   1.837   3.026  0.2443  0.2138  0.5729
  819SOL    HW1 2456   1.496   1.878   0.033  1.0558  0.8456  0.6844
  819SOL    HW2 2457   1.464   1.817   2.958  3.8564 -4.2694  0.9104
  820SOL     OW 2458   0.629   0.769   0.091 -0.5043 -0.1449 -0.1602
  820SOL    HW1 2459   0.623   0.812   3.076 -0.8267 -0.5617  0.9106
  820SOL    HW2 2460   0.665   0.675   0.088 -0.3300 -0.6579  0.5986
  821SOL     OW 2461   0.334   0.128   0.897 -0.3890  0.2356  0.2126
  821SOL    HW1 2462   0.420   0.155   0.848  1.6604  2.8460 -0.0589
  821SOL    HW2 2463   0.316   0.189   0.978  0.6242  1.2587  0.2374
  822SOL     OW 2464   1.618   2.444   2.485  0.4798  0.1745 -0.2269
  822SOL    HW1 2465   1.527   2.396   2.481  0.0360 -1.0175 -0.0044
  822SOL    HW2 2466   1.676   2.408   2.562 -0.3249 -0.1176  2.0980
  823SOL     OW 2467   0.995   0.815   2.211 -0.2976  0.1387  0.3174
  823SOL    HW1 2468   1.095   0.809   2.209 -0.2002 -1.9503  0.5557
  823SOL    HW2 2469   0.959   0.725   2.246 -1.1039 -0.2675  0.1888
  824SOL     OW 2470   2.303   0.286   1.487  0.2668 -0.1251 -0.1571
  824SOL    HW1 2471   2.300   0.383   1.451  2.6190  2.3274 -1.1301
  824SOL    HW2 2472   2.238   0.273   1.561  1.2225  0.7242  1.6940
  825SOL     OW 2473   0.666   1.214   0.102 -0.4732 -0.4312  0.2505
  825SOL    HW1 2474   0.720   1.263   0.030 -0.9802  2.0082 -1.8361
  825SOL    HW2 2475   0.613   1.139   0.063  3.6545  0.7670  3.2490
  826SOL     OW 2476   2.097   0.584   2.510  0.2755 -0.6714  0.0879
  826SOL    HW1 2477   2.183   0.533   2.522 -0.7867  3.0058 -0.4525
  826SOL    HW2 2478   2.082   0.603   2.409  1.2315  2.3812 -1.3084
  827SOL     OW 2479   0.897   2.173   2.519  0.1038  0.3709  0.1039
  827SOL    HW1 2480   0.833   2.207   2.448 -0.8898 -0.4259 -1.4953
  827SOL    HW2 2481   0.874   2.201   2.614 -1.3218 -0.1996 -1.1345
  828SOL     OW 2482   2.684   0.071   1.306  0.2171 -0.1867  0.1202
  828SOL    HW1 2483   2.762   0.088   1.239 -1.7771  2.7230  0.1249
  828SOL    HW2 2484   2.658   3.053   1.328 -3.7698 -2.1438  1.6875
  829SOL     OW 2485   1.203   1.749   1.532 -0.3839  0.2520  0.2342
  829SOL    HW1 2486   1.283   1.716   1.486 -1.0393  1.1903 -0.0324
  829SOL    HW2 2487   1.142   1.669   1.552 -4.6358 -1.3853  1.5154
  830SOL     OW 2488   0.540   1.107   1.734  0.2957  0.4640 -0.5927
  830SOL    HW1 2489   0.529   1.069   1.643 -1.1547 -1.6021 -0.9593
  830SOL    HW2 2490   0.474   1.054   1.795  0.6721 -0.8555  2.1846
  831SOL     OW 2491   2.964   1.734   0.086  0.0706 -0.1233 -0.4921
  831SOL    HW1 2492   2.919   1.823   0.070 -0.5228  2.0806  1.1935
  831SOL    HW2 2493   3.045   1.730   0.021  2.4921 -1.6041  0.4748
  832SOL     OW 2494   1.152   2.708   0.297  0.4753  0.0265  0.4005
  832SOL    HW1 2495   1.063   2.656   0.297  0.3194 -1.2124  1.3620
  832SOL    HW2 2496   1.202   2.693   0.205  2.6062  0.2720 -1.7355
  833SOL     OW 2497   3.008   0.337   1.676 -0.2142 -0.0707 -0.4723
  833SOL    HW1 2498   2.945   0.379   1.746 -1.9094  0.6837 -2.3433
  833SOL    HW2 2499   3.052   0.416   1.628  2.3015  0.0521  0.9860
  834SOL     OW 2500   3.065   1.154   0.987 -0.4914  0.0070  0.1499
  834SOL    HW1 2501   3.068   1.235   0.931 -0.5359 -1.5315 -0.1729
  834SOL    HW2 2502   3.015   1.078   0.942  0.9491 -2.3615 -0.6686
  835SOL     OW 2503   2.490   2.885   0.980  0.6432 -0.1759  1.0953
  835SOL    HW1 2504   2.406   2.933   0.951 -2.1560 -0.2643 -1.7667
  835SOL    HW2 2505   2.572   2.940   0.982 -2.6801 -0.3722 -1.3280
  836SOL     OW 2506   0.895   1.924   2.779 -0.3139 -0.5009  0.2291
  836SOL    HW1 2507   0.957   2.003   2.781 -1.3957 -1.4815 -0.2928
  836SOL    HW2 2508   0.800   1.961   2.769 -0.2304  0.1624  0.0557
  837SOL     OW 2509   1.675   2.020   2.874  0.2144  0.0741  0.1360
  837SOL    HW1 2510   1.627   1.961   2.941 -0.4481 -0.2717 -0.1955
  837SOL    HW2 2511   1.664   2.120   2.903 -0.9733 -0.0226 -1.3792
  838SOL     OW 2512   0.060   0.778   2.232  0.6727 -0.4714 -0.5515
  838SOL    HW1 2513   0.069   0.688   2.188  0.4633 -0.2971  0.9829
  838SOL    HW2 2514   3.066   0.840   2.184 -2.9665  0.0130 -1.6889
  839SOL     OW 2515   0.823   0.993   2.800 -0.0046  0.4085  0.4304
  839SOL    HW1 2516   0.830   0.996   2.699 -1.4781  0.9451  2.1572
  839SOL    HW2 2517   0.817   1.089   2.840 -2.4614  0.0770  0.3958
  840SOL     OW 2518   1.567   0.522   0.256 -0.0469  0.2929  0.0478
  840SOL    HW1 2519   1.670   0.518   0.274  0.2455  0.6849  0.0235
  840SOL    HW2 2520   1.510   0.480   0.331  0.2797 -0.1788  1.9179
  841SOL     OW 2521   0.749   2.607   0.785 -0.0861 -0.4589 -0.0178
  841SOL    HW1 2522   0.673   2.569   0.840 -1.1190 -2.7771  0.9544
  841SOL    HW2 2523   0.710   2.675   0.719 -0.9839 -1.4101  1.7940
  842SOL     OW 2524   0.300   0.595   0.302 -0.1092  0.4285 -0.0831
  842SOL    HW1 2525   0.198   0.604   0.309  1.6568 -0.9906 -0.6765
  842SOL    HW2 2526   0.347   0.666   0.361  0.4716  0.7062  0.3287
  843SOL     OW 2527   0.596   0.740   1.404 -0.2044 -0.2418  0.1426
  843SOL    HW1 2528   0.647   0.667   1.455  0.3905 -1.5869  3.1175
  843SOL    HW2 2529   0.560   0.818   1.460 -1.5759  1.4608  3.0754
  844SOL     OW 2530   2.010   2.494   2.768  0.2881 -0.2962  0.0872
  844SOL    HW1 2531   2.056   2.551   2.700  2.6038 -1.5115  1.1013
  844SOL    HW2 2532   2.078   2.467   2.842  0.4187  0.2855  0.4760
  845SOL     OW 2533   2.234   0.260   1.777 -0.6181 -0.2371  0.4021
  845SOL    HW1 2534   2.302   0.197   1.822  0.5220 -0.0675 -1.3113
  845SOL    HW2 2535   2.148   0.249   1.826  4.0109  0.5924 -1.1496
  846SOL     OW 2536   2.190   1.798   2.618  0.6051 -0.1443 -0.2755
  846SOL    HW1 2537   2.140   1.709   2.608 -0.6340  0.3079 -0.3201
  846SOL    HW2 2538   2.239   1.818   2.533 -2.2590  0.6892  2.6696
  847SOL     OW 2539   2.056   2.833   2.108 -0.1771 -0.5822  0.0856
  847SOL    HW1 2540   1.974   2.782   2.139  1.8483 -2.4343  0.4895
  847SOL    HW2 2541   2.127   2.766   2.076  0.1146  0.2526  0.5055
  848SOL     OW 2542   0.205   2.870   0.149 -0.0960 -0.1574 -0.3001
  848SOL    HW1 2543   0.302   2.883   0.122 -1.1717 -0.3019  1.7157
  848SOL    HW2 2544   0.165   2.787   0.106  1.0932 -0.1463 -1.4544
  849SOL     OW 2545   0.508   2.794   1.546  0.5012  0.1294 -0.1177
  849SOL    HW1 2546   0.538   2.761   1.455 -1.7610  0.9548 -0.2036
  849SOL    HW2 2547   0.491   2.895   1.547  1.3302 -1.5790 -0.6803
  850SOL     OW 2548   3.056   1.734   0.896 -0.3841  0.0449 -0.4376
  850SOL    HW1 2549   3.042   1.808   0.965  1.0132  0.0949  0.1663
  850SOL    HW2 2550   0.038   1.776   0.827 -2.1327 -0.1623  1.6152
  851SOL     OW 2551   3.002   0.695   2.901  0.3840 -0.7757  0.3993
  851SOL    HW1 2552   3.051   0.704   2.814  0.1571 -0.3190 -0.5370
  851SOL    HW2 2553   2.901   0.687   2.887 -2.3578 -1.9727 -0.7150
  852SOL     OW 2554   1.843   2.095   2.654  0.6590 -0.6661 -0.2242
  852SOL    HW1 2555   1.783   2.037   2.712 -0.3317  0.1749  0.3983
  852SOL    HW2 2556   1.931   2.046   2.645  1.6487 -1.8726 -0.8577
  853SOL     OW 2557   0.696   1.772   0.428  0.2166 -0.1951  0.8942
  853SOL    HW1 2558   0.603   1.799   0.456  0.9028 -1.8430 -0.7209
  853SOL    HW2 2559   0.704   1.796   0.331 -3.5645 -1.7349 -0.3319
  854SOL     OW 2560   1.724   1.199   2.015 -0.1558 -0.4319 -0.2974
  854SOL    HW1 2561   1.627   1.228   2.005 -0.9659 -0.3049 -1.3799
  854SOL    HW2 2562   1.779   1.284   2.041  0.0852  1.3338  1.9764
  855SOL     OW 2563   0.746   2.166   0.004 -0.2552  0.2119 -1.1287
  855SOL    HW1 2564   0.694   2.145   0.086  2.6792 -0.4414 -0.0322
  855SOL    HW2 2565   0.689   2.202   3.009  0.8271 -0.9142  0.6341
  856SOL     OW 2566   0.376   0.083   1.961 -0.6242  0.1990 -0.3355
  856SOL    HW1 2567   0.356   3.061   1.965 -2.8871  0.5584  0.3935
  856SOL    HW2 2568   0.439   0.118   2.037  0.2987 -0.5898  0.0531
  857SOL     OW 2569   0.725   0.307   1.804 -0.4854  0.0331  0.7338
  857SOL    HW1 2570   0.706   0.372   1.879  1.2496 -2.2257 -0.1102
  857SOL    HW2 2571   0.795   0.348   1.735  0.8618  0.6362 -1.5959
  858SOL     OW 2572   0.080   2.126   2.025  0.1244 -0.2503 -0.6803
  858SOL    HW1 2573   3.066   2.130   2.063 -0.2940  1.5954 -2.8792
  858SOL    HW2 2574   0.129   2.215   2.025 -2.8661 -1.3589  2.0983
  859SOL     OW 2575   2.002   2.179   1.070  0.3909 -0.4745  0.2253
  859SOL    HW1 2576   1.990   2.252   1.139  1.3721 -1.0303 -0.7219
  859SOL    HW2 2577   1.910   2.141   1.043  0.0490 -0.0547  1.8542
  860SOL     OW 2578   1.927   0.477   0.539 -0.9675 -0.2561  0.0308
  860SOL    HW1 2579   1.962   0.401   0.594  1.6437 -1.8086  0.0124
  860SOL    HW2 2580   1.827   0.488   0.544  1.0962 -0.7890  0.3851
  861SOL     OW 2581   0.200   0.533   1.086 -0.1972 -0.0076 -0.3021
  861SOL    HW1 2582   0.233   0.609   1.145 -1.4959  0.3855  0.2335
  861SOL    HW2 2583   0.110   0.502   1.112  1.9712 -0.0075 -1.8410
  862SOL     OW 2584   2.321   0.766   1.619 -0.1110  0.5451 -0.3535
  862SOL    HW1 2585   2.297   0.805   1.714 -1.0222  0.1093  0.7180
  862SOL    HW2 2586   2.246   0.787   1.552  1.1305  1.3985 -0.3177
  863SOL     OW 2587   0.314   1.305   1.514 -0.0938 -0.0704 -0.6089
  863SOL    HW1 2588   0.253   1.315   1.600 -1.2291 -2.4051  1.1676
  863SOL    HW2 2589   0.301   1.386   1.451 -0.5431  2.0331  2.1928
  864SOL     OW 2590   2.395   0.097   1.907 -0.3337  0.0770  0.7468
  864SOL    HW1 2591   2.343   0.090   1.998 -3.4476  1.1020 -0.1067
  864SOL    HW2 2592   2.490   0.136   1.918 -2.0808 -0.8324  2.1287
  865SOL     OW 2593   1.529   0.270   2.146 -0.3077  0.2472  0.0244
  865SOL    HW1 2594   1.540   0.348   2.079  3.2977  1.5909  0.4397
  865SOL    HW2 2595   1.621   0.232   2.165 -2.6211  1.0715  1.1522
  866SOL     OW 2596   2.363   2.909   0.659  0.0939 -0.5523  0.2157
  866SOL    HW1 2597   2.386   2.808   0.674 -0.3710 -1.5789  1.0636
  866SOL    HW2 2598   2.439   2.971   0.639 -2.4837 -1.9463  4.5652
  867SOL     OW 2599   2.675   2.595   0.814 -0.3210 -0.1063  0.5285
  867SOL    HW1 2600   2.750   2.668   0.818  1.8818  1.1408  1.3227
  867SOL    HW2 2601   2.628   2.596   0.902 -1.1636 -0.7758 -1.5209
  868SOL     OW 2602   1.730   1.371   2.834 -0.2618 -0.4106 -0.1548
  868SOL    HW1 2603   1.659   1.433   2.795  1.4318  2.2466  0.7574
  868SOL    HW2 2604   1.796   1.348   2.762  0.5489  0.2699 -1.7067
  869SOL     OW 2605   2.565   1.819   0.607  0.6344  0.2726  0.0099
  869SOL    HW1 2606   2.464   1.798   0.618 -2.2688  1.0736  0.2574
  869SOL    HW2 2607   2.576   1.887   0.530  2.5554  1.7795  0.2432
  870SOL     OW 2608   2.791   1.898   0.321 -0.5691  0.0123  0.2151
  870SOL    HW1 2609   2.801   1.798   0.349  0.1995  0.1406  1.6362
  870SOL    HW2 2610   2.710   1.935   0.369 -0.0648  1.2707 -0.0712
  871SOL     OW 2611   0.210   1.039   1.461 -0.5127 -0.8134 -0.7083
  871SOL    HW1 2612   0.226   1.139   1.478  0.3830  0.3661  0.6162
  871SOL    HW2 2613   0.133   1.042   1.395 -1.5782  2.2641  0.5574
  872SOL     OW 2614   0.577   1.597   2.365 -0.4267 -0.0102  0.3510
  872SOL    HW1 2615   0.591   1.624   2.267 -0.7951 -0.9539  0.3569
  872SOL    HW2 2616   0.593   1.677   2.424  1.0322 -0.2980 -0.0054
  873SOL     OW 2617   0.249   2.875   1.632 -0.0417 -0.0649 -0.7483
  873SOL    HW1 2618   0.251   2.902   1.728 -1.7647  2.1578 -2.5012
  873SOL    HW2 2619   0.333   2.821   1.603 -0.3124  0.1493  0.0403
  874SOL     OW 2620   1.256   0.858   2.226 -0.0611 -1.0070 -0.0950
  874SOL    HW1 2621   1.293   0.863   2.131 -0.1011  3.1847  3.9080
  874SOL    HW2 2622   1.328   0.863   2.295 -2.0735  1.3017 -0.6448
  875SOL     OW 2623   2.717   3.016   0.996 -0.1171  0.1986 -0.2587
  875SOL    HW1 2624   2.801   3.051   1.043  0.8041  0.1827 -2.3761
  875SOL    HW2 2625   2.692   0.009   0.928 -0.0715  0.5582  1.4486
  876SOL     OW 2626   0.734   1.247   0.369 -0.4693 -0.1669 -0.1654
  876SOL    HW1 2627   0.747   1.236   0.268  0.0076 -0.1072  0.9582
  876SOL    HW2 2628   0.755   1.342   0.402  1.3694  2.6332 -0.8949
  877SOL     OW 2629   1.130   0.972   1.471  0.0025 -0.4082  0.3347
  877SOL    HW1 2630   1.186   0.982   1.562 -1.4742  0.0216  2.4400
  877SOL    HW2 2631   1.174   0.903   1.409  1.6489 -0.0418  2.5278
  878SOL     OW 2632   2.382   2.127   0.319  0.0386 -0.0752  0.1578
  878SOL    HW1 2633   2.317   2.113   0.396  0.6657  0.4894 -1.0787
  878SOL    HW2 2634   2.350   2.204   0.256 -0.6514  0.1943 -1.0998
  879SOL     OW 2635   2.401   2.041   1.962 -0.4739  0.2548 -0.3837
  879SOL    HW1 2636   2.488   2.032   2.010 -2.0598  0.4487  2.1613
  879SOL    HW2 2637   2.347   2.116   1.999  3.1645 -0.9475  0.1890
  880SOL     OW 2638   0.986   2.406   1.057  0.0499  0.3947 -0.1194
  880SOL    HW1 2639   1.055   2.400   1.131  0.7903 -0.0677 -0.2778
  880SOL    HW2 2640   0.898   2.365   1.086  0.8462 -1.0014 -0.6303
  881SOL     OW 2641   0.895   1.836   0.623  0.1859  0.9121  0.4121
  881SOL    HW1 2642   0.829   1.805   0.549  0.3491 -3.2086 -0.9982
  881SOL    HW2 2643   0.890   1.938   0.629 -2.5687 -0.8990 -1.1735
  882SOL     OW 2644   1.967   1.322   0.309  0.2010  0.0296 -0.1347
  882SOL    HW1 2645   1.932   1.378   0.229  0.4964  1.1942  0.8072
  882SOL    HW2 2646   2.068   1.326   0.320 -2.8950 -0.3068 -2.0715
  883SOL     OW 2647   1.525   0.829   0.922  0.3459  0.9502  0.0053
  883SOL    HW1 2648   1.529   0.861   1.027  2.7254  1.4017  4.0214
  883SOL    HW2 2649   1.623   0.798   0.902  2.2964 -0.9642 -3.5404
  884SOL     OW 2650   2.875   2.621   0.391 -0.2749 -0.6093  0.3503
  884SOL    HW1 2651   2.924   2.669   0.312 -0.3447 -0.5024  0.6871
  884SOL    HW2 2652   2.801   2.687   0.419 -0.6998 -0.5140 -2.9475
  885SOL     OW 2653   0.949   1.396   2.103 -0.0963  0.5648  0.5132
  885SOL    HW1 2654   0.901   1.350   2.184 -0.9286 -3.7819  1.0972
  885SOL    HW2 2655   1.037   1.346   2.080 -0.4682 -2.0565 -1.4394
  886SOL     OW 2656   1.226   1.864   2.367 -0.1390 -0.1427 -0.0764
  886SOL    HW1 2657   1.218   1.955   2.414  1.0191  0.0041  1.3368
  886SOL    HW2 2658   1.306   1.813   2.400 -0.9230 -0.6021 -0.4839
  887SOL     OW 2659   1.325   0.798   0.770 -0.0141  0.4695 -0.2090
  887SOL    HW1 2660   1.390   0.811   0.848  1.2004 -0.2984  0.6755
  887SOL    HW2 2661   1.229   0.830   0.791  1.0057 -0.3013 -1.3976
  888SOL     OW 2662   2.438   0.692   1.893 -0.1118  0.2055 -0.1374
  888SOL    HW1 2663   2.419   0.618   1.823  1.3971  0.7086 -0.5813
  888SOL    HW2 2664   2.447   0.653   1.983 -2.4946  0.4190 -1.5257
  889SOL     OW 2665   2.706   1.990   0.970  0.6805 -0.4403 -0.1735
  889SOL    HW1 2666   2.753   1.961   0.881  0.7166  1.1256  0.6104
  889SOL    HW2 2667   2.645   2.071   0.954  1.1783 -2.3446  0.3955
  890SOL     OW 2668   1.242   2.157   0.326 -0.2263 -0.2416 -0.6506
  890SOL    HW1 2669   1.285   2.089   0.389  0.9160 -1.5233  1.1849
  890SOL    HW2 2670   1.216   2.105   0.239 -2.2026  0.3250  0.5796
  891SOL     OW 2671   2.825   0.440   2.805 -0.4062  0.2355 -0.0374
  891SOL    HW1 2672   2.925   0.419   2.807 -1.3960 -0.3394  1.7305
  891SOL    HW2 2673   2.798   0.518   2.867  1.3771  2.9680  0.4109
  892SOL     OW 2674   2.880   2.363   1.011  0.0081  0.3156  0.3638
  892SOL    HW1 2675   2.891   2.461   0.992  0.2328  1.9154 -0.9574
  892SOL    HW2 2676   2.886   2.350   1.113 -1.1256 -0.8962  1.0303
  893SOL     OW 2677   1.290   0.273   0.873 -0.2071 -0.2989  0.3773
  893SOL    HW1 2678   1.303   0.195   0.809  3.1548 -3.1827  0.7179
  893SOL    HW2 2679   1.322   0.357   0.831  0.3463 -0.3458  1.8494
  894SOL     OW 2680   2.865   0.279   0.938 -0.2066 -0.1097  0.2795
  894SOL    HW1 2681   2.933   0.287   0.861  0.0885 -0.3078  0.5280
  894SOL    HW2 2682   2.768   0.266   0.899 -1.6483 -1.8593 -1.1266
  895SOL     OW 2683   2.060   1.534   2.805  0.4050  0.5377 -0.1020
  895SOL    HW1 2684   2.062   1.515   2.705 -4.5215 -1.0270  0.8243
  895SOL    HW2 2685   2.062   1.448   2.856 -1.9763 -1.5029 -1.2086
  896SOL     OW 2686   1.930   0.661   1.566 -0.0462 -0.1200 -0.3559
  896SOL    HW1 2687   1.987   0.719   1.510 -3.3414 -1.3489 -0.5378
  896SOL    HW2 2688   1.832   0.658   1.540 -1.5888 -0.7940  3.9846
  897SOL     OW 2689   3.023   1.476   1.480  0.4151  0.0481  0.2823
  897SOL    HW1 2690   3.044   1.575   1.454  3.0034  4.8743 -2.7607
  897SOL    HW2 2691   3.076   1.424   1.411 -1.9722  0.1203  1.9998
  898SOL     OW 2692   2.058   2.424   1.979  0.0615 -0.0543  0.5084
  898SOL    HW1 2693   1.986   2.357   2.001 -1.3410  2.8588  0.9105
  898SOL    HW2 2694   2.047   2.443   1.882 -0.6570  1.9243 -2.7588
  899SOL     OW 2695   1.000   1.674   1.045  0.2524 -0.6735  0.1015
  899SOL    HW1 2696   1.041   1.754   1.097  0.2571 -0.2699 -1.8507
  899SOL    HW2 2697   0.928   1.706   0.976 -0.3726 -2.5463  2.3430
  900SOL     OW 2698   1.349   2.412   2.364  0.1438 -0.0702  0.5272
  900SOL    HW1 2699   1.332   2.332   2.299 -2.1812 -0.2736 -0.1884
  900SOL    HW2 2700   1.322   2.494   2.312 -0.2085  1.1490  0.5225
  901SOL     OW 2701   0.630   1.701   2.120 -0.0898  0.4305  0.1360
  901SOL    HW1 2702   0.544   1.750   2.093 -2.3739 -1.6499 -0.0588
  901SOL    HW2 2703   0.716   1.757   2.111  0.7805  0.5919 -1.1057
  902SOL     OW 2704   2.067   1.312   2.992  0.1939  0.5066 -0.1886
  902SOL    HW1 2705   2.023   1.231   3.037  3.3696 -1.2489 -0.0024
  902SOL    HW2 2706   2.167   1.306   3.019  1.7436  2.7311  0.0775
  903SOL     OW 2707   1.923   1.467   0.090  0.9469 -0.1597 -0.3797
  903SOL    HW1 2708   1.979   1.418   0.023  0.0363  0.6939 -0.2944
  903SOL    HW2 2709   1.867   1.545   0.059  1.1112 -0.9338  1.4470
  904SOL     OW 2710   1.304   1.186   2.320  0.1226  0.3583  0.1106
  904SOL    HW1 2711   1.394   1.155   2.281 -2.1142  0.1109 -0.9838
  904SOL    HW2 2712   1.239   1.201   2.247  0.0316 -0.9627 -0.5206
  905SOL     OW 2713   2.479   0.456   1.011 -0.0934 -0.3575  0.4292
  905SOL    HW1 2714   2.462   0.361   0.988  2.9945 -0.4392 -2.8505
  905SOL    HW2 2715   2.439   0.515   0.940 -0.7913 -2.8208  1.9002
  906SOL     OW 2716   0.211   1.811   0.441  0.1194  0.6359  0.5536
  906SOL    HW1 2717   0.126   1.841   0.394  0.4960 -0.1382 -1.1294
  906SOL    HW2 2718   0.244   1.722   0.406  3.3939  1.5169  0.7701
  907SOL     OW 2719   1.583   2.991   0.235 -0.1514  0.5025  0.1768
  907SOL    HW1 2720   1.593   2.932   0.315  0.8207  0.7612 -0.9540
  907SOL    HW2 2721   1.552   0.008   0.267 -2.6180  3.2048  0.1576
  908SOL     OW 2722   1.579   2.601   1.795 -0.7346 -0.3449 -0.0026
  908SOL    HW1 2723   1.585   2.501   1.805 -2.4953  1.9925 -0.4308
  908SOL    HW2 2724   1.479   2.626   1.776 -0.9222  0.6234 -0.8284
  909SOL     OW 2725   2.629   0.756   1.719 -0.0457 -0.1592 -0.1421
  909SOL    HW1 2726   2.676   0.670   1.688 -0.4860 -2.0951  1.6553
  909SOL    HW2 2727   2.561   0.732   1.796  2.1743 -1.6904  3.3470
  910SOL     OW 2728   1.455   0.083   2.446 -0.3786 -0.1410  0.2690
  910SOL    HW1 2729   1.412   0.175   2.457 -0.2366 -1.9714 -1.2409
  910SOL    HW2 2730   1.385   0.011   2.468 -0.4522 -0.5963 -0.6509
  911SOL     OW 2731   2.430   1.442   2.509  0.4420  0.1982 -0.4981
  911SOL    HW1 2732   2.337   1.419   2.467  0.3273 -1.7152  1.4255
  911SOL    HW2 2733   2.503   1.382   2.475 -1.6924 -0.4816 -0.4019
  912SOL     OW 2734   2.413   2.236   1.534  0.5804  0.2899 -0.4421
  912SOL    HW1 2735   2.412   2.331   1.492 -0.4346  1.8840  1.9742
  912SOL    HW2 2736   2.336   2.225   1.601 -2.2891  2.4965  1.2848
  913SOL     OW 2737   2.419   2.391   1.854 -0.6666 -0.0548  0.3237
  913SOL    HW1 2738   2.485   2.466   1.873  0.8476  0.9949 -0.5472
  913SOL    HW2 2739   2.357   2.421   1.782 -1.3024 -0.1460  5.1254
  914SOL     OW 2740   2.361   2.014   1.359  0.5992  0.3902  0.2352
  914SOL    HW1 2741   2.362   2.074   1.440 -1.0320 -1.0250  2.0003
  914SOL    HW2 2742   2.262   1.998   1.335  0.3912  1.0731  0.6271
  915SOL     OW 2743   1.195   2.453   1.511 -0.6746 -0.5519  0.5376
  915SOL    HW1 2744   1.143   2.407   1.578 -1.8146  2.1802 -1.4174
  915SOL    HW2 2745   1.293   2.430   1.523  0.6190 -0.9057 -0.1297
  916SOL     OW 2746   0.120   2.477   0.984 -0.1046 -0.1433  0.4282
  916SOL    HW1 2747   0.096   2.548   0.914 -0.8489  0.2776 -3.3193
  916SOL    HW2 2748   0.190   2.516   1.046 -0.4105  2.2838  0.5159
  917SOL     OW 2749   2.804   1.094   2.888 -0.0019  0.2685 -0.1297
  917SOL    HW1 2750   2.731   1.023   2.873 -0.1387  1.4446 -0.2245
  917SOL    HW2 2751   2.842   1.137   2.806 -2.0231  1.9462  1.2856
  918SOL     OW 2752   1.901   1.748   2.823  0.1648 -0.3474 -0.3782
  918SOL    HW1 2753   1.871   1.753   2.918  0.3556  0.8602 -2.4996
  918SOL    HW2 2754   1.959   1.668   2.807 -0.5680 -1.4589  1.8340
  919SOL     OW 2755   1.371   2.139   1.368 -0.3177 -0.5807 -0.9041
  919SOL    HW1 2756   1.389   2.105   1.273  3.2482 -0.9754 -1.2322
  919SOL    HW2 2757   1.431   2.103   1.439 -0.6551  1.0991 -2.2372
  920SOL     OW 2758   0.859   0.435   2.733 -0.0479  0.6141  0.0100
  920SOL    HW1 2759   0.940   0.378   2.729 -1.7689  3.1249 -1.3818
  920SOL    HW2 2760   0.872   0.529   2.762 -1.3174 -1.4322 -0.0300
  921SOL     OW 2761   2.932   2.892   2.720  0.2095 -0.3395  0.2811
  921SOL    HW1 2762   2.906   2.931   2.627  0.7953 -0.2167 -2.7937
  921SOL    HW2 2763   3.005   2.823   2.719  1.3269  1.1770 -0.0621
  922SOL     OW 2764   2.404   1.846   1.772  0.6907 -0.1148 -0.6635
  922SOL    HW1 2765   2.469   1.856   1.697  1.8401 -1.2331  1.5178
  922SOL    HW2 2766   2.401   1.927   1.841 -0.5206 -2.0427  1.7041
  923SOL     OW 2767   0.639   1.995   2.801 -0.4922  0.1073 -0.0734
  923SOL    HW1 2768   0.609   1.936   2.878 -0.4306  0.1692  1.3148
  923SOL    HW2 2769   0.619   2.093   2.817  0.9250 -0.2120  3.4539
  924SOL     OW 2770   1.734   0.741   2.532 -0.0766 -0.2947  0.1853
  924SOL    HW1 2771   1.804   0.723   2.612  2.2775  0.1072  3.2068
  924SOL    HW2 2772   1.785   0.738   2.445  0.0861  0.0011  1.0367
  925SOL     OW 2773   2.976   0.882   0.192  0.3956  0.0426  0.7412
  925SOL    HW1 2774   2.934   0.944   0.123  0.7442 -0.6925  0.5652
  925SOL    HW2 2775   2.980   0.923   0.285  0.8802  0.8254  0.5598
  926SOL     OW 2776   3.014   0.314   0.705  0.1496  0.8027 -0.1263
  926SOL    HW1 2777   0.013   0.254   0.671  0.9035  1.6757  0.5492
  926SOL    HW2 2778   2.991   0.386   0.642  0.4548  1.0928  0.2154
  927SOL     OW 2779   1.177   1.201   0.600  0.0704  0.0366  0.2442
  927SOL    HW1 2780   1.203   1.166   0.507 -2.4740  1.5579 -0.6700
  927SOL    HW2 2781   1.090   1.166   0.644  0.7067  1.2949  0.1223
  928SOL     OW 2782   0.051   3.070   2.415 -0.2747 -0.5151  0.5520
  928SOL    HW1 2783   0.109   3.004   2.362  0.8582 -2.0193 -2.1361
  928SOL    HW2 2784   0.024   0.071   2.356 -0.6910  0.0250 -0.4584
  929SOL     OW 2785   2.485   0.590   1.472 -0.0149  0.1310 -0.0218
  929SOL    HW1 2786   2.443   0.681   1.509 -1.4128  5.6330  1.1387
  929SOL    HW2 2787   2.550   0.559   1.547  0.8598 -0.5462  1.8063
  930SOL     OW 2788   1.757   2.062   0.973  0.5582  0.5316 -0.0364
  930SOL    HW1 2789   1.716   2.016   0.893 -0.7809 -2.5581  2.1495
  930SOL    HW2 2790   1.718   2.021   1.057 -1.4306  0.6766 -1.0759
  931SOL     OW 2791   1.783   0.770   0.884  0.4202  0.4520  0.7347
  931SOL    HW1 2792   1.850   0.783   0.805  1.3034  3.7168 -0.8009
  931SOL    HW2 2793   1.833   0.782   0.972  0.5079  3.7809  0.9470
  932SOL     OW 2794   0.132   0.784   1.273  0.3438  0.2601 -0.0704
  932SOL    HW1 2795   0.046   0.779   1.329  0.0429 -0.0503 -2.4930
  932SOL    HW2 2796   0.203   0.722   1.310  1.6783 -0.6487  1.1840
  933SOL     OW 2797   2.048   1.715   1.978 -0.2105 -0.0528 -0.5953
  933SOL    HW1 2798   2.059   1.635   1.914  2.1724 -2.8730  0.5519
  933SOL    HW2 2799   2.028   1.803   1.934  0.2774 -2.2391  1.1261
  934SOL     OW 2800   1.527   2.912   1.084 -0.3417 -0.2615 -0.0837
  934SOL    HW1 2801   1.557   3.008   1.069  1.2292  0.7417  1.0969
  934SOL    HW2 2802   1.461   2.898   1.008  1.5897  2.9086  0.5701
  935SOL     OW 2803   3.078   1.097   1.278  0.6747 -0.1050  0.0222
  935SOL    HW1 2804   2.984   1.080   1.324 -1.0608 -1.2756  0.7867
  935SOL    HW2 2805   3.060   1.094   1.180 -1.2354 -0.9851  1.6378
  936SOL     OW 2806   2.997   0.747   1.087 -0.1093 -0.1826  0.3526
  936SOL    HW1 2807   3.058   0.779   1.161 -0.5897 -0.5905 -1.7640
  936SOL    HW2 2808   2.981   0.646   1.091 -1.6598  0.2458 -0.8682
  937SOL     OW 2809   1.134   2.871   1.021 -0.4329 -0.3290 -0.0913
  937SOL    HW1 2810   1.075   2.785   1.013 -2.6135 -1.8089  0.8420
  937SOL    HW2 2811   1.216   2.861   0.964 -0.7747  1.5156  1.2074
  938SOL     OW 2812   2.908   2.245   0.767 -0.3154  0.7340  0.3470
  938SOL    HW1 2813   2.866   2.283   0.854 -0.8123  2.7195  0.4491
  938SOL    HW2 2814   2.918   2.328   0.703 -2.8374  4.1474  1.7817
  939SOL     OW 2815   0.642   1.823   2.572  0.8231  0.5433 -0.1549
  939SOL    HW1 2816   0.626   1.883   2.658  1.6546  1.5638  0.4298
  939SOL    HW2 2817   0.700   1.742   2.600 -1.9581 -1.6233  1.7027
  940SOL     OW 2818   2.818   2.529   2.543 -0.2311 -0.0770  0.1552
  940SOL    HW1 2819   2.829   2.444   2.479 -0.7293 -2.2587 -3.2971
  940SOL    HW2 2820   2.787   2.611   2.488  1.6340  1.5445  0.2298
  941SOL     OW 2821   1.253   0.203   3.038 -1.0045 -0.3288 -0.4206
  941SOL    HW1 2822   1.295   0.292   3.075 -0.2383  3.6691  2.1836
  941SOL    HW2 2823   1.218   0.145   0.036 -0.2110 -0.4910 -0.3822
  942SOL     OW 2824   1.580   1.765   1.484 -0.4689 -0.2940 -0.3712
  942SOL    HW1 2825   1.524   1.689   1.447  1.2183  1.6375  1.2770
  942SOL    HW2 2826   1.526   1.851   1.490  1.4370  0.5015 -1.8717
  943SOL     OW 2827   2.185   1.390   1.577  0.1092 -0.2174  0.3728
  943SOL    HW1 2828   2.138   1.347   1.495 -0.6666 -0.9201 -1.0131
  943SOL    HW2 2829   2.278   1.426   1.550  0.1877  1.2538  1.0505
  944SOL     OW 2830   1.777   0.976   1.887  0.4565  1.1758 -0.0327
  944SOL    HW1 2831   1.783   1.000   1.788  1.1449  2.3039  0.4049
  944SOL    HW2 2832   1.762   1.055   1.948 -0.5711 -3.0177  2.3776
  945SOL     OW 2833   2.627   2.622   1.482  0.5169  0.1833 -0.8863
  945SOL    HW1 2834   2.647   2.568   1.399 -1.5198  1.7091 -0.0255
  945SOL    HW2 2835   2.674   2.574   1.563 -0.4586 -0.9971  0.6130
  946SOL     OW 2836   0.893   0.875   1.518  0.1711  0.1398  0.4011
  946SOL    HW1 2837   0.836   0.954   1.534  2.6542  0.7433 -1.2059
  946SOL    HW2 2838   0.991   0.902   1.507 -1.2220 -0.7471  0.4092
  947SOL     OW 2839   0.514   2.542   0.907  0.2532  0.2568  0.6910
  947SOL    HW1 2840   0.479   2.616   0.961  1.7239  0.0842 -1.5214
  947SOL    HW2 2841   0.435   2.505   0.854  1.9097 -0.3217 -1.7701
  948SOL     OW 2842   2.937   1.251   1.850 -0.3558 -0.0011 -0.4429
  948SOL    HW1 2843   2.993   1.186   1.909 -1.4334  1.0177  2.9251
  948SOL    HW2 2844   2.964   1.349   1.864 -1.0155  0.9742  1.9661
  949SOL     OW 2845   0.761   0.455   2.041 -0.1618 -0.2792  0.2038
  949SOL    HW1 2846   0.788   0.380   2.107 -0.1778 -2.1395 -0.6825
  949SOL    HW2 2847   0.660   0.469   2.058 -0.2480 -1.8852  0.6648
  950SOL     OW 2848   0.575   0.516   0.915 -0.5055  0.3134  0.8394
  950SOL    HW1 2849   0.662   0.552   0.879  0.6520 -0.0619 -1.2087
  950SOL    HW2 2850   0.500   0.567   0.875 -0.2732  1.4679 -0.4158
  951SOL     OW 2851   1.278   1.834   2.096  0.0018  0.0533 -0.1746
  951SOL    HW1 2852   1.257   1.850   2.194  1.9238  2.3574 -2.3765
  951SOL    HW2 2853   1.254   1.914   2.040  0.9528  2.2461 -1.2966
  952SOL     OW 2854   1.196   1.279   2.798  0.1753  0.1075 -0.1728
  952SOL    HW1 2855   1.271   1.240   2.851 -1.9721  1.3360 -0.7347
  952SOL    HW2 2856   1.179   1.225   2.715  0.7346  0.6097  0.0095
  953SOL     OW 2857   1.065   2.869   2.394 -0.3164 -0.2724 -0.1964
  953SOL    HW1 2858   1.095   2.836   2.304  0.1651 -0.5211 -0.7497
  953SOL    HW2 2859   0.964   2.891   2.400  2.5121 -0.8039  2.1332
  954SOL     OW 2860   2.269   1.516   0.744  0.1187 -0.1850 -0.6718
  954SOL    HW1 2861   2.291   1.610   0.716  1.2118 -3.0632  1.5551
  954SOL    HW2 2862   2.229   1.458   0.673 -0.6154 -0.3446  1.0476
  955SOL     OW 2863   0.057   2.267   2.782 -0.3822  0.1036 -0.6399
  955SOL    HW1 2864   0.039   2.355   2.729  0.1251  1.1715 -0.6888
  955SOL    HW2 2865   0.027   2.271   2.880 -1.0409  0.5836 -0.0341
  956SOL     OW 2866   0.945   1.296   1.371  0.4151  0.1827 -0.0392
  956SOL    HW1 2867   1.047   1.313   1.352 -0.5322  0.6392 -1.2933
  956SOL    HW2 2868   0.883   1.356   1.315  2.2022  1.1154  0.4532
  957SOL     OW 2869   2.033   1.527   2.521 -0.8451  0.1053 -0.0747
  957SOL    HW1 2870   2.077   1.530   2.429 -0.7544 -3.9229 -0.0307
  957SOL    HW2 2871   1.998   1.434   2.531  2.3360 -0.8776 -1.7093
  958SOL     OW 2872   1.312   2.498   0.953  0.2485  0.1266  0.9359
  958SOL    HW1 2873   1.398   2.480   1.004  0.8487 -0.6463  0.8724
  958SOL    HW2 2874   1.254   2.411   0.961  0.4288 -0.9496  0.9001
  959SOL     OW 2875   1.549   1.789   2.170 -0.3944 -0.0078 -0.0071
  959SOL    HW1 2876   1.624   1.790   2.103 -1.4597 -0.0513 -4.2144
  959SOL    HW2 2877   1.463   1.816   2.123  1.4663  2.0878 -3.6982
  960SOL     OW 2878   0.090   0.811   2.689 -0.9465 -0.1406 -0.1731
  960SOL    HW1 2879   0.122   0.879   2.756 -0.9301  0.0236  3.4010
  960SOL    HW2 2880   0.047   0.849   2.604  1.0746 -1.2969 -0.6277
  961SOL     OW 2881   0.645   0.675   1.830 -0.2946  0.2615  0.1502
  961SOL    HW1 2882   0.711   0.704   1.904  2.6577  1.4247  1.0686
  961SOL    HW2 2883   0.548   0.686   1.860 -0.0900  0.8856 -1.6695
  962SOL     OW 2884   1.371   1.649   0.374 -0.1857 -0.3289 -0.0181
  962SOL    HW1 2885   1.276   1.672   0.364  1.4403 -4.1997  0.5332
  962SOL    HW2 2886   1.378   1.548   0.381 -0.3554  1.0576  0.7998
  963SOL     OW 2887   1.338   2.162   3.003  0.0849  0.2560 -0.0517
  963SOL    HW1 2888   1.402   2.187   2.925 -1.7968 -1.1555 -0.0738
  963SOL    HW2 2889   1.360   2.212   0.012  0.1742 -2.2774 -0.7025
  964SOL     OW 2890   1.011   2.481   0.499 -0.5822  0.5827  0.5701
  964SOL    HW1 2891   0.959   2.484   0.413 -0.5847  0.1148 -2.0907
  964SOL    HW2 2892   1.061   2.570   0.509  1.4392 -0.9845 -2.7418
  965SOL     OW 2893   0.981   2.645   0.937  0.6769  0.4016  0.2646
  965SOL    HW1 2894   0.994   2.554   0.984 -0.8965  0.0911  0.9457
  965SOL    HW2 2895   0.883   2.647   0.907 -1.4396  0.3688  1.5187
  966SOL     OW 2896   0.075   1.250   2.858 -0.0580  0.3978  0.0300
  966SOL    HW1 2897   0.152   1.287   2.801  2.1448 -0.0231 -1.4979
  966SOL    HW2 2898   3.064   1.249   2.807 -1.9502  1.4026  1.6598
  967SOL     OW 2899   1.299   2.660   1.806 -0.1694  0.2774 -0.5772
  967SOL    HW1 2900   1.207   2.664   1.765  0.5128  1.2785 -1.9791
  967SOL    HW2 2901   1.301   2.613   1.899  2.8505 -3.1944  3.9732
  968SOL     OW 2902   1.761   0.923   0.476  0.1960 -0.0519 -0.6666
  968SOL    HW1 2903   1.751   0.919   0.373  1.8633 -2.0324  0.2899
  968SOL    HW2 2904   1.676   0.896   0.523  0.7953 -0.5144 -1.1263
  969SOL     OW 2905   0.201   1.691   2.043 -0.0776  0.3017 -0.2103
  969SOL    HW1 2906   0.138   1.733   1.974 -0.7502 -1.9043  3.4898
  969SOL    HW2 2907   0.292   1.740   2.051  1.9300  0.4190  1.1709
  970SOL     OW 2908   2.442   1.434   1.480  0.5262 -0.0119 -0.5469
  970SOL    HW1 2909   2.472   1.373   1.405  2.9844 -1.2684 -0.7487
  970SOL    HW2 2910   2.520   1.472   1.532 -0.2048  2.2728 -1.2141
  971SOL     OW 2911   1.458   0.753   1.660  0.1846 -0.2534 -0.0842
  971SOL    HW1 2912   1.507   0.733   1.747  1.1989  0.9414 -1.4352
  971SOL    HW2 2913   1.395   0.837   1.672 -1.0349  1.4361  1.4600
  972SOL     OW 2914   0.484   3.049   2.362 -0.3987  0.4640  0.5323
  972SOL    HW1 2915   0.503   2.950   2.382  0.3357  0.7040 -1.1767
  972SOL    HW2 2916   0.451   0.024   2.443 -0.4141 -0.8144 -2.1857
  973SOL     OW 2917   2.664   1.255   0.371  0.6643  0.1298 -0.1764
  973SOL    HW1 2918   2.648   1.158   0.334  0.2155  0.2941 -2.6393
  973SOL    HW2 2919   2.653   1.256   0.472 -0.0375  0.3193 -1.1464
  974SOL     OW 2920   2.013   1.264   2.115 -0.2134 -0.4674  0.4190
  974SOL    HW1 2921   2.027   1.261   2.015  1.4073 -1.4118  1.1401
  974SOL    HW2 2922   1.990   1.361   2.140 -0.7003 -0.2987 -1.2591
  975SOL     OW 2923   2.974   2.455   0.602  0.1794 -0.2023 -0.1422
  975SOL    HW1 2924   2.956   2.511   0.514  2.3476  0.5716  1.2039
  975SOL    HW2 2925   3.030   2.508   0.672 -1.9454 -0.3722  2.2622
  976SOL     OW 2926   3.019   1.743   1.819 -0.4191  0.0171  0.7233
  976SOL    HW1 2927   3.070   1.797   1.752  1.0346 -0.4568  2.5228
  976SOL    HW2 2928   2.933   1.790   1.847  1.3554 -0.3988 -1.4807
  977SOL     OW 2929   0.830   2.497   2.931  0.4379 -0.2661 -0.7650
  977SOL    HW1 2930   0.917   2.517   2.887 -1.7891 -0.9427  0.4592
  977SOL    HW2 2931   0.844   2.449   3.026  2.4308 -1.1022  2.7552
  978SOL     OW 2932   0.811   1.929   2.371 -0.6123 -0.1146 -0.3644
  978SOL    HW1 2933   0.740   1.882   2.424  1.1877 -1.2580 -1.3233
  978SOL    HW2 2934   0.845   2.008   2.419 -2.1215 -2.6730  2.2180
  979SOL     OW 2935   1.323   2.209   1.068  0.5765 -0.1584 -0.5990
  979SOL    HW1 2936   1.418   2.229   1.062 -1.9937  1.3041  2.4627
  979SOL    HW2 2937   1.301   2.137   0.998  2.1346  1.7262 -0.5847
  980SOL     OW 2938   0.433   1.497   2.836  0.0728 -0.3252  0.1724
  980SOL    HW1 2939   0.390   1.466   2.747  0.4293  2.5415 -0.4801
  980SOL    HW2 2940   0.532   1.489   2.830 -2.9896  0.6080  1.9105
  981SOL     OW 2941   2.671   0.148   2.622 -0.8965 -0.4114  0.0722
  981SOL    HW1 2942   2.698   0.109   2.529 -1.1016 -1.3061 -1.9431
  981SOL    HW2 2943   2.750   0.154   2.686  0.7071  1.2973  1.1640
  982SOL     OW 2944   3.069   2.467   2.628 -0.3463 -0.0570 -0.0690
  982SOL    HW1 2945   0.039   2.509   2.547  1.5181 -0.6923 -0.2182
  982SOL    HW2 2946   2.970   2.494   2.623 -1.0764 -1.8683 -0.6429
  983SOL     OW 2947   2.242   0.897   1.915 -0.5583  0.2645 -0.1861
  983SOL    HW1 2948   2.297   0.982   1.925 -2.9800  1.2540 -0.1064
  983SOL    HW2 2949   2.298   0.811   1.935 -0.8209 -1.7240  0.8944
  984SOL     OW 2950   1.336   0.083   2.136 -0.0042  0.7932  0.4033
  984SOL    HW1 2951   1.398   0.166   2.149  1.0900  1.4858  1.0785
  984SOL    HW2 2952   1.335   0.022   2.217  0.9093 -0.2762 -2.1892
  985SOL     OW 2953   1.516   1.992   2.479 -0.3313 -0.1177  0.0768
  985SOL    HW1 2954   1.601   2.015   2.426 -2.0123  0.1816  2.1775
  985SOL    HW2 2955   1.526   1.913   2.544 -1.2606 -2.4659 -0.4588
  986SOL     OW 2956   2.095   0.408   2.127 -0.0817  0.6888  0.0955
  986SOL    HW1 2957   2.127   0.473   2.198  3.6325 -1.8232 -1.1699
  986SOL    HW2 2958   2.055   0.461   2.049  1.0848  2.5649 -2.1899
  987SOL     OW 2959   2.361   0.343   2.111  0.2766 -0.1926 -0.3984
  987SOL    HW1 2960   2.260   0.340   2.110 -0.1068  0.3948  0.0394
  987SOL    HW2 2961   2.396   0.285   2.183  0.8548 -0.2971 -0.2044
  988SOL     OW 2962   2.504   0.729   2.723 -0.2117 -0.4866 -0.0947
  988SOL    HW1 2963   2.435   0.692   2.792 -0.2295 -2.0690  1.8830
  988SOL    HW2 2964   2.522   0.666   2.643 -0.7202  2.1762  1.2669
  989SOL     OW 2965   2.454   2.468   2.556  0.3360 -0.2750  0.1626
  989SOL    HW1 2966   2.383   2.440   2.487 -3.6755  0.0242  2.0152
  989SOL    HW2 2967   2.547   2.435   2.526  2.6198 -1.7657 -1.8844
  990SOL     OW 2968   0.288   0.546   0.035  0.4299  0.1092  0.2906
  990SOL    HW1 2969   0.314   0.570   0.132  2.8778 -1.5193  0.5227
  990SOL    HW2 2970   0.233   0.621   3.073  1.3351  0.5174 -1.2441
  991SOL     OW 2971   0.590   0.467   2.811  0.0334 -0.3426 -0.7182
  991SOL    HW1 2972   0.557   0.419   2.898  0.1446  1.6350  0.9230
  991SOL    HW2 2973   0.678   0.418   2.779  1.4313  1.7093 -1.1159
  992SOL     OW 2974   2.902   2.174   2.131 -0.2004 -0.4535  0.0206
  992SOL    HW1 2975   2.958   2.175   2.213 -1.8911  0.2628 -0.0336
  992SOL    HW2 2976   2.876   2.264   2.101  0.3676  0.7772  2.8386
  993SOL     OW 2977   0.658   2.805   0.625  0.0496  0.0465 -0.2666
  993SOL    HW1 2978   0.663   2.877   0.552 -0.8811  1.3416 -0.6120
  993SOL    HW2 2979   0.651   2.860   0.709 -0.2188 -2.8000 -0.7296
  994SOL     OW 2980   0.282   2.043   1.656 -0.4764 -0.3752 -0.5642
  994SOL    HW1 2981   0.355   1.989   1.699  0.7273  2.9500 -2.4383
  994SOL    HW2 2982   0.308   2.070   1.558 -0.6766  0.0638 -0.6577
  995SOL     OW 2983   2.265   1.835   0.341  0.2093  0.2743  0.1713
  995SOL    HW1 2984   2.297   1.895   0.275 -0.8006 -0.5190  3.5869
  995SOL    HW2 2985   2.171   1.797   0.320 -3.0744 -4.0839  1.3203
  996SOL     OW 2986   1.474   1.330   2.562 -0.2111  0.4658 -0.0819
  996SOL    HW1 2987   1.450   1.259   2.495 -2.3783 -1.6368  0.8261
  996SOL    HW2 2988   1.541   1.400   2.528 -2.2700  0.7474  0.2069
  997SOL     OW 2989   1.802   1.524   1.844 -0.1653  0.2026  0.2472
  997SOL    HW1 2990   1.743   1.589   1.794  0.0473 -2.6008 -0.5868
  997SOL    HW2 2991   1.779   1.430   1.820 -0.2976  3.9014  0.4141
  998SOL     OW 2992   2.800   1.645   0.433  0.5197 -0.3881 -0.2459
  998SOL    HW1 2993   2.788   1.610   0.526 -0.8599  0.9353 -1.8067
  998SOL    HW2 2994   2.714   1.627   0.385  2.2053 -2.4566 -0.4846
  999SOL     OW 2995   2.518   2.582   0.407 -0.0528  0.0712 -0.1073
  999SOL    HW1 2996   2.440   2.535   0.451 -1.5113 -0.9203 -2.3929
  999SOL    HW2 2997   2.578   2.528   0.356 -1.5794  0.6558  1.8276
 1000SOL     OW 2998   0.722   2.876   2.166  0.6726 -0.1921 -0.2475
 1000SOL    HW1 2999   0.743   2.972   2.148 -2.4062 -0.7344  0.9942
 1000SOL    HW2 3000   0.704   2.823   2.081  1.2722  3.4325 -0.9303
   3.07802   3.07802   3.07802
