1000 SPC/Fw water molecules t=  20.00000 step= 20000
 3000
    1SOL     OW    1   1.864   2.647   0.290  0.2668  0.2484 -0.0598
    1SOL    HW1    2   1.937   2.623   0.356 -0.4819  1.9016  0.8437
    1SOL    HW2    3   1.830   2.566   0.238 -1.7842 -0.3193  1.0521
    2SOL     OW    4   1.161   0.780   2.023  0.7833  0.0499  0.5583
    2SOL    HW1    5   1.260   0.783   2.039  0.8911  2.4394  2.3064
    2SOL    HW2    6   1.115   0.750   2.109  1.5458 -0.6693  0.8149
    3SOL     OW    7   0.813   3.012   2.745 -0.3466  0.0894  0.2680
    3SOL    HW1    8   0.873   3.092   2.716  2.5184  2.0442 -2.4305
    3SOL    HW2    9   0.805   3.001   2.845 -0.6436  0.5303  0.5661
    4SOL     OW   10   1.635   1.650   3.015 -0.1872  0.4321  0.0780
    4SOL    HW1   11   1.602   1.566   2.972  1.8907 -0.7909  2.0875
    4SOL    HW2   12   1.595   1.730   2.964 -0.7359  1.3293 -1.4799
    5SOL     OW   13   0.748   0.999   2.224  0.0214  0.0380  0.6366
    5SOL    HW1   14   0.838   1.039   2.214  1.2710 -1.6899 -2.5462
    5SOL    HW2   15   0.723   1.006   2.324 -0.5057  0.0736 -0.6353
    6SOL     OW   16   2.041   0.860   2.664  0.6931 -0.4643  0.0793
    6SOL    HW1   17   2.056   0.761   2.655  2.7472  0.2023  0.2352
    6SOL    HW2   18   2.122   0.913   2.632 -1.4803  1.4709  1.7464
    7SOL     OW   19   0.527   0.884   1.187 -0.4420 -0.5427  0.2351
    7SOL    HW1   20   0.607   0.907   1.131 -0.8655 -2.0081  1.7969
    7SOL    HW2   21   0.446   0.947   1.165 -0.0538  1.5588 -0.6728
    8SOL     OW   22   1.960   2.883   2.144 -0.0809  0.3847 -0.1824
    8SOL    HW1   23   1.860   2.867   2.131  1.5292 -0.6558  1.4833
    8SOL    HW2   24   2.000   2.952   2.082  0.2681 -0.1887 -0.0241
    9SOL     OW   25   0.090   2.635   0.838  0.3596  0.1488 -0.4045
    9SOL    HW1   26   0.071   2.562   0.767  1.4816 -2.1542  0.1573
    9SOL    HW2   27   0.123   2.722   0.791  1.6333  0.3203 -0.8923
   10SOL     OW   28   2.878   2.305   2.383  0.2544 -0.5025 -0.1643
   10SOL    HW1   29   2.882   2.348   2.289 -0.6983 -0.2232  0.5092
   10SOL    HW2   30   2.911   2.213   2.374 -1.1041  1.0247 -1.0865
   11SOL     OW   31   0.612   1.543   0.007 -0.3011  0.3535 -0.1084
   11SOL    HW1   32   0.585   1.475   0.078 -0.3898 -1.2555  0.1862
   11SOL    HW2   33   0.590   1.643   0.025  0.3375  0.9342 -0.4111
   12SOL     OW   34   2.218   2.859   0.838 -0.0562  0.1988 -0.5059
   12SOL    HW1   35   2.192   2.859   0.939  1.2404  2.2786 -2.0192
   12SOL    HW2   36   2.134   2.863   0.779 -0.0428 -2.4649  0.1555
   13SOL     OW   37   0.193   0.335   2.684  0.5763  0.0929  0.3142
   13SOL    HW1   38   0.179   0.332   2.786 -3.5980  0.2581  2.7370
   13SOL    HW2   39   0.184   0.431   2.658  0.6642 -0.0853 -0.7812
   14SOL     OW   40   1.401   1.115   1.684 -0.4884  0.0784 -0.3988
   14SOL    HW1   41   1.468   1.104   1.761  0.7657 -1.7916  0.6002
   14SOL    HW2   42   1.327   1.178   1.704  0.1800  0.9776  0.3666
   15SOL     OW   43   0.459   1.481   1.908  0.3014 -0.2194  0.8270
   15SOL    HW1   44   0.426   1.401   1.852  0.2622  0.4573 -0.5000
   15SOL    HW2   45   0.488   1.442   1.992 -3.8264 -0.0073 -2.7529
   16SOL     OW   46   1.633   0.958   2.684  0.5474  0.0197 -0.3786
   16SOL    HW1   47   1.631   1.047   2.638  1.3861 -0.6295  1.3518
   16SOL    HW2   48   1.712   0.949   2.747 -0.4439 -1.7318 -1.3093
   17SOL     OW   49   2.973   2.443   2.171  0.5024  0.2328  0.5822
   17SOL    HW1   50   3.001   2.544   2.163  1.4782  2.8766 -2.2283
   17SOL    HW2   51   3.038   2.384   2.117  2.3799  0.5385  0.6295
   18SOL     OW   52   1.765   1.251   0.597  0.2543 -0.3624  0.2704
   18SOL    HW1   53   1.683   1.207   0.634 -0.6841  0.4104 -2.5352
   18SOL    HW2   54   1.772   1.226   0.498 -2.0985 -0.5522 -1.7983
   19SOL     OW   55   0.257   1.205   1.991  0.6478  0.7026  0.0786
   19SOL    HW1   56   0.329   1.258   2.040 -0.8775 -1.5099  0.3089
   19SOL    HW2   57   0.274   1.107   1.986 -1.7300  0.9159  0.6831
   20SOL     OW   58   1.922   2.372   2.880 -0.1457  0.4385  0.1111
   20SOL    HW1   59   1.964   2.366   2.974  0.4570 -1.0982 -2.7576
   20SOL    HW2   60   1.912   2.468   2.849 -0.7230 -2.6922  1.6949
   21SOL     OW   61   1.827   1.833   0.957 -0.1101  0.1006 -0.3331
   21SOL    HW1   62   1.825   1.888   1.044  1.2540  1.2561  0.7532
   21SOL    HW2   63   1.921   1.800   0.940  0.8710 -0.7115 -0.7966
   22SOL     OW   64   2.073   2.356   1.358 -0.1531 -0.3025  0.3807
   22SOL    HW1   65   2.028   2.330   1.445 -1.4996  0.7381  1.1689
   22SOL    HW2   66   2.034   2.295   1.285 -0.0048 -0.3423 -1.6592
   23SOL     OW   67   0.123   1.199   1.424 -0.7767 -0.0316 -0.2034
   23SOL    HW1   68   0.227   1.190   1.413  1.7072  0.1277  2.6253
   23SOL    HW2   69   0.066   1.160   1.355  1.8323  1.7727  1.8967
   24SOL     OW   70   1.653   1.244   1.897 -0.3227  0.4400  0.1103
   24SOL    HW1   71   1.634   1.144   1.887 -2.0511 -1.1943 -1.1408
   24SOL    HW2   72   1.751   1.270   1.888 -0.0429 -0.8583 -2.5609
   25SOL     OW   73   1.845   0.160   2.348 -0.0841 -0.2022  0.6199
   25SOL    HW1   74   1.903   0.100   2.411  0.8169 -2.8581 -0.4654
   25SOL    HW2   75   1.799   0.236   2.392  2.8011 -1.3855  1.3080
   26SOL     OW   76   0.668   2.932   0.579 -0.8199 -0.3177 -0.1866
   26SOL    HW1   77   0.723   2.970   0.661 -0.4842  1.5835 -1.0032
   26SOL    HW2   78   0.682   2.828   0.576 -4.1542 -2.5136 -1.4272
   27SOL     OW   79   1.486   1.409   1.067  0.3940  0.4477  0.1905
   27SOL    HW1   80   1.560   1.480   1.062 -0.3923 -0.1845  0.7034
   27SOL    HW2   81   1.458   1.394   0.972  1.2906  2.1537  1.9859
   28SOL     OW   82   2.281   2.217   0.894 -0.0199  0.2801 -0.0323
   28SOL    HW1   83   2.356   2.255   0.834  2.4442 -1.4392 -0.5264
   28SOL    HW2   84   2.247   2.286   0.958  1.2631 -0.7658 -0.4123
   29SOL     OW   85   2.066   2.956   2.400 -0.2360 -0.3083 -0.3605
   29SOL    HW1   86   2.032   2.942   2.305 -1.1550 -0.3820 -1.3538
   29SOL    HW2   87   2.164   2.983   2.403  0.3536 -0.9094  0.7764
   30SOL     OW   88   0.084   2.763   1.893  0.9321 -0.2575  0.2006
   30SOL    HW1   89   0.067   2.787   1.792 -0.3510 -0.6653 -0.4227
   30SOL    HW2   90   0.128   2.835   1.949 -0.1000 -2.3562 -1.4729
   31SOL     OW   91   3.022   1.840   1.999 -0.1153 -0.0877  0.0014
   31SOL    HW1   92   3.083   1.769   2.038  1.6834  0.1974 -0.3147
   31SOL    HW2   93   2.997   1.832   1.899 -1.6086  2.1350  0.9694
   32SOL     OW   94   1.218   2.054   2.134 -0.1589 -0.0133 -0.0080
   32SOL    HW1   95   1.234   2.020   2.040  0.0360  1.9753  0.2420
   32SOL    HW2   96   1.300   2.061   2.195  1.3613  2.8795  1.4454
   33SOL     OW   97   0.134   0.364   2.950 -0.4320 -0.8041  0.3236
   33SOL    HW1   98   0.205   0.292   2.976 -0.7979  0.7274 -1.9500
   33SOL    HW2   99   0.134   0.445   3.010 -2.1303 -0.4469 -1.1171
   34SOL     OW  100   2.771   0.025   0.351 -0.1753  0.0612  0.0406
   34SOL    HW1  101   2.873   0.024   0.343  2.5325 -2.4231  0.1171
   34SOL    HW2  102   2.736   3.068   0.270 -0.4929  0.0450  2.2086
   35SOL     OW  103   2.864   2.671   1.610 -0.3973 -0.1618 -0.4640
   35SOL    HW1  104   2.788   2.694   1.677  2.1054  0.1160  0.4161
   35SOL    HW2  105   2.837   2.689   1.514  0.7178 -1.8713  0.8282
   36SOL     OW  106   2.341   2.970   2.470  0.1228  0.1917 -0.5040
   36SOL    HW1  107   2.358   2.931   2.563  0.5588  0.3140 -1.1865
   36SOL    HW2  108   2.405   3.051   2.447 -1.1868  2.4988 -1.6715
   37SOL     OW  109   1.545   0.024   3.054  0.5950  0.1067  0.1391
   37SOL    HW1  110   1.505   3.042   0.023 -0.6534 -2.9743  1.8141
   37SOL    HW2  111   1.472   0.056   2.987 -0.4892  3.3047 -0.2489
   38SOL     OW  112   0.282   0.696   0.372  0.0199 -0.4734 -0.3175
   38SOL    HW1  113   0.307   0.697   0.469 -1.6912 -3.5536 -2.6635
   38SOL    HW2  114   0.334   0.758   0.313 -1.9281 -1.1631 -2.6459
   39SOL     OW  115   0.764   1.851   1.895 -0.3246 -0.3914  0.6325
   39SOL    HW1  116   0.810   1.792   1.958 -0.9945 -0.1278 -0.7953
   39SOL    HW2  117   0.759   1.947   1.932 -0.0961 -0.3029 -2.1812
   40SOL     OW  118   2.930   0.489   2.942  0.9151 -0.9009 -0.3628
   40SOL    HW1  119   2.953   0.538   2.855  0.2522 -2.1025  2.9966
   40SOL    HW2  120   2.955   0.392   2.944 -0.2389  2.8008 -0.1918
   41SOL     OW  121   1.219   0.726   1.762  0.1543  0.0916  0.0483
   41SOL    HW1  122   1.321   0.730   1.755  1.8211 -0.9224 -0.2811
   41SOL    HW2  123   1.187   0.730   1.857 -1.2603  0.5943 -0.3238
   42SOL     OW  124   2.365   0.085   1.324 -0.2162 -0.1875  0.0024
   42SOL    HW1  125   2.299   0.136   1.267  1.4068 -0.5453  0.1744
   42SOL    HW2  126   2.410   0.143   1.400 -0.3064 -3.7257 -1.1736
   43SOL     OW  127   1.491   0.745   1.721  0.5174 -0.4763 -0.6696
   43SOL    HW1  128   1.549   0.801   1.660 -2.3744 -0.2628  1.6324
   43SOL    HW2  129   1.520   0.653   1.709 -2.4969  1.0698  2.7030
   44SOL     OW  130   0.151   0.557   0.041 -0.4806 -0.0944 -0.0849
   44SOL    HW1  131   0.202   0.509   0.118  4.0890 -0.3960 -0.7436
   44SOL    HW2  132   0.100   0.636   0.070  2.0843 -4.3581 -1.0013
   45SOL     OW  133   0.300   1.635   1.667  0.2231  0.3735 -0.1752
   45SOL    HW1  134   0.255   1.625   1.576 -2.3245 -2.0649 -4.9439
   45SOL    HW2  135   0.386   1.579   1.681 -0.5507  1.5957  1.0010
   46SOL     OW  136   2.261   2.888   1.706  0.4368 -0.2150  0.8339
   46SOL    HW1  137   2.276   2.832   1.789 -0.1142  1.2900 -2.7611
   46SOL    HW2  138   2.177   2.849   1.660  0.0647  2.3743 -4.5073
   47SOL     OW  139   0.199   1.853   1.358  0.4078 -0.0886 -0.1309
   47SOL    HW1  140   0.223   1.761   1.388 -3.0297  2.4510 -2.1629
   47SOL    HW2  141   0.206   1.922   1.437  2.0823  3.1908 -1.3706
   48SOL     OW  142   1.002   2.483   2.815  0.3855  0.4604 -0.2066
   48SOL    HW1  143   0.943   2.434   2.752  0.1193 -0.1580  0.4726
   48SOL    HW2  144   0.968   2.493   2.913 -4.6085  1.1574  2.4910
   49SOL     OW  145   2.583   1.366   1.751  0.0908 -0.2374  0.1311
   49SOL    HW1  146   2.661   1.433   1.718  0.0269  1.6704 -0.5579
   49SOL    HW2  147   2.605   1.341   1.849  2.4482  1.6439 -1.9107
   50SOL     OW  148   1.107   2.862   0.449 -0.0520  0.5914  0.3507
   50SOL    HW1  149   1.190   2.874   0.506 -0.9790 -0.9693 -1.5414
   50SOL    HW2  150   1.068   2.952   0.430 -1.2012 -1.8381  1.0581
   51SOL     OW  151   1.224   0.282   1.114 -0.4425 -0.2492 -0.4049
   51SOL    HW1  152   1.147   0.272   1.178 -0.1520 -1.4848 -1.2892
   51SOL    HW2  153   1.320   0.268   1.156  1.5799  3.9086  0.9601
   52SOL     OW  154   0.682   1.133   0.284 -0.0423 -0.2436  0.5146
   52SOL    HW1  155   0.782   1.144   0.262  2.2953  2.9178  0.1864
   52SOL    HW2  156   0.665   1.163   0.379  0.1495  0.4363  0.4502
   53SOL     OW  157   1.144   2.943   2.718  0.2986 -0.3075 -0.0150
   53SOL    HW1  158   1.082   2.931   2.799 -1.0777 -1.3380 -0.1272
   53SOL    HW2  159   1.122   3.025   2.662 -1.3458  0.2553  1.1804
   54SOL     OW  160   2.059   0.216   2.180  0.3310  0.4242  0.2517
   54SOL    HW1  161   1.984   0.200   2.245 -0.0336  1.8185 -0.3231
   54SOL    HW2  162   2.078   0.311   2.153  0.5744  0.1567  1.6985
   55SOL     OW  163   2.959   2.400   0.085 -0.1014  0.2581  0.5265
   55SOL    HW1  164   3.058   2.367   0.096  3.5906 -0.9205 -0.8493
   55SOL    HW2  165   2.962   2.501   0.099 -0.6390  0.7893  1.7614
   56SOL     OW  166   0.802   0.141   1.762 -0.6357 -1.1109  0.1529
   56SOL    HW1  167   0.727   0.112   1.827 -0.3475  0.0983  1.4941
   56SOL    HW2  168   0.896   0.121   1.798 -3.6036  2.1812  0.3948
   57SOL     OW  169   1.854   1.022   2.380 -0.1295 -0.0240 -0.2994
   57SOL    HW1  170   1.841   1.010   2.479 -0.3537  1.5855  0.8384
   57SOL    HW2  171   1.782   1.079   2.342  1.4481  0.2387  2.0240
   58SOL     OW  172   2.734   0.874   2.091  0.2001  0.2732 -0.5382
   58SOL    HW1  173   2.808   0.934   2.050 -0.8967  2.2681 -0.8757
   58SOL    HW2  174   2.768   0.793   2.143 -2.7060  0.9583 -0.6618
   59SOL     OW  175   0.838   2.656   1.643 -0.4739  0.2614  0.1017
   59SOL    HW1  176   0.753   2.706   1.660  1.9837  0.8337  2.5255
   59SOL    HW2  177   0.850   2.620   1.548  2.6148  1.4055  0.1480
   60SOL     OW  178   2.095   2.579   0.440  0.2302  0.5547  0.0932
   60SOL    HW1  179   2.063   2.486   0.476 -1.5562  0.2268  0.5693
   60SOL    HW2  180   2.192   2.577   0.417 -2.2599 -2.3687  0.0883
   61SOL     OW  181   1.547   2.521   0.429 -0.4795  0.1288  0.1948
   61SOL    HW1  182   1.595   2.433   0.455  0.6733  1.1259 -0.1325
   61SOL    HW2  183   1.507   2.513   0.332 -0.7773  1.0877 -0.7802
   62SOL     OW  184   1.800   2.786   2.969 -0.1038  0.1968 -0.1469
   62SOL    HW1  185   1.734   2.839   2.907 -0.9729 -1.0888  0.9598
   62SOL    HW2  186   1.747   2.708   3.005  3.2287  0.8150  0.0428
   63SOL     OW  187   2.240   0.491   0.243  0.7934 -0.0249  0.2001
   63SOL    HW1  188   2.254   0.591   0.237 -0.6090 -1.3532 -1.3425
   63SOL    HW2  189   2.255   0.450   0.334 -0.9704  0.2824 -2.2265
   64SOL     OW  190   1.455   1.060   3.033  0.4663  0.2608  0.1172
   64SOL    HW1  191   1.406   0.965   3.033 -2.1297 -0.7370 -1.9708
   64SOL    HW2  192   1.396   1.134   3.000  4.7226 -1.2607 -2.2568
   65SOL     OW  193   0.483   2.280   1.517 -0.1431 -0.4248 -0.7819
   65SOL    HW1  194   0.398   2.251   1.469 -1.6484 -0.2856  0.7570
   65SOL    HW2  195   0.506   2.374   1.497 -1.6187 -1.6592  1.0315
   66SOL     OW  196   1.139   1.102   1.354 -0.4355 -0.5301 -0.3316
   66SOL    HW1  197   1.224   1.122   1.299  0.6457 -1.1857 -2.4142
   66SOL    HW2  198   1.117   1.180   1.416 -3.2629  0.0717 -0.4235
   67SOL     OW  199   2.500   2.030   1.730 -0.5314  0.1849  0.2129
   67SOL    HW1  200   2.550   2.063   1.652  1.9873 -0.2312 -1.0797
   67SOL    HW2  201   2.469   1.938   1.711  0.3529  1.6912  2.2338
   68SOL     OW  202   0.806   1.399   1.666 -0.2381  0.6300 -0.3479
   68SOL    HW1  203   0.713   1.359   1.649  3.6763 -3.4658  2.7824
   68SOL    HW2  204   0.797   1.486   1.713 -2.0908 -1.4079 -3.1400
   69SOL     OW  205   0.138   2.907   2.981  0.2478 -0.3326 -0.5647
   69SOL    HW1  206   0.186   2.908   3.072  1.1856 -0.2639 -0.7637
   69SOL    HW2  207   0.038   2.934   2.996 -2.1463 -0.6262  1.5218
   70SOL     OW  208   2.232   1.007   2.539 -0.4306  0.0384  0.3761
   70SOL    HW1  209   2.228   1.013   2.440 -0.2929 -0.1033  1.1787
   70SOL    HW2  210   2.328   0.996   2.577  3.7642 -0.0605 -3.6437
   71SOL     OW  211   0.881   2.065   1.026 -0.2285 -0.4197 -0.1655
   71SOL    HW1  212   0.836   2.152   1.061  1.8983  0.4208  0.3788
   71SOL    HW2  213   0.812   1.991   1.018  0.6618 -0.0978 -1.1207
   72SOL     OW  214   2.744   2.100   0.480 -0.1047 -0.4639  0.5605
   72SOL    HW1  215   2.772   2.148   0.396 -0.9845 -1.4489  0.3579
   72SOL    HW2  216   2.718   2.162   0.552 -1.1941 -1.1244 -1.0598
   73SOL     OW  217   1.656   0.636   1.060 -0.0284  0.7229  0.4700
   73SOL    HW1  218   1.660   0.738   1.050  0.9497 -2.3961 -0.0874
   73SOL    HW2  219   1.588   0.592   0.991 -2.0167 -0.8872 -3.1712
   74SOL     OW  220   2.725   2.096   2.112  0.4478  0.5917  0.4787
   74SOL    HW1  221   2.782   2.168   2.064 -1.2104  2.2864  0.7004
   74SOL    HW2  222   2.657   2.134   2.173  1.6834 -0.5356  2.8679
   75SOL     OW  223   1.608   1.712   1.653 -0.6462 -0.3211  0.2805
   75SOL    HW1  224   1.530   1.655   1.657  3.6574  2.0964  0.1676
   75SOL    HW2  225   1.696   1.658   1.655 -0.0002  1.2457 -0.7470
   76SOL     OW  226   1.459   1.659   1.186 -0.0923 -0.1157  0.4408
   76SOL    HW1  227   1.515   1.724   1.127 -2.3087 -0.1557  0.5277
   76SOL    HW2  228   1.451   1.569   1.143 -1.2895  0.8150  0.6721
   77SOL     OW  229   2.519   1.130   1.590  0.1600  0.0440 -0.3337
   77SOL    HW1  230   2.548   1.214   1.642 -0.3381 -0.1007 -0.9024
   77SOL    HW2  231   2.422   1.144   1.569  1.5330 -1.4270  2.4685
   78SOL     OW  232   1.550   0.873   0.296 -0.6250 -0.0028  0.5883
   78SOL    HW1  233   1.551   0.833   0.200 -0.2667  0.6382  0.5208
   78SOL    HW2  234   1.490   0.814   0.356 -1.7416  1.2306 -2.3574
   79SOL     OW  235   1.114   1.519   2.136 -0.1690 -0.5545  0.2286
   79SOL    HW1  236   1.133   1.521   2.239  0.2067  1.5074  0.5618
   79SOL    HW2  237   1.101   1.423   2.100  2.2341 -0.0599  0.5451
   80SOL     OW  238   1.120   0.264   1.551  0.4856 -0.1186  0.4011
   80SOL    HW1  239   1.142   0.362   1.566 -1.3060 -0.1531  1.8978
   80SOL    HW2  240   1.122   0.213   1.637  0.5142 -0.9713 -0.3768
   81SOL     OW  241   0.338   2.446   0.150  0.4124 -0.4688 -0.0379
   81SOL    HW1  242   0.338   2.475   0.054  0.2358 -0.5006  1.3409
   81SOL    HW2  243   0.433   2.421   0.177 -2.6724  0.8624 -1.1736
   82SOL     OW  244   1.227   0.117   1.782 -0.0489  0.1313  0.1424
   82SOL    HW1  245   1.153   0.093   1.847 -1.3526 -1.4347  2.1750
   82SOL    HW2  246   1.297   0.046   1.787 -2.7707 -0.4281 -0.3933
   83SOL     OW  247   0.421   2.090   0.999 -0.1033 -0.5184  0.2229
   83SOL    HW1  248   0.326   2.079   1.037 -0.0832 -2.0929  1.4950
   83SOL    HW2  249   0.418   2.116   0.898  0.8586 -0.6657  0.3706
   84SOL     OW  250   2.959   1.584   0.783  0.4058 -0.0994 -0.1423
   84SOL    HW1  251   2.910   1.495   0.771  0.3111 -1.9417  1.9179
   84SOL    HW2  252   3.027   1.604   0.706  3.1732  0.0294 -2.4523
   85SOL     OW  253   2.147   1.926   1.333  0.2632 -0.4414  0.6042
   85SOL    HW1  254   2.082   1.986   1.385  1.5152  0.6617 -4.3638
   85SOL    HW2  255   2.117   1.828   1.340  0.3323  3.3115 -3.2076
   86SOL     OW  256   1.488   2.359   2.088  0.5296 -0.0883  0.2511
   86SOL    HW1  257   1.420   2.401   2.027 -1.2512 -0.4578  0.9447
   86SOL    HW2  258   1.478   2.258   2.107  0.5204 -2.6668  3.2381
   87SOL     OW  259   2.150   1.781   0.637 -0.1418 -0.5589  0.4970
   87SOL    HW1  260   2.096   1.753   0.562  2.2523  1.5518  1.9827
   87SOL    HW2  261   2.220   1.851   0.596  1.4969  0.6482 -0.2900
   88SOL     OW  262   0.348   3.023   0.851 -0.4594  1.1578  0.4853
   88SOL    HW1  263   0.347   2.931   0.808 -1.3377  1.1525  0.8220
   88SOL    HW2  264   0.403   3.091   0.803  1.7437 -0.3427 -0.2283
   89SOL     OW  265   0.422   0.725   1.878  0.2488 -0.1065 -0.3444
   89SOL    HW1  266   0.384   0.784   1.803 -1.0239  0.4019 -0.7268
   89SOL    HW2  267   0.521   0.719   1.878 -0.9295 -0.6674 -0.9258
   90SOL     OW  268   2.986   1.950   0.417 -0.0049 -0.4426 -0.0029
   90SOL    HW1  269   3.058   1.915   0.481  3.0311  0.4868  3.5251
   90SOL    HW2  270   2.915   1.999   0.467  1.9642 -0.8882  0.0875
   91SOL     OW  271   1.148   1.527   1.027  0.0767 -0.1215  0.3407
   91SOL    HW1  272   1.116   1.504   1.121  0.5911 -0.3356 -2.3530
   91SOL    HW2  273   1.213   1.457   0.986 -0.4652 -1.6535  1.3013
   92SOL     OW  274   2.191   0.064   1.738  0.0788  0.3392  0.6769
   92SOL    HW1  275   2.286   0.098   1.749 -1.3175  1.2672  0.4749
   92SOL    HW2  276   2.192   3.065   1.691 -0.2170 -1.1607 -1.9921
   93SOL     OW  277   0.590   1.351   2.852 -0.0956  0.0124  0.6037
   93SOL    HW1  278   0.611   1.417   2.929 -0.2588  0.1271  1.8490
   93SOL    HW2  279   0.557   1.400   2.767 -1.6919  2.3198  1.4206
   94SOL     OW  280   2.538   0.089   1.832 -0.1728 -0.4702  0.0858
   94SOL    HW1  281   2.514   0.170   1.889  1.4912 -2.7493  0.7633
   94SOL    HW2  282   2.601   0.025   1.887 -2.2231 -3.9718 -0.2119
   95SOL     OW  283   1.838   0.369   2.039 -0.2413  0.5300 -0.0053
   95SOL    HW1  284   1.775   0.302   2.076 -0.0101  1.3810  0.0683
   95SOL    HW2  285   1.887   0.335   1.958 -1.2353  0.4069  2.3587
   96SOL     OW  286   0.461   0.375   1.740  0.3890 -0.4753  0.1292
   96SOL    HW1  287   0.397   0.303   1.709  0.0841 -0.8519 -0.2376
   96SOL    HW2  288   0.475   0.451   1.677 -0.6782  0.4181 -0.8649
   97SOL     OW  289   1.823   0.304   1.634 -0.3919  0.3694 -0.2993
   97SOL    HW1  290   1.789   0.318   1.539  0.2732  0.4430 -1.6194
   97SOL    HW2  291   1.763   0.245   1.691 -1.6111  0.7995 -0.7833
   98SOL     OW  292   2.075   2.438   1.780 -0.2850  0.2311  0.4266
   98SOL    HW1  293   2.171   2.441   1.809 -2.8064  1.3568  1.1268
   98SOL    HW2  294   2.014   2.460   1.859  0.1772 -1.6948  2.0493
   99SOL     OW  295   0.650   0.805   0.848 -0.0541  0.4373  0.2304
   99SOL    HW1  296   0.716   0.768   0.773  1.9023 -0.0499 -1.1950
   99SOL    HW2  297   0.548   0.787   0.823 -3.1435  0.4193  0.0512
  100SOL     OW  298   2.761   1.834   2.073 -0.3649  0.0737 -0.2364
  100SOL    HW1  299   2.732   1.932   2.098  1.8943 -1.5055  0.0890
  100SOL    HW2  300   2.859   1.827   2.062 -1.4814  1.5874 -1.2325
  101SOL     OW  301   1.674   0.179   0.152  0.5414 -0.1112 -0.1244
  101SOL    HW1  302   1.690   0.269   0.108  0.8536 -1.6747  0.6464
  101SOL    HW2  303   1.642   0.111   0.084  1.6491  2.4691 -0.7204
  102SOL     OW  304   0.082   2.939   1.320 -0.6316  0.5371 -0.2919
  102SOL    HW1  305   0.084   2.868   1.393  0.1193  3.0367  1.1434
  102SOL    HW2  306   0.097   2.893   1.231 -1.4750 -0.3991 -1.7168
  103SOL     OW  307   0.277   2.946   2.298 -0.5383 -0.0453  0.0231
  103SOL    HW1  308   0.176   2.941   2.303  2.7724  0.9372  1.7735
  103SOL    HW2  309   0.324   2.854   2.311 -2.5645 -0.8655 -0.3946
  104SOL     OW  310   0.201   2.056   1.552  0.1438  0.2407  0.3548
  104SOL    HW1  311   0.109   2.096   1.571 -1.8112 -1.6397 -2.1265
  104SOL    HW2  312   0.248   2.124   1.491  1.8379 -2.4401 -2.8713
  105SOL     OW  313   0.474   1.955   2.012  0.2242  0.3140  0.1580
  105SOL    HW1  314   0.555   2.019   2.010 -1.7663 -0.5101  0.4021
  105SOL    HW2  315   0.422   1.952   1.922 -0.6662  0.6130 -2.4370
  106SOL     OW  316   2.275   3.018   0.545  0.4427  0.1216  0.3735
  106SOL    HW1  317   2.278   3.081   0.622 -0.3447 -3.1423 -1.8527
  106SOL    HW2  318   2.341   3.055   0.472  1.9580 -1.2061  0.1349
  107SOL     OW  319   0.615   1.159   0.946 -0.0420  0.5184 -0.2730
  107SOL    HW1  320   0.669   1.074   0.966  1.2740 -0.2769  1.1705
  107SOL    HW2  321   0.524   1.131   0.914  1.2548  1.5166 -0.6904
  108SOL     OW  322   2.791   1.151   2.229  0.3491 -0.1504  0.0888
  108SOL    HW1  323   2.793   1.072   2.165 -2.0884  1.4828 -0.4028
  108SOL    HW2  324   2.834   1.238   2.189  0.1382  1.2524 -2.1017
  109SOL     OW  325   2.007   2.933   3.079  0.6564  0.4534 -0.2598
  109SOL    HW1  326   2.001   3.040   3.081  0.3322  0.4323  1.2340
  109SOL    HW2  327   1.925   2.893   3.032  0.4466 -0.0829 -1.2126
  110SOL     OW  328   0.200   1.985   2.978  0.7319 -0.0359  0.3324
  110SOL    HW1  329   0.098   1.980   2.969  1.1233 -0.5503 -1.2830
  110SOL    HW2  330   0.250   1.896   2.974 -2.1417  2.2575  0.1330
  111SOL     OW  331   2.593   0.958   2.338 -0.4572 -0.1268  0.5395
  111SOL    HW1  332   2.612   0.949   2.236  0.4705  0.4006  1.2318
  111SOL    HW2  333   2.670   1.007   2.385 -1.3200 -1.0172 -0.3505
  112SOL     OW  334   2.220   2.700   1.482  0.5014  0.0318 -0.3138
  112SOL    HW1  335   2.141   2.728   1.547 -2.4059  1.1290  2.1861
  112SOL    HW2  336   2.276   2.623   1.517 -3.6709  3.0494 -0.6251
  113SOL     OW  337   1.977   2.324   2.540  0.1367  0.2040  0.6624
  113SOL    HW1  338   2.031   2.257   2.594 -1.3227  1.4384 -2.3240
  113SOL    HW2  339   1.889   2.345   2.581  0.0382 -1.8528  1.8595
  114SOL     OW  340   0.499   0.252   0.493  0.3811 -0.1954 -0.0573
  114SOL    HW1  341   0.552   0.306   0.422 -2.7328  1.1582 -0.3591
  114SOL    HW2  342   0.555   0.248   0.575  0.4039  0.9055 -3.1352
  115SOL     OW  343   0.122   1.566   3.071  0.1064  0.3642  0.1357
  115SOL    HW1  344   0.157   1.505   0.048 -1.2350 -2.7547 -0.6959
  115SOL    HW2  345   0.193   1.634   3.035  1.4675  0.2274 -1.0611
  116SOL     OW  346   2.926   1.127   1.753  0.0639 -0.0863 -0.6377
  116SOL    HW1  347   2.942   1.226   1.776 -2.8435 -1.7783 -0.1916
  116SOL    HW2  348   2.848   1.111   1.691  1.2163 -2.5221 -0.6170
  117SOL     OW  349   2.007   0.243   1.302  0.0384  0.0955  0.0816
  117SOL    HW1  350   2.082   0.309   1.329 -0.1159  1.8708 -1.4207
  117SOL    HW2  351   1.908   0.275   1.329 -2.9573 -0.3850  3.7554
  118SOL     OW  352   2.823   2.794   2.003  0.4642 -0.4604 -0.6260
  118SOL    HW1  353   2.776   2.756   1.919 -2.4932  2.2045 -1.5953
  118SOL    HW2  354   2.902   2.734   2.032 -0.7908  2.2260  0.2496
  119SOL     OW  355   0.466   1.444   1.283 -0.2241 -0.1697  0.0356
  119SOL    HW1  356   0.543   1.387   1.317  3.6544  0.8701  0.7867
  119SOL    HW2  357   0.485   1.540   1.309 -0.0933  1.1158 -0.7702
  120SOL     OW  358   0.388   1.326   1.656 -0.3349  0.0991 -0.1585
  120SOL    HW1  359   0.474   1.303   1.606 -1.4294  1.7634 -0.9105
  120SOL    HW2  360   0.309   1.272   1.607 -2.8997 -0.4191 -3.4385
  121SOL     OW  361   1.572   1.156   0.774  0.2108 -0.1443 -0.1585
  121SOL    HW1  362   1.636   1.119   0.847 -0.0245 -0.4126  0.4192
  121SOL    HW2  363   1.473   1.144   0.801 -4.0388  0.1223  0.9714
  122SOL     OW  364   2.359   2.481   2.678  0.3287 -0.3702  0.5110
  122SOL    HW1  365   2.300   2.520   2.749 -1.5626 -2.8973  0.7591
  122SOL    HW2  366   2.313   2.497   2.591  0.4188  0.2505 -0.6790
  123SOL     OW  367   3.031   3.039   0.304 -0.2041  0.1675 -0.1381
  123SOL    HW1  368   0.007   3.076   0.374 -0.2040  0.9985  1.1170
  123SOL    HW2  369   3.012   2.939   0.314  2.0794  0.0041 -1.8279
  124SOL     OW  370   1.763   1.243   0.277  0.2956 -0.0505 -0.0562
  124SOL    HW1  371   1.720   1.335   0.290  2.0137 -1.6594  1.2282
  124SOL    HW2  372   1.854   1.257   0.230 -1.9985 -2.0137  0.5683
  125SOL     OW  373   0.144   0.946   2.205  0.3544  0.3015 -0.3474
  125SOL    HW1  374   0.131   0.846   2.223  0.7040 -3.1906 -0.4199
  125SOL    HW2  375   0.230   0.956   2.145  3.3183  2.7721  0.8604
  126SOL     OW  376   0.093   2.594   2.918  0.1270  0.3887 -0.0677
  126SOL    HW1  377   3.094   2.579   2.882  2.3523 -0.8528  0.9834
  126SOL    HW2  378   0.123   2.693   2.915 -0.1711  1.6137 -2.1307
  127SOL     OW  379   2.939   1.934   0.136 -0.4345  0.0307  0.0308
  127SOL    HW1  380   2.964   1.929   0.233  0.0966  0.4740 -1.8104
  127SOL    HW2  381   2.839   1.952   0.124 -1.8405  1.3561  1.9541
  128SOL     OW  382   1.172   0.988   0.835 -0.1799  0.1645  0.1865
  128SOL    HW1  383   1.099   1.057   0.832 -0.2597 -1.3196 -1.3719
  128SOL    HW2  384   1.235   0.997   0.917  2.2859  0.7336  1.4635
  129SOL     OW  385   2.373   2.071   1.167  0.0353 -0.1588  0.3796
  129SOL    HW1  386   2.405   2.004   1.238  2.4306  0.4723 -2.0206
  129SOL    HW2  387   2.320   2.026   1.092  0.0566 -0.8909  0.6889
  130SOL     OW  388   2.022   0.878   0.348  0.1094  0.6326  0.0980
  130SOL    HW1  389   2.090   0.952   0.353  0.0028 -0.8708 -1.6300
  130SOL    HW2  390   1.935   0.901   0.391  3.3137 -0.5360 -0.1105
  131SOL     OW  391   2.955   1.388   2.713  0.4761  0.0607  0.5624
  131SOL    HW1  392   2.928   1.434   2.626  0.3362  0.6480 -0.1680
  131SOL    HW2  393   3.038   1.428   2.748 -2.1755 -0.6762 -3.0642
  132SOL     OW  394   1.009   1.253   2.114 -0.1235 -0.1369  0.1967
  132SOL    HW1  395   0.931   1.312   2.090  2.7713  0.5037  2.7948
  132SOL    HW2  396   1.041   1.194   2.030  1.0838  3.5108 -2.6058
  133SOL     OW  397   0.467   1.308   0.574 -0.1546  0.0205 -0.1271
  133SOL    HW1  398   0.551   1.258   0.580 -1.7203  1.6542 -0.0291
  133SOL    HW2  399   0.459   1.360   0.661  0.0079 -0.8701 -1.2628
  134SOL     OW  400   2.990   1.326   0.121  0.0511 -0.0997  0.2384
  134SOL    HW1  401   3.049   1.252   0.101 -1.7091  2.9761 -1.4870
  134SOL    HW2  402   2.916   1.333   0.052 -3.0391  1.5047  1.4409
  135SOL     OW  403   1.544   0.749   0.058 -0.5351  0.2127 -0.4763
  135SOL    HW1  404   1.467   0.789   0.009  1.2315  0.6844  0.7446
  135SOL    HW2  405   1.617   0.727   3.086 -0.7914 -1.6533  1.1577
  136SOL     OW  406   2.047   1.633   1.365  0.0500  0.0478 -0.1906
  136SOL    HW1  407   2.123   1.577   1.326 -4.9372  1.8718  1.3949
  136SOL    HW2  408   1.961   1.617   1.310 -1.7028  0.5776  1.0678
  137SOL     OW  409   2.289   2.605   0.727 -0.6712 -0.5733  0.2621
  137SOL    HW1  410   2.262   2.701   0.746 -0.0292 -1.3510 -1.5649
  137SOL    HW2  411   2.214   2.539   0.751 -0.1514 -0.7406 -2.1411
  138SOL     OW  412   2.172   0.450   1.925 -0.5591 -0.4857  0.2137
  138SOL    HW1  413   2.157   0.484   2.019  2.5926 -0.2193  0.4158
  138SOL    HW2  414   2.106   0.381   1.892  0.8014  4.2614  0.2286
  139SOL     OW  415   2.541   2.727   2.988  0.3739 -0.3415 -0.0903
  139SOL    HW1  416   2.614   2.705   3.042 -3.4746  0.4278 -2.2209
  139SOL    HW2  417   2.549   2.691   2.894  0.9482  2.1962  1.0170
  140SOL     OW  418   1.616   1.906   2.288 -0.2284  0.8595  0.5953
  140SOL    HW1  419   1.647   1.945   2.200 -0.7768 -0.7800  1.3233
  140SOL    HW2  420   1.583   1.812   2.258  0.1969 -1.2719 -0.6068
  141SOL     OW  421   0.995   1.203   2.491  0.0964  0.4580  0.1865
  141SOL    HW1  422   0.925   1.273   2.464  1.3452  0.9444 -1.0756
  141SOL    HW2  423   1.023   1.219   2.584 -1.5241 -0.7478 -3.2971
  142SOL     OW  424   2.335   2.762   1.934  0.1042 -0.2336  0.3736
  142SOL    HW1  425   2.377   2.848   1.979  1.3889 -1.7611 -0.3816
  142SOL    HW2  426   2.253   2.730   1.984  0.1671 -1.6682  2.7319
  143SOL     OW  427   1.179   2.437   0.371  0.6403  0.3330  0.3943
  143SOL    HW1  428   1.261   2.498   0.372 -0.6717  1.0947  0.3606
  143SOL    HW2  429   1.108   2.476   0.430  0.2639 -1.4645  0.0363
  144SOL     OW  430   0.976   2.619   0.473 -0.1560  0.1110 -0.3440
  144SOL    HW1  431   1.024   2.708   0.468 -2.0310 -1.3164 -0.2658
  144SOL    HW2  432   0.883   2.625   0.434  1.4573  0.9083  1.3734
  145SOL     OW  433   1.713   2.633   2.367 -0.3177 -0.5096  0.1431
  145SOL    HW1  434   1.613   2.620   2.383 -3.7390 -2.5573  0.6704
  145SOL    HW2  435   1.738   2.723   2.412  0.7705 -0.2512  0.5657
  146SOL     OW  436   2.011   2.877   0.239 -0.5083  0.1535 -0.1490
  146SOL    HW1  437   2.018   2.910   0.141  2.6255 -0.2151  0.3221
  146SOL    HW2  438   1.964   2.785   0.251  0.2870 -0.8087  1.2514
  147SOL     OW  439   0.189   1.572   1.395  0.5502 -0.4093  0.2893
  147SOL    HW1  440   0.239   1.524   1.323 -0.3868  1.5379 -0.9727
  147SOL    HW2  441   0.094   1.538   1.403 -1.8246  1.4441  2.2638
  148SOL     OW  442   1.686   2.854   0.319 -0.4083  0.1524  0.0868
  148SOL    HW1  443   1.734   2.940   0.341  1.3488 -2.4713 -0.8157
  148SOL    HW2  444   1.752   2.771   0.305  1.0685 -3.2487 -1.6860
  149SOL     OW  445   0.644   2.056   2.923  0.2621 -0.4019 -0.3288
  149SOL    HW1  446   0.722   2.110   2.959  0.4701  1.2017 -2.8909
  149SOL    HW2  447   0.552   2.096   2.958 -3.2705 -2.4510 -0.6909
  150SOL     OW  448   0.213   2.561   1.081  0.2332  0.1751  0.6017
  150SOL    HW1  449   0.269   2.632   1.130 -2.8480  0.8351  0.8785
  150SOL    HW2  450   0.172   2.603   0.999  2.1188  0.7402 -0.9749
  151SOL     OW  451   0.484   1.157   3.053  0.8032  0.1528 -0.1471
  151SOL    HW1  452   0.523   1.194   2.967  1.6822  1.1758  0.5653
  151SOL    HW2  453   0.492   1.220   0.040  4.0907  1.8313 -0.1105
  152SOL     OW  454   3.070   2.222   0.829  0.1658 -0.0172 -0.4041
  152SOL    HW1  455   2.981   2.175   0.813  2.2950 -0.3366 -2.8001
  152SOL    HW2  456   3.052   2.309   0.878 -0.5594 -0.3701  0.6926
  153SOL     OW  457   1.677   2.313   0.546 -0.3951 -0.0698  0.7309
  153SOL    HW1  458   1.750   2.256   0.502 -1.2642 -1.1051 -0.8448
  153SOL    HW2  459   1.601   2.257   0.578  2.6108  2.0017  0.5716
  154SOL     OW  460   0.605   2.981   1.467  0.0352  0.4741 -0.0234
  154SOL    HW1  461   0.547   3.047   1.418  3.2818 -2.0368  0.5731
  154SOL    HW2  462   0.701   3.005   1.464 -1.7026 -1.7130  1.8423
  155SOL     OW  463   2.819   2.213   0.233  0.1660  0.1392  0.3064
  155SOL    HW1  464   2.742   2.270   0.200  0.0114 -2.6010  2.9328
  155SOL    HW2  465   2.900   2.268   0.207  1.5684  1.3642 -2.6451
  156SOL     OW  466   2.671   1.945   0.141 -0.2841 -0.0770 -0.0252
  156SOL    HW1  467   2.661   1.992   0.049  1.0122  1.5824  1.9404
  156SOL    HW2  468   2.634   2.005   0.219 -2.9209  0.0639  0.4064
  157SOL     OW  469   0.573   2.918   1.923 -0.6784 -0.1380 -0.0151
  157SOL    HW1  470   0.537   3.013   1.935 -1.1488  0.6581 -0.4283
  157SOL    HW2  471   0.577   2.868   2.011  0.7434 -2.4443  0.4770
  158SOL     OW  472   1.251   0.736   1.129  0.5887 -0.2491  0.1989
  158SOL    HW1  473   1.283   0.826   1.105  2.4727  0.2242 -1.7128
  158SOL    HW2  474   1.286   0.710   1.221  1.3574 -1.9441  0.7228
  159SOL     OW  475   1.885   1.008   0.098  0.7589  0.6325 -0.4228
  159SOL    HW1  476   1.858   0.978   0.005  0.4632 -1.3688  1.9759
  159SOL    HW2  477   1.881   0.926   0.159 -1.2658 -0.6283  0.9418
  160SOL     OW  478   1.262   1.968   0.415 -0.3491 -0.2281  0.1897
  160SOL    HW1  479   1.306   2.029   0.348  0.3942 -0.1600  0.9585
  160SOL    HW2  480   1.278   2.012   0.509  0.1303  0.0923  3.2187
  161SOL     OW  481   2.218   2.148   2.584  0.3656 -0.0951 -0.1522
  161SOL    HW1  482   2.268   2.186   2.659 -2.2363 -3.3312 -2.1567
  161SOL    HW2  483   2.190   2.054   2.607  0.8603  4.0040 -1.2143
  162SOL     OW  484   0.203   2.401   1.611  0.5132  0.3527  0.0471
  162SOL    HW1  485   0.128   2.342   1.564 -0.3983 -1.3400 -0.8227
  162SOL    HW2  486   0.266   2.457   1.546 -0.2929 -2.1962 -2.3418
  163SOL     OW  487   0.170   0.603   2.642 -0.2167 -0.1621 -0.1372
  163SOL    HW1  488   0.184   0.625   2.744  0.3017 -0.0221 -0.5424
  163SOL    HW2  489   0.188   0.688   2.586 -0.8953  0.2005  0.9518
  164SOL     OW  490   0.244   2.808   2.748 -0.3554  0.2759 -0.1735
  164SOL    HW1  491   0.277   2.877   2.685 -2.1560 -1.0368  0.5445
  164SOL    HW2  492   0.207   2.845   2.839 -2.3596  0.6051  2.8276
  165SOL     OW  493   2.623   0.694   1.708  0.6109 -0.2818  0.0935
  165SOL    HW1  494   2.562   0.644   1.641 -2.1479 -2.0263  0.7975
  165SOL    HW2  495   2.707   0.735   1.670 -2.5540  1.7206 -1.3210
  166SOL     OW  496   2.204   1.495   1.213 -0.0351  0.1669  0.0705
  166SOL    HW1  497   2.147   1.410   1.235 -1.5063 -0.5101  1.7224
  166SOL    HW2  498   2.218   1.494   1.110 -1.4286 -0.0484 -0.7926
  167SOL     OW  499   0.234   0.838   2.510  0.4399 -0.2186 -0.2308
  167SOL    HW1  500   0.197   0.804   2.420 -0.7860 -1.1701 -4.2676
  167SOL    HW2  501   0.161   0.867   2.575 -1.1608  1.4774  0.6980
  168SOL     OW  502   2.254   0.269   2.544  0.1530  0.0105  0.0188
  168SOL    HW1  503   2.166   0.234   2.586 -0.6542  0.3304 -1.1293
  168SOL    HW2  504   2.241   0.357   2.495 -1.2560 -0.3002  0.0472
  169SOL     OW  505   0.623   0.864   0.010 -0.6879 -0.1323  0.0712
  169SOL    HW1  506   0.575   0.785   0.042  1.1431  0.7983 -0.5280
  169SOL    HW2  507   0.565   0.944   0.025  2.6854 -4.3593 -3.6096
  170SOL     OW  508   1.059   1.303   1.552  0.4238 -0.0653  0.7081
  170SOL    HW1  509   0.961   1.326   1.581 -2.1519  0.4215 -1.0450
  170SOL    HW2  510   1.112   1.281   1.635  1.6214  0.0149  0.9979
  171SOL     OW  511   1.320   2.602   1.312 -0.2917  0.4416  0.6965
  171SOL    HW1  512   1.242   2.655   1.345 -0.4897  0.3764 -0.3559
  171SOL    HW2  513   1.402   2.622   1.368  0.7465  0.4256 -1.2702
  172SOL     OW  514   0.914   2.906   1.874 -0.3128 -0.2213  0.1615
  172SOL    HW1  515   0.822   2.877   1.854  0.9726  1.7346  3.1029
  172SOL    HW2  516   0.971   2.819   1.892 -0.3001  2.6307 -2.4935
  173SOL     OW  517   0.641   2.658   0.584  0.0783  0.2113  0.6184
  173SOL    HW1  518   0.630   2.561   0.558 -1.4543 -1.5013  1.5102
  173SOL    HW2  519   0.677   2.655   0.683 -0.6709  3.7040  0.5515
  174SOL     OW  520   1.968   0.182   0.487  0.3224 -0.2872 -0.4790
  174SOL    HW1  521   1.896   0.193   0.568 -5.4114 -0.7124  3.2936
  174SOL    HW2  522   1.935   0.097   0.447  0.6498  1.5730  1.4738
  175SOL     OW  523   1.323   1.409   0.837 -0.2908  0.0816 -0.1706
  175SOL    HW1  524   1.341   1.506   0.816 -1.3882  3.1129 -1.4036
  175SOL    HW2  525   1.312   1.352   0.751  1.4181  2.4572 -0.3848
  176SOL     OW  526   1.107   1.688   0.809  0.0701 -0.0858 -0.2531
  176SOL    HW1  527   1.095   1.784   0.826 -3.0113 -0.5275 -3.0819
  176SOL    HW2  528   1.103   1.638   0.896 -1.3449  0.4070 -1.7649
  177SOL     OW  529   1.830   1.269   1.053 -0.1806  0.0643 -0.3802
  177SOL    HW1  530   1.791   1.184   1.016  0.4771  0.1269  1.9614
  177SOL    HW2  531   1.799   1.355   1.002 -0.5315  0.5545 -2.6177
  178SOL     OW  532   2.259   1.583   0.225 -0.2881  0.2555  0.0643
  178SOL    HW1  533   2.340   1.600   0.285 -3.7060  0.8273  0.3433
  178SOL    HW2  534   2.288   1.569   0.128 -0.2619 -0.4845  2.3626
  179SOL     OW  535   1.243   2.925   3.044 -0.0774 -0.5945 -0.1696
  179SOL    HW1  536   1.320   2.863   3.022  1.0713 -2.1358  1.2437
  179SOL    HW2  537   1.152   2.887   3.015 -0.1655 -0.6201 -1.2670
  180SOL     OW  538   1.910   1.271   1.489  0.1461 -0.1829 -0.3912
  180SOL    HW1  539   1.821   1.322   1.493 -0.2467 -1.4406 -2.1318
  180SOL    HW2  540   1.954   1.281   1.399 -0.6085  1.4666  0.1450
  181SOL     OW  541   0.766   0.931   1.800 -0.8245 -0.4947  0.0979
  181SOL    HW1  542   0.861   0.927   1.762 -2.4611 -0.9413 -2.1154
  181SOL    HW2  543   0.733   0.840   1.826 -1.9129  0.6669 -1.4704
  182SOL     OW  544   3.091   0.887   2.681 -0.3823 -0.3815  0.0144
  182SOL    HW1  545   3.018   0.821   2.650 -0.9887 -2.0721  0.1736
  182SOL    HW2  546   3.061   0.983   2.648 -3.8011  2.1516  0.7935
  183SOL     OW  547   1.387   0.547   2.290  0.1097  0.0152 -0.7053
  183SOL    HW1  548   1.474   0.569   2.336 -2.1152 -1.8604 -0.3480
  183SOL    HW2  549   1.307   0.549   2.362 -4.5904  1.5169  2.1760
  184SOL     OW  550   0.933   0.500   1.198  0.1814  0.5045 -0.5314
  184SOL    HW1  551   0.949   0.505   1.097 -0.9848  3.3399  0.3421
  184SOL    HW2  552   0.944   0.408   1.240 -0.3609  0.7970 -1.0507
  185SOL     OW  553   2.320   1.276   0.516  0.1609  0.1306  0.2133
  185SOL    HW1  554   2.397   1.341   0.546  4.1525 -0.1346  1.8719
  185SOL    HW2  555   2.239   1.325   0.471  1.4298 -0.0089 -0.5668
  186SOL     OW  556   0.267   1.936   0.139  0.2227 -0.2109 -0.3441
  186SOL    HW1  557   0.249   1.852   0.195  2.6847  1.8537 -2.4892
  186SOL    HW2  558   0.206   1.951   0.062  0.9475  0.6778  0.2014
  187SOL     OW  559   1.823   2.122   2.838  0.0183  0.2935  0.6278
  187SOL    HW1  560   1.915   2.075   2.843 -3.0201 -2.7705 -1.0976
  187SOL    HW2  561   1.835   2.227   2.854 -0.6093  1.2736 -0.2318
  188SOL     OW  562   1.269   2.263   1.553 -0.0826  0.0942 -0.4299
  188SOL    HW1  563   1.361   2.251   1.599  0.3919  0.5844 -2.4461
  188SOL    HW2  564   1.284   2.254   1.454  0.6311  0.0486 -1.7651
  189SOL     OW  565   2.441   1.322   2.714  0.2511  0.1918  0.3322
  189SOL    HW1  566   2.365   1.386   2.740  0.3844 -1.6101 -0.7515
  189SOL    HW2  567   2.454   1.323   2.609  0.0366 -0.4781 -1.0031
  190SOL     OW  568   0.760   2.594   2.215  0.4201 -0.4542 -0.5297
  190SOL    HW1  569   0.701   2.515   2.191 -0.4526  0.8788 -1.8339
  190SOL    HW2  570   0.721   2.680   2.173  1.1480  2.2751 -1.9242
  191SOL     OW  571   2.668   1.059   1.110  0.3519 -0.2884 -0.5622
  191SOL    HW1  572   2.679   1.125   1.181  0.5540 -1.5197  0.2289
  191SOL    HW2  573   2.680   1.103   1.020  1.8272 -0.7109  1.7391
  192SOL     OW  574   2.133   0.573   1.126 -0.3445  0.7287 -0.0347
  192SOL    HW1  575   2.151   0.544   1.223  0.9778  0.0976  1.5827
  192SOL    HW2  576   2.057   0.518   1.088  4.5761 -0.7575 -2.3111
  193SOL     OW  577   0.898   0.243   0.336  0.1425 -0.2390 -0.1033
  193SOL    HW1  578   0.980   0.258   0.277  0.8218 -0.3383 -0.0454
  193SOL    HW2  579   0.810   0.223   0.283  0.7306  1.2348 -0.8172
  194SOL     OW  580   1.512   2.376   0.981 -0.1982  0.7904  0.3681
  194SOL    HW1  581   1.566   2.429   0.911 -0.1554 -1.6262  0.4922
  194SOL    HW2  582   1.569   2.310   1.031 -0.2215  1.6888  0.5217
  195SOL     OW  583   2.743   0.945   0.544 -0.1543  0.1822  0.1206
  195SOL    HW1  584   2.809   0.909   0.614 -0.9439 -1.6242  1.6645
  195SOL    HW2  585   2.700   0.870   0.500  1.9881  2.0759  0.6769
  196SOL     OW  586   0.469   2.374   1.778 -0.0679  0.3981  0.5638
  196SOL    HW1  587   0.371   2.386   1.804 -2.2057 -2.7004 -1.2353
  196SOL    HW2  588   0.481   2.304   1.706  1.4037 -0.0576  1.5419
  197SOL     OW  589   0.032   0.428   2.388 -0.0255  0.2359  0.0332
  197SOL    HW1  590   0.100   0.372   2.326  1.3540 -2.6702 -0.0853
  197SOL    HW2  591   3.032   0.384   2.385 -0.9162  1.2723  2.2359
  198SOL     OW  592   2.109   1.386   0.352 -0.5104 -0.0628  0.4073
  198SOL    HW1  593   2.069   1.329   0.276 -2.0343  0.2083 -3.2302
  198SOL    HW2  594   2.148   1.471   0.306  0.0116  2.0764 -0.0359
  199SOL     OW  595   2.422   0.282   1.980 -0.2745 -0.4130  0.1865
  199SOL    HW1  596   2.341   0.341   1.963 -3.4149 -0.1456 -0.4785
  199SOL    HW2  597   2.497   0.337   2.016 -3.4913  2.9430  1.5477
  200SOL     OW  598   1.975   0.116   3.085  0.1828  0.3297  0.4395
  200SOL    HW1  599   2.025   0.137   0.078  2.5542 -0.8835 -2.3102
  200SOL    HW2  600   1.966   0.197   3.027 -0.2681 -0.1534  1.2236
  201SOL     OW  601   2.588   0.144   1.148 -0.1742  0.4243  0.5146
  201SOL    HW1  602   2.522   0.118   1.219 -0.4923  1.1149 -1.7658
  201SOL    HW2  603   2.583   0.242   1.131 -0.8027 -2.2780  0.5943
  202SOL     OW  604   2.939   2.669   0.108 -0.2583 -0.0167  0.5808
  202SOL    HW1  605   3.012   2.702   0.174  0.0328 -1.4306  1.2480
  202SOL    HW2  606   2.854   2.720   0.130  1.1262  1.3210 -0.8932
  203SOL     OW  607   1.736   1.907   0.484 -0.1047 -0.2840  0.1831
  203SOL    HW1  608   1.692   1.958   0.561 -2.9508  0.3987 -0.9540
  203SOL    HW2  609   1.836   1.940   0.471  1.8935 -0.1596  0.9021
  204SOL     OW  610   0.080   1.608   2.070 -0.0840  0.1476 -0.1005
  204SOL    HW1  611   0.070   1.580   1.974  1.6364 -2.3252  0.7641
  204SOL    HW2  612   0.070   1.532   2.140  0.2548 -0.1766  1.5055
  205SOL     OW  613   0.730   0.469   0.789  0.2161  0.0788 -0.2292
  205SOL    HW1  614   0.733   0.517   0.702 -1.8507 -1.8846  0.6973
  205SOL    HW2  615   0.806   0.500   0.847  0.3280  0.6284 -3.9546
  206SOL     OW  616   0.263   0.677   2.897 -0.5039  0.5101 -0.2762
  206SOL    HW1  617   0.213   0.636   2.976  1.7879  0.5282 -0.6671
  206SOL    HW2  618   0.286   0.775   2.917  1.6398  1.2743  0.1933
  207SOL     OW  619   1.044   2.380   1.898  0.1046 -0.1100  0.3829
  207SOL    HW1  620   1.061   2.353   1.994 -1.2710 -1.9272  0.1933
  207SOL    HW2  621   1.022   2.301   1.838  0.3240 -0.5109 -2.0696
  208SOL     OW  622   2.640   0.230   1.606  0.5197 -0.1240  0.2228
  208SOL    HW1  623   2.721   0.289   1.607 -0.7632 -0.3764 -0.1604
  208SOL    HW2  624   2.601   0.202   1.693  0.9235 -0.3786  0.4099
  209SOL     OW  625   1.902   0.656   0.712  0.1823 -0.7470 -0.0363
  209SOL    HW1  626   1.963   0.703   0.783  0.6498  0.6646 -0.9172
  209SOL    HW2  627   1.832   0.595   0.755  0.6106  0.6551 -2.2155
  210SOL     OW  628   2.553   1.093   0.418  0.0889  0.1594  0.5753
  210SOL    HW1  629   2.616   1.057   0.489  1.4166  0.6858 -0.1346
  210SOL    HW2  630   2.475   1.152   0.445 -0.4055 -0.8664 -1.5879
  211SOL     OW  631   1.038   0.055   0.057  0.5639 -0.4170 -0.0505
  211SOL    HW1  632   1.071   0.137   0.110  0.8426 -0.6384  0.4058
  211SOL    HW2  633   1.112   3.092   0.014  2.0290 -1.8687 -1.7243
  212SOL     OW  634   2.013   1.960   0.464  0.1528  0.0294 -0.1714
  212SOL    HW1  635   2.070   2.005   0.536 -1.5845  0.3380  0.5583
  212SOL    HW2  636   2.072   1.906   0.398  2.2002 -1.3880 -0.2244
  213SOL     OW  637   2.408   0.079   0.147  0.0426  0.5181  0.5314
  213SOL    HW1  638   2.342   0.050   0.070 -0.7538 -0.9305 -0.4594
  213SOL    HW2  639   2.410   0.179   0.149  0.1703  0.3084 -0.3629
  214SOL     OW  640   1.121   2.308   2.145 -0.2189 -0.7187  0.5665
  214SOL    HW1  641   1.047   2.301   2.218 -1.3980  0.0787 -0.0393
  214SOL    HW2  642   1.172   2.220   2.155 -0.0337 -0.0116  0.0235
  215SOL     OW  643   0.313   1.139   0.867  0.8407 -0.4456  0.8297
  215SOL    HW1  644   0.217   1.099   0.877  0.8114 -0.0811  0.8090
  215SOL    HW2  645   0.297   1.238   0.837 -0.4180  0.1375 -1.2647
  216SOL     OW  646   0.332   2.576   2.622 -0.1261 -0.1746 -0.6735
  216SOL    HW1  647   0.401   2.530   2.682 -0.9072 -0.3402 -1.1073
  216SOL    HW2  648   0.283   2.644   2.678 -1.0993  1.0475  1.5530
  217SOL     OW  649   2.709   1.287   1.296  0.0871  0.7234 -0.3153
  217SOL    HW1  650   2.769   1.361   1.262 -2.3432 -2.8746 -1.1473
  217SOL    HW2  651   2.758   1.222   1.359 -0.6796  0.1409  0.1354
  218SOL     OW  652   0.884   2.193   1.780  0.0286  0.1390  0.1738
  218SOL    HW1  653   0.791   2.229   1.801  0.1209 -0.0625 -0.3794
  218SOL    HW2  654   0.887   2.092   1.785 -1.2319 -0.8165  2.2952
  219SOL     OW  655   1.994   1.610   0.135 -0.3920  0.2602 -0.0079
  219SOL    HW1  656   1.906   1.631   0.176  2.3583  0.3927  1.1909
  219SOL    HW2  657   2.070   1.636   0.205  3.2345  0.7425  0.3399
  220SOL     OW  658   2.055   0.518   0.019 -0.4567 -0.0162  0.3738
  220SOL    HW1  659   2.122   0.486   0.091 -0.5290 -0.9279  0.8978
  220SOL    HW2  660   2.073   0.616   3.084  0.5156  0.7968  0.3362
  221SOL     OW  661   2.905   0.669   0.046  0.4783  0.0846  0.3029
  221SOL    HW1  662   2.995   0.716   0.061  2.1546  1.0861 -0.6809
  221SOL    HW2  663   2.922   0.590   3.082  0.5718  1.5354  3.2240
  222SOL     OW  664   1.690   1.463   0.767  0.2304 -0.1448  0.3484
  222SOL    HW1  665   1.702   1.384   0.700 -0.4761 -2.3579  1.2104
  222SOL    HW2  666   1.719   1.547   0.715  0.4662 -1.0045  0.1113
  223SOL     OW  667   1.161   0.350   2.926 -0.7299  0.1584  0.6429
  223SOL    HW1  668   1.226   0.263   2.916  5.9187 -1.5346  1.0182
  223SOL    HW2  669   1.077   0.318   2.971  0.7133  0.5161  4.8222
  224SOL     OW  670   0.765   2.841   1.109  0.4021  0.4587 -0.2578
  224SOL    HW1  671   0.784   2.939   1.094 -2.0037 -2.0587 -1.9944
  224SOL    HW2  672   0.855   2.790   1.112  3.3959  0.4636 -0.0836
  225SOL     OW  673   0.766   3.066   2.111 -0.2526  0.2155  0.1914
  225SOL    HW1  674   0.705   3.081   2.031  1.5549  0.1244 -1.0393
  225SOL    HW2  675   0.722   0.013   2.198  1.3622  0.8545 -2.2914
  226SOL     OW  676   1.463   1.578   0.546 -0.7975 -0.7269  0.4624
  226SOL    HW1  677   1.509   1.629   0.620 -1.0069  0.4748  1.7743
  226SOL    HW2  678   1.415   1.501   0.584  1.1529 -0.8606 -1.9515
  227SOL     OW  679   0.532   1.940   1.234 -0.8654 -0.0675 -0.3823
  227SOL    HW1  680   0.492   1.957   1.144  3.9472 -1.9273  1.9993
  227SOL    HW2  681   0.605   1.872   1.227  1.6141  1.6963  1.0526
  228SOL     OW  682   0.167   1.904   0.571 -0.0555 -0.0705 -0.3433
  228SOL    HW1  683   0.195   1.923   0.475 -0.1108  0.0858  1.6940
  228SOL    HW2  684   0.158   1.991   0.623 -1.0897  2.1192 -0.1184
  229SOL     OW  685   2.727   0.287   2.861 -0.1752  0.2489 -0.4043
  229SOL    HW1  686   2.688   0.197   2.856  0.9988  0.9933  2.0232
  229SOL    HW2  687   2.828   0.277   2.857  1.8845  0.6749  0.0462
  230SOL     OW  688   2.339   0.805   0.454 -0.3406  0.8585  0.0414
  230SOL    HW1  689   2.310   0.765   0.540  3.1391 -1.8788 -1.3181
  230SOL    HW2  690   2.328   0.905   0.449 -0.8377 -0.7407 -0.2550
  231SOL     OW  691   2.077   1.452   3.020 -0.2675  0.0497  0.1247
  231SOL    HW1  692   2.031   1.498   2.943  1.0493 -0.6380 -0.2832
  231SOL    HW2  693   2.052   1.499   0.010  0.7826 -1.3692 -2.6874
  232SOL     OW  694   2.124   1.952   1.051 -0.1004 -0.1962  0.2077
  232SOL    HW1  695   2.135   1.942   1.149  2.7282 -0.5745 -1.6325
  232SOL    HW2  696   2.115   1.856   1.007 -2.7438 -4.9761  1.8529
  233SOL     OW  697   0.235   2.739   1.489  0.0118  0.3580 -0.1059
  233SOL    HW1  698   0.315   2.687   1.524  0.5706  0.7265 -1.5232
  233SOL    HW2  699   0.147   2.727   1.547 -3.1032 -1.7379  4.4383
  234SOL     OW  700   0.746   0.226   2.534  0.1395 -0.5187 -0.2463
  234SOL    HW1  701   0.838   0.242   2.566 -0.8874 -1.9044  0.6095
  234SOL    HW2  702   0.684   0.252   2.615  0.1556  0.9148  1.9546
  235SOL     OW  703   2.553   1.048   1.920  0.2192 -0.5501 -0.0935
  235SOL    HW1  704   2.584   0.953   1.934  1.5568  0.9107  1.8923
  235SOL    HW2  705   2.525   1.061   1.824  0.8218  0.0570 -0.3138
  236SOL     OW  706   1.231   2.782   1.751 -0.5056 -0.4255 -0.2647
  236SOL    HW1  707   1.148   2.746   1.791  1.9624  1.4262 -0.0824
  236SOL    HW2  708   1.282   2.709   1.703 -1.3324  2.8793  1.2069
  237SOL     OW  709   0.561   1.568   2.680 -0.0880  0.0973 -0.1221
  237SOL    HW1  710   0.564   1.550   2.581  2.5353 -0.5936 -0.9051
  237SOL    HW2  711   0.580   1.668   2.702 -1.5471  1.1656  1.4862
  238SOL     OW  712   0.998   0.702   2.394 -0.1719  0.0396  0.7235
  238SOL    HW1  713   0.991   0.805   2.369  1.0424  3.0469  0.7718
  238SOL    HW2  714   0.906   0.663   2.410 -0.5621 -0.3277  1.0817
  239SOL     OW  715   0.485   1.991   2.330 -0.2182 -1.0032  0.2020
  239SOL    HW1  716   0.417   1.957   2.265 -0.7777  3.5991  1.7652
  239SOL    HW2  717   0.476   2.095   2.334 -0.8034  0.8224  1.1548
  240SOL     OW  718   2.288   2.801   0.306 -0.4191  0.0783 -0.5147
  240SOL    HW1  719   2.186   2.806   0.304 -0.1725 -1.2147  1.2603
  240SOL    HW2  720   2.329   2.890   0.347  0.3631  2.3937 -0.1329
  241SOL     OW  721   0.217   0.980   0.233  0.2046  0.3177  0.0040
  241SOL    HW1  722   0.180   1.016   0.319 -0.4947  0.8470 -2.0006
  241SOL    HW2  723   0.201   1.040   0.156  0.6097 -1.6579  1.4484
  242SOL     OW  724   1.366   2.564   1.632 -0.3647 -0.1575  0.0445
  242SOL    HW1  725   1.322   2.477   1.605 -0.2549 -1.7275  0.4973
  242SOL    HW2  726   1.441   2.588   1.572 -2.8266 -1.3388  0.7598
  243SOL     OW  727   0.721   2.430   1.866 -0.5019 -0.2745  0.6831
  243SOL    HW1  728   0.784   2.498   1.825 -0.3493 -2.3211 -0.1094
  243SOL    HW2  729   0.626   2.447   1.833 -0.9614  3.0282 -1.4283
  244SOL     OW  730   2.392   0.703   2.616 -0.3395  0.0461  0.2548
  244SOL    HW1  731   2.310   0.696   2.677  0.8834 -1.9487 -1.6734
  244SOL    HW2  732   2.440   0.793   2.628 -3.5189  0.4112 -0.1492
  245SOL     OW  733   1.556   2.666   1.464 -0.3013  0.4640  0.3151
  245SOL    HW1  734   1.600   2.579   1.426 -1.5854  0.4175 -0.7003
  245SOL    HW2  735   1.587   2.747   1.407 -1.8704 -2.7017  0.5702
  246SOL     OW  736   1.406   3.074   0.437 -0.2297  0.2446 -0.3951
  246SOL    HW1  737   1.401   2.993   0.500 -0.5033  1.4050 -1.2243
  246SOL    HW2  738   1.335   0.051   0.464 -0.5139  3.1657  0.1167
  247SOL     OW  739   1.708   0.582   1.882 -0.2229  0.4170  0.0531
  247SOL    HW1  740   1.653   0.538   1.807 -1.8448  0.0882 -1.0053
  247SOL    HW2  741   1.723   0.513   1.948 -2.1766  4.3015 -0.6105
  248SOL     OW  742   0.111   2.027   1.948 -0.6403 -0.8580 -0.3992
  248SOL    HW1  743   0.187   1.981   1.894 -0.8695 -2.6487 -0.6736
  248SOL    HW2  744   0.037   1.964   1.964  2.7709  1.8303 -1.4223
  249SOL     OW  745   0.140   0.230   0.267  0.2112  0.3983 -0.5888
  249SOL    HW1  746   0.088   0.202   0.184 -1.2780 -0.3028 -0.4700
  249SOL    HW2  747   0.095   0.191   0.348  0.2969  1.7042  0.1003
  250SOL     OW  748   2.717   0.114   2.503 -0.1293 -1.0363  0.3683
  250SOL    HW1  749   2.678   0.095   2.596 -2.1121 -1.0278  1.1445
  250SOL    HW2  750   2.645   0.110   2.434  0.6423  1.8438 -1.9082
  251SOL     OW  751   1.393   0.496   0.169  0.1198 -0.0814  0.0017
  251SOL    HW1  752   1.391   0.400   0.136  0.7805  0.5702  0.3142
  251SOL    HW2  753   1.476   0.547   0.137  0.9394  0.5729 -0.7425
  252SOL     OW  754   1.055   2.559   2.258  0.3267  0.0202  0.1640
  252SOL    HW1  755   0.964   2.588   2.212 -2.7958  1.2642 -2.3083
  252SOL    HW2  756   1.099   2.484   2.210 -2.6478  0.7225  0.2838
  253SOL     OW  757   2.553   2.659   0.768 -0.2495  0.3134 -0.1684
  253SOL    HW1  758   2.453   2.640   0.786 -4.4180 -1.6165  1.7061
  253SOL    HW2  759   2.564   2.734   0.707  0.7900  1.5972  2.6718
  254SOL     OW  760   2.237   1.165   1.093  0.3571  0.4702  0.6342
  254SOL    HW1  761   2.295   1.095   1.138 -3.7879  0.4820  0.6381
  254SOL    HW2  762   2.296   1.231   1.037 -0.5113  1.4050 -0.8649
  255SOL     OW  763   0.533   2.482   1.308  0.7261 -0.1936  0.2221
  255SOL    HW1  764   0.557   2.581   1.313  0.5741 -1.9477 -0.4884
  255SOL    HW2  765   0.464   2.471   1.235  0.0432  0.1223  1.2936
  256SOL     OW  766   2.098   1.650   1.630 -0.8176  0.2129 -0.4557
  256SOL    HW1  767   2.084   1.651   1.531  0.2982 -0.7426  3.9009
  256SOL    HW2  768   2.191   1.613   1.654  1.9686  0.0521  1.1535
  257SOL     OW  769   0.157   2.375   2.629  0.0177 -0.2219  0.3801
  257SOL    HW1  770   0.172   2.318   2.713 -0.9788 -1.7160 -0.9721
  257SOL    HW2  771   0.234   2.444   2.613  1.3928 -1.0348 -0.8876
  258SOL     OW  772   0.732   2.671   0.844 -0.0469  0.2334 -0.0529
  258SOL    HW1  773   0.774   2.734   0.909 -0.6165  0.2851  1.5597
  258SOL    HW2  774   0.681   2.601   0.898 -0.5317 -1.6102  2.1014
  259SOL     OW  775   1.429   0.621   2.894  0.2436 -0.0528 -0.6545
  259SOL    HW1  776   1.385   0.690   2.955 -0.0613  0.3593 -0.6965
  259SOL    HW2  777   1.353   0.559   2.860 -2.1729 -0.5927 -2.8572
  260SOL     OW  778   0.273   0.261   1.141  0.6481 -0.3386 -0.5832
  260SOL    HW1  779   0.231   0.201   1.073  0.1861 -0.5892  1.3956
  260SOL    HW2  780   0.372   0.260   1.131 -1.6287 -1.8036  0.4274
  261SOL     OW  781   0.648   0.069   2.334  0.0456 -0.1105 -0.6502
  261SOL    HW1  782   0.637   3.067   2.375 -0.1717 -2.2057  1.3958
  261SOL    HW2  783   0.695   0.135   2.397  1.7861  2.0850  1.8183
  262SOL     OW  784   0.995   2.648   1.865 -0.2068  0.6271  0.4641
  262SOL    HW1  785   0.937   2.659   1.781 -0.9244  0.4352  2.5426
  262SOL    HW2  786   0.996   2.552   1.897 -2.1519  1.3407  0.5300
  263SOL     OW  787   0.853   2.212   3.000  0.2362 -0.1701 -0.1847
  263SOL    HW1  788   0.915   2.165   2.935 -1.5649  0.0859  0.3525
  263SOL    HW2  789   0.877   2.202   0.002  2.4368 -1.5782 -1.6734
  264SOL     OW  790   1.681   1.594   1.009  0.3377 -0.0381  0.8406
  264SOL    HW1  791   1.714   1.695   1.002  0.2354  0.1672 -0.0889
  264SOL    HW2  792   1.668   1.554   0.915 -0.3337  1.6342  1.5382
  265SOL     OW  793   0.863   2.367   0.312 -0.4634 -0.2321 -0.2387
  265SOL    HW1  794   0.846   2.340   0.411 -3.3808 -0.2729  3.4472
  265SOL    HW2  795   0.852   2.467   0.294 -0.8804 -0.4639 -1.6759
  266SOL     OW  796   2.869   0.874   0.811  0.2625 -0.0988  0.0652
  266SOL    HW1  797   2.808   0.811   0.759  0.1688 -0.3460  2.9719
  266SOL    HW2  798   2.887   0.824   0.898  0.3062 -0.1050 -0.6115
  267SOL     OW  799   0.257   1.405   0.148 -0.6907  0.1392  0.2374
  267SOL    HW1  800   0.222   1.385   0.243 -3.0608  4.1708  0.0558
  267SOL    HW2  801   0.356   1.377   0.143 -1.3075 -0.7907  3.2483
  268SOL     OW  802   1.559   0.442   0.555 -0.0366 -0.0308 -0.0369
  268SOL    HW1  803   1.571   0.351   0.507  1.3964 -2.0874 -1.8873
  268SOL    HW2  804   1.509   0.424   0.640  0.9231  0.4024 -0.6807
  269SOL     OW  805   2.898   0.661   2.221  0.0305  0.3194  0.1524
  269SOL    HW1  806   2.896   0.607   2.134 -2.9954  1.7728 -2.1653
  269SOL    HW2  807   2.992   0.684   2.242 -0.5395 -2.2809 -3.1842
  270SOL     OW  808   2.927   1.067   0.343  0.0926 -0.2355  0.0521
  270SOL    HW1  809   2.845   1.025   0.387  1.1736  1.2997  0.1918
  270SOL    HW2  810   2.941   1.045   0.245  0.6552  0.6319 -1.3326
  271SOL     OW  811   2.845   1.394   2.110 -0.3323  0.0120 -0.2840
  271SOL    HW1  812   2.832   1.481   2.152  0.4257 -1.2718 -0.9790
  271SOL    HW2  813   2.930   1.372   2.060 -1.4403 -1.0252  1.8656
  272SOL     OW  814   2.555   2.488   1.721 -0.3150  0.2510  0.5199
  272SOL    HW1  815   2.604   2.400   1.699 -0.3837  3.9979  0.6124
  272SOL    HW2  816   2.533   2.493   1.819  2.1022 -1.0801  0.6413
  273SOL     OW  817   0.136   2.448   0.352 -0.3709 -0.3022  0.1212
  273SOL    HW1  818   0.209   2.471   0.282  0.4398 -0.5095 -1.5398
  273SOL    HW2  819   0.088   2.361   0.333  0.7757  1.3322  2.8465
  274SOL     OW  820   0.851   2.312   0.583 -0.2176  0.6891  0.3536
  274SOL    HW1  821   0.816   2.218   0.604  2.3912  1.7480  0.6740
  274SOL    HW2  822   0.873   2.357   0.671 -0.2252  1.6268 -0.8200
  275SOL     OW  823   1.641   1.996   2.691 -0.3760 -0.4006 -0.3833
  275SOL    HW1  824   1.717   2.037   2.743 -0.5279 -0.3176 -0.2028
  275SOL    HW2  825   1.674   1.951   2.610 -1.8612  3.4629  1.1500
  276SOL     OW  826   2.416   1.469   2.162  0.0126 -0.1076 -0.0968
  276SOL    HW1  827   2.462   1.403   2.097 -0.9457 -1.0914 -1.1197
  276SOL    HW2  828   2.463   1.560   2.153  0.5647 -1.6029  1.7207
  277SOL     OW  829   2.180   0.322   0.845 -0.1723 -0.3201 -0.0096
  277SOL    HW1  830   2.137   0.346   0.754 -1.5174 -2.9056  0.1295
  277SOL    HW2  831   2.130   0.374   0.918 -1.3586  0.7487  2.3085
  278SOL     OW  832   1.598   0.655   2.670  0.3236  0.3843  0.3901
  278SOL    HW1  833   1.502   0.634   2.697 -0.9516  1.8735 -0.2792
  278SOL    HW2  834   1.608   0.754   2.696  2.7973  1.8151 -0.0215
  279SOL     OW  835   1.006   2.752   0.995 -0.0105  0.3255  0.5782
  279SOL    HW1  836   1.030   2.847   0.961  0.3558  0.4339 -2.2989
  279SOL    HW2  837   1.028   2.676   0.927  1.6195 -1.5518  1.0611
  280SOL     OW  838   1.312   1.282   0.593 -0.2256 -0.1488 -0.4553
  280SOL    HW1  839   1.218   1.304   0.556 -0.6069  0.4265 -0.3475
  280SOL    HW2  840   1.356   1.202   0.547 -0.8429 -1.7127 -3.4142
  281SOL     OW  841   2.162   1.868   0.230  0.1028  0.1707 -0.0671
  281SOL    HW1  842   2.229   1.914   0.168  0.2400  1.3183 -2.0386
  281SOL    HW2  843   2.196   1.777   0.253 -1.6876  1.1201 -2.7716
  282SOL     OW  844   2.745   1.351   0.498  0.2616 -0.6945 -0.2202
  282SOL    HW1  845   2.699   1.269   0.454  0.2690  0.6411 -1.8870
  282SOL    HW2  846   2.819   1.382   0.435 -1.0101 -1.2304 -2.8478
  283SOL     OW  847   1.636   2.893   2.759  0.2435 -0.3236 -0.0786
  283SOL    HW1  848   1.665   2.848   2.677  0.7104 -0.5245  0.4525
  283SOL    HW2  849   1.662   2.993   2.767 -1.0805  1.5636  0.6038
  284SOL     OW  850   0.604   0.277   2.768 -1.0040  0.3758  0.5510
  284SOL    HW1  851   0.599   0.373   2.797 -1.1875  1.8715 -1.7950
  284SOL    HW2  852   0.623   0.217   2.847  2.6427 -0.3486 -0.4935
  285SOL     OW  853   1.865   1.816   2.961  0.1412 -0.5587 -0.0793
  285SOL    HW1  854   1.797   1.743   2.981 -0.5039  1.5299 -1.4758
  285SOL    HW2  855   1.879   1.829   2.864  0.0418  0.0869  0.2869
  286SOL     OW  856   1.918   2.058   1.440 -0.3391  0.6507 -0.4026
  286SOL    HW1  857   1.857   1.991   1.490 -1.4757  0.1280  2.3362
  286SOL    HW2  858   1.947   2.132   1.500  0.0328 -2.9391 -1.3269
  287SOL     OW  859   1.639   0.169   1.814  0.0920 -0.4640 -0.6699
  287SOL    HW1  860   1.657   0.123   1.901 -2.0214  0.1011  0.0678
  287SOL    HW2  861   1.556   0.230   1.825  0.7844 -0.1660 -0.5390
  288SOL     OW  862   0.568   2.791   2.155 -0.2154 -0.0898  0.3215
  288SOL    HW1  863   0.499   2.717   2.179  1.0666 -0.0443 -3.2413
  288SOL    HW2  864   0.577   2.845   2.241 -0.4433  1.3592 -0.0627
  289SOL     OW  865   0.433   1.829   0.720 -0.6090  0.0001  0.2012
  289SOL    HW1  866   0.357   1.791   0.766  3.7210  3.8765 -5.3728
  289SOL    HW2  867   0.431   1.934   0.726  1.8093 -2.8368 -2.0820
  290SOL     OW  868   0.932   1.907   1.660  0.1704 -0.2114  0.1514
  290SOL    HW1  869   0.887   1.895   1.753 -1.7088 -2.4981  1.7690
  290SOL    HW2  870   1.033   1.914   1.671  0.7576  0.1076  2.1085
  291SOL     OW  871   1.593   0.205   0.419 -0.8307  0.0807  0.6389
  291SOL    HW1  872   1.529   0.125   0.419  2.3770  1.9114  2.0781
  291SOL    HW2  873   1.646   0.196   0.327 -2.4975 -0.2957 -1.7002
  292SOL     OW  874   0.555   0.262   1.297  0.1836 -0.2503  0.3183
  292SOL    HW1  875   0.623   0.327   1.331 -2.7143 -1.1649 -1.1904
  292SOL    HW2  876   0.530   0.294   1.205  0.3719  0.1263  2.0084
  293SOL     OW  877   2.548   1.585   0.940 -0.5857  0.0115  0.7396
  293SOL    HW1  878   2.634   1.635   0.917  2.3134  2.6184 -1.2526
  293SOL    HW2  879   2.462   1.625   0.896 -4.0142  3.3376  0.8027
  294SOL     OW  880   0.397   0.068   2.234  0.2582 -0.7197 -0.1474
  294SOL    HW1  881   0.357   3.077   2.283  1.0410  3.6704  1.3780
  294SOL    HW2  882   0.489   0.085   2.279  3.4440 -1.3721  1.0390
  295SOL     OW  883   0.887   1.426   0.531  0.5981  0.1923  0.2682
  295SOL    HW1  884   0.952   1.501   0.543 -1.8969 -0.2048  0.7216
  295SOL    HW2  885   0.860   1.409   0.432 -0.4797  1.1142 -1.1493
  296SOL     OW  886   2.185   1.508   0.948  0.4844  0.3709 -0.3403
  296SOL    HW1  887   2.130   1.431   0.918  0.0730  0.0180  3.8780
  296SOL    HW2  888   2.256   1.527   0.880 -2.3179  1.0369  0.0576
  297SOL     OW  889   1.809   0.534   2.794 -0.0437 -0.8390  0.0151
  297SOL    HW1  890   1.813   0.583   2.884  0.7107  1.5322 -0.2792
  297SOL    HW2  891   1.739   0.573   2.732  0.6603 -0.9377 -1.6234
  298SOL     OW  892   0.993   0.290   2.661  0.3257 -0.2148  0.3194
  298SOL    HW1  893   0.952   0.324   2.748  0.9088  2.4798  1.0173
  298SOL    HW2  894   1.078   0.342   2.638 -1.7195 -1.0761 -2.3845
  299SOL     OW  895   1.001   0.442   1.821  0.1267 -0.4464  0.2924
  299SOL    HW1  896   1.031   0.449   1.726  0.8027 -0.8373  1.6498
  299SOL    HW2  897   0.897   0.423   1.824  1.5163 -0.7064 -0.7099
  300SOL     OW  898   2.884   0.366   1.633  0.1262 -0.0847 -0.1980
  300SOL    HW1  899   2.877   0.393   1.534 -1.0799  0.2826 -3.1490
  300SOL    HW2  900   2.976   0.324   1.658  2.7557  0.5178  0.3682
  301SOL     OW  901   1.844   0.821   1.639 -0.3822 -0.4204  0.5851
  301SOL    HW1  902   1.753   0.850   1.589  0.4477 -1.0601 -3.5508
  301SOL    HW2  903   1.838   0.731   1.685  3.0007  0.8202 -1.3752
  302SOL     OW  904   0.770   2.886   2.978 -0.7050 -0.7884 -0.4324
  302SOL    HW1  905   0.778   2.922   3.076  1.0816  1.4350  2.8020
  302SOL    HW2  906   0.676   2.872   2.953  1.4479 -1.6250  2.5367
  303SOL     OW  907   2.064   1.846   1.818  0.4538  0.4766  0.1339
  303SOL    HW1  908   2.127   1.905   1.863 -0.2772 -1.8091 -1.5686
  303SOL    HW2  909   2.102   1.785   1.745 -0.1366  0.1708 -2.5777
  304SOL     OW  910   0.425   3.073   0.583  0.0455 -0.0632  0.0276
  304SOL    HW1  911   0.456   0.070   0.540 -0.4183  1.6613  0.2969
  304SOL    HW2  912   0.499   3.004   0.566  1.5541 -0.8325  0.0176
  305SOL     OW  913   1.157   0.942   0.381  0.0636  0.2587 -0.4432
  305SOL    HW1  914   1.239   0.998   0.379 -1.7960  0.9773  1.7842
  305SOL    HW2  915   1.179   0.843   0.414  1.7709 -1.0386 -0.5774
  306SOL     OW  916   0.546   1.338   0.181  0.3670  0.3094 -0.5095
  306SOL    HW1  917   0.599   1.251   0.199  0.5081 -1.3574 -2.8184
  306SOL    HW2  918   0.554   1.406   0.260 -0.5087  0.1658 -1.3264
  307SOL     OW  919   0.682   0.691   1.926  0.4048  0.7472 -0.0460
  307SOL    HW1  920   0.693   0.731   2.026  1.4406  0.2652 -0.2212
  307SOL    HW2  921   0.724   0.601   1.922  0.4697  2.1916  1.7887
  308SOL     OW  922   0.536   0.295   1.029  0.0369  0.3493 -0.0695
  308SOL    HW1  923   0.496   0.388   1.001  4.3399 -1.3509  1.2071
  308SOL    HW2  924   0.589   0.260   0.948 -1.5982 -0.8432 -0.0234
  309SOL     OW  925   2.305   1.202   0.177 -0.2093  0.1161 -0.1945
  309SOL    HW1  926   2.387   1.262   0.174  2.3980  2.0843 -3.5078
  309SOL    HW2  927   2.226   1.241   0.136  1.9613 -0.4327  1.7652
  310SOL     OW  928   1.280   1.521   3.002  0.3153  0.2731 -0.2753
  310SOL    HW1  929   1.274   1.601   2.937  2.0424  1.6291  2.3423
  310SOL    HW2  930   1.230   1.549   3.087  0.3054  1.6891  1.4010
  311SOL     OW  931   1.984   2.471   2.032 -0.0924  0.0951 -0.3714
  311SOL    HW1  932   2.017   2.373   2.046 -0.2115  0.5087  0.9948
  311SOL    HW2  933   1.893   2.489   2.078  0.4083 -0.2035 -2.0311
  312SOL     OW  934   2.248   3.056   3.046 -0.4657 -0.0553  0.0955
  312SOL    HW1  935   2.242   3.091   2.951 -1.2065 -1.8550 -0.8882
  312SOL    HW2  936   2.168   2.991   3.048  1.8388 -2.2058 -3.2242
  313SOL     OW  937   0.640   0.680   0.298  0.0703  0.1820 -0.2789
  313SOL    HW1  938   0.583   0.763   0.283 -2.6692 -2.7569  0.0307
  313SOL    HW2  939   0.740   0.702   0.315  1.0611  0.3750  3.5169
  314SOL     OW  940   2.763   1.507   3.050  0.1077 -0.2042  0.3364
  314SOL    HW1  941   2.729   1.476   2.961  1.6296  1.7534  1.1505
  314SOL    HW2  942   2.846   1.562   3.034 -3.1381  3.6342  0.0298
  315SOL     OW  943   1.687   0.814   2.047 -0.0016 -0.2597 -0.2405
  315SOL    HW1  944   1.705   0.727   1.992  1.6537  0.0935 -0.9645
  315SOL    HW2  945   1.730   0.804   2.139 -3.4603 -2.5467  0.1456
  316SOL     OW  946   0.010   0.715   0.683 -0.0626 -0.3801 -1.1642
  316SOL    HW1  947   0.109   0.731   0.675  0.1907 -0.7349 -1.3201
  316SOL    HW2  948   3.058   0.798   0.718 -0.8631 -2.2562 -2.8347
  317SOL     OW  949   0.683   0.115   0.235 -0.1155 -0.0943 -0.2097
  317SOL    HW1  950   0.605   0.154   0.188 -1.3104  0.3777  0.6096
  317SOL    HW2  951   0.657   0.026   0.276 -0.6292 -0.9036 -0.6666
  318SOL     OW  952   2.144   2.426   1.019 -0.1134 -0.0335 -0.4837
  318SOL    HW1  953   2.122   2.524   1.032 -0.7356 -3.9454 -0.7969
  318SOL    HW2  954   2.139   2.398   0.921 -1.3586 -0.8038 -1.3757
  319SOL     OW  955   1.092   1.598   0.542 -0.4936  0.4662 -0.1101
  319SOL    HW1  956   1.165   1.646   0.491 -0.9713 -1.3147  3.7602
  319SOL    HW2  957   1.094   1.637   0.638  2.5232 -0.1158  1.7340
  320SOL     OW  958   0.648   2.220   1.054  0.2460  0.5794 -0.4013
  320SOL    HW1  959   0.562   2.175   1.018  1.5952 -2.3893 -0.0322
  320SOL    HW2  960   0.658   2.195   1.151 -0.3943 -0.9545  1.8187
  321SOL     OW  961   2.460   2.521   1.979 -0.0732  0.2490  0.2902
  321SOL    HW1  962   2.388   2.454   2.008  1.5248  0.2405  0.0504
  321SOL    HW2  963   2.422   2.615   1.974 -0.9823 -2.0959 -0.4278
  322SOL     OW  964   2.716   2.294   2.619 -0.0234  0.0509  0.2997
  322SOL    HW1  965   2.733   2.293   2.519 -0.9032  0.6230 -0.5754
  322SOL    HW2  966   2.688   2.390   2.642 -0.4704  0.0127  2.2508
  323SOL     OW  967   2.662   0.722   0.696 -0.6136  0.5574 -0.2779
  323SOL    HW1  968   2.635   0.716   0.594  0.1383 -0.6116  0.6153
  323SOL    HW2  969   2.605   0.654   0.755 -1.5269 -0.4206 -0.3189
  324SOL     OW  970   2.255   2.287   2.347  0.0660  0.2908  0.3550
  324SOL    HW1  971   2.251   2.378   2.390  2.2537 -0.6948  0.0774
  324SOL    HW2  972   2.250   2.218   2.421  2.2729 -0.6876  1.7650
  325SOL     OW  973   1.197   0.548   2.480  0.4956  0.7282  0.4270
  325SOL    HW1  974   1.138   0.616   2.438 -0.4430 -3.4903  1.2733
  325SOL    HW2  975   1.199   0.562   2.578 -2.3866  0.6268 -0.5010
  326SOL     OW  976   2.764   2.485   0.825  0.2396 -0.2093 -0.0617
  326SOL    HW1  977   2.697   2.564   0.828  0.9120  1.1479 -1.5090
  326SOL    HW2  978   2.860   2.522   0.839  0.7828 -1.4939  1.5421
  327SOL     OW  979   2.639   3.023   0.117 -0.3403 -0.3592 -0.0692
  327SOL    HW1  980   2.544   3.053   0.150 -1.7414  0.5726  1.1966
  327SOL    HW2  981   2.654   3.056   0.022 -1.7317  0.7493  0.2541
  328SOL     OW  982   1.198   0.623   0.772  0.7510  0.6455 -0.5394
  328SOL    HW1  983   1.265   0.569   0.825 -0.4552  0.2177  2.5753
  328SOL    HW2  984   1.234   0.712   0.758 -0.9484 -3.5741 -1.7456
  329SOL     OW  985   2.173   0.659   1.514  0.1382 -0.7702 -0.0400
  329SOL    HW1  986   2.246   0.730   1.487  0.0470  1.0279 -1.8517
  329SOL    HW2  987   2.172   0.646   1.615  2.0077  1.0005  1.7075
  330SOL     OW  988   1.220   0.438   0.555 -0.9258  0.0008 -0.1819
  330SOL    HW1  989   1.210   0.489   0.468 -0.5386 -2.5012 -1.1292
  330SOL    HW2  990   1.180   0.489   0.633 -0.2513  1.4319  0.6435
  331SOL     OW  991   0.767   1.701   1.470  0.3042  0.6311  0.0857
  331SOL    HW1  992   0.809   1.796   1.478 -2.0981  3.5605 -4.2604
  331SOL    HW2  993   0.741   1.658   1.559  0.0361 -0.7769  3.7345
  332SOL     OW  994   2.196   2.135   1.815  0.1060 -0.5467  0.6541
  332SOL    HW1  995   2.207   2.198   1.899  0.0682  0.7684  5.9664
  332SOL    HW2  996   2.248   2.172   1.732 -0.4268  0.2331 -1.5654
  333SOL     OW  997   2.952   0.004   0.905  0.2924  0.2379 -0.0468
  333SOL    HW1  998   2.922   0.001   1.003  1.1304  0.0283  0.5611
  333SOL    HW2  999   2.899   3.034   0.843 -0.4168 -1.4129 -2.5606
  334SOL     OW 1000   0.138   1.668   0.686  0.1592 -0.1031  0.3895
  334SOL    HW1 1001   0.172   1.673   0.785  1.0197 -1.2127 -0.4007
  334SOL    HW2 1002   0.155   1.763   0.647 -0.2466  0.0633  0.1327
  335SOL     OW 1003   0.706   2.709   2.650  0.3361  0.3394 -0.3713
  335SOL    HW1 1004   0.650   2.690   2.737 -2.4301 -1.4372  1.5969
  335SOL    HW2 1005   0.760   2.796   2.665 -1.3102 -0.3549  0.8799
  336SOL     OW 1006   0.173   2.513   1.845  0.0197  0.0378  0.0943
  336SOL    HW1 1007   0.176   2.489   1.749  2.7800 -1.4270  0.6917
  336SOL    HW2 1008   0.125   2.601   1.866  2.5973 -0.2291 -0.7964
  337SOL     OW 1009   0.933   1.938   2.105 -0.1194 -0.6709  0.8298
  337SOL    HW1 1010   0.910   1.842   2.115 -0.4430 -0.2203 -1.5995
  337SOL    HW2 1011   1.030   1.959   2.140  0.1873  0.4546  1.6428
  338SOL     OW 1012   1.025   0.041   2.547 -0.1323 -0.0594  0.4918
  338SOL    HW1 1013   1.058   0.055   2.452 -0.3996 -2.4035  1.1773
  338SOL    HW2 1014   1.029   0.129   2.594  0.7674 -2.3943 -1.2151
  339SOL     OW 1015   0.114   1.189   2.857  0.0765  0.0656 -0.3103
  339SOL    HW1 1016   0.088   1.150   2.765 -1.6386 -0.9569 -2.2218
  339SOL    HW2 1017   0.094   1.289   2.856 -0.9113 -4.4954 -0.5611
  340SOL     OW 1018   2.192   0.432   1.376 -0.7216  0.2819  0.0013
  340SOL    HW1 1019   2.177   0.520   1.427  0.9389  1.0250 -1.7285
  340SOL    HW2 1020   2.284   0.398   1.396  1.6762  0.7797  0.0166
  341SOL     OW 1021   1.797   1.039   0.896 -0.5558  0.1100  0.1090
  341SOL    HW1 1022   1.770   0.999   0.802 -3.3063 -0.0932 -1.0832
  341SOL    HW2 1023   1.901   1.027   0.906  0.0115  1.6164  2.2884
  342SOL     OW 1024   2.191   2.708   2.801  0.4302  0.6604  0.0344
  342SOL    HW1 1025   2.146   2.666   2.877  2.5818  2.3496 -3.9953
  342SOL    HW2 1026   2.122   2.743   2.736 -0.6000 -2.6964 -1.6101
  343SOL     OW 1027   2.922   2.766   0.990  0.1139  0.2584  0.6387
  343SOL    HW1 1028   2.982   2.755   1.074  0.0228  3.0513 -1.1171
  343SOL    HW2 1029   2.829   2.742   1.023  1.3957 -0.7597  0.2291
  344SOL     OW 1030   2.395   3.041   0.976  0.2072 -0.1406  0.0290
  344SOL    HW1 1031   2.369   0.040   0.979  1.8707 -4.2213  0.2480
  344SOL    HW2 1032   2.359   2.998   0.892 -0.7879 -1.9618 -0.1806
  345SOL     OW 1033   2.572   2.354   0.134  0.0700  0.2301  0.1648
  345SOL    HW1 1034   2.596   2.367   0.038  3.5951 -1.1444  1.2319
  345SOL    HW2 1035   2.571   2.436   0.194 -1.1928 -0.4296 -1.4627
  346SOL     OW 1036   1.212   1.991   1.673 -0.1569  0.5067  0.3346
  346SOL    HW1 1037   1.227   2.089   1.659  0.3758  0.2926  0.9411
  346SOL    HW2 1038   1.228   1.952   1.581 -0.3463  3.8524  3.0966
  347SOL     OW 1039   1.305   1.913   1.912 -0.4168  0.1686  0.4535
  347SOL    HW1 1040   1.294   1.822   1.954 -1.4371 -0.7158  0.2685
  347SOL    HW2 1041   1.260   1.922   1.819  1.3714 -0.2379 -0.3680
  348SOL     OW 1042   0.808   1.542   1.262 -0.3405 -0.1527 -0.1038
  348SOL    HW1 1043   0.744   1.590   1.198  0.8543  0.8933 -1.1690
  348SOL    HW2 1044   0.817   1.586   1.353  0.7702 -2.3240 -1.7187
  349SOL     OW 1045   1.650   1.421   1.475 -0.0393 -0.1780  0.0529
  349SOL    HW1 1046   1.712   1.489   1.513 -2.1595 -0.4376 -1.2888
  349SOL    HW2 1047   1.556   1.453   1.481 -0.0700 -0.3601 -0.5508
  350SOL     OW 1048   2.398   2.322   0.654 -0.7267  0.3230  0.1188
  350SOL    HW1 1049   2.373   2.259   0.576  1.5567 -0.1378 -2.9754
  350SOL    HW2 1050   2.359   2.410   0.629 -1.0800 -2.5121 -1.2024
  351SOL     OW 1051   0.322   0.043   1.865  0.0743  0.0477  0.4282
  351SOL    HW1 1052   0.298   0.021   1.771 -0.4085  1.2759 -0.0020
  351SOL    HW2 1053   0.252   0.010   1.933 -2.9234 -0.2932  0.6064
  352SOL     OW 1054   0.869   0.953   0.073  0.4722 -0.4934 -0.3194
  352SOL    HW1 1055   0.872   0.911   0.167  1.1243 -1.2998  0.6546
  352SOL    HW2 1056   0.770   0.930   0.044 -2.2439 -3.3946 -1.3482
  353SOL     OW 1057   0.927   1.620   2.840  0.0764  0.4066  0.4303
  353SOL    HW1 1058   0.985   1.703   2.847 -0.0062 -1.7819  0.8517
  353SOL    HW2 1059   0.863   1.643   2.767  0.1895 -1.4123 -0.2748
  354SOL     OW 1060   1.666   2.618   1.848 -0.2092 -0.3708  0.7753
  354SOL    HW1 1061   1.695   2.573   1.937  0.2104  0.3681 -1.2259
  354SOL    HW2 1062   1.727   2.592   1.773 -0.2402 -0.9373 -0.8306
  355SOL     OW 1063   2.166   1.043   3.031 -0.4537 -0.0210 -0.1966
  355SOL    HW1 1064   2.142   1.082   2.938  1.4415 -0.7902  0.8534
  355SOL    HW2 1065   2.179   1.114   0.007 -0.9505  0.9397  0.5787
  356SOL     OW 1066   0.312   2.153   1.311 -0.2027 -0.0707  0.2566
  356SOL    HW1 1067   0.369   2.067   1.291  1.1308 -1.5249  0.6087
  356SOL    HW2 1068   0.239   2.171   1.242  0.1179 -0.1935  0.9295
  357SOL     OW 1069   0.018   2.803   1.630 -0.0381  0.2793 -0.6167
  357SOL    HW1 1070   3.014   2.763   1.633 -1.2563  1.4411 -0.5454
  357SOL    HW2 1071   0.014   2.907   1.653 -3.1088  0.3719  0.9110
  358SOL     OW 1072   2.417   1.851   1.390 -0.0165 -0.1474  0.1723
  358SOL    HW1 1073   2.329   1.889   1.366  1.6458 -2.3368  1.2097
  358SOL    HW2 1074   2.436   1.764   1.347 -2.3190 -0.3502  1.5134
  359SOL     OW 1075   1.999   2.529   2.360 -0.2245 -0.2495  0.0786
  359SOL    HW1 1076   1.908   2.575   2.342 -2.4518 -1.0790 -1.1590
  359SOL    HW2 1077   1.984   2.451   2.422 -1.7921 -0.2777  0.6094
  360SOL     OW 1078   1.386   2.625   0.762  0.3318  0.3732 -0.1066
  360SOL    HW1 1079   1.289   2.606   0.734 -2.8638 -0.7879  1.1549
  360SOL    HW2 1080   1.398   2.714   0.816  0.2655  0.2328 -1.3314
  361SOL     OW 1081   1.755   0.213   0.658  0.3330  0.3907 -0.8850
  361SOL    HW1 1082   1.699   0.224   0.572 -0.4029  1.7006 -4.0021
  361SOL    HW2 1083   1.742   0.116   0.691 -1.1589  0.2108 -0.4641
  362SOL     OW 1084   1.644   0.886   1.468 -0.3269  0.1494 -0.2285
  362SOL    HW1 1085   1.702   0.936   1.399  0.0383  1.3528 -1.6840
  362SOL    HW2 1086   1.544   0.904   1.464 -1.3218 -3.6554 -1.0116
  363SOL     OW 1087   1.896   1.570   2.105 -0.1666  0.2056  0.1086
  363SOL    HW1 1088   1.820   1.524   2.155 -2.6244 -2.6255 -0.9808
  363SOL    HW2 1089   1.979   1.511   2.100 -1.9090  2.3722 -1.0271
  364SOL     OW 1090   0.699   0.568   1.366  0.1070  0.5353  0.3176
  364SOL    HW1 1091   0.766   0.541   1.294  0.1793 -1.1358 -0.9853
  364SOL    HW2 1092   0.692   0.668   1.376  1.0030  0.6610 -2.0354
  365SOL     OW 1093   0.362   0.390   2.409  0.3134 -0.3803  0.4153
  365SOL    HW1 1094   0.331   0.343   2.323 -1.0045 -1.6480 -1.3034
  365SOL    HW2 1095   0.312   0.360   2.490  1.5927 -1.7844  1.4689
  366SOL     OW 1096   2.140   1.738   2.933  0.0912  0.1740 -0.2930
  366SOL    HW1 1097   2.171   1.716   3.029  2.0229 -2.0922  1.2938
  366SOL    HW2 1098   2.057   1.794   2.938  1.2052 -1.2125 -0.7216
  367SOL     OW 1099   2.973   2.466   2.811  0.1134 -0.2235 -0.2858
  367SOL    HW1 1100   2.915   2.548   2.850  0.3733  0.8430 -0.9808
  367SOL    HW2 1101   2.973   2.479   2.710  1.7516  2.5003  1.6061
  368SOL     OW 1102   0.005   1.172   1.104 -0.6708  0.2175 -0.5535
  368SOL    HW1 1103   3.028   1.130   1.161 -0.6348 -1.0181 -2.4407
  368SOL    HW2 1104   0.033   1.268   1.129  4.7570  3.5883 -1.6246
  369SOL     OW 1105   0.599   2.885   2.429  0.0949  0.1261  0.1298
  369SOL    HW1 1106   0.698   2.874   2.439  1.3274 -2.1630 -0.6417
  369SOL    HW2 1107   0.557   2.887   2.524  2.1405 -1.1327  0.3987
  370SOL     OW 1108   2.836   0.274   0.777  0.0027 -0.4516 -0.0933
  370SOL    HW1 1109   2.821   0.290   0.677 -1.6187 -2.3356  3.5150
  370SOL    HW2 1110   2.782   0.340   0.831 -2.0407 -0.3112 -0.5722
  371SOL     OW 1111   0.989   2.290   1.539 -0.4128 -0.2998 -0.3169
  371SOL    HW1 1112   1.087   2.272   1.550  2.6942  0.3654  0.2294
  371SOL    HW2 1113   0.929   2.259   1.617  1.0944 -0.1774 -0.0169
  372SOL     OW 1114   2.860   0.327   2.426 -0.6225 -0.3520 -0.1059
  372SOL    HW1 1115   2.812   0.239   2.457  0.3449 -1.2207  1.5127
  372SOL    HW2 1116   2.847   0.402   2.493  1.8660 -0.0582  1.7575
  373SOL     OW 1117   0.178   2.149   0.679  0.3146 -0.2029  0.1087
  373SOL    HW1 1118   0.241   2.222   0.661 -0.9270 -3.4744  1.9338
  373SOL    HW2 1119   0.101   2.182   0.741  0.8021 -3.5958  1.3959
  374SOL     OW 1120   0.277   3.018   2.576 -0.7412 -0.0252  0.0650
  374SOL    HW1 1121   0.305   0.020   2.589  0.7558 -2.8727 -0.7793
  374SOL    HW2 1122   0.303   2.986   2.479 -0.3409  0.2728  0.1577
  375SOL     OW 1123   0.558   0.564   2.562 -0.0239 -0.1646 -0.2130
  375SOL    HW1 1124   0.486   0.505   2.520  1.0397  0.2784  2.2278
  375SOL    HW2 1125   0.574   0.539   2.658 -0.1370 -0.5507 -1.5239
  376SOL     OW 1126   2.849   2.291   1.948  0.9556  0.1910 -0.5613
  376SOL    HW1 1127   2.843   2.385   1.983  0.8986 -1.3206 -1.4006
  376SOL    HW2 1128   2.945   2.264   1.928 -0.8202  0.6480 -0.5689
  377SOL     OW 1129   1.323   0.080   2.901  0.0026  0.4227 -0.2965
  377SOL    HW1 1130   1.316   3.082   2.952  1.7329 -1.1192  2.3916
  377SOL    HW2 1131   1.312   0.068   2.804  0.4847 -1.9339  2.7091
  378SOL     OW 1132   2.893   0.716   2.618 -0.3974  0.2319  0.3071
  378SOL    HW1 1133   2.808   0.700   2.568  0.2097  1.7252 -2.5621
  378SOL    HW2 1134   2.940   0.628   2.640 -0.9057 -0.1615  0.4418
  379SOL     OW 1135   1.135   0.795   0.106  0.3758  0.2922  0.6497
  379SOL    HW1 1136   1.044   0.839   0.120  1.5172 -0.9031  0.2798
  379SOL    HW2 1137   1.156   0.746   0.194  0.6500 -1.0990 -1.9810
  380SOL     OW 1138   0.061   1.601   1.805 -0.4586  0.4047  0.0425
  380SOL    HW1 1139   0.001   1.681   1.779 -0.4566  0.0877 -0.4398
  380SOL    HW2 1140   0.158   1.622   1.770  2.2302  1.6721 -0.7941
  381SOL     OW 1141   3.081   1.151   2.634 -0.4870  0.2430 -0.3817
  381SOL    HW1 1142   0.020   1.175   2.541 -2.2825  0.9002  1.6762
  381SOL    HW2 1143   3.044   1.230   2.683 -1.3003  0.2609 -1.0108
  382SOL     OW 1144   2.293   2.138   0.474 -0.1695 -0.0368 -0.3570
  382SOL    HW1 1145   2.322   2.129   0.375  0.1174  0.9919 -0.7856
  382SOL    HW2 1146   2.319   2.054   0.523 -0.7000  2.1863 -1.0289
  383SOL     OW 1147   0.734   1.929   0.297 -0.1373  0.4474 -0.4098
  383SOL    HW1 1148   0.835   1.935   0.302 -0.3088 -0.1134 -1.4693
  383SOL    HW2 1149   0.700   1.852   0.243  2.2165  1.9058  0.8366
  384SOL     OW 1150   0.736   2.079   2.453  0.2422  0.0068 -0.4556
  384SOL    HW1 1151   0.803   2.008   2.485  1.5348 -1.4893  1.0019
  384SOL    HW2 1152   0.670   2.033   2.390  1.2685  1.9483 -0.3503
  385SOL     OW 1153   2.403   1.921   0.597  0.3653  0.5862 -0.3872
  385SOL    HW1 1154   2.493   1.887   0.576 -3.1350  1.3110 -0.7756
  385SOL    HW2 1155   2.389   1.924   0.700  1.3614 -1.3003  2.0480
  386SOL     OW 1156   2.363   0.823   1.378  0.1932 -0.2069 -0.5021
  386SOL    HW1 1157   2.388   0.810   1.280 -0.9007  2.6205 -1.3098
  386SOL    HW2 1158   2.333   0.921   1.387 -0.3362  1.9794 -0.8661
  387SOL     OW 1159   2.966   0.973   1.980  0.4711 -0.7418 -0.3206
  387SOL    HW1 1160   3.048   1.010   2.030 -0.8240 -0.5578  0.1288
  387SOL    HW2 1161   2.933   1.040   1.908 -0.6136  1.0888  1.7733
  388SOL     OW 1162   0.499   1.703   2.124  0.1154  0.2794 -0.0260
  388SOL    HW1 1163   0.489   1.800   2.087 -2.1577 -1.0490  0.3537
  388SOL    HW2 1164   0.433   1.646   2.071 -2.3954 -2.3819 -0.5230
  389SOL     OW 1165   0.626   1.057   1.999 -0.0220 -0.1449  0.2456
  389SOL    HW1 1166   0.655   1.021   2.089 -1.0580  1.9041 -1.8325
  389SOL    HW2 1167   0.682   1.019   1.920  1.1602 -0.9857 -1.0041
  390SOL     OW 1168   2.698   2.990   0.721  0.4702 -0.8898 -0.5633
  390SOL    HW1 1169   2.660   3.074   0.765  0.6508  0.3237 -0.4046
  390SOL    HW2 1170   2.640   2.954   0.643  2.2118 -1.4063  0.1104
  391SOL     OW 1171   1.785   1.585   1.264 -0.3863 -0.3731  0.3831
  391SOL    HW1 1172   1.738   1.496   1.279 -0.7808 -4.7849  0.3178
  391SOL    HW2 1173   1.760   1.623   1.175 -3.4865 -1.4769  0.7644
  392SOL     OW 1174   2.873   2.674   2.935  0.4136  0.5831 -0.4567
  392SOL    HW1 1175   2.865   2.773   2.909  2.9779 -2.7548  2.5015
  392SOL    HW2 1176   2.911   2.666   3.033 -0.5412 -0.5474  3.0813
  393SOL     OW 1177   1.739   2.470   2.584  0.4975  0.6771 -0.1257
  393SOL    HW1 1178   1.795   2.505   2.664  2.0433  2.0225  1.3939
  393SOL    HW2 1179   1.756   2.528   2.502  0.3766  0.3218  1.8833
  394SOL     OW 1180   3.037   2.499   2.542  0.2217 -0.2382 -0.3558
  394SOL    HW1 1181   0.028   2.454   2.576 -1.6635  1.7082 -1.1362
  394SOL    HW2 1182   2.965   2.443   2.499 -0.2147 -4.0749  1.9439
  395SOL     OW 1183   0.026   0.272   0.698  0.1159 -0.0154  0.1013
  395SOL    HW1 1184   3.018   0.291   0.719  0.7812  3.1643  0.3931
  395SOL    HW2 1185   0.064   0.197   0.752  2.4647 -1.7810 -1.6976
  396SOL     OW 1186   2.099   0.395   0.594  0.2990 -0.0436 -0.2770
  396SOL    HW1 1187   2.065   0.470   0.527 -3.3605  2.4016 -0.1359
  396SOL    HW2 1188   2.056   0.306   0.569  0.1881  0.0543  0.4217
  397SOL     OW 1189   0.116   0.687   2.314  0.6643  0.1044 -0.7893
  397SOL    HW1 1190   0.210   0.672   2.272  0.6180  0.4487  1.2504
  397SOL    HW2 1191   0.073   0.595   2.338 -0.3916 -1.0970  1.3198
  398SOL     OW 1192   0.846   2.964   0.125  0.5185  0.0251  0.4242
  398SOL    HW1 1193   0.903   3.049   0.116  0.7116  0.3930 -0.1062
  398SOL    HW2 1194   0.770   2.970   0.192  1.1156  1.2625 -3.4123
  399SOL     OW 1195   2.047   0.519   2.177 -0.3991  0.0289 -0.0647
  399SOL    HW1 1196   2.056   0.613   2.139 -1.1988  0.3304 -1.8066
  399SOL    HW2 1197   1.953   0.489   2.189  1.2365 -1.5564  1.2321
  400SOL     OW 1198   0.987   1.938   2.567  0.1131 -0.5261  0.1879
  400SOL    HW1 1199   1.078   1.927   2.521  0.4151 -3.4073 -1.8738
  400SOL    HW2 1200   0.991   2.011   2.637 -0.0201 -1.5372  1.6140
  401SOL     OW 1201   0.307   1.247   2.574 -0.2668 -0.1220 -0.4575
  401SOL    HW1 1202   0.282   1.307   2.654  1.0887 -0.1769  1.1902
  401SOL    HW2 1203   0.335   1.155   2.611 -1.4049 -1.9371  2.5809
  402SOL     OW 1204   0.269   2.914   0.401 -0.7077  0.1666 -0.3457
  402SOL    HW1 1205   0.307   2.822   0.411  1.4247  0.1513 -0.2403
  402SOL    HW2 1206   0.312   2.981   0.467 -1.0756  3.8396  0.7457
  403SOL     OW 1207   0.573   0.989   1.639 -0.4949 -0.4001  0.4699
  403SOL    HW1 1208   0.654   0.977   1.699  0.0875  1.1332 -1.0949
  403SOL    HW2 1209   0.491   0.938   1.676 -1.0778  1.9931 -1.1540
  404SOL     OW 1210   2.605   2.502   2.222  0.5774 -0.1843 -0.2051
  404SOL    HW1 1211   2.613   2.591   2.274  2.7809  0.3736 -0.9090
  404SOL    HW2 1212   2.548   2.509   2.140  1.0893 -0.5024 -0.7648
  405SOL     OW 1213   0.031   0.234   1.728  0.9935  0.1017 -0.0191
  405SOL    HW1 1214   0.037   0.309   1.798 -0.9117  0.3779  0.0283
  405SOL    HW2 1215   0.095   0.248   1.652  2.0333  0.0796  4.1233
  406SOL     OW 1216   1.189   1.480   2.684  0.3776 -0.7819 -0.0703
  406SOL    HW1 1217   1.105   1.509   2.738  0.8084  0.3549  1.5665
  406SOL    HW2 1218   1.271   1.538   2.708 -0.5085 -0.1504  0.3843
  407SOL     OW 1219   1.858   0.928   2.839  0.5766  0.0475 -0.0328
  407SOL    HW1 1220   1.932   0.892   2.786  2.4883  0.8144 -0.5232
  407SOL    HW2 1221   1.866   1.030   2.865  1.3361  1.4964 -0.8476
  408SOL     OW 1222   0.317   2.681   2.344 -0.2646  0.6146  0.7205
  408SOL    HW1 1223   0.359   2.651   2.429 -1.1186  0.0346 -1.6144
  408SOL    HW2 1224   0.235   2.628   2.319 -0.2135  0.5911 -0.5380
  409SOL     OW 1225   0.113   2.338   1.225  0.0646  0.1956 -0.0372
  409SOL    HW1 1226   0.019   2.369   1.253 -2.8085  0.2400  0.1274
  409SOL    HW2 1227   0.158   2.414   1.178 -1.8509 -1.3090  1.0406
  410SOL     OW 1228   2.825   1.685   0.422  0.1522 -0.4098  0.4069
  410SOL    HW1 1229   2.844   1.748   0.348 -2.3455 -2.0438  2.1406
  410SOL    HW2 1230   2.867   1.593   0.399  1.1065 -2.2319 -1.2173
  411SOL     OW 1231   2.835   0.025   1.144 -0.1185 -0.0234 -0.5358
  411SOL    HW1 1232   2.850   3.062   1.229 -0.5942  0.9122  3.9405
  411SOL    HW2 1233   2.747   0.073   1.151 -0.2043  0.7971 -0.8762
  412SOL     OW 1234   2.012   0.255   1.815  0.3523  0.6269  0.5517
  412SOL    HW1 1235   2.064   0.176   1.781  2.5012 -1.4006 -1.2422
  412SOL    HW2 1236   1.941   0.277   1.741 -1.2685 -1.4329  0.8273
  413SOL     OW 1237   0.074   0.408   1.966  0.2063 -0.1512  0.3470
  413SOL    HW1 1238   0.147   0.401   2.033  2.5034  5.0242 -1.2907
  413SOL    HW2 1239   0.000   0.464   2.005 -1.9118  0.4704 -0.1849
  414SOL     OW 1240   2.927   1.150   2.982  0.1402  0.3040  0.4926
  414SOL    HW1 1241   2.908   1.079   3.057  1.3957 -3.3527  2.0273
  414SOL    HW2 1242   2.867   1.142   2.902 -0.2982  0.6879  2.1835
  415SOL     OW 1243   0.994   2.545   3.085 -0.4797 -0.3144  0.3645
  415SOL    HW1 1244   1.058   2.468   0.006  0.9336  0.0966  1.8212
  415SOL    HW2 1245   1.021   2.626   0.054  2.9036  1.8246  2.2705
  416SOL     OW 1246   1.393   2.943   2.486  0.1465  0.0396  0.1129
  416SOL    HW1 1247   1.321   2.909   2.419  1.6302 -2.1806 -0.3193
  416SOL    HW2 1248   1.482   2.944   2.438 -0.9675  0.4765 -0.8262
  417SOL     OW 1249   0.175   0.733   1.069  0.7700  0.1962  0.3695
  417SOL    HW1 1250   0.266   0.686   1.096 -2.2889 -0.4887  0.6923
  417SOL    HW2 1251   0.110   0.664   1.031  0.9545 -0.5128 -0.8789
  418SOL     OW 1252   2.614   0.122   0.838 -0.6301  0.0226  0.4987
  418SOL    HW1 1253   2.584   0.115   0.937  0.3525 -0.0135 -1.8812
  418SOL    HW2 1254   2.708   0.170   0.827  3.4211  2.6477 -1.1941
  419SOL     OW 1255   0.293   2.963   0.116  0.0651  0.7612 -0.2739
  419SOL    HW1 1256   0.338   3.052   0.100  0.0616 -0.2887 -0.5026
  419SOL    HW2 1257   0.276   2.952   0.214 -1.8118 -3.8864  0.1430
  420SOL     OW 1258   0.341   0.865   1.658 -0.0001 -0.4015  0.3468
  420SOL    HW1 1259   0.342   0.840   1.559 -1.1522 -1.3239  0.8329
  420SOL    HW2 1260   0.261   0.927   1.668 -3.9166  0.3039 -4.1721
  421SOL     OW 1261   1.819   2.387   0.930  0.0864  0.2225  0.5504
  421SOL    HW1 1262   1.812   2.422   1.024 -0.4918 -0.0816 -2.1145
  421SOL    HW2 1263   1.771   2.452   0.869 -1.3711  0.2682  1.0711
  422SOL     OW 1264   0.301   0.470   1.300  0.1006  0.3103 -0.2376
  422SOL    HW1 1265   0.274   0.390   1.246 -2.0538  0.9971 -0.1603
  422SOL    HW2 1266   0.370   0.522   1.248 -0.2455 -0.6419  0.4417
  423SOL     OW 1267   0.820   1.412   2.003  0.0731 -0.4500  0.0100
  423SOL    HW1 1268   0.824   1.388   1.907  0.1101  0.3344  0.1210
  423SOL    HW2 1269   0.834   1.510   2.024  0.6526  2.0708 -0.3324
  424SOL     OW 1270   1.856   2.184   0.404  0.3248  0.3027 -0.5380
  424SOL    HW1 1271   1.846   2.216   0.304  0.2440  0.9839  2.8282
  424SOL    HW2 1272   1.925   2.112   0.422 -2.9294 -0.6772  1.7276
  425SOL     OW 1273   2.713   3.034   1.979  0.5457 -0.3593  0.1181
  425SOL    HW1 1274   2.783   0.014   2.001 -0.0508  1.0617 -1.8448
  425SOL    HW2 1275   2.753   2.941   1.998 -0.1757  0.7209  0.3764
  426SOL     OW 1276   0.014   2.777   2.582  0.1418  0.3626 -0.4724
  426SOL    HW1 1277   0.088   2.783   2.654  0.2725 -0.5385  1.0566
  426SOL    HW2 1278   3.089   2.682   2.563 -0.1206 -2.0059 -0.4607
  427SOL     OW 1279   0.996   0.005   0.440  0.0727  0.0004 -0.4922
  427SOL    HW1 1280   0.936   0.065   0.384  0.5698 -0.4112  0.3085
  427SOL    HW2 1281   0.982   0.023   0.539 -0.4070  1.0826 -1.0154
  428SOL     OW 1282   2.867   0.455   1.350  0.2996  0.1727 -0.3219
  428SOL    HW1 1283   2.910   0.374   1.312 -4.2887  1.2896 -0.3121
  428SOL    HW2 1284   2.780   0.475   1.304 -0.3746  0.8225 -0.9784
  429SOL     OW 1285   1.942   2.959   1.004 -0.3478  0.1911 -0.1727
  429SOL    HW1 1286   1.851   2.922   1.028 -0.5098  1.6315 -2.2128
  429SOL    HW2 1287   2.023   2.933   1.060  1.4746  0.3837 -0.1899
  430SOL     OW 1288   0.737   1.661   2.311  0.1142  0.7148  0.4574
  430SOL    HW1 1289   0.736   1.699   2.406 -3.9356  0.6310  1.3579
  430SOL    HW2 1290   0.646   1.668   2.265 -0.8402 -2.7897  2.0807
  431SOL     OW 1291   0.158   1.838   1.100 -0.2025 -0.4631 -0.5131
  431SOL    HW1 1292   0.192   1.831   1.199  0.3746  1.5692  1.5582
  431SOL    HW2 1293   0.141   1.937   1.081  1.1943  0.4588 -1.5219
  432SOL     OW 1294   1.447   2.610   2.366  0.4931 -0.1380 -0.1652
  432SOL    HW1 1295   1.451   2.631   2.269  1.7651 -0.3816  0.7326
  432SOL    HW2 1296   1.355   2.641   2.398 -3.1237  0.0432 -0.6550
  433SOL     OW 1297   1.264   0.264   2.431  0.4668  0.1925  0.1612
  433SOL    HW1 1298   1.197   0.205   2.380 -1.1208  0.7041  0.6723
  433SOL    HW2 1299   1.237   0.367   2.421 -2.0133  3.9444  2.2903
  434SOL     OW 1300   0.583   2.414   2.119  0.0489 -0.6947  0.0381
  434SOL    HW1 1301   0.651   2.406   2.042  1.1264  2.1903  0.1181
  434SOL    HW2 1302   0.499   2.452   2.081  3.4478  1.1466 -0.7622
  435SOL     OW 1303   0.391   0.144   0.137  0.0741 -0.1303 -0.1206
  435SOL    HW1 1304   0.340   0.182   0.218 -0.9259 -0.9036 -0.5680
  435SOL    HW2 1305   0.334   0.161   0.054  1.4667  1.3357  1.0837
  436SOL     OW 1306   0.537   1.257   2.404 -0.1527 -0.2021 -0.7045
  436SOL    HW1 1307   0.445   1.270   2.454 -2.7260  0.8392 -4.0465
  436SOL    HW2 1308   0.589   1.179   2.447 -0.5262 -0.1183  3.0623
  437SOL     OW 1309   0.818   2.317   2.678 -0.1109  0.3689 -0.4029
  437SOL    HW1 1310   0.847   2.373   2.595  0.9322 -0.2497 -0.6201
  437SOL    HW2 1311   0.738   2.255   2.664 -0.9758  1.4673  0.2674
  438SOL     OW 1312   0.881   1.024   0.651  0.0987  0.1443  0.0791
  438SOL    HW1 1313   0.899   1.077   0.737  0.5633  1.2282  1.7421
  438SOL    HW2 1314   0.949   1.055   0.582  0.9820  1.3716 -1.0789
  439SOL     OW 1315   2.771   1.312   2.429  0.2644  0.1306  0.1216
  439SOL    HW1 1316   2.770   1.245   2.352 -0.8030  0.7230  1.2406
  439SOL    HW2 1317   2.842   1.381   2.422 -2.2664 -0.3040 -0.6110
  440SOL     OW 1318   2.698   0.772   2.887  0.0560 -0.0326 -0.5726
  440SOL    HW1 1319   2.698   0.705   2.806 -0.6238 -2.2802  0.6386
  440SOL    HW2 1320   2.759   0.740   2.960  0.8306 -1.2367  1.1903
  441SOL     OW 1321   0.862   1.979   1.425 -0.2528  0.0062  0.2031
  441SOL    HW1 1322   0.791   2.051   1.428 -1.4195  1.5587 -0.6401
  441SOL    HW2 1323   0.905   1.954   1.514 -0.4894  1.0548 -1.6341
  442SOL     OW 1324   2.003   1.345   0.816 -0.1898  0.0986 -0.0198
  442SOL    HW1 1325   1.927   1.279   0.813 -0.1357  0.9766 -0.9986
  442SOL    HW2 1326   1.988   1.414   0.741 -0.8957  1.0186 -0.1489
  443SOL     OW 1327   2.302   2.188   2.949  0.1494  0.0702 -0.1652
  443SOL    HW1 1328   2.375   2.199   2.878  1.0503  0.3297 -0.0703
  443SOL    HW2 1329   2.294   2.268   3.012 -1.4425 -0.3642 -0.4418
  444SOL     OW 1330   1.940   1.533   2.798 -0.0306  0.5759  0.0020
  444SOL    HW1 1331   1.984   1.470   2.730 -1.0800  0.6151  0.0318
  444SOL    HW2 1332   1.930   1.625   2.762  0.0238 -1.5743 -1.0009
  445SOL     OW 1333   0.227   2.225   2.390 -0.3630 -0.1521  0.0826
  445SOL    HW1 1334   0.197   2.263   2.479  1.4291  0.1533 -1.2037
  445SOL    HW2 1335   0.319   2.263   2.369  0.6687  1.8291  0.9671
  446SOL     OW 1336   1.041   0.930   1.721 -0.1952  0.3538 -0.1332
  446SOL    HW1 1337   1.097   0.849   1.749  0.6589  1.2051  0.5808
  446SOL    HW2 1338   1.030   0.931   1.618 -1.3745  2.0006 -1.8675
  447SOL     OW 1339   1.041   1.192   0.503  0.5006 -0.1592  0.2742
  447SOL    HW1 1340   1.013   1.288   0.478 -4.0333 -0.3855 -0.4695
  447SOL    HW2 1341   1.066   1.138   0.420  1.1497  2.2105 -0.1171
  448SOL     OW 1342   0.807   1.405   2.412  0.1375 -0.5747  0.2593
  448SOL    HW1 1343   0.788   1.494   2.355  0.1674  1.8231 -2.4523
  448SOL    HW2 1344   0.727   1.340   2.404 -2.4920 -1.3419  0.2558
  449SOL     OW 1345   0.177   1.688   2.498  0.3314  0.5056 -0.7309
  449SOL    HW1 1346   0.182   1.721   2.401 -0.6376  3.4652 -2.6985
  449SOL    HW2 1347   0.086   1.721   2.532 -0.8750  0.2825 -1.9257
  450SOL     OW 1348   2.129   1.405   2.205 -0.6870  0.6154 -0.0218
  450SOL    HW1 1349   2.121   1.484   2.264 -0.1235 -1.1659 -0.5876
  450SOL    HW2 1350   2.217   1.409   2.157  0.0423  0.7883  1.7704
  451SOL     OW 1351   2.480   1.326   1.043  0.0052 -0.1376 -0.1120
  451SOL    HW1 1352   2.526   1.414   1.023 -0.6197 -0.1946  1.8724
  451SOL    HW2 1353   2.455   1.318   1.142 -1.2707  2.3243  2.5347
  452SOL     OW 1354   0.886   1.127   1.151 -0.3649 -0.4115 -0.3505
  452SOL    HW1 1355   0.842   1.040   1.127 -0.0452  2.3957 -1.3807
  452SOL    HW2 1356   0.978   1.124   1.197  2.0382  2.0060 -1.6998
  453SOL     OW 1357   0.657   1.899   0.939  0.1265 -0.3366  1.2125
  453SOL    HW1 1358   0.575   1.948   0.904  0.6924 -1.4600 -0.1940
  453SOL    HW2 1359   0.724   1.882   0.862  1.1003 -2.1786 -1.0680
  454SOL     OW 1360   1.168   1.609   0.155  0.5383 -0.1076 -0.4976
  454SOL    HW1 1361   1.219   1.633   0.240  1.8161  1.5723  1.9738
  454SOL    HW2 1362   1.069   1.577   0.179 -3.7833  0.3141  0.5108
  455SOL     OW 1363   1.733   0.587   1.311 -0.8120 -0.5920 -0.0726
  455SOL    HW1 1364   1.808   0.639   1.349 -0.6991  0.9883  3.1707
  455SOL    HW2 1365   1.720   0.605   1.210  3.0883  0.1599 -0.1840
  456SOL     OW 1366   1.770   2.880   0.679 -0.1856 -1.1134 -0.1480
  456SOL    HW1 1367   1.715   2.822   0.617 -0.8414 -3.2353 -1.0279
  456SOL    HW2 1368   1.866   2.881   0.642 -0.5404 -1.1525 -1.6243
  457SOL     OW 1369   2.063   0.592   2.646  0.0037  0.0936 -0.2133
  457SOL    HW1 1370   1.964   0.584   2.659 -2.3796  1.4886  1.7452
  457SOL    HW2 1371   2.118   0.582   2.730 -0.6414 -0.0922  2.8832
  458SOL     OW 1372   2.649   0.549   2.748  0.6866  0.0612 -0.3318
  458SOL    HW1 1373   2.610   0.528   2.654 -3.3869 -2.5842 -2.7216
  458SOL    HW2 1374   2.682   0.466   2.786  0.9418 -0.2131  0.1099
  459SOL     OW 1375   2.503   1.357   2.433  0.0310 -0.1476 -0.0596
  459SOL    HW1 1376   2.463   1.406   2.353 -1.8499 -0.2665 -1.3025
  459SOL    HW2 1377   2.609   1.367   2.437  0.5114 -0.8266  2.5056
  460SOL     OW 1378   0.728   0.793   2.848  0.0510 -0.0369 -0.4144
  460SOL    HW1 1379   0.757   0.821   2.946  1.1875  0.8551  2.8016
  460SOL    HW2 1380   0.712   0.880   2.799  0.8036  2.4342 -1.9549
  461SOL     OW 1381   0.415   2.152   3.054  0.7049  0.0453  0.1216
  461SOL    HW1 1382   0.431   2.155   0.061  1.2812 -0.5956  3.3324
  461SOL    HW2 1383   0.341   2.089   3.032  1.1085  0.9702 -2.7441
  462SOL     OW 1384   1.010   2.964   2.207  0.1947  0.6050 -0.2851
  462SOL    HW1 1385   0.988   2.904   2.288 -1.0429  2.2462  1.3257
  462SOL    HW2 1386   0.920   2.979   2.157  2.1335 -0.5411 -1.2764
  463SOL     OW 1387   1.990   2.180   2.027  0.5076 -0.0218 -0.0500
  463SOL    HW1 1388   1.910   2.127   2.053  0.4175 -0.8888  0.4647
  463SOL    HW2 1389   2.022   2.149   1.932 -0.2258 -2.6191 -1.2751
  464SOL     OW 1390   2.671   2.699   1.061 -0.0724  0.4487  0.1916
  464SOL    HW1 1391   2.625   2.783   1.091 -1.0386 -0.7220 -2.0771
  464SOL    HW2 1392   2.632   2.666   0.975 -1.3253 -0.4712  0.7738
  465SOL     OW 1393   0.123   0.126   1.336  0.7725  0.0697 -0.4273
  465SOL    HW1 1394   0.147   0.026   1.342  1.1649 -1.0792 -1.4473
  465SOL    HW2 1395   0.152   0.172   1.250  4.4876  1.2977  0.1694
  466SOL     OW 1396   1.175   2.763   2.374  0.0321  0.3803  0.1500
  466SOL    HW1 1397   1.155   2.764   2.472 -1.1733  0.3563 -0.3015
  466SOL    HW2 1398   1.128   2.686   2.324 -0.6866  2.4405 -0.2533
  467SOL     OW 1399   0.025   2.217   0.321 -0.2692 -0.0065  0.2080
  467SOL    HW1 1400   3.053   2.142   0.342  1.6061 -1.9524 -1.4847
  467SOL    HW2 1401   0.059   2.213   0.221  1.2370  0.0805 -0.7467
  468SOL     OW 1402   2.085   2.028   2.860 -0.5848 -0.1062  0.0099
  468SOL    HW1 1403   2.142   1.957   2.818 -0.5787 -0.4480  2.6182
  468SOL    HW2 1404   2.151   2.097   2.901  0.7455  2.9097  0.3564
  469SOL     OW 1405   1.165   2.140   0.659  0.6579  0.0675 -0.0039
  469SOL    HW1 1406   1.229   2.210   0.703 -2.5053  0.1474 -1.3518
  469SOL    HW2 1407   1.085   2.187   0.614 -1.3271  1.0560 -1.3767
  470SOL     OW 1408   2.074   0.748   0.875  0.5693  0.3618 -0.2355
  470SOL    HW1 1409   2.079   0.677   0.951  1.4564 -3.8942  4.1184
  470SOL    HW2 1410   2.078   0.848   0.909  0.9960 -0.6666  3.5161
  471SOL     OW 1411   0.497   2.093   0.255 -0.1534  0.4976 -0.4209
  471SOL    HW1 1412   0.577   2.037   0.277 -1.7104 -0.8989  1.9010
  471SOL    HW2 1413   0.412   2.036   0.272 -1.0357 -4.5766  3.5715
  472SOL     OW 1414   2.514   1.640   2.714  0.2325 -0.4341  0.3794
  472SOL    HW1 1415   2.583   1.572   2.741  1.5489 -0.6834  0.2167
  472SOL    HW2 1416   2.422   1.598   2.717  2.1076 -2.9410  0.9394
  473SOL     OW 1417   1.613   1.996   0.698 -0.1542  0.3682 -0.4992
  473SOL    HW1 1418   1.553   2.054   0.643 -0.3822 -0.2563 -1.0456
  473SOL    HW2 1419   1.580   1.989   0.796 -0.5221 -0.6800 -1.7862
  474SOL     OW 1420   2.533   0.403   1.019 -0.5647  0.0674  0.2536
  474SOL    HW1 1421   2.488   0.459   0.945 -1.1557  0.8871  0.1212
  474SOL    HW2 1422   2.633   0.411   1.013 -2.5480  2.0518  0.8654
  475SOL     OW 1423   2.459   2.671   1.298 -0.7977  0.0957 -0.4477
  475SOL    HW1 1424   2.387   2.667   1.367  0.1298  0.0002 -0.6904
  475SOL    HW2 1425   2.466   2.769   1.265  1.3074 -1.5378 -0.1094
  476SOL     OW 1426   0.473   0.511   0.862  0.0283 -0.1780 -0.9883
  476SOL    HW1 1427   0.428   0.460   0.786 -0.3290 -0.7287 -3.9493
  476SOL    HW2 1428   0.568   0.527   0.830 -1.1176 -0.2831  1.8551
  477SOL     OW 1429   1.276   2.420   1.123  0.3250 -0.1190 -0.2016
  477SOL    HW1 1430   1.350   2.429   1.054 -1.5279 -2.9818  2.4931
  477SOL    HW2 1431   1.289   2.484   1.200 -0.5287  0.8332 -1.1504
  478SOL     OW 1432   1.271   2.549   2.808 -0.3678 -0.2944 -0.6708
  478SOL    HW1 1433   1.183   2.551   2.764  0.0824  0.7808 -0.5109
  478SOL    HW2 1434   1.308   2.647   2.822 -2.3911  2.5816 -0.4991
  479SOL     OW 1435   2.530   0.762   1.952  0.4753 -0.7919 -0.0064
  479SOL    HW1 1436   2.624   0.779   1.991 -3.2500  0.2045  0.6596
  479SOL    HW2 1437   2.540   0.725   1.857  0.0323  1.7362 -0.4088
  480SOL     OW 1438   2.686   1.978   2.771 -0.2619 -0.2674 -0.1992
  480SOL    HW1 1439   2.685   2.000   2.670  0.1319  1.2574 -2.9585
  480SOL    HW2 1440   2.755   1.905   2.797 -0.0769 -4.0543 -0.6647
  481SOL     OW 1441   1.684   0.132   2.073  0.0769  0.4909  0.6249
  481SOL    HW1 1442   1.758   0.067   2.109  0.7419 -3.2107 -2.1376
  481SOL    HW2 1443   1.611   0.146   2.140  0.8563  0.5749 -0.1840
  482SOL     OW 1444   1.505   2.330   2.455 -0.4280 -0.1187 -0.5839
  482SOL    HW1 1445   1.462   2.417   2.431  1.0651 -1.5421  0.5242
  482SOL    HW2 1446   1.602   2.340   2.485 -2.6835 -0.7720  1.8289
  483SOL     OW 1447   1.041   2.724   2.607 -0.2689  0.2992 -0.3038
  483SOL    HW1 1448   1.002   2.640   2.653  2.1603 -0.7809  1.4487
  483SOL    HW2 1449   1.073   2.799   2.667  0.6649  0.9193 -0.1997
  484SOL     OW 1450   2.681   2.996   1.418 -0.3258 -0.1134  0.2354
  484SOL    HW1 1451   2.627   2.979   1.504 -3.8691  0.4648  0.9128
  484SOL    HW2 1452   2.778   3.023   1.444  1.7942  0.6111  1.7431
  485SOL     OW 1453   2.022   0.627   0.464 -0.0736 -0.7079 -0.3907
  485SOL    HW1 1454   1.978   0.641   0.558  1.1241  2.3536  1.5031
  485SOL    HW2 1455   2.053   0.716   0.425  1.5825  1.1700 -1.6887
  486SOL     OW 1456   2.355   2.739   2.305  0.1950  0.5471 -0.0959
  486SOL    HW1 1457   2.333   2.824   2.358 -0.9953  0.5003 -0.4372
  486SOL    HW2 1458   2.317   2.741   2.208 -1.1735 -0.3876 -0.6392
  487SOL     OW 1459   1.428   0.709   0.484  0.2625 -1.0660 -0.7853
  487SOL    HW1 1460   1.400   0.772   0.565  0.0249  1.2064  3.3562
  487SOL    HW2 1461   1.477   0.628   0.525  0.9068 -0.2239 -1.2085
  488SOL     OW 1462   2.643   2.798   2.577  0.2603  0.3158  0.1803
  488SOL    HW1 1463   2.655   2.791   2.475 -0.8086  1.4153 -3.1262
  488SOL    HW2 1464   2.546   2.820   2.601 -0.8733  2.0576  0.2099
  489SOL     OW 1465   1.469   2.974   0.189 -0.2637  0.4681 -0.2261
  489SOL    HW1 1466   1.435   3.009   0.278 -2.6397 -1.5252  0.5644
  489SOL    HW2 1467   1.550   2.909   0.212  1.2284 -1.1890  0.5489
  490SOL     OW 1468   1.735   0.446   0.095 -0.0249 -0.0654 -0.2707
  490SOL    HW1 1469   1.735   0.457   0.195  2.2385  2.3998  1.1421
  490SOL    HW2 1470   1.757   0.527   0.044  1.2956 -2.9143 -0.6442
  491SOL     OW 1471   0.607   2.748   1.305  0.0014 -0.3990  0.0347
  491SOL    HW1 1472   0.618   2.819   1.376 -2.0909  0.9801  1.4226
  491SOL    HW2 1473   0.659   2.779   1.224 -1.6595  0.5062 -2.0364
  492SOL     OW 1474   1.562   2.764   0.525  0.3036 -0.1542  0.0975
  492SOL    HW1 1475   1.575   2.663   0.504  0.9219  0.1941 -0.9146
  492SOL    HW2 1476   1.599   2.820   0.447 -0.8156  1.1618  0.0401
  493SOL     OW 1477   1.249   2.245   2.851 -0.1529  0.2524  0.3442
  493SOL    HW1 1478   1.306   2.245   2.766  1.3523  2.9728 -0.0024
  493SOL    HW2 1479   1.262   2.330   2.911  1.0083  1.6215  2.6687
  494SOL     OW 1480   0.890   0.862   0.331 -0.2895  0.5815  0.1938
  494SOL    HW1 1481   0.820   0.881   0.403 -0.5887  1.8489  1.2589
  494SOL    HW2 1482   0.981   0.898   0.359 -3.9843 -2.7952 -1.6301
  495SOL     OW 1483   2.700   0.443   1.846  0.1453  0.0608  0.6329
  495SOL    HW1 1484   2.752   0.390   1.779 -1.2235  1.0682  2.3242
  495SOL    HW2 1485   2.676   0.537   1.809  0.4305  0.6395 -1.0089
  496SOL     OW 1486   2.245   2.549   2.463 -0.2669  0.5161  0.0579
  496SOL    HW1 1487   2.302   2.620   2.412  1.9535 -0.0515 -1.8580
  496SOL    HW2 1488   2.148   2.550   2.436 -0.0791  0.8131 -1.9127
  497SOL     OW 1489   1.720   1.366   2.737  0.2774 -0.5165  0.3459
  497SOL    HW1 1490   1.796   1.429   2.748 -2.4754 -1.9442 -0.4967
  497SOL    HW2 1491   1.651   1.393   2.802  3.7824 -1.6983  0.0879
  498SOL     OW 1492   0.889   2.441   0.833  0.2940 -0.0677 -0.6587
  498SOL    HW1 1493   0.838   2.529   0.835 -0.2343  1.0774  0.1336
  498SOL    HW2 1494   0.930   2.423   0.926 -0.4021  3.7010 -0.8198
  499SOL     OW 1495   0.129   2.104   1.047 -0.4418 -0.1720  0.6057
  499SOL    HW1 1496   0.081   2.145   0.970 -2.5266 -0.5582  2.3128
  499SOL    HW2 1497   0.087   2.143   1.127  0.3753 -1.3784  0.9997
  500SOL     OW 1498   1.025   2.766   0.138  0.3872 -0.5887  0.5493
  500SOL    HW1 1499   0.968   2.851   0.132 -3.1312 -0.5237 -0.2005
  500SOL    HW2 1500   1.092   2.775   0.216 -2.4447  1.7423  1.4449
  501SOL     OW 1501   2.062   2.840   0.595 -0.1609  0.0751 -0.1478
  501SOL    HW1 1502   2.130   2.903   0.556 -1.0880 -0.7024 -0.5050
  501SOL    HW2 1503   2.060   2.748   0.554 -0.0294  0.5586 -1.7488
  502SOL     OW 1504   3.058   0.320   1.000  0.2265 -0.3087 -0.2754
  502SOL    HW1 1505   3.042   0.274   1.087  3.1076  1.1406 -1.2695
  502SOL    HW2 1506   0.017   0.265   0.934 -1.4131  1.7061  2.3512
  503SOL     OW 1507   2.061   3.084   2.000 -0.0086  0.6419 -0.4334
  503SOL    HW1 1508   2.047   0.069   2.059 -1.9232  0.9873  0.3298
  503SOL    HW2 1509   2.103   0.009   1.912 -0.9237 -1.8020 -0.2353
  504SOL     OW 1510   2.063   1.004   1.979 -0.1943 -0.1109  0.0543
  504SOL    HW1 1511   2.038   0.987   1.883  1.2804  1.5092  0.0134
  504SOL    HW2 1512   2.154   1.052   1.988 -0.0816  2.1155  1.5873
  505SOL     OW 1513   1.735   2.890   2.500  0.5759  0.1894 -0.0440
  505SOL    HW1 1514   1.824   2.926   2.508 -4.2826  0.0271  0.7570
  505SOL    HW2 1515   1.675   2.957   2.460  1.7430 -2.6343  0.7259
  506SOL     OW 1516   0.167   0.610   1.782  0.9459  0.0762  0.7019
  506SOL    HW1 1517   0.137   0.531   1.841 -2.2560  0.2810  0.7252
  506SOL    HW2 1518   0.249   0.652   1.819 -0.2117 -0.0442  0.1218
  507SOL     OW 1519   1.736   0.575   0.369  0.5314  0.2127 -0.7150
  507SOL    HW1 1520   1.676   0.538   0.440  3.8116  0.8374 -0.1238
  507SOL    HW2 1521   1.832   0.573   0.395  0.7738  0.0370  0.9030
  508SOL     OW 1522   2.085   0.787   2.138  0.1934 -0.4334  0.2145
  508SOL    HW1 1523   2.070   0.885   2.112  2.3834 -0.9330  0.5605
  508SOL    HW2 1524   2.181   0.758   2.109  0.5343  1.6290  1.3658
  509SOL     OW 1525   0.590   1.843   2.715  0.0496  0.3765 -0.0284
  509SOL    HW1 1526   0.637   1.915   2.774  0.7126  0.0053 -1.2736
  509SOL    HW2 1527   0.514   1.880   2.660 -1.4476 -0.4606  2.9424
  510SOL     OW 1528   0.074   0.985   0.939  0.1658 -0.2617 -0.0048
  510SOL    HW1 1529   0.077   0.889   0.966  0.3654  1.3029 -1.9896
  510SOL    HW2 1530   0.040   1.046   1.018 -2.2012 -0.0911  4.6847
  511SOL     OW 1531   1.578   1.174   1.458  0.6323  0.1766  0.1146
  511SOL    HW1 1532   1.509   1.139   1.526 -0.0049 -1.7507  0.2427
  511SOL    HW2 1533   1.609   1.267   1.480  0.3146 -0.7729  2.2780
  512SOL     OW 1534   0.495   2.095   0.726 -0.0434 -0.0639  0.1371
  512SOL    HW1 1535   0.578   2.087   0.667 -0.1136  2.0561 -1.2949
  512SOL    HW2 1536   0.447   2.183   0.701  1.6391  1.1377 -1.7953
  513SOL     OW 1537   0.377   2.562   0.841 -0.4455  0.4514  0.1156
  513SOL    HW1 1538   0.377   2.648   0.785  0.2407  0.5790 -0.7886
  513SOL    HW2 1539   0.316   2.567   0.925 -2.7043  2.4342  1.3281
  514SOL     OW 1540   0.724   2.062   0.566  0.1768 -0.0848  0.0430
  514SOL    HW1 1541   0.756   1.985   0.623 -0.4551 -0.8944 -1.6400
  514SOL    HW2 1542   0.738   2.035   0.471 -1.2523  0.6886  0.2046
  515SOL     OW 1543   0.221   0.121   3.005  0.4422 -0.1929  0.2603
  515SOL    HW1 1544   0.226   0.035   2.948  2.8557 -0.0551  1.2727
  515SOL    HW2 1545   0.142   0.124   3.069  1.9048 -0.4215  0.1799
  516SOL     OW 1546   2.017   0.001   1.435 -0.4746  0.1108 -0.2077
  516SOL    HW1 1547   2.021   0.092   1.395 -1.2246 -2.3520 -0.5903
  516SOL    HW2 1548   2.094   3.038   1.397  2.5609  0.5453  0.8009
  517SOL     OW 1549   1.753   1.704   0.666  0.1872  0.3074 -0.1884
  517SOL    HW1 1550   1.739   1.763   0.580  1.4087  1.6467 -1.3401
  517SOL    HW2 1551   1.799   1.760   0.741  0.9709  0.4593  1.5973
  518SOL     OW 1552   1.752   2.719   0.901  0.0153  0.0412  0.3934
  518SOL    HW1 1553   1.684   2.643   0.883 -0.1202 -2.1164 -1.4097
  518SOL    HW2 1554   1.776   2.766   0.818 -1.1165 -2.1085  0.7413
  519SOL     OW 1555   0.115   2.277   0.066  0.1698  0.4131 -0.1510
  519SOL    HW1 1556   0.120   2.289   3.059  0.2097 -0.8757  0.9918
  519SOL    HW2 1557   0.190   2.334   0.110 -0.6333 -0.6895 -0.7732
  520SOL     OW 1558   2.055   1.857   2.268  0.1970  0.1851  0.0766
  520SOL    HW1 1559   2.047   1.930   2.338 -1.2235 -2.4136 -0.6948
  520SOL    HW2 1560   1.980   1.865   2.203 -1.3668 -1.0550 -0.9132
  521SOL     OW 1561   1.253   3.002   2.105  0.0502  0.7507 -0.5339
  521SOL    HW1 1562   1.281   2.963   2.013  0.5644 -1.3255 -0.2123
  521SOL    HW2 1563   1.159   2.976   2.135 -1.5328 -1.5060 -0.6404
  522SOL     OW 1564   0.343   2.517   2.049 -0.7408  0.1334 -0.0473
  522SOL    HW1 1565   0.280   2.524   1.967  0.2642 -0.0153  0.6134
  522SOL    HW2 1566   0.292   2.516   2.138  2.0941 -2.5969 -2.9473
  523SOL     OW 1567   0.722   2.109   2.037 -0.4046 -0.0806  0.6154
  523SOL    HW1 1568   0.688   2.190   2.085 -0.3682 -2.2058  1.5193
  523SOL    HW2 1569   0.809   2.070   2.075  3.1905 -1.5178 -0.0548
  524SOL     OW 1570   2.425   2.135   0.233 -0.7202 -0.0932 -0.0118
  524SOL    HW1 1571   2.489   2.211   0.198  2.2135  1.4469  2.6736
  524SOL    HW2 1572   2.389   2.075   0.161 -1.1961  1.8108  2.0206
  525SOL     OW 1573   2.723   1.030   2.850 -0.3112  0.8748 -0.0185
  525SOL    HW1 1574   2.633   1.081   2.852 -1.8868 -1.6102  0.7429
  525SOL    HW2 1575   2.713   0.930   2.853 -0.6619 -1.7019 -1.4443
  526SOL     OW 1576   0.315   2.800   0.690 -0.5282  0.1395  0.3126
  526SOL    HW1 1577   0.349   2.742   0.613 -2.2874  1.6379  1.6738
  526SOL    HW2 1578   0.217   2.822   0.675  1.5570 -0.7061 -0.0529
  527SOL     OW 1579   0.003   1.203   0.742  0.0402  0.3085  0.2945
  527SOL    HW1 1580   3.087   1.122   0.800 -3.1464 -0.5661 -0.4823
  527SOL    HW2 1581   3.011   1.253   0.742  3.2670 -1.1571  1.0455
  528SOL     OW 1582   0.671   1.008   2.494 -0.4160 -0.6446  0.0129
  528SOL    HW1 1583   0.600   0.949   2.538  0.0659  0.5207  0.3468
  528SOL    HW2 1584   0.757   1.008   2.544 -1.9234 -2.4581 -0.8062
  529SOL     OW 1585   0.863   1.380   0.251 -0.2086  0.3931  0.2530
  529SOL    HW1 1586   0.960   1.346   0.242  0.9338 -1.3023  0.8588
  529SOL    HW2 1587   0.849   1.460   0.190  3.8081  0.0330 -5.1005
  530SOL     OW 1588   1.110   1.051   1.950 -0.1889  0.0389  0.1214
  530SOL    HW1 1589   1.073   1.010   1.866 -0.3553  1.6828 -0.6834
  530SOL    HW2 1590   1.139   0.976   2.011  1.5586 -1.6445  3.0126
  531SOL     OW 1591   1.194   2.368   0.108  0.2139  0.4094 -0.8300
  531SOL    HW1 1592   1.145   2.279   0.093 -2.9228  1.6045  2.7464
  531SOL    HW2 1593   1.170   2.410   0.198 -0.6948  2.2722  1.6295
  532SOL     OW 1594   2.453   0.720   2.353  0.2593  0.0788  0.0093
  532SOL    HW1 1595   2.486   0.818   2.354 -0.6776  0.7869  2.2104
  532SOL    HW2 1596   2.428   0.686   2.443  0.0523  2.2678 -2.1922
  533SOL     OW 1597   0.041   0.134   2.028 -0.5701  0.2473 -0.1416
  533SOL    HW1 1598   3.036   0.135   2.039 -0.7791  0.1630 -0.5954
  533SOL    HW2 1599   0.068   0.170   1.942 -2.0728 -1.5305  2.2871
  534SOL     OW 1600   2.477   3.080   0.384 -0.2617  0.1213  0.0515
  534SOL    HW1 1601   2.565   0.039   0.405 -0.9116  2.4894 -0.8911
  534SOL    HW2 1602   2.446   0.025   0.294  1.0030  2.2490 -2.2094
  535SOL     OW 1603   0.570   0.394   0.267  0.2105 -0.2243  0.4776
  535SOL    HW1 1604   0.589   0.493   0.263 -0.2765 -0.0663 -0.5599
  535SOL    HW2 1605   0.469   0.387   0.258  2.9320  0.4570  1.4579
  536SOL     OW 1606   1.298   2.174   1.251 -0.3472  0.0357  0.2686
  536SOL    HW1 1607   1.199   2.143   1.247 -2.0782  0.2637 -1.6738
  536SOL    HW2 1608   1.312   2.260   1.205 -0.2017 -2.0315  2.5565
  537SOL     OW 1609   2.896   2.426   1.505  0.4579  0.3076 -0.3121
  537SOL    HW1 1610   2.902   2.525   1.528  1.7619 -1.5079 -0.2895
  537SOL    HW2 1611   2.800   2.391   1.514  1.8284 -0.4797  4.1453
  538SOL     OW 1612   0.553   2.348   0.278  0.3336 -0.5211 -0.1126
  538SOL    HW1 1613   0.653   2.364   0.259  1.3804  0.8680 -2.6970
  538SOL    HW2 1614   0.532   2.250   0.258  0.7485  0.6080  0.9643
  539SOL     OW 1615   2.020   1.229   2.411  0.1953  0.4759  0.2746
  539SOL    HW1 1616   1.976   1.138   2.393 -1.3864 -0.9474  0.9292
  539SOL    HW2 1617   2.053   1.269   2.320  1.1468 -1.1303 -3.0211
  540SOL     OW 1618   1.796   0.703   3.006 -0.2821 -0.2370  0.3792
  540SOL    HW1 1619   1.838   0.716   0.006  0.3133  0.5083  1.5736
  540SOL    HW2 1620   1.823   0.780   2.944  2.3044  2.1553 -3.2032
  541SOL     OW 1621   0.487   0.823   2.579  0.3728  0.3158  0.0472
  541SOL    HW1 1622   0.515   0.725   2.580 -1.5438 -3.4995  1.1712
  541SOL    HW2 1623   0.392   0.834   2.544  1.1127 -1.1350 -0.0915
  542SOL     OW 1624   1.338   2.518   1.921  0.3105 -0.1779 -0.4216
  542SOL    HW1 1625   1.246   2.485   1.904 -0.2439 -1.6297  0.0200
  542SOL    HW2 1626   1.377   2.542   1.831 -0.4568  1.0802  2.1070
  543SOL     OW 1627   0.533   2.731   0.201  0.0734  0.3972  0.4075
  543SOL    HW1 1628   0.550   2.710   0.102  0.1659 -1.9343 -1.5618
  543SOL    HW2 1629   0.453   2.683   0.233 -1.4475  1.9741 -2.9487
  544SOL     OW 1630   2.689   2.020   2.444 -0.2556 -1.2830  0.0002
  544SOL    HW1 1631   2.625   2.089   2.400 -2.3955  1.0579 -1.1819
  544SOL    HW2 1632   2.785   2.052   2.433 -0.6765 -0.1555 -0.2724
  545SOL     OW 1633   1.274   1.532   1.832  0.2262 -0.4501  0.3101
  545SOL    HW1 1634   1.292   1.588   1.912 -0.3736 -0.8221  1.1078
  545SOL    HW2 1635   1.205   1.578   1.772  0.6083  1.1393 -2.6446
  546SOL     OW 1636   3.009   0.481   2.652 -0.0897  0.6807  0.2712
  546SOL    HW1 1637   3.008   0.383   2.667  1.5686  0.6919  4.0148
  546SOL    HW2 1638   0.008   0.517   2.613  1.7049 -0.2340  0.2388
  547SOL     OW 1639   1.433   3.008   1.292 -0.1066  0.3685  0.6616
  547SOL    HW1 1640   1.387   3.087   1.340 -0.4056 -3.7090  0.4496
  547SOL    HW2 1641   1.513   2.972   1.345  0.2277 -0.3637  1.4224
  548SOL     OW 1642   1.344   2.033   3.019 -0.0762  0.4875 -0.1353
  548SOL    HW1 1643   1.423   2.075   3.071  4.6402 -0.0910 -0.7546
  548SOL    HW2 1644   1.288   2.103   2.971 -0.1459 -1.0178  0.8562
  549SOL     OW 1645   2.149   0.782   3.082 -0.1339  0.0031  0.3234
  549SOL    HW1 1646   2.210   0.768   0.068 -0.7061  0.1856 -3.1392
  549SOL    HW2 1647   2.136   0.881   3.058 -3.5048 -0.0055 -0.3142
  550SOL     OW 1648   2.820   2.038   0.837  0.8665 -0.4702 -0.0607
  550SOL    HW1 1649   2.761   2.078   0.763 -2.1261  1.3654 -1.2310
  550SOL    HW2 1650   2.792   1.942   0.849  0.7763  2.2278  0.9102
  551SOL     OW 1651   1.009   0.250   1.293 -0.3630  0.6655 -0.4225
  551SOL    HW1 1652   0.961   0.163   1.262  1.5512 -2.8562 -1.8062
  551SOL    HW2 1653   1.049   0.242   1.388 -0.0301 -1.6055  2.4602
  552SOL     OW 1654   0.096   1.458   2.837  0.2192  0.1514  0.4258
  552SOL    HW1 1655   0.170   1.510   2.792 -0.6874 -2.1048  0.3427
  552SOL    HW2 1656   0.080   1.499   2.928  0.4919 -1.4209 -1.5236
  553SOL     OW 1657   2.609   2.559   0.318 -0.2572 -0.3657 -0.5357
  553SOL    HW1 1658   2.692   2.567   0.375 -1.6264  0.1392  1.9920
  553SOL    HW2 1659   2.525   2.550   0.381 -1.9458  0.0984  0.9096
  554SOL     OW 1660   2.137   1.173   1.595 -0.0777 -0.1872  0.1248
  554SOL    HW1 1661   2.049   1.206   1.554  0.6893 -0.4924  0.5548
  554SOL    HW2 1662   2.135   1.073   1.624 -0.4314 -2.6622  2.0501
  555SOL     OW 1663   0.894   2.273   2.309 -0.1239 -0.4785 -0.3109
  555SOL    HW1 1664   0.873   2.357   2.358  1.8866  1.5743 -3.4183
  555SOL    HW2 1665   0.851   2.197   2.364 -0.1951 -3.5081  0.4624
  556SOL     OW 1666   1.212   1.280   1.773  0.1300 -0.5816 -0.2788
  556SOL    HW1 1667   1.170   1.231   1.855 -0.1348  0.4791 -0.9523
  556SOL    HW2 1668   1.258   1.371   1.794  2.8401  1.0039  0.2521
  557SOL     OW 1669   1.338   0.134   1.416 -0.6132  0.4366 -0.2288
  557SOL    HW1 1670   1.397   0.182   1.348  1.0865 -0.2961  0.4611
  557SOL    HW2 1671   1.264   0.193   1.455  0.1809 -0.1548  2.0389
  558SOL     OW 1672   0.360   0.661   2.209  0.2680 -0.5005 -0.0691
  558SOL    HW1 1673   0.374   0.569   2.249 -0.4394  1.1628 -0.4000
  558SOL    HW2 1674   0.441   0.717   2.226 -0.5602 -0.5766 -3.6558
  559SOL     OW 1675   1.278   2.722   0.290 -0.4386  0.5065 -0.1601
  559SOL    HW1 1676   1.229   2.775   0.360 -0.7738 -1.8322  2.4398
  559SOL    HW2 1677   1.319   2.781   0.218 -2.9551  0.1841 -1.7093
  560SOL     OW 1678   1.522   2.146   0.104 -0.2067  0.3396  0.0225
  560SOL    HW1 1679   1.567   2.066   0.148  0.5184 -1.3036  0.0058
  560SOL    HW2 1680   1.571   2.191   0.024  2.1687  2.0850 -3.1166
  561SOL     OW 1681   1.402   2.860   0.884 -0.1857  0.3836 -0.4874
  561SOL    HW1 1682   1.494   2.900   0.900  0.5319  0.6717 -1.4684
  561SOL    HW2 1683   1.341   2.884   0.966 -2.1323 -0.2976  0.9551
  562SOL     OW 1684   0.352   0.958   2.025  0.5123  0.0477 -0.1724
  562SOL    HW1 1685   0.448   0.998   2.025 -0.2165  0.5462 -0.9749
  562SOL    HW2 1686   0.356   0.864   1.979 -1.7850 -0.7577 -2.0171
  563SOL     OW 1687   1.390   2.102   2.635 -0.3569  0.2078 -0.1731
  563SOL    HW1 1688   1.391   2.162   2.554 -0.0007 -3.1485 -2.7833
  563SOL    HW2 1689   1.485   2.074   2.668  2.2819 -3.4666 -0.5615
  564SOL     OW 1690   2.612   0.789   1.146  0.1734  0.1667 -0.4965
  564SOL    HW1 1691   2.622   0.890   1.129 -0.8676  1.4269  0.3286
  564SOL    HW2 1692   2.517   0.762   1.123  2.2191 -1.8540 -0.2016
  565SOL     OW 1693   1.374   1.337   0.183 -0.7887 -0.6130 -0.1563
  565SOL    HW1 1694   1.389   1.334   0.078 -0.3549 -0.7183 -2.0334
  565SOL    HW2 1695   1.455   1.384   0.225 -2.0358 -2.9746 -0.9811
  566SOL     OW 1696   2.075   2.641   3.035  0.1485 -0.3126  0.6086
  566SOL    HW1 1697   2.019   2.716   3.070 -1.7828 -0.8129  1.0427
  566SOL    HW2 1698   2.171   2.654   3.062 -0.1129 -0.3015 -0.9644
  567SOL     OW 1699   1.637   0.903   1.059 -0.4028  0.3487 -0.7094
  567SOL    HW1 1700   1.690   0.952   0.987 -0.0534 -1.0896  1.0951
  567SOL    HW2 1701   1.668   0.933   1.155  2.7178  1.0962  1.6047
  568SOL     OW 1702   1.298   1.658   2.408 -0.1760 -0.0066 -0.2677
  568SOL    HW1 1703   1.217   1.602   2.417  0.5085 -0.0171 -0.6470
  568SOL    HW2 1704   1.274   1.755   2.443  0.2261 -0.1580 -0.6664
  569SOL     OW 1705   2.073   1.744   0.893 -0.1140 -0.0697  0.0315
  569SOL    HW1 1706   2.103   1.762   0.801 -0.9614  0.5384  1.9814
  569SOL    HW2 1707   2.105   1.652   0.922 -1.2636 -1.9834  0.4205
  570SOL     OW 1708   2.550   2.249   2.333  0.1951  0.3106 -0.2580
  570SOL    HW1 1709   2.571   2.347   2.306  2.2359 -0.0350  0.1524
  570SOL    HW2 1710   2.447   2.236   2.333 -2.0361  0.2309 -0.1427
  571SOL     OW 1711   2.716   1.728   1.816  0.7292  0.3635  0.3682
  571SOL    HW1 1712   2.731   1.762   1.910  1.0646 -1.3340 -0.9292
  571SOL    HW2 1713   2.628   1.769   1.785  0.7912 -0.0019  1.8438
  572SOL     OW 1714   1.517   2.417   2.792  0.6376  0.3513 -0.6262
  572SOL    HW1 1715   1.426   2.462   2.785  2.0669  0.2676  0.6900
  572SOL    HW2 1716   1.572   2.418   2.705  0.6190  1.4271  0.6414
  573SOL     OW 1717   1.660   2.231   1.146  0.3584  0.1678  0.1788
  573SOL    HW1 1718   1.639   2.148   1.203  0.4202 -1.3661  0.3636
  573SOL    HW2 1719   1.734   2.213   1.082  1.3759 -2.9898  1.8111
  574SOL     OW 1720   1.080   2.765   1.346  0.0478  0.0471  0.0651
  574SOL    HW1 1721   0.992   2.720   1.362  0.5156 -0.7826 -0.3763
  574SOL    HW2 1722   1.097   2.842   1.406 -1.6256  1.6266 -1.7772
  575SOL     OW 1723   0.966   0.587   0.907  0.4378  0.5645  0.3507
  575SOL    HW1 1724   1.043   0.572   0.844 -0.8672 -0.1559  0.7647
  575SOL    HW2 1725   0.983   0.661   0.974 -1.4086  1.3487 -0.3069
  576SOL     OW 1726   2.463   0.338   1.420  0.4477  0.2218 -0.2213
  576SOL    HW1 1727   2.509   0.384   1.342 -1.3166  0.6267 -0.8529
  576SOL    HW2 1728   2.531   0.287   1.481  0.8595 -1.3236 -2.7702
  577SOL     OW 1729   2.432   0.318   2.744  0.7357  0.3022 -0.8598
  577SOL    HW1 1730   2.381   0.368   2.821 -3.2298  4.0450  0.0277
  577SOL    HW2 1731   2.366   0.305   2.665 -1.2321 -1.4047 -2.3050
  578SOL     OW 1732   1.921   1.822   2.037  0.1202  0.2703 -0.5639
  578SOL    HW1 1733   1.891   1.724   2.058  0.5707  1.7702 -1.4585
  578SOL    HW2 1734   1.960   1.831   1.945  0.8797  2.0102  2.1366
  579SOL     OW 1735   0.636   1.670   1.075  0.7100  0.4392  0.1081
  579SOL    HW1 1736   0.643   1.761   1.030 -2.7075  1.9112  1.1975
  579SOL    HW2 1737   0.643   1.596   1.005  1.6955 -0.2230 -1.2369
  580SOL     OW 1738   1.367   2.791   2.825  0.2321 -0.1166 -0.2264
  580SOL    HW1 1739   1.306   2.851   2.767  0.2511  2.1847 -2.1407
  580SOL    HW2 1740   1.462   2.813   2.805  0.3973  0.6077  0.9686
  581SOL     OW 1741   0.643   0.752   2.201  0.3247 -0.2747  0.4882
  581SOL    HW1 1742   0.663   0.685   2.272 -1.5644  1.3688  0.8020
  581SOL    HW2 1743   0.685   0.843   2.223 -1.7642 -0.1148  2.2117
  582SOL     OW 1744   0.365   0.715   0.651  0.7145  0.1414  0.1735
  582SOL    HW1 1745   0.361   0.771   0.739 -1.3593  0.3775 -0.3208
  582SOL    HW2 1746   0.365   0.616   0.680 -0.8452 -3.3759  2.9076
  583SOL     OW 1747   0.674   1.635   1.749  0.0318 -0.4113 -0.8964
  583SOL    HW1 1748   0.617   1.568   1.796 -1.2683  0.7772  0.5533
  583SOL    HW2 1749   0.678   1.723   1.805 -0.9232  0.9927 -0.3059
  584SOL     OW 1750   2.377   2.568   0.452  0.1263  0.1576  0.3098
  584SOL    HW1 1751   2.357   2.602   0.543  1.0821 -2.4757  1.1336
  584SOL    HW2 1752   2.369   2.648   0.389 -0.0352 -2.5183 -0.1415
  585SOL     OW 1753   2.235   0.665   2.836  0.2058  0.4593 -0.5076
  585SOL    HW1 1754   2.181   0.713   2.905  0.8097  0.3037 -1.7347
  585SOL    HW2 1755   2.321   0.629   2.872 -4.3174  0.1989 -2.0778
  586SOL     OW 1756   0.540   1.541   0.372  0.1311 -0.3030 -0.1758
  586SOL    HW1 1757   0.510   1.634   0.393 -0.6661 -1.6148  0.2141
  586SOL    HW2 1758   0.531   1.477   0.455 -1.3653 -0.4247  4.8895
  587SOL     OW 1759   1.549   1.871   0.977 -0.3203  0.1001  0.1997
  587SOL    HW1 1760   1.645   1.871   0.940  1.8666  1.3621  1.8487
  587SOL    HW2 1761   1.537   1.937   1.052  1.4443  0.1543 -0.3737
  588SOL     OW 1762   0.412   0.636   1.108  0.1996 -0.0254 -0.2544
  588SOL    HW1 1763   0.464   0.714   1.131  2.1864 -2.3281 -0.1054
  588SOL    HW2 1764   0.436   0.593   1.021 -0.7186 -0.6252  1.5073
  589SOL     OW 1765   1.683   2.930   1.403 -0.1054  0.0944  0.3294
  589SOL    HW1 1766   1.732   2.880   1.476  0.9899  0.2589 -1.8587
  589SOL    HW2 1767   1.672   3.030   1.431  1.3873  4.0388  0.0636
  590SOL     OW 1768   1.405   1.121   0.391 -0.3238 -0.0266  0.1199
  590SOL    HW1 1769   1.487   1.065   0.363 -2.7862  0.4310  0.9550
  590SOL    HW2 1770   1.385   1.186   0.314  0.0561  0.1265 -0.5132
  591SOL     OW 1771   2.306   2.301   2.034 -0.2094  0.6586  0.0674
  591SOL    HW1 1772   2.271   2.304   2.130 -2.3829  1.3805  3.0003
  591SOL    HW2 1773   2.382   2.233   2.026  0.9993 -1.2491  0.5757
  592SOL     OW 1774   1.506   2.013   1.229 -0.2607 -0.1905 -0.3209
  592SOL    HW1 1775   1.519   1.962   1.315  0.2471  0.3531 -1.3008
  592SOL    HW2 1776   1.420   2.062   1.231  4.0224 -3.0800  1.2525
  593SOL     OW 1777   0.649   0.219   0.728 -0.1357 -0.1972 -0.0801
  593SOL    HW1 1778   0.721   0.147   0.736 -1.9975 -0.9138 -0.4276
  593SOL    HW2 1779   0.692   0.309   0.744  0.7617 -0.0785  2.1439
  594SOL     OW 1780   3.024   0.766   1.802 -0.2505  0.2161 -0.0015
  594SOL    HW1 1781   3.027   0.829   1.879  1.7275  0.3937  0.7768
  594SOL    HW2 1782   0.022   0.729   1.779 -1.1870  1.5112 -2.2507
  595SOL     OW 1783   0.053   2.842   0.643  0.5331  0.2318  0.5541
  595SOL    HW1 1784   0.080   2.901   0.570 -0.7745 -1.6635 -1.0983
  595SOL    HW2 1785   3.049   2.816   0.646  0.5835 -0.4444 -0.4115
  596SOL     OW 1786   0.231   0.276   1.539  0.3069  0.2034  0.0618
  596SOL    HW1 1787   0.290   0.334   1.481  0.8830 -0.3037  1.5668
  596SOL    HW2 1788   0.182   0.208   1.477 -2.0342 -1.5114 -2.2306
  597SOL     OW 1789   2.237   1.049   0.381 -0.0281 -0.1583  0.2537
  597SOL    HW1 1790   2.258   1.091   0.289  0.8500 -0.0432 -1.1422
  597SOL    HW2 1791   2.276   1.114   0.453  0.0144 -0.3796 -1.2646
  598SOL     OW 1792   0.576   0.099   1.928  0.0606 -0.0849  0.2523
  598SOL    HW1 1793   0.479   0.090   1.892  2.0840  0.5427 -2.0368
  598SOL    HW2 1794   0.584   0.185   1.979 -1.8435  2.3175 -2.1065
  599SOL     OW 1795   2.656   1.652   0.135  0.0478 -0.0543  0.2168
  599SOL    HW1 1796   2.667   1.755   0.132 -0.4262  3.7431 -0.3219
  599SOL    HW2 1797   2.713   1.610   0.065  0.7093 -0.2491 -0.3852
  600SOL     OW 1798   1.019   1.166   3.052 -0.2916  0.2358 -0.3125
  600SOL    HW1 1799   0.955   1.232   3.006  0.6878 -1.1761 -0.9855
  600SOL    HW2 1800   0.971   1.080   3.076  0.7171  1.8274 -0.8346
  601SOL     OW 1801   1.273   1.266   3.017  0.0125  0.7561 -0.4046
  601SOL    HW1 1802   1.242   1.361   3.011 -0.5879 -0.1357  0.0419
  601SOL    HW2 1803   1.189   1.207   3.010  1.0738  1.1966 -1.6671
  602SOL     OW 1804   1.163   2.998   1.497  0.5457 -0.3122  0.6183
  602SOL    HW1 1805   1.184   2.958   1.593  1.6198 -0.3422  4.2812
  602SOL    HW2 1806   1.234   3.062   1.463  0.6006 -1.2674  1.5396
  603SOL     OW 1807   0.859   2.886   2.474 -0.0080 -0.1677 -0.0282
  603SOL    HW1 1808   0.920   2.810   2.493 -0.4784  2.1759 -2.3304
  603SOL    HW2 1809   0.906   2.974   2.497 -0.6383  1.7217  3.2961
  604SOL     OW 1810   2.854   0.129   2.104  0.1515  0.3260 -0.2508
  604SOL    HW1 1811   2.811   0.218   2.118 -0.5748 -4.2112 -1.2601
  604SOL    HW2 1812   2.861   0.080   2.200 -0.3599  0.2601  1.4425
  605SOL     OW 1813   2.564   2.424   1.241  0.0886  0.1240 -0.4593
  605SOL    HW1 1814   2.477   2.376   1.246 -0.0497  2.0285 -0.8809
  605SOL    HW2 1815   2.544   2.524   1.251  0.2688  1.5092  0.5776
  606SOL     OW 1816   2.968   1.814   2.822  0.3731 -0.4001  0.5634
  606SOL    HW1 1817   2.996   1.909   2.856  0.9971  3.5639 -0.2676
  606SOL    HW2 1818   2.963   1.754   2.900 -2.4371  2.1315 -1.6927
  607SOL     OW 1819   1.064   0.055   0.728  0.4609  0.1381  0.1114
  607SOL    HW1 1820   1.131   0.102   0.665  0.3797 -0.3794 -0.6907
  607SOL    HW2 1821   1.092   0.044   0.824 -1.8591  0.7709 -0.4821
  608SOL     OW 1822   1.507   1.682   2.223 -0.1874 -0.5273  0.5249
  608SOL    HW1 1823   1.429   1.654   2.283  0.9134 -1.6648 -0.2847
  608SOL    HW2 1824   1.573   1.606   2.218 -0.7010 -0.6957 -0.5847
  609SOL     OW 1825   2.801   0.464   1.021 -0.2287  0.4020 -0.1392
  609SOL    HW1 1826   2.883   0.405   1.008  2.3321  1.3191 -1.8303
  609SOL    HW2 1827   2.838   0.560   1.009  2.4662 -1.2769  0.5675
  610SOL     OW 1828   0.729   2.511   2.998  0.1470  0.2866  0.3247
  610SOL    HW1 1829   0.824   2.534   3.032  2.0439  0.0518  1.4288
  610SOL    HW2 1830   0.731   2.413   2.976  0.7159  0.5111  0.9665
  611SOL     OW 1831   1.957   1.429   0.560  0.4025  0.2963  0.1846
  611SOL    HW1 1832   2.012   1.400   0.477  2.0202  1.8503  0.8043
  611SOL    HW2 1833   1.884   1.356   0.581 -0.9302 -0.4471  3.0142
  612SOL     OW 1834   0.817   2.505   2.474  0.3042  0.3667 -0.2532
  612SOL    HW1 1835   0.790   2.560   2.555 -1.2054 -1.5038 -0.1612
  612SOL    HW2 1836   0.793   2.553   2.384 -2.1011 -1.6340 -1.8790
  613SOL     OW 1837   1.279   1.698   0.387 -0.4069  0.2227  0.8852
  613SOL    HW1 1838   1.361   1.669   0.441 -0.8494 -1.0552 -0.8216
  613SOL    HW2 1839   1.268   1.798   0.389 -0.6986  0.6332  1.5786
  614SOL     OW 1840   2.730   2.243   1.691 -0.3225  0.1776 -0.0414
  614SOL    HW1 1841   2.718   2.142   1.660  2.1630 -0.2501 -1.0614
  614SOL    HW2 1842   2.744   2.251   1.789 -1.4457 -3.9085 -0.0877
  615SOL     OW 1843   2.546   1.349   0.071 -0.2823  0.2974  0.1653
  615SOL    HW1 1844   2.618   1.420   0.065  2.3213 -0.3879 -1.6405
  615SOL    HW2 1845   2.475   1.361   0.001  2.1871 -0.3918  0.6750
  616SOL     OW 1846   1.600   3.031   1.031 -0.6062 -0.0810  0.2785
  616SOL    HW1 1847   1.645   0.023   1.054 -1.1136 -0.3655  1.2597
  616SOL    HW2 1848   1.556   3.002   1.118  0.2434 -0.4006 -2.4866
  617SOL     OW 1849   0.752   1.105   2.792  0.3666 -0.6381 -0.0269
  617SOL    HW1 1850   0.817   1.165   2.840 -0.6246 -0.6932 -0.2452
  617SOL    HW2 1851   0.666   1.155   2.773 -3.3923 -0.9720 -0.2804
  618SOL     OW 1852   0.469   0.589   1.547 -0.4733  0.0293  0.1187
  618SOL    HW1 1853   0.403   0.651   1.504 -1.7984  0.3090 -2.0561
  618SOL    HW2 1854   0.556   0.583   1.489  3.3827  1.2273  0.2148
  619SOL     OW 1855   2.856   0.795   1.584  0.0954  0.0587 -0.4046
  619SOL    HW1 1856   2.915   0.766   1.506  2.1526  1.5252  0.8939
  619SOL    HW2 1857   2.914   0.790   1.669 -1.3568 -0.9283  1.3803
  620SOL     OW 1858   2.020   1.253   0.122  0.4151  0.2144 -0.0637
  620SOL    HW1 1859   1.979   1.157   0.125  2.0827 -0.2285  0.2878
  620SOL    HW2 1860   2.030   1.285   0.026 -0.5164  1.6597 -2.2720
  621SOL     OW 1861   2.213   2.944   1.343 -0.0812 -0.5370  0.0976
  621SOL    HW1 1862   2.294   3.017   1.352  3.7949  2.1909  3.1425
  621SOL    HW2 1863   2.228   2.858   1.394  0.3018 -0.2896  0.1940
  622SOL     OW 1864   1.421   0.781   2.127 -0.3171 -0.3698 -0.6381
  622SOL    HW1 1865   1.521   0.792   2.122  0.5731 -0.6081 -0.0948
  622SOL    HW2 1866   1.399   0.680   2.129  1.4162  0.7101 -0.7124
  623SOL     OW 1867   1.004   0.757   2.810 -0.0646 -0.9731  0.2677
  623SOL    HW1 1868   0.914   0.794   2.836  3.2362  1.0884  1.8378
  623SOL    HW2 1869   1.067   0.830   2.777  0.6272 -0.8692 -1.2675
  624SOL     OW 1870   1.753   0.460   0.800 -0.0880  0.7420  0.4549
  624SOL    HW1 1871   1.652   0.439   0.798 -2.0863  0.5437  0.6622
  624SOL    HW2 1872   1.796   0.391   0.744 -4.0989  1.1068  1.3522
  625SOL     OW 1873   0.761   1.623   0.660  0.0095  0.0005  0.6490
  625SOL    HW1 1874   0.797   1.555   0.593  0.7194 -0.3282  0.1869
  625SOL    HW2 1875   0.671   1.598   0.692  1.2089 -0.3599 -0.8025
  626SOL     OW 1876   1.630   1.196   2.549 -0.1280  0.2172  0.1638
  626SOL    HW1 1877   1.621   1.245   2.462 -1.8587  0.7175 -2.4680
  626SOL    HW2 1878   1.653   1.259   2.624  0.0457  0.7071  0.4013
  627SOL     OW 1879   0.735   0.402   1.761  0.0184  0.0194 -0.8392
  627SOL    HW1 1880   0.747   0.301   1.755 -2.6686 -0.1857 -2.0395
  627SOL    HW2 1881   0.637   0.428   1.769 -2.8500  2.3946 -2.2897
  628SOL     OW 1882   2.185   0.501   2.417  0.1355 -0.6858 -0.1312
  628SOL    HW1 1883   2.150   0.551   2.500 -3.0795  1.6722 -1.0983
  628SOL    HW2 1884   2.125   0.501   2.333  0.9453 -1.8424 -1.3536
  629SOL     OW 1885   0.885   1.570   0.053 -0.3376 -0.2220  0.0756
  629SOL    HW1 1886   0.940   1.644   0.011  0.2910  0.7930  3.6947
  629SOL    HW2 1887   0.787   1.572   0.016 -0.6393  1.1276  1.7304
  630SOL     OW 1888   1.060   0.330   2.068 -0.0602 -0.3190  0.7444
  630SOL    HW1 1889   1.055   0.349   1.968 -0.7231  0.7904  1.2985
  630SOL    HW2 1890   0.976   0.356   2.120  1.1171 -0.2088  0.5169
  631SOL     OW 1891   2.470   1.150   0.835 -0.2569 -0.5448  0.2686
  631SOL    HW1 1892   2.496   1.198   0.918  0.8962  1.4233 -2.6998
  631SOL    HW2 1893   2.369   1.156   0.819 -0.1342  0.2286  0.0272
  632SOL     OW 1894   2.355   1.616   0.745 -0.6132 -0.1485  0.2771
  632SOL    HW1 1895   2.406   1.576   0.671 -0.6377  0.4944 -0.5921
  632SOL    HW2 1896   2.287   1.687   0.714  0.9320 -3.0534  1.1042
  633SOL     OW 1897   0.941   1.170   0.879 -0.0635 -0.1691 -0.0349
  633SOL    HW1 1898   0.903   1.149   0.973  1.7123  0.0169 -1.7481
  633SOL    HW2 1899   0.953   1.272   0.863  0.5658  0.4080 -1.0517
  634SOL     OW 1900   1.625   3.078   0.773  0.2672 -0.5490  0.2153
  634SOL    HW1 1901   1.619   3.055   0.875  0.0546 -1.4364  1.0838
  634SOL    HW2 1902   1.664   2.997   0.727 -2.6429  3.0160 -3.2212
  635SOL     OW 1903   1.956   0.762   1.376  0.0976  0.0389 -0.4131
  635SOL    HW1 1904   2.033   0.711   1.419 -0.3230  0.2010  1.2837
  635SOL    HW2 1905   1.893   0.799   1.446 -0.3301 -0.6230 -0.4337
  636SOL     OW 1906   1.374   0.882   0.688 -0.2001 -0.4443  0.2645
  636SOL    HW1 1907   1.295   0.927   0.733 -0.4243 -0.2891  3.2098
  636SOL    HW2 1908   1.444   0.957   0.672  1.8843  1.2979  1.2237
  637SOL     OW 1909   1.598   2.229   2.963 -0.1280 -0.6913  0.3327
  637SOL    HW1 1910   1.560   2.300   2.897 -1.4368  1.1831  0.2279
  637SOL    HW2 1911   1.677   2.188   2.916 -4.1586 -0.8951  0.0554
  638SOL     OW 1912   1.024   2.807   2.935 -0.5907 -0.2724  0.1783
  638SOL    HW1 1913   1.033   2.709   2.956 -0.5551 -2.9963  0.7162
  638SOL    HW2 1914   0.925   2.838   2.943 -0.1298 -2.4226  0.2465
  639SOL     OW 1915   1.233   1.893   1.415 -0.7025 -0.3485  0.0686
  639SOL    HW1 1916   1.269   1.799   1.391  1.8308 -2.6295  1.5602
  639SOL    HW2 1917   1.172   1.930   1.341 -0.2767 -1.7857 -0.2320
  640SOL     OW 1918   0.597   0.110   2.969  0.0456 -0.1497  0.0088
  640SOL    HW1 1919   0.545   0.036   3.020  1.1953  0.6245  2.2843
  640SOL    HW2 1920   0.597   0.196   3.019 -0.6523 -1.4193  0.4249
  641SOL     OW 1921   0.297   0.442   0.247 -0.1096  0.2393  0.1499
  641SOL    HW1 1922   0.237   0.365   0.272  0.4807 -0.4131 -0.8257
  641SOL    HW2 1923   0.287   0.525   0.305 -0.5510  1.1151  0.1196
  642SOL     OW 1924   0.399   1.441   1.025  0.4988  0.1007  0.0672
  642SOL    HW1 1925   0.455   1.432   1.105 -0.4416 -0.1918 -0.1155
  642SOL    HW2 1926   0.320   1.382   1.018 -1.4693  2.7135  3.6047
  643SOL     OW 1927   0.375   1.911   2.580  0.2199  0.4854  0.5081
  643SOL    HW1 1928   0.418   1.931   2.492  1.7380 -0.8425 -0.6965
  643SOL    HW2 1929   0.305   1.836   2.573  0.0205 -0.9984  0.7174
  644SOL     OW 1930   1.710   2.458   0.146 -0.0981 -0.5890 -0.4445
  644SOL    HW1 1931   1.752   2.366   0.145 -2.0888  0.9410 -2.1388
  644SOL    HW2 1932   1.611   2.457   0.156  0.0072 -0.2997 -0.4301
  645SOL     OW 1933   1.988   2.233   1.625  0.2119 -0.3435 -0.1743
  645SOL    HW1 1934   2.020   2.318   1.671  0.6442  4.0324 -0.8817
  645SOL    HW2 1935   1.993   2.149   1.680  1.0885 -0.8654 -0.9863
  646SOL     OW 1936   0.789   2.621   0.259 -0.2920  0.1184 -0.7417
  646SOL    HW1 1937   0.862   2.676   0.218 -1.7174 -3.6633 -1.4847
  646SOL    HW2 1938   0.695   2.659   0.251  1.2804 -0.5567 -1.2961
  647SOL     OW 1939   0.159   2.976   2.035  0.3463 -0.4286  0.0897
  647SOL    HW1 1940   0.103   3.060   2.054  0.7059 -1.1372  1.6376
  647SOL    HW2 1941   0.246   2.970   2.088 -2.3509  0.8126 -0.8975
  648SOL     OW 1942   2.762   1.110   0.853  0.5986  0.1365  0.4981
  648SOL    HW1 1943   2.810   1.020   0.843 -1.3104  0.6431 -0.2778
  648SOL    HW2 1944   2.663   1.105   0.832  1.1558 -1.5054  1.1358
  649SOL     OW 1945   2.007   2.842   2.635 -0.4070  0.1953 -0.2196
  649SOL    HW1 1946   2.048   2.878   2.547 -1.0533  0.6025 -1.3526
  649SOL    HW2 1947   1.955   2.921   2.676 -1.2986 -0.6697  1.7491
  650SOL     OW 1948   2.340   1.507   1.671 -0.0164  0.3352 -0.0049
  650SOL    HW1 1949   2.286   1.445   1.725  1.7739 -0.8689 -0.1471
  650SOL    HW2 1950   2.442   1.481   1.674 -0.6573  2.7088  1.3426
  651SOL     OW 1951   1.290   1.709   2.789 -0.3406  0.1421  0.0952
  651SOL    HW1 1952   1.222   1.785   2.786 -2.3354  0.1864 -1.3224
  651SOL    HW2 1953   1.379   1.746   2.822 -2.5584 -3.3945  1.1430
  652SOL     OW 1954   0.558   3.022   2.683 -0.2781 -0.9606 -0.1462
  652SOL    HW1 1955   0.654   3.029   2.711 -2.0811  0.5157  1.5220
  652SOL    HW2 1956   0.508   0.011   2.703 -2.0261 -2.1802  1.6935
  653SOL     OW 1957   2.340   1.964   0.882  0.6604  0.0864  0.4265
  653SOL    HW1 1958   2.341   2.068   0.894 -1.3999 -0.2642  0.3097
  653SOL    HW2 1959   2.245   1.929   0.903 -0.0966 -1.0851  0.8375
  654SOL     OW 1960   2.449   2.966   2.082 -0.1120  0.2859  0.0245
  654SOL    HW1 1961   2.398   3.045   2.121 -2.3570  1.6004  0.5537
  654SOL    HW2 1962   2.528   2.995   2.026 -0.1032  1.6827  1.5196
  655SOL     OW 1963   2.642   2.118   1.183  0.3885 -0.1008  0.2672
  655SOL    HW1 1964   2.689   2.196   1.143 -1.7014 -1.8034 -1.2224
  655SOL    HW2 1965   2.543   2.130   1.166  2.2961  1.3238  1.5751
  656SOL     OW 1966   2.467   1.836   2.880 -0.2708  0.6062  0.0658
  656SOL    HW1 1967   2.510   1.924   2.873 -2.0601 -3.4383 -0.2085
  656SOL    HW2 1968   2.509   1.766   2.812  0.9143 -0.9484 -1.6892
  657SOL     OW 1969   0.073   1.091   0.502  0.0265 -0.1367 -0.1556
  657SOL    HW1 1970   3.082   1.065   0.447 -0.1705  0.2285 -0.4332
  657SOL    HW2 1971   0.042   1.123   0.593 -1.7865 -1.4085 -0.8522
  658SOL     OW 1972   1.398   1.498   1.537 -0.1818  0.0588  0.1742
  658SOL    HW1 1973   1.328   1.540   1.477 -1.7229 -1.3579  1.1390
  658SOL    HW2 1974   1.361   1.423   1.595  1.4423  0.1799  0.7083
  659SOL     OW 1975   0.864   3.081   1.040  0.1297  0.3398 -0.1758
  659SOL    HW1 1976   0.952   0.010   1.005 -2.3945 -1.0133  0.8968
  659SOL    HW2 1977   0.838   0.029   1.133 -0.8435 -0.1136  2.9278
  660SOL     OW 1978   2.343   0.764   1.077 -0.2154 -0.1762  0.2617
  660SOL    HW1 1979   2.364   0.774   0.974 -1.5253  2.4655 -1.5018
  660SOL    HW2 1980   2.263   0.704   1.088 -0.2834  0.3737 -0.9247
  661SOL     OW 1981   0.551   1.806   0.014 -0.0917  0.5315 -0.4984
  661SOL    HW1 1982   0.493   1.867   0.067  1.0037  0.6905 -1.0540
  661SOL    HW2 1983   0.613   1.860   3.044  1.8905  2.5812 -2.2834
  662SOL     OW 1984   2.336   0.701   2.112 -0.2272  0.0366  0.1156
  662SOL    HW1 1985   2.376   0.709   2.209 -1.0191  1.3384  2.0147
  662SOL    HW2 1986   2.409   0.719   2.044 -0.3780  1.2936 -0.8149
  663SOL     OW 1987   2.029   1.277   1.238  0.3159 -0.0467  0.1851
  663SOL    HW1 1988   1.950   1.289   1.175  0.6183  0.2939 -1.0655
  663SOL    HW2 1989   2.102   1.223   1.189  1.1571  0.0704  1.0849
  664SOL     OW 1990   0.310   2.988   1.116 -0.1332  0.0476  0.0575
  664SOL    HW1 1991   0.330   3.009   1.015  0.6479  1.0203 -2.1223
  664SOL    HW2 1992   0.340   2.897   1.139  1.1248  2.4158  0.2703
  665SOL     OW 1993   1.540   0.374   2.954 -0.3755 -0.3892  0.5671
  665SOL    HW1 1994   1.635   0.346   2.985  3.4351 -3.1230  1.4813
  665SOL    HW2 1995   1.514   0.472   2.947 -0.7736  1.6706 -1.6702
  666SOL     OW 1996   0.581   0.279   2.144 -0.2809 -0.7564  0.0950
  666SOL    HW1 1997   0.518   0.230   2.205  1.0355  2.1390 -0.0662
  666SOL    HW2 1998   0.525   0.342   2.087  0.8730  0.6173  0.2272
  667SOL     OW 1999   1.835   1.561   1.662 -0.0390  0.8244  0.1481
  667SOL    HW1 2000   1.924   1.608   1.665 -2.0243 -1.8316  0.4516
  667SOL    HW2 2001   1.846   1.480   1.726  0.1661 -0.9980 -1.3161
  668SOL     OW 2002   0.066   1.379   2.221 -0.0389 -0.1420 -0.1792
  668SOL    HW1 2003   0.088   1.297   2.285  0.3517 -2.7614 -0.1627
  668SOL    HW2 2004   0.081   1.348   2.126 -0.3083 -1.4037  1.1533
  669SOL     OW 2005   2.305   2.667   0.045 -0.2218 -0.2620  0.1427
  669SOL    HW1 2006   2.393   2.703   3.094  3.0730  1.7103 -2.4264
  669SOL    HW2 2007   2.305   2.679   0.147  0.4610  0.3896  0.0249
  670SOL     OW 2008   2.594   1.298   2.019  0.2566  0.1779 -0.0098
  670SOL    HW1 2009   2.600   1.200   1.994 -1.7641 -0.8001  2.0518
  670SOL    HW2 2010   2.679   1.326   2.068 -0.1015  0.9034 -0.2783
  671SOL     OW 2011   2.655   1.827   0.566  0.4573  0.0487  0.3789
  671SOL    HW1 2012   2.713   1.766   0.509 -1.3388  1.8526 -0.7883
  671SOL    HW2 2013   2.686   1.928   0.564  1.1127  3.6109  2.5378
  672SOL     OW 2014   1.308   1.217   2.209 -0.0343 -0.3799  0.4387
  672SOL    HW1 2015   1.342   1.268   2.127 -1.1120 -1.3252 -1.6780
  672SOL    HW2 2016   1.206   1.206   2.189 -0.7351 -0.6360 -1.9739
  673SOL     OW 2017   2.885   1.942   1.534  0.0293 -0.0182 -0.2501
  673SOL    HW1 2018   2.788   1.961   1.501 -1.2825 -1.1543  1.7066
  673SOL    HW2 2019   2.958   1.984   1.477  0.3785 -1.6151 -0.1584
  674SOL     OW 2020   1.098   1.640   1.653  0.7882  0.0700  0.1994
  674SOL    HW1 2021   1.152   1.618   1.571  0.4814 -0.7960  1.1172
  674SOL    HW2 2022   1.008   1.681   1.624  1.2933  1.1469  0.8415
  675SOL     OW 2023   0.077   0.870   1.274  0.6851 -0.7719 -0.0398
  675SOL    HW1 2024   0.117   0.817   1.196  0.5128  2.7883 -2.3297
  675SOL    HW2 2025   0.004   0.816   1.323 -0.1866  0.2805  0.4560
  676SOL     OW 2026   2.914   1.055   1.295  0.1537 -0.1783  0.1388
  676SOL    HW1 2027   2.837   1.002   1.249 -0.0490 -1.3276 -1.3568
  676SOL    HW2 2028   2.909   1.039   1.395  2.0259  0.8814  0.1695
  677SOL     OW 2029   2.066   1.432   2.572 -0.1369  0.3873 -0.4955
  677SOL    HW1 2030   2.037   1.351   2.520  0.0877 -0.6625  0.7993
  677SOL    HW2 2031   2.088   1.513   2.511 -0.2222  0.3096 -1.2468
  678SOL     OW 2032   2.980   1.647   1.055  0.6627 -0.6336  0.0222
  678SOL    HW1 2033   2.973   1.620   0.956 -0.2583  0.4180 -0.5654
  678SOL    HW2 2034   3.027   1.735   1.075 -1.7727  0.4318 -0.4533
  679SOL     OW 2035   0.372   2.662   0.451 -0.2503  0.1702 -0.4066
  679SOL    HW1 2036   0.463   2.646   0.494  1.1880 -1.3514  3.6887
  679SOL    HW2 2037   0.317   2.581   0.442  0.5245  2.3409  0.7602
  680SOL     OW 2038   0.278   1.690   0.914 -0.3769 -0.1449 -0.1968
  680SOL    HW1 2039   0.209   1.741   0.976 -1.5280  1.5033  1.5933
  680SOL    HW2 2040   0.329   1.622   0.968 -0.6095 -0.4960 -0.0686
  681SOL     OW 2041   1.155   0.048   0.966  0.2475 -0.1703 -0.7940
  681SOL    HW1 2042   1.186   0.139   0.997  1.0068 -1.6479  0.8138
  681SOL    HW2 2043   1.204   3.067   1.016 -1.5921 -0.2245 -1.3568
  682SOL     OW 2044   1.649   2.908   1.814 -0.8738  0.4209  0.4143
  682SOL    HW1 2045   1.676   2.812   1.839  0.2353 -0.6034 -0.3441
  682SOL    HW2 2046   1.717   2.951   1.748 -0.8365  1.9719 -1.1144
  683SOL     OW 2047   2.447   1.324   1.321 -0.2518  0.0222  0.3212
  683SOL    HW1 2048   2.408   1.412   1.346 -1.6058 -0.0499  2.2566
  683SOL    HW2 2049   2.549   1.317   1.321 -0.8409 -0.5428 -0.5367
  684SOL     OW 2050   2.985   1.412   1.714 -0.0598  0.2574  0.2103
  684SOL    HW1 2051   2.893   1.435   1.678 -0.0110 -0.1714  0.4721
  684SOL    HW2 2052   3.046   1.495   1.715  1.2283 -0.5570  0.7792
  685SOL     OW 2053   1.719   1.677   0.178 -0.3915 -0.0564  0.2617
  685SOL    HW1 2054   1.695   1.778   0.192  0.2526  1.2791  0.4993
  685SOL    HW2 2055   1.696   1.653   0.079 -0.0189  0.6949  2.7271
  686SOL     OW 2056   3.021   0.681   1.395  0.2300  0.1161  0.1651
  686SOL    HW1 2057   3.092   0.635   1.447  2.3125 -0.0147 -0.4066
  686SOL    HW2 2058   2.974   0.609   1.338 -0.7982 -4.5767 -1.4506
  687SOL     OW 2059   1.698   0.053   2.818 -0.1118 -0.1105 -0.3974
  687SOL    HW1 2060   1.683   0.072   2.915  0.9117  1.0986 -1.7739
  687SOL    HW2 2061   1.666   0.131   2.762  0.0221 -0.8131 -0.3544
  688SOL     OW 2062   1.260   1.914   2.484  0.3794  0.0203  0.3482
  688SOL    HW1 2063   1.307   1.944   2.571  0.0734  1.4021  1.3434
  688SOL    HW2 2064   1.303   1.972   2.412 -1.6051  1.6634  2.4481
  689SOL     OW 2065   2.199   1.308   1.813 -0.0848 -0.1485  0.2195
  689SOL    HW1 2066   2.242   1.245   1.884  2.4712  1.5945  2.8317
  689SOL    HW2 2067   2.183   1.252   1.730  2.6696 -0.2693 -1.5332
  690SOL     OW 2068   2.343   2.304   1.303 -0.3991 -0.5075 -0.1942
  690SOL    HW1 2069   2.357   2.211   1.266  0.4487  1.2849  0.3283
  690SOL    HW2 2070   2.243   2.326   1.297 -1.5865  2.3261  1.9307
  691SOL     OW 2071   0.515   1.806   0.439 -0.2143  0.5327 -0.0629
  691SOL    HW1 2072   0.494   1.819   0.539  0.0807 -0.9966 -1.6771
  691SOL    HW2 2073   0.586   1.867   0.404  2.3175 -1.9290 -0.3278
  692SOL     OW 2074   2.876   2.925   2.659 -0.2979  0.6653  0.0131
  692SOL    HW1 2075   2.785   2.900   2.626  2.3108 -1.0175  2.0389
  692SOL    HW2 2076   2.947   2.860   2.626  0.1472 -1.4069  0.4948
  693SOL     OW 2077   0.017   1.309   1.950  0.8319 -0.0971  0.2712
  693SOL    HW1 2078   0.006   1.349   1.857  1.7509  1.6437  2.2608
  693SOL    HW2 2079   0.110   1.266   1.953 -2.5739 -1.4791  0.9229
  694SOL     OW 2080   2.333   0.122   2.173  0.2558  0.2125  0.3185
  694SOL    HW1 2081   2.357   0.176   2.087 -0.5172  1.6200 -3.9852
  694SOL    HW2 2082   2.235   0.130   2.196 -3.4518 -0.0604  1.0701
  695SOL     OW 2083   1.008   0.968   2.332  0.2091 -0.0801 -0.6609
  695SOL    HW1 2084   1.106   0.952   2.310  0.0131  0.3420 -3.3927
  695SOL    HW2 2085   1.007   1.050   2.394 -1.2917  1.2633  1.3182
  696SOL     OW 2086   2.010   2.795   1.639 -0.4007 -0.2153  0.2273
  696SOL    HW1 2087   1.972   2.702   1.662 -0.0801 -1.9130 -1.8057
  696SOL    HW2 2088   1.951   2.865   1.674  6.0807 -0.6804  0.9464
  697SOL     OW 2089   1.098   0.112   2.275 -0.3395 -0.3898 -0.4065
  697SOL    HW1 2090   1.066   0.021   2.249 -0.0423 -1.8551 -0.0435
  697SOL    HW2 2091   1.101   0.167   2.188 -0.6083 -2.1580  0.4648
  698SOL     OW 2092   2.353   1.786   2.398 -0.3017  0.0418 -0.2712
  698SOL    HW1 2093   2.325   1.848   2.323  0.0635  0.3798 -1.5566
  698SOL    HW2 2094   2.431   1.726   2.378 -2.5195 -0.3474 -0.0617
  699SOL     OW 2095   1.850   0.716   0.171 -0.3456  0.8217 -0.1566
  699SOL    HW1 2096   1.936   0.744   0.218 -1.5894  0.7939  1.8227
  699SOL    HW2 2097   1.772   0.681   0.227 -3.2290  1.6500  1.0639
  700SOL     OW 2098   1.250   2.928   1.093 -0.2299 -0.6526  0.4185
  700SOL    HW1 2099   1.311   2.950   1.169 -2.1670 -0.6602  3.0897
  700SOL    HW2 2100   1.181   2.860   1.125 -2.7406 -0.9996 -1.7536
  701SOL     OW 2101   3.019   0.685   0.400 -0.0675  0.2400  0.3683
  701SOL    HW1 2102   3.090   0.690   0.323 -0.1307  1.9848 -0.2905
  701SOL    HW2 2103   3.059   0.706   0.492 -0.7513  1.8282  2.4382
  702SOL     OW 2104   1.575   0.073   1.566 -0.0371 -0.0332 -0.2269
  702SOL    HW1 2105   1.482   0.096   1.540  3.1181  0.9636 -1.1135
  702SOL    HW2 2106   1.591   0.077   1.664 -1.5049 -0.1860 -0.7248
  703SOL     OW 2107   2.877   0.748   1.074 -0.1905 -0.3851 -0.3980
  703SOL    HW1 2108   2.777   0.756   1.096 -0.1965  0.8404 -1.8670
  703SOL    HW2 2109   2.938   0.790   1.145  1.9625 -0.5893 -0.1459
  704SOL     OW 2110   0.864   2.600   1.354 -0.0899 -0.1186  0.2459
  704SOL    HW1 2111   0.913   2.514   1.338 -1.8017  2.7227 -0.8883
  704SOL    HW2 2112   0.774   2.590   1.309  1.3211  0.0385  3.4104
  705SOL     OW 2113   0.320   1.729   2.947  0.2331  0.0920 -0.6207
  705SOL    HW1 2114   0.307   1.698   2.850 -2.6976 -0.0308 -3.6084
  705SOL    HW2 2115   0.421   1.734   2.974 -0.0053  0.5841  1.6690
  706SOL     OW 2116   3.086   0.101   0.083  0.4109  0.1294  0.2763
  706SOL    HW1 2117   3.021   0.184   0.090 -3.7908 -0.4291  0.1131
  706SOL    HW2 2118   3.062   0.024   0.147 -2.1852 -0.0389  0.4264
  707SOL     OW 2119   1.596   3.045   2.310  0.3195  0.0698 -0.3711
  707SOL    HW1 2120   1.515   0.015   2.289 -1.6563 -0.8930  0.4136
  707SOL    HW2 2121   1.637   2.997   2.234  1.9461  2.3096  1.7277
  708SOL     OW 2122   0.271   3.017   1.549  0.2291 -0.3770  0.0936
  708SOL    HW1 2123   0.308   3.058   1.465  1.8318 -0.5754  0.6470
  708SOL    HW2 2124   0.285   2.918   1.543 -0.2887  0.5812 -0.3329
  709SOL     OW 2125   0.143   0.590   1.510 -0.3914 -0.2096  0.2319
  709SOL    HW1 2126   0.210   0.544   1.448 -1.5253  2.7392 -0.9371
  709SOL    HW2 2127   0.170   0.594   1.611  0.0975  1.2512  2.2212
  710SOL     OW 2128   0.357   0.859   0.892  0.0535 -0.1127  0.2417
  710SOL    HW1 2129   0.368   0.957   0.904  0.7999 -0.5317  0.2305
  710SOL    HW2 2130   0.281   0.822   0.947  0.6586 -0.0874 -1.1834
  711SOL     OW 2131   2.517   2.968   1.639 -0.1777 -0.7854 -0.7078
  711SOL    HW1 2132   2.422   2.927   1.660 -0.7313 -0.2569  0.6989
  711SOL    HW2 2133   2.532   3.059   1.682 -1.3797  0.2901 -2.4290
  712SOL     OW 2134   0.140   2.487   2.265 -0.0076  0.5012  0.0401
  712SOL    HW1 2135   0.042   2.464   2.276  0.2580  0.1062  0.8124
  712SOL    HW2 2136   0.193   2.404   2.289  0.1409 -1.8021 -1.6144
  713SOL     OW 2137   2.527   0.412   0.559  0.0360  0.7545  0.2618
  713SOL    HW1 2138   2.469   0.376   0.481  0.0132 -2.7408  0.7427
  713SOL    HW2 2139   2.621   0.364   0.557  0.3474 -1.1879  1.9054
  714SOL     OW 2140   1.813   1.916   2.468 -0.0936  0.6257 -0.0524
  714SOL    HW1 2141   1.731   1.917   2.409 -0.0188  2.4683  0.5363
  714SOL    HW2 2142   1.875   1.986   2.431 -0.1711  1.9096 -0.7814
  715SOL     OW 2143   0.021   0.569   0.942  0.1183  0.0887  0.5169
  715SOL    HW1 2144   3.085   0.475   0.967  2.8070  0.7421  1.0400
  715SOL    HW2 2145   3.073   0.594   0.853  1.5180  0.4745 -2.3932
  716SOL     OW 2146   0.869   0.546   1.559 -0.3271 -0.0097 -0.5534
  716SOL    HW1 2147   0.801   0.560   1.487  4.0154 -0.0433  3.1867
  716SOL    HW2 2148   0.818   0.535   1.653 -1.2364 -0.6419  2.8215
  717SOL     OW 2149   0.751   0.572   2.369  0.5038 -0.0222  0.1160
  717SOL    HW1 2150   0.779   0.486   2.329 -0.7800  0.2574 -1.5519
  717SOL    HW2 2151   0.692   0.559   2.449 -0.3015 -0.0623  0.8857
  718SOL     OW 2152   1.226   0.152   0.513 -0.3535 -0.2445  0.0661
  718SOL    HW1 2153   1.225   0.253   0.522 -1.6793  2.3793 -4.7344
  718SOL    HW2 2154   1.149   0.117   0.455 -2.5471 -1.1714  0.0412
  719SOL     OW 2155   2.922   2.206   2.816  0.2061 -0.3802  0.5096
  719SOL    HW1 2156   2.861   2.181   2.741  1.2245 -0.9770 -1.6087
  719SOL    HW2 2157   2.937   2.308   2.817 -1.2136 -0.3066 -1.5949
  720SOL     OW 2158   1.144   0.539   1.586  0.0209  0.0684 -0.6554
  720SOL    HW1 2159   1.173   0.613   1.655 -1.3334  2.2571  6.5048
  720SOL    HW2 2160   1.045   0.551   1.565 -1.7226  1.3706  1.1903
  721SOL     OW 2161   2.879   2.801   0.695 -0.1451 -0.1180 -0.2792
  721SOL    HW1 2162   2.914   2.769   0.783 -0.5131  0.1406  2.6880
  721SOL    HW2 2163   2.813   2.880   0.708  1.0566  0.5072 -0.9645
  722SOL     OW 2164   0.872   1.334   2.910  0.0327 -0.1255  0.0942
  722SOL    HW1 2165   0.902   1.423   2.871  0.6971  1.1386 -0.2447
  722SOL    HW2 2166   0.770   1.339   2.926 -1.4815 -3.3386 -1.9329
  723SOL     OW 2167   2.465   0.581   1.544  0.3255  0.1118 -0.1468
  723SOL    HW1 2168   2.462   0.498   1.484  3.0424 -0.0866 -3.2230
  723SOL    HW2 2169   2.414   0.662   1.502 -1.3141 -2.5271 -1.3302
  724SOL     OW 2170   1.033   1.938   0.254  0.1041 -0.3411  0.1163
  724SOL    HW1 2171   1.075   1.909   0.167 -0.7707  1.3055  1.8051
  724SOL    HW2 2172   1.100   1.947   0.329 -0.9798 -0.1379 -0.2188
  725SOL     OW 2173   0.324   0.798   1.406  0.5990  0.1984 -0.3282
  725SOL    HW1 2174   0.354   0.841   1.319 -0.2984  2.0095 -1.3791
  725SOL    HW2 2175   0.222   0.784   1.418 -1.4609 -0.2217  2.3105
  726SOL     OW 2176   2.427   1.066   2.945 -0.0809  0.2127 -0.2736
  726SOL    HW1 2177   2.342   1.017   2.965 -0.0773  0.7140 -0.1059
  726SOL    HW2 2178   2.425   1.143   3.010  0.2028  2.5709  0.0006
  727SOL     OW 2179   1.822   1.172   2.903 -0.0510  0.2494 -0.0618
  727SOL    HW1 2180   1.755   1.199   2.976  0.5644  0.5789 -3.0543
  727SOL    HW2 2181   1.808   1.230   2.820 -0.5339  1.1866  2.1630
  728SOL     OW 2182   1.704   2.473   1.321 -0.0318 -0.0210 -0.2863
  728SOL    HW1 2183   1.756   2.516   1.240  0.5706  2.5655 -3.3448
  728SOL    HW2 2184   1.662   2.384   1.294  4.5455 -0.0897  1.0175
  729SOL     OW 2185   1.829   0.791   2.271 -0.2962  0.3807 -0.2361
  729SOL    HW1 2186   1.917   0.772   2.222  0.1044  2.3097  2.2102
  729SOL    HW2 2187   1.841   0.880   2.320  3.8336 -4.0766 -2.6110
  730SOL     OW 2188   1.339   0.514   0.996  0.3779 -0.1625  0.1032
  730SOL    HW1 2189   1.305   0.595   1.054 -1.0339  1.7595  1.4072
  730SOL    HW2 2190   1.287   0.431   1.027 -0.7084 -2.2032  3.9113
  731SOL     OW 2191   0.562   0.564   2.846 -0.4288  0.0822 -0.2746
  731SOL    HW1 2192   0.623   0.646   2.855  1.9887 -3.0443 -2.0027
  731SOL    HW2 2193   0.464   0.588   2.859 -1.2128 -1.8637  0.0750
  732SOL     OW 2194   0.680   0.875   0.551 -0.4436  0.4993 -0.0803
  732SOL    HW1 2195   0.764   0.920   0.581 -1.2218  1.7188 -1.5369
  732SOL    HW2 2196   0.598   0.927   0.572  0.7396  2.1543  2.0013
  733SOL     OW 2197   1.309   1.677   2.047  0.3204  0.2696 -0.1838
  733SOL    HW1 2198   1.233   1.637   2.101  1.0582 -0.8744  0.0527
  733SOL    HW2 2199   1.390   1.689   2.110  1.3925  0.2052 -1.0605
  734SOL     OW 2200   0.102   2.276   2.878 -0.3952 -0.7626  0.3642
  734SOL    HW1 2201   0.076   2.372   2.883  2.0107 -3.0707  0.8708
  734SOL    HW2 2202   0.018   2.222   2.853 -0.4379  0.0745 -0.0444
  735SOL     OW 2203   2.469   0.539   0.788  0.4200 -0.1621  0.1124
  735SOL    HW1 2204   2.379   0.587   0.774 -1.4394  0.0755 -0.3216
  735SOL    HW2 2205   2.501   0.491   0.702 -0.3273 -2.5115 -2.6460
  736SOL     OW 2206   2.131   1.627   2.387  0.2333 -0.4623  0.5817
  736SOL    HW1 2207   2.222   1.668   2.399 -0.9898 -1.4694  0.5777
  736SOL    HW2 2208   2.075   1.698   2.338  2.0280 -2.3179  3.7297
  737SOL     OW 2209   2.873   0.444   0.341 -0.3787  0.2200  0.2349
  737SOL    HW1 2210   2.792   0.496   0.296 -0.2203  0.9392 -0.1690
  737SOL    HW2 2211   2.946   0.509   0.380 -1.3027  0.5963  1.4734
  738SOL     OW 2212   0.648   2.150   1.340  0.0789 -0.4949  0.4253
  738SOL    HW1 2213   0.597   2.211   1.404  0.2481  4.6048  0.8850
  738SOL    HW2 2214   0.593   2.069   1.322  1.4456  0.6052  0.0724
  739SOL     OW 2215   1.432   2.730   2.122 -0.2528  0.6021 -0.5394
  739SOL    HW1 2216   1.431   2.652   2.058  1.0502 -1.3474  0.5917
  739SOL    HW2 2217   1.367   2.808   2.104  1.8748  1.1771 -0.9475
  740SOL     OW 2218   2.077   2.609   1.222  0.4815  0.2295 -0.9275
  740SOL    HW1 2219   2.088   2.526   1.283  0.3781 -0.5170 -0.7827
  740SOL    HW2 2220   2.122   2.689   1.263  0.8498  0.9137 -0.3093
  741SOL     OW 2221   2.094   0.212   0.251 -0.6905 -0.4808  0.0760
  741SOL    HW1 2222   2.120   0.307   0.230 -1.9872  0.5480  1.0530
  741SOL    HW2 2223   2.036   0.205   0.338 -0.7798 -0.6796  0.5502
  742SOL     OW 2224   1.430   2.515   0.196  0.0063  0.4892  0.2136
  742SOL    HW1 2225   1.360   2.586   0.224 -2.9536  0.1134  0.1808
  742SOL    HW2 2226   1.381   2.450   0.135 -1.7134 -0.4916  0.4183
  743SOL     OW 2227   2.305   1.132   2.004  0.1277 -0.5586 -0.0961
  743SOL    HW1 2228   2.394   1.105   1.961  1.6259 -1.0852  0.3901
  743SOL    HW2 2229   2.327   1.166   2.098  0.3633  1.7858 -1.3802
  744SOL     OW 2230   2.792   0.265   0.515 -0.0532  0.3352  0.2089
  744SOL    HW1 2231   2.789   0.166   0.484  2.0085  1.4248 -1.8228
  744SOL    HW2 2232   2.831   0.319   0.439 -0.7234  0.6733 -0.1853
  745SOL     OW 2233   2.302   1.112   1.389  0.0357 -0.2124 -0.4401
  745SOL    HW1 2234   2.235   1.145   1.452  1.8806  0.1848 -0.9666
  745SOL    HW2 2235   2.351   1.197   1.354 -1.6555 -0.6707 -0.1227
  746SOL     OW 2236   0.947   1.413   0.817  0.6775 -0.4385  0.0771
  746SOL    HW1 2237   1.032   1.457   0.841 -2.5106 -0.4844 -2.4376
  746SOL    HW2 2238   0.927   1.437   0.721  0.3076  1.2897 -0.0781
  747SOL     OW 2239   1.060   1.438   1.324  0.3722  0.0718 -0.1585
  747SOL    HW1 2240   0.967   1.454   1.288  0.4889 -1.2720 -2.2822
  747SOL    HW2 2241   1.062   1.381   1.406  0.8854  3.7362 -1.8429
  748SOL     OW 2242   0.490   2.923   2.933  0.0360  0.3726  0.8657
  748SOL    HW1 2243   0.468   2.944   2.833  0.7391  3.5986 -3.0115
  748SOL    HW2 2244   0.488   2.827   2.963 -0.7656  2.6250  2.5877
  749SOL     OW 2245   0.060   0.913   2.944  0.0572 -0.2017  0.5531
  749SOL    HW1 2246   0.014   1.000   2.956  1.6310 -2.0569  2.4077
  749SOL    HW2 2247   0.049   0.887   2.843  1.2653  1.1949  0.2524
  750SOL     OW 2248   1.574   0.990   1.883  0.4320 -0.6688 -0.2679
  750SOL    HW1 2249   1.527   0.914   1.829  2.2258  0.5535  1.0667
  750SOL    HW2 2250   1.650   0.945   1.942  1.2119 -1.7987  0.6298
  751SOL     OW 2251   2.612   0.722   0.426 -0.0431 -0.1715  0.1245
  751SOL    HW1 2252   2.653   0.656   0.362  2.5154  1.1384 -1.1536
  751SOL    HW2 2253   2.510   0.723   0.412 -2.8433  1.9233 -1.0010
  752SOL     OW 2254   2.525   2.922   1.201  0.4866  0.0024  0.0816
  752SOL    HW1 2255   2.557   2.970   1.284  0.5655 -2.2222  0.9998
  752SOL    HW2 2256   2.510   2.990   1.132  0.1019 -0.6944  1.7312
  753SOL     OW 2257   0.878   2.279   1.283  0.0548  0.4882 -0.3922
  753SOL    HW1 2258   0.921   2.288   1.374 -1.7428 -2.8120 -0.5165
  753SOL    HW2 2259   0.791   2.231   1.291 -1.1175 -2.4834  0.1098
  754SOL     OW 2260   3.062   2.694   2.125 -0.2705  0.1562 -0.3656
  754SOL    HW1 2261   0.018   2.745   2.199  0.3739  2.7551  2.4871
  754SOL    HW2 2262   3.092   2.722   2.031  1.4990 -1.9824 -0.2675
  755SOL     OW 2263   2.336   0.740   0.212 -0.0073 -0.0251 -0.5950
  755SOL    HW1 2264   2.428   0.751   0.171  3.4261  1.4296 -0.2583
  755SOL    HW2 2265   2.329   0.774   0.312 -0.5937 -0.7160 -1.6441
  756SOL     OW 2266   2.048   2.387   0.020  0.5923  0.0648 -0.1751
  756SOL    HW1 2267   2.045   2.485   3.075 -0.4269 -0.8011  0.3985
  756SOL    HW2 2268   2.141   2.353   0.040 -0.0722 -2.4638  1.8616
  757SOL     OW 2269   2.322   0.258   0.419 -0.3831  0.2686  0.0784
  757SOL    HW1 2270   2.249   0.194   0.375 -1.2349 -2.6806 -1.8491
  757SOL    HW2 2271   2.339   0.243   0.518 -0.0500 -0.1054 -3.1244
  758SOL     OW 2272   2.111   0.916   1.703 -0.0927  0.4534  0.5943
  758SOL    HW1 2273   2.015   0.882   1.693  0.7681  0.7633 -0.2862
  758SOL    HW2 2274   2.169   0.838   1.738  0.1831 -2.5571  0.4259
  759SOL     OW 2275   2.608   0.520   1.258  0.4558 -0.1962 -0.5740
  759SOL    HW1 2276   2.633   0.624   1.275  1.9032  0.6362 -0.5631
  759SOL    HW2 2277   2.562   0.505   1.167 -0.4471 -2.5992  0.0342
  760SOL     OW 2278   0.383   1.217   1.366  0.2366 -0.1939 -0.1664
  760SOL    HW1 2279   0.470   1.180   1.401 -1.3952 -1.4777  0.5551
  760SOL    HW2 2280   0.391   1.316   1.336  0.8938  0.6865  1.0199
  761SOL     OW 2281   1.077   0.505   0.068  0.3106 -0.2550  0.0935
  761SOL    HW1 2282   1.135   0.482   3.081  0.9074  0.1105  1.2867
  761SOL    HW2 2283   1.053   0.605   0.073 -1.7469  3.6939 -0.0964
  762SOL     OW 2284   1.073   2.057   1.249 -0.6553  0.3939 -0.5572
  762SOL    HW1 2285   1.038   2.065   1.158  0.9306  0.4043 -1.5254
  762SOL    HW2 2286   0.998   2.033   1.314  0.2720  0.3301 -0.6138
  763SOL     OW 2287   1.303   0.661   1.402  0.6455  0.4712  0.2053
  763SOL    HW1 2288   1.316   0.752   1.448  1.1764  0.5143 -2.1038
  763SOL    HW2 2289   1.236   0.604   1.454 -0.7196  1.8868  1.5736
  764SOL     OW 2290   0.325   2.467   2.979 -0.0776  0.4788 -0.5026
  764SOL    HW1 2291   0.389   2.429   2.910 -0.2606  0.2653  1.6730
  764SOL    HW2 2292   0.228   2.487   2.949  0.5294 -1.2612 -2.5102
  765SOL     OW 2293   0.599   2.813   1.668 -0.4007  0.1264 -0.0556
  765SOL    HW1 2294   0.599   2.842   1.767 -1.6307  2.5569 -0.2930
  765SOL    HW2 2295   0.582   2.885   1.599  0.2892  0.9030  0.7043
  766SOL     OW 2296   2.525   1.723   2.172  0.0146 -0.5444 -0.1528
  766SOL    HW1 2297   2.455   1.800   2.164  0.3155 -0.2418  2.3446
  766SOL    HW2 2298   2.617   1.754   2.141  0.9795 -0.7193 -0.3455
  767SOL     OW 2299   1.471   1.391   2.402 -0.6725  0.1630  0.1239
  767SOL    HW1 2300   1.435   1.392   2.499  1.3907 -2.3145  1.6378
  767SOL    HW2 2301   1.402   1.337   2.349  1.3172 -1.7491  1.6126
  768SOL     OW 2302   1.680   1.955   0.235 -0.4645 -0.4801  0.0770
  768SOL    HW1 2303   1.684   1.934   0.336 -0.9516  2.0650 -1.5607
  768SOL    HW2 2304   1.772   1.968   0.195 -1.0925 -0.3967 -0.1923
  769SOL     OW 2305   0.510   1.509   0.766  0.2519 -0.6588  0.1116
  769SOL    HW1 2306   0.450   1.581   0.801 -0.6963  0.6339  1.6599
  769SOL    HW2 2307   0.570   1.471   0.838  0.2395 -0.2655 -0.0574
  770SOL     OW 2308   1.271   0.968   2.268  0.0660  0.2849  0.1236
  770SOL    HW1 2309   1.331   0.902   2.215  3.8751 -0.3546  0.7122
  770SOL    HW2 2310   1.298   1.064   2.273 -4.0577  0.8449  1.8490
  771SOL     OW 2311   2.909   0.009   2.352 -0.1991  0.1091  0.5114
  771SOL    HW1 2312   2.838   0.048   2.410  0.5791  1.6761  0.7605
  771SOL    HW2 2313   2.997   0.031   2.392 -0.9048  0.5382 -1.0832
  772SOL     OW 2314   2.308   1.907   2.167  0.0786  0.3207 -0.2158
  772SOL    HW1 2315   2.212   1.878   2.184 -1.0728  0.2858 -1.5650
  772SOL    HW2 2316   2.307   1.983   2.100  3.6235  2.7078 -0.1572
  773SOL     OW 2317   0.601   1.233   1.525  0.2973 -0.1342 -0.2729
  773SOL    HW1 2318   0.624   1.137   1.562 -1.3385 -1.0141  0.1671
  773SOL    HW2 2319   0.653   1.255   1.439 -2.4566 -2.7295  0.9778
  774SOL     OW 2320   1.301   0.836   3.003  0.1492  0.2186  0.5804
  774SOL    HW1 2321   1.267   0.869   2.912  2.8791  0.5531  1.2791
  774SOL    HW2 2322   1.229   0.840   3.075  1.6228 -2.0706 -0.5888
  775SOL     OW 2323   1.651   2.560   2.998 -0.6064  0.1956  0.6945
  775SOL    HW1 2324   1.667   2.513   3.087 -3.3972  1.4323  1.9124
  775SOL    HW2 2325   1.580   2.513   2.939 -0.0720  0.8161  2.5477
  776SOL     OW 2326   0.135   1.032   1.664  0.2523  0.2265  0.0720
  776SOL    HW1 2327   0.066   1.039   1.736  3.5520 -2.1430  0.5298
  776SOL    HW2 2328   0.125   1.104   1.592  0.1934  2.1349 -0.8534
  777SOL     OW 2329   2.465   2.099   1.985  0.0384  0.7021  0.6928
  777SOL    HW1 2330   2.555   2.077   2.023 -3.5428  0.3804  1.4570
  777SOL    HW2 2331   2.458   2.071   1.888 -2.6747  0.0584  1.0756
  778SOL     OW 2332   1.630   1.145   2.221 -0.1726 -0.4545  0.0582
  778SOL    HW1 2333   1.535   1.158   2.180 -2.0097 -0.3372  0.1094
  778SOL    HW2 2334   1.704   1.146   2.153  0.7618 -0.3002 -1.9523
  779SOL     OW 2335   2.864   0.966   0.086  0.5607  0.0691  0.3063
  779SOL    HW1 2336   2.881   0.863   0.077  1.4192 -2.4701  1.6136
  779SOL    HW2 2337   2.768   0.985   0.104 -0.1228 -0.2834  0.8032
  780SOL     OW 2338   2.203   0.053   2.792 -0.4810  0.5172  0.0464
  780SOL    HW1 2339   2.122   0.018   2.747  3.0483 -0.6477 -1.2503
  780SOL    HW2 2340   2.280   0.061   2.723 -0.4794 -1.6479  1.5919
  781SOL     OW 2341   2.869   1.490   1.241  0.2724 -0.5371  0.4824
  781SOL    HW1 2342   2.912   1.534   1.156  0.3681  1.1911 -2.0328
  781SOL    HW2 2343   2.945   1.465   1.302  1.2489  0.9812 -3.0758
  782SOL     OW 2344   2.664   2.114   3.009  0.1677  0.1318 -0.2336
  782SOL    HW1 2345   2.663   2.214   2.999 -3.1622  0.1793  1.0957
  782SOL    HW2 2346   2.667   2.071   2.917 -0.0663  1.3941  1.9758
  783SOL     OW 2347   0.701   1.427   0.934 -0.0854 -0.3244 -0.4604
  783SOL    HW1 2348   0.683   1.328   0.939  1.2663  0.6505  0.3659
  783SOL    HW2 2349   0.800   1.447   0.926  0.9684  0.3892 -3.0292
  784SOL     OW 2350   2.617   1.047   0.154  0.5010 -0.8555 -0.3942
  784SOL    HW1 2351   2.590   1.136   0.109 -1.9683  3.9489 -1.2928
  784SOL    HW2 2352   2.596   1.052   0.253 -0.9487  2.2486 -2.1654
  785SOL     OW 2353   2.062   2.437   0.766 -0.5185 -0.5352  0.5321
  785SOL    HW1 2354   1.988   2.415   0.831 -0.6759 -0.0593  2.8031
  785SOL    HW2 2355   2.071   2.383   0.678  2.7682  0.6325 -2.2846
  786SOL     OW 2356   0.574   2.235   2.607  0.0859  0.3357  0.1375
  786SOL    HW1 2357   0.610   2.173   2.536  1.4173  1.6279  0.5965
  786SOL    HW2 2358   0.498   2.193   2.654  2.2892 -1.3164  0.1016
  787SOL     OW 2359   1.498   0.468   1.382 -0.1878 -0.2397  0.4084
  787SOL    HW1 2360   1.418   0.531   1.378  1.5496  1.9912 -2.1405
  787SOL    HW2 2361   1.586   0.520   1.365 -2.6965 -1.5698  0.2984
  788SOL     OW 2362   0.468   0.895   0.265  0.0827  0.2319 -0.6623
  788SOL    HW1 2363   0.533   0.974   0.281  1.3701  1.2498  1.8869
  788SOL    HW2 2364   0.376   0.927   0.234  3.0886  1.1238  0.7794
  789SOL     OW 2365   3.038   2.012   1.334  0.8709  0.0871 -0.1891
  789SOL    HW1 2366   0.022   1.953   1.339 -0.8993  1.9953 -0.6830
  789SOL    HW2 2367   2.979   2.000   1.248 -0.6800  1.2257 -0.3861
  790SOL     OW 2368   1.324   0.366   2.098 -0.6071  0.0872  0.5791
  790SOL    HW1 2369   1.340   0.434   2.171 -0.5514  2.3453 -1.8381
  790SOL    HW2 2370   1.224   0.346   2.085 -1.8480 -2.8658  1.7041
  791SOL     OW 2371   1.229   0.619   0.338  0.2363  0.0426  0.6505
  791SOL    HW1 2372   1.268   0.567   0.256  1.3600 -0.3023 -2.0619
  791SOL    HW2 2373   1.305   0.653   0.397  0.6386 -0.7508  2.5565
  792SOL     OW 2374   1.400   3.001   1.815 -0.1422  0.0799  0.4480
  792SOL    HW1 2375   1.341   2.920   1.797 -0.7714 -0.1371 -0.0967
  792SOL    HW2 2376   1.492   2.972   1.828 -0.5346 -2.2157  1.2879
  793SOL     OW 2377   0.816   3.062   0.772  0.1558  0.0802  1.0999
  793SOL    HW1 2378   0.909   0.007   0.754  1.4924  0.2153  0.1157
  793SOL    HW2 2379   0.793   3.051   0.867 -0.5552  0.9000 -2.4315
  794SOL     OW 2380   0.496   1.277   2.105 -0.6998  0.5670 -0.0374
  794SOL    HW1 2381   0.532   1.199   2.050 -0.6047 -1.2170  0.2443
  794SOL    HW2 2382   0.534   1.285   2.198 -2.4690 -1.4723 -2.6527
  795SOL     OW 2383   2.987   1.492   2.409  0.4000 -0.6197  0.4391
  795SOL    HW1 2384   3.003   1.584   2.452  0.2310 -0.7099  0.4254
  795SOL    HW2 2385   3.055   1.461   2.340  1.5839  4.0977 -0.6523
  796SOL     OW 2386   1.915   1.213   2.092  0.2873 -1.0267  0.6160
  796SOL    HW1 2387   1.987   1.149   2.055 -2.0841  2.8136 -0.9650
  796SOL    HW2 2388   1.948   1.280   2.162 -1.5215 -2.3745  0.7187
  797SOL     OW 2389   0.008   0.017   2.666 -0.2730 -0.0674 -0.1674
  797SOL    HW1 2390   0.102   3.072   2.643 -1.2046 -0.0579  0.2390
  797SOL    HW2 2391   3.027   3.042   2.662 -3.3567 -0.1061 -0.5247
  798SOL     OW 2392   0.108   2.074   2.222 -0.0604 -0.9297 -0.3210
  798SOL    HW1 2393   0.158   2.083   2.131 -0.0669 -0.1727  0.4892
  798SOL    HW2 2394   0.155   2.143   2.282  0.7580  0.2532 -2.2561
  799SOL     OW 2395   2.703   2.413   3.000  0.5904 -0.1283 -0.3268
  799SOL    HW1 2396   2.795   2.408   3.046 -0.7819 -1.2387  1.4582
  799SOL    HW2 2397   2.709   2.494   2.931  1.7020  1.5523 -0.7696
  800SOL     OW 2398   1.408   1.654   0.851  0.7410 -0.2055 -0.3367
  800SOL    HW1 2399   1.332   1.714   0.819 -0.9510  2.8853  0.8162
  800SOL    HW2 2400   1.479   1.710   0.897 -0.5994  2.2813 -0.1600
  801SOL     OW 2401   2.239   0.656   0.684  0.2317  0.3687  0.3621
  801SOL    HW1 2402   2.202   0.561   0.669 -0.4677 -0.7348  0.3435
  801SOL    HW2 2403   2.173   0.714   0.731  1.5150 -0.8411 -0.0038
  802SOL     OW 2404   2.487   1.642   0.362 -0.3283  0.5506  0.6786
  802SOL    HW1 2405   2.555   1.620   0.286 -0.2380 -1.0819  2.2877
  802SOL    HW2 2406   2.490   1.742   0.379 -0.0244 -1.8190 -0.1921
  803SOL     OW 2407   1.501   1.845   2.887 -0.5896 -0.4836 -0.4956
  803SOL    HW1 2408   1.554   1.885   2.813 -2.0300 -1.3920  0.9897
  803SOL    HW2 2409   1.441   1.922   2.925  0.3602  1.7192 -0.9681
  804SOL     OW 2410   1.917   1.951   0.091  0.1863  0.5956 -0.3825
  804SOL    HW1 2411   2.015   1.932   0.109 -1.0345  0.0885  0.1796
  804SOL    HW2 2412   1.896   1.909   0.001  2.1353 -0.0020 -0.8841
  805SOL     OW 2413   2.414   1.652   0.015  0.2107  0.0319  0.1784
  805SOL    HW1 2414   2.416   1.715   3.027  0.6055  2.8628 -1.7174
  805SOL    HW2 2415   2.496   1.648   0.072  0.1441 -3.5682  1.8279
  806SOL     OW 2416   0.722   0.588   0.561 -0.3556  0.3660 -0.5020
  806SOL    HW1 2417   0.772   0.554   0.483  0.9926  1.2380  1.6605
  806SOL    HW2 2418   0.685   0.684   0.547  0.3695  1.9590 -0.3579
  807SOL     OW 2419   2.256   1.518   2.756 -0.2014 -0.5513 -0.4998
  807SOL    HW1 2420   2.207   1.573   2.827 -2.4127 -1.8450  0.5518
  807SOL    HW2 2421   2.189   1.478   2.688  1.1883 -0.3822 -0.3517
  808SOL     OW 2422   0.091   1.523   0.438  0.0042  0.2018  0.2153
  808SOL    HW1 2423   0.138   1.432   0.432  0.1211 -0.2651 -0.4725
  808SOL    HW2 2424   0.106   1.572   0.525  1.5306  0.9319 -1.4613
  809SOL     OW 2425   2.463   0.973   2.664  0.1138  0.2456 -0.3507
  809SOL    HW1 2426   2.447   0.998   2.762 -0.4920 -2.4474 -0.4496
  809SOL    HW2 2427   2.558   0.991   2.632 -3.1541 -3.5390  1.6584
  810SOL     OW 2428   1.115   1.299   0.196 -0.0743 -0.1349 -0.1530
  810SOL    HW1 2429   1.203   1.354   0.212  1.9640  1.6039  0.4378
  810SOL    HW2 2430   1.121   1.238   0.117 -0.5215 -1.5611  0.8085
  811SOL     OW 2431   1.637   2.516   0.753  0.4857 -0.1006 -0.3307
  811SOL    HW1 2432   1.547   2.562   0.745  0.5241 -1.7557 -1.2053
  811SOL    HW2 2433   1.655   2.464   0.670 -0.5507  3.5988  1.3584
  812SOL     OW 2434   0.454   2.595   1.613 -0.3306  0.2456 -0.1873
  812SOL    HW1 2435   0.466   2.532   1.692 -1.3098 -2.1631 -1.3554
  812SOL    HW2 2436   0.492   2.688   1.633  0.2566  0.1280 -2.1997
  813SOL     OW 2437   0.997   0.059   1.921 -0.0032  0.5135 -0.1293
  813SOL    HW1 2438   0.977   3.056   1.889  0.4391 -1.8495  3.6857
  813SOL    HW2 2439   0.951   0.074   2.013 -2.5895  0.3149  3.3980
  814SOL     OW 2440   1.398   0.101   2.601 -0.5250 -0.3921 -0.7541
  814SOL    HW1 2441   1.412   0.004   2.568 -0.9773  0.9116 -1.1923
  814SOL    HW2 2442   1.367   0.163   2.529  1.7140 -0.5591  1.4202
  815SOL     OW 2443   0.437   0.448   2.005 -0.4381  0.2221 -0.0293
  815SOL    HW1 2444   0.447   0.395   1.915  1.0300  0.0577 -1.9729
  815SOL    HW2 2445   0.421   0.550   1.996 -1.5615  1.5615 -0.5228
  816SOL     OW 2446   2.399   0.375   0.076 -0.3279  0.4214 -0.4099
  816SOL    HW1 2447   2.426   0.450   0.012  2.0601  1.9353  0.8915
  816SOL    HW2 2448   2.339   0.424   0.145 -2.0307  0.6659  3.0753
  817SOL     OW 2449   1.977   0.271   2.636  0.1497 -0.5382  0.0227
  817SOL    HW1 2450   1.896   0.300   2.583  3.7555 -0.2590  2.0059
  817SOL    HW2 2451   1.971   0.321   2.720 -1.2471 -2.8648 -0.1234
  818SOL     OW 2452   1.859   0.000   0.306 -0.1087  0.8048  0.1999
  818SOL    HW1 2453   1.846   0.071   0.230 -1.4996  0.5125  1.4856
  818SOL    HW2 2454   1.922   3.017   0.274  2.2544 -0.1713 -0.6610
  819SOL     OW 2455   2.327   1.963   0.013 -0.0626  0.0643 -1.1654
  819SOL    HW1 2456   2.340   1.893   3.030 -1.1196  1.7028 -0.8289
  819SOL    HW2 2457   2.313   2.054   3.060  0.5408 -0.8799 -0.9237
  820SOL     OW 2458   0.213   1.708   0.283 -0.2944 -0.0400 -0.1300
  820SOL    HW1 2459   0.265   1.638   0.239 -3.3073  1.1696 -0.5721
  820SOL    HW2 2460   0.141   1.662   0.338  1.4800  1.4945 -0.1069
  821SOL     OW 2461   2.993   2.727   1.269  0.2808 -0.6600  0.1667
  821SOL    HW1 2462   2.988   2.630   1.283 -0.6940  3.2335 -2.3788
  821SOL    HW2 2463   2.908   2.775   1.301  0.4903 -2.4347  0.1579
  822SOL     OW 2464   2.597   2.595   2.765  0.2061  0.1040  0.3622
  822SOL    HW1 2465   2.522   2.547   2.712 -2.0176  0.7647  0.0412
  822SOL    HW2 2466   2.646   2.665   2.709  1.1403 -1.9068  1.7926
  823SOL     OW 2467   1.582   0.260   2.700 -0.2092  0.1095 -0.1815
  823SOL    HW1 2468   1.554   0.305   2.790  0.2479  0.6940 -1.7220
  823SOL    HW2 2469   1.508   0.197   2.658 -1.5810  0.1753 -0.6358
  824SOL     OW 2470   2.837   1.685   1.443  0.0376 -0.4699 -0.2400
  824SOL    HW1 2471   2.884   1.777   1.451  1.0864  0.1229  2.0369
  824SOL    HW2 2472   2.850   1.642   1.348  1.0453 -0.2421 -0.5197
  825SOL     OW 2473   2.720   1.734   2.486 -0.4039  0.2690  0.8342
  825SOL    HW1 2474   2.643   1.708   2.549  1.5713 -1.2016  1.3175
  825SOL    HW2 2475   2.700   1.824   2.441  0.8463 -1.3694 -1.8660
  826SOL     OW 2476   2.408   1.173   2.261 -0.1528  0.3392 -0.2774
  826SOL    HW1 2477   2.474   1.102   2.296 -0.5468  0.8675  0.5969
  826SOL    HW2 2478   2.407   1.250   2.326 -1.5091  1.5493 -1.8288
  827SOL     OW 2479   2.349   2.464   1.525 -0.6839 -0.0126  0.4466
  827SOL    HW1 2480   2.435   2.472   1.575 -0.0344 -1.5190  2.4730
  827SOL    HW2 2481   2.344   2.395   1.449 -0.5280 -0.7227  0.4036
  828SOL     OW 2482   2.735   2.736   1.379 -0.0674 -0.9734  0.2762
  828SOL    HW1 2483   2.718   2.834   1.385  2.0603 -1.6918  0.8518
  828SOL    HW2 2484   2.675   2.689   1.313  0.0326 -1.3377 -2.2009
  829SOL     OW 2485   1.423   2.104   2.302  0.2320  0.4907 -0.3644
  829SOL    HW1 2486   1.457   2.191   2.336 -0.5374 -3.5371  0.7785
  829SOL    HW2 2487   1.497   2.033   2.301  1.7468  0.2929  0.9729
  830SOL     OW 2488   1.407   0.161   0.754 -0.1045 -0.1924 -0.4896
  830SOL    HW1 2489   1.352   0.142   0.673 -0.7369 -1.3468 -0.7367
  830SOL    HW2 2490   1.483   0.090   0.764  0.4221 -0.2247  0.6217
  831SOL     OW 2491   2.504   1.460   0.558 -0.0173 -0.1928 -0.1093
  831SOL    HW1 2492   2.602   1.428   0.566 -1.4687 -0.6731 -1.8764
  831SOL    HW2 2493   2.497   1.517   0.472 -0.5884  1.6091 -0.8099
  832SOL     OW 2494   1.500   2.244   1.751 -0.1913 -0.5720  0.2078
  832SOL    HW1 2495   1.524   2.151   1.777 -1.0241  5.5542 -2.2002
  832SOL    HW2 2496   1.545   2.310   1.809 -3.1781 -0.3450  1.1720
  833SOL     OW 2497   0.015   2.922   2.326  0.9583  0.0215 -0.1163
  833SOL    HW1 2498   0.029   2.881   2.419 -1.7738 -0.4847 -2.5846
  833SOL    HW2 2499   3.013   2.964   2.314 -0.4998  1.4050 -2.9385
  834SOL     OW 2500   0.974   0.898   1.473  0.1548 -0.3235 -0.2808
  834SOL    HW1 2501   0.878   0.870   1.446 -3.1318  0.2008 -0.3253
  834SOL    HW2 2502   1.023   0.952   1.402 -3.0115 -0.3048  0.2426
  835SOL     OW 2503   2.701   0.615   2.428 -0.0661  0.3907 -0.3052
  835SOL    HW1 2504   2.782   0.632   2.366 -1.8028 -1.0628  1.1091
  835SOL    HW2 2505   2.619   0.653   2.385 -1.6056  0.2505 -3.5569
  836SOL     OW 2506   1.014   2.420   1.071  0.0610 -0.0327  0.6831
  836SOL    HW1 2507   0.963   2.413   1.163  2.8151  1.1037  0.5032
  836SOL    HW2 2508   1.115   2.410   1.084  1.3013  1.1452 -0.8054
  837SOL     OW 2509   2.085   1.011   0.920 -0.0664 -0.0408 -0.0234
  837SOL    HW1 2510   2.161   1.044   0.862 -0.2697 -1.5310  3.3815
  837SOL    HW2 2511   2.096   1.032   1.016  1.0867 -1.3489 -2.4832
  838SOL     OW 2512   1.079   1.512   2.434  0.3294 -0.1618 -0.5197
  838SOL    HW1 2513   0.977   1.495   2.441  1.2398 -1.2932  1.7883
  838SOL    HW2 2514   1.128   1.487   2.520 -1.0704  2.8304  0.2081
  839SOL     OW 2515   0.548   2.455   2.775  0.0595  0.0628  0.3854
  839SOL    HW1 2516   0.574   2.382   2.704 -1.0250 -0.9695  0.9831
  839SOL    HW2 2517   0.625   2.461   2.842 -0.8732  0.0200  3.4583
  840SOL     OW 2518   0.518   2.674   2.996 -0.2172  0.0148 -0.0573
  840SOL    HW1 2519   0.433   2.616   2.986 -2.4447  2.0028 -1.3217
  840SOL    HW2 2520   0.605   2.621   2.986  1.7975 -1.5560 -0.4378
  841SOL     OW 2521   1.867   2.219   0.143  0.1828 -0.2552  0.0622
  841SOL    HW1 2522   1.900   2.132   0.098 -1.1093  0.5567 -1.5262
  841SOL    HW2 2523   1.928   2.291   0.113 -2.4479 -0.4005  1.2674
  842SOL     OW 2524   1.214   0.976   2.771 -0.4953 -0.2540 -0.3134
  842SOL    HW1 2525   1.170   1.065   2.755  1.3381  0.8056 -0.5802
  842SOL    HW2 2526   1.285   0.961   2.694 -0.4076 -1.9803  0.9818
  843SOL     OW 2527   1.326   2.863   0.618  0.4598  0.5310 -0.0580
  843SOL    HW1 2528   1.408   2.815   0.574  1.1283  0.4182 -2.0041
  843SOL    HW2 2529   1.348   2.897   0.709 -0.4663 -0.6583  0.7799
  844SOL     OW 2530   2.407   2.860   2.719 -0.1362  0.1059  0.5099
  844SOL    HW1 2531   2.446   2.906   2.801  3.9794  2.4395 -0.1284
  844SOL    HW2 2532   2.327   2.805   2.745  1.6724 -0.4055  0.0532
  845SOL     OW 2533   2.738   2.345   1.068  0.2857  0.4077  0.2491
  845SOL    HW1 2534   2.660   2.365   1.128 -2.6640  0.1658 -1.5450
  845SOL    HW2 2535   2.730   2.379   0.974  1.2278  1.0807  2.2589
  846SOL     OW 2536   2.972   2.026   2.417  0.5163 -0.2036  0.3325
  846SOL    HW1 2537   3.050   2.034   2.352  0.5266 -1.5139 -0.0706
  846SOL    HW2 2538   2.968   1.929   2.448 -3.2110  2.5356 -2.0474
  847SOL     OW 2539   1.556   0.486   1.672  0.6466 -0.1952  0.2820
  847SOL    HW1 2540   1.549   0.460   1.574 -3.4296  0.3465 -4.0836
  847SOL    HW2 2541   1.524   0.413   1.738  0.7477  0.6340  0.6284
  848SOL     OW 2542   2.937   0.312   0.111 -0.3444 -0.5028  0.4733
  848SOL    HW1 2543   2.846   0.313   0.068  2.8993 -0.2245  1.5895
  848SOL    HW2 2544   2.936   0.381   0.186  1.9204 -0.9013  0.3188
  849SOL     OW 2545   0.630   0.375   3.060 -0.5144  0.1220  0.2080
  849SOL    HW1 2546   0.601   0.439   2.986 -1.0841 -0.0972  1.4496
  849SOL    HW2 2547   0.590   0.406   0.056 -0.8986  1.3506 -2.9857
  850SOL     OW 2548   0.623   2.472   0.979  0.3687 -0.2444  0.1736
  850SOL    HW1 2549   0.666   2.380   1.005 -1.2746 -1.8077  0.6993
  850SOL    HW2 2550   0.530   2.454   0.939 -0.2312 -0.6138 -1.7682
  851SOL     OW 2551   2.458   0.122   2.392  0.2674  0.1081 -0.0423
  851SOL    HW1 2552   2.406   0.113   2.303 -1.3862 -0.6451  3.7709
  851SOL    HW2 2553   2.421   0.205   2.433 -3.0512  0.5917 -1.8410
  852SOL     OW 2554   1.671   1.463   2.249  0.1982 -0.8326 -0.5333
  852SOL    HW1 2555   1.591   1.446   2.313  0.1874  1.8501 -0.6869
  852SOL    HW2 2556   1.665   1.392   2.175  2.8384  0.2325  3.1724
  853SOL     OW 2557   2.775   2.607   0.534  0.0491  0.0484 -0.1864
  853SOL    HW1 2558   2.826   2.679   0.580  3.8903  0.2471 -0.4819
  853SOL    HW2 2559   2.714   2.557   0.593  1.9418  3.1530  0.5827
  854SOL     OW 2560   2.319   0.228   1.069  0.2865  0.6627 -0.0058
  854SOL    HW1 2561   2.260   0.229   0.987 -1.5547  1.6517 -0.2455
  854SOL    HW2 2562   2.391   0.292   1.053 -0.3223  1.1456  0.2168
  855SOL     OW 2563   1.461   2.171   0.574  0.0115 -0.1155 -0.0318
  855SOL    HW1 2564   1.417   2.206   0.489  2.9623 -0.2716  1.9421
  855SOL    HW2 2565   1.406   2.190   0.658 -0.2461 -0.2731  0.8017
  856SOL     OW 2566   2.657   0.352   0.039  0.1081 -0.2887 -0.1708
  856SOL    HW1 2567   2.672   0.346   3.029 -2.3269 -2.7648 -0.3773
  856SOL    HW2 2568   2.557   0.340   0.060  0.5153 -0.7226  1.1264
  857SOL     OW 2569   1.678   2.883   2.111  0.0384 -0.3143  0.3992
  857SOL    HW1 2570   1.596   2.822   2.128 -0.5984 -0.6657  0.4023
  857SOL    HW2 2571   1.679   2.911   2.007  3.3157  1.1201 -1.2279
  858SOL     OW 2572   2.613   2.049   1.475  0.0208  0.0644 -0.3700
  858SOL    HW1 2573   2.611   2.109   1.396  0.8008 -1.5746  1.0518
  858SOL    HW2 2574   2.550   1.970   1.457  1.2221 -2.6122 -4.7233
  859SOL     OW 2575   1.322   2.299   0.788 -0.6362 -0.2300  0.6343
  859SOL    HW1 2576   1.262   2.383   0.770 -1.3421 -0.5338  1.1761
  859SOL    HW2 2577   1.385   2.314   0.870 -0.5370 -1.7819  0.4646
  860SOL     OW 2578   2.316   2.381   0.044 -0.4336  0.1744 -0.2028
  860SOL    HW1 2579   2.299   2.481   0.047  0.9263 -1.8922 -0.1541
  860SOL    HW2 2580   2.408   2.360   0.079  1.4680 -0.1206 -0.6006
  861SOL     OW 2581   1.825   2.589   1.125 -0.2003  0.0291 -0.4587
  861SOL    HW1 2582   1.916   2.617   1.159  1.4743 -1.0674  0.1076
  861SOL    HW2 2583   1.796   2.655   1.050  0.2796  2.1053  0.4700
  862SOL     OW 2584   1.941   0.008   2.682  0.0266 -0.2853  0.1483
  862SOL    HW1 2585   1.955   0.106   2.651 -1.1524  1.4656  0.9300
  862SOL    HW2 2586   1.869   0.005   2.758 -2.6264 -0.1043 -0.4542
  863SOL     OW 2587   0.314   0.423   0.665 -0.3731  0.4915 -0.8252
  863SOL    HW1 2588   0.350   0.368   0.588 -0.9737 -1.3426  3.6072
  863SOL    HW2 2589   0.213   0.425   0.668 -0.6366 -1.3363  1.0309
  864SOL     OW 2590   2.672   2.733   1.780 -0.3437 -0.1627  0.4332
  864SOL    HW1 2591   2.624   2.651   1.745  1.6999  2.1183 -1.8207
  864SOL    HW2 2592   2.617   2.814   1.758 -0.7940 -2.0746  0.0129
  865SOL     OW 2593   3.016   2.024   2.988 -0.0505  0.1464 -0.2369
  865SOL    HW1 2594   2.985   2.024   3.088 -0.9445 -1.9426 -0.1761
  865SOL    HW2 2595   2.972   2.102   2.941 -1.1219 -1.1340  1.7308
  866SOL     OW 2596   2.456   0.563   2.960  0.0154 -0.1619 -0.1735
  866SOL    HW1 2597   2.523   0.554   2.881  0.9425 -0.1142 -1.6424
  866SOL    HW2 2598   2.471   0.650   3.013  0.5400  0.8572 -0.3211
  867SOL     OW 2599   0.395   0.175   2.624  0.4673 -0.0600  0.2312
  867SOL    HW1 2600   0.477   0.210   2.669  0.0841 -1.6621 -0.3619
  867SOL    HW2 2601   0.316   0.232   2.644  0.9308 -2.3383 -2.8313
  868SOL     OW 2602   1.120   2.528   0.710 -0.2445 -0.0305 -0.4670
  868SOL    HW1 2603   1.051   2.491   0.776  0.7013 -0.7222 -1.1190
  868SOL    HW2 2604   1.070   2.580   0.635  0.5863  1.1583  0.4155
  869SOL     OW 2605   1.394   1.186   1.217  0.1415 -0.6077  0.0032
  869SOL    HW1 2606   1.443   1.263   1.172  0.4326  3.3277 -0.0348
  869SOL    HW2 2607   1.427   1.167   1.312 -0.3657  2.3282 -3.2340
  870SOL     OW 2608   1.863   1.996   1.190 -0.6739 -0.1485 -0.1243
  870SOL    HW1 2609   1.911   2.076   1.153 -0.6276 -0.9348  2.6183
  870SOL    HW2 2610   1.873   2.007   1.292 -1.3430 -0.0955 -1.2818
  871SOL     OW 2611   1.246   1.624   1.369 -0.5172 -0.0288 -0.5730
  871SOL    HW1 2612   1.171   1.558   1.348  2.6895  2.8368 -0.2877
  871SOL    HW2 2613   1.318   1.621   1.296 -0.6888 -1.1246  1.2497
  872SOL     OW 2614   1.378   0.985   1.023 -0.3889 -0.6597  0.0077
  872SOL    HW1 2615   1.461   0.925   1.020 -0.1222  1.7136  0.3065
  872SOL    HW2 2616   1.386   1.059   1.093 -2.2695  0.5156  1.0846
  873SOL     OW 2617   1.403   0.911   2.576 -0.0990  0.0027 -0.1651
  873SOL    HW1 2618   1.498   0.920   2.611 -0.6521  2.5871  0.6177
  873SOL    HW2 2619   1.400   0.930   2.473  1.9023 -1.3293  1.0495
  874SOL     OW 2620   0.312   1.037   1.158  0.0009 -0.1826  0.0151
  874SOL    HW1 2621   0.318   1.111   1.232 -1.0299  3.4243 -1.2613
  874SOL    HW2 2622   0.216   1.022   1.133 -1.0433 -1.2407 -0.8512
  875SOL     OW 2623   2.683   2.750   0.123  0.3895 -0.0490 -0.4797
  875SOL    HW1 2624   2.633   2.702   0.192  1.3464  1.0502 -0.7590
  875SOL    HW2 2625   2.660   2.844   0.125  0.4560 -3.1627 -0.0786
  876SOL     OW 2626   1.174   0.565   2.757  0.3536  0.2999 -0.6113
  876SOL    HW1 2627   1.171   0.491   2.830  1.4565  0.7710 -0.2372
  876SOL    HW2 2628   1.113   0.643   2.787  0.8550 -0.3672  1.2784
  877SOL     OW 2629   2.945   3.041   1.428  0.3592  0.3190  1.0905
  877SOL    HW1 2630   2.974   3.055   1.525  0.2350 -1.5603  0.1266
  877SOL    HW2 2631   3.027   3.007   1.378  0.8426 -2.8904  1.3074
  878SOL     OW 2632   1.898   2.624   2.751  0.3010  0.1080  0.1049
  878SOL    HW1 2633   1.863   2.672   2.837 -0.9808  3.4496  2.5876
  878SOL    HW2 2634   1.948   2.687   2.688 -3.0855 -0.0961 -0.7585
  879SOL     OW 2635   2.458   1.784   1.678 -0.3255  0.1009 -0.2022
  879SOL    HW1 2636   2.469   1.807   1.580 -0.7814  0.0403  0.2650
  879SOL    HW2 2637   2.392   1.704   1.682  0.2054  0.6798 -0.1031
  880SOL     OW 2638   0.778   0.919   1.059 -0.2028 -0.2832 -0.7791
  880SOL    HW1 2639   0.855   0.863   1.095 -3.1633 -0.3423  0.5529
  880SOL    HW2 2640   0.754   0.882   0.967  2.2339  0.0798  1.4364
  881SOL     OW 2641   1.165   1.848   0.015  0.5654 -0.4693 -0.2924
  881SOL    HW1 2642   1.241   1.910   3.085 -0.2993  1.6361 -0.7876
  881SOL    HW2 2643   1.196   1.760   0.054  1.6976  0.5578 -1.5510
  882SOL     OW 2644   1.670   0.246   1.010  0.0443 -0.0819  0.0033
  882SOL    HW1 2645   1.668   0.331   0.961  0.1708 -1.2870  0.4556
  882SOL    HW2 2646   1.763   0.210   1.008 -1.1944 -2.3675  0.9969
  883SOL     OW 2647   1.651   0.625   2.414  0.1594 -0.2731  0.0782
  883SOL    HW1 2648   1.632   0.633   2.517  0.6063 -0.5999  1.6553
  883SOL    HW2 2649   1.713   0.694   2.381 -0.6283 -3.2710 -0.4613
  884SOL     OW 2650   2.685   0.586   0.207  0.5075  0.2091  0.0703
  884SOL    HW1 2651   2.753   0.647   0.161 -1.2979 -2.6374 -0.5631
  884SOL    HW2 2652   2.668   0.505   0.146  1.5298 -2.1339  1.2948
  885SOL     OW 2653   1.049   1.959   0.838  0.4212 -0.2563  0.1039
  885SOL    HW1 2654   1.094   2.017   0.768  1.7015 -0.4927  0.4493
  885SOL    HW2 2655   1.004   2.019   0.907  0.7950  2.6397  0.9101
  886SOL     OW 2656   1.560   1.402   2.931  0.0750 -0.0177  0.1458
  886SOL    HW1 2657   1.610   1.345   2.995  0.5275  4.0659 -2.1673
  886SOL    HW2 2658   1.459   1.415   2.948  0.1028 -1.0476  1.1826
  887SOL     OW 2659   1.414   0.320   1.853  0.1009  0.0041  0.0913
  887SOL    HW1 2660   1.334   0.278   1.803  0.0528 -0.0991 -2.4479
  887SOL    HW2 2661   1.399   0.327   1.953 -0.6677  2.2171  0.7823
  888SOL     OW 2662   2.762   1.534   1.649 -0.1896 -0.4532 -0.0904
  888SOL    HW1 2663   2.737   1.606   1.716  0.1860 -2.5100  2.4119
  888SOL    HW2 2664   2.767   1.577   1.557 -0.9621 -0.5121 -0.6981
  889SOL     OW 2665   3.026   2.448   0.962 -0.2863 -0.5589  0.0700
  889SOL    HW1 2666   3.049   2.541   0.925  2.0287  2.7453  2.5386
  889SOL    HW2 2667   3.048   2.432   1.064 -0.1997 -2.3214  3.7059
  890SOL     OW 2668   0.217   1.801   2.229  0.0144  0.2710  0.6770
  890SOL    HW1 2669   0.186   1.736   2.158  0.2380 -0.6374 -0.1755
  890SOL    HW2 2670   0.177   1.890   2.215 -1.3495 -3.1473  0.5482
  891SOL     OW 2671   0.827   1.870   0.723 -0.2026 -0.3447 -0.3147
  891SOL    HW1 2672   0.809   1.771   0.689 -1.1827 -3.3755  0.2941
  891SOL    HW2 2673   0.920   1.874   0.766  0.9948 -0.9135 -0.8801
  892SOL     OW 2674   3.088   2.232   1.526  0.1267  0.0010  0.2453
  892SOL    HW1 2675   3.011   2.294   1.539  2.8584  2.5238  0.1449
  892SOL    HW2 2676   3.089   2.202   1.430  1.2419 -3.1351  1.1374
  893SOL     OW 2677   0.010   3.065   1.635 -0.5512  0.5280 -0.1027
  893SOL    HW1 2678   0.004   0.064   1.678  0.1460  0.2403  2.6575
  893SOL    HW2 2679   0.102   3.049   1.595 -0.2206  1.4885 -1.4553
  894SOL     OW 2680   2.763   1.774   0.817 -0.3714  0.0104  0.4787
  894SOL    HW1 2681   2.837   1.708   0.810  1.2331  0.8983 -1.0925
  894SOL    HW2 2682   2.697   1.767   0.737  2.2683  2.6199 -0.2914
  895SOL     OW 2683   1.885   2.564   1.656 -0.0787 -0.2821  0.0803
  895SOL    HW1 2684   1.968   2.498   1.686 -0.4699 -2.8402  1.2325
  895SOL    HW2 2685   1.855   2.550   1.560 -0.6655  0.7592  1.9907
  896SOL     OW 2686   0.393   0.038   1.328  0.2852 -0.0557  0.3857
  896SOL    HW1 2687   0.360   3.089   1.238  1.1514  0.1288 -2.8734
  896SOL    HW2 2688   0.429   0.133   1.319 -0.1390 -1.0393  1.8182
  897SOL     OW 2689   1.316   0.915   1.504 -0.1792  0.4026 -0.2352
  897SOL    HW1 2690   1.224   0.950   1.467 -0.5552  0.7364 -1.4506
  897SOL    HW2 2691   1.353   0.971   1.580  0.3578  1.4831  0.8490
  898SOL     OW 2692   0.859   0.007   1.527  0.3138 -0.0530 -0.1732
  898SOL    HW1 2693   0.832   0.054   1.614 -0.3538  0.2835 -0.2706
  898SOL    HW2 2694   0.943   3.052   1.545  1.0489  0.6915 -0.9390
  899SOL     OW 2695   1.385   0.231   0.122  0.4734  0.1611 -0.2127
  899SOL    HW1 2696   1.440   0.196   0.196 -0.3396  2.3011  0.7091
  899SOL    HW2 2697   1.418   0.216   0.027 -0.4634  0.8219  1.0346
  900SOL     OW 2698   0.834   0.340   2.242  0.1908  0.1500 -0.1807
  900SOL    HW1 2699   0.872   0.274   2.312  0.0489 -2.0220 -0.0983
  900SOL    HW2 2700   0.749   0.303   2.205  0.5442  2.0158  0.6220
  901SOL     OW 2701   0.978   2.181   0.147  0.2790 -0.1760 -0.1598
  901SOL    HW1 2702   0.985   2.090   0.200  0.1187  0.3951  2.9129
  901SOL    HW2 2703   0.950   2.259   0.204  0.5042 -4.2824 -2.4552
  902SOL     OW 2704   1.940   0.420   1.008  0.2209  0.6581  0.1512
  902SOL    HW1 2705   1.860   0.453   0.957 -0.2825 -2.6131 -0.8149
  902SOL    HW2 2706   1.914   0.332   1.052  1.0391 -0.0610  1.5392
  903SOL     OW 2707   2.717   1.073   2.577  0.5508  0.2551  0.2791
  903SOL    HW1 2708   2.784   1.045   2.648  0.9842 -1.7939  0.1695
  903SOL    HW2 2709   2.734   1.164   2.536  0.2054 -1.0444  0.0006
  904SOL     OW 2710   1.591   1.456   0.307  0.1705 -0.2717 -0.2710
  904SOL    HW1 2711   1.635   1.537   0.266  0.0832  2.5516  0.8253
  904SOL    HW2 2712   1.563   1.486   0.400 -0.5114  0.1207 -0.0106
  905SOL     OW 2713   1.844   3.016   1.627  0.4896 -0.6174 -0.1286
  905SOL    HW1 2714   1.781   0.000   1.644  1.7612 -1.4565  1.1874
  905SOL    HW2 2715   1.907   3.030   1.544  1.2931  1.0742 -2.6611
  906SOL     OW 2716   2.200   2.892   1.098  0.3134 -0.1190 -0.7770
  906SOL    HW1 2717   2.196   2.912   1.197 -0.4651  1.6836 -3.1906
  906SOL    HW2 2718   2.280   2.934   1.061 -3.4816 -2.2428  2.5879
  907SOL     OW 2719   1.772   0.989   0.394 -0.1305 -0.2282 -0.3995
  907SOL    HW1 2720   1.702   0.928   0.349 -0.1748  3.5223  0.7708
  907SOL    HW2 2721   1.769   1.083   0.353  1.8822 -2.5052  0.8373
  908SOL     OW 2722   1.755   0.331   1.386  0.6408 -0.3385 -0.2078
  908SOL    HW1 2723   1.670   0.279   1.360 -0.4770  0.7425  0.0643
  908SOL    HW2 2724   1.758   0.425   1.352 -0.5677 -0.8455  3.0691
  909SOL     OW 2725   2.361   0.123   0.721  0.5421  0.0689 -0.1394
  909SOL    HW1 2726   2.464   0.126   0.732  2.3061 -2.2399  1.4416
  909SOL    HW2 2727   2.310   0.200   0.763 -0.0601  2.2136  0.3969
  910SOL     OW 2728   2.477   0.441   2.317  0.2836 -0.2520  0.5174
  910SOL    HW1 2729   2.391   0.496   2.323  0.6251 -1.0160 -1.4009
  910SOL    HW2 2730   2.535   0.466   2.394  0.4151 -1.2821  0.7347
  911SOL     OW 2731   2.533   0.068   2.742  0.1094  0.5245 -0.1370
  911SOL    HW1 2732   2.500   0.163   2.746 -1.9299 -0.3512  0.1770
  911SOL    HW2 2733   2.512   0.022   2.830 -1.6085  0.9726 -0.3023
  912SOL     OW 2734   0.676   0.831   1.419 -0.3929 -0.1393  0.3023
  912SOL    HW1 2735   0.653   0.885   1.497 -3.4975 -4.0898 -2.5708
  912SOL    HW2 2736   0.621   0.858   1.337 -2.8017 -2.6033 -1.1390
  913SOL     OW 2737   2.947   2.414   1.236 -0.2018 -1.1890  0.3012
  913SOL    HW1 2738   2.919   2.410   1.331  3.6318  1.0510 -0.8199
  913SOL    HW2 2739   2.872   2.390   1.169  2.4452  2.1531  1.0381
  914SOL     OW 2740   2.042   0.978   1.221  0.0499  0.2689 -0.1461
  914SOL    HW1 2741   2.024   0.894   1.265  1.0374  1.4304  0.2159
  914SOL    HW2 2742   2.095   1.045   1.278 -0.3257 -0.0329 -0.9001
  915SOL     OW 2743   0.090   1.457   1.077  0.0735  0.0028 -0.4327
  915SOL    HW1 2744   0.136   1.431   0.994  1.6509 -0.8996 -0.8642
  915SOL    HW2 2745   0.026   1.535   1.062 -2.1822  1.7123 -0.5404
  916SOL     OW 2746   2.044   2.210   1.121  0.3964  0.3622  0.4555
  916SOL    HW1 2747   2.061   2.303   1.083 -0.2637  2.9603  1.1901
  916SOL    HW2 2748   2.103   2.141   1.075  2.6895  3.3395 -2.5699
  917SOL     OW 2749   1.720   2.505   2.125 -0.2773 -0.3320 -0.2868
  917SOL    HW1 2750   1.698   2.583   2.189 -0.7977 -0.8520  1.2787
  917SOL    HW2 2751   1.648   2.433   2.131  1.4391 -1.4740 -0.3560
  918SOL     OW 2752   1.959   2.127   2.329 -0.8430  0.0220 -0.3374
  918SOL    HW1 2753   2.000   2.164   2.243  1.8776  0.5304  0.2365
  918SOL    HW2 2754   1.975   2.198   2.405  1.5533  1.9588  0.8283
  919SOL     OW 2755   0.780   0.072   1.271 -0.1659  0.0381 -0.2622
  919SOL    HW1 2756   0.693   0.121   1.278  0.8405  0.0799  0.4991
  919SOL    HW2 2757   0.817   0.058   1.368  1.2713  0.5929  4.0628
  920SOL     OW 2758   2.717   0.353   2.193  0.4357  0.0105  0.2732
  920SOL    HW1 2759   2.618   0.381   2.204 -1.2310 -0.8716  3.1861
  920SOL    HW2 2760   2.769   0.358   2.282 -1.2402 -1.8404 -1.5163
  921SOL     OW 2761   2.759   1.032   1.528  0.1530 -0.6201 -0.6554
  921SOL    HW1 2762   2.783   0.935   1.553  0.6848 -2.9844  0.0020
  921SOL    HW2 2763   2.660   1.044   1.525  3.2020 -1.3604 -1.3102
  922SOL     OW 2764   2.674   2.263   0.689  0.3682 -0.0020 -0.2748
  922SOL    HW1 2765   2.571   2.277   0.696 -1.5108  0.4947  1.1479
  922SOL    HW2 2766   2.727   2.331   0.740 -1.0723  0.8751 -3.2313
  923SOL     OW 2767   0.593   2.390   0.542 -0.2707  0.5728 -0.0642
  923SOL    HW1 2768   0.563   2.346   0.455  1.2004  1.7120 -0.5884
  923SOL    HW2 2769   0.670   2.340   0.583 -1.1070  0.8207 -0.0260
  924SOL     OW 2770   1.108   1.228   2.768 -0.4300 -0.1080  0.6169
  924SOL    HW1 2771   1.023   1.260   2.818  0.6084 -1.1995 -1.2032
  924SOL    HW2 2772   1.184   1.298   2.761  0.9903 -1.7688  0.7957
  925SOL     OW 2773   2.869   1.338   0.732  0.3150  0.0474 -0.0744
  925SOL    HW1 2774   2.814   1.276   0.789 -0.9160  0.7096  0.2752
  925SOL    HW2 2775   2.813   1.367   0.650  0.7144  0.5635 -2.4635
  926SOL     OW 2776   0.120   0.090   0.908  0.4838 -0.1123  0.3374
  926SOL    HW1 2777   0.186   0.018   0.879 -1.2314 -0.8330 -0.1137
  926SOL    HW2 2778   0.026   0.056   0.898 -0.9544  0.7579  0.0659
  927SOL     OW 2779   0.370   2.143   2.725  0.9513  0.1336  0.0697
  927SOL    HW1 2780   0.313   2.150   2.807  0.7943 -0.8161  0.5627
  927SOL    HW2 2781   0.355   2.059   2.670 -2.3722  0.3094  2.6235
  928SOL     OW 2782   0.204   0.258   2.212  0.1557 -0.2309  0.0844
  928SOL    HW1 2783   0.122   0.225   2.158 -0.2237 -0.4960  2.0128
  928SOL    HW2 2784   0.284   0.199   2.203 -0.4255  5.7980  0.1346
  929SOL     OW 2785   2.893   2.004   1.114  0.2648 -0.0353 -0.6174
  929SOL    HW1 2786   2.809   2.039   1.160  1.4139 -1.2258  0.3059
  929SOL    HW2 2787   2.884   2.022   1.016 -1.9648  1.1825  0.0089
  930SOL     OW 2788   1.764   0.367   2.507 -0.1513  0.4070 -0.6884
  930SOL    HW1 2789   1.697   0.337   2.578 -0.1653 -0.9655  1.1264
  930SOL    HW2 2790   1.734   0.453   2.469 -1.1381  0.4085  0.6319
  931SOL     OW 2791   2.341   1.345   2.998  0.0338 -0.6361 -0.2267
  931SOL    HW1 2792   2.247   1.376   2.973  0.7381 -0.2461 -1.8999
  931SOL    HW2 2793   2.392   1.315   2.913  1.0236 -1.3235  0.3060
  932SOL     OW 2794   1.750   0.913   0.670  0.5903  0.1099 -0.0181
  932SOL    HW1 2795   1.798   0.824   0.665  0.7190 -1.3005 -0.7758
  932SOL    HW2 2796   1.757   0.957   0.580  3.0256  0.4992 -1.7777
  933SOL     OW 2797   2.220   1.178   0.738  0.6689 -0.0227  0.2619
  933SOL    HW1 2798   2.269   1.214   0.656  0.0515 -3.4353  0.2212
  933SOL    HW2 2799   2.132   1.228   0.752 -3.1788  0.7097 -0.4899
  934SOL     OW 2800   2.117   1.148   2.804 -0.1591  0.0462 -0.6103
  934SOL    HW1 2801   2.031   1.195   2.771  0.0390 -0.8869 -2.7262
  934SOL    HW2 2802   2.163   1.111   2.720  1.5949  0.5684  0.2031
  935SOL     OW 2803   0.179   1.394   0.810 -0.1025 -0.1649 -0.3684
  935SOL    HW1 2804   0.185   1.485   0.769 -0.7578  0.1521  2.2448
  935SOL    HW2 2805   0.123   1.327   0.756 -1.1909  2.2847 -3.2404
  936SOL     OW 2806   0.016   2.771   0.312 -0.5203 -0.3897  0.1760
  936SOL    HW1 2807   0.101   2.829   0.315 -1.1919  2.5760 -1.7347
  936SOL    HW2 2808   0.021   2.691   0.377  2.0195 -0.8345  2.0342
  937SOL     OW 2809   0.049   2.291   1.970 -0.2486  0.0730 -0.0207
  937SOL    HW1 2810   0.114   2.343   1.909  1.1182 -3.0370 -0.5220
  937SOL    HW2 2811   0.063   2.193   1.958  0.7122  2.7069  0.6947
  938SOL     OW 2812   2.448   2.238   2.729 -0.0815 -0.2351  0.2946
  938SOL    HW1 2813   2.419   2.324   2.688 -0.1147 -0.1971  0.0567
  938SOL    HW2 2814   2.537   2.212   2.691 -1.8930  0.1318  1.5680
  939SOL     OW 2815   0.986   0.755   1.156 -0.0261  0.7558 -0.3157
  939SOL    HW1 2816   0.954   0.658   1.190 -1.9983 -2.3185 -0.5360
  939SOL    HW2 2817   1.086   0.743   1.144  0.7464  1.7034 -1.9079
  940SOL     OW 2818   2.492   2.987   2.974  0.4084 -0.0521  0.1622
  940SOL    HW1 2819   2.401   2.998   3.029 -1.7163  0.1489  1.3721
  940SOL    HW2 2820   2.521   2.889   2.976 -0.6219  0.3508 -2.2694
  941SOL     OW 2821   2.681   2.796   2.285 -0.3163  0.5298 -0.7864
  941SOL    HW1 2822   2.740   2.785   2.205 -0.9213 -3.2893  0.5897
  941SOL    HW2 2823   2.601   2.856   2.268  0.2585 -2.1347 -1.9069
  942SOL     OW 2824   1.514   0.238   1.231 -0.1616  0.4080 -0.1892
  942SOL    HW1 2825   1.574   0.234   1.152 -3.0058 -0.7516 -3.2222
  942SOL    HW2 2826   1.508   0.334   1.267 -0.4670  0.5500 -0.4272
  943SOL     OW 2827   0.439   1.651   2.391 -0.4642  0.0119  0.1395
  943SOL    HW1 2828   0.475   1.688   2.302 -0.0942 -0.4124  0.2649
  943SOL    HW2 2829   0.345   1.629   2.375  2.8553 -1.4287 -2.2487
  944SOL     OW 2830   2.473   0.878   0.854  0.1439 -0.3311 -0.1350
  944SOL    HW1 2831   2.555   0.846   0.802  2.3886 -2.4388  2.0513
  944SOL    HW2 2832   2.451   0.977   0.845 -0.3136 -0.5199 -1.8606
  945SOL     OW 2833   3.012   0.254   2.833 -0.3612  0.1504  0.3240
  945SOL    HW1 2834   3.032   0.172   2.778  0.9533  1.6487 -0.4374
  945SOL    HW2 2835   0.002   0.305   2.855 -1.2023 -0.3858  1.0723
  946SOL     OW 2836   3.056   1.413   1.438 -0.5378 -0.8769  0.4536
  946SOL    HW1 2837   3.022   1.398   1.530  0.9426  2.5935 -3.1496
  946SOL    HW2 2838   0.011   1.329   1.407 -0.1466 -2.0413 -1.8874
  947SOL     OW 2839   0.910   0.260   2.994 -0.1549 -0.0883  0.1773
  947SOL    HW1 2840   0.813   0.295   2.991 -1.8521  2.0528  1.5334
  947SOL    HW2 2841   0.908   0.183   3.061 -1.8520  2.6545  0.8582
  948SOL     OW 2842   2.460   1.621   1.206 -0.3567  0.8409  0.0772
  948SOL    HW1 2843   2.370   1.570   1.197 -2.1689 -0.1345  0.5212
  948SOL    HW2 2844   2.504   1.640   1.113 -0.4961 -2.1500  0.2079
  949SOL     OW 2845   0.334   0.953   2.950  0.0380 -0.0861 -0.2610
  949SOL    HW1 2846   0.386   1.034   2.994  1.9891 -0.2519 -0.4418
  949SOL    HW2 2847   0.232   0.967   2.955 -0.5182 -0.7183  0.7228
  950SOL     OW 2848   0.362   2.713   1.234  0.3203 -0.4688  0.0884
  950SOL    HW1 2849   0.304   2.707   1.317 -2.4676 -0.1923 -2.8940
  950SOL    HW2 2850   0.458   2.723   1.258 -3.4191 -0.1716 -2.0022
  951SOL     OW 2851   0.815   1.726   2.593 -0.3540  0.0375 -0.5157
  951SOL    HW1 2852   0.730   1.751   2.644  0.1008 -0.2022 -2.4924
  951SOL    HW2 2853   0.874   1.807   2.568  0.8228 -1.8501 -1.2113
  952SOL     OW 2854   0.718   1.217   0.552 -0.1005 -0.0329 -0.5082
  952SOL    HW1 2855   0.772   1.154   0.614  0.9239  0.3337  3.3229
  952SOL    HW2 2856   0.767   1.307   0.539  0.4564  1.9269  2.6676
  953SOL     OW 2857   2.221   1.875   2.666  0.3323  0.1580  0.1309
  953SOL    HW1 2858   2.271   1.870   2.580 -2.0408 -1.2551  0.2579
  953SOL    HW2 2859   2.269   1.814   2.731  0.6038 -1.4851 -0.2061
  954SOL     OW 2860   1.492   0.402   0.813  0.1135  0.3188  0.0881
  954SOL    HW1 2861   1.452   0.307   0.801 -0.2653 -0.1096  0.0935
  954SOL    HW2 2862   1.429   0.459   0.873 -0.3125  0.8625 -3.6399
  955SOL     OW 2863   1.052   1.863   2.872 -0.5305 -0.1371 -0.3179
  955SOL    HW1 2864   1.029   1.957   2.838 -1.0964  1.2861 -0.9979
  955SOL    HW2 2865   1.081   1.852   2.969  1.8162  0.2638 -0.3509
  956SOL     OW 2866   2.901   0.578   1.979 -0.0111  0.2302 -0.1010
  956SOL    HW1 2867   2.935   0.644   1.911  0.5181  0.5940  1.7228
  956SOL    HW2 2868   2.837   0.508   1.940  2.0456  1.9188 -1.1363
  957SOL     OW 2869   1.719   2.010   2.043 -0.2279  0.1973  0.0415
  957SOL    HW1 2870   1.778   1.927   2.053 -0.8534 -1.0775 -1.6661
  957SOL    HW2 2871   1.654   1.996   1.963 -3.3451 -1.7103 -1.5868
  958SOL     OW 2872   1.776   1.017   1.284 -0.0519 -0.4371  0.4581
  958SOL    HW1 2873   1.738   1.106   1.322  0.7006  1.0052  0.9206
  958SOL    HW2 2874   1.873   1.028   1.258 -0.2541 -1.2906  0.8288
  959SOL     OW 2875   1.553   1.935   1.821 -0.2737 -0.5483 -0.1630
  959SOL    HW1 2876   1.583   1.873   1.747  2.4937 -1.4674 -0.0162
  959SOL    HW2 2877   1.463   1.908   1.855  0.4053  2.8451 -2.7835
  960SOL     OW 2878   0.413   1.036   2.695 -0.0389 -0.5048 -0.6183
  960SOL    HW1 2879   0.392   1.010   2.791 -2.3010  0.4844 -0.8823
  960SOL    HW2 2880   0.439   0.949   2.645  0.7446  0.2252 -1.5817
  961SOL     OW 2881   0.176   1.173   0.033  0.3694 -0.1880  0.4844
  961SOL    HW1 2882   0.130   1.173   3.032 -1.6901 -0.1624 -1.0809
  961SOL    HW2 2883   0.205   1.269   0.053  2.4050 -1.0616  1.5122
  962SOL     OW 2884   1.006   2.124   2.779 -0.2236 -0.1721 -0.4996
  962SOL    HW1 2885   0.933   2.196   2.755  0.9229  0.3757  0.9272
  962SOL    HW2 2886   1.094   2.169   2.810 -0.9945 -3.4542  2.1331
  963SOL     OW 2887   2.968   1.686   3.051  0.1799  0.1979 -0.4351
  963SOL    HW1 2888   3.051   1.632   3.075 -1.4700 -1.9686 -0.2875
  963SOL    HW2 2889   2.965   1.770   0.018 -0.1834  0.8718  2.1944
  964SOL     OW 2890   0.478   2.297   2.349 -0.5020 -0.2256 -0.6454
  964SOL    HW1 2891   0.524   2.339   2.269  3.5525  0.1116 -1.5481
  964SOL    HW2 2892   0.503   2.342   2.437  2.1705 -1.1055  0.7250
  965SOL     OW 2893   1.768   1.827   1.465 -0.6303 -0.5632  0.3946
  965SOL    HW1 2894   1.789   1.745   1.407 -0.1397  1.2327  3.0461
  965SOL    HW2 2895   1.701   1.809   1.539 -0.7595  2.8102 -0.0472
  966SOL     OW 2896   2.946   1.443   0.377 -0.1815  0.1606  0.1712
  966SOL    HW1 2897   3.030   1.486   0.409 -0.0165  1.6516  0.8441
  966SOL    HW2 2898   2.957   1.381   0.294  0.3475  0.5782 -1.3911
  967SOL     OW 2899   2.137   2.676   2.087  0.2640  0.5183 -0.2865
  967SOL    HW1 2900   2.092   2.581   2.091  0.5437 -2.5876  2.3509
  967SOL    HW2 2901   2.066   2.749   2.103  2.4032 -0.8972  1.4006
  968SOL     OW 2902   1.655   1.236   0.013  0.0925  0.3761  0.2042
  968SOL    HW1 2903   1.688   1.231   0.104  1.4904 -0.4017  0.1427
  968SOL    HW2 2904   1.593   1.155   3.091  0.9235 -0.3790 -0.1273
  969SOL     OW 2905   0.121   1.171   2.384  0.0469 -0.8395 -0.1214
  969SOL    HW1 2906   0.125   1.082   2.339 -1.1424  1.7811  0.2171
  969SOL    HW2 2907   0.204   1.191   2.438  2.2934 -0.7763 -1.5528
  970SOL     OW 2908   2.537   2.847   0.551  0.2239 -0.0608  0.2166
  970SOL    HW1 2909   2.589   2.846   0.464  1.1784  1.4160  0.8513
  970SOL    HW2 2910   2.449   2.903   0.552 -2.6505  0.1190  1.5517
  971SOL     OW 2911   2.091   2.074   0.701 -0.3055 -0.1515  0.1664
  971SOL    HW1 2912   2.014   2.041   0.759  0.5225 -1.5429  2.2489
  971SOL    HW2 2913   2.163   2.117   0.759 -3.3707  1.1906  0.5892
  972SOL     OW 2914   0.297   1.583   2.719  0.4549  0.2736 -0.5637
  972SOL    HW1 2915   0.245   1.612   2.634  0.6707  1.0181 -0.0044
  972SOL    HW2 2916   0.390   1.573   2.691 -1.0479 -0.9373 -1.1293
  973SOL     OW 2917   0.908   0.521   0.352  0.3681 -0.4809  0.1370
  973SOL    HW1 2918   0.913   0.419   0.368  0.6197  2.0268 -0.4754
  973SOL    HW2 2919   0.997   0.568   0.342 -0.1933 -3.0571  1.0787
  974SOL     OW 2920   2.243   0.676   1.822 -0.0057  0.7403 -0.5388
  974SOL    HW1 2921   2.216   0.577   1.836  0.3610  1.5942 -1.7774
  974SOL    HW2 2922   2.302   0.707   1.901  2.7657 -0.5094  1.6656
  975SOL     OW 2923   0.107   0.099   0.519 -0.3589 -0.1165  0.5053
  975SOL    HW1 2924   0.194   0.058   0.550 -1.3728  1.1001 -1.1077
  975SOL    HW2 2925   0.059   0.153   0.587 -1.3570 -0.8656 -0.7465
  976SOL     OW 2926   0.727   1.295   1.294 -0.3796  0.7684  0.1656
  976SOL    HW1 2927   0.769   1.229   1.228  0.2606  1.6660 -0.5873
  976SOL    HW2 2928   0.768   1.388   1.274 -1.0357 -1.9537  1.0625
  977SOL     OW 2929   1.363   2.193   0.310 -0.2444  0.2414 -0.0181
  977SOL    HW1 2930   1.423   2.181   0.226 -1.5262  0.4742  1.4693
  977SOL    HW2 2931   1.315   2.284   0.298  0.3417  1.7586 -3.5242
  978SOL     OW 2932   0.059   0.798   0.089  0.2763 -0.4352  0.7318
  978SOL    HW1 2933   0.049   0.828   3.085 -1.5306  1.7069  1.7919
  978SOL    HW2 2934   0.124   0.850   0.145 -2.1522  1.2562 -1.0691
  979SOL     OW 2935   1.989   1.678   0.454  0.1088 -0.3182  0.4576
  979SOL    HW1 2936   1.964   1.594   0.500  1.9784 -0.0036 -2.6700
  979SOL    HW2 2937   1.904   1.734   0.452  1.6721 -1.3864  0.7578
  980SOL     OW 2938   0.479   1.702   1.375  0.0554 -0.5184 -0.2425
  980SOL    HW1 2939   0.579   1.710   1.403 -0.1835  1.0511  0.0961
  980SOL    HW2 2940   0.448   1.794   1.344 -0.8400 -0.1945 -1.2926
  981SOL     OW 2941   2.686   1.437   2.794  0.4625 -0.5820  0.1145
  981SOL    HW1 2942   2.780   1.399   2.762 -0.8616 -0.7935 -1.9978
  981SOL    HW2 2943   2.607   1.388   2.755  1.5439 -0.3718  1.2936
  982SOL     OW 2944   0.337   1.932   1.773 -0.0326  0.8709 -0.2467
  982SOL    HW1 2945   0.313   1.979   1.693  1.5310  2.1136  0.9791
  982SOL    HW2 2946   0.330   1.829   1.749  0.5992 -2.8947 -1.4477
  983SOL     OW 2947   1.420   0.117   2.178 -0.3145  0.2552 -0.0785
  983SOL    HW1 2948   1.367   0.032   2.165 -3.0153 -1.0589  2.3439
  983SOL    HW2 2949   1.369   0.202   2.155  0.1421  0.5368  0.4627
  984SOL     OW 2950   2.935   2.975   2.917 -0.3026  0.3290  0.2221
  984SOL    HW1 2951   2.972   3.067   2.924  0.3573 -2.8544 -0.0491
  984SOL    HW2 2952   2.903   2.958   2.823 -0.4507  0.5361  1.7499
  985SOL     OW 2953   1.447   1.352   2.013 -0.2108  0.0113  0.1063
  985SOL    HW1 2954   1.429   1.434   1.953 -0.8215  2.5393 -2.5085
  985SOL    HW2 2955   1.530   1.297   1.979  0.2251 -0.5187 -0.0663
  986SOL     OW 2956   1.922   0.350   2.937  0.1707 -0.1809  0.6132
  986SOL    HW1 2957   1.970   0.411   3.005 -0.3338 -0.5559 -0.4259
  986SOL    HW2 2958   1.860   0.403   2.875 -1.8449  1.8274  2.5514
  987SOL     OW 2959   2.988   1.762   2.527  0.3562  0.2705 -0.3485
  987SOL    HW1 2960   2.998   1.769   2.626 -0.2780 -1.4591 -1.5041
  987SOL    HW2 2961   2.888   1.750   2.512  2.0710  0.3573 -0.4389
  988SOL     OW 2962   2.975   0.214   1.272 -0.0464  0.1911 -0.2364
  988SOL    HW1 2963   3.055   0.173   1.312 -0.8471  1.4910 -0.6090
  988SOL    HW2 2964   2.912   0.141   1.229  0.4032 -1.4632 -1.6766
  989SOL     OW 2965   1.917   0.141   1.083 -0.3717  0.1693 -0.6866
  989SOL    HW1 2966   1.928   0.041   1.063  1.0546 -1.6461 -3.0629
  989SOL    HW2 2967   1.966   0.164   1.168  1.1505  0.0018 -0.6178
  990SOL     OW 2968   2.525   0.800   0.022 -0.3154  0.4409 -0.1295
  990SOL    HW1 2969   2.592   0.816   3.036  0.1057 -0.2401 -0.5600
  990SOL    HW2 2970   2.519   0.887   0.082 -2.1119  1.5135  3.7950
  991SOL     OW 2971   0.216   1.290   0.389  0.0415  0.1006 -0.0858
  991SOL    HW1 2972   0.155   1.221   0.424  2.0457  1.4552 -1.3254
  991SOL    HW2 2973   0.300   1.307   0.446 -0.0650  2.2042 -1.2325
  992SOL     OW 2974   1.900   1.370   1.860  0.2703  0.4612 -0.2932
  992SOL    HW1 2975   1.905   1.308   1.942 -0.8287  0.4229 -0.6654
  992SOL    HW2 2976   1.990   1.374   1.815  0.1164  2.1396 -1.0134
  993SOL     OW 2977   0.356   2.346   0.676  0.0645  0.0765 -0.8222
  993SOL    HW1 2978   0.344   2.407   0.759 -2.0379  1.4066  1.7321
  993SOL    HW2 2979   0.439   2.379   0.624 -0.4078 -2.2730  0.7922
  994SOL     OW 2980   2.962   1.796   1.740  0.1853  0.7596 -0.4280
  994SOL    HW1 2981   2.871   1.744   1.750 -2.6737 -0.6025 -1.0510
  994SOL    HW2 2982   2.962   1.860   1.665 -0.6584  0.5126 -1.1426
  995SOL     OW 2983   1.944   1.786   2.698  0.1275 -0.1290  0.0495
  995SOL    HW1 2984   1.884   1.819   2.621 -0.2166 -0.6132  0.1079
  995SOL    HW2 2985   2.032   1.833   2.702  2.2861  0.1844 -0.5156
  996SOL     OW 2986   2.067   2.322   0.518  0.1368  0.3891  0.0161
  996SOL    HW1 2987   1.976   2.285   0.495 -0.7562  0.8318  0.3945
  996SOL    HW2 2988   2.138   2.252   0.500  0.2790  0.1373 -0.1621
  997SOL     OW 2989   0.882   1.675   2.079 -0.4789  0.1441  0.3687
  997SOL    HW1 2990   0.811   1.653   2.150 -0.0803  0.6723  2.2348
  997SOL    HW2 2991   0.968   1.627   2.103 -2.1151  0.0323 -0.0144
  998SOL     OW 2992   0.032   2.464   0.638  0.2747  0.3209 -0.0422
  998SOL    HW1 2993   0.020   2.368   0.668 -0.4944 -0.1084  3.2684
  998SOL    HW2 2994   0.062   2.467   0.536 -1.3549  1.7214 -0.6472
  999SOL     OW 2995   0.649   2.955   0.300 -0.3350 -0.4480 -0.2781
  999SOL    HW1 2996   0.591   2.873   0.273 -0.8673  1.9855 -1.0320
  999SOL    HW2 2997   0.665   2.953   0.399 -1.3175  0.1952 -2.6026
 1000SOL     OW 2998   1.121   0.267   0.196  0.6766 -0.1978 -0.0388
 1000SOL    HW1 2999   1.218   0.257   0.173 -3.0348 -0.8059  0.8718
 1000SOL    HW2 3000   1.089   0.362   0.173  0.9656 -0.2788 -0.5720
   3.09396   3.09396   3.09396
