1000 SPC/Fw water molecules t=  43.00000 step= 43000
 3000
    1SOL     OW    1   2.062   2.740   0.530  0.1972  0.2584  0.0504
    1SOL    HW1    2   2.084   2.714   0.435  1.4744  2.0175 -0.6860
    1SOL    HW2    3   1.968   2.781   0.530 -1.2130  2.3516 -1.2259
    2SOL     OW    4   1.300   0.707   2.223 -0.3432  0.1669  0.2251
    2SOL    HW1    5   1.399   0.678   2.226 -1.1494 -0.0612 -3.0322
    2SOL    HW2    6   1.261   0.698   2.317  0.3946 -0.0210  1.3234
    3SOL     OW    7   1.057   2.678   2.772 -0.0268 -0.4815 -0.3760
    3SOL    HW1    8   1.079   2.731   2.856  2.2105 -1.4696  0.4082
    3SOL    HW2    9   1.035   2.581   2.800 -0.0071  1.8900  0.8285
    4SOL     OW   10   1.209   1.436   2.872  0.0887  0.3565  0.5864
    4SOL    HW1   11   1.270   1.367   2.838 -2.6706  3.6178  2.2422
    4SOL    HW2   12   1.258   1.481   2.951  0.3490 -2.6839  0.5870
    5SOL     OW   13   0.774   1.231   2.150 -0.4246  0.3973 -0.4516
    5SOL    HW1   14   0.859   1.171   2.151  2.4762 -2.0256 -0.4589
    5SOL    HW2   15   0.791   1.294   2.073  1.0901  0.3532  1.9139
    6SOL     OW   16   2.195   0.765   2.412  0.7193  0.3832  0.0770
    6SOL    HW1   17   2.165   0.664   2.405 -3.1275 -0.0911  0.9930
    6SOL    HW2   18   2.293   0.771   2.380 -1.2516  0.4460  1.8296
    7SOL     OW   19   0.544   0.777   1.486 -0.0491 -0.1909  0.0930
    7SOL    HW1   20   0.487   0.767   1.405  0.8248 -0.2763 -1.2309
    7SOL    HW2   21   0.613   0.701   1.501 -0.0897 -3.0719  0.3494
    8SOL     OW   22   1.923   2.868   1.874 -0.1117 -0.1513 -0.1386
    8SOL    HW1   23   1.823   2.860   1.885 -2.9786  1.0997  2.0313
    8SOL    HW2   24   1.951   2.919   1.789  2.6429  2.5623  1.1684
    9SOL     OW   25   0.264   0.066   0.837 -0.6060 -0.4680 -0.0197
    9SOL    HW1   26   0.338   0.136   0.828  3.1011  2.0642  1.6918
    9SOL    HW2   27   0.176   0.112   0.817 -2.4387  1.6574 -0.6947
   10SOL     OW   28   0.228   2.348   2.534 -0.2478 -0.7033  0.3405
   10SOL    HW1   29   0.326   2.389   2.547  4.3115  0.7816 -1.4972
   10SOL    HW2   30   0.201   2.295   2.616 -1.1636  0.1650 -2.3740
   11SOL     OW   31   0.754   1.637   2.929 -0.1661 -0.0270 -0.1175
   11SOL    HW1   32   0.674   1.612   2.990  0.6474 -0.8644 -2.5852
   11SOL    HW2   33   0.840   1.582   2.954  1.8895 -1.7089 -2.5029
   12SOL     OW   34   2.449   2.644   1.183  0.1556  0.1450  0.0336
   12SOL    HW1   35   2.534   2.643   1.125 -1.7701  2.2260  0.2735
   12SOL    HW2   36   2.377   2.635   1.116 -1.2828 -0.2194  1.4314
   13SOL     OW   37   0.457   2.866   2.980 -0.1149 -0.0741  0.0847
   13SOL    HW1   38   0.505   2.936   3.039 -1.5985  0.3540 -1.0694
   13SOL    HW2   39   0.516   2.781   2.969 -0.3595 -1.3453 -0.0035
   14SOL     OW   40   1.334   1.534   1.447  0.3335  0.1789  0.1049
   14SOL    HW1   41   1.352   1.450   1.506 -0.1525 -0.4517  1.4181
   14SOL    HW2   42   1.341   1.616   1.504  2.3389  0.3400 -0.0314
   15SOL     OW   43   0.339   1.530   2.302 -0.3768 -0.2042  0.2530
   15SOL    HW1   44   0.343   1.598   2.228 -0.2081 -0.3684  0.2700
   15SOL    HW2   45   0.252   1.480   2.309 -1.0296 -0.0621 -1.7004
   16SOL     OW   46   1.713   0.682   2.701 -0.2225  0.4263  0.2707
   16SOL    HW1   47   1.624   0.666   2.743  0.2076 -0.4374 -2.1794
   16SOL    HW2   48   1.745   0.777   2.720  1.3435 -3.3503 -2.1716
   17SOL     OW   49   3.044   2.791   2.415 -0.1550  0.2999 -0.1422
   17SOL    HW1   50   3.039   2.774   2.518  0.1228 -2.0434  3.3099
   17SOL    HW2   51   0.030   2.754   2.381 -2.4667 -1.1912  0.8827
   18SOL     OW   52   1.401   1.080   0.401  0.2801  0.3213  0.1499
   18SOL    HW1   53   1.338   1.146   0.453  1.6970  1.3559 -0.7524
   18SOL    HW2   54   1.481   1.052   0.459 -2.6537  0.7477 -0.7840
   19SOL     OW   55   3.062   1.670   2.301  0.0733 -0.2747 -0.7978
   19SOL    HW1   56   0.028   1.706   2.233 -3.4875  0.5161  1.4340
   19SOL    HW2   57   0.007   1.640   2.386 -0.3437 -0.3091  0.0532
   20SOL     OW   58   2.274   2.550   2.480  0.1073  0.2222  0.0022
   20SOL    HW1   59   2.196   2.567   2.419  0.2718 -1.2818 -0.8048
   20SOL    HW2   60   2.325   2.465   2.454 -2.0993 -0.3671 -1.9275
   21SOL     OW   61   1.708   1.973   0.769 -0.0592  0.2135 -0.7295
   21SOL    HW1   62   1.769   2.031   0.711 -0.6872 -0.7623  1.1328
   21SOL    HW2   63   1.700   2.022   0.857  3.5286  1.3359 -1.2762
   22SOL     OW   64   2.475   2.062   1.356  0.0833 -0.0777 -0.0136
   22SOL    HW1   65   2.523   1.984   1.304 -0.4124  2.1255 -0.7467
   22SOL    HW2   66   2.417   2.122   1.301  0.7792  0.1046  1.6293
   23SOL     OW   67   0.051   1.320   1.187  0.5080 -0.2367  0.0547
   23SOL    HW1   68   0.133   1.378   1.201  0.8777  0.4096  0.2904
   23SOL    HW2   69   3.068   1.370   1.152  0.0039 -2.1061 -2.8840
   24SOL     OW   70   1.962   1.256   1.963  0.6306 -0.0185  0.0514
   24SOL    HW1   71   1.860   1.269   1.978 -2.5023 -0.6363  0.2253
   24SOL    HW2   72   2.018   1.324   1.917  1.7925  0.3720  3.3727
   25SOL     OW   73   1.750   0.014   2.334 -0.1637  0.1608  0.1017
   25SOL    HW1   74   1.772   0.102   2.376  0.4838 -2.6949  1.5327
   25SOL    HW2   75   1.817   3.084   2.261  2.4869 -1.8626  0.4477
   26SOL     OW   76   0.837   0.420   0.357 -0.1523 -0.2235  0.1266
   26SOL    HW1   77   0.819   0.357   0.277 -0.8136 -1.4561 -1.2013
   26SOL    HW2   78   0.926   0.470   0.351  1.8675  1.2759 -1.6274
   27SOL     OW   79   0.969   1.441   0.778 -0.2702  0.5118  0.3233
   27SOL    HW1   80   0.921   1.521   0.731  0.2091 -2.6560 -1.9378
   27SOL    HW2   81   0.973   1.462   0.878 -0.2234 -1.0789 -0.7463
   28SOL     OW   82   2.291   2.144   0.981  0.0402 -0.4119  0.2637
   28SOL    HW1   83   2.315   2.140   1.078 -3.1363  2.2921 -0.6139
   28SOL    HW2   84   2.337   2.219   0.927 -0.6453  0.7959  2.7287
   29SOL     OW   85   2.207   3.039   2.033 -0.5859 -0.0140 -0.0754
   29SOL    HW1   86   2.198   0.036   2.001 -1.0741  1.6950 -1.5329
   29SOL    HW2   87   2.250   2.977   1.964  1.1969 -3.2552  0.0734
   30SOL     OW   88   3.072   2.823   1.737  0.5547 -0.3274  0.5740
   30SOL    HW1   89   0.022   2.730   1.716  0.7397 -1.1925 -0.9336
   30SOL    HW2   90   3.000   2.839   1.667  1.7597 -0.5580 -0.8575
   31SOL     OW   91   0.109   1.830   2.120  0.4226 -0.3958  0.0343
   31SOL    HW1   92   0.030   1.895   2.125 -2.5364 -1.0566 -2.3031
   31SOL    HW2   93   0.170   1.866   2.043  0.3176  0.0266  0.1631
   32SOL     OW   94   1.664   2.368   2.330  0.0342 -0.3405  0.6186
   32SOL    HW1   95   1.603   2.420   2.274  1.6496 -0.7028  0.4482
   32SOL    HW2   96   1.665   2.401   2.424 -0.2406  0.8901 -4.3702
   33SOL     OW   97   0.358   0.158   2.677  0.1128 -0.1801  0.4346
   33SOL    HW1   98   0.459   0.140   2.707  6.0608  0.1821  0.8824
   33SOL    HW2   99   0.318   0.071   2.654 -0.0525 -1.6929  2.9350
   34SOL     OW  100   2.667   0.047   0.363 -0.3200 -0.6162 -0.1630
   34SOL    HW1  101   2.742   0.043   0.437  2.0426 -0.5792 -0.6821
   34SOL    HW2  102   2.605   0.121   0.393 -0.4166  1.9374  1.6511
   35SOL     OW  103   2.825   2.823   1.612 -0.1030  0.6811 -0.3454
   35SOL    HW1  104   2.831   2.885   1.533  0.7447  0.8810 -1.3198
   35SOL    HW2  105   2.734   2.783   1.622 -0.7086 -0.3750 -1.2775
   36SOL     OW  106   2.639   0.037   2.246 -0.0601 -0.4277  0.0717
   36SOL    HW1  107   2.659   0.004   2.340  2.3146 -1.8860  0.5403
   36SOL    HW2  108   2.705   0.109   2.226 -1.1194  0.0052  2.5191
   37SOL     OW  109   1.488   3.076   0.015 -0.0284 -0.0138  0.2073
   37SOL    HW1  110   1.524   0.030   0.096 -0.7208 -0.5836 -2.3674
   37SOL    HW2  111   1.445   2.984   0.034  1.7869  0.3514  0.8787
   38SOL     OW  112   0.277   0.498   0.055 -0.1286  0.5522 -0.2015
   38SOL    HW1  113   0.323   0.510   0.144 -0.4196 -0.4479 -3.0941
   38SOL    HW2  114   0.331   0.537   3.081  0.0236 -1.8875  1.4244
   39SOL     OW  115   1.345   1.734   2.214  0.0660  0.2928 -0.2489
   39SOL    HW1  116   1.410   1.655   2.232 -0.4501 -2.6555  2.7407
   39SOL    HW2  117   1.307   1.771   2.304  1.6006 -0.3290 -2.1042
   40SOL     OW  118   0.139   0.610   2.585 -0.5958 -0.5964  0.3263
   40SOL    HW1  119   0.234   0.643   2.603  0.7972 -2.4341 -0.2648
   40SOL    HW2  120   0.126   0.508   2.560 -1.5211 -0.5919 -0.9893
   41SOL     OW  121   1.500   1.050   2.190 -0.2032  0.3620 -0.4532
   41SOL    HW1  122   1.556   1.006   2.114  2.3358  0.3673  2.1711
   41SOL    HW2  123   1.545   1.033   2.283  0.2637  0.7674  0.0770
   42SOL     OW  124   2.938   0.232   1.543 -0.0648  0.7865 -0.0879
   42SOL    HW1  125   2.940   0.332   1.524  0.1888  0.9072 -0.1330
   42SOL    HW2  126   3.004   0.210   1.620 -2.2964 -0.2451  0.5721
   43SOL     OW  127   1.273   1.189   1.756  0.1515  0.5976 -0.2088
   43SOL    HW1  128   1.342   1.186   1.835 -1.0714  0.0375  1.3353
   43SOL    HW2  129   1.218   1.105   1.757 -0.8718 -1.0847  2.4809
   44SOL     OW  130   0.030   0.084   3.072 -0.2260 -0.1126 -0.2611
   44SOL    HW1  131   0.069   0.150   0.040  0.8022  0.0270 -2.3738
   44SOL    HW2  132   3.050   0.033   0.011 -0.4789  0.1301 -3.0314
   45SOL     OW  133   0.324   2.015   1.632 -0.2025  0.8292  0.0262
   45SOL    HW1  134   0.340   2.077   1.547 -0.0547  1.3830 -1.6197
   45SOL    HW2  135   0.414   1.983   1.669  1.3158 -0.1498  0.4307
   46SOL     OW  136   2.366   2.939   1.822 -0.3125  0.5969  0.1135
   46SOL    HW1  137   2.427   3.011   1.854 -0.5012 -1.5719  3.2918
   46SOL    HW2  138   2.419   2.848   1.816  1.2834 -2.7949  1.3302
   47SOL     OW  139   0.504   1.951   1.226  0.0991  0.2973 -0.5001
   47SOL    HW1  140   0.584   1.888   1.243  1.4261  1.3139 -0.9079
   47SOL    HW2  141   0.426   1.903   1.181  3.5580  0.5504  1.9257
   48SOL     OW  142   0.620   2.653   2.956 -0.2513 -0.6902  0.1249
   48SOL    HW1  143   0.610   2.560   2.919 -1.4075 -0.7189  1.2492
   48SOL    HW2  144   0.673   2.664   3.046 -2.9855  2.0197  3.6749
   49SOL     OW  145   2.906   1.535   1.671  0.1766 -0.1773 -0.1587
   49SOL    HW1  146   2.988   1.483   1.703 -1.0543 -0.5966  1.5105
   49SOL    HW2  147   2.888   1.523   1.569 -0.7087  0.4021  0.9871
   50SOL     OW  148   1.345   2.814   0.578  0.3289  0.6123  0.4492
   50SOL    HW1  149   1.336   2.804   0.681 -1.2082  3.2445 -1.9678
   50SOL    HW2  150   1.288   2.889   0.544  2.0612 -0.1714 -2.4243
   51SOL     OW  151   1.049   2.986   1.044 -0.1712 -0.0587  0.5014
   51SOL    HW1  152   1.139   3.037   1.024  0.2300 -0.5129  1.4041
   51SOL    HW2  153   0.972   3.054   1.052  1.7771 -0.0803  0.4188
   52SOL     OW  154   0.693   1.323   0.377  0.2017  0.0037 -0.4773
   52SOL    HW1  155   0.696   1.311   0.274 -0.6122 -2.0289 -0.5730
   52SOL    HW2  156   0.628   1.254   0.422  0.0838  1.7500  2.3730
   53SOL     OW  157   1.310   2.703   2.635 -0.3358  0.1788  0.2184
   53SOL    HW1  158   1.337   2.800   2.634 -1.3008  2.4931 -2.2721
   53SOL    HW2  159   1.213   2.693   2.671  0.6171 -2.2405  1.7728
   54SOL     OW  160   1.886   0.475   1.800 -0.5970  0.1474 -0.3430
   54SOL    HW1  161   1.894   0.433   1.712 -0.7465  2.5327 -1.4905
   54SOL    HW2  162   1.866   0.398   1.860 -1.0695 -0.3963 -0.4339
   55SOL     OW  163   3.077   2.464   0.537 -0.2603  0.3631 -0.3526
   55SOL    HW1  164   3.028   2.556   0.533  0.6737 -0.0751 -0.7072
   55SOL    HW2  165   0.080   2.478   0.546 -2.0212 -0.7612 -0.6519
   56SOL     OW  166   1.031   2.791   1.805  0.2143 -0.3995  0.1484
   56SOL    HW1  167   1.020   2.890   1.789 -0.4973 -0.3070  0.7332
   56SOL    HW2  168   0.950   2.740   1.776  0.8889  0.7923  0.1670
   57SOL     OW  169   1.969   0.952   2.391 -0.1887  0.6362 -0.3464
   57SOL    HW1  170   2.048   0.891   2.423 -0.9863 -0.6118  1.8851
   57SOL    HW2  171   1.977   0.977   2.289 -1.9638 -1.0511 -0.0640
   58SOL     OW  172   0.162   0.943   2.056  0.4264  0.1923  0.0182
   58SOL    HW1  173   0.118   0.852   2.078  1.6586 -2.5549  0.0968
   58SOL    HW2  174   0.214   0.946   1.966  1.8746  0.2331 -3.6462
   59SOL     OW  175   0.944   2.353   1.898 -0.3756  0.2821 -0.1964
   59SOL    HW1  176   0.915   2.392   1.808  1.2087 -1.4272  1.6808
   59SOL    HW2  177   1.035   2.387   1.930  0.8018  0.7643  1.1471
   60SOL     OW  178   2.176   2.629   0.296 -0.3370 -0.2997 -0.0470
   60SOL    HW1  179   2.222   2.550   0.243 -1.7421 -1.2610  0.0327
   60SOL    HW2  180   2.219   2.722   0.290  0.6598  1.8935  1.7396
   61SOL     OW  181   1.609   2.389   0.741  0.2330  0.4863  0.3668
   61SOL    HW1  182   1.689   2.386   0.807  0.9600 -0.9467 -1.0707
   61SOL    HW2  183   1.525   2.422   0.783 -0.0895 -0.9425  0.6148
   62SOL     OW  184   1.666   2.967   2.952  1.0287  0.0119 -0.5298
   62SOL    HW1  185   1.746   2.922   2.997 -0.4682 -0.7752  2.4353
   62SOL    HW2  186   1.611   3.020   3.018  0.1687  1.9606  1.3271
   63SOL     OW  187   2.436   0.504   3.047  0.1957 -0.2697 -0.0069
   63SOL    HW1  188   2.452   0.599   3.092  1.4599  2.8243  1.0571
   63SOL    HW2  189   2.525   0.459   3.024  0.6574  1.8140  0.3107
   64SOL     OW  190   1.433   0.916   2.893  0.2059 -0.1924 -0.2903
   64SOL    HW1  191   1.376   0.847   2.853  1.1619  0.1849  0.1369
   64SOL    HW2  192   1.372   0.962   2.964 -2.7352  1.3815  1.3642
   65SOL     OW  193   0.690   2.853   1.599 -0.3045 -0.3106  0.5508
   65SOL    HW1  194   0.724   2.790   1.533  0.4449  0.7759  5.1872
   65SOL    HW2  195   0.605   2.811   1.638 -1.3737 -2.2101  0.1728
   66SOL     OW  196   1.006   0.980   1.465  0.5691  0.0860 -0.0574
   66SOL    HW1  197   1.093   1.011   1.420 -0.0496  0.6327 -3.2392
   66SOL    HW2  198   0.922   0.996   1.407 -0.3560 -1.1600 -1.1020
   67SOL     OW  199   2.215   2.237   1.929 -0.1749 -0.0685 -0.4664
   67SOL    HW1  200   2.187   2.328   1.968 -0.5218 -1.2733 -2.6974
   67SOL    HW2  201   2.205   2.251   1.829 -1.2917 -0.2158 -1.1002
   68SOL     OW  202   0.817   1.410   1.963  0.0243  0.1969  0.3556
   68SOL    HW1  203   0.787   1.506   1.982 -0.5738 -1.1523 -0.5246
   68SOL    HW2  204   0.848   1.395   1.868  0.7848 -0.6143  3.0724
   69SOL     OW  205   2.735   2.612   0.225  0.1470 -0.8719 -0.7115
   69SOL    HW1  206   2.817   2.561   0.195  3.5298 -2.2127 -1.2270
   69SOL    HW2  207   2.729   2.639   0.325  1.4548  1.6318  1.9915
   70SOL     OW  208   2.436   0.761   2.326  0.1582 -0.2924 -0.3123
   70SOL    HW1  209   2.480   0.756   2.418  0.4460  0.9550  0.4334
   70SOL    HW2  210   2.501   0.727   2.256  0.4701  0.9301  0.8737
   71SOL     OW  211   0.455   1.926   0.924  0.4647  0.0483  0.5877
   71SOL    HW1  212   0.379   1.896   0.976  5.3642 -1.5180 -2.0325
   71SOL    HW2  213   0.451   2.024   0.906  1.2553 -0.8842 -1.6055
   72SOL     OW  214   2.554   2.109   0.796  0.0543 -0.1989 -0.7500
   72SOL    HW1  215   2.499   2.101   0.716  2.9926  0.2681  1.5498
   72SOL    HW2  216   2.610   2.191   0.803 -1.4838 -4.5908  1.4184
   73SOL     OW  217   1.092   0.446   0.575 -0.8567 -0.1392 -0.2366
   73SOL    HW1  218   1.060   0.507   0.502  0.1468 -3.7022  2.2183
   73SOL    HW2  219   1.148   0.503   0.630 -2.9313 -2.2811 -3.3223
   74SOL     OW  220   2.586   2.174   1.994  0.7858  0.7788 -0.0681
   74SOL    HW1  221   2.509   2.117   1.967  4.4224 -2.6548 -1.9581
   74SOL    HW2  222   2.561   2.274   1.997 -0.9832 -1.6807  2.3493
   75SOL     OW  223   1.479   1.618   1.831  0.1149 -0.1365  0.1610
   75SOL    HW1  224   1.465   1.702   1.890 -0.3532  1.1191  0.0264
   75SOL    HW2  225   1.521   1.536   1.884  3.1953 -3.6892  0.7703
   76SOL     OW  226   1.104   1.811   1.185  0.2933  0.1541  0.2864
   76SOL    HW1  227   1.187   1.869   1.210  1.5023  2.0840 -0.3620
   76SOL    HW2  228   1.108   1.717   1.224 -1.0970 -1.8431 -1.1110
   77SOL     OW  229   2.739   1.361   1.806 -0.4654  0.6264  0.3119
   77SOL    HW1  230   2.731   1.394   1.901 -3.2606 -2.0555  0.0239
   77SOL    HW2  231   2.795   1.429   1.752 -1.3889 -0.9498 -2.3873
   78SOL     OW  232   1.660   0.644   0.304 -0.3288 -0.2329 -0.1993
   78SOL    HW1  233   1.735   0.584   0.272  0.4014 -1.0067  1.7072
   78SOL    HW2  234   1.600   0.605   0.374  3.4920 -2.1384 -0.0729
   79SOL     OW  235   1.464   1.501   2.184 -0.1947  0.4646  0.1314
   79SOL    HW1  236   1.554   1.453   2.162  1.7688  1.1224 -2.0595
   79SOL    HW2  237   1.399   1.437   2.226 -0.3353 -1.3929 -1.7878
   80SOL     OW  238   0.994   0.352   1.689  0.1262 -0.0248  0.0258
   80SOL    HW1  239   0.980   0.383   1.592 -0.0904 -0.3935 -2.1692
   80SOL    HW2  240   1.088   0.349   1.721 -1.9681  1.5458  1.7720
   81SOL     OW  241   0.739   2.336   0.428 -0.3772  0.1371  0.2167
   81SOL    HW1  242   0.717   2.372   0.336 -1.6429 -0.8151 -0.4126
   81SOL    HW2  243   0.800   2.254   0.420 -2.3256 -1.5911 -0.6949
   82SOL     OW  244   1.225   0.482   1.791 -0.1649  0.2361 -0.2341
   82SOL    HW1  245   1.301   0.499   1.725  0.3512 -1.7356  0.2469
   82SOL    HW2  246   1.257   0.435   1.875  1.7990  0.2379  1.1338
   83SOL     OW  247   0.427   2.189   0.906 -0.3143 -0.0098 -0.2113
   83SOL    HW1  248   0.422   2.281   0.944 -0.8581 -1.0879 -2.9382
   83SOL    HW2  249   0.374   2.185   0.815 -1.3807  1.0898 -0.6941
   84SOL     OW  250   2.742   1.615   0.569  0.6427  0.4209  0.0556
   84SOL    HW1  251   2.786   1.532   0.525 -1.1856  1.6109 -2.6033
   84SOL    HW2  252   2.711   1.609   0.668 -1.0815 -0.4212  3.4208
   85SOL     OW  253   2.365   2.010   1.598  0.2250 -0.2957 -0.0628
   85SOL    HW1  254   2.422   2.044   1.519  2.5516  2.6986 -2.2921
   85SOL    HW2  255   2.420   1.995   1.682 -4.7360 -1.8702  1.5424
   86SOL     OW  256   1.503   2.389   1.222 -0.0731 -0.2980  0.0542
   86SOL    HW1  257   1.535   2.455   1.152 -0.1267  1.7888  2.4075
   86SOL    HW2  258   1.583   2.379   1.289  1.6863 -1.3957  0.0965
   87SOL     OW  259   2.252   1.592   0.575  0.2192 -0.2165 -0.3071
   87SOL    HW1  260   2.167   1.607   0.521 -0.9478 -2.3347  0.9279
   87SOL    HW2  261   2.330   1.581   0.513  1.1812  2.3056 -0.7085
   88SOL     OW  262   0.833   0.049   1.062 -0.1329  0.2235  0.1742
   88SOL    HW1  263   0.747   3.098   1.036 -2.4371  1.4406 -0.4942
   88SOL    HW2  264   0.859   0.114   0.987 -0.3629 -0.2636  0.1288
   89SOL     OW  265   0.763   0.074   1.838  0.0492 -0.3642 -0.1992
   89SOL    HW1  266   0.801   0.140   1.902 -0.2464 -0.9830  0.8174
   89SOL    HW2  267   0.664   0.076   1.837  1.5057  0.8197 -0.2002
   90SOL     OW  268   0.070   2.058   0.378  0.0211  0.1551 -0.4369
   90SOL    HW1  269   0.077   2.073   0.478 -1.7674  0.7043  0.4701
   90SOL    HW2  270   0.100   1.964   0.343 -0.3493 -4.2010  0.7011
   91SOL     OW  271   1.002   1.494   1.055 -0.7399  0.3888 -0.1517
   91SOL    HW1  272   0.912   1.533   1.069  3.3404  0.4587 -3.1207
   91SOL    HW2  273   1.069   1.510   1.132  0.4299 -1.1946  1.6540
   92SOL     OW  274   2.341   3.016   1.474 -0.3806  0.1153  0.2329
   92SOL    HW1  275   2.414   3.039   1.541  0.6177 -2.2336 -0.1072
   92SOL    HW2  276   2.272   2.950   1.511 -1.1641 -0.9189 -3.1864
   93SOL     OW  277   0.393   1.095   2.693 -0.0791  0.4098 -0.8270
   93SOL    HW1  278   0.417   1.162   2.771  0.3303  4.5088  1.3032
   93SOL    HW2  279   0.391   1.146   2.605 -3.3360 -1.5882 -0.0362
   94SOL     OW  280   2.586   0.016   1.881 -0.6900 -0.3013 -0.2181
   94SOL    HW1  281   2.579   0.108   1.927  0.6798  3.7795  1.1353
   94SOL    HW2  282   2.669   3.072   1.911 -2.7469  0.8803 -1.5076
   95SOL     OW  283   2.024   0.719   1.782  0.0491 -0.3908  0.3740
   95SOL    HW1  284   1.966   0.795   1.742  4.2396  1.0417  1.1329
   95SOL    HW2  285   1.981   0.624   1.775 -0.5660 -0.2681 -0.9514
   96SOL     OW  286   3.032   0.367   1.849  0.1979  0.5646 -0.1082
   96SOL    HW1  287   2.938   0.406   1.865  2.2888 -2.2804 -0.4691
   96SOL    HW2  288   0.006   0.434   1.834 -0.5823 -2.0842 -0.3272
   97SOL     OW  289   2.269   0.167   1.304 -0.7604  0.3768  0.3153
   97SOL    HW1  290   2.183   0.151   1.247 -0.2927  0.8230 -1.8269
   97SOL    HW2  291   2.272   0.092   1.370 -2.7805  0.5757  1.4618
   98SOL     OW  292   1.998   2.460   1.721 -0.8482  0.2035  0.4843
   98SOL    HW1  293   2.044   2.536   1.773 -1.0658  1.1209 -1.6998
   98SOL    HW2  294   1.949   2.394   1.777  3.2964  0.3346  2.6751
   99SOL     OW  295   3.054   0.728   1.001  0.2329 -0.8536  0.4558
   99SOL    HW1  296   3.063   0.660   1.077  2.6452 -1.3272 -0.1493
   99SOL    HW2  297   3.097   0.820   1.019 -0.0580  1.8665  0.7169
  100SOL     OW  298   2.539   1.946   1.802 -0.6918  0.2533 -0.0177
  100SOL    HW1  299   2.466   1.936   1.873 -1.3595 -1.0294  0.9275
  100SOL    HW2  300   2.598   1.865   1.792 -0.9642  2.1683  0.9460
  101SOL     OW  301   2.223   0.078   0.087  0.7001  0.2267 -0.2877
  101SOL    HW1  302   2.308   0.133   0.084 -1.1898 -0.4733 -0.0958
  101SOL    HW2  303   2.242   3.083   0.080  2.1616  0.3615 -1.0752
  102SOL     OW  304   0.713   0.446   1.425  0.2588 -0.3481  0.2530
  102SOL    HW1  305   0.709   0.415   1.520 -0.8386  2.8510 -3.6443
  102SOL    HW2  306   0.646   0.402   1.368  1.3544  0.2266 -1.0711
  103SOL     OW  307   2.957   0.121   2.628  0.5546 -0.1697  0.4910
  103SOL    HW1  308   2.929   0.074   2.715  1.3864 -1.3864 -2.4312
  103SOL    HW2  309   3.009   0.054   2.577  1.2099 -0.5835  0.8495
  104SOL     OW  310   0.381   2.147   1.399  0.8997  0.2678  0.5109
  104SOL    HW1  311   0.441   2.078   1.352 -1.3324 -0.2918 -1.3980
  104SOL    HW2  312   0.418   2.242   1.386  0.0728  0.0650  2.0703
  105SOL     OW  313   0.732   1.680   2.030  0.0779 -0.2701  0.2950
  105SOL    HW1  314   0.798   1.718   2.097  2.1012  0.1568 -0.0506
  105SOL    HW2  315   0.716   1.747   1.954  1.2194  0.4323 -3.8892
  106SOL     OW  316   1.851   0.476   0.721 -0.1091 -0.1619  0.0671
  106SOL    HW1  317   1.838   0.578   0.702 -2.7789  2.6463 -0.2800
  106SOL    HW2  318   1.768   0.435   0.766 -1.1394 -0.3952  0.5579
  107SOL     OW  319   0.801   1.024   1.285 -0.2491  0.4404 -0.0481
  107SOL    HW1  320   0.755   0.978   1.206 -1.0311  0.3182  0.6104
  107SOL    HW2  321   0.828   1.114   1.254  0.3641 -0.2795 -0.1455
  108SOL     OW  322   2.709   0.888   2.051 -0.2322  0.1818 -0.3659
  108SOL    HW1  323   2.793   0.848   2.010  2.0231 -1.1402 -0.6665
  108SOL    HW2  324   2.694   0.848   2.144 -1.5755  1.0578  3.3533
  109SOL     OW  325   1.746   0.008   2.715 -0.2749 -0.2869 -0.3897
  109SOL    HW1  326   1.829   0.066   2.684  1.0209  2.8536 -0.1220
  109SOL    HW2  327   1.751   3.069   2.813 -0.5418 -0.1900 -0.9166
  110SOL     OW  328   0.279   1.891   3.014 -0.2471  0.6317 -0.1601
  110SOL    HW1  329   0.199   1.914   3.074  0.2343 -0.8033 -0.8478
  110SOL    HW2  330   0.367   1.887   3.066 -1.6361  2.4174  0.4632
  111SOL     OW  331   2.673   0.655   2.198 -0.3055 -0.2768 -0.0075
  111SOL    HW1  332   2.634   0.613   2.114 -0.1338 -1.9504  0.9819
  111SOL    HW2  333   2.743   0.592   2.232 -1.7538  1.9978 -2.4697
  112SOL     OW  334   2.378   2.576   1.441  0.3563  0.2241 -0.1885
  112SOL    HW1  335   2.403   2.607   1.346  1.1745 -0.1315 -0.7726
  112SOL    HW2  336   2.405   2.651   1.505 -0.1655  0.1887 -0.1757
  113SOL     OW  337   2.058   2.108   2.106  0.1035 -0.1181 -0.3784
  113SOL    HW1  338   2.071   2.006   2.100 -0.3139 -2.3499 -1.1360
  113SOL    HW2  339   2.101   2.159   2.024  1.3101 -1.0234 -1.7802
  114SOL     OW  340   0.164   0.166   0.410  0.1118  0.0007 -0.4078
  114SOL    HW1  341   0.144   0.070   0.431 -2.5353 -0.2373 -1.2479
  114SOL    HW2  342   0.236   0.199   0.476  2.0641 -0.6948  1.1963
  115SOL     OW  343   2.734   1.658   3.051 -0.2457 -0.3208  0.0214
  115SOL    HW1  344   2.833   1.672   3.028  0.5967 -2.4925  0.3781
  115SOL    HW2  345   2.730   1.578   0.017  0.3218 -1.4649  1.5738
  116SOL     OW  346   0.092   0.747   1.431 -0.1559 -1.0122 -0.0474
  116SOL    HW1  347   0.106   0.670   1.499  0.3819 -1.9915  2.3991
  116SOL    HW2  348   0.019   0.806   1.466 -1.7812 -3.4867 -2.8979
  117SOL     OW  349   2.469   0.326   1.286  0.0331 -0.5289  0.4325
  117SOL    HW1  350   2.381   0.273   1.288 -3.7929  1.7472  0.6820
  117SOL    HW2  351   2.542   0.280   1.342 -1.4931  1.3760 -0.0406
  118SOL     OW  352   2.827   2.183   2.129  0.0390  0.0011 -0.6286
  118SOL    HW1  353   2.837   2.282   2.159 -0.6305  1.5674 -0.7722
  118SOL    HW2  354   2.751   2.158   2.063  0.0989 -1.7846 -0.7717
  119SOL     OW  355   0.764   1.614   1.014 -0.2934  0.5492 -0.2714
  119SOL    HW1  356   0.736   1.678   0.936 -0.2353 -1.0805 -2.0944
  119SOL    HW2  357   0.739   1.645   1.107  2.1940 -0.9214  1.0186
  120SOL     OW  358   0.460   1.628   1.356 -0.2381  0.3472  0.5690
  120SOL    HW1  359   0.481   1.535   1.393  0.8951 -0.3149  1.5893
  120SOL    HW2  360   0.358   1.646   1.353 -0.9042 -0.4217 -1.3359
  121SOL     OW  361   1.797   1.354   1.005  0.1052 -1.0930 -0.4464
  121SOL    HW1  362   1.851   1.403   1.078  1.2817 -1.1077 -0.5779
  121SOL    HW2  363   1.849   1.274   0.967  0.7418  1.6079  1.7948
  122SOL     OW  364   1.909   2.626   2.656  0.1618 -0.0836  0.3731
  122SOL    HW1  365   1.892   2.596   2.754 -0.5600  0.1696  0.9910
  122SOL    HW2  366   1.872   2.720   2.648  0.4654 -1.9240  0.5206
  123SOL     OW  367   2.999   0.008   0.309  0.1459 -0.2798  0.5344
  123SOL    HW1  368   3.018   3.050   0.391  1.9232 -0.4185 -1.3047
  123SOL    HW2  369   3.029   0.104   0.326  0.4410  2.5824 -2.4802
  124SOL     OW  370   1.131   1.272   0.296 -0.0466 -0.0720 -0.0023
  124SOL    HW1  371   1.051   1.269   0.363  0.1180  0.3999  2.0920
  124SOL    HW2  372   1.114   1.223   0.209  0.8953 -0.5079 -2.5001
  125SOL     OW  373   0.243   1.051   2.293 -0.1956  0.2838  0.4986
  125SOL    HW1  374   0.226   1.153   2.296  0.0298  1.3471  0.7742
  125SOL    HW2  375   0.225   1.016   2.198  0.5616  1.2369 -3.7397
  126SOL     OW  376   3.002   2.499   0.181  0.0679 -0.7463 -0.8427
  126SOL    HW1  377   2.998   2.415   0.241  3.8811  0.6898  3.3970
  126SOL    HW2  378   3.033   2.581   0.233  0.4977  2.1918  0.8336
  127SOL     OW  379   2.863   1.827   0.393  0.1009  0.4183 -0.2399
  127SOL    HW1  380   2.816   1.765   0.459 -0.3012  1.3796 -1.4088
  127SOL    HW2  381   2.795   1.857   0.325  1.6574 -0.3177  1.5697
  128SOL     OW  382   1.209   0.793   0.866  0.4470  0.0435 -0.1004
  128SOL    HW1  383   1.260   0.878   0.880 -1.3389 -0.7844 -1.0891
  128SOL    HW2  384   1.202   0.770   0.769  1.7029 -1.1494  1.4341
  129SOL     OW  385   2.784   1.953   1.084  0.1648 -0.2055 -0.0695
  129SOL    HW1  386   2.878   1.938   1.052 -1.4675  1.4687  0.7491
  129SOL    HW2  387   2.772   2.052   1.093 -1.2038 -1.9866 -0.4531
  130SOL     OW  388   2.018   1.081   0.647 -0.8825  0.6293  0.1275
  130SOL    HW1  389   2.003   1.078   0.545 -1.0745  1.5653 -3.4246
  130SOL    HW2  390   2.117   1.096   0.672  2.1610  1.1801  1.2479
  131SOL     OW  391   2.979   1.219   2.364 -0.3856  0.5316 -0.2554
  131SOL    HW1  392   2.935   1.298   2.330  0.1154 -0.4049 -1.4876
  131SOL    HW2  393   2.995   1.155   2.282  0.2328 -2.8014  2.7931
  132SOL     OW  394   1.299   1.305   2.266  0.3776 -0.0925 -0.0173
  132SOL    HW1  395   1.238   1.275   2.190  2.1605 -1.3593 -0.2981
  132SOL    HW2  396   1.338   1.227   2.315 -3.5978  2.3992 -0.2546
  133SOL     OW  397   0.209   1.304   0.345 -0.2235  0.1765  0.1390
  133SOL    HW1  398   0.201   1.393   0.297 -2.0088  0.3372 -0.8569
  133SOL    HW2  399   0.259   1.232   0.292  0.4078  2.6225  0.4985
  134SOL     OW  400   2.804   0.925   0.122 -0.9287 -0.3897 -0.0156
  134SOL    HW1  401   2.771   0.885   0.034  1.3619 -2.7907  0.6597
  134SOL    HW2  402   2.798   1.028   0.126 -0.0939  1.6969  0.2006
  135SOL     OW  403   1.629   0.915   3.082 -0.0691  0.3175  0.6538
  135SOL    HW1  404   1.562   0.914   3.003 -0.5933  2.2342 -0.5027
  135SOL    HW2  405   1.725   0.934   3.048 -0.8548  0.5067  1.4764
  136SOL     OW  406   1.815   1.597   1.732  0.0600 -0.2464  0.1905
  136SOL    HW1  407   1.758   1.615   1.649  2.4866  0.0535  0.2832
  136SOL    HW2  408   1.907   1.640   1.717 -0.7310 -0.7584 -0.8592
  137SOL     OW  409   2.321   2.384   0.868 -0.1131 -0.6977  0.1085
  137SOL    HW1  410   2.371   2.415   0.782  1.3919  0.6713  0.1955
  137SOL    HW2  411   2.275   2.465   0.910 -1.5745 -3.6934  1.0202
  138SOL     OW  412   2.513   0.560   1.540 -0.1819  0.3674 -0.0233
  138SOL    HW1  413   2.509   0.642   1.599  0.8519  0.9872  0.0120
  138SOL    HW2  414   2.439   0.566   1.465 -1.6368 -0.8622 -0.3418
  139SOL     OW  415   2.484   2.781   2.818  0.3271  0.3677 -0.2853
  139SOL    HW1  416   2.515   2.688   2.825 -0.4572 -3.5303  1.0185
  139SOL    HW2  417   2.423   2.788   2.740  1.4974 -2.5320 -0.9193
  140SOL     OW  418   1.497   1.911   2.446  0.3741  0.5308 -0.1221
  140SOL    HW1  419   1.569   1.848   2.419 -1.7993  2.2815  1.4537
  140SOL    HW2  420   1.407   1.865   2.459  0.8115  1.6961 -1.6089
  141SOL     OW  421   0.762   1.183   2.400  0.4085 -0.9427 -0.3911
  141SOL    HW1  422   0.755   1.262   2.463  1.6024 -1.0943  1.9203
  141SOL    HW2  423   0.750   1.215   2.305  2.8009  0.2021 -0.1287
  142SOL     OW  424   2.530   2.724   2.030  0.0812  0.1936 -0.4979
  142SOL    HW1  425   2.571   2.784   2.098 -0.9834 -3.2221 -0.1393
  142SOL    HW2  426   2.436   2.703   2.060 -0.2942  0.4557  1.1480
  143SOL     OW  427   1.280   2.211   0.352 -0.5611 -0.2446 -0.0904
  143SOL    HW1  428   1.361   2.248   0.403 -1.0992 -1.5942 -0.0041
  143SOL    HW2  429   1.193   2.204   0.410 -0.5462 -0.3901 -1.3101
  144SOL     OW  430   1.105   2.429   0.581 -0.3243 -0.3855  0.9021
  144SOL    HW1  431   1.170   2.472   0.515  1.8965  0.7111 -1.7986
  144SOL    HW2  432   1.143   2.429   0.675 -1.0042 -1.9412 -0.4862
  145SOL     OW  433   1.494   2.683   2.422 -0.1989 -0.1530  0.2773
  145SOL    HW1  434   1.560   2.619   2.462  0.1302 -0.3844 -0.6547
  145SOL    HW2  435   1.415   2.693   2.487 -0.1552 -0.6313 -1.5666
  146SOL     OW  436   1.932   3.098   2.959 -0.4191  0.2434 -0.0534
  146SOL    HW1  437   1.973   0.093   2.945  0.5513 -2.5588  1.2919
  146SOL    HW2  438   1.881   0.001   3.044 -0.3075 -0.1588 -1.8917
  147SOL     OW  439   2.920   1.450   1.095 -0.4625 -0.4091  0.2768
  147SOL    HW1  440   2.914   1.417   0.997 -2.0899 -1.4832 -2.5885
  147SOL    HW2  441   2.910   1.551   1.095  3.6948  1.4688  1.6839
  148SOL     OW  442   2.144   2.912   0.104  0.3946 -0.9113  0.2773
  148SOL    HW1  443   2.200   2.898   0.187 -0.9930 -2.5061  2.0191
  148SOL    HW2  444   2.186   2.859   0.028  2.0041 -0.2350  1.0420
  149SOL     OW  445   0.624   1.877   2.924  0.9125  0.6065  0.2184
  149SOL    HW1  446   0.675   1.790   2.942  1.1660  1.3298 -0.0116
  149SOL    HW2  447   0.567   1.867   2.840  1.8947  0.9004  0.2194
  150SOL     OW  448   0.452   2.743   1.026  0.3927  0.1869  0.0826
  150SOL    HW1  449   0.503   2.754   1.112  1.3819  1.0258  0.1280
  150SOL    HW2  450   0.377   2.811   1.029 -1.1434 -0.3380  0.3619
  151SOL     OW  451   0.152   1.060   2.970 -0.3449  0.2474 -0.0548
  151SOL    HW1  452   0.184   0.993   3.041 -0.3537 -0.0547 -0.1192
  151SOL    HW2  453   0.114   1.011   2.891  0.2417 -0.7728  0.1360
  152SOL     OW  454   3.045   1.990   1.002 -0.5310 -0.7426  0.4361
  152SOL    HW1  455   0.046   1.969   0.981  1.9761 -1.4365 -1.7105
  152SOL    HW2  456   3.008   2.047   0.928 -2.2204 -0.5249 -0.4772
  153SOL     OW  457   1.750   2.370   0.951 -0.4888 -0.2651  0.1996
  153SOL    HW1  458   1.822   2.391   1.021 -1.0594 -2.1362 -0.2996
  153SOL    HW2  459   1.710   2.282   0.975  0.8212  0.4003 -1.8048
  154SOL     OW  460   0.526   2.817   1.325 -0.5326  0.0860  0.5157
  154SOL    HW1  461   0.510   2.917   1.327 -2.2681  0.9932 -1.3714
  154SOL    HW2  462   0.620   2.794   1.354  1.0828 -0.5846 -3.7638
  155SOL     OW  463   2.839   2.028   0.770 -0.1584 -0.3373 -0.5694
  155SOL    HW1  464   2.869   2.060   0.675 -0.1567 -1.3072 -1.4627
  155SOL    HW2  465   2.747   2.051   0.805  2.7469  1.7225  0.5098
  156SOL     OW  466   2.579   2.128   0.331  0.0520  0.0472 -0.6431
  156SOL    HW1  467   2.634   2.197   0.377  0.4023 -0.8371 -2.9981
  156SOL    HW2  468   2.640   2.056   0.297 -2.6254 -0.4614  0.1859
  157SOL     OW  469   0.329   2.345   1.766  0.4182 -0.1228 -0.1580
  157SOL    HW1  470   0.231   2.313   1.776 -1.1184 -1.5732  2.4864
  157SOL    HW2  471   0.368   2.370   1.860  2.7768  1.3059  0.7554
  158SOL     OW  472   1.422   0.357   0.963  0.3534 -0.0060  0.8136
  158SOL    HW1  473   1.326   0.327   0.957 -1.6558  0.3538  2.9008
  158SOL    HW2  474   1.441   0.404   1.052 -0.5856  1.6578  1.7890
  159SOL     OW  475   1.694   0.919   0.247 -0.3539 -0.2354  0.4641
  159SOL    HW1  476   1.683   0.822   0.283  0.2389 -0.6315 -2.1712
  159SOL    HW2  477   1.672   0.924   0.147  2.3311  0.3322 -1.1708
  160SOL     OW  478   1.193   1.740   0.348 -1.0025 -0.5865  0.8958
  160SOL    HW1  479   1.199   1.833   0.307  1.1912 -0.7402 -2.0104
  160SOL    HW2  480   1.108   1.694   0.322  1.3930  0.1794  1.3434
  161SOL     OW  481   2.774   2.278   2.602 -0.1381 -0.2016 -0.1422
  161SOL    HW1  482   2.689   2.275   2.658 -0.2303  1.2421 -1.6749
  161SOL    HW2  483   2.833   2.196   2.623  0.3728 -0.2804 -1.0848
  162SOL     OW  484   0.129   2.225   1.372 -0.3362 -0.1301  0.3005
  162SOL    HW1  485   0.063   2.252   1.445  1.3220 -1.2513  0.2465
  162SOL    HW2  486   0.222   2.203   1.413  1.2475  0.3785  0.4911
  163SOL     OW  487   0.239   0.329   2.874 -0.6537 -0.1172  0.4752
  163SOL    HW1  488   0.291   0.274   2.810 -1.4953  0.6340  2.5339
  163SOL    HW2  489   0.143   0.326   2.844  0.3054  0.8255 -1.0651
  164SOL     OW  490   0.211   2.715   2.392 -0.1230  0.2261 -0.2545
  164SOL    HW1  491   0.289   2.772   2.428  0.3746 -0.6121  0.1103
  164SOL    HW2  492   0.180   2.655   2.467  0.2674 -0.8984 -0.2490
  165SOL     OW  493   2.741   0.932   1.563 -0.8712 -0.3442  0.7233
  165SOL    HW1  494   2.735   1.028   1.599 -3.1630 -0.8256  0.8571
  165SOL    HW2  495   2.655   0.880   1.584 -1.2909 -0.2341  2.1346
  166SOL     OW  496   1.901   1.891   1.575 -0.5590  0.3595  0.0269
  166SOL    HW1  497   1.994   1.874   1.540 -3.3626 -0.3814  0.2047
  166SOL    HW2  498   1.864   1.816   1.635 -2.3555 -2.1641  4.4460
  167SOL     OW  499   0.467   0.580   2.366 -0.0397  0.2714  0.1026
  167SOL    HW1  500   0.496   0.603   2.273 -1.1208  0.6509  1.7541
  167SOL    HW2  501   0.432   0.668   2.399  3.4727 -1.1906 -1.7914
  168SOL     OW  502   2.115   0.216   2.236  0.0489  0.0666  0.0912
  168SOL    HW1  503   2.093   0.155   2.314  0.0622  1.4915 -4.0177
  168SOL    HW2  504   2.131   0.160   2.158 -0.1355  0.2568  2.1382
  169SOL     OW  505   0.304   0.899   0.024 -0.0061 -0.3430  0.0989
  169SOL    HW1  506   0.358   0.982   0.006 -0.4319 -0.2352  2.0712
  169SOL    HW2  507   0.359   0.823   3.091 -2.0046  3.1587 -1.7555
  170SOL     OW  508   0.916   1.431   1.466 -0.1086  0.6795  0.2510
  170SOL    HW1  509   0.934   1.375   1.550 -0.4872 -2.6557 -0.3730
  170SOL    HW2  510   0.837   1.394   1.413 -0.7951  0.8263 -1.7185
  171SOL     OW  511   1.147   2.548   1.886  0.0370 -0.6670  0.3646
  171SOL    HW1  512   1.110   2.635   1.848 -0.9856  2.2198  1.0034
  171SOL    HW2  513   1.213   2.497   1.828  1.2761 -0.4487  0.5287
  172SOL     OW  514   1.146   0.061   1.932  0.1529  0.1088  0.0435
  172SOL    HW1  515   1.216   0.004   1.975  1.1391  1.6521 -0.5937
  172SOL    HW2  516   1.098   0.123   2.004 -1.0291  0.6216  2.0456
  173SOL     OW  517   1.257   2.401   0.803 -0.3055 -0.0136  0.4084
  173SOL    HW1  518   1.251   2.395   0.903  1.0745 -0.8610 -1.6595
  173SOL    HW2  519   1.255   2.309   0.764  1.1086  0.4944 -0.8986
  174SOL     OW  520   2.228   3.048   0.587 -0.3173 -0.6020 -0.3493
  174SOL    HW1  521   2.132   3.020   0.563  0.9347 -1.2600 -0.8476
  174SOL    HW2  522   2.263   0.018   0.523  0.8477  0.8623  0.9705
  175SOL     OW  523   1.272   1.244   0.565  0.4308 -0.1602  0.5392
  175SOL    HW1  524   1.243   1.328   0.624  2.1473 -1.3878  1.7998
  175SOL    HW2  525   1.202   1.232   0.487  3.2552  0.8544 -2.9285
  176SOL     OW  526   0.704   1.615   0.419 -0.1965 -0.1431 -0.1403
  176SOL    HW1  527   0.728   1.642   0.516  0.9784  0.5436 -0.6372
  176SOL    HW2  528   0.694   1.512   0.411 -2.4345 -0.5919  0.9609
  177SOL     OW  529   1.254   1.187   0.989 -0.0613 -0.0243  0.6900
  177SOL    HW1  530   1.285   1.229   1.080 -0.6646 -0.5674 -0.2418
  177SOL    HW2  531   1.318   1.118   0.943  0.1451 -1.4081 -2.3096
  178SOL     OW  532   2.523   1.777   0.445  0.6648  0.0794  0.4510
  178SOL    HW1  533   2.428   1.792   0.487 -1.4569 -0.0493  1.3657
  178SOL    HW2  534   2.559   1.683   0.465  1.3557 -2.8277  3.2391
  179SOL     OW  535   1.349   2.837   0.082 -0.2237 -0.2367 -0.1903
  179SOL    HW1  536   1.282   2.873   0.150 -3.0212  0.6760 -4.3993
  179SOL    HW2  537   1.398   2.759   0.119  1.1871 -2.7790  3.2051
  180SOL     OW  538   1.999   1.330   1.624  0.1439  0.1732 -0.1743
  180SOL    HW1  539   2.102   1.322   1.619 -1.2639 -2.6272 -2.3522
  180SOL    HW2  540   1.972   1.423   1.645 -0.4694 -1.4521  1.3243
  181SOL     OW  541   1.125   0.646   2.031 -0.0196 -0.6030  0.0773
  181SOL    HW1  542   1.184   0.669   2.111  0.8982 -0.4756 -2.6655
  181SOL    HW2  543   1.180   0.614   1.954  1.2327  0.8477 -0.8879
  182SOL     OW  544   0.161   1.325   2.288  0.6390 -0.2135 -0.6384
  182SOL    HW1  545   0.080   1.304   2.343 -2.2050  1.1069  0.4605
  182SOL    HW2  546   0.141   1.315   2.189 -0.9430 -1.6565 -1.5761
  183SOL     OW  547   1.545   0.658   2.329 -0.3500 -0.1976  0.1185
  183SOL    HW1  548   1.627   0.613   2.286 -0.4872 -0.8321 -0.8261
  183SOL    HW2  549   1.511   0.613   2.410  1.6151  0.1385  1.6947
  184SOL     OW  550   0.779   0.678   1.288  0.1880  0.3448  0.7887
  184SOL    HW1  551   0.820   0.742   1.357 -0.3746 -0.2828 -2.2488
  184SOL    HW2  552   0.747   0.594   1.333 -0.8167  1.0354  1.2698
  185SOL     OW  553   2.220   1.661   0.827  0.0849 -0.3211 -0.8196
  185SOL    HW1  554   2.251   1.652   0.727 -1.6253  1.1981  2.1920
  185SOL    HW2  555   2.137   1.607   0.845  0.5798  1.1164  0.5695
  186SOL     OW  556   0.191   2.153   0.126 -0.2690  0.2175 -0.1700
  186SOL    HW1  557   0.195   2.249   0.091  2.4100  3.0733  1.1415
  186SOL    HW2  558   0.159   2.157   0.221  1.8231  0.9265 -0.3928
  187SOL     OW  559   2.072   2.230   3.051 -0.0598 -0.3906 -0.3456
  187SOL    HW1  560   2.043   2.240   0.051  0.6694  1.2558 -0.4530
  187SOL    HW2  561   2.138   2.301   3.017  3.3716 -1.5508  0.6593
  188SOL     OW  562   1.146   2.168   1.175 -0.5378  0.4630 -0.0669
  188SOL    HW1  563   1.130   2.146   1.074 -1.4848 -0.8898  1.3364
  188SOL    HW2  564   1.067   2.134   1.233 -2.5701  0.2886  2.6395
  189SOL     OW  565   2.218   1.565   2.524 -0.4998 -0.2144 -0.4269
  189SOL    HW1  566   2.207   1.587   2.622  2.3379 -1.2478  0.0758
  189SOL    HW2  567   2.140   1.517   2.478 -0.3257 -0.9913 -1.6125
  190SOL     OW  568   0.971   2.483   2.334  0.2061 -0.1088 -0.4827
  190SOL    HW1  569   1.054   2.503   2.275 -3.0130 -1.6549 -0.3215
  190SOL    HW2  570   0.887   2.531   2.304 -0.9571 -0.9046 -3.6731
  191SOL     OW  571   2.570   0.963   1.132 -0.9396  0.7425 -0.3216
  191SOL    HW1  572   2.663   0.997   1.162  2.8884  2.2680  1.1037
  191SOL    HW2  573   2.565   0.896   1.055  1.2221 -1.2054 -0.8764
  192SOL     OW  574   2.769   0.652   1.541 -0.8609  0.4385  0.4044
  192SOL    HW1  575   2.673   0.616   1.541 -2.6051 -0.1805 -2.3727
  192SOL    HW2  576   2.770   0.751   1.546  0.1559 -1.3995  0.7400
  193SOL     OW  577   0.726   0.288   0.148  0.1603  0.8320 -0.0253
  193SOL    HW1  578   0.778   0.241   0.076 -0.3380  0.3333 -1.5312
  193SOL    HW2  579   0.690   0.384   0.121  0.5959 -0.0062  1.9641
  194SOL     OW  580   0.976   2.271   1.501 -0.2137  0.2452  0.2368
  194SOL    HW1  581   0.992   2.179   1.542  2.3680  0.8241  2.1391
  194SOL    HW2  582   1.053   2.336   1.525 -0.2303  0.3154 -0.2565
  195SOL     OW  583   2.463   1.346   0.168  0.7145 -0.2821  0.5259
  195SOL    HW1  584   2.465   1.252   0.204 -0.2921  3.6648 -0.7436
  195SOL    HW2  585   2.421   1.348   0.077 -2.5333 -0.2619  2.3766
  196SOL     OW  586   0.544   2.342   1.569 -0.0074 -0.4105 -0.2530
  196SOL    HW1  587   0.500   2.388   1.489 -1.6197 -1.6423  1.0206
  196SOL    HW2  588   0.485   2.350   1.650  2.1334  0.1511  1.3881
  197SOL     OW  589   0.021   0.712   2.118 -0.1256 -0.4651 -0.2929
  197SOL    HW1  590   0.090   0.642   2.117 -1.8620 -1.8899  0.3924
  197SOL    HW2  591   3.052   0.707   2.197 -0.7125 -1.3557  0.0052
  198SOL     OW  592   1.837   1.072   0.426  0.1802 -0.1626  0.5679
  198SOL    HW1  593   1.785   1.018   0.353 -2.1953 -2.1991  1.5886
  198SOL    HW2  594   1.875   1.154   0.384 -0.3884 -1.4786 -1.1365
  199SOL     OW  595   2.676   0.310   1.444  0.0326 -1.0183  0.2245
  199SOL    HW1  596   2.643   0.388   1.506 -1.4094  1.7205  0.9086
  199SOL    HW2  597   2.765   0.269   1.473 -2.5992  2.4308 -1.7679
  200SOL     OW  598   2.110   0.203   2.871  0.3402  0.1600  0.1997
  200SOL    HW1  599   2.196   0.153   2.862  0.2065  2.0716 -0.6176
  200SOL    HW2  600   2.134   0.297   2.895 -2.4535 -2.3254 -1.0856
  201SOL     OW  601   2.609   0.210   1.079 -0.3339 -0.5622  0.3274
  201SOL    HW1  602   2.579   0.280   1.145 -0.6032  1.0027 -0.5921
  201SOL    HW2  603   2.632   0.257   0.994  0.0722 -2.5464  0.0221
  202SOL     OW  604   3.060   2.739   0.306  0.0811 -0.5333 -0.4641
  202SOL    HW1  605   3.043   2.759   0.407 -0.9232  1.6065 -1.6099
  202SOL    HW2  606   0.007   2.815   0.257 -2.0468 -0.6940 -0.4396
  203SOL     OW  607   1.379   1.545   3.079 -0.5337  0.1738 -0.2419
  203SOL    HW1  608   1.360   1.510   0.076  0.8089 -0.9635  0.2933
  203SOL    HW2  609   1.471   1.527   3.043 -2.3692 -1.4286  1.3603
  204SOL     OW  610   0.460   2.063   2.219 -0.3988  0.0182 -0.1087
  204SOL    HW1  611   0.500   2.028   2.129 -0.1206  0.7096  1.4884
  204SOL    HW2  612   0.395   1.989   2.254 -1.3476 -1.5083  0.5803
  205SOL     OW  613   0.961   0.536   0.869 -0.1721  0.2679 -0.0940
  205SOL    HW1  614   0.993   0.513   0.961 -1.3525  2.9112  0.5261
  205SOL    HW2  615   0.986   0.463   0.809 -0.2479 -1.7156 -0.9371
  206SOL     OW  616   0.340   0.623   2.783 -0.1205 -0.3118  0.1188
  206SOL    HW1  617   0.305   0.715   2.796 -0.4396 -2.2492 -0.1492
  206SOL    HW2  618   0.264   0.555   2.787 -2.7352 -1.7502  0.4768
  207SOL     OW  619   1.378   2.421   1.726 -0.0839 -0.1653 -0.5353
  207SOL    HW1  620   1.467   2.474   1.742  2.2470  2.2080  1.2617
  207SOL    HW2  621   1.357   2.372   1.817  2.0692 -1.6273  1.0999
  208SOL     OW  622   0.040   2.905   1.100 -0.3114  0.0423 -0.4042
  208SOL    HW1  623   0.140   2.928   1.093  1.7722  0.8864  2.3847
  208SOL    HW2  624   3.077   2.986   1.104  0.1958  0.3004 -2.2010
  209SOL     OW  625   1.649   1.028   0.608 -1.0862 -0.0976  0.1781
  209SOL    HW1  626   1.684   0.990   0.697 -1.3816 -2.4362 -2.0300
  209SOL    HW2  627   1.722   1.046   0.541 -0.1214 -0.2744 -1.4588
  210SOL     OW  628   2.631   0.892   0.369 -0.6350  0.0123  0.0137
  210SOL    HW1  629   2.677   0.913   0.460 -0.7323  1.6858 -1.0816
  210SOL    HW2  630   2.701   0.901   0.295  1.8615  1.2132  0.4818
  211SOL     OW  631   1.295   0.200   0.239  0.6600 -0.1704 -0.5115
  211SOL    HW1  632   1.224   0.156   0.178  1.8044  1.3729 -0.6334
  211SOL    HW2  633   1.384   0.202   0.198  0.3028  0.7950  4.3984
  212SOL     OW  634   1.819   2.106   0.563  0.3260 -0.3598 -0.1850
  212SOL    HW1  635   1.833   2.203   0.596  0.6846  1.8002  3.9698
  212SOL    HW2  636   1.783   2.102   0.468  2.7011 -3.7956  1.7354
  213SOL     OW  637   2.347   0.059   2.695  0.1984 -0.3725  0.0841
  213SOL    HW1  638   2.421   3.091   2.727  3.3636 -0.0802  0.5445
  213SOL    HW2  639   2.364   0.162   2.714 -0.6505  1.2081  1.7764
  214SOL     OW  640   1.033   1.996   2.097  0.6458 -0.0030  0.1057
  214SOL    HW1  641   1.107   2.035   2.048  0.8215  0.1958 -0.4401
  214SOL    HW2  642   0.976   2.062   2.153  1.1927  2.2454  2.2552
  215SOL     OW  643   0.400   1.354   1.101  0.0297 -0.4474  0.6181
  215SOL    HW1  644   0.323   1.418   1.120 -0.9697  0.0091  2.2235
  215SOL    HW2  645   0.439   1.323   1.186 -1.5976  3.4050 -1.5306
  216SOL     OW  646   0.124   2.239   2.789  0.1546 -0.1955  0.2630
  216SOL    HW1  647   0.027   2.213   2.800 -2.1240  0.0266  0.5720
  216SOL    HW2  648   0.152   2.296   2.865 -0.8166  0.5403 -4.1173
  217SOL     OW  649   2.677   1.223   1.340  0.1660  0.1136 -0.5987
  217SOL    HW1  650   2.726   1.142   1.306  1.3538 -0.6309 -1.8339
  217SOL    HW2  651   2.634   1.201   1.432 -1.7018 -3.6112 -1.9056
  218SOL     OW  652   0.704   2.306   2.053 -0.2834 -0.6519  0.3428
  218SOL    HW1  653   0.796   2.340   2.029 -1.4260 -0.0878 -0.4473
  218SOL    HW2  654   0.704   2.282   2.152  0.4177 -0.6225 -0.9703
  219SOL     OW  655   1.982   1.542   0.264 -0.6915 -0.1557 -0.1564
  219SOL    HW1  656   2.071   1.561   0.217  0.1714  0.1826 -0.2297
  219SOL    HW2  657   1.968   1.609   0.343 -1.0345  0.8409  0.8521
  220SOL     OW  658   1.984   0.817   0.462 -0.2748 -0.2011  0.2420
  220SOL    HW1  659   1.934   0.908   0.456 -0.8411  0.7150  4.4427
  220SOL    HW2  660   1.964   0.774   0.554 -0.1710  0.1652  0.8867
  221SOL     OW  661   2.767   0.584   0.131 -0.0685  0.4448 -0.8753
  221SOL    HW1  662   2.685   0.585   0.191  1.0195 -0.5956 -1.1277
  221SOL    HW2  663   2.845   0.535   0.174 -0.1226  0.6065  1.4264
  222SOL     OW  664   1.539   1.309   0.588  0.4025 -0.3792 -0.1365
  222SOL    HW1  665   1.581   1.214   0.592  0.2655  0.2539  0.6441
  222SOL    HW2  666   1.434   1.306   0.580  0.2457  0.6811 -1.2669
  223SOL     OW  667   1.032   3.011   2.922 -0.3871 -0.0010  0.1780
  223SOL    HW1  668   1.103   3.038   2.853 -1.4382  0.6390 -1.6888
  223SOL    HW2  669   1.049   2.921   2.966 -0.9963 -0.6848 -2.1789
  224SOL     OW  670   1.016   2.829   1.265  0.0873  0.1917 -0.1599
  224SOL    HW1  671   1.026   2.889   1.186 -0.1220 -1.5064  2.0853
  224SOL    HW2  672   1.040   2.890   1.350  1.1818 -0.0972  1.5826
  225SOL     OW  673   0.448   2.682   1.982 -0.1438 -0.2066  0.2297
  225SOL    HW1  674   0.362   2.726   2.010  1.7139  1.3873 -1.3259
  225SOL    HW2  675   0.451   2.584   2.007 -0.7780 -1.1245 -1.5795
  226SOL     OW  676   1.459   1.238   0.165 -0.0032  0.2756  0.2383
  226SOL    HW1  677   1.440   1.174   0.245  2.9317 -0.5581  1.6205
  226SOL    HW2  678   1.409   1.327   0.178  1.0388 -0.1356 -0.6374
  227SOL     OW  679   0.381   1.616   0.704 -0.0432 -0.0813 -0.2347
  227SOL    HW1  680   0.401   1.688   0.635  1.1954  0.8314  0.0285
  227SOL    HW2  681   0.445   1.537   0.698  2.3181 -0.4679  2.0396
  228SOL     OW  682   0.070   1.836   0.677 -0.2817 -0.6036 -0.1795
  228SOL    HW1  683   3.074   1.795   0.692 -0.0850 -0.1645  1.7546
  228SOL    HW2  684   0.073   1.936   0.652 -0.2387  1.0800 -1.8935
  229SOL     OW  685   2.721   0.111   3.017 -0.1477  0.2440  0.1113
  229SOL    HW1  686   2.725   0.174   3.094 -1.2060 -0.5094 -2.6948
  229SOL    HW2  687   2.774   0.029   3.035 -3.4544  2.0228 -2.5556
  230SOL     OW  688   2.297   1.105   0.708  0.5159 -0.6517 -0.0404
  230SOL    HW1  689   2.323   1.205   0.706  1.4066 -0.7548 -0.9569
  230SOL    HW2  690   2.322   1.067   0.798  2.5524  1.6484 -0.2031
  231SOL     OW  691   1.647   1.302   2.877  0.5545  0.2908 -0.2114
  231SOL    HW1  692   1.620   1.400   2.880  2.7425  2.4875 -1.6436
  231SOL    HW2  693   1.676   1.279   2.973 -1.6318 -0.6253  0.2543
  232SOL     OW  694   2.118   1.963   0.899  0.1039 -0.8448  0.0215
  232SOL    HW1  695   2.161   1.872   0.884  0.4612 -0.7731  2.2384
  232SOL    HW2  696   2.198   2.033   0.910  3.3102 -0.3366  0.1863
  233SOL     OW  697   0.305   2.968   1.031 -0.3599 -0.7693  0.3221
  233SOL    HW1  698   0.352   3.008   1.117 -0.3979  1.5601  1.5338
  233SOL    HW2  699   0.283   3.047   0.973  1.3083 -1.6986 -1.4805
  234SOL     OW  700   0.872   0.139   2.729  0.4367  0.0423 -0.0155
  234SOL    HW1  701   0.952   0.132   2.663  1.1045 -0.6387  0.2104
  234SOL    HW2  702   0.901   0.177   2.817  1.7759  1.4327 -0.8059
  235SOL     OW  703   3.014   1.055   2.136  0.2788 -0.3791  0.1742
  235SOL    HW1  704   2.957   1.084   2.053 -1.9788 -0.5047 -1.1923
  235SOL    HW2  705   0.007   1.020   2.111  0.0509 -2.2585  0.3332
  236SOL     OW  706   1.574   2.878   1.711 -0.2192  0.4110 -0.1108
  236SOL    HW1  707   1.503   2.943   1.742  0.7658 -0.6121 -2.2791
  236SOL    HW2  708   1.535   2.808   1.647  1.0376 -4.4190 -1.3762
  237SOL     OW  709   0.733   1.427   2.557  0.2342 -0.7574  0.3653
  237SOL    HW1  710   0.699   1.417   2.463  0.9439 -0.9651  0.5570
  237SOL    HW2  711   0.792   1.511   2.551  2.3672  0.3959 -2.0546
  238SOL     OW  712   1.060   0.370   2.456  0.0258  0.5732  0.1658
  238SOL    HW1  713   1.046   0.468   2.463 -2.8739  0.7702 -1.6168
  238SOL    HW2  714   0.975   0.318   2.451  1.9877  0.9715  1.7811
  239SOL     OW  715   0.204   2.180   2.111 -0.1161 -0.3845  0.2353
  239SOL    HW1  716   0.242   2.098   2.064 -0.4229  0.0673 -2.0730
  239SOL    HW2  717   0.272   2.218   2.182  1.3106 -0.1906  0.0556
  240SOL     OW  718   2.436   0.178   0.710 -0.2886 -0.0217 -0.1931
  240SOL    HW1  719   2.388   0.253   0.760  0.4613  3.5406  1.6172
  240SOL    HW2  720   2.388   0.089   0.734  0.0068  0.7439  0.2292
  241SOL     OW  721   0.094   0.771   0.173  0.6304  0.1194  0.1500
  241SOL    HW1  722   0.052   0.688   0.134 -1.0163 -3.2199 -0.0540
  241SOL    HW2  723   0.160   0.808   0.109  1.1851 -3.3987  1.0954
  242SOL     OW  724   1.671   2.531   1.831  0.0160 -0.0084  0.2467
  242SOL    HW1  725   1.717   2.445   1.835 -1.2304 -0.3548 -2.5784
  242SOL    HW2  726   1.671   2.587   1.916  4.1081 -1.2876  0.8806
  243SOL     OW  727   0.453   2.401   2.021 -0.2099 -0.0153 -0.2030
  243SOL    HW1  728   0.546   2.363   2.023  1.0381  0.2554 -0.6302
  243SOL    HW2  729   0.418   2.390   2.113  0.7742  3.4357 -2.0585
  244SOL     OW  730   2.399   0.373   2.161  0.0566 -0.1800  0.2150
  244SOL    HW1  731   2.402   0.362   2.258 -2.1259  1.5853 -2.2916
  244SOL    HW2  732   2.312   0.415   2.125  0.0493  1.2395  0.6611
  245SOL     OW  733   1.411   3.017   1.167  0.1663 -0.2865  0.3605
  245SOL    HW1  734   1.402   3.082   1.241 -0.0370  1.4450  1.0270
  245SOL    HW2  735   1.380   3.063   1.077 -2.7331  1.1614 -1.5950
  246SOL     OW  736   1.607   2.841   0.500  0.2757  0.4373  0.0852
  246SOL    HW1  737   1.614   2.797   0.408 -0.7909  0.5324  0.5225
  246SOL    HW2  738   1.510   2.825   0.533  1.0202 -0.4314  2.6419
  247SOL     OW  739   1.472   0.634   1.958  0.3028  0.3005  0.1066
  247SOL    HW1  740   1.417   0.561   2.002  0.5488  1.8731 -2.7154
  247SOL    HW2  741   1.571   0.624   1.975  1.2379 -3.1814 -0.3288
  248SOL     OW  742   3.039   2.068   1.772 -0.3366 -0.3530 -0.5659
  248SOL    HW1  743   3.098   1.987   1.772  0.8613 -0.4055  0.0378
  248SOL    HW2  744   2.941   2.053   1.793  2.0490 -0.2249 -0.5160
  249SOL     OW  745   2.971   0.359   0.181 -0.3187  0.1493  0.1571
  249SOL    HW1  746   3.006   0.356   0.274 -0.9621 -1.3571 -0.4139
  249SOL    HW2  747   3.025   0.418   0.120  0.0988 -0.8770  1.5602
  250SOL     OW  748   2.701   3.075   2.503 -0.1326  0.3887  0.2854
  250SOL    HW1  749   2.795   0.003   2.526 -0.2555 -1.1183  0.0664
  250SOL    HW2  750   2.674   3.013   2.582 -0.6541 -0.9949 -0.1321
  251SOL     OW  751   1.475   0.699   0.111  0.4087  0.0474  0.0979
  251SOL    HW1  752   1.499   0.780   0.057 -0.4209 -0.9072 -0.3932
  251SOL    HW2  753   1.561   0.657   0.149 -1.3560  0.4444 -3.5045
  252SOL     OW  754   1.361   2.305   1.967 -0.0907 -0.1993  0.3121
  252SOL    HW1  755   1.344   2.214   2.013  0.1560 -1.0350  0.4946
  252SOL    HW2  756   1.409   2.370   2.030 -1.1179  1.2891  0.9824
  253SOL     OW  757   2.216   2.608   0.996 -0.0547 -0.1255  0.2115
  253SOL    HW1  758   2.123   2.585   1.016  3.2143 -0.9768 -3.3949
  253SOL    HW2  759   2.223   2.665   0.912 -0.2111  0.5170  0.2469
  254SOL     OW  760   2.336   1.355   0.695  0.4452  0.3049  0.4375
  254SOL    HW1  761   2.268   1.410   0.640  1.5174  3.7819 -0.6559
  254SOL    HW2  762   2.382   1.417   0.765 -1.5728  0.4353  0.2151
  255SOL     OW  763   0.778   2.700   1.387 -0.1635 -0.2172  0.0092
  255SOL    HW1  764   0.859   2.757   1.360  0.2524  1.1912 -0.4133
  255SOL    HW2  765   0.795   2.602   1.369  0.2636  0.1690 -0.9218
  256SOL     OW  766   1.786   2.086   1.718  0.3560 -0.4418  0.1556
  256SOL    HW1  767   1.840   2.043   1.645 -1.0150 -0.8548 -0.5759
  256SOL    HW2  768   1.719   2.138   1.667  0.5642 -3.3579 -0.6094
  257SOL     OW  769   0.504   2.424   2.499 -0.2011  0.0033 -0.5291
  257SOL    HW1  770   0.503   2.459   2.593  1.7145  0.2766 -1.9005
  257SOL    HW2  771   0.559   2.477   2.431 -1.4117  0.2385 -1.4790
  258SOL     OW  772   0.720   2.691   0.729  0.7049  0.0500 -0.3429
  258SOL    HW1  773   0.780   2.740   0.795  1.5666 -1.4805  0.4371
  258SOL    HW2  774   0.641   2.746   0.697  3.1921 -2.1941 -0.2266
  259SOL     OW  775   1.454   0.617   2.816 -0.0086  0.3475  0.5342
  259SOL    HW1  776   1.504   0.541   2.859 -1.8458 -0.1027 -2.1709
  259SOL    HW2  777   1.387   0.658   2.880  0.6672 -0.6212  1.9857
  260SOL     OW  778   3.052   1.091   1.067 -0.8131 -0.3152  0.1952
  260SOL    HW1  779   3.070   1.179   1.110  0.0925  2.6052  1.3663
  260SOL    HW2  780   0.038   1.031   1.057 -0.7106 -2.8685 -0.4157
  261SOL     OW  781   0.831   0.269   2.501 -0.9330  0.0454  0.0018
  261SOL    HW1  782   0.818   0.226   2.595  0.0085 -0.6279  1.9546
  261SOL    HW2  783   0.767   0.220   2.442 -0.8933  1.1849  2.9695
  262SOL     OW  784   1.172   2.243   2.331  0.0696  0.0110 -0.6512
  262SOL    HW1  785   1.088   2.191   2.303 -0.0317 -0.2102  2.0500
  262SOL    HW2  786   1.243   2.228   2.264  0.8915  0.7148  2.6887
  263SOL     OW  787   0.515   2.207   3.020 -0.2771 -0.4995  0.1904
  263SOL    HW1  788   0.616   2.207   3.033  1.2741 -0.6697  0.6118
  263SOL    HW2  789   0.470   2.146   3.087 -0.9677  0.1196 -0.6552
  264SOL     OW  790   1.102   1.564   1.314 -0.2413  0.6715  0.6524
  264SOL    HW1  791   1.196   1.546   1.349  2.1658 -0.9088  1.0158
  264SOL    HW2  792   1.037   1.516   1.376  0.3038  0.7677  2.5268
  265SOL     OW  793   0.990   2.220   0.424 -0.5181 -0.3884  0.0090
  265SOL    HW1  794   0.959   2.146   0.487 -2.2047 -2.7631 -0.2910
  265SOL    HW2  795   1.019   2.300   0.479 -0.1428 -0.7125  1.4343
  266SOL     OW  796   2.526   0.833   0.887  0.0445 -0.0475 -0.0368
  266SOL    HW1  797   2.628   0.830   0.885 -2.5187  0.9279 -2.6309
  266SOL    HW2  798   2.483   0.862   0.803 -2.2392 -4.9278  1.6354
  267SOL     OW  799   2.952   1.336   2.826 -0.0333 -0.0007  0.3975
  267SOL    HW1  800   3.005   1.329   2.915  1.7284 -0.3490  1.5321
  267SOL    HW2  801   2.999   1.282   2.751 -2.4288 -2.0608 -0.4464
  268SOL     OW  802   1.575   0.092   0.241 -0.0595  0.2952 -0.1801
  268SOL    HW1  803   1.549   0.072   0.341 -0.6690 -0.3191  0.9254
  268SOL    HW2  804   1.673   0.127   0.235  4.9105  1.1756  2.1481
  269SOL     OW  805   2.920   0.922   2.372 -0.2680  0.1922 -0.6255
  269SOL    HW1  806   2.873   0.992   2.428  2.5190  0.0435  0.3772
  269SOL    HW2  807   2.937   0.960   2.283  0.4846 -1.7627  2.9272
  270SOL     OW  808   0.018   1.285   3.046  0.4673 -0.2964  0.1596
  270SOL    HW1  809   3.050   1.246   0.013  0.2084  0.6366 -1.3760
  270SOL    HW2  810   0.088   1.215   3.011  1.6295 -0.4875 -0.6929
  271SOL     OW  811   2.686   1.522   2.403  0.7742 -0.0415 -0.3045
  271SOL    HW1  812   2.649   1.525   2.499 -1.4490  0.5833  0.7697
  271SOL    HW2  813   2.604   1.531   2.345 -0.8673 -0.4638  1.1173
  272SOL     OW  814   2.437   2.440   1.682 -0.0682  0.3349 -0.1111
  272SOL    HW1  815   2.366   2.362   1.685 -3.0233 -1.5380 -1.1768
  272SOL    HW2  816   2.438   2.475   1.590  2.9361  2.6205  2.3965
  273SOL     OW  817   0.177   2.445   0.126 -0.0414  0.5257 -0.3802
  273SOL    HW1  818   0.207   2.537   0.094 -0.6000 -2.6473 -2.4640
  273SOL    HW2  819   0.077   2.437   0.139  0.0875  1.1260 -1.2551
  274SOL     OW  820   0.985   2.368   0.865  0.0959  0.8398  0.2279
  274SOL    HW1  821   0.911   2.366   0.795  0.3196 -0.4002 -1.2915
  274SOL    HW2  822   0.998   2.465   0.888 -1.2158  1.9357 -1.1704
  275SOL     OW  823   2.228   1.632   0.169 -0.2018 -0.1932 -0.6648
  275SOL    HW1  824   2.247   1.722   0.204 -0.3623 -2.6065  0.8713
  275SOL    HW2  825   2.312   1.585   0.132  0.1332 -0.8756  0.3696
  276SOL     OW  826   2.492   1.550   1.560  0.4683  0.2179 -0.4243
  276SOL    HW1  827   2.454   1.623   1.507 -0.2286  0.3437 -0.9919
  276SOL    HW2  828   2.589   1.532   1.520 -0.7273  2.4819 -1.8150
  277SOL     OW  829   2.326   0.413   0.835  0.0674  0.8980  0.3193
  277SOL    HW1  830   2.249   0.449   0.780  0.4657 -0.9397 -0.3930
  277SOL    HW2  831   2.293   0.350   0.914 -0.1662 -0.9401  3.0933
  278SOL     OW  832   1.844   0.623   2.453  0.0783  0.7379  0.5259
  278SOL    HW1  833   1.786   0.643   2.531  1.4489 -2.6154 -4.1189
  278SOL    HW2  834   1.931   0.589   2.488 -4.5885  0.6857 -1.5669
  279SOL     OW  835   1.218   2.646   1.352  0.1391 -0.0236  0.2799
  279SOL    HW1  836   1.269   2.641   1.268 -0.7790  1.7696 -2.6020
  279SOL    HW2  837   1.128   2.690   1.333  1.1354 -0.5002  2.0107
  280SOL     OW  838   1.032   0.882   0.309 -0.3252 -0.1370  0.5548
  280SOL    HW1  839   0.960   0.872   0.241 -0.6663  0.9678  1.1218
  280SOL    HW2  840   1.126   0.878   0.269  0.5567 -2.8342  1.4570
  281SOL     OW  841   2.469   1.644   3.053 -0.0804  0.6619 -0.1926
  281SOL    HW1  842   2.574   1.656   3.043 -1.3547  0.4474 -1.8319
  281SOL    HW2  843   2.424   1.730   3.088 -1.7559 -1.3647  3.0349
  282SOL     OW  844   2.709   1.381   0.057 -0.4688  0.1093 -0.5069
  282SOL    HW1  845   2.623   1.380   0.116 -5.1242 -0.7546 -1.6504
  282SOL    HW2  846   2.792   1.358   0.113 -0.7115 -1.7695  2.8928
  283SOL     OW  847   1.436   2.950   2.735 -0.1647  0.3728  0.5949
  283SOL    HW1  848   1.483   2.926   2.651 -0.6971 -1.7935  1.1782
  283SOL    HW2  849   1.498   2.946   2.814 -0.3983 -2.5488 -2.8606
  284SOL     OW  850   0.815   0.026   3.034 -0.3731 -0.7869  0.5607
  284SOL    HW1  851   0.856   0.119   3.049 -0.0302  1.1011 -0.0838
  284SOL    HW2  852   0.880   3.070   2.975 -0.2979 -0.8594 -1.6548
  285SOL     OW  853   1.843   1.981   2.720 -0.0278 -0.0674 -0.3505
  285SOL    HW1  854   1.897   1.998   2.638  1.2934  2.1892  2.8418
  285SOL    HW2  855   1.848   2.066   2.774 -1.7932 -1.4189 -0.9945
  286SOL     OW  856   1.189   1.760   0.902 -0.4736  0.5099  0.1398
  286SOL    HW1  857   1.130   1.765   0.984 -1.1411  2.3435  0.0689
  286SOL    HW2  858   1.246   1.675   0.903  0.4896  0.2867  1.0174
  287SOL     OW  859   1.642   0.295   1.424 -0.1489 -0.4900 -0.3214
  287SOL    HW1  860   1.691   0.239   1.491 -2.0519  1.2292 -1.2064
  287SOL    HW2  861   1.581   0.361   1.472 -2.2683  2.0687  2.8256
  288SOL     OW  862   0.705   2.625   2.324 -0.5842 -0.1859  0.1296
  288SOL    HW1  863   0.749   2.708   2.367 -1.3334 -2.6599 -1.9494
  288SOL    HW2  864   0.697   2.631   2.221 -0.9481 -1.0058 -1.2216
  289SOL     OW  865   0.272   1.292   0.842  0.2259  0.8891 -0.2454
  289SOL    HW1  866   0.214   1.213   0.869  0.2686 -0.8065  0.9862
  289SOL    HW2  867   0.324   1.322   0.922 -2.4357 -1.7061 -2.3884
  290SOL     OW  868   1.036   2.028   1.674 -0.0458  0.0599 -0.3254
  290SOL    HW1  869   1.130   2.020   1.714  2.6654 -1.4995 -1.7819
  290SOL    HW2  870   1.047   1.993   1.573 -1.1066  0.0108  1.4164
  291SOL     OW  871   1.954   3.018   0.533  0.2186  0.7107  0.3965
  291SOL    HW1  872   1.897   3.023   0.619  2.0496 -2.8031  1.5780
  291SOL    HW2  873   1.914   3.076   0.460  1.4483 -0.7875 -2.5989
  292SOL     OW  874   0.372   0.318   1.629  0.2442 -0.2332 -0.2389
  292SOL    HW1  875   0.410   0.360   1.547 -0.4566 -1.6935  3.2390
  292SOL    HW2  876   0.318   0.385   1.686 -2.2078  3.8059  0.0560
  293SOL     OW  877   2.368   1.730   1.037  0.3957  0.2003  0.3209
  293SOL    HW1  878   2.448   1.767   0.987 -0.0639 -1.0261 -0.7623
  293SOL    HW2  879   2.297   1.713   0.963 -1.0895  2.4822 -0.5732
  294SOL     OW  880   0.362   0.332   2.440 -0.2225 -0.2357  0.0176
  294SOL    HW1  881   0.389   0.416   2.393  0.0377  0.5228  0.5748
  294SOL    HW2  882   0.433   0.280   2.491  1.1826  1.5480 -0.1665
  295SOL     OW  883   0.943   1.262   0.491  0.1334  0.2161  0.0124
  295SOL    HW1  884   0.938   1.178   0.548 -0.8786  0.4986  1.1992
  295SOL    HW2  885   0.848   1.291   0.473  1.6402 -0.2590  1.5966
  296SOL     OW  886   1.928   2.013   1.076  0.6852  0.2679  0.0166
  296SOL    HW1  887   1.878   1.921   1.081 -1.1184 -3.4683  0.2133
  296SOL    HW2  888   2.018   2.005   1.030  1.2871 -2.4949 -0.7270
  297SOL     OW  889   1.826   0.439   2.716  0.1919  0.6977 -0.3343
  297SOL    HW1  890   1.922   0.431   2.696 -0.1054 -0.9518 -0.7486
  297SOL    HW2  891   1.795   0.530   2.729 -1.1006 -3.5084 -0.1082
  298SOL     OW  892   1.254   0.030   2.773  0.5351 -0.2706 -0.2260
  298SOL    HW1  893   1.323   3.054   2.758 -0.6561 -2.8240  1.0625
  298SOL    HW2  894   1.282   0.081   2.850  0.1304 -2.2741 -3.7858
  299SOL     OW  895   1.031   0.169   2.154 -0.1316 -0.4104  0.1581
  299SOL    HW1  896   1.129   0.189   2.188  1.1859 -1.1881  0.2238
  299SOL    HW2  897   0.993   0.080   2.197  0.1287  0.7643  1.7222
  300SOL     OW  898   2.526   0.061   1.626  0.0927 -0.0347  0.0361
  300SOL    HW1  899   2.567   0.040   1.720 -0.0655 -1.2013  0.6470
  300SOL    HW2  900   2.568   0.142   1.585  1.3163 -2.5165  2.5105
  301SOL     OW  901   2.412   0.363   1.708 -0.6434 -0.0575  0.1929
  301SOL    HW1  902   2.511   0.338   1.710  0.4811 -0.6508 -0.8732
  301SOL    HW2  903   2.408   0.449   1.658 -1.5134  0.6150 -1.2505
  302SOL     OW  904   0.748   2.688   0.343 -0.2425  0.2855 -0.2810
  302SOL    HW1  905   0.821   2.691   0.414 -0.0294 -1.0038 -1.4726
  302SOL    HW2  906   0.677   2.754   0.373 -2.0922  0.9704  3.6484
  303SOL     OW  907   1.872   1.736   2.007 -0.4415  0.3177  0.2531
  303SOL    HW1  908   1.868   1.673   1.928  1.1141  0.0808 -2.4430
  303SOL    HW2  909   1.811   1.817   1.993  0.1694 -0.9952 -0.9071
  304SOL     OW  910   0.673   0.369   0.925  0.1721 -0.3641  0.0812
  304SOL    HW1  911   0.612   0.333   0.995 -0.7506  2.7529  0.9770
  304SOL    HW2  912   0.687   0.468   0.944 -2.1946 -0.1247  1.4238
  305SOL     OW  913   0.809   0.767   0.666 -0.3725  0.4222 -0.0466
  305SOL    HW1  914   0.767   0.696   0.609 -1.5128  0.9286 -0.6955
  305SOL    HW2  915   0.854   0.731   0.750 -0.9995 -0.3846  0.1829
  306SOL     OW  916   0.543   1.256   2.889 -0.5970  0.6614  0.1467
  306SOL    HW1  917   0.641   1.283   2.865 -2.3730 -0.1187  0.2137
  306SOL    HW2  918   0.534   1.251   2.989  2.0530 -1.6392  2.2962
  307SOL     OW  919   0.845   0.292   2.011 -0.0005 -0.8648 -0.1621
  307SOL    HW1  920   0.899   0.347   1.944 -0.4639  1.5619 -1.6688
  307SOL    HW2  921   0.905   0.283   2.094  2.0475 -1.4680  1.1680
  308SOL     OW  922   0.897   0.239   0.861 -0.5464 -0.3634  0.0056
  308SOL    HW1  923   0.820   0.290   0.891  0.8339 -2.4804  0.5179
  308SOL    HW2  924   0.915   0.242   0.758 -2.4687  0.8882 -3.6226
  309SOL     OW  925   2.473   1.129   0.356  0.3423  0.5834  0.0931
  309SOL    HW1  926   2.477   1.181   0.441 -0.7325  0.9659 -0.0384
  309SOL    HW2  927   2.523   1.035   0.356 -2.0425 -2.1020 -0.6304
  310SOL     OW  928   0.955   1.442   2.960  0.6250 -0.3221 -0.1133
  310SOL    HW1  929   1.052   1.438   2.925 -1.7507  0.1549 -0.1261
  310SOL    HW2  930   0.958   1.419   3.060  0.5612 -0.7682 -1.6180
  311SOL     OW  931   1.847   2.501   2.196  0.6476  0.2128 -0.7406
  311SOL    HW1  932   1.777   2.450   2.254 -2.8629  0.3685  1.5792
  311SOL    HW2  933   1.915   2.552   2.255 -2.2344  0.0342  1.5971
  312SOL     OW  934   2.213   2.770   2.982  0.1161  0.0084  0.4736
  312SOL    HW1  935   2.133   2.805   2.927  0.9672  1.4265  2.4360
  312SOL    HW2  936   2.303   2.779   2.937  0.8529 -1.0894 -1.6699
  313SOL     OW  937   0.418   0.162   3.075  0.0048 -0.6830 -0.0662
  313SOL    HW1  938   0.436   0.256   3.037 -1.3257  2.3043  1.6229
  313SOL    HW2  939   0.324   0.148   0.009  0.0002 -0.6925 -0.4648
  314SOL     OW  940   2.620   1.524   2.703  0.4609  0.1320  0.1154
  314SOL    HW1  941   2.631   1.458   2.777 -0.0486  0.6115 -2.3239
  314SOL    HW2  942   2.615   1.621   2.731  2.1118 -1.8771 -0.2784
  315SOL     OW  943   1.937   0.705   2.200 -0.4664  0.3476 -0.0462
  315SOL    HW1  944   1.886   0.709   2.284 -0.1767 -1.0917 -1.3587
  315SOL    HW2  945   2.036   0.735   2.206  2.7062 -0.5431 -2.1301
  316SOL     OW  946   2.986   1.079   0.389  0.1597  0.3845  0.0787
  316SOL    HW1  947   2.978   0.973   0.372 -2.2075 -1.6356 -0.9014
  316SOL    HW2  948   3.066   1.107   0.438  0.0881 -2.9386  2.6887
  317SOL     OW  949   0.505   2.880   0.295 -0.1433 -1.1523  0.3497
  317SOL    HW1  950   0.512   2.932   0.378  0.9721 -2.7649 -0.2505
  317SOL    HW2  951   0.518   2.937   0.210 -0.7159 -0.2175 -0.5853
  318SOL     OW  952   1.941   2.617   1.325 -0.6248 -0.3598  0.7417
  318SOL    HW1  953   1.876   2.681   1.366  1.7426 -1.8276  1.7025
  318SOL    HW2  954   2.009   2.583   1.391  0.9742 -0.0439 -2.4813
  319SOL     OW  955   1.314   1.459   0.233 -0.8321 -0.3798 -0.6824
  319SOL    HW1  956   1.324   1.550   0.279  1.4725  2.2025  1.1514
  319SOL    HW2  957   1.235   1.408   0.268  1.4515 -0.9768 -0.0615
  320SOL     OW  958   0.705   1.826   0.835 -0.6534  0.3616 -0.5238
  320SOL    HW1  959   0.775   1.858   0.900  1.7933 -1.3171 -2.8355
  320SOL    HW2  960   0.614   1.841   0.872  2.3270  1.7720 -0.3014
  321SOL     OW  961   2.117   2.667   1.895 -0.4531 -0.6576  0.4070
  321SOL    HW1  962   2.205   2.681   1.941 -1.9444  0.8628 -1.8096
  321SOL    HW2  963   2.057   2.746   1.910  1.8463  3.2570  1.6278
  322SOL     OW  964   2.129   2.242   2.344  0.1366  0.3257 -0.1401
  322SOL    HW1  965   2.145   2.185   2.424 -3.0559  2.8342 -2.2004
  322SOL    HW2  966   2.105   2.181   2.267  0.7298 -2.8281 -2.5309
  323SOL     OW  967   2.579   0.504   0.776  0.4893 -0.1871  0.0619
  323SOL    HW1  968   2.483   0.474   0.760  1.0469 -1.1677  0.8029
  323SOL    HW2  969   2.627   0.539   0.692 -0.2188  2.0030  0.1482
  324SOL     OW  970   2.409   2.347   2.343  0.0982 -0.4483 -0.4023
  324SOL    HW1  971   2.400   2.298   2.258 -0.4975  2.6349  0.6429
  324SOL    HW2  972   2.506   2.366   2.373 -0.9173  0.4770  1.5975
  325SOL     OW  973   1.389   0.607   2.568  0.6404  0.4374  0.5660
  325SOL    HW1  974   1.313   0.673   2.547  2.1212  2.6391 -0.0008
  325SOL    HW2  975   1.415   0.617   2.670 -0.5941  1.6719 -2.3629
  326SOL     OW  976   2.667   2.541   1.050 -0.5122 -0.0763 -0.1876
  326SOL    HW1  977   2.690   2.606   0.974 -1.1460 -1.3032 -0.9728
  326SOL    HW2  978   2.673   2.445   1.018 -0.2683 -0.2930 -1.2706
  327SOL     OW  979   2.596   2.921   0.267 -0.2835  0.3335 -0.1025
  327SOL    HW1  980   2.627   2.892   0.176  1.7545  2.6975  1.4370
  327SOL    HW2  981   2.645   3.007   0.290 -3.8359 -2.7163 -1.8145
  328SOL     OW  982   0.758   0.640   1.002 -0.6265 -0.1801  1.0185
  328SOL    HW1  983   0.774   0.666   1.094  0.3839  2.9640 -0.6150
  328SOL    HW2  984   0.838   0.598   0.961 -3.0828  1.8563  2.4921
  329SOL     OW  985   2.081   0.602   1.408 -0.2786  0.2857  0.1807
  329SOL    HW1  986   2.074   0.684   1.471  1.6691  0.3867  1.3004
  329SOL    HW2  987   2.178   0.609   1.372 -0.3019 -1.3184 -0.2561
  330SOL     OW  988   0.685   0.610   0.482  0.0273 -0.4993  0.3494
  330SOL    HW1  989   0.683   0.698   0.437  0.5339 -3.5390  1.5772
  330SOL    HW2  990   0.730   0.546   0.416  1.0400  3.7154 -0.5463
  331SOL     OW  991   0.734   1.843   1.827 -0.1443 -0.2505  0.0661
  331SOL    HW1  992   0.755   1.946   1.819 -0.1827  2.4456  0.4324
  331SOL    HW2  993   0.775   1.786   1.748  3.1736 -0.7699 -3.7020
  332SOL     OW  994   2.114   2.443   2.129 -0.0053  0.0165 -0.1079
  332SOL    HW1  995   2.018   2.418   2.103 -0.2367  0.8740  1.4817
  332SOL    HW2  996   2.140   2.384   2.208  0.0348  0.2674  0.9950
  333SOL     OW  997   3.030   0.071   1.044  0.0507  0.7341 -0.2819
  333SOL    HW1  998   3.064   0.094   1.139  0.5357 -1.0774  1.4965
  333SOL    HW2  999   2.931   0.077   1.031 -0.8673  4.6921 -1.1962
  334SOL     OW 1000   3.008   1.390   0.655 -0.1175  0.1228 -0.2182
  334SOL    HW1 1001   2.938   1.351   0.590  0.0072 -2.7590  0.0014
  334SOL    HW2 1002   3.071   1.452   0.603  0.6100 -0.9091  0.6673
  335SOL     OW 1003   0.432   2.508   2.754  0.8049 -0.1731 -0.6301
  335SOL    HW1 1004   0.387   2.456   2.831 -2.3608  1.2040 -0.1341
  335SOL    HW2 1005   0.378   2.590   2.744  1.3915 -1.3579 -0.4102
  336SOL     OW 1006   2.891   2.712   2.199  0.8705  0.1314 -0.1375
  336SOL    HW1 1007   2.943   2.732   2.286 -1.4876 -0.5919 -0.1515
  336SOL    HW2 1008   2.817   2.781   2.191 -0.7158  2.9439 -0.6982
  337SOL     OW 1009   1.253   1.905   1.806 -0.0132  0.4615 -0.0049
  337SOL    HW1 1010   1.177   1.837   1.815 -0.4045  0.6897  1.7422
  337SOL    HW2 1011   1.329   1.891   1.875 -1.3225 -1.7439 -1.0478
  338SOL     OW 1012   1.080   0.008   2.567 -0.1253  0.1688  0.1423
  338SOL    HW1 1013   1.122   3.054   2.487  0.2369 -3.2828  0.6632
  338SOL    HW2 1014   1.157   0.023   2.633 -0.6659 -1.3959  1.0367
  339SOL     OW 1015   0.350   0.831   2.435  0.6726  0.0750  0.1881
  339SOL    HW1 1016   0.312   0.914   2.383 -0.9029  1.3985 -1.0736
  339SOL    HW2 1017   0.290   0.818   2.522  0.0886 -0.4003  2.8513
  340SOL     OW 1018   2.360   0.574   1.318 -0.0932  0.0425 -0.1012
  340SOL    HW1 1019   2.353   0.624   1.225  0.8972 -0.8512 -2.3419
  340SOL    HW2 1020   2.408   0.487   1.308 -0.1628  0.0514 -0.0208
  341SOL     OW 1021   2.445   1.449   0.918  0.6540  1.0206  0.3328
  341SOL    HW1 1022   2.366   1.443   0.982 -2.7306 -0.2807  0.3549
  341SOL    HW2 1023   2.528   1.433   0.974 -3.2881  1.3870  2.5487
  342SOL     OW 1024   2.033   2.890   2.804  0.9672 -0.5096 -0.5933
  342SOL    HW1 1025   2.002   2.968   2.864 -3.3809  1.7547  1.8575
  342SOL    HW2 1026   1.968   2.879   2.726 -0.1250 -0.8331 -0.3426
  343SOL     OW 1027   0.122   2.382   1.128  0.2057  0.0369  0.1611
  343SOL    HW1 1028   0.130   2.316   1.203  0.4897 -2.0214  0.6855
  343SOL    HW2 1029   0.151   2.472   1.169  0.7600  0.1794  1.9991
  344SOL     OW 1030   2.401   2.927   1.215  0.1768 -0.3654  0.3650
  344SOL    HW1 1031   2.386   2.828   1.203  2.0956 -1.7362  0.8386
  344SOL    HW2 1032   2.358   2.953   1.303 -0.5800 -1.0956 -1.9830
  345SOL     OW 1033   2.424   2.157   0.542 -0.3192 -0.0877 -0.3526
  345SOL    HW1 1034   2.497   2.149   0.468  0.8057 -0.8568  1.2020
  345SOL    HW2 1035   2.343   2.206   0.504 -1.7645  0.3098 -2.3858
  346SOL     OW 1036   1.566   2.202   1.596 -0.0841  0.1618 -0.2654
  346SOL    HW1 1037   1.504   2.125   1.566 -1.8360  1.2143 -1.1637
  346SOL    HW2 1038   1.511   2.288   1.589  0.5633 -0.4875 -2.0838
  347SOL     OW 1039   1.073   1.905   1.450 -0.4206 -0.4929  0.0786
  347SOL    HW1 1040   1.074   1.826   1.516 -0.0667  0.2838  0.3540
  347SOL    HW2 1041   1.043   1.873   1.357 -1.2032  0.3869  0.5124
  348SOL     OW 1042   0.265   1.960   1.947 -0.2967 -0.2612 -0.1086
  348SOL    HW1 1043   0.363   1.985   1.926  0.4694  1.2074 -0.5987
  348SOL    HW2 1044   0.229   1.900   1.875 -0.6438 -1.2797 -1.8097
  349SOL     OW 1045   1.495   1.744   1.567 -0.5751 -0.8284  0.1016
  349SOL    HW1 1046   1.465   1.708   1.658  0.5783 -0.7321 -0.8262
  349SOL    HW2 1047   1.473   1.845   1.564 -1.7030  0.0893  0.7192
  350SOL     OW 1048   2.211   2.380   0.505  0.2852  0.1134  0.1666
  350SOL    HW1 1049   2.175   2.422   0.417  0.9359  0.8016 -0.3709
  350SOL    HW2 1050   2.277   2.436   0.554  0.6135 -1.2237 -0.8404
  351SOL     OW 1051   0.343   2.976   1.831  0.4989 -0.2329  0.9246
  351SOL    HW1 1052   0.375   2.886   1.798 -1.3432 -1.8208 -2.4465
  351SOL    HW2 1053   0.259   3.002   1.781  0.1863 -0.0502  1.3328
  352SOL     OW 1054   0.666   0.997   0.697  0.7356 -0.8199  0.3162
  352SOL    HW1 1055   0.716   1.080   0.726 -0.5902  0.0308 -1.4286
  352SOL    HW2 1056   0.722   0.918   0.675 -0.8371  0.2320  0.6438
  353SOL     OW 1057   1.155   1.821   2.755 -0.3918  0.0002 -0.1161
  353SOL    HW1 1058   1.178   1.914   2.728 -1.8317  1.6479  0.7374
  353SOL    HW2 1059   1.055   1.806   2.742  1.2484  3.5507 -1.4770
  354SOL     OW 1060   1.683   2.666   2.070  0.0565  0.2283 -0.2344
  354SOL    HW1 1061   1.754   2.621   2.123 -1.0752  3.6777 -1.3242
  354SOL    HW2 1062   1.705   2.757   2.043  0.4760  0.0361  3.4697
  355SOL     OW 1063   2.225   1.137   3.086 -0.2826  0.4460 -0.2605
  355SOL    HW1 1064   2.261   1.231   3.093  1.3674  4.0246  2.3645
  355SOL    HW2 1065   2.123   1.142   3.084  2.0721 -2.3444  1.0889
  356SOL     OW 1066   0.276   1.860   1.105  0.2844  0.3733 -0.0964
  356SOL    HW1 1067   0.235   1.809   1.024 -2.1358 -1.0881  0.4423
  356SOL    HW2 1068   0.206   1.880   1.175 -0.4441  2.4153  1.3128
  357SOL     OW 1069   3.063   2.860   1.382  0.3395  0.0435 -0.7668
  357SOL    HW1 1070   2.997   2.931   1.411  0.7483  2.4546 -1.8319
  357SOL    HW2 1071   0.001   2.886   1.287  1.8115  0.4561 -0.4344
  358SOL     OW 1072   2.160   1.855   1.499  0.1335  0.2770  0.1755
  358SOL    HW1 1073   2.201   1.929   1.557  0.2538  1.1041  1.2129
  358SOL    HW2 1074   2.220   1.817   1.426  0.1044  2.1886  2.6814
  359SOL     OW 1075   2.296   2.785   2.637  0.4512 -0.1202  0.5781
  359SOL    HW1 1076   2.207   2.814   2.681 -0.6390  1.0035  0.3179
  359SOL    HW2 1077   2.294   2.698   2.579  0.4399  0.1462 -0.9355
  360SOL     OW 1078   0.884   2.770   0.931 -0.0615  0.7689  0.6082
  360SOL    HW1 1079   0.892   2.694   0.997 -0.9026  1.1717 -0.9468
  360SOL    HW2 1080   0.932   2.853   0.953 -1.6856 -1.2070 -3.2720
  361SOL     OW 1081   1.903   0.358   0.451 -0.2539  0.1633  0.0282
  361SOL    HW1 1082   1.976   0.420   0.415  0.4472  0.6786 -0.2120
  361SOL    HW2 1083   1.899   0.353   0.554  0.2659 -0.2578  0.9761
  362SOL     OW 1084   1.541   0.868   1.175 -0.2536  0.5391  0.4274
  362SOL    HW1 1085   1.592   0.888   1.269  1.9130  0.8502 -0.3732
  362SOL    HW2 1086   1.469   0.793   1.180 -2.6510  0.2000  1.1323
  363SOL     OW 1087   2.160   1.471   2.197  0.6976  0.0833  0.0531
  363SOL    HW1 1088   2.195   1.387   2.245 -0.8965 -0.5468  0.3462
  363SOL    HW2 1089   2.165   1.460   2.097  3.3387  2.7833 -0.5779
  364SOL     OW 1090   0.508   0.670   1.223  0.5588  0.5474  0.4622
  364SOL    HW1 1091   0.484   0.627   1.133 -1.4151  1.5709  3.0067
  364SOL    HW2 1092   0.605   0.697   1.227 -1.6213  1.2824  1.2750
  365SOL     OW 1093   0.596   0.144   2.450  0.4454  0.4322  0.4356
  365SOL    HW1 1094   0.597   0.120   2.548 -1.5546  0.6892 -0.4900
  365SOL    HW2 1095   0.574   0.065   2.386 -1.2803 -0.4276 -0.6375
  366SOL     OW 1096   2.082   2.027   2.571 -0.3032 -0.0297 -0.4469
  366SOL    HW1 1097   2.165   1.987   2.523  1.5391  2.8062 -1.6243
  366SOL    HW2 1098   2.119   2.095   2.642  0.8028  1.9689  3.5504
  367SOL     OW 1099   2.527   2.531   0.078 -0.1501  0.5638  0.0371
  367SOL    HW1 1100   2.593   2.585   0.133 -3.0831 -1.2192 -0.8685
  367SOL    HW2 1101   2.540   2.550   3.073  0.1746  3.2930 -0.4340
  368SOL     OW 1102   2.814   1.414   0.838  0.1806 -0.0803 -0.5962
  368SOL    HW1 1103   2.749   1.491   0.824  2.3547 -0.4401 -2.0372
  368SOL    HW2 1104   2.891   1.427   0.776  0.7540  0.1691  2.2728
  369SOL     OW 1105   0.813   2.861   2.402  0.2466  0.2129  0.2506
  369SOL    HW1 1106   0.830   2.849   2.504 -0.5849 -0.2307 -1.7908
  369SOL    HW2 1107   0.885   2.923   2.361  3.7822 -1.9066  1.8154
  370SOL     OW 1108   2.829   0.120   0.578  0.0917  0.0456  0.1108
  370SOL    HW1 1109   2.875   0.205   0.548 -2.0026 -2.2912 -0.5642
  370SOL    HW2 1110   2.764   0.151   0.653 -2.9611  1.5411  1.3937
  371SOL     OW 1111   1.348   2.178   1.342  0.2587 -0.6708  0.0997
  371SOL    HW1 1112   1.403   2.259   1.310 -0.8782 -2.7308  1.9741
  371SOL    HW2 1113   1.255   2.178   1.298 -3.0372 -0.8744 -0.2030
  372SOL     OW 1114   3.011   0.668   2.398 -0.2397  0.1566  0.2070
  372SOL    HW1 1115   0.001   0.654   2.447  1.8714  2.0648  0.9428
  372SOL    HW2 1116   2.981   0.765   2.397  0.3370  1.5666 -0.1561
  373SOL     OW 1117   0.043   2.119   0.639 -0.2102 -0.1085  0.7216
  373SOL    HW1 1118   0.137   2.159   0.651  1.5209  0.4398 -1.0254
  373SOL    HW2 1119   3.077   2.178   0.690  4.2769 -0.0193 -0.9716
  374SOL     OW 1120   0.408   2.866   2.497 -0.5826 -0.2142  0.1910
  374SOL    HW1 1121   0.452   2.859   2.591 -0.1117  0.5711 -2.7002
  374SOL    HW2 1122   0.468   2.928   2.444  0.8217  0.7989  0.5341
  375SOL     OW 1123   0.604   0.045   2.712  0.2380  0.5955 -0.1913
  375SOL    HW1 1124   0.592   3.043   2.734 -2.8137 -2.1470 -1.3063
  375SOL    HW2 1125   0.696   0.075   2.737  0.2344 -2.2593  0.1232
  376SOL     OW 1126   2.766   2.091   1.772 -0.1757 -0.6714  0.0309
  376SOL    HW1 1127   2.769   2.183   1.809  1.5722  1.2853  0.8831
  376SOL    HW2 1128   2.697   2.030   1.821 -1.9766  0.1616  1.0575
  377SOL     OW 1129   1.668   2.652   3.045  0.8199 -0.1192  0.0422
  377SOL    HW1 1130   1.697   2.716   0.025  1.0001  2.1838  2.2036
  377SOL    HW2 1131   1.596   2.588   3.071  0.7242  1.5916 -2.6591
  378SOL     OW 1132   0.021   0.399   2.316 -0.3100  0.2768  0.6786
  378SOL    HW1 1133   0.047   0.368   2.406 -1.5930 -0.6066 -1.0725
  378SOL    HW2 1134   3.027   0.439   2.320  3.1096 -2.7153  0.7368
  379SOL     OW 1135   0.365   1.072   0.315  0.0100 -0.5095 -0.1920
  379SOL    HW1 1136   0.443   1.101   0.376  3.2303 -0.7363  1.1685
  379SOL    HW2 1137   0.336   0.979   0.334  0.9154  0.9205 -2.2158
  380SOL     OW 1138   0.340   1.599   1.812 -0.1536  0.0549  0.0552
  380SOL    HW1 1139   0.402   1.659   1.759 -2.5501 -0.4109 -0.6033
  380SOL    HW2 1140   0.341   1.621   1.913 -2.9310 -0.1264 -0.1538
  381SOL     OW 1141   0.487   1.122   2.151  0.1098 -0.0065 -0.1989
  381SOL    HW1 1142   0.471   1.025   2.155  1.6780  2.2984 -0.0026
  381SOL    HW2 1143   0.588   1.143   2.160  1.2804  0.0900  0.3868
  382SOL     OW 1144   2.308   1.905   0.513  0.2393  1.2225  0.6401
  382SOL    HW1 1145   2.357   1.993   0.519 -0.4330  0.0344 -0.3914
  382SOL    HW2 1146   2.221   1.908   0.565  1.7879 -1.5216 -1.3908
  383SOL     OW 1147   0.508   1.941   0.069  0.2115 -0.0702 -0.1686
  383SOL    HW1 1148   0.569   1.962   0.151  3.9112  1.1047  1.4786
  383SOL    HW2 1149   0.564   1.941   3.080  1.3459 -1.2154  1.1358
  384SOL     OW 1150   0.854   2.114   2.636  0.2143 -0.2501 -0.0662
  384SOL    HW1 1151   0.767   2.141   2.687  1.7234  0.0109  2.4486
  384SOL    HW2 1152   0.909   2.199   2.622  3.5256  0.7557  1.9373
  385SOL     OW 1153   2.042   1.919   0.622 -0.0528  0.4140 -0.0319
  385SOL    HW1 1154   2.050   1.937   0.720  0.9266 -0.3366 -1.4180
  385SOL    HW2 1155   1.964   1.968   0.580  0.4850 -0.3485 -0.6641
  386SOL     OW 1156   2.307   0.968   1.512 -0.1680 -0.4399 -0.0034
  386SOL    HW1 1157   2.347   1.023   1.432 -1.6952  2.5796  1.5147
  386SOL    HW2 1158   2.214   1.003   1.527  2.2961  0.1803 -0.2820
  387SOL     OW 1159   2.738   1.507   2.024 -0.2048 -0.1305 -0.3520
  387SOL    HW1 1160   2.662   1.565   2.061 -0.8601 -0.6505  3.5233
  387SOL    HW2 1161   2.811   1.489   2.090 -1.0642  1.1382 -0.4376
  388SOL     OW 1162   0.426   1.680   2.079 -0.3007  0.7512 -0.3576
  388SOL    HW1 1163   0.523   1.666   2.046  0.0807  0.8666  1.0261
  388SOL    HW2 1164   0.401   1.775   2.104 -2.0673  0.2976 -0.9010
  389SOL     OW 1165   0.984   1.049   2.123  0.5041  0.4808  0.2466
  389SOL    HW1 1166   0.939   0.958   2.107 -3.6049  0.3812  0.1969
  389SOL    HW2 1167   1.066   1.030   2.178 -1.5875  2.9423  0.3820
  390SOL     OW 1168   2.228   0.241   1.019  0.0736 -0.6756  0.1122
  390SOL    HW1 1169   2.288   0.234   1.103  0.1706 -0.0561 -0.0887
  390SOL    HW2 1170   2.141   0.193   1.034  2.2058  0.9408  1.6656
  391SOL     OW 1171   1.858   1.488   1.241  0.0301 -0.6754  0.0251
  391SOL    HW1 1172   1.954   1.496   1.273  0.9677 -0.0605  0.9825
  391SOL    HW2 1173   1.802   1.414   1.283 -2.4518  1.8536  0.6168
  392SOL     OW 1174   2.695   2.724   0.463  0.5296 -0.0272  0.3912
  392SOL    HW1 1175   2.639   2.783   0.399 -2.2016  1.4495 -1.5492
  392SOL    HW2 1176   2.769   2.780   0.508 -0.8694 -0.7628  1.4910
  393SOL     OW 1177   1.860   2.217   2.874 -0.1736  0.1645 -0.9560
  393SOL    HW1 1178   1.867   2.322   2.856  0.9881  2.8652  0.8312
  393SOL    HW2 1179   1.937   2.202   2.941  2.6875  1.2045  1.7092
  394SOL     OW 1180   0.108   2.583   2.593  0.1670 -0.0687  0.5033
  394SOL    HW1 1181   0.071   2.580   2.691  0.7667  3.7594  0.4059
  394SOL    HW2 1182   0.150   2.492   2.561  2.9650  0.0431 -0.9074
  395SOL     OW 1183   0.518   0.188   0.748  0.8043  0.4987  0.1207
  395SOL    HW1 1184   0.460   0.209   0.666  0.7041 -1.2493  1.2430
  395SOL    HW2 1185   0.572   0.259   0.788 -1.1087 -2.2136  0.1289
  396SOL     OW 1186   1.899   0.765   0.717 -0.5504 -0.0516  0.5381
  396SOL    HW1 1187   1.976   0.824   0.752 -2.9513 -0.0634  2.3604
  396SOL    HW2 1188   1.811   0.804   0.753 -0.7881 -0.6285 -1.2311
  397SOL     OW 1189   0.435   0.623   2.081 -0.3536 -0.1060 -0.0276
  397SOL    HW1 1190   0.508   0.569   2.039 -2.0548  2.7126  1.6969
  397SOL    HW2 1191   0.348   0.573   2.111  0.7655  0.3842  0.3600
  398SOL     OW 1192   0.833   3.058   0.627  0.0557  0.2294 -0.5491
  398SOL    HW1 1193   0.841   0.064   0.630  3.2044  0.4862 -0.4461
  398SOL    HW2 1194   0.910   3.022   0.679 -2.7379  1.4180  1.5857
  399SOL     OW 1195   2.277   0.116   1.688 -0.4707 -0.4642  0.4082
  399SOL    HW1 1196   2.301   0.215   1.679  2.9784 -0.2373  1.5119
  399SOL    HW2 1197   2.366   0.068   1.676  0.0720 -0.6000 -0.8953
  400SOL     OW 1198   0.999   1.919   2.453  0.0471  0.0509  0.3104
  400SOL    HW1 1199   0.922   1.970   2.491 -1.1783 -2.8612 -2.4515
  400SOL    HW2 1200   0.966   1.845   2.391 -0.8440 -0.2155 -1.9003
  401SOL     OW 1201   0.589   0.909   2.701 -0.5817  0.0580  0.2427
  401SOL    HW1 1202   0.626   0.917   2.608 -0.6764 -0.2637  2.0603
  401SOL    HW2 1203   0.525   0.982   2.726  1.1158  1.9905 -0.7202
  402SOL     OW 1204   0.265   2.247   0.670 -0.0728  0.6199 -0.0188
  402SOL    HW1 1205   0.340   2.245   0.598  2.1814 -0.3049 -0.2534
  402SOL    HW2 1206   0.252   2.340   0.710 -0.8992  2.7135 -2.0476
  403SOL     OW 1207   0.072   1.341   2.027 -0.0981 -0.9511  0.1339
  403SOL    HW1 1208   0.142   1.333   1.950  3.2636  0.6897  1.9392
  403SOL    HW2 1209   3.073   1.314   2.002 -1.6753  1.3778 -0.6696
  404SOL     OW 1210   2.663   2.385   2.387 -0.1200  0.0970 -0.2976
  404SOL    HW1 1211   2.699   2.357   2.479  0.9202 -3.2855 -0.1384
  404SOL    HW2 1212   2.739   2.404   2.327 -1.3380 -2.8355  3.2374
  405SOL     OW 1213   0.250   0.254   1.965 -0.1259  0.3074  0.0164
  405SOL    HW1 1214   0.343   0.212   1.977  0.9387  2.7183 -1.0096
  405SOL    HW2 1215   0.188   0.185   1.925  0.2462 -0.0490  2.2660
  406SOL     OW 1216   1.572   1.525   2.531 -0.3047 -1.0377 -0.2048
  406SOL    HW1 1217   1.523   1.595   2.594  0.8912  0.5407  2.0857
  406SOL    HW2 1218   1.623   1.566   2.450 -0.7580  0.9305 -2.9561
  407SOL     OW 1219   1.779   0.961   2.631 -0.0899  0.3084  0.4410
  407SOL    HW1 1220   1.792   1.051   2.679  2.2294  1.9051  0.4937
  407SOL    HW2 1221   1.852   0.945   2.561 -1.0587 -1.9813  1.0624
  408SOL     OW 1222   0.562   2.999   2.328  0.1227 -0.1978  0.4749
  408SOL    HW1 1223   0.631   2.926   2.327 -1.3943 -2.4155 -0.2525
  408SOL    HW2 1224   0.522   3.010   2.235 -1.5724  0.6770 -2.3743
  409SOL     OW 1225   0.074   1.956   1.284  0.2256  0.0951 -0.1208
  409SOL    HW1 1226   3.075   1.952   1.320  0.2901  0.0794  0.4400
  409SOL    HW2 1227   0.114   2.053   1.279 -0.6492  1.0846  0.5009
  410SOL     OW 1228   2.433   1.478   0.413 -0.2073 -0.0487  0.3552
  410SOL    HW1 1229   2.376   1.473   0.324 -1.1517  0.7406 -2.5509
  410SOL    HW2 1230   2.504   1.403   0.416  1.3556 -1.3812  0.9260
  411SOL     OW 1231   0.029   0.044   1.294  0.0735 -0.2966 -0.3507
  411SOL    HW1 1232   0.110   0.080   1.340  1.4937 -0.1212  2.9831
  411SOL    HW2 1233   3.051   0.050   1.357  0.4529 -0.7542 -3.1552
  412SOL     OW 1234   1.926   0.410   1.514 -0.2957  0.4078 -0.0142
  412SOL    HW1 1235   1.841   0.420   1.457  0.8719 -0.5683 -2.6876
  412SOL    HW2 1236   1.996   0.477   1.481  1.3745  0.6737  1.8066
  413SOL     OW 1237   0.579   0.364   2.032 -0.1943 -0.2401 -0.4030
  413SOL    HW1 1238   0.530   0.307   2.102 -0.0581  0.9636  0.6640
  413SOL    HW2 1239   0.677   0.331   2.024  1.3680 -0.2005  1.7726
  414SOL     OW 1240   2.900   1.542   2.654 -0.4341  0.1271 -0.4377
  414SOL    HW1 1241   2.926   1.479   2.734 -0.2898  0.5468  2.5146
  414SOL    HW2 1242   2.811   1.518   2.614  1.1725 -0.7507  0.3751
  415SOL     OW 1243   0.755   2.631   0.093  0.3369 -0.1599  0.1965
  415SOL    HW1 1244   0.848   2.603   0.064  3.4039 -1.2500  0.4842
  415SOL    HW2 1245   0.750   2.643   0.195 -1.3021 -2.2845  0.9010
  416SOL     OW 1246   1.640   0.252   2.740 -0.3678  0.2357 -0.1188
  416SOL    HW1 1247   1.683   0.159   2.722 -0.7504 -2.9856  0.7989
  416SOL    HW2 1248   1.716   0.322   2.746  0.9028 -2.0021 -0.2160
  417SOL     OW 1249   0.310   0.289   0.581  0.3203 -0.5142  0.0465
  417SOL    HW1 1250   0.372   0.370   0.584  1.1698 -3.6000  0.0589
  417SOL    HW2 1251   0.225   0.295   0.642 -1.8515 -0.9135  0.4835
  418SOL     OW 1252   2.689   0.224   0.801 -0.2399 -0.5247 -0.3489
  418SOL    HW1 1253   2.592   0.216   0.771  1.4764 -3.4924 -0.9571
  418SOL    HW2 1254   2.722   0.321   0.789 -0.1147  1.6501 -1.8156
  419SOL     OW 1255   3.017   2.747   0.570  0.1437  0.6252 -0.0078
  419SOL    HW1 1256   0.003   2.739   0.627  0.4976 -1.4927  0.7896
  419SOL    HW2 1257   2.957   2.824   0.604  0.1148  1.2772  0.4511
  420SOL     OW 1258   0.261   1.354   1.817  0.7937 -0.2579 -0.4266
  420SOL    HW1 1259   0.296   1.448   1.815  0.1711 -2.7539  0.1385
  420SOL    HW2 1260   0.329   1.285   1.832 -1.6453  0.6227  1.2396
  421SOL     OW 1261   1.581   2.597   1.019  0.9424 -0.0302  0.2882
  421SOL    HW1 1262   1.593   2.686   0.967 -0.3044  0.7917  0.4847
  421SOL    HW2 1263   1.603   2.509   0.972 -2.1094  1.0510  1.8968
  422SOL     OW 1264   0.710   0.327   1.675  0.7724  0.1557  0.1816
  422SOL    HW1 1265   0.806   0.308   1.689 -2.0813 -1.4985 -2.3051
  422SOL    HW2 1266   0.657   0.278   1.745  1.5721  1.6276  0.5597
  423SOL     OW 1267   0.945   1.345   1.718  0.5339 -0.8010 -0.6541
  423SOL    HW1 1268   1.036   1.396   1.731  1.0517  2.1116  0.2152
  423SOL    HW2 1269   0.972   1.252   1.709  0.2383  1.3956  0.7247
  424SOL     OW 1270   1.949   2.213   0.210 -0.5436  0.4487  0.0292
  424SOL    HW1 1271   1.948   2.315   0.206  0.3283 -0.0115 -1.6398
  424SOL    HW2 1272   1.866   2.181   0.261 -3.0530 -0.7182  0.7493
  425SOL     OW 1273   2.819   2.961   1.890  0.0173  0.1131 -0.3052
  425SOL    HW1 1274   2.911   2.995   1.915 -0.9497 -1.5930 -0.1334
  425SOL    HW2 1275   2.823   2.914   1.801  0.4094  1.2714  0.0352
  426SOL     OW 1276   0.021   2.586   2.893  0.0650 -0.2361 -0.0533
  426SOL    HW1 1277   0.100   2.589   2.956  1.9107  0.8723  2.5488
  426SOL    HW2 1278   3.036   2.557   2.946  1.9548 -0.3186  1.0457
  427SOL     OW 1279   1.114   0.559   3.082 -0.4371 -0.0619 -0.1968
  427SOL    HW1 1280   1.161   0.547   0.076 -2.3255  1.7186  1.5054
  427SOL    HW2 1281   1.128   0.478   3.023  1.1971 -2.5046  0.5077
  428SOL     OW 1282   2.808   0.739   1.278  0.2553  0.0384  0.3368
  428SOL    HW1 1283   2.878   0.676   1.238  1.9713 -1.3318 -0.2507
  428SOL    HW2 1284   2.780   0.709   1.371  0.9852  1.5702 -2.6940
  429SOL     OW 1285   1.929   2.925   1.166 -0.2377 -0.1101  0.0057
  429SOL    HW1 1286   1.892   2.842   1.210  0.5412  0.8914  0.4110
  429SOL    HW2 1287   1.929   2.911   1.064 -1.4178  0.9497  2.5486
  430SOL     OW 1288   1.234   1.513   2.450  0.7457  0.3217 -0.1263
  430SOL    HW1 1289   1.184   1.464   2.526 -0.1368 -3.3429  2.5967
  430SOL    HW2 1290   1.252   1.450   2.369 -0.7942  0.7486  1.1977
  431SOL     OW 1291   2.586   1.785   1.361  0.3486  0.0791  0.1135
  431SOL    HW1 1292   2.647   1.737   1.297  0.9182 -0.4714  2.9119
  431SOL    HW2 1293   2.643   1.853   1.415  1.0831  1.6757  1.6770
  432SOL     OW 1294   1.230   3.008   2.358 -0.2874  0.0489 -0.5211
  432SOL    HW1 1295   1.280   2.928   2.316  1.1321  0.7201  2.2699
  432SOL    HW2 1296   1.284   3.094   2.362 -0.3018 -0.9748 -0.0968
  433SOL     OW 1297   1.812   0.408   2.221 -0.2123 -0.0115 -0.1714
  433SOL    HW1 1298   1.810   0.351   2.307  0.5793  0.2486  1.2591
  433SOL    HW2 1299   1.846   0.502   2.241 -0.6834 -0.4461 -0.7092
  434SOL     OW 1300   0.376   2.318   2.285 -0.3493 -0.0629 -0.3313
  434SOL    HW1 1301   0.382   2.362   2.377  1.1608 -0.3302 -1.6212
  434SOL    HW2 1302   0.415   2.226   2.282 -0.1956  2.6172  0.8388
  435SOL     OW 1303   0.104   3.014   0.507 -0.1666 -0.1736 -0.5476
  435SOL    HW1 1304   0.152   2.929   0.473  2.6241 -0.8091  0.8993
  435SOL    HW2 1305   0.101   3.014   0.609 -1.6130 -1.3063  2.0268
  436SOL     OW 1306   0.539   0.841   2.186 -0.1869 -0.2936  0.4881
  436SOL    HW1 1307   0.487   0.768   2.137  1.1877  0.8854  3.1967
  436SOL    HW2 1308   0.611   0.880   2.121  4.3113  0.0334 -0.1961
  437SOL     OW 1309   0.709   2.457   2.774 -0.2662 -0.4993  0.6421
  437SOL    HW1 1310   0.656   2.539   2.754 -2.0478 -4.9553  2.9499
  437SOL    HW2 1311   0.670   2.376   2.724  0.3136 -0.5756 -0.7221
  438SOL     OW 1312   1.000   1.135   0.979 -0.2875  0.1919 -0.4194
  438SOL    HW1 1313   0.947   1.183   0.912  1.5781 -2.0729  1.9066
  438SOL    HW2 1314   1.098   1.161   0.971 -1.8086  0.0400 -0.6200
  439SOL     OW 1315   2.490   1.361   2.258 -0.0222  0.3732  0.1416
  439SOL    HW1 1316   2.567   1.300   2.238 -0.0126  1.4459  0.6993
  439SOL    HW2 1317   2.453   1.354   2.347 -0.4725 -0.4533 -3.2201
  440SOL     OW 1318   3.096   0.545   2.842 -0.5447 -0.8145  0.3129
  440SOL    HW1 1319   0.018   0.578   2.748  1.2467  2.9085 -2.0528
  440SOL    HW2 1320   3.080   0.443   2.854  1.5403 -2.1290  0.4080
  441SOL     OW 1321   0.878   2.127   1.276  0.2688 -0.1999 -0.1859
  441SOL    HW1 1322   0.810   2.134   1.205  0.5461  0.9689  0.2459
  441SOL    HW2 1323   0.872   2.202   1.345  1.2059 -0.8730  3.0431
  442SOL     OW 1324   1.635   1.471   0.807 -0.0866  0.0518  0.2619
  442SOL    HW1 1325   1.704   1.418   0.865  0.3079 -1.5302  2.5739
  442SOL    HW2 1326   1.592   1.413   0.738 -0.0700  0.1073 -0.4696
  443SOL     OW 1327   2.260   2.202   2.700  0.5470 -0.2357 -0.0791
  443SOL    HW1 1328   2.362   2.220   2.690  1.6872  2.6826 -0.8111
  443SOL    HW2 1329   2.217   2.293   2.724 -3.1116 -0.8910  0.8785
  444SOL     OW 1330   2.085   1.621   2.787 -0.2294  0.1549 -0.4259
  444SOL    HW1 1331   2.010   1.673   2.833  1.2206  0.8336 -1.3830
  444SOL    HW2 1332   2.165   1.674   2.762  0.5440  0.7933 -0.9818
  445SOL     OW 1333   2.831   2.564   1.970 -0.0740 -0.6900 -0.9120
  445SOL    HW1 1334   2.846   2.599   2.066 -3.4459 -0.5974 -0.9806
  445SOL    HW2 1335   2.730   2.550   1.950 -3.3981  2.1331 -1.1148
  446SOL     OW 1336   1.140   0.828   1.768 -0.1958  0.1855 -0.0721
  446SOL    HW1 1337   1.195   0.855   1.846 -1.4767 -2.9313 -0.4070
  446SOL    HW2 1338   1.067   0.762   1.795  1.3625 -0.0748  0.6227
  447SOL     OW 1339   0.966   0.879   0.942 -0.3295 -0.1453  0.5013
  447SOL    HW1 1340   1.055   0.844   0.903 -1.8170 -1.1509 -3.0589
  447SOL    HW2 1341   0.983   0.979   0.962  0.2030 -1.4943  1.2758
  448SOL     OW 1342   0.998   1.202   2.566 -0.3673  0.0506  0.2541
  448SOL    HW1 1343   0.910   1.186   2.513 -0.4624 -0.8717  0.3630
  448SOL    HW2 1344   1.017   1.299   2.585 -0.7007  2.6325  1.5078
  449SOL     OW 1345   3.066   1.963   2.442  0.2310 -0.0528  0.0286
  449SOL    HW1 1346   0.060   1.931   2.481  1.1407 -2.0199  1.5925
  449SOL    HW2 1347   3.053   1.975   2.343 -2.0451  1.0069  2.8419
  450SOL     OW 1348   2.238   1.745   1.911  0.0583 -0.4371  0.3316
  450SOL    HW1 1349   2.324   1.711   1.876 -5.2558 -0.4470  0.6982
  450SOL    HW2 1350   2.248   1.838   1.953  2.2761  0.6437 -1.1092
  451SOL     OW 1351   2.800   1.455   1.416 -0.0337 -0.1053 -0.2921
  451SOL    HW1 1352   2.822   1.517   1.343  2.2214 -2.5957  1.8734
  451SOL    HW2 1353   2.773   1.361   1.387  1.5404  2.6103  0.8516
  452SOL     OW 1354   0.651   1.037   1.505 -0.0212  0.0071  0.0835
  452SOL    HW1 1355   0.610   0.946   1.515  2.4548  2.8075 -1.3288
  452SOL    HW2 1356   0.708   1.046   1.419  1.1449  0.2130  0.6557
  453SOL     OW 1357   0.390   1.341   0.590 -0.0717  0.2213  0.1604
  453SOL    HW1 1358   0.326   1.328   0.513  1.8261 -0.9770  0.6544
  453SOL    HW2 1359   0.349   1.321   0.679  1.3894  1.6628 -1.1693
  454SOL     OW 1360   0.929   1.634   0.249  0.0584  0.0656 -0.3982
  454SOL    HW1 1361   0.926   1.720   0.196 -1.0611  2.7415  0.9751
  454SOL    HW2 1362   0.866   1.632   0.328  1.3320  1.2284 -0.4176
  455SOL     OW 1363   1.675   0.605   1.308  0.1516  0.6858 -0.0877
  455SOL    HW1 1364   1.668   0.698   1.350  1.5675  2.9610  0.1970
  455SOL    HW2 1365   1.765   0.583   1.265  1.7551 -0.4303 -0.6478
  456SOL     OW 1366   1.616   2.844   0.883 -0.3608  0.0103  0.0323
  456SOL    HW1 1367   1.688   2.814   0.811 -0.5781 -1.1862 -2.5226
  456SOL    HW2 1368   1.648   2.926   0.933 -3.0116 -2.0435  0.7747
  457SOL     OW 1369   2.062   0.521   2.572 -0.2782  0.6862  0.2320
  457SOL    HW1 1370   2.148   0.551   2.623  1.2425 -0.0176  1.2441
  457SOL    HW2 1371   2.089   0.492   2.472 -0.9693  2.0526 -5.2215
  458SOL     OW 1372   2.538   0.718   2.590 -0.2905 -0.1707  0.2695
  458SOL    HW1 1373   2.596   0.803   2.573  0.7483  1.2908 -1.6336
  458SOL    HW2 1374   2.601   0.643   2.624 -1.4327  0.5836  1.5817
  459SOL     OW 1375   2.578   1.700   2.128  0.4792 -0.5399 -0.1341
  459SOL    HW1 1376   2.653   1.751   2.176  1.2001 -4.2756  0.9384
  459SOL    HW2 1377   2.494   1.699   2.184  0.6858 -1.1613  0.0280
  460SOL     OW 1378   0.491   0.746   3.031  0.0235 -0.4693  0.3779
  460SOL    HW1 1379   0.573   0.710   3.086 -0.3589  2.9897 -0.5955
  460SOL    HW2 1380   0.502   0.721   2.934 -1.0397  0.3700  0.2550
  461SOL     OW 1381   3.020   2.290   0.340 -0.2021 -0.0788 -0.3561
  461SOL    HW1 1382   3.051   2.350   0.417 -2.2468  2.0509 -0.3061
  461SOL    HW2 1383   3.056   2.199   0.350 -0.6120 -0.4939 -1.3947
  462SOL     OW 1384   0.291   2.577   1.631 -0.8626 -0.1042 -0.0857
  462SOL    HW1 1385   0.191   2.574   1.620  1.3327  3.2965  0.2833
  462SOL    HW2 1386   0.318   2.497   1.692 -0.2489 -0.7984  1.1044
  463SOL     OW 1387   1.704   1.971   1.973  0.2564  0.0940  0.4839
  463SOL    HW1 1388   1.726   2.014   1.884  1.3424  2.5522 -0.8723
  463SOL    HW2 1389   1.708   2.034   2.050 -1.1095 -0.6297 -3.9046
  464SOL     OW 1390   2.736   2.722   0.881 -0.1338 -0.4738 -0.0912
  464SOL    HW1 1391   2.698   2.822   0.881  0.7779  1.5790 -1.5674
  464SOL    HW2 1392   2.837   2.729   0.871  0.8150  1.5528  0.6426
  465SOL     OW 1393   0.267   0.095   1.433  0.3894 -0.2357 -0.4685
  465SOL    HW1 1394   0.243   0.018   1.497  0.1837 -2.5277  1.1908
  465SOL    HW2 1395   0.293   0.183   1.475 -0.7822  1.9238 -0.4707
  466SOL     OW 1396   1.294   2.375   2.529  0.0832  0.0863  0.3259
  466SOL    HW1 1397   1.246   2.339   2.450 -1.6161  1.1835  3.2121
  466SOL    HW2 1398   1.257   2.465   2.557  0.5365  1.6613  2.1508
  467SOL     OW 1399   2.914   1.784   0.717 -0.5127 -0.2673 -0.5579
  467SOL    HW1 1400   2.896   1.877   0.756  0.9114  0.5683  1.2193
  467SOL    HW2 1401   2.834   1.756   0.666 -0.4779  1.5874  3.8251
  468SOL     OW 1402   2.226   1.959   2.895 -0.4144 -0.2009 -0.3820
  468SOL    HW1 1403   2.127   1.942   2.911 -0.2929 -0.7231  0.9418
  468SOL    HW2 1404   2.242   2.049   2.863  1.4174 -1.3353  0.4970
  469SOL     OW 1405   1.301   2.155   0.686  0.4862 -0.3290 -0.6990
  469SOL    HW1 1406   1.367   2.197   0.623 -0.1597 -1.4375 -0.4260
  469SOL    HW2 1407   1.342   2.070   0.721  0.9910  2.1574 -1.0618
  470SOL     OW 1408   1.768   1.293   1.387  0.0165  0.1527  0.3762
  470SOL    HW1 1409   1.779   1.203   1.345 -0.7369  0.3647  0.9170
  470SOL    HW2 1410   1.748   1.290   1.487  0.3138  1.5452  0.3578
  471SOL     OW 1411   0.431   2.459   0.279  1.0095 -0.2017  0.2065
  471SOL    HW1 1412   0.352   2.456   0.216  0.3743  1.4241  0.1947
  471SOL    HW2 1413   0.524   2.460   0.236  1.8997  0.9201 -0.0662
  472SOL     OW 1414   2.311   1.876   2.497  0.7905  0.0849 -0.7639
  472SOL    HW1 1415   2.390   1.942   2.514 -2.3769 -0.7322  0.2135
  472SOL    HW2 1416   2.315   1.802   2.572  1.6674  0.0482  4.2269
  473SOL     OW 1417   1.092   2.094   0.890  0.2309  0.4219 -0.3916
  473SOL    HW1 1418   1.175   2.068   0.835 -1.1265 -0.0757  0.5672
  473SOL    HW2 1419   1.058   2.190   0.867 -1.3285  4.2198  1.0260
  474SOL     OW 1420   3.067   0.345   1.288  0.6372 -0.6130  0.2390
  474SOL    HW1 1421   3.078   0.365   1.385  0.9681  2.6909 -1.2796
  474SOL    HW2 1422   2.964   0.362   1.259 -1.1737  2.7578  0.9476
  475SOL     OW 1423   2.211   2.826   1.619  0.3235  0.3817  0.2702
  475SOL    HW1 1424   2.274   2.855   1.692  2.5595  0.0090  1.1023
  475SOL    HW2 1425   2.173   2.730   1.630  4.3042 -1.9876 -0.3485
  476SOL     OW 1426   0.472   0.521   0.638 -0.3167 -0.4076  0.5762
  476SOL    HW1 1427   0.541   0.557   0.572 -0.2528  2.0808 -0.8894
  476SOL    HW2 1428   0.491   0.564   0.731  1.3691  1.1942  1.4995
  477SOL     OW 1429   0.902   1.929   1.029 -0.2953  0.3479 -0.3040
  477SOL    HW1 1430   0.970   1.903   1.097 -2.8106  1.6763 -0.6836
  477SOL    HW2 1431   0.953   1.995   0.965 -0.6911 -1.1948 -2.1718
  478SOL     OW 1432   1.257   2.231   2.831 -0.4155  0.7569 -0.1997
  478SOL    HW1 1433   1.250   2.179   2.748 -0.2186 -1.1726  1.0527
  478SOL    HW2 1434   1.312   2.320   2.833  0.2060  1.1106  2.6344
  479SOL     OW 1435   2.889   1.164   1.945  0.1428 -0.2744  0.4636
  479SOL    HW1 1436   2.808   1.225   1.942 -3.0975 -0.9720 -0.9696
  479SOL    HW2 1437   2.953   1.175   1.866  1.5736  1.1373 -0.8445
  480SOL     OW 1438   2.909   2.452   3.014  0.3118 -0.7012 -0.1515
  480SOL    HW1 1439   2.914   2.457   0.016  0.5644  0.7464  0.9298
  480SOL    HW2 1440   2.922   2.358   2.971 -0.3809  0.0628  0.3684
  481SOL     OW 1441   1.545   0.077   2.139  0.2580  0.1567 -0.0244
  481SOL    HW1 1442   1.605   0.059   2.217  0.5633  2.2664 -0.6547
  481SOL    HW2 1443   1.564   0.166   2.100  0.8939 -0.0766  2.8570
  482SOL     OW 1444   1.594   2.161   2.962  0.1624  0.0656  0.5119
  482SOL    HW1 1445   1.692   2.188   2.961 -1.0755 -1.7145 -1.0041
  482SOL    HW2 1446   1.568   2.123   2.872 -1.6664  0.2011 -0.4986
  483SOL     OW 1447   0.960   2.431   2.864 -0.2146 -0.2352  0.1973
  483SOL    HW1 1448   0.862   2.454   2.844  2.2324 -2.2220  0.5511
  483SOL    HW2 1449   1.000   2.392   2.776 -2.6909 -2.0107 -2.9104
  484SOL     OW 1450   0.286   2.752   1.402  0.6416  0.5134  0.3907
  484SOL    HW1 1451   0.292   2.707   1.492 -0.7887 -1.4895 -0.8838
  484SOL    HW2 1452   0.382   2.780   1.370  1.2630  2.1796  0.4649
  485SOL     OW 1453   2.258   0.708   0.516 -0.5537 -0.1177 -0.4041
  485SOL    HW1 1454   2.172   0.749   0.478 -2.1222 -0.1307  0.5100
  485SOL    HW2 1455   2.330   0.776   0.538 -0.2516  0.9853  2.7755
  486SOL     OW 1456   2.385   2.812   2.364  0.2128 -0.4224 -0.1422
  486SOL    HW1 1457   2.378   2.907   2.328  0.6008 -0.2334  2.7352
  486SOL    HW2 1458   2.361   2.822   2.461  2.7119  0.5622 -1.7747
  487SOL     OW 1459   1.218   0.852   0.570 -0.3895  0.2007 -0.6389
  487SOL    HW1 1460   1.154   0.927   0.565  1.6594 -0.2699 -1.0768
  487SOL    HW2 1461   1.248   0.827   0.471 -0.3796  1.9762 -0.1097
  488SOL     OW 1462   2.595   3.054   2.800  0.0731 -0.1132  0.1552
  488SOL    HW1 1463   2.563   2.961   2.825  0.6146  1.8652  0.5473
  488SOL    HW2 1464   2.645   0.003   2.876 -0.1334  1.1400  0.6185
  489SOL     OW 1465   1.934   0.107   0.320  0.5486  0.3161  0.1501
  489SOL    HW1 1466   2.032   0.105   0.329  0.3646 -1.0595 -1.1479
  489SOL    HW2 1467   1.893   0.194   0.356  2.1466 -0.3178  0.0919
  490SOL     OW 1468   1.572   0.409   2.958  0.5519 -0.1477  0.1320
  490SOL    HW1 1469   1.638   0.418   3.036  2.1929  0.6256  0.8893
  490SOL    HW2 1470   1.611   0.375   2.873 -1.4333  1.9263  0.1531
  491SOL     OW 1471   0.670   0.121   1.270  0.6144 -0.3235  0.0451
  491SOL    HW1 1472   0.701   0.108   1.367 -0.3864 -0.0925  4.4635
  491SOL    HW2 1473   0.746   0.113   1.204  2.4616 -0.5561 -0.4228
  492SOL     OW 1474   1.587   0.016   0.509  0.1202 -0.5323  0.0741
  492SOL    HW1 1475   1.642   0.044   0.588 -0.5751  0.8699 -2.1699
  492SOL    HW2 1476   1.602   3.017   0.485  0.0758  3.4833  1.2068
  493SOL     OW 1477   1.130   2.096   3.024 -0.2148  0.1286  0.1726
  493SOL    HW1 1478   1.049   2.048   2.991 -2.4103  1.7615 -1.9989
  493SOL    HW2 1479   1.172   2.146   2.949 -0.6465 -0.4502 -0.8547
  494SOL     OW 1480   0.701   0.955   1.049  0.6394 -0.5865  0.5430
  494SOL    HW1 1481   0.646   1.010   0.979 -1.8400  3.8065  0.2373
  494SOL    HW2 1482   0.775   0.903   1.007  0.8983  0.6590 -0.2773
  495SOL     OW 1483   2.988   0.504   1.531  0.0014  0.1501 -0.4239
  495SOL    HW1 1484   3.054   0.536   1.605  3.2248  0.0095 -0.4653
  495SOL    HW2 1485   2.897   0.548   1.527 -1.9859 -0.3291 -1.7773
  496SOL     OW 1486   2.299   2.656   2.106 -0.1353 -0.1493 -0.6707
  496SOL    HW1 1487   2.329   2.697   2.195  0.3143  1.8968 -2.6720
  496SOL    HW2 1488   2.236   2.577   2.122 -2.1139 -3.3272  2.2384
  497SOL     OW 1489   1.860   1.155   2.808  0.0745 -0.3314 -0.4742
  497SOL    HW1 1490   1.943   1.217   2.824  0.0670  1.4225  2.1773
  497SOL    HW2 1491   1.775   1.207   2.826  2.8147 -3.3841  1.6923
  498SOL     OW 1492   0.896   2.026   0.595 -0.4922  0.1279  0.0387
  498SOL    HW1 1493   0.938   1.935   0.612  1.5461  1.1262  0.8193
  498SOL    HW2 1494   0.839   2.048   0.679  1.4104 -0.7041  0.1205
  499SOL     OW 1495   0.201   1.718   0.890  0.5536 -0.3181 -0.1576
  499SOL    HW1 1496   0.144   1.762   0.819  0.9533  2.5011  0.2972
  499SOL    HW2 1497   0.284   1.671   0.849 -1.0766 -1.2356 -0.3477
  500SOL     OW 1498   1.246   2.629   0.385  0.1671  0.2901 -0.3806
  500SOL    HW1 1499   1.200   2.711   0.349 -0.3789  0.8232  2.7273
  500SOL    HW2 1500   1.281   2.650   0.480 -1.3563  2.1071  0.5238
  501SOL     OW 1501   1.805   2.774   0.669  0.4252  0.4107  0.4370
  501SOL    HW1 1502   1.738   2.815   0.604 -0.6962 -0.6993 -0.2995
  501SOL    HW2 1503   1.817   2.676   0.659 -0.7712  0.4582  3.4359
  502SOL     OW 1504   0.409   0.457   1.397  0.3199  0.0632 -0.0244
  502SOL    HW1 1505   0.343   0.400   1.341 -2.3632 -1.2552  0.9440
  502SOL    HW2 1506   0.446   0.537   1.345 -0.9798 -0.6107 -1.6438
  503SOL     OW 1507   1.973   2.959   1.593  0.2752 -0.1367 -0.0273
  503SOL    HW1 1508   1.978   3.052   1.550  0.7490  0.4294  0.1048
  503SOL    HW2 1509   2.065   2.916   1.576  1.2957 -0.6588  0.4894
  504SOL     OW 1510   2.143   0.909   1.955  0.7388  0.1758  0.3446
  504SOL    HW1 1511   2.117   0.856   1.870  1.9609 -0.2835 -3.3961
  504SOL    HW2 1512   2.063   0.965   1.986 -2.9690  1.6177  0.4759
  505SOL     OW 1513   1.406   0.114   2.451 -0.6436  0.0537  0.2059
  505SOL    HW1 1514   1.439   0.199   2.500 -0.8791  2.0840  0.7144
  505SOL    HW2 1515   1.467   0.034   2.467 -3.2061 -0.0172 -2.1715
  506SOL     OW 1516   0.740   0.606   1.945  0.0498  0.1495 -0.2001
  506SOL    HW1 1517   0.696   0.520   1.977 -3.1271 -0.3983 -0.8868
  506SOL    HW2 1518   0.705   0.689   1.987 -0.2211  0.4533  0.0368
  507SOL     OW 1519   1.801   0.390   0.038 -0.2274 -0.5846 -0.3381
  507SOL    HW1 1520   1.773   0.343   0.125  0.5353  3.1424  0.0104
  507SOL    HW2 1521   1.897   0.369   0.012  0.2735 -1.2701 -0.7553
  508SOL     OW 1522   2.202   0.455   1.970 -0.1483 -0.0356  0.0908
  508SOL    HW1 1523   2.218   0.542   2.022  0.0238 -0.6082 -2.1582
  508SOL    HW2 1524   2.128   0.460   1.905  1.2586 -1.0771  0.5563
  509SOL     OW 1525   0.753   1.684   2.464  0.3793  0.0771  0.4106
  509SOL    HW1 1526   0.657   1.673   2.488  0.8952  0.5764 -0.2249
  509SOL    HW2 1527   0.762   1.720   2.372 -0.1374 -3.0100  2.3664
  510SOL     OW 1528   2.944   0.588   0.512  0.5527  0.7546  0.2382
  510SOL    HW1 1529   2.933   0.669   0.460 -0.4306 -3.5183  0.1040
  510SOL    HW2 1530   3.007   0.600   0.592 -0.9813 -2.3619  1.0999
  511SOL     OW 1531   1.734   1.255   1.655 -0.0328  0.3793  0.2210
  511SOL    HW1 1532   1.707   1.308   1.736 -0.2868  1.2257 -0.6021
  511SOL    HW2 1533   1.836   1.267   1.643  1.2432  2.2754  0.3195
  512SOL     OW 1534   0.430   1.757   0.474  0.2375 -0.0630  0.2049
  512SOL    HW1 1535   0.474   1.706   0.394  0.1346 -1.6362 -0.4510
  512SOL    HW2 1536   0.489   1.838   0.499 -0.9858 -1.0995 -0.0370
  513SOL     OW 1537   0.453   2.493   0.965  0.4240  0.0579  0.2351
  513SOL    HW1 1538   0.443   2.596   0.982 -0.4411  1.1253 -0.7553
  513SOL    HW2 1539   0.505   2.459   1.046  4.6250  0.0389 -2.3290
  514SOL     OW 1540   0.450   2.231   0.446 -0.0235 -0.2130  0.2099
  514SOL    HW1 1541   0.433   2.302   0.378  0.5505  0.4249 -1.4076
  514SOL    HW2 1542   0.539   2.245   0.490 -1.2355  1.2100 -3.4613
  515SOL     OW 1543   0.114   2.899   0.165  0.9008  0.1045  0.3048
  515SOL    HW1 1544   0.174   2.893   0.245 -1.3891 -1.7000 -0.6331
  515SOL    HW2 1545   0.093   2.996   0.154  5.1812  1.4414  2.1759
  516SOL     OW 1546   2.034   0.102   1.164  0.4954  0.3606 -0.0468
  516SOL    HW1 1547   1.968   0.168   1.201  1.9926 -0.5217  0.2262
  516SOL    HW2 1548   1.998   0.002   1.173  0.2214 -3.3243 -1.2980
  517SOL     OW 1549   1.583   1.557   0.390  0.2437  0.1878 -0.4469
  517SOL    HW1 1550   1.515   1.616   0.446 -0.3051  1.2247  1.5048
  517SOL    HW2 1551   1.563   1.462   0.420 -4.6296 -4.6017 -0.0738
  518SOL     OW 1552   1.306   0.009   0.921 -0.2880 -0.0620  1.0492
  518SOL    HW1 1553   1.257   0.077   0.862  1.7711  1.9384 -1.5114
  518SOL    HW2 1554   1.343   3.030   0.867  2.2266  2.5786 -1.6602
  519SOL     OW 1555   2.705   2.318   0.452  0.5095  0.1831 -0.2235
  519SOL    HW1 1556   2.801   2.287   0.447 -0.7892 -0.7327  0.5457
  519SOL    HW2 1557   2.693   2.389   0.526  2.5405 -3.0840  2.0505
  520SOL     OW 1558   1.799   2.184   2.137  0.2873 -0.5649 -0.1638
  520SOL    HW1 1559   1.896   2.156   2.136 -2.4029  0.7836 -0.7734
  520SOL    HW2 1560   1.773   2.240   2.218 -0.4196  1.0618  1.2773
  521SOL     OW 1561   1.363   3.017   2.037 -0.0179  0.0292  0.1154
  521SOL    HW1 1562   1.350   2.939   2.101 -3.1130 -1.5594  1.8975
  521SOL    HW2 1563   1.418   3.093   2.080 -0.7258  1.9886  0.2710
  522SOL     OW 1564   3.084   2.809   2.026 -0.0455  0.8021 -0.1677
  522SOL    HW1 1565   3.071   2.789   1.925  1.5001  1.4935 -2.4741
  522SOL    HW2 1566   3.005   2.774   2.077  4.0382  1.2099 -2.2414
  523SOL     OW 1567   0.835   2.100   1.844 -1.0971  0.1390  0.4377
  523SOL    HW1 1568   0.863   2.173   1.907 -0.7996  0.5958 -1.3913
  523SOL    HW2 1569   0.904   2.091   1.769 -2.6485  1.5903  0.1140
  524SOL     OW 1570   2.330   2.152   0.195  0.1390  0.1829 -0.6192
  524SOL    HW1 1571   2.419   2.125   0.231 -2.0645  0.7061 -1.0546
  524SOL    HW2 1572   2.263   2.077   0.214 -0.4082 -1.7031 -0.2686
  525SOL     OW 1573   2.827   0.511   2.969  0.2105  0.1804  0.0753
  525SOL    HW1 1574   2.784   0.556   3.051  1.5790  1.8749  0.3351
  525SOL    HW2 1575   2.923   0.540   2.961  0.2662 -0.1232  2.7961
  526SOL     OW 1576   0.449   2.837   0.771  0.2346  0.2389  0.3391
  526SOL    HW1 1577   0.395   2.923   0.760  0.4705 -1.3402 -0.2466
  526SOL    HW2 1578   0.476   2.816   0.865 -0.2583  1.5038 -2.6073
  527SOL     OW 1579   2.819   1.292   0.463  0.1114  0.2570  0.0092
  527SOL    HW1 1580   2.876   1.206   0.450 -1.0768  0.5667 -1.0798
  527SOL    HW2 1581   2.720   1.266   0.461 -0.0899 -2.8083 -0.3278
  528SOL     OW 1582   0.875   0.742   2.404  0.0602  0.1750  0.2590
  528SOL    HW1 1583   0.822   0.666   2.443  2.4258  2.5520  4.9385
  528SOL    HW2 1584   0.818   0.828   2.401 -0.6895  4.0571  1.2247
  529SOL     OW 1585   0.557   1.549   3.059 -0.6071  0.0781  0.9501
  529SOL    HW1 1586   0.564   1.589   0.057 -0.0236 -0.9128  1.4586
  529SOL    HW2 1587   0.457   1.561   3.029 -1.6655  2.2429 -0.1343
  530SOL     OW 1588   1.236   0.985   2.212  0.2296  0.0985 -0.3025
  530SOL    HW1 1589   1.339   1.005   2.221 -1.3994 -1.9439 -0.2362
  530SOL    HW2 1590   1.215   0.891   2.238 -0.1117  0.0805 -0.2454
  531SOL     OW 1591   1.166   2.303   0.112 -0.5688 -0.7228  0.5670
  531SOL    HW1 1592   1.133   2.225   0.052  0.5642 -0.9434 -4.1889
  531SOL    HW2 1593   1.197   2.268   0.200  1.6461 -0.9482 -1.9581
  532SOL     OW 1594   2.371   1.136   2.479 -0.0688 -0.6842 -0.0348
  532SOL    HW1 1595   2.338   1.077   2.556  1.5819  0.4697 -2.4824
  532SOL    HW2 1596   2.414   1.220   2.508 -1.0474  0.0687 -0.1209
  533SOL     OW 1597   3.090   0.113   1.774  0.0809 -0.3333 -0.1326
  533SOL    HW1 1598   3.077   0.042   1.849 -1.6838 -0.6185  1.8059
  533SOL    HW2 1599   3.052   0.205   1.800 -1.0095  3.4267 -1.2827
  534SOL     OW 1600   2.247   0.105   0.355 -0.1912  0.7887 -0.0387
  534SOL    HW1 1601   2.247   0.096   0.256  1.6008 -1.3185  1.1914
  534SOL    HW2 1602   2.334   0.158   0.384  1.2158  0.5467 -1.7265
  535SOL     OW 1603   0.574   3.060   0.020  0.3034 -0.2226 -0.0826
  535SOL    HW1 1604   0.667   3.078   3.076  1.7599 -0.9520 -0.8950
  535SOL    HW2 1605   0.505   0.039   0.015  0.5793  0.3051  1.0030
  536SOL     OW 1606   0.737   1.968   1.426 -0.2252 -0.3872  0.5992
  536SOL    HW1 1607   0.698   2.015   1.507  1.4628 -1.6789  0.6884
  536SOL    HW2 1608   0.805   2.026   1.374  0.1033  2.4810  0.0388
  537SOL     OW 1609   0.024   2.572   1.631 -0.0702  0.1921 -0.0249
  537SOL    HW1 1610   0.007   2.584   1.529  2.0639  0.0213 -1.5058
  537SOL    HW2 1611   3.064   2.497   1.668  0.5066 -0.4526 -4.9729
  538SOL     OW 1612   2.911   2.066   0.522 -0.1987  0.2416 -0.2394
  538SOL    HW1 1613   3.006   2.099   0.535  0.7357  1.0821  1.9639
  538SOL    HW2 1614   2.903   1.973   0.481  0.4508 -2.1702 -0.6224
  539SOL     OW 1615   2.598   1.044   2.381  0.9883  0.1408 -0.2094
  539SOL    HW1 1616   2.497   1.064   2.398 -1.5074  0.4514 -1.5608
  539SOL    HW2 1617   2.625   1.077   2.291 -2.0490  0.8315 -0.7241
  540SOL     OW 1618   1.906   0.967   2.990 -0.4361 -0.5464 -0.3084
  540SOL    HW1 1619   1.892   0.997   2.893 -1.4242 -1.8695  1.0906
  540SOL    HW2 1620   1.927   1.047   3.055 -0.2107  3.1482 -1.2521
  541SOL     OW 1621   0.715   0.529   2.504  0.2963 -0.3691  0.0048
  541SOL    HW1 1622   0.768   0.445   2.500 -0.5914  1.3083 -0.2500
  541SOL    HW2 1623   0.626   0.531   2.450  0.6851  0.7223 -0.7599
  542SOL     OW 1624   1.488   2.494   2.163 -0.0649 -0.2905 -0.6988
  542SOL    HW1 1625   1.421   2.551   2.218 -1.8854  0.7088  0.5485
  542SOL    HW2 1626   1.555   2.556   2.122 -3.0360 -1.2916  2.0853
  543SOL     OW 1627   0.947   2.664   0.571 -0.6516 -0.1577 -0.0906
  543SOL    HW1 1628   0.975   2.566   0.569 -1.8215 -0.8832 -0.3480
  543SOL    HW2 1629   0.852   2.683   0.600  1.5646  4.8079 -1.8828
  544SOL     OW 1630   2.792   1.770   2.285 -0.8283  0.5801 -0.5422
  544SOL    HW1 1631   2.752   1.695   2.340 -2.2438 -1.4007 -0.0251
  544SOL    HW2 1632   2.896   1.762   2.286 -0.5627 -2.0895 -0.3355
  545SOL     OW 1633   1.386   1.992   1.572 -0.0836  0.8331  0.9710
  545SOL    HW1 1634   1.341   1.961   1.658 -1.6235 -0.4894 -0.4280
  545SOL    HW2 1635   1.319   2.000   1.496 -1.3942  0.6328  2.7745
  546SOL     OW 1636   0.115   0.315   2.543  0.1955 -0.1280 -0.1752
  546SOL    HW1 1637   0.208   0.314   2.504  1.0018 -1.4095 -1.7804
  546SOL    HW2 1638   0.079   0.225   2.557  1.8481  0.5894  2.1757
  547SOL     OW 1639   0.893   0.230   0.563 -0.3859 -0.1564  0.1712
  547SOL    HW1 1640   0.854   0.321   0.531  0.2478  1.5857 -0.7700
  547SOL    HW2 1641   0.989   0.219   0.530  0.6346 -0.6737 -0.2683
  548SOL     OW 1642   1.502   1.911   0.045 -0.2755 -0.3253 -0.4388
  548SOL    HW1 1643   1.420   1.871   0.003  1.2008 -1.4767  0.6380
  548SOL    HW2 1644   1.545   1.983   3.085 -1.8313  0.2215 -2.5457
  549SOL     OW 1645   2.313   0.954   0.184  0.1280  0.2280 -0.3563
  549SOL    HW1 1646   2.273   0.999   0.105  2.5144 -1.0029 -0.8781
  549SOL    HW2 1647   2.326   1.008   0.265  0.0494 -3.5030 -1.7589
  550SOL     OW 1648   2.707   2.325   0.826  0.0189 -0.1592 -0.4136
  550SOL    HW1 1649   2.676   2.402   0.771  1.5657 -0.7498  2.0162
  550SOL    HW2 1650   2.809   2.307   0.817 -1.1698 -1.3429 -1.5317
  551SOL     OW 1651   0.996   0.388   1.418  0.2482  0.0751  0.5228
  551SOL    HW1 1652   0.982   0.288   1.404 -0.6503 -0.4305  0.0133
  551SOL    HW2 1653   0.919   0.448   1.392  0.0307  0.7559  2.3910
  552SOL     OW 1654   2.886   1.794   2.792  0.4582 -0.1093  0.0028
  552SOL    HW1 1655   2.894   1.716   2.733 -0.5034  0.8327  0.7585
  552SOL    HW2 1656   2.931   1.781   2.882 -1.1395 -1.0737  0.2544
  553SOL     OW 1657   2.648   2.564   0.687  0.7490 -0.5371  0.6407
  553SOL    HW1 1658   2.663   2.605   0.592  0.7809 -1.3525 -1.8013
  553SOL    HW2 1659   2.689   2.619   0.759  0.9640 -1.5364  0.2288
  554SOL     OW 1660   2.039   1.124   1.414  0.1221  0.1401 -0.1213
  554SOL    HW1 1661   2.104   1.153   1.340 -1.7131  1.7037 -0.4106
  554SOL    HW2 1662   2.008   1.206   1.472 -2.0059  0.0660  1.0394
  555SOL     OW 1663   1.335   2.073   2.076  0.2018  0.3978 -0.1447
  555SOL    HW1 1664   1.372   1.991   2.025  0.1921  1.6549 -1.4544
  555SOL    HW2 1665   1.376   2.070   2.166 -0.8021 -0.3625 -3.4750
  556SOL     OW 1666   1.180   1.458   1.761  0.1783 -0.2763  0.3743
  556SOL    HW1 1667   1.237   1.516   1.817  0.1395 -1.5649 -1.0779
  556SOL    HW2 1668   1.217   1.359   1.765  0.3693 -2.3984 -0.9543
  557SOL     OW 1669   1.354   3.025   1.520  0.3759 -0.0955 -0.0190
  557SOL    HW1 1670   1.393   2.930   1.502 -0.5280  0.0196 -1.7370
  557SOL    HW2 1671   1.389   3.060   1.610  1.4640  1.6981  1.2918
  558SOL     OW 1672   0.973   2.777   2.083 -0.5975 -0.1423 -0.0086
  558SOL    HW1 1673   0.875   2.750   2.074  0.5317 -2.1304  1.4632
  558SOL    HW2 1674   1.017   2.798   1.991  0.7846 -1.9644 -3.7553
  559SOL     OW 1675   1.709   2.634   0.332 -0.1205  0.3258  0.0647
  559SOL    HW1 1676   1.618   2.607   0.290 -1.3512  0.5411 -0.4019
  559SOL    HW2 1677   1.736   2.583   0.418  0.8603  4.0381  0.7699
  560SOL     OW 1678   1.687   2.130   0.299  0.2164 -0.4082 -0.3348
  560SOL    HW1 1679   1.659   2.036   0.284  0.2663  1.5473 -2.2821
  560SOL    HW2 1680   1.642   2.180   0.225  0.2056  0.6975  0.3252
  561SOL     OW 1681   1.473   0.256   0.584  0.0167  0.1576 -0.2073
  561SOL    HW1 1682   1.513   0.162   0.572 -1.1927 -1.7566 -2.4197
  561SOL    HW2 1683   1.379   0.252   0.561  4.9658 -1.8064 -0.3985
  562SOL     OW 1684   0.437   1.163   1.880  0.5429 -0.0990  0.3687
  562SOL    HW1 1685   0.529   1.152   1.846  1.8747 -0.3442 -0.3969
  562SOL    HW2 1686   0.441   1.155   1.980  2.5752 -2.6344 -1.0204
  563SOL     OW 1687   1.518   2.310   2.666  0.2741  0.6290  0.0696
  563SOL    HW1 1688   1.438   2.314   2.604 -0.3980  0.1365  1.3401
  563SOL    HW2 1689   1.555   2.218   2.663 -1.0978 -0.2751  0.2857
  564SOL     OW 1690   2.943   0.925   0.723 -0.3789 -0.2630  0.0357
  564SOL    HW1 1691   2.977   1.015   0.753  1.9906 -0.8528 -1.2065
  564SOL    HW2 1692   3.017   0.874   0.676  2.4882 -0.2494  2.4163
  565SOL     OW 1693   0.631   1.324   0.089 -0.6386 -0.0214  0.1100
  565SOL    HW1 1694   0.582   1.401   0.045 -0.7049  2.4669  1.5842
  565SOL    HW2 1695   0.731   1.343   0.096  0.3747 -0.5011  1.2270
  566SOL     OW 1696   2.128   2.522   3.025 -0.5400 -0.4025  0.4577
  566SOL    HW1 1697   2.177   2.487   0.011 -0.9967 -0.9488 -1.7901
  566SOL    HW2 1698   2.158   2.619   3.001  0.3984 -0.6229  1.2126
  567SOL     OW 1699   1.427   1.297   1.543 -0.3121 -0.0921  0.6179
  567SOL    HW1 1700   1.521   1.279   1.567 -4.8827 -1.5809 -2.8503
  567SOL    HW2 1701   1.373   1.278   1.624  1.7556 -2.4798  0.0735
  568SOL     OW 1702   1.389   1.274   2.766 -0.0388  0.2121 -0.1691
  568SOL    HW1 1703   1.372   1.187   2.716  3.1096  0.6507  1.2564
  568SOL    HW2 1704   1.488   1.263   2.794 -0.2883  0.6161 -2.0907
  569SOL     OW 1705   2.005   1.671   0.503  0.0996  0.3459 -0.1840
  569SOL    HW1 1706   2.010   1.768   0.525  1.5887 -3.7322 -2.3102
  569SOL    HW2 1707   1.988   1.613   0.587  1.0902 -1.9899  1.0754
  570SOL     OW 1708   2.694   2.037   2.315 -0.1295 -0.2491  0.1105
  570SOL    HW1 1709   2.734   2.109   2.259 -2.5156 -3.3537  2.4295
  570SOL    HW2 1710   2.740   1.948   2.297 -1.4708 -1.7901 -0.5673
  571SOL     OW 1711   2.722   1.736   1.733  0.6430 -0.0040  0.7657
  571SOL    HW1 1712   2.718   1.770   1.641 -2.3035  2.1731  2.1667
  571SOL    HW2 1713   2.793   1.665   1.745 -2.0026  2.3478 -1.7827
  572SOL     OW 1714   1.472   2.586   0.228 -0.2445  0.5263 -0.1233
  572SOL    HW1 1715   1.385   2.597   0.281 -2.4321  0.1142  2.3017
  572SOL    HW2 1716   1.450   2.549   0.135  1.1807 -3.3126  0.5983
  573SOL     OW 1717   1.405   1.933   0.795  0.7443 -0.5363 -0.1333
  573SOL    HW1 1718   1.508   1.946   0.788 -0.2024  0.2520 -1.0166
  573SOL    HW2 1719   1.371   1.863   0.861  1.4655  0.4752  0.6911
  574SOL     OW 1720   1.096   2.965   1.495 -0.1153 -0.5728 -0.3812
  574SOL    HW1 1721   1.195   2.987   1.491 -0.3261  0.0212 -1.6351
  574SOL    HW2 1722   1.053   2.985   1.585 -1.3421  1.1771 -0.3375
  575SOL     OW 1723   1.056   0.687   1.254 -0.1374 -0.5862  0.6804
  575SOL    HW1 1724   0.979   0.722   1.197  0.2402  1.3006 -0.2193
  575SOL    HW2 1725   1.031   0.690   1.352 -3.0085 -0.9725 -0.8541
  576SOL     OW 1726   2.816   0.407   1.215 -0.3507 -0.2581 -0.4530
  576SOL    HW1 1727   2.780   0.444   1.124 -1.8176  0.3240  0.9876
  576SOL    HW2 1728   2.742   0.390   1.278 -2.1593  0.5626 -0.6306
  577SOL     OW 1729   2.311   0.624   2.694  0.2497 -0.2196 -0.0487
  577SOL    HW1 1730   2.297   0.696   2.767 -2.0660 -0.1228 -0.0469
  577SOL    HW2 1731   2.387   0.647   2.637 -3.4102  1.1728 -1.0802
  578SOL     OW 1732   1.890   1.521   2.183  0.1155 -0.0798 -0.5675
  578SOL    HW1 1733   1.985   1.517   2.218  2.1668 -1.1876  0.3662
  578SOL    HW2 1734   1.883   1.600   2.121  0.3833 -3.5241  2.3807
  579SOL     OW 1735   0.648   1.353   0.988  0.2642  0.9677  0.2115
  579SOL    HW1 1736   0.557   1.358   1.029 -1.6004  2.6575  0.4376
  579SOL    HW2 1737   0.680   1.442   0.964 -1.2708 -0.2337 -2.5659
  580SOL     OW 1738   1.366   2.469   0.000  0.1892 -0.4047 -0.5577
  580SOL    HW1 1739   1.300   2.401   0.031  0.7825  3.0683  0.8034
  580SOL    HW2 1740   1.380   2.467   2.998  0.0778  1.0501  2.4606
  581SOL     OW 1741   0.902   0.800   2.127 -0.2136 -0.4339 -0.0012
  581SOL    HW1 1742   0.908   0.797   2.228  0.6025 -0.4159  1.0725
  581SOL    HW2 1743   0.963   0.731   2.087 -1.6055 -1.6821  2.1016
  582SOL     OW 1744   0.431   0.933   0.826 -0.0497 -0.7385 -0.0007
  582SOL    HW1 1745   0.343   0.975   0.783 -3.7575  1.7099 -0.9036
  582SOL    HW2 1746   0.507   0.939   0.760  0.4364  0.6766  0.9374
  583SOL     OW 1747   1.111   1.600   2.137 -0.2501 -0.0394 -0.1776
  583SOL    HW1 1748   1.198   1.655   2.133  0.8078 -1.4167 -1.8401
  583SOL    HW2 1749   1.136   1.500   2.156 -1.8605  0.9082  1.8154
  584SOL     OW 1750   2.322   2.873   0.302 -0.2159  0.1878  0.4175
  584SOL    HW1 1751   2.416   2.854   0.274 -4.1241 -1.0466 -1.0019
  584SOL    HW2 1752   2.320   2.943   0.371 -1.5236 -0.6402  0.6981
  585SOL     OW 1753   2.058   0.738   3.030  0.1629  0.1560  0.0429
  585SOL    HW1 1754   1.997   0.813   2.996 -0.1811 -3.8289  1.1178
  585SOL    HW2 1755   2.075   0.746   0.032 -1.4630 -0.1658 -0.7717
  586SOL     OW 1756   0.152   1.779   0.306  0.0191  0.0867 -0.2055
  586SOL    HW1 1757   0.089   1.704   0.325  0.3303  1.7072  0.7442
  586SOL    HW2 1758   0.234   1.776   0.370 -0.2899  0.2119  4.6951
  587SOL     OW 1759   1.669   2.108   1.020  0.1045 -0.1122 -0.2248
  587SOL    HW1 1760   1.766   2.089   1.049 -0.9085  0.7289 -0.8129
  587SOL    HW2 1761   1.595   2.072   1.079  0.0569 -0.2145 -0.4614
  588SOL     OW 1762   0.508   0.666   0.882 -0.4983  0.3307 -0.4151
  588SOL    HW1 1763   0.599   0.681   0.920 -2.9760  0.9387 -0.3234
  588SOL    HW2 1764   0.462   0.757   0.867 -0.2314  0.8863 -2.2778
  589SOL     OW 1765   1.168   0.252   0.932  0.3705 -0.0836 -0.5463
  589SOL    HW1 1766   1.067   0.257   0.915  1.8175  0.4822  1.3582
  589SOL    HW2 1767   1.191   0.211   1.018 -1.5194 -1.6895 -2.1861
  590SOL     OW 1768   1.301   0.845   0.293  0.0440 -0.0591 -0.2275
  590SOL    HW1 1769   1.358   0.921   0.323  1.9318 -1.1089 -0.3416
  590SOL    HW2 1770   1.365   0.790   0.240 -1.2232 -0.7673  0.7746
  591SOL     OW 1771   2.515   2.443   1.970  0.8829  0.0106  0.0317
  591SOL    HW1 1772   2.478   2.437   1.875 -1.4062  0.4638 -0.2223
  591SOL    HW2 1773   2.485   2.527   2.019  0.7682  1.7137  1.3329
  592SOL     OW 1774   1.324   1.912   1.265  0.2381  0.2241 -0.0349
  592SOL    HW1 1775   1.415   1.868   1.258 -1.5822  0.4324 -0.3286
  592SOL    HW2 1776   1.336   2.017   1.277 -1.3103  3.5359 -1.4005
  593SOL     OW 1777   1.048   2.911   0.703 -0.2575  0.4318  0.6922
  593SOL    HW1 1778   1.101   2.882   0.783 -0.4323  1.7664  2.6962
  593SOL    HW2 1779   1.016   2.827   0.649 -0.6661 -1.4267  0.2140
  594SOL     OW 1780   0.282   0.945   1.822 -0.5948 -0.0477 -0.2447
  594SOL    HW1 1781   0.296   0.931   1.724  0.4019  1.2410 -0.1775
  594SOL    HW2 1782   0.341   1.022   1.851  0.5825  2.4998  2.3559
  595SOL     OW 1783   3.002   2.754   0.925 -0.1896  0.2424  0.0454
  595SOL    HW1 1784   3.079   2.734   0.855  3.3368  1.4938 -2.2490
  595SOL    HW2 1785   3.040   2.814   1.001 -1.5624  0.4177  2.3200
  596SOL     OW 1786   0.069   0.607   1.690 -0.9115 -0.0927 -0.1309
  596SOL    HW1 1787   0.145   0.567   1.750  0.8202  0.3822  3.3377
  596SOL    HW2 1788   0.061   0.707   1.699 -2.8949  1.4421 -1.4203
  597SOL     OW 1789   1.980   1.516   0.831  0.2271  0.1502  0.0654
  597SOL    HW1 1790   1.915   1.592   0.844  0.9603 -0.8499  0.2721
  597SOL    HW2 1791   1.958   1.458   0.752  0.0105  1.3230 -0.7508
  598SOL     OW 1792   0.730   2.694   2.040  0.3348 -0.0657  0.7037
  598SOL    HW1 1793   0.769   2.684   1.946  0.3377 -1.3727 -1.9720
  598SOL    HW2 1794   0.639   2.734   2.042  3.1985  0.0712  3.1352
  599SOL     OW 1795   2.648   1.956   3.003 -0.0836  0.0263 -0.7612
  599SOL    HW1 1796   2.686   1.863   2.991 -1.3508  0.2315 -1.2789
  599SOL    HW2 1797   2.558   1.939   3.056  1.4812 -1.7607 -0.4085
  600SOL     OW 1798   0.784   0.980   0.014  0.7444 -0.4463  0.2742
  600SOL    HW1 1799   0.785   1.003   3.014  0.2914 -2.1925 -0.7886
  600SOL    HW2 1800   0.690   1.000   0.058 -1.0049  0.0387  2.4425
  601SOL     OW 1801   1.038   1.147   0.061  0.7687  0.0992 -1.0622
  601SOL    HW1 1802   0.949   1.125   0.018  1.1352  1.5333 -1.5020
  601SOL    HW2 1803   1.123   1.117   0.010 -0.1742  0.9579 -1.4728
  602SOL     OW 1804   1.361   2.725   1.141  0.1302  0.1885  0.2251
  602SOL    HW1 1805   1.454   2.685   1.125  0.7938 -1.2547 -2.0066
  602SOL    HW2 1806   1.355   2.825   1.141  0.0428  3.4576  1.1873
  603SOL     OW 1807   0.993   3.026   2.240  0.1237  0.2328 -0.2020
  603SOL    HW1 1808   0.974   2.956   2.168 -1.3092 -1.4535 -0.7649
  603SOL    HW2 1809   1.089   3.017   2.275  1.0049  1.8498 -0.0042
  604SOL     OW 1810   3.087   0.115   2.225 -0.4334 -0.2754 -0.5328
  604SOL    HW1 1811   0.020   0.052   2.300  1.8137 -0.1299  0.7845
  604SOL    HW2 1812   0.018   0.212   2.235 -1.1450 -2.4930  1.5626
  605SOL     OW 1813   2.665   2.270   1.352 -0.6676 -0.6641  0.0396
  605SOL    HW1 1814   2.584   2.211   1.361  2.1161  0.6301 -0.9886
  605SOL    HW2 1815   2.688   2.319   1.439  0.5049  0.4455 -1.2167
  606SOL     OW 1816   0.300   1.622   2.960  0.1112  0.3228  0.7114
  606SOL    HW1 1817   0.224   1.575   3.009  2.2453 -0.3252  2.8905
  606SOL    HW2 1818   0.288   1.723   2.963  0.0761  0.5833 -1.0042
  607SOL     OW 1819   1.044   0.574   0.334  0.5267 -0.1176  0.0010
  607SOL    HW1 1820   1.143   0.561   0.309 -2.1128 -0.2974 -3.6936
  607SOL    HW2 1821   1.016   0.672   0.318  0.7502  2.7757  1.3139
  608SOL     OW 1822   1.936   1.306   2.468 -0.1479 -0.4554  0.3461
  608SOL    HW1 1823   1.875   1.249   2.409  0.8804 -0.3022  1.7183
  608SOL    HW2 1824   1.901   1.402   2.482 -0.9626  1.3644 -0.9385
  609SOL     OW 1825   2.993   0.431   0.888  0.7389 -0.1567  0.2902
  609SOL    HW1 1826   2.975   0.392   0.982 -0.7548  0.1334  1.6271
  609SOL    HW2 1827   2.932   0.514   0.876 -1.8062 -0.8668  0.7787
  610SOL     OW 1828   0.302   2.370   2.970  0.7799 -0.2890  0.0721
  610SOL    HW1 1829   0.359   2.286   2.985 -0.0346 -1.8146  2.2122
  610SOL    HW2 1830   0.247   2.381   3.056  2.1477 -1.4600 -1.4739
  611SOL     OW 1831   1.922   1.283   0.282 -0.4028  0.4258  0.3395
  611SOL    HW1 1832   1.933   1.249   0.188 -0.5265  1.3529  1.9657
  611SOL    HW2 1833   1.953   1.382   0.289  0.6456  0.6454 -1.9303
  612SOL     OW 1834   1.007   2.325   2.581  0.1600  0.1172 -0.5172
  612SOL    HW1 1835   1.090   2.279   2.557 -2.1617 -1.0753  0.6018
  612SOL    HW2 1836   0.987   2.391   2.507  0.8204  0.3114 -0.8886
  613SOL     OW 1837   1.267   1.792   3.033  0.3331 -0.0354  0.0602
  613SOL    HW1 1838   1.309   1.697   3.030  0.1377 -0.7873  0.7286
  613SOL    HW2 1839   1.234   1.822   2.944 -1.5177  0.3511  1.7640
  614SOL     OW 1840   2.528   2.731   1.761 -0.3100 -0.2218 -0.3067
  614SOL    HW1 1841   2.546   2.741   1.862 -1.4956 -0.1074 -1.5157
  614SOL    HW2 1842   2.501   2.637   1.740  3.3551 -1.5345  0.5425
  615SOL     OW 1843   2.320   1.395   3.026 -0.4951 -0.5432 -0.3488
  615SOL    HW1 1844   2.260   1.371   2.952 -0.5566  0.0607  1.8599
  615SOL    HW2 1845   2.359   1.489   3.022 -0.4695 -2.9254 -1.5825
  616SOL     OW 1846   1.624   0.345   0.784 -0.0556  0.4040  0.1045
  616SOL    HW1 1847   1.565   0.347   0.863  0.1101  0.8105 -3.1116
  616SOL    HW2 1848   1.568   0.329   0.699 -0.5997  1.0801 -1.6400
  617SOL     OW 1849   0.800   1.030   2.847  0.1545 -0.2976  0.2916
  617SOL    HW1 1850   0.722   0.991   2.794  0.9545 -1.7161 -2.0762
  617SOL    HW2 1851   0.826   1.123   2.819 -1.3991  0.6241  2.7370
  618SOL     OW 1852   0.697   0.910   1.978 -0.4121  0.3192  0.1489
  618SOL    HW1 1853   0.714   0.964   1.889 -3.3634  2.1924  1.2226
  618SOL    HW2 1854   0.785   0.879   2.019  1.6061 -1.8644 -2.1535
  619SOL     OW 1855   0.308   0.902   1.549  0.3945  0.2221 -0.0057
  619SOL    HW1 1856   0.228   0.859   1.501  0.0621 -0.1521  2.5012
  619SOL    HW2 1857   0.394   0.849   1.538 -0.2067  3.9238 -0.1660
  620SOL     OW 1858   1.962   1.239   3.081 -0.9532 -0.6160  0.6301
  620SOL    HW1 1859   1.869   1.265   0.005  1.5909  0.4206  0.0522
  620SOL    HW2 1860   2.006   1.303   3.010  2.0816 -2.1871  0.2431
  621SOL     OW 1861   2.408   3.054   0.962  0.1360 -0.5621  0.4886
  621SOL    HW1 1862   2.444   0.048   0.973  0.5776 -2.4153  1.4711
  621SOL    HW2 1863   2.409   3.007   1.055  1.4834  1.3537  0.6221
  622SOL     OW 1864   1.589   0.932   2.439  0.8013  0.0948 -0.0446
  622SOL    HW1 1865   1.660   0.922   2.510 -0.5089 -0.8174  0.1527
  622SOL    HW2 1866   1.590   0.844   2.387  1.0115 -0.5036 -1.7335
  623SOL     OW 1867   0.888   0.318   3.007 -0.1162  0.2643  0.2690
  623SOL    HW1 1868   0.982   0.302   2.964  0.0721  0.1012  1.4376
  623SOL    HW2 1869   0.855   0.407   2.980  0.7704 -1.6048  0.3189
  624SOL     OW 1870   1.702   0.318   0.281  0.1959  0.2152 -0.3250
  624SOL    HW1 1871   1.611   0.328   0.333 -2.3241  0.8402  2.1521
  624SOL    HW2 1872   1.782   0.343   0.337 -3.5958 -0.3261 -2.4394
  625SOL     OW 1873   0.802   1.213   0.804 -0.0413  0.1263 -0.1654
  625SOL    HW1 1874   0.844   1.288   0.754 -2.6077  0.8147  0.9855
  625SOL    HW2 1875   0.736   1.244   0.868  2.0598 -2.5052 -0.4304
  626SOL     OW 1876   1.282   1.041   3.098 -0.6400 -0.1186 -0.0836
  626SOL    HW1 1877   1.326   1.132   0.019  3.0991  0.1185  0.4050
  626SOL    HW2 1878   1.255   0.996   0.092 -2.6677 -2.7590  2.5933
  627SOL     OW 1879   0.997   3.037   1.747 -0.5968 -0.0749 -0.8216
  627SOL    HW1 1880   1.069   3.086   1.801  0.8561 -2.2009 -1.4467
  627SOL    HW2 1881   0.912   3.080   1.776 -1.3154 -0.0423  0.8698
  628SOL     OW 1882   2.585   0.249   2.002 -0.2864 -0.0167 -0.2106
  628SOL    HW1 1883   2.672   0.245   2.059  2.4155  0.0156  0.0711
  628SOL    HW2 1884   2.504   0.278   2.056  1.1740 -1.2580 -1.6086
  629SOL     OW 1885   0.796   1.295   2.790  0.3364 -0.1623 -0.2759
  629SOL    HW1 1886   0.845   1.350   2.864 -3.4720 -0.5993 -0.9882
  629SOL    HW2 1887   0.776   1.349   2.703  1.1721 -1.5239  3.2941
  630SOL     OW 1888   1.256   0.258   2.269  0.0803  0.3124 -0.0885
  630SOL    HW1 1889   1.202   0.321   2.317  2.3761  0.6013  0.4682
  630SOL    HW2 1890   1.329   0.231   2.335 -2.3098 -0.9072  0.2901
  631SOL     OW 1891   2.706   0.949   0.623  0.5544  0.1718  0.0477
  631SOL    HW1 1892   2.669   1.022   0.686 -2.2800 -0.8594 -0.6679
  631SOL    HW2 1893   2.801   0.919   0.649  1.2998  1.8809 -0.5136
  632SOL     OW 1894   2.419   1.127   0.958  0.1774 -0.0315  0.1941
  632SOL    HW1 1895   2.472   1.062   1.014 -3.1047  1.9826  0.3909
  632SOL    HW2 1896   2.339   1.170   1.012  0.8572  1.3263  2.2583
  633SOL     OW 1897   1.406   0.961   0.920 -0.3381 -0.2019  0.7744
  633SOL    HW1 1898   1.474   0.970   0.845  0.4571  1.9518 -0.9815
  633SOL    HW2 1899   1.443   0.924   1.006 -0.2626 -1.9736 -2.0926
  634SOL     OW 1900   1.736   0.114   0.713 -0.2703 -0.4553  0.1081
  634SOL    HW1 1901   1.743   0.212   0.740  0.1115  1.0817 -1.2893
  634SOL    HW2 1902   1.731   0.059   0.797  0.0078  4.7854  0.0249
  635SOL     OW 1903   1.667   0.824   1.443 -0.1157 -0.3671 -0.0767
  635SOL    HW1 1904   1.743   0.885   1.473  0.6274 -2.2910  0.1150
  635SOL    HW2 1905   1.625   0.800   1.535 -1.2843  1.9879  3.7003
  636SOL     OW 1906   0.931   0.980   0.545  0.3717 -0.0782 -0.1710
  636SOL    HW1 1907   0.977   0.951   0.457  0.5831 -0.5476 -2.2363
  636SOL    HW2 1908   0.886   0.894   0.580  0.7913 -0.8019 -1.0715
  637SOL     OW 1909   1.530   2.240   0.097  0.2794 -0.5203  0.2369
  637SOL    HW1 1910   1.478   2.328   0.098  2.3349  0.9228  1.4306
  637SOL    HW2 1911   1.537   2.206   0.002  0.1039  0.6916 -1.3860
  638SOL     OW 1912   1.096   2.751   3.049 -0.1129  0.1856 -0.0313
  638SOL    HW1 1913   1.189   2.775   3.082 -1.3304 -0.5791 -0.5677
  638SOL    HW2 1914   1.071   2.661   3.082 -1.8872  2.1098 -2.1197
  639SOL     OW 1915   0.682   2.107   1.100  0.2610  0.1690  0.2879
  639SOL    HW1 1916   0.759   2.057   1.056 -0.2135  1.0123 -0.9179
  639SOL    HW2 1917   0.608   2.052   1.128  1.9330  3.9450 -2.4767
  640SOL     OW 1918   0.257   2.820   0.393 -0.2055 -0.4045  0.3206
  640SOL    HW1 1919   0.240   2.721   0.415 -0.9420 -0.7325  3.4354
  640SOL    HW2 1920   0.352   2.833   0.361  0.6677 -0.7991  0.6740
  641SOL     OW 1921   0.202   0.249   0.131  0.3866  0.8201 -0.4766
  641SOL    HW1 1922   0.202   0.249   0.233 -1.2485 -0.8192 -2.5141
  641SOL    HW2 1923   0.210   0.342   0.088  1.4859 -1.0220  1.5620
  642SOL     OW 1924   0.221   1.558   1.128 -0.2343  0.4464 -0.2730
  642SOL    HW1 1925   0.193   1.583   1.033  0.5391  0.2403  2.4404
  642SOL    HW2 1926   0.191   1.629   1.197  2.1162  0.0496 -1.4087
  643SOL     OW 1927   0.921   1.786   2.219 -0.1777 -0.3655 -0.4655
  643SOL    HW1 1928   0.963   1.699   2.193 -2.2604 -0.7226  1.6689
  643SOL    HW2 1929   0.972   1.864   2.174 -0.8234  0.2302  1.7913
  644SOL     OW 1930   1.778   2.510   0.579  0.6233 -0.8306  0.0408
  644SOL    HW1 1931   1.863   2.463   0.598 -3.5776  2.1274 -0.4942
  644SOL    HW2 1932   1.708   2.475   0.644  0.6042 -1.0544  1.4356
  645SOL     OW 1933   1.719   2.355   1.400 -0.0711  0.0746  0.0465
  645SOL    HW1 1934   1.695   2.441   1.453 -0.5127  2.3492  2.2054
  645SOL    HW2 1935   1.698   2.278   1.461 -0.2659  0.8688  0.9327
  646SOL     OW 1936   1.183   2.903   0.278  0.4597 -0.2297  0.5759
  646SOL    HW1 1937   1.081   2.887   0.271  2.5760 -0.8466 -0.1277
  646SOL    HW2 1938   1.196   2.961   0.364 -1.5847 -0.7168  2.2555
  647SOL     OW 1939   0.403   2.992   2.083  0.1602 -0.1077  0.3181
  647SOL    HW1 1940   0.349   2.910   2.121 -0.2673  1.2928 -0.4600
  647SOL    HW2 1941   0.391   2.993   1.982 -0.2597 -1.9964  2.1413
  648SOL     OW 1942   2.419   0.893   0.610 -0.0798  0.3953  0.0180
  648SOL    HW1 1943   2.363   0.977   0.637 -2.4596 -2.6689  1.2499
  648SOL    HW2 1944   2.504   0.907   0.562 -1.0866 -1.5608  1.2429
  649SOL     OW 1945   1.865   2.525   2.887  0.0892  0.0426  0.2174
  649SOL    HW1 1946   1.947   2.554   2.939  2.4025 -0.0727 -0.0284
  649SOL    HW2 1947   1.787   2.578   2.927  0.6341  1.6743  2.2286
  650SOL     OW 1948   2.468   1.640   1.841 -0.2918  0.1375 -0.2127
  650SOL    HW1 1949   2.565   1.627   1.867 -1.3156  1.5609  0.2101
  650SOL    HW2 1950   2.459   1.627   1.745 -0.2843 -0.0409  4.4776
  651SOL     OW 1951   1.573   1.580   2.890 -0.0050  0.1554  0.1174
  651SOL    HW1 1952   1.653   1.638   2.911 -2.5265 -0.1689 -0.4225
  651SOL    HW2 1953   1.505   1.630   2.825 -0.1091  0.8863  1.0931
  652SOL     OW 1954   0.823   2.862   2.683 -0.2730 -0.0247  0.4798
  652SOL    HW1 1955   0.877   2.803   2.747 -0.1636  0.6464  1.5272
  652SOL    HW2 1956   0.835   2.960   2.711 -0.2044  1.0883  0.0498
  653SOL     OW 1957   2.038   2.317   0.940  0.0911 -0.2062 -0.5896
  653SOL    HW1 1958   2.003   2.332   1.036 -1.8319  0.8745  2.8373
  653SOL    HW2 1959   2.128   2.273   0.938  0.5924 -0.5600 -1.6211
  654SOL     OW 1960   2.703   2.897   2.144  0.0962  0.0930 -0.4991
  654SOL    HW1 1961   2.663   2.978   2.195 -2.9164 -0.1842 -1.8939
  654SOL    HW2 1962   2.745   2.931   2.054  0.0071 -0.7349  2.2198
  655SOL     OW 1963   2.810   2.228   1.127  0.0163  0.2214 -0.0297
  655SOL    HW1 1964   2.878   2.289   1.085  1.4931 -0.5362  1.7583
  655SOL    HW2 1965   2.747   2.280   1.186 -2.0877  0.5383  1.2831
  656SOL     OW 1966   2.883   2.041   2.657  0.3708  0.7634  0.1933
  656SOL    HW1 1967   2.940   2.011   2.578 -0.4781  2.1009  0.0643
  656SOL    HW2 1968   2.868   1.960   2.715  0.1920 -1.1922  1.2140
  657SOL     OW 1969   2.951   0.822   0.324  0.3196 -0.1325 -0.2915
  657SOL    HW1 1970   2.886   0.854   0.250 -0.0219  0.0480 -1.9029
  657SOL    HW2 1971   3.045   0.812   0.287  2.3079 -1.2174  3.0726
  658SOL     OW 1972   1.480   1.621   1.218 -0.2434  0.2309 -0.5363
  658SOL    HW1 1973   1.424   1.583   1.295 -0.4160  0.5617  0.1287
  658SOL    HW2 1974   1.531   1.704   1.246 -1.7789 -0.1355  0.1740
  659SOL     OW 1975   1.141   0.224   1.216 -0.1939  0.7742 -0.8479
  659SOL    HW1 1976   1.241   0.222   1.249  0.9389 -0.5694 -0.4445
  659SOL    HW2 1977   1.082   0.160   1.280 -2.3296 -2.4661  1.2695
  660SOL     OW 1978   2.168   1.388   1.036  0.5404 -0.1120  0.2464
  660SOL    HW1 1979   2.115   1.374   0.950  1.8628  2.5404  1.0707
  660SOL    HW2 1980   2.130   1.465   1.095 -2.5055  1.8661 -0.7272
  661SOL     OW 1981   0.302   1.600   0.191  0.1240  0.3788 -0.3203
  661SOL    HW1 1982   0.245   1.673   0.222 -0.0071 -0.1990 -2.2854
  661SOL    HW2 1983   0.398   1.626   0.181 -1.3838 -1.1143 -0.6617
  662SOL     OW 1984   2.792   0.520   1.871  0.0885  0.1510 -0.2162
  662SOL    HW1 1985   2.710   0.541   1.925  0.9106  2.5036 -3.6664
  662SOL    HW2 1986   2.851   0.605   1.864  1.7337  1.2913  0.0292
  663SOL     OW 1987   2.118   1.494   1.319 -0.1954 -0.4839 -0.1621
  663SOL    HW1 1988   2.179   1.581   1.331 -1.0634 -1.5560 -1.0945
  663SOL    HW2 1989   2.173   1.411   1.343  1.0062 -1.1453  0.8716
  664SOL     OW 1990   0.438   3.073   1.254 -0.0897 -0.1588  0.2055
  664SOL    HW1 1991   0.378   0.012   1.327  0.6275  0.6684  0.4190
  664SOL    HW2 1992   0.527   0.035   1.250  1.6079  3.5127 -1.3963
  665SOL     OW 1993   1.373   0.221   3.026 -0.2779 -0.3916  0.2209
  665SOL    HW1 1994   1.454   0.276   2.995 -0.8149 -2.1023 -0.0490
  665SOL    HW2 1995   1.405   0.127   3.061 -0.3732  0.8662 -0.5998
  666SOL     OW 1996   0.460   0.176   2.174  0.1302  0.2322  0.3695
  666SOL    HW1 1997   0.392   0.103   2.145 -1.0804 -1.0064 -1.1853
  666SOL    HW2 1998   0.460   0.185   2.277 -0.1658 -0.6040 -0.3621
  667SOL     OW 1999   1.652   1.408   1.874 -0.8131 -0.2141 -0.4046
  667SOL    HW1 2000   1.711   1.489   1.843  1.9502  2.0057 -1.2610
  667SOL    HW2 2001   1.666   1.382   1.971  0.0169 -0.6412 -1.0403
  668SOL     OW 2002   0.055   1.599   2.564  0.3951 -0.6271  0.3815
  668SOL    HW1 2003   3.058   1.603   2.594  0.7032  0.9557 -0.6371
  668SOL    HW2 2004   0.094   1.506   2.583  2.2854  0.3136  0.1990
  669SOL     OW 2005   2.186   0.007   2.446  0.0010  0.2299 -0.0899
  669SOL    HW1 2006   2.247   3.088   2.368  0.8053  1.1794 -1.5699
  669SOL    HW2 2007   2.243   0.030   2.528 -1.3607  1.8352 -0.4482
  670SOL     OW 2008   2.708   1.199   2.197  0.3436 -0.5992 -0.3755
  670SOL    HW1 2009   2.738   1.133   2.128 -1.8380  0.7476  1.1123
  670SOL    HW2 2010   2.757   1.285   2.189 -0.5457  2.4565 -0.7872
  671SOL     OW 2011   2.646   1.885   0.236  0.0180  0.0269  0.5474
  671SOL    HW1 2012   2.583   1.885   0.159  0.3731  0.7751  3.6280
  671SOL    HW2 2013   2.602   1.837   0.317 -0.6063 -0.2653  0.3737
  672SOL     OW 2014   1.696   1.350   2.139 -0.3377 -0.2925  0.4359
  672SOL    HW1 2015   1.718   1.263   2.190 -0.4140  2.3924  3.5220
  672SOL    HW2 2016   1.768   1.424   2.155  2.7748 -0.1773  0.1664
  673SOL     OW 2017   2.819   1.724   1.224  0.5804 -0.5078 -0.3906
  673SOL    HW1 2018   2.789   1.808   1.177  0.6913  5.7745 -2.8268
  673SOL    HW2 2019   2.877   1.740   1.305 -0.8762 -1.1083 -1.0803
  674SOL     OW 2020   1.040   1.752   1.897 -0.6146  0.3690 -0.3305
  674SOL    HW1 2021   1.037   1.693   1.976 -1.0599  0.6964 -2.0317
  674SOL    HW2 2022   0.979   1.838   1.912 -0.7415  2.1876  0.8807
  675SOL     OW 2023   3.091   0.687   0.699 -0.1214  0.8225  0.1175
  675SOL    HW1 2024   0.088   0.701   0.668 -2.1202 -0.9177  0.9768
  675SOL    HW2 2025   3.080   0.707   0.797 -0.9937  0.5749 -0.3780
  676SOL     OW 2026   3.036   1.162   0.806  0.1738  0.2650  0.1846
  676SOL    HW1 2027   3.040   1.265   0.805 -1.0901 -0.0044 -0.9658
  676SOL    HW2 2028   3.036   1.132   0.904  0.4977  1.9890  1.0500
  677SOL     OW 2029   1.673   1.714   2.352  0.1077 -0.1223  0.1241
  677SOL    HW1 2030   1.671   1.635   2.290  0.5367  1.4873  0.3296
  677SOL    HW2 2031   1.767   1.755   2.365  1.2159  0.3657 -1.2511
  678SOL     OW 2032   2.653   1.617   0.821  0.0909 -0.0414 -0.1215
  678SOL    HW1 2033   2.647   1.708   0.865 -2.0752  1.9611  0.0801
  678SOL    HW2 2034   2.567   1.566   0.853 -0.7329 -0.3801  0.9988
  679SOL     OW 2035   0.759   2.420   0.689 -0.2771 -0.4747 -0.1615
  679SOL    HW1 2036   0.763   2.399   0.588  2.3426  0.8125 -1.0319
  679SOL    HW2 2037   0.728   2.514   0.706 -1.4911 -0.5499  1.0200
  680SOL     OW 2038   0.190   1.707   1.350  0.0132 -0.7229  0.0347
  680SOL    HW1 2039   0.140   1.796   1.361 -0.6877  1.9011  2.8036
  680SOL    HW2 2040   0.157   1.653   1.428 -2.4360 -0.7954 -0.3917
  681SOL     OW 2041   1.012   0.441   1.119  0.1169  0.6758 -0.5899
  681SOL    HW1 2042   1.039   0.522   1.173 -1.2311  0.9520 -2.3865
  681SOL    HW2 2043   1.053   0.353   1.159  1.9101  0.6737 -1.5689
  682SOL     OW 2044   1.786   2.815   1.452  0.5415  0.2356 -0.5630
  682SOL    HW1 2045   1.849   2.867   1.515 -0.3693 -0.0252 -2.7083
  682SOL    HW2 2046   1.736   2.875   1.379 -0.5581  1.8870 -0.9368
  683SOL     OW 2047   2.285   1.321   1.438 -0.2618  0.7147  0.1216
  683SOL    HW1 2048   2.310   1.339   1.533  1.0738  0.2339  0.4900
  683SOL    HW2 2049   2.362   1.261   1.401  2.0339  1.7157 -1.4127
  684SOL     OW 2050   0.156   1.597   1.605 -0.0382 -0.0037  0.1533
  684SOL    HW1 2051   0.074   1.556   1.646  0.8072  2.1164 -0.1247
  684SOL    HW2 2052   0.239   1.564   1.657  1.9227  0.4827 -0.5423
  685SOL     OW 2053   2.002   1.948   0.224  0.0230  0.1786 -0.2521
  685SOL    HW1 2054   2.008   2.047   0.222  0.6288 -0.1328 -1.9113
  685SOL    HW2 2055   1.940   1.915   0.151 -0.5665  1.2208  0.6137
  686SOL     OW 2056   2.708   0.531   1.013  0.6757  0.2521 -0.4136
  686SOL    HW1 2057   2.707   0.622   1.058 -2.6300 -2.8656  0.7863
  686SOL    HW2 2058   2.672   0.531   0.916 -2.3433  0.7064  0.4846
  687SOL     OW 2059   1.757   0.278   2.449 -0.1682  0.0016 -0.1281
  687SOL    HW1 2060   1.816   0.306   2.528  2.6074  0.2299 -0.4879
  687SOL    HW2 2061   1.658   0.304   2.466 -0.6039 -2.2266  2.6325
  688SOL     OW 2062   1.183   2.071   2.557  0.3123  0.6020 -0.3192
  688SOL    HW1 2063   1.254   2.102   2.486  1.7462  1.3729 -1.4917
  688SOL    HW2 2064   1.100   2.022   2.512 -1.8006 -0.6514  0.1397
  689SOL     OW 2065   2.307   1.386   1.708  0.2384 -0.2622  0.3284
  689SOL    HW1 2066   2.390   1.436   1.674  2.2499 -0.2408 -1.4109
  689SOL    HW2 2067   2.332   1.295   1.730  0.0008  2.2353  1.9592
  690SOL     OW 2068   1.717   1.617   1.472 -0.3074  0.3499 -0.0155
  690SOL    HW1 2069   1.630   1.671   1.477 -2.5347  5.0831 -0.9105
  690SOL    HW2 2070   1.708   1.523   1.440 -1.7377  0.4604  0.6833
  691SOL     OW 2071   0.094   1.563   0.548  0.3629  0.1639  0.1966
  691SOL    HW1 2072   0.065   1.652   0.587  1.4585  0.5915 -0.7775
  691SOL    HW2 2073   0.186   1.542   0.588  1.5456 -1.7698  0.6445
  692SOL     OW 2074   2.554   2.638   2.472 -0.3489 -0.6687  0.1474
  692SOL    HW1 2075   2.474   2.695   2.432 -0.8983  2.8009 -0.5777
  692SOL    HW2 2076   2.583   2.571   2.404 -2.4638  0.9957 -0.3449
  693SOL     OW 2077   2.885   1.458   2.251 -0.0127 -0.1311  0.1170
  693SOL    HW1 2078   2.805   1.484   2.312 -3.6073  3.4341 -1.0858
  693SOL    HW2 2079   2.954   1.532   2.267 -0.4782  0.4322  0.1982
  694SOL     OW 2080   2.190   0.179   1.927 -0.3546 -0.4689 -0.3859
  694SOL    HW1 2081   2.213   0.143   1.832 -1.4686 -0.4564 -1.6275
  694SOL    HW2 2082   2.195   0.283   1.937 -0.7610 -0.0827 -0.4200
  695SOL     OW 2083   1.155   0.746   2.464  0.2770 -0.1755 -0.1444
  695SOL    HW1 2084   1.056   0.728   2.443  1.2401 -2.2142 -1.5138
  695SOL    HW2 2085   1.165   0.835   2.516  2.2876 -0.5032 -0.8904
  696SOL     OW 2086   1.748   0.106   1.635  0.0391 -0.0826  0.5679
  696SOL    HW1 2087   1.849   0.120   1.632 -1.8960  0.1207 -1.1153
  696SOL    HW2 2088   1.724   0.008   1.633  1.6097 -0.4575  1.6503
  697SOL     OW 2089   1.613   0.319   2.036 -0.1722 -0.0683 -0.1256
  697SOL    HW1 2090   1.687   0.359   2.093  0.0850 -3.1769 -0.7474
  697SOL    HW2 2091   1.621   0.331   1.932  1.3045  1.7086 -2.2159
  698SOL     OW 2092   1.920   1.842   2.388 -0.2023 -0.0173 -0.5793
  698SOL    HW1 2093   1.941   1.877   2.480 -0.0504  0.9708 -2.3545
  698SOL    HW2 2094   1.994   1.851   2.321 -0.6767 -1.6667 -0.1204
  699SOL     OW 2095   2.120   0.732   0.199  0.6199 -0.1467 -0.3432
  699SOL    HW1 2096   2.049   0.777   0.257 -0.4893  2.0246 -2.3870
  699SOL    HW2 2097   2.206   0.788   0.190  0.1554  1.7261 -1.3493
  700SOL     OW 2098   1.224   0.225   0.495 -0.0547  0.1369 -0.1020
  700SOL    HW1 2099   1.178   0.314   0.523  2.3439  0.8756  0.7281
  700SOL    HW2 2100   1.234   0.222   0.394  0.5077 -0.7123  1.7984
  701SOL     OW 2101   0.179   0.974   0.722  0.2640 -0.1684  0.2613
  701SOL    HW1 2102   0.181   0.881   0.676 -0.2481 -0.8470 -0.8102
  701SOL    HW2 2103   0.148   1.047   0.662 -0.2686  1.8229 -0.2458
  702SOL     OW 2104   2.026   0.134   1.565 -0.0912 -0.6275 -0.5482
  702SOL    HW1 2105   2.115   0.117   1.609 -1.3758 -0.0723 -1.5583
  702SOL    HW2 2106   2.017   0.234   1.566  0.9519  2.1796  0.7305
  703SOL     OW 2107   2.820   1.009   1.210  0.2794 -0.2682 -0.2112
  703SOL    HW1 2108   2.901   1.031   1.151  1.6242  1.2650 -0.8003
  703SOL    HW2 2109   2.820   0.910   1.236  0.5747 -1.2332 -0.7575
  704SOL     OW 2110   0.843   2.458   1.302  0.0795  0.0558 -0.8442
  704SOL    HW1 2111   0.903   2.500   1.233  0.5229  1.1227 -1.6072
  704SOL    HW2 2112   0.896   2.397   1.365  1.1232 -0.1804  2.6166
  705SOL     OW 2113   0.199   1.367   2.594  0.3364  0.0987 -0.1669
  705SOL    HW1 2114   0.239   1.350   2.503 -2.1213 -2.7178  1.2940
  705SOL    HW2 2115   0.267   1.397   2.661 -1.4029 -1.9159 -0.5952
  706SOL     OW 2116   2.891   3.039   0.043  0.6157 -0.2215 -0.0333
  706SOL    HW1 2117   2.840   2.949   0.037 -0.8497 -1.6374 -2.1143
  706SOL    HW2 2118   2.897   3.066   0.142 -0.4769 -0.4814  0.9941
  707SOL     OW 2119   1.552   2.977   2.450  0.1356  0.3326 -0.7862
  707SOL    HW1 2120   1.632   3.025   2.411  0.8635 -0.5921  1.7068
  707SOL    HW2 2121   1.569   2.881   2.441 -1.9064  4.3674  2.2496
  708SOL     OW 2122   0.454   2.761   1.726  0.3725  0.1474  0.0929
  708SOL    HW1 2123   0.470   2.729   1.820  0.9977  0.4004  0.5875
  708SOL    HW2 2124   0.384   2.702   1.683 -3.1217  1.2767  3.1481
  709SOL     OW 2125   2.953   0.728   1.903  0.0295  0.3595  0.3657
  709SOL    HW1 2126   3.005   0.763   1.823 -2.5471 -0.1866  0.8329
  709SOL    HW2 2127   3.014   0.715   1.979 -1.7059  1.1445 -0.7217
  710SOL     OW 2128   0.151   0.931   0.985  0.3433 -0.1084  0.1154
  710SOL    HW1 2129   0.251   0.929   1.000  0.0142 -1.5399 -1.2167
  710SOL    HW2 2130   0.134   0.935   0.885 -1.7490  0.3809  1.5024
  711SOL     OW 2131   2.682   2.933   1.288  0.4473 -0.4010  0.1696
  711SOL    HW1 2132   2.708   2.836   1.297 -0.4128  1.5201  0.9469
  711SOL    HW2 2133   2.589   2.940   1.248 -1.0103  2.7788 -0.4285
  712SOL     OW 2134   0.210   3.011   2.621  0.6891 -0.3969 -0.2113
  712SOL    HW1 2135   0.183   2.995   2.718  2.2687 -0.8205 -1.1300
  712SOL    HW2 2136   0.270   2.935   2.596  0.1894  1.4568  1.6853
  713SOL     OW 2137   2.492   0.231   0.453  0.2750 -0.9013  0.2709
  713SOL    HW1 2138   2.436   0.314   0.441  0.4223 -0.7891 -1.7432
  713SOL    HW2 2139   2.492   0.203   0.553  1.2759  0.3100  0.8794
  714SOL     OW 2140   1.814   1.822   0.075 -0.2667  0.3440  0.3884
  714SOL    HW1 2141   1.730   1.863   0.117 -1.2841  0.8545 -1.5959
  714SOL    HW2 2142   1.814   1.724   0.102 -0.5691 -1.3962  0.9353
  715SOL     OW 2143   0.074   0.312   0.716  0.1999  0.5941 -0.5835
  715SOL    HW1 2144   0.059   0.213   0.731 -1.7116  2.5505 -1.5310
  715SOL    HW2 2145   0.015   0.366   0.780  1.2293 -2.1809  0.3541
  716SOL     OW 2146   0.958   0.641   1.786 -0.0085  0.2382  0.3102
  716SOL    HW1 2147   1.008   0.557   1.765  1.9289 -1.0817  0.0902
  716SOL    HW2 2148   0.875   0.619   1.841 -2.0127  1.6119 -0.6679
  717SOL     OW 2149   0.498   0.411   2.963 -0.6275 -0.0075 -0.2960
  717SOL    HW1 2150   0.402   0.407   2.929  0.7109  0.0763 -0.4936
  717SOL    HW2 2151   0.547   0.471   2.900 -2.2083  3.2066  1.8993
  718SOL     OW 2152   1.277   0.502   0.198 -0.1073  0.3310 -0.3473
  718SOL    HW1 2153   1.350   0.558   0.157  0.3486  1.7002  0.6517
  718SOL    HW2 2154   1.290   0.402   0.197  1.1196  0.2289  0.4194
  719SOL     OW 2155   2.550   2.265   2.752  0.3060  0.2452  0.2067
  719SOL    HW1 2156   2.524   2.239   2.847 -1.6137 -1.6760  1.2749
  719SOL    HW2 2157   2.510   2.361   2.746  2.5506  0.9162  1.3041
  720SOL     OW 2158   1.255   0.508   1.441  0.2979 -0.0466  0.0999
  720SOL    HW1 2159   1.228   0.605   1.427 -0.6051  0.4519  0.3264
  720SOL    HW2 2160   1.173   0.447   1.425 -0.2436  1.0898 -2.1638
  721SOL     OW 2161   2.755   3.075   1.066  0.8265  0.4685  0.2225
  721SOL    HW1 2162   2.699   0.059   1.074  0.2753 -0.2508  0.3531
  721SOL    HW2 2163   2.742   3.025   1.151  0.7980 -0.4375 -1.2779
  722SOL     OW 2164   1.058   1.460   2.649  0.1552 -0.0754  0.0726
  722SOL    HW1 2165   1.007   1.549   2.655  0.8448  0.5022 -3.0097
  722SOL    HW2 2166   1.130   1.453   2.719 -0.5851 -0.1584 -0.3842
  723SOL     OW 2167   2.382   0.639   1.046  0.5240  0.0339  0.3456
  723SOL    HW1 2168   2.400   0.561   0.982 -0.5767  0.9556  1.6069
  723SOL    HW2 2169   2.398   0.730   1.004  2.3286 -0.5704  3.6032
  724SOL     OW 2170   0.800   2.203   3.078 -0.2864 -0.1470 -0.2495
  724SOL    HW1 2171   0.845   2.162   0.063 -3.1236  2.6579 -2.8977
  724SOL    HW2 2172   0.868   2.224   3.007  0.4410 -1.4458 -0.4358
  725SOL     OW 2173   0.272   1.154   1.449 -0.7037 -0.2600 -0.3690
  725SOL    HW1 2174   0.289   1.064   1.486  0.2601  0.4804 -0.9628
  725SOL    HW2 2175   0.350   1.200   1.417 -2.2474  2.0778  1.5367
  726SOL     OW 2176   2.459   0.782   3.080  0.0455  0.0688 -0.0860
  726SOL    HW1 2177   2.425   0.834   0.061 -2.2052 -0.0392 -0.5327
  726SOL    HW2 2178   2.546   0.822   3.053 -0.4241  2.2258 -0.4646
  727SOL     OW 2179   2.107   1.199   2.652 -0.0677  1.0531 -0.0799
  727SOL    HW1 2180   2.042   1.237   2.587  1.5603 -1.2342  0.8578
  727SOL    HW2 2181   2.129   1.104   2.619  0.5507 -0.9527  0.6903
  728SOL     OW 2182   1.678   2.595   1.557  0.5525 -0.2916 -0.1457
  728SOL    HW1 2183   1.680   2.597   1.659 -2.7466 -1.7249 -2.4592
  728SOL    HW2 2184   1.716   2.679   1.516 -0.7388 -1.8035  1.2838
  729SOL     OW 2185   2.242   0.686   2.106  0.5362  0.2386  0.3549
  729SOL    HW1 2186   2.292   0.728   2.180 -3.2046  2.2994 -1.5107
  729SOL    HW2 2187   2.218   0.755   2.038  1.6189 -2.2978 -1.0936
  730SOL     OW 2188   1.298   0.749   1.112 -0.2091 -0.2746  0.3825
  730SOL    HW1 2189   1.206   0.724   1.144 -0.5012  1.0209 -2.9941
  730SOL    HW2 2190   1.283   0.762   1.010 -0.1527 -0.3011 -0.4807
  731SOL     OW 2191   0.667   0.551   0.051  0.1652  0.2541  0.5694
  731SOL    HW1 2192   0.752   0.590   0.016 -3.5976  0.1569  0.4850
  731SOL    HW2 2193   0.619   0.489   3.082  1.4004 -0.7305 -2.2739
  732SOL     OW 2194   0.455   0.565   0.239 -0.0453  0.0017  0.8123
  732SOL    HW1 2195   0.492   0.551   0.331 -1.9563  0.7684 -0.2781
  732SOL    HW2 2196   0.527   0.568   0.160  2.0606 -1.7240 -7.0523
  733SOL     OW 2197   1.870   1.527   2.591  0.3116 -0.3006  0.1803
  733SOL    HW1 2198   1.767   1.537   2.593 -2.5853  0.2499 -1.4522
  733SOL    HW2 2199   1.911   1.565   2.675 -1.4448 -1.5341 -1.3469
  734SOL     OW 2200   0.245   1.994   2.775  0.4919 -0.2573 -0.8213
  734SOL    HW1 2201   0.255   1.940   2.862 -0.6618 -1.9799  2.2226
  734SOL    HW2 2202   0.211   2.084   2.803 -1.5945  1.2495  0.5814
  735SOL     OW 2203   2.094   0.641   0.961  0.1613  0.0360 -0.0946
  735SOL    HW1 2204   2.095   0.611   0.866  1.7741  2.0986  0.0227
  735SOL    HW2 2205   2.189   0.637   1.003 -2.6914  1.1078 -1.6083
  736SOL     OW 2206   1.883   1.788   2.894 -0.5934 -1.0291 -0.4932
  736SOL    HW1 2207   1.865   1.804   2.995  0.1076 -1.5891  1.1344
  736SOL    HW2 2208   1.860   1.867   2.832  0.9049 -0.3883  0.4512
  737SOL     OW 2209   3.003   0.335   0.480  0.0556  0.1693 -0.3484
  737SOL    HW1 2210   2.971   0.434   0.500  1.1478  0.4528 -0.5599
  737SOL    HW2 2211   3.078   0.316   0.546  0.4440 -0.0214 -2.0723
  738SOL     OW 2212   0.629   2.106   1.662 -0.3926  0.0029  0.5997
  738SOL    HW1 2213   0.686   2.129   1.744 -2.3385 -0.9472 -0.3112
  738SOL    HW2 2214   0.609   2.188   1.604  1.6134  0.3125  2.7995
  739SOL     OW 2215   1.344   2.805   2.219  0.3342  0.2273  0.4062
  739SOL    HW1 2216   1.269   2.732   2.203  0.6116  0.2344  3.3210
  739SOL    HW2 2217   1.417   2.776   2.284 -2.6979  0.1065 -0.1572
  740SOL     OW 2218   2.089   2.253   1.406  0.3097  0.5832 -0.0883
  740SOL    HW1 2219   2.017   2.196   1.366 -2.6925  0.0754  1.8005
  740SOL    HW2 2220   2.053   2.350   1.414 -2.6312  0.0574 -2.0510
  741SOL     OW 2221   2.095   0.461   0.291  0.4126  0.7856  0.1089
  741SOL    HW1 2222   2.055   0.414   0.213  0.8053  1.2312  1.0647
  741SOL    HW2 2223   2.120   0.552   0.254  1.3440  3.7506 -2.5325
  742SOL     OW 2224   0.989   2.494   0.029  0.5937  1.0351  0.2375
  742SOL    HW1 2225   0.968   2.480   3.030  1.3553 -2.3065  1.2748
  742SOL    HW2 2226   1.054   2.419   0.063 -1.0068 -2.4988  0.2325
  743SOL     OW 2227   2.360   1.125   1.845  0.1836 -0.0598  0.1945
  743SOL    HW1 2228   2.382   1.199   1.912 -1.0721 -0.3162  1.1025
  743SOL    HW2 2229   2.283   1.068   1.879  3.1259  1.1740  2.4739
  744SOL     OW 2230   2.694   0.499   0.530 -0.1187  0.4577  0.4149
  744SOL    HW1 2231   2.646   0.501   0.445 -0.5496 -2.0472  0.4749
  744SOL    HW2 2232   2.798   0.503   0.531  1.4772 -0.3791 -0.1772
  745SOL     OW 2233   2.614   1.175   1.657 -0.0777 -0.0190 -0.9937
  745SOL    HW1 2234   2.531   1.136   1.699  1.0562  1.8963  1.9510
  745SOL    HW2 2235   2.643   1.254   1.713 -2.1271  0.6191  0.4019
  746SOL     OW 2236   1.237   1.478   0.696 -0.3808  0.1829 -0.3523
  746SOL    HW1 2237   1.290   1.510   0.777 -1.4655  2.0530 -1.3679
  746SOL    HW2 2238   1.143   1.454   0.726  2.9969  0.6479 -2.1370
  747SOL     OW 2239   1.081   1.691   1.613  0.5808  0.1262  0.3124
  747SOL    HW1 2240   1.051   1.719   1.710 -1.0096  4.2323  1.5252
  747SOL    HW2 2241   1.103   1.590   1.621 -0.5358 -2.6823 -0.4037
  748SOL     OW 2242   0.230   2.694   3.084 -0.1933  0.3776 -0.1019
  748SOL    HW1 2243   0.303   2.740   3.031 -1.0086  3.1413  0.8346
  748SOL    HW2 2244   0.172   2.755   0.036 -0.0279 -0.5864 -1.4142
  749SOL     OW 2245   0.422   1.211   2.456 -0.2641  0.3860 -0.1387
  749SOL    HW1 2246   0.387   1.158   2.377  1.0307 -0.0567  0.6610
  749SOL    HW2 2247   0.506   1.261   2.434 -1.3590  1.3510  0.8438
  750SOL     OW 2248   1.608   0.914   1.978  0.7531  0.0080 -0.0673
  750SOL    HW1 2249   1.513   0.876   1.968  2.2589  0.6555  1.0635
  750SOL    HW2 2250   1.676   0.847   1.971 -5.0222  1.9579 -1.4731
  751SOL     OW 2251   2.550   0.629   0.300 -0.2170  0.0896  0.3939
  751SOL    HW1 2252   2.451   0.604   0.304 -3.0830 -1.3803 -1.5546
  751SOL    HW2 2253   2.569   0.730   0.313 -0.4768  1.5540 -2.0805
  752SOL     OW 2254   0.123   2.648   1.186  0.2149 -0.1118 -0.2421
  752SOL    HW1 2255   0.202   2.679   1.247 -2.2801  2.0014 -0.8310
  752SOL    HW2 2256   0.082   2.731   1.138  2.3383 -0.5764  2.5482
  753SOL     OW 2257   0.627   2.357   1.150 -0.1149  0.1311  0.4283
  753SOL    HW1 2258   0.702   2.379   1.218 -0.1374  0.6798  0.0710
  753SOL    HW2 2259   0.639   2.261   1.118  1.5843  1.7265 -0.5683
  754SOL     OW 2260   0.228   2.789   2.141  0.3553  0.0464  0.2386
  754SOL    HW1 2261   0.139   2.811   2.094 -2.1728 -0.3416  0.0665
  754SOL    HW2 2262   0.213   2.743   2.230  0.8826  0.5653  0.0465
  755SOL     OW 2263   2.337   0.461   0.437 -0.1217  0.0478  0.2579
  755SOL    HW1 2264   2.253   0.432   0.386  2.0847 -1.1618 -2.3711
  755SOL    HW2 2265   2.315   0.546   0.488  0.4848 -0.1457  1.3536
  756SOL     OW 2266   2.182   2.478   2.757 -0.4585  0.4873 -0.0126
  756SOL    HW1 2267   2.147   2.488   2.850  1.7987 -0.6084 -0.0198
  756SOL    HW2 2268   2.129   2.536   2.691 -0.5743  2.2810 -0.8445
  757SOL     OW 2269   2.119   0.536   0.714 -0.1273  0.3332 -0.2749
  757SOL    HW1 2270   2.154   0.585   0.627  0.9566  1.7153 -3.8910
  757SOL    HW2 2271   2.022   0.502   0.703 -1.6322 -0.4315 -1.1719
  758SOL     OW 2272   2.505   0.818   1.628 -0.0397 -0.1658  0.1879
  758SOL    HW1 2273   2.434   0.863   1.571  0.9308 -0.8450  1.0928
  758SOL    HW2 2274   2.509   0.840   1.730 -0.4259 -2.0565  1.9181
  759SOL     OW 2275   2.806   0.789   0.913 -0.0938 -0.4705  0.2070
  759SOL    HW1 2276   2.883   0.763   0.976 -1.7904 -1.8695 -0.9181
  759SOL    HW2 2277   2.844   0.847   0.839  1.8740 -0.4805  0.3631
  760SOL     OW 2278   2.643   1.383   1.115 -0.1425 -0.4203 -0.0237
  760SOL    HW1 2279   2.658   1.315   1.187 -1.1310  1.8873 -0.3498
  760SOL    HW2 2280   2.739   1.416   1.092  0.6848  0.0337 -0.9979
  761SOL     OW 2281   0.681   0.822   0.302 -0.2696 -0.0141  0.4173
  761SOL    HW1 2282   0.636   0.897   0.248  0.1103  1.6293 -0.0608
  761SOL    HW2 2283   0.745   0.765   0.248  0.7136  0.4462 -0.2316
  762SOL     OW 2284   0.843   1.663   0.678  0.3852 -0.2490  0.0461
  762SOL    HW1 2285   0.934   1.706   0.659 -2.5271 -1.4979  0.8932
  762SOL    HW2 2286   0.791   1.724   0.742  0.9286 -2.8141 -1.9692
  763SOL     OW 2287   1.307   0.849   1.559 -0.3665 -0.2387  0.1090
  763SOL    HW1 2288   1.243   0.854   1.634  5.1755 -0.7823 -1.4681
  763SOL    HW2 2289   1.278   0.909   1.482 -0.7737 -1.1221  0.5241
  764SOL     OW 2290   0.482   1.870   2.691  1.1110  0.4672  0.4411
  764SOL    HW1 2291   0.471   1.812   2.603 -0.1969  1.3281 -1.5376
  764SOL    HW2 2292   0.395   1.919   2.709  0.1882  0.4594  0.9057
  765SOL     OW 2293   0.784   2.651   1.770  0.3630 -0.3583 -0.1162
  765SOL    HW1 2294   0.779   2.561   1.733 -0.0503  3.9720  2.5030
  765SOL    HW2 2295   0.725   2.708   1.710 -1.5226  0.1463  1.0728
  766SOL     OW 2296   2.445   1.960   2.227 -0.1836  0.0754 -0.3699
  766SOL    HW1 2297   2.533   2.003   2.251 -2.6816 -1.3513 -0.0832
  766SOL    HW2 2298   2.387   1.941   2.311 -1.6687 -0.3824  4.2465
  767SOL     OW 2299   1.754   1.144   2.330 -1.0203 -0.0763 -0.3258
  767SOL    HW1 2300   1.810   1.064   2.330 -1.1863  1.4904  1.4175
  767SOL    HW2 2301   1.659   1.136   2.373 -1.1514 -1.8566  0.6858
  768SOL     OW 2302   1.615   1.879   0.292  0.0291 -0.1498  0.0823
  768SOL    HW1 2303   1.561   1.822   0.357 -0.1754  0.2193  1.4935
  768SOL    HW2 2304   1.567   1.892   0.201 -0.0036  0.0067 -1.9927
  769SOL     OW 2305   0.522   1.242   1.370  0.3246 -0.0335 -0.4992
  769SOL    HW1 2306   0.605   1.296   1.345 -0.8528 -2.0470  1.7990
  769SOL    HW2 2307   0.552   1.165   1.429 -1.1794  1.4166  2.8914
  770SOL     OW 2308   1.429   1.053   2.631  0.5375 -0.4261  0.1045
  770SOL    HW1 2309   1.463   1.028   2.726  0.6848 -1.3189  0.4958
  770SOL    HW2 2310   1.481   1.008   2.556  0.2666  0.6013  2.1722
  771SOL     OW 2311   0.002   3.059   2.457 -0.2904  0.4699 -0.4671
  771SOL    HW1 2312   3.080   2.975   2.404 -1.4555  2.7810 -0.4759
  771SOL    HW2 2313   0.074   3.038   2.524  0.9543 -0.8290 -0.6232
  772SOL     OW 2314   2.086   1.849   2.164  0.0134 -0.0813 -0.6775
  772SOL    HW1 2315   2.032   1.815   2.084 -0.3555  3.1180  0.2168
  772SOL    HW2 2316   2.174   1.796   2.173  1.7412 -0.4264  4.8193
  773SOL     OW 2317   0.509   1.764   1.660 -0.2960  0.3692  0.6309
  773SOL    HW1 2318   0.609   1.759   1.664 -0.8453 -0.8128 -0.7204
  773SOL    HW2 2319   0.483   1.774   1.560  0.6668  1.0607 -0.2371
  774SOL     OW 2320   1.212   0.731   2.894  0.3035 -0.1565 -0.7739
  774SOL    HW1 2321   1.149   0.796   2.844 -1.9301  1.2569 -2.6761
  774SOL    HW2 2322   1.165   0.670   2.965 -1.3289  0.5117 -2.5523
  775SOL     OW 2323   1.902   3.028   0.149 -0.4134 -0.1203 -0.5332
  775SOL    HW1 2324   1.919   0.010   0.218  0.0157  4.8935  2.5897
  775SOL    HW2 2325   1.990   2.986   0.118  0.8076  0.6748  1.1855
  776SOL     OW 2326   0.278   0.500   1.826  0.5893 -0.0542  0.7776
  776SOL    HW1 2327   0.276   0.417   1.880 -0.0996 -1.4760 -0.0079
  776SOL    HW2 2328   0.329   0.568   1.876 -0.8397 -2.1727  1.0403
  777SOL     OW 2329   2.337   2.003   1.978 -0.4563 -0.1743  0.4072
  777SOL    HW1 2330   2.370   1.992   2.078  2.4911  1.8335  0.3993
  777SOL    HW2 2331   2.286   2.088   1.962  0.4717 -1.9168 -1.2551
  778SOL     OW 2332   2.023   1.067   2.155 -0.2154  0.3950  0.4400
  778SOL    HW1 2333   2.004   1.124   2.070 -0.1978 -0.7923 -1.0865
  778SOL    HW2 2334   2.097   1.114   2.207 -2.4393  0.7183 -2.6161
  779SOL     OW 2335   2.702   0.845   2.976 -0.4856 -0.1646  0.1047
  779SOL    HW1 2336   2.766   0.826   2.898 -1.1422  1.4598  0.5976
  779SOL    HW2 2337   2.687   0.946   2.972  3.0045 -0.3319 -1.2137
  780SOL     OW 2338   2.440   0.266   2.434  0.4198  0.3878 -0.0483
  780SOL    HW1 2339   2.420   0.298   2.525  0.1506  0.3523 -3.8729
  780SOL    HW2 2340   2.470   0.168   2.429  0.9479 -2.8129 -2.2214
  781SOL     OW 2341   0.142   1.842   1.738  0.6455 -0.8243  0.2359
  781SOL    HW1 2342   0.211   1.910   1.701 -0.3057  0.8748 -0.6189
  781SOL    HW2 2343   0.147   1.762   1.676 -0.2419  2.0276  0.0852
  782SOL     OW 2344   2.470   2.170   2.995 -0.0312  0.5995  0.3394
  782SOL    HW1 2345   2.419   2.160   3.080 -1.3358 -1.1751  0.2874
  782SOL    HW2 2346   2.528   2.087   2.983 -2.8774 -0.4309 -0.5014
  783SOL     OW 2347   0.760   1.338   1.278  0.0325 -0.1934 -0.3903
  783SOL    HW1 2348   0.859   1.319   1.267 -0.7836  0.9681  1.8997
  783SOL    HW2 2349   0.714   1.353   1.189  1.9847 -0.3690  1.0280
  784SOL     OW 2350   2.276   0.814   2.882 -0.2288  0.2193  0.0452
  784SOL    HW1 2351   2.362   0.821   2.936  1.5362 -0.7752 -0.6516
  784SOL    HW2 2352   2.193   0.780   2.928  2.3463  3.2437  0.1061
  785SOL     OW 2353   2.226   2.746   0.760 -0.1926  0.3731 -0.7320
  785SOL    HW1 2354   2.216   2.847   0.773 -1.3129 -1.5655  2.0129
  785SOL    HW2 2355   2.161   2.726   0.686 -0.6819  2.9809  1.8904
  786SOL     OW 2356   0.666   2.170   2.365  0.1661 -0.0027  0.0482
  786SOL    HW1 2357   0.587   2.121   2.327 -2.2519 -0.0715 -0.7686
  786SOL    HW2 2358   0.668   2.170   2.469 -0.6584  0.8886 -1.2948
  787SOL     OW 2359   1.460   0.462   1.198 -0.3715 -0.0099 -0.4733
  787SOL    HW1 2360   1.378   0.488   1.254  2.3959 -1.5612 -0.5495
  787SOL    HW2 2361   1.542   0.515   1.235  2.8923  2.0948  1.9113
  788SOL     OW 2362   0.311   0.807   0.348  0.0995  0.4334 -0.2191
  788SOL    HW1 2363   0.401   0.776   0.316 -0.3650  0.5033  2.7263
  788SOL    HW2 2364   0.239   0.813   0.274  0.1335 -0.2493 -0.1535
  789SOL     OW 2365   2.925   2.076   1.335  0.2551 -0.6307 -0.2890
  789SOL    HW1 2366   2.972   2.148   1.385 -1.4724  0.3738  1.6565
  789SOL    HW2 2367   2.875   2.119   1.259 -2.5054 -1.9443  0.9378
  790SOL     OW 2368   1.331   0.894   1.966 -0.0543  0.2921  0.4265
  790SOL    HW1 2369   1.344   0.794   1.969  0.8750  2.3434 -2.8301
  790SOL    HW2 2370   1.272   0.928   2.042  0.7400  0.3936  0.3363
  791SOL     OW 2371   1.525   0.551   0.522 -0.7508 -0.2394 -0.0031
  791SOL    HW1 2372   1.483   0.477   0.573  0.0498 -0.3336 -0.5071
  791SOL    HW2 2373   1.503   0.634   0.575  1.3952  0.2327 -2.0601
  792SOL     OW 2374   1.666   2.915   1.946 -0.3374 -0.1615 -0.0445
  792SOL    HW1 2375   1.604   2.982   1.990  0.4990  1.3267 -1.2354
  792SOL    HW2 2376   1.622   2.885   1.856 -0.5691 -2.5706  0.2654
  793SOL     OW 2377   0.652   3.076   0.870 -0.4253 -0.8837  0.1032
  793SOL    HW1 2378   0.721   3.071   0.792  1.3125 -2.3632 -1.2141
  793SOL    HW2 2379   0.585   0.052   0.848  0.5622 -0.8149  1.9834
  794SOL     OW 2380   0.690   0.932   2.442  0.0881 -0.4575  0.4206
  794SOL    HW1 2381   0.716   1.026   2.417  0.1463 -3.1585 -3.2409
  794SOL    HW2 2382   0.606   0.904   2.391 -1.7418 -0.9556  1.1731
  795SOL     OW 2383   0.300   1.866   2.297 -0.1758  0.8522  0.0968
  795SOL    HW1 2384   0.221   1.849   2.233  1.8724  0.8005 -1.3075
  795SOL    HW2 2385   0.270   1.844   2.393  3.8736 -0.4770 -4.5082
  796SOL     OW 2386   2.451   1.329   1.997  0.1923  0.0414 -0.2918
  796SOL    HW1 2387   2.442   1.418   1.948 -0.1081  3.8512 -0.9104
  796SOL    HW2 2388   2.468   1.341   2.090 -0.4565  0.8126 -4.1076
  797SOL     OW 2389   2.941   2.753   2.713 -0.0660  0.4577 -0.3530
  797SOL    HW1 2390   3.021   2.714   2.757 -0.9364 -1.5638 -2.4336
  797SOL    HW2 2391   2.870   2.680   2.706 -1.8267 -1.9732  1.7851
  798SOL     OW 2392   3.048   2.041   2.171 -0.2258  0.0834 -0.6747
  798SOL    HW1 2393   2.960   2.086   2.164  3.8944 -2.1197  0.8538
  798SOL    HW2 2394   0.023   2.101   2.138 -0.2762 -1.5531  3.4815
  799SOL     OW 2395   2.974   2.170   2.890  0.0859 -0.4678  0.1186
  799SOL    HW1 2396   2.915   2.130   2.962  0.1010 -1.8507 -2.5128
  799SOL    HW2 2397   2.941   2.123   2.806 -0.9044  0.1335  2.8109
  800SOL     OW 2398   1.428   1.746   0.491  0.0886 -0.5272 -0.8978
  800SOL    HW1 2399   1.342   1.740   0.437 -1.2484 -2.3110  0.1609
  800SOL    HW2 2400   1.419   1.798   0.579  0.0146  4.7021  2.3677
  801SOL     OW 2401   1.911   1.155   0.869 -0.1294 -0.0240 -0.4587
  801SOL    HW1 2402   1.941   1.151   0.771 -0.7020 -1.1467 -0.6736
  801SOL    HW2 2403   1.949   1.072   0.921 -0.3251 -0.4288  2.4227
  802SOL     OW 2404   2.952   1.259   0.159 -0.6491  0.0789 -0.0870
  802SOL    HW1 2405   2.943   1.196   0.237 -0.4399  0.2616 -0.6629
  802SOL    HW2 2406   2.997   1.347   0.168  1.2526 -1.0902 -2.8263
  803SOL     OW 2407   1.403   1.681   2.705  0.4064 -0.4154 -0.4017
  803SOL    HW1 2408   1.370   1.751   2.643  0.5827 -0.8317  2.6691
  803SOL    HW2 2409   1.321   1.626   2.732  0.2984 -2.1807 -0.0883
  804SOL     OW 2410   1.725   1.549   0.163  0.1384  0.5022 -0.1927
  804SOL    HW1 2411   1.667   1.568   0.246  0.1216  0.6983  0.5607
  804SOL    HW2 2412   1.826   1.534   0.184  0.4004  2.1038 -0.8324
  805SOL     OW 2413   2.351   1.760   2.721 -0.6341  0.0519  1.0099
  805SOL    HW1 2414   2.449   1.760   2.725  2.1051  1.2236 -2.9462
  805SOL    HW2 2415   2.314   1.823   2.796 -2.8207  0.0839 -0.2313
  806SOL     OW 2416   0.587   3.052   0.495 -0.2658 -0.6885  0.0894
  806SOL    HW1 2417   0.572   0.043   0.452 -2.0180  2.9134 -0.6270
  806SOL    HW2 2418   0.675   3.050   0.553  2.2741  2.8690 -0.3453
  807SOL     OW 2419   2.068   1.348   2.865  0.1974  0.5155 -0.3806
  807SOL    HW1 2420   2.064   1.445   2.849  0.5430 -3.1067  1.1168
  807SOL    HW2 2421   2.091   1.304   2.776 -0.0903 -1.7462  0.7565
  808SOL     OW 2422   3.068   1.541   0.274 -0.4157  0.8193  0.3419
  808SOL    HW1 2423   3.092   1.543   0.371 -0.6671 -0.0780 -4.3757
  808SOL    HW2 2424   3.028   1.633   0.253  0.5838  0.4440 -1.3844
  809SOL     OW 2425   2.617   1.092   2.871  0.8857  0.3315 -0.4083
  809SOL    HW1 2426   2.517   1.090   2.842  0.3250  2.1051  1.2508
  809SOL    HW2 2427   2.653   1.187   2.883 -1.5710 -0.4520 -0.1211
  810SOL     OW 2428   0.548   1.046   0.128  0.0499  0.8262 -0.0569
  810SOL    HW1 2429   0.597   1.134   0.113 -0.9421 -0.8279 -0.0161
  810SOL    HW2 2430   0.472   1.057   0.196 -0.7765 -0.1088  0.3199
  811SOL     OW 2431   1.154   2.473   1.545  0.8910 -0.7276  0.0953
  811SOL    HW1 2432   1.173   2.534   1.460  1.2324  1.6562 -0.7523
  811SOL    HW2 2433   1.234   2.465   1.607 -1.9219  1.9193  0.8823
  812SOL     OW 2434   0.795   2.400   1.661 -0.0592  0.3481 -0.2308
  812SOL    HW1 2435   0.874   2.371   1.606  0.3197  0.8203  1.3059
  812SOL    HW2 2436   0.706   2.369   1.618 -2.8367 -2.1267 -3.3137
  813SOL     OW 2437   1.345   0.385   2.035  0.5186 -0.0759  0.3188
  813SOL    HW1 2438   1.444   0.362   2.045 -0.3563  0.3081  1.4127
  813SOL    HW2 2439   1.285   0.330   2.093  0.5107  0.5366 -2.5754
  814SOL     OW 2440   1.406   2.486   2.841  0.6347  0.4445 -0.1183
  814SOL    HW1 2441   1.363   2.559   2.787  0.4153 -1.6935  1.4215
  814SOL    HW2 2442   1.461   2.435   2.773 -0.2966 -0.1268  0.5840
  815SOL     OW 2443   0.487   0.130   1.775  0.7655 -0.2471  0.2079
  815SOL    HW1 2444   0.431   0.051   1.808  1.2047  0.6840 -1.1712
  815SOL    HW2 2445   0.436   0.181   1.708 -0.1774  1.5749  0.5082
  816SOL     OW 2446   2.174   0.459   2.962 -0.3559 -0.2894  0.4300
  816SOL    HW1 2447   2.260   0.497   3.001 -0.2405 -0.7768  0.0247
  816SOL    HW2 2448   2.112   0.539   2.942  0.7605  3.6734  1.3879
  817SOL     OW 2449   2.123   0.498   2.304  0.2225 -0.3111 -0.1620
  817SOL    HW1 2450   2.101   0.543   2.209  0.7074  3.1067 -2.0647
  817SOL    HW2 2451   2.131   0.394   2.298 -0.2848  1.6517  0.1304
  818SOL     OW 2452   2.066   0.313   0.067  0.4900  0.2817 -0.5635
  818SOL    HW1 2453   2.104   0.221   0.078 -1.9534  2.0864 -3.2796
  818SOL    HW2 2454   2.113   0.365   3.095  1.0277 -0.3773  2.6278
  819SOL     OW 2455   2.394   1.909   0.020  0.0102  0.0735  0.4036
  819SOL    HW1 2456   2.341   1.940   3.033 -0.0348  0.4676 -2.1347
  819SOL    HW2 2457   2.334   1.911   0.104  2.3087  0.5359 -2.2548
  820SOL     OW 2458   0.035   1.954   0.026 -0.2208  0.5149 -0.2097
  820SOL    HW1 2459   3.041   1.985   0.028  0.1052  1.2973 -1.3426
  820SOL    HW2 2460   0.091   2.018   0.081 -0.2277 -2.0038 -2.3433
  821SOL     OW 2461   0.186   2.464   0.859 -0.5911  0.0715  0.1291
  821SOL    HW1 2462   0.144   2.437   0.943  2.1179 -0.1171 -2.8118
  821SOL    HW2 2463   0.290   2.465   0.875 -1.2111 -1.6224  0.7067
  822SOL     OW 2464   2.687   2.595   2.949  0.2151  0.4166 -0.4069
  822SOL    HW1 2465   2.671   2.575   2.848 -0.4092  2.0825 -0.6175
  822SOL    HW2 2466   2.779   2.542   2.968  2.4445 -1.7213  4.4677
  823SOL     OW 2467   1.509   0.373   2.527  0.2870 -0.0075 -0.1540
  823SOL    HW1 2468   1.557   0.336   2.605 -2.0887  0.3403 -0.6754
  823SOL    HW2 2469   1.457   0.461   2.549 -1.6032 -0.8952 -1.2444
  824SOL     OW 2470   2.753   1.973   1.513 -0.0298  0.3510 -0.4759
  824SOL    HW1 2471   2.756   2.021   1.603  2.3073 -1.9277 -1.5809
  824SOL    HW2 2472   2.796   2.026   1.439 -0.4625 -2.0230 -1.4057
  825SOL     OW 2473   2.563   1.987   2.531  1.2181  0.5418  0.4667
  825SOL    HW1 2474   2.585   2.059   2.597 -1.4036  0.3090 -0.5640
  825SOL    HW2 2475   2.606   1.992   2.439  2.2778 -3.4875  0.0684
  826SOL     OW 2476   2.317   1.682   2.243  0.0958 -0.1119  0.0543
  826SOL    HW1 2477   2.268   1.594   2.205 -0.7347 -1.6846 -2.0492
  826SOL    HW2 2478   2.298   1.696   2.343 -0.3077  1.3027 -2.0541
  827SOL     OW 2479   2.321   2.236   1.245 -0.3723 -0.6398 -0.3387
  827SOL    HW1 2480   2.245   2.244   1.312  3.0067  0.2425  2.7277
  827SOL    HW2 2481   2.334   2.319   1.187 -1.5253 -0.5197 -1.6368
  828SOL     OW 2482   2.878   3.057   1.457  0.4486  0.5288  0.1650
  828SOL    HW1 2483   2.805   3.032   1.389 -1.0940 -2.6379 -1.3290
  828SOL    HW2 2484   2.871   0.051   1.500  2.8600 -0.6423  0.0367
  829SOL     OW 2485   1.674   2.499   2.574 -0.3563  0.1121 -0.4156
  829SOL    HW1 2486   1.636   2.413   2.611  1.3241  1.3006 -0.5451
  829SOL    HW2 2487   1.752   2.532   2.631 -0.9253  0.4247  0.3051
  830SOL     OW 2488   1.288   0.527   0.757 -0.4942 -0.1074 -0.2343
  830SOL    HW1 2489   1.234   0.598   0.812 -0.9941  1.4003  3.7035
  830SOL    HW2 2490   1.349   0.467   0.815  2.3643 -1.2223  0.1315
  831SOL     OW 2491   2.688   1.345   2.894 -0.1647  0.1739 -0.5933
  831SOL    HW1 2492   2.669   1.372   2.992  0.0750  1.8364  0.2284
  831SOL    HW2 2493   2.788   1.354   2.875  0.4546 -1.8942 -0.8395
  832SOL     OW 2494   1.446   1.845   1.993  0.7830 -0.7605  0.4132
  832SOL    HW1 2495   1.401   1.806   2.071  0.5118  3.1436 -1.1434
  832SOL    HW2 2496   1.542   1.859   2.011 -0.4849 -0.8506 -1.7751
  833SOL     OW 2497   3.046   3.066   2.006  0.0150 -0.1883 -0.2333
  833SOL    HW1 2498   3.088   2.975   2.029 -1.6319  0.1780  1.1586
  833SOL    HW2 2499   3.061   0.031   2.088 -0.4989  1.5866 -0.4807
  834SOL     OW 2500   1.010   1.076   1.713 -0.3632 -0.4300  0.6656
  834SOL    HW1 2501   1.012   1.038   1.617 -2.0034  1.7376 -0.2084
  834SOL    HW2 2502   1.066   1.011   1.774  1.8439 -1.1508 -1.0346
  835SOL     OW 2503   2.855   0.815   2.759 -0.3906 -0.0446  0.0186
  835SOL    HW1 2504   2.800   0.868   2.688 -3.7886  4.2528 -2.2543
  835SOL    HW2 2505   2.846   0.713   2.755  0.3994  1.4050  1.4077
  836SOL     OW 2506   1.080   1.793   0.639 -0.5635 -0.1649  0.3983
  836SOL    HW1 2507   1.123   1.789   0.726 -0.5491  2.9249 -1.6713
  836SOL    HW2 2508   1.144   1.765   0.563  0.6244 -1.0098  0.8269
  837SOL     OW 2509   1.558   1.384   1.124 -0.3643  0.3234  0.3564
  837SOL    HW1 2510   1.530   1.473   1.157  1.2417 -1.4774 -0.5230
  837SOL    HW2 2511   1.652   1.380   1.078 -1.5138  1.2431  0.3706
  838SOL     OW 2512   1.260   1.800   2.469 -0.5463 -0.2637  0.2167
  838SOL    HW1 2513   1.213   1.710   2.456 -3.1633  3.4648  1.6878
  838SOL    HW2 2514   1.197   1.865   2.519 -2.3014  2.1585  2.4919
  839SOL     OW 2515   0.609   2.137   2.744  0.1454  0.1066 -0.3458
  839SOL    HW1 2516   0.564   2.052   2.719 -0.5977 -0.0794 -0.8705
  839SOL    HW2 2517   0.572   2.163   2.836 -1.1222  1.5668 -1.8977
  840SOL     OW 2518   0.695   2.373   0.156 -0.2839  0.0466 -0.0938
  840SOL    HW1 2519   0.727   2.314   0.077  0.6531 -0.3889  0.9779
  840SOL    HW2 2520   0.722   2.472   0.138  0.5151  3.9966 -0.7976
  841SOL     OW 2521   1.932   2.490   0.237  0.6389  0.1060  0.3656
  841SOL    HW1 2522   1.849   2.549   0.239 -2.8341  1.3197  1.8069
  841SOL    HW2 2523   2.020   2.542   0.238 -2.1093 -0.0933 -0.9746
  842SOL     OW 2524   0.826   0.585   2.906  0.2282 -0.3337  0.5158
  842SOL    HW1 2525   0.758   0.591   2.829  1.7471  1.0154  0.4077
  842SOL    HW2 2526   0.895   0.660   2.889 -0.1821  1.0841  0.4711
  843SOL     OW 2527   1.176   3.041   0.500  0.3697  0.2739  0.2959
  843SOL    HW1 2528   1.205   0.040   0.508 -0.9539 -1.6645  0.4067
  843SOL    HW2 2529   1.101   3.020   0.568 -1.3211 -0.0843  1.2144
  844SOL     OW 2530   2.367   3.062   2.253 -0.2804  0.4794  0.1214
  844SOL    HW1 2531   2.461   0.004   2.223 -0.5177  0.2227 -0.1596
  844SOL    HW2 2532   2.307   3.056   2.167 -1.2498  1.6234 -3.6268
  845SOL     OW 2533   2.750   2.678   1.258 -0.2470  0.2183  0.1827
  845SOL    HW1 2534   2.832   2.637   1.301 -2.2523  1.7618  0.3502
  845SOL    HW2 2535   2.723   2.624   1.175  2.0288  2.2292  0.3124
  846SOL     OW 2536   0.184   1.851   2.541 -0.7089 -0.0234  0.2036
  846SOL    HW1 2537   0.148   1.757   2.557  1.5542 -0.1841  0.0159
  846SOL    HW2 2538   0.205   1.899   2.630 -1.0486  1.2253  1.4956
  847SOL     OW 2539   1.521   0.712   1.661 -0.7029 -0.4975 -0.0092
  847SOL    HW1 2540   1.442   0.759   1.618  1.0655 -0.3110 -0.5038
  847SOL    HW2 2541   1.507   0.711   1.763 -2.0119 -1.0309 -1.6734
  848SOL     OW 2542   2.734   0.222   0.163 -0.1271 -0.3892 -0.1176
  848SOL    HW1 2543   2.722   0.167   0.244  1.6253 -0.2899 -2.2489
  848SOL    HW2 2544   2.823   0.273   0.165 -0.7823  0.8479 -1.7745
  849SOL     OW 2545   0.536   2.862   2.728 -0.0071  0.6410  0.3095
  849SOL    HW1 2546   0.500   2.877   2.822  2.2349  1.0575  0.4723
  849SOL    HW2 2547   0.634   2.846   2.723 -2.7553  3.4122 -2.3623
  850SOL     OW 2548   1.010   2.584   1.114  0.1413 -0.1191 -0.1862
  850SOL    HW1 2549   1.091   2.520   1.105  1.9920  1.0543  0.4241
  850SOL    HW2 2550   1.037   2.676   1.142  0.0259  2.3591  0.4847
  851SOL     OW 2551   2.797   0.236   2.170 -0.6544  0.2250  0.5164
  851SOL    HW1 2552   2.892   0.201   2.187  1.1516 -1.7268 -0.7239
  851SOL    HW2 2553   2.783   0.325   2.214 -1.1293 -0.3066 -0.8612
  852SOL     OW 2554   2.176   1.222   2.313  0.3683 -0.0782  0.3439
  852SOL    HW1 2555   2.088   1.246   2.359  1.6916  0.9273 -0.9934
  852SOL    HW2 2556   2.251   1.202   2.379 -1.2290  1.4113  1.6679
  853SOL     OW 2557   2.804   2.946   0.605 -0.3075  0.0643  0.2126
  853SOL    HW1 2558   2.804   3.037   0.557  0.1859  1.1993  0.6719
  853SOL    HW2 2559   2.749   2.957   0.692 -0.5701  0.2115  2.5741
  854SOL     OW 2560   2.384   1.112   1.301 -0.6466  0.2198 -1.1461
  854SOL    HW1 2561   2.459   1.054   1.268 -1.5807 -0.4708 -0.4055
  854SOL    HW2 2562   2.303   1.115   1.237  1.2856  2.9669 -0.0238
  855SOL     OW 2563   1.498   2.237   0.520 -0.0482 -0.0472 -0.2245
  855SOL    HW1 2564   1.549   2.268   0.603 -1.6612 -1.4264 -2.3905
  855SOL    HW2 2565   1.566   2.204   0.451 -1.3977 -0.5817 -0.4960
  856SOL     OW 2566   3.053   0.276   2.857 -0.6243 -0.4456  0.2001
  856SOL    HW1 2567   3.016   0.241   2.772 -0.0563 -1.8850  0.0274
  856SOL    HW2 2568   3.051   0.209   2.939 -0.9441 -0.8473 -0.0840
  857SOL     OW 2569   1.433   0.030   1.778  0.4602  0.0221 -0.2722
  857SOL    HW1 2570   1.499   0.108   1.778  3.1062 -1.2082  2.2574
  857SOL    HW2 2571   1.378   0.027   1.866 -0.5975 -2.7448 -1.5971
  858SOL     OW 2572   2.250   2.242   1.646  0.4616  0.3355 -0.2528
  858SOL    HW1 2573   2.311   2.164   1.646 -1.8878  0.4102 -0.7277
  858SOL    HW2 2574   2.191   2.238   1.562 -1.2498  0.9591 -1.0690
  859SOL     OW 2575   1.231   2.411   1.091 -0.6563  0.0093  0.9092
  859SOL    HW1 2576   1.325   2.399   1.117  0.8896 -1.7225 -1.9019
  859SOL    HW2 2577   1.179   2.326   1.119 -3.9855  1.0392  0.4849
  860SOL     OW 2578   2.286   2.412   0.120 -0.3679  0.3254  0.5856
  860SOL    HW1 2579   2.382   2.441   0.120  0.7318 -2.3018 -0.7130
  860SOL    HW2 2580   2.291   2.308   0.141 -2.5014 -1.9328  0.4627
  861SOL     OW 2581   1.734   3.073   0.947  0.5253  0.0766 -0.0584
  861SOL    HW1 2582   1.700   0.052   0.998  6.3938 -0.1624  0.7215
  861SOL    HW2 2583   1.839   3.066   0.954  0.8548 -0.1859 -0.3585
  862SOL     OW 2584   2.023   2.903   2.377 -0.1096 -0.2722 -0.4905
  862SOL    HW1 2585   2.083   2.976   2.408 -4.0861 -3.7218 -2.4312
  862SOL    HW2 2586   2.004   2.909   2.278  1.4873 -0.2778  2.4416
  863SOL     OW 2587   0.242   0.722   0.605  0.5198  0.1533 -0.1052
  863SOL    HW1 2588   0.317   0.653   0.618 -3.8550  0.7332  0.7598
  863SOL    HW2 2589   0.254   0.754   0.511  0.0146  1.3264  1.3259
  864SOL     OW 2590   2.897   2.430   2.249  0.2367 -0.1899  0.2849
  864SOL    HW1 2591   2.989   2.391   2.280 -2.1960  1.1577 -2.3242
  864SOL    HW2 2592   2.901   2.530   2.231  0.9438  0.8792 -0.0650
  865SOL     OW 2593   0.423   1.476   2.754  0.0316 -0.0127 -0.6589
  865SOL    HW1 2594   0.378   1.546   2.814  2.0328 -0.2700  0.8057
  865SOL    HW2 2595   0.493   1.424   2.808 -0.2889 -0.8019  0.9304
  866SOL     OW 2596   2.742   0.559   2.695  0.1009 -0.1891 -0.0738
  866SOL    HW1 2597   2.715   0.545   2.793 -0.3190 -0.4734 -0.7999
  866SOL    HW2 2598   2.763   0.470   2.651  0.8584  0.2487 -0.0532
  867SOL     OW 2599   0.192   2.956   2.876  0.0699  0.4308 -0.0945
  867SOL    HW1 2600   0.285   2.917   2.889  1.3208 -1.2543 -2.8008
  867SOL    HW2 2601   0.156   3.006   2.953  1.7334 -1.6200  0.0514
  868SOL     OW 2602   1.346   2.834   0.850 -0.3345  0.0984  0.2309
  868SOL    HW1 2603   1.447   2.847   0.864 -1.3779  0.3744 -0.8898
  868SOL    HW2 2604   1.308   2.773   0.918  1.1227  0.7504 -0.2635
  869SOL     OW 2605   1.373   1.543   0.913 -0.1447 -0.0238  0.2365
  869SOL    HW1 2606   1.466   1.545   0.872 -2.0422 -0.3895 -0.0466
  869SOL    HW2 2607   1.370   1.574   1.007  2.0311  0.8473 -0.7428
  870SOL     OW 2608   1.854   2.069   1.350 -0.2111  0.3153  0.2388
  870SOL    HW1 2609   1.880   2.036   1.255  0.3600  0.6269 -0.4475
  870SOL    HW2 2610   1.869   1.993   1.418 -0.2429 -1.2152 -0.0283
  871SOL     OW 2611   0.799   1.737   1.593  0.4406 -0.1418  0.2153
  871SOL    HW1 2612   0.758   1.786   1.514 -0.5671  0.6639 -0.6818
  871SOL    HW2 2613   0.875   1.669   1.569  2.7652 -0.7260  0.8153
  872SOL     OW 2614   1.380   1.257   1.274  0.2605 -0.1644  0.3189
  872SOL    HW1 2615   1.449   1.312   1.216  0.5504  3.9094 -0.4092
  872SOL    HW2 2616   1.394   1.278   1.374  0.6707  1.0612  0.2391
  873SOL     OW 2617   1.171   0.982   2.607  0.2541  0.1732 -0.3431
  873SOL    HW1 2618   1.112   1.061   2.574  0.1415 -2.0111 -0.9948
  873SOL    HW2 2619   1.270   0.999   2.616 -1.0959 -0.2550  0.2998
  874SOL     OW 2620   0.005   1.237   1.457  0.3609  0.4275 -0.3288
  874SOL    HW1 2621   3.091   1.286   1.373  1.4980 -1.4952 -0.4794
  874SOL    HW2 2622   0.104   1.204   1.461  2.1101  1.3092 -0.7764
  875SOL     OW 2623   2.654   2.975   0.835 -0.3083 -0.0419 -0.3796
  875SOL    HW1 2624   2.709   3.012   0.916  2.6295  0.4584  2.9787
  875SOL    HW2 2625   2.551   2.979   0.845 -1.3656 -1.4624  1.1697
  876SOL     OW 2626   1.240   0.297   2.666  0.2471  0.1110 -0.2153
  876SOL    HW1 2627   1.259   0.200   2.645 -0.2295  2.1594 -0.4651
  876SOL    HW2 2628   1.185   0.339   2.592  0.1730  0.2391 -1.8095
  877SOL     OW 2629   0.244   0.296   1.212 -1.2002 -0.1460  0.2666
  877SOL    HW1 2630   0.241   0.203   1.247  0.7470  0.6061 -1.9087
  877SOL    HW2 2631   0.152   0.338   1.204  0.1999 -0.8977 -0.4946
  878SOL     OW 2632   1.711   2.840   0.154 -0.0741 -0.5697  0.0567
  878SOL    HW1 2633   1.773   2.923   0.153  1.5029 -3.4481  0.4548
  878SOL    HW2 2634   1.733   2.777   0.230 -0.1814 -0.3550  2.0491
  879SOL     OW 2635   2.064   1.686   1.694  0.8903 -0.0598 -0.3323
  879SOL    HW1 2636   2.103   1.724   1.607 -0.1218  0.7183  2.1176
  879SOL    HW2 2637   2.127   1.713   1.769  0.4128  0.5972 -1.1995
  880SOL     OW 2638   0.969   0.723   1.513 -0.0136 -0.6385  0.0053
  880SOL    HW1 2639   1.016   0.691   1.595 -0.8877 -0.4451 -1.3156
  880SOL    HW2 2640   0.976   0.826   1.511  2.9542 -0.8973 -0.4551
  881SOL     OW 2641   0.989   1.832   3.098  0.2260  0.1055 -0.1137
  881SOL    HW1 2642   0.953   1.863   3.007  1.0407  0.6823 -1.4659
  881SOL    HW2 2643   1.093   1.835   0.005 -1.4284  2.2698 -0.0142
  882SOL     OW 2644   1.749   0.749   1.037  0.6961 -0.5291 -0.2494
  882SOL    HW1 2645   1.672   0.773   1.103  1.8638 -0.2971  1.0380
  882SOL    HW2 2646   1.811   0.681   1.085  0.7645  0.6057  1.7363
  883SOL     OW 2647   1.736   0.667   1.988 -0.2834  0.5206 -0.1316
  883SOL    HW1 2648   1.794   0.696   2.065  1.4536 -2.4565  2.1001
  883SOL    HW2 2649   1.803   0.623   1.920  1.2642  2.1431  0.6825
  884SOL     OW 2650   2.446   0.250   0.062  0.3346  0.2783  0.9252
  884SOL    HW1 2651   2.542   0.235   0.086 -1.2806 -0.2305 -0.1367
  884SOL    HW2 2652   2.431   0.342   0.027 -0.1772 -1.7287  1.0790
  885SOL     OW 2653   0.555   1.988   0.520  0.4222 -0.2225  0.4292
  885SOL    HW1 2654   0.491   2.064   0.491 -1.7735  1.4102 -1.1234
  885SOL    HW2 2655   0.609   2.014   0.604 -1.6277 -0.2971  2.2500
  886SOL     OW 2656   1.700   1.310   0.038  0.2623  0.2523 -0.1001
  886SOL    HW1 2657   1.617   1.260   0.066 -2.4703 -2.0989  2.8061
  886SOL    HW2 2658   1.702   1.397   0.091 -0.2968 -2.1939 -0.6646
  887SOL     OW 2659   1.471   0.453   1.589 -0.6605  0.3488  0.5400
  887SOL    HW1 2660   1.399   0.459   1.517  0.8746  2.1031  1.1302
  887SOL    HW2 2661   1.502   0.547   1.610 -2.2497 -2.7360 -2.7648
  888SOL     OW 2662   3.039   0.972   1.497 -0.5169 -0.1813 -0.2386
  888SOL    HW1 2663   3.066   1.064   1.467  1.6741  0.3047 -3.0407
  888SOL    HW2 2664   2.939   0.959   1.475 -0.6100  1.1096 -1.3954
  889SOL     OW 2665   2.977   2.423   1.021 -0.0106 -0.2901  0.1185
  889SOL    HW1 2666   2.953   2.527   1.019 -0.6715  1.5574 -2.5195
  889SOL    HW2 2667   3.067   2.408   1.072  1.0510 -0.5317 -2.9655
  890SOL     OW 2668   0.053   2.359   2.322  0.1484 -0.1071  0.2420
  890SOL    HW1 2669   0.121   2.369   2.394 -1.7245  0.8022 -3.2269
  890SOL    HW2 2670   0.086   2.284   2.260 -0.3283  1.6765  0.5413
  891SOL     OW 2671   0.576   1.688   0.196 -0.3869  0.2261 -0.2189
  891SOL    HW1 2672   0.601   1.784   0.182 -0.1895  0.6032  1.2986
  891SOL    HW2 2673   0.632   1.661   0.276 -1.5340 -1.4544 -1.1722
  892SOL     OW 2674   3.039   2.247   1.553 -0.5447 -0.5171 -0.5511
  892SOL    HW1 2675   3.045   2.188   1.633 -2.3894  0.0812 -0.6403
  892SOL    HW2 2676   2.948   2.300   1.549 -2.5562  2.6336 -0.9735
  893SOL     OW 2677   0.156   3.033   1.642  0.2093  0.0447  0.3752
  893SOL    HW1 2678   0.085   3.094   1.681  1.8089 -1.3714  0.6696
  893SOL    HW2 2679   0.133   2.937   1.663 -2.6942  0.6624 -1.5223
  894SOL     OW 2680   2.587   1.853   0.927 -0.0435 -0.7689 -0.0622
  894SOL    HW1 2681   2.659   1.897   0.994 -0.9304  0.5540  0.5833
  894SOL    HW2 2682   2.553   1.933   0.870  1.1092  3.1298 -1.5275
  895SOL     OW 2683   2.115   2.536   1.477  0.1348 -0.4088  0.4006
  895SOL    HW1 2684   2.074   2.503   1.565  1.1575  0.8674  0.1415
  895SOL    HW2 2685   2.217   2.528   1.470  0.6217 -0.1773  0.5634
  896SOL     OW 2686   0.755   0.038   1.533  0.1737  0.1769  0.0689
  896SOL    HW1 2687   0.740   0.082   1.626  2.3569 -0.5469  1.3261
  896SOL    HW2 2688   0.750   3.036   1.548 -1.5557 -0.2270 -0.4924
  897SOL     OW 2689   1.021   1.257   1.237 -0.1420  0.7203 -0.3916
  897SOL    HW1 2690   1.101   1.314   1.251 -2.5103 -0.9981  2.0199
  897SOL    HW2 2691   1.014   1.227   1.140  0.0777  0.1454  0.4273
  898SOL     OW 2692   1.419   2.748   1.498 -0.2764  0.0470 -1.0635
  898SOL    HW1 2693   1.489   2.675   1.498  1.7594  2.3513 -3.0560
  898SOL    HW2 2694   1.336   2.719   1.447  2.6295  0.3065 -0.9645
  899SOL     OW 2695   1.131   0.300   2.919 -0.1482  0.0500  0.2407
  899SOL    HW1 2696   1.199   0.269   2.990  0.7671 -2.7958 -1.3627
  899SOL    HW2 2697   1.172   0.293   2.823  3.6657 -2.7728 -0.1421
  900SOL     OW 2698   1.164   2.605   2.149  0.4015 -0.2240  0.0674
  900SOL    HW1 2699   1.196   2.559   2.066 -0.2070 -1.8075 -0.6628
  900SOL    HW2 2700   1.100   2.680   2.130 -0.4882 -0.1257 -0.5898
  901SOL     OW 2701   0.919   2.104   0.188  0.2964  0.1467  0.2896
  901SOL    HW1 2702   0.949   2.157   0.271 -0.9552  1.7650  3.2332
  901SOL    HW2 2703   0.984   2.039   0.152 -0.0713  0.3216 -1.2519
  902SOL     OW 2704   1.726   1.094   1.143 -0.1095  0.0288 -0.0468
  902SOL    HW1 2705   1.656   1.023   1.141  1.1302  2.3996 -0.2846
  902SOL    HW2 2706   1.687   1.188   1.139  0.0597 -0.3892  1.9929
  903SOL     OW 2707   2.678   0.979   2.626 -0.2575  0.5402  0.5991
  903SOL    HW1 2708   2.657   1.047   2.699 -1.2631  1.9188  2.9082
  903SOL    HW2 2709   2.651   1.021   2.535  0.5913  1.6641 -1.5489
  904SOL     OW 2710   0.894   1.391   0.142 -0.1133  0.7925  0.8128
  904SOL    HW1 2711   0.913   1.490   0.178 -0.3703  0.1777  0.5961
  904SOL    HW2 2712   0.963   1.325   0.171 -1.2958  0.3309 -0.1785
  905SOL     OW 2713   1.659   2.988   1.282  0.0639  0.0593  0.1970
  905SOL    HW1 2714   1.709   3.074   1.273  0.5289  0.6167 -1.4710
  905SOL    HW2 2715   1.573   2.992   1.227  0.9571 -0.2880  2.4827
  906SOL     OW 2716   2.180   3.012   0.840 -0.4173 -0.0632  0.0146
  906SOL    HW1 2717   2.189   3.045   0.746 -1.3016 -3.0202 -1.3455
  906SOL    HW2 2718   2.269   3.018   0.894  2.3187  1.1715  0.7798
  907SOL     OW 2719   1.498   0.825   0.601  0.0298  0.2586  0.4616
  907SOL    HW1 2720   1.552   0.915   0.598  0.0731  2.5664  0.9486
  907SOL    HW2 2721   1.399   0.842   0.606  0.7374  0.1007 -1.6248
  908SOL     OW 2722   1.811   0.283   1.213  0.2137 -0.2570  0.0188
  908SOL    HW1 2723   1.825   0.372   1.167  2.7082  0.4442  1.7132
  908SOL    HW2 2724   1.731   0.284   1.278 -0.3491  0.5799 -0.6529
  909SOL     OW 2725   1.925   0.588   1.174  0.1703 -0.2116 -0.2119
  909SOL    HW1 2726   1.975   0.596   1.087 -0.1724  1.2371 -1.7381
  909SOL    HW2 2727   1.988   0.600   1.255  2.1441 -0.6486 -1.0399
  910SOL     OW 2728   2.549   0.598   1.969 -0.3894  0.3318 -0.0825
  910SOL    HW1 2729   2.515   0.687   1.935  1.2323 -2.1321  1.7040
  910SOL    HW2 2730   2.471   0.531   1.980  0.0264 -2.2784 -1.4471
  911SOL     OW 2731   2.423   0.349   2.702 -0.0831 -0.3130 -0.4359
  911SOL    HW1 2732   2.365   0.432   2.711  0.7983  1.0673  0.6399
  911SOL    HW2 2733   2.493   0.351   2.780  0.2811 -1.6439  1.7624
  912SOL     OW 2734   0.708   1.073   1.758 -0.0081 -0.3236  0.2013
  912SOL    HW1 2735   0.791   1.130   1.769  0.1345 -0.4926 -0.2528
  912SOL    HW2 2736   0.687   1.051   1.660 -1.4634  2.0897  1.8319
  913SOL     OW 2737   2.764   2.419   1.554 -0.2229 -0.2308 -0.1425
  913SOL    HW1 2738   2.794   2.425   1.648 -2.0000  0.5732 -1.0023
  913SOL    HW2 2739   2.747   2.509   1.509  1.3042 -5.1155 -0.9362
  914SOL     OW 2740   1.924   0.917   1.598 -0.1245  0.4820 -0.0370
  914SOL    HW1 2741   1.963   0.985   1.536 -1.0505 -0.2268  0.9331
  914SOL    HW2 2742   1.854   0.966   1.654  0.1953  0.2010  0.4277
  915SOL     OW 2743   2.640   1.166   0.786 -0.5028 -0.7514  0.3816
  915SOL    HW1 2744   2.552   1.159   0.839 -0.6805 -2.9864  1.5151
  915SOL    HW2 2745   2.704   1.241   0.827  1.8038 -1.4807 -0.0872
  916SOL     OW 2746   1.901   2.375   1.181  0.4098 -0.0749  0.1440
  916SOL    HW1 2747   1.929   2.463   1.222  1.6691 -3.4651 -0.3642
  916SOL    HW2 2748   1.840   2.329   1.247  0.6874  2.7378 -0.5521
  917SOL     OW 2749   2.021   2.632   2.406  0.6610 -0.1120  0.3060
  917SOL    HW1 2750   1.963   2.612   2.488  0.4376  1.0539 -0.3452
  917SOL    HW2 2751   2.035   2.735   2.406  0.4198  3.2576  2.6175
  918SOL     OW 2752   1.840   2.873   2.586 -0.2241 -0.5374 -0.0014
  918SOL    HW1 2753   1.780   2.954   2.592  1.5386 -0.5918  1.0762
  918SOL    HW2 2754   1.893   2.870   2.497  0.0766 -0.1000  1.3039
  919SOL     OW 2755   0.986   0.108   1.413  0.2640  0.6496 -0.0174
  919SOL    HW1 2756   0.907   0.100   1.470  0.3029 -1.5276  0.0086
  919SOL    HW2 2757   1.032   0.017   1.425 -0.0875 -2.3445 -2.2417
  920SOL     OW 2758   2.836   0.472   2.357  0.5742  0.5641 -0.0359
  920SOL    HW1 2759   2.806   0.433   2.444  0.5979 -0.5258 -3.2758
  920SOL    HW2 2760   2.892   0.553   2.373 -0.8252  1.7523  3.1054
  921SOL     OW 2761   0.023   0.869   1.732  0.2317  0.3115 -0.0294
  921SOL    HW1 2762   0.110   0.901   1.777 -0.1576 -1.9657  0.7814
  921SOL    HW2 2763   3.093   0.924   1.649 -0.7376 -0.4889 -3.7997
  922SOL     OW 2764   2.383   2.524   0.648 -0.5943  0.0643 -0.2678
  922SOL    HW1 2765   2.482   2.544   0.658 -1.4441 -1.0203  1.5396
  922SOL    HW2 2766   2.320   2.607   0.665  2.3087  1.5544 -0.6857
  923SOL     OW 2767   0.650   2.163   0.730  0.3801 -0.4575 -0.4526
  923SOL    HW1 2768   0.690   2.253   0.703 -1.9458 -0.4652 -2.2141
  923SOL    HW2 2769   0.599   2.162   0.816  2.8227 -0.6411 -1.0311
  924SOL     OW 2770   1.012   0.891   2.801 -0.5559  0.0599 -0.5023
  924SOL    HW1 2771   0.921   0.940   2.805  1.1935 -2.3120  0.0150
  924SOL    HW2 2772   1.076   0.929   2.730  2.1371  1.9796 -1.1083
  925SOL     OW 2773   2.549   1.270   0.553 -0.5771 -0.0195 -0.4217
  925SOL    HW1 2774   2.606   1.228   0.628 -1.4084  2.0821  0.7707
  925SOL    HW2 2775   2.491   1.339   0.597 -1.4686  2.0487  0.0375
  926SOL     OW 2776   0.498   0.284   1.113  0.1060 -0.1993  0.2328
  926SOL    HW1 2777   0.547   0.232   1.179 -3.7021  0.4177 -2.6699
  926SOL    HW2 2778   0.398   0.286   1.137  1.2446 -1.4554  0.8435
  927SOL     OW 2779   0.471   1.654   2.522  0.0563  0.1070 -0.4038
  927SOL    HW1 2780   0.474   1.583   2.598  1.6923 -0.8426  1.3750
  927SOL    HW2 2781   0.444   1.609   2.436  4.6460 -1.9662  1.1566
  928SOL     OW 2782   0.198   0.489   2.130  0.2218  0.5665  0.0636
  928SOL    HW1 2783   0.163   0.448   2.219  1.9672  1.2834 -2.2817
  928SOL    HW2 2784   0.192   0.416   2.058 -1.7993 -1.6752  0.1233
  929SOL     OW 2785   3.026   2.605   1.384  0.5197 -0.1150 -0.6158
  929SOL    HW1 2786   3.091   2.567   1.323 -0.3355  3.7654  3.9069
  929SOL    HW2 2787   3.045   2.707   1.388  0.8488 -1.7359  0.5476
  930SOL     OW 2788   1.919   0.271   1.980 -0.7372  0.1351 -0.7173
  930SOL    HW1 2789   1.996   0.206   1.975  3.7864 -1.2675 -1.5250
  930SOL    HW2 2790   1.908   0.316   2.071 -0.9489  1.9341  1.3728
  931SOL     OW 2791   2.355   1.144   2.830 -0.3020 -0.1765  0.8663
  931SOL    HW1 2792   2.339   1.124   2.930  0.2275  2.1767 -1.6177
  931SOL    HW2 2793   2.272   1.177   2.782 -0.7639 -0.2146 -0.1379
  932SOL     OW 2794   1.934   1.367   0.600  0.3388  0.1318 -0.7586
  932SOL    HW1 2795   1.973   1.274   0.602 -0.9996  2.5184 -1.3180
  932SOL    HW2 2796   1.852   1.376   0.542 -0.7237  1.2151  0.0715
  933SOL     OW 2797   1.774   1.749   1.126  0.7883  0.6374  0.4060
  933SOL    HW1 2798   1.762   1.729   1.023 -3.1854 -1.5854 -2.0515
  933SOL    HW2 2799   1.824   1.683   1.178 -1.5897  0.7336  0.5792
  934SOL     OW 2800   2.210   0.945   2.638 -0.0051 -0.1530 -0.3851
  934SOL    HW1 2801   2.247   0.919   2.732  2.0826 -0.7237 -0.0863
  934SOL    HW2 2802   2.218   0.867   2.574  1.3447 -0.8027 -0.8980
  935SOL     OW 2803   0.103   1.170   0.549  0.3849 -0.6619  0.0920
  935SOL    HW1 2804   0.160   1.224   0.481 -3.8951  0.2407  1.0187
  935SOL    HW2 2805   0.046   1.237   0.599 -2.6286  2.0456  2.4900
  936SOL     OW 2806   0.156   2.727   0.719 -0.0653  0.2454 -0.1170
  936SOL    HW1 2807   0.245   2.762   0.695  0.2279 -0.1456 -1.2810
  936SOL    HW2 2808   0.164   2.639   0.757 -0.3024  1.0772 -0.6571
  937SOL     OW 2809   2.942   2.424   1.765  0.7345  0.3098  0.3696
  937SOL    HW1 2810   2.900   2.480   1.839 -1.1728 -0.1777  0.1691
  937SOL    HW2 2811   3.019   2.377   1.802 -0.7973 -0.1864 -0.8615
  938SOL     OW 2812   2.703   2.332   0.124 -0.6816  0.3303  0.1316
  938SOL    HW1 2813   2.624   2.374   0.075 -4.3219  0.5757 -0.8447
  938SOL    HW2 2814   2.692   2.333   0.226  0.4652  0.3305  1.7897
  939SOL     OW 2815   1.236   1.007   1.344 -0.4078 -0.1101  0.5149
  939SOL    HW1 2816   1.299   1.085   1.330  0.5035  2.3628 -2.1619
  939SOL    HW2 2817   1.221   0.944   1.266  0.5166 -0.7170  0.8181
  940SOL     OW 2818   2.790   0.329   2.582  0.2945 -0.2193 -0.4430
  940SOL    HW1 2819   2.697   0.294   2.561  1.3478  0.3703 -3.2828
  940SOL    HW2 2820   2.863   0.255   2.594  2.7619 -3.1682 -1.0745
  941SOL     OW 2821   2.758   2.562   2.673  0.4495 -0.1026  0.2173
  941SOL    HW1 2822   2.685   2.580   2.599 -1.6310  0.5075 -3.5451
  941SOL    HW2 2823   2.793   2.466   2.674  1.0852  0.0658 -0.6806
  942SOL     OW 2824   1.385   0.148   1.347 -0.5803 -0.3190  0.5226
  942SOL    HW1 2825   1.365   0.076   1.418 -0.1521  2.0608  0.3896
  942SOL    HW2 2826   1.466   0.210   1.364  1.6483  0.5907 -2.3984
  943SOL     OW 2827   1.091   1.289   2.078  0.7147  0.0739 -0.1056
  943SOL    HW1 2828   1.063   1.190   2.084  0.3263 -1.4813  3.2006
  943SOL    HW2 2829   1.017   1.339   2.025 -2.3611 -2.0288  0.0503
  944SOL     OW 2830   2.167   1.144   1.153  0.1561  0.3690  0.0537
  944SOL    HW1 2831   2.105   1.081   1.097 -1.3820 -1.2513 -0.8391
  944SOL    HW2 2832   2.150   1.244   1.145  1.0922  0.5113  1.0895
  945SOL     OW 2833   2.903   3.010   2.806  0.1175  0.1354  0.6145
  945SOL    HW1 2834   2.897   2.925   2.751 -0.7325 -0.2903  0.8897
  945SOL    HW2 2835   2.924   2.998   2.903 -0.6678 -0.0553 -0.2065
  946SOL     OW 2836   0.001   1.313   1.724  0.3090 -0.5946 -0.3702
  946SOL    HW1 2837   0.002   1.282   1.629  1.4501  0.9325  0.1905
  946SOL    HW2 2838   0.092   1.321   1.765 -1.3067 -0.3019 -1.6453
  947SOL     OW 2839   0.911   2.985   0.286 -0.3877  0.1356  0.2457
  947SOL    HW1 2840   0.856   3.039   0.219  1.6377  0.2374 -1.0325
  947SOL    HW2 2841   0.893   3.004   0.385 -0.1992 -2.4269  0.7129
  948SOL     OW 2842   2.309   1.718   1.323 -0.0533  0.4286  0.6189
  948SOL    HW1 2843   2.392   1.765   1.359 -2.0920 -2.2513  1.6355
  948SOL    HW2 2844   2.325   1.706   1.222  3.4337  0.4168 -3.4035
  949SOL     OW 2845   0.233   0.876   2.707 -0.4543 -0.1344  0.3986
  949SOL    HW1 2846   0.144   0.928   2.702  1.6683  2.6589  0.5549
  949SOL    HW2 2847   0.309   0.948   2.710  1.3380  0.7572 -0.6606
  950SOL     OW 2848   0.409   2.430   1.337 -0.5721  0.2870  0.0458
  950SOL    HW1 2849   0.373   2.524   1.330  2.8526  0.7951 -0.8261
  950SOL    HW2 2850   0.481   2.416   1.267 -0.4696 -1.5767  0.3369
  951SOL     OW 2851   0.911   1.697   2.687  0.0519 -0.1651 -0.5958
  951SOL    HW1 2852   0.853   1.651   2.755 -0.1348 -1.8164 -1.0452
  951SOL    HW2 2853   0.852   1.733   2.611 -0.7493  0.2353  0.2983
  952SOL     OW 2854   0.549   1.137   0.491  0.1714 -0.3839  0.0009
  952SOL    HW1 2855   0.592   1.076   0.559  0.3288 -2.0956  0.1704
  952SOL    HW2 2856   0.491   1.215   0.530  2.4918  1.9879  0.1487
  953SOL     OW 2857   2.467   2.513   2.706 -0.2831  0.0979 -0.2792
  953SOL    HW1 2858   2.491   2.572   2.625  1.2685 -2.3058 -0.0342
  953SOL    HW2 2859   2.365   2.505   2.709  0.3828 -2.6587  0.9377
  954SOL     OW 2860   1.707   0.944   0.855  0.0635 -0.0827  0.0796
  954SOL    HW1 2861   1.706   0.870   0.930 -2.3486 -0.8168  3.9346
  954SOL    HW2 2862   1.723   1.034   0.904  0.0397  0.5384  1.4828
  955SOL     OW 2863   0.700   1.944   0.256  0.5972  0.2157 -0.2979
  955SOL    HW1 2864   0.767   2.006   0.211 -0.9106 -0.3250 -0.5778
  955SOL    HW2 2865   0.670   1.973   0.349 -0.2878 -0.6803 -0.2484
  956SOL     OW 2866   2.674   0.294   1.762 -0.6904 -0.6608  0.7642
  956SOL    HW1 2867   2.727   0.386   1.762  0.9975  2.0721 -2.2202
  956SOL    HW2 2868   2.637   0.272   1.851  1.7826 -2.0109  0.5205
  957SOL     OW 2869   1.811   2.302   1.889 -0.3087  0.8293 -0.0292
  957SOL    HW1 2870   1.781   2.289   1.988  1.1581  1.2950 -0.4723
  957SOL    HW2 2871   1.802   2.211   1.841 -0.9486  0.0101 -1.6567
  958SOL     OW 2872   1.704   0.990   1.734 -0.0890 -0.0348  0.1459
  958SOL    HW1 2873   1.644   0.960   1.808  4.0166  4.2018 -3.5825
  958SOL    HW2 2874   1.697   1.094   1.727 -2.1401  1.8041  0.2553
  959SOL     OW 2875   1.462   2.151   2.318 -0.1435 -0.2223 -0.3010
  959SOL    HW1 2876   1.526   2.232   2.324  0.6946 -1.5610  0.3246
  959SOL    HW2 2877   1.492   2.063   2.368 -0.0914  0.4897  0.2322
  960SOL     OW 2878   0.599   0.555   2.749 -0.0886 -0.2548 -0.2394
  960SOL    HW1 2879   0.504   0.590   2.742 -0.4011  2.5807  0.5015
  960SOL    HW2 2880   0.649   0.556   2.658  0.2754 -2.3941 -3.4883
  961SOL     OW 2881   3.086   0.976   2.758 -0.0137 -0.6114  0.2547
  961SOL    HW1 2882   3.021   0.902   2.752  1.7468 -0.7483  1.2743
  961SOL    HW2 2883   3.060   1.055   2.694 -1.5669  0.6371 -0.9302
  962SOL     OW 2884   0.894   1.989   2.877 -0.0219  0.5575 -0.2984
  962SOL    HW1 2885   0.792   1.983   2.895 -0.8823  2.4409 -0.5407
  962SOL    HW2 2886   0.896   2.021   2.782 -1.9265 -1.3345  2.8468
  963SOL     OW 2887   2.835   2.107   0.023  0.1948 -0.0825 -0.5035
  963SOL    HW1 2888   2.753   2.051   3.088 -2.0901  1.6505 -1.0371
  963SOL    HW2 2889   2.811   2.194   0.065  0.0771 -0.4286  0.3787
  964SOL     OW 2890   0.907   2.212   2.252 -0.7924 -0.0472  0.1145
  964SOL    HW1 2891   0.820   2.183   2.297  0.0856 -2.1140  0.6917
  964SOL    HW2 2892   0.917   2.309   2.269  0.0571 -0.9598 -1.0664
  965SOL     OW 2893   1.612   1.921   1.239  0.5902  0.1332 -0.2631
  965SOL    HW1 2894   1.654   1.984   1.307 -1.5786  1.3765 -1.0153
  965SOL    HW2 2895   1.674   1.848   1.204 -1.7329  0.9919  2.7102
  966SOL     OW 2896   3.020   1.719   3.023  0.2200  0.3359 -0.0597
  966SOL    HW1 2897   3.072   1.788   3.072  1.1661  1.4110 -0.3448
  966SOL    HW2 2898   3.074   1.634   3.024  0.3480  0.0961 -0.7793
  967SOL     OW 2899   1.965   3.028   2.131  0.4030  0.0737  0.0389
  967SOL    HW1 2900   2.065   3.025   2.112 -0.2460 -0.2979  2.1886
  967SOL    HW2 2901   1.902   3.008   2.053  0.5753 -2.2092 -1.9197
  968SOL     OW 2902   0.910   0.728   0.111 -0.1518  0.1666 -0.0478
  968SOL    HW1 2903   0.888   0.798   0.040 -0.2534 -0.2622 -2.2333
  968SOL    HW2 2904   0.983   0.666   0.073  0.7927 -0.7219 -0.8657
  969SOL     OW 2905   0.595   1.423   2.315 -0.1473 -0.1231 -0.0682
  969SOL    HW1 2906   0.505   1.464   2.295  1.0737  1.4410 -1.0831
  969SOL    HW2 2907   0.644   1.381   2.236  0.2921 -2.9740 -2.8397
  970SOL     OW 2908   1.954   2.876   0.899 -0.3485 -0.5962 -0.7633
  970SOL    HW1 2909   1.910   2.828   0.819 -0.7367 -0.9027 -1.1974
  970SOL    HW2 2910   2.029   2.938   0.864  0.9271  2.9908 -0.4771
  971SOL     OW 2911   1.978   2.362   0.663  0.6718  0.3879 -0.2529
  971SOL    HW1 2912   1.991   2.330   0.759 -0.4581  0.1264  4.9430
  971SOL    HW2 2913   2.061   2.353   0.605  1.3932  1.2122  3.1388
  972SOL     OW 2914   3.054   1.201   2.614 -0.5869  0.2332 -0.3716
  972SOL    HW1 2915   3.007   1.196   2.527 -0.6256  0.7598 -0.2587
  972SOL    HW2 2916   0.045   1.249   2.618  0.2366 -0.5118  1.5386
  973SOL     OW 2917   0.527   0.177   0.307 -0.3506  0.0261  0.4531
  973SOL    HW1 2918   0.602   0.208   0.244 -1.8603 -1.1781  0.3952
  973SOL    HW2 2919   0.445   0.153   0.244 -1.0789 -2.0545 -1.0934
  974SOL     OW 2920   2.503   0.868   1.896  0.1748 -0.4981 -0.4594
  974SOL    HW1 2921   2.592   0.884   1.939 -1.7933 -0.9830  1.0549
  974SOL    HW2 2922   2.452   0.957   1.885 -0.7341  0.0460  0.1118
  975SOL     OW 2923   3.075   0.069   0.763 -0.2188 -0.7316  0.1727
  975SOL    HW1 2924   3.073   0.048   0.866  0.9223 -3.9424  2.3183
  975SOL    HW2 2925   2.980   0.072   0.720  1.1648  1.3708  0.1756
  976SOL     OW 2926   0.702   1.738   1.252  0.6888  0.2209  0.0158
  976SOL    HW1 2927   0.613   1.715   1.289  0.4833 -1.4531 -1.3904
  976SOL    HW2 2928   0.741   1.808   1.313  0.9821  0.6362  2.3676
  977SOL     OW 2929   1.206   1.984   0.221  0.2774  0.0871 -0.3914
  977SOL    HW1 2930   1.263   1.988   0.136  0.4944  1.8298  0.2178
  977SOL    HW2 2931   1.234   2.069   0.270 -0.0747  0.3474 -1.4430
  978SOL     OW 2932   0.021   0.550   0.036 -0.1993  0.2407 -0.1907
  978SOL    HW1 2933   0.008   0.547   3.034 -2.0662 -0.5773 -0.1591
  978SOL    HW2 2934   0.112   0.512   0.058  2.3717 -1.8875  0.6859
  979SOL     OW 2935   1.775   1.695   0.840  0.1996 -0.0754  0.6369
  979SOL    HW1 2936   1.726   1.611   0.804  1.6946 -0.3005 -1.4553
  979SOL    HW2 2937   1.741   1.785   0.805  2.7614 -1.1800  2.6113
  980SOL     OW 2938   0.539   2.020   1.962 -0.4538  0.3534  0.1302
  980SOL    HW1 2939   0.591   1.940   1.927  2.7165 -1.8339 -0.4779
  980SOL    HW2 2940   0.586   2.106   1.934  0.3913 -0.3938 -0.2276
  981SOL     OW 2941   2.434   1.416   2.536  0.1389 -0.1948 -0.2018
  981SOL    HW1 2942   2.484   1.454   2.616  1.5298  2.4482  3.1314
  981SOL    HW2 2943   2.350   1.473   2.519  0.3869 -1.0092 -0.1544
  982SOL     OW 2944   0.090   2.277   1.879 -0.0499 -0.2324 -0.5526
  982SOL    HW1 2945   0.012   2.213   1.865 -0.9119 -1.4859 -1.8028
  982SOL    HW2 2946   0.138   2.261   1.966 -0.4618  0.8520 -0.4868
  983SOL     OW 2947   1.581   0.266   1.768  0.1778  0.0837 -0.8314
  983SOL    HW1 2948   1.538   0.338   1.721  0.8886 -3.5974  3.1970
  983SOL    HW2 2949   1.647   0.213   1.709 -0.4432  3.6519 -0.2022
  984SOL     OW 2950   2.750   2.803   0.046 -0.0719 -0.2181  0.0711
  984SOL    HW1 2951   2.711   2.753   3.068 -0.6850  1.2236  1.6331
  984SOL    HW2 2952   2.765   2.741   0.127  2.7510  0.0379  0.7044
  985SOL     OW 2953   1.407   1.235   1.985 -0.0888  0.2591  0.1910
  985SOL    HW1 2954   1.404   1.324   2.039 -1.8252 -0.1420  0.2503
  985SOL    HW2 2955   1.440   1.163   2.045 -3.4547 -0.8233 -2.0948
  986SOL     OW 2956   1.979   0.149   2.612 -0.3461 -0.0482  0.3752
  986SOL    HW1 2957   2.059   0.133   2.554 -2.0045  2.6516 -0.3461
  986SOL    HW2 2958   2.012   0.167   2.709 -1.7190  0.0132 -1.0883
  987SOL     OW 2959   2.624   1.787   2.713 -0.0736 -0.2477  0.1972
  987SOL    HW1 2960   2.716   1.808   2.744 -3.4852  1.4062 -1.6978
  987SOL    HW2 2961   2.599   1.860   2.644 -2.7549  0.6358  0.9922
  988SOL     OW 2962   3.041   0.608   1.231  0.4055  0.0458  0.0869
  988SOL    HW1 2963   3.042   0.509   1.261  2.9697 -0.4546  1.6614
  988SOL    HW2 2964   3.088   0.671   1.295  0.6847 -1.3251 -0.1169
  989SOL     OW 2965   1.979   0.959   1.050 -0.7373  0.5735  0.0141
  989SOL    HW1 2966   1.974   0.861   1.020  0.3011 -2.9804  0.8256
  989SOL    HW2 2967   1.883   0.979   1.084 -3.2761  0.5991  0.4838
  990SOL     OW 2968   2.622   0.357   2.920 -0.2663  0.1853  0.8164
  990SOL    HW1 2969   2.709   0.409   2.932 -1.1551 -1.6133 -1.0690
  990SOL    HW2 2970   2.647   0.253   2.914 -0.1749 -3.6921  1.5177
  991SOL     OW 2971   0.083   1.530   0.018  0.0658  0.4631 -0.2802
  991SOL    HW1 2972   0.065   1.428   0.005 -0.9958 -3.2366 -2.1308
  991SOL    HW2 2973   0.142   1.543   0.100 -0.2059 -1.7025 -1.0434
  992SOL     OW 2974   2.165   1.479   1.919 -0.2891  0.3892 -0.4790
  992SOL    HW1 2975   2.180   1.580   1.932  1.0477  2.1007 -1.5935
  992SOL    HW2 2976   2.210   1.445   1.829  1.6289 -2.8730 -2.5040
  993SOL     OW 2977   0.459   2.574   0.694  0.1451  0.3240 -0.1452
  993SOL    HW1 2978   0.487   2.527   0.781 -2.0999  1.1078  2.9186
  993SOL    HW2 2979   0.453   2.676   0.700 -0.2202 -1.9161  0.8853
  994SOL     OW 2980   2.953   1.792   1.463  0.0150 -0.0954  0.0649
  994SOL    HW1 2981   2.988   1.793   1.556  1.3757 -0.9796  0.7991
  994SOL    HW2 2982   2.882   1.865   1.448 -4.1220 -1.8650  1.6050
  995SOL     OW 2983   1.577   2.038   2.683  0.2750  0.3210 -0.1613
  995SOL    HW1 2984   1.661   1.985   2.697 -2.4555 -1.7522  1.2031
  995SOL    HW2 2985   1.536   2.003   2.594  1.5665 -2.5864  0.0098
  996SOL     OW 2986   2.253   1.890   0.254  0.3512  0.2141  0.0849
  996SOL    HW1 2987   2.152   1.913   0.251  2.0159 -0.6153  3.5992
  996SOL    HW2 2988   2.278   1.890   0.353  2.0557  0.6637  2.5044
  997SOL     OW 2989   1.527   1.268   2.479 -0.2273 -0.1927  0.3179
  997SOL    HW1 2990   1.497   1.218   2.559  1.6575  1.0632 -1.2582
  997SOL    HW2 2991   1.532   1.369   2.505  0.0420  1.0410 -1.6046
  998SOL     OW 2992   2.964   2.334   0.777  0.2917  0.0549  0.5965
  998SOL    HW1 2993   3.017   2.398   0.714  0.3399 -0.1188 -0.3836
  998SOL    HW2 2994   2.979   2.358   0.877 -3.0965  0.0541  1.5747
  999SOL     OW 2995   0.244   2.528   0.510 -0.2860 -0.0544  0.3611
  999SOL    HW1 2996   0.305   2.551   0.581  0.4934 -0.7566 -0.9509
  999SOL    HW2 2997   0.293   2.520   0.421  0.7233 -0.6421  0.9463
 1000SOL     OW 2998   1.133   0.035   0.096 -0.0862 -0.1027 -0.2496
 1000SOL    HW1 2999   1.128   3.047   0.151 -1.6684  1.5636  1.3290
 1000SOL    HW2 3000   1.124   0.015   3.095  0.4850 -1.8276 -1.9949
   3.09841   3.09841   3.09841
