1000 SPC/Fw water molecules t= 240.00000 step= 240000
 3000
    1SOL     OW    1   2.839   2.828   1.065 -0.3666 -0.6007  0.4659
    1SOL    HW1    2   2.832   2.899   0.989  3.1041 -0.6672  0.3390
    1SOL    HW2    3   2.745   2.818   1.109  1.3482 -0.6386  0.8653
    2SOL     OW    4   1.758   1.783   1.385  0.3307  0.2852 -0.2824
    2SOL    HW1    5   1.674   1.748   1.435  1.8369  0.1586 -1.5918
    2SOL    HW2    6   1.833   1.714   1.394 -1.4117  2.4896  2.6647
    3SOL     OW    7   1.603   2.439   2.915 -0.3917  0.1306 -0.0504
    3SOL    HW1    8   1.636   2.509   2.984  1.3549 -2.2128  1.9184
    3SOL    HW2    9   1.681   2.414   2.857  1.4267 -0.9696 -1.0242
    4SOL     OW   10   1.788   1.954   1.934  0.6235 -0.7430  0.1704
    4SOL    HW1   11   1.732   1.892   1.986  1.6984  0.0805 -2.9485
    4SOL    HW2   12   1.792   1.929   1.836 -0.9215  1.7325 -2.4945
    5SOL     OW   13   1.246   1.250   1.375  0.1951 -0.3067 -0.0347
    5SOL    HW1   14   1.290   1.262   1.284  1.7336  0.4929  0.4224
    5SOL    HW2   15   1.244   1.145   1.393 -1.1924 -0.5012  1.0839
    6SOL     OW   16   2.325   0.098   0.059  0.5517  0.1958  0.1718
    6SOL    HW1   17   2.357   0.149   3.057  3.3997  0.1178  0.0520
    6SOL    HW2   18   2.379   0.012   0.067 -1.5154  1.1270  0.6717
    7SOL     OW   19   2.784   1.637   1.552  0.3555  0.2839  0.5741
    7SOL    HW1   20   2.792   1.617   1.648  1.6558  2.5196 -0.7994
    7SOL    HW2   21   2.862   1.588   1.498  1.8618 -5.0987  1.5501
    8SOL     OW   22   1.014   0.439   1.028  0.3425  0.4897  0.1749
    8SOL    HW1   23   1.009   0.529   0.979 -1.6550  0.5848  1.6918
    8SOL    HW2   24   1.111   0.400   1.024 -0.8017  0.2474  0.8048
    9SOL     OW   25   1.617   0.449   2.583 -0.0938 -0.1521 -0.5755
    9SOL    HW1   26   1.597   0.546   2.596  0.7557 -1.1808 -1.1766
    9SOL    HW2   27   1.632   0.431   2.486  0.8226 -0.5015  1.2045
   10SOL     OW   28   0.572   2.150   0.216 -0.3197 -0.3861 -0.2367
   10SOL    HW1   29   0.524   2.069   0.179  2.1789  2.1616  2.7869
   10SOL    HW2   30   0.564   2.149   0.319 -0.9955 -1.4337  1.8295
   11SOL     OW   31   1.005   0.977   0.357  0.3855  0.1469  0.1004
   11SOL    HW1   32   0.905   0.949   0.359 -2.7298  1.6970  1.4713
   11SOL    HW2   33   1.035   0.999   0.261 -0.4972 -0.8151 -1.4970
   12SOL     OW   34   0.119   0.109   1.525 -0.2631  0.1276  0.0575
   12SOL    HW1   35   0.043   0.160   1.576  1.2221  1.8774 -0.9953
   12SOL    HW2   36   0.207   0.155   1.532 -5.6539  1.5065  2.1806
   13SOL     OW   37   1.440   0.086   0.251  0.2924  0.1492 -0.3755
   13SOL    HW1   38   1.360   0.139   0.274  4.0147 -2.0107 -1.9728
   13SOL    HW2   39   1.493   0.058   0.333  0.1732  0.3041 -0.7904
   14SOL     OW   40   1.123   2.439   1.232  0.6860 -0.0341  0.5519
   14SOL    HW1   41   1.126   2.452   1.333 -1.0641  0.8063  1.5045
   14SOL    HW2   42   1.202   2.388   1.192 -0.4558 -1.8172  0.1853
   15SOL     OW   43   2.589   1.174   1.631  0.0993  0.3342 -0.3217
   15SOL    HW1   44   2.678   1.206   1.593 -0.3569  1.7254 -1.0992
   15SOL    HW2   45   2.565   1.234   1.712  2.2162  0.0938  2.3885
   16SOL     OW   46   1.913   2.793   2.986  0.5518 -0.6661 -0.2838
   16SOL    HW1   47   1.853   2.869   2.944 -2.5062  3.4475 -1.5231
   16SOL    HW2   48   1.894   2.702   2.955 -2.7977  0.5184  1.0006
   17SOL     OW   49   0.855   0.048   1.498 -0.4040  0.9553  0.0154
   17SOL    HW1   50   0.785   3.056   1.487  0.1731  1.5378  3.3890
   17SOL    HW2   51   0.871   0.094   1.409  0.3039  1.6372 -1.1373
   18SOL     OW   52   1.282   0.527   2.940 -0.0071  0.2489  0.1200
   18SOL    HW1   53   1.308   0.453   3.004 -0.8973  2.9583  0.9486
   18SOL    HW2   54   1.359   0.587   2.934 -2.3277 -2.2259 -1.0208
   19SOL     OW   55   2.025   2.006   2.861 -0.2987  0.3256 -0.2128
   19SOL    HW1   56   2.058   1.910   2.870 -0.5930  2.5865  0.1270
   19SOL    HW2   57   1.961   2.032   2.937 -0.5848  0.2431  1.1068
   20SOL     OW   58   2.076   1.742   1.641  0.4072  0.2058 -0.4002
   20SOL    HW1   59   2.066   1.682   1.723 -0.3398  1.5197  0.7789
   20SOL    HW2   60   2.073   1.695   1.551 -4.0749 -0.1135  1.1468
   21SOL     OW   61   0.758   1.463   2.835 -0.1277  0.0351 -0.1226
   21SOL    HW1   62   0.846   1.495   2.797 -1.1605  0.1063  4.9573
   21SOL    HW2   63   0.759   1.422   2.926 -0.1414  0.0370 -2.3605
   22SOL     OW   64   1.812   2.804   1.350  0.1045  0.4206 -0.0497
   22SOL    HW1   65   1.753   2.876   1.388 -0.5996  1.5160  1.1778
   22SOL    HW2   66   1.759   2.734   1.298 -0.0199  0.4626 -1.2209
   23SOL     OW   67   0.036   0.552   1.594  0.0771  0.5748  0.2048
   23SOL    HW1   68   0.124   0.528   1.551 -1.5104 -0.6669 -1.3131
   23SOL    HW2   69   3.072   0.635   1.563  1.8550 -1.6220  0.8984
   24SOL     OW   70   2.211   2.527   0.939 -0.0731 -0.3651 -0.1248
   24SOL    HW1   71   2.186   2.534   1.037 -1.1364  1.2295  0.2740
   24SOL    HW2   72   2.180   2.435   0.908 -1.4537  1.5070  1.8988
   25SOL     OW   73   1.541   2.801   2.750  0.0390 -0.3320  0.4301
   25SOL    HW1   74   1.591   2.730   2.699 -1.2801  2.2864  0.0727
   25SOL    HW2   75   1.444   2.807   2.719 -1.8339  1.1821 -0.8790
   26SOL     OW   76   1.892   2.755   2.666 -0.6316 -0.6551  0.7505
   26SOL    HW1   77   1.972   2.800   2.623 -1.5006 -0.4229  0.9942
   26SOL    HW2   78   1.851   2.820   2.732  2.4001 -1.6911 -1.7970
   27SOL     OW   79   0.137   1.804   2.570 -0.0715 -0.3106  0.7560
   27SOL    HW1   80   0.099   1.900   2.579 -2.8031  0.7265  0.1391
   27SOL    HW2   81   0.063   1.737   2.548 -2.6729 -1.3726 -0.8987
   28SOL     OW   82   2.885   1.022   1.449 -0.5968  0.1770 -0.0455
   28SOL    HW1   83   2.793   1.009   1.409  1.4662  0.5173  1.3045
   28SOL    HW2   84   2.893   1.111   1.499 -2.9044 -0.4437 -0.6078
   29SOL     OW   85   2.290   2.473   1.514 -0.4201 -0.1488  0.2345
   29SOL    HW1   86   2.229   2.443   1.592  0.4395  0.2315 -1.4368
   29SOL    HW2   87   2.374   2.524   1.546  3.4920 -0.7505 -0.6188
   30SOL     OW   88   1.400   0.367   0.049 -0.4455 -0.5225 -0.2209
   30SOL    HW1   89   1.370   0.389   0.146 -1.7294  0.7795 -2.3855
   30SOL    HW2   90   1.502   0.338   0.049 -0.0828 -1.4690  0.1282
   31SOL     OW   91   2.505   2.628   1.635  1.0830  0.2807 -0.6021
   31SOL    HW1   92   2.469   2.706   1.691  0.5661  0.5549  0.3228
   31SOL    HW2   93   2.569   2.656   1.565 -1.7856 -2.6739 -1.7689
   32SOL     OW   94   0.937   1.569   1.347 -0.3649  0.4370  0.2125
   32SOL    HW1   95   0.892   1.654   1.321  0.5859 -2.6713  0.1837
   32SOL    HW2   96   0.962   1.505   1.270  0.5142 -0.7611 -2.1400
   33SOL     OW   97   0.394   2.730   2.190  0.6759 -0.4171 -0.0898
   33SOL    HW1   98   0.488   2.704   2.216  0.8363  0.3940 -0.4768
   33SOL    HW2   99   0.390   2.732   2.087 -1.6569  2.0918  0.7934
   34SOL     OW  100   1.500   0.044   0.544  0.4632  0.1192  0.0259
   34SOL    HW1  101   1.408   0.083   0.557 -0.7383  0.8677  1.2837
   34SOL    HW2  102   1.545   0.020   0.633  2.1853 -0.8756  1.8962
   35SOL     OW  103   2.017   3.066   0.788 -0.1090  0.0126 -0.1289
   35SOL    HW1  104   2.000   3.003   0.707 -0.4330  1.3880 -2.1971
   35SOL    HW2  105   1.938   0.018   0.830  0.4006 -1.1047  0.1037
   36SOL     OW  106   1.868   2.447   2.277 -0.0638  0.5442 -0.2515
   36SOL    HW1  107   1.823   2.404   2.357 -2.0957 -1.0202 -0.6762
   36SOL    HW2  108   1.948   2.395   2.256 -4.6340  0.5810  0.0696
   37SOL     OW  109   0.723   2.780   2.465  0.1958 -0.2518  0.0510
   37SOL    HW1  110   0.687   2.815   2.375  2.2004 -0.8950  1.2073
   37SOL    HW2  111   0.649   2.785   2.537  1.8913  1.1321 -0.4269
   38SOL     OW  112   0.338   2.661   2.463 -0.5384  0.5963 -0.0594
   38SOL    HW1  113   0.379   2.570   2.479 -2.6514 -0.2945  1.8919
   38SOL    HW2  114   0.358   2.698   2.369 -0.9001 -0.1473  2.2695
   39SOL     OW  115   2.437   1.258   2.013 -0.5180 -0.4628 -0.2308
   39SOL    HW1  116   2.474   1.321   1.943  1.7918 -0.0524  0.6296
   39SOL    HW2  117   2.363   1.299   2.071 -1.1278  1.3749 -0.3748
   40SOL     OW  118   0.357   2.818   3.066 -0.5135 -0.1600  0.1963
   40SOL    HW1  119   0.457   2.811   0.011  6.0522 -1.8149  1.3692
   40SOL    HW2  120   0.333   2.737   3.009 -0.8138  1.7346 -3.9016
   41SOL     OW  121   1.911   0.746   1.085 -0.0139  0.4851  0.2659
   41SOL    HW1  122   2.002   0.789   1.089  0.0087  0.5909 -2.2213
   41SOL    HW2  123   1.910   0.679   1.008  0.3817 -2.8827  0.3960
   42SOL     OW  124   0.480   0.357   1.194 -0.2283  0.3483 -0.0422
   42SOL    HW1  125   0.538   0.385   1.116 -0.5892  1.2214 -3.0566
   42SOL    HW2  126   0.435   0.431   1.244 -0.8204 -1.2754  0.2635
   43SOL     OW  127   2.636   1.376   2.860 -0.0739  0.5353  0.3397
   43SOL    HW1  128   2.591   1.290   2.882  1.0464  1.2050 -0.5548
   43SOL    HW2  129   2.686   1.364   2.775  1.5275 -3.3512  0.8031
   44SOL     OW  130   3.014   0.030   0.768  0.2232  0.3972 -0.3761
   44SOL    HW1  131   3.070   0.110   0.807  0.1933 -0.1614 -0.4893
   44SOL    HW2  132   3.036   3.024   0.820  1.3823 -0.5890 -0.3491
   45SOL     OW  133   0.070   2.709   1.402  0.5311  0.1276 -0.0373
   45SOL    HW1  134   0.092   2.776   1.478 -2.7628 -0.4667  4.0518
   45SOL    HW2  135   0.039   2.763   1.322  1.2966 -2.3201 -2.2461
   46SOL     OW  136   2.351   2.451   2.501  0.2569  0.2977  0.2242
   46SOL    HW1  137   2.326   2.354   2.485  1.5472 -0.1859  1.8468
   46SOL    HW2  138   2.269   2.510   2.477  0.2836  1.5263  0.0252
   47SOL     OW  139   2.051   1.948   1.163 -0.1032 -0.1563  0.2221
   47SOL    HW1  140   2.033   2.042   1.126 -0.3130 -0.1419 -0.3625
   47SOL    HW2  141   1.994   1.879   1.120  0.8292  1.2002  1.6125
   48SOL     OW  142   0.557   1.543   0.191 -0.4901 -0.3588  0.4706
   48SOL    HW1  143   0.627   1.510   0.129 -3.0206  0.3265  3.4224
   48SOL    HW2  144   0.526   1.465   0.246 -0.7728 -3.1240 -1.4237
   49SOL     OW  145   3.031   0.267   2.564 -0.4218 -0.3181 -0.4373
   49SOL    HW1  146   2.940   0.306   2.589  0.3854  3.0664 -1.5311
   49SOL    HW2  147   3.072   0.303   2.477 -1.4035 -0.4949  0.0824
   50SOL     OW  148   2.237   0.869   0.357 -0.0464 -0.5851 -0.8086
   50SOL    HW1  149   2.133   0.864   0.364 -1.5647  2.6557  1.6741
   50SOL    HW2  150   2.249   0.883   0.255 -0.9380 -0.4366  0.3868
   51SOL     OW  151   2.209   0.803   1.080  0.3115  0.1434 -0.2349
   51SOL    HW1  152   2.258   0.784   1.168  3.6513  0.3775 -0.8084
   51SOL    HW2  153   2.268   0.797   0.998  1.1502  0.1818  0.7640
   52SOL     OW  154   1.241   1.127   2.788  0.3415 -0.3421 -0.0170
   52SOL    HW1  155   1.303   1.196   2.746  0.4170  0.9645  0.4176
   52SOL    HW2  156   1.276   1.029   2.773  0.9572 -3.8444 -0.4212
   53SOL     OW  157   0.642   1.554   1.898 -0.1333  0.3301 -0.3476
   53SOL    HW1  158   0.586   1.520   1.823 -0.2799  0.4016 -0.0603
   53SOL    HW2  159   0.737   1.514   1.885  0.4354 -3.0317 -0.2209
   54SOL     OW  160   2.094   0.321   0.959 -0.2334  0.6671 -0.2229
   54SOL    HW1  161   2.114   0.314   0.858 -2.9683 -0.6783 -1.0398
   54SOL    HW2  162   2.164   0.382   1.003 -0.9781  2.9226 -0.2954
   55SOL     OW  163   2.453   2.305   1.063 -0.7154 -0.6247  0.2695
   55SOL    HW1  164   2.401   2.217   1.081 -3.0972 -2.6633  0.7835
   55SOL    HW2  165   2.463   2.321   0.962  1.4091  2.5160 -1.0047
   56SOL     OW  166   1.034   3.023   1.817  0.2707 -0.1501 -0.3001
   56SOL    HW1  167   1.102   3.033   1.892  0.6273  0.4328 -1.5619
   56SOL    HW2  168   1.038   0.018   1.743  0.0260  0.7487  0.5865
   57SOL     OW  169   1.492   1.534   0.040  0.4860 -0.7463 -0.2167
   57SOL    HW1  170   1.495   1.482   3.032  0.4015 -4.1851  0.1502
   57SOL    HW2  171   1.491   1.635   0.019 -1.3932  0.8078  1.1898
   58SOL     OW  172   2.996   0.934   2.470  0.2609  0.6181  0.0628
   58SOL    HW1  173   0.006   0.977   2.496 -2.2724  0.1692  0.3746
   58SOL    HW2  174   2.964   0.860   2.531 -1.5244 -0.4169  1.9484
   59SOL     OW  175   0.852   2.674   2.755 -0.5008  0.0025  0.4196
   59SOL    HW1  176   0.931   2.744   2.775  1.7312  2.3395 -2.6008
   59SOL    HW2  177   0.888   2.592   2.709  2.5786 -0.4512 -1.4418
   60SOL     OW  178   2.599   2.385   0.713  0.1131 -0.3554 -0.2204
   60SOL    HW1  179   2.621   2.469   0.768  0.2085 -1.7963 -0.8313
   60SOL    HW2  180   2.598   2.407   0.611 -0.6306  1.1099 -3.2034
   61SOL     OW  181   1.135   2.180   0.781  0.4184 -0.2182  0.3556
   61SOL    HW1  182   1.077   2.259   0.760 -1.0816 -2.0971 -1.7624
   61SOL    HW2  183   1.097   2.093   0.747  1.1247  3.0053  3.1393
   62SOL     OW  184   2.185   1.931   2.527 -0.3132  0.7303 -0.0640
   62SOL    HW1  185   2.212   1.931   2.628  2.4355  1.0404 -0.5894
   62SOL    HW2  186   2.234   1.862   2.472 -1.6739 -1.8956  0.8315
   63SOL     OW  187   2.174   2.880   3.021  0.7449  0.8152 -0.8121
   63SOL    HW1  188   2.086   2.829   2.998 -3.7048  0.5923  0.5477
   63SOL    HW2  189   2.228   2.894   2.935 -2.7940  2.4808 -2.3626
   64SOL     OW  190   1.277   0.623   2.605 -0.0461 -0.2070 -0.1580
   64SOL    HW1  191   1.288   0.531   2.639  0.7630  1.0366 -0.5770
   64SOL    HW2  192   1.342   0.651   2.527  1.2143  0.6768 -2.6640
   65SOL     OW  193   1.336   2.564   0.107 -0.3046  0.1796  0.5467
   65SOL    HW1  194   1.288   2.629   0.042  0.1501  2.0540 -0.5605
   65SOL    HW2  195   1.394   2.622   0.170  1.7015 -0.2122  0.0285
   66SOL     OW  196   0.302   1.293   1.655  0.3174  0.8959 -0.0367
   66SOL    HW1  197   0.244   1.210   1.684  1.2400 -1.6429  0.2570
   66SOL    HW2  198   0.239   1.366   1.627  4.1184 -0.5242  1.4387
   67SOL     OW  199   2.789   2.838   2.868 -0.0317  0.5901  0.4529
   67SOL    HW1  200   2.700   2.802   2.832 -1.5791 -1.1106  3.1024
   67SOL    HW2  201   2.849   2.860   2.786 -1.7096 -0.4141  1.4579
   68SOL     OW  202   0.575   2.400   1.389  0.0658 -0.1562 -0.0036
   68SOL    HW1  203   0.591   2.327   1.464 -0.3240  0.5337 -0.4704
   68SOL    HW2  204   0.667   2.433   1.355  1.7175  0.3249 -1.1884
   69SOL     OW  205   0.545   2.204   0.477  0.0291  0.4498 -0.2112
   69SOL    HW1  206   0.599   2.289   0.480  2.3198 -1.0395  0.0397
   69SOL    HW2  207   0.544   2.166   0.572 -0.4448  0.4631 -1.9394
   70SOL     OW  208   2.585   1.072   2.593  0.5300 -0.4774 -0.7994
   70SOL    HW1  209   2.676   1.082   2.556 -1.5806 -0.6108 -0.5012
   70SOL    HW2  210   2.535   0.994   2.548 -2.4417 -0.6213  0.0128
   71SOL     OW  211   0.685   1.097   2.396  0.4080 -0.5510 -0.3849
   71SOL    HW1  212   0.658   1.016   2.344 -1.0374 -1.3337  1.1201
   71SOL    HW2  213   0.631   1.180   2.369  3.3648  1.2835 -0.1127
   72SOL     OW  214   0.257   2.160   0.403 -0.4314  0.0499 -0.3446
   72SOL    HW1  215   0.348   2.212   0.397  1.3298 -3.8479 -1.1159
   72SOL    HW2  216   0.191   2.211   0.459  0.6769 -0.9120 -0.9039
   73SOL     OW  217   1.035   1.388   0.332  0.3415  0.6332 -0.5271
   73SOL    HW1  218   1.016   1.465   0.398  2.2797 -1.7653  1.0549
   73SOL    HW2  219   1.125   1.337   0.340 -0.4326 -1.7439 -0.4578
   74SOL     OW  220   2.643   3.052   0.137 -0.4827 -0.2439  0.2965
   74SOL    HW1  221   2.562   2.989   0.132  0.0444  0.8252  0.0376
   74SOL    HW2  222   2.649   0.028   0.218 -2.2156 -2.1935 -0.8670
   75SOL     OW  223   2.218   1.663   2.017  0.0864  0.0159  0.7476
   75SOL    HW1  224   2.156   1.623   1.947 -1.1099  2.9168 -0.2293
   75SOL    HW2  225   2.262   1.752   1.988  1.8849  2.9767  0.5662
   76SOL     OW  226   1.960   2.685   1.748 -0.7670 -0.2362 -0.5579
   76SOL    HW1  227   1.862   2.699   1.734  1.6296 -2.6403  2.2570
   76SOL    HW2  228   2.013   2.722   1.666  0.0125  1.5414 -1.8166
   77SOL     OW  229   2.352   0.488   1.289 -0.1039  0.1409  0.8106
   77SOL    HW1  230   2.332   0.389   1.288  0.3748 -1.1881  0.2624
   77SOL    HW2  231   2.413   0.498   1.369  1.8998 -1.5230  0.4131
   78SOL     OW  232   1.940   0.967   2.874  0.3681  0.4867 -0.3563
   78SOL    HW1  233   1.947   0.941   2.973  1.9962 -2.4952  1.1163
   78SOL    HW2  234   1.925   0.887   2.809 -0.6622 -2.9145 -2.5156
   79SOL     OW  235   0.373   1.359   2.099 -0.4053 -0.0037  0.4722
   79SOL    HW1  236   0.312   1.432   2.060 -0.8639  2.0875  1.4884
   79SOL    HW2  237   0.381   1.276   2.039 -1.6779 -1.3826 -1.6278
   80SOL     OW  238   1.729   0.811   1.266  0.4362  0.0524 -0.0445
   80SOL    HW1  239   1.807   0.775   1.207 -0.8586 -2.6024 -0.4017
   80SOL    HW2  240   1.642   0.753   1.264 -0.3300 -0.9763 -1.1239
   81SOL     OW  241   1.124   0.386   1.379  0.2279  0.0700 -0.1692
   81SOL    HW1  242   1.151   0.321   1.301  1.5830 -2.1991  0.2907
   81SOL    HW2  243   1.082   0.477   1.345 -2.7301  1.5635  2.5486
   82SOL     OW  244   1.399   2.212   1.755  0.7051 -0.4596  0.1799
   82SOL    HW1  245   1.374   2.257   1.664  1.5337  1.2510  0.3888
   82SOL    HW2  246   1.498   2.213   1.765 -4.2308  2.3513 -0.5290
   83SOL     OW  247   0.651   0.032   0.853  0.5986  0.4821  0.0063
   83SOL    HW1  248   0.716   0.004   0.928 -0.0380  1.0549  0.9076
   83SOL    HW2  249   0.623   0.129   0.875 -2.3633  1.6373 -0.4721
   84SOL     OW  250   0.158   0.898   2.969 -0.0344 -0.2650 -0.1277
   84SOL    HW1  251   0.256   0.891   2.953 -1.9242  2.6950  1.8298
   84SOL    HW2  252   0.118   0.993   2.943  0.7373  0.1643  1.9964
   85SOL     OW  253   2.818   2.493   1.754 -0.5456 -0.1042  0.5157
   85SOL    HW1  254   2.835   2.566   1.681 -2.6189 -1.6460 -1.5819
   85SOL    HW2  255   2.720   2.469   1.760  0.2373  1.0768 -0.6555
   86SOL     OW  256   2.929   2.648   1.565  0.1059 -0.5131  0.2246
   86SOL    HW1  257   2.948   2.729   1.626 -0.8864 -1.2543  0.4353
   86SOL    HW2  258   2.995   2.644   1.490 -3.1354 -3.3401  2.9391
   87SOL     OW  259   0.117   2.930   0.045  0.4581 -0.5898  0.8351
   87SOL    HW1  260   0.206   2.877   0.030  0.2889 -1.2028 -0.0894
   87SOL    HW2  261   0.047   2.890   3.068  0.6195  2.3135 -0.7664
   88SOL     OW  262   0.201   1.972   1.139 -0.0686 -0.0042 -0.5280
   88SOL    HW1  263   0.165   2.069   1.129 -1.2856 -1.8782  1.0469
   88SOL    HW2  264   0.134   1.901   1.104  0.2652 -0.6232 -0.9203
   89SOL     OW  265   1.116   0.739   1.665  0.1582 -0.2031  0.1624
   89SOL    HW1  266   1.156   0.654   1.702 -0.8529 -0.3659  0.2552
   89SOL    HW2  267   1.188   0.810   1.679  0.0434 -1.7191 -0.8521
   90SOL     OW  268   2.848   1.687   1.939 -0.5768 -0.0457  0.1828
   90SOL    HW1  269   2.822   1.647   2.025  1.1475  3.8333 -2.5432
   90SOL    HW2  270   2.838   1.788   1.952  1.9141  1.3167  1.5907
   91SOL     OW  271   1.500   1.859   0.808  0.3772 -0.2201  0.7458
   91SOL    HW1  272   1.495   1.801   0.892  1.7700  1.8004  0.2443
   91SOL    HW2  273   1.472   1.951   0.832 -0.5701 -2.5449  0.3790
   92SOL     OW  274   2.238   0.537   1.044 -0.4437  0.2034  0.7736
   92SOL    HW1  275   2.173   0.611   1.054  0.3953  0.2284 -4.0099
   92SOL    HW2  276   2.290   0.528   1.131  0.1308  1.0151 -0.0893
   93SOL     OW  277   2.420   1.681   3.030  0.2334 -0.2146 -0.1398
   93SOL    HW1  278   2.390   1.721   2.941  0.3200 -1.1017 -1.2533
   93SOL    HW2  279   2.433   1.582   3.035 -0.0224 -0.4100 -1.8048
   94SOL     OW  280   2.268   2.183   2.432 -0.0453 -0.0645  0.0892
   94SOL    HW1  281   2.250   2.095   2.487  0.9024 -2.4801 -0.0171
   94SOL    HW2  282   2.346   2.163   2.367  0.1166 -4.5284 -0.4612
   95SOL     OW  283   1.855   0.427   1.048 -0.7320  0.0002 -0.0593
   95SOL    HW1  284   1.817   0.478   0.970  0.4217 -1.7892  0.8394
   95SOL    HW2  285   1.947   0.390   1.021  3.3377 -0.8173 -1.7571
   96SOL     OW  286   2.783   3.022   1.686 -0.2618  0.2467 -0.3994
   96SOL    HW1  287   2.708   2.978   1.736  0.5399 -0.7761 -1.0208
   96SOL    HW2  288   2.796   0.042   1.702 -1.3487  0.4266  0.5294
   97SOL     OW  289   2.081   2.905   1.125  0.0315 -0.5980 -0.3645
   97SOL    HW1  290   2.107   2.885   1.027 -1.2534  2.1207 -1.9995
   97SOL    HW2  291   2.061   3.002   1.133  2.4021 -2.0873 -0.6520
   98SOL     OW  292   1.423   2.320   1.496 -0.0157 -0.0600 -0.4584
   98SOL    HW1  293   1.504   2.379   1.519  0.5311  0.7525  1.8633
   98SOL    HW2  294   1.457   2.243   1.444 -1.7162  3.1457  1.7416
   99SOL     OW  295   2.573   2.788   1.931  0.5647  0.0609 -0.2512
   99SOL    HW1  296   2.575   2.852   2.013 -0.4911  2.2572 -1.2193
   99SOL    HW2  297   2.667   2.752   1.917 -3.2519  1.4366  0.8922
  100SOL     OW  298   0.313   0.869   2.643  0.4766  0.0717  0.1670
  100SOL    HW1  299   0.365   0.894   2.728  2.4475 -0.5745 -0.6431
  100SOL    HW2  300   0.363   0.794   2.592 -0.7623  0.0457 -0.5665
  101SOL     OW  301   1.998   0.928   0.055  0.1582  0.1818 -0.1424
  101SOL    HW1  302   2.045   0.991   0.123  4.1950 -0.2116  0.3468
  101SOL    HW2  303   1.978   0.835   0.093 -0.2069  0.4372  0.4035
  102SOL     OW  304   0.283   0.515   1.521  0.0483  0.0898 -0.2696
  102SOL    HW1  305   0.346   0.590   1.561  1.7312  1.5612  0.9976
  102SOL    HW2  306   0.315   0.420   1.550  0.1883  1.4217  0.3856
  103SOL     OW  307   2.911   0.965   2.204 -0.4237 -0.0635  0.0624
  103SOL    HW1  308   2.937   0.936   2.300  2.3159 -1.5530  0.9535
  103SOL    HW2  309   2.838   1.036   2.208  1.4360  1.0621  0.2386
  104SOL     OW  310   0.338   0.292   2.635 -0.7428 -0.0092  0.1816
  104SOL    HW1  311   0.432   0.256   2.616  1.0715 -2.5113 -0.3620
  104SOL    HW2  312   0.284   0.298   2.544  0.3247 -2.6645 -2.8008
  105SOL     OW  313   1.985   1.986   1.430 -0.2284 -0.2184 -0.1039
  105SOL    HW1  314   1.921   1.914   1.449  2.1499  2.5672 -0.9381
  105SOL    HW2  315   1.997   1.996   1.330 -3.5615 -2.8512  0.3209
  106SOL     OW  316   1.877   0.231   0.514 -0.4549 -0.0192 -0.0450
  106SOL    HW1  317   1.928   0.173   0.446 -0.5186 -1.5942 -2.4063
  106SOL    HW2  318   1.939   0.291   0.567  0.7983 -2.3419  1.2271
  107SOL     OW  319   0.111   1.817   1.658 -0.1303  0.0444  0.3593
  107SOL    HW1  320   0.151   1.896   1.704  2.4119 -5.8304  0.8408
  107SOL    HW2  321   0.080   1.833   1.560  1.0477 -2.4720 -0.8274
  108SOL     OW  322   2.887   2.843   1.999  0.7148 -0.5960  0.3656
  108SOL    HW1  323   2.944   2.827   1.917 -1.1741  1.0306 -1.7785
  108SOL    HW2  324   2.944   2.847   2.080 -4.6736 -1.1274 -1.5177
  109SOL     OW  325   1.674   0.289   0.356 -0.0517 -0.0215  0.1882
  109SOL    HW1  326   1.762   0.262   0.404  2.8096  0.8887 -2.0772
  109SOL    HW2  327   1.592   0.255   0.403  3.0772  0.1373  1.9453
  110SOL     OW  328   0.421   2.060   2.313  0.1719 -0.2571 -1.0392
  110SOL    HW1  329   0.353   2.099   2.379 -1.3952  0.0973  1.1017
  110SOL    HW2  330   0.415   1.958   2.306 -2.0234 -3.2714 -2.7607
  111SOL     OW  331   1.560   2.350   2.190 -0.0195 -0.4787  0.4837
  111SOL    HW1  332   1.644   2.291   2.174  1.2726 -2.2085  1.2411
  111SOL    HW2  333   1.474   2.291   2.180 -0.8363  0.3735 -0.1540
  112SOL     OW  334   1.605   2.627   2.563 -0.4938 -0.1815 -0.2935
  112SOL    HW1  335   1.673   2.558   2.599 -0.5332  1.8660  0.2267
  112SOL    HW2  336   1.546   2.599   2.487 -0.9111 -0.6480  1.5797
  113SOL     OW  337   1.660   2.464   1.546 -0.3863 -0.0390 -0.1588
  113SOL    HW1  338   1.742   2.409   1.523 -1.4408 -1.5390  0.7214
  113SOL    HW2  339   1.665   2.523   1.627  1.4196 -1.3510 -0.8431
  114SOL     OW  340   2.786   0.725   0.786  0.4748 -1.0937  0.6096
  114SOL    HW1  341   2.759   0.818   0.751  3.8176 -0.3417 -1.1009
  114SOL    HW2  342   2.769   0.653   0.714 -0.2088 -0.6402  1.4148
  115SOL     OW  343   0.439   0.887   2.897  0.2785  0.1768  0.1804
  115SOL    HW1  344   0.463   0.970   2.949 -3.5967 -0.1013  0.1706
  115SOL    HW2  345   0.515   0.821   2.910 -2.3457  1.0403  0.1266
  116SOL     OW  346   0.138   1.333   2.249 -0.2764  0.1085 -0.7576
  116SOL    HW1  347   0.090   1.258   2.202  1.6230 -1.8698  1.6216
  116SOL    HW2  348   0.225   1.353   2.204 -0.7088  0.7109  2.1002
  117SOL     OW  349   2.498   0.017   0.665 -0.0911 -0.6213 -0.4868
  117SOL    HW1  350   2.590   0.034   0.703  2.0539  0.0080 -0.9561
  117SOL    HW2  351   2.492   3.000   0.638 -1.8048 -1.3505 -0.3536
  118SOL     OW  352   1.191   1.903   1.491  0.2579 -0.1475 -0.7077
  118SOL    HW1  353   1.172   1.812   1.445  2.0089 -1.5535  0.1210
  118SOL    HW2  354   1.291   1.925   1.492 -0.4778  0.8510 -0.6978
  119SOL     OW  355   0.772   2.154   2.743 -0.3546  0.4039 -0.2616
  119SOL    HW1  356   0.866   2.166   2.787  0.5874  0.1044  1.4812
  119SOL    HW2  357   0.692   2.178   2.802 -4.0635  0.1716  0.5112
  120SOL     OW  358   0.641   0.685   2.937 -0.0706 -0.0375  0.0528
  120SOL    HW1  359   0.583   0.605   2.911  0.2193 -1.3838 -2.0098
  120SOL    HW2  360   0.714   0.709   2.862  0.4950  0.3338  0.6160
  121SOL     OW  361   1.764   2.542   1.114 -0.5260  0.0578  0.3930
  121SOL    HW1  362   1.808   2.625   1.070 -1.5736  0.3064  2.1774
  121SOL    HW2  363   1.717   2.482   1.041 -0.3884  0.7426 -1.9072
  122SOL     OW  364   2.158   2.361   1.696 -0.0174 -0.6259  0.1592
  122SOL    HW1  365   2.141   2.398   1.784 -0.8927 -1.4996 -0.4739
  122SOL    HW2  366   2.139   2.263   1.704  1.8682  2.6447  1.9249
  123SOL     OW  367   0.340   2.853   0.444  0.4083  0.0856  0.2341
  123SOL    HW1  368   0.400   2.772   0.453 -0.3407  0.0117 -0.4920
  123SOL    HW2  369   0.257   2.836   0.390 -2.1942  1.9490  2.5058
  124SOL     OW  370   2.184   1.274   2.643 -0.1030 -0.3216  0.5758
  124SOL    HW1  371   2.258   1.343   2.666  2.1549 -1.2303 -0.6029
  124SOL    HW2  372   2.199   1.185   2.694 -0.4558 -0.6948 -0.0841
  125SOL     OW  373   0.584   1.001   0.603 -0.5550  0.2648 -0.5377
  125SOL    HW1  374   0.668   0.986   0.660 -1.2516 -3.8746  0.3707
  125SOL    HW2  375   0.545   1.094   0.599  1.7707  0.8830 -0.8155
  126SOL     OW  376   2.773   1.848   0.797 -0.5857  0.1433  0.7508
  126SOL    HW1  377   2.819   1.935   0.770 -0.2265  3.3809 -0.3022
  126SOL    HW2  378   2.682   1.860   0.840  1.4821  2.0080 -0.5217
  127SOL     OW  379   0.075   2.136   1.897 -0.0917  0.4141 -0.1850
  127SOL    HW1  380   0.140   2.080   1.835  1.7247 -2.0619 -2.0608
  127SOL    HW2  381   0.072   2.084   1.987 -0.4929 -0.8716  0.8027
  128SOL     OW  382   0.926   0.749   0.047  0.3945  0.0833  0.4401
  128SOL    HW1  383   0.898   0.691   0.127 -0.9664 -1.0997 -1.7906
  128SOL    HW2  384   0.890   0.842   0.061  0.4677 -2.2084  2.4769
  129SOL     OW  385   2.521   1.092   1.070  0.6394 -0.1098 -0.5993
  129SOL    HW1  386   2.524   1.178   1.020 -0.4470 -0.8209  2.0547
  129SOL    HW2  387   2.564   1.017   1.017  1.1529  0.3119 -1.6426
  130SOL     OW  388   2.348   1.144   1.531 -0.3604 -0.1133  0.5742
  130SOL    HW1  389   2.444   1.143   1.575  3.2261  0.4274  3.0444
  130SOL    HW2  390   2.347   1.139   1.428  1.2394  0.6199 -1.4197
  131SOL     OW  391   2.796   3.069   3.004 -0.5057 -0.2229  0.2452
  131SOL    HW1  392   2.804   2.978   2.960 -1.7844  4.3222  2.0393
  131SOL    HW2  393   2.732   3.064   0.001 -2.6939  1.0992 -1.6156
  132SOL     OW  394   2.915   2.250   1.724  0.4697  0.1267 -0.6684
  132SOL    HW1  395   2.877   2.345   1.725 -1.5890 -1.8360  0.8844
  132SOL    HW2  396   2.992   2.236   1.788  1.4233 -0.4530  1.0427
  133SOL     OW  397   1.030   0.621   1.290  0.0837 -0.5409 -0.2661
  133SOL    HW1  398   0.966   0.593   1.215  2.2053  1.0976 -1.6678
  133SOL    HW2  399   0.991   0.701   1.341  0.8559  0.6528 -1.2016
  134SOL     OW  400   0.159   1.254   0.472 -0.4434 -0.5659 -0.3866
  134SOL    HW1  401   0.067   1.280   0.445  2.3125  1.7003 -0.1276
  134SOL    HW2  402   0.219   1.261   0.388  2.1464  0.7379 -2.4904
  135SOL     OW  403   2.098   0.997   1.481  0.2648  0.8410  0.4019
  135SOL    HW1  404   2.175   1.052   1.515  0.1949 -2.7158  0.7477
  135SOL    HW2  405   2.016   1.058   1.467 -2.2852 -0.8595  0.1066
  136SOL     OW  406   2.980   0.975   0.493  0.4589 -0.4179  0.3444
  136SOL    HW1  407   2.915   0.974   0.569  0.6411 -0.5863  1.0727
  136SOL    HW2  408   3.061   0.920   0.520  0.6870 -2.7011  1.4412
  137SOL     OW  409   2.553   1.376   1.314  0.0924 -0.3096 -0.1201
  137SOL    HW1  410   2.643   1.337   1.290 -0.3536  0.0587  1.8484
  137SOL    HW2  411   2.476   1.313   1.299 -0.3428  0.7497  1.2723
  138SOL     OW  412   1.942   0.802   1.630  0.1612  0.1095 -0.7050
  138SOL    HW1  413   2.005   0.881   1.607 -3.5040  0.0506  1.5775
  138SOL    HW2  414   1.944   0.727   1.556 -0.5290 -0.4742  0.1351
  139SOL     OW  415   2.052   0.201   0.000 -0.6637 -0.0528  0.0474
  139SOL    HW1  416   2.138   0.146   3.077 -0.2697  0.0266 -1.7672
  139SOL    HW2  417   1.979   0.139   0.037 -1.2216 -3.4648  0.7340
  140SOL     OW  418   1.425   1.901   1.846  0.2600 -0.3162 -0.0562
  140SOL    HW1  419   1.373   1.967   1.905  0.4541 -3.3007  2.0920
  140SOL    HW2  420   1.486   1.844   1.903  1.7866  1.7683  0.3979
  141SOL     OW  421   1.885   2.008   0.744  0.3329  0.2950  0.4587
  141SOL    HW1  422   1.921   1.929   0.800  1.8604 -2.4624  1.6700
  141SOL    HW2  423   1.959   2.066   0.704  0.1887 -0.1601 -0.5175
  142SOL     OW  424   0.376   0.878   0.240 -0.2270 -0.5600 -0.2580
  142SOL    HW1  425   0.462   0.840   0.199 -1.4010 -0.8948 -3.1250
  142SOL    HW2  426   0.295   0.855   0.186 -0.8809  0.4502  3.1736
  143SOL     OW  427   0.335   2.092   2.773  0.2371  0.4588  0.2849
  143SOL    HW1  428   0.259   2.162   2.772 -0.1443  0.2691  0.5370
  143SOL    HW2  429   0.311   2.005   2.820  3.6684 -0.7259 -0.9489
  144SOL     OW  430   1.240   0.062   1.509 -0.7713 -0.8467 -0.2691
  144SOL    HW1  431   1.186   0.134   1.557 -0.6639 -0.7027  0.4255
  144SOL    HW2  432   1.192   0.035   1.420  3.4777 -2.3523 -0.7184
  145SOL     OW  433   2.410   1.509   0.480 -0.4958  0.4149  0.0294
  145SOL    HW1  434   2.423   1.550   0.387  0.4076  0.0833  0.4846
  145SOL    HW2  435   2.486   1.547   0.539 -0.0684 -0.3695 -2.9891
  146SOL     OW  436   2.469   2.521   0.218 -0.4000  0.2528  0.3702
  146SOL    HW1  437   2.550   2.514   0.155  0.0847 -0.7837  0.6619
  146SOL    HW2  438   2.387   2.484   0.175  1.5952 -1.1974 -0.5138
  147SOL     OW  439   2.136   2.616   1.193 -0.1934 -0.1894  0.2505
  147SOL    HW1  440   2.230   2.611   1.230  0.5851  0.0775 -0.5056
  147SOL    HW2  441   2.091   2.707   1.205  1.9052  1.0978  2.6728
  148SOL     OW  442   1.474   2.842   2.299  0.0340  0.4124 -0.1034
  148SOL    HW1  443   1.564   2.831   2.339 -0.9822 -0.5407 -0.0617
  148SOL    HW2  444   1.482   2.835   2.198 -0.8066  1.3624 -1.2308
  149SOL     OW  445   1.259   0.472   2.319  0.3095  0.4500  0.2322
  149SOL    HW1  446   1.321   0.443   2.247  3.5323 -0.0428 -0.5848
  149SOL    HW2  447   1.291   0.549   2.375 -1.1294  1.9353  1.3628
  150SOL     OW  448   0.688   2.523   0.307 -0.0479 -0.3586  0.2534
  150SOL    HW1  449   0.769   2.543   0.251 -1.3897  1.5060 -1.6314
  150SOL    HW2  450   0.711   2.489   0.400 -1.2694  3.3153 -0.9064
  151SOL     OW  451   0.161   1.587   0.233  0.7518  0.1480 -0.0149
  151SOL    HW1  452   0.059   1.577   0.248 -0.9664 -1.9807  0.1869
  151SOL    HW2  453   0.188   1.564   0.136  1.5268  1.6490  1.5183
  152SOL     OW  454   3.039   0.446   0.690  0.1314  0.5985 -0.3242
  152SOL    HW1  455   0.004   0.392   0.764  0.6789  1.2850 -0.6082
  152SOL    HW2  456   2.961   0.393   0.645  1.4901 -1.5860 -1.5144
  153SOL     OW  457   2.300   3.028   0.882 -0.2615  0.5007  0.1664
  153SOL    HW1  458   2.200   3.050   0.872 -1.3148  1.3937 -0.4781
  153SOL    HW2  459   2.350   3.059   0.798  0.4974  0.7702  1.1965
  154SOL     OW  460   1.141   0.452   1.774 -0.5714  0.2889  0.0229
  154SOL    HW1  461   1.115   0.398   1.852 -1.0995 -0.3588 -2.6598
  154SOL    HW2  462   1.189   0.398   1.699  1.3675 -0.4536 -1.1841
  155SOL     OW  463   2.621   1.356   1.001 -0.0695 -0.2040 -0.2443
  155SOL    HW1  464   2.655   1.322   1.091 -1.4951 -2.8456 -0.5965
  155SOL    HW2  465   2.614   1.459   0.998 -0.0884  3.4912 -0.6729
  156SOL     OW  466   2.582   1.985   0.175 -0.0336  0.6890 -0.3268
  156SOL    HW1  467   2.479   1.990   0.176  3.2579  1.4832  0.7223
  156SOL    HW2  468   2.615   1.923   0.100  1.3144 -2.2555 -1.7607
  157SOL     OW  469   0.972   2.847   0.678  0.1268  0.0367  0.1099
  157SOL    HW1  470   0.930   2.841   0.774  1.9819 -0.2492  2.7334
  157SOL    HW2  471   0.915   2.789   0.614  1.2144  0.8438  2.0610
  158SOL     OW  472   2.344   0.384   2.584 -0.1829  0.0116  0.0948
  158SOL    HW1  473   2.440   0.399   2.550  2.4074  2.1515 -2.2016
  158SOL    HW2  474   2.293   0.325   2.522 -0.1855  0.3413  0.7915
  159SOL     OW  475   0.528   0.110   0.269 -0.2280 -0.2063  0.1896
  159SOL    HW1  476   0.524   0.029   0.209  1.3549  2.1129 -1.9820
  159SOL    HW2  477   0.436   0.136   0.302 -0.2876 -0.4770  3.0175
  160SOL     OW  478   1.170   1.982   0.043  0.0905 -0.1022 -0.1619
  160SOL    HW1  479   1.172   1.925   3.038 -2.1067  0.5720  0.6354
  160SOL    HW2  480   1.084   2.028   0.057  0.9723 -1.9993 -1.0386
  161SOL     OW  481   2.683   1.833   2.284 -0.1313  0.0327 -0.5186
  161SOL    HW1  482   2.696   1.910   2.220  1.1782  0.1125  1.0985
  161SOL    HW2  483   2.591   1.790   2.280 -1.2553  1.3374  0.0836
  162SOL     OW  484   0.201   2.793   1.120 -0.1425  0.2780  0.0822
  162SOL    HW1  485   0.271   2.773   1.185 -0.8477 -2.5214 -0.3503
  162SOL    HW2  486   0.130   2.842   1.172 -1.0239 -2.0505 -0.6241
  163SOL     OW  487   2.221   0.490   2.793  0.1719 -0.2392 -0.0930
  163SOL    HW1  488   2.142   0.427   2.799 -0.5065  1.6699  0.9659
  163SOL    HW2  489   2.264   0.473   2.702 -0.3145 -0.8629  2.7586
  164SOL     OW  490   2.847   1.588   0.804 -0.5986  0.1174  0.5027
  164SOL    HW1  491   2.918   1.575   0.730 -0.1173 -1.3037 -1.3904
  164SOL    HW2  492   2.833   1.684   0.830  1.7226 -0.8496  0.5198
  165SOL     OW  493   2.935   0.202   1.878 -0.7563  0.4095  0.1268
  165SOL    HW1  494   2.859   0.136   1.909 -0.3787 -1.0647 -0.2332
  165SOL    HW2  495   2.909   0.296   1.893  1.3241 -1.8234 -0.4170
  166SOL     OW  496   2.174   0.724   0.610 -0.3278 -0.3228 -0.5103
  166SOL    HW1  497   2.122   0.808   0.645 -1.1794 -0.2107  0.5909
  166SOL    HW2  498   2.197   0.742   0.510  3.4699  0.9957 -2.5850
  167SOL     OW  499   0.433   0.378   0.508 -0.3298  0.1167  0.4722
  167SOL    HW1  500   0.381   0.454   0.465 -3.5294 -3.4300  0.9540
  167SOL    HW2  501   0.431   0.394   0.608  0.3846  2.8111 -0.1627
  168SOL     OW  502   1.831   2.685   2.205 -0.7185  0.1445  0.4073
  168SOL    HW1  503   1.851   2.592   2.245  1.5000  1.1026  0.7987
  168SOL    HW2  504   1.794   2.749   2.275  0.1580  0.4415 -0.9378
  169SOL     OW  505   1.037   1.007   0.621  0.8258  0.4375  0.1113
  169SOL    HW1  506   1.023   1.014   0.515 -0.2251 -1.5844 -0.7506
  169SOL    HW2  507   0.954   0.965   0.664  0.3719 -2.4749  0.2129
  170SOL     OW  508   2.844   0.579   1.451  0.7767 -0.3313  0.8164
  170SOL    HW1  509   2.801   0.568   1.361 -0.7138 -0.0048  0.2496
  170SOL    HW2  510   2.812   0.506   1.510  0.6963  0.2544  0.3868
  171SOL     OW  511   1.021   2.768   1.713 -0.3346 -0.1965 -0.1813
  171SOL    HW1  512   1.078   2.761   1.629  0.5220 -2.1257 -1.2314
  171SOL    HW2  513   1.032   2.861   1.748  1.5678 -2.8727 -0.5099
  172SOL     OW  514   0.220   2.549   1.562  0.0368  0.5877 -0.0618
  172SOL    HW1  515   0.233   2.448   1.541  1.3609 -2.3337 -0.8004
  172SOL    HW2  516   0.169   2.601   1.488 -1.6896 -0.1414 -0.8396
  173SOL     OW  517   1.201   0.252   2.784  0.4060 -0.0451 -0.6424
  173SOL    HW1  518   1.230   0.299   2.697 -3.8847  3.0153  0.4346
  173SOL    HW2  519   1.188   0.325   2.856 -0.0979  1.6318  1.5639
  174SOL     OW  520   1.797   0.053   2.484  0.0642  0.3452 -0.2957
  174SOL    HW1  521   1.721   0.088   2.539  0.9489 -1.3672 -0.7472
  174SOL    HW2  522   1.883   0.072   2.528 -1.5154 -1.7630 -4.1127
  175SOL     OW  523   1.710   2.602   0.028  0.2073  0.0228  0.0675
  175SOL    HW1  524   1.751   2.575   0.119 -0.6261  0.9043  0.3405
  175SOL    HW2  525   1.668   2.697   0.032  0.3158  1.6328  1.3766
  176SOL     OW  526   1.730   0.366   2.823  0.3488 -0.0402  0.3851
  176SOL    HW1  527   1.733   0.449   2.885  0.9681  1.6917  0.4958
  176SOL    HW2  528   1.675   0.389   2.741 -0.0885  1.6712 -0.5000
  177SOL     OW  529   0.902   1.602   0.481  0.2221 -0.8476 -0.3862
  177SOL    HW1  530   0.842   1.558   0.548  1.3421  3.2296  0.7263
  177SOL    HW2  531   0.850   1.660   0.418  0.0763 -2.0781  0.5301
  178SOL     OW  532   2.942   2.255   2.443 -0.6037  0.1043 -0.1064
  178SOL    HW1  533   3.006   2.340   2.454  2.2950  3.1677 -0.9576
  178SOL    HW2  534   2.998   2.175   2.471  0.4818 -2.2596 -0.5194
  179SOL     OW  535   0.512   2.443   2.541 -0.3709  0.2543 -0.1495
  179SOL    HW1  536   0.530   2.493   2.630 -0.4726 -0.4107  1.0669
  179SOL    HW2  537   0.590   2.450   2.476  4.6468  0.9846 -2.1957
  180SOL     OW  538   1.897   1.743   1.079  0.1738  0.0839 -0.0149
  180SOL    HW1  539   1.900   1.647   1.122  0.1839 -0.7958 -0.2407
  180SOL    HW2  540   1.798   1.773   1.083 -2.9459 -2.8598 -2.5826
  181SOL     OW  541   1.765   0.935   2.268 -0.0611 -0.5612 -0.4497
  181SOL    HW1  542   1.733   0.999   2.197 -0.0819  0.5608  1.1366
  181SOL    HW2  543   1.763   0.967   2.365  0.4968 -0.1256  0.0998
  182SOL     OW  544   2.769   2.860   2.390 -0.0824  0.0010  0.6818
  182SOL    HW1  545   2.804   2.775   2.339 -0.3792  1.4980  1.7513
  182SOL    HW2  546   2.821   2.941   2.356  2.1224  0.1278  2.5255
  183SOL     OW  547   1.406   0.715   2.375  0.0616  0.1682 -0.3174
  183SOL    HW1  548   1.417   0.740   2.275  1.3052  0.6234 -4.0762
  183SOL    HW2  549   1.500   0.708   2.410 -2.8317 -0.9863  1.0071
  184SOL     OW  550   0.893   0.792   1.501  0.0065  0.7583  0.3320
  184SOL    HW1  551   0.966   0.769   1.571  0.9703  1.5966  1.8969
  184SOL    HW2  552   0.928   0.869   1.442  1.5209  2.0911 -1.1632
  185SOL     OW  553   2.082   0.975   0.724 -0.2211 -0.0417 -0.2704
  185SOL    HW1  554   2.113   0.996   0.820  0.5253  3.8838 -0.6079
  185SOL    HW2  555   2.129   1.033   0.657 -0.3072  2.1299  2.9539
  186SOL     OW  556   0.286   1.800   2.838  0.2703  0.4875  0.0579
  186SOL    HW1  557   0.366   1.735   2.841 -0.4874  0.4818  0.8634
  186SOL    HW2  558   0.235   1.790   2.752 -1.1712  3.0575  1.5128
  187SOL     OW  559   2.632   1.408   0.206 -0.3744 -0.9358 -0.2456
  187SOL    HW1  560   2.647   1.490   0.265 -0.3356  0.7742  1.8970
  187SOL    HW2  561   2.663   1.329   0.265 -0.3701  3.2374  0.8920
  188SOL     OW  562   0.062   1.846   0.671  0.0087 -0.3687 -0.2798
  188SOL    HW1  563   0.108   1.848   0.582 -1.2030 -0.1595  2.4161
  188SOL    HW2  564   0.055   1.945   0.703  0.2107  0.5753 -0.5452
  189SOL     OW  565   2.404   0.539   0.133 -0.0308  0.2499 -1.0086
  189SOL    HW1  566   2.359   0.544   0.224 -0.5328  0.9345 -2.7306
  189SOL    HW2  567   2.495   0.579   0.140 -1.0566 -0.2614  1.4178
  190SOL     OW  568   1.418   1.407   2.023  0.1836 -0.0566  0.0543
  190SOL    HW1  569   1.351   1.482   2.043  2.2324 -0.4606  0.6058
  190SOL    HW2  570   1.359   1.338   1.977  0.8473  0.7092  1.1480
  191SOL     OW  571   2.411   0.050   1.835  0.3337  0.3226 -0.5759
  191SOL    HW1  572   2.347   0.125   1.806 -1.4832 -0.2256  1.7136
  191SOL    HW2  573   2.379   0.017   1.931  2.3596  0.4047  1.7218
  192SOL     OW  574   1.848   1.099   1.403 -0.5888  0.2413 -0.5583
  192SOL    HW1  575   1.812   1.163   1.334 -0.4608 -1.4276 -1.5136
  192SOL    HW2  576   1.806   1.007   1.395 -0.0704 -2.4556  2.3757
  193SOL     OW  577   0.943   0.710   0.858 -0.5905 -0.1969  0.2532
  193SOL    HW1  578   1.035   0.751   0.847 -0.2566 -1.0590  1.3302
  193SOL    HW2  579   0.895   0.755   0.937  0.1816  1.5051  0.9506
  194SOL     OW  580   1.140   3.032   1.272 -0.6689 -0.8875  0.6550
  194SOL    HW1  581   1.172   2.952   1.221 -1.5621  0.9003 -1.2125
  194SOL    HW2  582   1.055   3.000   1.315  0.8478  0.6536 -2.0211
  195SOL     OW  583   2.292   0.486   0.363 -0.4640 -0.3967  0.1086
  195SOL    HW1  584   2.286   0.519   0.463 -0.0988 -3.2116  2.7622
  195SOL    HW2  585   2.328   0.391   0.361 -0.8376  4.4995  2.0591
  196SOL     OW  586   0.872   2.052   1.458 -0.2848 -0.8470 -0.6498
  196SOL    HW1  587   0.893   2.115   1.377 -1.6937  2.1430 -2.5307
  196SOL    HW2  588   0.927   2.079   1.539 -1.3321 -0.3317  0.5292
  197SOL     OW  589   0.485   2.617   0.467  0.3302  0.2689 -0.2289
  197SOL    HW1  590   0.525   2.618   0.558 -2.8589 -0.6893 -1.6586
  197SOL    HW2  591   0.545   2.559   0.404  3.4177  0.1842  0.8577
  198SOL     OW  592   0.808   0.924   0.740 -0.4586 -0.1472  0.2628
  198SOL    HW1  593   0.791   0.984   0.818  1.4996 -2.6121 -1.2546
  198SOL    HW2  594   0.835   0.832   0.770 -0.2155  3.7756  1.0908
  199SOL     OW  595   0.146   2.906   1.593  0.2331 -0.0976 -0.2860
  199SOL    HW1  596   0.152   3.002   1.556  0.6600  0.2616  0.0528
  199SOL    HW2  597   0.235   2.879   1.637 -1.3269  2.0137  2.0475
  200SOL     OW  598   2.448   1.729   2.640  0.0425 -0.1654 -0.2154
  200SOL    HW1  599   2.419   1.647   2.693 -1.2033  0.7095 -0.3439
  200SOL    HW2  600   2.416   1.722   2.546  0.5815  1.5554  1.6466
  201SOL     OW  601   2.849   2.315   1.424  0.4330 -0.7177  0.5945
  201SOL    HW1  602   2.920   2.388   1.413  2.4228  1.6993  0.6226
  201SOL    HW2  603   2.856   2.274   1.515  0.7902  0.9204 -2.5470
  202SOL     OW  604   2.683   0.105   0.382 -0.2465 -0.2848  0.7165
  202SOL    HW1  605   2.628   0.181   0.411  2.4873  0.2392 -0.4609
  202SOL    HW2  606   2.779   0.136   0.375  0.1106 -0.4392 -0.7463
  203SOL     OW  607   1.321   2.160   2.250  0.3308 -0.3905  0.0861
  203SOL    HW1  608   1.298   2.128   2.157 -0.9101 -0.7940  0.8995
  203SOL    HW2  609   1.236   2.159   2.312 -0.5002 -1.3468  0.9202
  204SOL     OW  610   1.024   1.543   1.626 -0.9824  0.1551 -0.0669
  204SOL    HW1  611   0.979   1.593   1.550  1.3758  2.0312  1.1261
  204SOL    HW2  612   0.944   1.509   1.679 -0.1352  0.5751  0.7631
  205SOL     OW  613   1.055   2.058   1.688  0.0925 -0.2180  0.0248
  205SOL    HW1  614   1.113   1.999   1.628  0.0451 -2.9865  1.5724
  205SOL    HW2  615   1.061   2.029   1.785 -1.1426 -1.5450  0.5977
  206SOL     OW  616   0.190   0.571   2.658 -0.1224 -0.0243 -0.2077
  206SOL    HW1  617   0.291   0.578   2.666 -2.8937  1.4082 -1.3913
  206SOL    HW2  618   0.159   0.477   2.684 -1.2877  1.8736  2.2453
  207SOL     OW  619   1.560   2.824   2.041 -0.2222 -0.0902  0.0791
  207SOL    HW1  620   1.483   2.850   1.979  3.1497  0.0998  1.1345
  207SOL    HW2  621   1.597   2.731   2.023 -2.5939  1.6592 -0.3202
  208SOL     OW  622   0.872   2.356   1.943 -0.6704 -0.1227 -0.1717
  208SOL    HW1  623   0.890   2.332   2.042  0.7286 -3.2144  0.3278
  208SOL    HW2  624   0.854   2.453   1.929 -0.9143 -2.1775  0.2203
  209SOL     OW  625   1.991   1.325   2.838 -0.0721 -0.3934  0.1703
  209SOL    HW1  626   2.028   1.277   2.757 -0.0437 -2.1985 -0.1158
  209SOL    HW2  627   1.890   1.323   2.847  1.5701 -3.3224  0.3422
  210SOL     OW  628   2.880   0.497   1.091 -0.3218 -0.0528 -0.0500
  210SOL    HW1  629   2.858   0.408   1.051  2.9608  2.4240 -0.0607
  210SOL    HW2  630   2.809   0.514   1.164  0.3566 -0.0123  1.5583
  211SOL     OW  631   0.858   0.890   1.069 -0.3364 -0.1013  0.0801
  211SOL    HW1  632   0.808   0.971   1.030 -1.1292 -0.0126  2.1250
  211SOL    HW2  633   0.799   0.842   1.137 -1.9677 -0.4139 -0.4644
  212SOL     OW  634   1.030   2.078   1.012 -0.0424 -0.4079  0.1240
  212SOL    HW1  635   0.992   1.985   1.017  0.1478 -0.9399  0.0114
  212SOL    HW2  636   1.073   2.099   0.921 -0.4576 -1.4433  1.3420
  213SOL     OW  637   1.832   0.223   1.739  0.1492 -0.1133 -0.0248
  213SOL    HW1  638   1.774   0.289   1.790 -1.3296 -2.8925 -0.1373
  213SOL    HW2  639   1.855   0.143   1.798 -1.0418  1.7302  0.5648
  214SOL     OW  640   1.474   2.101   2.655 -0.2359 -0.2128  0.1858
  214SOL    HW1  641   1.519   2.091   2.560  0.5295 -0.7316 -0.6635
  214SOL    HW2  642   1.544   2.120   2.730 -0.1454 -0.5952  0.3828
  215SOL     OW  643   2.904   1.815   1.244 -0.0416 -0.3933  0.3490
  215SOL    HW1  644   2.822   1.870   1.271 -0.7541 -0.8195  0.5606
  215SOL    HW2  645   2.882   1.716   1.249  1.1184 -2.2942  0.6691
  216SOL     OW  646   0.575   0.191   2.297 -0.3616  0.2956  0.6018
  216SOL    HW1  647   0.671   0.195   2.256 -0.3256 -1.6153  0.5351
  216SOL    HW2  648   0.574   0.133   2.378  0.1520  1.7344 -1.5670
  217SOL     OW  649   2.634   0.369   2.995  0.4036 -0.1680 -0.4602
  217SOL    HW1  650   2.633   0.470   2.999 -1.0651  0.6527  0.9811
  217SOL    HW2  651   2.730   0.333   3.006 -0.5313  2.5701 -0.5535
  218SOL     OW  652   1.704   1.574   2.454 -0.3474 -0.3779 -0.0087
  218SOL    HW1  653   1.704   1.474   2.476  0.3184  4.6279 -1.8940
  218SOL    HW2  654   1.767   1.631   2.515  1.6671  1.7449  0.5778
  219SOL     OW  655   1.666   1.003   0.156  0.1776  0.0120 -0.2759
  219SOL    HW1  656   1.743   1.065   0.176  0.1232  2.0975  2.2275
  219SOL    HW2  657   1.633   1.015   0.062 -0.7865 -0.1518  0.9089
  220SOL     OW  658   1.419   1.927   1.078  0.1305  0.6104 -0.4566
  220SOL    HW1  659   1.323   1.926   1.115 -1.7136 -2.1764 -2.1608
  220SOL    HW2  660   1.431   1.982   0.993 -1.0647  1.4142 -0.1790
  221SOL     OW  661   0.109   0.836   0.148  0.2426 -0.0088 -0.2590
  221SOL    HW1  662   0.043   0.910   0.185 -1.5971  2.1111  0.4051
  221SOL    HW2  663   0.122   0.854   0.048  0.7048  1.1437 -0.9505
  222SOL     OW  664   1.149   2.720   1.440 -0.0442  0.0666 -0.2122
  222SOL    HW1  665   1.137   2.619   1.450  0.4619  1.6746  0.6776
  222SOL    HW2  666   1.232   2.750   1.386  2.7563 -0.7906 -3.2693
  223SOL     OW  667   1.368   0.064   2.927  0.0289  0.3571 -0.7179
  223SOL    HW1  668   1.298   0.135   2.911  1.0862 -0.9268  0.1002
  223SOL    HW2  669   1.460   0.087   2.899 -0.1132 -0.6220 -0.8039
  224SOL     OW  670   2.749   0.973   1.163  0.0287 -0.1535  0.2082
  224SOL    HW1  671   2.797   0.886   1.138 -0.2974 -0.0473 -2.1409
  224SOL    HW2  672   2.698   0.964   1.248  0.6133  0.4078 -1.3134
  225SOL     OW  673   0.848   1.228   1.402  1.1819  0.4147  0.8453
  225SOL    HW1  674   0.885   1.290   1.332 -2.1643 -1.0342  0.1502
  225SOL    HW2  675   0.748   1.206   1.386 -0.3050  0.4062  0.6061
  226SOL     OW  676   1.518   2.809   3.052 -0.7818  0.8274 -0.2258
  226SOL    HW1  677   1.428   2.850   0.007 -3.7985  0.0091  0.3270
  226SOL    HW2  678   1.514   2.794   2.948 -2.4654  0.5350 -0.6533
  227SOL     OW  679   0.534   1.628   1.030  0.6601  0.4753 -0.0757
  227SOL    HW1  680   0.486   1.539   1.043 -1.1965 -4.1502  1.3983
  227SOL    HW2  681   0.491   1.695   1.100 -2.0011  1.6625  2.5787
  228SOL     OW  682   0.395   2.754   1.336 -0.4525  0.1183 -0.0765
  228SOL    HW1  683   0.365   2.819   1.409  2.0434  0.7801 -1.2264
  228SOL    HW2  684   0.479   2.795   1.291  2.7859 -2.5361 -0.3363
  229SOL     OW  685   2.422   1.413   0.014 -0.0761 -0.0723  0.6038
  229SOL    HW1  686   2.487   1.413   0.091 -0.0043  0.2485 -0.3949
  229SOL    HW2  687   2.374   1.324   0.008 -1.8164  0.3521 -3.5314
  230SOL     OW  688   1.033   1.059   1.832 -0.2589 -0.2874 -0.3638
  230SOL    HW1  689   0.948   1.107   1.856 -0.2076 -1.3302 -0.3600
  230SOL    HW2  690   1.019   0.958   1.851  2.0072 -0.5692  1.1550
  231SOL     OW  691   1.451   1.944   1.558  0.2233  0.3445 -0.4184
  231SOL    HW1  692   1.521   2.022   1.550 -0.9703  1.0035 -0.0863
  231SOL    HW2  693   1.417   1.933   1.652 -1.4686 -1.1441 -1.6339
  232SOL     OW  694   1.926   2.351   0.674  0.3141  0.2125  0.0219
  232SOL    HW1  695   1.863   2.429   0.673 -0.3456 -0.8479 -1.1062
  232SOL    HW2  696   1.914   2.294   0.591 -2.1373  0.9903  2.7978
  233SOL     OW  697   1.173   2.383   2.967 -0.2786  0.5512  0.0241
  233SOL    HW1  698   1.249   2.405   2.907 -0.8950  0.0318  0.4633
  233SOL    HW2  699   1.205   2.382   3.064 -0.4084 -0.2966 -1.2659
  234SOL     OW  700   0.989   0.010   2.414  0.5859 -0.0227  0.5390
  234SOL    HW1  701   0.953   0.005   2.513  2.2855 -1.3781  0.3669
  234SOL    HW2  702   0.987   3.005   2.362  2.1429 -0.4703  0.8490
  235SOL     OW  703   2.916   2.404   0.186 -0.1421  0.3646 -0.0925
  235SOL    HW1  704   2.982   2.483   0.177  0.3075  0.9020 -0.4198
  235SOL    HW2  705   2.944   2.339   0.262  1.6571 -1.8143 -0.9504
  236SOL     OW  706   1.963   2.168   2.365  0.9368  0.2652  0.0180
  236SOL    HW1  707   1.943   2.094   2.437  2.0428  1.4082  0.9538
  236SOL    HW2  708   2.057   2.199   2.381 -2.4982  1.6273 -0.8614
  237SOL     OW  709   1.665   1.062   1.135 -0.2460 -0.4617 -0.6268
  237SOL    HW1  710   1.692   0.978   1.182 -0.2097 -0.1962 -0.5632
  237SOL    HW2  711   1.737   1.096   1.072 -0.0224  1.2296 -0.3736
  238SOL     OW  712   2.093   0.188   2.139 -0.3123  0.0258  0.6476
  238SOL    HW1  713   2.127   0.266   2.080  0.4389  0.7941 -1.7546
  238SOL    HW2  714   1.992   0.186   2.142  2.5705  2.7853  2.7193
  239SOL     OW  715   0.712   1.600   1.548 -0.0147  0.7103 -0.1734
  239SOL    HW1  716   0.652   1.531   1.595  0.8295 -0.5668  0.1254
  239SOL    HW2  717   0.733   1.581   1.451 -0.8728 -0.4302  0.5218
  240SOL     OW  718   0.025   2.204   0.594 -0.2489  0.2590 -0.1586
  240SOL    HW1  719   3.077   2.298   0.623 -3.0575 -0.1840  0.5423
  240SOL    HW2  720   0.095   2.170   0.658  0.9069  2.1329  0.2223
  241SOL     OW  721   1.647   2.049   0.620 -0.0929  0.3843 -0.4274
  241SOL    HW1  722   1.738   2.052   0.663 -0.7821 -1.6070  1.0019
  241SOL    HW2  723   1.616   1.949   0.616 -0.5548 -0.2014 -0.0142
  242SOL     OW  724   1.462   1.460   0.292  0.4197  0.4112  0.4623
  242SOL    HW1  725   1.551   1.423   0.330  2.9605 -0.7803 -1.9012
  242SOL    HW2  726   1.470   1.491   0.193  0.7815  0.4695 -1.7439
  243SOL     OW  727   0.789   0.136   2.135 -0.1152  0.3215  0.4585
  243SOL    HW1  728   0.881   0.168   2.165  0.8516 -2.3696  1.8388
  243SOL    HW2  729   0.798   0.064   2.066 -0.7525  1.4186  1.2341
  244SOL     OW  730   1.745   2.952   2.794  0.0985 -0.3018  0.1947
  244SOL    HW1  731   1.723   3.043   2.837 -1.3282 -0.3304  0.5076
  244SOL    HW2  732   1.658   2.896   2.776 -2.6169 -2.4440  2.7252
  245SOL     OW  733   1.325   2.985   0.058  0.1313  0.2223 -0.0407
  245SOL    HW1  734   1.310   3.040   0.139  0.4833  0.9327 -4.1673
  245SOL    HW2  735   1.335   3.047   3.054  0.7765 -2.6831 -1.4280
  246SOL     OW  736   0.911   0.338   2.631 -0.1128  0.9077  0.1257
  246SOL    HW1  737   1.004   0.366   2.599 -0.6612  2.1566  0.2108
  246SOL    HW2  738   0.896   0.243   2.598  1.7812 -0.5394 -3.1078
  247SOL     OW  739   0.338   0.673   1.871  0.3557  0.2943  0.0612
  247SOL    HW1  740   0.368   0.621   1.953  0.3097  2.0148  1.6483
  247SOL    HW2  741   0.237   0.696   1.880 -1.4001  0.9239  0.0938
  248SOL     OW  742   0.679   0.807   2.059 -0.0067 -0.0495  0.1061
  248SOL    HW1  743   0.654   0.709   2.042  0.5037  1.1651 -0.4485
  248SOL    HW2  744   0.777   0.823   2.032  1.1970 -1.0917 -0.6397
  249SOL     OW  745   2.120   0.425   0.124 -0.6124  0.1060 -0.2337
  249SOL    HW1  746   2.090   0.335   0.093 -0.3985 -0.0046  0.9081
  249SOL    HW2  747   2.220   0.419   0.143 -2.1111  0.5896  1.2363
  250SOL     OW  748   0.644   0.299   0.804 -0.7723 -0.0197 -0.2348
  250SOL    HW1  749   0.700   0.383   0.794 -0.1464  0.7927  1.2050
  250SOL    HW2  750   0.548   0.322   0.799 -0.5231 -1.3042  1.9940
  251SOL     OW  751   1.181   0.323   2.516 -0.1502 -0.0460 -0.0986
  251SOL    HW1  752   1.212   0.385   2.439  0.6024  1.2612  1.7628
  251SOL    HW2  753   1.196   0.224   2.489  1.2432 -0.5082  0.8340
  252SOL     OW  754   1.593   1.738   1.984 -0.4234  0.6881 -0.1946
  252SOL    HW1  755   1.638   1.680   1.911  0.0943 -1.0856  0.5410
  252SOL    HW2  756   1.576   1.684   2.066  0.1620  1.7039 -0.8173
  253SOL     OW  757   1.661   2.539   2.038 -0.4382 -0.3207 -0.1480
  253SOL    HW1  758   1.630   2.460   2.101 -0.5772 -0.9659  2.3160
  253SOL    HW2  759   1.729   2.593   2.093 -0.6489  0.9475  1.4839
  254SOL     OW  760   0.729   1.959   1.927 -0.4005  0.3196  0.5058
  254SOL    HW1  761   0.781   1.999   2.008  1.7410 -1.4730 -0.9652
  254SOL    HW2  762   0.792   1.908   1.861  1.0614 -1.8797 -1.2947
  255SOL     OW  763   1.162   0.529   0.640 -0.1890 -0.2690 -0.3452
  255SOL    HW1  764   1.195   0.547   0.734 -0.5426  0.0614  1.0090
  255SOL    HW2  765   1.108   0.612   0.604  0.2251  0.2768 -1.3881
  256SOL     OW  766   1.834   1.877   1.687  0.1296 -0.0427  0.8836
  256SOL    HW1  767   1.932   1.843   1.677  0.7296  0.3533  0.1391
  256SOL    HW2  768   1.800   1.933   1.607 -1.0419  1.3042 -0.9764
  257SOL     OW  769   0.333   2.241   2.525  0.1063  0.0536 -0.6535
  257SOL    HW1  770   0.410   2.305   2.517  0.4314  0.6920  0.5267
  257SOL    HW2  771   0.346   2.184   2.607 -0.3807  1.3246 -0.7940
  258SOL     OW  772   0.827   0.433   2.229  0.4323 -0.1456 -0.4383
  258SOL    HW1  773   0.876   0.348   2.265  0.7043 -1.4427  1.6990
  258SOL    HW2  774   0.788   0.478   2.315  2.9574  2.8762  2.9516
  259SOL     OW  775   1.149   0.936   2.326  0.5310 -0.2444 -0.4819
  259SOL    HW1  776   1.106   0.877   2.398  0.4967  0.0600 -0.8114
  259SOL    HW2  777   1.146   0.883   2.242 -1.7140 -0.3927 -0.4542
  260SOL     OW  778   1.442   0.780   0.755  0.2376 -0.3617 -0.6802
  260SOL    HW1  779   1.366   0.842   0.781 -0.1347  0.8108 -0.2154
  260SOL    HW2  780   1.474   0.724   0.832 -1.5200 -0.5323 -1.2892
  261SOL     OW  781   0.383   2.997   2.877 -0.3557  0.9661  0.6243
  261SOL    HW1  782   0.369   2.927   2.952  0.4149  1.0078 -0.2601
  261SOL    HW2  783   0.329   2.970   2.797  0.9023 -1.7122  1.3893
  262SOL     OW  784   2.461   0.013   2.779  0.8334  0.2807  0.0025
  262SOL    HW1  785   2.559   0.002   2.756  0.2537 -1.0556  0.0798
  262SOL    HW2  786   2.442   0.105   2.818  3.4653  0.4960  0.4623
  263SOL     OW  787   0.114   2.235   0.099 -0.1433  0.1052  0.0251
  263SOL    HW1  788   0.060   2.225   0.184  1.1716  1.4816 -0.7201
  263SOL    HW2  789   0.136   2.138   0.071 -0.5531 -0.5343 -1.1955
  264SOL     OW  790   0.574   1.163   1.362  0.7629 -0.4383  0.7313
  264SOL    HW1  791   0.481   1.206   1.378 -2.3085 -0.5192 -2.8102
  264SOL    HW2  792   0.579   1.141   1.262  0.2089 -1.8580  4.2599
  265SOL     OW  793   0.496   1.329   0.360  0.4259 -0.4212 -0.4613
  265SOL    HW1  794   0.454   1.255   0.305  0.8254  0.1259  0.1570
  265SOL    HW2  795   0.593   1.316   0.385 -3.8708  1.9708 -2.8554
  266SOL     OW  796   1.844   1.136   0.443 -0.3575 -0.2605  0.3217
  266SOL    HW1  797   1.927   1.105   0.490  0.7492 -0.7549  1.2358
  266SOL    HW2  798   1.870   1.169   0.351 -1.3397 -5.3316  0.5632
  267SOL     OW  799   2.888   0.526   0.059  0.3151 -0.2192 -0.2055
  267SOL    HW1  800   2.858   0.425   0.053 -1.9308 -2.1030  2.8409
  267SOL    HW2  801   2.905   0.567   3.047  1.7709  4.0576 -3.1866
  268SOL     OW  802   0.202   2.919   2.691 -0.1327  0.1788 -0.5009
  268SOL    HW1  803   0.165   2.822   2.684  1.6273 -0.3041  1.7069
  268SOL    HW2  804   0.139   2.986   2.651  0.4610 -0.4427 -1.1417
  269SOL     OW  805   2.059   0.108   2.601 -0.0296 -0.2850 -0.6333
  269SOL    HW1  806   2.060   0.163   2.688  2.3404  2.5853  1.0698
  269SOL    HW2  807   2.117   0.158   2.534 -0.3516 -3.0178 -0.8878
  270SOL     OW  808   0.813   0.976   2.623 -0.6454 -0.0560 -0.2281
  270SOL    HW1  809   0.763   1.033   2.551 -2.7282  3.4871  1.4341
  270SOL    HW2  810   0.885   1.033   2.669  0.2380 -1.3048  1.8039
  271SOL     OW  811   2.630   1.008   0.239 -0.2308 -0.3165 -0.2264
  271SOL    HW1  812   2.587   0.952   0.163  0.6004  1.0443  0.5834
  271SOL    HW2  813   2.705   1.069   0.198  2.8151 -0.6849 -0.6581
  272SOL     OW  814   2.819   1.761   2.517 -0.3643 -0.0544 -0.0776
  272SOL    HW1  815   2.762   1.793   2.434  0.7260 -0.7601  2.9312
  272SOL    HW2  816   2.803   1.819   2.598 -0.9190 -1.4039 -0.7378
  273SOL     OW  817   2.289   0.652   2.997  0.4989 -0.3937 -0.6529
  273SOL    HW1  818   2.268   0.577   2.929 -1.0236  1.0665  0.2390
  273SOL    HW2  819   2.332   0.611   3.079 -1.2687  1.5358 -0.3220
  274SOL     OW  820   0.039   2.896   0.895 -0.1666  0.3288 -0.2106
  274SOL    HW1  821   0.123   2.887   0.833  0.3271 -0.4696  0.4039
  274SOL    HW2  822   0.063   2.861   0.983  0.0884 -0.7891 -2.2381
  275SOL     OW  823   1.979   1.597   0.717 -0.4328 -0.6739  0.2972
  275SOL    HW1  824   2.071   1.553   0.709 -1.5458  0.8415  0.1817
  275SOL    HW2  825   1.986   1.690   0.753  1.1639 -1.6428  0.0959
  276SOL     OW  826   0.193   1.343   2.774 -0.8853 -0.3124 -0.2869
  276SOL    HW1  827   0.291   1.328   2.790  3.1784  0.2206 -1.5415
  276SOL    HW2  828   0.174   1.323   2.675 -1.6966 -0.5556  1.7239
  277SOL     OW  829   1.713   2.743   1.687 -0.2938 -0.2768  0.0318
  277SOL    HW1  830   1.640   2.699   1.745 -0.5905 -0.6853 -0.5855
  277SOL    HW2  831   1.670   2.812   1.628  0.4070  0.5024 -0.6581
  278SOL     OW  832   1.715   0.410   1.903  0.3535  0.3733  0.2866
  278SOL    HW1  833   1.630   0.356   1.915  1.9181  1.0589 -3.1447
  278SOL    HW2  834   1.704   0.500   1.861 -0.5674  0.6576 -1.7249
  279SOL     OW  835   2.009   1.531   0.306 -0.6319  0.2047  0.4031
  279SOL    HW1  836   1.943   1.499   0.234 -1.4177 -1.7349 -2.2382
  279SOL    HW2  837   1.961   1.554   0.387 -0.8745 -0.5538 -2.9311
  280SOL     OW  838   0.418   1.680   0.763  0.0666 -0.0237 -0.7057
  280SOL    HW1  839   0.410   1.598   0.706  0.9245  1.9482 -2.9636
  280SOL    HW2  840   0.472   1.673   0.851  0.6587 -2.2850 -0.3949
  281SOL     OW  841   0.043   0.006   2.563  0.1562  0.0660  0.4736
  281SOL    HW1  842   0.004   0.098   2.579  0.8614 -2.9941  1.0602
  281SOL    HW2  843   0.105   0.002   2.482  0.0698  1.1839  1.5699
  282SOL     OW  844   0.156   0.781   1.004 -0.3281  0.6721 -0.3607
  282SOL    HW1  845   0.077   0.800   0.940 -0.0194 -0.4516 -2.4513
  282SOL    HW2  846   0.125   0.784   1.102  2.8593  0.0356  1.9332
  283SOL     OW  847   1.848   2.086   0.238 -0.8508  0.1262  0.3864
  283SOL    HW1  848   1.934   2.106   0.183 -0.2502 -2.2304 -0.3224
  283SOL    HW2  849   1.768   2.085   0.175  0.9477  0.9377  0.6371
  284SOL     OW  850   1.681   1.355   0.453  0.2742 -0.5792 -0.5677
  284SOL    HW1  851   1.735   1.438   0.480  0.6191 -0.0422 -0.3297
  284SOL    HW2  852   1.733   1.267   0.472  2.6565 -0.1585  0.0261
  285SOL     OW  853   2.744   0.047   2.731 -0.1351  0.5083  0.5618
  285SOL    HW1  854   2.764   0.040   2.830  1.0684 -0.0789 -0.7294
  285SOL    HW2  855   2.808   3.072   2.676  1.4852 -1.3857  0.2406
  286SOL     OW  856   1.312   2.912   1.629 -0.7441  0.2988 -0.0111
  286SOL    HW1  857   1.350   2.848   1.562  0.3752  1.1185  0.8116
  286SOL    HW2  858   1.274   2.998   1.588 -1.5953 -1.8111  0.4305
  287SOL     OW  859   0.752   1.096   0.937  0.7221 -0.3487  0.0159
  287SOL    HW1  860   0.819   1.174   0.934  0.9272 -2.0354 -3.9810
  287SOL    HW2  861   0.657   1.118   0.976  0.9989 -0.9260  0.5648
  288SOL     OW  862   1.642   0.117   2.893  0.6067  0.1469  0.0210
  288SOL    HW1  863   1.692   0.203   2.909  1.3564 -0.8023 -1.1457
  288SOL    HW2  864   1.630   0.067   2.982  0.5804  1.1810  0.9460
  289SOL     OW  865   0.038   1.570   2.833 -0.1596  0.3645  0.4511
  289SOL    HW1  866   3.073   1.589   2.740  0.0668  2.5334 -2.2203
  289SOL    HW2  867   0.099   1.486   2.824  0.9140 -5.2238 -1.3868
  290SOL     OW  868   1.514   2.262   0.717  0.2166  0.1085  0.1461
  290SOL    HW1  869   1.447   2.318   0.663 -2.4812  0.2858  0.0553
  290SOL    HW2  870   1.565   2.196   0.660 -2.2499  0.5681 -0.8771
  291SOL     OW  871   2.265   2.081   2.798  0.0479 -0.4558 -0.2634
  291SOL    HW1  872   2.170   2.058   2.820  2.6664  0.2146  0.2805
  291SOL    HW2  873   2.336   2.035   2.852  0.2494 -0.6722 -0.3573
  292SOL     OW  874   0.942   0.806   1.906  0.1495  0.4995  0.0522
  292SOL    HW1  875   1.017   0.785   1.971  1.6836 -0.3195  1.9007
  292SOL    HW2  876   0.944   0.754   1.819  0.0604  2.9005 -2.8182
  293SOL     OW  877   2.057   2.740   0.838 -0.0731 -0.4507 -0.0100
  293SOL    HW1  878   2.036   2.723   0.738  1.4212 -0.9627 -0.0628
  293SOL    HW2  879   2.087   2.663   0.894 -0.3562  0.6269  3.4921
  294SOL     OW  880   0.220   0.562   2.368  0.1762 -0.1300  0.6600
  294SOL    HW1  881   0.241   0.594   2.463  1.0321  4.0884 -1.2426
  294SOL    HW2  882   0.306   0.509   2.331 -0.8305  0.5663  1.3126
  295SOL     OW  883   1.603   1.778   0.559  0.3284  0.9554 -0.0970
  295SOL    HW1  884   1.561   1.791   0.653 -1.4075  1.6260 -0.7718
  295SOL    HW2  885   1.523   1.763   0.492  1.5827  2.2256  1.5498
  296SOL     OW  886   2.311   1.925   0.081  0.0211 -0.2797  0.0829
  296SOL    HW1  887   2.363   1.858   0.022 -2.8169 -0.1677  2.7702
  296SOL    HW2  888   2.249   1.868   0.143  1.6439 -1.2648  0.5497
  297SOL     OW  889   2.011   0.638   0.019 -0.2482  0.1586  0.3383
  297SOL    HW1  890   2.079   0.671   3.032 -1.6584  0.4485 -1.1225
  297SOL    HW2  891   2.050   0.561   0.072  1.4096 -0.8803 -0.7450
  298SOL     OW  892   0.966   2.454   2.649  0.6057  0.1118  0.8637
  298SOL    HW1  893   0.971   2.370   2.707  1.2919  0.3965  2.0253
  298SOL    HW2  894   1.062   2.482   2.613  0.3691  1.0739 -3.4050
  299SOL     OW  895   1.243   2.785   2.458 -0.0847  0.0943  0.0613
  299SOL    HW1  896   1.325   2.822   2.405  4.0998 -2.1526 -0.8046
  299SOL    HW2  897   1.152   2.789   2.410  0.8453 -3.1037  1.6304
  300SOL     OW  898   2.409   0.252   2.902  0.4623 -0.6625  0.4495
  300SOL    HW1  899   2.505   0.266   2.928 -0.1645  0.3432  0.7189
  300SOL    HW2  900   2.376   0.323   2.842  2.5536  2.1077  0.0734
  301SOL     OW  901   1.411   1.551   1.260 -0.1136  0.0416 -0.1945
  301SOL    HW1  902   1.373   1.454   1.235  1.0853 -1.8633  0.2273
  301SOL    HW2  903   1.436   1.604   1.175  1.0092  3.5559  0.9932
  302SOL     OW  904   2.625   2.433   0.452  0.1340 -0.2276 -0.7143
  302SOL    HW1  905   2.716   2.464   0.480 -3.6709  1.0409  2.3889
  302SOL    HW2  906   2.592   2.492   0.379  0.3465  1.0068  0.2319
  303SOL     OW  907   2.801   2.623   2.214  0.0675 -0.6139  0.1634
  303SOL    HW1  908   2.893   2.661   2.200  1.5122  1.1591 -0.8643
  303SOL    HW2  909   2.786   2.568   2.131  0.2230  0.3819 -0.3498
  304SOL     OW  910   0.062   0.702   1.839 -0.5989  0.6267  0.5023
  304SOL    HW1  911   0.067   0.643   1.752  0.0647 -2.4060  0.9459
  304SOL    HW2  912   0.025   0.793   1.817  0.9773 -1.9854 -0.7024
  305SOL     OW  913   0.489   1.829   1.855 -0.3225  0.0432  0.2138
  305SOL    HW1  914   0.530   1.734   1.849  0.4379 -3.0252  0.0306
  305SOL    HW2  915   0.554   1.888   1.902 -2.7444 -0.0754  0.2404
  306SOL     OW  916   2.772   1.035   1.823  0.2318 -0.4371  0.0129
  306SOL    HW1  917   2.719   1.028   1.906  0.4684  1.9336 -0.2928
  306SOL    HW2  918   2.709   1.000   1.756  0.7789 -1.8861  2.7571
  307SOL     OW  919   1.767   1.225   1.661  0.6240  0.0802 -0.0068
  307SOL    HW1  920   1.664   1.229   1.672 -1.0327  1.4232  1.3095
  307SOL    HW2  921   1.809   1.241   1.571  1.6956  0.8409  0.6347
  308SOL     OW  922   2.555   1.627   1.045  0.0735  0.1069  0.2938
  308SOL    HW1  923   2.463   1.632   1.093  1.5815 -0.3782  0.9614
  308SOL    HW2  924   2.591   1.715   1.006  1.6994  2.1397  0.2843
  309SOL     OW  925   2.286   1.668   1.387 -0.0654  0.6773 -0.0113
  309SOL    HW1  926   2.252   1.754   1.434 -0.3536  1.7121  0.7053
  309SOL    HW2  927   2.371   1.630   1.430 -0.8780 -1.8119 -1.5386
  310SOL     OW  928   2.760   1.514   2.601  0.6052 -0.5102 -0.1635
  310SOL    HW1  929   2.656   1.501   2.593  0.8478 -0.8106 -1.1383
  310SOL    HW2  930   2.790   1.611   2.576  1.0961  1.3825 -0.0100
  311SOL     OW  931   3.053   1.932   0.076  0.5307 -0.0560 -0.0842
  311SOL    HW1  932   2.995   1.998   0.021  1.2367 -1.4548 -0.3201
  311SOL    HW2  933   3.024   1.842   0.046 -0.3928 -0.7814 -0.6359
  312SOL     OW  934   2.286   1.626   1.118 -0.3491  0.3054 -0.5678
  312SOL    HW1  935   2.239   1.552   1.071 -0.6604  1.0408  1.9871
  312SOL    HW2  936   2.268   1.628   1.217 -1.2922  1.3424 -0.7972
  313SOL     OW  937   2.558   2.710   1.163  0.0155  0.4238 -0.0648
  313SOL    HW1  938   2.502   2.798   1.145 -0.0213  3.1177  0.1035
  313SOL    HW2  939   2.490   2.636   1.190 -1.3824 -2.1523  1.3779
  314SOL     OW  940   1.172   1.671   0.539 -0.4676 -0.6500 -0.5498
  314SOL    HW1  941   1.196   1.612   0.619  1.9104  1.6164  0.0822
  314SOL    HW2  942   1.078   1.659   0.511 -0.9271  0.0631  0.5461
  315SOL     OW  943   0.779   2.496   2.454  0.6238 -0.6386 -0.2781
  315SOL    HW1  944   0.844   2.473   2.527 -0.6227  0.0659 -0.8215
  315SOL    HW2  945   0.761   2.596   2.455 -2.3340 -1.7686 -1.1960
  316SOL     OW  946   0.150   0.830   0.591 -0.3482 -0.1871  0.1129
  316SOL    HW1  947   0.249   0.815   0.597 -1.9445 -2.6636 -1.7649
  316SOL    HW2  948   0.105   0.752   0.543  0.7646 -1.7435 -0.3925
  317SOL     OW  949   0.905   0.215   0.482 -0.2596 -0.1288  0.3047
  317SOL    HW1  950   0.829   0.278   0.464  1.8399  1.0989  0.3201
  317SOL    HW2  951   0.872   0.134   0.538 -1.0395 -0.3843  2.0717
  318SOL     OW  952   2.882   2.506   0.475 -0.2801 -0.3089 -0.1448
  318SOL    HW1  953   2.940   2.487   0.560  3.2053 -3.8019  2.1220
  318SOL    HW2  954   2.901   2.596   0.431 -1.3911  0.4574 -1.7851
  319SOL     OW  955   0.599   1.320   2.233 -0.1916  0.1251  0.1188
  319SOL    HW1  956   0.534   1.352   2.164  0.6400 -1.6485  1.6732
  319SOL    HW2  957   0.642   1.398   2.287  2.6414 -0.0665 -0.5842
  320SOL     OW  958   0.831   2.624   1.855 -0.2376  0.5727 -0.0562
  320SOL    HW1  959   0.890   2.683   1.797  1.9233  0.5228  3.1472
  320SOL    HW2  960   0.735   2.622   1.819 -1.6344 -1.5403  0.4456
  321SOL     OW  961   1.130   2.407   0.234  0.1152  0.5102 -0.1595
  321SOL    HW1  962   1.161   2.312   0.225 -1.2411  0.1694 -0.0689
  321SOL    HW2  963   1.191   2.472   0.187  0.1902 -0.5240  1.6869
  322SOL     OW  964   2.595   1.035   2.075  0.3022 -0.0294  0.4532
  322SOL    HW1  965   2.540   1.107   2.020 -1.0110  0.9844 -1.6130
  322SOL    HW2  966   2.633   1.083   2.154 -1.5961 -0.5367 -2.6629
  323SOL     OW  967   2.476   0.834   0.487 -0.2739  0.2609  0.2032
  323SOL    HW1  968   2.397   0.834   0.420 -0.5351  0.8421  2.2402
  323SOL    HW2  969   2.565   0.816   0.438  2.6740 -1.8861  0.1029
  324SOL     OW  970   0.401   2.488   2.992  0.2490 -0.2052  0.0557
  324SOL    HW1  971   0.300   2.486   2.983 -0.2545 -1.6744 -2.8679
  324SOL    HW2  972   0.430   2.463   0.008  1.5098  0.0388  0.1779
  325SOL     OW  973   1.735   0.417   2.339  0.3042 -0.2726  0.3359
  325SOL    HW1  974   1.769   0.495   2.287  0.6768 -1.5366  0.1440
  325SOL    HW2  975   1.782   0.332   2.311 -0.2665 -0.9023  1.9711
  326SOL     OW  976   2.045   2.732   1.507 -0.3789  0.6506 -0.7266
  326SOL    HW1  977   2.127   2.732   1.450 -1.5952 -0.5811 -1.4220
  326SOL    HW2  978   1.963   2.742   1.444  0.5441  1.1605 -3.7294
  327SOL     OW  979   1.762   0.613   2.989  0.4790 -0.0763  0.0183
  327SOL    HW1  980   1.694   0.664   3.052 -2.6644  1.4574 -0.2721
  327SOL    HW2  981   1.851   0.634   3.022 -2.1070 -1.6485 -0.5156
  328SOL     OW  982   2.736   1.180   2.250  0.1716  0.0083 -0.5799
  328SOL    HW1  983   2.675   1.261   2.232  1.4075 -0.1671  1.3995
  328SOL    HW2  984   2.784   1.189   2.339  1.2279  1.8809 -0.7215
  329SOL     OW  985   1.518   0.218   1.977  0.2294 -0.4557  0.8159
  329SOL    HW1  986   1.454   0.188   1.905 -2.1590 -0.3433 -0.6234
  329SOL    HW2  987   1.587   0.146   1.990 -0.7310  3.0029 -1.7120
  330SOL     OW  988   2.727   1.906   1.565 -0.0799 -0.5301 -0.1792
  330SOL    HW1  989   2.692   1.933   1.473 -0.8178 -0.1558  0.9393
  330SOL    HW2  990   2.761   1.809   1.570  0.1511 -0.1881 -0.0866
  331SOL     OW  991   0.579   1.399   1.676 -0.2190  0.8511 -0.2959
  331SOL    HW1  992   0.483   1.360   1.659 -2.3724  0.1356 -0.3722
  331SOL    HW2  993   0.653   1.329   1.692 -0.0631  1.3648  0.7859
  332SOL     OW  994   0.576   0.189   1.447  0.1013 -0.3110  0.1326
  332SOL    HW1  995   0.559   0.121   1.375  0.5740 -0.8769  1.2772
  332SOL    HW2  996   0.629   0.274   1.422 -0.4338 -1.5663 -0.1334
  333SOL     OW  997   2.178   2.712   1.913  0.1031  0.2914  0.6328
  333SOL    HW1  998   2.245   2.749   1.848 -2.8126  1.8738  1.8523
  333SOL    HW2  999   2.094   2.676   1.865  1.1833  0.7861  0.5326
  334SOL     OW 1000   0.814   1.539   0.979 -0.6670 -0.0862 -0.0672
  334SOL    HW1 1001   0.720   1.569   1.006  1.1568  0.8476  1.0491
  334SOL    HW2 1002   0.857   1.611   0.930 -3.2742 -5.5474  2.0388
  335SOL     OW 1003   0.544   2.234   2.868 -0.1359 -0.1225 -0.0800
  335SOL    HW1 1004   0.514   2.328   2.880 -0.6839 -3.7001  0.1526
  335SOL    HW2 1005   0.466   2.181   2.831 -2.1060  1.7259 -0.8626
  336SOL     OW 1006   0.074   0.052   1.840  0.0068 -0.0941 -0.4660
  336SOL    HW1 1007   0.121   0.063   1.750  0.7786  0.4231 -2.1976
  336SOL    HW2 1008   3.060   0.103   1.841 -5.1968 -0.4840 -2.1064
  337SOL     OW 1009   2.722   2.227   0.076  0.1985  0.1344  0.5557
  337SOL    HW1 1010   2.783   2.297   0.119 -1.5131  0.7524  0.2732
  337SOL    HW2 1011   2.687   2.159   0.144 -0.9794 -0.6504 -0.1867
  338SOL     OW 1012   0.881   2.214   1.249 -0.1788  0.1522  0.1121
  338SOL    HW1 1013   0.861   2.314   1.252 -0.2097  0.9433  0.9079
  338SOL    HW2 1014   0.921   2.190   1.156 -0.6833  0.6561 -0.7870
  339SOL     OW 1015   0.053   0.497   2.007 -0.5763  0.3624 -0.1610
  339SOL    HW1 1016   0.043   0.575   1.940 -0.7006  0.5200 -1.4335
  339SOL    HW2 1017   0.086   0.411   1.961  1.1427 -1.4528 -1.4159
  340SOL     OW 1018   1.535   2.564   0.645 -0.1700  0.1780 -0.2453
  340SOL    HW1 1019   1.548   2.667   0.637 -0.4085  0.2015 -0.9326
  340SOL    HW2 1020   1.439   2.533   0.626 -1.3281  0.5974  0.8832
  341SOL     OW 1021   1.560   1.376   0.903  0.7714  0.2542  0.1977
  341SOL    HW1 1022   1.523   1.323   0.823 -0.6234 -0.2168 -2.7206
  341SOL    HW2 1023   1.660   1.393   0.891  1.1362  1.2351  1.9992
  342SOL     OW 1024   0.150   1.255   0.852  0.0067 -0.2402  0.7431
  342SOL    HW1 1025   0.139   1.325   0.769  0.6696  1.8461 -3.5739
  342SOL    HW2 1026   0.210   1.174   0.825 -1.6613  0.2936  0.2401
  343SOL     OW 1027   1.484   0.167   1.400  0.1792  0.3624  0.3846
  343SOL    HW1 1028   1.469   0.251   1.349 -0.1387 -1.1635  0.1143
  343SOL    HW2 1029   1.395   0.137   1.447  1.2424  1.8113 -0.2245
  344SOL     OW 1030   1.946   2.409   1.243  0.2073 -0.2925  0.0972
  344SOL    HW1 1031   2.017   2.480   1.253 -3.3143  0.5468  1.1854
  344SOL    HW2 1032   1.867   2.448   1.191  1.1193  0.8484  0.6882
  345SOL     OW 1033   2.828   2.516   2.910 -0.2236  0.1012 -0.2822
  345SOL    HW1 1034   2.837   2.586   2.837 -1.3768 -1.7227 -0.7258
  345SOL    HW2 1035   2.905   2.455   2.902 -1.1668  3.7672  1.1008
  346SOL     OW 1036   0.130   1.426   1.048  0.6870 -0.0346  0.2866
  346SOL    HW1 1037   0.153   1.510   0.991 -0.4514  0.4159  1.3754
  346SOL    HW2 1038   0.133   1.338   0.993 -1.2840 -2.2129  0.3955
  347SOL     OW 1039   1.794   2.581   0.745 -0.2972 -0.1377  0.0504
  347SOL    HW1 1040   1.698   2.564   0.725  0.4455  1.5045  1.1056
  347SOL    HW2 1041   1.801   2.624   0.838  0.2160  0.5672 -2.3057
  348SOL     OW 1042   1.278   1.341   2.384 -0.5311  0.2684  0.1703
  348SOL    HW1 1043   1.292   1.250   2.343 -3.4161  0.8410 -2.2798
  348SOL    HW2 1044   1.181   1.366   2.371  2.8391 -0.3222 -2.5924
  349SOL     OW 1045   2.219   1.318   2.249  0.4037 -0.6999  0.6135
  349SOL    HW1 1046   2.138   1.286   2.196  1.5326 -0.7308  1.4814
  349SOL    HW2 1047   2.259   1.234   2.298  0.1948 -0.5087  1.0985
  350SOL     OW 1048   0.219   2.287   1.456  0.5842 -0.7182 -0.3738
  350SOL    HW1 1049   0.156   2.217   1.494 -2.3771  0.6373  0.0272
  350SOL    HW2 1050   0.316   2.261   1.482  1.5271  1.0487  0.2204
  351SOL     OW 1051   0.612   0.276   2.585  0.1172  0.5148 -0.3128
  351SOL    HW1 1052   0.655   0.281   2.681 -0.9087  2.0569  1.0550
  351SOL    HW2 1053   0.636   0.362   2.532 -1.3205  1.1030 -0.1509
  352SOL     OW 1054   0.941   2.870   1.389  0.2752  0.0377 -0.6349
  352SOL    HW1 1055   1.003   2.803   1.432 -2.9705  1.2511 -0.7474
  352SOL    HW2 1056   0.846   2.855   1.427  0.3197 -0.8057 -0.9397
  353SOL     OW 1057   1.052   0.773   2.525  0.0613 -0.3631 -0.2926
  353SOL    HW1 1058   0.962   0.774   2.557  1.9754  0.4274 -1.4373
  353SOL    HW2 1059   1.118   0.732   2.596  2.5591  1.5387  1.3760
  354SOL     OW 1060   1.463   1.087   0.311  0.0426 -0.2753  0.5596
  354SOL    HW1 1061   1.454   1.011   0.371 -0.8930  1.9429 -0.1682
  354SOL    HW2 1062   1.551   1.069   0.260  1.1771  0.6057 -0.9570
  355SOL     OW 1063   2.447   0.469   0.617 -0.3401 -0.2350 -0.6245
  355SOL    HW1 1064   2.437   0.476   0.718  1.7100  2.8983 -0.7754
  355SOL    HW2 1065   2.432   0.379   0.580 -2.0910  0.9177  1.8359
  356SOL     OW 1066   2.843   1.153   2.488 -0.5246  0.2235 -0.2199
  356SOL    HW1 1067   2.883   1.221   2.556 -0.5015 -0.6326  0.7630
  356SOL    HW2 1068   2.905   1.067   2.480  1.3452 -0.4223  0.3884
  357SOL     OW 1069   0.642   2.887   1.974  0.6848  0.0342  0.4617
  357SOL    HW1 1070   0.656   2.956   1.898  0.1105  1.5123 -1.8088
  357SOL    HW2 1071   0.597   2.810   1.932  5.1213  2.3829 -1.1669
  358SOL     OW 1072   2.942   1.307   2.682 -0.1869 -0.1572 -0.0572
  358SOL    HW1 1073   2.892   1.394   2.663 -2.3535 -0.4823  0.8457
  358SOL    HW2 1074   3.033   1.317   2.639 -3.0583  0.9580  2.2088
  359SOL     OW 1075   2.528   2.773   2.807  0.2477 -0.1710  0.0875
  359SOL    HW1 1076   2.436   2.816   2.798  0.2206  0.3519  0.9714
  359SOL    HW2 1077   2.537   2.698   2.736 -0.4191 -1.6954  0.6506
  360SOL     OW 1078   1.841   1.125   0.962 -0.2209 -0.3216 -0.7307
  360SOL    HW1 1079   1.770   1.108   0.888  0.0862 -0.9141  0.0882
  360SOL    HW2 1080   1.924   1.067   0.958 -0.3152 -1.0152  3.8394
  361SOL     OW 1081   1.814   2.747   0.962 -0.4179  0.0507 -0.4503
  361SOL    HW1 1082   1.734   2.811   0.958  0.2579 -0.4483 -2.2567
  361SOL    HW2 1083   1.902   2.792   0.939  2.5031  1.2544  0.0225
  362SOL     OW 1084   1.481   1.245   0.676 -0.2824  0.7224  0.5412
  362SOL    HW1 1085   1.383   1.228   0.679  1.5499  2.0942 -2.6635
  362SOL    HW2 1086   1.509   1.279   0.584 -1.9801  2.6220  2.2761
  363SOL     OW 1087   3.068   2.043   2.564 -0.6150  0.3044  0.4061
  363SOL    HW1 1088   2.990   1.985   2.603  0.3146  0.0521 -0.1369
  363SOL    HW2 1089   0.024   2.107   2.632  0.0659  1.8143 -2.6212
  364SOL     OW 1090   1.483   0.619   1.318 -0.3007 -0.2499  0.4476
  364SOL    HW1 1091   1.455   0.626   1.416  1.0481 -1.9947 -0.6328
  364SOL    HW2 1092   1.483   0.518   1.295 -0.5591 -0.1206  2.5164
  365SOL     OW 1093   3.064   2.904   1.215 -0.0444 -0.4767 -0.1198
  365SOL    HW1 1094   3.066   3.005   1.219  0.6128 -2.1463 -3.0452
  365SOL    HW2 1095   2.983   2.872   1.159 -0.3694 -1.6650  3.8077
  366SOL     OW 1096   3.014   1.351   0.388 -0.2907  0.1708 -0.1280
  366SOL    HW1 1097   3.005   1.447   0.349 -2.8262 -0.8853  2.0608
  366SOL    HW2 1098   2.922   1.309   0.395  2.0145 -1.1320 -1.3228
  367SOL     OW 1099   2.840   1.965   2.717 -0.0444  0.1445 -0.0704
  367SOL    HW1 1100   2.767   2.037   2.727 -1.0881  1.1063 -0.5911
  367SOL    HW2 1101   2.882   1.947   2.808  0.6976  1.6381 -0.7399
  368SOL     OW 1102   2.667   1.962   1.302  0.1561 -0.4201 -0.2761
  368SOL    HW1 1103   2.630   2.060   1.315  1.1547  0.0040 -2.9965
  368SOL    HW2 1104   2.595   1.900   1.259  0.1353  0.1471 -3.3904
  369SOL     OW 1105   0.694   0.396   0.404  0.1273  0.3882  0.0649
  369SOL    HW1 1106   0.662   0.440   0.314 -2.4467 -1.6558  1.2435
  369SOL    HW2 1107   0.612   0.364   0.457 -1.9189  4.3840  0.4916
  370SOL     OW 1108   0.729   0.747   1.265  0.0607 -0.3486 -0.2781
  370SOL    HW1 1109   0.757   0.653   1.246  0.7558  0.7750 -0.0030
  370SOL    HW2 1110   0.752   0.774   1.357 -1.6942  1.8442 -4.4918
  371SOL     OW 1111   2.418   1.647   0.248  0.3703  0.0382 -0.7918
  371SOL    HW1 1112   2.444   1.655   0.145  1.1033  0.3223 -1.2895
  371SOL    HW2 1113   2.330   1.690   0.257 -1.7655 -0.4554 -0.7688
  372SOL     OW 1114   0.164   1.030   2.507 -0.5546  0.1843  0.6182
  372SOL    HW1 1115   0.224   0.977   2.574 -1.1344 -1.3782 -0.3314
  372SOL    HW2 1116   0.198   1.010   2.410 -3.2568  2.6381 -0.8080
  373SOL     OW 1117   2.609   1.291   0.640 -0.2403  0.1671  0.1024
  373SOL    HW1 1118   2.620   1.391   0.646 -0.4194  1.5779 -1.1989
  373SOL    HW2 1119   2.688   1.257   0.687 -0.7569  3.2820  0.7073
  374SOL     OW 1120   0.499   2.401   0.153 -0.2726 -0.1402  0.6663
  374SOL    HW1 1121   0.499   2.300   0.146 -1.4603 -0.0843 -1.2726
  374SOL    HW2 1122   0.581   2.432   0.205  0.4749 -2.0469 -0.4254
  375SOL     OW 1123   0.938   0.369   0.070 -0.0678  0.3102 -0.3859
  375SOL    HW1 1124   0.930   0.376   3.049 -0.0873 -0.3333 -2.7218
  375SOL    HW2 1125   0.846   0.341   0.109 -0.8547 -1.7767 -0.4592
  376SOL     OW 1126   0.096   2.971   2.071  0.2475 -1.1326 -0.0387
  376SOL    HW1 1127   0.073   3.019   1.982 -0.0638 -0.6261 -2.3629
  376SOL    HW2 1128   0.096   3.033   2.155 -1.5953 -0.0186  0.8790
  377SOL     OW 1129   0.467   1.781   2.315  0.0808 -0.1873 -0.2166
  377SOL    HW1 1130   0.420   1.713   2.380 -1.9921 -2.3138 -1.9050
  377SOL    HW2 1131   0.539   1.740   2.253  0.6487 -1.1152 -2.5555
  378SOL     OW 1132   1.466   0.843   0.451  0.2085  0.1071  0.6272
  378SOL    HW1 1133   1.391   0.798   0.388 -6.4666 -0.0251 -1.0394
  378SOL    HW2 1134   1.458   0.804   0.546  0.0302  1.4612  0.0272
  379SOL     OW 1135   1.445   1.249   0.076  0.3045  0.6361  0.2190
  379SOL    HW1 1136   1.437   1.191   0.159  1.0114  1.3380 -0.1665
  379SOL    HW2 1137   1.478   1.341   0.104 -0.0158  1.2479  0.3981
  380SOL     OW 1138   2.515   2.153   2.259  0.4820 -0.1307 -0.0341
  380SOL    HW1 1139   2.584   2.129   2.327 -1.6270 -1.4386  2.5885
  380SOL    HW2 1140   2.536   2.245   2.227  1.2524  0.3723  0.2285
  381SOL     OW 1141   0.457   0.713   1.632  0.2767 -0.0317 -0.0768
  381SOL    HW1 1142   0.436   0.813   1.622 -0.5486  0.2820  0.8524
  381SOL    HW2 1143   0.422   0.682   1.727  1.6128 -1.5479  1.7652
  382SOL     OW 1144   2.600   2.345   2.942  0.1869 -0.4465  0.1866
  382SOL    HW1 1145   2.666   2.412   2.901  0.5177  0.1279 -0.4442
  382SOL    HW2 1146   2.631   2.304   3.030  0.7125  2.5563 -0.7689
  383SOL     OW 1147   2.007   1.623   2.204 -0.0727 -0.5379  0.2133
  383SOL    HW1 1148   2.076   1.610   2.130  0.2628 -0.4621  0.7104
  383SOL    HW2 1149   1.929   1.558   2.196 -0.8392  2.9524  0.2384
  384SOL     OW 1150   0.572   2.303   2.225 -0.3108  0.6850  0.3928
  384SOL    HW1 1151   0.496   2.239   2.257 -0.1145 -2.2054 -1.2447
  384SOL    HW2 1152   0.624   2.261   2.146 -0.8599  0.3839  1.7660
  385SOL     OW 1153   2.656   2.156   0.876 -0.5307  0.4871 -0.4206
  385SOL    HW1 1154   2.706   2.167   0.969 -0.7562  2.4635  1.4898
  385SOL    HW2 1155   2.640   2.246   0.836 -0.2149 -0.5350 -0.4840
  386SOL     OW 1156   1.643   0.744   0.099  0.0597 -0.1593  0.2694
  386SOL    HW1 1157   1.647   0.673   0.172 -2.5160 -0.4834 -1.1953
  386SOL    HW2 1158   1.671   0.832   0.139  2.0919 -0.9146 -2.4935
  387SOL     OW 1159   0.377   0.971   1.568 -0.8547 -0.1722  0.2104
  387SOL    HW1 1160   0.340   0.984   1.473  1.3817 -2.4848  0.7489
  387SOL    HW2 1161   0.459   1.023   1.592 -0.1470  0.2739 -2.6332
  388SOL     OW 1162   2.993   0.786   1.513 -0.6009  0.6086  0.1319
  388SOL    HW1 1163   2.927   0.713   1.496  0.2707 -0.9426  2.7003
  388SOL    HW2 1164   2.970   0.874   1.467 -1.1660  1.2090 -2.2604
  389SOL     OW 1165   1.729   0.972   2.546 -0.4341 -0.3030  0.0165
  389SOL    HW1 1166   1.625   0.987   2.546 -3.3945  0.1581 -0.0070
  389SOL    HW2 1167   1.770   1.010   2.634 -1.5106 -0.1623 -0.2274
  390SOL     OW 1168   2.114   2.043   0.605 -0.5477 -0.2698 -0.4596
  390SOL    HW1 1169   2.206   2.037   0.653  1.3105  1.0789 -2.7095
  390SOL    HW2 1170   2.088   1.958   0.559 -0.2458  0.1643  0.8409
  391SOL     OW 1171   1.361   2.750   0.910 -0.0281  0.5689  0.3829
  391SOL    HW1 1172   1.323   2.749   0.816  0.9882  1.4858 -0.2194
  391SOL    HW2 1173   1.382   2.656   0.944  1.4181  0.3395  0.3154
  392SOL     OW 1174   2.550   2.944   1.465  0.0251  0.0164  0.0286
  392SOL    HW1 1175   2.585   2.854   1.454 -1.2578 -0.1620  1.0083
  392SOL    HW2 1176   2.448   2.940   1.474 -0.3386  0.8496 -0.3850
  393SOL     OW 1177   1.946   2.232   2.674  0.1467  0.0248  0.1679
  393SOL    HW1 1178   2.003   2.314   2.672 -2.4293 -2.4132  0.6304
  393SOL    HW2 1179   1.987   2.149   2.721  1.4063 -2.8222  0.6928
  394SOL     OW 1180   0.593   2.567   2.780  0.0675  0.1831 -0.3207
  394SOL    HW1 1181   0.572   2.558   2.879 -0.7236 -0.7620 -0.7510
  394SOL    HW2 1182   0.689   2.593   2.766  0.5548 -1.9772 -0.9436
  395SOL     OW 1183   0.521   1.148   1.063 -0.3179 -0.8099 -0.1952
  395SOL    HW1 1184   0.441   1.087   1.041  4.1396 -1.1351 -1.5324
  395SOL    HW2 1185   0.495   1.249   1.068  0.6457  0.0790  0.5173
  396SOL     OW 1186   1.940   1.194   2.501 -1.0960 -0.1021 -0.3263
  396SOL    HW1 1187   1.961   1.098   2.539 -1.4237 -1.0638  0.5728
  396SOL    HW2 1188   2.027   1.252   2.496  2.6397 -0.0992  1.3528
  397SOL     OW 1189   2.873   0.721   2.620  0.2033 -0.1745 -0.1186
  397SOL    HW1 1190   2.783   0.705   2.653  2.3820  3.7412 -1.6127
  397SOL    HW2 1191   2.939   0.736   2.692  1.6958  0.4620  1.6426
  398SOL     OW 1192   1.470   0.483   0.550  0.0713  0.2367  0.3090
  398SOL    HW1 1193   1.454   0.520   0.455  2.2477  0.3157 -0.2221
  398SOL    HW2 1194   1.403   0.520   0.615 -0.6466 -2.5896 -0.6028
  399SOL     OW 1195   1.927   2.980   1.591  0.0984  0.8194  0.2485
  399SOL    HW1 1196   1.831   2.965   1.627 -1.9116 -1.3312  0.4915
  399SOL    HW2 1197   1.973   2.895   1.557  3.0294 -2.2605 -1.2976
  400SOL     OW 1198   0.041   2.395   1.982 -0.1650  0.4235 -0.0619
  400SOL    HW1 1199   0.064   2.305   1.940  0.1302  2.0202 -0.0984
  400SOL    HW2 1200   0.079   2.474   1.923  0.7777 -0.6501  0.0818
  401SOL     OW 1201   0.703   0.221   0.083 -0.2645  0.1431 -0.2275
  401SOL    HW1 1202   0.643   0.207   0.163  0.1743  1.7730  0.2958
  401SOL    HW2 1203   0.749   0.132   0.053  2.4106 -0.4157  1.4960
  402SOL     OW 1204   0.534   2.615   1.545  0.7150  0.1179  0.1203
  402SOL    HW1 1205   0.539   2.526   1.497  0.4635 -0.4170 -2.6076
  402SOL    HW2 1206   0.447   2.662   1.526  1.7617 -1.0368  0.9006
  403SOL     OW 1207   0.170   1.074   1.730 -0.5148  0.2409  0.4728
  403SOL    HW1 1208   0.082   1.034   1.754  0.8507 -0.1397  1.6954
  403SOL    HW2 1209   0.235   1.003   1.691 -0.0006  0.3604  0.3373
  404SOL     OW 1210   2.836   2.457   2.017  0.6688 -0.4105 -0.5929
  404SOL    HW1 1211   2.912   2.399   2.041 -3.5262  0.4592 -0.5540
  404SOL    HW2 1212   2.841   2.473   1.917 -1.2786  0.6527  2.9996
  405SOL     OW 1213   2.545   0.270   2.371  0.2473  0.5899  0.2212
  405SOL    HW1 1214   2.497   0.188   2.407 -2.3714  2.2430  0.5941
  405SOL    HW2 1215   2.598   0.244   2.291  0.3185 -1.8866  1.2981
  406SOL     OW 1216   1.842   2.517   0.266 -0.3505 -0.2385 -0.0319
  406SOL    HW1 1217   1.916   2.451   0.230 -1.8909  0.5823  2.8894
  406SOL    HW2 1218   1.779   2.465   0.331 -0.8466 -0.8263  1.2367
  407SOL     OW 1219   2.188   1.359   0.374  0.2980 -0.0788 -0.0557
  407SOL    HW1 1220   2.270   1.401   0.421  1.5364  0.0881 -0.9991
  407SOL    HW2 1221   2.134   1.432   0.320 -1.2879  0.2163 -1.2957
  408SOL     OW 1222   0.373   0.498   2.065 -0.1067 -0.5314  0.1854
  408SOL    HW1 1223   0.288   0.455   2.035 -0.4026 -2.1455 -0.9534
  408SOL    HW2 1224   0.397   0.466   2.156 -1.9111  0.6254 -0.9919
  409SOL     OW 1225   2.957   1.620   0.313 -0.0342 -0.3762 -0.6862
  409SOL    HW1 1226   2.854   1.623   0.308 -0.7670  0.8492 -0.6924
  409SOL    HW2 1227   2.995   1.717   0.312  1.6466  0.7377  1.2495
  410SOL     OW 1228   1.991   1.595   1.382  0.1841 -0.0442  0.1633
  410SOL    HW1 1229   2.097   1.600   1.367  3.0025 -1.5269  0.1270
  410SOL    HW2 1230   1.955   1.519   1.321 -0.9619  0.1116 -1.4328
  411SOL     OW 1231   0.008   0.625   0.508  0.0006 -0.1615 -0.4758
  411SOL    HW1 1232   3.031   0.608   0.425  0.9480 -1.6313  3.9422
  411SOL    HW2 1233   3.071   0.561   0.586  0.0297  0.2451 -3.1914
  412SOL     OW 1234   1.676   0.322   0.099 -0.1088  0.3521 -0.1209
  412SOL    HW1 1235   1.748   0.389   0.081  1.2241 -2.7787 -0.0012
  412SOL    HW2 1236   1.667   0.294   0.196  1.0812 -0.9622 -0.1512
  413SOL     OW 1237   1.305   0.363   1.565 -0.5861 -0.6513  0.1975
  413SOL    HW1 1238   1.368   0.445   1.565  0.2438  2.3084 -0.0992
  413SOL    HW2 1239   1.237   0.384   1.491 -1.3835 -3.2504 -1.0597
  414SOL     OW 1240   0.336   1.153   0.266 -0.0743  0.5070 -0.1298
  414SOL    HW1 1241   0.347   1.052   0.288  2.6275  1.6101  0.8667
  414SOL    HW2 1242   0.296   1.168   0.174 -1.7559 -1.1915 -0.2923
  415SOL     OW 1243   0.160   1.452   0.658  0.7899 -0.4982  0.2395
  415SOL    HW1 1244   0.083   1.528   0.650 -0.5755 -0.4632 -0.9404
  415SOL    HW2 1245   0.142   1.390   0.578 -2.1868 -0.4900  1.6561
  416SOL     OW 1246   1.979   0.806   0.350  0.7073  0.1051  0.2070
  416SOL    HW1 1247   1.889   0.841   0.375  0.6937 -2.4922 -0.6497
  416SOL    HW2 1248   1.982   0.703   0.343 -1.0756 -1.4227 -1.8206
  417SOL     OW 1249   2.938   0.182   0.376  0.0520  0.4171 -0.4708
  417SOL    HW1 1250   2.961   0.083   0.397  0.7560  1.7908 -2.0217
  417SOL    HW2 1251   3.000   0.228   0.308  0.7242 -1.2129 -2.5008
  418SOL     OW 1252   2.525   0.879   0.022 -0.0556  0.2250 -0.7783
  418SOL    HW1 1253   2.581   0.797   0.053  1.1925 -0.6923  0.8469
  418SOL    HW2 1254   2.431   0.867   0.061 -0.9009 -0.4918 -2.0163
  419SOL     OW 1255   0.590   0.470   0.141 -0.0926 -0.2971 -0.2947
  419SOL    HW1 1256   0.493   0.458   0.107 -0.4839 -0.4992  1.0755
  419SOL    HW2 1257   0.648   0.397   0.100 -1.1430  0.6755 -0.2439
  420SOL     OW 1258   0.472   1.242   0.737 -0.1747 -0.0859 -0.3198
  420SOL    HW1 1259   0.573   1.239   0.742  1.0115 -2.8460 -1.3265
  420SOL    HW2 1260   0.427   1.300   0.666 -1.8259  2.1499  1.7588
  421SOL     OW 1261   0.442   1.926   0.137  0.1492 -0.3638 -0.2433
  421SOL    HW1 1262   0.423   1.843   0.192 -0.1894  0.8445 -0.7135
  421SOL    HW2 1263   0.358   1.945   0.085 -0.4643  0.6217  1.0735
  422SOL     OW 1264   2.592   0.199   1.705 -0.1492  0.1168  0.2468
  422SOL    HW1 1265   2.534   0.129   1.753  0.4900 -0.2646 -1.2644
  422SOL    HW2 1266   2.583   0.186   1.607 -0.1095  0.6618  4.2900
  423SOL     OW 1267   2.030   1.815   0.514 -0.1128 -0.2437 -0.3213
  423SOL    HW1 1268   2.062   1.741   0.575 -0.9647  2.9920  2.9805
  423SOL    HW2 1269   1.951   1.791   0.453 -0.8203  3.2138  1.8982
  424SOL     OW 1270   1.718   1.313   2.918 -0.1650 -0.7491  0.0427
  424SOL    HW1 1271   1.751   1.348   3.010  1.8698 -1.5354 -0.5819
  424SOL    HW2 1272   1.635   1.353   2.878  0.1141 -1.2795 -0.4836
  425SOL     OW 1273   0.346   2.992   2.318 -0.1619  0.1711 -0.1331
  425SOL    HW1 1274   0.408   3.020   2.395  1.1658 -1.5452  2.3260
  425SOL    HW2 1275   0.372   2.899   2.290 -2.1537 -0.9764 -2.2023
  426SOL     OW 1276   2.284   2.891   2.773 -0.2561  0.7835 -0.3077
  426SOL    HW1 1277   2.335   2.977   2.773 -2.2068 -3.3085  1.0093
  426SOL    HW2 1278   2.211   2.897   2.707 -0.5843 -0.4784 -0.1799
  427SOL     OW 1279   0.578   1.004   1.926 -0.1958 -0.5057  0.2960
  427SOL    HW1 1280   0.618   0.916   1.960 -2.8676 -1.3480 -0.1136
  427SOL    HW2 1281   0.634   1.082   1.961 -2.3040  1.8253  0.0360
  428SOL     OW 1282   2.380   1.522   2.175  1.0908 -0.2549 -0.2641
  428SOL    HW1 1283   2.308   1.451   2.196  0.1798 -0.8146 -1.8223
  428SOL    HW2 1284   2.343   1.577   2.092 -1.1847  1.4434  0.7173
  429SOL     OW 1285   2.366   0.206   0.538 -0.0359  0.4421  0.2431
  429SOL    HW1 1286   2.346   0.155   0.450 -1.2736 -0.2534 -0.2103
  429SOL    HW2 1287   2.420   0.148   0.603 -1.1424  2.1527 -2.1353
  430SOL     OW 1288   1.682   1.281   2.456 -0.6493 -0.3285 -0.2888
  430SOL    HW1 1289   1.772   1.233   2.466 -1.6977  0.2164  0.8666
  430SOL    HW2 1290   1.642   1.272   2.364  1.0848  0.5379  2.0273
  431SOL     OW 1291   2.689   2.079   1.774  0.3856 -0.2727 -0.0232
  431SOL    HW1 1292   2.692   2.029   1.686  0.9845 -0.3923 -1.6784
  431SOL    HW2 1293   2.756   2.159   1.771  0.3979  1.8104  1.8095
  432SOL     OW 1294   0.834   2.727   2.133  0.3638  0.0029  0.0405
  432SOL    HW1 1295   0.852   2.685   2.041 -1.2725 -2.3142 -1.8564
  432SOL    HW2 1296   0.765   2.808   2.128 -2.2168  2.8319 -1.8656
  433SOL     OW 1297   1.574   2.890   0.988  0.4243  0.1890 -0.1540
  433SOL    HW1 1298   1.603   2.945   0.909 -0.2261 -1.1883 -0.1641
  433SOL    HW2 1299   1.490   2.833   0.961 -2.5659 -3.4651  0.7586
  434SOL     OW 1300   0.391   2.242   1.949  0.2642  0.1065 -0.2249
  434SOL    HW1 1301   0.490   2.243   1.929 -1.6224 -1.7583  0.8217
  434SOL    HW2 1302   0.340   2.186   1.884  0.7411  0.7990  3.8963
  435SOL     OW 1303   0.409   1.462   0.580  0.3363  0.2850 -0.3095
  435SOL    HW1 1304   0.428   1.426   0.486  0.3853  3.2981  1.5704
  435SOL    HW2 1305   0.308   1.465   0.600 -1.3506  0.5334  0.2291
  436SOL     OW 1306   0.122   1.461   1.570 -0.0711  0.0711 -0.5443
  436SOL    HW1 1307   0.083   1.487   1.660 -0.3905  0.4127  1.7205
  436SOL    HW2 1308   0.055   1.473   1.496 -2.0332 -0.3872  0.6950
  437SOL     OW 1309   1.330   0.453   0.286  0.5832 -0.2042 -0.5003
  437SOL    HW1 1310   1.261   0.404   0.343  1.9877  0.1494 -4.0103
  437SOL    HW2 1311   1.309   0.554   0.291 -0.8335 -0.7125 -1.5240
  438SOL     OW 1312   0.412   1.822   1.181  0.2103  0.0277 -0.4836
  438SOL    HW1 1313   0.334   1.886   1.160  1.3768 -1.6745  4.3406
  438SOL    HW2 1314   0.430   1.838   1.281 -1.3949  3.1393 -0.2494
  439SOL     OW 1315   1.520   1.705   2.694  0.1184  0.1492 -0.0778
  439SOL    HW1 1316   1.547   1.787   2.745 -1.2269 -1.4859  0.5312
  439SOL    HW2 1317   1.591   1.689   2.620  0.4921  1.1730 -0.2269
  440SOL     OW 1318   1.428   0.368   1.230 -0.1883 -0.4065 -0.1033
  440SOL    HW1 1319   1.348   0.310   1.230  3.6751 -1.3878  1.8847
  440SOL    HW2 1320   1.491   0.352   1.149  0.0851  1.6481  0.0812
  441SOL     OW 1321   0.694   2.848   1.487  0.5970 -0.2444 -0.1290
  441SOL    HW1 1322   0.657   2.760   1.526 -0.8070 -0.3374  1.1283
  441SOL    HW2 1323   0.653   2.929   1.536  1.1764  2.4351 -1.8307
  442SOL     OW 1324   2.372   2.219   0.736  0.2028 -0.6388  0.0751
  442SOL    HW1 1325   2.447   2.288   0.748 -0.4848  1.0483  1.7843
  442SOL    HW2 1326   2.279   2.248   0.759  0.7698 -2.6920 -1.2721
  443SOL     OW 1327   2.872   0.591   2.347 -0.6905 -0.3846 -0.5930
  443SOL    HW1 1328   2.774   0.576   2.347  1.4790  0.9973  0.1557
  443SOL    HW2 1329   2.901   0.631   2.433  2.3157 -0.6392 -1.9067
  444SOL     OW 1330   1.513   0.806   2.139 -0.1496  0.2682 -0.0927
  444SOL    HW1 1331   1.588   0.873   2.163  0.4831  4.5537 -0.3001
  444SOL    HW2 1332   1.501   0.789   2.037  0.3490 -0.5921 -0.4430
  445SOL     OW 1333   2.606   2.217   1.319 -0.1722 -0.3578 -0.2920
  445SOL    HW1 1334   2.677   2.278   1.366  0.8430  0.0042 -0.8627
  445SOL    HW2 1335   2.557   2.269   1.247  0.8654  0.1562  1.0741
  446SOL     OW 1336   0.232   1.070   0.659 -0.1706  0.7066 -0.2813
  446SOL    HW1 1337   0.196   0.971   0.655 -2.3765 -1.7458 -0.6168
  446SOL    HW2 1338   0.195   1.132   0.587  1.2349  1.3380  0.1127
  447SOL     OW 1339   0.597   2.098   0.722  0.2709  0.1222  0.4507
  447SOL    HW1 1340   0.606   2.130   0.817  0.7838 -0.5303  0.5798
  447SOL    HW2 1341   0.527   2.020   0.721  0.4950 -3.9357 -0.0243
  448SOL     OW 1342   1.509   1.369   1.475 -0.2813 -0.0914 -0.4614
  448SOL    HW1 1343   1.519   1.425   1.560 -0.8867  0.0368  3.3468
  448SOL    HW2 1344   1.425   1.381   1.417 -1.4559 -0.7613  1.0852
  449SOL     OW 1345   0.488   1.618   2.882 -0.1566 -0.6091  0.5060
  449SOL    HW1 1346   0.527   1.527   2.880 -1.4770 -0.2949 -3.0787
  449SOL    HW2 1347   0.548   1.688   2.937  1.7438  0.8899 -1.4829
  450SOL     OW 1348   2.358   2.310   1.986  0.3533 -0.0611 -0.2508
  450SOL    HW1 1349   2.265   2.340   2.011  0.8331 -3.5309 -1.6540
  450SOL    HW2 1350   2.435   2.343   2.041  0.1228 -0.6177 -2.7350
  451SOL     OW 1351   2.389   0.445   1.812  0.1309 -0.4810  0.3112
  451SOL    HW1 1352   2.403   0.371   1.744 -0.1386  0.0829  0.0987
  451SOL    HW2 1353   2.320   0.514   1.772  2.2750 -1.0126 -0.1034
  452SOL     OW 1354   0.820   2.503   1.258  0.7572  0.1179  0.1336
  452SOL    HW1 1355   0.782   2.595   1.242 -0.3341 -3.2257 -0.3382
  452SOL    HW2 1356   0.920   2.499   1.242  1.7050 -0.7776  0.7366
  453SOL     OW 1357   0.911   1.310   0.847 -0.1992  0.2453 -0.2985
  453SOL    HW1 1358   0.861   1.288   0.761 -0.0783  0.8242 -0.0146
  453SOL    HW2 1359   0.888   1.398   0.887 -1.4748 -0.7854 -3.1716
  454SOL     OW 1360   2.786   1.201   0.832  0.1662 -0.2395 -0.0841
  454SOL    HW1 1361   2.880   1.181   0.875  2.0438  2.2099 -1.7364
  454SOL    HW2 1362   2.727   1.256   0.896  0.7706  1.5765  0.1054
  455SOL     OW 1363   0.305   0.212   0.346  0.2892 -0.3040 -0.7860
  455SOL    HW1 1364   0.207   0.239   0.326 -1.2870  0.2398  2.8841
  455SOL    HW2 1365   0.353   0.284   0.402  1.7949 -0.5821  1.1852
  456SOL     OW 1366   2.123   2.507   0.465  0.1620  0.0954  0.1581
  456SOL    HW1 1367   2.195   2.570   0.496 -2.8089  1.2398  0.4282
  456SOL    HW2 1368   2.140   2.411   0.499  4.7694 -2.2892 -0.2932
  457SOL     OW 1369   1.028   2.791   0.178 -0.0672  0.7117 -0.3437
  457SOL    HW1 1370   1.036   2.890   0.161  0.7640 -1.9645  0.5985
  457SOL    HW2 1371   1.062   2.743   0.095  2.1444  0.1560  1.3513
  458SOL     OW 1372   2.925   2.989   0.200  0.3663 -0.7550  0.0179
  458SOL    HW1 1373   2.973   2.938   0.126  0.1914  1.6990  0.3964
  458SOL    HW2 1374   2.828   3.022   0.176 -0.5236  1.2930  0.6943
  459SOL     OW 1375   2.569   0.504   2.005 -0.2172 -0.6115 -0.0617
  459SOL    HW1 1376   2.526   0.505   2.099 -0.8902  2.0332  1.0514
  459SOL    HW2 1377   2.510   0.461   1.932  0.6422  1.4166  1.4358
  460SOL     OW 1378   2.973   0.688   0.267 -0.5697 -0.3759  0.3115
  460SOL    HW1 1379   3.063   0.727   0.228  0.5260  2.5836  1.0753
  460SOL    HW2 1380   2.934   0.618   0.200 -4.1537 -1.0791 -0.2138
  461SOL     OW 1381   0.033   1.886   1.408 -0.2618 -1.0177 -0.1099
  461SOL    HW1 1382   3.025   1.842   1.381 -0.9644  0.1489  3.3644
  461SOL    HW2 1383   0.109   1.882   1.341 -1.9074 -0.1254  0.5509
  462SOL     OW 1384   2.757   3.017   0.858 -0.1421  0.2541 -0.4007
  462SOL    HW1 1385   2.808   0.006   0.802  1.0511  2.4297 -0.3681
  462SOL    HW2 1386   2.713   3.050   0.945 -0.8131 -0.1678  1.5705
  463SOL     OW 1387   2.824   1.190   0.095  0.2537  0.0835  0.7063
  463SOL    HW1 1388   2.852   1.158   0.002  0.8440 -2.2956  0.6510
  463SOL    HW2 1389   2.777   1.279   0.090  0.2223  1.2690  0.2605
  464SOL     OW 1390   0.387   2.485   1.223  0.2559 -0.2985  0.1520
  464SOL    HW1 1391   0.394   2.588   1.244  0.4774  2.5003 -0.2022
  464SOL    HW2 1392   0.456   2.442   1.280  0.6431  2.2961 -1.9534
  465SOL     OW 1393   0.787   0.514   1.174 -0.1692  0.2012 -0.1419
  465SOL    HW1 1394   0.848   0.450   1.127  0.8538  1.7555  0.8343
  465SOL    HW2 1395   0.704   0.521   1.121  1.6735  0.1858  2.3477
  466SOL     OW 1396   1.436   2.566   2.303  0.4404  0.6147  0.3484
  466SOL    HW1 1397   1.492   2.491   2.255 -0.3347  1.2704 -2.0701
  466SOL    HW2 1398   1.465   2.661   2.275 -1.2070  1.9710 -1.7574
  467SOL     OW 1399   1.023   0.293   1.960  0.5006  0.2031 -0.0325
  467SOL    HW1 1400   0.976   0.348   2.035 -2.2915  0.9478  1.4693
  467SOL    HW2 1401   1.091   0.219   1.994  0.1035 -0.4420 -0.8669
  468SOL     OW 1402   0.274   0.959   2.217  0.1315  0.4818  0.3241
  468SOL    HW1 1403   0.303   0.998   2.125  0.0566  2.8774 -0.9982
  468SOL    HW2 1404   0.202   0.883   2.207 -2.2504  0.3785  1.1603
  469SOL     OW 1405   0.819   2.210   0.603 -0.3411  0.1184  0.5236
  469SOL    HW1 1406   0.874   2.251   0.676  0.1444  0.0814 -2.7127
  469SOL    HW2 1407   0.747   2.151   0.640  1.1647 -0.5184 -0.3718
  470SOL     OW 1408   2.532   1.809   1.983 -0.3156  0.0869  0.0371
  470SOL    HW1 1409   2.627   1.840   1.967 -3.0044  0.4452  1.4572
  470SOL    HW2 1410   2.478   1.787   1.900 -1.2855 -2.0545  2.9374
  471SOL     OW 1411   1.048   0.037   2.865  0.2816  0.3380  0.1985
  471SOL    HW1 1412   1.055   0.026   2.965  2.2831  2.0926 -1.0865
  471SOL    HW2 1413   1.104   0.116   2.832 -0.2212 -0.0082 -1.2971
  472SOL     OW 1414   0.536   2.665   1.807 -0.4518  0.2475 -0.7473
  472SOL    HW1 1415   0.484   2.593   1.858  2.4022 -0.8689 -4.0202
  472SOL    HW2 1416   0.537   2.636   1.708 -0.5362 -1.8752 -3.2975
  473SOL     OW 1417   0.831   0.054   2.650 -0.1005 -0.4126 -0.4099
  473SOL    HW1 1418   0.919   0.029   2.689 -0.0448  2.3728 -1.5764
  473SOL    HW2 1419   0.757   0.019   2.713 -3.7395  0.5218 -0.1750
  474SOL     OW 1420   1.794   0.115   0.921 -0.4871 -0.4012  0.4143
  474SOL    HW1 1421   1.837   0.086   1.008 -1.4270  3.6383 -3.8882
  474SOL    HW2 1422   1.821   0.209   0.897  0.1735 -0.4356 -1.0284
  475SOL     OW 1423   1.773   0.421   1.325  0.4604 -0.1622 -0.3900
  475SOL    HW1 1424   1.755   0.330   1.368  3.7280  1.3184  0.9364
  475SOL    HW2 1425   1.806   0.403   1.230  1.7475  0.2301  1.5758
  476SOL     OW 1426   0.333   0.990   0.959  0.5968 -0.3727  0.0253
  476SOL    HW1 1427   0.257   0.923   0.979  0.1916  2.0365  0.1286
  476SOL    HW2 1428   0.347   1.002   0.857 -2.1528  2.1728  2.4071
  477SOL     OW 1429   1.007   2.386   0.707  0.3244  0.2016  0.0931
  477SOL    HW1 1430   1.017   2.437   0.615  1.1641 -0.1491 -4.5081
  477SOL    HW2 1431   1.008   2.443   0.792  0.1355  0.5379 -1.3063
  478SOL     OW 1432   3.060   2.764   2.211 -0.4332 -0.5051  0.3371
  478SOL    HW1 1433   0.036   2.843   2.171  1.1125  0.7712  0.6576
  478SOL    HW2 1434   0.028   2.674   2.216 -0.8482 -0.6646  1.7012
  479SOL     OW 1435   2.594   0.715   0.997 -0.2251  0.6756 -0.1819
  479SOL    HW1 1436   2.668   0.719   0.929 -0.4290 -1.6196 -0.6899
  479SOL    HW2 1437   2.504   0.724   0.952  3.1590 -1.0585  1.7872
  480SOL     OW 1438   3.080   2.624   0.170 -0.5692 -0.0503  0.1250
  480SOL    HW1 1439   0.085   2.562   0.172  3.4388  0.4714 -1.7156
  480SOL    HW2 1440   0.022   2.700   0.237 -0.1578  2.2220 -2.2711
  481SOL     OW 1441   2.056   2.108   1.667 -0.7276 -0.4449 -0.3383
  481SOL    HW1 1442   2.081   2.055   1.752  0.5983  0.4359  0.4791
  481SOL    HW2 1443   2.041   2.053   1.584  1.4123  1.4957  1.2860
  482SOL     OW 1444   1.361   2.454   2.791  0.2355  0.0945 -0.8848
  482SOL    HW1 1445   1.459   2.465   2.835 -0.7393  1.4167 -1.0065
  482SOL    HW2 1446   1.367   2.420   2.697 -0.4434  1.7832  1.0498
  483SOL     OW 1447   0.685   1.865   1.541  0.2580  0.0897 -0.1146
  483SOL    HW1 1448   0.769   1.906   1.493  0.7889 -0.7857 -1.2500
  483SOL    HW2 1449   0.696   1.768   1.567  0.3846  3.9880 -1.8042
  484SOL     OW 1450   0.753   0.410   1.417 -0.1083 -0.1350 -0.0691
  484SOL    HW1 1451   0.816   0.424   1.498  1.0820  0.5927  0.2026
  484SOL    HW2 1452   0.757   0.493   1.355  0.1176  0.8394 -1.1858
  485SOL     OW 1453   2.337   1.149   3.036  0.3386  0.7335 -0.1296
  485SOL    HW1 1454   2.282   1.116   2.956 -1.9873 -0.2133 -1.0084
  485SOL    HW2 1455   2.433   1.136   3.009  0.1710 -0.6415 -0.5754
  486SOL     OW 1456   1.751   0.173   1.439 -0.5957  0.2357 -0.7175
  486SOL    HW1 1457   1.783   0.171   1.536  1.8342  1.0701  0.9844
  486SOL    HW2 1458   1.646   0.164   1.431 -4.2395 -0.2279  2.1539
  487SOL     OW 1459   0.440   2.156   1.537 -0.3493 -0.3052  0.2925
  487SOL    HW1 1460   0.531   2.187   1.567  0.3552 -2.3700 -2.2869
  487SOL    HW2 1461   0.442   2.063   1.496 -1.2077 -1.2648  0.0442
  488SOL     OW 1462   2.321   2.356   2.843 -0.3393  0.2536  0.4412
  488SOL    HW1 1463   2.303   2.259   2.828 -1.8685  1.1427  0.6784
  488SOL    HW2 1464   2.419   2.373   2.868  0.2755 -0.6610  1.3987
  489SOL     OW 1465   1.871   2.947   0.580 -0.1715  0.1732 -0.0152
  489SOL    HW1 1466   1.914   2.860   0.546  2.7375  1.2292  1.9065
  489SOL    HW2 1467   1.878   3.025   0.510  1.8280  1.0243  0.1915
  490SOL     OW 1468   1.019   2.223   2.797  0.0067 -0.0645  0.2731
  490SOL    HW1 1469   1.095   2.160   2.762  0.6543 -1.3330  2.0813
  490SOL    HW2 1470   1.055   2.285   2.872 -0.5905 -0.8147 -1.9738
  491SOL     OW 1471   0.423   1.890   1.448 -0.1225 -0.8150 -0.4255
  491SOL    HW1 1472   0.381   1.802   1.466  2.8128  2.1907 -1.1630
  491SOL    HW2 1473   0.511   1.901   1.495  0.2411  1.5688 -1.5246
  492SOL     OW 1474   1.231   1.227   1.884  0.1039 -0.4485  0.2423
  492SOL    HW1 1475   1.164   1.148   1.885  1.9147 -0.8704 -1.3738
  492SOL    HW2 1476   1.235   1.269   1.788 -1.2627 -1.9814 -0.4432
  493SOL     OW 1477   2.569   1.900   0.969  0.1971  0.1710  0.0529
  493SOL    HW1 1478   2.495   1.889   1.039  0.0503 -0.2432 -2.1996
  493SOL    HW2 1479   2.580   2.001   0.949 -0.7918  0.2355  0.4246
  494SOL     OW 1480   3.076   1.821   1.025  0.1194 -0.2478  0.2864
  494SOL    HW1 1481   3.028   1.909   1.000 -1.1550 -0.5027 -3.0977
  494SOL    HW2 1482   3.046   1.793   1.118  0.8409 -0.8057  1.9468
  495SOL     OW 1483   2.392   2.693   0.770  0.2107 -0.5351  0.6779
  495SOL    HW1 1484   2.475   2.655   0.808 -1.8209 -1.4144  0.8834
  495SOL    HW2 1485   2.315   2.656   0.823 -0.1469  0.1628  3.0956
  496SOL     OW 1486   2.340   0.188   1.327 -0.0496 -0.2801 -0.5554
  496SOL    HW1 1487   2.431   0.180   1.373 -0.4025  0.8070  0.0239
  496SOL    HW2 1488   2.259   0.161   1.380 -2.6566  2.3948  0.3022
  497SOL     OW 1489   2.202   1.048   2.814  0.1483  0.1488  0.2924
  497SOL    HW1 1490   2.242   0.954   2.811  0.2895  0.4346 -1.9175
  497SOL    HW2 1491   2.103   1.035   2.846 -0.7491  1.2047  0.7893
  498SOL     OW 1492   0.063   2.106   1.577  0.9961  0.1178 -0.1926
  498SOL    HW1 1493   0.063   2.031   1.503  0.9470  1.8876 -2.2726
  498SOL    HW2 1494   3.054   2.135   1.609  0.6834  0.4545  0.1399
  499SOL     OW 1495   0.884   2.104   2.119 -0.0863 -0.2519  0.2142
  499SOL    HW1 1496   0.881   2.178   2.187  0.6316  0.1716  2.0931
  499SOL    HW2 1497   0.982   2.109   2.089  0.5352  1.1442 -1.5191
  500SOL     OW 1498   1.047   1.940   0.689  0.3161  0.4819  0.5213
  500SOL    HW1 1499   0.972   1.932   0.616  0.6187 -1.7164  0.6101
  500SOL    HW2 1500   1.098   1.850   0.696 -0.9319 -0.7954  2.7488
  501SOL     OW 1501   1.613   2.972   1.577  0.3278  0.2686 -0.3640
  501SOL    HW1 1502   1.574   2.976   1.484  0.9594  0.4735  0.2895
  501SOL    HW2 1503   1.549   3.008   1.647  1.6164 -0.6028 -1.2454
  502SOL     OW 1504   2.724   0.417   1.651  0.6470 -0.0801 -0.5322
  502SOL    HW1 1505   2.774   0.474   1.725  0.6040 -0.3014  1.8770
  502SOL    HW2 1506   2.686   0.329   1.684 -0.5058 -1.4281  1.0013
  503SOL     OW 1507   2.581   1.432   2.322  0.0630 -0.3825  0.0622
  503SOL    HW1 1508   2.659   1.496   2.319  1.7200 -0.9708  0.3292
  503SOL    HW2 1509   2.505   1.459   2.257  0.0381  0.8482 -3.8225
  504SOL     OW 1510   1.693   0.874   1.540  0.2528  0.4398 -0.1258
  504SOL    HW1 1511   1.779   0.858   1.599 -1.7615  0.4324 -0.1831
  504SOL    HW2 1512   1.714   0.849   1.445 -0.6211  1.2532  0.7790
  505SOL     OW 1513   0.597   3.061   1.651  0.0932  0.5280  0.2705
  505SOL    HW1 1514   0.629   0.016   1.742 -0.0391 -0.1152 -0.2792
  505SOL    HW2 1515   0.614   0.051   1.582 -2.2601 -0.8507  0.5111
  506SOL     OW 1516   0.064   0.307   0.231  0.0619  0.1581  0.0923
  506SOL    HW1 1517   0.092   0.403   0.211  0.1515  0.2164  0.1787
  506SOL    HW2 1518   0.096   0.241   0.158  0.6925  1.5093  0.5028
  507SOL     OW 1519   2.710   2.546   0.072  0.4988 -0.2115 -0.1969
  507SOL    HW1 1520   2.745   2.519   3.056  0.4578 -3.0960 -1.2236
  507SOL    HW2 1521   2.772   2.501   0.139 -0.9682  0.0522 -2.4101
  508SOL     OW 1522   1.351   0.532   1.912 -0.1248 -0.1501  0.0357
  508SOL    HW1 1523   1.388   0.441   1.942 -1.0770  0.8982 -2.6884
  508SOL    HW2 1524   1.254   0.516   1.872 -3.0331 -0.9227  0.7341
  509SOL     OW 1525   1.676   1.901   1.147  0.1161  0.2785  0.3019
  509SOL    HW1 1526   1.706   1.877   1.237 -0.3691  0.4726  1.7513
  509SOL    HW2 1527   1.571   1.894   1.134 -1.9935  0.1368 -1.3928
  510SOL     OW 1528   2.620   0.979   1.404  0.6154 -0.2750 -0.5394
  510SOL    HW1 1529   2.630   0.944   1.497 -0.4632  0.0700 -0.4589
  510SOL    HW2 1530   2.595   1.074   1.410  0.7919 -0.8755 -1.5692
  511SOL     OW 1531   1.178   1.962   1.217  0.4632 -0.0296 -0.0294
  511SOL    HW1 1532   1.121   2.031   1.164 -2.5541  1.8417 -1.0186
  511SOL    HW2 1533   1.152   1.951   1.313  0.0796 -0.9856 -2.1809
  512SOL     OW 1534   3.033   1.610   0.599 -0.2506  0.5086 -0.7830
  512SOL    HW1 1535   2.997   1.600   0.507 -2.7432 -2.4745 -1.5258
  512SOL    HW2 1536   3.035   1.710   0.635  0.9338  0.9204  3.0413
  513SOL     OW 1537   0.227   1.247   0.047  0.2722 -0.1843 -0.7933
  513SOL    HW1 1538   0.205   1.348   0.031  0.0665  1.1982 -0.4338
  513SOL    HW2 1539   0.165   1.189   3.070 -0.4478 -0.4730  0.8346
  514SOL     OW 1540   2.133   2.084   2.103  0.0715  0.5135 -0.3298
  514SOL    HW1 1541   2.227   2.039   2.111  1.3574 -0.2396  0.7375
  514SOL    HW2 1542   2.081   2.060   2.186 -0.9244 -1.3382  1.4011
  515SOL     OW 1543   2.359   1.224   0.744  0.4690 -0.2057 -0.2367
  515SOL    HW1 1544   2.311   1.189   0.661 -2.2454 -1.8985  1.1579
  515SOL    HW2 1545   2.447   1.267   0.723 -0.5075 -0.2538  3.5363
  516SOL     OW 1546   2.385   2.916   0.133  0.3303  0.0616 -0.0001
  516SOL    HW1 1547   2.294   2.918   0.092 -0.5258  1.9102 -0.4243
  516SOL    HW2 1548   2.450   2.853   0.080  0.0362 -0.9991  2.1809
  517SOL     OW 1549   0.988   1.538   2.711 -0.1251 -0.1024 -0.3941
  517SOL    HW1 1550   1.086   1.578   2.704  3.3682  1.1390 -1.9301
  517SOL    HW2 1551   0.954   1.515   2.618  0.0391 -1.0547  1.4397
  518SOL     OW 1552   0.196   0.282   1.903 -0.2052  0.1654 -0.2466
  518SOL    HW1 1553   0.295   0.273   1.880 -2.8498 -0.4488  0.8968
  518SOL    HW2 1554   0.146   0.193   1.911 -1.2274  1.0128  1.7011
  519SOL     OW 1555   1.091   1.036   0.123 -0.1861 -0.1439 -0.0267
  519SOL    HW1 1556   1.158   0.959   0.132  0.5267 -0.7186 -2.2275
  519SOL    HW2 1557   1.131   1.128   0.107  0.1746 -0.4945  0.8593
  520SOL     OW 1558   2.590   2.394   2.132 -0.5891 -0.4388  0.2331
  520SOL    HW1 1559   2.555   2.482   2.180 -1.9574  0.4876  1.1981
  520SOL    HW2 1560   2.673   2.420   2.079 -2.7142  0.2269 -0.4970
  521SOL     OW 1561   0.331   1.782   2.070 -0.9877  0.2138  0.2286
  521SOL    HW1 1562   0.395   1.778   2.147  0.2901 -2.5886 -0.2423
  521SOL    HW2 1563   0.379   1.815   1.985  2.7540  1.8887 -3.5383
  522SOL     OW 1564   1.336   2.875   1.905  0.8128  0.0292 -0.0480
  522SOL    HW1 1565   1.273   2.800   1.934  0.8015  0.3604  0.8372
  522SOL    HW2 1566   1.334   2.887   1.803 -0.4235  0.9346 -0.2980
  523SOL     OW 1567   1.859   2.274   1.471 -0.1852  0.0544 -0.2646
  523SOL    HW1 1568   1.886   2.321   1.383 -0.5311 -0.2078 -1.0404
  523SOL    HW2 1569   1.939   2.264   1.536 -0.2486  1.2027 -0.1503
  524SOL     OW 1570   0.696   2.453   0.566  0.0195 -0.1123 -0.1585
  524SOL    HW1 1571   0.682   2.535   0.622  1.0604 -0.4752 -3.2891
  524SOL    HW2 1572   0.776   2.393   0.582  0.0717  1.9052 -2.1852
  525SOL     OW 1573   2.803   0.340   0.556 -0.2663 -0.5206  0.3371
  525SOL    HW1 1574   2.770   0.427   0.524  2.1325 -0.8582  0.7149
  525SOL    HW2 1575   2.870   0.296   0.493 -2.2104  0.4205  1.6791
  526SOL     OW 1576   0.833   0.015   0.643 -0.1821 -0.4296 -0.1232
  526SOL    HW1 1577   0.779   0.033   0.727 -1.0308 -0.8271 -2.3411
  526SOL    HW2 1578   0.919   3.046   0.664 -0.5084  2.3062 -3.3981
  527SOL     OW 1579   1.833   1.401   0.880 -0.5107 -0.3660 -0.1450
  527SOL    HW1 1580   1.871   1.316   0.850 -0.0061  4.8638  3.3288
  527SOL    HW2 1581   1.861   1.478   0.821  1.0976  0.9199 -0.2943
  528SOL     OW 1582   2.765   2.474   2.441 -0.3779  0.0995 -0.4585
  528SOL    HW1 1583   2.764   2.518   2.347 -1.1932  1.3157 -0.9393
  528SOL    HW2 1584   2.813   2.386   2.449 -2.2270 -0.1694  0.5458
  529SOL     OW 1585   1.027   1.460   2.385  0.2179 -0.0119  0.0029
  529SOL    HW1 1586   0.993   1.553   2.409  0.3579 -0.7917 -0.5051
  529SOL    HW2 1587   0.955   1.395   2.360  1.2620 -0.2323 -3.2680
  530SOL     OW 1588   1.467   0.864   2.985 -0.1205  0.7544  0.1129
  530SOL    HW1 1589   1.537   0.937   2.956  0.3658  2.6960 -0.2662
  530SOL    HW2 1590   1.515   0.811   3.059 -1.7392  1.0534 -0.3138
  531SOL     OW 1591   0.409   0.814   0.502 -0.0844 -0.2665 -0.0308
  531SOL    HW1 1592   0.493   0.868   0.525  0.2719 -1.5756 -1.7691
  531SOL    HW2 1593   0.379   0.828   0.410  3.2244  0.9453  1.5567
  532SOL     OW 1594   1.651   1.073   0.773 -0.7654 -0.0217  0.7008
  532SOL    HW1 1595   1.615   0.976   0.781 -0.3014 -1.8662 -0.7178
  532SOL    HW2 1596   1.582   1.146   0.763  0.8802 -0.1431 -0.0781
  533SOL     OW 1597   0.451   0.433   2.306  0.5458  0.1420  0.5032
  533SOL    HW1 1598   0.486   0.334   2.304  0.8738 -3.6541  0.3606
  533SOL    HW2 1599   0.516   0.500   2.347 -1.7069  0.4888  0.0536
  534SOL     OW 1600   0.658   3.077   2.879  0.3202  0.1787 -0.1798
  534SOL    HW1 1601   0.698   3.047   2.972  2.7129 -0.4275  1.8214
  534SOL    HW2 1602   0.567   3.033   2.875 -0.0502  2.2857  2.2634
  535SOL     OW 1603   0.345   0.408   0.041 -0.3770 -0.1105  0.3137
  535SOL    HW1 1604   0.270   0.451   0.096 -0.8420  1.1834 -0.3568
  535SOL    HW2 1605   0.346   0.305   0.030 -0.1408 -0.9835 -1.6629
  536SOL     OW 1606   0.530   0.882   2.273 -0.8804 -0.2675 -0.0716
  536SOL    HW1 1607   0.444   0.925   2.243 -0.3416  1.1069 -2.1569
  536SOL    HW2 1608   0.593   0.862   2.194 -0.2895  1.3714  3.1454
  537SOL     OW 1609   1.203   0.213   1.192 -0.1601 -0.0825 -0.1823
  537SOL    HW1 1610   1.201   0.112   1.211  0.3328 -0.3403 -0.5150
  537SOL    HW2 1611   1.221   0.231   1.095  0.8775 -1.3497  0.9825
  538SOL     OW 1612   0.853   1.792   0.072  0.3120  0.3284  0.3110
  538SOL    HW1 1613   0.878   1.890   0.080  0.8495 -0.2100 -2.9787
  538SOL    HW2 1614   0.916   1.746   0.008 -0.6998  2.0258 -0.0677
  539SOL     OW 1615   2.547   1.383   1.808  0.5028 -0.0285 -0.0288
  539SOL    HW1 1616   2.642   1.421   1.802 -0.9489 -1.1475  0.6882
  539SOL    HW2 1617   2.482   1.458   1.777  0.2980  0.2292 -2.7254
  540SOL     OW 1618   1.686   1.656   1.742 -0.3148 -0.2278 -0.0543
  540SOL    HW1 1619   1.630   1.637   1.659  0.2315 -0.7443  0.7965
  540SOL    HW2 1620   1.754   1.733   1.713  2.5116  0.8658 -2.9557
  541SOL     OW 1621   0.774   1.195   1.660 -0.3745  0.4853  0.2692
  541SOL    HW1 1622   0.747   1.095   1.673 -2.1804 -1.8809  1.3743
  541SOL    HW2 1623   0.799   1.215   1.566 -1.5632 -0.6937  0.5637
  542SOL     OW 1624   1.809   0.665   2.251  0.1455 -0.7512  0.0804
  542SOL    HW1 1625   1.786   0.764   2.255  0.4497 -1.3780  3.4425
  542SOL    HW2 1626   1.878   0.647   2.178  1.0540 -1.3630  1.7945
  543SOL     OW 1627   1.056   0.706   0.442  0.3627  0.0171 -0.4017
  543SOL    HW1 1628   1.041   0.810   0.445  0.7756  2.1704  0.4510
  543SOL    HW2 1629   0.989   0.644   0.390  0.0875 -1.3573  0.2174
  544SOL     OW 1630   2.395   1.922   2.178 -0.0612  0.2153  0.0231
  544SOL    HW1 1631   2.432   1.863   2.100  2.0285 -1.0627 -1.1430
  544SOL    HW2 1632   2.453   2.011   2.187  1.5417  2.2501 -3.2667
  545SOL     OW 1633   1.689   2.089   1.558  0.7958 -0.2248  0.0973
  545SOL    HW1 1634   1.769   2.128   1.507 -1.4046 -0.1289 -0.0333
  545SOL    HW2 1635   1.670   2.134   1.648 -0.9929  4.4971 -0.3276
  546SOL     OW 1636   0.247   0.167   2.867  0.4779 -0.1495  0.8518
  546SOL    HW1 1637   0.283   0.220   2.784  0.2929  1.1298  1.5461
  546SOL    HW2 1638   0.293   0.076   2.866  3.5271 -0.4766  0.3397
  547SOL     OW 1639   2.270   0.866   0.084  0.2298  0.2368  0.4753
  547SOL    HW1 1640   2.212   0.938   0.044  1.0767 -2.1794  0.1193
  547SOL    HW2 1641   2.255   0.785   0.027  1.5071 -0.7568 -0.2671
  548SOL     OW 1642   1.825   1.820   2.211 -0.9013  0.3053 -0.5110
  548SOL    HW1 1643   1.900   1.748   2.203  0.5643 -1.2745  0.3420
  548SOL    HW2 1644   1.844   1.886   2.288  1.8800  0.7511 -0.6607
  549SOL     OW 1645   2.160   0.226   0.712 -0.5249  0.0819 -0.6391
  549SOL    HW1 1646   2.119   0.133   0.719 -0.2014  0.7188 -1.1665
  549SOL    HW2 1647   2.233   0.228   0.639  1.5519 -0.1371  1.6732
  550SOL     OW 1648   2.420   1.816   0.716  0.3396 -0.1825  0.2448
  550SOL    HW1 1649   2.443   1.887   0.644 -1.1638  1.4382 -0.0122
  550SOL    HW2 1650   2.425   1.853   0.809  1.0262  0.1986 -1.2713
  551SOL     OW 1651   1.328   0.166   1.801  0.2077  0.4021  0.7242
  551SOL    HW1 1652   1.275   0.101   1.854  0.2674 -0.2203  1.8068
  551SOL    HW2 1653   1.301   0.158   1.702 -0.5600  1.3210 -1.2396
  552SOL     OW 1654   0.127   2.399   2.478  0.8270 -0.5346  0.6024
  552SOL    HW1 1655   0.128   2.457   2.391  0.6719 -2.1621  0.1400
  552SOL    HW2 1656   0.213   2.342   2.482 -1.2424 -1.9519 -1.6046
  553SOL     OW 1657   0.641   2.838   0.349  0.1261 -0.7031  0.0977
  553SOL    HW1 1658   0.611   2.918   0.413 -1.0974  2.0484  3.5211
  553SOL    HW2 1659   0.589   2.754   0.375  1.2724  1.5031 -0.9749
  554SOL     OW 1660   1.891   2.422   1.878  0.0596 -0.7543 -0.5560
  554SOL    HW1 1661   1.918   2.496   1.815 -0.9105  1.7117 -0.0391
  554SOL    HW2 1662   1.812   2.450   1.935 -0.1262  1.5004  0.9480
  555SOL     OW 1663   1.282   2.119   1.984  0.8014  0.4416  1.0764
  555SOL    HW1 1664   1.323   2.179   1.910  0.2123  3.6844 -1.8322
  555SOL    HW2 1665   1.208   2.049   1.958  2.4990  1.4044 -0.8889
  556SOL     OW 1666   1.495   1.629   1.006 -0.1134  0.2795 -0.2504
  556SOL    HW1 1667   1.525   1.541   0.957 -1.1306 -1.0020  0.1647
  556SOL    HW2 1668   1.407   1.672   0.975 -2.2491 -0.9249  1.7325
  557SOL     OW 1669   1.674   2.224   1.801 -0.5612 -0.1647  0.3243
  557SOL    HW1 1670   1.702   2.164   1.875 -1.4132  1.1543 -1.2601
  557SOL    HW2 1671   1.753   2.284   1.773 -0.5135  2.2614 -2.0402
  558SOL     OW 1672   0.459   0.238   1.845  0.5135  0.1694  0.2882
  558SOL    HW1 1673   0.476   0.161   1.910 -1.8431  1.5550 -2.5683
  558SOL    HW2 1674   0.548   0.276   1.812 -0.2111  1.9660 -0.4114
  559SOL     OW 1675   2.269   2.900   1.324 -0.6671  0.3259  0.1530
  559SOL    HW1 1676   2.349   2.927   1.260 -0.1088  0.8020  1.9796
  559SOL    HW2 1677   2.189   2.881   1.266  1.5345  2.7256 -1.4171
  560SOL     OW 1678   0.971   2.098   0.369 -0.2944 -0.5828 -0.0366
  560SOL    HW1 1679   1.068   2.119   0.349 -1.4348  1.0520 -1.3898
  560SOL    HW2 1680   0.923   2.159   0.432 -1.5219  0.7073  1.6562
  561SOL     OW 1681   0.922   0.548   0.280 -0.0951 -0.2455  0.4511
  561SOL    HW1 1682   0.852   0.484   0.324 -2.7065 -3.5524  0.0689
  561SOL    HW2 1683   0.963   0.496   0.202  1.3532 -0.6976 -1.2319
  562SOL     OW 1684   0.730   0.537   2.475 -0.0025  0.4139 -0.6430
  562SOL    HW1 1685   0.773   0.523   2.568 -0.2525  2.1681  1.9391
  562SOL    HW2 1686   0.697   0.631   2.460  0.2536 -0.3153 -2.7919
  563SOL     OW 1687   1.704   2.178   2.817 -0.1277  0.0363 -0.2057
  563SOL    HW1 1688   1.776   2.200   2.745 -1.0601  1.5597 -0.8386
  563SOL    HW2 1689   1.733   2.207   2.910 -0.3473 -0.1821 -0.0868
  564SOL     OW 1690   2.775   0.970   0.675  0.7546  0.1830  0.3936
  564SOL    HW1 1691   2.671   0.947   0.677 -0.9488 -0.1367  2.0260
  564SOL    HW2 1692   2.783   1.061   0.724  0.4100  0.5313  0.4039
  565SOL     OW 1693   1.561   0.165   2.616  0.8074 -0.3022 -0.3619
  565SOL    HW1 1694   1.600   0.240   2.564  0.4075 -0.6535 -0.2906
  565SOL    HW2 1695   1.591   0.161   2.717  0.4088 -2.0738  1.4511
  566SOL     OW 1696   1.808   0.160   2.233  0.3380 -0.6617  0.1887
  566SOL    HW1 1697   1.818   0.119   2.327  0.7759  2.8808 -1.1318
  566SOL    HW2 1698   1.745   0.114   2.167  0.1211  3.3654 -1.9754
  567SOL     OW 1699   2.615   1.560   0.660 -0.5624 -0.1725  0.5255
  567SOL    HW1 1700   2.545   1.630   0.697 -1.4650  0.2180  0.5730
  567SOL    HW2 1701   2.703   1.570   0.710 -2.0630 -0.5604  1.2654
  568SOL     OW 1702   1.790   1.826   0.322  0.5437 -0.0460 -0.2198
  568SOL    HW1 1703   1.829   1.912   0.290  1.8357 -2.4994 -0.5045
  568SOL    HW2 1704   1.717   1.841   0.388 -0.0247  2.2999  1.2343
  569SOL     OW 1705   2.142   1.763   2.882 -0.3224 -0.0512 -0.0913
  569SOL    HW1 1706   2.128   1.698   2.804  2.0658 -3.4047 -1.4608
  569SOL    HW2 1707   2.133   1.713   2.970  0.0808 -0.9292 -0.4099
  570SOL     OW 1708   3.008   2.847   1.753  0.5802 -0.2217  0.3368
  570SOL    HW1 1709   2.939   2.918   1.727  3.2846  0.9350  2.2117
  570SOL    HW2 1710   0.025   2.875   1.731  4.5283 -1.9377  1.8946
  571SOL     OW 1711   0.080   0.354   2.335 -0.6311 -0.0014  0.2141
  571SOL    HW1 1712   0.001   0.377   2.279  5.0009  0.6797 -0.5728
  571SOL    HW2 1713   0.134   0.438   2.354  1.0220  0.2686 -2.8206
  572SOL     OW 1714   0.674   1.539   0.647  0.2717 -0.3645 -0.2487
  572SOL    HW1 1715   0.576   1.541   0.613  1.7573 -2.4803  0.6210
  572SOL    HW2 1716   0.691   1.619   0.710  1.1684 -0.3461  0.2226
  573SOL     OW 1717   0.740   3.022   0.047 -0.1852  0.5192 -0.0592
  573SOL    HW1 1718   0.709   2.929   0.073  0.0644  0.9177 -1.2991
  573SOL    HW2 1719   0.840   3.028   0.074 -0.8405 -0.3316  0.6775
  574SOL     OW 1720   0.904   0.239   0.880 -0.2955 -0.3267 -0.2875
  574SOL    HW1 1721   0.804   0.247   0.853  0.3958 -1.4741  1.3603
  574SOL    HW2 1722   0.943   0.332   0.907 -0.4868 -0.3613  1.8431
  575SOL     OW 1723   2.901   1.253   1.588 -0.0902 -0.1377 -0.6501
  575SOL    HW1 1724   2.931   1.243   1.685  0.7557  0.8493  1.3021
  575SOL    HW2 1725   2.955   1.326   1.543  1.8735  0.4663  0.3922
  576SOL     OW 1726   2.025   0.404   1.705 -0.0498  0.1883  0.1153
  576SOL    HW1 1727   1.944   0.338   1.705  0.9703  0.8055  0.5445
  576SOL    HW2 1728   2.006   0.490   1.662 -1.9341 -0.9229  2.2018
  577SOL     OW 1729   0.034   1.112   2.105 -0.4673 -0.9695 -0.0492
  577SOL    HW1 1730   3.041   1.054   2.149  0.0013 -1.7019  1.9880
  577SOL    HW2 1731   0.122   1.063   2.127  0.4616 -2.1394 -0.6304
  578SOL     OW 1732   1.721   2.840   2.408 -0.4221 -0.3913 -0.2547
  578SOL    HW1 1733   1.766   2.930   2.425  0.3877  2.0424  1.3389
  578SOL    HW2 1734   1.720   2.787   2.492 -1.2826  2.0626 -1.2482
  579SOL     OW 1735   2.053   1.975   1.883 -0.7955 -0.0716  0.1509
  579SOL    HW1 1736   2.087   2.007   1.979  3.7397  1.9725  3.3382
  579SOL    HW2 1737   1.957   1.948   1.887  2.1775  0.3557 -0.7200
  580SOL     OW 1738   1.791   1.452   2.141 -0.3780 -0.4437 -0.1236
  580SOL    HW1 1739   1.714   1.501   2.183 -0.7346  1.8608  0.3588
  580SOL    HW2 1740   1.778   1.456   2.041  0.2016 -0.6469  0.8922
  581SOL     OW 1741   1.313   0.882   2.763 -0.5234 -0.1221  0.5985
  581SOL    HW1 1742   1.276   0.792   2.730 -0.5062 -2.0092 -1.3377
  581SOL    HW2 1743   1.377   0.867   2.843  1.9555  0.4615  0.0996
  582SOL     OW 1744   0.697   2.227   1.598  0.3618 -0.1094 -0.0499
  582SOL    HW1 1745   0.714   2.234   1.696  0.4901 -2.4897 -0.3067
  582SOL    HW2 1746   0.749   2.155   1.548 -0.4726  1.2132  2.6135
  583SOL     OW 1747   1.372   1.325   1.122 -0.4324 -0.0929 -0.4924
  583SOL    HW1 1748   1.300   1.282   1.064  3.5852  2.6753 -0.2994
  583SOL    HW2 1749   1.432   1.369   1.055 -0.4714 -1.4104  1.6452
  584SOL     OW 1750   1.297   2.447   0.607  0.2124  0.2274  0.0920
  584SOL    HW1 1751   1.239   2.516   0.561  1.2784  0.3965  1.2578
  584SOL    HW2 1752   1.244   2.370   0.648 -0.0533 -0.0538 -0.5684
  585SOL     OW 1753   2.528   2.748   0.007  0.3223  0.4727  0.3180
  585SOL    HW1 1754   2.617   2.710   0.041 -2.2721 -1.7155 -2.1284
  585SOL    HW2 1755   2.523   2.745   2.984 -0.7722  1.8183 -2.5754
  586SOL     OW 1756   2.714   1.842   0.495 -0.1578 -0.4905  0.7339
  586SOL    HW1 1757   2.785   1.839   0.564 -2.5411  1.4541  0.4364
  586SOL    HW2 1758   2.639   1.903   0.522 -0.8148  1.9118  0.4497
  587SOL     OW 1759   1.013   1.436   0.051  0.2638 -0.0720 -0.3343
  587SOL    HW1 1760   1.063   1.363   3.080  1.6025 -0.6445 -0.0321
  587SOL    HW2 1761   1.037   1.445   0.148 -0.6287 -0.7024 -0.8172
  588SOL     OW 1762   0.407   0.409   0.769  0.2009 -0.1335  0.0630
  588SOL    HW1 1763   0.362   0.323   0.797 -0.7980  1.9770 -1.7750
  588SOL    HW2 1764   0.363   0.495   0.794 -1.0588  0.8232 -3.0402
  589SOL     OW 1765   1.139   0.330   0.438  0.0330 -0.1385 -0.2341
  589SOL    HW1 1766   1.052   0.276   0.455 -0.7013  0.5385  0.9044
  589SOL    HW2 1767   1.144   0.404   0.510 -0.7350 -0.1205  0.7989
  590SOL     OW 1768   2.186   2.537   0.184  0.1660 -0.0445 -0.0177
  590SOL    HW1 1769   2.191   2.512   0.285  1.2284  2.0319 -0.1909
  590SOL    HW2 1770   2.180   2.635   0.162  0.4665 -0.6817 -0.8553
  591SOL     OW 1771   0.256   2.808   1.923  0.0873  0.0031  0.1084
  591SOL    HW1 1772   0.191   2.878   1.958 -0.8641  1.6906 -1.0968
  591SOL    HW2 1773   0.211   2.737   1.871  1.3752  1.3794  4.2821
  592SOL     OW 1774   0.025   1.571   2.284  0.0582  0.2929  0.3148
  592SOL    HW1 1775   0.046   1.476   2.249 -2.7836  0.6217 -0.1386
  592SOL    HW2 1776   0.068   1.648   2.235 -0.2617  0.9290  0.3261
  593SOL     OW 1777   1.869   1.482   1.149 -0.0251 -0.1698 -0.3947
  593SOL    HW1 1778   1.800   1.430   1.205  0.6342  0.4284 -1.6314
  593SOL    HW2 1779   1.863   1.461   1.050  0.6060 -0.6696  3.8564
  594SOL     OW 1780   0.453   1.157   2.994  0.8693  0.2452  0.5260
  594SOL    HW1 1781   0.466   1.206   2.906 -1.2286 -0.2996  2.7814
  594SOL    HW2 1782   0.365   1.185   3.039 -1.7529  0.9261  1.6791
  595SOL     OW 1783   1.130   1.221   1.005  0.4644  0.2248  0.2148
  595SOL    HW1 1784   1.128   1.120   1.028  1.1748 -0.6907  0.8809
  595SOL    HW2 1785   1.066   1.249   0.934  2.0726 -2.9187  1.0801
  596SOL     OW 1786   2.774   1.256   1.202  0.7417  0.3085 -0.1588
  596SOL    HW1 1787   2.769   1.156   1.192 -2.1555 -1.6190  0.1173
  596SOL    HW2 1788   2.844   1.309   1.156 -1.7988 -1.3880  3.1125
  597SOL     OW 1789   1.058   2.331   1.738 -0.1034  0.2404 -0.0540
  597SOL    HW1 1790   0.979   2.345   1.799 -1.4407 -0.9106 -3.5274
  597SOL    HW2 1791   1.075   2.233   1.717  1.8236  1.1381 -1.7769
  598SOL     OW 1792   2.195   2.595   2.156 -0.1133 -0.5674 -0.1072
  598SOL    HW1 1793   2.160   2.502   2.142 -1.3191  0.1903  4.2515
  598SOL    HW2 1794   2.211   2.647   2.070 -0.9494 -1.1521 -0.1413
  599SOL     OW 1795   0.854   1.012   3.020  0.0190  0.6744 -0.2479
  599SOL    HW1 1796   0.841   1.075   2.945 -0.1719 -3.3063  0.6040
  599SOL    HW2 1797   0.941   1.031   3.068 -0.4888  0.1797 -1.2189
  600SOL     OW 1798   1.068   0.671   2.914  0.0801  0.0776  0.4305
  600SOL    HW1 1799   0.997   0.669   2.988 -0.5924  1.1892  1.7010
  600SOL    HW2 1800   1.148   0.615   2.935 -0.9949  1.0022  1.6989
  601SOL     OW 1801   0.897   0.438   1.637 -0.2539  0.6273 -0.3016
  601SOL    HW1 1802   0.992   0.462   1.658  0.8226 -1.9066 -0.2937
  601SOL    HW2 1803   0.828   0.511   1.661 -0.2438 -0.5053  3.7591
  602SOL     OW 1804   0.334   2.357   0.696 -0.0036  0.4193  0.8578
  602SOL    HW1 1805   0.308   2.262   0.677  2.4816  0.3734 -0.0181
  602SOL    HW2 1806   0.315   2.413   0.613  0.4177 -0.9545 -0.8148
  603SOL     OW 1807   0.945   2.362   2.222 -0.4869  0.5285 -0.4930
  603SOL    HW1 1808   0.896   2.414   2.293  3.4817  1.1361  0.1625
  603SOL    HW2 1809   1.036   2.404   2.203 -1.3119 -2.3065 -1.6243
  604SOL     OW 1810   0.223   1.974   3.055  0.0738  0.0067  0.2243
  604SOL    HW1 1811   0.245   1.902   2.983  0.4542 -1.2830  1.1914
  604SOL    HW2 1812   0.134   1.948   0.022 -2.4931  1.2373  1.0873
  605SOL     OW 1813   2.065   1.535   1.827 -0.0745  0.3895  0.2381
  605SOL    HW1 1814   1.967   1.514   1.833 -0.4618  0.7395 -3.4761
  605SOL    HW2 1815   2.101   1.452   1.778 -0.2624 -0.5268 -2.0582
  606SOL     OW 1816   0.982   1.163   2.749  0.0428  0.2938 -0.1149
  606SOL    HW1 1817   0.987   1.265   2.742  0.3263  1.2249  1.1187
  606SOL    HW2 1818   1.079   1.129   2.746 -1.2906 -0.1947  1.4297
  607SOL     OW 1819   1.142   0.963   1.086 -0.5767  0.2101  0.4943
  607SOL    HW1 1820   1.205   0.904   1.144  1.1917  0.3389  1.7823
  607SOL    HW2 1821   1.047   0.946   1.114 -1.9466  1.5975 -4.1279
  608SOL     OW 1822   2.780   1.944   1.986 -0.0712 -0.2557 -0.4492
  608SOL    HW1 1823   2.733   2.004   1.921 -2.8611 -1.8136  2.1020
  608SOL    HW2 1824   2.839   1.998   2.050 -0.4349 -1.4207  1.5765
  609SOL     OW 1825   2.322   0.062   0.321  0.4965  0.3901 -0.0889
  609SOL    HW1 1826   2.319   0.075   0.216  1.0904 -1.9440  0.9681
  609SOL    HW2 1827   2.288   3.048   0.346  1.2857 -3.5694  0.3291
  610SOL     OW 1828   0.033   2.457   1.298 -0.2493  0.3540 -0.2279
  610SOL    HW1 1829   0.069   2.547   1.326  1.9307 -0.2888  0.1338
  610SOL    HW2 1830   0.103   2.381   1.310 -0.2863 -3.3298 -1.1826
  611SOL     OW 1831   1.524   2.163   0.359  0.3110 -0.1315 -0.1364
  611SOL    HW1 1832   1.570   2.133   0.274 -0.5658 -1.3662  0.5143
  611SOL    HW2 1833   1.568   2.118   0.440  1.8098 -1.1986  0.6215
  612SOL     OW 1834   0.763   0.037   1.856  0.5119  0.2312 -0.0614
  612SOL    HW1 1835   0.863   0.013   1.847  0.4822  1.5250 -0.8669
  612SOL    HW2 1836   0.756   0.135   1.873 -0.9613 -2.6892  3.1021
  613SOL     OW 1837   2.896   2.054   0.686 -0.0339 -0.2259  0.2470
  613SOL    HW1 1838   2.973   2.102   0.642  2.0873 -0.0811 -1.0451
  613SOL    HW2 1839   2.814   2.073   0.636  0.5378  0.7154 -0.6380
  614SOL     OW 1840   2.157   0.390   1.951  0.0967  0.8670  0.3786
  614SOL    HW1 1841   2.259   0.406   1.943  0.4260  1.3860  0.0907
  614SOL    HW2 1842   2.109   0.388   1.860 -1.3434 -2.0364 -1.5852
  615SOL     OW 1843   1.217   1.627   0.992 -0.5467 -0.6688 -0.2365
  615SOL    HW1 1844   1.154   1.703   1.010  2.7682  1.0681  1.3481
  615SOL    HW2 1845   1.191   1.538   1.039  1.0511 -4.2028 -0.1581
  616SOL     OW 1846   1.813   1.731   0.026 -0.4234 -0.2883 -0.2186
  616SOL    HW1 1847   1.813   1.770   0.119  1.0392 -0.0109 -2.3535
  616SOL    HW2 1848   1.756   1.783   3.038 -0.6043  2.0050 -0.7883
  617SOL     OW 1849   2.017   0.061   0.356  0.0419  0.0917  0.3258
  617SOL    HW1 1850   2.099   0.009   0.375 -1.8807  3.9684 -1.8505
  617SOL    HW2 1851   1.996   0.060   0.257  0.9557  0.6558 -1.6476
  618SOL     OW 1852   0.628   0.793   2.520  0.4819 -0.0689 -0.0109
  618SOL    HW1 1853   0.585   0.818   2.426 -2.1474 -0.5416 -1.4276
  618SOL    HW2 1854   0.656   0.879   2.567 -0.3050 -0.7817  1.1958
  619SOL     OW 1855   2.801   1.550   1.236  0.5562 -0.6249  0.0228
  619SOL    HW1 1856   2.837   1.503   1.156 -0.0858 -0.9157  2.3185
  619SOL    HW2 1857   2.695   1.572   1.231 -2.7184  0.4853  0.7797
  620SOL     OW 1858   2.072   2.928   2.568 -0.0037 -0.1206  0.5605
  620SOL    HW1 1859   2.025   3.019   2.587  2.9243  1.2243  2.6096
  620SOL    HW2 1860   2.126   2.931   2.480 -0.4357 -0.9646 -1.1113
  621SOL     OW 1861   2.684   1.807   3.033  0.6981 -0.5727 -0.0480
  621SOL    HW1 1862   2.784   1.792   3.014  0.1258  1.3864 -0.8142
  621SOL    HW2 1863   2.639   1.717   3.044  1.2068 -1.7444  0.6039
  622SOL     OW 1864   1.702   3.077   2.046  0.0699 -0.1646 -0.2835
  622SOL    HW1 1865   1.661   2.990   2.085 -1.8034 -1.7642 -0.4825
  622SOL    HW2 1866   1.782   3.050   1.986  1.0782 -0.0656  0.7332
  623SOL     OW 1867   0.586   2.144   0.991 -0.0512  0.9478 -0.0335
  623SOL    HW1 1868   0.649   2.209   1.036 -0.4719 -1.9749 -1.6461
  623SOL    HW2 1869   0.488   2.169   0.997 -1.3561 -2.0756  0.0322
  624SOL     OW 1870   0.147   0.131   0.052  0.1862  0.4068 -0.5977
  624SOL    HW1 1871   0.128   0.031   0.070  0.3747  1.5660 -1.9771
  624SOL    HW2 1872   0.142   0.149   3.030  1.1650  2.7071  1.7144
  625SOL     OW 1873   0.760   1.762   0.802  0.0630  0.4415  0.6549
  625SOL    HW1 1874   0.732   1.811   0.891 -1.3364 -1.3476  2.4382
  625SOL    HW2 1875   0.785   1.829   0.728  0.9933  0.2311  0.5267
  626SOL     OW 1876   2.889   0.265   3.033  0.2406  0.1191  0.3659
  626SOL    HW1 1877   2.967   0.274   2.969 -0.0754  1.7751  0.4471
  626SOL    HW2 1878   2.859   0.170   3.035  3.3970  2.2539  1.1205
  627SOL     OW 1879   1.275   1.623   2.663 -0.4381  0.1213 -0.0021
  627SOL    HW1 1880   1.372   1.650   2.681  2.8870 -0.6311  0.4130
  627SOL    HW2 1881   1.271   1.579   2.573 -0.1979  0.4991 -2.2199
  628SOL     OW 1882   0.120   2.576   2.894 -0.5719 -0.0747  0.3370
  628SOL    HW1 1883   0.139   2.607   2.803 -1.3177 -2.3677  3.1474
  628SOL    HW2 1884   0.066   2.648   2.945 -0.4556 -2.1847  0.0053
  629SOL     OW 1885   0.514   2.790   2.630 -0.3156  0.2745 -0.1023
  629SOL    HW1 1886   0.432   2.754   2.579  1.5715  0.1555 -0.3751
  629SOL    HW2 1887   0.541   2.716   2.701 -0.3952 -0.6135  1.4134
  630SOL     OW 1888   1.456   1.062   1.875  0.1350  0.0727  0.2541
  630SOL    HW1 1889   1.499   1.065   1.787 -1.7728 -1.8514  0.8987
  630SOL    HW2 1890   1.366   1.113   1.883 -1.5745  0.1743 -1.3935
  631SOL     OW 1891   2.152   1.169   0.175  0.2597  0.4094  1.1888
  631SOL    HW1 1892   2.181   1.233   0.250  1.1007  0.6517  3.1881
  631SOL    HW2 1893   2.209   1.173   0.089 -0.9586 -2.5303  1.8683
  632SOL     OW 1894   2.828   0.496   1.889 -0.2929 -0.7572 -0.0454
  632SOL    HW1 1895   2.880   0.582   1.914  2.7602 -0.5397  0.7991
  632SOL    HW2 1896   2.746   0.490   1.948  1.9564 -1.1525  0.8140
  633SOL     OW 1897   0.737   1.402   0.044 -0.2465  0.1013  0.0772
  633SOL    HW1 1898   0.836   1.433   0.055 -0.4165  2.3892 -0.7607
  633SOL    HW2 1899   0.735   1.314   0.092  2.0600  2.3432 -2.3406
  634SOL     OW 1900   2.122   2.553   2.428 -0.4256  0.1923 -0.1517
  634SOL    HW1 1901   2.089   2.641   2.471  1.2083  1.5904  1.3037
  634SOL    HW2 1902   2.097   2.562   2.332 -0.5171 -0.8343  2.3913
  635SOL     OW 1903   1.962   0.530   0.336  0.4412  0.2939 -0.1341
  635SOL    HW1 1904   1.983   0.491   0.427 -2.2590  0.7615 -1.2681
  635SOL    HW2 1905   2.013   0.496   0.260  1.0466  2.3536  0.8401
  636SOL     OW 1906   0.736   1.271   0.652  0.0843  0.0719  0.3194
  636SOL    HW1 1907   0.754   1.254   0.552 -1.6627 -2.3146 -0.2519
  636SOL    HW2 1908   0.698   1.364   0.667  0.3809 -2.3557 -0.0487
  637SOL     OW 1909   3.033   2.229   0.331  0.0301 -0.2009  0.5291
  637SOL    HW1 1910   2.941   2.180   0.321 -0.4535 -0.0950 -0.7345
  637SOL    HW2 1911   3.052   2.227   0.434 -0.5644 -0.4301  0.5663
  638SOL     OW 1912   1.286   2.719   2.708  0.6827 -0.0285 -0.2324
  638SOL    HW1 1913   1.258   2.736   2.612  0.1963 -1.0266 -1.9248
  638SOL    HW2 1914   1.305   2.621   2.731 -0.2673 -0.5519 -0.1336
  639SOL     OW 1915   1.391   1.902   0.174  0.3244 -0.4563  0.0140
  639SOL    HW1 1916   1.298   1.936   0.142 -1.0168 -1.6055 -1.2108
  639SOL    HW2 1917   1.382   1.865   0.270 -0.9840  2.9063  1.7229
  640SOL     OW 1918   1.666   3.022   0.767  0.1707 -0.4271  0.1699
  640SOL    HW1 1919   1.697   0.016   0.836 -3.0227  1.3151  1.3310
  640SOL    HW2 1920   1.746   2.984   0.719  0.2066 -0.8763  1.3271
  641SOL     OW 1921   3.022   3.021   0.500 -0.3259 -0.2255 -0.3029
  641SOL    HW1 1922   3.041   3.062   0.592  0.6480 -1.1561  0.2278
  641SOL    HW2 1923   2.988   2.924   0.506 -3.9849 -2.6962  1.1533
  642SOL     OW 1924   1.029   0.162   1.666  0.6675  0.0800  0.3173
  642SOL    HW1 1925   0.958   0.125   1.599 -0.5166  0.6610  0.8253
  642SOL    HW2 1926   1.003   0.244   1.717 -0.5104  0.4820  0.8773
  643SOL     OW 1927   0.746   1.195   2.049  0.3752  0.4371  0.0531
  643SOL    HW1 1928   0.704   1.243   2.127  1.9366 -1.9754 -2.6367
  643SOL    HW2 1929   0.839   1.226   2.027 -3.2028 -1.3864 -2.2540
  644SOL     OW 1930   0.873   2.451   0.106  0.0067 -0.3853 -0.4616
  644SOL    HW1 1931   0.827   2.361   0.071 -0.9453 -3.3002 -2.4701
  644SOL    HW2 1932   0.971   2.443   0.121  0.6317  2.4017 -0.4673
  645SOL     OW 1933   1.611   2.076   0.110 -0.1007  0.0306 -0.6031
  645SOL    HW1 1934   1.559   2.161   0.089  1.1034  0.5282  0.2837
  645SOL    HW2 1935   1.546   1.999   0.123  2.0503 -2.1533  2.2737
  646SOL     OW 1936   0.217   1.518   3.066  0.0327 -0.3690 -0.1585
  646SOL    HW1 1937   0.149   1.552   3.000  0.6067  0.6304  1.9590
  646SOL    HW2 1938   0.310   1.560   3.050  1.4926  0.1417  2.2109
  647SOL     OW 1939   0.858   3.066   1.042  0.6283  0.3628  0.4435
  647SOL    HW1 1940   0.948   3.018   1.045 -0.7800  0.2922  0.4210
  647SOL    HW2 1941   0.859   0.062   1.105  2.8420 -1.1241  0.3331
  648SOL     OW 1942   1.715   0.531   1.607  0.9338  0.6892  0.0986
  648SOL    HW1 1943   1.764   0.521   1.520  1.4777 -0.2852 -0.7574
  648SOL    HW2 1944   1.768   0.589   1.670 -0.8882 -0.2695 -0.0887
  649SOL     OW 1945   1.215   1.806   2.893  0.0366 -0.0872  0.0583
  649SOL    HW1 1946   1.242   1.753   2.810 -0.7035 -0.9492  0.3989
  649SOL    HW2 1947   1.142   1.749   2.932  1.7343  0.2977 -0.3967
  650SOL     OW 1948   2.841   1.615   2.200 -0.5221  0.1258  0.3001
  650SOL    HW1 1949   2.811   1.704   2.243 -2.5489  0.6539  1.2909
  650SOL    HW2 1950   2.937   1.589   2.234  1.5200 -0.5841 -1.2388
  651SOL     OW 1951   1.110   2.659   3.031 -0.6089  0.1186 -0.1396
  651SOL    HW1 1952   1.097   2.560   3.010  0.8908 -1.9367  0.3855
  651SOL    HW2 1953   1.075   2.710   2.954 -2.2688 -1.0433  1.4550
  652SOL     OW 1954   2.884   2.096   2.981 -0.4485  0.7181  0.4509
  652SOL    HW1 1955   2.804   2.136   3.033  1.1324 -1.4343  0.8313
  652SOL    HW2 1956   2.937   2.170   2.934  1.9619 -1.4212  0.6132
  653SOL     OW 1957   0.237   0.014   1.039 -0.5402 -0.3909 -0.3974
  653SOL    HW1 1958   0.214   2.997   1.026 -1.0156 -0.0623  0.0745
  653SOL    HW2 1959   0.159   0.051   1.099 -2.2226  0.5607  0.7198
  654SOL     OW 1960   2.237   0.213   2.401  0.1915 -0.2923 -0.2028
  654SOL    HW1 1961   2.186   0.218   2.310  1.6878 -1.5997  1.8511
  654SOL    HW2 1962   2.281   0.123   2.420 -1.0353  0.8665 -1.4298
  655SOL     OW 1963   0.430   2.843   0.961 -0.2786  0.0529 -0.6022
  655SOL    HW1 1964   0.451   2.895   0.878  1.9806  2.2119 -0.4483
  655SOL    HW2 1965   0.344   2.800   0.957  2.6920 -0.8417  2.8071
  656SOL     OW 1966   2.911   0.003   2.312  0.3154  0.7909 -0.2956
  656SOL    HW1 1967   2.848   0.079   2.296  2.5712  0.6832  0.7218
  656SOL    HW2 1968   3.009   0.029   2.298  1.1231 -0.0254  1.1843
  657SOL     OW 1969   2.607   0.584   2.639  0.5153  0.0711 -0.3375
  657SOL    HW1 1970   2.549   0.619   2.563 -1.0653 -1.0738 -0.8182
  657SOL    HW2 1971   2.629   0.486   2.627 -1.1777 -0.8378 -0.0840
  658SOL     OW 1972   2.289   2.030   0.909 -0.0661  0.0471 -0.3117
  658SOL    HW1 1973   2.290   2.070   0.999  1.1803 -2.1005 -3.1751
  658SOL    HW2 1974   2.322   2.106   0.849  0.0393 -1.9389  1.4480
  659SOL     OW 1975   1.986   2.812   0.212  0.8910  0.3895 -0.3047
  659SOL    HW1 1976   1.910   2.752   0.251  1.0981  1.9435 -0.6505
  659SOL    HW2 1977   1.985   2.806   0.111 -1.0257  1.0749  0.2199
  660SOL     OW 1978   1.484   0.991   2.547  0.9788  0.0459  0.1171
  660SOL    HW1 1979   1.433   1.082   2.546 -3.0027  1.4343  0.9496
  660SOL    HW2 1980   1.420   0.923   2.588  0.9810  1.8142  0.0434
  661SOL     OW 1981   2.378   2.498   1.251  0.1373  1.0996 -0.3129
  661SOL    HW1 1982   2.402   2.421   1.191 -1.8048  0.8774 -1.5977
  661SOL    HW2 1983   2.354   2.476   1.347 -1.9679  0.1700 -3.3389
  662SOL     OW 1984   0.724   0.930   0.354 -0.5671  0.1019 -0.0206
  662SOL    HW1 1985   0.681   0.874   0.279  0.3378 -0.4767 -1.9380
  662SOL    HW2 1986   0.652   0.956   0.421 -0.9081 -0.1932  1.0571
  663SOL     OW 1987   1.923   2.185   0.473 -0.4075 -0.2582 -0.2538
  663SOL    HW1 1988   1.988   2.120   0.512 -1.3445  1.4213 -4.8348
  663SOL    HW2 1989   1.881   2.151   0.388  0.9339  0.5242  0.3291
  664SOL     OW 1990   0.813   1.794   1.254 -0.1846 -0.4714  0.1099
  664SOL    HW1 1991   0.762   1.836   1.176 -1.5736  0.3804  0.3881
  664SOL    HW2 1992   0.812   1.859   1.334 -1.2841  1.3953 -1.1804
  665SOL     OW 1993   1.771   2.175   2.165 -0.2561  0.2180  0.5340
  665SOL    HW1 1994   1.852   2.175   2.228  1.4253 -0.7687  0.2044
  665SOL    HW2 1995   1.782   2.102   2.090  1.3350 -0.1748 -1.1901
  666SOL     OW 1996   0.217   2.462   0.197 -0.1727  0.8469 -0.0545
  666SOL    HW1 1997   0.314   2.492   0.175 -1.7672  2.1221 -2.3735
  666SOL    HW2 1998   0.184   2.370   0.159 -1.9862  0.0900 -2.1068
  667SOL     OW 1999   2.383   1.564   1.706  0.1563  0.1590  0.5894
  667SOL    HW1 2000   2.383   1.663   1.724  0.5398  0.1339  0.8663
  667SOL    HW2 2001   2.421   1.553   1.615 -0.0698 -0.7316  2.3047
  668SOL     OW 2002   0.454   0.609   2.652 -0.4578 -0.5955  0.2196
  668SOL    HW1 2003   0.537   0.675   2.650  1.1789  1.6033 -0.6299
  668SOL    HW2 2004   0.446   0.549   2.733 -2.0798  0.8153 -4.1814
  669SOL     OW 2005   1.855   2.342   3.027 -0.0472 -0.5332  0.3437
  669SOL    HW1 2006   1.821   2.434   3.029 -0.3462 -0.7154  1.2909
  669SOL    HW2 2007   1.955   2.349   3.046  0.2422 -3.5426  1.0062
  670SOL     OW 2008   2.466   1.935   2.882  0.1721 -0.1450  0.2179
  670SOL    HW1 2009   2.448   1.880   2.800 -0.5876 -0.0241 -0.4682
  670SOL    HW2 2010   2.535   1.886   2.936  0.7378 -2.0794 -1.9980
  671SOL     OW 2011   0.060   1.307   1.294  0.2433 -0.3642  0.5310
  671SOL    HW1 2012   0.087   1.351   1.203  0.6952 -2.2936 -0.4646
  671SOL    HW2 2013   0.036   1.208   1.280  0.2393  1.5335 -0.5633
  672SOL     OW 2014   2.396   0.925   2.280 -0.4493  0.1461 -0.2728
  672SOL    HW1 2015   2.453   0.967   2.211 -1.1268 -0.3358 -1.8639
  672SOL    HW2 2016   2.346   0.994   2.339  3.0523  2.8848  1.1634
  673SOL     OW 2017   2.431   2.588   2.281  0.0437  0.3453 -0.0586
  673SOL    HW1 2018   2.416   2.536   2.366 -1.4294 -1.4092  2.2780
  673SOL    HW2 2019   2.345   2.576   2.225  0.1087  0.0021 -0.6795
  674SOL     OW 2020   1.212   2.458   2.187 -0.6999  0.2092  0.2085
  674SOL    HW1 2021   1.255   2.433   2.100  0.7323  1.5325  3.2975
  674SOL    HW2 2022   1.276   2.496   2.251 -2.4360 -1.1047 -1.3136
  675SOL     OW 2023   0.538   0.811   0.970 -0.1343 -0.3651  0.4208
  675SOL    HW1 2024   0.446   0.843   0.997 -1.9954 -1.8522 -1.1992
  675SOL    HW2 2025   0.608   0.886   0.981  0.1367  1.3705  0.5553
  676SOL     OW 2026   1.838   0.815   0.723 -0.3512 -0.3318 -0.8083
  676SOL    HW1 2027   1.806   0.829   0.630  2.1241  0.5937  3.6570
  676SOL    HW2 2028   1.925   0.870   0.733 -0.3775 -0.4392  1.0019
  677SOL     OW 2029   3.047   1.590   2.552 -0.4959  0.0338 -0.4425
  677SOL    HW1 2030   0.024   1.543   2.482  1.1714 -0.8295  1.3406
  677SOL    HW2 2031   2.962   1.635   2.526 -1.3347 -0.9208  0.8669
  678SOL     OW 2032   2.412   1.870   1.190 -0.2000  0.4015 -0.1042
  678SOL    HW1 2033   2.361   1.790   1.169  0.4926  2.3089  3.6419
  678SOL    HW2 2034   2.400   1.899   1.285  0.3608  1.8374 -1.0594
  679SOL     OW 2035   1.957   2.691   0.557 -0.9068 -0.3293 -0.0239
  679SOL    HW1 2036   2.006   2.618   0.509 -1.3763  2.3443 -0.7193
  679SOL    HW2 2037   1.882   2.645   0.608  1.2962 -3.1714 -0.1750
  680SOL     OW 2038   0.430   2.512   1.996 -0.1524 -0.0181 -0.4370
  680SOL    HW1 2039   0.502   2.537   2.069 -0.3347 -1.7701  1.6430
  680SOL    HW2 2040   0.415   2.412   1.993 -2.7200 -0.5502  2.1085
  681SOL     OW 2041   2.798   1.474   1.772 -0.2565 -0.4941 -0.6755
  681SOL    HW1 2042   2.856   1.387   1.774 -0.9844  1.3708 -2.6329
  681SOL    HW2 2043   2.840   1.553   1.821  2.2098  1.7906 -0.4603
  682SOL     OW 2044   0.668   1.889   1.021  0.3394  0.3585  0.1000
  682SOL    HW1 2045   0.620   1.980   1.017 -1.9462 -0.7026  2.8052
  682SOL    HW2 2046   0.601   1.816   1.056 -0.9503 -0.1834  1.4967
  683SOL     OW 2047   2.123   1.255   1.146 -0.3049 -0.6746  0.8766
  683SOL    HW1 2048   2.157   1.299   1.061 -0.3528 -2.7052 -1.3519
  683SOL    HW2 2049   2.040   1.300   1.188  1.5923  1.3251 -0.6042
  684SOL     OW 2050   2.973   1.704   3.033 -0.1175  0.7129 -0.1844
  684SOL    HW1 2051   3.029   1.667   2.954 -0.2368  0.3312  1.5160
  684SOL    HW2 2052   2.907   1.629   3.055  0.5501 -1.5556 -2.0861
  685SOL     OW 2053   1.685   1.044   2.939  0.0043 -0.2413  0.4332
  685SOL    HW1 2054   1.776   1.019   2.899 -1.4711  1.2957  1.8415
  685SOL    HW2 2055   1.675   1.140   2.916  1.6394 -2.8846 -0.2863
  686SOL     OW 2056   0.269   0.545   1.244 -0.2993  0.5841  0.0966
  686SOL    HW1 2057   0.339   0.618   1.227 -1.2089  0.2334 -0.9756
  686SOL    HW2 2058   0.258   0.528   1.338  0.5084  2.3769 -2.1614
  687SOL     OW 2059   1.225   2.038   2.736 -0.2917  0.1377  0.6514
  687SOL    HW1 2060   1.224   1.950   2.790 -0.7062  0.7974 -0.3009
  687SOL    HW2 2061   1.320   2.062   2.705 -0.0011  3.0909 -0.9486
  688SOL     OW 2062   0.322   1.658   1.499  0.2168  0.6237  0.1308
  688SOL    HW1 2063   0.249   1.695   1.557  1.1736 -1.1112 -1.7991
  688SOL    HW2 2064   0.303   1.557   1.483 -1.0766 -1.7951 -0.3501
  689SOL     OW 2065   1.512   1.093   1.599 -0.4199 -0.2054 -0.0405
  689SOL    HW1 2066   1.500   1.170   1.533  1.5631  0.5045  1.2285
  689SOL    HW2 2067   1.575   1.020   1.562 -2.4132 -0.1286 -0.9952
  690SOL     OW 2068   2.445   0.801   1.277 -0.7318  0.3175  0.4978
  690SOL    HW1 2069   2.503   0.877   1.316  0.6700  2.6769 -1.7885
  690SOL    HW2 2070   2.497   0.760   1.198 -0.7365  2.1215 -0.3575
  691SOL     OW 2071   0.651   2.208   1.900 -0.2316  0.3734  0.1332
  691SOL    HW1 2072   0.667   2.106   1.916  0.4631 -1.9640  1.1166
  691SOL    HW2 2073   0.733   2.265   1.918 -1.3064  0.1257 -0.8611
  692SOL     OW 2074   2.004   0.109   1.076 -0.1907  0.3322  0.3513
  692SOL    HW1 2075   2.048   0.190   1.025 -1.0721  1.4124  2.4945
  692SOL    HW2 2076   2.000   0.136   1.176 -2.6501  1.4554  2.4161
  693SOL     OW 2077   0.331   1.065   1.987  0.1611 -0.2456  0.4632
  693SOL    HW1 2078   0.434   1.058   1.971 -1.8634 -0.6308  0.2202
  693SOL    HW2 2079   0.276   1.068   1.900 -2.9938  0.5295 -1.5794
  694SOL     OW 2080   2.011   0.148   1.346 -0.4631  0.0103  0.0047
  694SOL    HW1 2081   2.053   0.100   1.425  0.4718 -0.2955  1.3564
  694SOL    HW2 2082   1.915   0.162   1.367  3.0384  0.8232  1.0143
  695SOL     OW 2083   1.247   1.380   1.635  0.2466 -0.2790  0.1583
  695SOL    HW1 2084   1.164   1.438   1.637 -0.6238 -1.0027  1.1402
  695SOL    HW2 2085   1.247   1.320   1.551 -0.6154  1.3573 -0.4266
  696SOL     OW 2086   1.484   2.687   0.304 -0.2817 -0.0029 -0.5034
  696SOL    HW1 2087   1.534   2.764   0.351 -0.7015 -3.4210  1.5647
  696SOL    HW2 2088   1.539   2.600   0.324 -1.6283  0.2539 -0.3165
  697SOL     OW 2089   0.791   0.522   0.707  0.3337 -0.6084  0.3276
  697SOL    HW1 2090   0.725   0.565   0.646 -1.5295 -0.4430 -5.2386
  697SOL    HW2 2091   0.844   0.586   0.767 -0.6113 -0.7546  0.5991
  698SOL     OW 2092   1.341   1.622   2.366  0.1759  0.4513  0.0667
  698SOL    HW1 2093   1.340   1.519   2.347  0.4364 -3.0982 -0.4890
  698SOL    HW2 2094   1.428   1.649   2.322 -0.9739 -0.9282  1.6246
  699SOL     OW 2095   1.469   0.934   1.014  0.0940 -0.4385 -0.2627
  699SOL    HW1 2096   1.401   1.004   1.044  2.7216  2.6795  1.8836
  699SOL    HW2 2097   1.562   0.957   1.046  1.6591 -1.0068  1.1060
  700SOL     OW 2098   1.225   2.754   0.644  0.4324 -0.2859 -0.2979
  700SOL    HW1 2099   1.230   2.760   0.538  0.9642 -2.1888 -0.0355
  700SOL    HW2 2100   1.130   2.778   0.679 -3.9856  0.2511 -1.2069
  701SOL     OW 2101   2.463   0.036   2.468 -0.2264  0.4272 -0.3169
  701SOL    HW1 2102   2.459   0.036   2.569 -1.7418  1.0231 -1.4055
  701SOL    HW2 2103   2.500   3.032   2.430  1.1519 -0.3604  1.5214
  702SOL     OW 2104   1.157   0.215   0.039  0.5875  0.2037  0.3042
  702SOL    HW1 2105   1.241   0.266   0.044 -2.6887 -2.0566 -2.7000
  702SOL    HW2 2106   1.076   0.275   0.055 -1.2214  0.1646  0.4139
  703SOL     OW 2107   2.492   2.852   2.358 -0.2049 -0.3336  0.4993
  703SOL    HW1 2108   2.460   2.756   2.345  1.8711  0.2362  2.2288
  703SOL    HW2 2109   2.590   2.852   2.388  0.9350 -3.1349  0.4034
  704SOL     OW 2110   0.080   2.217   0.987 -0.1661 -0.2937 -0.3990
  704SOL    HW1 2111   0.021   2.135   0.979 -0.2260 -1.8766  3.2121
  704SOL    HW2 2112   0.025   2.303   0.980 -0.5742 -1.6408 -0.8506
  705SOL     OW 2113   2.744   0.205   2.194 -0.2056 -0.5594 -0.5060
  705SOL    HW1 2114   2.806   0.287   2.187  1.0070  1.1652  1.3326
  705SOL    HW2 2115   2.761   0.134   2.122  0.1563 -1.9174 -2.7314
  706SOL     OW 2116   1.868   0.016   0.097  0.2046  0.0303  0.4260
  706SOL    HW1 2117   1.915   3.007   0.112 -2.3922  2.5628  0.0165
  706SOL    HW2 2118   1.767   0.003   0.104  0.2296  1.6340 -2.2898
  707SOL     OW 2119   1.070   1.938   1.931  0.0797 -0.3349  0.6660
  707SOL    HW1 2120   1.061   1.921   2.030 -1.6155  1.6251  0.0550
  707SOL    HW2 2121   1.088   1.856   1.874  1.0094 -3.3532  0.9834
  708SOL     OW 2122   0.124   2.600   1.820 -0.3110  0.4382 -0.5236
  708SOL    HW1 2123   0.180   2.566   1.741  1.6263 -0.9605 -1.4692
  708SOL    HW2 2124   0.039   2.646   1.786  0.7799  3.0209 -3.9049
  709SOL     OW 2125   1.917   3.076   1.867  0.0994  0.5024  0.2716
  709SOL    HW1 2126   1.940   3.001   1.932 -1.9861  1.3279  1.1700
  709SOL    HW2 2127   1.953   3.064   1.771 -1.6852  1.3502 -2.4615
  710SOL     OW 2128   2.200   0.760   2.173 -0.1950 -0.3669 -0.1448
  710SOL    HW1 2129   2.159   0.808   2.086  0.1052  0.3229  1.0710
  710SOL    HW2 2130   2.283   0.806   2.203  3.0709  0.3677 -1.5539
  711SOL     OW 2131   0.926   2.059   0.108 -0.5319 -0.6036 -0.1933
  711SOL    HW1 2132   0.919   2.087   0.205  0.0237 -0.4662  1.2405
  711SOL    HW2 2133   0.849   2.105   0.055 -1.3959  0.9814 -0.8359
  712SOL     OW 2134   0.632   2.564   2.199  0.6597 -0.2237 -0.2738
  712SOL    HW1 2135   0.612   2.466   2.208  0.2047  2.7724  1.6482
  712SOL    HW2 2136   0.731   2.595   2.211 -0.7576  3.1501  0.0726
  713SOL     OW 2137   1.892   1.235   0.184 -0.4537 -0.4767  0.0095
  713SOL    HW1 2138   1.871   1.328   0.149 -0.3595  2.6610 -0.7989
  713SOL    HW2 2139   1.989   1.218   0.168  1.6760 -1.9331  2.2074
  714SOL     OW 2140   0.408   1.385   0.998 -0.2306 -0.1908  0.0217
  714SOL    HW1 2141   0.407   1.337   0.907  0.6751 -0.1619  1.0108
  714SOL    HW2 2142   0.312   1.386   1.036 -1.8949  0.4964  1.0643
  715SOL     OW 2143   2.014   0.307   2.826 -0.5260 -0.0944 -0.3842
  715SOL    HW1 2144   1.919   0.339   2.811 -1.2825 -0.0992 -1.8909
  715SOL    HW2 2145   2.013   0.260   2.919  1.3386 -1.9667 -1.1661
  716SOL     OW 2146   2.754   0.000   2.010  0.5577 -0.2960 -0.2812
  716SOL    HW1 2147   2.659   3.068   2.043  1.3896 -1.1867  1.4607
  716SOL    HW2 2148   2.797   2.992   2.005 -0.0876  3.1970  0.9243
  717SOL     OW 2149   3.050   0.824   0.819 -0.6648 -0.0119 -0.3360
  717SOL    HW1 2150   0.029   0.815   0.739 -0.9973 -0.1376  2.1954
  717SOL    HW2 2151   2.959   0.783   0.808  0.7113  0.1661  2.4957
  718SOL     OW 2152   0.947   1.153   2.292  0.1684  0.4825  0.7878
  718SOL    HW1 2153   0.854   1.135   2.324  1.5112 -1.6753 -1.7686
  718SOL    HW2 2154   1.020   1.089   2.317 -1.4905  3.3571 -0.8492
  719SOL     OW 2155   2.769   1.523   3.056 -0.1460 -0.0247 -1.2551
  719SOL    HW1 2156   2.724   1.496   0.061  0.7565  3.1920  0.2400
  719SOL    HW2 2157   2.751   1.462   2.981 -0.1747  2.2618  2.9293
  720SOL     OW 2158   1.168   0.866   0.841 -0.5003 -0.3991 -0.6617
  720SOL    HW1 2159   1.147   0.904   0.935 -1.1949  1.9024  1.6035
  720SOL    HW2 2160   1.125   0.921   0.766  1.6371 -0.3954  0.7342
  721SOL     OW 2161   2.657   0.660   0.162 -0.0400 -0.1813 -0.2561
  721SOL    HW1 2162   2.710   0.587   0.128 -0.4280 -1.0666  0.4573
  721SOL    HW2 2163   2.707   0.714   0.232 -1.6436  0.2178  0.1779
  722SOL     OW 2164   1.914   0.740   2.753 -0.6178  0.0923  0.3040
  722SOL    HW1 2165   1.853   0.680   2.801  1.2171  1.2661  1.5159
  722SOL    HW2 2166   1.937   0.698   2.661 -0.0963 -1.2807 -1.5574
  723SOL     OW 2167   2.755   0.789   0.368 -0.3571  0.0832  0.0999
  723SOL    HW1 2168   2.846   0.749   0.356  1.0233  2.5785  0.6313
  723SOL    HW2 2169   2.751   0.889   0.365  1.5808 -1.4319 -1.1110
  724SOL     OW 2170   0.873   1.428   1.831  0.5493 -0.2107 -0.1256
  724SOL    HW1 2171   0.845   1.335   1.801  0.2769 -1.7943 -1.4919
  724SOL    HW2 2172   0.940   1.420   1.905 -1.5309  1.5320  0.5839
  725SOL     OW 2173   2.064   0.884   1.952  0.1872 -0.8220  0.2099
  725SOL    HW1 2174   2.143   0.886   1.883  4.3036  0.9584 -4.1848
  725SOL    HW2 2175   2.009   0.963   1.938 -1.9412 -3.0696 -2.7218
  726SOL     OW 2176   1.602   2.875   0.468 -0.5577  0.5219 -0.5291
  726SOL    HW1 2177   1.697   2.873   0.508  0.6808  1.9295  0.2915
  726SOL    HW2 2178   1.551   2.959   0.486 -1.5829  0.8592  0.7016
  727SOL     OW 2179   1.538   1.276   2.223  0.7228  0.3847  1.0039
  727SOL    HW1 2180   1.474   1.201   2.242  0.4475  1.6873 -0.0853
  727SOL    HW2 2181   1.489   1.350   2.167 -0.5348  0.2730 -0.5030
  728SOL     OW 2182   1.574   2.622   1.299 -0.1011  0.4430 -0.0876
  728SOL    HW1 2183   1.578   2.555   1.377  3.6343  1.9314  1.6358
  728SOL    HW2 2184   1.606   2.580   1.212 -0.8779 -0.2752  0.2854
  729SOL     OW 2185   2.106   1.021   0.978 -0.0133  0.1034 -0.7001
  729SOL    HW1 2186   2.114   1.100   1.043 -2.0367 -2.6379 -0.3489
  729SOL    HW2 2187   2.148   0.938   1.015 -1.1807 -1.3704  1.1556
  730SOL     OW 2188   0.424   1.357   2.508 -0.2674 -0.2294 -0.0278
  730SOL    HW1 2189   0.388   1.452   2.495  2.4837  0.2307  0.7743
  730SOL    HW2 2190   0.422   1.299   2.428  1.1540  1.4403  2.0295
  731SOL     OW 2191   0.326   0.139   0.806 -0.3412  0.3093  0.0561
  731SOL    HW1 2192   0.319   0.091   0.715  3.3068  1.8704  2.3868
  731SOL    HW2 2193   0.321   0.078   0.889  1.6620  0.0445 -0.2755
  732SOL     OW 2194   1.280   0.713   0.303 -0.1228 -0.6216 -0.2171
  732SOL    HW1 2195   1.267   0.742   0.206  0.4339  1.6780 -0.9631
  732SOL    HW2 2196   1.190   0.714   0.350 -0.4896  0.4876 -1.5733
  733SOL     OW 2197   0.400   1.926   0.688  0.4136 -0.4193 -0.2188
  733SOL    HW1 2198   0.410   1.832   0.716 -1.4495  5.1013 -4.2920
  733SOL    HW2 2199   0.345   1.930   0.604 -1.3806 -1.9967  0.5779
  734SOL     OW 2200   3.069   2.361   2.957 -0.4740 -0.0948 -0.0286
  734SOL    HW1 2201   0.043   2.445   2.928  0.4987 -0.6230  1.1563
  734SOL    HW2 2202   0.023   2.322   3.041 -1.8043  1.1287 -1.5590
  735SOL     OW 2203   1.263   0.778   1.269  0.0099  0.4874  0.1991
  735SOL    HW1 2204   1.185   0.721   1.298 -0.3623  0.9114 -1.7037
  735SOL    HW2 2205   1.342   0.713   1.258  0.2060 -0.2363 -1.4718
  736SOL     OW 2206   2.117   2.346   3.077 -0.5038 -0.6250  0.4869
  736SOL    HW1 2207   2.136   2.436   0.045 -1.1000  2.3338 -0.2846
  736SOL    HW2 2208   2.177   2.336   3.002 -2.8245  0.7952 -0.3162
  737SOL     OW 2209   2.670   0.256   0.771 -0.1742  0.5392 -0.1348
  737SOL    HW1 2210   2.726   0.299   0.693 -0.4623  2.1474  1.0126
  737SOL    HW2 2211   2.587   0.313   0.792 -1.3839 -1.8042  4.2885
  738SOL     OW 2212   2.403   0.182   1.076 -0.3257 -0.2557 -0.4738
  738SOL    HW1 2213   2.374   0.177   1.175 -1.6671 -1.0662 -0.7317
  738SOL    HW2 2214   2.342   0.124   1.017  2.6875  1.4175 -0.3106
  739SOL     OW 2215   1.612   2.431   0.395  0.5667 -0.1695 -0.4297
  739SOL    HW1 2216   1.577   2.337   0.387  2.0068  0.9364  1.3592
  739SOL    HW2 2217   1.599   2.475   0.489  0.5127 -0.0241  3.0193
  740SOL     OW 2218   1.558   0.355   1.000  0.1707  0.0805 -0.0563
  740SOL    HW1 2219   1.586   0.452   1.010  1.1980  2.1232 -1.9577
  740SOL    HW2 2220   1.630   0.310   0.943  1.0370  2.4598 -0.5182
  741SOL     OW 2221   2.491   0.962   0.725 -0.4257  0.0134  0.0875
  741SOL    HW1 2222   2.447   1.055   0.733 -0.2872  3.3678 -0.4471
  741SOL    HW2 2223   2.481   0.916   0.633  0.0159 -1.2483  0.5015
  742SOL     OW 2224   0.900   1.797   2.167  0.2955 -0.3502  0.1233
  742SOL    HW1 2225   0.986   1.764   2.202 -4.5008  1.6399 -2.2322
  742SOL    HW2 2226   0.854   1.846   2.244  1.3555 -1.1805  1.3537
  743SOL     OW 2227   1.790   0.686   1.825 -0.0241  0.3080 -0.2863
  743SOL    HW1 2228   1.787   0.704   1.928 -2.2800  1.1942  1.2928
  743SOL    HW2 2229   1.867   0.732   1.777  1.7107  0.9679  2.0862
  744SOL     OW 2230   2.241   0.773   1.431  0.5843  0.2295  0.0055
  744SOL    HW1 2231   2.317   0.762   1.363 -1.5320  2.8755 -0.7323
  744SOL    HW2 2232   2.188   0.860   1.424 -3.3940  1.5146  1.1371
  745SOL     OW 2233   1.704   1.324   1.279 -0.0255 -0.1767  0.4582
  745SOL    HW1 2234   1.641   1.353   1.350  1.3578 -0.5685 -0.7023
  745SOL    HW2 2235   1.665   1.248   1.223  1.2480 -1.1411 -0.7164
  746SOL     OW 2236   2.059   1.826   0.875  0.0712 -0.6507 -0.0975
  746SOL    HW1 2237   2.021   1.782   0.959  0.4155  0.6786 -0.4380
  746SOL    HW2 2238   2.138   1.885   0.902  2.2714  0.0547  0.8098
  747SOL     OW 2239   2.220   1.387   0.935  0.2202  0.1103 -0.2597
  747SOL    HW1 2240   2.226   1.471   0.872 -2.4265  1.9348  1.9769
  747SOL    HW2 2241   2.253   1.307   0.882  1.9492 -2.1339 -0.6020
  748SOL     OW 2242   0.207   2.091   0.747 -0.1428  0.2481  0.2040
  748SOL    HW1 2243   0.180   2.106   0.844 -0.7557  2.4227 -0.3979
  748SOL    HW2 2244   0.295   2.034   0.737  1.3668  0.7039 -1.4124
  749SOL     OW 2245   2.538   2.998   2.127  0.2302  0.1243  0.0746
  749SOL    HW1 2246   2.523   2.924   2.200 -3.0844 -0.9992 -0.7257
  749SOL    HW2 2247   2.442   3.027   2.105 -0.5172 -1.1318 -0.2557
  750SOL     OW 2248   2.321   0.790   0.841  0.0853  0.1709 -0.1743
  750SOL    HW1 2249   2.272   0.745   0.763  2.4390  0.5892  1.4035
  750SOL    HW2 2250   2.397   0.855   0.815  1.8185  2.2007  0.9466
  751SOL     OW 2251   2.654   2.917   0.466  0.0421 -0.5169 -0.1612
  751SOL    HW1 2252   2.593   2.859   0.407  1.6526 -1.8067 -0.5875
  751SOL    HW2 2253   2.639   3.015   0.451  0.4919 -2.2437  3.6017
  752SOL     OW 2254   0.225   2.857   0.734 -0.6520  0.2991  0.0766
  752SOL    HW1 2255   0.320   2.886   0.717 -0.3735 -0.1057 -0.5249
  752SOL    HW2 2256   0.196   2.816   0.647  1.3414  1.4637 -0.0158
  753SOL     OW 2257   1.921   0.458   2.097 -0.2777  0.0067 -0.0726
  753SOL    HW1 2258   1.832   0.424   2.058  0.3931 -0.7463 -0.3517
  753SOL    HW2 2259   2.001   0.439   2.036 -0.5629 -2.1588 -1.1768
  754SOL     OW 2260   1.273   2.420   1.912 -0.4246 -0.5928  0.4086
  754SOL    HW1 2261   1.198   2.396   1.847  3.5668  0.0535  0.7880
  754SOL    HW2 2262   1.354   2.356   1.900 -0.5038 -2.5783 -2.4572
  755SOL     OW 2263   2.701   0.603   0.558  0.1819 -0.3802 -0.0511
  755SOL    HW1 2264   2.723   0.672   0.487 -1.4193  0.4061  2.3288
  755SOL    HW2 2265   2.604   0.580   0.573 -1.3069 -0.4234  2.9590
  756SOL     OW 2266   1.002   1.668   2.966 -0.1255 -0.0265  0.2260
  756SOL    HW1 2267   1.024   1.592   3.033 -0.4387  2.0117  2.3348
  756SOL    HW2 2268   0.963   1.646   2.874 -1.7184  2.0498 -1.8623
  757SOL     OW 2269   1.106   0.079   0.815  0.8064  0.3300 -0.0238
  757SOL    HW1 2270   1.108   3.070   0.868  3.3396 -1.1719 -0.6059
  757SOL    HW2 2271   1.019   0.127   0.810  0.9714 -0.6549 -0.0354
  758SOL     OW 2272   0.908   0.195   1.272 -0.0656 -0.3323 -0.1874
  758SOL    HW1 2273   0.961   0.231   1.193  0.8378  3.6352 -0.9851
  758SOL    HW2 2274   0.870   0.275   1.325  2.2851 -1.7908 -1.2715
  759SOL     OW 2275   0.336   0.649   0.859  0.2698  0.1583  0.0458
  759SOL    HW1 2276   0.418   0.714   0.857  2.9058 -0.5867  0.0991
  759SOL    HW2 2277   0.260   0.679   0.915 -0.0788  0.6754 -0.5753
  760SOL     OW 2278   2.366   1.151   1.275 -0.5949  0.1093 -0.0217
  760SOL    HW1 2279   2.422   1.091   1.213 -0.7354 -0.1965  0.7574
  760SOL    HW2 2280   2.285   1.188   1.225  1.4645 -2.8512  1.7389
  761SOL     OW 2281   1.695   0.395   0.678  0.2275 -0.2013 -0.0256
  761SOL    HW1 2282   1.623   0.431   0.617 -0.9413  0.4974 -1.7399
  761SOL    HW2 2283   1.740   0.323   0.620  0.7443 -0.8355 -3.0609
  762SOL     OW 2284   2.109   2.302   0.868 -0.2043 -0.2586 -0.3922
  762SOL    HW1 2285   2.046   2.331   0.794 -1.7756  1.5783  1.1038
  762SOL    HW2 2286   2.062   2.228   0.922  0.1187 -1.4354 -0.0816
  763SOL     OW 2287   1.476   1.422   1.743 -0.6990 -0.1710 -0.4338
  763SOL    HW1 2288   1.461   1.429   1.843  2.2240 -0.1983  0.9266
  763SOL    HW2 2289   1.390   1.410   1.690  1.1694  1.0528 -1.1577
  764SOL     OW 2290   2.684   2.130   2.459  0.8708 -0.5737  0.3287
  764SOL    HW1 2291   2.772   2.178   2.440  0.1108  0.6813 -1.3868
  764SOL    HW2 2292   2.664   2.119   2.558  3.7788  0.9749 -0.6893
  765SOL     OW 2293   0.727   2.413   1.020  0.6433  0.3639  0.0613
  765SOL    HW1 2294   0.643   2.452   0.976 -0.4160 -1.0871  0.1382
  765SOL    HW2 2295   0.744   2.443   1.114  3.4260 -2.3987  0.8235
  766SOL     OW 2296   0.354   1.650   2.517 -0.1821 -0.6387  0.1498
  766SOL    HW1 2297   0.275   1.711   2.545 -0.9382  1.2801  2.9203
  766SOL    HW2 2298   0.435   1.681   2.568 -0.8993  0.5455 -2.2508
  767SOL     OW 2299   2.062   0.942   2.562 -0.7008  0.5450  0.2175
  767SOL    HW1 2300   2.139   0.891   2.601  0.0515 -2.2223 -1.7298
  767SOL    HW2 2301   1.998   0.872   2.517  1.0012 -0.7780 -1.6956
  768SOL     OW 2302   1.065   2.853   2.776 -0.7644  0.3101  0.6059
  768SOL    HW1 2303   1.154   2.836   2.726  2.1977 -0.8041 -0.6356
  768SOL    HW2 2304   1.064   2.951   2.813 -0.7207  0.5260 -1.0075
  769SOL     OW 2305   2.949   2.671   0.769 -0.1085 -0.4672  0.3585
  769SOL    HW1 2306   2.855   2.705   0.741  0.1117  0.4241  1.1961
  769SOL    HW2 2307   2.995   2.751   0.812  3.0356  1.9792 -0.1356
  770SOL     OW 2308   0.606   2.780   0.096  0.3938  0.2059 -0.0170
  770SOL    HW1 2309   0.677   2.729   0.049 -1.3444  4.6508  0.8037
  770SOL    HW2 2310   0.633   2.800   0.192 -0.6891 -1.8179 -1.7325
  771SOL     OW 2311   1.136   2.062   2.461  0.0744 -0.0394  0.0744
  771SOL    HW1 2312   1.167   2.045   2.555  0.5442 -0.8576 -0.6634
  771SOL    HW2 2313   1.038   2.094   2.465  0.7036  0.7930 -0.7564
  772SOL     OW 2314   2.283   0.009   2.069  0.3982 -0.0886  0.5443
  772SOL    HW1 2315   2.261   0.104   2.099 -0.1654 -0.6796  1.9793
  772SOL    HW2 2316   2.194   3.041   2.049 -1.4319 -1.3369 -0.2610
  773SOL     OW 2317   1.223   0.016   2.007  0.3306  0.4569 -0.5347
  773SOL    HW1 2318   1.249   0.046   2.102 -0.8450  0.7440  2.1077
  773SOL    HW2 2319   1.279   3.011   1.991 -0.4096 -1.0635  2.4148
  774SOL     OW 2320   1.350   0.892   1.678  0.1106  0.2472 -0.1130
  774SOL    HW1 2321   1.410   0.965   1.639  2.3765 -0.5848  0.2059
  774SOL    HW2 2322   1.405   0.853   1.751 -1.3302  0.4683 -3.2046
  775SOL     OW 2323   2.185   2.905   0.359 -0.4181 -0.1590  0.3080
  775SOL    HW1 2324   2.229   2.821   0.401  3.6377 -3.2886  0.4959
  775SOL    HW2 2325   2.114   2.880   0.292  2.2738  1.7962  0.3993
  776SOL     OW 2326   2.239   1.147   1.872 -0.6100 -0.1764  0.0674
  776SOL    HW1 2327   2.311   1.186   1.934  0.3692 -1.3256  1.1081
  776SOL    HW2 2328   2.201   1.219   1.811 -0.2163  0.0627  1.5073
  777SOL     OW 2329   0.092   1.293   2.529 -0.1611  0.2307 -0.2608
  777SOL    HW1 2330   0.112   1.193   2.520  0.6936  0.4079 -0.3093
  777SOL    HW2 2331   0.125   1.337   2.441 -2.2471 -0.0896 -1.3817
  778SOL     OW 2332   2.259   1.094   2.417  0.2541 -0.1812 -0.0290
  778SOL    HW1 2333   2.187   1.024   2.436 -1.3838  0.3003  1.4000
  778SOL    HW2 2334   2.259   1.163   2.492  1.7636 -1.0890  1.4975
  779SOL     OW 2335   3.078   0.289   2.826  0.6492  0.0722 -0.2268
  779SOL    HW1 2336   0.082   0.243   2.857 -0.5980  0.0201 -0.3812
  779SOL    HW2 2337   3.055   0.277   2.730  0.6177 -1.1761 -0.8443
  780SOL     OW 2338   2.212   2.935   2.339  0.5301 -0.0490  0.1639
  780SOL    HW1 2339   2.188   2.924   2.239  2.4757 -0.5257 -0.7966
  780SOL    HW2 2340   2.312   2.925   2.362  0.4600 -0.5254 -2.3471
  781SOL     OW 2341   3.016   0.932   1.759 -0.2366 -0.0785 -0.5095
  781SOL    HW1 2342   2.938   0.979   1.801  1.8769 -2.1964 -0.8287
  781SOL    HW2 2343   2.981   0.891   1.675 -0.4209  0.3996  0.1165
  782SOL     OW 2344   2.079   2.095   0.086  0.3109 -0.5735  0.2806
  782SOL    HW1 2345   2.164   2.042   0.101 -1.0624  1.7126  2.4776
  782SOL    HW2 2346   2.105   2.184   0.040 -0.8411  1.4117 -0.7074
  783SOL     OW 2347   0.334   2.284   1.061  0.1934 -0.1271 -0.3336
  783SOL    HW1 2348   0.235   2.285   1.039 -1.4315 -0.5133  0.2489
  783SOL    HW2 2349   0.353   2.361   1.128 -3.1986  0.6835  1.4938
  784SOL     OW 2350   2.465   0.695   2.423  0.1640 -0.4648  0.6581
  784SOL    HW1 2351   2.445   0.624   2.353 -2.4880  1.3196 -1.1964
  784SOL    HW2 2352   2.436   0.781   2.380 -0.9261 -0.0788 -1.1305
  785SOL     OW 2353   0.055   0.108   1.242 -0.5014  0.3022  0.2165
  785SOL    HW1 2354   0.048   0.204   1.213  0.3969  0.1356 -0.3383
  785SOL    HW2 2355   0.064   0.109   1.344  1.7964  0.0331 -0.5437
  786SOL     OW 2356   1.252   2.767   0.372 -0.1643  0.2498  0.4526
  786SOL    HW1 2357   1.344   2.740   0.332 -0.6426 -3.0629  0.9305
  786SOL    HW2 2358   1.189   2.798   0.301 -0.2134 -2.0135  1.0085
  787SOL     OW 2359   1.254   0.116   0.590 -0.1702  0.0521  0.5281
  787SOL    HW1 2360   1.219   0.200   0.540  2.2071  3.6030 -1.4796
  787SOL    HW2 2361   1.201   0.091   0.671  2.4100 -0.5965 -1.2844
  788SOL     OW 2362   2.924   1.428   1.015  0.1259 -0.1150  0.4333
  788SOL    HW1 2363   2.890   1.465   0.922 -1.4810  3.8495  0.1369
  788SOL    HW2 2364   3.023   1.450   1.035  1.5875  2.1758  0.8609
  789SOL     OW 2365   2.912   0.704   2.078  0.3720 -0.2137  0.1755
  789SOL    HW1 2366   2.907   0.808   2.087 -1.2027  1.3205 -0.5622
  789SOL    HW2 2367   2.923   0.661   2.172 -2.0721  1.9650  1.8873
  790SOL     OW 2368   0.889   0.440   2.891  0.3357  0.2340 -0.5244
  790SOL    HW1 2369   0.913   0.415   2.795  2.8677  0.3541 -0.0946
  790SOL    HW2 2370   0.858   0.538   2.901 -1.7246  1.9035 -0.5395
  791SOL     OW 2371   3.011   2.767   3.020  0.8317 -0.0082 -0.3676
  791SOL    HW1 2372   2.931   2.756   2.959  0.5308 -1.0537 -0.2003
  791SOL    HW2 2373   2.999   2.693   0.008 -0.2102  1.3682 -0.4975
  792SOL     OW 2374   1.515   0.725   1.871 -0.2456 -0.1370  0.2932
  792SOL    HW1 2375   1.450   0.651   1.889  1.4105  0.6969  1.1483
  792SOL    HW2 2376   1.588   0.692   1.813 -1.1276 -0.4423 -1.0968
  793SOL     OW 2377   2.659   0.572   1.232 -0.2010 -0.2762  0.4587
  793SOL    HW1 2378   2.580   0.574   1.297  1.2033  1.3812  1.0041
  793SOL    HW2 2379   2.646   0.636   1.153  2.3791  0.9274  1.4774
  794SOL     OW 2380   2.948   0.393   2.175  0.0253 -0.5420  0.4759
  794SOL    HW1 2381   2.933   0.474   2.235  2.3032  0.5506 -0.4603
  794SOL    HW2 2382   3.014   0.426   2.104 -0.3682 -0.8819 -0.7313
  795SOL     OW 2383   0.629   1.828   3.025  0.5749  0.4295 -0.8078
  795SOL    HW1 2384   0.561   1.869   0.009  0.2782  0.1753 -2.9269
  795SOL    HW2 2385   0.705   1.792   0.003 -4.5470 -4.1732  2.1067
  796SOL     OW 2386   2.611   0.694   2.905 -0.1269  0.0742 -0.4063
  796SOL    HW1 2387   2.533   0.739   2.943 -0.4602  0.2631 -0.8799
  796SOL    HW2 2388   2.598   0.659   2.810  2.4525 -0.9809  2.9699
  797SOL     OW 2389   2.640   2.135   2.734 -0.0077  0.4496  0.2778
  797SOL    HW1 2390   2.561   2.083   2.768  0.3918 -1.6941  0.2407
  797SOL    HW2 2391   2.624   2.230   2.765 -1.0908 -1.7704 -1.3706
  798SOL     OW 2392   2.819   0.151   1.219 -0.3459 -0.2379 -0.6536
  798SOL    HW1 2393   2.902   0.171   1.276  3.9468  1.1674  0.2424
  798SOL    HW2 2394   2.832   0.182   1.124 -0.8890  0.9797 -0.1074
  799SOL     OW 2395   0.364   0.258   1.585 -0.4692  0.1519  0.3626
  799SOL    HW1 2396   0.440   0.218   1.527  1.7081  0.8895 -1.8624
  799SOL    HW2 2397   0.386   0.246   1.687 -1.4835 -1.3113 -0.1594
  800SOL     OW 2398   0.372   1.719   0.286 -0.1290 -0.2341 -0.2467
  800SOL    HW1 2399   0.288   1.660   0.282 -2.0814  0.0036 -0.4978
  800SOL    HW2 2400   0.446   1.658   0.255 -3.2180  1.2068  0.8099
  801SOL     OW 2401   1.830   1.602   0.497  0.7883 -0.3134  0.7336
  801SOL    HW1 2402   1.744   1.661   0.512  1.4674  1.9364  1.7669
  801SOL    HW2 2403   1.895   1.604   0.580 -0.1853 -0.3883  1.8756
  802SOL     OW 2404   1.222   0.811   0.036 -0.1237  0.6456 -0.6024
  802SOL    HW1 2405   1.150   0.774   3.053  1.4129  0.5812 -0.9870
  802SOL    HW2 2406   1.290   0.873   3.074 -1.2694  2.2851  2.2513
  803SOL     OW 2407   1.150   1.721   1.791 -0.0903 -0.0791  0.0473
  803SOL    HW1 2408   1.235   1.762   1.753  3.2215 -2.9639 -0.3322
  803SOL    HW2 2409   1.113   1.651   1.729  1.5626  1.9452 -0.4613
  804SOL     OW 2410   1.671   2.348   0.944 -0.1370  0.2679  0.5607
  804SOL    HW1 2411   1.719   2.255   0.960  1.9215  0.9398 -0.5181
  804SOL    HW2 2412   1.633   2.351   0.851  0.9687 -0.0153  2.2616
  805SOL     OW 2413   0.150   2.511   2.211  0.0501  0.1197  0.2946
  805SOL    HW1 2414   0.112   2.459   2.129 -1.0401  0.4086  0.4097
  805SOL    HW2 2415   0.232   2.565   2.192  2.3332 -1.3627 -1.3112
  806SOL     OW 2416   0.611   3.056   0.490 -0.2085 -0.4573 -0.1609
  806SOL    HW1 2417   0.704   0.001   0.528  0.8323  1.0534  1.3754
  806SOL    HW2 2418   0.573   0.053   0.438  4.0786 -0.1114 -0.3716
  807SOL     OW 2419   2.560   1.106   2.895 -0.0051  0.3501 -0.2377
  807SOL    HW1 2420   2.621   1.034   2.933  1.7189  0.0557  0.2084
  807SOL    HW2 2421   2.528   1.072   2.803  0.1302 -2.2880  1.0806
  808SOL     OW 2422   1.395   2.101   0.884 -0.1471  0.4385  0.1825
  808SOL    HW1 2423   1.448   2.176   0.835  2.1146  2.5162  1.4030
  808SOL    HW2 2424   1.297   2.107   0.853  0.7871  0.7930 -1.5516
  809SOL     OW 2425   0.271   0.008   0.542 -0.2143 -0.4238 -0.8759
  809SOL    HW1 2426   0.301   3.002   0.493 -0.3654  1.0623  0.6612
  809SOL    HW2 2427   0.281   0.087   0.481 -2.2586  0.9526  0.6006
  810SOL     OW 2428   1.212   1.508   0.751  0.3207  0.0550 -0.6768
  810SOL    HW1 2429   1.237   1.551   0.847  2.0398  0.0320  3.2770
  810SOL    HW2 2430   1.193   1.404   0.748 -0.1121 -3.1583 -2.8227
  811SOL     OW 2431   1.382   2.801   1.355  0.3662 -0.1569  0.1001
  811SOL    HW1 2432   1.455   2.732   1.334  0.4256 -2.3636 -3.0870
  811SOL    HW2 2433   1.404   2.878   1.292 -1.2686  2.4830 -1.1247
  812SOL     OW 2434   1.105   3.030   0.411  0.3247  0.1485  0.0787
  812SOL    HW1 2435   1.034   2.972   0.457 -1.8444 -3.5330  0.6470
  812SOL    HW2 2436   1.158   0.002   0.481  0.2912  1.5530  2.1512
  813SOL     OW 2437   1.025   0.207   2.252  0.3865  0.2476  0.4275
  813SOL    HW1 2438   1.124   0.231   2.250  0.5056  2.0775 -0.1430
  813SOL    HW2 2439   1.011   0.129   2.315 -0.9430 -1.7441  3.0079
  814SOL     OW 2440   0.767   2.752   1.176 -1.0794 -0.6275  0.3029
  814SOL    HW1 2441   0.849   2.790   1.223  0.0185  1.5337 -0.5451
  814SOL    HW2 2442   0.690   2.818   1.174  0.1906 -0.5031  2.0482
  815SOL     OW 2443   0.212   2.472   0.468 -0.6002  0.3777  0.0694
  815SOL    HW1 2444   0.176   2.450   0.371 -1.4463 -0.4159  1.8403
  815SOL    HW2 2445   0.304   2.508   0.458  0.2854 -1.5757  0.3544
  816SOL     OW 2446   2.365   1.477   2.732 -0.1778 -0.2357 -0.7071
  816SOL    HW1 2447   2.380   1.466   2.830  1.4018  2.3086 -0.3446
  816SOL    HW2 2448   2.437   1.428   2.680  0.1310 -0.5334  1.0265
  817SOL     OW 2449   1.849   2.498   2.758 -0.1865 -0.3421 -0.0506
  817SOL    HW1 2450   1.940   2.454   2.752 -4.1674 -1.8602  1.7694
  817SOL    HW2 2451   1.855   2.595   2.729  2.5403 -2.6183 -2.0184
  818SOL     OW 2452   1.279   1.299   0.391  0.3304  0.5161  0.1874
  818SOL    HW1 2453   1.312   1.205   0.381 -0.2094  0.0254  0.8080
  818SOL    HW2 2454   1.354   1.363   0.354  0.0584 -0.3131  0.7500
  819SOL     OW 2455   1.472   1.830   3.006  0.5838  0.4933  0.0569
  819SOL    HW1 2456   1.458   1.857   0.018 -1.7251 -1.3938 -2.7285
  819SOL    HW2 2457   1.383   1.820   2.961  2.7637  1.4064 -0.1346
  820SOL     OW 2458   0.626   0.756   0.139 -0.0732  0.2345  0.4052
  820SOL    HW1 2459   0.662   0.753   0.043 -1.3637 -1.3571 -2.7332
  820SOL    HW2 2460   0.600   0.661   0.165 -1.3853 -0.6680  1.7016
  821SOL     OW 2461   0.439   0.100   1.207 -0.3545  0.0878  0.2503
  821SOL    HW1 2462   0.370   0.055   1.148  0.6718 -2.4287 -0.4328
  821SOL    HW2 2463   0.461   0.200   1.185 -0.3584  2.3546 -0.6138
  822SOL     OW 2464   1.737   2.324   2.495 -0.0398 -0.3171  0.1467
  822SOL    HW1 2465   1.679   2.252   2.453  1.4359  1.8973 -0.1556
  822SOL    HW2 2466   1.827   2.281   2.528  4.4960  0.0684 -1.1017
  823SOL     OW 2467   1.063   0.588   2.155 -0.8447  0.2671  0.3198
  823SOL    HW1 2468   1.132   0.558   2.222 -0.0848  1.3365  0.0402
  823SOL    HW2 2469   0.980   0.531   2.166 -0.9488 -0.4179 -1.3407
  824SOL     OW 2470   2.211   0.195   1.695  0.2151  0.4682  0.6729
  824SOL    HW1 2471   2.152   0.276   1.675  2.3971 -1.2218  0.2595
  824SOL    HW2 2472   2.183   0.114   1.638  1.1964 -1.6785 -3.7467
  825SOL     OW 2473   0.680   1.152   0.118  0.2420  0.7838 -0.4425
  825SOL    HW1 2474   0.734   1.080   0.073 -0.4510  1.9678 -0.2525
  825SOL    HW2 2475   0.597   1.169   0.063 -1.5128 -1.6177  1.4967
  826SOL     OW 2476   1.991   0.636   2.494 -0.1882  0.8662  0.7247
  826SOL    HW1 2477   2.076   0.585   2.462  0.8739  0.4790 -2.4545
  826SOL    HW2 2478   1.927   0.635   2.416 -2.0022 -1.6109  2.7127
  827SOL     OW 2479   0.869   2.138   2.475  0.6032 -0.1525  0.2350
  827SOL    HW1 2480   0.869   2.232   2.440  0.5065 -2.5750 -1.9032
  827SOL    HW2 2481   0.833   2.135   2.573 -1.0345 -1.5661 -4.5294
  828SOL     OW 2482   2.597   0.129   1.432  0.6259  0.1702 -0.4883
  828SOL    HW1 2483   2.694   0.149   1.405  2.9375 -0.0551 -2.8769
  828SOL    HW2 2484   2.579   0.028   1.435 -0.3671  0.5857 -1.1192
  829SOL     OW 2485   1.235   1.661   1.420  0.1682  0.3759  0.4601
  829SOL    HW1 2486   1.293   1.629   1.338  0.8309 -0.2296 -2.5707
  829SOL    HW2 2487   1.198   1.583   1.471 -0.1398 -1.0144 -0.2501
  830SOL     OW 2488   0.726   0.912   1.667  0.2302  0.0040  0.4870
  830SOL    HW1 2489   0.789   0.860   1.601  0.7083 -2.0464 -1.3319
  830SOL    HW2 2490   0.679   0.850   1.734 -0.1036  1.5246 -2.6377
  831SOL     OW 2491   3.052   1.888   0.354 -0.0536 -0.0672  0.1893
  831SOL    HW1 2492   3.032   1.941   0.269 -0.5723 -0.1879 -0.6190
  831SOL    HW2 2493   0.058   1.922   0.388  0.4678  0.1175 -1.9658
  832SOL     OW 2494   0.893   2.755   0.420  0.1249  0.0318 -0.0470
  832SOL    HW1 2495   0.800   2.787   0.393 -1.6112  0.6463  3.2111
  832SOL    HW2 2496   0.946   2.751   0.332 -1.1735  0.1350 -2.3538
  833SOL     OW 2497   3.062   0.284   1.650 -0.4591  0.0799  0.4372
  833SOL    HW1 2498   3.006   0.264   1.731 -0.9870  1.1258 -1.5460
  833SOL    HW2 2499   3.076   0.386   1.631  1.2676  1.9032  0.3261
  834SOL     OW 2500   3.030   1.085   0.929 -0.1448  0.0350 -0.0719
  834SOL    HW1 2501   0.028   1.146   0.900  0.3330  0.8473 -1.6272
  834SOL    HW2 2502   3.035   0.992   0.883 -0.9318  0.7998  0.9814
  835SOL     OW 2503   2.441   2.945   1.112  0.4581 -0.1949  0.6552
  835SOL    HW1 2504   2.377   2.965   1.031 -1.0812  0.3485 -0.4777
  835SOL    HW2 2505   2.522   3.003   1.111 -2.3844 -2.6669  2.2571
  836SOL     OW 2506   0.937   1.707   2.477 -0.3023 -0.1762  0.0232
  836SOL    HW1 2507   0.870   1.769   2.436  2.7876 -2.0908  1.1286
  836SOL    HW2 2508   1.006   1.751   2.540  0.8536 -0.9266  0.4353
  837SOL     OW 2509   1.668   1.881   2.836 -0.3430 -0.4624 -0.0611
  837SOL    HW1 2510   1.600   1.885   2.911  2.8075  3.1468 -4.2641
  837SOL    HW2 2511   1.688   1.973   2.802 -0.4320 -0.6491 -0.4144
  838SOL     OW 2512   0.121   0.748   2.177  0.0268 -0.0041  0.3988
  838SOL    HW1 2513   0.154   0.673   2.236  0.6800  0.6761  2.8163
  838SOL    HW2 2514   0.093   0.715   2.089  1.5460  0.9819  2.7843
  839SOL     OW 2515   0.833   0.734   2.761  0.3707 -0.3340  0.1892
  839SOL    HW1 2516   0.815   0.820   2.710 -4.6456  3.0937 -1.1606
  839SOL    HW2 2517   0.923   0.729   2.807 -1.1169  1.4461  1.5013
  840SOL     OW 2518   1.695   0.569   0.285  0.2557 -0.4012 -0.4594
  840SOL    HW1 2519   1.793   0.550   0.314 -0.0704  0.7645 -1.2445
  840SOL    HW2 2520   1.637   0.486   0.302  0.0220 -1.8200  0.4721
  841SOL     OW 2521   0.600   2.667   0.720  0.2345  0.0377 -0.0172
  841SOL    HW1 2522   0.539   2.630   0.791 -1.0288 -0.6980 -0.9831
  841SOL    HW2 2523   0.615   2.764   0.743  1.7426 -1.2570  0.3169
  842SOL     OW 2524   0.261   0.578   0.426 -0.5337 -0.3280 -0.6215
  842SOL    HW1 2525   0.167   0.580   0.461  3.5344  0.7179  1.5520
  842SOL    HW2 2526   0.314   0.657   0.467 -1.0213 -0.9012  1.9081
  843SOL     OW 2527   0.440   0.756   1.294 -0.1316  0.0117  0.1438
  843SOL    HW1 2528   0.543   0.771   1.287  0.5199 -1.1211 -2.5845
  843SOL    HW2 2529   0.390   0.840   1.315  1.3841 -1.9776  1.1897
  844SOL     OW 2530   2.103   2.442   2.690 -0.0773 -0.2341  0.0676
  844SOL    HW1 2531   2.125   2.482   2.599 -2.9759  0.6045 -2.0170
  844SOL    HW2 2532   2.194   2.418   2.735  4.8536  1.9175  2.5960
  845SOL     OW 2533   2.177   3.059   1.523 -0.2496 -0.2879  0.0015
  845SOL    HW1 2534   2.084   3.023   1.552  2.8317 -1.5454 -1.2196
  845SOL    HW2 2535   2.221   2.999   1.459 -1.1170  0.3756 -0.3250
  846SOL     OW 2536   2.334   1.763   2.396  0.3275  0.3468  0.3771
  846SOL    HW1 2537   2.281   1.679   2.379  0.2005  0.7700  0.1141
  846SOL    HW2 2538   2.349   1.813   2.310 -3.3707 -0.1170  0.6841
  847SOL     OW 2539   2.013   2.882   2.053  0.1527  0.2514 -0.3597
  847SOL    HW1 2540   1.947   2.830   2.112 -1.0108 -0.1973  0.8064
  847SOL    HW2 2541   2.077   2.817   2.005 -0.3856 -1.8146 -0.8764
  848SOL     OW 2542   0.090   2.868   0.309  0.1128 -0.0596 -0.4711
  848SOL    HW1 2543   0.073   2.909   0.217 -0.7921 -0.6050  2.2763
  848SOL    HW2 2544   0.051   2.936   0.378 -0.7505  1.2062  1.3846
  849SOL     OW 2545   0.554   2.937   1.178  0.2488  0.6720  0.4012
  849SOL    HW1 2546   0.570   3.035   1.163  0.6977 -2.7666  2.9483
  849SOL    HW2 2547   0.495   2.891   1.107 -0.8344 -1.1012  1.6157
  850SOL     OW 2548   0.193   1.644   0.917 -0.5625 -0.2266 -0.6287
  850SOL    HW1 2549   0.123   1.713   0.933  0.6586 -0.8223  3.0397
  850SOL    HW2 2550   0.269   1.663   0.852 -0.0084  0.3389 -1.2798
  851SOL     OW 2551   2.850   0.844   2.909  0.3750  0.6799  0.0844
  851SOL    HW1 2552   2.926   0.779   2.928 -0.3761 -0.2120  1.5833
  851SOL    HW2 2553   2.757   0.796   2.903 -1.5041 -2.8450 -2.2560
  852SOL     OW 2554   1.909   1.916   2.464  0.0642 -0.1679 -0.4019
  852SOL    HW1 2555   1.868   1.863   2.541 -1.4599  1.6589 -0.3521
  852SOL    HW2 2556   2.010   1.898   2.465  3.6368  0.8067 -0.4045
  853SOL     OW 2557   0.727   1.737   0.310  0.0921  0.3588  0.4556
  853SOL    HW1 2558   0.673   1.664   0.266 -0.6566  0.9115 -0.2250
  853SOL    HW2 2559   0.786   1.784   0.239 -0.4652  1.2799 -0.2995
  854SOL     OW 2560   1.657   1.086   2.068  0.3122  0.3794 -0.2929
  854SOL    HW1 2561   1.586   1.055   2.001  2.6873 -1.8933  1.4350
  854SOL    HW2 2562   1.632   1.177   2.104  0.0035 -1.2961 -1.2218
  855SOL     OW 2563   0.722   2.232   0.004 -0.1457 -0.4112  0.1428
  855SOL    HW1 2564   0.650   2.194   0.069 -1.7844  0.2993  2.8047
  855SOL    HW2 2565   0.673   2.253   2.996 -1.2610 -0.5463 -1.7766
  856SOL     OW 2566   0.498   0.071   2.034 -0.1906 -0.5578 -0.2177
  856SOL    HW1 2567   0.533   3.053   2.039 -1.9407 -1.3147 -3.2839
  856SOL    HW2 2568   0.520   0.122   2.115 -2.9011  1.9354  0.1051
  857SOL     OW 2569   0.727   0.305   1.817 -0.3625  0.0719  0.0962
  857SOL    HW1 2570   0.702   0.384   1.874 -0.6937 -2.6399 -0.2064
  857SOL    HW2 2571   0.789   0.334   1.740  1.6867  0.7438 -1.1181
  858SOL     OW 2572   0.189   2.019   2.132 -0.2719  0.2443 -0.0760
  858SOL    HW1 2573   0.260   2.092   2.134  0.4339 -1.9705 -1.4616
  858SOL    HW2 2574   0.220   1.925   2.105  1.4598  1.2808  1.5817
  859SOL     OW 2575   1.971   2.188   1.090 -0.6834  0.0270 -0.7247
  859SOL    HW1 2576   1.968   2.275   1.144 -0.0044  0.4946 -0.2115
  859SOL    HW2 2577   1.882   2.162   1.059  1.0520 -1.0080 -1.2358
  860SOL     OW 2578   2.041   0.460   0.620 -0.0460 -0.1341 -0.5179
  860SOL    HW1 2579   2.090   0.395   0.676  0.9872  1.0783 -1.7184
  860SOL    HW2 2580   2.067   0.558   0.632 -2.5909  0.1841 -0.4798
  861SOL     OW 2581   0.037   0.376   1.144  0.1629  0.5450  0.5274
  861SOL    HW1 2582   0.120   0.426   1.177  3.1860  0.5434  4.2085
  861SOL    HW2 2583   3.035   0.432   1.139 -0.6502 -0.7225  1.5684
  862SOL     OW 2584   2.260   0.638   1.692 -0.3656  0.2500  0.9309
  862SOL    HW1 2585   2.272   0.729   1.741 -1.2061  0.4834  0.3369
  862SOL    HW2 2586   2.233   0.657   1.593  0.6858  2.6677 -1.6996
  863SOL     OW 2587   0.309   1.267   1.376  0.9873  0.1142  0.3568
  863SOL    HW1 2588   0.314   1.277   1.477 -0.4435 -0.9242 -0.3905
  863SOL    HW2 2589   0.213   1.291   1.337 -1.2216 -0.0020 -0.9749
  864SOL     OW 2590   2.383   2.847   1.760 -0.6403  0.1171  0.2579
  864SOL    HW1 2591   2.461   2.814   1.818 -0.2871 -2.3129 -1.2734
  864SOL    HW2 2592   2.374   2.952   1.754  1.3255  4.6024 -0.7653
  865SOL     OW 2593   1.498   0.297   2.245  0.3296  0.3070 -0.2923
  865SOL    HW1 2594   1.525   0.265   2.153  1.2439  0.0515  0.0365
  865SOL    HW2 2595   1.573   0.354   2.289  0.7013  0.5188  0.2658
  866SOL     OW 2596   2.306   2.691   0.513  0.2225  0.1155  0.3792
  866SOL    HW1 2597   2.343   2.693   0.608 -1.7073  0.4883 -3.2402
  866SOL    HW2 2598   2.388   2.711   0.450  2.9640  0.7594 -1.1031
  867SOL     OW 2599   2.615   2.600   0.894  0.1776  0.1180 -0.1102
  867SOL    HW1 2600   2.647   2.690   0.861 -3.1951 -2.9907  0.3897
  867SOL    HW2 2601   2.597   2.608   0.997 -0.0168 -2.4763 -2.2579
  868SOL     OW 2602   1.493   1.468   2.849 -0.1719 -0.3155  0.1702
  868SOL    HW1 2603   1.438   1.414   2.785  0.0255  0.1916  0.9361
  868SOL    HW2 2604   1.507   1.564   2.814  2.6317  0.0918 -1.2002
  869SOL     OW 2605   2.553   2.043   0.603 -0.2508 -0.2572 -0.0305
  869SOL    HW1 2606   2.592   2.092   0.682  0.6202 -0.2417 -1.7030
  869SOL    HW2 2607   2.474   2.092   0.564 -2.2340 -3.4033  1.9328
  870SOL     OW 2608   2.794   2.061   0.319  0.5137 -0.5535  0.5972
  870SOL    HW1 2609   2.827   1.977   0.364 -1.1152 -0.6892 -0.0244
  870SOL    HW2 2610   2.711   2.035   0.262 -0.7849  1.0684 -5.1289
  871SOL     OW 2611   0.285   0.998   1.299  0.2349 -0.2654  0.1378
  871SOL    HW1 2612   0.312   1.095   1.292  1.0177 -0.6593 -2.6974
  871SOL    HW2 2613   0.202   0.986   1.245  2.9004  2.0333 -0.8130
  872SOL     OW 2614   0.680   1.558   2.355 -0.2769 -0.1064 -0.1530
  872SOL    HW1 2615   0.680   1.619   2.275  0.5550 -0.6351 -1.9708
  872SOL    HW2 2616   0.635   1.595   2.437  2.2491  1.3623  0.1568
  873SOL     OW 2617   0.399   2.870   1.665 -0.1668 -0.6792 -0.0100
  873SOL    HW1 2618   0.432   2.801   1.733 -0.3638 -1.5026 -1.7913
  873SOL    HW2 2619   0.469   2.942   1.651 -0.6915 -1.0230  0.5383
  874SOL     OW 2620   1.179   0.806   2.051 -0.0601 -0.6116  0.4124
  874SOL    HW1 2621   1.258   0.799   1.988  0.5800  1.5863 -1.7533
  874SOL    HW2 2622   1.145   0.719   2.088 -0.9095 -0.7090  0.9943
  875SOL     OW 2623   2.640   0.038   1.074  0.0996 -0.0631  0.2820
  875SOL    HW1 2624   2.687   0.053   1.163 -2.3162 -1.0018  0.9466
  875SOL    HW2 2625   2.563   0.106   1.053  1.1479  1.6012 -2.8843
  876SOL     OW 2626   0.752   1.269   0.354 -0.1910 -0.5640 -0.4056
  876SOL    HW1 2627   0.719   1.197   0.288 -1.7060 -0.6341  2.0608
  876SOL    HW2 2628   0.848   1.301   0.327 -0.0382  0.1828 -0.7935
  877SOL     OW 2629   1.253   0.997   1.439  0.2425 -0.3725  0.1312
  877SOL    HW1 2630   1.252   0.974   1.538  1.3626  1.0006  1.2977
  877SOL    HW2 2631   1.273   0.917   1.382 -1.6408 -1.1862  1.4395
  878SOL     OW 2632   2.450   2.230   0.415  0.1291  0.0356  0.5805
  878SOL    HW1 2633   2.471   2.181   0.328  0.1875  0.3425 -0.5732
  878SOL    HW2 2634   2.524   2.297   0.444  0.7867 -0.3983  0.6990
  879SOL     OW 2635   2.417   2.077   1.843  0.5569 -0.5309  0.0160
  879SOL    HW1 2636   2.517   2.082   1.825  0.4778 -0.3956 -1.9081
  879SOL    HW2 2637   2.394   2.156   1.902  2.2335  1.2204  1.3228
  880SOL     OW 2638   0.978   2.532   0.951 -0.6686 -0.1998  0.2727
  880SOL    HW1 2639   1.054   2.501   1.015  1.6998 -2.3602  1.4770
  880SOL    HW2 2640   0.890   2.486   0.973 -3.0310 -1.4446  2.1539
  881SOL     OW 2641   0.813   1.905   0.531 -0.2651 -0.0846 -0.3132
  881SOL    HW1 2642   0.762   1.829   0.480  0.4364  1.8321 -3.4172
  881SOL    HW2 2643   0.818   1.994   0.479 -0.2409  1.4919  1.1582
  882SOL     OW 2644   2.215   1.120   0.512  0.7015 -0.0415  0.4232
  882SOL    HW1 2645   2.192   1.205   0.471 -0.6887 -1.6197 -0.0273
  882SOL    HW2 2646   2.239   1.051   0.443  1.6396  0.4834  1.2490
  883SOL     OW 2647   1.545   0.645   0.989  0.4804  0.1861  0.2842
  883SOL    HW1 2648   1.505   0.734   1.028  1.3514  0.6564  0.0799
  883SOL    HW2 2649   1.638   0.661   0.954  0.9420  1.4178  1.0893
  884SOL     OW 2650   2.878   2.796   0.378 -0.3327 -0.5255 -0.1085
  884SOL    HW1 2651   2.920   2.861   0.308  1.2438  1.7307 -1.3373
  884SOL    HW2 2652   2.795   2.839   0.419  0.8605  2.4693  4.3488
  885SOL     OW 2653   0.993   1.309   2.045  0.0634 -0.1393 -0.7640
  885SOL    HW1 2654   0.973   1.241   2.116  0.3507  0.6859 -0.4006
  885SOL    HW2 2655   1.093   1.321   2.027 -2.3718 -1.3589 -1.0439
  886SOL     OW 2656   1.167   1.813   2.272 -0.6731  0.3145 -0.6378
  886SOL    HW1 2657   1.166   1.904   2.318  0.3099 -2.2855 -1.4328
  886SOL    HW2 2658   1.208   1.742   2.330  0.8566  0.3051  0.1288
  887SOL     OW 2659   1.245   0.606   0.910  0.0099  0.4295  0.0153
  887SOL    HW1 2660   1.339   0.574   0.931 -1.2278 -1.6557  0.8255
  887SOL    HW2 2661   1.244   0.705   0.893 -2.6387 -1.6876 -0.2021
  888SOL     OW 2662   2.542   0.787   1.911 -0.3879  0.0888 -0.0220
  888SOL    HW1 2663   2.545   0.693   1.942 -2.3105  3.6373 -1.9291
  888SOL    HW2 2664   2.577   0.852   1.983  1.5667 -0.1351 -1.4305
  889SOL     OW 2665   2.966   2.039   0.968 -0.5187  0.5344  0.3569
  889SOL    HW1 2666   2.917   2.038   0.875  0.5921 -0.1776 -1.2667
  889SOL    HW2 2667   2.898   2.057   1.042 -1.8857 -3.9002  0.0510
  890SOL     OW 2668   1.227   2.149   0.257  0.0712  0.2172  0.1156
  890SOL    HW1 2669   1.329   2.162   0.267  0.6584  1.8529  0.8790
  890SOL    HW2 2670   1.205   2.071   0.192 -2.2433  2.1815 -2.5583
  891SOL     OW 2671   2.982   0.551   2.874  0.4043 -0.2465 -0.6921
  891SOL    HW1 2672   3.009   0.456   2.849  0.5321  0.9464  1.3361
  891SOL    HW2 2673   3.045   0.621   2.839  1.6102 -0.6390  0.6182
  892SOL     OW 2674   2.788   2.259   1.086  0.1693 -0.3322 -0.0333
  892SOL    HW1 2675   2.856   2.327   1.061  0.7296  1.4148  1.3711
  892SOL    HW2 2676   2.771   2.270   1.186  2.4752  1.1599 -0.5523
  893SOL     OW 2677   1.251   0.289   0.940  0.1749  0.7785  0.5795
  893SOL    HW1 2678   1.195   0.232   0.876 -0.7569 -1.9342 -1.7702
  893SOL    HW2 2679   1.347   0.314   0.912  3.2275  0.7834 -0.3665
  894SOL     OW 2680   2.866   0.255   0.935  0.4277  0.5553  0.4399
  894SOL    HW1 2681   2.953   0.254   0.884 -3.3736  0.4556  0.3905
  894SOL    HW2 2682   2.781   0.261   0.876 -0.5078 -1.3096  0.3565
  895SOL     OW 2683   2.025   1.587   2.700  0.8505  0.0640  0.4154
  895SOL    HW1 2684   2.053   1.557   2.606  0.3805 -0.2844 -2.0199
  895SOL    HW2 2685   2.011   1.504   2.755 -0.0245  1.3934 -1.6451
  896SOL     OW 2686   1.959   0.612   1.431 -0.1067 -0.6698 -0.4436
  896SOL    HW1 2687   2.042   0.627   1.378 -0.7564  0.3833 -2.5101
  896SOL    HW2 2688   1.907   0.544   1.378  0.3964 -2.1191 -0.1759
  897SOL     OW 2689   2.948   1.451   1.419  0.3144  0.1249  0.1953
  897SOL    HW1 2690   2.881   1.473   1.342 -0.8500  1.4598 -0.9172
  897SOL    HW2 2691   3.018   1.388   1.384 -1.5481  1.5160  3.4165
  898SOL     OW 2692   2.098   2.350   2.076  0.2819 -0.2090  0.4121
  898SOL    HW1 2693   2.024   2.347   2.009  2.4435 -3.0232  1.2229
  898SOL    HW2 2694   2.120   2.250   2.103  0.9584 -1.1707  0.8697
  899SOL     OW 2695   1.022   1.788   1.088 -0.0581  0.0911 -0.2452
  899SOL    HW1 2696   1.099   1.822   1.143 -2.4082 -0.2504 -1.6099
  899SOL    HW2 2697   0.936   1.784   1.142 -1.3805 -0.7682 -0.0376
  900SOL     OW 2698   1.366   2.384   2.530  0.3041 -0.0383  1.1850
  900SOL    HW1 2699   1.426   2.308   2.556  0.7569  2.5303 -0.2418
  900SOL    HW2 2700   1.386   2.418   2.438  1.5908  2.3083  0.5212
  901SOL     OW 2701   0.633   1.703   2.108  0.4937 -0.6303 -0.1225
  901SOL    HW1 2702   0.631   1.645   2.023  0.6125  0.8995 -1.2529
  901SOL    HW2 2703   0.728   1.740   2.116  0.3398 -0.4411 -0.3564
  902SOL     OW 2704   2.129   1.467   3.056  0.4773  0.1549 -0.1326
  902SOL    HW1 2705   2.116   1.407   2.973 -1.5302  0.1119  1.2151
  902SOL    HW2 2706   2.229   1.474   3.065 -0.0049 -1.1750 -2.0170
  903SOL     OW 2707   1.865   1.456   0.036 -0.1213 -0.1620 -0.6100
  903SOL    HW1 2708   1.959   1.460   3.075  0.1658 -2.0184  0.5440
  903SOL    HW2 2709   1.827   1.549   0.027 -1.5741 -0.1146  0.5481
  904SOL     OW 2710   1.352   1.083   2.255  0.0442  0.0239 -0.0860
  904SOL    HW1 2711   1.410   1.014   2.208 -1.9744  0.5809  2.2649
  904SOL    HW2 2712   1.271   1.042   2.300 -0.2910 -1.8497 -0.8085
  905SOL     OW 2713   2.420   0.374   0.864 -0.3027 -0.1473 -0.3503
  905SOL    HW1 2714   2.391   0.293   0.921 -0.4821 -3.4679  0.3739
  905SOL    HW2 2715   2.399   0.463   0.907  2.4001  0.2235  1.1248
  906SOL     OW 2716   0.239   1.907   0.457 -0.0011  0.0813 -0.2860
  906SOL    HW1 2717   0.270   2.002   0.428 -2.1043  0.0494  0.1418
  906SOL    HW2 2718   0.276   1.841   0.392 -2.6926  1.5562  1.4599
  907SOL     OW 2719   1.606   3.074   0.057  0.4219 -0.3755 -0.4727
  907SOL    HW1 2720   1.584   2.987   0.022  2.3613  4.7445  0.1141
  907SOL    HW2 2721   1.525   0.029   0.108 -0.1724  3.6121 -0.6788
  908SOL     OW 2722   1.525   2.603   1.801  0.7270  0.2654 -0.3376
  908SOL    HW1 2723   1.561   2.536   1.868  0.0613 -0.6268 -0.8484
  908SOL    HW2 2724   1.421   2.604   1.801 -0.4029 -1.2396  1.6508
  909SOL     OW 2725   2.644   0.822   1.623 -0.1489 -0.1768 -0.1928
  909SOL    HW1 2726   2.644   0.745   1.553  0.5472  0.6842  3.0431
  909SOL    HW2 2727   2.642   0.786   1.716  0.6712 -1.8739 -1.5161
  910SOL     OW 2728   1.305   0.064   2.553 -0.2243 -0.2237 -0.4870
  910SOL    HW1 2729   1.402   0.084   2.591  2.4729 -0.0836  2.4744
  910SOL    HW2 2730   1.253   0.010   2.624 -0.9965 -1.9370  0.1611
  911SOL     OW 2731   2.545   1.357   2.572  0.3208  0.1246 -0.1303
  911SOL    HW1 2732   2.548   1.257   2.575 -2.1727  2.0958  1.4978
  911SOL    HW2 2733   2.548   1.393   2.479  0.1012 -0.3210  4.9217
  912SOL     OW 2734   2.248   2.185   1.475  0.2266  0.0925  0.1640
  912SOL    HW1 2735   2.296   2.270   1.486  3.3758 -0.0779 -1.8053
  912SOL    HW2 2736   2.184   2.166   1.552  1.4148 -0.6219  1.4305
  913SOL     OW 2737   2.564   2.444   1.828 -0.3275  0.5643  0.5039
  913SOL    HW1 2738   2.529   2.510   1.766  1.7955 -3.2643  2.4631
  913SOL    HW2 2739   2.493   2.383   1.870 -0.5630 -2.7650 -3.0055
  914SOL     OW 2740   2.278   2.133   1.204 -0.6654  0.5889 -0.2314
  914SOL    HW1 2741   2.284   2.167   1.300  1.0615 -2.3966 -3.3462
  914SOL    HW2 2742   2.215   2.045   1.200 -1.0810 -1.1948 -4.7976
  915SOL     OW 2743   1.167   2.443   1.516 -0.1495  0.3599 -0.1251
  915SOL    HW1 2744   1.107   2.419   1.596 -1.1126  1.3161 -0.0403
  915SOL    HW2 2745   1.250   2.384   1.498  0.1557 -0.1809 -4.1229
  916SOL     OW 2746   2.996   2.446   1.055 -0.8359 -0.6157  0.2174
  916SOL    HW1 2747   2.951   2.529   1.014  2.5290  0.6068 -0.2808
  916SOL    HW2 2748   3.044   2.467   1.144 -1.5909  0.2652  2.0388
  917SOL     OW 2749   2.881   1.123   2.898  0.4802 -0.0083 -0.0415
  917SOL    HW1 2750   2.872   1.019   2.886 -0.3543 -1.6434  0.1037
  917SOL    HW2 2751   2.841   1.177   2.821  3.0923  0.7745 -1.0641
  918SOL     OW 2752   1.816   1.746   2.656 -0.3572  0.0833 -0.3976
  918SOL    HW1 2753   1.777   1.802   2.735 -1.6254  1.4012  2.6263
  918SOL    HW2 2754   1.903   1.696   2.681 -1.5757  3.2808  2.1986
  919SOL     OW 2755   1.504   2.116   1.312 -0.6333 -0.3576 -0.1566
  919SOL    HW1 2756   1.600   2.127   1.284 -1.6024  0.4173 -0.4659
  919SOL    HW2 2757   1.478   2.023   1.347 -0.8783  0.7822 -0.9892
  920SOL     OW 2758   0.665   0.274   2.860 -0.0894  0.0785 -0.9440
  920SOL    HW1 2759   0.665   0.186   2.914  0.1123  1.6873 -1.6077
  920SOL    HW2 2760   0.749   0.333   2.863  3.0120  0.5522 -1.1883
  921SOL     OW 2761   2.914   2.902   2.605  0.0634  0.4556 -0.1586
  921SOL    HW1 2762   2.849   2.883   2.524 -1.5553 -0.3061 -0.8968
  921SOL    HW2 2763   2.994   2.963   2.583 -1.5141 -0.5717 -0.1230
  922SOL     OW 2764   2.351   1.929   1.463 -0.0518  0.5511  0.5220
  922SOL    HW1 2765   2.416   1.905   1.536  2.5000  0.1376  2.9175
  922SOL    HW2 2766   2.319   2.028   1.480  3.4342  1.8638 -2.0300
  923SOL     OW 2767   0.787   1.861   2.796 -0.1113 -0.1509  0.3927
  923SOL    HW1 2768   0.733   1.837   2.878 -1.5630  0.9269  2.3400
  923SOL    HW2 2769   0.758   1.954   2.753  1.5788  0.0602  0.3065
  924SOL     OW 2770   1.670   0.710   2.485  0.4196  0.0463  0.2818
  924SOL    HW1 2771   1.698   0.804   2.511 -1.3959 -0.9988 -0.1283
  924SOL    HW2 2772   1.708   0.695   2.393 -0.5193  0.0539 -0.0475
  925SOL     OW 2773   3.005   1.024   0.215  0.6746 -0.2226 -0.3481
  925SOL    HW1 2774   2.943   1.100   0.178 -0.4632  0.4576 -1.3055
  925SOL    HW2 2775   3.001   1.029   0.320  1.9605  1.4588  4.9653
  926SOL     OW 2776   0.063   0.248   0.886 -0.2300 -0.0541  0.2521
  926SOL    HW1 2777   0.155   0.212   0.857  1.0425 -3.2375  0.2860
  926SOL    HW2 2778   0.062   0.288   0.982 -1.2920  0.2463 -1.5017
  927SOL     OW 2779   1.210   1.236   0.661  0.7301 -0.0597  0.2163
  927SOL    HW1 2780   1.223   1.281   0.570 -2.9139  0.4002 -3.2818
  927SOL    HW2 2781   1.152   1.155   0.656  0.1336  1.3278  0.3137
  928SOL     OW 2782   0.120   0.052   2.290  0.4119  0.3957 -0.1734
  928SOL    HW1 2783   0.199   3.068   2.300  0.7015  0.9298 -0.0100
  928SOL    HW2 2784   0.145   0.150   2.312 -0.9841 -0.4998  1.5047
  929SOL     OW 2785   2.528   0.545   1.505  0.5159  0.5298  0.0328
  929SOL    HW1 2786   2.442   0.574   1.555 -2.8222  1.0008 -0.2732
  929SOL    HW2 2787   2.587   0.489   1.569 -0.4379 -0.4253  3.4853
  930SOL     OW 2788   1.746   2.088   0.971 -0.3206  0.1270  0.0407
  930SOL    HW1 2789   1.757   2.044   0.880  1.5103  0.4721  2.1848
  930SOL    HW2 2790   1.717   2.020   1.042 -0.0773 -0.2903 -0.8849
  931SOL     OW 2791   1.787   0.597   0.853 -0.5536  0.0553 -0.1861
  931SOL    HW1 2792   1.761   0.523   0.792 -1.3280 -1.4462 -1.1904
  931SOL    HW2 2793   1.803   0.681   0.799  1.5634  0.2246  2.1139
  932SOL     OW 2794   0.072   0.746   1.268  0.3442  0.3198  0.1497
  932SOL    HW1 2795   0.030   0.754   1.358 -1.0167 -1.9608 -1.4245
  932SOL    HW2 2796   0.154   0.688   1.270 -1.9965 -0.2343  2.5021
  933SOL     OW 2797   2.330   1.829   1.756 -0.1836 -0.2635  0.2468
  933SOL    HW1 2798   2.351   1.923   1.788  0.0301  1.1365  0.4264
  933SOL    HW2 2799   2.231   1.831   1.736  0.9324 -1.2121 -2.2307
  934SOL     OW 2800   1.573   3.005   1.301  0.3346 -0.6780 -0.1075
  934SOL    HW1 2801   1.565   0.029   1.316 -1.3773  2.8860 -2.1693
  934SOL    HW2 2802   1.600   2.993   1.206  0.7052  1.5900 -0.2788
  935SOL     OW 2803   3.063   1.077   1.210 -0.3617 -0.1406 -0.1087
  935SOL    HW1 2804   2.992   1.039   1.273 -1.4077  1.4289 -0.6205
  935SOL    HW2 2805   3.036   1.063   1.113  1.2566 -0.5589 -0.5556
  936SOL     OW 2806   2.932   0.789   1.130  0.3731 -0.5282 -0.9540
  936SOL    HW1 2807   3.012   0.785   1.194  1.7535  3.4238  1.9564
  936SOL    HW2 2808   2.929   0.707   1.071 -0.5592  0.1538  0.3318
  937SOL     OW 2809   1.118   2.911   0.968  0.4183  0.4442  0.2771
  937SOL    HW1 2810   1.057   2.826   0.956 -0.6389 -3.4340  2.5506
  937SOL    HW2 2811   1.210   2.884   0.945  0.8546 -1.5781  1.5827
  938SOL     OW 2812   3.070   2.453   0.668 -0.6653 -0.7417  0.1809
  938SOL    HW1 2813   3.029   2.529   0.726 -1.4169 -1.8098 -0.0447
  938SOL    HW2 2814   0.075   2.491   0.617  1.5419 -1.7937 -1.1266
  939SOL     OW 2815   0.607   1.692   2.626  0.1446 -0.2337 -0.4684
  939SOL    HW1 2816   0.691   1.752   2.631  2.4500  2.6535 -0.1116
  939SOL    HW2 2817   0.571   1.683   2.723 -2.1251  1.5389  0.6852
  940SOL     OW 2818   2.892   2.630   2.621  0.0029 -0.1259 -0.5149
  940SOL    HW1 2819   2.827   2.595   2.550  0.7065 -0.8105  0.1163
  940SOL    HW2 2820   2.901   2.733   2.612  1.8099  1.3332  1.8430
  941SOL     OW 2821   1.002   3.071   0.148  0.2133  0.6359 -0.2324
  941SOL    HW1 2822   1.064   0.056   0.097 -0.4360 -2.2903  0.1335
  941SOL    HW2 2823   1.040   3.045   0.239 -0.8347 -2.9659 -2.0982
  942SOL     OW 2824   1.534   1.668   1.509  0.1900  0.2500  1.0172
  942SOL    HW1 2825   1.490   1.624   1.424 -1.0349 -0.4954 -1.4969
  942SOL    HW2 2826   1.496   1.758   1.531  2.4224  0.2867 -0.5966
  943SOL     OW 2827   2.220   1.357   1.678 -0.2672 -0.5307  0.4037
  943SOL    HW1 2828   2.271   1.285   1.628 -1.9774  0.0695  1.3687
  943SOL    HW2 2829   2.287   1.431   1.705 -1.5800 -1.5125 -0.5004
  944SOL     OW 2830   1.881   1.079   1.886 -0.2988 -0.3772 -0.1488
  944SOL    HW1 2831   1.846   1.062   1.795 -4.0883 -1.7511  0.3684
  944SOL    HW2 2832   1.813   1.103   1.959  0.2523  2.3448 -1.9291
  945SOL     OW 2833   2.671   2.703   1.442 -0.1774  0.1463  0.4184
  945SOL    HW1 2834   2.664   2.683   1.345 -0.3314  1.6669  2.7708
  945SOL    HW2 2835   2.761   2.671   1.484  0.1266 -0.5558 -0.3218
  946SOL     OW 2836   0.986   1.026   1.364  0.2176  0.2172  0.5538
  946SOL    HW1 2837   0.930   1.107   1.389 -0.0815 -0.5712 -0.7229
  946SOL    HW2 2838   1.081   1.032   1.394  0.3022 -1.1892  0.6523
  947SOL     OW 2839   0.478   2.511   0.904  0.2691 -0.1033  0.1656
  947SOL    HW1 2840   0.440   2.506   0.997 -0.3658  1.8364 -0.3779
  947SOL    HW2 2841   0.428   2.459   0.835  0.5516  3.5693 -1.0428
  948SOL     OW 2842   3.024   1.258   1.856  0.1809  0.0406 -0.1364
  948SOL    HW1 2843   3.034   1.199   1.937 -0.8916  1.6416  0.3141
  948SOL    HW2 2844   0.035   1.294   1.830  0.9208  1.9879 -0.2959
  949SOL     OW 2845   0.646   0.521   2.008  0.1435  0.1089 -0.1353
  949SOL    HW1 2846   0.706   0.503   2.087  0.4960  2.3188 -0.6142
  949SOL    HW2 2847   0.550   0.504   2.022  0.1973  0.1742 -1.7584
  950SOL     OW 2848   0.573   0.529   0.987 -0.3315 -0.3643 -1.0827
  950SOL    HW1 2849   0.549   0.627   0.992  0.9633 -1.2539 -0.8721
  950SOL    HW2 2850   0.526   0.489   0.910  2.2756 -1.5253 -0.7340
  951SOL     OW 2851   1.256   1.626   2.050 -0.1837  0.3384  0.0076
  951SOL    HW1 2852   1.234   1.683   2.133 -0.9036 -0.4401  2.6201
  951SOL    HW2 2853   1.230   1.678   1.966 -0.9665  0.3670 -1.5681
  952SOL     OW 2854   1.195   1.248   3.043 -0.2495 -0.4444  0.3000
  952SOL    HW1 2855   1.283   1.256   0.013 -3.4311 -0.8023  1.4853
  952SOL    HW2 2856   1.213   1.186   2.963 -0.9011  1.4834  0.1070
  953SOL     OW 2857   0.995   2.804   2.354  0.3417  0.3742 -0.3404
  953SOL    HW1 2858   0.986   2.761   2.256 -0.8728  0.1031 -3.2883
  953SOL    HW2 2859   0.906   2.815   2.402 -1.0677  1.7435  0.8190
  954SOL     OW 2860   2.257   1.580   0.733 -0.7088 -0.2157  0.3101
  954SOL    HW1 2861   2.292   1.677   0.727  1.4987  0.6093  3.5634
  954SOL    HW2 2862   2.321   1.519   0.683 -1.6270  3.4970  1.4804
  955SOL     OW 2863   0.089   2.238   2.717  0.4307  0.2185  0.3105
  955SOL    HW1 2864   0.082   2.298   2.634 -2.5977 -0.3735  1.3667
  955SOL    HW2 2865   0.039   2.277   2.792 -0.4696  0.1603 -1.1303
  956SOL     OW 2866   0.964   1.387   1.159  0.4019 -0.0660  0.4228
  956SOL    HW1 2867   1.018   1.318   1.106 -1.0775  1.4232 -1.0964
  956SOL    HW2 2868   0.896   1.444   1.102 -1.7269  2.5314  1.6241
  957SOL     OW 2869   2.132   1.531   2.439 -0.0286 -0.7386 -0.0950
  957SOL    HW1 2870   2.090   1.580   2.364  2.2117 -0.6555  1.3451
  957SOL    HW2 2871   2.173   1.446   2.406 -2.8757  0.3489  2.9459
  958SOL     OW 2872   1.381   2.478   0.953  0.1328  0.0708  0.1352
  958SOL    HW1 2873   1.438   2.427   0.883  1.2019 -1.2441  1.3810
  958SOL    HW2 2874   1.381   2.420   1.038 -2.6638  0.4249  0.7815
  959SOL     OW 2875   1.600   1.667   2.232  0.2766 -0.0088 -0.2625
  959SOL    HW1 2876   1.623   1.630   2.319  0.3635  0.3208 -4.0660
  959SOL    HW2 2877   1.681   1.726   2.217 -2.2617 -2.7683  1.4392
  960SOL     OW 2878   0.034   0.764   2.764  0.4482  0.1760  0.0107
  960SOL    HW1 2879   0.081   0.832   2.827 -4.0956 -1.3661  1.0768
  960SOL    HW2 2880   0.104   0.707   2.721  2.9016 -2.2751 -0.5160
  961SOL     OW 2881   0.706   0.638   1.739  0.1915  0.3340 -0.5156
  961SOL    HW1 2882   0.674   0.620   1.839  1.1333 -0.7281  3.3571
  961SOL    HW2 2883   0.626   0.642   1.674 -0.5526 -0.2819  0.5066
  962SOL     OW 2884   1.383   1.717   0.374  0.1192  0.1477  0.0373
  962SOL    HW1 2885   1.292   1.710   0.423 -0.0484  0.8405 -2.0085
  962SOL    HW2 2886   1.409   1.627   0.333 -2.3468  1.4085  3.5183
  963SOL     OW 2887   1.461   2.298   0.045  0.2941  0.2373  0.4596
  963SOL    HW1 2888   1.505   2.322   3.035  1.8369 -1.0964 -0.9722
  963SOL    HW2 2889   1.441   2.377   0.098  1.5912 -2.3947 -1.0754
  964SOL     OW 2890   1.037   2.513   0.459  0.3906 -0.1570 -0.2318
  964SOL    HW1 2891   1.076   2.486   0.372  1.4731  3.0322  1.9735
  964SOL    HW2 2892   0.985   2.604   0.452  2.8066  2.0494  1.0368
  965SOL     OW 2893   0.900   2.779   0.924 -0.0811 -0.3817 -0.4510
  965SOL    HW1 2894   0.938   2.687   0.932 -0.0483  2.3658 -2.8796
  965SOL    HW2 2895   0.840   2.803   1.004  1.0022  1.2113  3.6350
  966SOL     OW 2896   0.071   1.148   2.929  0.2331  0.0383 -0.2956
  966SOL    HW1 2897   0.095   1.223   2.863  0.9519 -0.6195 -1.5166
  966SOL    HW2 2898   3.052   1.137   2.929 -0.1210  0.6403 -2.4383
  967SOL     OW 2899   1.168   2.674   1.930 -0.2352  0.3950 -0.3472
  967SOL    HW1 2900   1.102   2.673   1.855  4.0806  0.4343  2.4857
  967SOL    HW2 2901   1.171   2.583   1.976  0.1109  2.8328  2.1035
  968SOL     OW 2902   1.742   0.894   0.479 -0.0228  0.4493  1.1763
  968SOL    HW1 2903   1.644   0.865   0.468 -0.8372 -0.8176  0.0627
  968SOL    HW2 2904   1.750   0.992   0.478 -0.1956  0.3016 -3.4421
  969SOL     OW 2905   0.192   1.544   2.038 -0.6708  0.5944 -0.1314
  969SOL    HW1 2906   0.130   1.557   1.956 -1.5807  3.3744 -1.5335
  969SOL    HW2 2907   0.238   1.628   2.070 -0.2392 -2.4837 -2.2857
  970SOL     OW 2908   2.533   1.587   1.497  0.2239 -0.2762  0.1185
  970SOL    HW1 2909   2.538   1.521   1.421  1.7450  3.7643 -1.0765
  970SOL    HW2 2910   2.624   1.612   1.523 -0.3145 -2.5997  1.7047
  971SOL     OW 2911   1.442   0.642   1.584  0.6603  0.5697 -0.1625
  971SOL    HW1 2912   1.544   0.618   1.587  1.1765  0.6490  0.6146
  971SOL    HW2 2913   1.425   0.740   1.600  0.0338  1.6316  0.1222
  972SOL     OW 2914   0.526   3.054   2.506  0.0086  0.2037  0.0238
  972SOL    HW1 2915   0.536   2.964   2.553 -1.5241  0.8900 -1.0879
  972SOL    HW2 2916   0.578   0.040   2.564 -1.9501 -0.7371  1.4583
  973SOL     OW 2917   2.730   1.242   0.413 -0.3215  0.1422  0.1520
  973SOL    HW1 2918   2.698   1.148   0.391 -0.1966 -1.7695 -2.3808
  973SOL    HW2 2919   2.684   1.272   0.497  1.8756 -1.1296 -0.1377
  974SOL     OW 2920   2.012   1.258   2.083  0.2196  0.0538 -0.3768
  974SOL    HW1 2921   1.989   1.175   2.031  0.9766  0.7185  1.7421
  974SOL    HW2 2922   1.931   1.320   2.096  2.7035  0.3622 -0.2731
  975SOL     OW 2923   2.725   2.790   0.722  0.2998 -0.2631  0.0599
  975SOL    HW1 2924   2.679   2.787   0.634  0.2161  1.7245  1.6317
  975SOL    HW2 2925   2.744   2.885   0.757 -1.0410  0.9927 -0.9563
  976SOL     OW 2926   0.018   1.608   1.815  0.6437 -0.0813  0.3115
  976SOL    HW1 2927   0.050   1.684   1.747  0.6741  2.2006 -0.8972
  976SOL    HW2 2928   3.027   1.647   1.875 -3.4856 -2.3026 -0.2558
  977SOL     OW 2929   0.789   2.656   3.045 -0.1952  0.3201  0.5010
  977SOL    HW1 2930   0.803   2.665   2.944  0.4876  1.4831 -1.5790
  977SOL    HW2 2931   0.822   2.572   0.013  3.2732  0.3176  0.7879
  978SOL     OW 2932   0.743   1.890   2.403  0.3181  0.1228 -0.7503
  978SOL    HW1 2933   0.643   1.892   2.396  0.0178  2.1819  0.4628
  978SOL    HW2 2934   0.775   1.987   2.421  2.9578  1.6214  0.9718
  979SOL     OW 2935   1.350   2.277   1.141  0.0199  0.2386 -0.0352
  979SOL    HW1 2936   1.391   2.230   1.223  0.1095  2.0830  0.5610
  979SOL    HW2 2937   1.321   2.206   1.076  1.7423  1.8492 -1.5189
  980SOL     OW 2938   0.500   1.307   2.756  0.4821  0.0683  1.5881
  980SOL    HW1 2939   0.461   1.323   2.661  0.0590  1.7042  0.6819
  980SOL    HW2 2940   0.585   1.352   2.756 -2.7907  0.9076 -0.0581
  981SOL     OW 2941   2.688   0.312   2.609  0.5004  0.3831 -0.5476
  981SOL    HW1 2942   2.658   0.300   2.513  1.2261  0.8757  2.4304
  981SOL    HW2 2943   2.685   0.230   2.671  1.0639  0.2610  1.9706
  982SOL     OW 2944   0.113   2.676   2.627 -0.0299 -0.6540 -0.2005
  982SOL    HW1 2945   0.181   2.659   2.555  0.3635 -0.3854  0.6467
  982SOL    HW2 2946   0.027   2.634   2.611  1.8514  4.2357  1.4183
  983SOL     OW 2947   2.307   0.886   1.817 -0.0476 -0.2175  0.1238
  983SOL    HW1 2948   2.289   0.988   1.823 -0.1737  0.0761 -0.2052
  983SOL    HW2 2949   2.396   0.856   1.859  0.2164  0.9563  0.5154
  984SOL     OW 2950   1.287   0.115   2.256  0.3347  0.2401  0.4245
  984SOL    HW1 2951   1.361   0.184   2.258 -1.1460 -0.2751 -2.3861
  984SOL    HW2 2952   1.285   0.042   2.330 -1.7543 -1.2960 -2.5201
  985SOL     OW 2953   1.553   2.121   2.405 -0.1794 -0.2738 -0.0651
  985SOL    HW1 2954   1.456   2.107   2.368 -2.5518 -0.6075  1.0155
  985SOL    HW2 2955   1.620   2.113   2.326  0.0835 -1.2579  0.9759
  986SOL     OW 2956   2.165   0.516   2.286 -0.1223 -0.1252  0.1424
  986SOL    HW1 2957   2.159   0.609   2.239  0.9716  0.3299 -0.9965
  986SOL    HW2 2958   2.103   0.449   2.242  1.0169 -0.4190 -2.7749
  987SOL     OW 2959   2.429   0.479   2.275 -0.4523  0.5144 -0.7643
  987SOL    HW1 2960   2.328   0.491   2.284  1.6063 -0.7001 -0.2143
  987SOL    HW2 2961   2.457   0.381   2.298  1.2177 -3.7896  0.4504
  988SOL     OW 2962   2.289   0.793   2.710  0.2535  0.0642  0.3790
  988SOL    HW1 2963   2.251   0.733   2.780  0.6475  0.0628 -1.9235
  988SOL    HW2 2964   2.327   0.739   2.629  2.6768  1.1385 -0.3849
  989SOL     OW 2965   2.591   2.529   2.675 -0.2187  0.0763 -0.2522
  989SOL    HW1 2966   2.506   2.527   2.623  1.2770  0.9212 -0.1345
  989SOL    HW2 2967   2.668   2.505   2.613 -0.8251  0.0560 -0.2169
  990SOL     OW 2968   0.156   0.560   0.185 -0.7033  0.1941 -0.3002
  990SOL    HW1 2969   0.213   0.564   0.270  1.5152 -0.9002 -0.8292
  990SOL    HW2 2970   0.122   0.654   0.165 -1.4628  0.8805 -1.0877
  991SOL     OW 2971   0.458   0.479   2.888 -0.1063  0.0396  0.3193
  991SOL    HW1 2972   0.407   0.459   2.975  0.0440  2.8063  0.4966
  991SOL    HW2 2973   0.525   0.402   2.864 -2.0684 -1.3834 -0.4397
  992SOL     OW 2974   2.980   2.052   2.188  0.1372  0.1884  0.0336
  992SOL    HW1 2975   2.952   2.136   2.237  0.8126  1.4521  1.8471
  992SOL    HW2 2976   3.078   2.044   2.181 -0.9285  0.4848 -0.0150
  993SOL     OW 2977   0.500   2.938   0.704  0.6382  0.1500 -0.7387
  993SOL    HW1 2978   0.527   2.951   0.607  0.1452 -0.2410  1.8543
  993SOL    HW2 2979   0.562   3.001   0.765 -0.7217  3.2940  2.7110
  994SOL     OW 2980   0.282   2.016   1.765 -0.6149  0.0699 -0.0178
  994SOL    HW1 2981   0.348   1.940   1.787 -2.1136  0.6509 -1.0413
  994SOL    HW2 2982   0.304   2.044   1.668 -0.7417 -2.9720 -3.8348
  995SOL     OW 2983   2.167   1.776   0.264 -0.2650 -0.4169  0.0118
  995SOL    HW1 2984   2.135   1.810   0.353  0.7084 -1.3206 -0.0925
  995SOL    HW2 2985   2.104   1.713   0.227  1.1286  1.4459  4.6332
  996SOL     OW 2986   1.424   1.302   2.596  0.2499 -0.1107  0.5631
  996SOL    HW1 2987   1.365   1.324   2.514 -1.1019 -2.9420  0.1367
  996SOL    HW2 2988   1.522   1.313   2.576 -2.5882 -0.2133  1.7304
  997SOL     OW 2989   1.804   1.446   1.864 -0.2948 -0.2743 -0.5714
  997SOL    HW1 2990   1.754   1.516   1.800 -1.0555  2.3817  1.0579
  997SOL    HW2 2991   1.794   1.347   1.833 -1.5965 -1.5866  1.6760
  998SOL     OW 2992   2.687   1.646   0.314 -0.0479 -0.3834  0.2382
  998SOL    HW1 2993   2.713   1.720   0.382  0.2915  0.7436  1.1598
  998SOL    HW2 2994   2.588   1.663   0.284 -0.4062  0.5237  1.2996
  999SOL     OW 2995   2.485   2.780   0.335 -0.1104 -0.1119 -0.1954
  999SOL    HW1 2996   2.498   2.684   0.296 -2.2389  0.5185 -0.9513
  999SOL    HW2 2997   2.434   2.838   0.270  1.1247 -1.6072  1.9859
 1000SOL     OW 2998   0.630   2.932   2.231  0.3936  0.0971 -0.1344
 1000SOL    HW1 2999   0.617   3.029   2.255  1.1797  0.8400 -1.1588
 1000SOL    HW2 3000   0.612   2.912   2.131 -1.7767 -1.4554 -0.3264
   3.08017   3.08017   3.08017
