1000 SPC/Fw water molecules t= 136.00000 step= 136000
 3000
    1SOL     OW    1   2.267   2.368   1.108 -0.0410  0.0241  0.0741
    1SOL    HW1    2   2.192   2.391   1.047  0.7367  0.1244  0.8035
    1SOL    HW2    3   2.275   2.268   1.124 -1.6067 -1.3251  1.0824
    2SOL     OW    4   1.587   1.843   2.284  0.4747  0.3359  0.9111
    2SOL    HW1    5   1.507   1.913   2.276 -0.3122  2.8531  1.0350
    2SOL    HW2    6   1.556   1.747   2.255 -1.9685 -1.5000 -0.6442
    3SOL     OW    7   1.610   2.573   2.276 -0.0663  0.8868  0.0064
    3SOL    HW1    8   1.657   2.658   2.294 -2.9084 -3.5161  2.2519
    3SOL    HW2    9   1.670   2.497   2.250 -3.3440  2.3530 -0.0068
    4SOL     OW   10   1.569   2.639   2.003  0.2259 -0.2030 -0.1454
    4SOL    HW1   11   1.566   2.607   2.099  0.4503  1.2817 -3.1321
    4SOL    HW2   12   1.606   2.564   1.943 -0.7840  0.4285 -0.1450
    5SOL     OW   13   0.433   0.706   1.533  0.2614 -0.1942  0.4149
    5SOL    HW1   14   0.455   0.617   1.498  0.2130  4.4423 -1.0805
    5SOL    HW2   15   0.343   0.701   1.585 -2.6018 -0.2774 -1.5542
    6SOL     OW   16   2.498   0.877   3.048  0.5542 -0.6903 -0.0065
    6SOL    HW1   17   2.571   0.823   0.009 -0.7643 -0.3039 -0.5471
    6SOL    HW2   18   2.514   0.882   2.944 -1.1958  1.8550  0.5409
    7SOL     OW   19   0.552   0.016   1.655  0.4811 -0.4721  0.4500
    7SOL    HW1   20   0.565   0.097   1.719  1.0819 -0.7435  0.7689
    7SOL    HW2   21   0.455   3.072   1.662  0.5008  1.7180  1.6398
    8SOL     OW   22   1.031   2.676   1.623 -0.2666 -1.0451 -0.3919
    8SOL    HW1   23   1.004   2.690   1.523 -4.0637 -0.8198 -2.8328
    8SOL    HW2   24   1.062   2.581   1.642  1.5518  1.0568  1.2242
    9SOL     OW   25   0.762   0.822   0.418  0.4451 -0.1708  0.0660
    9SOL    HW1   26   0.666   0.827   0.454 -0.0374 -0.3001 -0.6418
    9SOL    HW2   27   0.795   0.913   0.389 -1.1660 -1.2838 -1.6653
   10SOL     OW   28   0.790   2.385   2.528 -0.3644 -0.5355 -0.1819
   10SOL    HW1   29   0.696   2.388   2.569 -1.0033 -0.8857 -0.3302
   10SOL    HW2   30   0.816   2.478   2.491  1.3493  0.3290  0.9184
   11SOL     OW   31   0.388   1.783   0.180  0.0205 -0.1010  0.3026
   11SOL    HW1   32   0.289   1.771   0.161 -1.0712 -0.7793  1.2191
   11SOL    HW2   33   0.404   1.777   0.277  0.2222  2.1376 -2.2851
   12SOL     OW   34   0.571   3.076   1.379  0.4106  0.4283 -0.6199
   12SOL    HW1   35   0.570   0.020   1.475  0.1036  1.3575 -1.1662
   12SOL    HW2   36   0.481   3.085   1.332 -3.3616  0.8379 -0.5869
   13SOL     OW   37   0.817   2.613   0.133 -0.4530  0.3179  0.6160
   13SOL    HW1   38   0.903   2.557   0.130  0.2197  0.1806  0.8044
   13SOL    HW2   39   0.833   2.702   0.091  1.1173 -1.9088  2.2963
   14SOL     OW   40   1.516   1.700   0.980  0.6026  0.2991 -0.7369
   14SOL    HW1   41   1.550   1.684   1.077 -0.6081 -0.4568  0.8965
   14SOL    HW2   42   1.595   1.735   0.928 -1.0743  0.8971  0.4729
   15SOL     OW   43   2.733   0.741   2.467 -0.3778 -0.1810 -0.9551
   15SOL    HW1   44   2.833   0.717   2.465  1.6142  0.2423  1.0719
   15SOL    HW2   45   2.727   0.817   2.541  1.4600  2.5558  0.5880
   16SOL     OW   46   1.546   2.804   0.005  0.1699 -0.2808 -0.2106
   16SOL    HW1   47   1.468   2.871   3.077 -3.5782  0.6239  0.9250
   16SOL    HW2   48   1.629   2.838   3.041  0.8410 -0.2790 -3.1245
   17SOL     OW   49   0.788   2.420   1.988 -0.2959 -0.5594 -0.7304
   17SOL    HW1   50   0.791   2.325   2.030  1.3008  0.7334 -0.4734
   17SOL    HW2   51   0.721   2.472   2.049 -0.5673  3.0802  3.2914
   18SOL     OW   52   1.562   1.090   0.426  0.1369  0.1465  0.0844
   18SOL    HW1   53   1.554   1.189   0.399 -0.4611  0.4222  0.7861
   18SOL    HW2   54   1.469   1.064   0.469 -2.6124 -0.7612 -0.0212
   19SOL     OW   55   2.306   2.151   2.817  0.1927  0.0328  0.2361
   19SOL    HW1   56   2.380   2.121   2.883 -2.1376 -0.9303 -0.1758
   19SOL    HW2   57   2.236   2.077   2.795 -1.6005 -3.5877  0.1785
   20SOL     OW   58   2.465   1.972   2.418  0.0662  0.1031 -0.0254
   20SOL    HW1   59   2.407   2.023   2.355 -0.3029  0.4634  0.2172
   20SOL    HW2   60   2.550   2.032   2.410 -0.6192 -1.2195 -1.4601
   21SOL     OW   61   0.590   2.122   3.078  0.3647 -0.4679 -0.3908
   21SOL    HW1   62   0.584   2.162   0.083 -1.6807  0.4573  0.4879
   21SOL    HW2   63   0.581   2.022   3.084 -0.2870 -0.2499  0.8655
   22SOL     OW   64   2.118   2.922   1.416  0.2253  0.3154  0.1395
   22SOL    HW1   65   2.183   2.992   1.389 -1.7567 -1.6019 -0.7126
   22SOL    HW2   66   2.157   2.842   1.462  0.0614 -2.5536  1.2067
   23SOL     OW   67   0.169   1.335   1.508 -0.2936 -0.1429 -0.0616
   23SOL    HW1   68   0.158   1.388   1.594 -0.3856  0.2829  1.2295
   23SOL    HW2   69   0.230   1.252   1.527 -0.8072 -1.4165 -0.0437
   24SOL     OW   70   2.106   1.958   1.586  0.4192 -0.4140 -0.3642
   24SOL    HW1   71   2.201   1.928   1.595  0.6350  0.1412 -1.4832
   24SOL    HW2   72   2.089   2.036   1.652 -3.5386  0.2791  0.3677
   25SOL     OW   73   1.999   3.063   2.808 -0.1831 -0.5562  0.1379
   25SOL    HW1   74   2.081   3.055   2.865  0.1246  0.0182  0.5267
   25SOL    HW2   75   1.988   2.993   2.743  0.6085  1.7271  1.9139
   26SOL     OW   76   1.188   3.022   0.804 -0.6647  0.0097  0.2384
   26SOL    HW1   77   1.230   2.933   0.832  0.0802  0.1687 -0.5668
   26SOL    HW2   78   1.223   0.011   0.859  0.7959  1.1927  1.0764
   27SOL     OW   79   1.139   2.054   2.908 -0.6648 -0.3340 -0.6881
   27SOL    HW1   80   1.153   2.157   2.917  1.1974  1.1046  1.0922
   27SOL    HW2   81   1.047   2.021   2.881  1.5953 -0.4329  0.4478
   28SOL     OW   82   2.929   1.675   1.441  0.0699  0.6992 -0.0310
   28SOL    HW1   83   2.902   1.691   1.536  2.2358  0.1808 -0.8974
   28SOL    HW2   84   3.027   1.701   1.433 -1.9893  1.1123 -2.2847
   29SOL     OW   85   2.372   2.261   2.173  0.6105  0.1338  0.3265
   29SOL    HW1   86   2.379   2.357   2.202  1.6303 -1.1582  1.5981
   29SOL    HW2   87   2.310   2.219   2.245 -0.4831  0.6539 -1.8936
   30SOL     OW   88   1.042   2.681   1.117  0.0911 -0.4511 -0.1155
   30SOL    HW1   89   1.104   2.744   1.170  3.6898  0.4181 -0.7318
   30SOL    HW2   90   1.004   2.723   1.032 -1.1876 -0.0682  2.5746
   31SOL     OW   91   3.082   2.125   2.036 -0.2797  0.0832  0.2032
   31SOL    HW1   92   3.042   2.031   2.032 -2.3878 -0.6915 -1.4924
   31SOL    HW2   93   0.097   2.121   2.039  1.8307 -2.1645 -1.4305
   32SOL     OW   94   1.467   1.206   2.043  0.1402 -0.9572  0.4490
   32SOL    HW1   95   1.421   1.147   1.975  0.6413 -2.3948 -2.3693
   32SOL    HW2   96   1.395   1.263   2.081  1.8287  0.1852  0.6194
   33SOL     OW   97   0.433   2.960   2.506  0.1327 -0.1514  0.4451
   33SOL    HW1   98   0.332   2.967   2.533 -0.2221  0.3549  0.4971
   33SOL    HW2   99   0.475   2.876   2.552 -2.6674  1.9547  2.0932
   34SOL     OW  100   1.408   3.066   1.554 -0.5130  0.0361 -0.0076
   34SOL    HW1  101   1.362   2.984   1.521  3.9450 -0.2014  1.5979
   34SOL    HW2  102   1.445   3.036   1.645  0.9974 -2.1562 -1.4604
   35SOL     OW  103   1.961   0.442   1.015  0.2235 -0.4818  0.1548
   35SOL    HW1  104   1.872   0.407   0.985  0.6071  1.0642  0.9016
   35SOL    HW2  105   1.986   0.416   1.111  0.5282  0.9100  0.2338
   36SOL     OW  106   2.221   2.791   2.589  0.2212  0.4886 -0.2529
   36SOL    HW1  107   2.308   2.752   2.618 -3.4259 -0.5004 -0.4215
   36SOL    HW2  108   2.189   2.739   2.508 -1.2647 -0.8990  2.2927
   37SOL     OW  109   1.330   2.287   2.739  0.3857  0.5838 -0.4812
   37SOL    HW1  110   1.234   2.314   2.743 -0.8461  0.8783 -2.2663
   37SOL    HW2  111   1.343   2.187   2.723  0.0868 -0.8027  0.9775
   38SOL     OW  112   2.474   0.518   2.838 -0.7058 -0.8341 -0.4347
   38SOL    HW1  113   2.386   0.562   2.855 -0.2491  0.5882  0.9823
   38SOL    HW2  114   2.544   0.556   2.898 -4.4783 -1.5988 -2.2556
   39SOL     OW  115   2.249   2.165   2.380  0.1361 -0.1372  0.2530
   39SOL    HW1  116   2.207   2.082   2.415 -0.8825  0.0668 -2.2842
   39SOL    HW2  117   2.183   2.238   2.367 -1.2773 -2.0350  0.8358
   40SOL     OW  118   0.276   0.300   3.026 -0.1851 -0.2224  0.0793
   40SOL    HW1  119   0.297   0.370   0.007 -0.3925  2.8833  0.9131
   40SOL    HW2  120   0.234   0.213   3.068 -2.4145 -1.0384  3.2573
   41SOL     OW  121   1.297   1.086   1.494 -0.3964 -0.2254 -0.0324
   41SOL    HW1  122   1.291   1.070   1.393 -0.3235  1.5016 -1.8390
   41SOL    HW2  123   1.213   1.142   1.522  0.8974  2.8234 -1.4319
   42SOL     OW  124   0.311   0.203   1.760  0.3421  0.1253 -0.0222
   42SOL    HW1  125   0.281   0.117   1.713  0.7965 -0.8712 -0.2826
   42SOL    HW2  126   0.346   0.181   1.850  1.3287 -0.5646 -1.4671
   43SOL     OW  127   1.684   1.438   2.198  0.2548  0.3791  0.2454
   43SOL    HW1  128   1.592   1.486   2.200 -3.1648 -0.3387 -1.3251
   43SOL    HW2  129   1.696   1.378   2.118  1.7149  2.7522 -0.5426
   44SOL     OW  130   0.038   2.676   2.711  0.2945 -0.0022 -0.0257
   44SOL    HW1  131   0.072   2.737   2.785  0.8824  0.2537  0.8795
   44SOL    HW2  132   0.028   2.736   2.625 -1.9679 -1.5483 -1.7231
   45SOL     OW  133   0.459   2.412   1.157  0.1151  0.0943  0.0606
   45SOL    HW1  134   0.418   2.502   1.123 -1.6439  0.6455 -0.0072
   45SOL    HW2  135   0.556   2.401   1.121  1.2551  2.3853  0.7495
   46SOL     OW  136   2.475   2.207   1.920 -0.0126  1.0300  0.4813
   46SOL    HW1  137   2.464   2.221   2.022 -2.9565  0.6072 -0.7060
   46SOL    HW2  138   2.540   2.276   1.882 -1.5944 -1.3986  2.4516
   47SOL     OW  139   1.597   1.902   1.637  0.4158  0.2211 -0.5409
   47SOL    HW1  140   1.512   1.905   1.692 -2.6011 -1.4451 -1.8618
   47SOL    HW2  141   1.637   1.809   1.625 -0.9214  1.7314 -0.4440
   48SOL     OW  142   0.437   2.045   0.488  0.0493  0.2608 -0.1808
   48SOL    HW1  143   0.529   2.060   0.529 -2.0778 -2.5890 -2.8815
   48SOL    HW2  144   0.374   2.127   0.493  0.6125  2.0107 -0.7874
   49SOL     OW  145   3.053   0.869   2.096  0.4628 -0.3433  0.4428
   49SOL    HW1  146   0.047   0.841   2.152 -1.0261  0.5904 -2.2696
   49SOL    HW2  147   2.988   0.924   2.149 -2.2793 -1.4165 -2.6815
   50SOL     OW  148   2.234   0.784   0.908  0.4813 -0.9217  0.1195
   50SOL    HW1  149   2.157   0.848   0.875  0.1697 -2.2946  3.4623
   50SOL    HW2  150   2.208   0.741   0.996 -0.4606  1.1272 -3.5116
   51SOL     OW  151   1.317   0.501   0.625 -0.8585  0.0167 -0.0798
   51SOL    HW1  152   1.245   0.441   0.673  1.6508 -0.1401 -1.5546
   51SOL    HW2  153   1.400   0.525   0.681  1.4648 -0.7025 -1.0034
   52SOL     OW  154   1.193   1.237   0.192 -0.0490  0.0505  0.4646
   52SOL    HW1  155   1.194   1.137   0.176 -0.5795  0.0153  0.7944
   52SOL    HW2  156   1.168   1.252   0.290  1.2562 -0.3599  0.8263
   53SOL     OW  157   1.133   2.255   2.426 -0.0376 -0.1531  0.0544
   53SOL    HW1  158   1.224   2.211   2.405  1.4147 -2.6371  2.7922
   53SOL    HW2  159   1.137   2.331   2.495 -0.3779  1.9377 -2.1658
   54SOL     OW  160   1.330   0.899   1.670 -0.3489 -0.1099 -0.5323
   54SOL    HW1  161   1.304   0.803   1.649 -0.4157 -0.2125 -0.6196
   54SOL    HW2  162   1.326   0.958   1.580  1.6095  0.2951 -2.2206
   55SOL     OW  163   1.899   2.941   0.617 -0.0615  0.2089  0.0253
   55SOL    HW1  164   1.809   2.899   0.633  1.1846  0.2392  0.1523
   55SOL    HW2  165   1.896   3.037   0.580  0.6732  1.2174  0.5717
   56SOL     OW  166   0.902   2.732   1.388 -0.4379 -0.1751  0.2225
   56SOL    HW1  167   0.927   2.727   1.292 -0.0778 -0.8086 -0.4646
   56SOL    HW2  168   0.823   2.794   1.405  1.4158  0.4145 -2.2673
   57SOL     OW  169   2.012   0.829   2.977  0.5295  0.1798 -0.2743
   57SOL    HW1  170   2.100   0.842   3.023 -1.4695 -0.5894  3.4655
   57SOL    HW2  171   1.959   0.919   2.969  0.8545 -0.4900 -0.4693
   58SOL     OW  172   2.919   1.251   2.090  0.1358 -0.0606  0.0932
   58SOL    HW1  173   2.907   1.155   2.130  0.8847 -5.4197 -0.1202
   58SOL    HW2  174   2.830   1.298   2.093  1.7430  0.4394  0.1130
   59SOL     OW  175   0.784   2.612   2.345  0.1370 -0.3821  0.2988
   59SOL    HW1  176   0.696   2.582   2.298  0.0378  1.2404 -1.0621
   59SOL    HW2  177   0.781   2.715   2.342 -1.7969  3.1135  0.3821
   60SOL     OW  178   2.525   2.612   1.286 -0.0586 -0.1885 -0.0651
   60SOL    HW1  179   2.512   2.602   1.185  0.5030  1.0072 -0.3483
   60SOL    HW2  180   2.622   2.608   1.320  1.4539  0.1876  2.7360
   61SOL     OW  181   1.208   2.146   0.509  0.3261  0.0624 -0.1917
   61SOL    HW1  182   1.270   2.214   0.468 -0.2204 -2.7003  3.0329
   61SOL    HW2  183   1.187   2.073   0.445  1.4254  3.2799  3.8063
   62SOL     OW  184   2.261   2.791   3.067 -0.1320 -0.0847  0.4472
   62SOL    HW1  185   2.293   2.706   3.024 -1.6133  2.4149 -3.2815
   62SOL    HW2  186   2.157   2.791   3.053  0.8616 -1.1210  1.5765
   63SOL     OW  187   2.064   0.111   0.101  0.0388  0.0553  0.5116
   63SOL    HW1  188   2.138   0.081   0.034  0.2145 -1.8846  0.7285
   63SOL    HW2  189   2.068   0.212   0.122  0.8445 -0.8675 -1.4555
   64SOL     OW  190   0.860   1.029   2.490  0.2857  0.0609  0.4995
   64SOL    HW1  191   0.841   1.108   2.551  2.9658  0.9743  0.1760
   64SOL    HW2  192   0.873   0.944   2.541  0.7701  0.5020 -1.3369
   65SOL     OW  193   1.229   2.594   0.490  0.3265 -0.2090  0.4673
   65SOL    HW1  194   1.237   2.529   0.408  0.9400  0.0164 -0.3119
   65SOL    HW2  195   1.326   2.627   0.514 -0.2964  0.3504 -0.9933
   66SOL     OW  196   0.583   1.660   1.487 -0.1097  0.3681  0.0801
   66SOL    HW1  197   0.630   1.752   1.501  1.5666 -0.3799 -0.3838
   66SOL    HW2  198   0.555   1.613   1.569 -1.4197 -0.0285 -1.1770
   67SOL     OW  199   2.711   2.923   2.157 -0.1899  0.0461 -0.2056
   67SOL    HW1  200   2.642   2.932   2.232  1.6600 -0.1759 -0.8953
   67SOL    HW2  201   2.793   2.975   2.188  1.6756  1.2646 -1.6917
   68SOL     OW  202   0.797   0.766   1.256 -0.2728  0.4592 -0.2068
   68SOL    HW1  203   0.778   0.670   1.246 -1.1495  3.2264  0.2734
   68SOL    HW2  204   0.725   0.809   1.314  2.4218 -0.7703  1.6054
   69SOL     OW  205   1.842   2.851   0.307  0.1141  0.1004 -0.5562
   69SOL    HW1  206   1.774   2.907   0.252  0.4758  1.2742  0.5545
   69SOL    HW2  207   1.932   2.894   0.299 -1.9824 -0.6132 -0.7054
   70SOL     OW  208   2.721   0.952   2.646 -0.0349  0.4078  0.1578
   70SOL    HW1  209   2.742   1.049   2.646 -1.5277  0.2590  0.2940
   70SOL    HW2  210   2.792   0.905   2.697 -0.2013  0.6762 -1.0224
   71SOL     OW  211   2.786   1.874   0.037 -0.2193  0.3600  0.5835
   71SOL    HW1  212   2.839   1.898   3.044 -0.8927  1.3942  2.1148
   71SOL    HW2  213   2.711   1.811   0.015 -1.4975  1.1796 -1.1141
   72SOL     OW  214   0.090   1.770   0.531  0.4419  0.0518 -0.5087
   72SOL    HW1  215   0.061   1.703   0.458 -3.4351 -3.9886 -4.2703
   72SOL    HW2  216   0.186   1.764   0.547 -0.9619  0.2611  1.7975
   73SOL     OW  217   1.105   1.243   0.487 -0.2629  0.3834 -0.0120
   73SOL    HW1  218   1.117   1.191   0.577 -0.8012 -0.7499 -1.0640
   73SOL    HW2  219   1.111   1.342   0.503  1.0991 -0.6554  0.8358
   74SOL     OW  220   0.443   1.894   2.067 -0.0095  0.0385  0.0337
   74SOL    HW1  221   0.347   1.925   2.085 -0.5573 -3.4366 -1.4209
   74SOL    HW2  222   0.436   1.849   1.974  0.2843  0.2886 -1.5212
   75SOL     OW  223   1.575   1.486   1.822 -0.2306  0.3397  0.2379
   75SOL    HW1  224   1.616   1.434   1.902 -0.0813 -3.5681  3.3440
   75SOL    HW2  225   1.505   1.428   1.778  1.8254  1.6497  1.9066
   76SOL     OW  226   2.162   2.526   1.342 -0.4231  0.4612  0.3816
   76SOL    HW1  227   2.151   2.479   1.427 -2.6842 -1.3903 -3.0102
   76SOL    HW2  228   2.203   2.469   1.266 -1.4736 -1.0054  1.1274
   77SOL     OW  229   2.472   1.332   1.661  0.4413 -0.8387  0.2109
   77SOL    HW1  230   2.470   1.298   1.758 -0.6942  2.0567 -0.2278
   77SOL    HW2  231   2.518   1.426   1.653 -0.2536  2.0279 -1.3678
   78SOL     OW  232   1.446   0.730   0.537 -0.6788  0.3998  0.4607
   78SOL    HW1  233   1.377   0.801   0.511 -1.5450  1.1736 -1.0038
   78SOL    HW2  234   1.397   0.651   0.572  0.4557  2.0218 -1.1099
   79SOL     OW  235   2.249   1.603   1.635 -0.0045 -0.2799 -0.5859
   79SOL    HW1  236   2.251   1.544   1.551 -0.8907  0.1844 -2.7585
   79SOL    HW2  237   2.289   1.693   1.625  0.2719 -2.6488 -0.2731
   80SOL     OW  238   0.739   0.506   1.305  0.0040 -0.1404  0.0329
   80SOL    HW1  239   0.640   0.485   1.318 -0.4563 -0.7346  0.7959
   80SOL    HW2  240   0.791   0.423   1.326 -1.4202  0.5321  1.0322
   81SOL     OW  241   0.700   2.892   0.914 -0.0085 -0.3531  0.2041
   81SOL    HW1  242   0.688   2.962   0.845  0.8069 -2.2210  0.2135
   81SOL    HW2  243   0.796   2.880   0.935 -1.7061 -2.4715  0.2641
   82SOL     OW  244   1.485   3.024   1.837  0.1870  0.2075  0.4692
   82SOL    HW1  245   1.411   2.960   1.871 -3.1014 -1.4376 -2.8575
   82SOL    HW2  246   1.576   2.986   1.858  0.1605 -1.6759  2.0396
   83SOL     OW  247   1.354   1.779   0.757 -0.3557 -0.0300 -0.2384
   83SOL    HW1  248   1.402   1.779   0.846  2.0609  0.6256 -0.6976
   83SOL    HW2  249   1.382   1.859   0.700 -0.1497  0.6000 -1.0654
   84SOL     OW  250   0.161   1.511   2.847  0.0524 -0.2056  0.3981
   84SOL    HW1  251   0.138   1.441   2.776 -2.1252  0.5020 -1.5812
   84SOL    HW2  252   0.086   1.582   2.849 -1.0343  0.0905 -2.6085
   85SOL     OW  253   0.369   2.141   1.154  0.5589  1.2577 -0.1149
   85SOL    HW1  254   0.291   2.166   1.090  0.5918 -0.9073  1.1574
   85SOL    HW2  255   0.419   2.227   1.154 -2.6586  1.8810 -1.9582
   86SOL     OW  256   2.222   2.401   1.586  0.0418  0.1413  0.4701
   86SOL    HW1  257   2.317   2.429   1.567 -2.0260 -0.4014 -0.0653
   86SOL    HW2  258   2.187   2.442   1.672  0.5882 -0.1143 -0.2991
   87SOL     OW  259   3.066   2.165   0.806  0.0444 -0.3045 -0.1645
   87SOL    HW1  260   3.050   2.264   0.796  0.3749 -0.2768  1.9403
   87SOL    HW2  261   3.048   2.113   0.719  1.6173 -1.7718  0.9398
   88SOL     OW  262   1.035   1.155   1.145  0.0142 -0.1566  0.7501
   88SOL    HW1  263   0.983   1.232   1.111  1.9215 -1.4671  0.5743
   88SOL    HW2  264   0.984   1.066   1.121 -0.5530 -2.6274 -2.1221
   89SOL     OW  265   1.129   0.032   2.204  0.4265  0.7336 -0.6141
   89SOL    HW1  266   1.092   0.070   2.291 -0.3338  2.7966  1.9678
   89SOL    HW2  267   1.056   0.009   2.138 -0.0153 -1.7222 -0.4025
   90SOL     OW  268   3.029   2.026   1.674 -0.1656 -0.1653  0.4636
   90SOL    HW1  269   3.066   1.932   1.684 -0.6263  0.7505 -0.9292
   90SOL    HW2  270   0.013   2.093   1.680 -1.3111 -1.5049 -0.3337
   91SOL     OW  271   1.434   2.089   1.409 -0.2822  0.2642 -0.0129
   91SOL    HW1  272   1.535   2.079   1.417  1.5942  2.0061  0.3622
   91SOL    HW2  273   1.396   2.002   1.374  1.1170 -1.8769  0.8258
   92SOL     OW  274   2.728   2.693   1.522  0.1777  0.0216  0.0315
   92SOL    HW1  275   2.645   2.639   1.540  2.3881  2.2076 -1.1546
   92SOL    HW2  276   2.723   2.787   1.562  2.2878 -1.1416  1.0469
   93SOL     OW  277   2.967   1.211   2.775  0.3925 -0.1179  0.1194
   93SOL    HW1  278   3.038   1.139   2.774  3.1353 -2.9029  1.5722
   93SOL    HW2  279   2.953   1.258   2.866 -2.1687 -0.3556  1.0556
   94SOL     OW  280   2.637   2.589   1.896  0.3935 -0.3614  0.0957
   94SOL    HW1  281   2.687   2.648   1.965 -0.2302 -1.0386  1.3765
   94SOL    HW2  282   2.559   2.641   1.857  0.9034 -1.2745 -0.8319
   95SOL     OW  283   1.350   0.573   2.002  0.0815  0.3970 -0.3520
   95SOL    HW1  284   1.423   0.552   2.069  0.1491  1.4329  1.9954
   95SOL    HW2  285   1.339   0.674   1.999  1.9621 -0.2790 -1.5864
   96SOL     OW  286   2.474   0.731   1.515  0.4621  0.6118 -0.6989
   96SOL    HW1  287   2.524   0.642   1.526  0.4659 -1.0561  1.1456
   96SOL    HW2  288   2.395   0.736   1.450  4.2641  0.5663  4.1083
   97SOL     OW  289   1.974   0.455   1.687  0.1721 -0.0470 -0.4140
   97SOL    HW1  290   1.940   0.358   1.704  0.4347 -1.5570  0.3622
   97SOL    HW2  291   1.893   0.521   1.696 -0.6194 -0.8795 -0.1383
   98SOL     OW  292   1.914   2.897   1.257 -0.3189 -0.2197 -0.2460
   98SOL    HW1  293   1.989   2.915   1.327  2.5477 -0.0192  3.1244
   98SOL    HW2  294   1.876   2.805   1.277  0.3255  1.8992 -1.1434
   99SOL     OW  295   2.774   0.202   1.963 -0.0839  0.2194  0.4318
   99SOL    HW1  296   2.855   0.213   2.025  2.0332  0.4178  0.4423
   99SOL    HW2  297   2.729   0.287   1.942  1.5077 -1.7998  1.6079
  100SOL     OW  298   2.274   1.458   1.867 -0.1607  0.6143 -0.2705
  100SOL    HW1  299   2.272   1.525   1.795 -0.1512 -1.7775  1.3632
  100SOL    HW2  300   2.346   1.385   1.863 -1.5518  0.5655  0.3376
  101SOL     OW  301   1.493   0.152   0.751  0.0384  0.4149 -0.1435
  101SOL    HW1  302   1.415   0.178   0.813 -2.7054 -0.0951 -0.6925
  101SOL    HW2  303   1.559   0.097   0.808 -1.0127  0.4807  0.9533
  102SOL     OW  304   0.518   0.937   1.135  0.5159  0.6692  0.3060
  102SOL    HW1  305   0.451   1.012   1.158 -1.0974  1.6961 -0.8328
  102SOL    HW2  306   0.557   0.885   1.213  1.3956  2.9478  0.0413
  103SOL     OW  307   2.921   0.491   2.952 -0.4949  0.0794 -0.7024
  103SOL    HW1  308   2.913   0.404   2.902 -2.0972 -0.2149  1.9216
  103SOL    HW2  309   2.948   0.472   3.050  0.2773 -0.4080  0.0052
  104SOL     OW  310   2.764   0.074   1.727 -0.3119 -0.1904  0.8404
  104SOL    HW1  311   2.843   0.028   1.681 -0.1511  1.5180  3.2404
  104SOL    HW2  312   2.791   0.125   1.810 -1.0740  1.3850  1.4487
  105SOL     OW  313   1.885   0.513   2.121  0.2816 -0.6435 -0.0426
  105SOL    HW1  314   1.931   0.525   2.211 -1.2049 -2.5707 -0.0962
  105SOL    HW2  315   1.798   0.569   2.110  1.7682 -1.4996 -1.2792
  106SOL     OW  316   1.640   0.048   0.953 -0.1052 -0.4658 -0.5167
  106SOL    HW1  317   1.731   0.016   0.983 -1.5411  0.2238  1.8801
  106SOL    HW2  318   1.582   0.028   1.034 -1.3744  0.0668 -0.5272
  107SOL     OW  319   0.785   1.059   0.704 -0.0802 -0.2316 -0.2150
  107SOL    HW1  320   0.795   1.160   0.726  1.0309 -0.9819  1.4085
  107SOL    HW2  321   0.722   1.014   0.772  1.7534  1.3541  2.8575
  108SOL     OW  322   2.956   0.199   2.179  0.4980  0.4174 -0.2286
  108SOL    HW1  323   3.051   0.246   2.197  2.5284  2.7424 -0.5108
  108SOL    HW2  324   2.960   0.106   2.139  1.5787 -0.1761 -1.5290
  109SOL     OW  325   1.967   0.577   3.089  0.2350 -0.1584  0.2841
  109SOL    HW1  326   1.884   0.546   3.037  1.9774 -0.6158 -3.2079
  109SOL    HW2  327   1.998   0.666   3.049 -2.7560  0.1278  1.5020
  110SOL     OW  328   0.273   2.169   2.789 -0.0355  0.0357  0.1309
  110SOL    HW1  329   0.227   2.241   2.732 -2.2110  3.2366  1.4698
  110SOL    HW2  330   0.234   2.170   2.880  1.0771 -2.7840 -2.7760
  111SOL     OW  331   2.233   0.060   1.980 -0.2289  0.1008  0.9336
  111SOL    HW1  332   2.232   0.156   2.014  1.9412  0.0154  2.7121
  111SOL    HW2  333   2.307   0.043   1.913  1.7134 -1.5725 -0.1818
  112SOL     OW  334   2.321   2.917   0.462  0.0755 -0.3328  0.0902
  112SOL    HW1  335   2.278   2.988   0.399 -2.7842 -0.4114 -1.7129
  112SOL    HW2  336   2.253   2.873   0.528 -3.2861 -0.4727  3.3126
  113SOL     OW  337   2.374   1.871   1.588 -0.4244 -0.3635  0.3766
  113SOL    HW1  338   2.442   1.882   1.512 -2.7271  1.5904 -1.1419
  113SOL    HW2  339   2.422   1.905   1.670  1.3591 -0.8104  1.0443
  114SOL     OW  340   2.721   0.904   0.797 -0.2609  0.1943 -0.4094
  114SOL    HW1  341   2.625   0.897   0.836 -0.5604  0.1395 -0.2815
  114SOL    HW2  342   2.774   0.824   0.834  1.4170 -2.0979  1.8483
  115SOL     OW  343   2.933   1.781   0.259  0.2949  0.2965 -0.3027
  115SOL    HW1  344   2.891   1.696   0.302 -1.4496 -2.4552  0.3145
  115SOL    HW2  345   2.870   1.816   0.185  2.1948 -2.1859 -0.3516
  116SOL     OW  346   2.994   1.618   1.993 -0.3818  0.2521  0.3950
  116SOL    HW1  347   2.910   1.568   1.958 -1.1180  0.1346 -2.0504
  116SOL    HW2  348   3.056   1.550   2.035 -0.2983 -0.1640 -5.2855
  117SOL     OW  349   2.585   0.123   0.519  0.8356  0.2203  0.2149
  117SOL    HW1  350   2.500   0.127   0.578 -2.9535  2.0594  2.4432
  117SOL    HW2  351   2.554   0.144   0.420 -0.7856  0.2493 -1.8755
  118SOL     OW  352   0.499   2.233   1.636 -0.5013 -0.4354 -0.5750
  118SOL    HW1  353   0.601   2.231   1.654  2.2142  1.3059 -0.3926
  118SOL    HW2  354   0.482   2.295   1.559 -1.0996  0.6506 -0.1557
  119SOL     OW  355   1.778   2.255   1.185 -0.1470 -0.2523  0.0191
  119SOL    HW1  356   1.854   2.207   1.235 -1.8989 -0.0475  0.7300
  119SOL    HW2  357   1.745   2.331   1.241 -0.0891 -1.6231 -0.4041
  120SOL     OW  358   0.357   1.614   2.133 -0.5663 -0.0528  0.2651
  120SOL    HW1  359   0.390   1.571   2.216 -1.5793 -0.3865 -1.4567
  120SOL    HW2  360   0.385   1.714   2.129  1.1745  1.5856 -0.6438
  121SOL     OW  361   2.751   1.731   1.254 -0.5203  0.1074  0.0304
  121SOL    HW1  362   2.825   1.718   1.326  1.5153 -1.0178  1.8842
  121SOL    HW2  363   2.796   1.732   1.163  2.6098 -2.0321  3.2928
  122SOL     OW  364   2.047   1.540   2.277 -0.2339  0.7520 -0.0854
  122SOL    HW1  365   2.055   1.633   2.317 -0.1805 -3.1992 -1.2264
  122SOL    HW2  366   2.070   1.474   2.350 -1.9004  0.8785 -0.1180
  123SOL     OW  367   3.065   0.141   0.735  0.0703 -0.1719  0.1101
  123SOL    HW1  368   2.989   0.113   0.799 -1.4708  1.8385  1.2673
  123SOL    HW2  369   0.025   0.058   0.706  0.6945  3.6076  2.4996
  124SOL     OW  370   1.283   1.193   2.603 -0.3761  0.1156  0.0272
  124SOL    HW1  371   1.216   1.167   2.528 -1.1641 -0.0276 -0.0769
  124SOL    HW2  372   1.312   1.110   2.652 -1.2795  0.3091 -0.6362
  125SOL     OW  373   0.370   1.394   2.585  0.5152  0.5365  0.3660
  125SOL    HW1  374   0.412   1.389   2.675 -1.4692  2.2406 -2.9432
  125SOL    HW2  375   0.271   1.360   2.579 -2.7616  1.4791  0.1570
  126SOL     OW  376   2.795   2.076   0.186  0.4177  0.4089 -0.3055
  126SOL    HW1  377   2.891   2.066   0.222 -1.4336 -0.8482  3.2036
  126SOL    HW2  378   2.778   1.995   0.128  0.0547 -0.6956 -1.2592
  127SOL     OW  379   0.694   1.728   0.788 -0.2890 -0.8898 -0.1879
  127SOL    HW1  380   0.647   1.785   0.860  2.2874 -1.5886  0.0917
  127SOL    HW2  381   0.632   1.675   0.730 -1.0520  0.5893  4.1165
  128SOL     OW  382   1.409   0.905   0.004 -0.1573 -0.1452  0.0244
  128SOL    HW1  383   1.471   0.855   0.073  1.4477 -1.0531  0.7296
  128SOL    HW2  384   1.470   0.972   3.048 -1.0917  0.8215 -0.4135
  129SOL     OW  385   2.354   1.789   1.157 -0.6635  0.8598  0.5006
  129SOL    HW1  386   2.372   1.760   1.053 -1.8278  0.1246 -2.9788
  129SOL    HW2  387   2.386   1.886   1.171  2.1601  2.2667  0.3557
  130SOL     OW  388   1.877   1.348   0.668  0.2912 -0.2485 -0.0918
  130SOL    HW1  389   1.850   1.423   0.602 -0.0346  1.8429 -0.7772
  130SOL    HW2  390   1.854   1.380   0.764  0.2267  0.9192 -0.2740
  131SOL     OW  391   0.019   0.961   2.545  0.1186 -0.8408 -0.4276
  131SOL    HW1  392   0.005   1.022   2.462 -1.2185 -0.3442  0.2563
  131SOL    HW2  393   0.059   1.009   2.622 -0.2298 -1.0743  0.8876
  132SOL     OW  394   2.001   1.702   1.704 -0.0103 -0.0646 -0.1325
  132SOL    HW1  395   2.004   1.787   1.655  2.2561 -1.0167 -0.7602
  132SOL    HW2  396   2.085   1.646   1.677  1.1490 -1.2195 -0.3103
  133SOL     OW  397   0.026   1.305   0.026  0.5975 -0.1490 -0.2768
  133SOL    HW1  398   3.026   1.337   3.082  0.5259  2.3704 -0.2310
  133SOL    HW2  399   0.024   1.208   0.066  2.5848  1.5977  0.5605
  134SOL     OW  400   0.191   1.524   0.036  0.2507 -0.0623  0.1732
  134SOL    HW1  401   0.123   1.449   0.043  0.0330  0.0546 -0.4786
  134SOL    HW2  402   0.206   1.555   3.033  3.4154  1.4331  0.2628
  135SOL     OW  403   2.302   1.408   0.430 -0.4981  1.1030  0.1081
  135SOL    HW1  404   2.244   1.423   0.344  0.8761  1.0836 -1.5655
  135SOL    HW2  405   2.322   1.495   0.473 -2.6229 -0.1807  0.0100
  136SOL     OW  406   1.888   1.336   1.367 -0.1295 -0.1003 -0.7382
  136SOL    HW1  407   1.974   1.378   1.340 -3.4277  0.5285 -0.6518
  136SOL    HW2  408   1.815   1.404   1.381 -1.6377 -3.6644  1.2445
  137SOL     OW  409   2.600   2.266   0.825  0.3298  0.2759  0.3644
  137SOL    HW1  410   2.504   2.232   0.846 -3.5534  0.3579  1.2871
  137SOL    HW2  411   2.607   2.301   0.731 -0.3189 -2.1517  1.6320
  138SOL     OW  412   1.313   0.225   1.476 -0.6715  0.3636  0.6592
  138SOL    HW1  413   1.354   0.142   1.515  0.6477  1.0223 -0.5253
  138SOL    HW2  414   1.211   0.210   1.463 -0.7662 -0.2003  0.9346
  139SOL     OW  415   2.452   0.239   2.916  0.0534 -0.0827 -0.2120
  139SOL    HW1  416   2.408   0.329   2.890  0.2068  0.8301 -1.1762
  139SOL    HW2  417   2.548   0.249   2.949  0.1293  0.8514  2.9906
  140SOL     OW  418   1.605   2.149   2.583 -0.6684 -0.8418  0.4319
  140SOL    HW1  419   1.689   2.201   2.586  2.1439 -0.2198 -3.1344
  140SOL    HW2  420   1.613   2.051   2.617  1.4733 -3.7289 -2.9822
  141SOL     OW  421   0.718   1.083   1.622 -0.1647 -0.2183  0.3182
  141SOL    HW1  422   0.641   1.041   1.674 -1.2477  2.9122 -1.3860
  141SOL    HW2  423   0.799   1.018   1.616  3.2319 -1.2241 -0.1070
  142SOL     OW  424   2.527   2.846   0.061  0.5149 -0.8097  0.4412
  142SOL    HW1  425   2.436   2.807   0.024 -2.6758 -0.3138  0.3927
  142SOL    HW2  426   2.610   2.801   0.025 -0.0096  2.3882 -2.0608
  143SOL     OW  427   0.811   2.242   2.777  0.0326  0.3533 -0.3172
  143SOL    HW1  428   0.828   2.307   2.703 -0.1658 -0.8433  2.7132
  143SOL    HW2  429   0.714   2.215   2.783  0.4138 -0.4023 -2.1170
  144SOL     OW  430   1.110   2.741   0.120 -0.4060  0.3776 -0.7499
  144SOL    HW1  431   1.171   2.703   0.047 -0.8827  0.8390  0.9990
  144SOL    HW2  432   1.071   2.667   0.179 -0.4470  0.4865  1.2080
  145SOL     OW  433   2.189   1.686   0.048 -0.1222 -0.3077 -0.3621
  145SOL    HW1  434   2.262   1.746   0.088 -0.6378 -1.8986  2.9357
  145SOL    HW2  435   2.115   1.743   0.007 -1.7272 -5.4588 -2.3437
  146SOL     OW  436   2.752   2.683   0.016 -0.7336 -0.4586 -0.4364
  146SOL    HW1  437   2.808   2.765   0.047  0.6821  2.7056  2.2607
  146SOL    HW2  438   2.813   2.609   3.068  1.1628 -0.3805  0.2867
  147SOL     OW  439   2.658   1.954   1.398  0.3452 -0.5924 -0.5187
  147SOL    HW1  440   2.637   2.040   1.345 -0.7117 -2.3240 -0.5157
  147SOL    HW2  441   2.684   1.881   1.338 -2.2104 -0.2914  1.5334
  148SOL     OW  442   1.844   0.407   0.173 -0.2600 -0.2413  0.7101
  148SOL    HW1  443   1.886   0.461   0.100  0.9913 -0.7080 -0.9489
  148SOL    HW2  444   1.786   0.330   0.135 -1.1990 -1.3285  0.6174
  149SOL     OW  445   1.084   1.594   2.605 -0.1765 -0.3292  0.2103
  149SOL    HW1  446   1.137   1.532   2.670 -1.6207  1.3585 -0.1680
  149SOL    HW2  447   1.008   1.540   2.565 -0.7948  1.7705  0.7740
  150SOL     OW  448   0.973   2.163   0.647 -0.5253 -0.4227  0.3745
  150SOL    HW1  449   0.984   2.148   0.746 -5.0086 -2.8577  2.4579
  150SOL    HW2  450   1.059   2.182   0.593 -2.2939  1.2855  2.0691
  151SOL     OW  451   0.617   1.678   2.826  0.8823  0.4560  0.5075
  151SOL    HW1  452   0.644   1.600   2.887 -0.1927  3.4300 -1.6179
  151SOL    HW2  453   0.691   1.696   2.755 -2.1875  1.1600 -1.5443
  152SOL     OW  454   2.640   1.260   0.445 -0.2471 -0.5024  0.6536
  152SOL    HW1  455   2.627   1.330   0.369 -1.8725  3.3916 -0.6995
  152SOL    HW2  456   2.739   1.236   0.465  1.3719  2.2442  1.6927
  153SOL     OW  457   2.078   2.566   0.717  0.3048  0.4373 -0.2208
  153SOL    HW1  458   2.098   2.478   0.671  1.4724  2.6205  3.1625
  153SOL    HW2  459   1.979   2.590   0.710  0.1495 -0.5695  0.7725
  154SOL     OW  460   0.515   3.058   1.023  0.1953  0.2481  0.1869
  154SOL    HW1  461   0.571   0.050   0.999 -1.0765  1.9286  0.0754
  154SOL    HW2  462   0.563   2.969   0.997 -2.1358 -1.1528 -0.2105
  155SOL     OW  463   0.351   2.014   0.856  0.1340  0.1759 -0.0632
  155SOL    HW1  464   0.404   2.066   0.790 -2.7775 -0.9325 -0.7964
  155SOL    HW2  465   0.290   2.078   0.910 -1.9218  2.4471  2.3912
  156SOL     OW  466   2.558   2.498   0.006 -0.5587 -0.2416 -0.1679
  156SOL    HW1  467   2.604   2.421   0.059  2.5959  0.6424 -3.2089
  156SOL    HW2  468   2.619   2.583   0.001  2.1823 -0.1101 -1.8599
  157SOL     OW  469   1.038   2.167   1.253  0.2065  0.1073  0.1818
  157SOL    HW1  470   1.009   2.204   1.343 -0.2328 -2.0146 -2.9765
  157SOL    HW2  471   0.961   2.127   1.203  0.6925  0.9369  2.0786
  158SOL     OW  472   1.740   0.538   2.952  0.1961 -0.1099 -0.6326
  158SOL    HW1  473   1.666   0.466   2.952 -1.1787  0.0292  1.6013
  158SOL    HW2  474   1.750   0.591   2.865  2.7394 -2.2161  0.6109
  159SOL     OW  475   1.082   0.453   2.985  0.3256 -0.7985  0.5465
  159SOL    HW1  476   1.087   0.478   3.084 -0.3764 -0.7254  0.8760
  159SOL    HW2  477   1.143   0.370   2.973  2.2158 -0.1328  3.8070
  160SOL     OW  478   1.231   1.399   3.053 -0.1450  0.3981  0.5866
  160SOL    HW1  479   1.193   1.494   3.036 -1.8222  0.1124 -3.8321
  160SOL    HW2  480   1.187   1.362   0.047 -2.4284 -2.7594 -0.9731
  161SOL     OW  481   2.885   2.031   2.933  0.6726  0.2116 -0.1423
  161SOL    HW1  482   2.858   1.999   2.836 -1.9043 -0.8678 -2.8033
  161SOL    HW2  483   2.985   2.048   2.945  1.0806 -1.6880  0.0385
  162SOL     OW  484   0.533   2.672   0.849  0.1790  0.3989 -0.1268
  162SOL    HW1  485   0.601   2.743   0.872 -2.2670  1.4692 -1.6468
  162SOL    HW2  486   0.452   2.677   0.913 -0.2663  0.7667  1.8536
  163SOL     OW  487   2.718   1.220   0.067 -0.5139  0.1404 -0.1800
  163SOL    HW1  488   2.630   1.190   0.038  3.5506 -1.7586 -0.0912
  163SOL    HW2  489   2.754   1.164   0.146 -0.4327  1.4904  3.9767
  164SOL     OW  490   0.178   2.886   2.943 -0.4114 -0.8334  0.8958
  164SOL    HW1  491   0.164   2.820   3.018  0.8981  0.8915 -0.9436
  164SOL    HW2  492   0.272   2.876   2.905  1.1779  0.6588 -2.2881
  165SOL     OW  493   2.303   0.303   1.330 -0.5883 -0.7085  0.6486
  165SOL    HW1  494   2.239   0.360   1.379 -1.9457 -3.2821 -3.2309
  165SOL    HW2  495   2.255   0.243   1.262 -1.3376  0.7403 -3.0493
  166SOL     OW  496   2.014   0.333   1.309 -0.1313 -0.3403 -0.1470
  166SOL    HW1  497   1.927   0.305   1.350  0.9290 -0.7532  0.2891
  166SOL    HW2  498   2.057   0.253   1.269 -2.7959 -0.3567 -0.6908
  167SOL     OW  499   1.095   0.290   1.807 -0.2958  0.1839  0.2850
  167SOL    HW1  500   1.101   0.367   1.875  1.4693 -0.9346 -0.0871
  167SOL    HW2  501   1.172   0.227   1.828 -1.2342 -0.4609  3.8657
  168SOL     OW  502   2.613   0.422   1.867  0.1273  0.1953  0.3960
  168SOL    HW1  503   2.674   0.479   1.811  1.8355 -1.7029 -0.0199
  168SOL    HW2  504   2.527   0.401   1.813  0.0204  0.5770  0.0146
  169SOL     OW  505   0.441   1.419   0.092  0.0603  0.1986  0.0925
  169SOL    HW1  506   0.363   1.485   0.086 -2.0930 -2.5686 -1.5761
  169SOL    HW2  507   0.405   1.332   0.131  1.4791 -0.0304  0.6915
  170SOL     OW  508   0.154   1.480   1.765  0.4832  0.9664  0.0458
  170SOL    HW1  509   0.094   1.401   1.801 -3.5473  0.5657  2.6011
  170SOL    HW2  510   0.152   1.556   1.831  2.7632 -0.5257 -0.3983
  171SOL     OW  511   1.263   2.305   1.981 -0.1143 -0.3788  0.6495
  171SOL    HW1  512   1.190   2.372   1.970 -1.7191 -2.8399  0.8431
  171SOL    HW2  513   1.232   2.212   1.955 -2.3292 -2.5394 -0.6715
  172SOL     OW  514   0.465   2.435   1.437  0.1757 -0.1073  0.4036
  172SOL    HW1  515   0.463   2.531   1.471  1.9779  0.3438 -0.1550
  172SOL    HW2  516   0.469   2.433   1.340 -1.9135 -1.0742  1.5472
  173SOL     OW  517   1.371   2.314   0.976  0.6241  0.1587 -0.3447
  173SOL    HW1  518   1.402   2.366   1.058  3.3174 -3.5114  2.9580
  173SOL    HW2  519   1.268   2.318   0.975  0.2017  1.9099  1.5288
  174SOL     OW  520   1.302   0.122   0.124 -0.0624  0.6064 -0.1897
  174SOL    HW1  521   1.333   0.193   0.186 -1.3216 -1.2991 -3.3360
  174SOL    HW2  522   1.272   0.040   0.175  0.2787  0.2861  1.2815
  175SOL     OW  523   0.879   0.971   2.907  0.3283 -0.4135  0.2087
  175SOL    HW1  524   0.853   1.060   2.871  0.2289  0.9944  0.5558
  175SOL    HW2  525   0.979   0.959   2.899  1.1533 -3.1079  2.3376
  176SOL     OW  526   1.692   0.708   0.443 -0.2897 -0.3307 -0.2066
  176SOL    HW1  527   1.752   0.764   0.503 -0.0111  0.4923  1.9881
  176SOL    HW2  528   1.594   0.720   0.465  0.7239  1.6175  0.2113
  177SOL     OW  529   1.250   0.716   0.932  0.0645  0.1871  0.6339
  177SOL    HW1  530   1.152   0.713   0.908  0.2836 -2.3981  2.9273
  177SOL    HW2  531   1.279   0.804   0.975  2.0590 -1.1938  0.2421
  178SOL     OW  532   2.611   1.667   3.048  0.0644 -0.4732 -0.0922
  178SOL    HW1  533   2.544   1.590   3.073  0.0500  2.7486  1.7843
  178SOL    HW2  534   2.686   1.624   2.990 -0.6329  2.2863 -0.5211
  179SOL     OW  535   0.633   2.597   2.995  0.9942 -0.3007 -0.0663
  179SOL    HW1  536   0.684   2.623   2.909  2.5468 -2.0016 -0.3259
  179SOL    HW2  537   0.693   2.549   3.058  2.9859  0.4966  0.0731
  180SOL     OW  538   1.720   1.625   1.643 -0.4346  0.3272 -0.2037
  180SOL    HW1  539   1.817   1.637   1.675  2.8297  1.9900  1.6528
  180SOL    HW2  540   1.664   1.571   1.711 -0.7326 -0.7487 -0.2701
  181SOL     OW  541   1.245   1.364   2.140 -0.0994 -0.8679 -0.5523
  181SOL    HW1  542   1.163   1.301   2.126 -1.0150  1.7891 -3.8782
  181SOL    HW2  543   1.229   1.464   2.122 -1.2601  1.0693  3.5521
  182SOL     OW  544   0.260   0.768   2.480  0.2679 -0.1763 -0.2523
  182SOL    HW1  545   0.343   0.831   2.484  0.5249 -1.8191  2.1157
  182SOL    HW2  546   0.177   0.819   2.507 -1.6255  0.5458  1.3462
  183SOL     OW  547   1.509   0.506   2.220  0.0230  0.0760 -0.4014
  183SOL    HW1  548   1.430   0.477   2.272  0.8224  0.4048  0.2938
  183SOL    HW2  549   1.589   0.492   2.276 -1.9731  1.8789 -1.5686
  184SOL     OW  550   0.059   0.496   1.491 -0.8631  0.7368 -0.5561
  184SOL    HW1  551   0.068   0.541   1.399  0.8818  0.7534 -0.6817
  184SOL    HW2  552   3.064   0.447   1.499  2.3060  0.4797  0.1917
  185SOL     OW  553   2.377   1.687   0.911  0.0867  0.4003  0.1905
  185SOL    HW1  554   2.447   1.747   0.871 -2.6737 -0.9515 -0.6985
  185SOL    HW2  555   2.390   1.583   0.899  0.4265 -0.3501 -1.9616
  186SOL     OW  556   0.495   1.778   2.501  0.1244  0.1642  0.4645
  186SOL    HW1  557   0.442   1.699   2.471  2.9679  3.0189 -0.1943
  186SOL    HW2  558   0.455   1.817   2.584  0.0618 -1.8559  0.2617
  187SOL     OW  559   2.524   2.126   2.983 -0.0888 -0.5033 -0.0138
  187SOL    HW1  560   2.588   2.202   2.974 -0.1753 -2.1938  1.5112
  187SOL    HW2  561   2.471   2.132   3.072  0.7020 -0.4980  0.6174
  188SOL     OW  562   0.853   2.246   0.197 -0.3655 -0.8115 -0.6104
  188SOL    HW1  563   0.896   2.156   0.220  0.1776 -1.0262 -0.8202
  188SOL    HW2  564   0.750   2.235   0.212 -2.5016 -1.5751  2.0454
  189SOL     OW  565   2.239   0.805   0.027  0.1384  0.2429  0.1565
  189SOL    HW1  566   2.335   0.816   3.085 -1.7060  0.0863  1.1409
  189SOL    HW2  567   2.236   0.856   0.116 -1.2932  3.0629 -3.8015
  190SOL     OW  568   0.889   1.894   1.936  0.9873 -0.1497  0.3654
  190SOL    HW1  569   0.815   1.952   1.902  0.7406  1.2898  0.1195
  190SOL    HW2  570   0.983   1.935   1.919  2.6116  0.3310 -0.2612
  191SOL     OW  571   2.283   0.657   1.345  0.0722  0.5355  0.0228
  191SOL    HW1  572   2.300   0.566   1.390  1.3075 -2.1902  1.2474
  191SOL    HW2  573   2.221   0.648   1.262 -3.1457 -1.6696 -2.4967
  192SOL     OW  574   1.862   0.057   1.659  0.1050  0.1101 -0.5513
  192SOL    HW1  575   1.839   0.070   1.758  2.1059  0.4378 -0.7559
  192SOL    HW2  576   1.781   0.076   1.602 -1.6180 -0.1033  0.9918
  193SOL     OW  577   0.129   0.773   0.954 -0.0012  0.0099 -0.0756
  193SOL    HW1  578   0.226   0.747   0.967 -0.9274  0.5513 -0.3042
  193SOL    HW2  579   0.099   0.742   0.864  1.7872 -0.6306 -1.4968
  194SOL     OW  580   1.716   2.444   1.406  0.4078 -0.0888  0.1486
  194SOL    HW1  581   1.615   2.431   1.404 -1.0269  0.9237  0.2151
  194SOL    HW2  582   1.757   2.414   1.493  0.7307  2.0156 -1.9783
  195SOL     OW  583   2.587   0.537   0.940 -0.4999  0.3957  0.4824
  195SOL    HW1  584   2.587   0.491   0.849 -2.7834 -2.6556  0.3472
  195SOL    HW2  585   2.674   0.586   0.955 -1.8507  1.0087  0.7000
  196SOL     OW  586   1.516   2.320   2.015 -0.2318 -0.2947  0.4490
  196SOL    HW1  587   1.557   2.349   2.106  2.5856  1.4434  0.0312
  196SOL    HW2  588   1.412   2.317   2.016  0.4156  0.2477 -1.0411
  197SOL     OW  589   0.027   3.060   2.817  0.0351 -0.6444  0.0545
  197SOL    HW1  590   0.088   2.998   2.871 -1.6328  1.2005  1.7318
  197SOL    HW2  591   3.047   0.012   2.879  1.9373 -0.1874  2.1883
  198SOL     OW  592   1.112   1.133   0.738  0.1210  0.3169  0.4428
  198SOL    HW1  593   1.207   1.104   0.755  0.0337 -0.6391  0.2756
  198SOL    HW2  594   1.046   1.055   0.738  0.2089 -1.3646 -0.0629
  199SOL     OW  595   2.719   1.087   1.722 -0.5286  0.1710 -0.6033
  199SOL    HW1  596   2.780   1.028   1.663 -3.1934  2.0815 -1.3965
  199SOL    HW2  597   2.619   1.051   1.726 -2.4738 -1.7258  0.7298
  200SOL     OW  598   2.116   2.652   2.359 -0.1505 -0.4815  0.2555
  200SOL    HW1  599   2.073   2.734   2.314  0.0268 -0.5335 -2.0800
  200SOL    HW2  600   2.066   2.568   2.353  1.1379  1.9766 -0.2048
  201SOL     OW  601   2.600   0.236   1.555 -0.0476  0.0155  0.2595
  201SOL    HW1  602   2.677   0.194   1.610  1.0293 -1.5664  0.8123
  201SOL    HW2  603   2.630   0.242   1.454 -0.3496 -1.0055 -4.0442
  202SOL     OW  604   2.082   3.026   0.330  0.1094  0.0019 -0.4140
  202SOL    HW1  605   2.024   3.088   0.389  0.1493  0.6063  2.7346
  202SOL    HW2  606   2.107   3.076   0.246 -2.6897  0.4349  1.2404
  203SOL     OW  607   1.354   2.003   2.236 -0.4948  0.0701 -0.1707
  203SOL    HW1  608   1.277   2.011   2.171 -0.9630  0.6672  1.2242
  203SOL    HW2  609   1.372   2.087   2.285 -1.2565 -5.5008 -3.6663
  204SOL     OW  610   0.868   1.455   2.471  0.1034  0.3660 -0.2189
  204SOL    HW1  611   0.812   1.383   2.518 -0.0095 -1.1338  0.1444
  204SOL    HW2  612   0.881   1.432   2.377  1.0514 -0.4341  0.5273
  205SOL     OW  613   1.081   1.719   1.329 -0.0622 -0.1879 -0.6722
  205SOL    HW1  614   1.017   1.733   1.249 -0.3288 -1.3139 -1.1055
  205SOL    HW2  615   1.068   1.628   1.369  1.4408  2.0692  0.1585
  206SOL     OW  616   0.231   0.412   2.764 -0.2533  0.1603  0.1845
  206SOL    HW1  617   0.176   0.347   2.708  1.6350  0.1165  1.0843
  206SOL    HW2  618   0.238   0.387   2.863 -0.6581 -1.5204  0.8003
  207SOL     OW  619   1.737   2.802   2.405  0.0425  0.4733  0.0713
  207SOL    HW1  620   1.756   2.719   2.465 -0.2043  3.4374  0.1023
  207SOL    HW2  621   1.811   2.839   2.345 -0.5485  0.4898  1.3777
  208SOL     OW  622   0.698   2.341   1.065 -0.2138 -0.6771  0.1792
  208SOL    HW1  623   0.792   2.377   1.088 -2.0541  0.2775  0.6489
  208SOL    HW2  624   0.674   2.367   0.966  0.8508 -0.5703 -2.4676
  209SOL     OW  625   1.113   1.066   2.406  0.5534  0.4843  0.2349
  209SOL    HW1  626   1.088   1.135   2.340  2.1000  1.0554 -0.3940
  209SOL    HW2  627   1.027   1.031   2.453 -0.0040 -1.1479  0.2856
  210SOL     OW  628   1.984   0.958   1.201 -0.5392  0.4139  0.1510
  210SOL    HW1  629   2.078   0.938   1.236  0.6089 -0.2681  1.5716
  210SOL    HW2  630   1.933   0.873   1.168 -1.6458 -1.2993 -0.2001
  211SOL     OW  631   0.818   2.671   0.433 -0.1120  0.1897 -0.1463
  211SOL    HW1  632   0.798   2.684   0.331  0.4988 -2.8119 -2.3902
  211SOL    HW2  633   0.900   2.731   0.454 -2.6715  0.2901  1.2370
  212SOL     OW  634   1.828   1.888   0.185 -0.2228  0.5354 -0.0750
  212SOL    HW1  635   1.766   1.968   0.168 -1.5833  0.9057  0.5056
  212SOL    HW2  636   1.884   1.911   0.269 -0.5700  2.1229 -1.3765
  213SOL     OW  637   1.650   0.220   2.882  0.4304 -0.3611 -0.1687
  213SOL    HW1  638   1.634   0.237   2.981  1.9196 -0.1022 -1.3114
  213SOL    HW2  639   1.749   0.230   2.867  2.2081 -1.5462 -1.9140
  214SOL     OW  640   1.221   1.642   2.095  0.3301  0.0032 -0.3887
  214SOL    HW1  641   1.178   1.621   2.005  0.5432 -0.6303 -1.4287
  214SOL    HW2  642   1.160   1.689   2.158 -2.1376  0.7635 -0.3862
  215SOL     OW  643   0.767   1.820   0.190  0.2072 -0.0108  0.3163
  215SOL    HW1  644   0.715   1.801   0.108 -0.0533  2.5633  0.2514
  215SOL    HW2  645   0.746   1.761   0.268  1.0316 -0.8366  1.2274
  216SOL     OW  646   0.122   2.765   2.257  0.2258  0.3411 -0.0800
  216SOL    HW1  647   0.182   2.688   2.261 -1.0509 -3.0594 -3.5150
  216SOL    HW2  648   0.037   2.741   2.202 -1.6956  0.1730  0.0030
  217SOL     OW  649   2.497   0.876   0.983 -0.1711 -0.4366 -0.1938
  217SOL    HW1  650   2.458   0.958   0.932 -1.8175 -0.7477 -3.4643
  217SOL    HW2  651   2.431   0.799   0.970 -1.2506  0.4087  3.9718
  218SOL     OW  652   1.861   1.595   2.028 -0.3238  0.2450  0.3628
  218SOL    HW1  653   1.854   1.570   2.126 -0.9198  0.3644 -0.1061
  218SOL    HW2  654   1.858   1.512   1.966 -3.2481 -0.9610  0.6730
  219SOL     OW  655   1.888   1.576   0.267 -0.6856 -0.6067  0.0820
  219SOL    HW1  656   1.844   1.530   0.187  2.2920  0.9927 -1.5472
  219SOL    HW2  657   1.898   1.674   0.239  0.4668  2.0008  0.9767
  220SOL     OW  658   1.528   1.392   0.899 -0.4741  0.5225  0.2802
  220SOL    HW1  659   1.481   1.447   0.829 -1.0173 -3.8136  0.5211
  220SOL    HW2  660   1.504   1.415   0.990  0.9444 -2.6319 -4.7282
  221SOL     OW  661   0.579   0.419   2.864  1.0361  0.0695  0.4362
  221SOL    HW1  662   0.548   0.489   2.930 -1.7864 -0.2051 -1.2288
  221SOL    HW2  663   0.499   0.394   2.801  0.2658  0.2509  0.7520
  222SOL     OW  664   1.477   1.362   0.204  0.2895 -0.2462  0.2062
  222SOL    HW1  665   1.489   1.418   0.286 -0.2664 -0.2947  0.7217
  222SOL    HW2  666   1.380   1.323   0.200 -2.1782 -3.4734 -1.9797
  223SOL     OW  667   1.153   0.174   3.002  0.6066  0.0496  0.3779
  223SOL    HW1  668   1.201   0.173   0.000  0.3415 -0.4042  0.4920
  223SOL    HW2  669   1.049   0.185   3.011 -1.5650  1.0955  0.8475
  224SOL     OW  670   2.332   0.014   1.522  0.0772 -0.2095 -0.4432
  224SOL    HW1  671   2.362   0.103   1.480  0.4973  2.1236 -1.4691
  224SOL    HW2  672   2.248   0.015   1.584  0.3701 -3.9425 -2.1222
  225SOL     OW  673   0.335   0.016   1.225 -1.0763  0.1771  0.0084
  225SOL    HW1  674   0.303   0.111   1.240  3.5695 -2.3201  0.2952
  225SOL    HW2  675   0.384   0.001   1.135  0.6213 -1.4664 -1.9581
  226SOL     OW  676   1.189   1.409   2.751 -0.0524  0.1879 -0.1646
  226SOL    HW1  677   1.224   1.334   2.687  2.3272 -3.2195  0.5478
  226SOL    HW2  678   1.186   1.387   2.849  0.3107  0.5555 -2.2876
  227SOL     OW  679   1.134   1.758   0.979 -0.1098  0.1014  0.9387
  227SOL    HW1  680   1.186   1.690   1.027  0.1896  0.4780 -0.3376
  227SOL    HW2  681   1.181   1.848   0.986  0.4053  3.0661 -1.5084
  228SOL     OW  682   0.507   1.586   0.637 -0.0597 -0.2670  0.1209
  228SOL    HW1  683   0.528   1.542   0.543 -0.6847 -0.4774 -3.1372
  228SOL    HW2  684   0.420   1.548   0.672 -0.0675 -1.9374 -2.0562
  229SOL     OW  685   1.483   0.526   0.052  0.1584 -0.1561  0.1577
  229SOL    HW1  686   1.514   0.614   0.088 -0.2572  0.3353 -1.8171
  229SOL    HW2  687   1.468   0.538   3.040 -0.6972  2.3509 -1.3139
  230SOL     OW  688   1.728   0.487   2.398 -0.3513 -0.1539  0.3338
  230SOL    HW1  689   1.719   0.388   2.396 -0.6123  2.3163  0.3742
  230SOL    HW2  690   1.827   0.506   2.379 -0.1670 -0.6603 -0.6672
  231SOL     OW  691   1.223   1.924   2.476 -0.0740 -0.3855  0.1677
  231SOL    HW1  692   1.123   1.920   2.495  0.6416  0.7305 -0.3760
  231SOL    HW2  693   1.249   1.979   2.397  1.0389  2.2893  0.3871
  232SOL     OW  694   2.375   2.146   0.880  0.0690 -0.4337  0.1441
  232SOL    HW1  695   2.291   2.126   0.929  1.3408  0.5409  1.1173
  232SOL    HW2  696   2.362   2.122   0.778 -1.1313  0.8697 -2.2321
  233SOL     OW  697   2.547   2.826   0.332  0.0965  0.0277 -0.3682
  233SOL    HW1  698   2.525   2.839   0.231 -1.6314 -1.2438  1.2118
  233SOL    HW2  699   2.494   2.887   0.389  2.8048  2.7879 -0.4163
  234SOL     OW  700   0.843   0.345   2.851 -0.1043 -0.4896 -0.0965
  234SOL    HW1  701   0.752   0.391   2.866  0.5635  0.0263  1.2353
  234SOL    HW2  702   0.914   0.398   2.900  0.4866  1.3444  1.1202
  235SOL     OW  703   2.655   0.209   2.622  0.0766 -0.0159  0.2007
  235SOL    HW1  704   2.594   0.289   2.597 -2.1525  2.9557  0.7061
  235SOL    HW2  705   2.592   0.132   2.659 -0.8887 -4.6792 -2.0896
  236SOL     OW  706   2.188   2.464   1.840 -0.3268  0.0575 -0.0857
  236SOL    HW1  707   2.131   2.544   1.868  2.1446 -0.7760 -2.1474
  236SOL    HW2  708   2.182   2.394   1.914  1.3730  1.0149  2.8228
  237SOL     OW  709   0.522   1.408   2.010  0.7110 -0.0031  0.0705
  237SOL    HW1  710   0.457   1.489   2.032 -0.4863 -1.6102  1.5163
  237SOL    HW2  711   0.566   1.363   2.089 -0.2411  1.3773 -2.9136
  238SOL     OW  712   1.561   3.086   2.792 -0.1485  0.2527 -0.8897
  238SOL    HW1  713   1.584   0.087   2.823 -1.3424 -1.4985 -0.0445
  238SOL    HW2  714   1.633   3.031   2.745 -2.3550  0.5712  0.9357
  239SOL     OW  715   0.149   2.190   1.633  0.2772  0.2634  0.4409
  239SOL    HW1  716   0.204   2.229   1.717  0.7874  0.7780  1.8402
  239SOL    HW2  717   0.183   2.098   1.605 -2.0952 -0.9930  1.9032
  240SOL     OW  718   3.010   2.411   0.843  0.1115  0.1109 -0.7514
  240SOL    HW1  719   3.005   2.454   0.934  1.0413 -0.0947 -0.3557
  240SOL    HW2  720   2.961   2.468   0.775 -0.6948  0.9620 -0.3722
  241SOL     OW  721   2.432   1.104   0.846  0.0006  0.6088 -0.0703
  241SOL    HW1  722   2.416   1.199   0.866  2.0036  0.4089 -1.8085
  241SOL    HW2  723   2.379   1.075   0.763 -0.2776  2.8058 -3.0067
  242SOL     OW  724   2.018   2.163   2.657 -0.1395 -0.3119  0.6924
  242SOL    HW1  725   2.051   2.083   2.599 -0.2310 -0.5668  1.8226
  242SOL    HW2  726   1.946   2.136   2.726  0.0025 -0.4224  0.1887
  243SOL     OW  727   0.808   2.473   1.491 -0.1297  0.2511 -0.6166
  243SOL    HW1  728   0.832   2.564   1.451 -2.6109 -0.0960  2.9003
  243SOL    HW2  729   0.766   2.482   1.584 -0.9459  0.3088 -1.1617
  244SOL     OW  730   2.226   3.055   2.997  0.1725 -0.1295  0.4316
  244SOL    HW1  731   2.225   2.956   3.011 -1.2464  0.7991  2.0373
  244SOL    HW2  732   2.262   3.077   2.903  4.2057 -0.2387 -1.6134
  245SOL     OW  733   1.201   2.895   1.197  0.1125  0.9667  0.1498
  245SOL    HW1  734   1.140   2.972   1.232  0.2717 -1.8498  0.7787
  245SOL    HW2  735   1.254   2.860   1.277 -0.5944 -0.0539 -0.0678
  246SOL     OW  736   1.632   2.407   0.347  0.5421  0.3322  0.3407
  246SOL    HW1  737   1.637   2.404   0.248 -1.5048  1.5282  1.4428
  246SOL    HW2  738   1.690   2.481   0.376 -1.1623 -0.0404  0.7093
  247SOL     OW  739   1.296   0.406   2.360  0.5665  0.0408  0.1706
  247SOL    HW1  740   1.232   0.472   2.398  0.6998 -1.5399 -2.3400
  247SOL    HW2  741   1.344   0.354   2.433 -3.1231  2.0451  1.2313
  248SOL     OW  742   0.457   1.751   1.833 -0.3709 -0.5948 -0.5626
  248SOL    HW1  743   0.491   1.823   1.765  0.6379  0.3468  0.5468
  248SOL    HW2  744   0.425   1.669   1.784 -0.0779 -0.1304 -2.0058
  249SOL     OW  745   2.014   0.321   0.375  0.1773  0.3093  0.5489
  249SOL    HW1  746   1.935   0.342   0.314 -0.8176 -1.4753  1.3603
  249SOL    HW2  747   2.043   0.402   0.430  1.0182  3.1115  3.3777
  250SOL     OW  748   0.265   0.665   0.415 -0.2814  0.0280 -0.3053
  250SOL    HW1  749   0.343   0.723   0.447  2.5267  1.2482  2.7197
  250SOL    HW2  750   0.199   0.720   0.362  2.0890 -2.7217 -1.8022
  251SOL     OW  751   1.449   0.495   2.865  0.1128 -0.2076  0.4478
  251SOL    HW1  752   1.480   0.518   2.772 -0.4725 -0.8680 -0.5909
  251SOL    HW2  753   1.444   0.395   2.883 -1.7254 -0.9277  0.7432
  252SOL     OW  754   1.590   1.755   2.016 -0.0825 -0.4147 -0.3978
  252SOL    HW1  755   1.614   1.805   2.099 -1.0665 -0.8385  1.2772
  252SOL    HW2  756   1.668   1.702   1.981  2.0099 -1.8107 -2.0194
  253SOL     OW  757   2.673   2.350   1.805  0.0752  0.8814  0.4447
  253SOL    HW1  758   2.654   2.445   1.844 -0.3750 -2.3829  0.7820
  253SOL    HW2  759   2.764   2.312   1.838  0.6812  3.2702 -0.6255
  254SOL     OW  760   2.647   1.523   1.019 -0.3163  0.5004 -0.2289
  254SOL    HW1  761   2.721   1.591   0.999  0.8154 -0.0751 -0.0316
  254SOL    HW2  762   2.647   1.498   1.119  0.5546 -1.5368 -0.2890
  255SOL     OW  763   1.105   0.462   1.266 -0.6722  0.5229 -0.2093
  255SOL    HW1  764   1.041   0.528   1.311  0.1493 -0.0222 -4.5250
  255SOL    HW2  765   1.196   0.465   1.321  1.1445 -1.6435  2.7176
  256SOL     OW  766   1.909   2.302   1.606 -0.3075  0.5120  0.1038
  256SOL    HW1  767   2.003   2.285   1.639 -4.2685 -0.7295 -2.6387
  256SOL    HW2  768   1.842   2.232   1.641 -0.0546 -0.1653 -2.0934
  257SOL     OW  769   0.518   2.714   2.616 -0.5337  0.3438  0.0969
  257SOL    HW1  770   0.609   2.688   2.658  0.6822 -0.9607 -0.3109
  257SOL    HW2  771   0.477   2.641   2.568 -1.2315  2.2798  1.5672
  258SOL     OW  772   0.846   2.379   3.023  0.1031 -0.0420 -0.0610
  258SOL    HW1  773   0.850   2.322   2.937 -2.2295 -4.7876 -0.6171
  258SOL    HW2  774   0.835   2.311   0.010 -0.6198  0.2967  0.1887
  259SOL     OW  775   1.356   0.013   2.543 -0.3221  1.2669  0.2180
  259SOL    HW1  776   1.320   3.006   2.541  1.5064  0.9308  0.3288
  259SOL    HW2  777   1.456   0.022   2.566  1.8476 -0.5338  0.8333
  260SOL     OW  778   1.657   0.610   1.228 -0.0694  0.7201  0.3284
  260SOL    HW1  779   1.722   0.667   1.172 -0.9846  0.6275 -2.5715
  260SOL    HW2  780   1.607   0.543   1.169 -0.9023  2.6798  0.5451
  261SOL     OW  781   0.493   0.343   2.592 -0.2740 -0.2414 -0.3126
  261SOL    HW1  782   0.440   0.375   2.513  2.3321 -1.9684  2.3627
  261SOL    HW2  783   0.585   0.389   2.592 -0.8053 -2.5930  1.4823
  262SOL     OW  784   0.280   2.113   2.053  0.2441  0.3027 -0.2642
  262SOL    HW1  785   0.325   2.125   2.145  1.9148 -3.5164  1.6785
  262SOL    HW2  786   0.297   2.185   1.979 -1.1146  0.8867  0.1197
  263SOL     OW  787   2.643   1.238   2.346 -0.7180 -0.2896  0.3578
  263SOL    HW1  788   2.558   1.184   2.341  0.6265 -3.3186 -2.2391
  263SOL    HW2  789   2.679   1.244   2.440  1.0004  0.9590 -0.5179
  264SOL     OW  790   0.864   1.322   1.014 -0.3895  0.7643  0.1920
  264SOL    HW1  791   0.855   1.311   0.915  1.3462 -3.3655  1.7266
  264SOL    HW2  792   0.827   1.416   1.044  2.0163 -0.3313 -0.4105
  265SOL     OW  793   1.107   2.318   0.958  0.2168  0.3761  0.4868
  265SOL    HW1  794   1.074   2.223   0.939 -0.1600 -0.4714 -0.8059
  265SOL    HW2  795   1.048   2.357   1.029  0.1992 -2.3584 -0.9699
  266SOL     OW  796   1.622   0.958   1.055 -0.3467 -0.1662  0.2982
  266SOL    HW1  797   1.661   1.036   1.108 -3.0776 -1.1095 -1.1899
  266SOL    HW2  798   1.615   0.986   0.958  1.2853  1.4608  0.8710
  267SOL     OW  799   2.453   1.143   3.070  0.8943  0.3366 -0.0145
  267SOL    HW1  800   2.415   1.156   2.977  0.7904  0.0377  2.1368
  267SOL    HW2  801   2.466   1.042   3.084  0.7463 -1.1612 -0.8766
  268SOL     OW  802   1.349   0.355   0.303  0.0958  0.4986 -0.3191
  268SOL    HW1  803   1.407   0.343   0.388  3.9437  2.8096  1.8802
  268SOL    HW2  804   1.390   0.426   0.241  0.7447  2.0471  0.5122
  269SOL     OW  805   2.455   0.375   2.607 -0.0384  0.1167 -0.3267
  269SOL    HW1  806   2.475   0.429   2.694 -1.2695 -1.0416  0.4418
  269SOL    HW2  807   2.373   0.316   2.621 -2.9952  0.6130 -1.2761
  270SOL     OW  808   0.120   1.061   2.781 -0.0551  0.3945 -0.2554
  270SOL    HW1  809   0.175   0.972   2.783  0.6568 -3.3331  2.1916
  270SOL    HW2  810   0.189   1.133   2.810 -1.5032 -0.5183 -1.1267
  271SOL     OW  811   2.822   1.056   0.250 -0.2735  0.2287 -0.0212
  271SOL    HW1  812   2.795   0.962   0.264  1.2440  0.7429 -1.6029
  271SOL    HW2  813   2.841   1.103   0.342  2.5209 -0.9249 -0.4247
  272SOL     OW  814   2.815   2.726   2.757  0.6806  0.4359  0.3347
  272SOL    HW1  815   2.918   2.710   2.759  4.0896  1.8615 -1.4633
  272SOL    HW2  816   2.762   2.639   2.777  0.3711  1.8681 -1.0460
  273SOL     OW  817   2.835   2.934   0.050 -0.1366  0.0847 -0.2440
  273SOL    HW1  818   2.875   2.984   3.059  0.6169 -0.4805 -2.2255
  273SOL    HW2  819   2.858   2.983   0.134  2.2827 -0.5734 -3.4485
  274SOL     OW  820   0.645   2.426   0.817  0.0820  0.3722 -0.0023
  274SOL    HW1  821   0.592   2.513   0.829  0.9987  1.2931 -2.2296
  274SOL    HW2  822   0.719   2.436   0.750 -1.8666  1.4098  0.3600
  275SOL     OW  823   2.413   1.128   0.404  0.4570  0.6114  0.4104
  275SOL    HW1  824   2.353   1.206   0.432  3.3764  2.5287  0.5351
  275SOL    HW2  825   2.510   1.160   0.405 -0.3919  0.9238  0.3495
  276SOL     OW  826   2.864   1.309   1.670 -0.5829  0.1050  0.6923
  276SOL    HW1  827   2.802   1.231   1.690 -1.1181 -1.7498  0.9644
  276SOL    HW2  828   2.860   1.339   1.572 -0.1660  0.1440 -1.2298
  277SOL     OW  829   2.135   0.141   1.173  0.5462 -0.6064 -0.5974
  277SOL    HW1  830   2.047   0.120   1.127  0.2855  0.3818  2.1532
  277SOL    HW2  831   2.203   0.067   1.149  0.9222  0.6487 -2.7319
  278SOL     OW  832   1.342   2.509   2.393  0.4213  0.1629  0.0192
  278SOL    HW1  833   1.436   2.540   2.369 -2.7728 -1.3643  0.6714
  278SOL    HW2  834   1.275   2.540   2.324 -1.6396 -0.1408  1.5036
  279SOL     OW  835   1.697   2.010   1.126  0.6442 -0.4964  0.3447
  279SOL    HW1  836   1.675   1.999   1.224 -1.5202 -0.1443 -1.3792
  279SOL    HW2  837   1.718   2.104   1.113 -0.4510 -2.8700 -0.0041
  280SOL     OW  838   0.523   1.366   0.902 -0.6347 -0.2068  0.4390
  280SOL    HW1  839   0.443   1.411   0.865 -0.3094  0.2028 -2.2298
  280SOL    HW2  840   0.515   1.355   1.002  1.8392  0.0080 -1.6365
  281SOL     OW  841   0.008   1.117   2.320 -0.1790  0.2614 -0.6349
  281SOL    HW1  842   3.012   1.087   2.273 -2.8422 -0.8784 -2.0808
  281SOL    HW2  843   0.015   1.219   2.322  0.0905  1.3415  1.6893
  282SOL     OW  844   0.629   1.506   3.029  0.5356 -0.2321 -0.5313
  282SOL    HW1  845   0.546   1.471   3.074 -0.4204 -1.2107  2.9188
  282SOL    HW2  846   0.705   1.520   0.007  0.3554  4.5196  2.6074
  283SOL     OW  847   2.357   2.467   0.208  0.5501  0.2063 -0.4814
  283SOL    HW1  848   2.287   2.542   0.220 -0.8888 -1.3251 -0.3358
  283SOL    HW2  849   2.420   2.493   0.137 -1.3511 -1.4952  2.8919
  284SOL     OW  850   0.823   0.018   0.760 -0.1466 -0.2062 -0.0980
  284SOL    HW1  851   0.918   3.074   0.749  0.2384  0.3416 -2.6141
  284SOL    HW2  852   0.776   0.060   0.680 -0.2124  0.8017 -1.5570
  285SOL     OW  853   2.399   1.190   2.788  0.2870  0.2428 -0.8471
  285SOL    HW1  854   2.429   1.093   2.773  0.7991 -0.6411 -0.3928
  285SOL    HW2  855   2.295   1.197   2.777 -2.3758 -1.6983  0.0943
  286SOL     OW  856   1.847   2.735   1.001 -0.3825 -0.3924  0.6691
  286SOL    HW1  857   1.894   2.679   1.070 -0.1324 -0.1076 -1.5328
  286SOL    HW2  858   1.912   2.798   0.956  0.7280  2.4675  1.1293
  287SOL     OW  859   1.125   0.331   0.743  0.1477  0.3154  0.1482
  287SOL    HW1  860   1.077   0.300   0.654 -1.6515 -1.4496 -1.6788
  287SOL    HW2  861   1.061   0.356   0.822 -1.5744 -0.2734  0.6467
  288SOL     OW  862   1.071   2.428   2.657  0.0478  0.0933 -0.4641
  288SOL    HW1  863   0.980   2.459   2.620 -0.2363 -1.8125 -0.7187
  288SOL    HW2  864   1.091   2.469   2.753  1.8459  0.3216  0.9394
  289SOL     OW  865   2.865   1.683   0.984 -0.1713  0.2058  0.0011
  289SOL    HW1  866   2.910   1.775   0.982  0.0044 -0.9050 -0.3595
  289SOL    HW2  867   2.942   1.616   0.992 -0.6327 -1.5068  0.2366
  290SOL     OW  868   1.449   2.053   1.004 -0.2717  0.4946 -0.0912
  290SOL    HW1  869   1.537   2.046   1.056 -2.8592  0.5101 -0.9741
  290SOL    HW2  870   1.430   2.145   0.976  0.5327 -2.8862  1.8325
  291SOL     OW  871   1.442   2.783   0.268 -0.0698  0.1591  0.3615
  291SOL    HW1  872   1.366   2.849   0.272  1.2560 -2.6100 -2.1321
  291SOL    HW2  873   1.478   2.769   0.172  1.5736 -1.1521  0.0099
  292SOL     OW  874   0.406   0.200   2.020  0.3821  0.0478  0.0258
  292SOL    HW1  875   0.408   0.245   2.112 -0.7988  2.0335 -1.6334
  292SOL    HW2  876   0.493   0.211   1.968 -1.5058  0.6144  0.4322
  293SOL     OW  877   2.426   2.034   1.198  0.1715  0.0719  0.0185
  293SOL    HW1  878   2.523   2.065   1.175 -2.9012 -1.4091  1.2742
  293SOL    HW2  879   2.389   2.099   1.268  1.2782  1.0434  0.0673
  294SOL     OW  880   0.892   0.187   2.257 -0.3408  0.3612 -0.3484
  294SOL    HW1  881   0.935   0.169   2.348  1.9958  0.0685 -1.7186
  294SOL    HW2  882   0.826   0.267   2.259  0.9396  1.1487  0.0893
  295SOL     OW  883   1.618   1.699   1.221 -0.2245 -0.1429  0.2057
  295SOL    HW1  884   1.619   1.607   1.261  0.0937  2.2768  1.4841
  295SOL    HW2  885   1.699   1.745   1.261 -0.0755  1.7659  1.7277
  296SOL     OW  886   2.428   1.782   0.140 -0.0921  0.6859  0.2991
  296SOL    HW1  887   2.444   1.884   0.145 -3.3266 -1.4227 -1.3391
  296SOL    HW2  888   2.494   1.735   0.079 -2.3651 -0.3775  1.7734
  297SOL     OW  889   2.504   0.211   0.279  0.4152 -0.6105  0.0705
  297SOL    HW1  890   2.495   0.131   0.221 -1.5915 -0.2786  1.7356
  297SOL    HW2  891   2.580   0.278   0.252 -0.8816  2.7637 -0.7970
  298SOL     OW  892   0.901   0.001   2.657 -0.0755  0.0809 -0.3811
  298SOL    HW1  893   0.966   0.007   2.739 -0.9282 -3.4627 -0.3560
  298SOL    HW2  894   0.801   0.021   2.684 -2.4663  1.2074 -0.6446
  299SOL     OW  895   0.867   2.199   2.126  0.7643 -0.6079 -0.6402
  299SOL    HW1  896   0.793   2.144   2.077  1.4597 -0.1714  0.3923
  299SOL    HW2  897   0.865   2.189   2.227 -0.8407 -0.2263 -0.2090
  300SOL     OW  898   2.920   3.011   2.323  0.1197  0.1368  0.4423
  300SOL    HW1  899   2.956   3.057   2.245 -0.0024 -0.2174 -1.5792
  300SOL    HW2  900   2.896   3.069   2.401  2.1957  0.4654  1.0958
  301SOL     OW  901   1.039   0.784   1.846 -0.0618 -0.1118  0.2902
  301SOL    HW1  902   1.111   0.756   1.778 -1.9384 -1.0929 -0.5997
  301SOL    HW2  903   1.061   0.751   1.940  0.5696  0.1555  0.3189
  302SOL     OW  904   3.033   2.123   0.337 -0.5482 -0.3401 -0.1290
  302SOL    HW1  905   0.021   2.166   0.288 -0.6970 -0.3553  0.5864
  302SOL    HW2  906   3.058   2.074   0.422  3.2993 -0.7275 -2.2103
  303SOL     OW  907   2.498   2.486   1.609  0.1482  0.0102 -0.6303
  303SOL    HW1  908   2.562   2.423   1.655  0.4506 -0.2910  2.9757
  303SOL    HW2  909   2.473   2.563   1.673 -2.6825  0.8343 -0.1117
  304SOL     OW  910   2.913   0.930   1.587 -0.2181 -0.2415 -0.7562
  304SOL    HW1  911   2.947   0.899   1.680  0.4503  0.0363  1.2676
  304SOL    HW2  912   2.968   0.917   1.507 -3.5975 -1.7751  2.9479
  305SOL     OW  913   0.700   1.570   1.081  0.2831  0.1302  0.2597
  305SOL    HW1  914   0.661   1.534   0.992 -0.8554  0.8522 -4.3777
  305SOL    HW2  915   0.629   1.619   1.132 -1.4999 -2.4961 -1.0917
  306SOL     OW  916   0.322   1.214   2.062 -0.1576 -0.3113  0.5993
  306SOL    HW1  917   0.268   1.173   1.989  2.5317 -0.0880  0.3196
  306SOL    HW2  918   0.404   1.266   2.034  0.5700  2.5234  0.8840
  307SOL     OW  919   0.789   0.432   1.649  0.2828  0.3521 -0.2174
  307SOL    HW1  920   0.868   0.398   1.703 -1.5559 -1.2136 -1.1562
  307SOL    HW2  921   0.794   0.408   1.550  0.3510  1.1251 -2.8285
  308SOL     OW  922   2.991   1.239   1.059  0.0403  0.5580  0.5613
  308SOL    HW1  923   3.042   1.225   1.144 -0.5883 -2.9192  0.6800
  308SOL    HW2  924   2.894   1.240   1.066  3.0456 -1.8181 -0.0501
  309SOL     OW  925   2.581   1.384   1.260 -0.3107  0.4608 -0.4377
  309SOL    HW1  926   2.510   1.459   1.275  1.5265  1.7473  1.0333
  309SOL    HW2  927   2.578   1.322   1.338 -0.2824 -0.5710 -2.1385
  310SOL     OW  928   3.018   1.826   2.616  0.2136  0.0038 -0.1154
  310SOL    HW1  929   2.936   1.868   2.651  0.6071 -1.1150  0.9735
  310SOL    HW2  930   3.029   1.832   2.513  1.3840 -2.9438 -3.2170
  311SOL     OW  931   2.592   2.529   2.342 -0.5285  0.1576  0.9473
  311SOL    HW1  932   2.663   2.542   2.269  0.2222  2.0186 -1.8635
  311SOL    HW2  933   2.603   2.598   2.415  0.3189 -1.5841  1.5650
  312SOL     OW  934   2.105   2.072   0.085 -0.5578  0.4200  0.1868
  312SOL    HW1  935   2.037   2.102   0.152  1.7207 -1.1811  0.4129
  312SOL    HW2  936   2.061   2.011   0.013 -0.2244 -0.5008  0.5064
  313SOL     OW  937   2.712   2.975   0.585 -0.4262 -0.1926 -0.1478
  313SOL    HW1  938   2.657   3.059   0.573  2.6007 -3.6648  2.0432
  313SOL    HW2  939   2.726   2.909   0.509  4.0863 -1.9448 -1.6167
  314SOL     OW  940   1.890   1.065   2.930 -0.2726 -0.2575  0.1212
  314SOL    HW1  941   1.788   1.057   2.916 -1.5837 -1.2121 -2.9533
  314SOL    HW2  942   1.930   1.151   2.966  0.6169 -2.4400  0.1806
  315SOL     OW  943   1.474   2.869   2.345  0.4884 -0.1465 -0.0226
  315SOL    HW1  944   1.577   2.878   2.354 -0.0465  0.4789  0.0631
  315SOL    HW2  945   1.447   2.858   2.439  4.1790  1.9145 -1.1604
  316SOL     OW  946   0.084   1.255   0.326 -0.5338  0.6088 -0.0113
  316SOL    HW1  947   3.075   1.263   0.340 -0.0977  2.7432 -0.1577
  316SOL    HW2  948   0.123   1.188   0.395  0.0557 -0.1309  0.2527
  317SOL     OW  949   0.508   2.848   3.043 -0.0509 -0.4990  0.0321
  317SOL    HW1  950   0.472   2.898   2.964 -1.4803 -1.3924 -1.5209
  317SOL    HW2  951   0.554   2.763   3.010 -0.6010  0.9298 -1.8189
  318SOL     OW  952   2.519   2.455   0.997  0.2689  0.1450  0.6249
  318SOL    HW1  953   2.572   2.386   0.948 -1.3206  1.8691  2.5001
  318SOL    HW2  954   2.432   2.428   1.045  0.7033 -0.8713  1.9200
  319SOL     OW  955   1.337   2.003   2.715  0.9214 -0.1288 -0.6553
  319SOL    HW1  956   1.316   1.946   2.636 -1.4040  0.2043  2.9240
  319SOL    HW2  957   1.256   2.012   2.779 -1.8209  0.6729  2.4359
  320SOL     OW  958   0.599   2.024   1.275  0.0451 -0.5161  0.0150
  320SOL    HW1  959   0.643   2.101   1.327  2.7007  0.8617  0.7022
  320SOL    HW2  960   0.514   2.053   1.228  0.1991 -0.4357  1.0407
  321SOL     OW  961   1.405   2.789   2.603  0.4962  0.3245  0.0714
  321SOL    HW1  962   1.439   2.702   2.636 -1.0598  0.9664  1.7346
  321SOL    HW2  963   1.307   2.771   2.574 -1.0404 -1.0088  1.4749
  322SOL     OW  964   2.683   1.379   2.115  0.3478  0.1800  0.4087
  322SOL    HW1  965   2.667   1.332   2.202  0.6277  0.4696 -0.8525
  322SOL    HW2  966   2.658   1.475   2.125  1.1166  1.6059  0.9549
  323SOL     OW  967   2.668   0.975   1.189 -0.6952  0.3594 -0.2390
  323SOL    HW1  968   2.619   0.923   1.120 -0.2952  2.4196  1.2866
  323SOL    HW2  969   2.637   0.948   1.286 -1.0199 -0.4659  0.8760
  324SOL     OW  970   2.592   2.971   2.430  0.2709 -0.1019  0.6023
  324SOL    HW1  971   2.614   2.878   2.468  1.4149  1.0995 -1.2496
  324SOL    HW2  972   2.662   3.035   2.470 -0.2638  1.4270  0.4087
  325SOL     OW  973   1.087   0.568   2.467  0.9128  0.0882 -0.4266
  325SOL    HW1  974   1.037   0.495   2.517  0.5720 -1.4356 -0.2340
  325SOL    HW2  975   1.053   0.563   2.370 -0.8299  0.4388  0.2208
  326SOL     OW  976   1.984   2.867   2.259  0.2969 -0.1659  0.2727
  326SOL    HW1  977   2.005   2.953   2.310 -2.4765 -3.0185 -2.9312
  326SOL    HW2  978   1.971   2.882   2.157  1.0391  0.2447 -3.4503
  327SOL     OW  979   2.153   0.319   2.894 -0.4213  0.1671  0.1338
  327SOL    HW1  980   2.160   0.308   2.993  0.9075 -1.4725  1.2769
  327SOL    HW2  981   2.185   0.419   2.869  1.9279 -1.6038 -0.8540
  328SOL     OW  982   0.023   1.400   2.367  0.5475  0.1699 -0.3895
  328SOL    HW1  983   0.065   1.442   2.286 -1.4900 -0.3484  1.1617
  328SOL    HW2  984   3.016   1.437   2.379 -3.5288 -1.4299  0.2388
  329SOL     OW  985   1.646   0.103   1.508  0.4861 -0.0924 -0.2131
  329SOL    HW1  986   1.554   0.060   1.495 -1.1870 -1.0581 -0.0559
  329SOL    HW2  987   1.669   0.155   1.423 -0.3010 -1.2022  0.2339
  330SOL     OW  988   0.427   1.128   0.821 -0.0062  0.4626  0.7260
  330SOL    HW1  989   0.359   1.102   0.891  0.9607 -0.8903  1.9448
  330SOL    HW2  990   0.462   1.218   0.852 -1.7317  1.7937  0.3992
  331SOL     OW  991   0.131   1.455   2.107  0.0186 -0.1275  0.0272
  331SOL    HW1  992   0.160   1.362   2.072 -1.3916  0.6819 -1.1842
  331SOL    HW2  993   0.211   1.521   2.121  0.0391  0.8188  2.2064
  332SOL     OW  994   0.043   2.572   1.503  1.0052 -0.3220  0.4402
  332SOL    HW1  995   3.040   2.558   1.540  0.4173  1.4318 -2.2814
  332SOL    HW2  996   0.089   2.494   1.464 -1.4326  1.7981  2.1233
  333SOL     OW  997   2.400   0.197   0.701  0.3816  0.3047  0.1347
  333SOL    HW1  998   2.299   0.220   0.685 -0.5435  1.4118  0.0665
  333SOL    HW2  999   2.416   0.157   0.796 -0.8708 -0.7041  2.1483
  334SOL     OW 1000   0.735   2.114   0.561 -0.1660  0.1583  0.6625
  334SOL    HW1 1001   0.747   2.117   0.460  2.0766 -0.1552 -0.4932
  334SOL    HW2 1002   0.829   2.109   0.600  1.6120  3.7734 -1.8898
  335SOL     OW 1003   0.126   2.402   2.977 -0.0893 -0.1314 -0.7078
  335SOL    HW1 1004   0.106   2.310   3.022 -2.5477 -2.1614  1.2876
  335SOL    HW2 1005   0.220   2.411   2.939  0.1219 -0.5503  1.6893
  336SOL     OW 1006   3.047   2.596   2.120 -0.4379  0.4065 -0.1140
  336SOL    HW1 1007   3.052   2.592   2.020 -0.1762  1.0765  2.7890
  336SOL    HW2 1008   3.057   2.499   2.159  0.6639  0.1209  0.0723
  337SOL     OW 1009   2.037   2.331   2.316  0.1149 -0.0147  0.9859
  337SOL    HW1 1010   2.005   2.351   2.224 -0.8367 -1.4890  0.8083
  337SOL    HW2 1011   1.961   2.319   2.386 -0.5564 -0.9184  0.1099
  338SOL     OW 1012   0.624   3.034   0.370 -0.2730 -0.1734 -0.8585
  338SOL    HW1 1013   0.716   2.993   0.342 -0.3949 -1.6691 -0.7440
  338SOL    HW2 1014   0.561   3.045   0.289  0.9518 -2.1032  1.3998
  339SOL     OW 1015   0.303   0.882   1.980  0.2761  0.6763 -0.3062
  339SOL    HW1 1016   0.260   0.837   2.060 -2.7196  0.5388  0.6362
  339SOL    HW2 1017   0.240   0.951   1.944 -0.3972 -5.1553  2.5145
  340SOL     OW 1018   1.792   3.086   0.149 -0.1633 -0.1728  0.0059
  340SOL    HW1 1019   1.885   0.042   0.135 -0.6051 -1.3030  0.8498
  340SOL    HW2 1020   1.737   0.043   0.223 -1.2918  0.3081 -1.0735
  341SOL     OW 1021   2.047   0.959   0.820  0.0349  0.2764 -0.6618
  341SOL    HW1 1022   2.048   1.054   0.853  1.0174 -0.0108  1.0520
  341SOL    HW2 1023   1.959   0.916   0.851 -2.6564  0.1859  1.4413
  342SOL     OW 1024   2.508   0.023   0.070 -0.0442  0.4856 -0.0480
  342SOL    HW1 1025   2.424   0.053   0.029  0.8349 -2.5480  2.9908
  342SOL    HW2 1026   2.517   3.011   0.068 -0.8313 -1.7527  1.6252
  343SOL     OW 1027   1.352   2.269   1.592 -0.6086 -0.1751 -0.0504
  343SOL    HW1 1028   1.428   2.313   1.648  1.7854  1.2637  2.1477
  343SOL    HW2 1029   1.384   2.217   1.513  0.8655 -2.6603  3.0364
  344SOL     OW 1030   2.293   2.944   0.820  0.1119 -0.2826  0.4320
  344SOL    HW1 1031   2.389   2.927   0.830 -3.8258  3.0539  0.1059
  344SOL    HW2 1032   2.258   2.890   0.742  1.6232  1.5837  1.4575
  345SOL     OW 1033   2.688   2.315   0.154 -0.3722  0.2347  0.3587
  345SOL    HW1 1034   2.730   2.349   0.237  1.5198 -0.1239  1.2921
  345SOL    HW2 1035   2.685   2.211   0.151 -1.2294  0.9835 -1.0560
  346SOL     OW 1036   2.606   1.928   0.864  0.8376  0.0396  0.6947
  346SOL    HW1 1037   2.532   1.991   0.896 -0.0209  1.3313 -1.7905
  346SOL    HW2 1038   2.698   1.963   0.900  0.3582  0.1388  2.1428
  347SOL     OW 1039   1.667   2.075   1.992  0.3953 -0.1436  0.1407
  347SOL    HW1 1040   1.625   2.169   1.989 -4.5682  0.1741  1.4140
  347SOL    HW2 1041   1.595   2.003   1.994  1.3326  3.6670  0.0249
  348SOL     OW 1042   0.473   1.521   2.367  0.5150 -0.0383  0.0413
  348SOL    HW1 1043   0.557   1.465   2.359 -0.8813 -2.0988  1.2471
  348SOL    HW2 1044   0.412   1.480   2.439  0.4644 -0.1137  0.1512
  349SOL     OW 1045   2.437   1.408   0.901  0.2830 -0.3724  0.0068
  349SOL    HW1 1046   2.505   1.445   0.970  1.7706 -1.0479  4.8620
  349SOL    HW2 1047   2.480   1.421   0.812 -1.7890 -1.1690  1.9468
  350SOL     OW 1048   3.004   2.557   1.079  0.0129  0.0953 -0.1004
  350SOL    HW1 1049   2.930   2.595   1.139  2.3876 -0.3251 -1.7801
  350SOL    HW2 1050   3.049   2.470   1.117  0.6927 -1.0256 -1.0900
  351SOL     OW 1051   0.588   3.011   1.956  0.1146 -0.2627  0.8513
  351SOL    HW1 1052   0.494   3.014   1.916  1.3936 -0.6332 -1.4110
  351SOL    HW2 1053   0.587   3.048   2.049  3.6952  0.6430 -1.7623
  352SOL     OW 1054   0.925   1.758   1.136 -0.1259 -0.2564  0.6691
  352SOL    HW1 1055   0.852   1.687   1.112 -3.0019 -1.6565  0.5407
  352SOL    HW2 1056   0.998   1.783   1.066  1.9415  0.1524  0.8163
  353SOL     OW 1057   1.317   1.660   2.478  0.2490  0.0142  0.3511
  353SOL    HW1 1058   1.306   1.757   2.462 -1.1254 -1.2159 -0.3383
  353SOL    HW2 1059   1.235   1.626   2.523 -1.3002 -1.6251 -0.2903
  354SOL     OW 1060   1.445   3.050   1.146 -0.0004 -0.1198 -0.5066
  354SOL    HW1 1061   1.504   2.978   1.192  0.1092 -2.6763 -0.7409
  354SOL    HW2 1062   1.347   3.025   1.131 -0.0062 -0.0308 -2.3181
  355SOL     OW 1063   2.566   1.443   0.661 -0.2579 -0.1285 -0.4096
  355SOL    HW1 1064   2.645   1.505   0.682  0.9505 -1.7035  0.3309
  355SOL    HW2 1065   2.595   1.367   0.600  3.5435  1.0838  0.6026
  356SOL     OW 1066   2.595   1.624   2.138 -0.0519  0.1418  0.2116
  356SOL    HW1 1067   2.500   1.591   2.122  0.6528 -1.0574  2.6528
  356SOL    HW2 1068   2.608   1.641   2.235 -3.0428  2.2871 -1.9926
  357SOL     OW 1069   0.437   2.720   1.503  0.1288 -0.1024 -0.1032
  357SOL    HW1 1070   0.388   2.737   1.414  0.6637 -0.7040  0.2669
  357SOL    HW2 1071   0.526   2.762   1.504 -1.0687  0.5677  0.1821
  358SOL     OW 1072   2.472   0.945   1.694 -0.5945  0.0037 -0.0764
  358SOL    HW1 1073   2.418   0.996   1.623 -0.4829 -1.0201 -0.3803
  358SOL    HW2 1074   2.489   0.852   1.665 -1.4795  0.5616  1.1408
  359SOL     OW 1075   2.398   2.605   2.664  0.1207 -0.0355 -0.1762
  359SOL    HW1 1076   2.379   2.509   2.636 -1.2210  0.0037  0.3560
  359SOL    HW2 1077   2.402   2.614   2.764 -0.0373 -1.9313  0.1259
  360SOL     OW 1078   0.713   0.435   0.986  0.3400 -0.1244 -0.3213
  360SOL    HW1 1079   0.814   0.424   0.990 -1.0938 -0.9696 -2.8730
  360SOL    HW2 1080   0.675   0.524   0.950 -3.3183 -0.5886  0.6509
  361SOL     OW 1081   1.901   0.004   1.051  0.1900  0.2708 -0.3422
  361SOL    HW1 1082   1.896   3.032   1.131 -0.2392  1.0438  1.6417
  361SOL    HW2 1083   1.957   3.056   0.976 -0.7698  1.8114  2.6043
  362SOL     OW 1084   1.373   1.031   0.786  0.3264 -0.3932  0.4180
  362SOL    HW1 1085   1.465   1.072   0.807  0.3044  1.5841  2.0479
  362SOL    HW2 1086   1.349   0.964   0.859 -0.3240 -0.9164  0.6755
  363SOL     OW 1087   2.477   1.450   2.803  0.6348  0.0060  0.0170
  363SOL    HW1 1088   2.387   1.490   2.832  0.8622 -0.3956  0.1927
  363SOL    HW2 1089   2.465   1.350   2.787  0.2620 -1.9091 -1.5442
  364SOL     OW 1090   0.039   0.409   1.064  0.2040 -0.0151  0.0656
  364SOL    HW1 1091   0.083   0.351   1.133 -2.1789  1.5198  0.6074
  364SOL    HW2 1092   0.090   0.407   0.976  0.6452 -2.0129  0.2344
  365SOL     OW 1093   0.132   2.671   0.022  1.0170  0.0319  0.3026
  365SOL    HW1 1094   0.115   2.587   3.056  0.6236 -1.8861 -0.0935
  365SOL    HW2 1095   0.047   2.702   0.069 -1.8551  0.1297  1.8849
  366SOL     OW 1096   2.361   2.185   0.130 -0.1436 -0.2679  0.2330
  366SOL    HW1 1097   2.278   2.131   0.112  3.6878 -0.7700  0.6576
  366SOL    HW2 1098   2.334   2.281   0.156  1.2995  2.4364 -0.3587
  367SOL     OW 1099   2.946   2.523   2.973 -0.4686 -0.3838 -0.0892
  367SOL    HW1 1100   2.906   2.515   2.883  0.7849  0.3660  4.4640
  367SOL    HW2 1101   3.028   2.463   2.981  1.6591 -2.2401  1.8605
  368SOL     OW 1102   0.198   1.778   0.905 -0.1888 -0.5210  0.3731
  368SOL    HW1 1103   0.261   1.850   0.873 -0.4023  1.4162  2.0492
  368SOL    HW2 1104   0.106   1.819   0.916  1.9312 -2.5226 -0.1767
  369SOL     OW 1105   0.745   2.681   2.745  0.0968 -0.0325 -0.3830
  369SOL    HW1 1106   0.814   2.661   2.816 -2.9267 -0.4860 -1.1742
  369SOL    HW2 1107   0.789   2.734   2.668  2.0786  0.4030  0.6387
  370SOL     OW 1108   0.226   1.059   0.971 -0.7073  0.0658 -0.4354
  370SOL    HW1 1109   0.167   1.126   0.927  1.9783 -0.0943  0.3415
  370SOL    HW2 1110   0.197   0.961   0.946 -2.4754 -3.2249 -0.7335
  371SOL     OW 1111   1.914   2.314   0.968 -0.0074  0.0115 -0.0184
  371SOL    HW1 1112   1.999   2.366   0.976  1.4297  0.2628  0.9402
  371SOL    HW2 1113   1.872   2.305   1.059  0.1137 -1.0074 -2.2244
  372SOL     OW 1114   0.290   0.872   2.816 -0.2875 -0.2086  0.3255
  372SOL    HW1 1115   0.312   0.785   2.768  0.9787  2.3235  0.8050
  372SOL    HW2 1116   0.368   0.902   2.875  0.4582 -1.7539  1.1094
  373SOL     OW 1117   3.034   1.909   0.948 -0.4231  0.7540 -0.5315
  373SOL    HW1 1118   3.036   1.986   0.886 -0.4767 -0.5263  3.3728
  373SOL    HW2 1119   3.012   1.935   1.043 -2.5363  0.1156 -2.3422
  374SOL     OW 1120   0.148   2.481   0.312 -0.1010 -0.1230 -0.3274
  374SOL    HW1 1121   0.191   2.431   0.233  2.3480 -1.6165  0.9087
  374SOL    HW2 1122   0.211   2.544   0.356 -0.6287 -0.3984 -1.3088
  375SOL     OW 1123   0.529   0.350   0.292 -0.1190 -0.2372  0.2187
  375SOL    HW1 1124   0.591   0.360   0.370 -2.4098  0.0390  2.9478
  375SOL    HW2 1125   0.456   0.283   0.319  1.9835 -0.8885 -0.2502
  376SOL     OW 1126   0.185   2.530   1.841  0.0116 -0.6556  0.0088
  376SOL    HW1 1127   0.102   2.540   1.791  0.3077  0.9444  0.2388
  376SOL    HW2 1128   0.263   2.581   1.794  1.1764  0.1190 -1.5034
  377SOL     OW 1129   1.385   2.419   3.068 -0.1983  0.4673  0.1711
  377SOL    HW1 1130   1.429   2.349   3.010 -3.1006 -2.3652 -0.2814
  377SOL    HW2 1131   1.465   2.472   0.013  1.1170  0.8967 -0.5087
  378SOL     OW 1132   0.825   0.627   0.605  0.4373  0.5247 -0.0799
  378SOL    HW1 1133   0.815   0.693   0.531  1.0741 -1.3172  0.1642
  378SOL    HW2 1134   0.903   0.644   0.662 -2.2879  1.9623  1.2000
  379SOL     OW 1135   0.786   1.595   0.349 -0.5034 -0.0474 -0.1555
  379SOL    HW1 1136   0.690   1.571   0.348  0.5284 -1.5813  0.6868
  379SOL    HW2 1137   0.826   1.577   0.445 -0.0036  2.4186  3.1404
  380SOL     OW 1138   0.290   1.898   1.521  0.8047 -0.1072  0.1821
  380SOL    HW1 1139   0.275   1.963   1.446  2.5537 -2.3001  2.3598
  380SOL    HW2 1140   0.367   1.929   1.582  0.6191  2.2135 -0.6291
  381SOL     OW 1141   0.615   1.323   1.627 -0.4346  0.3280 -0.3430
  381SOL    HW1 1142   0.658   1.359   1.710 -0.0426 -1.5749 -1.0529
  381SOL    HW2 1143   0.652   1.229   1.608 -3.5534  0.7760  0.5144
  382SOL     OW 1144   2.138   1.822   0.578  0.6548 -0.2507  0.2509
  382SOL    HW1 1145   2.215   1.756   0.571 -0.0210  1.8710  0.1804
  382SOL    HW2 1146   2.089   1.816   0.668  0.0742 -1.2597 -1.3438
  383SOL     OW 1147   2.590   1.700   2.407  0.1510  0.1870 -0.6966
  383SOL    HW1 1148   2.511   1.769   2.404  0.1507  0.9925 -0.2002
  383SOL    HW2 1149   2.680   1.755   2.398  3.7457  2.8741  2.1877
  384SOL     OW 1150   0.200   2.006   2.462  0.7482  0.2323 -0.0872
  384SOL    HW1 1151   0.253   1.970   2.545 -0.7225 -0.0184  1.1967
  384SOL    HW2 1152   0.257   2.046   2.388 -1.9127  1.1209 -2.7171
  385SOL     OW 1153   2.818   2.126   0.927  0.6094 -0.1608 -0.6016
  385SOL    HW1 1154   2.904   2.130   0.880 -0.8815 -2.0857  0.3986
  385SOL    HW2 1155   2.739   2.159   0.873 -0.9353 -0.0687 -2.5398
  386SOL     OW 1156   1.804   0.758   1.061  0.0776  0.7176 -0.3029
  386SOL    HW1 1157   1.779   0.717   0.970 -0.2228 -2.5239  1.9314
  386SOL    HW2 1158   1.734   0.830   1.071 -0.5506  0.3235  1.9253
  387SOL     OW 1159   0.448   0.566   1.982 -0.1040 -0.3215 -0.3481
  387SOL    HW1 1160   0.413   0.661   1.997 -0.8879 -0.0014  1.8309
  387SOL    HW2 1161   0.515   0.572   1.904 -1.7898 -0.0827 -1.5789
  388SOL     OW 1162   2.242   0.878   2.303 -0.4733 -0.0207  0.1495
  388SOL    HW1 1163   2.185   0.958   2.287  1.1370 -2.2966 -1.6426
  388SOL    HW2 1164   2.253   0.829   2.216 -2.1387  2.3895 -1.6514
  389SOL     OW 1165   1.932   1.045   1.926  0.0257 -0.4192 -0.3503
  389SOL    HW1 1166   1.965   1.141   1.904 -1.7861 -1.6905  0.2094
  389SOL    HW2 1167   2.012   0.978   1.931 -0.6245 -0.5358  0.1618
  390SOL     OW 1168   1.807   2.603   0.412 -0.0525 -0.1031  0.5592
  390SOL    HW1 1169   1.798   2.700   0.378 -1.3490  1.9902 -3.4789
  390SOL    HW2 1170   1.894   2.562   0.394  1.1687 -0.2056 -0.4041
  391SOL     OW 1171   2.071   2.109   1.244 -0.4699  0.4271  0.3925
  391SOL    HW1 1172   2.083   2.074   1.149  1.1182  1.2777 -3.8238
  391SOL    HW2 1173   2.032   2.032   1.297  0.5522  2.7528 -1.7224
  392SOL     OW 1174   2.820   2.701   1.259 -0.5494  0.4686 -0.1593
  392SOL    HW1 1175   2.807   2.713   1.358  1.1529 -0.7583  1.1100
  392SOL    HW2 1176   2.782   2.783   1.209 -1.9282 -0.3160 -4.0673
  393SOL     OW 1177   1.971   1.851   3.062  0.5269  0.1469  0.6121
  393SOL    HW1 1178   1.916   1.859   0.056 -0.6884 -2.0294 -3.2327
  393SOL    HW2 1179   1.915   1.867   2.981  1.7497 -0.2801  1.0415
  394SOL     OW 1180   0.092   0.266   2.576  0.2383  0.0785 -0.9006
  394SOL    HW1 1181   0.094   0.182   2.631 -0.2200 -0.2914  0.4830
  394SOL    HW2 1182   0.001   0.309   2.566 -1.4384 -0.7092 -0.1603
  395SOL     OW 1183   0.980   0.733   0.899  0.3366  0.3580 -0.1351
  395SOL    HW1 1184   0.941   0.786   0.981 -0.1161  0.4081 -0.5465
  395SOL    HW2 1185   0.977   0.801   0.816  2.0288  2.1830 -4.4385
  396SOL     OW 1186   1.278   0.690   2.975  0.3933 -0.0791 -0.9307
  396SOL    HW1 1187   1.328   0.614   2.925 -3.5620  0.1412 -0.8881
  396SOL    HW2 1188   1.341   0.770   3.000  2.0999  1.1038 -0.3687
  397SOL     OW 1189   0.459   0.387   2.210  0.0150  0.5996  0.3434
  397SOL    HW1 1190   0.402   0.415   2.287  3.5733 -0.1753  1.1239
  397SOL    HW2 1191   0.449   0.447   2.127 -2.3858 -0.2251 -0.7346
  398SOL     OW 1192   0.924   0.137   0.296  0.1023  0.1999 -0.1699
  398SOL    HW1 1193   0.904   0.036   0.299  0.3142  2.3391 -0.0689
  398SOL    HW2 1194   0.867   0.185   0.226 -2.6033 -1.2602 -0.8622
  399SOL     OW 1195   2.140   0.058   1.694  0.1023 -1.0317  0.0401
  399SOL    HW1 1196   2.151   0.066   1.799  1.9727 -3.5453  0.1636
  399SOL    HW2 1197   2.039   0.066   1.669 -1.7389 -0.9438  0.8726
  400SOL     OW 1198   0.656   1.759   2.249  0.4096 -0.2933 -0.2973
  400SOL    HW1 1199   0.617   1.732   2.342 -0.9632 -0.8047  0.3139
  400SOL    HW2 1200   0.593   1.823   2.193  1.0007  1.6001 -2.0197
  401SOL     OW 1201   0.709   0.507   2.531  0.2502 -0.6547  0.2929
  401SOL    HW1 1202   0.809   0.490   2.568  1.4537  0.3071 -0.7569
  401SOL    HW2 1203   0.683   0.606   2.543  0.0498  0.7945 -1.1280
  402SOL     OW 1204   2.923   2.252   1.872 -0.4179 -0.8069  0.2740
  402SOL    HW1 1205   2.992   2.199   1.926  3.4310  0.3496 -0.7416
  402SOL    HW2 1206   2.947   2.248   1.772  2.0217 -1.9724  0.7376
  403SOL     OW 1207   0.479   1.006   1.746  0.4116  0.2927 -0.2111
  403SOL    HW1 1208   0.400   0.950   1.776  0.1961 -1.1527 -0.5139
  403SOL    HW2 1209   0.472   1.099   1.771  1.0957 -2.8210  1.7742
  404SOL     OW 1210   0.148   2.803   1.778  0.2812 -0.5821 -0.2128
  404SOL    HW1 1211   0.147   2.793   1.679  0.9370  2.5434  2.4689
  404SOL    HW2 1212   0.069   2.755   1.826  1.0577  1.8106  0.4195
  405SOL     OW 1213   0.235   0.427   1.907 -0.0325 -0.4530 -0.0504
  405SOL    HW1 1214   0.321   0.477   1.936  1.8968  2.0191 -1.4214
  405SOL    HW2 1215   0.257   0.341   1.857  0.0078  3.1280  0.7047
  406SOL     OW 1216   1.866   2.292   3.070  0.0544 -0.2009 -0.4385
  406SOL    HW1 1217   1.873   2.286   0.082  0.5250 -0.0681  0.9377
  406SOL    HW2 1218   1.847   2.383   3.031  0.3245 -0.8800  1.7171
  407SOL     OW 1219   1.455   1.586   2.242  0.4656  0.1190  0.2095
  407SOL    HW1 1220   1.383   1.584   2.167 -2.5016 -0.3814  1.5667
  407SOL    HW2 1221   1.406   1.586   2.336 -0.8115 -4.5704  0.0053
  408SOL     OW 1222   0.415   0.175   2.833  0.2243 -0.1236  0.0235
  408SOL    HW1 1223   0.402   0.237   2.755  2.7744 -3.7642 -0.3143
  408SOL    HW2 1224   0.361   0.209   2.915 -2.7852  0.4587  1.3111
  409SOL     OW 1225   0.393   1.793   0.465  0.4306 -0.1675 -0.4412
  409SOL    HW1 1226   0.455   1.753   0.536 -0.0824 -0.0289 -1.8187
  409SOL    HW2 1227   0.405   1.897   0.468 -0.2291  2.0754  3.3483
  410SOL     OW 1228   2.520   1.695   0.388  0.4743  0.2684  0.8873
  410SOL    HW1 1229   2.484   1.726   0.294  1.8074 -1.8450  0.6368
  410SOL    HW2 1230   2.564   1.602   0.379  1.4000 -2.0751  0.7247
  411SOL     OW 1231   2.850   0.359   1.105  0.5207 -0.1113  0.8111
  411SOL    HW1 1232   2.800   0.315   1.027  1.2378 -0.0926  1.3650
  411SOL    HW2 1233   2.950   0.345   1.097  0.4238 -0.6392 -3.5040
  412SOL     OW 1234   1.347   0.937   1.055 -0.1183 -0.2727 -0.2379
  412SOL    HW1 1235   1.446   0.933   1.085  3.5965 -1.1388  3.0630
  412SOL    HW2 1236   1.310   1.028   1.080 -1.2060  0.1206 -1.9859
  413SOL     OW 1237   0.299   2.805   1.264 -0.4944 -0.0581 -0.2267
  413SOL    HW1 1238   0.291   2.900   1.230 -0.9645  2.4043  0.9214
  413SOL    HW2 1239   0.207   2.771   1.293  1.1354  2.2540  0.2976
  414SOL     OW 1240   3.059   1.694   2.863 -0.3210  0.3222  0.0903
  414SOL    HW1 1241   0.001   1.750   2.943 -0.6340  0.3053  0.8558
  414SOL    HW2 1242   3.051   1.746   2.773  1.6389 -3.4306  0.8418
  415SOL     OW 1243   0.524   2.201   2.828 -0.0855 -0.0720  0.4589
  415SOL    HW1 1244   0.559   2.158   2.911 -0.7124  0.3019 -0.9582
  415SOL    HW2 1245   0.427   2.174   2.816 -0.4795 -1.8237 -0.4944
  416SOL     OW 1246   1.523   0.312   0.499  0.1091  0.1421 -0.0786
  416SOL    HW1 1247   1.605   0.378   0.502  0.5213 -1.1792 -0.8634
  416SOL    HW2 1248   1.494   0.279   0.592  0.8520 -0.3338  0.4680
  417SOL     OW 1249   0.382   1.110   0.546  0.2166  0.2487 -0.0180
  417SOL    HW1 1250   0.397   1.136   0.640 -0.8453  3.0031 -1.0332
  417SOL    HW2 1251   0.286   1.078   0.534  0.5037 -0.1787  0.3506
  418SOL     OW 1252   2.389   0.998   1.979  0.2682  0.2721  0.3761
  418SOL    HW1 1253   2.405   0.965   1.882  0.4018 -1.3433 -5.6716
  418SOL    HW2 1254   2.392   0.920   2.053 -1.0986 -2.0546  3.3706
  419SOL     OW 1255   0.129   0.388   0.428  0.3287  0.1081 -0.0482
  419SOL    HW1 1256   0.173   0.317   0.371  0.0693 -2.4353 -2.7391
  419SOL    HW2 1257   0.183   0.471   0.434 -1.4194 -0.8596 -2.8542
  420SOL     OW 1258   0.515   1.462   0.377 -0.2593 -0.7958 -0.7753
  420SOL    HW1 1259   0.496   1.479   0.276  2.1156 -0.8346  0.8564
  420SOL    HW2 1260   0.534   1.362   0.391  3.6971  0.0159 -0.5396
  421SOL     OW 1261   0.844   2.448   0.633 -0.4920 -0.1518 -0.5391
  421SOL    HW1 1262   0.892   2.359   0.639 -1.6952 -0.4090  2.3181
  421SOL    HW2 1263   0.844   2.493   0.542 -0.9713  0.0792 -0.2946
  422SOL     OW 1264   3.064   0.943   1.370  0.3052 -0.4427 -0.9985
  422SOL    HW1 1265   3.045   1.043   1.364  0.5500 -0.4168 -1.0195
  422SOL    HW2 1266   0.071   0.913   1.359 -2.7166 -0.1688 -2.3970
  423SOL     OW 1267   1.320   1.542   1.612  0.0101  0.3241  0.2524
  423SOL    HW1 1268   1.365   1.449   1.631  1.2051  0.7754  2.7194
  423SOL    HW2 1269   1.268   1.550   1.524 -0.7013  2.0127 -2.2714
  424SOL     OW 1270   2.063   1.056   2.692  0.2020 -0.5108  0.4783
  424SOL    HW1 1271   2.007   1.088   2.768  2.5878 -0.4283  0.2392
  424SOL    HW2 1272   2.021   1.098   2.609 -2.8754  3.5292  1.4599
  425SOL     OW 1273   3.050   0.421   1.906 -0.1290 -0.3991  0.2738
  425SOL    HW1 1274   0.062   0.429   1.910 -0.9488 -0.0027  3.1773
  425SOL    HW2 1275   3.012   0.474   1.983  2.5162 -4.3309 -1.9350
  426SOL     OW 1276   2.617   2.705   2.540  0.0262  0.1725 -0.1180
  426SOL    HW1 1277   2.698   2.734   2.592 -2.0866 -4.5397  0.9867
  426SOL    HW2 1278   2.540   2.669   2.598  0.4134 -0.7588 -2.0695
  427SOL     OW 1279   0.945   0.554   2.213  1.3010  0.3015  0.1946
  427SOL    HW1 1280   0.848   0.515   2.209 -0.9579 -3.2269  2.0656
  427SOL    HW2 1281   0.955   0.644   2.172 -1.1521 -2.1308  0.1904
  428SOL     OW 1282   2.127   0.836   1.785 -0.2362 -0.0037  0.7960
  428SOL    HW1 1283   2.098   0.756   1.844 -1.4310 -0.0957  2.3737
  428SOL    HW2 1284   2.080   0.835   1.696 -0.8853  0.4880 -1.5821
  429SOL     OW 1285   2.824   2.786   0.381 -0.3468  0.2363 -0.1878
  429SOL    HW1 1286   2.842   2.878   0.351 -3.2167 -1.0816  0.2364
  429SOL    HW2 1287   2.743   2.758   0.336  3.1655 -2.0343  2.0041
  430SOL     OW 1288   1.822   1.672   2.505 -0.4648  0.2608 -0.3288
  430SOL    HW1 1289   1.776   1.582   2.491  0.1708  2.7327 -0.1293
  430SOL    HW2 1290   1.757   1.751   2.501 -0.1125  0.2017  2.3480
  431SOL     OW 1291   0.062   1.782   1.339  0.3010 -0.1982 -0.0829
  431SOL    HW1 1292   0.128   1.767   1.260 -0.7901 -0.0064 -0.4537
  431SOL    HW2 1293   0.113   1.799   1.427  0.6346  0.4475 -2.6080
  432SOL     OW 1294   1.722   2.920   2.647  0.2668  0.1492 -0.1479
  432SOL    HW1 1295   1.808   2.873   2.668  0.4671  3.2509 -1.4886
  432SOL    HW2 1296   1.694   2.898   2.555 -2.3448  1.5059  2.8813
  433SOL     OW 1297   1.723   3.028   2.156  0.0387 -0.3972  0.3391
  433SOL    HW1 1298   1.661   0.021   2.151  1.1513  1.1789  0.2464
  433SOL    HW2 1299   1.807   3.049   2.206  2.1105  0.8064  0.8056
  434SOL     OW 1300   0.570   2.573   2.160 -0.1679 -0.2520 -0.2871
  434SOL    HW1 1301   0.476   2.535   2.144  0.5951  1.0322  0.5395
  434SOL    HW2 1302   0.589   2.639   2.079  1.4751  0.0260 -1.4578
  435SOL     OW 1303   0.219   2.184   0.251 -0.4323 -0.0489  0.1391
  435SOL    HW1 1304   0.264   2.265   0.206  1.7526 -4.1406 -1.6340
  435SOL    HW2 1305   0.244   2.185   0.350  1.1611  3.3689 -1.7439
  436SOL     OW 1306   0.641   0.627   1.743  0.1317  0.3473  0.3900
  436SOL    HW1 1307   0.690   0.544   1.706 -0.1912  0.0715  0.6333
  436SOL    HW2 1308   0.610   0.694   1.672 -3.4005  2.6366  0.1863
  437SOL     OW 1309   0.378   2.649   2.376 -0.5643 -0.0544 -0.0126
  437SOL    HW1 1310   0.440   2.644   2.293 -0.0534 -3.4506 -0.2673
  437SOL    HW2 1311   0.361   2.749   2.405  0.7011  3.4910  4.1791
  438SOL     OW 1312   0.537   1.758   1.248 -0.2755  0.0658 -0.5784
  438SOL    HW1 1313   0.558   1.857   1.248  0.2889 -3.3563  2.8062
  438SOL    HW2 1314   0.533   1.722   1.341 -2.2240 -0.4619 -1.1488
  439SOL     OW 1315   2.139   0.803   2.678 -0.2769  0.3581 -1.0127
  439SOL    HW1 1316   2.225   0.791   2.623 -2.2148 -1.6371  0.5595
  439SOL    HW2 1317   2.122   0.900   2.704  0.7514 -0.9003  0.4800
  440SOL     OW 1318   0.581   0.627   3.068 -0.5041  0.1139 -0.0786
  440SOL    HW1 1319   0.653   0.623   0.056  0.8467  0.5707  1.6165
  440SOL    HW2 1320   0.605   0.699   2.999  0.5931 -2.2532  1.2336
  441SOL     OW 1321   0.709   2.254   1.346  0.6960  0.2765 -0.0439
  441SOL    HW1 1322   0.729   2.343   1.389  0.3906  0.9956 -1.2209
  441SOL    HW2 1323   0.714   2.270   1.247 -1.8305 -1.5379  1.6034
  442SOL     OW 1324   2.852   1.641   0.708  0.3673  0.0302 -0.3644
  442SOL    HW1 1325   2.781   1.703   0.663 -2.0207  1.4710  0.9618
  442SOL    HW2 1326   2.848   1.650   0.810  0.8883  1.7159  2.9306
  443SOL     OW 1327   2.785   1.918   2.707 -0.3088  0.0356 -0.1239
  443SOL    HW1 1328   2.762   1.991   2.640 -0.7131  0.0028  1.2505
  443SOL    HW2 1329   2.707   1.904   2.769  1.0911 -1.8995  1.1049
  444SOL     OW 1330   1.612   1.091   2.955  0.3167  0.7713 -0.3235
  444SOL    HW1 1331   1.642   1.127   3.043  0.6068 -1.2059 -0.4293
  444SOL    HW2 1332   1.578   1.163   2.890 -1.7569  0.3836  0.7555
  445SOL     OW 1333   2.594   2.953   1.905 -0.3046 -0.5099 -0.3416
  445SOL    HW1 1334   2.536   3.038   1.904 -1.1617 -1.7403  0.8463
  445SOL    HW2 1335   2.642   2.942   1.993 -0.5959 -0.5282  3.4734
  446SOL     OW 1336   0.308   1.131   1.218 -0.6110 -0.2478  0.1815
  446SOL    HW1 1337   0.351   1.223   1.205  0.4796 -1.1994 -1.2241
  446SOL    HW2 1338   0.264   1.101   1.130  0.4809  1.6237 -3.1847
  447SOL     OW 1339   0.835   2.030   1.141  0.2121  0.5454 -0.3331
  447SOL    HW1 1340   0.737   2.043   1.177  1.5110 -0.7988  2.3644
  447SOL    HW2 1341   0.873   1.938   1.163 -4.1614  0.2603 -0.8110
  448SOL     OW 1342   1.045   1.152   1.566  0.1180 -0.1939  0.1557
  448SOL    HW1 1343   0.985   1.188   1.490 -1.9400 -1.2342  0.9822
  448SOL    HW2 1344   1.022   1.052   1.579  0.7557  0.6116  1.9433
  449SOL     OW 1345   2.723   2.100   2.220 -0.1543 -0.3299 -0.1520
  449SOL    HW1 1346   2.741   2.193   2.186 -0.0526 -1.3651 -0.9194
  449SOL    HW2 1347   2.697   2.034   2.147 -1.2761  0.7600  1.4175
  450SOL     OW 1348   0.154   1.714   1.919 -0.1814 -0.1960 -0.3117
  450SOL    HW1 1349   0.053   1.699   1.918 -1.0917 -2.5937  0.6003
  450SOL    HW2 1350   0.199   1.699   2.008  1.8742 -0.5514 -3.2390
  451SOL     OW 1351   2.108   0.639   1.130  0.1216  0.3283 -0.5929
  451SOL    HW1 1352   2.046   0.641   1.212 -0.1289 -3.1274  1.2165
  451SOL    HW2 1353   2.058   0.598   1.058  0.6097  0.7550  1.7989
  452SOL     OW 1354   0.760   1.325   0.744 -0.1439  0.1501  0.1702
  452SOL    HW1 1355   0.770   1.378   0.658  0.6671 -1.5460 -3.6311
  452SOL    HW2 1356   0.671   1.341   0.790  2.1573  1.9980  0.2341
  453SOL     OW 1357   1.386   2.019   0.646  0.6313 -0.3700 -0.0084
  453SOL    HW1 1358   1.295   2.068   0.616  0.7867  1.5746 -0.7531
  453SOL    HW2 1359   1.447   2.089   0.681 -1.1491 -0.9448  1.3847
  454SOL     OW 1360   0.584   1.832   3.051 -0.2531  0.0041  0.3095
  454SOL    HW1 1361   0.559   1.796   2.960 -1.6202  3.0160 -0.6197
  454SOL    HW2 1362   0.511   1.797   0.025  0.6109  0.2323  2.0179
  455SOL     OW 1363   1.339   1.007   0.516  0.0730  0.0986  0.0085
  455SOL    HW1 1364   1.247   0.992   0.478  0.7120 -1.5040  2.3961
  455SOL    HW2 1365   1.351   1.014   0.617 -1.4035  2.0636  0.2512
  456SOL     OW 1366   2.290   2.211   1.354 -0.4615  0.2481  0.1880
  456SOL    HW1 1367   2.199   2.185   1.309  1.0825  1.2029  3.0804
  456SOL    HW2 1368   2.277   2.242   1.452  1.0075  2.9725 -0.2685
  457SOL     OW 1369   1.800   2.939   3.011 -0.5779 -0.5053 -0.6936
  457SOL    HW1 1370   1.794   2.999   0.007  0.3324 -0.3038  0.3565
  457SOL    HW2 1371   1.825   2.995   2.929 -0.0186 -1.1670 -3.1843
  458SOL     OW 1372   2.493   0.623   0.330 -0.3426  0.5689 -0.1062
  458SOL    HW1 1373   2.419   0.552   0.342  0.0320 -0.6645  0.7636
  458SOL    HW2 1374   2.481   0.711   0.390  0.1120 -0.8666  1.0296
  459SOL     OW 1375   2.951   0.411   2.523  0.0326  0.5623 -0.1709
  459SOL    HW1 1376   2.967   0.510   2.541 -0.9238 -0.0815  0.3507
  459SOL    HW2 1377   2.872   0.402   2.454 -1.0777  0.5443  1.4469
  460SOL     OW 1378   3.060   1.034   0.091 -0.4957 -0.0408  0.6860
  460SOL    HW1 1379   3.041   0.975   0.009 -2.1124 -1.4210 -5.3453
  460SOL    HW2 1380   2.986   1.023   0.164 -0.8132 -1.7343  1.1859
  461SOL     OW 1381   2.944   2.682   0.813 -0.3198  0.0053  0.1926
  461SOL    HW1 1382   2.988   2.663   0.901 -1.9742  0.9711  1.0328
  461SOL    HW2 1383   2.839   2.677   0.818 -2.0179  1.6342 -0.4298
  462SOL     OW 1384   3.023   0.017   1.627 -0.2176  0.4243 -0.8030
  462SOL    HW1 1385   3.021   0.113   1.661 -1.4661  0.1185 -1.7751
  462SOL    HW2 1386   3.055   0.017   1.529  0.2696 -0.7947  0.7422
  463SOL     OW 1387   2.109   1.968   2.513 -0.2247 -0.5065 -0.1082
  463SOL    HW1 1388   2.184   1.940   2.575 -2.8067  0.1902 -1.2706
  463SOL    HW2 1389   2.059   1.894   2.460 -4.6879 -2.3811 -0.5742
  464SOL     OW 1390   0.692   2.846   1.489  0.4505 -0.8941  0.1807
  464SOL    HW1 1391   0.718   2.868   1.587  1.4941 -0.0305  1.2586
  464SOL    HW2 1392   0.654   2.925   1.440  0.5897  2.3455  2.9797
  465SOL     OW 1393   0.632   0.263   1.845 -0.3091 -0.3056  0.3240
  465SOL    HW1 1394   0.711   0.217   1.891 -0.2592  0.8440 -0.0220
  465SOL    HW2 1395   0.662   0.347   1.793  0.6776  1.4011 -0.0132
  466SOL     OW 1396   1.695   2.880   1.943 -0.5370  1.3860 -0.0371
  466SOL    HW1 1397   1.656   2.791   1.964 -3.2557  0.1516  0.7701
  466SOL    HW2 1398   1.720   2.931   2.032  0.4771  0.7426  1.9135
  467SOL     OW 1399   0.190   2.051   1.324  0.5824  0.0572 -0.0591
  467SOL    HW1 1400   0.107   2.038   1.266 -0.4007  0.0106 -0.6157
  467SOL    HW2 1401   0.268   2.087   1.268  0.7861 -0.6615  2.0479
  468SOL     OW 1402   2.643   1.504   2.597  0.1058  0.6099  0.0943
  468SOL    HW1 1403   2.617   1.574   2.527  0.0458 -0.1264 -1.3117
  468SOL    HW2 1404   2.570   1.490   2.673 -0.7653 -1.8457 -1.5200
  469SOL     OW 1405   1.168   1.889   0.379 -0.2185  0.6065  0.5857
  469SOL    HW1 1406   1.236   1.827   0.334  1.7057  1.0253 -3.8836
  469SOL    HW2 1407   1.148   1.849   0.470  1.2686 -1.0254 -1.6422
  470SOL     OW 1408   2.263   1.328   1.485 -0.4516 -0.0561 -0.3357
  470SOL    HW1 1409   2.346   1.366   1.534  1.7000  0.7796  2.2449
  470SOL    HW2 1410   2.237   1.244   1.529  1.2316  0.6965 -1.1444
  471SOL     OW 1411   0.432   2.438   2.989 -0.4508 -0.6384 -0.2080
  471SOL    HW1 1412   0.473   2.360   2.940 -1.8695  1.4474  0.9947
  471SOL    HW2 1413   0.504   2.509   2.994 -0.5635  0.9502 -0.1435
  472SOL     OW 1414   2.941   1.868   2.067  0.3421 -0.1345 -0.3573
  472SOL    HW1 1415   2.971   1.772   2.055 -1.7176  0.1809 -0.2193
  472SOL    HW2 1416   2.845   1.877   2.049  3.6671  1.4425 -1.7699
  473SOL     OW 1417   0.852   2.946   0.279 -0.5555 -0.0438  0.1035
  473SOL    HW1 1418   0.932   2.888   0.301  0.0124  0.9135  1.3572
  473SOL    HW2 1419   0.836   2.938   0.177  0.7245 -0.7519  3.0132
  474SOL     OW 1420   2.591   2.892   0.827  0.4847 -0.1926 -0.0220
  474SOL    HW1 1421   2.605   2.792   0.849  0.5159 -1.3604  1.1017
  474SOL    HW2 1422   2.617   2.910   0.732 -0.1289  2.7616 -1.7146
  475SOL     OW 1423   2.018   2.680   1.671  0.3213  0.2724  0.3830
  475SOL    HW1 1424   1.937   2.731   1.634  0.7590  0.3124  0.9736
  475SOL    HW2 1425   2.027   2.697   1.777  0.0909  0.5818  2.0691
  476SOL     OW 1426   0.633   0.657   0.846  0.2384  0.6877  0.6143
  476SOL    HW1 1427   0.678   0.648   0.757 -0.4901 -1.4080  0.8761
  476SOL    HW2 1428   0.617   0.756   0.866  0.9555  0.0881 -1.5304
  477SOL     OW 1429   0.577   2.175   0.749 -0.3890  0.0294  0.4321
  477SOL    HW1 1430   0.616   2.259   0.790 -2.2054 -0.6133 -1.8789
  477SOL    HW2 1431   0.640   2.144   0.675 -0.6932  2.1470 -0.3918
  478SOL     OW 1432   0.033   2.342   2.204 -0.2416  0.2097 -0.0636
  478SOL    HW1 1433   0.033   2.306   2.302 -0.8375 -1.7818  3.7231
  478SOL    HW2 1434   0.013   2.266   2.138 -0.3411 -2.0843 -2.6616
  479SOL     OW 1435   0.201   0.640   1.705 -0.1086  0.3876 -0.3079
  479SOL    HW1 1436   0.208   0.579   1.788 -0.7826  0.6023 -1.9376
  479SOL    HW2 1437   0.157   0.600   1.622  0.5923  1.5126  0.6936
  480SOL     OW 1438   0.179   2.139   3.053 -0.0960 -0.7932  0.0570
  480SOL    HW1 1439   0.199   2.167   0.058 -0.9127  0.7076 -0.0099
  480SOL    HW2 1440   0.183   2.037   3.036  0.6097 -1.7145 -0.0726
  481SOL     OW 1441   1.807   2.088   2.289 -0.0117  0.5505 -0.4740
  481SOL    HW1 1442   1.886   2.074   2.230 -0.4833  1.9939  0.7576
  481SOL    HW2 1443   1.739   2.017   2.277 -0.2080  1.9852  0.3346
  482SOL     OW 1444   1.572   2.250   2.878 -0.2655  0.0265 -0.1537
  482SOL    HW1 1445   1.495   2.261   2.812 -2.2432  0.0058  1.0104
  482SOL    HW2 1446   1.658   2.219   2.829 -0.0605 -1.8132 -2.7302
  483SOL     OW 1447   0.611   2.052   2.446  0.8594  0.7114  0.3062
  483SOL    HW1 1448   0.709   2.067   2.421  0.2779 -0.3788 -1.1605
  483SOL    HW2 1449   0.592   1.952   2.469 -0.2264  1.7166  1.5987
  484SOL     OW 1450   0.028   0.619   1.242 -0.2883 -0.0558  0.3832
  484SOL    HW1 1451   0.037   0.571   1.152  4.4858  0.6198 -0.7634
  484SOL    HW2 1452   3.054   0.698   1.236  2.9284  0.6804  0.7678
  485SOL     OW 1453   2.457   0.849   0.517 -0.2992  0.3504  0.1577
  485SOL    HW1 1454   2.423   0.794   0.594  2.0713  2.9224  0.7808
  485SOL    HW2 1455   2.422   0.945   0.524 -1.1261  1.8347 -1.3138
  486SOL     OW 1456   1.961   0.028   2.323  0.5141 -0.2705  0.1223
  486SOL    HW1 1457   1.997   0.104   2.264 -0.2320 -0.9040  2.8153
  486SOL    HW2 1458   1.964   0.058   2.422 -1.5159  2.0628  4.0024
  487SOL     OW 1459   1.301   1.540   1.032 -0.3388  0.0767 -0.0212
  487SOL    HW1 1460   1.268   1.476   0.966 -0.6816  0.6416 -0.1329
  487SOL    HW2 1461   1.368   1.612   0.999 -1.1552 -1.4872  0.3562
  488SOL     OW 1462   2.216   1.227   0.098 -0.5252 -0.1965 -0.3513
  488SOL    HW1 1463   2.314   1.203   0.085  1.0646 -0.2609  2.1342
  488SOL    HW2 1464   2.208   1.316   0.146 -0.1765 -0.9913  0.5464
  489SOL     OW 1465   2.303   0.402   0.311  0.4550  0.2644  0.2436
  489SOL    HW1 1466   2.212   0.394   0.362 -4.0234  0.4750 -1.4996
  489SOL    HW2 1467   2.364   0.319   0.324 -1.3429 -1.1048 -0.7366
  490SOL     OW 1468   1.493   2.679   0.522 -0.1277  0.2179  0.5955
  490SOL    HW1 1469   1.550   2.751   0.556  0.1823 -1.2005  0.5619
  490SOL    HW2 1470   1.474   2.696   0.421 -2.0709 -1.3913 -3.6098
  491SOL     OW 1471   1.000   0.899   0.679 -0.7436 -0.1229  0.5550
  491SOL    HW1 1472   0.917   0.955   0.662  2.3515 -0.2903 -5.3358
  491SOL    HW2 1473   1.046   0.888   0.590 -0.8340  1.7262  0.7689
  492SOL     OW 1474   1.612   0.270   0.058 -0.2386  0.0913 -0.2837
  492SOL    HW1 1475   1.595   0.208   0.138  2.0761 -0.9426  0.2741
  492SOL    HW2 1476   1.570   0.361   0.062  1.1476  1.0734  2.6420
  493SOL     OW 1477   1.881   2.250   0.244  0.4591 -0.3274  0.5490
  493SOL    HW1 1478   1.928   2.332   0.282 -1.2833  1.0746 -4.0643
  493SOL    HW2 1479   1.823   2.201   0.315 -1.8102 -0.6106  1.7835
  494SOL     OW 1480   0.586   1.199   0.399 -0.2933 -0.3322 -0.1075
  494SOL    HW1 1481   0.508   1.163   0.449  1.8421  1.7380 -2.1113
  494SOL    HW2 1482   0.672   1.146   0.418  0.7454 -2.2120 -0.1229
  495SOL     OW 1483   3.075   2.905   1.007  0.1609 -0.2229  0.4019
  495SOL    HW1 1484   2.985   2.871   1.028  2.0131  0.8146  0.6679
  495SOL    HW2 1485   0.035   2.834   0.953 -0.2300  1.0302  0.5024
  496SOL     OW 1486   2.390   0.306   1.704 -0.4177  0.3955  0.8170
  496SOL    HW1 1487   2.462   0.275   1.640 -1.3115  1.2731  1.8198
  496SOL    HW2 1488   2.316   0.341   1.649  1.7052  0.0352  0.5684
  497SOL     OW 1489   1.915   1.624   2.763 -0.0464 -0.0047  0.0021
  497SOL    HW1 1490   1.902   1.525   2.771  0.3450  1.4780 -2.8930
  497SOL    HW2 1491   1.860   1.647   2.680  0.8594  0.3165 -3.0889
  498SOL     OW 1492   1.119   1.754   0.625  0.0460  0.8446 -0.0508
  498SOL    HW1 1493   1.039   1.704   0.674  0.5500  0.1983  2.2472
  498SOL    HW2 1494   1.204   1.761   0.686  3.9678  0.3792  1.8204
  499SOL     OW 1495   0.566   1.883   0.962  0.0041 -0.2405 -0.3022
  499SOL    HW1 1496   0.635   1.951   0.993  0.6271  1.0335  0.2940
  499SOL    HW2 1497   0.483   1.929   0.918  0.2054  1.8421  0.0377
  500SOL     OW 1498   1.178   1.927   0.065  0.0942 -0.7126 -0.3647
  500SOL    HW1 1499   1.100   1.969   0.112  0.0951 -1.3984 -1.3248
  500SOL    HW2 1500   1.178   1.969   3.066 -0.8674 -0.6180  1.2195
  501SOL     OW 1501   2.387   2.848   1.291  0.2440 -0.2188  0.4467
  501SOL    HW1 1502   2.448   2.766   1.282  0.4887 -3.7814 -0.9218
  501SOL    HW2 1503   2.329   2.832   1.373  1.8553  1.4534 -1.6684
  502SOL     OW 1504   0.127   0.907   1.679 -0.6582  0.5714 -0.1357
  502SOL    HW1 1505   0.159   0.810   1.700 -0.8846 -0.1376 -1.1095
  502SOL    HW2 1506   0.116   0.917   1.578  1.0291 -0.9423  3.3707
  503SOL     OW 1507   1.909   0.662   1.384  0.7025 -0.2311  0.1660
  503SOL    HW1 1508   1.939   0.571   1.416 -1.5903  1.4307 -1.4202
  503SOL    HW2 1509   1.822   0.651   1.330 -1.6130  1.5728  1.0463
  504SOL     OW 1510   1.346   0.834   2.030 -0.0288 -0.0359 -0.3184
  504SOL    HW1 1511   1.334   0.854   2.133 -2.4390  0.1152  0.8007
  504SOL    HW2 1512   1.338   0.912   1.972  1.8281  0.3807 -2.5526
  505SOL     OW 1513   1.049   0.129   2.482  0.2157 -0.3230 -0.1105
  505SOL    HW1 1514   1.144   0.127   2.510 -2.0424 -0.5198  1.0510
  505SOL    HW2 1515   0.996   0.069   2.543  0.3354  1.5568 -3.2646
  506SOL     OW 1516   0.286   0.341   1.514 -0.0328  0.3663  0.2859
  506SOL    HW1 1517   0.300   0.279   1.596  1.0532 -0.9123  0.0636
  506SOL    HW2 1518   0.203   0.392   1.537 -0.3549 -0.0183  0.2963
  507SOL     OW 1519   1.429   3.040   3.015  0.1099 -0.1406 -0.1501
  507SOL    HW1 1520   1.430   0.030   3.076 -1.0163 -2.3206 -2.4341
  507SOL    HW2 1521   1.495   3.052   2.943  0.1524 -0.5133  0.8184
  508SOL     OW 1522   2.281   0.468   2.289  0.2718 -0.2549  0.2713
  508SOL    HW1 1523   2.377   0.496   2.320 -2.0769  0.0940  0.4514
  508SOL    HW2 1524   2.264   0.374   2.319 -1.2224  1.5233 -2.5773
  509SOL     OW 1525   0.817   1.466   1.791  0.1533  0.3079 -0.1400
  509SOL    HW1 1526   0.832   1.550   1.735  0.8292  0.0711 -2.7505
  509SOL    HW2 1527   0.766   1.488   1.877 -0.8217  1.5567 -0.0131
  510SOL     OW 1528   0.054   1.220   0.830 -0.3965 -0.4310  0.0138
  510SOL    HW1 1529   0.006   1.246   0.745  1.8784 -2.5180 -0.2411
  510SOL    HW2 1530   3.083   1.236   0.915 -0.5351  0.0766 -1.4519
  511SOL     OW 1531   1.756   1.802   0.956  0.6039 -0.4790 -0.4760
  511SOL    HW1 1532   1.733   1.869   1.029 -0.2930  0.7946  0.8238
  511SOL    HW2 1533   1.836   1.740   0.976 -1.4073 -0.7964 -1.4003
  512SOL     OW 1534   0.865   1.113   0.376  0.2672 -0.4899 -0.1571
  512SOL    HW1 1535   0.873   1.147   0.278 -1.0760  1.3420 -3.8215
  512SOL    HW2 1536   0.930   1.159   0.438 -0.2859 -0.1412  0.0239
  513SOL     OW 1537   0.560   2.372   0.422 -0.0296  0.1610  0.4064
  513SOL    HW1 1538   0.558   2.450   0.357  3.3650 -1.2189  1.9749
  513SOL    HW2 1539   0.606   2.394   0.513  1.1973 -3.0095  1.8513
  514SOL     OW 1540   2.719   2.120   2.494 -0.1870  0.1467  0.0037
  514SOL    HW1 1541   2.681   2.217   2.518  0.5227 -0.7622  3.5530
  514SOL    HW2 1542   2.724   2.097   2.396  0.7710 -0.5734  0.1768
  515SOL     OW 1543   2.645   0.724   0.122  0.2876 -0.2185 -0.3704
  515SOL    HW1 1544   2.733   0.736   0.168 -2.4236 -0.7924 -0.0274
  515SOL    HW2 1545   2.575   0.678   0.187 -1.7398  0.8264 -0.8809
  516SOL     OW 1546   2.047   3.012   0.845 -0.5745 -0.4008 -0.3037
  516SOL    HW1 1547   2.146   2.975   0.859  0.7974 -1.0970  2.5427
  516SOL    HW2 1548   2.001   2.997   0.755 -0.2582  0.8086 -1.2475
  517SOL     OW 1549   1.550   1.882   2.874  0.5448 -0.7259  0.4933
  517SOL    HW1 1550   1.512   1.792   2.839 -0.0148 -0.1701 -2.2057
  517SOL    HW2 1551   1.496   1.960   2.825 -2.4669  3.2000 -2.0442
  518SOL     OW 1552   0.963   0.914   1.597  0.1169 -0.2453 -0.0376
  518SOL    HW1 1553   0.995   0.853   1.522  1.3429  0.3646  2.2804
  518SOL    HW2 1554   0.944   0.862   1.680 -0.2942 -2.4010  0.0994
  519SOL     OW 1555   2.863   1.561   0.408  0.1248 -0.4569  0.0039
  519SOL    HW1 1556   2.847   1.565   0.509  0.2647  2.1492 -1.5559
  519SOL    HW2 1557   2.959   1.538   0.389  1.6438 -1.1443  0.6485
  520SOL     OW 1558   2.147   2.235   2.006 -0.0841  0.2560 -0.0905
  520SOL    HW1 1559   2.230   2.222   2.068 -2.7745  0.8255  1.2659
  520SOL    HW2 1560   2.096   2.148   2.003 -1.9179  0.6006  0.5324
  521SOL     OW 1561   0.915   2.858   2.522  0.2704  0.6815  0.0650
  521SOL    HW1 1562   0.907   2.937   2.585  1.8664 -0.2533  0.2891
  521SOL    HW2 1563   0.901   2.881   2.427 -0.3596 -1.1969  1.3020
  522SOL     OW 1564   2.233   0.373   2.036  0.0836 -0.0691  0.1630
  522SOL    HW1 1565   2.270   0.405   2.123  0.5454  0.8174 -3.9332
  522SOL    HW2 1566   2.281   0.411   1.953  3.0873  0.6977  1.1081
  523SOL     OW 1567   1.904   2.624   1.294 -0.2020  0.6287 -0.1399
  523SOL    HW1 1568   1.842   2.555   1.333 -1.0280  0.2086 -0.3268
  523SOL    HW2 1569   2.002   2.596   1.307 -0.7806 -0.5126  1.0986
  524SOL     OW 1570   1.622   2.024   0.031  0.2615  0.2598  0.4150
  524SOL    HW1 1571   1.614   2.110   3.061  0.7743 -2.2653 -2.7383
  524SOL    HW2 1572   1.613   1.946   3.055  3.4974 -1.0256  2.0487
  525SOL     OW 1573   0.174   0.654   0.094  0.4122  0.2043  0.2505
  525SOL    HW1 1574   0.247   0.588   0.124  1.0332  1.8551  0.6775
  525SOL    HW2 1575   0.196   0.690   0.005  0.6488 -1.4930  3.4237
  526SOL     OW 1576   1.074   2.820   0.448  0.7968  0.0334 -0.0207
  526SOL    HW1 1577   1.128   2.738   0.474 -0.7694  0.7353 -0.9846
  526SOL    HW2 1578   1.118   2.898   0.496  2.5713 -2.0823  1.7971
  527SOL     OW 1579   2.673   1.814   0.625  0.4949 -0.3273 -0.3517
  527SOL    HW1 1580   2.643   1.860   0.712 -1.2063  0.4064 -2.6765
  527SOL    HW2 1581   2.603   1.827   0.554  2.2022  1.8303 -0.2623
  528SOL     OW 1582   0.599   0.890   2.123  0.1742  0.1197 -0.1786
  528SOL    HW1 1583   0.515   0.930   2.076 -1.9703  0.8317 -3.1005
  528SOL    HW2 1584   0.666   0.869   2.053  0.6600  1.7438  0.9917
  529SOL     OW 1585   1.611   1.820   2.554  0.3998 -0.1504 -0.1555
  529SOL    HW1 1586   1.555   1.752   2.608  0.4025 -0.3409 -1.8708
  529SOL    HW2 1587   1.573   1.834   2.458 -0.1153  0.4232 -1.9913
  530SOL     OW 1588   1.607   1.053   2.251 -0.4294  0.8237  0.4352
  530SOL    HW1 1589   1.585   1.127   2.184 -0.3367  1.0372  0.3334
  530SOL    HW2 1590   1.524   0.991   2.259 -1.4653  1.1056  0.2603
  531SOL     OW 1591   0.547   2.388   2.621 -0.1176  0.0402 -0.5486
  531SOL    HW1 1592   0.470   2.367   2.557 -0.4181 -1.0925 -1.8726
  531SOL    HW2 1593   0.548   2.329   2.707  1.4230 -2.3820 -0.3484
  532SOL     OW 1594   2.733   0.870   0.494 -0.0073  0.0667  0.2678
  532SOL    HW1 1595   2.762   0.890   0.587 -1.9159  1.9601 -1.7946
  532SOL    HW2 1596   2.635   0.857   0.479  2.2339 -1.3768  0.7350
  533SOL     OW 1597   3.000   0.266   1.705  0.1525 -0.0327 -0.4295
  533SOL    HW1 1598   3.005   0.327   1.784  1.4783 -0.4385 -2.3158
  533SOL    HW2 1599   2.953   0.311   1.628  2.0807  0.6525 -0.1204
  534SOL     OW 1600   0.888   0.067   3.025  0.1840 -0.4453 -0.4864
  534SOL    HW1 1601   0.822   0.080   0.020 -2.3414  0.8795  3.2489
  534SOL    HW2 1602   0.841   0.086   2.938  0.1848  0.1474  3.4176
  535SOL     OW 1603   0.306   0.186   0.311  0.2876 -0.0821 -0.3958
  535SOL    HW1 1604   0.277   0.153   0.224  1.8208  0.5776  1.5511
  535SOL    HW2 1605   0.299   0.118   0.383 -1.6321 -1.5301 -3.4170
  536SOL     OW 1606   0.267   1.732   1.182 -0.2246  0.3448  0.3475
  536SOL    HW1 1607   0.257   1.764   1.084  0.1475 -0.7598 -0.0929
  536SOL    HW2 1608   0.365   1.749   1.214  0.4433 -0.0141 -2.4105
  537SOL     OW 1609   0.908   2.756   1.869 -0.2217  0.5546 -0.3357
  537SOL    HW1 1610   0.952   2.740   1.778  2.3611  0.8200 -0.0736
  537SOL    HW2 1611   0.960   2.705   1.941 -1.0048  0.7816 -2.6428
  538SOL     OW 1612   0.171   1.866   2.980  0.1048  0.1487 -0.0392
  538SOL    HW1 1613   0.159   1.829   3.072  2.2119  0.4851 -0.2429
  538SOL    HW2 1614   0.242   1.811   2.932 -0.9101 -2.5811 -3.4045
  539SOL     OW 1615   2.486   0.953   2.755  0.4845  0.4241 -0.1522
  539SOL    HW1 1616   2.412   0.904   2.709 -0.0878 -0.5505 -3.0660
  539SOL    HW2 1617   2.566   0.948   2.692 -2.5295  1.4746 -2.0834
  540SOL     OW 1618   1.965   0.175   2.568 -0.2788 -0.2874  0.1460
  540SOL    HW1 1619   1.946   0.200   2.665  1.4876 -0.3108 -1.3600
  540SOL    HW2 1620   2.034   0.236   2.528 -3.7940 -1.7945 -0.2828
  541SOL     OW 1621   0.658   0.023   2.218 -0.2726  0.3867  0.0130
  541SOL    HW1 1622   0.596   0.054   2.297 -2.9573  1.4827 -1.9362
  541SOL    HW2 1623   0.746   0.073   2.221  1.3848  0.5149  0.8946
  542SOL     OW 1624   1.994   2.776   3.026  0.0801  0.0876 -0.2522
  542SOL    HW1 1625   1.953   2.682   3.035  0.6058  0.4791  1.2898
  542SOL    HW2 1626   1.925   2.848   3.017  0.8384  1.0725  0.4888
  543SOL     OW 1627   1.138   0.217   0.460 -0.3438  0.4990 -0.0679
  543SOL    HW1 1628   1.205   0.267   0.401 -2.2610 -1.6865  1.3250
  543SOL    HW2 1629   1.056   0.184   0.406 -0.7187 -1.3191 -1.1990
  544SOL     OW 1630   2.467   1.267   1.936 -0.4268 -0.2527 -0.2153
  544SOL    HW1 1631   2.415   1.180   1.955 -2.1530  0.8985  0.6259
  544SOL    HW2 1632   2.547   1.277   2.001 -1.3892  1.5791 -0.5191
  545SOL     OW 1633   2.117   1.698   1.237  0.2869 -0.7195  0.6286
  545SOL    HW1 1634   2.211   1.733   1.201  0.5330 -1.3957 -0.5834
  545SOL    HW2 1635   2.113   1.602   1.263  2.2708 -0.1153 -0.1319
  546SOL     OW 1636   0.151   3.009   2.172  0.4152 -0.2050 -0.4718
  546SOL    HW1 1637   0.193   3.082   2.232 -3.7046 -0.2436 -0.9535
  546SOL    HW2 1638   0.157   2.915   2.213  0.6496 -2.0868  0.3185
  547SOL     OW 1639   1.463   0.562   0.844  0.8567 -0.3224 -0.2909
  547SOL    HW1 1640   1.373   0.606   0.874 -1.0128  0.0691  1.2458
  547SOL    HW2 1641   1.497   0.496   0.913  1.0000  1.7458 -1.2016
  548SOL     OW 1642   1.455   2.531   2.660  0.2396 -0.7012  0.0057
  548SOL    HW1 1643   1.424   2.446   2.706 -0.4051  2.3614  0.5111
  548SOL    HW2 1644   1.400   2.541   2.572 -0.9489 -1.8465  0.2783
  549SOL     OW 1645   2.166   0.360   0.054  0.1518 -0.5813  0.4701
  549SOL    HW1 1646   2.131   0.454   0.036  0.3800  1.7773 -0.8358
  549SOL    HW2 1647   2.220   0.358   0.139  1.1261 -1.8665 -0.4050
  550SOL     OW 1648   3.035   2.001   0.578  0.2425 -0.1686 -0.0784
  550SOL    HW1 1649   2.950   1.951   0.558 -0.3672 -1.2428  1.7451
  550SOL    HW2 1650   0.023   1.938   0.563 -1.8297  1.2417  0.3524
  551SOL     OW 1651   1.238   2.863   2.178 -0.3816 -0.7193  0.0350
  551SOL    HW1 1652   1.333   2.868   2.219  0.5137 -1.1298 -1.7212
  551SOL    HW2 1653   1.196   2.958   2.184  0.0901  1.0149  0.0834
  552SOL     OW 1654   0.006   2.211   2.456  0.1702  0.1139 -0.6688
  552SOL    HW1 1655   0.063   2.135   2.488 -1.4856 -0.4985 -0.6251
  552SOL    HW2 1656   3.001   2.186   2.452  0.6266 -1.8865  1.3467
  553SOL     OW 1657   0.199   0.276   0.817 -1.0116 -0.0276  0.2674
  553SOL    HW1 1658   0.113   0.232   0.777 -3.8857  1.1248 -1.5325
  553SOL    HW2 1659   0.288   0.254   0.765  1.8775 -1.4911  2.8940
  554SOL     OW 1660   2.146   2.190   1.720  0.3908 -0.4782  0.3722
  554SOL    HW1 1661   2.174   2.208   1.815  0.1877 -2.2787 -1.8028
  554SOL    HW2 1662   2.202   2.253   1.663  0.4382 -2.1619 -0.0594
  555SOL     OW 1663   1.714   2.339   2.194 -0.5357  0.5817 -0.0856
  555SOL    HW1 1664   1.718   2.252   2.243 -1.0814 -1.3955 -0.3700
  555SOL    HW2 1665   1.784   2.337   2.123 -4.5274 -0.2030 -0.0388
  556SOL     OW 1666   1.256   1.414   1.290  0.0544 -0.4141  0.1762
  556SOL    HW1 1667   1.249   1.471   1.208 -0.9730  3.0150  1.6900
  556SOL    HW2 1668   1.182   1.434   1.355  1.4970  0.6628 -0.9386
  557SOL     OW 1669   2.030   2.696   1.953 -0.0516  0.1844  0.6307
  557SOL    HW1 1670   2.124   2.709   1.995 -0.2718 -0.4751  0.6936
  557SOL    HW2 1671   1.972   2.774   1.978  2.7677 -2.2283 -1.1713
  558SOL     OW 1672   0.313   2.959   1.910  0.3313 -0.6251 -0.2637
  558SOL    HW1 1673   0.268   2.993   1.995  1.1316 -1.6212 -0.3211
  558SOL    HW2 1674   0.263   2.877   1.869 -0.3203 -4.8097 -2.1569
  559SOL     OW 1675   1.922   0.095   0.522  0.2240 -0.2143 -0.2601
  559SOL    HW1 1676   1.981   0.119   0.606  0.3883 -2.4987  0.2353
  559SOL    HW2 1677   1.904   0.181   0.470  0.6634  0.9040 -1.4269
  560SOL     OW 1678   1.635   2.887   0.686 -0.7587  0.3054  0.1158
  560SOL    HW1 1679   1.595   2.888   0.779 -0.9269  0.3030 -0.7739
  560SOL    HW2 1680   1.603   2.970   0.629 -0.2682 -0.0809 -1.9108
  561SOL     OW 1681   0.673   0.160   0.959 -0.1526  0.1315  0.1158
  561SOL    HW1 1682   0.677   0.264   0.961  0.7868 -0.9256 -1.7166
  561SOL    HW2 1683   0.731   0.125   0.880 -0.3700  0.0240  2.2227
  562SOL     OW 1684   0.460   0.917   2.401  0.3588 -0.2504 -0.3756
  562SOL    HW1 1685   0.392   0.983   2.363  1.6891 -1.0320  2.0825
  562SOL    HW2 1686   0.528   0.900   2.327 -2.4240  0.2221 -1.0861
  563SOL     OW 1687   1.827   2.268   2.490  0.5849 -0.0335 -0.4510
  563SOL    HW1 1688   1.897   2.227   2.550  0.7363 -1.1447  0.3972
  563SOL    HW2 1689   1.792   2.196   2.422 -0.4137 -1.6059  0.7618
  564SOL     OW 1690   2.734   1.213   1.113 -0.2360 -0.2490 -0.5147
  564SOL    HW1 1691   2.694   1.123   1.137 -2.9150  1.1213 -1.1228
  564SOL    HW2 1692   2.695   1.294   1.166 -0.4949  2.5838  1.0021
  565SOL     OW 1693   0.919   0.867   0.077 -0.3108  0.3336 -0.6254
  565SOL    HW1 1694   0.872   0.782   0.108 -2.2775 -2.2674 -1.9703
  565SOL    HW2 1695   0.870   0.906   3.089 -0.7414 -1.1680  1.2636
  566SOL     OW 1696   2.253   0.201   2.669  0.0973 -0.2156 -0.6643
  566SOL    HW1 1697   2.247   0.099   2.679  0.9360 -0.9054 -1.0866
  566SOL    HW2 1698   2.218   0.247   2.755  0.6218  2.7996 -2.2900
  567SOL     OW 1699   1.834   0.858   0.640 -0.1156 -0.7561 -0.0813
  567SOL    HW1 1700   1.812   0.958   0.630  1.4853 -0.8590  0.4047
  567SOL    HW2 1701   1.938   0.840   0.647 -1.2708  0.0568  0.1307
  568SOL     OW 1702   1.819   1.882   2.842 -0.0802  0.0015  0.0004
  568SOL    HW1 1703   1.719   1.869   2.839 -0.2505 -3.0902  2.0952
  568SOL    HW2 1704   1.854   1.792   2.807  1.3654 -4.7613 -2.5062
  569SOL     OW 1705   2.001   1.287   3.013  0.0060  0.1466  0.3406
  569SOL    HW1 1706   1.924   1.336   3.053  3.0324 -1.5622  1.5531
  569SOL    HW2 1707   2.062   1.252   3.085 -0.9253 -1.1910 -1.2780
  570SOL     OW 1708   0.303   2.274   1.844  0.0156 -0.3561 -0.2086
  570SOL    HW1 1709   0.372   2.261   1.768 -0.6524  1.7007 -0.9949
  570SOL    HW2 1710   0.286   2.372   1.862  2.6922  1.6118 -0.2720
  571SOL     OW 1711   0.175   1.097   1.851 -0.1394  0.2154 -0.4962
  571SOL    HW1 1712   0.153   1.028   1.773  2.4311 -3.6368 -1.1217
  571SOL    HW2 1713   0.105   1.172   1.850  1.0201  0.6594  1.5227
  572SOL     OW 1714   1.414   1.720   0.353  0.2724  0.0306 -0.1176
  572SOL    HW1 1715   1.458   1.633   0.331  0.2672 -0.3293 -0.0523
  572SOL    HW2 1716   1.424   1.786   0.274 -1.5493 -2.7130  0.6170
  573SOL     OW 1717   1.867   2.164   0.561  0.2594 -0.3328 -0.1418
  573SOL    HW1 1718   1.785   2.109   0.530  2.4449 -0.2544 -0.7823
  573SOL    HW2 1719   1.829   2.241   0.617  1.9306  1.6981  1.4214
  574SOL     OW 1720   0.777   0.058   1.227  0.0520  0.2272 -0.2478
  574SOL    HW1 1721   0.701   0.024   1.282 -0.8808 -0.2723 -1.7740
  574SOL    HW2 1722   0.736   0.075   1.135 -0.7168 -0.0509  0.7663
  575SOL     OW 1723   0.391   1.178   1.505 -0.5904 -0.2114 -0.2015
  575SOL    HW1 1724   0.475   1.228   1.537  2.8292 -0.2697 -0.6178
  575SOL    HW2 1725   0.393   1.153   1.405  1.3319 -2.8285  0.6090
  576SOL     OW 1726   2.753   2.915   1.091  0.2103  0.6765 -0.2918
  576SOL    HW1 1727   2.695   2.938   1.007 -0.7395 -0.1341 -2.2815
  576SOL    HW2 1728   2.742   2.980   1.163  0.2992 -1.1486 -1.4903
  577SOL     OW 1729   1.035   1.195   2.084 -0.3643  0.3258  0.1623
  577SOL    HW1 1730   1.017   1.200   1.983 -0.8405  0.9360 -1.1119
  577SOL    HW2 1731   0.985   1.113   2.119  2.6453 -3.6688  0.0601
  578SOL     OW 1732   1.845   1.018   2.390 -0.0361 -0.2713 -0.1581
  578SOL    HW1 1733   1.753   1.025   2.360  1.4313 -0.4594  0.2030
  578SOL    HW2 1734   1.873   1.093   2.449 -0.3695  0.0287 -1.4789
  579SOL     OW 1735   1.521   2.406   1.760 -0.0085  0.1712  0.1766
  579SOL    HW1 1736   1.621   2.413   1.759 -1.9740 -1.7399 -0.3145
  579SOL    HW2 1737   1.497   2.365   1.851  0.9676  3.3539 -1.4169
  580SOL     OW 1738   1.420   1.667   2.781  0.3614  0.2032  0.4929
  580SOL    HW1 1739   1.412   1.613   2.869 -1.1811 -0.6245 -0.9896
  580SOL    HW2 1740   1.338   1.657   2.724  2.2850 -1.8797 -0.6093
  581SOL     OW 1741   1.006   0.815   2.124 -0.0410 -0.4044 -0.2026
  581SOL    HW1 1742   0.951   0.890   2.156 -0.0781  0.9878  3.4367
  581SOL    HW2 1743   1.091   0.807   2.179 -0.1823  0.5999 -0.3671
  582SOL     OW 1744   0.886   1.276   1.397 -0.2278  0.4622 -0.5582
  582SOL    HW1 1745   0.796   1.322   1.383  3.0857 -1.5358  1.4948
  582SOL    HW2 1746   0.911   1.221   1.313  1.4763 -1.5930 -1.3587
  583SOL     OW 1747   0.979   1.235   1.817  0.1921 -0.2780 -0.0766
  583SOL    HW1 1748   1.019   1.215   1.727 -1.1952  0.0966 -1.7209
  583SOL    HW2 1749   0.905   1.300   1.813  3.9630 -2.6339 -1.0407
  584SOL     OW 1750   2.645   2.618   0.824 -0.6151  0.0702  0.1508
  584SOL    HW1 1751   2.599   2.567   0.897  1.1452 -0.5744 -2.5239
  584SOL    HW2 1752   2.648   2.563   0.742  1.0305  3.7661  1.1625
  585SOL     OW 1753   1.906   0.234   2.833 -0.3009  0.2505 -0.3100
  585SOL    HW1 1754   1.997   0.262   2.872 -0.4285 -0.3977  2.3425
  585SOL    HW2 1755   1.911   0.132   2.830 -0.0231 -0.9942  2.0188
  586SOL     OW 1756   0.170   2.211   0.996 -0.2767  0.0538 -0.0026
  586SOL    HW1 1757   0.105   2.198   0.918  0.1947  0.2310  1.2540
  586SOL    HW2 1758   0.137   2.279   1.063 -0.5028  1.3361  1.7059
  587SOL     OW 1759   1.652   1.632   0.067  0.3085  0.1596 -0.0035
  587SOL    HW1 1760   1.655   1.723   0.111 -0.3175  1.2035  0.1132
  587SOL    HW2 1761   1.574   1.625   0.002 -0.7153  3.4045 -1.6262
  588SOL     OW 1762   0.259   0.278   1.234 -0.4783  0.5483  0.2114
  588SOL    HW1 1763   0.344   0.311   1.189 -0.0192 -0.8962  2.6972
  588SOL    HW2 1764   0.261   0.303   1.333  2.3952  1.6202 -1.5770
  589SOL     OW 1765   1.257   0.173   0.913 -0.1824 -0.2348  0.4574
  589SOL    HW1 1766   1.205   0.239   0.851  0.2133  0.4682  2.1306
  589SOL    HW2 1767   1.229   0.183   1.011  1.9057 -0.4612  1.4005
  590SOL     OW 1768   1.129   0.875   2.873  0.3275 -0.4792 -0.1823
  590SOL    HW1 1769   1.203   0.926   2.821  3.5066  2.1114 -0.9151
  590SOL    HW2 1770   1.171   0.792   2.917 -3.8913 -0.2348 -2.5085
  591SOL     OW 1771   2.620   2.356   2.541  0.3446 -0.0776 -0.4210
  591SOL    HW1 1772   2.522   2.354   2.577  2.3400 -1.9673 -1.9568
  591SOL    HW2 1773   2.615   2.407   2.450 -0.5590 -1.7397 -4.6689
  592SOL     OW 1774   1.968   1.879   1.360 -0.6625  0.0518 -0.3161
  592SOL    HW1 1775   2.014   1.917   1.442  1.3606  1.3672 -1.3427
  592SOL    HW2 1776   2.020   1.802   1.315  0.8747 -0.7058  1.2783
  593SOL     OW 1777   0.999   0.685   1.426  0.1851  0.2286  0.3582
  593SOL    HW1 1778   0.907   0.707   1.394 -0.4059 -2.2949 -1.3212
  593SOL    HW2 1779   1.070   0.716   1.355  2.2250  0.4345 -1.9286
  594SOL     OW 1780   2.393   1.110   2.264 -0.0906 -0.1373 -0.1054
  594SOL    HW1 1781   2.387   1.077   2.166 -2.8114  0.6364  0.7087
  594SOL    HW2 1782   2.332   1.053   2.323  1.6149  0.7032 -2.3667
  595SOL     OW 1783   3.027   0.371   0.599  0.0684 -0.0569 -0.1162
  595SOL    HW1 1784   0.020   0.354   0.546 -0.1366  0.0224  1.8944
  595SOL    HW2 1785   3.012   0.293   0.663 -1.2414 -2.1422 -0.2785
  596SOL     OW 1786   3.053   1.491   1.035  0.3478  0.1126 -0.3499
  596SOL    HW1 1787   0.045   1.479   1.091 -1.2452 -0.4129  0.2128
  596SOL    HW2 1788   3.017   1.398   1.011  0.5698  1.9605 -1.8375
  597SOL     OW 1789   1.778   1.536   0.515 -0.5961  0.3446 -0.1282
  597SOL    HW1 1790   1.760   1.608   0.586  0.1639 -1.2421 -2.0614
  597SOL    HW2 1791   1.813   1.569   0.427 -1.5305 -0.1944  0.3204
  598SOL     OW 1792   0.478   2.615   1.750 -0.5421  0.1588 -0.6060
  598SOL    HW1 1793   0.434   2.678   1.680  0.0491  2.1440 -0.4656
  598SOL    HW2 1794   0.541   2.667   1.813 -2.3839  1.0916 -0.2646
  599SOL     OW 1795   2.749   1.221   2.621  0.0581  0.1562 -0.4677
  599SOL    HW1 1796   2.841   1.241   2.655 -0.3318 -1.5024  0.9248
  599SOL    HW2 1797   2.687   1.292   2.658 -0.3344 -2.1364 -0.0395
  600SOL     OW 1798   0.624   1.152   0.108  0.2332 -0.2712 -0.2402
  600SOL    HW1 1799   0.718   1.194   0.122  0.9496 -1.8996 -0.1023
  600SOL    HW2 1800   0.576   1.172   0.197  0.8264  2.0146  1.9706
  601SOL     OW 1801   0.599   0.937   0.898  0.1857  0.2344 -0.4242
  601SOL    HW1 1802   0.581   0.937   0.998 -0.2552  0.9438 -1.1637
  601SOL    HW2 1803   0.520   0.984   0.854  2.3920  0.9207  0.1656
  602SOL     OW 1804   1.433   2.323   0.501  0.4755 -0.4363  0.3877
  602SOL    HW1 1805   1.462   2.306   0.598  0.5748  0.6053 -0.5125
  602SOL    HW2 1806   1.518   2.353   0.450 -0.9715  0.0354 -2.2309
  603SOL     OW 1807   1.049   2.460   1.906 -0.6730 -0.1355  0.0070
  603SOL    HW1 1808   1.079   2.531   1.973  0.4631  0.4161  1.5181
  603SOL    HW2 1809   0.956   2.426   1.922  2.4257  1.2592 -0.4286
  604SOL     OW 1810   0.286   0.446   2.420 -0.7785  0.7267  0.2101
  604SOL    HW1 1811   0.216   0.375   2.438  3.2993  0.7426 -0.0884
  604SOL    HW2 1812   0.247   0.539   2.413 -0.3000 -1.8104  0.2085
  605SOL     OW 1813   2.590   1.195   1.465 -0.0951 -0.4414 -0.7319
  605SOL    HW1 1814   2.569   1.231   1.557 -0.1403 -2.0441  0.4803
  605SOL    HW2 1815   2.594   1.089   1.454  1.2961 -0.7983 -0.4133
  606SOL     OW 1816   0.756   1.703   2.591  0.1131 -0.1933  0.0880
  606SOL    HW1 1817   0.662   1.735   2.567 -0.3926 -1.4739  1.0616
  606SOL    HW2 1818   0.779   1.611   2.551  2.1695  0.5854  0.9618
  607SOL     OW 1819   0.485   3.060   0.126  0.3398  0.1974  0.2236
  607SOL    HW1 1820   0.511   2.986   0.061  0.9404 -2.3512  0.9651
  607SOL    HW2 1821   0.384   3.072   0.130  1.3140  1.5574  2.4576
  608SOL     OW 1822   2.338   1.556   2.127 -0.3742  0.2341  0.0732
  608SOL    HW1 1823   2.306   1.518   2.039  0.4513 -4.8317 -1.2909
  608SOL    HW2 1824   2.281   1.519   2.201 -0.0579  2.1937  3.5078
  609SOL     OW 1825   2.736   0.210   0.896 -0.4455  0.4943  0.0860
  609SOL    HW1 1826   2.773   0.118   0.879  3.1968  0.9833 -1.9821
  609SOL    HW2 1827   2.632   0.216   0.890 -2.9925  1.9805 -0.6743
  610SOL     OW 1828   0.309   2.669   0.418  0.0423  0.0774  0.1581
  610SOL    HW1 1829   0.400   2.664   0.464  0.3040  0.5944  0.4475
  610SOL    HW2 1830   0.322   2.682   0.315 -2.9174 -1.7633 -0.2783
  611SOL     OW 1831   1.660   1.172   0.102 -0.3631  0.0505 -0.3980
  611SOL    HW1 1832   1.707   1.108   0.169 -1.9389 -1.8175  0.4769
  611SOL    HW2 1833   1.602   1.234   0.151  1.6055  1.9496 -0.0229
  612SOL     OW 1834   0.707   2.460   1.745  0.2035 -0.3709 -0.1755
  612SOL    HW1 1835   0.750   2.450   1.842  1.3842 -0.4841 -0.1010
  612SOL    HW2 1836   0.615   2.506   1.752  1.4207  1.4511 -0.5928
  613SOL     OW 1837   0.563   2.650   0.547  0.1272 -0.0403  0.2584
  613SOL    HW1 1838   0.555   2.644   0.648 -3.0593  0.4463 -1.8226
  613SOL    HW2 1839   0.658   2.664   0.519  0.4714 -0.4717 -0.1473
  614SOL     OW 1840   2.297   2.763   1.546 -0.0366 -0.3622 -0.2362
  614SOL    HW1 1841   2.354   2.778   1.628 -0.0523 -0.4472 -0.4245
  614SOL    HW2 1842   2.243   2.680   1.560  1.2993 -0.2253 -0.5875
  615SOL     OW 1843   1.780   0.987   0.268  0.4585 -0.1704 -0.2847
  615SOL    HW1 1844   1.706   0.991   0.337  1.0903 -0.5156  1.7157
  615SOL    HW2 1845   1.855   0.917   0.287 -0.9006 -2.2576 -3.1598
  616SOL     OW 1846   2.006   0.814   0.305  0.4959 -0.4424  0.1690
  616SOL    HW1 1847   2.081   0.883   0.304 -1.2542 -2.3597  1.9229
  616SOL    HW2 1848   2.011   0.739   0.237  1.0593  0.1660  0.4691
  617SOL     OW 1849   0.965   0.654   2.837 -0.0565  0.0855 -0.4090
  617SOL    HW1 1850   1.016   0.739   2.858 -1.1843 -0.9616  0.4846
  617SOL    HW2 1851   1.010   0.574   2.884 -0.4451  3.5797  1.1674
  618SOL     OW 1852   0.964   2.987   2.023 -0.0477  0.1771  0.3767
  618SOL    HW1 1853   0.988   2.911   1.955  0.5336 -1.9499 -3.2522
  618SOL    HW2 1854   0.942   3.072   1.972 -0.5528  3.5372 -0.6957
  619SOL     OW 1855   2.845   1.410   1.413 -0.1649 -0.4742  0.2991
  619SOL    HW1 1856   2.885   1.505   1.403 -0.2412  2.6519  0.3704
  619SOL    HW2 1857   2.744   1.426   1.401  0.5512  1.1108  0.6697
  620SOL     OW 1858   3.050   0.827   2.977 -0.1094 -0.1153 -0.1119
  620SOL    HW1 1859   0.009   0.739   2.977 -0.2621  2.3000 -2.7552
  620SOL    HW2 1860   0.022   0.906   2.947  2.3858  3.5497  0.9925
  621SOL     OW 1861   2.256   1.822   2.087 -0.0611  0.5441 -0.0284
  621SOL    HW1 1862   2.299   1.739   2.122 -2.5738  0.2429 -0.0917
  621SOL    HW2 1863   2.167   1.809   2.044  2.1544 -2.4930 -2.8877
  622SOL     OW 1864   1.100   0.465   2.014  0.3140  0.0782  1.0139
  622SOL    HW1 1865   1.045   0.489   2.096  2.4175  0.9067 -1.2179
  622SOL    HW2 1866   1.190   0.521   2.016 -0.1946  1.9894 -0.0670
  623SOL     OW 1867   0.848   1.036   2.203 -0.4901  0.1008  0.3689
  623SOL    HW1 1868   0.764   1.005   2.162  2.7275 -0.1490  0.3770
  623SOL    HW2 1869   0.844   1.015   2.303  0.9544  1.5700 -0.3832
  624SOL     OW 1870   2.883   0.782   0.279  0.1489  0.1041 -0.4337
  624SOL    HW1 1871   2.836   0.809   0.367  0.5374  1.0921 -0.4000
  624SOL    HW2 1872   2.955   0.716   0.301  1.8429  4.6870  1.5343
  625SOL     OW 1873   0.945   1.624   0.814  0.2926  0.1234  0.3141
  625SOL    HW1 1874   0.857   1.678   0.810  0.2999 -1.3659  0.0644
  625SOL    HW2 1875   1.008   1.668   0.884 -0.0554  1.9387 -1.7743
  626SOL     OW 1876   1.935   0.769   2.510 -0.6618 -0.0176 -0.1963
  626SOL    HW1 1877   2.009   0.793   2.579 -2.5991 -0.7529  1.4131
  626SOL    HW2 1878   1.910   0.851   2.454  0.5408  0.5223  0.8379
  627SOL     OW 1879   1.311   2.837   2.861  0.1150  0.0720  0.0441
  627SOL    HW1 1880   1.356   2.912   2.912  2.8866 -1.6984  0.5363
  627SOL    HW2 1881   1.348   2.829   2.768 -0.9987 -0.6083 -0.0707
  628SOL     OW 1882   2.284   2.956   2.182  0.0633 -0.1157  1.0076
  628SOL    HW1 1883   2.305   3.017   2.260 -1.6816 -1.9981  1.5069
  628SOL    HW2 1884   2.268   3.016   2.102  0.3327 -1.6964 -0.2211
  629SOL     OW 1885   0.705   0.124   2.803 -0.4747 -0.4084 -0.0552
  629SOL    HW1 1886   0.608   0.133   2.803  0.5013 -0.5006  0.2915
  629SOL    HW2 1887   0.752   0.215   2.809 -0.4771  1.8492 -2.7055
  630SOL     OW 1888   0.936   0.364   2.579 -0.4339  0.0453 -0.4140
  630SOL    HW1 1889   0.975   0.279   2.534  0.0302  0.1927 -1.4417
  630SOL    HW2 1890   0.912   0.355   2.681 -2.0871 -0.9729  1.1026
  631SOL     OW 1891   2.114   1.244   0.634  0.3394 -0.8463 -0.0019
  631SOL    HW1 1892   2.015   1.267   0.659 -1.5712  0.3277 -1.0005
  631SOL    HW2 1893   2.164   1.320   0.594  0.8787 -1.8433 -0.4530
  632SOL     OW 1894   2.013   0.851   1.540 -0.6806 -0.7183 -0.0969
  632SOL    HW1 1895   2.049   0.916   1.472  0.8406  0.6405  2.4792
  632SOL    HW2 1896   1.980   0.767   1.490  0.1234  0.4200 -0.1824
  633SOL     OW 1897   1.108   1.643   3.063  0.3448  0.3256  0.2397
  633SOL    HW1 1898   1.076   1.666   2.967 -0.8572 -1.4744  0.6491
  633SOL    HW2 1899   1.122   1.732   0.024 -3.2771  1.3018  1.0574
  634SOL     OW 1900   2.597   2.943   1.594  0.5128 -0.3105 -0.1520
  634SOL    HW1 1901   2.512   2.941   1.536 -0.4064 -1.6181 -3.2210
  634SOL    HW2 1902   2.579   2.991   1.681  0.4110  0.8100 -0.0973
  635SOL     OW 1903   1.754   0.292   0.909 -0.2944  0.0674  0.5477
  635SOL    HW1 1904   1.781   0.316   0.814 -0.2286 -0.0765  1.2459
  635SOL    HW2 1905   1.723   0.195   0.912  0.5763  2.1819  1.7889
  636SOL     OW 1906   0.893   1.235   0.116 -0.4461  0.5379  0.8097
  636SOL    HW1 1907   0.885   1.336   0.108 -1.8641  0.9574 -0.8029
  636SOL    HW2 1908   0.982   1.200   0.092 -3.6999  1.3089  1.2267
  637SOL     OW 1909   2.767   2.259   2.971 -0.5196 -0.0442  0.0664
  637SOL    HW1 1910   2.782   2.291   3.069 -4.2564  0.6008  2.2819
  637SOL    HW2 1911   2.809   2.167   2.956  2.9810  1.7713 -0.3538
  638SOL     OW 1912   1.675   2.679   2.781  0.2013 -0.0567 -0.0260
  638SOL    HW1 1913   1.642   2.774   2.761  0.3372 -3.0892  2.2483
  638SOL    HW2 1914   1.624   2.615   2.719 -1.4302 -1.0919  0.3875
  639SOL     OW 1915   1.374   1.823   1.329  0.5469  0.2698 -0.5903
  639SOL    HW1 1916   1.294   1.766   1.305  0.0228  1.1521  0.0746
  639SOL    HW2 1917   1.460   1.784   1.285  3.8806 -0.9959 -1.4832
  640SOL     OW 1918   2.142   2.803   0.600 -0.0370 -0.1401  0.4795
  640SOL    HW1 1919   2.054   2.847   0.595 -0.2683 -1.6477 -1.2268
  640SOL    HW2 1920   2.126   2.708   0.639 -0.4674  1.2720  0.7099
  641SOL     OW 1921   2.954   0.064   3.004 -0.0012  0.8297  0.2161
  641SOL    HW1 1922   2.861   0.101   3.009  0.1347  0.3081 -2.8007
  641SOL    HW2 1923   3.014   0.119   3.062 -1.4174 -0.0491 -2.8290
  642SOL     OW 1924   2.888   0.799   1.222 -0.8816 -0.4359  0.0765
  642SOL    HW1 1925   2.815   0.857   1.184  0.3239 -0.9771  0.6148
  642SOL    HW2 1926   2.960   0.848   1.276  3.0911 -0.9248 -1.1205
  643SOL     OW 1927   0.793   1.647   2.038  0.2973 -0.0856 -0.4742
  643SOL    HW1 1928   0.728   1.681   2.109 -1.9904  2.7466 -2.7999
  643SOL    HW2 1929   0.835   1.720   1.979 -0.9359 -1.4144 -1.3997
  644SOL     OW 1930   1.770   2.325   0.742 -0.1578 -0.1056  0.2707
  644SOL    HW1 1931   1.821   2.294   0.822  1.3547 -1.0644 -1.7059
  644SOL    HW2 1932   1.784   2.424   0.738 -0.5851  2.1888  0.8707
  645SOL     OW 1933   2.116   2.057   0.961 -0.0892 -0.0378  0.0697
  645SOL    HW1 1934   2.048   2.122   0.926  1.4930 -0.0887 -0.0202
  645SOL    HW2 1935   2.094   1.957   0.945 -2.5395  1.1519 -0.9861
  646SOL     OW 1936   0.947   2.601   2.909  0.8320  0.4755 -0.1307
  646SOL    HW1 1937   1.042   2.605   2.931 -0.4901 -3.1433  1.3918
  646SOL    HW2 1938   0.903   2.521   2.955 -4.1502  1.3468 -1.1232
  647SOL     OW 1939   0.646   2.741   1.925 -0.2908 -0.2864  0.1461
  647SOL    HW1 1940   0.640   2.846   1.935  2.0373  0.9312 -1.8413
  647SOL    HW2 1941   0.737   2.722   1.878  3.4060 -0.8196 -0.4559
  648SOL     OW 1942   1.713   0.442   1.809 -0.4852  0.1635  0.2435
  648SOL    HW1 1943   1.739   0.519   1.748 -0.9203  1.7904  1.3902
  648SOL    HW2 1944   1.711   0.479   1.904  2.3224  1.8597 -2.7919
  649SOL     OW 1945   1.637   2.099   0.367 -0.0231  0.4943  0.0785
  649SOL    HW1 1946   1.612   2.005   0.399  1.9699  1.0981  2.3432
  649SOL    HW2 1947   1.559   2.152   0.339  1.1071  0.2796 -2.1921
  650SOL     OW 1948   2.031   1.796   1.965 -0.5166 -0.2024 -0.5163
  650SOL    HW1 1949   1.979   1.713   1.998  2.0112 -0.1565  2.0141
  650SOL    HW2 1950   2.060   1.776   1.873 -1.8865  2.0361  4.3143
  651SOL     OW 1951   1.639   2.521   0.042 -0.3376  0.1002 -0.4243
  651SOL    HW1 1952   1.617   2.617   0.053 -0.1538 -5.2862  0.7459
  651SOL    HW2 1953   1.710   2.515   3.060 -1.8043  0.2637  2.3038
  652SOL     OW 1954   0.607   2.148   0.280  0.3539  0.2686  0.1296
  652SOL    HW1 1955   0.554   2.067   0.308  0.3266 -2.3989 -0.9410
  652SOL    HW2 1956   0.577   2.227   0.337  0.0202 -4.0778 -3.1693
  653SOL     OW 1957   2.548   2.321   1.353 -0.0062  0.6948  0.4984
  653SOL    HW1 1958   2.458   2.269   1.365 -1.3105  2.1107 -0.3438
  653SOL    HW2 1959   2.517   2.418   1.345 -1.3620  0.6689 -2.1259
  654SOL     OW 1960   2.900   2.522   1.655  0.1186 -0.0709 -0.1909
  654SOL    HW1 1961   2.825   2.589   1.630 -1.5367  1.8740 -1.5352
  654SOL    HW2 1962   2.858   2.431   1.641  0.5251  1.0241  0.5548
  655SOL     OW 1963   3.018   1.977   1.214  0.1131  0.0515 -0.9010
  655SOL    HW1 1964   3.048   1.902   1.278  0.9214  0.7671 -0.4474
  655SOL    HW2 1965   2.978   2.058   1.263  0.5247 -0.8235  0.9347
  656SOL     OW 1966   3.070   2.833   2.487  0.0207  0.2904  0.1352
  656SOL    HW1 1967   2.989   2.892   2.458  0.0229  0.7160  0.7482
  656SOL    HW2 1968   0.037   2.819   2.399  0.5306  2.2146 -3.9587
  657SOL     OW 1969   2.884   1.349   3.007 -0.0004 -0.1320 -0.0973
  657SOL    HW1 1970   2.810   1.297   3.059  1.0807  2.5235  0.5625
  657SOL    HW2 1971   2.850   1.426   2.959  2.7531 -3.9240  2.1928
  658SOL     OW 1972   1.712   1.738   0.699  1.0469 -0.2180 -0.1482
  658SOL    HW1 1973   1.675   1.809   0.639 -1.8474  0.5129  0.7460
  658SOL    HW2 1974   1.729   1.770   0.794 -0.1562  0.0879  1.1846
  659SOL     OW 1975   1.202   0.763   1.267 -0.6528  0.2142  0.0207
  659SOL    HW1 1976   1.257   0.823   1.204 -1.3458  0.6721  0.3175
  659SOL    HW2 1977   1.236   0.667   1.264  0.3239 -0.9287  0.5278
  660SOL     OW 1978   1.464   1.519   2.991 -0.1965  0.1937  0.3142
  660SOL    HW1 1979   1.396   1.470   3.046  0.9149 -0.7924 -0.1725
  660SOL    HW2 1980   1.524   1.449   2.949 -1.4866  0.9019 -0.4113
  661SOL     OW 1981   0.276   2.275   0.507 -0.1172 -0.0331 -0.0974
  661SOL    HW1 1982   0.205   2.344   0.492 -0.5565 -2.7723  0.9268
  661SOL    HW2 1983   0.361   2.326   0.526  0.5158  0.7093 -1.2732
  662SOL     OW 1984   0.182   0.738   2.211 -0.1640 -0.1003 -0.3354
  662SOL    HW1 1985   0.224   0.746   2.307  1.4361 -0.5065  0.5046
  662SOL    HW2 1986   0.109   0.671   2.208 -1.6078  0.8159 -2.0924
  663SOL     OW 1987   1.820   1.384   0.935  0.2485  0.2469  0.6132
  663SOL    HW1 1988   1.719   1.373   0.920 -1.2041  2.1647 -0.1210
  663SOL    HW2 1989   1.865   1.296   0.956 -0.3058  0.3360  1.2870
  664SOL     OW 1990   0.858   0.926   1.047  0.0654 -0.0002  1.0317
  664SOL    HW1 1991   0.848   0.874   1.134  3.4289  1.5674  0.6915
  664SOL    HW2 1992   0.770   0.929   0.997 -1.1186  0.0846 -2.6645
  665SOL     OW 1993   1.089   3.018   2.846  0.2143 -0.1096  0.3327
  665SOL    HW1 1994   1.111   3.084   2.918 -0.7721  2.0392 -0.4794
  665SOL    HW2 1995   1.167   2.956   2.829 -1.4928 -0.1318  0.1940
  666SOL     OW 1996   2.926   0.017   2.596  0.1011 -0.1775 -0.2835
  666SOL    HW1 1997   3.004   0.020   2.662  0.7486  1.4872  5.5003
  666SOL    HW2 1998   2.848   0.078   2.622 -0.3031 -0.2580 -0.9357
  667SOL     OW 1999   2.087   1.328   2.107 -0.1372 -0.1418 -0.2649
  667SOL    HW1 2000   2.066   1.408   2.165 -2.2636 -1.3716 -1.5168
  667SOL    HW2 2001   2.094   1.350   2.006 -0.7105 -0.1653 -2.0645
  668SOL     OW 2002   0.557   1.212   2.511 -0.2067 -0.1163 -0.1164
  668SOL    HW1 2003   0.484   1.269   2.555 -3.5630 -2.0849 -2.3278
  668SOL    HW2 2004   0.524   1.118   2.501 -0.7970  0.1932  1.9622
  669SOL     OW 2005   1.948   2.435   2.733 -0.0258 -0.1548 -0.3647
  669SOL    HW1 2006   1.925   2.339   2.716  2.0881 -1.9123  1.2547
  669SOL    HW2 2007   2.043   2.439   2.774 -1.8215 -1.9771  2.3772
  670SOL     OW 2008   2.062   1.096   2.254 -0.5089 -0.2579  0.7562
  670SOL    HW1 2009   1.969   1.072   2.289 -0.4055 -0.0346 -0.1119
  670SOL    HW2 2010   2.062   1.183   2.195  1.0477  1.4220 -0.7104
  671SOL     OW 2011   2.467   1.469   0.032 -0.3027 -0.1725  0.2457
  671SOL    HW1 2012   2.498   1.395   0.092 -1.1267  0.9513 -0.7824
  671SOL    HW2 2013   2.383   1.446   3.070  2.6064 -0.5552  2.4867
  672SOL     OW 2014   2.742   0.922   1.974  0.5856 -0.5187 -0.0885
  672SOL    HW1 2015   2.722   0.828   1.939 -1.1221 -1.2065  2.5569
  672SOL    HW2 2016   2.756   0.991   1.904 -0.3273 -2.8366  0.5733
  673SOL     OW 2017   2.634   0.913   1.437 -0.2407 -0.0464  0.2583
  673SOL    HW1 2018   2.720   0.921   1.492 -0.1033 -0.0391  2.5700
  673SOL    HW2 2019   2.587   0.826   1.452  1.4227  0.9191 -4.3830
  674SOL     OW 2020   1.944   2.046   2.028  0.1040 -0.4379 -0.1210
  674SOL    HW1 2021   1.982   1.955   2.001 -0.1500  0.6820 -0.2290
  674SOL    HW2 2022   1.847   2.058   1.997 -1.5537 -0.7324  1.4884
  675SOL     OW 2023   0.381   0.676   0.977 -0.1061  0.1855  0.2197
  675SOL    HW1 2024   0.481   0.657   0.958  1.1283  0.8636  0.8969
  675SOL    HW2 2025   0.367   0.695   1.075 -3.9854 -0.5890 -0.8740
  676SOL     OW 2026   1.739   1.118   1.220  0.1397 -0.3071 -0.0471
  676SOL    HW1 2027   1.759   1.196   1.281 -2.3309 -0.4512  0.2473
  676SOL    HW2 2028   1.811   1.046   1.234  3.6086 -1.3659  0.8454
  677SOL     OW 2029   2.137   1.438   2.515  0.0219  0.3890  0.2863
  677SOL    HW1 2030   2.152   1.521   2.567  0.2374 -4.5789 -1.8428
  677SOL    HW2 2031   2.226   1.407   2.483  0.6587  1.7804  0.0024
  678SOL     OW 2032   0.044   1.536   0.749 -0.5552  0.0919 -0.3940
  678SOL    HW1 2033   0.043   1.558   0.849  0.0385 -1.4500 -0.1025
  678SOL    HW2 2034   0.011   1.614   0.700  1.3796 -1.7969  5.5400
  679SOL     OW 2035   2.965   2.610   0.553 -0.3205 -0.1599 -0.6738
  679SOL    HW1 2036   2.899   2.644   0.485 -2.7353  1.5292 -0.8639
  679SOL    HW2 2037   2.955   2.653   0.642 -0.9908  2.5121 -4.0177
  680SOL     OW 2038   0.034   2.338   1.199 -0.1583  0.0964 -0.1319
  680SOL    HW1 2039   0.110   2.345   1.265 -1.3747  3.6866 -2.0234
  680SOL    HW2 2040   3.044   2.290   1.244  1.0850 -1.3644  0.2922
  681SOL     OW 2041   0.450   1.350   1.169 -0.2435  0.3650  0.0025
  681SOL    HW1 2042   0.532   1.379   1.222 -0.1258 -0.8436 -2.1641
  681SOL    HW2 2043   0.365   1.398   1.199 -1.2611  1.5436  1.4744
  682SOL     OW 2044   1.577   2.840   0.958 -0.1886 -0.4895  0.3747
  682SOL    HW1 2045   1.599   2.848   1.057 -0.2044  1.5695  2.4800
  682SOL    HW2 2046   1.479   2.830   0.941  0.3867 -1.7282  0.5048
  683SOL     OW 2047   2.239   1.323   1.061  0.4117 -0.1530 -0.0782
  683SOL    HW1 2048   2.320   1.359   1.013 -0.3835  0.1359 -1.1716
  683SOL    HW2 2049   2.261   1.237   1.108 -0.8662 -2.3987 -0.4307
  684SOL     OW 2050   0.659   2.122   1.964 -0.0172 -0.4024  0.9577
  684SOL    HW1 2051   0.644   2.154   1.870 -2.1512 -0.1684  0.8986
  684SOL    HW2 2052   0.572   2.087   1.999 -0.6164  0.1757 -3.7776
  685SOL     OW 2053   2.153   1.475   0.231 -0.2321 -0.0008 -0.0597
  685SOL    HW1 2054   2.199   1.548   0.171  2.5257  1.2305  0.3542
  685SOL    HW2 2055   2.069   1.513   0.275 -2.6703  0.9856  0.6605
  686SOL     OW 2056   0.002   0.685   0.665  0.0970 -0.0546  0.5252
  686SOL    HW1 2057   3.029   0.619   0.630  4.3150  1.1561 -2.1130
  686SOL    HW2 2058   0.101   0.652   0.671  2.8508 -1.5572  2.8264
  687SOL     OW 2059   1.208   2.971   0.229 -0.3305 -0.1845  0.2475
  687SOL    HW1 2060   1.168   2.976   0.320 -0.3665  0.8442 -0.8218
  687SOL    HW2 2061   1.162   2.894   0.177 -1.0677  0.3713 -1.4731
  688SOL     OW 2062   2.000   1.787   2.345  0.2952  0.2223 -0.5843
  688SOL    HW1 2063   1.940   1.721   2.402 -0.5456  0.3973  3.2433
  688SOL    HW2 2064   1.946   1.855   2.296  0.0778  0.1910  1.3491
  689SOL     OW 2065   2.642   0.729   2.181  0.0313 -0.3438 -1.1893
  689SOL    HW1 2066   2.606   0.820   2.154 -1.8686  0.4703 -1.4474
  689SOL    HW2 2067   2.620   0.710   2.280 -1.0018 -1.2752  4.5615
  690SOL     OW 2068   1.537   0.426   1.073  0.2953  0.1813  0.3991
  690SOL    HW1 2069   1.507   0.358   1.144 -0.5227 -0.8656 -0.4157
  690SOL    HW2 2070   1.610   0.379   1.015  0.7474  2.2145  2.0262
  691SOL     OW 2071   0.990   1.909   1.498 -0.1021 -0.2685 -0.2277
  691SOL    HW1 2072   1.040   1.842   1.432 -1.8948  0.8121  2.1437
  691SOL    HW2 2073   1.057   1.957   1.557 -0.2338 -1.1264 -0.0096
  692SOL     OW 2074   1.626   0.209   1.883  0.1895 -0.2506  0.2212
  692SOL    HW1 2075   1.644   0.288   1.825 -1.5544  0.0845  2.7065
  692SOL    HW2 2076   1.533   0.170   1.857 -4.6285 -0.3490  0.7297
  693SOL     OW 2077   0.492   1.012   2.983  0.0112  0.2043  0.1084
  693SOL    HW1 2078   0.542   1.074   3.048  0.3741 -1.4047 -1.4393
  693SOL    HW2 2079   0.559   0.954   2.935 -0.4381  1.7867  1.7063
  694SOL     OW 2080   2.079   2.516   0.995 -0.0644 -0.0945 -0.1593
  694SOL    HW1 2081   2.109   2.600   1.044  0.4987  0.2888  0.1609
  694SOL    HW2 2082   2.067   2.537   0.897 -0.1796  0.7964 -0.5348
  695SOL     OW 2083   1.484   1.402   2.522  0.2371 -0.4726 -0.8870
  695SOL    HW1 2084   1.435   1.491   2.537 -1.5940 -0.6493  0.5377
  695SOL    HW2 2085   1.411   1.334   2.497 -0.2421 -1.3994 -0.2958
  696SOL     OW 2086   1.315   0.485   1.429 -0.3767  0.4061  0.1976
  696SOL    HW1 2087   1.318   0.387   1.448  0.8291  1.8791  1.4425
  696SOL    HW2 2088   1.408   0.527   1.436  0.7297 -0.3033 -1.2806
  697SOL     OW 2089   1.333   0.152   1.856  0.4746  0.1429  0.5158
  697SOL    HW1 2090   1.372   0.060   1.839 -2.5705 -0.6266 -0.2034
  697SOL    HW2 2091   1.336   0.174   1.953 -0.5230 -1.2867 -0.2205
  698SOL     OW 2092   1.740   1.403   2.465 -0.1570 -0.2007  0.3089
  698SOL    HW1 2093   1.739   1.402   2.358  0.6157  1.3147 -3.8146
  698SOL    HW2 2094   1.646   1.406   2.505  0.3783 -1.4140 -2.4311
  699SOL     OW 2095   1.548   1.254   1.478 -0.3739  0.5070  0.2441
  699SOL    HW1 2096   1.593   1.180   1.531  0.5153 -3.4989 -1.7889
  699SOL    HW2 2097   1.461   1.222   1.442  1.9949 -1.5638 -1.7216
  700SOL     OW 2098   1.619   0.138   0.313 -0.1682 -0.6204  0.4377
  700SOL    HW1 2099   1.586   0.216   0.369 -2.0634  1.5272  0.9490
  700SOL    HW2 2100   1.600   0.055   0.368 -1.9928  2.0506  1.2216
  701SOL     OW 2101   0.266   3.053   1.634  1.1823  0.0206 -0.2949
  701SOL    HW1 2102   0.238   2.993   1.715 -0.0023  1.3724  2.4106
  701SOL    HW2 2103   0.219   3.033   1.550  0.1991  1.2519  1.5008
  702SOL     OW 2104   1.279   2.789   0.888 -0.1854 -0.4010 -0.0045
  702SOL    HW1 2105   1.260   2.758   0.980 -0.3590  2.2197 -1.9825
  702SOL    HW2 2106   1.293   2.708   0.828 -0.3529  1.5729  0.2986
  703SOL     OW 2107   2.493   0.125   1.867  0.0372  0.3949 -0.3329
  703SOL    HW1 2108   2.443   0.203   1.827 -0.3935 -4.0778  0.0345
  703SOL    HW2 2109   2.596   0.138   1.857 -0.4329  0.7198 -1.3002
  704SOL     OW 2110   1.196   1.999   1.074  0.1217  0.6310  0.1768
  704SOL    HW1 2111   1.157   2.045   1.156  0.2831 -2.0446 -2.3717
  704SOL    HW2 2112   1.293   2.020   1.063  0.7495  2.4872  2.8649
  705SOL     OW 2113   2.800   1.489   1.871  0.3043 -0.5649 -0.0830
  705SOL    HW1 2114   2.703   1.493   1.903 -0.1775 -1.8170  2.3834
  705SOL    HW2 2115   2.814   1.424   1.794  0.3265  1.4925 -0.8477
  706SOL     OW 2116   1.187   3.049   0.547 -0.2418 -0.2882 -1.3313
  706SOL    HW1 2117   1.204   0.057   0.524  0.5712  3.6325  0.4935
  706SOL    HW2 2118   1.192   3.028   0.649  0.2290  0.2114  2.8464
  707SOL     OW 2119   1.053   2.537   2.333  0.0773 -0.5277 -0.1568
  707SOL    HW1 2120   0.955   2.551   2.317  2.4180 -2.4981 -1.0019
  707SOL    HW2 2121   1.071   2.440   2.340  1.9728  1.2672  0.4203
  708SOL     OW 2122   0.196   2.382   1.427 -0.4267  0.4751  0.3062
  708SOL    HW1 2123   0.177   2.303   1.491 -1.1668  0.0893 -0.5470
  708SOL    HW2 2124   0.283   2.433   1.454 -0.1486  0.7489 -1.4674
  709SOL     OW 2125   2.063   0.619   1.935 -0.2146  0.0015  0.5722
  709SOL    HW1 2126   1.992   0.588   2.000 -0.1209 -0.7495 -1.9443
  709SOL    HW2 2127   2.071   0.557   1.855  0.2280  2.1460 -1.8212
  710SOL     OW 2128   2.616   0.501   1.527 -0.5989  0.0725 -0.3811
  710SOL    HW1 2129   2.614   0.399   1.538 -0.0356  2.0210 -2.3343
  710SOL    HW2 2130   2.666   0.532   1.443 -1.8690  1.2953 -1.9767
  711SOL     OW 2131   0.116   2.791   0.559 -0.4212  0.4316  0.0590
  711SOL    HW1 2132   0.194   2.743   0.510  1.0924  0.5664 -3.0155
  711SOL    HW2 2133   0.028   2.751   0.531  0.4764  1.2827 -0.0726
  712SOL     OW 2134   0.343   2.396   2.436  0.2342 -0.0909  0.4755
  712SOL    HW1 2135   0.359   2.488   2.388  1.9525  2.0608 -1.1303
  712SOL    HW2 2136   0.261   2.403   2.496 -0.1424  0.4610 -2.7760
  713SOL     OW 2137   1.601   0.746   0.177  0.0206  0.3595 -0.5535
  713SOL    HW1 2138   1.619   0.726   0.273  0.1807  1.9837  0.1395
  713SOL    HW2 2139   1.686   0.770   0.127 -0.8011  1.8740  0.4024
  714SOL     OW 2140   1.566   1.883   0.500  0.1657 -0.0283  0.2553
  714SOL    HW1 2141   1.497   1.923   0.560  2.7575 -2.6200 -2.0419
  714SOL    HW2 2142   1.518   1.802   0.452 -0.1052 -2.9744 -2.5662
  715SOL     OW 2143   2.858   0.176   0.457  0.4172 -0.3244 -0.2896
  715SOL    HW1 2144   2.764   0.142   0.486 -0.2768 -1.2178 -1.3304
  715SOL    HW2 2145   2.884   0.263   0.504  4.6636  1.4505  0.0506
  716SOL     OW 2146   0.490   0.119   2.417 -0.0389 -0.0195  0.4871
  716SOL    HW1 2147   0.490   0.186   2.491 -0.2709 -0.3667  1.4204
  716SOL    HW2 2148   0.491   0.019   2.448  2.8685 -0.9907  0.5535
  717SOL     OW 2149   0.081   0.606   2.891  0.0136 -0.3506  0.2545
  717SOL    HW1 2150   0.129   0.557   2.813  1.8596  0.5493 -0.4893
  717SOL    HW2 2151   3.079   0.561   2.903  0.3446  2.5152 -0.2864
  718SOL     OW 2152   1.160   0.567   0.397  0.3906  0.7113  0.1181
  718SOL    HW1 2153   1.213   0.530   0.477 -0.6162 -0.5318 -0.4127
  718SOL    HW2 2154   1.208   0.552   0.311  1.2868  2.1431  1.2478
  719SOL     OW 2155   2.753   2.452   2.779  0.4256 -0.3699 -0.0309
  719SOL    HW1 2156   2.704   2.428   2.694  0.7049  1.8897  2.2131
  719SOL    HW2 2157   2.746   2.379   2.853  2.3052  0.1900 -0.9393
  720SOL     OW 2158   1.795   0.661   1.656  0.2188 -0.4856  0.2276
  720SOL    HW1 2159   1.881   0.710   1.628  0.9183  1.1861 -1.0499
  720SOL    HW2 2160   1.737   0.735   1.697 -1.0063 -0.5630  3.2064
  721SOL     OW 2161   2.833   0.673   0.925  0.0114  0.1554  0.1812
  721SOL    HW1 2162   2.855   0.588   0.871 -0.4377  1.6698 -0.9268
  721SOL    HW2 2163   2.882   0.665   1.014  1.6595 -2.5797 -1.6026
  722SOL     OW 2164   1.402   2.228   2.389  0.5707 -0.0970  0.4129
  722SOL    HW1 2165   1.371   2.322   2.411 -0.7567 -1.9178  0.7498
  722SOL    HW2 2166   1.464   2.198   2.459 -2.4080  2.2484 -2.2696
  723SOL     OW 2167   0.690   0.401   0.516  0.6305  0.3996  0.2090
  723SOL    HW1 2168   0.746   0.482   0.529  3.6532  0.9764  0.5956
  723SOL    HW2 2169   0.596   0.422   0.551  0.2721  1.6527  1.8008
  724SOL     OW 2170   1.126   2.069   2.093 -0.2452 -0.6173  0.4205
  724SOL    HW1 2171   1.125   2.024   2.000 -0.7364  1.8913 -0.8872
  724SOL    HW2 2172   1.047   2.136   2.099 -0.8612  4.0417 -0.2324
  725SOL     OW 2173   0.258   0.949   1.418 -0.5409  0.3193 -0.1371
  725SOL    HW1 2174   0.263   1.007   1.333 -1.3073  3.7704 -0.1143
  725SOL    HW2 2175   0.313   0.984   1.499 -0.0521  0.0462  3.1726
  726SOL     OW 2176   1.859   0.437   0.690 -0.3819 -0.2250  0.0403
  726SOL    HW1 2177   1.841   0.528   0.735 -2.6110  3.2209  0.0652
  726SOL    HW2 2178   1.817   0.441   0.598  0.4607 -0.7183  1.9658
  727SOL     OW 2179   1.680   0.943   2.037 -0.6336  0.6930 -0.1163
  727SOL    HW1 2180   1.771   0.975   1.997  3.7275 -0.8327 -0.3535
  727SOL    HW2 2181   1.664   0.976   2.136  1.3065 -0.4277  0.7195
  728SOL     OW 2182   1.613   2.735   1.459  0.1872 -0.1790 -0.1498
  728SOL    HW1 2183   1.668   2.787   1.531 -0.6457  1.5634 -0.7270
  728SOL    HW2 2184   1.610   2.637   1.474 -0.6721 -0.1046 -0.4288
  729SOL     OW 2185   1.377   0.466   1.738 -0.2492  0.4159 -0.0886
  729SOL    HW1 2186   1.354   0.371   1.720 -0.4877  2.7565 -1.5054
  729SOL    HW2 2187   1.366   0.488   1.836 -0.1229 -0.8021  0.7850
  730SOL     OW 2188   0.714   1.883   1.485 -0.4437 -0.4630 -0.5130
  730SOL    HW1 2189   0.696   1.921   1.394 -0.1347  1.3162  0.1198
  730SOL    HW2 2190   0.811   1.900   1.505  0.5237  0.5274 -0.5054
  731SOL     OW 2191   0.685   0.182   0.117 -0.6707 -0.0112 -0.4876
  731SOL    HW1 2192   0.645   0.269   0.153  0.3938  0.4052 -0.5437
  731SOL    HW2 2193   0.618   0.107   0.131 -0.3230 -0.9603  0.7818
  732SOL     OW 2194   0.463   0.947   0.180 -0.3320  0.1881 -0.6666
  732SOL    HW1 2195   0.414   0.903   0.100 -1.1027 -2.0404 -3.4229
  732SOL    HW2 2196   0.518   1.029   0.151 -0.0009  1.0695  2.4549
  733SOL     OW 2197   1.385   1.771   1.789 -0.4252 -0.8708  0.2705
  733SOL    HW1 2198   1.450   1.741   1.862  0.0234  0.9496 -2.4629
  733SOL    HW2 2199   1.384   1.693   1.722  1.8225  0.3312 -2.0459
  734SOL     OW 2200   2.785   2.652   2.173 -0.2078  0.0761 -0.1494
  734SOL    HW1 2201   2.883   2.638   2.159  0.8369  1.9287  0.3006
  734SOL    HW2 2202   2.752   2.742   2.140  1.1072 -0.7001 -0.0261
  735SOL     OW 2203   0.972   2.861   0.904  0.1013 -0.2474  0.0207
  735SOL    HW1 2204   0.990   2.790   0.834  0.0635  1.4780  0.9910
  735SOL    HW2 2205   1.036   2.941   0.891  0.6211 -2.5981  0.6853
  736SOL     OW 2206   1.356   0.961   2.702 -0.2429  0.1605 -0.4509
  736SOL    HW1 2207   1.345   0.898   2.621  1.7039  1.2785  0.3659
  736SOL    HW2 2208   1.442   0.935   2.743  1.8615  2.2465  1.2249
  737SOL     OW 2209   0.148   0.891   0.222 -0.2766 -0.1308 -1.0689
  737SOL    HW1 2210   0.139   0.803   0.172 -0.7925  0.6230  3.1659
  737SOL    HW2 2211   0.093   0.963   0.178 -3.0849  0.7450 -0.3721
  738SOL     OW 2212   0.028   2.773   1.335  0.1969  0.3935 -0.2417
  738SOL    HW1 2213   0.034   2.696   1.406 -0.2502 -1.7202 -0.0805
  738SOL    HW2 2214   3.051   2.748   1.265 -1.2490 -3.1627  2.1518
  739SOL     OW 2215   1.496   3.069   0.539 -1.2045  0.0090 -0.2658
  739SOL    HW1 2216   1.477   0.044   0.616 -0.4110  1.3090  3.2017
  739SOL    HW2 2217   1.408   3.043   0.498  1.3746  1.4474 -1.1899
  740SOL     OW 2218   1.626   2.873   1.226 -0.4325 -0.2888 -0.1944
  740SOL    HW1 2219   1.724   2.895   1.215 -0.1202  0.1267 -3.0958
  740SOL    HW2 2220   1.610   2.835   1.318 -3.0672  0.1111  1.0015
  741SOL     OW 2221   2.079   0.521   0.530  0.0185 -0.2726 -0.1333
  741SOL    HW1 2222   2.044   0.487   0.618 -2.3577  1.6221 -1.5650
  741SOL    HW2 2223   2.091   0.623   0.536  0.1908 -2.8762 -0.0346
  742SOL     OW 2224   1.160   2.422   1.664 -0.1690 -0.2831 -0.0954
  742SOL    HW1 2225   1.142   2.415   1.764  0.4065 -1.7562 -1.6695
  742SOL    HW2 2226   1.241   2.366   1.635  1.7084  1.0047  1.5117
  743SOL     OW 2227   2.355   0.619   1.780  0.0716  0.1522  0.1839
  743SOL    HW1 2228   2.322   0.715   1.765  1.5296 -0.8986 -0.4377
  743SOL    HW2 2229   2.454   0.618   1.785  0.5000 -0.5474 -1.2051
  744SOL     OW 2230   2.154   0.433   0.823 -0.9038 -0.3660 -0.4079
  744SOL    HW1 2231   2.077   0.458   0.883  0.7480  1.6328  0.5658
  744SOL    HW2 2232   2.239   0.446   0.873 -2.5168 -1.0132 -0.1537
  745SOL     OW 2233   1.987   1.331   1.851  0.1261  0.1226  0.1710
  745SOL    HW1 2234   2.076   1.333   1.803 -0.8691 -0.5477 -2.6317
  745SOL    HW2 2235   1.918   1.320   1.778 -0.1785 -1.0642  0.1016
  746SOL     OW 2236   1.375   1.504   0.702 -0.3360 -0.7346 -0.0973
  746SOL    HW1 2237   1.368   1.606   0.698 -0.4387 -0.4840 -1.7017
  746SOL    HW2 2238   1.293   1.470   0.750  3.0113  1.2832 -0.2279
  747SOL     OW 2239   1.993   1.169   1.024  0.0430 -0.6837  0.8060
  747SOL    HW1 2240   1.966   1.133   1.116  0.3421 -3.5301  2.2344
  747SOL    HW2 2241   2.089   1.204   1.025  0.4332 -0.8039 -1.0084
  748SOL     OW 2242   0.101   2.956   0.286 -0.3455  0.2883  0.1497
  748SOL    HW1 2243   0.174   2.977   0.350 -0.7387 -1.2595  1.7162
  748SOL    HW2 2244   0.077   2.859   0.287  1.8406 -0.3673 -1.6510
  749SOL     OW 2245   0.039   0.534   2.302 -0.5224  0.3365  0.2614
  749SOL    HW1 2246   3.047   0.536   2.363 -4.1701 -0.9016 -0.3269
  749SOL    HW2 2247   0.041   0.447   2.247  0.3757 -0.1731 -1.7399
  750SOL     OW 2248   1.795   2.855   1.661  0.2566 -0.5522 -0.0425
  750SOL    HW1 2249   1.827   2.938   1.619 -1.3726 -2.5457  1.3446
  750SOL    HW2 2250   1.781   2.858   1.761 -2.8994 -0.2645 -1.1255
  751SOL     OW 2251   2.726   0.485   0.465  0.1140 -0.7034 -0.7832
  751SOL    HW1 2252   2.653   0.557   0.444 -4.0023 -0.4860 -0.4239
  751SOL    HW2 2253   2.702   0.445   0.555  0.9112 -0.2775  3.3192
  752SOL     OW 2254   0.168   2.746   0.869  0.1997  0.0109 -0.3691
  752SOL    HW1 2255   0.151   2.684   0.791  0.4164  0.5264  1.7669
  752SOL    HW2 2256   0.209   2.836   0.843 -0.8453  2.0214  0.7870
  753SOL     OW 2257   0.855   0.279   1.407  0.5180  0.0490 -0.2361
  753SOL    HW1 2258   0.838   0.193   1.353  0.9115 -1.5281  1.1257
  753SOL    HW2 2259   0.934   0.264   1.467 -0.4849  1.7160  0.2877
  754SOL     OW 2260   0.830   2.903   2.237 -0.0738  0.2990 -0.0409
  754SOL    HW1 2261   0.747   2.961   2.226 -3.1512 -0.7015  1.3275
  754SOL    HW2 2262   0.896   2.917   2.161  0.0105 -0.7404 -0.9086
  755SOL     OW 2263   2.217   0.988   0.240  0.6076  0.3102  0.1861
  755SOL    HW1 2264   2.292   1.013   0.304 -0.8177 -0.1475  2.3190
  755SOL    HW2 2265   2.189   1.064   0.181 -0.0270 -2.2813  1.4512
  756SOL     OW 2266   2.349   1.880   2.651  0.0619  0.2365 -0.4874
  756SOL    HW1 2267   2.418   1.861   2.723 -0.4986 -2.5091  1.2541
  756SOL    HW2 2268   2.395   1.904   2.564 -0.4017 -0.6189 -1.9746
  757SOL     OW 2269   1.504   0.205   1.271 -0.0411 -0.2033 -0.0086
  757SOL    HW1 2270   1.436   0.226   1.343  0.9651  0.5624  0.7543
  757SOL    HW2 2271   1.475   0.124   1.219 -2.9838  0.2348 -0.3247
  758SOL     OW 2272   1.445   2.578   0.762 -0.1362 -0.5061  0.5684
  758SOL    HW1 2273   1.526   2.530   0.801  0.9666 -0.4939 -0.4290
  758SOL    HW2 2274   1.464   2.604   0.662  1.0908  1.3761 -0.8095
  759SOL     OW 2275   2.349   0.434   1.023  0.5649  0.2500  0.3692
  759SOL    HW1 2276   2.437   0.479   1.006  0.3856  0.9945  0.3078
  759SOL    HW2 2277   2.319   0.419   1.117  1.5259  1.9663  0.6099
  760SOL     OW 2278   2.373   1.089   1.200  0.4224 -0.4131  0.0677
  760SOL    HW1 2279   2.422   1.123   1.284  0.7321 -0.8312 -2.0677
  760SOL    HW2 2280   2.437   1.046   1.133  2.7238  3.1701  0.1634
  761SOL     OW 2281   0.404   0.481   0.550  0.2890 -0.6383 -0.1952
  761SOL    HW1 2282   0.355   0.509   0.638  0.5866  0.1680 -0.2572
  761SOL    HW2 2283   0.367   0.536   0.470 -0.5768 -0.9027 -3.6204
  762SOL     OW 2284   1.700   1.966   1.397  0.4728  0.1866  0.4299
  762SOL    HW1 2285   1.789   1.927   1.386 -1.2176 -0.9415  1.1326
  762SOL    HW2 2286   1.666   1.943   1.491 -1.0806 -0.2960 -4.0095
  763SOL     OW 2287   1.046   1.495   1.461 -0.1887 -0.0270  0.0320
  763SOL    HW1 2288   0.984   1.415   1.438 -2.1149  2.5087 -0.5629
  763SOL    HW2 2289   1.019   1.539   1.546 -2.3121  1.2417 -0.0057
  764SOL     OW 2290   2.824   1.779   2.341 -0.6386 -0.2321 -0.0747
  764SOL    HW1 2291   2.789   1.825   2.259 -0.5435 -1.3588 -0.5384
  764SOL    HW2 2292   2.930   1.795   2.339  1.9893 -0.6196 -0.1432
  765SOL     OW 2293   1.452   2.437   1.353 -0.5763 -0.1764 -0.3692
  765SOL    HW1 2294   1.413   2.348   1.319  0.7460  2.2182 -2.3585
  765SOL    HW2 2295   1.450   2.504   1.277  1.2630  0.6465 -0.8013
  766SOL     OW 2296   0.130   2.427   2.624 -0.4486 -0.2940 -0.0850
  766SOL    HW1 2297   0.098   2.521   2.658 -0.7003  2.7672 -0.4260
  766SOL    HW2 2298   0.055   2.365   2.589  2.2333  0.5167  0.5636
  767SOL     OW 2299   1.334   0.740   2.506 -0.4604  0.4926  0.0018
  767SOL    HW1 2300   1.405   0.678   2.550 -1.2518 -0.1242  1.3178
  767SOL    HW2 2301   1.248   0.688   2.497 -1.9358 -0.2307  0.6553
  768SOL     OW 2302   1.146   2.328   2.977  0.1786 -0.0499 -0.5403
  768SOL    HW1 2303   1.072   2.390   3.020 -0.0842  2.5105 -1.4712
  768SOL    HW2 2304   1.239   2.356   3.016 -0.2830  1.3753 -0.4519
  769SOL     OW 2305   0.354   2.654   1.062  0.0425  0.2681  0.3028
  769SOL    HW1 2306   0.287   2.656   0.986  0.8756 -0.1444 -0.6734
  769SOL    HW2 2307   0.322   2.711   1.142 -1.7497 -1.6484  1.4358
  770SOL     OW 2308   1.586   0.847   2.834 -0.4709 -0.4870 -0.0120
  770SOL    HW1 2309   1.597   0.936   2.882  0.0218 -2.2367 -0.7526
  770SOL    HW2 2310   1.678   0.818   2.799 -1.0610 -0.5187 -0.4351
  771SOL     OW 2311   0.222   0.140   2.345 -0.1951  0.1857  0.2152
  771SOL    HW1 2312   0.163   0.173   2.418  0.7758  0.9554  0.5663
  771SOL    HW2 2313   0.310   0.110   2.379 -0.9899  0.3336 -2.6061
  772SOL     OW 2314   1.989   2.968   2.007  0.0620  0.0173  0.1938
  772SOL    HW1 2315   2.086   3.002   1.991  1.0698  1.3784 -0.3611
  772SOL    HW2 2316   1.928   3.047   1.978  0.2359  1.7507 -0.2718
  773SOL     OW 2317   0.768   2.211   1.694  0.6575 -0.1665 -0.8616
  773SOL    HW1 2318   0.853   2.178   1.653 -1.6497  1.1627 -0.5499
  773SOL    HW2 2319   0.764   2.313   1.683  3.0193 -0.8496  0.9566
  774SOL     OW 2320   1.619   0.208   2.145 -0.4542 -0.5213 -0.2655
  774SOL    HW1 2321   1.534   0.257   2.168  1.6514  0.0438 -1.2623
  774SOL    HW2 2322   1.637   0.224   2.046 -0.3673  0.4835  2.5744
  775SOL     OW 2323   2.211   2.687   0.262  0.3590 -0.1952 -0.3002
  775SOL    HW1 2324   2.185   2.739   0.177  1.1950  0.3371  1.2367
  775SOL    HW2 2325   2.224   2.760   0.332  1.0189  2.1268 -1.5271
  776SOL     OW 2326   2.519   0.587   2.423  0.3249  0.2616 -0.2134
  776SOL    HW1 2327   2.515   0.500   2.477  1.6751  0.2300  3.4551
  776SOL    HW2 2328   2.609   0.628   2.438  1.2752  1.1933  2.4941
  777SOL     OW 2329   2.357   1.356   2.368 -0.1748  0.3182 -0.2810
  777SOL    HW1 2330   2.362   1.273   2.313 -0.4568 -1.9310  0.6986
  777SOL    HW2 2331   2.448   1.391   2.380 -1.8066 -0.8374 -1.0474
  778SOL     OW 2332   2.270   0.693   2.106 -0.1408  0.0536  0.4446
  778SOL    HW1 2333   2.204   0.686   2.030  1.3264 -0.7488  2.5640
  778SOL    HW2 2334   2.267   0.614   2.167 -1.2773 -1.4716  0.9061
  779SOL     OW 2335   3.046   0.234   0.115  0.1980  0.1237 -0.0914
  779SOL    HW1 2336   3.045   0.336   0.117  1.2436 -2.6189 -1.7089
  779SOL    HW2 2337   3.010   0.203   0.200  0.6121  1.4561 -0.2690
  780SOL     OW 2338   2.693   0.606   2.984  0.3098 -0.2788 -0.3746
  780SOL    HW1 2339   2.786   0.568   2.967 -0.4272 -0.0796  1.1643
  780SOL    HW2 2340   2.691   0.657   3.076  0.1662 -0.3193  3.5187
  781SOL     OW 2341   0.100   3.040   1.397  0.5086  0.1192  0.4176
  781SOL    HW1 2342   0.156   3.082   1.326 -0.9530  0.4831 -1.0188
  781SOL    HW2 2343   0.073   2.943   1.372 -2.2275 -1.8875 -0.7289
  782SOL     OW 2344   1.812   2.608   0.680  0.6578 -0.4643  0.1401
  782SOL    HW1 2345   1.801   2.615   0.578 -2.8380  0.8925 -1.7427
  782SOL    HW2 2346   1.737   2.661   0.722 -0.5724 -1.0575  1.7881
  783SOL     OW 2347   0.652   1.461   1.321  0.0366  0.3175 -0.4251
  783SOL    HW1 2348   0.699   1.505   1.245  0.1538 -0.0915  1.8202
  783SOL    HW2 2349   0.624   1.535   1.389 -3.3949  0.3929 -0.7142
  784SOL     OW 2350   1.542   0.551   2.584  0.0290  0.1047  0.2831
  784SOL    HW1 2351   1.497   0.460   2.571 -1.4568  4.9892  2.2563
  784SOL    HW2 2352   1.622   0.546   2.520  2.6577 -1.6037  0.6136
  785SOL     OW 2353   2.599   0.212   1.290  0.1748 -0.6325 -0.6003
  785SOL    HW1 2354   2.659   0.280   1.249 -0.4672  0.5244 -0.9102
  785SOL    HW2 2355   2.500   0.238   1.277 -1.8347  1.3306 -4.2848
  786SOL     OW 2356   1.252   2.580   1.428  0.4060 -0.0998  0.5077
  786SOL    HW1 2357   1.335   2.527   1.401 -2.7078  2.0093 -0.1896
  786SOL    HW2 2358   1.213   2.530   1.506  0.9713 -1.3472  0.1993
  787SOL     OW 2359   1.726   0.376   1.427 -0.3565  0.2635 -0.2379
  787SOL    HW1 2360   1.682   0.433   1.357  3.0167  3.3053  2.3270
  787SOL    HW2 2361   1.673   0.379   1.512 -1.2290  1.0238  0.8050
  788SOL     OW 2362   2.876   1.132   0.513 -0.4314 -0.1112 -0.1392
  788SOL    HW1 2363   2.915   1.214   0.560 -1.5217 -1.2519  0.1764
  788SOL    HW2 2364   2.909   1.054   0.567 -0.3699  0.7213  3.5405
  789SOL     OW 2365   0.528   1.968   1.652  0.3472 -0.1234  0.2566
  789SOL    HW1 2366   0.617   1.968   1.602 -2.9948 -0.8890  1.8939
  789SOL    HW2 2367   0.495   2.062   1.669 -0.1804  0.2945 -0.6083
  790SOL     OW 2368   0.722   0.398   2.276  0.0129  0.7081  0.0622
  790SOL    HW1 2369   0.723   0.437   2.370  0.7183  0.4959 -0.0628
  790SOL    HW2 2370   0.627   0.376   2.243 -2.7686  0.6765 -0.5264
  791SOL     OW 2371   2.375   0.641   0.708  0.0973 -0.3107 -0.1523
  791SOL    HW1 2372   2.294   0.587   0.682  0.7902  1.0138 -0.3861
  791SOL    HW2 2373   2.348   0.691   0.792  3.0288  2.2059 -4.1974
  792SOL     OW 2374   1.188   2.881   1.725  0.4439  0.3559  0.0480
  792SOL    HW1 2375   1.244   2.849   1.812  1.7508 -1.7112  3.3063
  792SOL    HW2 2376   1.142   2.798   1.686  0.5021 -0.9446 -0.1158
  793SOL     OW 2377   0.420   0.228   0.658 -0.2160  0.6406 -0.0613
  793SOL    HW1 2378   0.517   0.204   0.661 -4.3528  1.0353  0.1933
  793SOL    HW2 2379   0.413   0.323   0.620 -2.3626 -1.0912 -1.3667
  794SOL     OW 2380   3.062   1.297   1.859 -0.3900  0.0707  0.1172
  794SOL    HW1 2381   3.027   1.294   1.954  0.4127 -0.7634  1.9361
  794SOL    HW2 2382   2.988   1.301   1.790 -1.6486 -1.5631 -1.1462
  795SOL     OW 2383   0.401   2.149   2.295 -0.2696  0.2010  0.1319
  795SOL    HW1 2384   0.395   2.240   2.331 -2.5190 -3.3812 -2.0833
  795SOL    HW2 2385   0.480   2.102   2.336  1.5702  2.3551  1.1173
  796SOL     OW 2386   2.594   0.468   2.117 -0.1917 -0.3157 -0.3889
  796SOL    HW1 2387   2.617   0.568   2.129 -1.4054 -1.2471 -0.1736
  796SOL    HW2 2388   2.598   0.446   2.017 -0.1723  0.5085  1.5267
  797SOL     OW 2389   2.357   2.337   2.592 -0.0762 -0.3695 -0.8728
  797SOL    HW1 2390   2.349   2.260   2.658  3.2508  0.9429 -1.9063
  797SOL    HW2 2391   2.308   2.310   2.510  0.0529  2.0174  2.5772
  798SOL     OW 2392   2.995   3.040   2.068  0.3021 -0.3243  0.0390
  798SOL    HW1 2393   3.077   3.009   2.112 -0.3743 -0.1667 -0.5218
  798SOL    HW2 2394   2.980   3.004   1.974  0.6301  1.3529  2.1519
  799SOL     OW 2395   0.280   2.506   2.088  0.4346  0.3982 -0.0022
  799SOL    HW1 2396   0.211   2.447   2.133  0.9480  1.3606 -3.7271
  799SOL    HW2 2397   0.260   2.525   1.987 -0.3926  0.9972  0.8985
  800SOL     OW 2398   0.106   1.837   0.191  0.9368 -0.1939 -0.3725
  800SOL    HW1 2399   0.134   1.882   0.274  1.1876 -2.1393 -1.9482
  800SOL    HW2 2400   0.014   1.792   0.208 -2.5052  0.5838  0.3941
  801SOL     OW 2401   1.662   1.481   1.413 -1.1384  0.5000  0.3888
  801SOL    HW1 2402   1.602   1.406   1.461 -1.0700 -0.4490  4.1188
  801SOL    HW2 2403   1.699   1.548   1.479  1.9416  2.6526 -1.4662
  802SOL     OW 2404   0.128   1.033   0.466 -0.2887 -0.2370 -0.7334
  802SOL    HW1 2405   0.049   1.001   0.523  1.3487  0.3425 -1.7137
  802SOL    HW2 2406   0.135   0.975   0.385 -2.6080  2.5998  2.4379
  803SOL     OW 2407   1.105   1.538   1.847 -0.2415  0.2181 -0.0124
  803SOL    HW1 2408   1.193   1.514   1.805 -1.0517  1.7285 -3.0979
  803SOL    HW2 2409   1.036   1.466   1.831  0.0692  0.7534 -0.8263
  804SOL     OW 2410   1.932   1.611   1.022 -0.1419 -0.1502 -0.7514
  804SOL    HW1 2411   1.979   1.613   1.114 -3.6435 -3.8516 -0.3660
  804SOL    HW2 2412   1.902   1.517   1.002 -0.2152 -0.4002 -0.5071
  805SOL     OW 2413   2.785   1.572   2.866  0.6151  0.2403 -0.4060
  805SOL    HW1 2414   2.870   1.621   2.839 -1.1127 -1.5456 -0.7202
  805SOL    HW2 2415   2.724   1.563   2.782 -1.4862  1.1518 -3.5950
  806SOL     OW 2416   0.338   2.380   0.130  0.4284 -0.0790 -0.1849
  806SOL    HW1 2417   0.412   2.425   0.182 -1.2922 -1.9028 -1.1591
  806SOL    HW2 2418   0.356   2.398   0.031  0.4446  1.5167  1.1013
  807SOL     OW 2419   2.225   1.478   2.956 -0.4001 -0.0032 -0.1389
  807SOL    HW1 2420   2.231   1.565   3.002  1.3150 -2.1741  1.7160
  807SOL    HW2 2421   2.130   1.433   2.974 -4.3296  0.1948 -2.2570
  808SOL     OW 2422   1.298   2.247   1.240  0.0412 -0.0885 -0.5346
  808SOL    HW1 2423   1.199   2.263   1.235 -0.2669  2.8379  1.8702
  808SOL    HW2 2424   1.325   2.175   1.303 -0.5593  0.5551 -2.0586
  809SOL     OW 2425   2.981   0.541   0.368 -0.0130  0.3910  0.3433
  809SOL    HW1 2426   2.889   0.518   0.406  0.1075 -1.5879 -1.7807
  809SOL    HW2 2427   3.057   0.490   0.408  0.1304  2.6929 -0.7229
  810SOL     OW 2428   0.914   1.493   0.584 -0.0151 -0.1529 -0.2103
  810SOL    HW1 2429   0.915   1.537   0.674  1.6613  0.7032 -0.8975
  810SOL    HW2 2430   1.010   1.485   0.550  2.6767 -2.3927 -0.8086
  811SOL     OW 2431   1.668   2.538   0.920  0.0075  0.1850  0.8916
  811SOL    HW1 2432   1.712   2.623   0.961  2.2765 -0.2953  0.7667
  811SOL    HW2 2433   1.726   2.452   0.925 -0.0008 -0.3303  0.9875
  812SOL     OW 2434   1.351   2.823   1.413  0.7747  0.0580 -0.1568
  812SOL    HW1 2435   1.452   2.809   1.415  0.2345 -0.9489 -0.8746
  812SOL    HW2 2436   1.299   2.735   1.435 -0.5676  0.5749 -1.8175
  813SOL     OW 2437   0.789   2.966   1.737 -0.9759 -0.4454  0.7133
  813SOL    HW1 2438   0.707   3.018   1.763  2.5603 -0.6271 -0.9717
  813SOL    HW2 2439   0.818   2.891   1.796  0.7887  0.3259 -0.8209
  814SOL     OW 2440   1.074   2.688   2.081  0.8630 -0.4406 -0.2967
  814SOL    HW1 2441   1.127   2.770   2.111  0.1329 -1.6897 -1.9582
  814SOL    HW2 2442   1.036   2.641   2.163 -0.0612  0.9484 -1.0996
  815SOL     OW 2443   0.422   2.964   2.831  0.7479  0.0203 -0.1965
  815SOL    HW1 2444   0.448   2.913   2.751 -0.9242 -0.5725  1.0521
  815SOL    HW2 2445   0.387   3.056   2.815 -1.1445 -2.4914  0.7762
  816SOL     OW 2446   2.246   0.658   2.877  0.1153 -0.0839  0.7192
  816SOL    HW1 2447   2.195   0.706   2.806 -2.2279 -1.0184 -2.6706
  816SOL    HW2 2448   2.217   0.680   2.974 -1.9028 -3.5260 -0.7912
  817SOL     OW 2449   2.340   2.532   2.238  0.1945  0.2334  0.2482
  817SOL    HW1 2450   2.425   2.564   2.280 -0.3806  0.4701 -1.4060
  817SOL    HW2 2451   2.260   2.567   2.288  2.0886 -0.2093  1.2335
  818SOL     OW 2452   1.094   0.882   0.422 -0.6778 -0.1150  0.7081
  818SOL    HW1 2453   1.101   0.781   0.405 -1.9781  2.0308 -4.0128
  818SOL    HW2 2454   1.095   0.929   0.327  0.5943  1.4480 -4.2597
  819SOL     OW 2455   1.842   1.368   2.776 -0.1099 -0.2968  0.4566
  819SOL    HW1 2456   1.888   1.354   2.686  3.4034  0.6092 -1.8912
  819SOL    HW2 2457   1.892   1.313   2.845 -1.0574 -1.5156  1.0446
  820SOL     OW 2458   2.883   1.536   2.442 -0.3464  0.2914  0.3010
  820SOL    HW1 2459   2.828   1.509   2.525 -0.4749 -1.7067 -0.1318
  820SOL    HW2 2460   2.853   1.626   2.408 -2.0669 -1.4486  1.5763
  821SOL     OW 2461   0.343   2.950   0.814  0.7876  0.5853  0.5192
  821SOL    HW1 2462   0.408   2.995   0.877 -0.1499 -0.6785  1.7280
  821SOL    HW2 2463   0.401   2.916   0.732  0.6728 -1.0075 -1.5996
  822SOL     OW 2464   2.364   2.566   2.934  0.0540  0.2149 -0.0639
  822SOL    HW1 2465   2.295   2.491   2.919  1.4166  0.5476  2.0921
  822SOL    HW2 2466   2.433   2.538   3.001  0.0923 -2.3325  0.3371
  823SOL     OW 2467   1.680   0.213   2.415 -0.1786  0.3411 -0.1302
  823SOL    HW1 2468   1.755   0.167   2.467 -0.5567  0.7112  0.6967
  823SOL    HW2 2469   1.696   0.204   2.317  1.5447  0.8367  3.1786
  824SOL     OW 2470   2.773   2.365   2.106 -0.2691  0.0046 -0.4481
  824SOL    HW1 2471   2.835   2.350   2.026  0.8074 -3.0673  0.5941
  824SOL    HW2 2472   2.787   2.456   2.150 -1.2432 -0.3108 -0.0176
  825SOL     OW 2473   3.074   1.881   2.345 -0.2666  0.0169 -0.3331
  825SOL    HW1 2474   0.060   1.909   2.410 -0.0186 -1.5716  0.5742
  825SOL    HW2 2475   3.089   1.903   2.251  2.8226 -0.5727  0.8246
  826SOL     OW 2476   1.823   0.727   2.773  0.1596  0.4335  0.9072
  826SOL    HW1 2477   1.899   0.762   2.827 -0.4235  0.8690 -0.3479
  826SOL    HW2 2478   1.846   0.700   2.677 -1.3642 -0.3640 -1.9880
  827SOL     OW 2479   2.847   1.697   1.695 -0.3585  0.0871 -0.5013
  827SOL    HW1 2480   2.800   1.770   1.742  0.8026 -1.0402 -0.3437
  827SOL    HW2 2481   2.879   1.627   1.763  1.7275  1.4798 -1.3571
  828SOL     OW 2482   2.924   0.128   1.298  0.0627 -0.4622  0.4738
  828SOL    HW1 2483   2.997   0.093   1.230  2.5629  1.1417  1.9712
  828SOL    HW2 2484   2.838   0.071   1.303  2.0329  0.7651 -0.8738
  829SOL     OW 2485   0.955   1.889   2.460  0.1888  0.6147  0.3950
  829SOL    HW1 2486   0.899   1.975   2.447 -0.5837  0.0103 -2.3870
  829SOL    HW2 2487   0.913   1.821   2.522  2.8469  3.5584  1.6243
  830SOL     OW 2488   0.610   0.882   1.402 -0.2609 -0.4632  0.3329
  830SOL    HW1 2489   0.647   0.954   1.459 -1.8001 -0.4926  1.8784
  830SOL    HW2 2490   0.547   0.823   1.453  1.9508  0.7704 -2.3230
  831SOL     OW 2491   2.544   1.855   2.849 -0.4345 -0.1297  0.0339
  831SOL    HW1 2492   2.571   1.787   2.919 -0.1947 -3.7868  1.1383
  831SOL    HW2 2493   2.550   1.948   2.892 -0.2785  0.1029 -1.5776
  832SOL     OW 2494   1.840   2.539   2.940  0.6859  0.5975  0.1666
  832SOL    HW1 2495   1.889   2.497   2.858  0.1817  1.9140 -2.2538
  832SOL    HW2 2496   1.768   2.605   2.900 -0.4220 -0.0905 -0.6824
  833SOL     OW 2497   0.910   0.161   1.977 -0.3857 -0.5941  0.3935
  833SOL    HW1 2498   0.987   0.215   1.933  2.4186  1.3868  0.0310
  833SOL    HW2 2499   0.900   0.185   2.078 -2.2697 -1.0959  0.1489
  834SOL     OW 2500   2.911   0.338   1.470  0.2565 -0.6188 -0.0991
  834SOL    HW1 2501   2.923   0.248   1.423 -0.5523  0.7163  2.0208
  834SOL    HW2 2502   2.863   0.406   1.409 -0.6177 -0.7994 -0.7156
  835SOL     OW 2503   2.698   0.405   0.194  0.4627  0.8951  0.2788
  835SOL    HW1 2504   2.628   0.474   0.157 -0.2353  1.1558 -1.2528
  835SOL    HW2 2505   2.727   0.434   0.281 -0.5636 -2.4142 -4.1051
  836SOL     OW 2506   1.424   1.902   0.159  0.4818 -0.3284 -0.0315
  836SOL    HW1 2507   1.338   1.933   0.111  1.2041  0.6899 -0.6443
  836SOL    HW2 2508   1.500   1.966   0.128  1.2019  0.2500 -0.4562
  837SOL     OW 2509   1.972   1.970   0.398  0.4377 -0.2557 -0.3203
  837SOL    HW1 2510   2.017   1.905   0.465 -0.5565 -0.5544 -1.9175
  837SOL    HW2 2511   1.944   2.055   0.442 -0.5371 -1.1321  0.3064
  838SOL     OW 2512   1.324   0.926   2.315  0.6441  0.6726 -0.1317
  838SOL    HW1 2513   1.334   0.850   2.382 -1.5018  0.4262 -1.3196
  838SOL    HW2 2514   1.254   0.988   2.362 -0.0111  1.0189  2.2564
  839SOL     OW 2515   0.621   1.302   2.242  0.2676  0.7032 -0.2239
  839SOL    HW1 2516   0.714   1.341   2.237 -4.3610 -0.7523  1.0030
  839SOL    HW2 2517   0.610   1.247   2.328 -1.9468 -1.4256  1.7931
  840SOL     OW 2518   1.152   1.526   0.461 -0.2232 -0.0034  0.1514
  840SOL    HW1 2519   1.229   1.503   0.404 -4.4607 -1.4297  0.9233
  840SOL    HW2 2520   1.176   1.609   0.514  1.0832 -0.9961 -0.5227
  841SOL     OW 2521   1.495   2.244   0.758 -0.5830 -0.1524 -0.1426
  841SOL    HW1 2522   1.594   2.266   0.756  1.0506  0.8494  1.4312
  841SOL    HW2 2523   1.440   2.279   0.837 -1.5234 -1.1211  0.4209
  842SOL     OW 2524   0.376   0.482   0.104 -0.3939 -0.3312  0.2005
  842SOL    HW1 2525   0.416   0.441   0.186 -2.6961  1.1859  0.7532
  842SOL    HW2 2526   0.448   0.520   0.043  3.4561 -0.4751  0.7814
  843SOL     OW 2527   0.707   0.143   0.552  0.3387 -0.2146  0.1492
  843SOL    HW1 2528   0.695   0.084   0.477  0.9647  1.1772  2.4063
  843SOL    HW2 2529   0.702   0.247   0.540 -0.9976  1.7655  2.0098
  844SOL     OW 2530   2.386   0.055   2.355  0.3403  0.7067  0.0951
  844SOL    HW1 2531   2.448   0.120   2.303  2.4522  1.6116 -0.5600
  844SOL    HW2 2532   2.451   3.076   2.390  1.8563  0.0577  2.6022
  845SOL     OW 2533   2.994   2.671   1.849  0.7895 -0.1134  0.3604
  845SOL    HW1 2534   2.984   2.617   1.762 -0.9365 -0.7720  0.2158
  845SOL    HW2 2535   2.938   2.753   1.844 -0.7529 -0.8063 -0.5359
  846SOL     OW 2536   1.943   1.265   2.519  0.2083 -0.2458  0.5020
  846SOL    HW1 2537   2.021   1.332   2.517 -0.6840 -0.7689 -0.8815
  846SOL    HW2 2538   1.856   1.315   2.496 -0.0272 -2.9439  0.0875
  847SOL     OW 2539   0.764   0.818   1.911 -0.4668 -0.2740 -0.0811
  847SOL    HW1 2540   0.730   0.738   1.858  0.3322 -1.0186 -0.3125
  847SOL    HW2 2541   0.865   0.818   1.917  1.8161 -1.4150  0.0730
  848SOL     OW 2542   2.539   0.010   2.750 -0.5168 -0.1568 -0.2820
  848SOL    HW1 2543   2.613   3.044   2.799  1.9694 -0.2937  1.0469
  848SOL    HW2 2544   2.495   0.068   2.817  1.6580 -1.1349 -1.4298
  849SOL     OW 2545   0.350   2.751   0.148  0.4085  0.0947 -0.0468
  849SOL    HW1 2546   0.264   2.716   0.105  1.2366  2.0434 -3.0288
  849SOL    HW2 2547   0.422   2.773   0.080 -0.1316  0.2750 -0.0873
  850SOL     OW 2548   1.034   2.652   0.714  0.3279 -0.0571 -0.1317
  850SOL    HW1 2549   0.951   2.594   0.711  0.0249 -1.1410  0.0738
  850SOL    HW2 2550   1.110   2.614   0.656  0.8721  0.9387  0.6123
  851SOL     OW 2551   2.199   0.234   2.415 -1.3394  0.2038  0.2115
  851SOL    HW1 2552   2.262   0.167   2.372 -0.7516  0.2937  0.9912
  851SOL    HW2 2553   2.225   0.238   2.513 -0.5194  0.5391 -0.0945
  852SOL     OW 2554   1.443   0.305   2.558  0.5386 -0.2786 -0.1369
  852SOL    HW1 2555   1.522   0.260   2.515 -0.2424 -0.8106  0.0057
  852SOL    HW2 2556   1.414   0.256   2.644 -0.9375  0.8957  2.7407
  853SOL     OW 2557   3.068   2.705   0.248 -0.2530 -0.2781 -0.4439
  853SOL    HW1 2558   0.014   2.611   0.264  0.7248 -0.0610 -0.3805
  853SOL    HW2 2559   2.978   2.726   0.293  0.7310 -2.3367 -0.5550
  854SOL     OW 2560   2.002   0.557   2.362  0.6858  0.2149  0.5311
  854SOL    HW1 2561   1.979   0.633   2.428 -0.7846 -1.8696  2.1338
  854SOL    HW2 2562   2.101   0.547   2.336  2.4052  1.6257  2.5735
  855SOL     OW 2563   0.560   2.564   0.215 -0.4693  0.5357 -0.1939
  855SOL    HW1 2564   0.499   2.632   0.178  0.3588 -0.2227  1.6246
  855SOL    HW2 2565   0.657   2.586   0.195  0.5493  0.6850  0.4699
  856SOL     OW 2566   0.164   3.001   2.588 -0.1777  0.1885  0.4849
  856SOL    HW1 2567   0.105   2.932   2.539 -1.6493  0.6443  0.8197
  856SOL    HW2 2568   0.117   3.035   2.671  1.3665 -2.9476 -0.4985
  857SOL     OW 2569   1.012   3.051   1.593  0.0316 -0.3435 -0.6382
  857SOL    HW1 2570   1.095   3.021   1.651  2.1452 -0.1457  0.3551
  857SOL    HW2 2571   0.927   3.040   1.652 -0.3063 -1.4307 -2.6478
  858SOL     OW 2572   2.521   1.971   1.794 -0.1332  0.2428 -0.1347
  858SOL    HW1 2573   2.613   1.978   1.755 -1.1742  0.4524 -0.0560
  858SOL    HW2 2574   2.502   2.059   1.839 -0.7327 -0.7010  1.0783
  859SOL     OW 2575   1.934   2.417   2.034  0.3561  0.0933  0.3611
  859SOL    HW1 2576   1.907   2.462   1.948 -0.2095 -0.0521 -0.5567
  859SOL    HW2 2577   2.011   2.348   2.009  2.0487 -1.3485 -0.4339
  860SOL     OW 2578   1.762   0.448   0.431  0.1018  0.0651 -0.4803
  860SOL    HW1 2579   1.741   0.541   0.455 -1.5510 -0.9328  0.2140
  860SOL    HW2 2580   1.777   0.437   0.332  1.5283 -0.3266 -0.5639
  861SOL     OW 2581   2.873   0.432   0.792  0.0129  0.3788 -0.0463
  861SOL    HW1 2582   2.934   0.428   0.712  1.8276 -0.4155  4.0464
  861SOL    HW2 2583   2.826   0.338   0.813 -1.9273 -2.3529  0.7879
  862SOL     OW 2584   1.152   2.748   2.499 -0.6588 -0.2106  0.0939
  862SOL    HW1 2585   1.069   2.809   2.506 -0.8533  1.9969  0.2725
  862SOL    HW2 2586   1.125   2.661   2.455  0.4654  2.0300  2.1600
  863SOL     OW 2587   0.473   0.470   1.377 -0.3593 -0.3706  0.4505
  863SOL    HW1 2588   0.417   0.408   1.439  0.6579 -1.4823 -2.6834
  863SOL    HW2 2589   0.423   0.504   1.299  2.4941 -2.6000  0.8633
  864SOL     OW 2590   2.896   2.922   1.820  0.9665  0.4085 -0.5483
  864SOL    HW1 2591   2.951   2.964   1.744  2.7957 -3.3747 -1.7825
  864SOL    HW2 2592   2.802   2.968   1.828 -0.8980  0.3992 -0.2117
  865SOL     OW 2593   0.488   1.372   2.817 -0.0559 -0.2487  0.4139
  865SOL    HW1 2594   0.416   1.312   2.858 -1.0155  1.4608  2.0183
  865SOL    HW2 2595   0.542   1.414   2.893 -0.6884  0.6671 -0.2733
  866SOL     OW 2596   0.168   0.079   0.107  0.6811 -0.4379  0.7175
  866SOL    HW1 2597   0.088   0.144   0.087 -1.3324 -1.3492 -1.6037
  866SOL    HW2 2598   0.140   0.003   0.167  0.6688  2.5304  0.1042
  867SOL     OW 2599   2.712   2.960   2.867  0.2460 -0.0372 -0.4564
  867SOL    HW1 2600   2.705   2.926   2.961 -2.6425  0.0023 -1.6880
  867SOL    HW2 2601   2.766   2.895   2.808 -0.4067 -3.2224  0.1172
  868SOL     OW 2602   1.164   0.975   0.132  0.7312  0.3857  0.1284
  868SOL    HW1 2603   1.071   0.941   0.108  2.3312  1.3826  2.4032
  868SOL    HW2 2604   1.239   0.937   0.082 -1.9209  3.0261  1.3885
  869SOL     OW 2605   2.918   1.355   0.656  0.0162 -0.7882  0.6316
  869SOL    HW1 2606   2.944   1.446   0.693  1.5260  0.5831 -0.5236
  869SOL    HW2 2607   2.839   1.326   0.708  0.8595 -0.6464 -0.7194
  870SOL     OW 2608   2.374   1.656   0.608 -0.2334 -0.8229 -0.5119
  870SOL    HW1 2609   2.418   1.693   0.528 -1.8713  0.4315  0.2532
  870SOL    HW2 2610   2.430   1.580   0.639 -2.0290  2.7659  0.2683
  871SOL     OW 2611   1.145   1.410   0.829  0.1166  0.0328 -0.2299
  871SOL    HW1 2612   1.118   1.311   0.828 -1.6953 -1.6068 -1.0730
  871SOL    HW2 2613   1.063   1.463   0.804 -0.8596 -1.4619  1.1022
  872SOL     OW 2614   1.150   1.929   1.862 -0.1346 -0.2123  0.4215
  872SOL    HW1 2615   1.150   1.970   1.768 -1.8382  0.7136 -1.9689
  872SOL    HW2 2616   1.215   1.856   1.865  0.0729  2.4186 -2.0480
  873SOL     OW 2617   1.013   1.761   2.213 -0.1144  0.2576  0.3229
  873SOL    HW1 2618   0.962   1.795   2.296 -4.2094  0.4850 -0.5939
  873SOL    HW2 2619   0.955   1.773   2.129  0.9613 -0.0598  0.7647
  874SOL     OW 2620   0.980   2.094   0.914 -0.0102  0.3055  0.3678
  874SOL    HW1 2621   1.051   2.027   0.927 -1.5524  0.5479 -1.2478
  874SOL    HW2 2622   0.917   2.091   0.995  0.7910 -0.9684 -0.5962
  875SOL     OW 2623   2.466   0.189   0.952  0.1545  0.6053  0.1590
  875SOL    HW1 2624   2.426   0.284   0.979 -3.5335  2.6468  1.7112
  875SOL    HW2 2625   2.428   0.119   1.011 -0.4828  0.0632 -2.5246
  876SOL     OW 2626   0.773   0.638   0.183 -0.2190 -0.1472 -0.4555
  876SOL    HW1 2627   0.752   0.693   0.266 -1.3459 -0.2781  0.0136
  876SOL    HW2 2628   0.836   0.563   0.208 -0.2791 -0.3358 -1.1113
  877SOL     OW 2629   2.775   0.541   1.309  0.4172 -0.2490  0.3675
  877SOL    HW1 2630   2.782   0.477   1.232 -0.2339 -1.3943  2.3451
  877SOL    HW2 2631   2.808   0.635   1.284 -1.6371  0.6385 -0.1395
  878SOL     OW 2632   2.115   2.321   0.586  0.0170 -0.8031  1.1554
  878SOL    HW1 2633   2.034   2.274   0.553  0.0092  1.5685  2.4596
  878SOL    HW2 2634   2.188   2.259   0.620  0.3623 -0.1298  1.8585
  879SOL     OW 2635   2.611   1.555   1.599 -0.8259 -0.2164  0.0307
  879SOL    HW1 2636   2.586   1.586   1.509  2.7318 -0.9011  3.6747
  879SOL    HW2 2637   2.683   1.617   1.638  1.6393  1.0680 -0.1762
  880SOL     OW 2638   1.431   2.595   1.107  0.2014 -0.1452 -0.1575
  880SOL    HW1 2639   1.502   2.575   1.036 -0.5684  0.6456 -1.2684
  880SOL    HW2 2640   1.429   2.694   1.133 -0.9932  1.4516  1.6351
  881SOL     OW 2641   1.052   2.453   0.182  0.3090 -0.2431 -0.0133
  881SOL    HW1 2642   0.989   2.369   0.180  1.7071 -0.2611  2.2668
  881SOL    HW2 2643   1.146   2.430   0.211 -1.3714  0.4258 -1.0461
  882SOL     OW 2644   1.677   1.043   1.547 -0.1836 -0.2325  0.1982
  882SOL    HW1 2645   1.680   0.987   1.633 -0.8458 -3.1550  1.8566
  882SOL    HW2 2646   1.656   0.984   1.469 -0.8527  2.0510  3.5402
  883SOL     OW 2647   1.338   0.226   2.153 -0.5355  0.2637 -0.2141
  883SOL    HW1 2648   1.330   0.280   2.238  0.0706 -0.3078 -2.8620
  883SOL    HW2 2649   1.276   0.146   2.161 -1.1963  0.9902 -0.9197
  884SOL     OW 2650   3.033   0.496   0.100 -0.1719  0.5907 -0.5967
  884SOL    HW1 2651   3.006   0.500   0.199  0.8872 -0.6982  0.9118
  884SOL    HW2 2652   0.022   0.554   0.076 -2.0299  0.6148  1.4430
  885SOL     OW 2653   0.806   1.270   2.914 -0.1877 -0.5001 -0.2024
  885SOL    HW1 2654   0.889   1.321   2.944  1.6714  0.3260 -0.1168
  885SOL    HW2 2655   0.734   1.265   2.984  0.2882  1.2788 -1.2265
  886SOL     OW 2656   1.560   1.311   2.791  0.1183  0.1510  0.0446
  886SOL    HW1 2657   1.499   1.344   2.716  0.7117 -2.8859  1.5284
  886SOL    HW2 2658   1.654   1.342   2.774  0.8859  1.3596  0.3688
  887SOL     OW 2659   1.201   0.654   1.656 -0.0098  0.5030 -0.3224
  887SOL    HW1 2660   1.158   0.629   1.572 -3.0049 -0.1033  1.5324
  887SOL    HW2 2661   1.272   0.589   1.686  1.5003 -0.4139  1.1695
  888SOL     OW 2662   2.781   0.635   1.813 -0.4449  0.1611 -0.2689
  888SOL    HW1 2663   2.837   0.578   1.877 -0.5046  0.7879 -0.8970
  888SOL    HW2 2664   2.840   0.713   1.776  0.2813  1.8092 -1.9223
  889SOL     OW 2665   0.114   3.017   0.699 -0.0916  0.4927  0.0434
  889SOL    HW1 2666   0.109   2.926   0.648 -0.6425 -1.9872  0.1837
  889SOL    HW2 2667   0.192   3.024   0.760 -0.0153  1.4761 -0.8246
  890SOL     OW 2668   2.875   2.378   0.442  1.0356 -0.4180 -0.3919
  890SOL    HW1 2669   2.935   2.453   0.469  1.5991 -1.1920 -0.0049
  890SOL    HW2 2670   2.929   2.296   0.421 -0.3293  1.0977  0.2919
  891SOL     OW 2671   0.989   1.703   2.836  0.3590  0.2900  0.1400
  891SOL    HW1 2672   0.953   1.798   2.843 -0.3640  1.3644 -0.0695
  891SOL    HW2 2673   1.013   1.671   2.741 -0.7118 -2.5989 -1.7614
  892SOL     OW 2674   2.838   3.067   0.846 -0.8830  0.3797 -0.2837
  892SOL    HW1 2675   2.784   3.030   0.770  2.1987  1.1575  1.8299
  892SOL    HW2 2676   2.884   2.996   0.901  0.7678  0.7404 -1.5286
  893SOL     OW 2677   1.038   3.084   1.311  0.6091 -0.4426  0.4587
  893SOL    HW1 2678   1.032   3.075   1.415 -0.2530  1.2695 -0.2816
  893SOL    HW2 2679   0.943   0.004   1.270 -5.0982  4.4138 -0.2924
  894SOL     OW 2680   3.001   0.935   0.668 -0.3873 -0.3107 -0.1124
  894SOL    HW1 2681   3.043   0.844   0.671  0.1401 -0.2391  0.7798
  894SOL    HW2 2682   2.932   0.935   0.739  2.2528  0.0859 -0.3139
  895SOL     OW 2683   2.431   2.764   1.803  0.6387  0.0360 -0.1428
  895SOL    HW1 2684   2.356   2.731   1.866 -3.0817 -0.9987  1.5398
  895SOL    HW2 2685   2.503   2.821   1.849  3.0398 -0.9389  1.1083
  896SOL     OW 2686   1.065   0.218   1.567 -0.0530  0.3442 -0.6378
  896SOL    HW1 2687   1.056   0.113   1.581  1.7119 -1.6035 -0.1326
  896SOL    HW2 2688   1.074   0.255   1.663 -0.6042  1.5547  1.1273
  897SOL     OW 2689   0.973   1.676   1.657 -0.2322 -0.0865  0.3773
  897SOL    HW1 2690   0.976   1.767   1.609 -0.4821  0.7717  0.4827
  897SOL    HW2 2691   1.022   1.680   1.746 -1.8428 -1.2554 -0.8798
  898SOL     OW 2692   1.787   2.463   1.782  0.0401 -0.3197 -0.2905
  898SOL    HW1 2693   1.837   2.394   1.728 -2.0562 -0.2105  0.1945
  898SOL    HW2 2694   1.799   2.554   1.742  0.0068  1.7681  1.7977
  899SOL     OW 2695   0.993   0.451   0.964  0.2351 -0.0658  0.1014
  899SOL    HW1 2696   1.014   0.421   1.062  0.2099  0.5699  2.2054
  899SOL    HW2 2697   0.994   0.553   0.954  0.0828  2.0513  0.7250
  900SOL     OW 2698   1.809   2.550   2.539 -0.0396  0.0777 -0.1477
  900SOL    HW1 2699   1.777   2.464   2.493  1.0065 -1.2154  0.3950
  900SOL    HW2 2700   1.864   2.527   2.619 -1.7384 -0.1723 -3.2663
  901SOL     OW 2701   0.882   2.173   2.397 -0.2755 -0.3822 -0.1262
  901SOL    HW1 2702   0.984   2.192   2.413 -0.2235 -3.0618  3.3344
  901SOL    HW2 2703   0.823   2.242   2.444 -0.0494 -0.4365 -0.6275
  902SOL     OW 2704   2.251   1.008   0.654 -0.1304 -0.0794 -0.2990
  902SOL    HW1 2705   2.219   1.102   0.626  1.0709  0.3081 -0.7819
  902SOL    HW2 2706   2.178   0.963   0.705  0.6460 -3.5706 -0.1708
  903SOL     OW 2707   2.100   0.791   0.548  0.3784 -0.5587  0.2614
  903SOL    HW1 2708   2.051   0.804   0.454 -3.1523  2.2594 -4.3869
  903SOL    HW2 2709   2.169   0.864   0.568  2.3470 -0.6308  2.7190
  904SOL     OW 2710   0.651   0.814   2.874 -0.2002  0.1766 -0.4685
  904SOL    HW1 2711   0.750   0.832   2.894 -1.1264 -1.0725 -0.6787
  904SOL    HW2 2712   0.634   0.769   2.787 -0.9333  1.3583  1.7111
  905SOL     OW 2713   2.091   0.166   0.712 -0.4911 -0.2424  0.6083
  905SOL    HW1 2714   2.089   0.094   0.788 -0.8600 -0.5814  2.3531
  905SOL    HW2 2715   2.054   0.253   0.752 -1.3176 -0.2505 -0.9762
  906SOL     OW 2716   2.990   2.174   1.396  0.1420 -0.0494  0.7352
  906SOL    HW1 2717   3.039   2.116   1.462 -2.8148 -0.1889  0.2882
  906SOL    HW2 2718   2.932   2.248   1.441 -0.6634  0.0723  2.3576
  907SOL     OW 2719   1.127   0.644   0.114 -0.1879  0.9576 -0.3001
  907SOL    HW1 2720   1.057   0.712   0.125  3.1299 -0.1013  0.6002
  907SOL    HW2 2721   1.179   0.667   0.026  0.0401 -0.4889 -0.2974
  908SOL     OW 2722   2.139   2.777   1.109 -0.1117  0.4551  0.8665
  908SOL    HW1 2723   2.230   2.806   1.148  0.2654  0.5411  0.9516
  908SOL    HW2 2724   2.059   2.827   1.149  1.0115 -2.1237 -1.9545
  909SOL     OW 2725   2.229   0.936   1.363 -0.1902  0.5244 -0.0196
  909SOL    HW1 2726   2.238   0.838   1.349 -2.6577  1.5604 -0.4055
  909SOL    HW2 2727   2.307   0.983   1.320 -3.5131  1.9647  1.3393
  910SOL     OW 2728   1.341   2.788   1.944  0.1908  0.1921  0.7652
  910SOL    HW1 2729   1.296   2.825   2.030 -0.3352 -0.1013 -2.6373
  910SOL    HW2 2730   1.409   2.721   1.972 -1.1526  2.4886  0.0352
  911SOL     OW 2731   2.773   0.349   2.307 -0.3182 -0.6227  0.3781
  911SOL    HW1 2732   2.709   0.394   2.241  0.3332 -0.6922  1.1244
  911SOL    HW2 2733   2.837   0.288   2.259 -2.7267 -0.3833 -2.4426
  912SOL     OW 2734   3.058   1.207   1.391  0.1298 -0.0408  0.5398
  912SOL    HW1 2735   2.977   1.264   1.371 -1.2857  0.5886 -1.2048
  912SOL    HW2 2736   0.037   1.256   1.451  0.3068  1.0659  1.6453
  913SOL     OW 2737   2.760   1.966   1.668  0.3337 -0.1949  0.2739
  913SOL    HW1 2738   2.848   2.016   1.662  1.6651  2.1671 -0.0819
  913SOL    HW2 2739   2.728   1.935   1.577  0.9728 -2.9386  1.0958
  914SOL     OW 2740   1.619   0.870   1.335  0.6883  0.3201  0.0742
  914SOL    HW1 2741   1.600   0.769   1.331 -0.0276 -0.1581  1.0875
  914SOL    HW2 2742   1.594   0.921   1.253 -1.9339  0.4616  0.8700
  915SOL     OW 2743   1.541   0.569   1.555 -0.8038  0.1571  0.1682
  915SOL    HW1 2744   1.476   0.531   1.623 -0.8231  0.8137  0.0708
  915SOL    HW2 2745   1.614   0.621   1.604 -1.0372 -0.2627  1.0494
  916SOL     OW 2746   2.767   2.293   1.495  0.2356 -0.8425  0.7666
  916SOL    HW1 2747   2.683   2.313   1.439 -3.9669 -0.2362  0.0897
  916SOL    HW2 2748   2.729   2.242   1.572 -0.7083  1.1601 -1.7660
  917SOL     OW 2749   2.551   2.056   0.353  0.4794  0.1633 -0.3505
  917SOL    HW1 2750   2.522   2.133   0.292 -0.1076  0.6368 -1.5700
  917SOL    HW2 2751   2.651   2.042   0.345 -2.0813 -0.4391  2.4872
  918SOL     OW 2752   1.974   2.799   2.698 -0.5086 -0.3817 -0.1737
  918SOL    HW1 2753   2.066   2.806   2.652 -1.2099 -0.8265 -1.2233
  918SOL    HW2 2754   1.955   2.710   2.733  2.1089  0.0177  0.0135
  919SOL     OW 2755   1.006   2.307   1.470 -0.0919  0.4339 -0.1119
  919SOL    HW1 2756   0.929   2.372   1.473  1.1693 -0.0719  1.1921
  919SOL    HW2 2757   1.074   2.331   1.536  1.1886  1.0410  0.1939
  920SOL     OW 2758   0.117   0.303   2.155  0.4283  0.3950 -0.2421
  920SOL    HW1 2759   0.161   0.228   2.208 -1.1258  1.5568  1.3796
  920SOL    HW2 2760   0.176   0.346   2.085  2.1164  0.6460  2.8390
  921SOL     OW 2761   3.018   0.828   1.840  0.3026 -0.2315  0.2913
  921SOL    HW1 2762   3.006   0.848   1.936 -1.2607  0.6467  3.7379
  921SOL    HW2 2763   0.011   0.868   1.795 -0.5607 -0.2946  2.5425
  922SOL     OW 2764   2.322   2.051   0.639 -0.2868  0.8003 -0.0376
  922SOL    HW1 2765   2.400   2.045   0.575  0.5068  1.2458  2.0544
  922SOL    HW2 2766   2.268   1.960   0.643  0.3755  0.1516  1.2471
  923SOL     OW 2767   0.870   1.942   2.850  0.3947 -0.2144 -0.7283
  923SOL    HW1 2768   0.784   1.891   2.865  1.1987  0.5503  0.2269
  923SOL    HW2 2769   0.851   2.009   2.777 -0.5527 -1.6595 -0.5407
  924SOL     OW 2770   0.936   0.464   0.292  0.0276 -0.1308  0.2846
  924SOL    HW1 2771   0.909   0.378   0.338  1.5314 -0.6788 -1.4253
  924SOL    HW2 2772   1.021   0.508   0.331 -1.0515  1.8065 -0.6698
  925SOL     OW 2773   2.551   0.443   0.665  0.5324  0.0216  0.2709
  925SOL    HW1 2774   2.496   0.525   0.687 -0.1422  0.3088  1.4134
  925SOL    HW2 2775   2.493   0.358   0.666 -1.4446 -2.4708 -2.0074
  926SOL     OW 2776   0.312   0.691   1.251 -0.6349 -0.0827 -0.0068
  926SOL    HW1 2777   0.313   0.774   1.307  3.0260 -0.5305 -0.1519
  926SOL    HW2 2778   0.213   0.671   1.229  1.3287  2.5999  0.8167
  927SOL     OW 2779   0.080   1.353   2.627 -0.0243  0.1428 -1.0253
  927SOL    HW1 2780   0.055   1.381   2.532 -0.7083 -2.8402  0.2513
  927SOL    HW2 2781   0.015   1.288   2.667 -1.1551 -0.5611 -0.6626
  928SOL     OW 2782   2.856   0.765   2.781  0.0650 -0.2037 -0.1491
  928SOL    HW1 2783   2.785   0.699   2.821  0.0774 -1.2670 -0.2033
  928SOL    HW2 2784   2.935   0.778   2.848  0.5471  1.8348  3.7380
  929SOL     OW 2785   2.681   3.045   1.332 -0.3128  0.5974 -0.0282
  929SOL    HW1 2786   2.642   0.045   1.308  0.2895 -0.0808 -1.2772
  929SOL    HW2 2787   2.659   3.012   1.429  1.0386  1.2708  0.2525
  930SOL     OW 2788   1.836   1.251   1.634  0.3520 -0.2321 -0.5017
  930SOL    HW1 2789   1.773   1.171   1.638  0.2209  3.0304  2.8867
  930SOL    HW2 2790   1.875   1.262   1.539 -1.2368  2.8702  0.1371
  931SOL     OW 2791   1.747   1.113   0.625  0.2436  0.2744 -0.1743
  931SOL    HW1 2792   1.677   1.103   0.554  2.1467 -2.9272 -0.3430
  931SOL    HW2 2793   1.806   1.195   0.615 -0.3419  0.9249  1.3570
  932SOL     OW 2794   2.721   1.218   0.798 -0.3441 -0.6631 -0.2418
  932SOL    HW1 2795   2.700   1.122   0.778  3.0758 -0.1191  0.5797
  932SOL    HW2 2796   2.697   1.235   0.893 -0.0902 -0.7359  1.1094
  933SOL     OW 2797   2.500   1.633   1.335  0.1015  0.1454  0.1651
  933SOL    HW1 2798   2.431   1.696   1.293  1.4168 -1.9540  0.6034
  933SOL    HW2 2799   2.590   1.679   1.322  0.7432  0.9799  1.1347
  934SOL     OW 2800   1.994   0.281   2.100  1.1384  0.2128  0.4533
  934SOL    HW1 2801   1.949   0.364   2.132  0.0148 -3.2534  0.5728
  934SOL    HW2 2802   2.090   0.304   2.067  0.2498  3.8553 -0.4265
  935SOL     OW 2803   0.312   1.503   0.802  0.2109 -0.1695  0.6200
  935SOL    HW1 2804   0.221   1.488   0.759  2.0778 -1.4476 -1.1101
  935SOL    HW2 2805   0.312   1.571   0.872 -1.0912 -2.6305 -0.6318
  936SOL     OW 2806   0.479   0.858   0.455 -0.0225  0.4901 -0.1989
  936SOL    HW1 2807   0.478   0.866   0.352 -0.4811  2.0804 -0.0612
  936SOL    HW2 2808   0.439   0.943   0.490 -2.4037 -3.3175 -1.1805
  937SOL     OW 2809   2.309   3.034   1.087  0.0675 -0.2688 -0.1340
  937SOL    HW1 2810   2.316   3.001   0.989  2.8616  2.0046  0.4944
  937SOL    HW2 2811   2.355   2.974   1.153  2.7402 -0.4779  1.0916
  938SOL     OW 2812   2.663   2.412   0.596 -0.4419 -0.3170  1.0781
  938SOL    HW1 2813   2.753   2.408   0.545 -1.1000 -1.2369 -2.7887
  938SOL    HW2 2814   2.613   2.487   0.542  0.1849 -1.3233  0.2333
  939SOL     OW 2815   0.975   1.997   0.252  0.0620  0.4053 -0.8098
  939SOL    HW1 2816   0.899   1.927   0.244  1.5552  1.6787 -0.8329
  939SOL    HW2 2817   1.053   1.960   0.306 -1.3887  0.0454  2.0019
  940SOL     OW 2818   2.893   0.284   2.748 -0.0807 -0.3822 -0.3603
  940SOL    HW1 2819   2.938   0.316   2.664  0.8645  2.2860  1.3661
  940SOL    HW2 2820   2.798   0.264   2.716  0.0154  0.7139  0.0140
  941SOL     OW 2821   1.350   0.196   2.796 -0.0522  0.5062 -0.2173
  941SOL    HW1 2822   1.409   0.112   2.799 -0.7673 -1.2604 -0.0827
  941SOL    HW2 2823   1.261   0.181   2.846  0.6934 -0.1879 -0.3568
  942SOL     OW 2824   1.272   1.160   1.232 -0.2905  0.2763 -0.5344
  942SOL    HW1 2825   1.293   1.260   1.247 -4.7785  1.6132  0.0060
  942SOL    HW2 2826   1.169   1.142   1.213 -2.5073 -1.4516 -1.6138
  943SOL     OW 2827   1.253   1.087   1.864 -0.3240 -0.1854  0.0424
  943SOL    HW1 2828   1.285   1.034   1.776  1.0388 -1.6738 -0.8499
  943SOL    HW2 2829   1.154   1.074   1.874  2.3971  1.3346 -0.6803
  944SOL     OW 2830   1.630   0.872   1.751 -0.2003  0.5448  0.2578
  944SOL    HW1 2831   1.531   0.869   1.724  1.0527  0.7356 -1.2015
  944SOL    HW2 2832   1.634   0.893   1.848 -2.8277  1.5394 -0.8171
  945SOL     OW 2833   2.943   3.049   0.290 -0.3016 -0.1769 -0.6863
  945SOL    HW1 2834   3.045   3.027   0.291 -2.1735 -1.7696  0.6359
  945SOL    HW2 2835   2.915   0.024   0.367 -0.3404 -1.3125  0.8906
  946SOL     OW 2836   2.935   0.602   2.078 -0.5054  0.5632 -0.8467
  946SOL    HW1 2837   2.992   0.688   2.077  2.0188 -1.6168 -0.7253
  946SOL    HW2 2838   2.843   0.629   2.110 -0.8345  1.0423 -2.5963
  947SOL     OW 2839   0.489   2.904   0.590  0.0011 -0.1200  0.2698
  947SOL    HW1 2840   0.497   2.803   0.580  0.9669 -0.5631  2.7230
  947SOL    HW2 2841   0.539   2.951   0.517  2.2596 -1.5855 -1.3861
  948SOL     OW 2842   2.171   1.123   1.692  0.5467 -0.2248 -0.5430
  948SOL    HW1 2843   2.197   1.054   1.763  1.3101  1.3218 -1.8938
  948SOL    HW2 2844   2.075   1.121   1.666  1.9231 -0.8474 -1.7814
  949SOL     OW 2845   0.592   0.752   2.598 -0.0891  0.1235  0.3124
  949SOL    HW1 2846   0.556   0.819   2.533 -1.3311 -3.8022  0.3466
  949SOL    HW2 2847   0.516   0.693   2.640  0.7749 -1.9243  2.6775
  950SOL     OW 2848   0.454   0.403   1.086  0.4457  0.2242 -0.4893
  950SOL    HW1 2849   0.549   0.382   1.053 -1.9972  0.8814  2.2925
  950SOL    HW2 2850   0.391   0.442   1.015 -2.4877  1.5409  2.5104
  951SOL     OW 2851   0.859   1.422   2.190  0.3488 -0.0617  0.0224
  951SOL    HW1 2852   0.840   1.518   2.147 -1.4182  1.2078 -2.7888
  951SOL    HW2 2853   0.924   1.374   2.135 -2.2510  0.0566 -1.2129
  952SOL     OW 2854   0.896   1.516   0.108 -0.2999  0.2642 -0.4948
  952SOL    HW1 2855   0.970   1.577   0.070 -3.5170 -0.7911  0.6037
  952SOL    HW2 2856   0.865   1.544   0.198 -2.0807 -4.3260 -0.4536
  953SOL     OW 2857   2.538   0.221   2.218  0.5576 -0.6626 -0.0855
  953SOL    HW1 2858   2.540   0.318   2.178  0.0783  2.4705  0.7741
  953SOL    HW2 2859   2.604   0.163   2.168  3.5035  0.3232  0.9224
  954SOL     OW 2860   1.615   1.123   0.847  0.5061  0.2462  0.0929
  954SOL    HW1 2861   1.679   1.123   0.764  2.1727 -0.7680 -2.2399
  954SOL    HW2 2862   1.566   1.208   0.852  0.9803 -0.0549 -0.7449
  955SOL     OW 2863   0.366   1.933   2.694 -0.2110 -0.4392 -0.0606
  955SOL    HW1 2864   0.359   1.856   2.763 -2.9389  2.3633 -0.6270
  955SOL    HW2 2865   0.332   2.021   2.736 -1.8258  1.3059  0.5124
  956SOL     OW 2866   1.670   0.645   2.039  0.4618 -0.3546  0.3078
  956SOL    HW1 2867   1.618   0.604   2.114  1.3575 -0.6950 -0.8723
  956SOL    HW2 2868   1.667   0.750   2.033 -1.5613 -0.9590  0.1698
  957SOL     OW 2869   1.800   2.140   2.835  0.3464  0.2252  0.3269
  957SOL    HW1 2870   1.801   2.036   2.839  0.9979 -0.0130 -1.4043
  957SOL    HW2 2871   1.829   2.176   2.926  0.3743 -1.0298  1.5605
  958SOL     OW 2872   1.209   2.031   1.617 -0.1104 -0.1793  0.0091
  958SOL    HW1 2873   1.267   1.958   1.576  0.4363 -0.7702  2.2868
  958SOL    HW2 2874   1.251   2.122   1.595  0.3862 -0.1074  0.3803
  959SOL     OW 2875   2.177   2.366   2.910  0.3718  0.0970 -0.3662
  959SOL    HW1 2876   2.234   2.300   2.861 -2.5831  2.4361 -0.5028
  959SOL    HW2 2877   2.113   2.314   2.966 -0.5771 -2.3385 -0.2920
  960SOL     OW 2878   2.989   0.674   2.549 -0.1505  0.1507  0.6496
  960SOL    HW1 2879   3.035   0.754   2.510 -1.1987 -0.9120 -1.8252
  960SOL    HW2 2880   2.926   0.702   2.621 -0.9651 -0.5746 -0.5399
  961SOL     OW 2881   0.927   0.784   2.590 -0.3931 -0.0440 -0.0672
  961SOL    HW1 2882   0.989   0.735   2.523  1.6544  0.0384  0.8933
  961SOL    HW2 2883   0.928   0.740   2.682 -1.5894 -2.6369  0.8425
  962SOL     OW 2884   0.800   1.230   2.643 -0.0434 -0.8877  0.1216
  962SOL    HW1 2885   0.816   1.248   2.739  0.8529  1.3948  0.0797
  962SOL    HW2 2886   0.701   1.232   2.619 -1.6111  1.0446  0.5808
  963SOL     OW 2887   2.554   2.566   0.404  0.3544 -0.5269 -0.5234
  963SOL    HW1 2888   2.494   2.500   0.351  0.4433 -2.9033 -0.4821
  963SOL    HW2 2889   2.545   2.665   0.376  1.1458 -2.6635 -0.6130
  964SOL     OW 2890   0.952   2.399   1.150 -0.0412  0.4149 -0.1676
  964SOL    HW1 2891   0.994   2.342   1.223 -2.1481 -1.1792 -2.7040
  964SOL    HW2 2892   0.995   2.489   1.151 -2.7900 -2.8645  1.2800
  965SOL     OW 2893   1.522   1.487   0.460 -0.3269  0.3293  0.5551
  965SOL    HW1 2894   1.621   1.490   0.485  4.5302  2.5124  1.1332
  965SOL    HW2 2895   1.463   1.495   0.542 -1.5055  2.3775 -0.6988
  966SOL     OW 2896   0.049   1.537   0.314 -0.0357  0.2655  0.4887
  966SOL    HW1 2897   0.097   1.446   0.338  2.2043  0.4445 -2.7923
  966SOL    HW2 2898   0.074   1.566   0.217 -0.5807  1.0737 -0.8406
  967SOL     OW 2899   1.858   0.115   1.926  0.4315 -0.0935 -0.3415
  967SOL    HW1 2900   1.766   0.153   1.915 -0.2467 -0.2408  1.2710
  967SOL    HW2 2901   1.911   0.184   1.975 -0.3010 -3.0286 -2.2276
  968SOL     OW 2902   1.732   0.671   0.815 -0.5519  0.4922 -0.0678
  968SOL    HW1 2903   1.742   0.739   0.739 -1.6642  2.3063  1.2173
  968SOL    HW2 2904   1.642   0.625   0.821  1.3081 -1.9278  1.0461
  969SOL     OW 2905   0.280   1.081   2.304 -0.4601 -0.0485 -0.1767
  969SOL    HW1 2906   0.300   1.129   2.216  0.0481 -1.1868 -1.0405
  969SOL    HW2 2907   0.180   1.063   2.310  0.7766  1.3869  2.9782
  970SOL     OW 2908   2.121   1.437   1.276  0.0626  0.4622  0.3420
  970SOL    HW1 2909   2.175   1.399   1.352 -0.3268 -0.0731 -1.3635
  970SOL    HW2 2910   2.158   1.417   1.183  0.1030  0.4515 -0.1808
  971SOL     OW 2911   0.001   0.054   1.102  0.0277  0.7306 -0.3824
  971SOL    HW1 2912   0.091   0.098   1.089  2.6359 -0.0342  1.5153
  971SOL    HW2 2913   0.001   3.054   1.054 -0.3911  0.3552 -1.9986
  972SOL     OW 2914   0.362   0.636   2.695  0.5896 -0.5906  0.0856
  972SOL    HW1 2915   0.326   0.542   2.704 -0.1233 -0.3140  4.5723
  972SOL    HW2 2916   0.328   0.681   2.608 -0.6611  1.9218 -2.2117
  973SOL     OW 2917   0.242   0.538   0.757 -0.1118  0.1464  0.2739
  973SOL    HW1 2918   0.197   0.453   0.783  0.2263  2.8209 -0.7494
  973SOL    HW2 2919   0.263   0.596   0.837 -0.8353  1.3468 -2.3730
  974SOL     OW 2920   2.219   0.479   1.569  0.2928  0.1685 -0.0011
  974SOL    HW1 2921   2.268   0.531   1.640 -1.3850 -0.8246  0.7404
  974SOL    HW2 2922   2.123   0.476   1.602 -0.5223  0.1289 -1.2203
  975SOL     OW 2923   2.707   0.174   3.060  0.3622  0.3123  0.4051
  975SOL    HW1 2924   2.728   0.244   0.037 -0.9546  0.2849 -1.5018
  975SOL    HW2 2925   2.646   0.103   0.008  2.1952  1.6588  1.2026
  976SOL     OW 2926   0.175   1.455   1.251  0.3147 -0.0789  0.2234
  976SOL    HW1 2927   0.169   1.428   1.351 -1.9891 -3.4916  1.3376
  976SOL    HW2 2928   0.203   1.549   1.247  0.2972  1.8401  0.6026
  977SOL     OW 2929   1.314   2.414   0.259 -0.4143  0.4579  0.1578
  977SOL    HW1 2930   1.358   2.394   0.172  0.4311 -0.2281 -1.1066
  977SOL    HW2 2931   1.372   2.381   0.334 -2.1348  0.7472  0.7106
  978SOL     OW 2932   0.307   1.197   2.919  0.4636  0.4596  0.8891
  978SOL    HW1 2933   0.263   1.239   2.993  0.3260 -2.9079 -3.3560
  978SOL    HW2 2934   0.374   1.130   2.951 -0.5423 -0.6113 -0.8188
  979SOL     OW 2935   2.121   1.766   0.873  0.2391 -0.0581  0.0836
  979SOL    HW1 2936   2.064   1.696   0.920  3.5012  0.3826 -0.1431
  979SOL    HW2 2937   2.221   1.735   0.885  3.7373  0.2882  0.7294
  980SOL     OW 2938   0.439   1.530   1.658 -0.4637  0.4585  0.0550
  980SOL    HW1 2939   0.344   1.513   1.696 -0.6036 -0.9434  0.9101
  980SOL    HW2 2940   0.489   1.441   1.650  0.3612  0.2385  0.7410
  981SOL     OW 2941   2.665   1.444   0.251  0.4861  0.4935 -0.1514
  981SOL    HW1 2942   2.747   1.493   0.289  3.1574  1.3529  0.3050
  981SOL    HW2 2943   2.693   1.385   0.174 -1.0105  0.9387 -1.3915
  982SOL     OW 2944   2.277   2.713   2.049 -0.4502  0.3181 -0.1629
  982SOL    HW1 2945   2.269   2.791   2.117  1.9864 -0.9977  0.5135
  982SOL    HW2 2946   2.301   2.628   2.104  0.0226 -0.2660  1.1403
  983SOL     OW 2947   1.199   0.196   1.182 -0.6013 -0.4360  0.2249
  983SOL    HW1 2948   1.148   0.137   1.241  1.7662  2.8094 -3.3106
  983SOL    HW2 2949   1.163   0.290   1.198  0.3116 -1.3195 -1.9991
  984SOL     OW 2950   1.200   2.622   2.968 -0.0683  0.2278 -0.6545
  984SOL    HW1 2951   1.245   2.700   2.921 -1.3798  0.5617 -0.5262
  984SOL    HW2 2952   1.271   2.552   2.984 -0.9439  0.2477  1.1686
  985SOL     OW 2953   1.724   2.132   1.720 -0.1400 -0.4379  0.0969
  985SOL    HW1 2954   1.739   2.082   1.807 -1.8988  1.4187 -2.1717
  985SOL    HW2 2955   1.649   2.086   1.668  2.1228  0.4998  1.9252
  986SOL     OW 2956   2.279   3.021   2.720  0.5295 -0.2401 -0.0069
  986SOL    HW1 2957   2.255   2.938   2.667  1.8297  1.7193  1.7630
  986SOL    HW2 2958   2.375   3.035   2.710 -1.2810 -0.4823  1.3970
  987SOL     OW 2959   2.853   0.999   2.236  0.0422 -0.0288 -0.2217
  987SOL    HW1 2960   2.807   0.998   2.148  1.4201  1.0948 -1.8562
  987SOL    HW2 2961   2.790   1.029   2.308 -1.5531 -0.0913 -0.9282
  988SOL     OW 2962   2.366   0.781   2.527  0.2027  0.7352  0.0074
  988SOL    HW1 2963   2.403   0.684   2.521 -1.5758  0.2606 -0.2740
  988SOL    HW2 2964   2.323   0.802   2.436  0.3986 -0.1471  0.3531
  989SOL     OW 2965   1.710   1.293   1.984 -0.3697 -0.0402  0.0560
  989SOL    HW1 2966   1.619   1.243   1.970 -3.0117 -0.5192  1.0392
  989SOL    HW2 2967   1.789   1.229   1.985 -0.3057  0.3388  0.4525
  990SOL     OW 2968   0.309   1.203   0.170  0.8664 -0.0573 -0.0868
  990SOL    HW1 2969   0.320   1.104   0.197  0.5622 -1.6808  0.7100
  990SOL    HW2 2970   0.220   1.240   0.214 -3.8089  0.2529  3.2044
  991SOL     OW 2971   0.357   1.714   2.854  0.1696 -0.0882 -0.3093
  991SOL    HW1 2972   0.297   1.630   2.843  0.8730 -0.8328 -2.5176
  991SOL    HW2 2973   0.455   1.696   2.843  0.0847  0.1952 -0.5025
  992SOL     OW 2974   2.668   1.883   2.053  0.3630  0.1113 -0.2026
  992SOL    HW1 2975   2.623   1.918   1.967 -1.7340  2.9040  0.7645
  992SOL    HW2 2976   2.659   1.778   2.062  2.1107 -0.5578  0.5076
  993SOL     OW 2977   0.289   3.045   0.465  0.2789  0.3037 -0.2313
  993SOL    HW1 2978   0.365   2.993   0.493 -1.5386  0.2524  0.5709
  993SOL    HW2 2979   0.231   3.058   0.541 -0.4860 -1.2809 -1.4446
  994SOL     OW 2980   0.086   1.810   1.669  0.3422 -0.1726 -0.4944
  994SOL    HW1 2981   0.111   1.770   1.763 -1.6775  2.1456  1.2186
  994SOL    HW2 2982   0.161   1.825   1.604 -2.4464 -2.0536  0.5022
  995SOL     OW 2983   2.178   1.669   2.657  0.8077  0.2698  0.2391
  995SOL    HW1 2984   2.237   1.751   2.660 -4.7922  1.5230 -1.2056
  995SOL    HW2 2985   2.091   1.681   2.711 -4.0571 -1.5951  1.3302
  996SOL     OW 2986   1.782   1.404   0.007  0.1014  0.0133  0.0873
  996SOL    HW1 2987   1.721   1.325   0.035 -1.2137  1.2951 -1.2792
  996SOL    HW2 2988   1.743   1.496   0.016  2.9225 -0.3144 -0.3700
  997SOL     OW 2989   1.410   1.317   1.701  0.5054 -0.2594  0.1232
  997SOL    HW1 2990   1.462   1.274   1.627  0.8376  2.3432  1.7184
  997SOL    HW2 2991   1.360   1.246   1.755  0.3807  3.4360  0.0230
  998SOL     OW 2992   2.667   2.146   1.167 -0.6898  0.1167  0.1005
  998SOL    HW1 2993   2.632   2.242   1.179  0.5356 -0.5336 -0.8433
  998SOL    HW2 2994   2.739   2.140   1.095  3.0016  1.8692  0.0193
  999SOL     OW 2995   2.043   2.483   0.366  0.0584  0.1214  0.0892
  999SOL    HW1 2996   2.110   2.550   0.326  0.3979 -0.5655 -0.3573
  999SOL    HW2 2997   2.085   2.432   0.443 -0.0525  0.1644  0.5416
 1000SOL     OW 2998   0.879   2.866   0.005 -0.2137  0.3623  0.1736
 1000SOL    HW1 2999   0.974   2.847   0.032  2.4979 -0.1251  1.2249
 1000SOL    HW2 3000   0.883   2.948   3.031  2.3021  0.7671  0.5475
   3.09020   3.09020   3.09020
