1000 SPC/Fw water molecules t= 178.00000 step= 178000
 3000
    1SOL     OW    1   2.739   3.115   0.941 -0.0957  0.0001 -0.0150
    1SOL    HW1    2   2.656   0.015   0.969 -0.5975 -0.4351 -0.2044
    1SOL    HW2    3   2.721   3.066   0.851 -1.1740  1.0484  3.2344
    2SOL     OW    4   1.650   1.753   2.075 -0.4377 -0.4869 -0.7580
    2SOL    HW1    5   1.551   1.729   2.101 -1.3110 -1.3024  1.0586
    2SOL    HW2    6   1.659   1.805   1.983 -0.6002  4.2968 -2.4357
    3SOL     OW    7   1.709   2.454   2.236  1.0090  0.2761  0.1357
    3SOL    HW1    8   1.770   2.537   2.236 -1.2508  0.9115 -1.3740
    3SOL    HW2    9   1.737   2.387   2.302 -3.4709  3.1931 -2.0356
    4SOL     OW   10   2.084   2.236   2.010  0.3966 -0.1484 -0.2614
    4SOL    HW1   11   2.101   2.297   2.093 -1.0551 -1.2202 -1.1647
    4SOL    HW2   12   2.051   2.289   1.930 -0.2635  1.1487 -2.4361
    5SOL     OW   13   1.173   0.735   1.935 -0.3001  0.1723 -0.1983
    5SOL    HW1   14   1.263   0.766   1.964 -2.7825 -1.2272 -1.6118
    5SOL    HW2   15   1.120   0.818   1.897 -3.7854  2.2925 -0.2382
    6SOL     OW   16   2.773   0.820   3.003 -0.1536 -0.4367  0.7071
    6SOL    HW1   17   2.769   0.789   2.909  0.6550  0.6886  2.6675
    6SOL    HW2   18   2.678   0.841   3.031 -0.8752  0.7928  2.1907
    7SOL     OW   19   1.263   0.951   1.477  0.1546 -0.0967 -0.4526
    7SOL    HW1   20   1.224   0.857   1.503 -0.0897 -4.5049  0.6681
    7SOL    HW2   21   1.285   0.960   1.378  0.9517 -0.6341  1.8120
    8SOL     OW   22   1.107   0.060   1.136  0.2013 -0.4211 -0.4225
    8SOL    HW1   23   1.136   0.134   1.201  0.7393  1.7637 -0.9803
    8SOL    HW2   24   1.009   0.070   1.117  0.7307 -1.5536 -0.9855
    9SOL     OW   25   0.844   0.995   0.027 -0.1548  0.0915  1.3803
    9SOL    HW1   26   0.798   1.083   0.015 -0.8579  0.4924 -1.7453
    9SOL    HW2   27   0.864   0.979   0.123  0.4951  0.7159 -2.1557
   10SOL     OW   28   0.287   2.775   0.188  0.2637 -0.0987 -0.1777
   10SOL    HW1   29   0.194   2.820   0.198  1.7259 -1.0597  0.7809
   10SOL    HW2   30   0.292   2.694   0.251  0.0054 -2.4646  2.2112
   11SOL     OW   31   0.316   1.481   0.010  0.8126 -0.6669  0.2215
   11SOL    HW1   32   0.373   1.461   3.082 -2.6883  0.9456  1.4332
   11SOL    HW2   33   0.216   1.505   3.140  0.9517  0.9220  4.1935
   12SOL     OW   34   0.712   3.108   1.313  0.8327  1.0247  0.2304
   12SOL    HW1   35   0.812   3.097   1.310 -0.1287 -1.0668 -0.9310
   12SOL    HW2   36   0.675   3.013   1.330  0.5064 -0.3211  0.0767
   13SOL     OW   37   1.051   2.975   0.540  0.3605 -0.2206 -0.5544
   13SOL    HW1   38   1.121   3.020   0.605  2.5859  0.7991 -0.5040
   13SOL    HW2   39   0.953   3.003   0.556 -5.2717  3.3117  0.3595
   14SOL     OW   40   1.133   2.024   1.449  0.0125 -0.2418  0.1298
   14SOL    HW1   41   1.030   2.021   1.444 -0.6524  0.9709  1.5933
   14SOL    HW2   42   1.170   1.941   1.410  1.1498  0.9898 -1.8604
   15SOL     OW   43   2.796   0.740   2.254 -0.4674  0.5575  0.0536
   15SOL    HW1   44   2.726   0.791   2.313 -1.5753 -0.0021  3.0198
   15SOL    HW2   45   2.846   0.668   2.305  1.0208 -2.7606 -1.2527
   16SOL     OW   46   1.399   2.855   2.740 -0.2769  0.1031  0.3661
   16SOL    HW1   47   1.378   2.769   2.690 -2.6083 -1.6029  0.9854
   16SOL    HW2   48   1.369   2.841   2.837 -1.9916 -0.8143  0.4650
   17SOL     OW   49   0.975   3.119   1.458  0.6677  0.2346  0.3356
   17SOL    HW1   50   0.935   3.082   1.541 -0.4787 -0.0507  0.6148
   17SOL    HW2   51   1.001   0.065   1.473  1.5744 -0.5888 -0.9145
   18SOL     OW   52   1.078   0.687   0.427  0.1632 -0.1646 -0.5185
   18SOL    HW1   53   0.993   0.714   0.479 -1.2876  2.2561 -1.5639
   18SOL    HW2   54   1.054   0.651   0.335  3.3240  2.5515 -0.0464
   19SOL     OW   55   2.264   1.637   2.966 -0.2162  0.2018 -0.5679
   19SOL    HW1   56   2.176   1.671   2.924 -1.6408 -0.9463  0.6221
   19SOL    HW2   57   2.350   1.671   2.930 -1.7318  1.0007 -0.0324
   20SOL     OW   58   2.115   1.658   1.830  0.0010 -0.1864  0.2569
   20SOL    HW1   59   2.068   1.708   1.906 -1.5706  2.4467  1.1020
   20SOL    HW2   60   2.071   1.677   1.741  0.8478  0.9158  0.3075
   21SOL     OW   61   0.479   1.439   2.938 -0.2818 -0.0984  0.3375
   21SOL    HW1   62   0.579   1.463   2.916  4.3904  1.2154 -1.4883
   21SOL    HW2   63   0.417   1.475   2.862  0.5778 -0.4964  3.7611
   22SOL     OW   64   2.653   3.084   1.478  0.7045 -0.3733 -0.4633
   22SOL    HW1   65   2.582   3.024   1.431 -1.7141 -0.8256 -0.9028
   22SOL    HW2   66   2.658   0.022   1.420  0.8530  0.9564 -2.8608
   23SOL     OW   67   3.001   0.635   1.703 -0.0737 -0.1217 -0.1210
   23SOL    HW1   68   2.983   0.724   1.657 -0.1730 -0.2716  1.1578
   23SOL    HW2   69   2.949   0.563   1.660  1.4671  4.4488  0.3498
   24SOL     OW   70   2.597   2.327   1.459  0.0978  0.0376  0.2772
   24SOL    HW1   71   2.508   2.305   1.501  0.6727 -0.5503  0.6655
   24SOL    HW2   72   2.654   2.371   1.526  0.6596 -1.1972  0.6854
   25SOL     OW   73   1.980   3.007   2.516  0.1775  0.2112  0.5255
   25SOL    HW1   74   2.013   2.993   2.422  0.3441  2.8317  3.5791
   25SOL    HW2   75   1.886   2.959   2.530  0.0730  0.2267  0.9515
   26SOL     OW   76   1.398   3.035   0.011 -0.5369 -0.0608  0.1443
   26SOL    HW1   77   1.332   2.980   3.109 -0.8697 -0.2954 -1.3109
   26SOL    HW2   78   1.484   2.985   0.039  0.1592 -1.0680  3.3233
   27SOL     OW   79   0.494   2.199   2.989 -0.0441  0.3329 -0.3308
   27SOL    HW1   80   0.536   2.148   3.067  0.4241  0.7740 -1.9478
   27SOL    HW2   81   0.410   2.150   2.956  1.3014  0.8711 -1.5507
   28SOL     OW   82   0.046   1.471   1.391  0.0334  0.2974  0.3683
   28SOL    HW1   83   0.011   1.380   1.361 -1.0550  1.6035 -1.4395
   28SOL    HW2   84   0.149   1.474   1.380  1.9594  2.6984 -1.8614
   29SOL     OW   85   2.632   1.968   2.202 -0.5663 -0.0375 -0.4060
   29SOL    HW1   86   2.588   1.878   2.214 -1.3451 -0.8349  0.7480
   29SOL    HW2   87   2.718   1.978   2.257  0.1803  2.0095 -0.2615
   30SOL     OW   88   1.259   3.055   0.990  0.2165 -0.1588  0.0031
   30SOL    HW1   89   1.255   2.961   1.028  2.2616 -0.9362 -0.5319
   30SOL    HW2   90   1.204   3.125   1.047 -3.8879  2.0648  0.3978
   31SOL     OW   91   3.098   2.274   1.772 -0.1217  0.2039  0.1295
   31SOL    HW1   92   3.072   2.357   1.824  1.5726 -0.7838 -0.8630
   31SOL    HW2   93   0.048   2.261   1.777 -2.6691 -1.3856  0.9606
   32SOL     OW   94   1.328   1.014   1.862  0.3177 -0.5955  0.3321
   32SOL    HW1   95   1.357   1.067   1.781 -0.4794  1.2880 -5.2213
   32SOL    HW2   96   1.311   1.073   1.943 -1.5668 -0.3076  0.0391
   33SOL     OW   97   0.110   2.601   2.303  0.8854  0.4618 -0.0758
   33SOL    HW1   98   0.007   2.603   2.300  0.2473 -1.9386  0.1567
   33SOL    HW2   99   0.144   2.674   2.241  1.7224  0.5391  0.2323
   34SOL     OW  100   2.155   0.019   0.807 -0.1991  0.4272 -0.7541
   34SOL    HW1  101   2.053   0.037   0.795 -0.5481 -2.8462 -1.7807
   34SOL    HW2  102   2.211   0.092   0.770 -0.4960 -1.1528  0.4277
   35SOL     OW  103   2.254   0.840   1.683 -0.0963 -0.0885  0.2135
   35SOL    HW1  104   2.218   0.902   1.605 -1.0040  2.4090  1.7259
   35SOL    HW2  105   2.348   0.805   1.666 -0.6824 -1.3967  0.2433
   36SOL     OW  106   2.441   2.421   2.112  0.4039  0.2049  0.4500
   36SOL    HW1  107   2.487   2.334   2.136  0.8668  1.6575  0.6987
   36SOL    HW2  108   2.352   2.409   2.162 -1.4204  0.4736  0.8537
   37SOL     OW  109   0.826   2.393   2.360 -0.5553 -0.2823  0.7916
   37SOL    HW1  110   0.912   2.381   2.301 -2.5992 -0.0492  1.6602
   37SOL    HW2  111   0.853   2.412   2.458 -0.3378  0.3917  0.5579
   38SOL     OW  112   2.678   0.286   3.073 -0.0548  0.5085 -0.1798
   38SOL    HW1  113   2.641   0.341   3.146  1.4777 -0.7366 -1.6032
   38SOL    HW2  114   2.618   0.207   3.052  0.4521 -1.6927  3.7858
   39SOL     OW  115   1.925   1.711   2.022 -0.4827  0.0340  0.0383
   39SOL    HW1  116   1.839   1.674   2.053  0.3897  1.5603  1.5289
   39SOL    HW2  117   1.987   1.709   2.101  0.8327  2.3167  0.4853
   40SOL     OW  118   0.022   2.919   2.667 -0.1872  0.1783 -0.5200
   40SOL    HW1  119   3.108   2.889   2.741  1.0257  1.4993  1.3123
   40SOL    HW2  120   0.079   2.840   2.635 -1.1523  2.5376 -0.1025
   41SOL     OW  121   1.944   0.644   1.308  0.6078 -0.3668 -0.3070
   41SOL    HW1  122   2.042   0.624   1.327 -0.1815 -0.2384  1.2282
   41SOL    HW2  123   1.918   0.604   1.217  0.6495 -1.5068 -1.7151
   42SOL     OW  124   1.091   0.216   1.872 -0.0357 -0.3625 -0.0316
   42SOL    HW1  125   1.125   0.309   1.888  1.0635 -1.3712 -3.5289
   42SOL    HW2  126   1.013   0.189   1.926 -0.0312  2.4377 -2.8491
   43SOL     OW  127   2.182   0.915   1.945  0.9785  0.4391 -0.2811
   43SOL    HW1  128   2.260   0.974   1.976 -2.0089  2.7886 -0.5697
   43SOL    HW2  129   2.196   0.897   1.846 -3.3600  0.0927  0.0318
   44SOL     OW  130   0.052   2.928   0.242 -0.5259  0.0146 -0.6065
   44SOL    HW1  131   3.150   2.912   0.161  4.0272  0.3227 -0.7209
   44SOL    HW2  132   0.074   3.027   0.249  0.9908  1.0966 -0.2635
   45SOL     OW  133   0.229   2.562   1.918  0.1714  0.5349  0.1367
   45SOL    HW1  134   0.165   2.617   1.978 -0.9650  0.4021  0.4968
   45SOL    HW2  135   0.313   2.605   1.883  2.7652 -2.2249 -0.7204
   46SOL     OW  136   2.099   2.381   2.250  0.2739 -0.5187  0.3107
   46SOL    HW1  137   2.176   2.347   2.310  1.3540  2.9233  0.6213
   46SOL    HW2  138   2.058   2.465   2.294 -0.3632 -3.1261 -0.1107
   47SOL     OW  139   1.538   2.125   1.546  0.1507 -0.1042  0.5429
   47SOL    HW1  140   1.568   2.191   1.622  0.9348  1.2255  4.1916
   47SOL    HW2  141   1.446   2.155   1.513 -1.4190  1.4509  1.0581
   48SOL     OW  142   0.417   1.563   0.478 -0.5710 -0.8310 -0.1919
   48SOL    HW1  143   0.502   1.621   0.504  2.7266  0.9346  0.1441
   48SOL    HW2  144   0.353   1.559   0.555  0.7552 -1.6751 -2.9673
   49SOL     OW  145   2.852   0.369   2.621  0.2165 -0.2316 -0.1118
   49SOL    HW1  146   2.871   0.439   2.690 -1.4095 -1.6065 -0.7316
   49SOL    HW2  147   2.850   0.417   2.531  1.0434 -1.0673 -0.0793
   50SOL     OW  148   2.211   0.859   0.710  0.7380  0.5137  0.0983
   50SOL    HW1  149   2.124   0.911   0.701  1.2509  3.3201 -2.7778
   50SOL    HW2  150   2.290   0.923   0.703 -1.5302 -0.7199  2.9864
   51SOL     OW  151   1.519   0.429   0.823  0.5731  0.4366 -0.1940
   51SOL    HW1  152   1.437   0.375   0.863 -2.7752 -0.9328  3.4964
   51SOL    HW2  153   1.505   0.462   0.727  3.1634  1.2063 -0.1509
   52SOL     OW  154   1.317   1.337   0.027  0.2806  0.2396 -0.4983
   52SOL    HW1  155   1.315   1.276   0.114 -2.5127 -1.5458  1.4085
   52SOL    HW2  156   1.359   1.424   0.045 -2.6450 -5.5806 -3.4126
   53SOL     OW  157   1.128   2.048   2.995  0.0127 -0.4716 -0.0247
   53SOL    HW1  158   1.053   2.108   3.028  1.2722 -0.9327  1.2974
   53SOL    HW2  159   1.188   2.098   2.927 -0.1638  4.7189 -0.0087
   54SOL     OW  160   2.191   0.547   1.343 -0.5323  0.0743 -0.3933
   54SOL    HW1  161   2.265   0.615   1.333  0.1213 -0.3083 -1.3400
   54SOL    HW2  162   2.219   0.470   1.405  2.6761 -0.4236  0.1251
   55SOL     OW  163   2.327   2.797   0.637  0.4733  0.0533 -0.4746
   55SOL    HW1  164   2.288   2.889   0.654 -2.6933  0.9555 -1.6432
   55SOL    HW2  165   2.264   2.740   0.577 -0.3334  2.4015  0.2262
   56SOL     OW  166   0.636   2.886   1.428 -0.0956  0.2698  0.0979
   56SOL    HW1  167   0.592   2.793   1.411  0.0282 -0.9914  0.7378
   56SOL    HW2  168   0.682   2.885   1.519  1.3627  0.5196  2.2376
   57SOL     OW  169   1.662   1.452   0.654 -0.4483 -0.4702 -0.5671
   57SOL    HW1  170   1.668   1.382   0.579 -0.0249  0.1727 -0.7415
   57SOL    HW2  171   1.751   1.492   0.686 -1.2226  0.1648  0.8363
   58SOL     OW  172   0.267   0.736   2.407  0.3623  0.2018 -0.1361
   58SOL    HW1  173   0.190   0.805   2.395 -2.0858 -1.6235  1.3918
   58SOL    HW2  174   0.236   0.643   2.437 -0.9933 -0.3335 -2.1641
   59SOL     OW  175   0.920   3.001   2.318  0.1323 -0.1673 -0.7415
   59SOL    HW1  176   0.989   2.963   2.379  1.4603 -1.1886 -0.8112
   59SOL    HW2  177   0.946   3.100   2.297  0.0923  0.1530 -1.3572
   60SOL     OW  178   2.572   2.624   0.988  0.1342  0.0489  0.6344
   60SOL    HW1  179   2.506   2.702   0.977  0.4410  0.1995  0.3335
   60SOL    HW2  180   2.614   2.628   1.078 -0.5404 -4.4178  2.1746
   61SOL     OW  181   1.132   2.086   0.731 -0.2209 -0.7217  0.7535
   61SOL    HW1  182   1.029   2.079   0.739 -0.3788  1.1294 -0.3909
   61SOL    HW2  183   1.174   2.156   0.798  1.5380 -0.4924  1.4217
   62SOL     OW  184   2.197   2.460   2.739  0.4137 -0.3977  0.0936
   62SOL    HW1  185   2.210   2.387   2.810  0.1283  1.7885  0.3571
   62SOL    HW2  186   2.188   2.551   2.783 -0.4091  0.7392 -0.2716
   63SOL     OW  187   2.394   0.645   3.057 -0.3196 -0.4438 -0.1872
   63SOL    HW1  188   2.298   0.629   3.090  1.2598  0.1845 -2.7657
   63SOL    HW2  189   2.428   0.557   3.012 -0.3081 -1.9567 -2.9540
   64SOL     OW  190   0.906   1.110   2.919 -0.3542 -0.2215 -1.0373
   64SOL    HW1  191   0.991   1.165   2.938  0.4462 -0.5519 -0.8800
   64SOL    HW2  192   0.866   1.062   3.004  1.5172 -1.0014  3.6952
   65SOL     OW  193   1.247   2.347   0.471  0.2108 -0.3349  0.1983
   65SOL    HW1  194   1.178   2.418   0.443  1.3420 -1.4728  1.3654
   65SOL    HW2  195   1.203   2.263   0.499  4.4640  1.0696 -2.8063
   66SOL     OW  196   0.917   1.295   1.703 -0.7615 -0.0943 -0.2891
   66SOL    HW1  197   0.988   1.229   1.676 -0.8695 -2.1005  0.3368
   66SOL    HW2  198   0.909   1.291   1.810 -2.9709  0.3284  2.3070
   67SOL     OW  199   2.332   2.940   2.373  0.2915 -0.7381  0.1190
   67SOL    HW1  200   2.240   2.922   2.328  1.9799 -0.9789  0.9996
   67SOL    HW2  201   2.389   3.000   2.312 -1.1197  2.4582  1.7280
   68SOL     OW  202   0.734   1.568   1.278 -0.3137  0.1040  0.1819
   68SOL    HW1  203   0.825   1.602   1.312 -2.3335 -0.9042 -0.1831
   68SOL    HW2  204   0.725   1.466   1.275 -0.5163 -1.7771 -0.4767
   69SOL     OW  205   1.390   2.366   0.247  0.1223  0.5985  0.1007
   69SOL    HW1  206   1.350   2.331   0.334 -1.8440 -0.5529 -0.5058
   69SOL    HW2  207   1.424   2.462   0.248  0.7908  1.2804 -1.1341
   70SOL     OW  208   0.064   0.968   2.601  0.2035 -0.2417 -0.0178
   70SOL    HW1  209   3.143   1.040   2.624  0.8917  0.6455  0.1782
   70SOL    HW2  210   0.031   0.890   2.551  0.5974  2.5138  4.3594
   71SOL     OW  211   3.136   1.618   2.711  0.5242 -0.1202 -0.4022
   71SOL    HW1  212   0.017   1.651   2.617 -0.2110 -0.0883 -0.2232
   71SOL    HW2  213   0.047   1.652   2.785 -0.4260 -0.7009  0.7393
   72SOL     OW  214   2.820   2.302   0.383  0.5559  0.4218  0.1728
   72SOL    HW1  215   2.794   2.234   0.452 -1.3382  0.6738  0.9015
   72SOL    HW2  216   2.765   2.293   0.298 -0.0606 -0.8801 -3.8577
   73SOL     OW  217   0.601   1.768   0.549 -0.3304  0.0841 -0.0854
   73SOL    HW1  218   0.585   1.868   0.545  1.3537 -1.1621  1.3963
   73SOL    HW2  219   0.692   1.735   0.516 -0.8659 -0.2717 -2.8098
   74SOL     OW  220   0.106   1.350   2.692  0.1708  0.7004 -0.0216
   74SOL    HW1  221   0.025   1.400   2.664 -0.5615 -2.2773 -0.1318
   74SOL    HW2  222   0.147   1.289   2.617  2.4214 -1.0042 -0.9665
   75SOL     OW  223   1.653   1.571   1.746  0.2417 -0.1938  0.2459
   75SOL    HW1  224   1.695   1.656   1.786 -0.5993  3.3406  1.7997
   75SOL    HW2  225   1.554   1.567   1.772 -0.1818 -1.6293  0.1070
   76SOL     OW  226   1.736   2.453   1.410  0.8535 -0.1606 -0.3609
   76SOL    HW1  227   1.781   2.478   1.325 -1.3916 -0.2386  0.7167
   76SOL    HW2  228   1.659   2.514   1.438  0.6423 -0.9086 -0.7833
   77SOL     OW  229   2.675   1.014   1.278  0.3116 -0.2964 -0.0459
   77SOL    HW1  230   2.756   0.949   1.291  0.7580 -0.6089 -0.9348
   77SOL    HW2  231   2.620   0.979   1.197 -1.7728  1.8147 -1.6070
   78SOL     OW  232   1.373   0.993   0.575  0.5334  0.6972 -0.9482
   78SOL    HW1  233   1.382   1.091   0.600 -0.3461  1.1908  3.0995
   78SOL    HW2  234   1.460   0.964   0.531 -4.1864 -1.3299 -0.1572
   79SOL     OW  235   0.012   1.508   1.901 -0.1067  0.1317  0.0151
   79SOL    HW1  236   0.094   1.471   1.855 -2.3678 -1.0009  0.2448
   79SOL    HW2  237   3.084   1.452   1.871  1.4181  1.3991  0.7032
   80SOL     OW  238   1.607   1.062   1.549 -0.2860  0.2707 -0.5304
   80SOL    HW1  239   1.615   0.959   1.542 -1.2528 -1.7017 -2.9099
   80SOL    HW2  240   1.585   1.101   1.456 -2.1399  1.1078  2.3435
   81SOL     OW  241   0.880   0.224   0.806  0.3913 -0.0288 -0.8655
   81SOL    HW1  242   0.820   0.306   0.793  1.1118  0.5628  0.4418
   81SOL    HW2  243   0.887   0.181   0.715 -0.4430  0.1874 -1.8090
   82SOL     OW  244   1.477   2.957   1.610  0.3289  0.0903  0.0253
   82SOL    HW1  245   1.410   3.009   1.559  1.5598 -3.7503 -1.1883
   82SOL    HW2  246   1.560   2.932   1.554  0.7284 -1.4610 -1.9905
   83SOL     OW  247   0.719   2.214   0.875 -0.3931  0.2126  0.0898
   83SOL    HW1  248   0.661   2.154   0.928  4.7610 -0.6716  2.7215
   83SOL    HW2  249   0.809   2.224   0.927  0.8059 -1.0549  0.7477
   84SOL     OW  250   0.291   1.559   2.744 -0.1123 -0.6589 -0.1191
   84SOL    HW1  251   0.222   1.481   2.734 -2.5535  0.4476 -2.2683
   84SOL    HW2  252   0.306   1.603   2.656 -1.0027  0.1978  0.1850
   85SOL     OW  253   0.083   2.364   1.368  0.0141 -0.3102  0.0942
   85SOL    HW1  254   3.142   2.397   1.406 -0.7538  2.2558  1.8281
   85SOL    HW2  255   0.164   2.427   1.388  1.4574  0.2152  0.2312
   86SOL     OW  256   2.339   2.297   1.542 -0.0510 -0.3530  0.0573
   86SOL    HW1  257   2.262   2.245   1.492 -1.2166 -2.6940 -1.2491
   86SOL    HW2  258   2.347   2.397   1.518  1.7030  2.9025  0.9158
   87SOL     OW  259   2.647   2.252   0.165  0.1440  0.0018 -0.1847
   87SOL    HW1  260   2.602   2.214   0.251 -2.3397 -2.1594 -0.4758
   87SOL    HW2  261   2.685   2.169   0.115  0.8976 -2.6595 -1.7284
   88SOL     OW  262   0.525   1.617   1.068 -0.2775  0.4499  0.0296
   88SOL    HW1  263   0.448   1.672   1.105  0.5960 -0.9237  0.5712
   88SOL    HW2  264   0.581   1.585   1.145 -0.1524  2.0666  0.0758
   89SOL     OW  265   1.070   2.885   1.801  0.0199 -0.3161  0.3100
   89SOL    HW1  266   1.055   2.847   1.707  0.1180  1.2112 -1.8834
   89SOL    HW2  267   1.120   2.976   1.807  3.4947 -0.4789 -1.2023
   90SOL     OW  268   3.049   1.748   1.416  0.0275  0.3137  0.3366
   90SOL    HW1  269   2.971   1.712   1.476  0.7431 -2.1091  2.3913
   90SOL    HW2  270   3.092   1.666   1.367 -0.3140 -0.7148 -4.5429
   91SOL     OW  271   1.513   1.890   1.217 -0.7250  0.1610  0.1738
   91SOL    HW1  272   1.420   1.890   1.177 -0.3606 -2.9493  1.5932
   91SOL    HW2  273   1.520   1.824   1.300  1.3805 -1.9470  3.6351
   92SOL     OW  274   2.397   2.527   1.371  0.5771  0.0036 -0.2336
   92SOL    HW1  275   2.404   2.621   1.415 -2.3846  1.5470 -1.8483
   92SOL    HW2  276   2.488   2.486   1.344  1.1414 -0.4279 -0.9096
   93SOL     OW  277   2.668   1.492   2.599  0.0965 -0.5391  0.6525
   93SOL    HW1  278   2.629   1.442   2.517  1.6256  1.3864  1.9624
   93SOL    HW2  279   2.759   1.534   2.583 -0.2963  1.4354  1.2243
   94SOL     OW  280   2.763   2.801   2.097 -0.0900  0.6800 -0.0342
   94SOL    HW1  281   2.697   2.739   2.146 -0.7927  1.3170 -0.7986
   94SOL    HW2  282   2.754   2.795   1.993  2.0967 -2.3575 -0.3268
   95SOL     OW  283   1.650   0.156   1.575  0.4717  0.0570 -0.1245
   95SOL    HW1  284   1.713   0.155   1.659 -0.3815 -1.9414 -1.3350
   95SOL    HW2  285   1.699   0.131   1.490  0.0276 -0.7446  0.2512
   96SOL     OW  286   3.091   2.859   1.580  0.2040  0.1189 -0.4810
   96SOL    HW1  287   3.031   2.942   1.559 -1.4282  0.6081  2.6515
   96SOL    HW2  288   3.134   2.823   1.495  0.3215  0.2821 -1.6681
   97SOL     OW  289   2.279   0.368   1.519  0.4849  0.8435 -0.3061
   97SOL    HW1  290   2.369   0.379   1.568 -2.2659 -0.1592  0.7483
   97SOL    HW2  291   2.206   0.338   1.586 -2.5508 -3.2170  1.8101
   98SOL     OW  292   1.314   2.447   1.648  0.3594 -0.0872 -0.2005
   98SOL    HW1  293   1.313   2.540   1.616  1.2954 -5.0233 -2.1974
   98SOL    HW2  294   1.406   2.424   1.679  1.3802 -1.0281 -0.0691
   99SOL     OW  295   0.158   3.068   1.942  0.4386 -0.2971  0.0386
   99SOL    HW1  296   0.159   2.984   1.889 -0.8779  2.2717  1.1283
   99SOL    HW2  297   0.083   3.069   2.012 -0.9945 -1.8909  2.0306
  100SOL     OW  298   3.045   1.136   2.359 -0.4387 -0.0004 -0.2588
  100SOL    HW1  299   3.087   1.229   2.334  2.4296  2.9021 -0.6893
  100SOL    HW2  300   3.019   1.132   2.457 -1.1574  0.6539  1.9881
  101SOL     OW  301   1.960   0.794   0.287  0.4760  0.2842  0.8163
  101SOL    HW1  302   2.052   0.802   0.326  2.2877 -0.6273  1.4954
  101SOL    HW2  303   1.960   0.833   0.194  1.0830 -1.5527  1.3100
  102SOL     OW  304   3.088   0.583   1.362 -0.0310  0.0829  0.2977
  102SOL    HW1  305   3.045   0.565   1.270 -3.6297 -1.9092 -2.1949
  102SOL    HW2  306   3.134   0.676   1.359 -0.9235  2.4392 -1.4165
  103SOL     OW  307   2.478   0.838   2.866 -0.1204 -0.4514 -0.5429
  103SOL    HW1  308   2.418   0.777   2.926 -0.7849 -1.9310 -0.4715
  103SOL    HW2  309   2.487   0.931   2.902  0.2057  0.1714  2.2931
  104SOL     OW  310   0.080   0.041   2.408  0.3127 -0.1789  0.0829
  104SOL    HW1  311   0.004   0.007   2.468  2.3300  1.1794  0.6265
  104SOL    HW2  312   0.175   0.028   2.444 -0.8353  0.6180  0.9815
  105SOL     OW  313   2.267   1.205   1.736  0.3188  0.2680 -0.5853
  105SOL    HW1  314   2.217   1.143   1.671  0.5834 -1.2220  0.6595
  105SOL    HW2  315   2.203   1.264   1.784 -0.2477 -1.1682 -1.8659
  106SOL     OW  316   1.235   3.090   0.724  0.6326  0.0880  0.7195
  106SOL    HW1  317   1.200   0.035   0.726 -1.8127  1.8185 -0.4557
  106SOL    HW2  318   1.244   3.058   0.823 -1.2430 -0.1121  2.4813
  107SOL     OW  319   0.106   1.485   0.893  0.1040  0.5774 -0.2025
  107SOL    HW1  320   0.098   1.553   0.971  0.2924  2.1689  2.6942
  107SOL    HW2  321   0.194   1.502   0.839 -0.2047  0.4825 -3.2956
  108SOL     OW  322   0.332   0.008   2.513  0.0012  0.0924  0.4438
  108SOL    HW1  323   0.277   3.118   2.589  1.4020  0.8163 -2.7385
  108SOL    HW2  324   0.388   0.086   2.548  0.5604 -1.3204  0.6480
  109SOL     OW  325   2.458   0.186   0.487 -0.1410 -0.0410 -0.9991
  109SOL    HW1  326   2.475   0.285   0.469 -0.9211 -0.4282 -1.8789
  109SOL    HW2  327   2.527   0.132   0.438 -1.2858 -1.9411  1.5203
  110SOL     OW  328   0.163   2.410   2.785 -0.3671  0.4565 -0.1210
  110SOL    HW1  329   0.099   2.362   2.718 -1.1406 -0.5998 -1.1547
  110SOL    HW2  330   0.222   2.479   2.739  0.3211 -1.4269  1.8699
  111SOL     OW  331   1.735   2.966   2.077 -0.0719  0.0812  0.5993
  111SOL    HW1  332   1.661   2.970   2.006 -0.2712  0.6301  0.7405
  111SOL    HW2  333   1.788   3.055   2.071  0.7759  2.8770 -0.5438
  112SOL     OW  334   2.099   2.726   3.109  0.4956 -0.3601 -0.6191
  112SOL    HW1  335   2.059   2.639   3.080  1.0696  0.8747  1.8112
  112SOL    HW2  336   2.026   2.797   3.127 -1.3889  2.3628  1.7729
  113SOL     OW  337   2.674   2.093   1.951  0.4659 -0.4158  0.0873
  113SOL    HW1  338   2.648   2.043   2.032  0.7748  1.9754 -3.3522
  113SOL    HW2  339   2.740   2.042   1.892  2.2163 -2.0606 -1.2267
  114SOL     OW  340   2.529   0.869   1.079  0.8219 -0.2212 -0.2122
  114SOL    HW1  341   2.432   0.870   1.109  2.1299  0.1427 -0.2514
  114SOL    HW2  342   2.534   0.824   0.987  0.5755 -2.9769  0.5080
  115SOL     OW  343   0.096   1.761   2.909 -0.2515 -0.2868 -0.0564
  115SOL    HW1  344   0.193   1.765   2.944  2.3415  1.7620  0.3175
  115SOL    HW2  345   0.063   1.855   2.892  2.3568  1.2291 -0.7607
  116SOL     OW  346   0.156   1.479   2.139 -0.7723  0.2420 -0.0407
  116SOL    HW1  347   0.194   1.573   2.168  1.2933  1.9099 -0.6340
  116SOL    HW2  348   0.104   1.477   2.049 -1.3656 -1.6612  0.8175
  117SOL     OW  349   2.531   0.155   0.937  0.0851 -0.1066 -0.0937
  117SOL    HW1  350   2.470   0.154   1.023 -0.4926  0.8899 -0.6325
  117SOL    HW2  351   2.465   0.167   0.856 -1.5705  1.2644 -1.4707
  118SOL     OW  352   0.355   2.198   1.589 -0.1139 -0.0034  0.4737
  118SOL    HW1  353   0.395   2.222   1.499  2.2419 -0.5431  2.8188
  118SOL    HW2  354   0.413   2.120   1.625 -1.6777  0.2624  0.3244
  119SOL     OW  355   1.656   2.196   0.568  0.1491 -0.0570 -0.5082
  119SOL    HW1  356   1.723   2.273   0.566  1.4026  3.3863 -1.2459
  119SOL    HW2  357   1.705   2.110   0.582  0.6057  0.1380 -1.0980
  120SOL     OW  358   0.317   1.703   2.509 -0.1046  0.3521 -0.8508
  120SOL    HW1  359   0.352   1.790   2.544 -1.0272 -0.3358 -0.3206
  120SOL    HW2  360   0.373   1.671   2.439 -1.7105  1.2898  0.7799
  121SOL     OW  361   2.181   2.164   1.388  0.0617  0.2295  0.3704
  121SOL    HW1  362   2.165   2.067   1.417  0.5464  0.9549 -0.7218
  121SOL    HW2  363   2.203   2.161   1.289  0.5171 -0.9575  2.1453
  122SOL     OW  364   2.267   1.953   2.216  0.3445 -0.3083 -0.0610
  122SOL    HW1  365   2.302   1.857   2.230 -0.1295 -2.4347  0.0413
  122SOL    HW2  366   2.303   1.999   2.126  0.1336 -1.2537  0.1774
  123SOL     OW  367   2.951   0.082   0.699  0.0601  0.5671 -0.5371
  123SOL    HW1  368   2.915   0.124   0.783 -1.1861  2.8462  2.1319
  123SOL    HW2  369   3.037   0.033   0.727 -1.1910 -1.3484  2.7843
  124SOL     OW  370   1.796   0.636   2.432  0.6037  0.0104 -0.2538
  124SOL    HW1  371   1.753   0.685   2.351 -0.8483 -2.3596 -1.6194
  124SOL    HW2  372   1.874   0.578   2.407 -0.6469  1.3614 -0.3010
  125SOL     OW  373   0.243   1.291   0.237 -0.5522 -0.3722  0.6907
  125SOL    HW1  374   0.262   1.362   0.165 -0.5874  1.5838 -0.7224
  125SOL    HW2  375   0.296   1.205   0.228 -0.3617  0.3367 -1.9384
  126SOL     OW  376   2.530   2.139   0.384  0.2894  0.1434  0.0922
  126SOL    HW1  377   2.436   2.148   0.333 -0.8782 -0.6106 -2.3744
  126SOL    HW2  378   2.507   2.151   0.484  1.3278  0.9450  2.6718
  127SOL     OW  379   0.299   1.742   1.177 -0.0574 -0.0082  0.2874
  127SOL    HW1  380   0.210   1.762   1.130 -0.2802  0.8422  1.3030
  127SOL    HW2  381   0.278   1.749   1.277  1.9797 -1.7710 -3.8891
  128SOL     OW  382   0.762   0.691   0.049  0.1719 -0.3691  0.0014
  128SOL    HW1  383   0.776   0.634   3.115 -1.2731 -0.6177 -1.7424
  128SOL    HW2  384   0.746   0.788   0.018  0.3535 -1.0182  0.6279
  129SOL     OW  385   2.512   1.514   0.819  0.0481  0.3734  0.4929
  129SOL    HW1  386   2.594   1.454   0.813 -1.7990  1.7754  0.9055
  129SOL    HW2  387   2.429   1.467   0.782  0.6605 -0.9610  0.6113
  130SOL     OW  388   2.231   1.789   1.249 -0.2902  0.2438 -0.5664
  130SOL    HW1  389   2.253   1.855   1.174  0.5757  2.3714  0.7067
  130SOL    HW2  390   2.171   1.713   1.219 -1.4393 -0.8364  1.7088
  131SOL     OW  391   2.970   0.980   2.875 -0.3072 -0.0954  0.1414
  131SOL    HW1  392   2.909   0.904   2.911 -0.7028 -2.4583  2.5325
  131SOL    HW2  393   3.043   0.992   2.946  0.0072 -2.5813 -1.1471
  132SOL     OW  394   2.780   1.810   1.941 -0.2601  0.6925  0.5982
  132SOL    HW1  395   2.858   1.874   1.928 -0.0049 -2.9322  2.4096
  132SOL    HW2  396   2.786   1.775   2.034 -0.1201  2.6296 -0.8613
  133SOL     OW  397   3.140   0.882   0.770  0.1634 -0.1315  0.1912
  133SOL    HW1  398   0.067   0.871   0.840  0.5361 -1.6142 -1.8150
  133SOL    HW2  399   3.057   0.822   0.788 -1.2067 -2.2394 -0.5463
  134SOL     OW  400   0.375   1.063   0.197 -0.2272  0.0039 -0.2672
  134SOL    HW1  401   0.292   1.010   0.193  1.3148 -0.1109 -1.2334
  134SOL    HW2  402   0.426   1.059   0.111 -1.8470  0.4177 -1.0186
  135SOL     OW  403   2.217   1.604   0.902 -0.0637  0.3133  0.4680
  135SOL    HW1  404   2.231   1.528   0.837  2.1165  1.1928  0.8565
  135SOL    HW2  405   2.237   1.693   0.856 -0.2223 -0.2316 -0.0725
  136SOL     OW  406   2.041   1.286   1.221 -0.1410 -0.5469  0.2156
  136SOL    HW1  407   1.972   1.282   1.294 -1.7106  0.0589 -1.7428
  136SOL    HW2  408   2.060   1.384   1.205  1.3535 -1.5378  0.3089
  137SOL     OW  409   2.541   1.779   0.769  0.3083  0.6321  0.0834
  137SOL    HW1  410   2.535   1.681   0.797  0.3129  0.8550 -2.2631
  137SOL    HW2  411   2.544   1.847   0.845 -0.9365  1.3582 -2.4102
  138SOL     OW  412   1.463   0.657   2.039 -0.3311  0.3884 -0.4248
  138SOL    HW1  413   1.544   0.687   2.094  0.9589  0.8038 -0.0105
  138SOL    HW2  414   1.468   0.686   1.942  0.7358  1.9689 -0.7566
  139SOL     OW  415   2.022   0.219   2.916  0.2442  0.0589  0.2564
  139SOL    HW1  416   2.111   0.186   2.886  1.5738  1.5761  2.6237
  139SOL    HW2  417   2.032   0.300   2.973  2.5657 -1.9341  0.7968
  140SOL     OW  418   1.377   2.060   2.518  0.7788  0.3706  0.0822
  140SOL    HW1  419   1.434   1.983   2.490 -0.2544  2.4117 -0.2174
  140SOL    HW2  420   1.355   2.122   2.438 -0.4435  0.4742  0.7489
  141SOL     OW  421   1.212   1.407   1.650  0.1915  0.4341  0.0940
  141SOL    HW1  422   1.245   1.321   1.608  1.5205  2.2537  1.3378
  141SOL    HW2  423   1.133   1.457   1.607  1.0590  1.9585  1.0425
  142SOL     OW  424   2.494   0.093   2.992 -0.0557  0.0614  0.6528
  142SOL    HW1  425   2.509   0.035   3.072  0.9420 -2.2664  1.9434
  142SOL    HW2  426   2.405   0.085   2.946 -3.0909 -0.4704 -0.5287
  143SOL     OW  427   0.516   2.456   2.932  0.6348  0.4869  0.2671
  143SOL    HW1  428   0.501   2.356   2.954  1.7949  0.1290 -1.5861
  143SOL    HW2  429   0.522   2.513   3.017 -0.7852  1.8316  2.3233
  144SOL     OW  430   0.886   2.987   1.997  0.5999  1.0165  0.1342
  144SOL    HW1  431   0.822   2.936   2.062  2.1079 -0.2974  3.3393
  144SOL    HW2  432   0.931   2.924   1.931  4.3072 -0.1523 -1.8915
  145SOL     OW  433   2.570   1.566   0.401 -0.2914 -0.4036 -0.0353
  145SOL    HW1  434   2.566   1.520   0.310  0.1220 -0.2970  1.9415
  145SOL    HW2  435   2.655   1.537   0.450 -1.4042 -1.9725 -0.5007
  146SOL     OW  436   2.751   2.907   2.887  0.0547 -0.3638  0.2474
  146SOL    HW1  437   2.703   2.986   2.842 -0.4729  1.0464  0.2431
  146SOL    HW2  438   2.690   2.869   2.959 -1.2446 -1.4326 -0.0239
  147SOL     OW  439   2.818   2.754   0.902  0.3466 -0.4102 -0.0417
  147SOL    HW1  440   2.851   2.826   0.968  0.0987  1.0926  0.7497
  147SOL    HW2  441   2.723   2.720   0.934 -4.6175 -1.1668 -0.8882
  148SOL     OW  442   1.741   0.194   3.118  0.2928 -0.2622  0.4526
  148SOL    HW1  443   1.706   0.185   0.058  0.6692  1.1438 -0.1949
  148SOL    HW2  444   1.802   0.114   3.098 -0.2894 -0.9099  0.0302
  149SOL     OW  445   0.923   1.217   2.680 -0.4400  0.3618  0.1157
  149SOL    HW1  446   0.903   1.178   2.770  0.9057 -2.7149 -1.8983
  149SOL    HW2  447   1.019   1.251   2.674  2.0046 -0.2424 -1.2361
  150SOL     OW  448   1.145   2.661   0.663  0.3707 -0.3886 -0.2508
  150SOL    HW1  449   1.158   2.762   0.644 -0.4061  0.6544 -0.6251
  150SOL    HW2  450   1.119   2.607   0.582  2.4727  0.6113  0.4902
  151SOL     OW  451   0.221   2.073   0.034 -0.2127  0.6004  0.3769
  151SOL    HW1  452   0.288   1.993   0.026 -2.7282 -0.5186  0.6630
  151SOL    HW2  453   0.223   2.131   3.103  0.1308 -0.4255 -1.1550
  152SOL     OW  454   0.235   1.224   0.533  0.0545  0.1876  0.5475
  152SOL    HW1  455   0.265   1.218   0.436  2.8179 -2.5568  1.7999
  152SOL    HW2  456   0.141   1.267   0.533 -0.5023 -0.4059  0.0993
  153SOL     OW  457   2.572   2.584   2.903 -0.1882 -0.1968  0.2297
  153SOL    HW1  458   2.566   2.535   2.992 -2.9495 -0.5899  0.0944
  153SOL    HW2  459   2.567   2.519   2.825  3.1425 -0.4228 -2.2436
  154SOL     OW  460   0.582   0.280   1.122 -0.4278  0.0585  0.0277
  154SOL    HW1  461   0.573   0.216   1.041 -0.1525 -0.5857  1.0946
  154SOL    HW2  462   0.560   0.234   1.213  1.9772  2.0545  0.4970
  155SOL     OW  463   3.084   2.068   1.034  0.4290 -0.2996  0.3678
  155SOL    HW1  464   3.097   1.998   0.964 -0.0384 -0.0656  0.1033
  155SOL    HW2  465   3.049   2.028   1.122 -2.3445 -1.1079  1.0154
  156SOL     OW  466   2.466   2.275   3.080  0.2073 -0.2608 -0.1388
  156SOL    HW1  467   2.441   2.178   3.114 -0.2169 -0.5815  0.6522
  156SOL    HW2  468   2.482   2.328   0.017 -0.0231  0.2028  2.1660
  157SOL     OW  469   0.846   2.457   0.976  0.2120 -0.0055 -0.0915
  157SOL    HW1  470   0.763   2.434   0.922 -0.5846 -2.0229 -3.9093
  157SOL    HW2  471   0.825   2.544   1.026 -0.2582  3.4630 -0.5068
  158SOL     OW  472   2.078   0.732   2.817  0.2939 -0.3001  0.0515
  158SOL    HW1  473   2.063   0.679   2.901  1.2201  0.5969  0.1866
  158SOL    HW2  474   1.990   0.741   2.766 -0.8388 -0.3236  0.7417
  159SOL     OW  475   0.988   0.251   2.539  0.4042  0.3018 -0.1591
  159SOL    HW1  476   0.981   0.189   2.620  1.0024  1.5662 -2.0201
  159SOL    HW2  477   1.032   0.339   2.560 -0.1677  1.9664 -1.6280
  160SOL     OW  478   0.958   1.995   0.455 -0.2053  0.7009 -0.2462
  160SOL    HW1  479   0.930   2.017   0.552  0.2401  2.1171  2.3394
  160SOL    HW2  480   1.001   1.903   0.459  0.9864  1.6164 -2.4056
  161SOL     OW  481   3.009   2.095   3.086  0.5004  0.0411  0.0037
  161SOL    HW1  482   3.061   2.083   0.023 -2.9213  0.9503  4.2152
  161SOL    HW2  483   2.955   2.181   3.088  0.3887 -2.4894  1.9168
  162SOL     OW  484   0.446   2.553   0.876  0.1415  0.0729 -0.2972
  162SOL    HW1  485   0.473   2.482   0.940  1.2179 -0.8556  1.8523
  162SOL    HW2  486   0.403   2.629   0.921  0.9418  1.9092 -4.5598
  163SOL     OW  487   2.545   0.827   0.012 -0.1173 -0.4654 -0.4797
  163SOL    HW1  488   2.590   0.790   0.099 -0.4878 -0.3775  2.0099
  163SOL    HW2  489   2.484   0.757   3.119  0.0884 -0.7290 -1.3761
  164SOL     OW  490   0.035   2.882   0.515  0.3474  0.2030  0.0519
  164SOL    HW1  491   3.113   2.825   0.564 -1.1920 -0.0697 -0.3975
  164SOL    HW2  492   0.024   2.883   0.417  0.3188 -1.9392 -0.6415
  165SOL     OW  493   2.534   0.448   1.337 -0.0483 -0.0615 -0.5711
  165SOL    HW1  494   2.555   0.413   1.432  0.5630 -2.9047 -0.7873
  165SOL    HW2  495   2.465   0.525   1.341  1.1022 -1.8992 -1.3186
  166SOL     OW  496   2.183   0.307   1.166  0.4606 -0.0582  0.0194
  166SOL    HW1  497   2.127   0.323   1.076 -1.3768 -0.0642 -2.3208
  166SOL    HW2  498   2.193   0.394   1.217 -0.5232 -0.4148  0.0024
  167SOL     OW  499   0.251   0.687   1.469 -0.6181 -0.5071 -0.1723
  167SOL    HW1  500   0.231   0.618   1.545 -2.9802 -1.9715  0.5726
  167SOL    HW2  501   0.167   0.736   1.441  0.7169  0.3236 -2.2853
  168SOL     OW  502   2.755   3.060   2.183 -0.4249 -0.3050  0.7640
  168SOL    HW1  503   2.657   3.085   2.197  1.3909 -0.2547 -0.5342
  168SOL    HW2  504   2.759   2.958   2.188 -1.0651 -1.9497  0.7512
  169SOL     OW  505   3.040   1.485   0.730  0.1710 -0.2670 -0.1881
  169SOL    HW1  506   3.129   1.506   0.774  0.1473 -2.4798 -0.2047
  169SOL    HW2  507   2.968   1.522   0.791  1.0747  0.4132  1.3915
  170SOL     OW  508   2.885   0.461   1.558  0.2807  0.6431  0.2388
  170SOL    HW1  509   2.967   0.460   1.498  1.2368  1.3816  0.5177
  170SOL    HW2  510   2.889   0.376   1.615  2.4773 -0.5645 -0.7276
  171SOL     OW  511   1.041   2.359   1.639  0.3441  0.0060  0.0463
  171SOL    HW1  512   1.122   2.422   1.651  1.3675  2.8161  1.0997
  171SOL    HW2  513   1.006   2.318   1.724  2.7680 -3.2282 -1.5433
  172SOL     OW  514   0.385   2.335   1.099 -0.0726  0.2669 -0.4726
  172SOL    HW1  515   0.454   2.273   1.057  1.5971  2.2756 -0.9607
  172SOL    HW2  516   0.291   2.295   1.093  1.3148 -1.1402 -0.4332
  173SOL     OW  517   1.276   0.045   0.287 -0.6725 -0.3314 -0.3088
  173SOL    HW1  518   1.184   0.040   0.324  0.0330 -0.9785 -1.0442
  173SOL    HW2  519   1.270   0.081   0.192 -0.9612 -0.6397 -3.6267
  174SOL     OW  520   0.757   2.682   2.644 -0.0795 -0.3230 -0.4625
  174SOL    HW1  521   0.821   2.604   2.634  4.0335  3.1018 -1.3369
  174SOL    HW2  522   0.767   2.741   2.729 -0.5101  1.4034 -1.7161
  175SOL     OW  523   1.134   0.579   3.082 -0.7607 -0.4172 -0.2675
  175SOL    HW1  524   1.231   0.560   3.110  2.6345  1.4872  0.6788
  175SOL    HW2  525   1.121   0.587   2.983 -0.6312 -2.0559  1.5679
  176SOL     OW  526   1.380   0.413   0.329 -0.1091  0.0351 -0.6137
  176SOL    HW1  527   1.280   0.400   0.323  1.0421 -1.5055  0.0512
  176SOL    HW2  528   1.419   0.330   0.373 -1.4023  0.8199 -0.5324
  177SOL     OW  529   1.359   0.866   0.956  0.2062 -0.2029 -0.2278
  177SOL    HW1  530   1.316   0.780   0.918  1.7457 -0.4940 -1.4959
  177SOL    HW2  531   1.292   0.939   0.980  0.0144 -1.4867 -1.5717
  178SOL     OW  532   2.533   1.730   2.539  0.0627 -0.4559  0.6787
  178SOL    HW1  533   2.504   1.812   2.589 -2.8531 -1.2634 -1.0142
  178SOL    HW2  534   2.582   1.661   2.598  2.3906 -0.9934  1.9102
  179SOL     OW  535   0.494   2.714   2.553  0.0802 -0.6496 -0.0316
  179SOL    HW1  536   0.593   2.692   2.575  1.1053  0.5604  1.7801
  179SOL    HW2  537   0.466   2.686   2.460 -4.6897 -3.4208 -0.1904
  180SOL     OW  538   1.713   1.869   1.834 -0.4023  0.5073  0.4038
  180SOL    HW1  539   1.697   1.875   1.731  0.8170  0.4123 -1.4579
  180SOL    HW2  540   1.759   1.950   1.873  3.5366 -0.5952  0.8473
  181SOL     OW  541   1.525   1.438   2.430 -0.2705 -0.2445 -0.2395
  181SOL    HW1  542   1.499   1.433   2.528  0.1455 -1.2765  0.8518
  181SOL    HW2  543   1.462   1.388   2.372  4.1320 -0.8869 -0.5404
  182SOL     OW  544   0.038   0.527   2.666  0.3806 -0.2951 -0.0923
  182SOL    HW1  545   3.099   0.552   2.710  2.1981 -0.9642 -0.3070
  182SOL    HW2  546   0.069   0.429   2.692 -0.6977 -0.6890  0.9714
  183SOL     OW  547   1.435   0.166   2.700  0.0836 -0.3775  0.4299
  183SOL    HW1  548   1.439   0.231   2.621  2.9858  0.0712 -4.7690
  183SOL    HW2  549   1.477   0.204   2.781 -1.8586 -3.4248 -1.1916
  184SOL     OW  550   0.937   0.784   1.582 -0.5620  0.0800  0.7272
  184SOL    HW1  551   0.944   0.815   1.679 -0.4454  1.8720 -0.8725
  184SOL    HW2  552   0.869   0.837   1.530  2.5045 -1.6898 -0.0570
  185SOL     OW  553   2.745   1.377   0.817  0.4403 -0.3886 -0.0320
  185SOL    HW1  554   2.777   1.467   0.850 -2.2670 -0.4405  0.0865
  185SOL    HW2  555   2.783   1.296   0.877  0.1415 -2.4538  1.1668
  186SOL     OW  556   0.743   1.781   2.801  0.2006  0.0521 -0.2658
  186SOL    HW1  557   0.739   1.818   2.895  0.2146  0.9963  2.0923
  186SOL    HW2  558   0.810   1.835   2.746  2.8590  0.6091  1.6359
  187SOL     OW  559   2.585   1.372   0.205  0.2467  0.7642 -0.7437
  187SOL    HW1  560   2.681   1.348   0.232  2.7622  0.7287 -0.7275
  187SOL    HW2  561   2.580   1.369   0.103 -2.0247  0.8579  4.9006
  188SOL     OW  562   0.010   2.292   0.635 -0.0834 -0.1035 -0.3456
  188SOL    HW1  563   0.085   2.267   0.568 -0.1244 -0.1634  0.4690
  188SOL    HW2  564   3.086   2.344   0.586 -1.0058  1.9492  0.4473
  189SOL     OW  565   2.648   0.857   0.300 -0.1244  0.6097 -0.0317
  189SOL    HW1  566   2.730   0.871   0.237 -0.0602 -1.6747  1.2335
  189SOL    HW2  567   2.678   0.878   0.394 -0.4952  0.7555  0.6388
  190SOL     OW  568   1.410   1.650   2.318  0.1709 -0.7245  0.4839
  190SOL    HW1  569   1.462   1.579   2.368 -2.3004  0.4116 -0.4692
  190SOL    HW2  570   1.313   1.651   2.350  0.3402 -2.8961 -0.4520
  191SOL     OW  571   2.554   0.423   1.608  0.0743  0.0528  0.1179
  191SOL    HW1  572   2.587   0.337   1.641 -1.6243  1.6582  0.9406
  191SOL    HW2  573   2.557   0.494   1.680  1.0973 -2.0284  0.0493
  192SOL     OW  574   2.218   0.236   1.870 -0.1438 -0.0761 -0.3278
  192SOL    HW1  575   2.183   0.161   1.807  0.8828  2.1246 -0.7440
  192SOL    HW2  576   2.319   0.231   1.894  0.2943  1.3876 -1.7380
  193SOL     OW  577   0.831   0.771   0.472 -0.1121 -0.1572  0.4150
  193SOL    HW1  578   0.820   0.669   0.473 -2.4916  0.1968 -0.3790
  193SOL    HW2  579   0.740   0.822   0.458 -1.7787  0.3728 -3.9397
  194SOL     OW  580   0.971   2.881   1.285  0.3864 -0.0205  0.1772
  194SOL    HW1  581   1.060   2.850   1.249 -0.8545 -2.5761  0.6924
  194SOL    HW2  582   0.972   2.978   1.314  1.1568  2.8943  1.2013
  195SOL     OW  583   2.274   0.886   1.153  0.5621 -0.2533 -0.2584
  195SOL    HW1  584   2.216   0.817   1.102 -0.9912 -0.2642 -0.6384
  195SOL    HW2  585   2.224   0.975   1.158  2.9813  0.4513  0.5764
  196SOL     OW  586   1.753   2.323   1.980 -0.3897 -0.2216 -0.4528
  196SOL    HW1  587   1.766   2.220   1.974  2.4969 -0.9304  2.2530
  196SOL    HW2  588   1.742   2.358   2.076 -1.0458 -3.9008  1.8641
  197SOL     OW  589   0.166   0.045   0.229  0.2268 -0.1326  0.3205
  197SOL    HW1  590   0.236   0.080   0.289  1.2462 -0.0295  2.4550
  197SOL    HW2  591   0.204   0.006   0.142  1.4993 -0.1313 -2.3637
  198SOL     OW  592   1.313   1.235   0.857  0.4074 -0.0822 -0.0209
  198SOL    HW1  593   1.252   1.306   0.815  0.0870 -1.0065 -2.1005
  198SOL    HW2  594   1.256   1.157   0.891 -1.2422 -1.3935 -0.2017
  199SOL     OW  595   2.942   0.999   2.132  0.2319 -0.3748  0.5739
  199SOL    HW1  596   2.915   0.913   2.179 -0.7237 -0.9475 -2.8781
  199SOL    HW2  597   2.988   1.072   2.188  1.8233 -0.8562 -1.4296
  200SOL     OW  598   2.790   1.898   2.683  0.4680  0.3666  0.2862
  200SOL    HW1  599   2.691   1.889   2.661  0.5995 -0.9149 -3.0477
  200SOL    HW2  600   2.803   1.957   2.767 -0.4513 -2.5044  1.3082
  201SOL     OW  601   2.628   0.156   1.346  0.3330  0.5156 -0.2856
  201SOL    HW1  602   2.692   0.237   1.356  2.0072  3.4891 -0.4709
  201SOL    HW2  603   2.531   0.186   1.324  0.2155  1.6098  0.8923
  202SOL     OW  604   2.189   0.760   0.457  0.0059 -0.6133  0.1836
  202SOL    HW1  605   2.186   0.780   0.556  1.5860 -2.6490 -6.2820
  202SOL    HW2  606   2.232   0.833   0.404  0.4053 -1.6533  0.4122
  203SOL     OW  607   1.754   2.047   2.351 -0.1934 -0.3513  0.4948
  203SOL    HW1  608   1.678   1.985   2.377  2.2964 -1.5082  0.0161
  203SOL    HW2  609   1.829   1.988   2.318 -3.2085  1.4813  1.5177
  204SOL     OW  610   0.916   1.958   2.289 -0.6611 -0.5348 -0.0083
  204SOL    HW1  611   0.897   1.861   2.261 -0.7398  0.2405 -0.8817
  204SOL    HW2  612   0.973   1.955   2.374 -0.0273 -0.6495  1.9212
  205SOL     OW  613   0.916   1.788   1.647 -0.1858  0.0048 -0.1619
  205SOL    HW1  614   0.880   1.878   1.606 -1.2982  1.9789  1.3874
  205SOL    HW2  615   1.020   1.780   1.646  1.8563  0.3438  2.5093
  206SOL     OW  616   0.016   0.485   3.096  0.1724  0.0497 -0.5672
  206SOL    HW1  617   0.025   0.392   3.140 -0.2912 -2.0396  0.5831
  206SOL    HW2  618   3.068   0.500   3.077  1.4934  1.7539  0.7279
  207SOL     OW  619   1.871   2.748   2.178 -0.2288  0.4692  0.3480
  207SOL    HW1  620   1.796   2.809   2.147  0.0088 -1.5657  0.0685
  207SOL    HW2  621   1.915   2.698   2.101  0.7037 -1.3608 -1.1648
  208SOL     OW  622   0.451   2.184   1.338 -0.1253  0.5082 -0.0518
  208SOL    HW1  623   0.388   2.238   1.278  0.9702  1.6533  2.8295
  208SOL    HW2  624   0.460   2.082   1.320 -0.4274  0.6678 -1.2848
  209SOL     OW  625   1.568   1.024   2.453  0.4424 -0.1437  0.1148
  209SOL    HW1  626   1.490   1.074   2.488 -0.2689 -0.0678 -0.3941
  209SOL    HW2  627   1.585   1.044   2.354  1.2247 -1.8724  0.8384
  210SOL     OW  628   2.054   1.052   1.090  0.4203 -0.4094 -0.3241
  210SOL    HW1  629   2.054   1.156   1.106  0.5276 -0.3090 -1.0272
  210SOL    HW2  630   1.970   1.017   1.139  1.1404  1.5377 -5.2391
  211SOL     OW  631   0.612   0.095   0.653  0.0993  0.5123  0.3849
  211SOL    HW1  632   0.572   0.161   0.586 -0.9923 -2.7142 -0.5793
  211SOL    HW2  633   0.560   0.000   0.645 -0.6043  1.6435  0.7013
  212SOL     OW  634   1.772   1.651   0.172 -0.2553  0.5089 -0.1821
  212SOL    HW1  635   1.759   1.555   0.200 -2.1572 -1.8218 -0.4354
  212SOL    HW2  636   1.697   1.714   0.198  1.3444 -2.9734  1.2176
  213SOL     OW  637   1.622   0.449   2.559  0.2649 -0.8412 -0.1431
  213SOL    HW1  638   1.663   0.420   2.645 -0.3292  0.4238  1.5868
  213SOL    HW2  639   1.683   0.521   2.521  3.5747 -0.7931 -0.4041
  214SOL     OW  640   1.781   1.360   2.364 -0.2465  0.3090 -0.3076
  214SOL    HW1  641   1.851   1.437   2.370 -0.0530  0.8967 -0.5161
  214SOL    HW2  642   1.687   1.387   2.394 -1.4996 -0.8526  1.8470
  215SOL     OW  643   0.334   1.853   0.413 -0.0251  0.0636 -0.1168
  215SOL    HW1  644   0.388   1.798   0.354 -0.4556  0.3606 -2.2348
  215SOL    HW2  645   0.367   1.950   0.406  0.8443  1.9996  0.4593
  216SOL     OW  646   0.506   2.862   2.134 -0.2339  0.3452  0.1395
  216SOL    HW1  647   0.602   2.871   2.165 -0.1097  0.6700 -0.0566
  216SOL    HW2  648   0.449   2.805   2.193  3.1183 -0.8378 -0.6873
  217SOL     OW  649   2.578   1.123   0.485  0.2394 -0.0781 -0.4398
  217SOL    HW1  650   2.664   1.179   0.463  3.1814  0.1709  1.1834
  217SOL    HW2  651   2.539   1.096   0.397  2.1879  1.9031 -2.4960
  218SOL     OW  652   1.866   2.046   1.983  0.0955  0.0741  0.5576
  218SOL    HW1  653   1.931   2.121   1.996  1.5247 -1.0290 -1.9386
  218SOL    HW2  654   1.883   1.952   2.022 -0.3835  0.8001 -1.5699
  219SOL     OW  655   2.087   1.277   0.094  0.1337 -0.1602  0.5139
  219SOL    HW1  656   2.162   1.335   0.138 -1.5143  0.6579  1.3086
  219SOL    HW2  657   2.073   1.315   0.002  2.9402  1.5373  0.8072
  220SOL     OW  658   1.223   1.652   1.095 -0.7243  0.1475  0.1110
  220SOL    HW1  659   1.194   1.562   1.141 -0.0830  0.4702  1.8000
  220SOL    HW2  660   1.314   1.640   1.054 -0.4836  1.3695  1.9151
  221SOL     OW  661   0.778   0.527   2.980 -0.5430  0.0983  0.7294
  221SOL    HW1  662   0.747   0.562   2.887  2.1032 -1.9472 -0.8970
  221SOL    HW2  663   0.722   0.444   3.013 -4.1360 -0.5090  0.3056
  222SOL     OW  664   0.972   1.722   1.316  0.1388 -0.0325 -0.1690
  222SOL    HW1  665   1.067   1.702   1.354  2.0432 -1.6343  1.0260
  222SOL    HW2  666   0.932   1.793   1.372  1.0299  0.1179 -0.3796
  223SOL     OW  667   1.525   3.061   2.642 -0.6487  0.5961  0.0546
  223SOL    HW1  668   1.463   2.986   2.672 -0.1115  1.8947  1.4762
  223SOL    HW2  669   1.489   0.002   2.660  2.2974 -2.3630 -0.1204
  224SOL     OW  670   2.713   0.668   1.128 -0.0055  0.0872 -0.0152
  224SOL    HW1  671   2.681   0.582   1.089  1.7024  2.4210 -1.8809
  224SOL    HW2  672   2.631   0.732   1.124 -1.5464  1.1505 -1.7393
  225SOL     OW  673   1.153   0.664   1.450 -0.4428  0.1936 -0.1276
  225SOL    HW1  674   1.152   0.711   1.359 -0.6906 -2.6411  0.9768
  225SOL    HW2  675   1.069   0.690   1.499 -0.2281  1.9317 -0.1813
  226SOL     OW  676   1.710   1.956   2.932  0.0200 -0.0839  0.0885
  226SOL    HW1  677   1.624   1.926   2.875 -0.5089 -0.8708 -3.7603
  226SOL    HW2  678   1.684   2.036   2.992 -0.0911 -1.2021  0.7347
  227SOL     OW  679   1.222   1.752   1.421 -0.0619 -0.3542  0.8928
  227SOL    HW1  680   1.313   1.729   1.384 -0.6446 -1.1134 -0.1942
  227SOL    HW2  681   1.227   1.737   1.519 -0.6451  2.2859 -0.4069
  228SOL     OW  682   0.591   1.588   0.814  0.2226  0.3741  0.1899
  228SOL    HW1  683   0.669   1.647   0.788 -1.7304 -1.1246  1.7236
  228SOL    HW2  684   0.564   1.605   0.913 -0.1868 -0.9960  0.8234
  229SOL     OW  685   1.399   0.517   3.125 -0.4670  0.1206  0.4619
  229SOL    HW1  686   1.450   0.546   0.058  2.2343  1.1987  2.5221
  229SOL    HW2  687   1.452   0.543   3.042  0.6277 -1.5389 -0.8454
  230SOL     OW  688   1.087   0.477   2.301 -0.0421  0.3578 -0.2061
  230SOL    HW1  689   1.140   0.391   2.289  0.1286 -1.4572 -1.9707
  230SOL    HW2  690   1.069   0.490   2.405  0.1129  1.5718  2.4097
  231SOL     OW  691   1.152   1.707   2.426  0.7844 -0.5027  0.0489
  231SOL    HW1  692   1.196   1.676   2.510 -0.1626 -2.4744 -2.9966
  231SOL    HW2  693   1.128   1.805   2.432 -0.8114  0.0255 -0.6150
  232SOL     OW  694   2.316   1.930   1.034  0.1810  0.5439  0.0806
  232SOL    HW1  695   2.283   1.911   0.939  0.0686  0.4808 -2.4126
  232SOL    HW2  696   2.416   1.919   1.028 -0.0360 -2.2183 -1.6740
  233SOL     OW  697   1.891   2.890   3.134  0.1683  0.1871  0.1986
  233SOL    HW1  698   1.808   2.858   3.084  0.1934  2.9324 -2.8704
  233SOL    HW2  699   1.917   2.984   3.102  1.0142 -1.6069 -0.2488
  234SOL     OW  700   0.738   3.115   2.755  0.0108 -0.3251  0.1184
  234SOL    HW1  701   0.751   3.020   2.785  0.6738 -1.1510 -4.0247
  234SOL    HW2  702   0.725   3.127   2.652 -2.1556  0.6754 -1.3614
  235SOL     OW  703   2.332   2.960   2.648  0.2883 -0.6909  0.0047
  235SOL    HW1  704   2.350   3.047   2.700  0.4170  1.2773  0.5345
  235SOL    HW2  705   2.330   2.974   2.546 -2.6901 -0.6387  0.2875
  236SOL     OW  706   2.574   2.226   2.263 -0.4338  0.5134 -0.5436
  236SOL    HW1  707   2.661   2.272   2.288 -2.0216  3.6293 -2.8314
  236SOL    HW2  708   2.596   2.136   2.224  3.0273  2.3946  0.1507
  237SOL     OW  709   1.108   1.527   2.022 -0.5427  0.1359  0.0229
  237SOL    HW1  710   1.193   1.586   2.034 -1.5143 -2.3522  1.7894
  237SOL    HW2  711   1.080   1.491   2.111  2.7974  1.6831  0.3702
  238SOL     OW  712   2.056   0.158   2.440 -0.4509 -0.1020  0.2777
  238SOL    HW1  713   2.040   0.074   2.504 -0.3916 -2.4689 -0.5374
  238SOL    HW2  714   2.154   0.156   2.401  1.0686  1.3489 -2.0118
  239SOL     OW  715   0.215   1.896   2.119 -0.4120  0.7081  0.0156
  239SOL    HW1  716   0.301   1.850   2.132  0.2753  0.0475  0.4124
  239SOL    HW2  717   0.143   1.839   2.070 -3.9239 -1.9285 -1.0341
  240SOL     OW  718   2.684   2.941   0.717  0.3236 -0.2336  0.6328
  240SOL    HW1  719   2.681   2.854   0.766 -1.1232  0.9308 -0.8202
  240SOL    HW2  720   2.747   2.940   0.638 -1.1615  1.8425 -0.3672
  241SOL     OW  721   1.970   1.847   0.563 -0.0582 -0.1932  0.0075
  241SOL    HW1  722   2.039   1.854   0.487 -2.2111  0.9386 -2.9739
  241SOL    HW2  723   1.880   1.878   0.539  0.9361 -0.0524  2.1430
  242SOL     OW  724   1.513   1.835   2.780  0.1715  0.2257 -0.2955
  242SOL    HW1  725   1.573   1.775   2.721  0.8610 -2.4518 -1.5905
  242SOL    HW2  726   1.426   1.787   2.781  1.7284  0.9930 -2.0931
  243SOL     OW  727   0.676   2.576   2.239 -0.6814 -0.0852  0.5065
  243SOL    HW1  728   0.733   2.658   2.233  0.4114  0.5139  0.2973
  243SOL    HW2  729   0.726   2.505   2.299 -0.5378 -1.7639  0.4559
  244SOL     OW  730   2.296   0.125   2.797 -0.0597  0.1133 -0.3413
  244SOL    HW1  731   2.355   0.153   2.718  2.8971 -4.2652 -1.5239
  244SOL    HW2  732   2.209   0.083   2.767  0.0076  1.8378  1.7735
  245SOL     OW  733   1.360   2.867   0.540  0.6560  0.6657  0.7120
  245SOL    HW1  734   1.329   2.957   0.583  1.3467 -0.8045 -0.8493
  245SOL    HW2  735   1.349   2.873   0.438  3.5640  1.5859  0.2818
  246SOL     OW  736   1.063   2.849   0.314 -0.2056  0.2947 -0.3198
  246SOL    HW1  737   1.163   2.863   0.295  0.0832  0.0369 -0.2559
  246SOL    HW2  738   1.039   2.893   0.403 -4.0499 -0.8360 -0.2638
  247SOL     OW  739   0.813   0.702   2.301  0.3165  0.5401 -0.8960
  247SOL    HW1  740   0.860   0.669   2.220  0.1760 -0.8138  3.2659
  247SOL    HW2  741   0.782   0.793   2.280  0.4802  0.1736  1.4717
  248SOL     OW  742   1.094   1.478   2.289 -0.3616 -0.4997 -0.2609
  248SOL    HW1  743   0.993   1.464   2.281  1.3306 -0.2712  2.3283
  248SOL    HW2  744   1.116   1.561   2.341  0.8934 -2.6649 -2.5532
  249SOL     OW  745   2.315   0.431   0.625  0.1593  0.2266 -0.1369
  249SOL    HW1  746   2.351   0.487   0.702 -0.8948  2.4203  2.1509
  249SOL    HW2  747   2.212   0.427   0.626 -0.0020 -0.7809  2.6020
  250SOL     OW  748   0.772   3.056   0.543  0.3646  0.0424  0.1412
  250SOL    HW1  749   0.754   2.959   0.576 -2.3357 -2.1742 -2.3950
  250SOL    HW2  750   0.711   3.124   0.580  0.1787 -0.6908 -2.5880
  251SOL     OW  751   1.534   0.275   2.929  0.2863 -0.1755  0.3352
  251SOL    HW1  752   1.532   0.376   2.912  0.8983  0.6391  0.1754
  251SOL    HW2  753   1.602   0.236   2.996 -0.5917 -2.6935  0.2865
  252SOL     OW  754   1.811   1.374   1.857 -0.2836 -0.0738 -0.1959
  252SOL    HW1  755   1.805   1.358   1.959 -0.7532  2.6009 -1.0244
  252SOL    HW2  756   1.749   1.449   1.826 -2.5106  0.4110  1.6268
  253SOL     OW  757   2.765   2.401   1.658 -0.2651 -0.1549 -0.1002
  253SOL    HW1  758   2.740   2.375   1.753 -0.0716 -0.2535  0.6088
  253SOL    HW2  759   2.805   2.493   1.658  1.9735 -2.3870 -1.4693
  254SOL     OW  760   0.334   1.426   1.323 -0.0606 -0.1106 -0.3833
  254SOL    HW1  761   0.386   1.337   1.336  2.1586 -1.4644  1.1912
  254SOL    HW2  762   0.365   1.471   1.237 -0.3449  2.4460 -1.2897
  255SOL     OW  763   1.168   0.790   1.199  0.6538 -0.0777  0.0215
  255SOL    HW1  764   1.065   0.798   1.196 -2.8564  0.2662  0.0296
  255SOL    HW2  765   1.201   0.887   1.211 -0.6418 -0.4577  0.1518
  256SOL     OW  766   1.817   2.772   1.658  0.4925  0.4737 -0.5722
  256SOL    HW1  767   1.772   2.709   1.723 -1.1825  0.8861  0.9537
  256SOL    HW2  768   1.898   2.732   1.612  0.0305  0.8098  2.2672
  257SOL     OW  769   0.425   2.654   3.126  0.3256 -0.5417  0.0519
  257SOL    HW1  770   0.359   2.708   0.019  1.3947 -1.8613 -2.2641
  257SOL    HW2  771   0.503   2.716   3.105 -0.1792  2.5722 -0.5398
  258SOL     OW  772   0.815   2.808   2.185 -0.1393  0.2416 -0.3948
  258SOL    HW1  773   0.841   2.886   2.240 -3.4877  0.9685 -0.2536
  258SOL    HW2  774   0.893   2.749   2.154 -0.9765 -1.1417  3.1280
  259SOL     OW  775   1.269   0.038   2.222 -0.2862 -0.0779  0.0886
  259SOL    HW1  776   1.238   3.100   2.179 -5.8537  1.5141 -0.0869
  259SOL    HW2  777   1.367   0.032   2.242 -1.4989 -1.0924  0.2832
  260SOL     OW  778   1.875   0.472   1.091 -0.4187 -0.2749 -0.1878
  260SOL    HW1  779   1.851   0.382   1.133  0.5880 -0.5901  0.5670
  260SOL    HW2  780   1.947   0.474   1.017 -0.9955  0.3563  0.0779
  261SOL     OW  781   0.481   0.207   2.607 -0.3913  0.4231 -0.0951
  261SOL    HW1  782   0.449   0.304   2.603  0.9493  0.1517 -0.4786
  261SOL    HW2  783   0.515   0.186   2.703  0.2595 -0.1340  0.8481
  262SOL     OW  784   2.861   2.479   2.106  0.3081  0.0804 -0.6469
  262SOL    HW1  785   2.884   2.543   2.186  0.5401  2.0413  2.4677
  262SOL    HW2  786   2.940   2.482   2.040 -0.1339 -0.6973 -1.1207
  263SOL     OW  787   2.895   1.620   2.320  0.0412  0.1110  0.2167
  263SOL    HW1  788   2.976   1.674   2.281  1.6674 -1.3584 -1.5574
  263SOL    HW2  789   2.890   1.619   2.422  0.6106 -2.8808 -1.8802
  264SOL     OW  790   0.591   0.987   0.825 -0.3512 -0.5291 -0.3399
  264SOL    HW1  791   0.509   1.050   0.822 -0.5885  1.7250  1.0699
  264SOL    HW2  792   0.677   1.036   0.802  1.9305 -0.4168  0.3388
  265SOL     OW  793   0.797   2.236   0.409 -0.4815 -0.7775 -0.2059
  265SOL    HW1  794   0.869   2.161   0.408  1.0497 -3.0221 -0.9026
  265SOL    HW2  795   0.809   2.307   0.486  0.8691  2.0560 -1.8098
  266SOL     OW  796   1.611   0.580   1.013 -0.4082 -0.3296 -0.5210
  266SOL    HW1  797   1.700   0.538   1.041  0.4471  0.3537 -0.2486
  266SOL    HW2  798   1.559   0.525   0.947  1.2737  1.1898  0.3342
  267SOL     OW  799   2.828   0.903   0.114  0.0794 -0.4971  0.2065
  267SOL    HW1  800   2.910   0.961   0.126  0.0296 -1.6026 -0.1893
  267SOL    HW2  801   2.823   0.876   0.017  0.4161 -0.4054  0.7660
  268SOL     OW  802   1.925   0.311   0.232  0.0589 -0.3240 -0.3560
  268SOL    HW1  803   1.919   0.299   0.334  2.5165 -1.3544 -0.5371
  268SOL    HW2  804   1.856   0.247   0.192  1.2122 -0.2223  0.1933
  269SOL     OW  805   2.161   0.989   2.848 -0.3515  0.3245  0.3191
  269SOL    HW1  806   2.149   0.892   2.822 -1.7065 -2.4031  0.2591
  269SOL    HW2  807   2.192   0.994   2.947  1.8495 -1.5160  1.0396
  270SOL     OW  808   0.286   0.861   3.057 -0.5372  0.2500 -0.4517
  270SOL    HW1  809   0.313   0.817   2.969 -0.9565  0.1652  0.3291
  270SOL    HW2  810   0.254   0.792   3.130 -2.8154  1.3606  1.1597
  271SOL     OW  811   2.930   0.628   0.413 -0.1463  0.2682  0.5492
  271SOL    HW1  812   2.916   0.712   0.472  1.3578  4.3068 -0.3833
  271SOL    HW2  813   3.025   0.601   0.390 -1.4838 -1.3874  0.5503
  272SOL     OW  814   0.019   2.011   2.873 -0.3352  0.0580  0.8696
  272SOL    HW1  815   3.111   2.021   2.793 -1.3990  0.7342  0.7017
  272SOL    HW2  816   3.113   2.029   2.956 -0.1249 -1.7405  2.5619
  273SOL     OW  817   2.646   0.018   0.352  0.1434  0.4864  0.1680
  273SOL    HW1  818   2.604   0.014   0.258  1.8521  0.7017 -1.8050
  273SOL    HW2  819   2.731   0.080   0.343 -0.8617  0.5811 -0.0456
  274SOL     OW  820   0.427   2.119   0.736 -0.2368 -0.0312 -0.3783
  274SOL    HW1  821   0.380   2.210   0.724  1.7372  0.8654  0.9531
  274SOL    HW2  822   0.491   2.095   0.661  0.0127  0.3503  0.1684
  275SOL     OW  823   2.773   1.851   0.619  0.0903 -0.0483  0.5032
  275SOL    HW1  824   2.694   1.809   0.671 -2.1281  0.0346  2.6122
  275SOL    HW2  825   2.852   1.789   0.611 -1.3819 -1.3213 -3.2628
  276SOL     OW  826   0.113   0.946   2.268  0.0821 -0.6635  0.2938
  276SOL    HW1  827   0.146   1.008   2.194 -0.5973  0.7970 -0.8655
  276SOL    HW2  828   0.026   0.982   2.304  1.5705 -2.2319 -1.5058
  277SOL     OW  829   1.890   2.965   1.207 -0.0544 -0.0190 -0.1025
  277SOL    HW1  830   1.852   2.878   1.169 -0.8320 -1.8921  0.2746
  277SOL    HW2  831   1.873   3.048   1.144 -0.0106  2.7655  0.7279
  278SOL     OW  832   1.191   2.931   2.116 -0.1589 -0.0102  0.6014
  278SOL    HW1  833   1.091   2.917   2.122  0.7546 -0.7734  2.6527
  278SOL    HW2  834   1.218   2.962   2.023  1.3877 -1.6385  1.6802
  279SOL     OW  835   1.493   1.926   0.800  0.0998  0.3180 -0.7800
  279SOL    HW1  836   1.484   1.996   0.876  1.7640  1.3657  2.9254
  279SOL    HW2  837   1.406   1.918   0.746  0.5567 -1.2503 -0.8931
  280SOL     OW  838   0.048   1.725   1.044  0.4509 -0.0866 -0.2091
  280SOL    HW1  839   0.042   1.783   0.957 -0.6354 -1.1693 -0.6670
  280SOL    HW2  840   3.112   1.735   1.100 -0.3788  0.2105  0.6011
  281SOL     OW  841   3.140   0.730   2.486 -0.1685  0.0884  0.1583
  281SOL    HW1  842   3.061   0.705   2.426  0.2334 -1.2991 -3.3155
  281SOL    HW2  843   0.010   0.656   2.557  0.1976 -3.1155  4.7234
  282SOL     OW  844   0.794   1.137   0.658  0.0233 -0.4955  0.3078
  282SOL    HW1  845   0.747   1.222   0.694 -3.2616  1.5257  0.3846
  282SOL    HW2  846   0.771   1.117   0.561 -0.2380  1.5559 -1.5282
  283SOL     OW  847   1.974   2.468   0.201 -0.5693  0.2984  0.5983
  283SOL    HW1  848   1.898   2.479   0.263  2.4171 -1.3154 -0.5135
  283SOL    HW2  849   2.050   2.428   0.250 -1.1055 -1.2356  2.4869
  284SOL     OW  850   1.004   0.607   0.181 -0.6628  1.2574  0.6072
  284SOL    HW1  851   0.915   0.644   0.146  2.0373 -0.4222  0.2254
  284SOL    HW2  852   1.067   0.582   0.103 -1.3464 -2.5130 -3.1114
  285SOL     OW  853   2.271   1.242   2.850 -0.3200 -0.7019  0.2345
  285SOL    HW1  854   2.221   1.274   2.932 -1.4602 -0.2242  0.5734
  285SOL    HW2  855   2.231   1.155   2.813 -0.5547 -0.0314  0.7164
  286SOL     OW  856   1.473   2.602   1.375 -0.6855  0.1865  0.2716
  286SOL    HW1  857   1.465   2.691   1.324  0.9113  1.0829 -2.8644
  286SOL    HW2  858   1.401   2.541   1.343 -1.2589  1.8814  1.4905
  287SOL     OW  859   0.960   0.963   0.829  0.3034 -0.2500  0.0606
  287SOL    HW1  860   0.974   0.871   0.791 -0.3850  0.9977 -0.2654
  287SOL    HW2  861   0.930   1.036   0.766 -0.4593  0.6841  2.9975
  288SOL     OW  862   1.195   2.586   0.083 -0.2504 -0.3738  0.2728
  288SOL    HW1  863   1.259   2.611   0.004  0.6633 -0.5630  1.1938
  288SOL    HW2  864   1.200   2.657   0.157 -2.6361  0.3759  0.8862
  289SOL     OW  865   0.396   1.450   1.587  0.3529 -0.0058 -0.0535
  289SOL    HW1  866   0.453   1.533   1.604  1.3010  2.1279  0.7875
  289SOL    HW2  867   0.363   1.438   1.487  0.5778 -0.7391 -0.2054
  290SOL     OW  868   1.700   2.411   0.917 -0.1110 -0.0438 -0.1820
  290SOL    HW1  869   1.645   2.332   0.953 -1.2507 -0.1502  0.2977
  290SOL    HW2  870   1.652   2.498   0.934 -1.4990 -1.4922  2.0640
  291SOL     OW  871   1.898   3.131   2.970  0.1473 -0.2472 -0.0302
  291SOL    HW1  872   1.940   0.073   2.947 -1.5456  0.8014 -0.1006
  291SOL    HW2  873   1.804   3.110   2.941  1.0776  1.0878  1.5950
  292SOL     OW  874   0.978   0.617   2.091  0.0867 -0.1803  0.1609
  292SOL    HW1  875   1.051   0.657   2.030  0.6863 -0.2663 -1.9956
  292SOL    HW2  876   1.017   0.555   2.160 -0.8567 -2.1652  1.0320
  293SOL     OW  877   1.943   2.440   0.829 -0.4716 -0.1736  0.5079
  293SOL    HW1  878   2.003   2.416   0.908  1.6047  0.8173 -0.6252
  293SOL    HW2  879   1.846   2.425   0.865 -1.1651 -1.3768  1.4634
  294SOL     OW  880   0.503   0.678   2.231 -0.1134  0.3776 -0.0952
  294SOL    HW1  881   0.417   0.686   2.287 -0.4299 -1.4827 -1.8677
  294SOL    HW2  882   0.580   0.648   2.292 -1.2977  1.8951  1.1846
  295SOL     OW  883   1.495   1.627   0.944 -0.4681 -0.5784 -0.0586
  295SOL    HW1  884   1.496   1.525   0.952 -1.9863  0.8485  0.3625
  295SOL    HW2  885   1.586   1.672   0.934  0.4232  0.8456 -0.6627
  296SOL     OW  886   2.651   1.915   0.345  0.2267 -0.0634 -0.3047
  296SOL    HW1  887   2.600   1.996   0.374 -2.2966 -1.9639  0.6719
  296SOL    HW2  888   2.695   1.872   0.427  1.3848  0.2056  0.9584
  297SOL     OW  889   2.230   0.028   0.183 -0.4174  0.6747  0.1210
  297SOL    HW1  890   2.225   0.024   0.283  2.2288  1.5537  0.1136
  297SOL    HW2  891   2.229   0.128   0.157 -1.7857  0.7221  1.0839
  298SOL     OW  892   0.910   2.445   2.629 -0.5706 -0.3962  0.1996
  298SOL    HW1  893   0.885   2.413   2.724 -1.1393 -1.7405 -2.5059
  298SOL    HW2  894   1.011   2.440   2.629  0.5976  0.0744 -0.3993
  299SOL     OW  895   1.289   2.614   2.156  0.0513 -0.3894  0.4492
  299SOL    HW1  896   1.306   2.694   2.216  1.3947  0.0660  1.8076
  299SOL    HW2  897   1.323   2.532   2.202 -1.7256 -1.4253  1.0737
  300SOL     OW  898   2.601   3.112   2.770  0.2329 -0.1517  0.1305
  300SOL    HW1  899   2.555   0.012   2.847  0.3259 -0.0444  0.0190
  300SOL    HW2  900   2.658   0.022   2.716  0.1675 -2.7239  3.2863
  301SOL     OW  901   1.282   0.676   2.254 -0.1926  0.0311  0.0860
  301SOL    HW1  902   1.235   0.583   2.255  0.2845 -0.1694 -1.9833
  301SOL    HW2  903   1.347   0.682   2.176  0.0703 -0.8795  1.1999
  302SOL     OW  904   2.626   2.706   0.195  0.2180 -0.2542 -0.3167
  302SOL    HW1  905   2.542   2.723   0.244  0.3360 -0.6684 -1.0540
  302SOL    HW2  906   2.700   2.762   0.240 -1.1227 -0.3597  0.2776
  303SOL     OW  907   2.711   2.349   1.911 -0.3202 -0.4000  0.0345
  303SOL    HW1  908   2.711   2.248   1.927 -0.0871  3.4294 -0.5011
  303SOL    HW2  909   2.766   2.399   1.979  0.8186  0.6845  0.9064
  304SOL     OW  910   2.771   0.618   2.009  0.4412 -0.0163 -0.4621
  304SOL    HW1  911   2.853   0.649   1.958  0.5591 -0.0812  1.0027
  304SOL    HW2  912   2.766   0.660   2.105 -2.1575 -1.7574  2.5640
  305SOL     OW  913   0.640   1.794   1.375 -0.2155 -0.1510 -0.1040
  305SOL    HW1  914   0.677   1.712   1.331  1.3024  0.2250 -1.9227
  305SOL    HW2  915   0.587   1.764   1.457 -0.0164 -1.4894  3.2836
  306SOL     OW  916   3.147   1.109   1.934 -0.1306  0.8484  0.2995
  306SOL    HW1  917   3.097   1.193   1.955  1.6590  1.3427  2.5972
  306SOL    HW2  918   3.104   1.032   1.985  0.6210  1.4143 -0.7539
  307SOL     OW  919   1.192   0.469   1.873 -0.1854 -0.2382  0.6253
  307SOL    HW1  920   1.198   0.561   1.925  1.3199  1.0090 -0.3931
  307SOL    HW2  921   1.213   0.481   1.774  0.5378 -2.5720 -0.3935
  308SOL     OW  922   2.898   0.857   1.351 -0.2355 -0.6969  0.0056
  308SOL    HW1  923   2.934   0.883   1.445 -0.9063  1.8342  2.4788
  308SOL    HW2  924   2.858   0.763   1.352  0.2660 -0.7766  0.6910
  309SOL     OW  925   2.262   1.190   0.867  0.3498  0.3207 -0.6133
  309SOL    HW1  926   2.162   1.179   0.859  0.8291  0.3961  0.5812
  309SOL    HW2  927   2.281   1.229   0.961  1.2177  0.9944 -0.1357
  310SOL     OW  928   3.022   2.033   2.634 -0.4596 -0.5060 -0.0527
  310SOL    HW1  929   3.061   2.007   2.542  1.0886  0.5882 -1.7036
  310SOL    HW2  930   2.937   1.983   2.645 -2.0700  0.8009 -1.6131
  311SOL     OW  931   3.001   2.835   2.840 -0.4363 -0.2232 -0.5590
  311SOL    HW1  932   2.916   2.876   2.865 -0.6341 -1.7174 -0.7058
  311SOL    HW2  933   2.985   2.744   2.798 -0.6170 -2.4980 -1.5510
  312SOL     OW  934   2.381   2.009   3.120  0.1338 -0.1182  0.1357
  312SOL    HW1  935   2.422   1.917   3.125  0.3605 -1.0313 -0.9015
  312SOL    HW2  936   2.287   2.001   3.083  0.3779  1.5022 -1.1290
  313SOL     OW  937   2.492   3.020   0.538 -0.2368  0.2223  0.5954
  313SOL    HW1  938   2.552   2.981   0.611  0.3606  2.2058 -1.9607
  313SOL    HW2  939   2.543   3.068   0.465  0.6124 -4.0787 -0.1935
  314SOL     OW  940   1.664   1.272   0.481 -0.4692 -0.0307 -0.0531
  314SOL    HW1  941   1.662   1.173   0.463  1.1262  0.3105  0.5429
  314SOL    HW2  942   1.629   1.313   0.393  1.0929 -2.8464  0.1729
  315SOL     OW  943   1.439   2.717   1.953 -0.1141  0.0938  0.4011
  315SOL    HW1  944   1.391   2.674   2.034 -0.7262 -1.9388  0.5279
  315SOL    HW2  945   1.454   2.817   1.956 -0.7297  1.5156  0.8567
  316SOL     OW  946   0.150   0.897   0.256  0.5491 -0.5318 -0.1244
  316SOL    HW1  947   0.149   0.810   0.204 -0.2351  2.1355  0.1056
  316SOL    HW2  948   0.136   0.887   0.356  1.3069 -0.1693 -1.5071
  317SOL     OW  949   0.470   2.941   0.305 -0.8106 -0.0312  0.3758
  317SOL    HW1  950   0.434   2.978   0.395 -0.0123  1.5476  0.6668
  317SOL    HW2  951   0.396   2.916   0.246  1.7233 -0.4045  3.0240
  318SOL     OW  952   2.369   2.518   0.668  0.0016  0.1359 -0.4440
  318SOL    HW1  953   2.465   2.549   0.672  0.1643 -0.1318  1.2395
  318SOL    HW2  954   2.312   2.598   0.643 -1.0982  1.7893  1.5751
  319SOL     OW  955   0.998   1.722   3.133 -0.0853  0.8733  0.0025
  319SOL    HW1  956   0.905   1.757   3.110  1.4693  0.4193  0.1622
  319SOL    HW2  957   1.032   1.665   3.052  1.4692  0.2819 -3.0510
  320SOL     OW  958   0.328   2.391   2.179 -0.4542 -0.0254  0.0506
  320SOL    HW1  959   0.300   2.295   2.167 -0.4012  1.5435  1.2543
  320SOL    HW2  960   0.286   2.448   2.105  1.0449 -1.5949  0.6406
  321SOL     OW  961   1.725   2.919   2.519  0.4747  0.3336 -0.0182
  321SOL    HW1  962   1.680   2.905   2.427  2.7576 -2.0108  0.4023
  321SOL    HW2  963   1.675   2.994   2.569  1.4769  0.7665 -0.0143
  322SOL     OW  964   3.091   1.389   2.257 -0.2614  0.2976 -0.5445
  322SOL    HW1  965   0.034   1.406   2.224 -0.4892  2.8448  0.3546
  322SOL    HW2  966   3.058   1.469   2.305  0.4578 -0.7873  0.3310
  323SOL     OW  967   2.255   1.409   0.678 -0.0853  0.0302 -0.6765
  323SOL    HW1  968   2.246   1.324   0.740 -0.8758  0.3197  0.2820
  323SOL    HW2  969   2.327   1.395   0.605 -1.6122  0.0678 -0.9734
  324SOL     OW  970   3.029   3.105   2.548  0.2983 -0.3324 -0.1761
  324SOL    HW1  971   3.001   0.031   2.611 -0.5756 -0.3832  0.1237
  324SOL    HW2  972   3.084   3.030   2.594 -0.4633 -0.1991  3.3578
  325SOL     OW  973   1.408   0.746   2.759  0.1207 -0.7965  0.1950
  325SOL    HW1  974   1.386   0.762   2.660 -1.0527 -1.0239 -1.1188
  325SOL    HW2  975   1.327   0.778   2.815 -2.4452 -1.2799 -0.1201
  326SOL     OW  976   2.193   2.839   1.767 -0.1206  0.0554 -0.0593
  326SOL    HW1  977   2.166   2.766   1.706  1.8421 -0.2330  1.2638
  326SOL    HW2  978   2.295   2.829   1.793  1.8361 -0.2301 -2.2550
  327SOL     OW  979   2.334   0.272   0.048  0.3215  0.3593  0.4822
  327SOL    HW1  980   2.368   0.299   3.106 -0.2674 -0.0365  0.3201
  327SOL    HW2  981   2.274   0.335   0.091  2.0819 -0.5495  2.1605
  328SOL     OW  982   0.212   1.177   2.497  0.2682  0.2014  0.5866
  328SOL    HW1  983   0.218   1.184   2.394 -1.1145 -0.4496 -1.5113
  328SOL    HW2  984   0.180   1.080   2.517 -1.6831 -0.4388 -1.5874
  329SOL     OW  985   2.108   3.129   1.754  0.3899  0.2959  0.3399
  329SOL    HW1  986   2.008   3.123   1.732 -1.2458 -3.5644 -1.6015
  329SOL    HW2  987   2.130   3.031   1.771  0.4784  0.3964  2.0017
  330SOL     OW  988   2.910   1.454   1.316 -0.2722 -0.1485 -0.2699
  330SOL    HW1  989   2.857   1.371   1.283 -0.9350  0.2901  0.2690
  330SOL    HW2  990   2.954   1.441   1.403  4.1029 -1.0003 -1.2682
  331SOL     OW  991   0.467   1.750   2.231 -0.1587  0.1944 -0.0845
  331SOL    HW1  992   0.530   1.824   2.264  0.4478  0.6033 -3.1446
  331SOL    HW2  993   0.517   1.686   2.172 -2.1551 -2.6259 -0.5927
  332SOL     OW  994   0.146   2.832   1.763 -0.0321 -0.3257  0.3668
  332SOL    HW1  995   0.238   2.797   1.725  1.6073  2.1066 -1.1637
  332SOL    HW2  996   0.076   2.827   1.690 -2.2758  0.5041  1.1492
  333SOL     OW  997   2.111   2.785   0.910  0.2434 -0.4190  0.1256
  333SOL    HW1  998   2.056   2.825   0.989  0.6489  1.9421  1.5024
  333SOL    HW2  999   2.052   2.751   0.830 -2.7807  2.6705  1.2890
  334SOL     OW 1000   0.811   1.763   0.793  0.9668 -0.2652  0.2544
  334SOL    HW1 1001   0.834   1.726   0.698  1.3067 -0.9627 -1.9342
  334SOL    HW2 1002   0.874   1.727   0.864 -2.9970  0.3538 -1.2234
  335SOL     OW 1003   0.211   2.515   3.034 -0.4369  0.1839 -0.4682
  335SOL    HW1 1004   0.177   2.477   2.947  0.0738 -1.4715 -0.2483
  335SOL    HW2 1005   0.276   2.596   3.020  1.4860 -0.5345 -0.6773
  336SOL     OW 1006   0.515   3.134   2.303  0.1037 -0.0573 -0.5987
  336SOL    HW1 1007   0.435   3.117   2.367 -0.7406 -1.6133  2.4938
  336SOL    HW2 1008   0.492   3.144   2.207  2.9857 -0.5590  0.8825
  337SOL     OW 1009   2.556   2.164   2.846 -0.0097 -0.5944  0.7819
  337SOL    HW1 1010   2.531   2.181   2.941 -2.1853  0.7182 -0.6618
  337SOL    HW2 1011   2.575   2.250   2.791 -0.4054  1.0709  1.5388
  338SOL     OW 1012   1.048   1.283   1.125 -0.6779 -0.6251 -0.1838
  338SOL    HW1 1013   1.011   1.344   1.051 -1.4892 -3.2194  1.1049
  338SOL    HW2 1014   1.099   1.330   1.200  0.6039 -0.1621 -1.1885
  339SOL     OW 1015   0.087   0.676   1.826 -0.1372  0.1015 -0.1037
  339SOL    HW1 1016   0.067   0.687   1.923 -0.1018  0.4249 -1.1750
  339SOL    HW2 1017   3.148   0.657   1.777  0.0950 -0.2720 -2.0527
  340SOL     OW 1018   1.459   2.635   0.271  0.1950  0.0261  0.0444
  340SOL    HW1 1019   1.475   2.632   0.370  0.3386 -1.1168  0.8920
  340SOL    HW2 1020   1.504   2.715   0.229 -2.6073 -1.2963  0.5270
  341SOL     OW 1021   1.966   1.236   0.842 -0.6203  0.3884 -0.4005
  341SOL    HW1 1022   1.887   1.196   0.888 -1.1246  0.8504 -3.8172
  341SOL    HW2 1023   1.965   1.338   0.844 -0.2488  0.1265 -1.1685
  342SOL     OW 1024   2.371   2.938   0.002  0.2246 -0.3730 -0.5464
  342SOL    HW1 1025   2.317   2.876   0.058 -0.4453  0.6774 -3.7561
  342SOL    HW2 1026   2.450   2.882   3.114 -0.7193 -1.8636 -0.0200
  343SOL     OW 1027   1.318   2.217   1.459  0.0504  0.1027  0.3141
  343SOL    HW1 1028   1.287   2.279   1.533  0.3082  0.1299  1.5609
  343SOL    HW2 1029   1.245   2.153   1.434 -0.8578  0.1593  1.4366
  344SOL     OW 1030   2.084   2.368   1.073 -0.3232  0.3060 -0.6188
  344SOL    HW1 1031   2.167   2.308   1.079 -0.5928 -3.3033  0.0630
  344SOL    HW2 1032   2.112   2.454   1.119  0.6269 -2.1766  0.8124
  345SOL     OW 1033   2.663   2.483   0.017 -0.1911 -0.3130 -0.3549
  345SOL    HW1 1034   2.654   2.396   0.067 -0.5568 -1.6020 -0.5906
  345SOL    HW2 1035   2.658   2.558   0.084  1.6890  0.0010 -1.2302
  346SOL     OW 1036   2.760   1.476   0.567 -0.0058  0.2240  0.3871
  346SOL    HW1 1037   2.831   1.547   0.548  0.1504 -0.7911 -3.8831
  346SOL    HW2 1038   2.775   1.438   0.663  3.0997  0.4112  2.5441
  347SOL     OW 1039   1.972   2.359   1.536 -0.2197 -0.5742 -0.2228
  347SOL    HW1 1040   1.887   2.383   1.490  1.4135  1.2857 -1.0324
  347SOL    HW2 1041   2.019   2.291   1.481 -0.4374  0.4339  2.5183
  348SOL     OW 1042   0.780   1.890   3.043 -0.2946  0.6829  0.4049
  348SOL    HW1 1043   0.827   1.983   3.051  3.6203 -1.9111  1.9218
  348SOL    HW2 1044   0.720   1.869   3.127 -1.9329  0.3740  0.5497
  349SOL     OW 1045   2.604   1.460   1.700 -0.3374 -0.3333 -0.2886
  349SOL    HW1 1046   2.561   1.469   1.791 -1.5015 -0.6723  1.4891
  349SOL    HW2 1047   2.641   1.553   1.668  0.1236 -0.9273 -0.5041
  350SOL     OW 1048   2.961   2.524   1.011  0.3300 -0.7958 -0.3676
  350SOL    HW1 1049   2.915   2.602   0.970  0.4310  0.7655  1.3376
  350SOL    HW2 1050   3.035   2.494   0.949  2.5560 -0.4311  0.6395
  351SOL     OW 1051   0.376   0.310   2.147 -0.2149  0.2301  0.5827
  351SOL    HW1 1052   0.443   0.369   2.099  0.9391  2.5229 -1.8976
  351SOL    HW2 1053   0.358   0.238   2.082 -0.6736  0.5979  1.1116
  352SOL     OW 1054   0.481   1.932   1.216  0.2289  0.1002 -0.5586
  352SOL    HW1 1055   0.553   1.874   1.265  2.4314 -0.4773  0.7254
  352SOL    HW2 1056   0.397   1.879   1.191  1.9199 -0.2772  1.3237
  353SOL     OW 1057   1.722   1.694   2.620  0.1241  0.2354 -0.1809
  353SOL    HW1 1058   1.748   1.642   2.534 -0.3977  0.2483  0.6339
  353SOL    HW2 1059   1.720   1.623   2.697 -1.1700 -0.1161  1.3123
  354SOL     OW 1060   1.317   0.585   1.042  0.1648 -0.3555  0.0204
  354SOL    HW1 1061   1.418   0.585   1.033  0.4734 -0.2533  0.1672
  354SOL    HW2 1062   1.288   0.657   1.105  0.8107 -0.4547 -2.0668
  355SOL     OW 1063   2.831   0.856   0.542  0.3994  0.4778  0.0110
  355SOL    HW1 1064   2.844   0.804   0.636 -1.3547 -1.5459  2.5554
  355SOL    HW2 1065   2.885   0.941   0.543 -2.5492 -3.9040 -1.0998
  356SOL     OW 1066   2.418   1.733   2.279 -0.2831  0.2640 -0.6148
  356SOL    HW1 1067   2.435   1.732   2.379 -0.0708  1.8015 -4.0804
  356SOL    HW2 1068   2.490   1.674   2.237 -3.5345  0.7814 -1.1760
  357SOL     OW 1069   0.480   2.492   1.297  0.1843 -0.8005  0.0667
  357SOL    HW1 1070   0.581   2.496   1.273 -0.8064 -2.0642 -2.3738
  357SOL    HW2 1071   0.434   2.435   1.226  1.6836 -2.1481 -0.8278
  358SOL     OW 1072   2.533   0.859   1.743  0.6117  0.0309 -0.1242
  358SOL    HW1 1073   2.570   0.876   1.649 -0.9856  0.6002 -0.3306
  358SOL    HW2 1074   2.605   0.892   1.809 -0.5418  0.8140 -0.1097
  359SOL     OW 1075   2.599   2.405   2.705  0.0122 -0.7928  0.0307
  359SOL    HW1 1076   2.585   2.439   2.609  3.4931  1.9318  0.2326
  359SOL    HW2 1077   2.699   2.410   2.727  2.4560 -0.3917  1.2279
  360SOL     OW 1078   2.078   0.784   0.978  0.0974 -0.1568  0.4475
  360SOL    HW1 1079   2.126   0.815   0.892 -0.8533 -3.4904 -1.0778
  360SOL    HW2 1080   2.010   0.855   1.012 -2.4686  3.3103 -0.7351
  361SOL     OW 1081   2.385   0.142   1.157  0.1105  0.5468 -0.0352
  361SOL    HW1 1082   2.310   0.210   1.161 -2.4235 -0.7642 -0.0150
  361SOL    HW2 1083   2.346   0.052   1.126 -1.2944 -1.0619 -0.3721
  362SOL     OW 1084   1.134   1.325   0.467  0.3165  0.1287  0.5358
  362SOL    HW1 1085   1.157   1.349   0.564 -3.5986  1.2131  0.8892
  362SOL    HW2 1086   1.126   1.405   0.401  0.8084  2.9104 -0.8627
  363SOL     OW 1087   2.664   1.482   2.864  0.1151 -0.3767  0.0995
  363SOL    HW1 1088   2.749   1.539   2.875  0.7271  0.6830  0.3405
  363SOL    HW2 1089   2.638   1.472   2.768 -2.0271  1.9607  1.8426
  364SOL     OW 1090   0.804   0.509   1.452 -0.1290  0.1658  0.3554
  364SOL    HW1 1091   0.810   0.605   1.487 -2.7568  2.0334 -0.0426
  364SOL    HW2 1092   0.843   0.443   1.521 -1.9270 -1.0082 -1.6735
  365SOL     OW 1093   0.186   3.081   0.606  0.2175 -0.0651 -0.1260
  365SOL    HW1 1094   0.135   3.006   0.561  0.1415  0.7140  0.0654
  365SOL    HW2 1095   0.148   3.101   0.696 -0.2173  0.4949 -0.2653
  366SOL     OW 1096   2.949   1.352   3.049 -0.2651  0.4249 -0.2970
  366SOL    HW1 1097   2.972   1.391   3.140 -0.7060 -0.9005  0.8031
  366SOL    HW2 1098   3.004   1.270   3.034 -2.0225  1.7113 -0.5336
  367SOL     OW 1099   2.828   2.465   2.846 -0.2611 -0.0193 -0.0357
  367SOL    HW1 1100   2.753   2.532   2.871 -0.5540 -2.9286  2.2420
  367SOL    HW2 1101   2.871   2.431   2.934 -1.2708  0.7212 -2.5290
  368SOL     OW 1102   0.042   1.883   0.819  0.1703  0.3320 -0.3942
  368SOL    HW1 1103   3.136   1.951   0.770 -1.2666 -1.5037  0.2269
  368SOL    HW2 1104   0.139   1.874   0.776  1.2349 -0.2361  0.3447
  369SOL     OW 1105   0.711   3.055   0.274  0.0672 -0.1215 -0.1236
  369SOL    HW1 1106   0.616   3.033   0.253  1.0224  1.2291  1.4004
  369SOL    HW2 1107   0.739   3.021   0.365 -0.4992  0.7769 -0.9210
  370SOL     OW 1108   0.384   1.153   0.741 -0.3181 -0.2326  1.0541
  370SOL    HW1 1109   0.331   1.177   0.655 -1.6607 -0.1766  0.6500
  370SOL    HW2 1110   0.386   1.225   0.805 -1.1980 -4.2297 -4.7552
  371SOL     OW 1111   1.846   2.936   0.670  0.0769 -0.5406  0.4227
  371SOL    HW1 1112   1.898   2.851   0.690 -1.0326  2.5017 -0.1525
  371SOL    HW2 1113   1.890   2.981   0.589  1.9772  1.6754  1.5808
  372SOL     OW 1114   0.281   0.895   2.756  0.4809  0.5036  0.2147
  372SOL    HW1 1115   0.196   0.899   2.697 -1.1130 -3.7752 -0.5625
  372SOL    HW2 1116   0.312   0.987   2.793  1.3701  2.1096  1.0452
  373SOL     OW 1117   2.869   1.628   0.907 -0.2078  0.6988  0.4234
  373SOL    HW1 1118   2.922   1.636   0.995  0.6832 -0.3431 -0.0694
  373SOL    HW2 1119   2.814   1.712   0.889  0.6928  1.5824 -3.5241
  374SOL     OW 1120   0.358   2.533   0.296  0.5201 -0.0869  0.1834
  374SOL    HW1 1121   0.340   2.473   0.219  0.0171  0.8164 -0.8453
  374SOL    HW2 1122   0.459   2.563   0.291  1.2969  2.3316  0.3468
  375SOL     OW 1123   0.264   0.426   0.200 -0.0571 -1.4915 -0.1548
  375SOL    HW1 1124   0.327   0.415   0.280 -0.6557  1.4600  2.1467
  375SOL    HW2 1125   0.304   0.370   0.126 -0.5343 -3.1014 -1.0563
  376SOL     OW 1126   0.500   2.925   1.838  0.2274 -0.3848  0.3879
  376SOL    HW1 1127   0.493   2.893   1.930  3.3805  1.6049 -3.0968
  376SOL    HW2 1128   0.490   3.026   1.836 -0.9512 -0.9938  0.2557
  377SOL     OW 1129   1.183   2.232   2.418  0.4226 -0.5698 -0.2742
  377SOL    HW1 1130   1.181   2.310   2.489  0.9901 -0.3286  0.4852
  377SOL    HW2 1131   1.217   2.261   2.328  1.7508 -2.3973 -1.7613
  378SOL     OW 1132   1.268   0.739   0.637  0.8936 -0.2734 -0.1351
  378SOL    HW1 1133   1.199   0.720   0.565 -0.7332 -0.5344 -3.0865
  378SOL    HW2 1134   1.292   0.839   0.646 -0.8272 -2.1386 -0.4877
  379SOL     OW 1135   0.783   1.641   0.197  0.9998  0.1128  0.3760
  379SOL    HW1 1136   0.862   1.637   0.145 -2.8193  1.8743  0.8594
  379SOL    HW2 1137   0.788   1.573   0.269  0.1256  0.6105 -0.5632
  380SOL     OW 1138   3.093   1.871   1.655  0.4521  0.2973 -0.2253
  380SOL    HW1 1139   3.061   1.833   1.563 -2.5151 -1.2942 -0.2627
  380SOL    HW2 1140   0.012   1.940   1.631 -2.5253 -0.3207 -1.6574
  381SOL     OW 1141   0.182   1.082   1.728 -0.0840  0.1411  0.2393
  381SOL    HW1 1142   0.126   1.108   1.807  0.9457 -0.3957 -0.6981
  381SOL    HW2 1143   0.227   0.995   1.739  2.4535 -0.2631 -0.3085
  382SOL     OW 1144   2.565   2.166   0.706  0.1874 -0.0077  0.0332
  382SOL    HW1 1145   2.472   2.204   0.680 -1.6045 -0.9571  2.7726
  382SOL    HW2 1146   2.576   2.160   0.805  1.6989 -0.7583 -1.6459
  383SOL     OW 1147   2.061   1.856   2.585 -0.0880  0.2092 -0.1395
  383SOL    HW1 1148   2.121   1.787   2.549 -1.4007  3.5527  1.3888
  383SOL    HW2 1149   2.107   1.943   2.603 -4.0382  2.2463 -0.6285
  384SOL     OW 1150   0.600   1.981   2.311  0.4042 -0.5270 -0.5786
  384SOL    HW1 1151   0.624   2.059   2.375 -1.6126  1.2245 -2.9796
  384SOL    HW2 1152   0.679   1.936   2.272 -2.4540  0.9746  0.3694
  385SOL     OW 1153   2.877   2.272   1.055  0.0873  0.1582 -0.5391
  385SOL    HW1 1154   2.906   2.367   1.036 -3.2094  0.3630 -3.2051
  385SOL    HW2 1155   2.959   2.205   1.054  2.8854 -1.3051  0.6291
  386SOL     OW 1156   1.674   0.781   0.225  0.0296  0.6932  0.1444
  386SOL    HW1 1157   1.623   0.694   0.214  1.8613  0.2586 -0.3698
  386SOL    HW2 1158   1.770   0.762   0.228 -3.3839 -0.4097 -0.1901
  387SOL     OW 1159   0.330   0.834   1.791  0.0402 -0.2641  0.7757
  387SOL    HW1 1160   0.254   0.768   1.805 -1.2191  0.3621 -2.8850
  387SOL    HW2 1161   0.375   0.863   1.879 -1.1585 -0.5959 -0.7527
  388SOL     OW 1162   2.373   0.931   2.333  0.3657  0.2095  0.5508
  388SOL    HW1 1163   2.412   1.023   2.305 -0.6566 -0.2941  0.5506
  388SOL    HW2 1164   2.383   0.931   2.434  0.6707 -0.8989 -0.5965
  389SOL     OW 1165   1.641   1.051   2.201 -0.2402  0.0990 -0.1807
  389SOL    HW1 1166   1.637   1.003   2.109 -0.3754 -0.2262 -0.9970
  389SOL    HW2 1167   1.701   1.130   2.191  1.3149 -2.3393  0.0711
  390SOL     OW 1168   1.950   2.766   0.265  0.2148  0.0750  0.3077
  390SOL    HW1 1169   1.900   2.689   0.313 -0.6287 -1.6893  0.1790
  390SOL    HW2 1170   1.944   2.752   0.162  1.3509 -0.8364 -0.8779
  391SOL     OW 1171   1.851   2.447   1.151  0.5746 -0.6328 -0.1291
  391SOL    HW1 1172   1.938   2.405   1.114 -0.1798  0.1827 -0.9289
  391SOL    HW2 1173   1.777   2.437   1.082  0.4520  1.5872  1.3717
  392SOL     OW 1174   3.022   2.543   1.457  0.0296  0.0089 -0.2056
  392SOL    HW1 1175   3.071   2.622   1.405  0.4693  2.2832 -1.8705
  392SOL    HW2 1176   2.941   2.509   1.400 -1.7913  1.8549 -1.5102
  393SOL     OW 1177   1.975   2.009   0.111 -0.1366 -0.2977  0.0501
  393SOL    HW1 1178   1.978   1.923   0.168  1.5781  1.3421  0.0509
  393SOL    HW2 1179   2.036   1.997   0.030 -0.6605  0.1317 -2.2777
  394SOL     OW 1180   0.264   3.104   3.136 -0.2905  0.2384  0.5828
  394SOL    HW1 1181   0.176   3.069   3.098  0.7886 -0.1358 -2.5520
  394SOL    HW2 1182   0.332   3.121   3.058  3.1398  2.1633 -1.6827
  395SOL     OW 1183   1.576   1.120   1.278 -0.0136 -0.4206  0.2655
  395SOL    HW1 1184   1.579   1.205   1.221  0.8853  1.2288  0.9609
  395SOL    HW2 1185   1.596   1.032   1.229  1.2672  2.8528  1.1417
  396SOL     OW 1186   1.672   0.979   0.046 -0.4027  0.6454 -0.0100
  396SOL    HW1 1187   1.753   1.036   0.080 -1.3084 -0.7262  0.5277
  396SOL    HW2 1188   1.654   0.900   0.107  0.2862 -2.1201 -2.5593
  397SOL     OW 1189   0.273   0.604   2.783 -0.1364 -0.3345 -0.1862
  397SOL    HW1 1190   0.184   0.578   2.735  1.1805  1.9023 -0.7700
  397SOL    HW2 1191   0.306   0.693   2.750 -0.2413 -0.8931  3.2117
  398SOL     OW 1192   1.160   0.321   0.053  0.3503  0.1112  1.1369
  398SOL    HW1 1193   1.134   0.394   3.136  1.7303  2.4752 -1.9625
  398SOL    HW2 1194   1.234   0.262   0.009 -0.6619 -2.3714 -0.2873
  399SOL     OW 1195   2.465   2.794   1.803  0.2623 -0.6230  0.3497
  399SOL    HW1 1196   2.548   2.836   1.765 -0.4718  0.1003 -0.5164
  399SOL    HW2 1197   2.490   2.717   1.864 -1.9536 -0.1539 -0.1416
  400SOL     OW 1198   0.063   1.726   2.463  0.2104  0.2883  0.0460
  400SOL    HW1 1199   0.162   1.733   2.467 -3.1298 -1.7986  0.2768
  400SOL    HW2 1200   0.026   1.817   2.451  2.1221 -0.7287 -0.0174
  401SOL     OW 1201   0.570   0.173   2.861  0.0150  0.1911 -0.4339
  401SOL    HW1 1202   0.619   0.221   2.936 -0.5540 -0.6372  1.3267
  401SOL    HW2 1203   0.629   0.091   2.827 -0.7147 -1.2727 -2.5579
  402SOL     OW 1204   0.219   2.282   1.835  0.5908  0.2399  0.2120
  402SOL    HW1 1205   0.276   2.250   1.752  1.0223 -0.4693  0.2182
  402SOL    HW2 1206   0.232   2.382   1.852 -0.9494  1.3025  0.1749
  403SOL     OW 1207   0.753   1.177   1.469  0.7212  0.8499  0.2392
  403SOL    HW1 1208   0.777   1.074   1.471 -1.9486  0.2055 -0.1866
  403SOL    HW2 1209   0.777   1.220   1.559 -2.2461  0.3287  0.6883
  404SOL     OW 1210   2.876   2.634   1.660  0.0070  0.5460  0.0836
  404SOL    HW1 1211   2.881   2.737   1.661 -3.3141 -1.0748 -0.6326
  404SOL    HW2 1212   2.940   2.589   1.591  1.5072  1.6550 -0.2740
  405SOL     OW 1213   3.100   0.100   1.851  0.1974 -0.7934  0.2659
  405SOL    HW1 1214   0.033   0.045   1.840 -1.9925  0.8780  0.0534
  405SOL    HW2 1215   3.091   0.143   1.944 -0.8208  0.4862  2.7249
  406SOL     OW 1216   1.628   2.571   2.918 -0.5985  0.5420  0.2755
  406SOL    HW1 1217   1.699   2.495   2.934  0.6869 -1.2166  1.2151
  406SOL    HW2 1218   1.626   2.582   2.817  0.8213  1.5071 -1.2004
  407SOL     OW 1219   1.787   1.502   1.493 -0.1032 -0.3732 -0.1004
  407SOL    HW1 1220   1.853   1.426   1.494 -2.1320  2.2847  0.7740
  407SOL    HW2 1221   1.766   1.529   1.589  1.8138  0.7440 -0.0720
  408SOL     OW 1222   0.768   0.255   2.163 -0.1213 -0.1151 -0.1037
  408SOL    HW1 1223   0.696   0.249   2.233  5.2664 -0.9370 -0.8331
  408SOL    HW2 1224   0.852   0.215   2.202 -1.9373  1.0752 -0.0683
  409SOL     OW 1225   2.970   2.480   0.545 -0.5197  0.1817 -0.3087
  409SOL    HW1 1226   2.887   2.442   0.507  1.4316  0.0780  0.6938
  409SOL    HW2 1227   3.025   2.546   0.490  1.2379 -1.1154  2.1456
  410SOL     OW 1228   2.402   1.784   0.523 -0.0292  0.0193  0.1180
  410SOL    HW1 1229   2.439   1.713   0.469  0.5063  1.1654  2.5644
  410SOL    HW2 1230   2.461   1.791   0.603  0.0816  1.8210  0.1755
  411SOL     OW 1231   3.137   0.607   0.971 -0.0421  0.6995 -0.5119
  411SOL    HW1 1232   0.036   0.522   0.948 -0.2302 -1.7225  0.5348
  411SOL    HW2 1233   0.056   0.679   0.984 -1.8148  1.4223 -1.3308
  412SOL     OW 1234   1.908   0.658   0.517 -0.1490  0.0807 -0.1696
  412SOL    HW1 1235   1.877   0.726   0.581 -0.1886 -2.2107 -2.4753
  412SOL    HW2 1236   1.917   0.706   0.424 -2.1419 -0.8780 -0.0938
  413SOL     OW 1237   0.796   0.442   1.149  0.1534 -0.0556  0.0583
  413SOL    HW1 1238   0.722   0.370   1.131 -1.9607 -0.4333 -3.3163
  413SOL    HW2 1239   0.803   0.458   1.250 -0.5580 -1.5303 -1.6513
  414SOL     OW 1240   0.382   1.847   0.041  0.3602  0.0915 -0.0637
  414SOL    HW1 1241   0.407   1.808   3.102  0.6985  2.3002  2.7473
  414SOL    HW2 1242   0.364   1.779   0.117 -2.8566 -0.4108  0.0905
  415SOL     OW 1243   0.358   2.363   0.090  0.6099  0.0094  0.6918
  415SOL    HW1 1244   0.414   2.289   0.053 -1.0934  0.3634 -2.0253
  415SOL    HW2 1245   0.304   2.407   0.018 -2.5322  1.5201  1.4628
  416SOL     OW 1246   1.609   0.915   0.441  0.1697 -0.0748  0.2400
  416SOL    HW1 1247   1.621   0.874   0.347 -1.2979  1.1395 -2.2808
  416SOL    HW2 1248   1.672   0.876   0.515  0.6082 -1.2601  2.7359
  417SOL     OW 1249   0.371   0.936   0.573  0.8707  0.9805  0.5574
  417SOL    HW1 1250   0.270   0.937   0.562 -3.0005  0.4263 -0.6280
  417SOL    HW2 1251   0.398   1.009   0.637 -2.0881 -0.0817 -3.0713
  418SOL     OW 1252   2.673   1.115   2.520 -0.0966  0.0344 -0.0764
  418SOL    HW1 1253   2.635   1.170   2.443 -1.4300  2.0950  0.4955
  418SOL    HW2 1254   2.639   1.146   2.611 -0.4487 -1.4034  0.3657
  419SOL     OW 1255   0.410   0.294   0.031  0.3907  0.2559  0.4529
  419SOL    HW1 1256   0.381   0.196   0.022 -0.8157 -0.6181  2.8012
  419SOL    HW2 1257   0.388   0.349   3.095  1.9267 -0.2447 -0.2345
  420SOL     OW 1258   0.009   1.214   0.912 -0.4799 -0.1030  0.4214
  420SOL    HW1 1259   0.101   1.212   0.865 -0.3811 -0.1678 -1.0397
  420SOL    HW2 1260   0.001   1.314   0.938  0.0341  3.2929 -1.0714
  421SOL     OW 1261   0.596   2.043   0.513 -0.5652 -0.0205 -0.9345
  421SOL    HW1 1262   0.531   2.097   0.460  0.4257  2.5745 -0.3328
  421SOL    HW2 1263   0.685   2.090   0.526  3.3469  0.1097 -0.0573
  422SOL     OW 1264   2.732   0.627   1.437  0.1998  0.1501  0.4143
  422SOL    HW1 1265   2.791   0.566   1.493 -2.2922 -3.6726 -2.1522
  422SOL    HW2 1266   2.672   0.569   1.381  1.8498  0.9109 -0.4756
  423SOL     OW 1267   1.720   1.520   1.234 -0.1234  0.3083  0.9379
  423SOL    HW1 1268   1.730   1.520   1.340  1.9670  0.4482  0.2786
  423SOL    HW2 1269   1.761   1.606   1.193  1.2134  2.4440 -0.5525
  424SOL     OW 1270   2.006   1.116   0.396  0.0087 -0.0878 -1.0878
  424SOL    HW1 1271   2.070   1.057   0.346 -0.8700  2.7169  2.0084
  424SOL    HW2 1272   2.020   1.218   0.394 -2.0892  1.2639  0.3444
  425SOL     OW 1273   3.124   3.107   2.159  0.2859  0.3909 -0.1323
  425SOL    HW1 1274   0.032   3.127   2.242  1.5430  1.7122  1.3291
  425SOL    HW2 1275   3.086   3.010   2.162  0.8763 -4.7273 -0.8548
  426SOL     OW 1276   2.514   2.726   2.673 -0.0745 -0.5127 -0.2670
  426SOL    HW1 1277   2.537   2.701   2.768 -0.2219  0.3300 -0.6515
  426SOL    HW2 1278   2.437   2.793   2.664  0.5757 -0.8116 -1.4763
  427SOL     OW 1279   1.057   0.860   2.310 -0.1259 -0.4628 -0.3830
  427SOL    HW1 1280   0.985   0.793   2.332  3.8870  1.3382 -0.5446
  427SOL    HW2 1281   1.138   0.802   2.301 -1.2722  1.4295  1.1101
  428SOL     OW 1282   2.098   0.876   2.282 -0.5493  0.2683 -0.5585
  428SOL    HW1 1283   2.046   0.920   2.204 -0.7552  1.6542 -0.8985
  428SOL    HW2 1284   2.189   0.920   2.291 -0.3873  0.1537 -1.8633
  429SOL     OW 1285   2.354   0.186   0.748  0.3746 -0.9407 -0.3141
  429SOL    HW1 1286   2.393   0.127   0.679 -2.9041  3.4137  0.1818
  429SOL    HW2 1287   2.337   0.277   0.702  1.4040  1.9631 -0.4059
  430SOL     OW 1288   2.062   1.444   2.078  0.0619  0.4075  0.2336
  430SOL    HW1 1289   2.083   1.364   2.136  2.1997  2.1610  2.3746
  430SOL    HW2 1290   2.060   1.431   1.977  0.2260  0.0474  2.1047
  431SOL     OW 1291   3.022   2.019   1.298 -0.4922 -0.3172 -0.2901
  431SOL    HW1 1292   3.026   2.090   1.376 -1.3580  0.2776  3.0621
  431SOL    HW2 1293   3.014   1.929   1.347  3.8230 -0.4195  0.6703
  432SOL     OW 1294   1.547   2.969   2.290 -0.2303 -0.0344 -0.0224
  432SOL    HW1 1295   1.541   3.070   2.312 -0.8438 -0.1640  0.1230
  432SOL    HW2 1296   1.620   2.948   2.221 -2.1130  1.1520  1.0959
  433SOL     OW 1297   1.509   2.996   1.895  0.3345 -0.3368 -0.1648
  433SOL    HW1 1298   1.496   2.995   1.793  0.5917 -1.1859  1.6740
  433SOL    HW2 1299   1.494   3.087   1.930  0.2029 -0.7071 -1.9777
  434SOL     OW 1300   0.040   2.296   2.321 -0.2584 -0.8963  0.5268
  434SOL    HW1 1301   3.130   2.267   2.243 -2.0549  0.4738 -0.2832
  434SOL    HW2 1302   0.057   2.402   2.320  1.2573  3.1741 -1.0383
  435SOL     OW 1303   3.146   2.075   0.178  0.3746  0.0941 -0.0027
  435SOL    HW1 1304   0.079   2.080   0.121  0.1941 -1.5690  1.3519
  435SOL    HW2 1305   3.150   2.013   0.259  1.1921  1.6001 -0.9968
  436SOL     OW 1306   1.084   1.075   1.643 -0.0514  0.6940  0.1836
  436SOL    HW1 1307   1.139   1.050   1.561 -2.4780 -1.6302  0.9968
  436SOL    HW2 1308   1.078   1.003   1.710  1.5348  3.2061 -3.8840
  437SOL     OW 1309   0.701   0.272   2.447  0.0093  0.6225  0.8296
  437SOL    HW1 1310   0.789   0.243   2.489 -2.1063  1.0794  3.8733
  437SOL    HW2 1311   0.624   0.205   2.465 -2.5361 -1.2308 -0.2915
  438SOL     OW 1312   0.513   1.706   1.647  0.0834  0.3089  0.4770
  438SOL    HW1 1313   0.539   1.804   1.644  0.4039  0.8604 -3.4487
  438SOL    HW2 1314   0.560   1.649   1.715 -0.4541  2.6845  1.7270
  439SOL     OW 1315   1.978   0.863   0.016 -0.0167  0.4114 -0.0375
  439SOL    HW1 1316   1.892   0.879   3.113 -0.4899 -1.8660 -0.6633
  439SOL    HW2 1317   2.059   0.918   3.131  2.0269  3.0495 -0.1315
  440SOL     OW 1318   0.920   0.981   0.306 -0.3048  0.3106 -0.3900
  440SOL    HW1 1319   1.024   0.985   0.314  1.8423  0.8119 -1.1392
  440SOL    HW2 1320   0.879   0.900   0.361 -0.0022 -2.5888  1.6887
  441SOL     OW 1321   0.580   2.614   1.537  0.1870  0.0110 -0.0778
  441SOL    HW1 1322   0.595   2.562   1.450  1.7667  2.1141 -0.9965
  441SOL    HW2 1323   0.664   2.619   1.591 -0.0711 -2.2839 -0.5418
  442SOL     OW 1324   2.789   2.118   0.580  0.3335  0.0149 -0.4904
  442SOL    HW1 1325   2.714   2.164   0.626  2.0789 -2.3104 -0.5559
  442SOL    HW2 1326   2.792   2.017   0.593 -0.2689  0.5491 -3.5415
  443SOL     OW 1327   2.890   1.660   2.595  0.2246  0.0933 -0.0024
  443SOL    HW1 1328   2.844   1.744   2.626  1.2153 -1.8893 -1.2796
  443SOL    HW2 1329   2.984   1.657   2.644  1.1048 -0.0770 -1.3721
  444SOL     OW 1330   1.298   1.200   0.255 -0.1802 -0.4443  0.3221
  444SOL    HW1 1331   1.292   1.101   0.278 -0.7695 -1.5590 -0.8950
  444SOL    HW2 1332   1.257   1.259   0.325 -0.8865  0.9073 -1.7146
  445SOL     OW 1333   2.530   2.556   1.905 -0.3505 -0.2040 -0.2137
  445SOL    HW1 1334   2.611   2.500   1.881 -1.7276 -0.1416 -2.0659
  445SOL    HW2 1335   2.478   2.501   1.976 -2.6916 -0.9338 -2.7249
  446SOL     OW 1336   2.958   1.636   0.511 -0.4686  0.4751 -0.1993
  446SOL    HW1 1337   2.975   1.698   0.435  0.7262 -0.8942  1.1821
  446SOL    HW2 1338   3.037   1.573   0.528  3.5379 -0.5425  0.6792
  447SOL     OW 1339   0.947   2.390   1.394 -0.0176  0.1286  0.2523
  447SOL    HW1 1340   0.976   2.373   1.491 -0.7650 -1.4618 -1.4011
  447SOL    HW2 1341   1.025   2.417   1.338 -2.2891 -2.9249 -0.9331
  448SOL     OW 1342   1.377   1.550   1.812  0.1561  0.7950 -0.4719
  448SOL    HW1 1343   1.362   1.558   1.912 -0.1213 -1.4532 -0.5176
  448SOL    HW2 1344   1.315   1.480   1.763  0.2482 -2.3564  0.0263
  449SOL     OW 1345   3.079   2.163   2.070  0.2723  0.0183 -0.3355
  449SOL    HW1 1346   3.019   2.157   1.989 -1.4833 -0.4868  0.0648
  449SOL    HW2 1347   0.028   2.158   2.046  0.9541  0.8486  0.7573
  450SOL     OW 1348   3.054   1.806   2.213 -0.2177  0.0325 -0.1758
  450SOL    HW1 1349   3.005   1.890   2.243  2.4096  1.1068 -1.5936
  450SOL    HW2 1350   3.087   1.814   2.117 -0.1920  1.4865 -0.1298
  451SOL     OW 1351   2.101   0.656   1.793 -0.2264  0.5737  0.2502
  451SOL    HW1 1352   2.176   0.703   1.744 -0.8460 -2.8736  0.7295
  451SOL    HW2 1353   2.120   0.646   1.890  0.2704  0.5654 -2.2884
  452SOL     OW 1354   0.913   1.448   0.912  0.1584 -0.4297  0.2574
  452SOL    HW1 1355   0.813   1.439   0.892 -2.2762  0.8004 -0.5502
  452SOL    HW2 1356   0.927   1.535   0.961 -1.1877 -2.6042 -0.9320
  453SOL     OW 1357   1.235   2.279   0.943  0.2794 -0.2500  0.4076
  453SOL    HW1 1358   1.262   2.367   0.891 -0.2810  1.3181  1.6848
  453SOL    HW2 1359   1.320   2.231   0.970  1.5123 -1.9592 -0.2290
  454SOL     OW 1360   0.037   1.428   0.348 -0.1751  0.7132  0.2569
  454SOL    HW1 1361   0.015   1.362   0.424  2.1311 -0.2485 -1.4882
  454SOL    HW2 1362   0.130   1.400   0.310 -0.2659 -0.2876  1.2323
  455SOL     OW 1363   0.943   1.243   0.308  0.3662  0.4530  0.8413
  455SOL    HW1 1364   0.926   1.143   0.302 -1.7328  0.3071  1.3433
  455SOL    HW2 1365   1.033   1.261   0.351  1.1920  3.5373 -0.0893
  456SOL     OW 1366   1.961   2.679   0.685  0.3043 -0.2966 -0.8873
  456SOL    HW1 1367   1.931   2.587   0.722 -1.0399  1.1168 -2.1869
  456SOL    HW2 1368   2.031   2.669   0.612 -1.9328  0.9738 -0.5272
  457SOL     OW 1369   1.618   3.057   2.909 -0.3939  0.7982  0.1112
  457SOL    HW1 1370   1.550   3.054   2.979  0.2363 -0.4143 -1.8491
  457SOL    HW2 1371   1.572   3.082   2.821  0.6822 -2.5245  0.4567
  458SOL     OW 1372   2.536   0.581   0.252 -0.1980  0.1342  0.4255
  458SOL    HW1 1373   2.445   0.540   0.277  0.4472  0.9754  1.6861
  458SOL    HW2 1374   2.545   0.676   0.295  1.9915  0.0615 -0.0996
  459SOL     OW 1375   2.306   0.196   2.226 -0.3843 -0.3553 -0.2039
  459SOL    HW1 1376   2.242   0.260   2.179 -0.3770  1.5821  0.6542
  459SOL    HW2 1377   2.354   0.251   2.298 -2.2035  2.0405  1.3259
  460SOL     OW 1378   2.953   0.582   2.786 -0.2976  0.1123 -0.2995
  460SOL    HW1 1379   2.938   0.550   2.880  1.9344 -1.8096  1.2943
  460SOL    HW2 1380   2.881   0.653   2.762  0.8540  3.5799  1.9306
  461SOL     OW 1381   0.024   2.434   0.864 -0.1070  0.2884  0.7508
  461SOL    HW1 1382   0.049   2.363   0.936 -0.6907  0.5607  0.6768
  461SOL    HW2 1383   0.025   2.396   0.765  1.0414 -2.1309 -4.5607
  462SOL     OW 1384   2.894   2.877   1.158 -0.9500 -0.3394 -0.1854
  462SOL    HW1 1385   2.885   2.967   1.198 -0.0124 -1.6297 -0.7934
  462SOL    HW2 1386   2.991   2.854   1.145 -2.0943  0.2285  3.0551
  463SOL     OW 1387   2.229   1.703   0.087 -0.1415  0.4794 -0.4025
  463SOL    HW1 1388   2.328   1.730   0.115  0.9514  1.4526 -0.8031
  463SOL    HW2 1389   2.222   1.674   3.137  2.3253  2.9310  1.6642
  464SOL     OW 1390   0.746   2.516   1.262  0.1059  0.3682 -0.0443
  464SOL    HW1 1391   0.833   2.477   1.295 -2.4034  0.5510 -0.1246
  464SOL    HW2 1392   0.756   2.602   1.211 -2.5136  0.2448 -0.9516
  465SOL     OW 1393   1.075   0.236   1.589  0.1567  0.5208  0.0628
  465SOL    HW1 1394   1.140   0.213   1.667 -1.1390 -2.0965  1.3042
  465SOL    HW2 1395   0.986   0.264   1.637  0.5338 -1.2777  1.3254
  466SOL     OW 1396   1.648   2.593   1.806  0.2295 -0.5497  0.0960
  466SOL    HW1 1397   1.669   2.522   1.872 -1.9423 -1.7774 -4.8681
  466SOL    HW2 1398   1.563   2.651   1.826 -4.1263  1.3440 -1.4795
  467SOL     OW 1399   0.728   2.218   1.440  0.4347  0.3270  0.5740
  467SOL    HW1 1400   0.633   2.240   1.413  0.5783  2.2052 -0.5065
  467SOL    HW2 1401   0.799   2.287   1.412 -2.3625 -1.3665  0.2442
  468SOL     OW 1402   2.649   1.581   2.216 -0.3782 -0.6178 -0.0577
  468SOL    HW1 1403   2.742   1.605   2.251  1.9540 -0.9332  3.5266
  468SOL    HW2 1404   2.623   1.498   2.266  1.6422 -1.2843  0.5128
  469SOL     OW 1405   0.858   2.029   0.709  0.2314  0.2530 -0.3199
  469SOL    HW1 1406   0.788   2.082   0.759 -2.9299 -0.9935  1.4305
  469SOL    HW2 1407   0.856   1.934   0.743 -0.1412 -0.1248  1.7709
  470SOL     OW 1408   1.833   1.257   2.114  0.1858  0.0185 -0.0435
  470SOL    HW1 1409   1.904   1.185   2.113  1.1221  0.2110  2.1135
  470SOL    HW2 1410   1.827   1.309   2.198  2.1140 -0.8270 -1.1040
  471SOL     OW 1411   0.674   2.514   0.024 -0.5623 -0.2263  0.2447
  471SOL    HW1 1412   0.585   2.537   0.063 -0.7765 -0.1043 -0.5975
  471SOL    HW2 1413   0.714   2.426   0.053 -0.4382  1.3322 -0.0996
  472SOL     OW 1414   0.032   2.742   2.014  0.5750  0.1298 -0.0438
  472SOL    HW1 1415   3.120   2.783   2.086 -1.1988 -1.8606  1.8286
  472SOL    HW2 1416   0.044   2.793   1.927 -2.8118 -3.5635 -2.2416
  473SOL     OW 1417   0.664   2.782   3.100 -0.3709  0.3894  0.0056
  473SOL    HW1 1418   0.722   2.854   3.145 -2.7271 -1.5367 -3.3500
  473SOL    HW2 1419   0.701   2.691   3.121 -0.3823  1.9664 -1.9480
  474SOL     OW 1420   2.269   3.075   1.034  0.2053 -0.4185  0.4623
  474SOL    HW1 1421   2.254   3.119   0.946 -1.5861 -1.7679  5.0155
  474SOL    HW2 1422   2.248   2.981   1.021  1.1103 -1.0068 -0.7219
  475SOL     OW 1423   1.861   3.055   1.659 -0.2026  0.5270  0.1372
  475SOL    HW1 1424   1.844   2.953   1.659 -0.0088 -2.2942  1.1074
  475SOL    HW2 1425   1.853   3.104   1.572 -0.7022  0.1447 -0.2417
  476SOL     OW 1426   0.634   1.336   0.780  0.1765  0.3514  0.2849
  476SOL    HW1 1427   0.617   1.434   0.793  0.2739 -0.5319  0.8678
  476SOL    HW2 1428   0.627   1.283   0.870 -2.3896  0.3067  0.8102
  477SOL     OW 1429   0.303   1.848   0.681  0.2131  0.0573 -0.3464
  477SOL    HW1 1430   0.360   1.914   0.732 -0.9078 -1.2504 -0.1797
  477SOL    HW2 1431   0.324   1.854   0.579  0.5304  0.3794 -0.1618
  478SOL     OW 1432   2.965   2.607   2.377  0.1163  0.3116 -0.2586
  478SOL    HW1 1433   2.936   2.703   2.392 -2.9781 -1.3699 -0.5349
  478SOL    HW2 1434   2.936   2.543   2.453  0.5181 -0.4532 -0.0040
  479SOL     OW 1435   3.047   0.195   1.435 -0.0599 -0.4670  0.5431
  479SOL    HW1 1436   3.144   0.221   1.425 -0.8850  0.1482 -2.3704
  479SOL    HW2 1437   3.008   0.221   1.525  1.0438 -2.0617 -1.2645
  480SOL     OW 1438   2.919   2.370   3.089  0.1807 -0.5631  0.2000
  480SOL    HW1 1439   3.000   2.419   3.127 -1.6711 -1.2669 -0.0291
  480SOL    HW2 1440   2.829   2.404   3.130  1.8351  2.1760 -1.7211
  481SOL     OW 1441   2.277   2.062   1.954  0.0227  0.0746 -0.2307
  481SOL    HW1 1442   2.197   2.115   1.974  2.3230 -0.9147  0.2000
  481SOL    HW2 1443   2.314   2.092   1.866  3.9480  0.1541 -2.6802
  482SOL     OW 1444   1.833   2.272   2.670 -0.2873 -0.0640 -0.5222
  482SOL    HW1 1445   1.844   2.176   2.706 -0.2900  0.2072  1.4022
  482SOL    HW2 1446   1.808   2.269   2.572 -1.5294 -1.1529  0.1700
  483SOL     OW 1447   0.837   1.507   2.195  0.1033 -0.1255  0.2729
  483SOL    HW1 1448   0.765   1.510   2.263  2.2666  0.3403 -3.7722
  483SOL    HW2 1449   0.820   1.572   2.118 -0.1219  1.2890 -0.6798
  484SOL     OW 1450   0.127   0.324   1.385 -0.2188  0.2326 -0.3535
  484SOL    HW1 1451   0.041   0.377   1.356 -4.7297  0.3171 -0.4400
  484SOL    HW2 1452   0.185   0.371   1.455  1.0047  0.5312  2.5056
  485SOL     OW 1453   2.469   1.068   0.248 -0.2062 -0.0691  0.0641
  485SOL    HW1 1454   2.540   0.989   0.237  2.7094 -1.0562 -1.7648
  485SOL    HW2 1455   2.493   1.150   0.195 -0.2680  1.4489  0.2244
  486SOL     OW 1456   1.611   0.069   2.238 -0.2056  0.2358 -0.2630
  486SOL    HW1 1457   1.571   0.100   2.150  0.4961 -0.0573  1.6992
  486SOL    HW2 1458   1.693   0.127   2.266 -0.2274  0.8259  0.2593
  487SOL     OW 1459   0.853   1.962   1.433 -0.0788  0.5270 -0.4042
  487SOL    HW1 1460   0.817   2.058   1.429 -0.4877  0.1046 -1.5375
  487SOL    HW2 1461   0.774   1.898   1.415 -0.8309 -1.4941 -1.3140
  488SOL     OW 1462   2.540   1.357   3.089  0.3341  0.1802 -0.0034
  488SOL    HW1 1463   2.583   1.397   3.001  3.6296  0.2236  0.5474
  488SOL    HW2 1464   2.444   1.390   3.101 -1.9128  2.4285 -2.9159
  489SOL     OW 1465   2.241   0.009   0.474 -0.2402 -0.3466 -0.1504
  489SOL    HW1 1466   2.298   3.080   0.503 -1.8445  1.1756  0.7952
  489SOL    HW2 1467   2.302   0.092   0.475  1.6254  0.5983  2.1548
  490SOL     OW 1468   1.286   2.810   3.008  0.2133 -0.2759 -0.4053
  490SOL    HW1 1469   1.292   2.706   2.998 -0.2016 -1.0113 -1.6474
  490SOL    HW2 1470   1.187   2.843   3.002 -0.9359 -0.3132 -0.9357
  491SOL     OW 1471   1.153   1.058   0.996 -0.3165 -0.4994 -0.1985
  491SOL    HW1 1472   1.104   1.128   1.053 -2.8248  2.1455  1.4752
  491SOL    HW2 1473   1.087   1.010   0.936  0.3819 -2.2080  0.5256
  492SOL     OW 1474   1.378   0.371   2.494  0.2858 -0.0847 -0.0777
  492SOL    HW1 1475   1.470   0.408   2.510 -0.8380  2.7996  1.2294
  492SOL    HW2 1476   1.354   0.359   2.397  0.1694 -0.1139  0.8041
  493SOL     OW 1477   1.825   2.245   0.144  0.3763  0.5787 -0.1173
  493SOL    HW1 1478   1.859   2.344   0.149  0.0765  1.3657  2.5492
  493SOL    HW2 1479   1.896   2.173   0.143  3.7557 -1.3679  0.6594
  494SOL     OW 1480   0.535   1.322   0.508 -0.5664  0.1011 -0.3287
  494SOL    HW1 1481   0.465   1.396   0.496  1.3541  1.1878  0.5238
  494SOL    HW2 1482   0.574   1.326   0.600 -0.8682 -1.5438 -1.1669
  495SOL     OW 1483   2.995   2.751   0.671  0.3643 -0.1643  0.0215
  495SOL    HW1 1484   2.934   2.780   0.746 -0.0039  1.3434  0.3748
  495SOL    HW2 1485   2.949   2.669   0.629 -2.9174  0.5550 -0.0099
  496SOL     OW 1486   2.678   0.146   1.670 -0.1542 -0.6660  0.7141
  496SOL    HW1 1487   2.665   0.081   1.596  1.3332  2.6557  1.8157
  496SOL    HW2 1488   2.633   0.117   1.754 -0.1983  0.8799 -3.2636
  497SOL     OW 1489   2.301   1.384   2.566 -0.6396  0.0291 -0.0946
  497SOL    HW1 1490   2.282   1.335   2.655  0.2615  0.7186 -2.7117
  497SOL    HW2 1491   2.239   1.353   2.493 -0.9030  0.8375 -0.5098
  498SOL     OW 1492   0.498   2.095   0.990 -0.4964 -0.2100  0.0660
  498SOL    HW1 1493   0.454   2.078   0.897  0.1062 -0.2770 -1.1489
  498SOL    HW2 1494   0.476   2.021   1.053  1.4466  1.9569  0.3401
  499SOL     OW 1495   0.748   2.214   1.713  0.1212 -0.1329  0.3701
  499SOL    HW1 1496   0.736   2.307   1.757 -1.0137 -0.2351  1.6600
  499SOL    HW2 1497   0.759   2.228   1.613 -0.9524 -0.0614 -0.9079
  500SOL     OW 1498   1.160   2.106   0.266  0.2547  0.3855 -0.0226
  500SOL    HW1 1499   1.077   2.064   0.307 -1.5625 -0.3108  1.0405
  500SOL    HW2 1500   1.193   2.043   0.196 -0.6340  3.7287 -0.7745
  501SOL     OW 1501   2.440   2.968   1.343  0.1178  0.1034 -0.6218
  501SOL    HW1 1502   2.360   3.015   1.395  0.0802 -2.1500  2.3801
  501SOL    HW2 1503   2.420   2.943   1.244 -2.1466  1.4783 -0.1626
  502SOL     OW 1504   2.945   0.239   1.686 -0.2693 -0.0185  0.6386
  502SOL    HW1 1505   3.004   0.206   1.761 -1.8184  1.7848 -0.9607
  502SOL    HW2 1506   2.856   0.184   1.672 -2.6180 -1.7770 -1.1687
  503SOL     OW 1507   2.734   0.965   1.882  0.0484  0.0966 -0.4017
  503SOL    HW1 1508   2.768   0.959   1.978 -2.3242 -5.0561 -1.0689
  503SOL    HW2 1509   2.708   1.059   1.853  0.1363  1.3544  0.8232
  504SOL     OW 1510   1.432   0.752   1.775  0.4570 -0.3741 -0.0836
  504SOL    HW1 1511   1.505   0.755   1.702  1.4817 -1.9959 -0.9997
  504SOL    HW2 1512   1.384   0.841   1.782  2.3877 -0.9209  0.2559
  505SOL     OW 1513   0.848   0.116   1.962 -0.0245 -0.3430  0.1846
  505SOL    HW1 1514   0.859   0.016   1.977  0.9152 -1.1081 -1.6643
  505SOL    HW2 1515   0.799   0.161   2.036  1.6828 -3.1479  0.8929
  506SOL     OW 1516   0.181   0.397   0.858  0.5421  0.3174  0.0545
  506SOL    HW1 1517   0.142   0.413   0.763  0.1516  1.6232 -2.2133
  506SOL    HW2 1518   0.173   0.301   0.888 -1.5730  0.7466  0.2141
  507SOL     OW 1519   2.134   0.455   0.143  0.3849  0.3684 -0.0345
  507SOL    HW1 1520   2.195   0.475   0.222 -0.9432 -0.3693  1.2539
  507SOL    HW2 1521   2.041   0.428   0.170 -2.3165  2.1923 -1.6541
  508SOL     OW 1522   1.829   0.267   2.301 -0.0480  0.3852  0.1325
  508SOL    HW1 1523   1.846   0.366   2.285 -0.9955 -0.7662 -2.1597
  508SOL    HW2 1524   1.899   0.229   2.363 -1.5960 -1.8294  0.6789
  509SOL     OW 1525   0.873   1.313   1.971  0.1736 -0.2229  0.0183
  509SOL    HW1 1526   0.864   1.391   2.040  0.0242 -0.0815  0.3862
  509SOL    HW2 1527   0.853   1.223   2.017  1.1027  2.0068  0.4953
  510SOL     OW 1528   2.884   1.155   0.914  0.3930 -0.0495 -0.4234
  510SOL    HW1 1529   2.855   1.062   0.945 -3.1025  1.1966  1.5570
  510SOL    HW2 1530   2.984   1.174   0.915  0.2843  2.0243  0.2471
  511SOL     OW 1531   1.827   2.137   1.304 -0.0311 -0.0374  0.4237
  511SOL    HW1 1532   1.853   2.217   1.254 -0.2224 -1.5809  0.6679
  511SOL    HW2 1533   1.724   2.136   1.315 -0.7801 -0.3903 -0.9003
  512SOL     OW 1534   0.093   1.695   0.428 -0.1358 -0.1826 -0.7363
  512SOL    HW1 1535   0.089   1.598   0.402  1.6102  2.3587  2.4590
  512SOL    HW2 1536   0.183   1.729   0.439 -3.7106 -1.2754 -0.8513
  513SOL     OW 1537   3.084   2.298   0.336  0.3484  0.0682 -0.0525
  513SOL    HW1 1538   3.097   2.211   0.283 -0.7950  0.2968  1.3477
  513SOL    HW2 1539   2.987   2.317   0.343  0.2762  0.7274  0.6235
  514SOL     OW 1540   2.478   1.970   2.674  0.2721  0.1728 -0.0877
  514SOL    HW1 1541   2.385   1.997   2.640 -2.2132  0.7601  0.8935
  514SOL    HW2 1542   2.507   2.039   2.744 -0.9507  0.9738  1.6242
  515SOL     OW 1543   2.110   1.415   0.455 -0.1632  0.4542  0.3721
  515SOL    HW1 1544   2.195   1.415   0.403 -0.4798  1.2026  0.0994
  515SOL    HW2 1545   2.129   1.436   0.551  1.4120 -0.4743 -3.9715
  516SOL     OW 1546   1.942   3.149   0.488 -0.1281 -0.5467 -0.0642
  516SOL    HW1 1547   1.894   0.093   0.488 -0.3383  1.0535  1.1616
  516SOL    HW2 1548   2.044   0.004   0.498  1.2821 -0.3641  2.3343
  517SOL     OW 1549   0.844   2.163   3.050 -0.5746 -0.3975 -0.0627
  517SOL    HW1 1550   0.857   2.216   3.137  1.5045  0.9195 -0.2376
  517SOL    HW2 1551   0.833   2.231   2.971 -0.8944  1.6583  0.0030
  518SOL     OW 1552   0.525   0.480   2.012 -0.7688 -0.1815  0.1044
  518SOL    HW1 1553   0.619   0.483   1.980  0.0805  0.7718  3.1193
  518SOL    HW2 1554   0.517   0.549   2.091 -0.7392 -0.0643  1.3023
  519SOL     OW 1555   3.064   1.029   0.169  0.7060  0.4228 -0.1191
  519SOL    HW1 1556   3.092   1.040   0.073  0.7861 -1.1354  1.6819
  519SOL    HW2 1557   3.138   0.980   0.213 -2.2594 -0.5080 -2.5708
  520SOL     OW 1558   2.670   1.782   1.694 -0.5466  0.0433 -0.0972
  520SOL    HW1 1559   2.696   1.814   1.790 -0.6043  2.9913  2.3301
  520SOL    HW2 1560   2.604   1.848   1.650  0.6781  1.1800  1.6679
  521SOL     OW 1561   0.400   2.649   2.280 -0.1020 -0.0436 -0.2788
  521SOL    HW1 1562   0.484   2.601   2.251 -0.1806  2.3889 -0.3108
  521SOL    HW2 1563   0.317   2.588   2.287 -0.0468  0.8465  0.6775
  522SOL     OW 1564   1.915   0.062   2.068 -0.1222  0.4543 -0.1222
  522SOL    HW1 1565   2.012   0.042   2.049  0.5267  0.9281 -1.0313
  522SOL    HW2 1566   1.898   0.117   2.152 -0.8808  0.9764  0.4915
  523SOL     OW 1567   1.879   1.892   1.386  0.0133 -0.2962 -0.0848
  523SOL    HW1 1568   1.956   1.863   1.441 -2.8553  0.9819 -1.1510
  523SOL    HW2 1569   1.873   1.992   1.370  2.4974 -1.4834 -1.2575
  524SOL     OW 1570   0.895   2.919   0.112 -0.6531  0.3962 -0.1594
  524SOL    HW1 1571   0.816   2.960   0.161 -0.6653 -2.1284  1.7612
  524SOL    HW2 1572   0.971   2.898   0.178 -0.4681 -0.7331  0.8493
  525SOL     OW 1573   2.959   0.347   0.224  0.3993  0.0847  0.3649
  525SOL    HW1 1574   2.898   0.424   0.197  0.0599 -0.3455  2.6451
  525SOL    HW2 1575   3.041   0.391   0.264 -0.3130  2.3131  0.3783
  526SOL     OW 1576   0.738   2.824   0.650 -0.6117  0.1976 -0.2721
  526SOL    HW1 1577   0.803   2.761   0.700  1.8569  0.1732  0.2936
  526SOL    HW2 1578   0.637   2.799   0.664 -0.2846 -0.4388  0.5918
  527SOL     OW 1579   2.588   1.916   1.051 -0.6216  0.8405 -0.3719
  527SOL    HW1 1580   2.667   1.888   1.107  0.8637  1.6319  2.3370
  527SOL    HW2 1581   2.609   2.016   1.027 -3.3402  2.0567 -1.9264
  528SOL     OW 1582   2.918   0.466   2.372  0.1985  0.5631  0.4648
  528SOL    HW1 1583   3.011   0.424   2.373 -0.8509 -3.1434  2.7380
  528SOL    HW2 1584   2.854   0.394   2.341 -3.0606 -0.0815  0.3059
  529SOL     OW 1585   1.289   1.593   2.655  0.4461  0.2638 -0.2793
  529SOL    HW1 1586   1.374   1.544   2.680 -2.2299  0.6985 -0.4624
  529SOL    HW2 1587   1.273   1.659   2.737  1.2143 -1.2167  1.3165
  530SOL     OW 1588   1.957   1.140   2.748 -0.0109  0.4399 -0.1695
  530SOL    HW1 1589   1.917   1.114   2.657 -0.8091  4.7892  2.6402
  530SOL    HW2 1590   2.032   1.077   2.782  1.2463 -1.7317  0.4599
  531SOL     OW 1591   0.945   2.018   2.756  0.3672  0.3083  0.2210
  531SOL    HW1 1592   0.915   1.994   2.852  1.1777  0.3329  0.8750
  531SOL    HW2 1593   0.871   2.066   2.710 -0.3137 -1.6217 -0.5690
  532SOL     OW 1594   1.930   1.597   0.597 -0.3393 -0.0963  0.2509
  532SOL    HW1 1595   1.979   1.551   0.520  2.4010 -0.1576 -0.6730
  532SOL    HW2 1596   1.953   1.698   0.596 -1.4864 -3.1994  1.9881
  533SOL     OW 1597   0.306   0.139   1.952  0.0974 -0.6792 -0.0163
  533SOL    HW1 1598   0.356   0.105   1.870  0.0757 -0.9024 -0.2908
  533SOL    HW2 1599   0.245   0.062   1.973 -1.5619 -0.0223 -3.3041
  534SOL     OW 1600   0.780   2.863   2.858  0.4692  0.1009  0.6824
  534SOL    HW1 1601   0.717   2.827   2.930  2.3471 -3.0509 -2.8343
  534SOL    HW2 1602   0.874   2.874   2.897  0.9909 -1.5794 -5.9492
  535SOL     OW 1603   0.324   0.109   0.463  0.0901 -0.2549  0.2355
  535SOL    HW1 1604   0.425   0.101   0.455 -0.6322 -0.4210  0.1668
  535SOL    HW2 1605   0.289   0.044   0.529  0.9181  0.4279 -1.8669
  536SOL     OW 1606   0.220   1.357   1.776 -0.0199 -0.0599  0.0265
  536SOL    HW1 1607   0.200   1.267   1.732  0.4677  2.5746 -1.3852
  536SOL    HW2 1608   0.284   1.412   1.719 -0.0751 -1.3293 -0.2975
  537SOL     OW 1609   1.047   2.772   1.522 -0.2585  0.2992 -0.6022
  537SOL    HW1 1610   1.012   2.796   1.430  1.1238 -0.2472  0.4935
  537SOL    HW2 1611   1.148   2.779   1.531 -0.5890 -1.1813 -1.9932
  538SOL     OW 1612   3.077   1.902   0.406 -0.2290 -0.5972  0.2782
  538SOL    HW1 1613   0.002   1.837   0.407 -3.8375  0.3160  0.3766
  538SOL    HW2 1614   3.064   1.952   0.493 -1.1056  0.0474 -1.8476
  539SOL     OW 1615   2.954   1.082   2.620 -0.3136 -0.0092 -0.4376
  539SOL    HW1 1616   2.945   1.012   2.696  0.5698 -0.9882  1.3255
  539SOL    HW2 1617   2.860   1.092   2.585  2.7751 -0.9516 -1.3030
  540SOL     OW 1618   1.634   0.985   1.952  0.2882 -0.2822  0.0777
  540SOL    HW1 1619   1.713   0.947   1.900  1.0871 -0.2558 -1.2954
  540SOL    HW2 1620   1.552   1.001   1.890 -2.6070  0.9699 -0.1966
  541SOL     OW 1621   0.947   0.912   1.845 -0.1588 -0.2484  0.4557
  541SOL    HW1 1622   0.862   0.863   1.863  1.4203  2.7782  1.7541
  541SOL    HW2 1623   0.970   0.963   1.930  1.3005  1.1551 -2.4609
  542SOL     OW 1624   2.410   0.385   2.953 -0.1923  0.5012  0.0358
  542SOL    HW1 1625   2.470   0.304   2.937 -0.3140 -0.0959 -1.1681
  542SOL    HW2 1626   2.336   0.386   2.881 -4.5170 -0.3854 -3.4912
  543SOL     OW 1627   1.045   0.077   3.065 -0.4282  0.4575 -0.3018
  543SOL    HW1 1628   0.996   0.133   3.137  0.8413 -2.2475 -1.3110
  543SOL    HW2 1629   1.148   0.081   3.073  0.5546  0.0599 -2.7729
  544SOL     OW 1630   2.977   1.337   1.999  0.6793  1.0184  0.2213
  544SOL    HW1 1631   3.016   1.357   2.088 -1.1042 -1.7600 -1.1855
  544SOL    HW2 1632   2.881   1.302   1.997 -1.5129 -2.5095 -1.0376
  545SOL     OW 1633   1.944   2.392   1.809 -0.3982 -0.0397 -0.3305
  545SOL    HW1 1634   1.860   2.361   1.861 -1.4076 -0.9558  0.4648
  545SOL    HW2 1635   1.951   2.347   1.720 -0.1040  1.4484  0.8799
  546SOL     OW 1636   0.144   0.020   2.706  0.2403  0.2547 -0.5824
  546SOL    HW1 1637   0.095   3.083   2.682 -1.4006 -1.5256 -1.0587
  546SOL    HW2 1638   0.202   0.012   2.789  0.1772  0.9957 -2.1330
  547SOL     OW 1639   1.738   1.083   0.923  0.0058  0.8897  0.1095
  547SOL    HW1 1640   1.668   1.154   0.903 -1.6895  3.3907  2.1904
  547SOL    HW2 1641   1.703   0.983   0.933 -1.8924 -3.3280 -0.4737
  548SOL     OW 1642   1.822   1.706   2.292 -0.3340  0.0625  0.0867
  548SOL    HW1 1643   1.750   1.730   2.224  0.2093 -0.0203  0.6880
  548SOL    HW2 1644   1.889   1.781   2.300  0.0260 -0.9802  0.2081
  549SOL     OW 1645   2.039   0.439   0.647 -0.1623 -0.2969 -0.1120
  549SOL    HW1 1646   1.994   0.515   0.596  1.4258  0.2691 -0.3453
  549SOL    HW2 1647   2.052   0.456   0.744  0.7125 -0.9041 -2.2551
  550SOL     OW 1648   2.217   1.848   0.760  0.3871 -0.6870  0.3138
  550SOL    HW1 1649   2.275   1.849   0.676  2.8882 -0.4881 -1.3931
  550SOL    HW2 1650   2.115   1.853   0.741  1.3862 -0.5921  2.3071
  551SOL     OW 1651   0.817   2.672   1.661 -0.4392  0.6145 -0.2452
  551SOL    HW1 1652   0.909   2.661   1.620 -0.5280  0.0881  1.5680
  551SOL    HW2 1653   0.797   2.774   1.687 -0.1754  2.1084 -1.5683
  552SOL     OW 1654   0.032   2.256   2.605 -0.0770  0.1389 -0.3377
  552SOL    HW1 1655   0.003   2.158   2.615  2.3272  0.8071 -0.9899
  552SOL    HW2 1656   0.053   2.274   2.507  1.0892 -1.1285  2.0409
  553SOL     OW 1657   0.261   0.137   0.951 -0.0750 -0.3679 -0.6111
  553SOL    HW1 1658   0.354   0.140   0.911 -0.0403 -1.1530 -0.5936
  553SOL    HW2 1659   0.262   0.136   1.053 -0.4038 -0.5712  1.4483
  554SOL     OW 1660   2.436   2.141   1.750 -0.5322 -0.3760 -0.1013
  554SOL    HW1 1661   2.524   2.150   1.803 -2.1552 -1.8150  0.7015
  554SOL    HW2 1662   2.413   2.213   1.681  0.5350  3.3499  0.7316
  555SOL     OW 1663   1.219   2.080   1.932  0.3754 -0.0578 -0.7000
  555SOL    HW1 1664   1.272   2.036   1.861 -2.3539 -1.4284  3.0635
  555SOL    HW2 1665   1.132   2.117   1.891  0.6481  0.9901 -0.3536
  556SOL     OW 1666   1.185   1.747   1.705 -0.0425  0.7492 -0.0738
  556SOL    HW1 1667   1.244   1.832   1.697 -1.4029 -0.8407 -0.8738
  556SOL    HW2 1668   1.240   1.673   1.749  0.8239  0.3009 -2.6357
  557SOL     OW 1669   1.837   2.288   2.403 -0.4882  0.3369  0.3384
  557SOL    HW1 1670   1.929   2.299   2.362  0.8557  1.6408  1.0581
  557SOL    HW2 1671   1.809   2.191   2.384  1.2532  0.7930 -1.1923
  558SOL     OW 1672   0.729   2.921   1.690 -0.0726  0.0482  0.1734
  558SOL    HW1 1673   0.648   2.926   1.747  0.7648 -1.1529 -0.1704
  558SOL    HW2 1674   0.761   3.017   1.678  0.3966  0.1812 -1.8555
  559SOL     OW 1675   2.389   2.814   0.942  0.2402  0.3132  0.6019
  559SOL    HW1 1676   2.420   2.873   0.862 -0.6476  0.8142 -2.9797
  559SOL    HW2 1677   2.289   2.799   0.932 -1.0839  2.3754  1.9042
  560SOL     OW 1678   1.862   2.356   0.578 -0.2740  0.1332 -0.1276
  560SOL    HW1 1679   1.881   2.393   0.672  0.6481 -2.5268  0.1890
  560SOL    HW2 1680   1.939   2.295   0.554  1.4631  2.1378  1.3552
  561SOL     OW 1681   0.895   0.265   0.422 -0.1361 -0.7928  0.1959
  561SOL    HW1 1682   0.984   0.311   0.399 -1.1023 -1.3041  0.6140
  561SOL    HW2 1683   0.853   0.327   0.493 -1.7045  3.1876  2.3323
  562SOL     OW 1684   0.681   0.539   2.493  0.0047 -0.1357 -0.6639
  562SOL    HW1 1685   0.670   0.440   2.465 -0.6425  2.4586 -1.6889
  562SOL    HW2 1686   0.754   0.589   2.445  1.9212  0.0408 -1.1836
  563SOL     OW 1687   1.795   1.698   3.039  0.1384 -0.2759 -0.6415
  563SOL    HW1 1688   1.792   1.803   3.055  1.9385  2.9243  0.1452
  563SOL    HW2 1689   1.818   1.655   3.128  1.6667  0.0228  0.5323
  564SOL     OW 1690   2.435   1.136   1.366 -0.5546 -0.1345  0.6061
  564SOL    HW1 1691   2.426   1.223   1.423 -1.1375  0.0828  1.5213
  564SOL    HW2 1692   2.532   1.104   1.353  1.0681 -0.9690 -0.0482
  565SOL     OW 1693   1.001   0.670   2.821  0.4456 -0.5735 -0.2323
  565SOL    HW1 1694   0.948   0.753   2.782 -0.6418 -1.3344 -1.2716
  565SOL    HW2 1695   0.948   0.622   2.894 -3.0862  0.7293  1.8388
  566SOL     OW 1696   2.033   0.343   2.635 -0.5728 -0.0217  0.3201
  566SOL    HW1 1697   2.034   0.299   2.544  0.7876 -1.2118 -0.7573
  566SOL    HW2 1698   2.004   0.272   2.701  3.8056  0.3237 -4.4347
  567SOL     OW 1699   2.194   1.899   0.389  0.2989 -0.2528  0.4616
  567SOL    HW1 1700   2.268   1.858   0.448 -3.1048 -0.7749  0.0581
  567SOL    HW2 1701   2.144   1.839   0.325  2.4137  0.7478 -0.0408
  568SOL     OW 1702   1.726   1.933   0.243 -0.3297  0.3488 -0.0917
  568SOL    HW1 1703   1.815   1.958   0.202 -0.1815  0.0383  4.5864
  568SOL    HW2 1704   1.645   1.964   0.192  1.7680  2.6971 -0.8695
  569SOL     OW 1705   2.193   1.039   3.127 -0.1034  0.2784  0.2507
  569SOL    HW1 1706   2.160   1.112   0.037  0.1304 -0.5228 -1.1808
  569SOL    HW2 1707   2.291   1.057   3.098  0.0058  0.6564 -1.9720
  570SOL     OW 1708   0.384   2.698   1.699  0.1083  0.2910  0.5806
  570SOL    HW1 1709   0.426   2.773   1.755 -0.5376 -0.9926  1.0714
  570SOL    HW2 1710   0.453   2.659   1.634  0.4363 -2.2692  0.5330
  571SOL     OW 1711   0.500   0.893   2.034  0.1566  0.1323  0.3414
  571SOL    HW1 1712   0.492   0.987   2.065  3.3433 -1.6722 -0.6777
  571SOL    HW2 1713   0.504   0.830   2.109  0.5559  1.5900 -1.4916
  572SOL     OW 1714   0.859   1.644   0.553 -0.5118  0.5541  0.4495
  572SOL    HW1 1715   0.833   1.550   0.512  0.4502  1.3938 -0.7328
  572SOL    HW2 1716   0.944   1.677   0.507 -2.6200 -1.0784 -1.5037
  573SOL     OW 1717   1.653   2.168   3.094 -0.0306 -0.3808 -0.2910
  573SOL    HW1 1718   1.556   2.173   3.117 -0.2521  1.0611 -1.8215
  573SOL    HW2 1719   1.712   2.195   0.031  0.6598  1.0156  1.2726
  574SOL     OW 1720   0.999   0.372   1.011 -0.2698 -0.0011  0.3417
  574SOL    HW1 1721   0.921   0.403   1.068 -0.7656  1.6506 -0.0144
  574SOL    HW2 1722   0.968   0.301   0.943  3.0216  2.1324  1.3312
  575SOL     OW 1723   0.196   1.046   1.440  0.4790 -0.1977 -0.5750
  575SOL    HW1 1724   0.187   1.033   1.543  0.4106  0.6857  4.1050
  575SOL    HW2 1725   0.290   1.068   1.411 -0.9818 -1.3857 -0.2017
  576SOL     OW 1726   2.096   2.867   1.374  0.2686 -0.5891  0.0378
  576SOL    HW1 1727   2.138   2.954   1.415  1.2463  1.9770 -0.4600
  576SOL    HW2 1728   2.036   2.896   1.296  2.5012  1.1821 -0.1169
  577SOL     OW 1729   1.036   1.023   2.085 -0.2179 -0.1574 -0.3629
  577SOL    HW1 1730   1.112   1.088   2.081 -2.1017  2.4269  0.3996
  577SOL    HW2 1731   1.049   0.962   2.163 -1.6515  3.6608 -1.7900
  578SOL     OW 1732   1.857   0.766   2.657  0.1976  0.5407  0.0983
  578SOL    HW1 1733   1.843   0.724   2.568  1.1032  3.4958  0.9808
  578SOL    HW2 1734   1.794   0.841   2.674  2.7456 -3.2957 -1.4449
  579SOL     OW 1735   2.068   2.684   1.578  0.0671  0.2590  0.0415
  579SOL    HW1 1736   2.079   2.588   1.551  1.1775  2.3918  2.7837
  579SOL    HW2 1737   2.075   2.740   1.494 -1.1128  0.7140  1.2967
  580SOL     OW 1738   1.984   1.544   2.440 -0.5609 -0.4243 -0.0050
  580SOL    HW1 1739   2.071   1.596   2.462  0.6089  0.4873  0.3633
  580SOL    HW2 1740   1.929   1.596   2.371  0.6349 -0.9170 -2.6503
  581SOL     OW 1741   1.486   1.409   2.706 -0.0325 -0.0641  0.0113
  581SOL    HW1 1742   1.558   1.453   2.758 -0.0410  0.9096 -0.7566
  581SOL    HW2 1743   1.448   1.337   2.765 -0.4188  2.6430  0.5986
  582SOL     OW 1744   0.896   1.662   1.870  0.0793 -0.0193  0.4437
  582SOL    HW1 1745   0.986   1.647   1.913 -0.0696 -0.4028  0.4155
  582SOL    HW2 1746   0.902   1.731   1.791  0.1249  0.3075 -0.3398
  583SOL     OW 1747   1.873   1.124   1.684  0.4310  0.3097  0.4896
  583SOL    HW1 1748   1.799   1.082   1.636 -2.2989  2.2060  0.3992
  583SOL    HW2 1749   1.844   1.192   1.755 -0.9783  1.8072 -0.1457
  584SOL     OW 1750   2.137   2.639   0.472 -0.1434  0.1381 -0.5958
  584SOL    HW1 1751   2.068   2.688   0.413 -0.9811  2.4532  0.2046
  584SOL    HW2 1752   2.179   2.560   0.428 -0.5791 -2.2819 -0.5503
  585SOL     OW 1753   2.062   3.147   2.716  0.3657 -0.0417  0.2798
  585SOL    HW1 1754   2.041   3.078   2.644 -1.0290  0.3190 -0.5338
  585SOL    HW2 1755   1.995   3.139   2.793 -0.1792 -1.9894  0.8731
  586SOL     OW 1756   2.808   2.428   1.302 -0.4330 -0.1181  0.5148
  586SOL    HW1 1757   2.726   2.404   1.363  0.6858 -0.5805 -3.3409
  586SOL    HW2 1758   2.843   2.345   1.251 -0.7902 -0.0236 -1.4255
  587SOL     OW 1759   1.461   2.009   0.180  0.2510 -0.4027 -0.4127
  587SOL    HW1 1760   1.451   2.098   0.135 -0.0645 -1.7032  1.1103
  587SOL    HW2 1761   1.396   1.948   0.135 -0.2113 -0.0547 -2.7435
  588SOL     OW 1762   0.387   0.507   1.037  0.1685  0.5296  0.1870
  588SOL    HW1 1763   0.450   0.426   1.050  2.3672 -1.0865  0.5222
  588SOL    HW2 1764   0.310   0.485   0.972 -0.0381 -0.3323 -0.0975
  589SOL     OW 1765   1.113   0.370   0.316  0.2967 -0.3446  0.3101
  589SOL    HW1 1766   1.073   0.466   0.308 -0.5761  0.2637  0.3929
  589SOL    HW2 1767   1.126   0.323   0.225 -2.3266 -0.0419 -0.6160
  590SOL     OW 1768   1.567   0.542   2.902 -0.1504  0.4602 -0.4604
  590SOL    HW1 1769   1.511   0.603   2.839 -1.7090  2.9901 -1.2644
  590SOL    HW2 1770   1.663   0.521   2.877 -0.5104 -1.0595  0.8893
  591SOL     OW 1771   2.926   2.057   2.286  0.3285 -0.2000 -0.2844
  591SOL    HW1 1772   2.888   2.124   2.351 -0.9229 -3.1940  0.1741
  591SOL    HW2 1773   2.975   2.098   2.207 -1.7140 -2.8275 -0.4505
  592SOL     OW 1774   2.146   1.675   2.186 -0.4543  0.4893 -0.2080
  592SOL    HW1 1775   2.128   1.587   2.139  0.8822 -1.5303  0.4029
  592SOL    HW2 1776   2.236   1.719   2.161 -0.6858 -0.4070  0.4577
  593SOL     OW 1777   1.380   1.205   1.542 -0.2879  1.3072 -0.8487
  593SOL    HW1 1778   1.474   1.181   1.582  1.0375 -1.1001  0.2047
  593SOL    HW2 1779   1.341   1.121   1.494 -0.3827  0.6274  1.2921
  594SOL     OW 1780   2.756   1.164   2.929 -0.2402 -0.2481 -0.0009
  594SOL    HW1 1781   2.797   1.253   2.926 -0.5268  1.1282  0.8532
  594SOL    HW2 1782   2.826   1.092   2.913 -1.4404  1.5520  1.8442
  595SOL     OW 1783   0.458   0.647   0.596  0.0959  0.1605 -0.0315
  595SOL    HW1 1784   0.418   0.742   0.591 -1.3273  0.4838 -1.8095
  595SOL    HW2 1785   0.500   0.635   0.691  1.0454  1.7898  3.0786
  596SOL     OW 1786   3.117   1.203   1.383 -0.3426 -0.0457  0.4566
  596SOL    HW1 1787   3.041   1.204   1.449 -1.3111  0.8365 -0.1793
  596SOL    HW2 1788   0.052   1.143   1.398  3.3541 -0.6485  2.0783
  597SOL     OW 1789   1.257   1.958   1.130 -0.1017 -0.1503 -0.3021
  597SOL    HW1 1790   1.209   1.869   1.126  0.2406  0.7398  1.5509
  597SOL    HW2 1791   1.200   2.027   1.175 -0.8127  0.0885 -0.1255
  598SOL     OW 1792   0.455   0.029   1.737  0.5101  0.0722 -0.3764
  598SOL    HW1 1793   0.548   0.050   1.723 -1.2848 -2.7598 -0.5229
  598SOL    HW2 1794   0.406   3.142   1.651 -1.6785 -2.4024 -0.9237
  599SOL     OW 1795   0.380   1.766   2.925  0.6128 -0.5214  0.1032
  599SOL    HW1 1796   0.369   1.681   2.870  1.2973 -0.2866 -0.2178
  599SOL    HW2 1797   0.425   1.837   2.872 -0.0640 -1.7903  0.4599
  600SOL     OW 1798   0.473   1.055   3.090  0.4201 -0.4505 -0.1082
  600SOL    HW1 1799   0.435   1.100   3.002  1.1353  2.8276 -1.3902
  600SOL    HW2 1800   0.436   0.959   3.087 -1.9002 -0.6669  0.6706
  601SOL     OW 1801   0.517   0.941   1.181  0.2749  0.4312  0.0969
  601SOL    HW1 1802   0.605   0.927   1.131  0.9774  0.3484 -1.6937
  601SOL    HW2 1803   0.459   0.858   1.176 -3.2175  1.0532 -0.9539
  602SOL     OW 1804   0.997   0.046   0.327 -0.2167 -0.2931 -0.3365
  602SOL    HW1 1805   0.956   0.136   0.356  0.1522 -2.0382  0.3397
  602SOL    HW2 1806   0.931   3.122   0.351  0.0180 -2.4075 -1.3147
  603SOL     OW 1807   1.441   2.417   2.309  0.3234  0.3752 -0.3100
  603SOL    HW1 1808   1.541   2.421   2.293 -3.4703  1.8040  1.8355
  603SOL    HW2 1809   1.405   2.455   2.394 -0.4601  3.7487  0.6732
  604SOL     OW 1810   0.471   2.961   2.730  0.0680 -0.5887 -0.1011
  604SOL    HW1 1811   0.474   2.872   2.693  0.8162  2.2917  1.2214
  604SOL    HW2 1812   0.528   3.016   2.666  2.2541 -0.7221  0.6595
  605SOL     OW 1813   2.427   1.325   1.561 -0.5437 -0.0201  0.6523
  605SOL    HW1 1814   2.509   1.373   1.588 -0.9290  1.0411 -2.1869
  605SOL    HW2 1815   2.372   1.290   1.637  0.1115  3.4198 -4.7971
  606SOL     OW 1816   1.034   1.538   2.934 -0.2104  0.3490 -0.5318
  606SOL    HW1 1817   1.063   1.444   2.951 -1.9818  0.5090 -0.6140
  606SOL    HW2 1818   0.941   1.527   2.894 -0.2188 -0.6912 -0.0920
  607SOL     OW 1819   0.748   0.505   0.477  0.4038  0.0463  0.2433
  607SOL    HW1 1820   0.648   0.493   0.459 -3.4154 -1.0861 -2.3244
  607SOL    HW2 1821   0.772   0.506   0.577  0.9514 -1.9430 -0.4750
  608SOL     OW 1822   2.852   1.629   1.538 -0.0191 -0.1542 -0.6101
  608SOL    HW1 1823   2.802   1.692   1.603 -2.4764  2.6717  0.8325
  608SOL    HW2 1824   2.782   1.606   1.465  0.7980 -1.2197  3.7452
  609SOL     OW 1825   2.428   0.536   0.859  0.4535  0.3028  0.0154
  609SOL    HW1 1826   2.461   0.476   0.934  0.1690 -0.5796  0.4674
  609SOL    HW2 1827   2.471   0.628   0.860 -0.0288 -1.1816 -2.0082
  610SOL     OW 1828   0.262   2.574   1.428  0.6491  0.0765 -0.4926
  610SOL    HW1 1829   0.269   2.602   1.523  3.0070 -1.0259 -2.6611
  610SOL    HW2 1830   0.356   2.539   1.398  1.0986 -0.9336  0.8749
  611SOL     OW 1831   1.446   1.739   0.328  0.1834  0.3161 -0.0150
  611SOL    HW1 1832   1.493   1.706   0.411  1.6252 -0.1287 -0.3489
  611SOL    HW2 1833   1.448   1.840   0.310 -2.4689  1.7653 -0.1794
  612SOL     OW 1834   0.774   0.034   1.689  0.0854  0.6206 -0.1349
  612SOL    HW1 1835   0.801   0.064   1.785  0.6920  1.8030  0.5891
  612SOL    HW2 1836   0.772   0.117   1.634 -0.7167 -2.7926  2.3887
  613SOL     OW 1837   0.585   2.500   0.571 -0.0665 -0.1606 -0.2985
  613SOL    HW1 1838   0.588   2.566   0.498  0.8544 -1.0647 -2.1297
  613SOL    HW2 1839   0.507   2.434   0.571 -1.7354  0.5921  0.9485
  614SOL     OW 1840   2.175   3.133   2.090 -0.5897 -0.2856 -0.2399
  614SOL    HW1 1841   2.216   0.061   2.142 -1.3335  0.5273  0.6292
  614SOL    HW2 1842   2.243   3.075   2.036 -0.6706 -0.5519  0.4879
  615SOL     OW 1843   1.088   1.728   0.456  0.2475  0.1500 -0.0257
  615SOL    HW1 1844   1.101   1.663   0.377  2.5892 -1.2336  0.2461
  615SOL    HW2 1845   1.171   1.756   0.503 -1.2939 -0.9412  0.2200
  616SOL     OW 1846   1.547   1.732   0.600 -0.2408  0.2260  0.2115
  616SOL    HW1 1847   1.594   1.646   0.626 -3.1002  0.6204 -3.4143
  616SOL    HW2 1848   1.543   1.802   0.673 -0.2893 -2.2320  0.8900
  617SOL     OW 1849   1.386   1.251   2.894 -0.0402 -0.6140  0.0619
  617SOL    HW1 1850   1.448   1.180   2.936  0.2846 -0.4831 -1.5749
  617SOL    HW2 1851   1.302   1.270   2.951 -1.6957 -0.5075  2.5862
  618SOL     OW 1852   0.824   0.446   1.953 -0.0422 -0.0702 -0.0398
  618SOL    HW1 1853   0.880   0.521   1.995 -0.6222 -0.1918  0.0158
  618SOL    HW2 1854   0.823   0.370   2.020 -1.0643 -1.1043 -2.4498
  619SOL     OW 1855   3.044   1.434   1.624  0.2152  0.3004  0.7200
  619SOL    HW1 1856   2.972   1.503   1.624 -0.2527 -1.1811 -0.4750
  619SOL    HW2 1857   3.101   1.447   1.542 -0.9483  0.0096  0.2195
  620SOL     OW 1858   2.682   0.159   2.597  0.1338  0.1632 -0.1850
  620SOL    HW1 1859   2.731   0.247   2.622  3.1325  2.3661 -0.1719
  620SOL    HW2 1860   2.741   0.104   2.528  0.6186  2.5576 -3.1760
  621SOL     OW 1861   2.115   2.048   3.019  0.1370 -0.4088  0.3740
  621SOL    HW1 1862   2.154   2.140   3.011 -2.4276 -3.9802 -2.0500
  621SOL    HW2 1863   2.051   2.030   2.941  0.6059 -1.8295  0.3135
  622SOL     OW 1864   1.217   0.873   2.906  0.0954 -0.1623  0.1881
  622SOL    HW1 1865   1.136   0.813   2.892  1.1190  0.9502 -1.3614
  622SOL    HW2 1866   1.233   0.892   3.004  0.4569 -0.8571  0.3379
  623SOL     OW 1867   0.771   1.099   2.112  0.7494  0.0026 -0.4560
  623SOL    HW1 1868   0.849   1.041   2.108 -3.2353 -2.2014  0.6191
  623SOL    HW2 1869   0.738   1.080   2.207 -0.9202 -0.0870 -0.4324
  624SOL     OW 1870   2.852   0.188   0.409 -0.0638 -0.3599  0.1875
  624SOL    HW1 1871   2.908   0.249   0.348 -0.1033  1.6507 -0.4893
  624SOL    HW2 1872   2.872   0.193   0.509 -2.7979 -0.0238  3.4005
  625SOL     OW 1873   1.001   2.513   0.491  0.1184 -0.6353  0.2814
  625SOL    HW1 1874   0.945   2.555   0.417  2.3529 -2.3936  3.4257
  625SOL    HW2 1875   0.941   2.474   0.561  3.7005  4.4973  1.4893
  626SOL     OW 1876   2.423   0.951   2.605 -0.1344  0.3210  0.3326
  626SOL    HW1 1877   2.410   0.892   2.683  2.0737  1.2778 -1.1010
  626SOL    HW2 1878   2.469   1.042   2.637 -0.0501  0.7484 -0.5587
  627SOL     OW 1879   1.320   2.119   2.769 -0.0832 -0.2357  0.0295
  627SOL    HW1 1880   1.345   2.107   2.668  2.1672  0.7133 -0.5167
  627SOL    HW2 1881   1.392   2.079   2.827  2.3123 -4.1285  0.6309
  628SOL     OW 1882   2.897   2.870   2.445  0.1348 -0.1056 -0.5678
  628SOL    HW1 1883   2.796   2.874   2.453 -0.2781  0.4415  1.9905
  628SOL    HW2 1884   2.938   2.957   2.485  1.1732  2.3559  0.8460
  629SOL     OW 1885   1.403   2.595   2.509  0.0547  0.1392  0.1400
  629SOL    HW1 1886   1.363   2.664   2.448  2.4288 -0.9204  1.7306
  629SOL    HW2 1887   1.493   2.624   2.541 -2.3411 -1.7663  0.7992
  630SOL     OW 1888   1.014   0.102   2.311  0.0927  0.7260  0.2756
  630SOL    HW1 1889   1.017   0.157   2.395  1.0273  0.2623  0.1394
  630SOL    HW2 1890   1.109   0.088   2.273 -1.3075 -1.0882  0.7035
  631SOL     OW 1891   1.993   1.041   0.664 -0.0204 -0.0172  0.3297
  631SOL    HW1 1892   1.967   1.121   0.722  0.8178 -1.1619 -0.3867
  631SOL    HW2 1893   1.986   1.064   0.566  1.7606 -1.1860 -0.3146
  632SOL     OW 1894   2.589   0.081   1.905 -0.3454 -0.2907  0.5622
  632SOL    HW1 1895   2.565   0.180   1.917  1.3204 -0.9514  0.4694
  632SOL    HW2 1896   2.685   0.065   1.926 -0.6648  2.3511 -1.2397
  633SOL     OW 1897   1.134   1.507   0.280 -0.0164 -0.2732  0.2949
  633SOL    HW1 1898   1.223   1.522   0.225  1.9400 -0.6270 -1.2689
  633SOL    HW2 1899   1.061   1.492   0.215  2.2561  1.1644 -0.6650
  634SOL     OW 1900   2.671   2.967   1.740 -0.5505 -0.4310 -0.5025
  634SOL    HW1 1901   2.707   3.041   1.805  2.3186  2.5039  2.0676
  634SOL    HW2 1902   2.650   3.005   1.649 -0.0914 -0.6056  0.3146
  635SOL     OW 1903   1.710   0.451   0.472 -0.3188  0.0341 -0.2072
  635SOL    HW1 1904   1.615   0.461   0.504  1.9905  1.3654  0.0611
  635SOL    HW2 1905   1.766   0.529   0.508  2.0403  0.5520 -1.4773
  636SOL     OW 1906   0.696   1.224   3.106 -0.0640 -0.5442  0.3990
  636SOL    HW1 1907   0.603   1.179   3.097 -0.6607  0.2574 -3.5607
  636SOL    HW2 1908   0.691   1.305   3.037  0.1171  3.6201 -0.2346
  637SOL     OW 1909   2.703   2.019   0.052  0.2895  0.6987  0.2724
  637SOL    HW1 1910   2.703   1.978   3.106  2.3151  0.7473 -3.5980
  637SOL    HW2 1911   2.725   1.944   0.116 -2.1885 -1.6002  1.0818
  638SOL     OW 1912   1.184   2.437   2.598  0.4079  0.3524  0.1518
  638SOL    HW1 1913   1.248   2.511   2.566  0.8672 -0.8826 -0.0568
  638SOL    HW2 1914   1.222   2.384   2.672  3.3872  0.6158 -1.1516
  639SOL     OW 1915   1.684   1.830   0.982  0.4008 -0.5177 -0.1732
  639SOL    HW1 1916   1.619   1.855   1.057 -0.3933  0.8585 -1.1721
  639SOL    HW2 1917   1.664   1.903   0.910 -0.5704  2.2784 -2.1944
  640SOL     OW 1918   2.186   2.878   0.261  0.1639  0.7203 -0.0442
  640SOL    HW1 1919   2.095   2.834   0.262 -1.2668 -0.0304 -0.8003
  640SOL    HW2 1920   2.192   2.943   0.188  1.1918 -0.9060  1.8255
  641SOL     OW 1921   2.881   0.494   3.025 -0.4621 -0.1584 -0.4403
  641SOL    HW1 1922   2.861   0.554   3.108 -1.2233  0.6877  1.9991
  641SOL    HW2 1923   2.813   0.419   3.019  2.0708 -1.5927  0.1682
  642SOL     OW 1924   0.374   0.725   1.202 -0.3249 -0.0390 -1.3445
  642SOL    HW1 1925   0.349   0.727   1.308 -1.3435 -0.7708  4.5748
  642SOL    HW2 1926   0.353   0.638   1.156  0.6924 -1.1118  1.6379
  643SOL     OW 1927   0.654   1.487   2.406  0.2125  0.0399  0.7390
  643SOL    HW1 1928   0.686   1.477   2.501 -0.5417  2.7505  1.9200
  643SOL    HW2 1929   0.592   1.417   2.373  0.3506  3.2948  1.3518
  644SOL     OW 1930   2.074   2.138   0.609  0.4452  0.4355  0.0088
  644SOL    HW1 1931   2.036   2.058   0.556 -0.2672 -1.1925  0.1173
  644SOL    HW2 1932   2.032   2.143   0.706  1.1671  1.2553  1.3561
  645SOL     OW 1933   1.445   2.138   1.035 -0.0107 -0.4948  0.0857
  645SOL    HW1 1934   1.494   2.171   1.115 -1.1036  0.5558 -0.5236
  645SOL    HW2 1935   1.380   2.065   1.065 -1.9577  0.8671  0.4309
  646SOL     OW 1936   0.247   2.145   2.880 -0.3915 -0.0602  0.0153
  646SOL    HW1 1937   0.229   2.240   2.855 -0.2075 -2.0023  4.1218
  646SOL    HW2 1938   0.163   2.086   2.861 -1.5030  0.4679 -0.0829
  647SOL     OW 1939   1.267   3.113   1.398 -0.6421 -0.8613 -0.3434
  647SOL    HW1 1940   1.175   3.110   1.350 -1.3075  0.1293  0.0517
  647SOL    HW2 1941   1.342   3.126   1.334 -0.6486  0.5211  1.0053
  648SOL     OW 1942   1.319   0.313   0.990 -0.1827 -0.0900  0.0787
  648SOL    HW1 1943   1.354   0.273   1.075 -2.3510 -0.9526 -2.1610
  648SOL    HW2 1944   1.291   0.409   0.993  2.9400 -4.2108  0.4215
  649SOL     OW 1945   1.441   2.050   0.447 -0.1009 -0.3307 -0.2006
  649SOL    HW1 1946   1.441   2.033   0.348  2.2865  0.1146  2.3372
  649SOL    HW2 1947   1.521   2.105   0.476  2.1444  1.8445 -0.1865
  650SOL     OW 1948   2.344   1.776   1.965  0.2420 -0.8144 -0.1170
  650SOL    HW1 1949   2.345   1.876   1.963 -0.1721 -0.5210  0.7585
  650SOL    HW2 1950   2.290   1.742   1.889  2.9788  1.2695  2.2385
  651SOL     OW 1951   1.661   2.824   3.034 -0.1299  0.1877  0.2637
  651SOL    HW1 1952   1.648   2.882   2.955  0.2845 -2.0889  1.5436
  651SOL    HW2 1953   1.619   2.729   3.021 -0.2939 -0.1890 -3.0754
  652SOL     OW 1954   2.896   1.787   0.237 -0.1001  0.3010 -0.0173
  652SOL    HW1 1955   2.800   1.805   0.267  0.4148  2.5333 -2.2669
  652SOL    HW2 1956   2.961   1.851   0.279 -1.0853 -1.1098  0.1892
  653SOL     OW 1957   3.010   0.017   1.044 -0.4231 -0.0651 -0.0096
  653SOL    HW1 1958   2.980   0.099   1.103 -1.1027  0.7231 -0.7170
  653SOL    HW2 1959   2.920   3.133   1.012 -0.5978  1.0445 -0.2754
  654SOL     OW 1960   2.940   2.851   1.815  0.2938  0.9798 -0.0463
  654SOL    HW1 1961   3.008   2.852   1.739 -0.3825  2.5577 -1.2534
  654SOL    HW2 1962   2.851   2.890   1.782  0.2004  2.2448  4.4755
  655SOL     OW 1963   0.340   2.369   0.660  0.3628  0.9060 -0.0092
  655SOL    HW1 1964   0.359   2.441   0.726  0.3767 -0.9899  0.6959
  655SOL    HW2 1965   0.271   2.398   0.593 -0.0820  0.5136  0.7033
  656SOL     OW 1966   2.824   0.068   2.379  0.3702 -0.2696 -0.3783
  656SOL    HW1 1967   2.900   0.032   2.432 -1.5961 -0.3707 -1.4606
  656SOL    HW2 1968   2.806   0.016   2.294 -0.3770  1.8949  2.2576
  657SOL     OW 1969   0.090   1.268   2.969 -0.5141 -0.1604  0.2780
  657SOL    HW1 1970   0.076   1.276   2.866 -0.4223 -0.2660  0.0195
  657SOL    HW2 1971   0.077   1.358   3.016 -0.7485 -0.4520  0.4159
  658SOL     OW 1972   2.743   1.836   1.278  0.4825  0.5042 -0.5561
  658SOL    HW1 1973   2.736   1.923   1.337 -0.0133 -1.6456 -0.1739
  658SOL    HW2 1974   2.689   1.758   1.323  0.7946  0.0803 -0.8398
  659SOL     OW 1975   1.592   2.867   0.152 -0.3110  0.1473  0.1222
  659SOL    HW1 1976   1.649   2.919   0.218 -2.0739 -1.2820 -0.0999
  659SOL    HW2 1977   1.647   2.848   0.071  1.0890 -0.5124  1.0380
  660SOL     OW 1978   1.562   1.324   0.210 -0.5410  0.1862  0.2907
  660SOL    HW1 1979   1.580   1.287   0.114  0.4003 -1.2652 -0.7795
  660SOL    HW2 1980   1.476   1.280   0.239  0.0493 -0.6114  0.1100
  661SOL     OW 1981   0.125   2.253   1.106 -0.2542 -0.0948  0.2953
  661SOL    HW1 1982   0.078   2.167   1.073  2.0362 -0.5376  1.4143
  661SOL    HW2 1983   0.089   2.283   1.196 -0.9134  0.1420  2.4906
  662SOL     OW 1984   0.190   0.680   0.084 -0.3623 -0.4850  0.3248
  662SOL    HW1 1985   0.112   0.637   0.034  2.6644  0.3790 -0.7913
  662SOL    HW2 1986   0.248   0.607   0.134  0.4908 -1.3232  2.8472
  663SOL     OW 1987   2.102   1.567   1.147  0.7537 -0.3236  0.3744
  663SOL    HW1 1988   2.143   1.580   1.057  0.1528 -1.2967 -3.0702
  663SOL    HW2 1989   2.013   1.614   1.151  1.8738 -0.9755 -0.8564
  664SOL     OW 1990   1.128   1.460   1.306 -0.2638  0.6600 -0.3954
  664SOL    HW1 1991   1.229   1.461   1.333  4.0238  0.6409 -0.4620
  664SOL    HW2 1992   1.076   1.491   1.388  1.3925 -0.6573 -1.2732
  665SOL     OW 1993   2.019   2.611   2.394  0.1870 -0.1719  0.2598
  665SOL    HW1 1994   1.979   2.677   2.327 -2.0368  1.0501  1.4776
  665SOL    HW2 1995   1.955   2.612   2.474  1.8469  0.0929  0.4221
  666SOL     OW 1996   3.101   2.979   3.057 -0.4038 -0.2483 -0.3543
  666SOL    HW1 1997   3.078   2.922   2.981 -0.6471 -0.6062  0.9685
  666SOL    HW2 1998   3.098   3.079   3.030  1.2099  0.7020 -0.4918
  667SOL     OW 1999   2.436   1.139   2.180 -0.4282 -0.4392  0.5483
  667SOL    HW1 2000   2.439   1.103   2.086  3.1578  1.6214 -0.3638
  667SOL    HW2 2001   2.398   1.232   2.169 -2.1494 -0.9231 -1.6723
  668SOL     OW 2002   0.455   0.911   2.518  0.0489 -0.2383 -0.5064
  668SOL    HW1 2003   0.430   0.906   2.615  1.0243 -0.3559 -1.8103
  668SOL    HW2 2004   0.379   0.872   2.464 -1.9980  0.8464  3.0803
  669SOL     OW 2005   2.235   2.099   2.603  0.1887  0.1358  0.5596
  669SOL    HW1 2006   2.266   2.131   2.513  4.4190  1.2846  2.1766
  669SOL    HW2 2007   2.206   2.176   2.652 -0.2524 -3.0534 -2.7084
  670SOL     OW 2008   2.358   1.389   2.150 -0.4382  0.0776  0.2585
  670SOL    HW1 2009   2.423   1.428   2.081 -2.0522  1.4054  1.7146
  670SOL    HW2 2010   2.276   1.441   2.147  1.0259 -0.4715 -0.2170
  671SOL     OW 2011   2.804   1.242   0.420 -0.4591  0.2717 -0.2555
  671SOL    HW1 2012   2.896   1.202   0.394 -0.7825  1.1565 -2.2022
  671SOL    HW2 2013   2.805   1.326   0.482  1.8579 -0.3240  1.1296
  672SOL     OW 2014   2.343   0.641   2.265 -0.3726 -1.0133  0.4155
  672SOL    HW1 2015   2.281   0.609   2.340 -0.3978  0.2029  1.4515
  672SOL    HW2 2016   2.384   0.738   2.283  0.4868  2.8980 -0.0353
  673SOL     OW 2017   2.834   3.125   1.916 -0.5025  0.0034  0.3409
  673SOL    HW1 2018   2.925   0.003   1.871  3.5122 -0.6459  0.0411
  673SOL    HW2 2019   2.847   3.076   2.011  2.1344 -1.3159  3.0380
  674SOL     OW 2020   1.660   1.869   1.546 -0.0563  0.3725 -0.3089
  674SOL    HW1 2021   1.748   1.849   1.500 -0.0616 -0.5248  2.0086
  674SOL    HW2 2022   1.616   1.952   1.503 -1.4391  3.7407 -1.9628
  675SOL     OW 2023   0.821   0.510   0.768 -0.6769 -0.2925  0.6598
  675SOL    HW1 2024   0.751   0.561   0.823 -0.3359 -3.2049  0.6002
  675SOL    HW2 2025   0.917   0.535   0.793  0.5554 -0.2340 -0.3648
  676SOL     OW 2026   1.621   0.830   0.873 -0.3115  0.0825 -0.0126
  676SOL    HW1 2027   1.521   0.856   0.881 -2.1786 -1.0076 -0.5526
  676SOL    HW2 2028   1.647   0.750   0.935  0.4003 -0.1010 -0.3292
  677SOL     OW 2029   2.533   1.381   2.380  0.0032 -0.1149 -0.3761
  677SOL    HW1 2030   2.491   1.327   2.304 -0.5778  0.4312  0.1242
  677SOL    HW2 2031   2.464   1.368   2.457 -1.8753 -0.5197 -0.0356
  678SOL     OW 2032   2.931   1.664   1.159  0.2375  0.2277  0.6384
  678SOL    HW1 2033   2.941   1.583   1.220 -1.1197 -0.9201  0.8854
  678SOL    HW2 2034   2.865   1.728   1.204  1.8950  0.3093 -1.1518
  679SOL     OW 2035   2.333   2.578   0.017 -0.4657 -0.0070  0.0174
  679SOL    HW1 2036   2.252   2.636   0.029 -1.0089  0.5100 -0.9817
  679SOL    HW2 2037   2.370   2.580   3.075 -3.3970 -1.3511  0.8669
  680SOL     OW 2038   0.211   2.165   2.077 -0.2838 -0.3083  0.2730
  680SOL    HW1 2039   0.215   2.064   2.075 -1.7388  3.5716 -0.9925
  680SOL    HW2 2040   0.223   2.202   1.982 -0.7198 -0.2877  0.8675
  681SOL     OW 2041   0.488   1.188   1.344 -0.4640  0.8178  0.1938
  681SOL    HW1 2042   0.483   1.107   1.284  0.5128  2.0598  1.3977
  681SOL    HW2 2043   0.584   1.194   1.377 -0.4409 -0.2869  0.5945
  682SOL     OW 2044   1.287   2.494   0.818 -0.0058  0.6881  0.4817
  682SOL    HW1 2045   1.362   2.453   0.764 -0.1321  1.2198 -0.9015
  682SOL    HW2 2046   1.233   2.563   0.766  0.4674 -1.0196 -1.8705
  683SOL     OW 2047   2.440   1.352   0.512  0.5142  0.1135  0.0494
  683SOL    HW1 2048   2.497   1.269   0.516 -2.9483  0.8684 -0.3246
  683SOL    HW2 2049   2.488   1.427   0.457 -0.7477  1.0040  1.6499
  684SOL     OW 2050   0.615   2.037   2.010  0.1081  0.0201  0.0382
  684SOL    HW1 2051   0.692   2.107   2.032 -0.8059  0.2290  2.4696
  684SOL    HW2 2052   0.542   2.049   2.079  1.4044  1.5483 -0.1855
  685SOL     OW 2053   2.024   1.762   0.217  0.0676 -0.4605 -0.1412
  685SOL    HW1 2054   2.103   1.731   0.156  1.9670  0.2108 -0.4460
  685SOL    HW2 2055   1.942   1.703   0.205  0.0916 -1.1075  1.7328
  686SOL     OW 2056   0.135   0.841   1.014  0.6296  0.2680 -0.2424
  686SOL    HW1 2057   0.060   0.878   1.072  1.3289 -1.1831  0.8244
  686SOL    HW2 2058   0.231   0.846   1.048  0.6560 -2.5343  0.0849
  687SOL     OW 2059   1.019   2.430   2.961 -0.1682  0.0830  0.4469
  687SOL    HW1 2060   1.025   2.425   3.064 -1.8973  1.4864  0.1155
  687SOL    HW2 2061   0.928   2.400   2.921 -1.4707  2.0208 -2.8455
  688SOL     OW 2062   2.501   1.534   1.976  0.7688  0.2649 -0.0165
  688SOL    HW1 2063   2.576   1.553   2.039  0.9984 -0.8278 -0.7125
  688SOL    HW2 2064   2.450   1.615   1.947 -0.9495 -0.4297 -1.3853
  689SOL     OW 2065   2.167   0.662   2.058 -0.4222 -0.0209 -0.0891
  689SOL    HW1 2066   2.250   0.643   2.118  3.7350  0.4619  1.4021
  689SOL    HW2 2067   2.161   0.757   2.026 -1.4305 -3.7562  0.3160
  690SOL     OW 2068   2.183   1.014   1.496 -0.6225  0.1660 -0.2313
  690SOL    HW1 2069   2.100   1.006   1.438 -0.5081  1.8611 -0.3760
  690SOL    HW2 2070   2.265   1.045   1.443 -1.3687 -1.9107 -0.1595
  691SOL     OW 2071   0.563   2.007   1.701  0.4737 -0.3081  0.4897
  691SOL    HW1 2072   0.580   2.008   1.804 -1.0135  0.0246  1.0142
  691SOL    HW2 2073   0.625   2.064   1.647 -0.9705 -0.4163 -2.1510
  692SOL     OW 2074   2.034   0.172   1.401  0.2353 -0.4895  0.0097
  692SOL    HW1 2075   2.036   0.232   1.490  0.3519  1.5817  1.8964
  692SOL    HW2 2076   2.095   0.216   1.332  0.2675 -2.7818 -0.1968
  693SOL     OW 2077   0.705   1.001   2.360  0.0360 -0.9770  0.0975
  693SOL    HW1 2078   0.774   0.995   2.436 -0.3421  1.7397 -2.4481
  693SOL    HW2 2079   0.620   0.957   2.386 -1.9604  1.8460 -0.1640
  694SOL     OW 2080   1.801   2.716   1.132 -0.2543  0.0810  0.3589
  694SOL    HW1 2081   1.842   2.625   1.146 -0.5435 -0.4140 -0.5482
  694SOL    HW2 2082   1.728   2.703   1.064  0.6421 -0.2965  1.9674
  695SOL     OW 2083   1.245   1.198   2.040 -0.2938 -0.7287  0.3746
  695SOL    HW1 2084   1.285   1.240   2.123 -1.8887  2.2914 -0.1183
  695SOL    HW2 2085   1.184   1.267   1.994  0.6693 -0.9069  0.2916
  696SOL     OW 2086   1.599   2.883   0.767 -0.6809 -0.6398  0.0745
  696SOL    HW1 2087   1.539   2.847   0.692 -0.3143  1.8735 -0.1182
  696SOL    HW2 2088   1.695   2.909   0.744 -2.1287  4.0247 -0.8148
  697SOL     OW 2089   1.157   0.188   0.785  0.2898  0.4170  0.4288
  697SOL    HW1 2090   1.214   0.230   0.860  1.2570 -0.3085 -2.2530
  697SOL    HW2 2091   1.060   0.224   0.787  0.1985 -1.9245 -3.3416
  698SOL     OW 2092   1.886   1.128   2.488 -0.5621 -0.0928  1.1132
  698SOL    HW1 2093   1.843   1.055   2.433  0.8360  0.1039  1.2470
  698SOL    HW2 2094   1.856   1.222   2.454 -1.9767  1.1301  1.7418
  699SOL     OW 2095   1.379   1.416   1.345 -0.2634  0.6812  0.7923
  699SOL    HW1 2096   1.434   1.393   1.261 -2.9843  1.0002 -0.5720
  699SOL    HW2 2097   1.380   1.339   1.414 -0.1787 -1.4791 -0.9207
  700SOL     OW 2098   1.482   0.193   0.410 -0.2470  0.5114  0.1655
  700SOL    HW1 2099   1.412   0.130   0.372  2.2859  0.2338  2.7270
  700SOL    HW2 2100   1.494   0.175   0.510 -1.6976  0.3982 -3.1071
  701SOL     OW 2101   0.561   0.331   1.620 -0.0571 -0.3637  0.4604
  701SOL    HW1 2102   0.532   0.404   1.548  1.7659  2.8807 -1.7365
  701SOL    HW2 2103   0.503   0.334   1.703 -1.3094  1.2214 -2.0926
  702SOL     OW 2104   1.335   2.912   0.280  0.2448 -0.1419 -0.4335
  702SOL    HW1 2105   1.319   3.011   0.278 -0.0656 -1.5553  0.4105
  702SOL    HW2 2106   1.416   2.887   0.228  2.9807 -0.0884  1.0346
  703SOL     OW 2107   2.636   2.883   2.488  0.0829  0.2145  0.1207
  703SOL    HW1 2108   2.597   2.827   2.565  1.3000  0.5812 -0.6139
  703SOL    HW2 2109   2.561   2.914   2.426 -0.8746 -0.9127 -0.1156
  704SOL     OW 2110   0.822   2.366   0.640 -0.4357  0.1640  0.0997
  704SOL    HW1 2111   0.739   2.420   0.620 -0.4683 -1.6038  1.3208
  704SOL    HW2 2112   0.801   2.303   0.716 -0.0253 -1.2217  0.7240
  705SOL     OW 2113   0.122   0.704   2.102 -0.7656  0.3239  0.0694
  705SOL    HW1 2114   0.184   0.637   2.146 -2.6960  0.0453  0.2056
  705SOL    HW2 2115   0.104   0.788   2.158  0.0305 -0.5189  4.2352
  706SOL     OW 2116   1.700   0.127   0.247 -0.1014 -0.1216  0.4019
  706SOL    HW1 2117   1.735   0.033   0.259  3.7073  0.0306  0.9799
  706SOL    HW2 2118   1.610   0.143   0.291  3.2454 -0.9928 -0.6114
  707SOL     OW 2119   1.571   1.857   2.444  0.7490  0.0077 -0.4522
  707SOL    HW1 2120   1.632   1.805   2.511  1.5022  1.6397  3.0865
  707SOL    HW2 2121   1.524   1.789   2.385  0.2915 -1.3697  1.2564
  708SOL     OW 2122   2.964   2.201   1.555  0.3090 -0.4211  0.3359
  708SOL    HW1 2123   2.886   2.265   1.574 -1.2597 -0.1778 -0.9408
  708SOL    HW2 2124   3.043   2.221   1.614 -1.5297  0.5504  0.0265
  709SOL     OW 2125   2.046   0.297   1.656  0.0307  0.1430 -0.4838
  709SOL    HW1 2126   2.082   0.295   1.749 -0.0112  1.7585 -2.5938
  709SOL    HW2 2127   1.964   0.360   1.652 -2.6208  1.9646 -1.5940
  710SOL     OW 2128   2.933   3.074   1.505  0.3694 -0.0869  0.4518
  710SOL    HW1 2129   2.837   3.062   1.472  0.2647 -0.4202  1.5065
  710SOL    HW2 2130   2.976   0.008   1.472  2.5037 -2.5280  2.2026
  711SOL     OW 2131   0.204   2.341   0.406 -0.2929  0.5968  0.2957
  711SOL    HW1 2132   0.268   2.411   0.373  0.1315  1.0858  2.7388
  711SOL    HW2 2133   0.119   2.334   0.349 -3.0952  0.2228  1.4171
  712SOL     OW 2134   0.625   2.202   2.441  0.0905  0.1088 -0.0086
  712SOL    HW1 2135   0.526   2.241   2.449 -1.4499 -0.7476 -0.0103
  712SOL    HW2 2136   0.691   2.264   2.397  0.8559  0.0988 -1.6860
  713SOL     OW 2137   2.090   0.630   3.098 -0.7301 -0.2386  0.0042
  713SOL    HW1 2138   2.096   0.556   0.021 -0.4851  1.0821  2.0100
  713SOL    HW2 2139   2.065   0.719   3.135  0.5615 -2.3365  0.5965
  714SOL     OW 2140   1.276   1.885   0.616  0.2255 -0.2560  0.7369
  714SOL    HW1 2141   1.212   1.953   0.647  1.6202 -1.2284 -1.7954
  714SOL    HW2 2142   1.343   1.926   0.549  1.2639  1.6478 -0.3537
  715SOL     OW 2143   1.879   0.259   0.503  0.1390 -0.0290 -0.1266
  715SOL    HW1 2144   1.788   0.307   0.504  2.2008  1.4323 -0.4530
  715SOL    HW2 2145   1.936   0.309   0.572 -1.8836  0.2656 -0.7227
  716SOL     OW 2146   0.696   0.800   1.876  0.7987  0.0501 -0.1573
  716SOL    HW1 2147   0.624   0.823   1.942  0.4773  0.4297  2.3224
  716SOL    HW2 2148   0.650   0.760   1.795  0.8058 -0.6487  0.2699
  717SOL     OW 2149   0.271   0.438   2.995 -0.1376 -0.0230 -0.0606
  717SOL    HW1 2150   0.303   0.513   2.933  1.4503 -0.6409  0.6762
  717SOL    HW2 2151   0.181   0.467   3.035 -1.2262 -0.9099  1.4877
  718SOL     OW 2152   1.218   0.906   0.358  0.3720 -0.3749  0.0053
  718SOL    HW1 2153   1.286   0.892   0.435 -1.7534 -2.3303  1.7724
  718SOL    HW2 2154   1.154   0.827   0.361 -0.6560 -1.0087  1.4410
  719SOL     OW 2155   2.813   1.722   0.003 -0.6587  0.2851 -0.0741
  719SOL    HW1 2156   2.884   1.687   3.087  0.1561 -0.0529  2.9383
  719SOL    HW2 2157   2.858   1.745   0.096  1.0868 -2.4118  1.2880
  720SOL     OW 2158   1.566   0.886   1.156  0.0051 -0.3041  0.1049
  720SOL    HW1 2159   1.527   0.875   1.061  0.4678 -0.4537 -2.5326
  720SOL    HW2 2160   1.553   0.808   1.219  1.8954 -0.9115  1.0851
  721SOL     OW 2161   2.790   0.513   0.629 -0.7179  0.1460 -0.3270
  721SOL    HW1 2162   2.820   0.558   0.541  2.5886  0.0852 -0.1736
  721SOL    HW2 2163   2.728   0.433   0.623  1.3881  0.4925 -1.1075
  722SOL     OW 2164   1.225   1.745   2.871 -0.9403 -0.1437 -0.0970
  722SOL    HW1 2165   1.186   1.840   2.854 -0.7006  1.8416  0.2554
  722SOL    HW2 2166   1.154   1.676   2.893  2.0869 -1.5260 -0.2170
  723SOL     OW 2167   0.614   0.911   0.439 -0.4112  0.3430 -0.1589
  723SOL    HW1 2168   0.643   0.995   0.393  3.6747 -0.2087  0.3475
  723SOL    HW2 2169   0.525   0.920   0.482  1.2047 -0.7355 -1.7314
  724SOL     OW 2170   0.978   2.183   1.869 -0.0551 -0.2198 -0.3692
  724SOL    HW1 2171   0.894   2.182   1.816  1.5029  0.2996  1.4746
  724SOL    HW2 2172   0.967   2.155   1.967  0.9087  0.7522 -1.3168
  725SOL     OW 2173   3.014   0.902   1.602 -0.3452 -0.0590  0.3281
  725SOL    HW1 2174   3.113   0.884   1.616 -1.3337 -2.4455  4.5545
  725SOL    HW2 2175   2.986   0.995   1.635  1.6084 -1.8305  0.1664
  726SOL     OW 2176   1.810   3.008   0.291 -0.2356 -0.2311 -0.1585
  726SOL    HW1 2177   1.858   3.070   0.357  0.6934 -0.0728  1.5666
  726SOL    HW2 2178   1.873   2.944   0.243 -1.3137 -2.3459 -0.9105
  727SOL     OW 2179   1.314   1.151   2.511  0.3454  0.1811 -0.1745
  727SOL    HW1 2180   1.293   1.236   2.567 -1.7470 -0.7688  2.7862
  727SOL    HW2 2181   1.265   1.072   2.556  1.2026  0.3021 -0.0135
  728SOL     OW 2182   1.211   2.816   1.169 -0.0868  0.3208 -0.1281
  728SOL    HW1 2183   1.251   2.745   1.111 -1.5671 -1.0327 -1.1795
  728SOL    HW2 2184   1.275   2.830   1.245 -1.1104  1.1690 -2.2024
  729SOL     OW 2185   1.580   0.623   1.308  0.5345 -0.0901  0.2926
  729SOL    HW1 2186   1.527   0.550   1.361  2.6728 -0.6681 -1.4228
  729SOL    HW2 2187   1.593   0.593   1.212  0.6972  1.0886  3.6902
  730SOL     OW 2188   0.837   2.153   2.124 -0.5516  0.4336  0.0808
  730SOL    HW1 2189   0.860   2.250   2.144 -2.2759 -3.6446 -1.9672
  730SOL    HW2 2190   0.860   2.092   2.203 -1.0001 -0.6609  2.3476
  731SOL     OW 2191   0.583   0.193   0.397 -0.0779  0.1165  0.0039
  731SOL    HW1 2192   0.557   0.291   0.393  1.8611 -3.1293 -4.8691
  731SOL    HW2 2193   0.672   0.166   0.353 -0.0725  2.9594 -1.0543
  732SOL     OW 2194   0.659   0.297   3.096 -0.5299  0.1268  0.3594
  732SOL    HW1 2195   0.715   0.297   0.033 -1.6078 -1.8881 -0.2464
  732SOL    HW2 2196   0.565   0.291   3.134  1.9708  1.0319  0.8411
  733SOL     OW 2197   1.286   2.444   1.276  0.0752  0.0421 -0.4693
  733SOL    HW1 2198   1.304   2.374   1.352  2.1312 -1.3604 -0.8113
  733SOL    HW2 2199   1.191   2.437   1.230  1.0670  0.7303 -2.1930
  734SOL     OW 2200   2.928   2.421   2.594 -0.3152 -0.2723  0.2758
  734SOL    HW1 2201   3.021   2.382   2.598  0.8272  2.0215  1.4638
  734SOL    HW2 2202   2.890   2.438   2.688  0.1612  0.2952 -1.4689
  735SOL     OW 2203   0.749   2.947   0.899  0.1359  0.1495 -0.4343
  735SOL    HW1 2204   0.809   3.025   0.920 -3.6420 -1.3266 -1.2849
  735SOL    HW2 2205   0.736   2.928   0.801  0.7868 -3.2906 -1.8103
  736SOL     OW 2206   1.586   1.085   2.962 -0.4564  0.4631  0.4424
  736SOL    HW1 2207   1.620   1.028   2.879  2.1767 -1.4607 -0.9540
  736SOL    HW2 2208   1.608   1.030   3.051  1.5091 -2.9447  2.7878
  737SOL     OW 2209   0.138   0.329   0.566  0.1514  0.3624 -0.3027
  737SOL    HW1 2210   0.194   0.246   0.540 -0.9765  1.1352 -0.1750
  737SOL    HW2 2211   0.042   0.301   0.567 -0.4653  1.8741  0.1336
  738SOL     OW 2212   2.690   2.663   1.225  0.0936  0.5032 -0.6075
  738SOL    HW1 2213   2.743   2.577   1.248  1.3702 -0.3750 -1.5739
  738SOL    HW2 2214   2.757   2.741   1.214  0.0699 -0.5241  2.5236
  739SOL     OW 2215   1.523   2.642   0.539  0.0225 -0.0337  0.4147
  739SOL    HW1 2216   1.442   2.704   0.546  1.1970  0.8189  1.6181
  739SOL    HW2 2217   1.502   2.555   0.585 -2.4945  0.8169 -3.4816
  740SOL     OW 2218   1.781   0.034   1.019 -0.4801 -0.1530  0.3281
  740SOL    HW1 2219   1.685   0.024   0.993 -1.4627  2.7937 -1.5801
  740SOL    HW2 2220   1.836   0.037   0.930  1.4093 -1.6546  0.4726
  741SOL     OW 2221   2.091   0.495   0.905 -0.4273  0.2045 -0.0901
  741SOL    HW1 2222   2.191   0.500   0.886  0.8576 -0.2662 -1.9570
  741SOL    HW2 2223   2.066   0.590   0.931  1.1922 -0.6831  1.3895
  742SOL     OW 2224   1.269   2.274   2.138 -0.0820 -0.2203  0.0945
  742SOL    HW1 2225   1.356   2.313   2.175  0.4210  1.6699 -1.0305
  742SOL    HW2 2226   1.283   2.201   2.072 -1.4890 -1.1477 -0.9404
  743SOL     OW 2227   2.490   0.333   1.942 -0.5903 -0.7002  0.2377
  743SOL    HW1 2228   2.469   0.416   1.887 -1.7043  0.3000 -0.1523
  743SOL    HW2 2229   2.570   0.350   2.003 -1.8758  0.5658  1.5229
  744SOL     OW 2230   2.410   0.709   1.331  0.6212 -0.0520  0.4269
  744SOL    HW1 2231   2.444   0.757   1.416 -1.8992  0.4554  4.2524
  744SOL    HW2 2232   2.387   0.777   1.259 -0.7402 -1.9594  1.1124
  745SOL     OW 2233   2.091   1.385   1.816  0.2263 -0.1026 -0.3309
  745SOL    HW1 2234   1.988   1.372   1.815 -0.6676  1.4438 -0.9863
  745SOL    HW2 2235   2.110   1.483   1.811 -0.5588 -3.8346  1.3094
  746SOL     OW 2236   1.139   1.420   0.759 -0.1848  0.0264 -0.1237
  746SOL    HW1 2237   1.183   1.510   0.778  1.3006 -2.7879 -1.4877
  746SOL    HW2 2238   1.053   1.414   0.804 -0.5914 -0.2941 -1.3718
  747SOL     OW 2239   1.546   1.346   1.135  0.6222 -0.6158 -0.0932
  747SOL    HW1 2240   1.565   1.340   1.031 -0.6777  1.6574 -6.0248
  747SOL    HW2 2241   1.606   1.417   1.175  0.2942  3.4881 -0.0183
  748SOL     OW 2242   2.865   3.034   0.508  0.5817 -0.1066 -0.0576
  748SOL    HW1 2243   2.806   3.100   0.459  0.5180  1.7542 -0.6611
  748SOL    HW2 2244   2.901   3.085   0.584  0.3649 -3.9460 -0.5279
  749SOL     OW 2245   3.007   0.200   2.126 -0.4606 -0.1520 -0.4395
  749SOL    HW1 2246   3.035   0.106   2.155  0.9425 -0.7897 -0.9067
  749SOL    HW2 2247   3.041   0.268   2.197  3.6687 -0.2599  2.3331
  750SOL     OW 2248   1.849   3.135   1.416  0.2140  0.4540 -0.0758
  750SOL    HW1 2249   1.928   0.048   1.391  1.5482 -0.0915 -1.6816
  750SOL    HW2 2250   1.848   3.058   1.345 -1.1972 -2.8827 -1.6347
  751SOL     OW 2251   3.011   0.341   0.616 -0.5625  0.4029  0.1075
  751SOL    HW1 2252   2.977   0.435   0.605  3.4154 -0.2045 -0.0702
  751SOL    HW2 2253   2.972   0.277   0.682  1.0315  2.3340 -2.1972
  752SOL     OW 2254   0.327   2.764   0.992  0.5448 -0.0784 -0.5048
  752SOL    HW1 2255   0.304   2.768   1.094 -2.2180 -1.0438 -0.9075
  752SOL    HW2 2256   0.239   2.743   0.942  0.5037  1.1815 -0.4349
  753SOL     OW 2257   1.448   0.399   1.988 -0.6127 -0.0730  0.4350
  753SOL    HW1 2258   1.361   0.404   1.925 -0.7462 -0.9106 -0.0793
  753SOL    HW2 2259   1.471   0.495   2.020  1.9823  1.9260 -2.9173
  754SOL     OW 2260   1.329   2.735   1.673 -0.3776 -0.5035 -0.0266
  754SOL    HW1 2261   1.389   2.815   1.661 -1.9345 -2.8645 -0.1638
  754SOL    HW2 2262   1.331   2.697   1.769  1.6874 -0.1091 -0.8788
  755SOL     OW 2263   2.948   1.073   0.666  0.4219 -0.1140 -0.4172
  755SOL    HW1 2264   2.883   1.112   0.736 -1.3439 -0.0767  2.2914
  755SOL    HW2 2265   3.028   1.029   0.708 -1.8495  3.0878  1.1148
  756SOL     OW 2266   2.007   1.640   2.851  0.8562 -0.3551 -0.4585
  756SOL    HW1 2267   1.922   1.683   2.893  1.6166  0.0532  1.2624
  756SOL    HW2 2268   2.016   1.663   2.752 -0.3344 -1.6048 -2.0614
  757SOL     OW 2269   1.887   0.062   0.777 -0.3824  0.2410 -0.4167
  757SOL    HW1 2270   1.859   0.153   0.753 -2.7229 -4.0385 -0.2831
  757SOL    HW2 2271   1.868   3.140   0.705  1.3513 -1.8199 -2.0915
  758SOL     OW 2272   0.918   2.650   0.778 -0.2661  0.3932  0.4562
  758SOL    HW1 2273   0.920   2.568   0.837 -0.1075  1.8231  1.6899
  758SOL    HW2 2274   1.005   2.665   0.726 -0.3238 -0.4560 -1.9457
  759SOL     OW 2275   2.948   0.529   1.141 -0.0983 -0.2629 -0.0699
  759SOL    HW1 2276   3.016   0.565   1.077 -0.4280  0.6978  0.4693
  759SOL    HW2 2277   2.864   0.585   1.134 -1.0674 -0.4599 -0.6803
  760SOL     OW 2278   2.307   1.259   1.136  0.2663  0.0993 -0.0308
  760SOL    HW1 2279   2.365   1.197   1.196 -2.7970 -0.3321 -2.7581
  760SOL    HW2 2280   2.212   1.267   1.177 -0.6669  0.4778  0.4026
  761SOL     OW 2281   0.756   0.918   1.079 -0.0123 -0.0397 -0.1958
  761SOL    HW1 2282   0.789   0.975   1.002  0.5298  0.7057  1.6848
  761SOL    HW2 2283   0.805   0.825   1.087 -1.3737 -1.3992  0.7973
  762SOL     OW 2284   2.166   1.907   1.480  0.0314  0.2993  0.2751
  762SOL    HW1 2285   2.153   1.861   1.389  1.0035  1.4395 -2.7941
  762SOL    HW2 2286   2.256   1.877   1.515  0.5487 -1.1430 -0.3339
  763SOL     OW 2287   1.358   1.668   2.060  1.0523 -0.0390 -0.2890
  763SOL    HW1 2288   1.382   1.644   2.156  0.5175  2.4598 -1.9868
  763SOL    HW2 2289   1.304   1.752   2.062  1.6181  1.4525  0.3591
  764SOL     OW 2290   0.048   2.022   2.399  0.1242  0.4587 -0.4101
  764SOL    HW1 2291   0.051   2.120   2.377 -0.0493 -2.7165 -0.5160
  764SOL    HW2 2292   0.101   1.968   2.331 -2.4558 -3.7957 -1.1521
  765SOL     OW 2293   0.806   2.747   1.120 -0.0059 -0.2786  0.2047
  765SOL    HW1 2294   0.849   2.800   1.194 -1.6719 -1.5567 -0.1853
  765SOL    HW2 2295   0.802   2.806   1.036 -0.7295  0.6695  0.0022
  766SOL     OW 2296   0.779   2.334   2.848 -0.5290  0.1391 -0.6032
  766SOL    HW1 2297   0.744   2.251   2.804 -0.7396  1.2608  1.8403
  766SOL    HW2 2298   0.699   2.382   2.885  1.2819 -0.5852  0.9824
  767SOL     OW 2299   1.614   0.930   2.730  0.2394 -0.3348  0.2720
  767SOL    HW1 2300   1.554   0.854   2.751  2.7208 -0.3512  1.3705
  767SOL    HW2 2301   1.606   0.960   2.631  0.1233 -0.1052 -1.6578
  768SOL     OW 2302   1.343   2.555   3.010  0.3939 -0.2625  0.0649
  768SOL    HW1 2303   1.424   2.574   2.955 -4.6262  0.5243  0.8449
  768SOL    HW2 2304   1.304   2.460   2.983 -1.0967  1.0886 -0.3820
  769SOL     OW 2305   0.047   2.739   1.369  0.2994  0.0561  0.2764
  769SOL    HW1 2306   0.018   2.752   1.271 -3.7997  0.3232 -0.9029
  769SOL    HW2 2307   0.132   2.676   1.374  3.2701  1.2641 -0.5401
  770SOL     OW 2308   0.971   0.094   2.793  0.3817 -0.1376  0.1655
  770SOL    HW1 2309   0.879   0.055   2.778  0.5045  0.5418  0.8513
  770SOL    HW2 2310   0.986   0.095   2.896 -1.7821  0.8990  1.2537
  771SOL     OW 2311   0.726   3.105   2.495 -0.1608 -0.1317  0.4603
  771SOL    HW1 2312   0.664   3.129   2.417  0.5468 -2.5663  1.9450
  771SOL    HW2 2313   0.799   3.041   2.462 -0.5815 -0.0461 -0.4318
  772SOL     OW 2314   2.413   3.035   1.957 -0.3643  0.0644  0.0208
  772SOL    HW1 2315   2.486   3.099   1.934  0.5062  0.4832  0.4242
  772SOL    HW2 2316   2.419   2.948   1.902  0.7656  3.8680 -0.2963
  773SOL     OW 2317   0.727   2.459   1.792  0.1739 -0.1580 -0.2454
  773SOL    HW1 2318   0.757   2.541   1.737 -2.7260 -0.6573  1.8588
  773SOL    HW2 2319   0.647   2.491   1.845 -2.4382 -0.2333 -0.8529
  774SOL     OW 2320   1.319   0.323   2.222  0.1888 -0.5129  0.2746
  774SOL    HW1 2321   1.306   0.220   2.224  4.2487  1.8566 -0.0512
  774SOL    HW2 2322   1.371   0.355   2.137  2.7524  2.3221 -1.0327
  775SOL     OW 2323   2.233   2.732   2.865  0.6274  0.5972 -0.5735
  775SOL    HW1 2324   2.206   2.754   2.960 -1.5556 -1.4172 -0.4150
  775SOL    HW2 2325   2.239   2.820   2.815  2.5378 -1.4790 -0.1633
  776SOL     OW 2326   2.020   0.492   2.361 -0.1241  0.4731  0.2337
  776SOL    HW1 2327   2.085   0.551   2.413 -0.3764 -1.0884 -2.2060
  776SOL    HW2 2328   2.070   0.444   2.291  0.8331  0.8707 -1.7096
  777SOL     OW 2329   2.643   0.840   2.463  0.2391 -0.3624  0.0733
  777SOL    HW1 2330   2.690   0.928   2.478  3.3266 -1.6473  0.9981
  777SOL    HW2 2331   2.544   0.848   2.479 -0.1259 -2.5646 -2.9692
  778SOL     OW 2332   2.143   0.693   2.501 -0.4448 -0.7462  0.1374
  778SOL    HW1 2333   2.110   0.769   2.435 -2.7293  0.7313 -1.9550
  778SOL    HW2 2334   2.116   0.718   2.594 -0.9221 -3.2290 -1.3718
  779SOL     OW 2335   0.011   0.239   0.058 -0.1582 -0.3138 -0.6220
  779SOL    HW1 2336   3.084   0.261   0.120 -0.1145 -1.7102 -0.9889
  779SOL    HW2 2337   0.082   0.186   0.110 -1.5762 -0.7854 -0.9356
  780SOL     OW 2338   2.414   0.190   2.559  0.0799 -0.1793 -0.4445
  780SOL    HW1 2339   2.507   0.162   2.586  0.0272 -2.7602  0.8965
  780SOL    HW2 2340   2.408   0.258   2.481 -2.6316  1.7527  0.3171
  781SOL     OW 2341   0.348   3.076   1.498 -0.3063  0.3148 -0.0443
  781SOL    HW1 2342   0.248   3.049   1.509  0.6560 -3.3521 -0.4121
  781SOL    HW2 2343   0.390   3.038   1.413 -0.3339  3.0437  1.3694
  782SOL     OW 2344   1.804   2.567   0.408 -0.5087 -0.1818 -0.2192
  782SOL    HW1 2345   1.723   2.622   0.440 -0.4104 -0.8542  0.1287
  782SOL    HW2 2346   1.817   2.487   0.464  0.9574  2.9638 -0.4454
  783SOL     OW 2347   0.668   1.534   1.795  0.1391  0.1276 -0.5683
  783SOL    HW1 2348   0.750   1.582   1.833  1.9017 -1.7192  1.0798
  783SOL    HW2 2349   0.701   1.440   1.770  2.0448 -0.4568  0.9264
  784SOL     OW 2350   1.665   0.758   2.190  0.2392 -0.0146 -0.0450
  784SOL    HW1 2351   1.680   0.842   2.241  0.1963 -1.1943  0.6128
  784SOL    HW2 2352   1.754   0.743   2.137  0.1054 -2.4069 -1.7867
  785SOL     OW 2353   2.829   0.262   0.906 -0.1260 -0.6518 -0.1011
  785SOL    HW1 2354   2.879   0.256   0.995  0.6360 -2.4022 -0.2558
  785SOL    HW2 2355   2.735   0.216   0.913 -1.8108 -1.0372 -0.7900
  786SOL     OW 2356   1.810   0.234   1.222  0.4141 -0.3098 -0.5003
  786SOL    HW1 2357   1.881   0.205   1.291  1.8378  0.4031 -2.4541
  786SOL    HW2 2358   1.804   0.155   1.155 -1.0704 -0.0404 -2.5506
  787SOL     OW 2359   1.460   3.138   1.201 -0.1501  0.1656  0.0945
  787SOL    HW1 2360   1.470   0.094   1.212 -1.2484  2.6586 -0.1780
  787SOL    HW2 2361   1.486   3.112   1.106 -3.1080  2.0160 -0.0846
  788SOL     OW 2362   0.102   0.852   0.530 -0.3598  0.5754  0.0729
  788SOL    HW1 2363   0.054   0.877   0.618  0.3955 -0.0952 -1.0865
  788SOL    HW2 2364   0.133   0.756   0.532 -1.7095  2.2606 -1.7394
  789SOL     OW 2365   0.500   1.159   2.113 -0.4055 -0.4210  0.3071
  789SOL    HW1 2366   0.589   1.115   2.109 -0.5026 -2.5009 -2.6224
  789SOL    HW2 2367   0.504   1.239   2.050  2.0275 -0.4567  0.4504
  790SOL     OW 2368   0.413   0.486   2.560  0.2210  0.2923 -0.4052
  790SOL    HW1 2369   0.511   0.510   2.550 -2.7567  0.2182 -0.9065
  790SOL    HW2 2370   0.385   0.510   2.655  1.6237  0.3040  0.9427
  791SOL     OW 2371   2.286   0.506   0.355 -0.0092 -0.2293  0.0392
  791SOL    HW1 2372   2.308   0.458   0.439 -1.1355  1.5450  0.0149
  791SOL    HW2 2373   2.225   0.585   0.374  0.6313 -3.6332  0.9696
  792SOL     OW 2374   1.165   0.289   1.305 -0.0419  0.0605  0.3149
  792SOL    HW1 2375   1.120   0.369   1.256 -1.2509  0.6185 -1.5694
  792SOL    HW2 2376   1.140   0.295   1.407 -0.9358  2.9800 -0.6711
  793SOL     OW 2377   0.341   2.943   1.246  0.0403  0.3779  0.1616
  793SOL    HW1 2378   0.411   2.975   1.178  0.5625 -1.7357  5.4525
  793SOL    HW2 2379   0.254   2.998   1.239 -0.7603 -0.6036  0.3106
  794SOL     OW 2380   0.239   0.443   2.338 -0.2821 -0.0357  0.3744
  794SOL    HW1 2381   0.301   0.435   2.416 -0.9235  0.7945 -0.0815
  794SOL    HW2 2382   0.287   0.398   2.258 -1.1737  1.2238  1.6474
  795SOL     OW 2383   0.402   2.497   2.673 -0.2740 -0.0929 -0.8325
  795SOL    HW1 2384   0.455   2.574   2.634 -2.1294 -2.9990  0.6454
  795SOL    HW2 2385   0.447   2.474   2.763 -0.8502  1.2558  0.8109
  796SOL     OW 2386   2.232   0.472   2.763 -0.1893 -0.0801  0.1605
  796SOL    HW1 2387   2.203   0.569   2.783  5.0324 -0.5362  0.3457
  796SOL    HW2 2388   2.162   0.424   2.710  3.4357  1.5299  1.1042
  797SOL     OW 2389   2.809   2.022   2.919 -0.0411  0.2521  0.0852
  797SOL    HW1 2390   2.885   2.034   2.983  2.0347 -0.7763 -0.3149
  797SOL    HW2 2391   2.766   2.112   2.887 -1.9813 -1.5961 -1.2929
  798SOL     OW 2392   0.209   0.500   1.644  0.6209  0.3377 -0.4075
  798SOL    HW1 2393   0.262   0.447   1.713 -0.9609 -3.1547 -0.0614
  798SOL    HW2 2394   0.128   0.544   1.686  1.6143  1.6883  0.4434
  799SOL     OW 2395   0.834   0.329   1.690 -0.5720  0.7577  0.2548
  799SOL    HW1 2396   0.868   0.377   1.772  2.2903  0.1541 -0.5149
  799SOL    HW2 2397   0.736   0.336   1.676  0.8900 -2.8530 -0.5782
  800SOL     OW 2398   3.071   2.631   0.329 -0.0194  0.2097  0.6662
  800SOL    HW1 2399   3.107   2.684   0.247 -1.7799  0.4187 -2.9247
  800SOL    HW2 2400   3.097   2.533   0.325 -0.2232 -0.0393  0.8627
  801SOL     OW 2401   1.885   1.745   1.154  0.4144 -0.3518 -0.5709
  801SOL    HW1 2402   1.812   1.775   1.082 -0.8054  0.5966 -2.7670
  801SOL    HW2 2403   1.868   1.801   1.240  0.0252 -0.5269 -0.0234
  802SOL     OW 2404   0.493   0.469   0.401  0.1501  0.8203  0.4108
  802SOL    HW1 2405   0.452   0.505   0.485 -0.2662  1.2664  0.4584
  802SOL    HW2 2406   0.540   0.547   0.346  2.5560  0.4652 -2.4939
  803SOL     OW 2407   1.312   1.311   2.283  0.1582  0.1473  0.8726
  803SOL    HW1 2408   1.330   1.241   2.356  1.3418  0.8105  0.4949
  803SOL    HW2 2409   1.216   1.348   2.277 -1.6327 -3.5395  0.0843
  804SOL     OW 2410   1.958   2.132   0.896  0.0601  0.2053  0.4023
  804SOL    HW1 2411   1.976   2.048   0.942 -0.3527  3.4445 -1.5049
  804SOL    HW2 2412   2.005   2.214   0.938  0.4436 -0.4476  1.4004
  805SOL     OW 2413   0.438   2.012   2.731  0.1021  0.1611  0.5121
  805SOL    HW1 2414   0.371   2.075   2.773 -1.2861 -0.3113  1.7403
  805SOL    HW2 2415   0.427   2.014   2.629 -0.1222 -0.8740 -2.1782
  806SOL     OW 2416   0.600   2.658   0.326 -0.4156 -0.0113  0.2882
  806SOL    HW1 2417   0.554   2.746   0.323  2.0061 -2.6590 -1.6333
  806SOL    HW2 2418   0.698   2.670   0.306 -1.4174 -0.0119 -1.5528
  807SOL     OW 2419   2.539   1.178   2.746 -0.3909 -0.3015 -0.2268
  807SOL    HW1 2420   2.620   1.182   2.805 -2.4743  0.7370  1.0173
  807SOL    HW2 2421   2.458   1.212   2.799 -2.5565 -1.7508  0.3564
  808SOL     OW 2422   1.534   2.230   1.270 -0.0609  0.7341 -0.2096
  808SOL    HW1 2423   1.449   2.205   1.324 -0.7874  2.7167  0.0065
  808SOL    HW2 2424   1.592   2.296   1.319 -0.6205 -1.3645  0.5192
  809SOL     OW 2425   0.199   0.600   0.570 -0.0653 -0.0905 -0.1863
  809SOL    HW1 2426   0.297   0.632   0.565  1.7841 -0.4834  1.5675
  809SOL    HW2 2427   0.188   0.499   0.553 -2.2096 -0.2014  1.4864
  810SOL     OW 2428   1.352   1.596   0.116 -0.2913 -0.7743  0.2683
  810SOL    HW1 2429   1.350   1.655   0.034  1.5497 -0.7020  0.7063
  810SOL    HW2 2430   1.401   1.640   0.194 -1.5287  0.4262  1.2020
  811SOL     OW 2431   1.463   2.884   1.286 -0.2055  0.4310  0.6597
  811SOL    HW1 2432   1.536   2.868   1.357  1.9778 -1.5423 -0.7450
  811SOL    HW2 2433   1.456   2.983   1.267  0.5757 -0.8473 -1.1870
  812SOL     OW 2434   1.522   3.091   0.922 -0.2567  0.1227 -0.4011
  812SOL    HW1 2435   1.549   3.025   0.850 -2.1931  0.8368 -0.4026
  812SOL    HW2 2436   1.421   3.084   0.940 -0.6774 -1.0134 -3.6050
  813SOL     OW 2437   1.209   3.106   1.847 -0.5863 -0.1981 -0.1218
  813SOL    HW1 2438   1.160   0.035   1.879  2.3573 -2.5612 -4.0018
  813SOL    HW2 2439   1.272   3.133   1.771  0.5902  2.4080 -0.8500
  814SOL     OW 2440   1.027   2.706   2.044 -0.1272  0.0108  0.1039
  814SOL    HW1 2441   1.059   2.746   1.956  0.0864 -0.2416 -1.8081
  814SOL    HW2 2442   1.109   2.663   2.087  0.7982  0.8998 -0.4783
  815SOL     OW 2443   0.353   0.001   2.895 -0.4446  0.1709 -0.5803
  815SOL    HW1 2444   0.405   3.071   2.852  1.0707 -1.9792  2.6006
  815SOL    HW2 2445   0.421   0.080   2.900  0.5899  1.4315  0.8815
  816SOL     OW 2446   2.452   1.073   3.062  0.5111 -0.2927 -0.5068
  816SOL    HW1 2447   2.512   1.155   3.063  2.6511  2.2234  0.3370
  816SOL    HW2 2448   2.497   0.989   3.107  2.2417  0.2299  0.2063
  817SOL     OW 2449   2.837   2.313   2.343  0.4542  0.1531 -0.2470
  817SOL    HW1 2450   2.834   2.346   2.441 -0.1433 -0.4913 -0.7923
  817SOL    HW2 2451   2.814   2.379   2.270 -0.1652  1.3193  2.6336
  818SOL     OW 2452   0.785   1.423   0.417  0.7744  0.4166 -0.0363
  818SOL    HW1 2453   0.681   1.400   0.413 -0.6492 -0.4178  1.4357
  818SOL    HW2 2454   0.839   1.342   0.384 -0.1122  0.8611  0.3465
  819SOL     OW 2455   1.774   1.298   2.885  0.6285  0.2473 -0.0224
  819SOL    HW1 2456   1.843   1.237   2.839 -1.8434 -0.0751  0.4544
  819SOL    HW2 2457   1.696   1.241   2.921 -1.7347 -1.1096  2.3134
  820SOL     OW 2458   0.616   1.154   0.326  0.0956 -0.3327 -0.0815
  820SOL    HW1 2459   0.598   1.215   0.403  4.0707  0.9006  0.4045
  820SOL    HW2 2460   0.529   1.116   0.287 -2.9605 -0.4073 -1.7759
  821SOL     OW 2461   0.494   2.988   1.024 -0.4259  0.0997  0.2313
  821SOL    HW1 2462   0.588   2.948   1.004 -0.5249  0.1669  1.6359
  821SOL    HW2 2463   0.420   2.916   0.998 -3.2057 -2.0706 -0.4405
  822SOL     OW 2464   2.221   2.318   2.984 -0.0361  0.3858  0.5964
  822SOL    HW1 2465   2.302   2.339   3.041 -3.1445 -0.0870 -0.4537
  822SOL    HW2 2466   2.144   2.381   3.008  0.3352  1.0206  0.6741
  823SOL     OW 2467   1.128   0.496   2.566 -0.7420 -0.3876 -0.3325
  823SOL    HW1 2468   1.230   0.474   2.576  3.0421 -0.3546 -1.5752
  823SOL    HW2 2469   1.098   0.554   2.643 -1.4774 -0.4125  0.1372
  824SOL     OW 2470   2.423   2.733   1.527 -0.5666  0.3321  0.7290
  824SOL    HW1 2471   2.441   2.732   1.623  1.0227 -1.4547 -1.2303
  824SOL    HW2 2472   2.456   2.816   1.476  0.9816  2.1852 -2.3135
  825SOL     OW 2473   0.371   2.023   2.478  0.1678  0.2080  0.2249
  825SOL    HW1 2474   0.449   2.030   2.410  0.4478  0.6864 -1.1023
  825SOL    HW2 2475   0.319   2.110   2.488 -2.1048  3.2962  2.7217
  826SOL     OW 2476   1.568   0.543   0.213 -0.2334 -0.5322  0.3908
  826SOL    HW1 2477   1.655   0.503   0.249 -1.4600  0.6036 -0.4193
  826SOL    HW2 2478   1.489   0.497   0.255 -0.2921  1.9817  2.0699
  827SOL     OW 2479   0.007   1.771   1.962 -0.1766 -0.1662  0.4947
  827SOL    HW1 2480   0.011   1.667   1.951 -0.5168 -0.7685 -4.2317
  827SOL    HW2 2481   3.134   1.809   1.866 -0.0500 -1.8001 -5.1806
  828SOL     OW 2482   0.268   0.149   1.217 -0.2957  0.0597 -0.1212
  828SOL    HW1 2483   0.217   0.220   1.273  0.9454 -1.7990 -2.4528
  828SOL    HW2 2484   0.355   0.117   1.254  1.1679 -1.4842 -2.4569
  829SOL     OW 2485   1.090   1.978   2.510 -0.1726 -0.2876 -0.3191
  829SOL    HW1 2486   1.132   2.062   2.465 -1.4014 -0.3757  0.4176
  829SOL    HW2 2487   1.087   1.994   2.611  0.0473  1.1045  2.8312
  830SOL     OW 2488   0.733   0.882   1.457  0.4819 -0.3822  0.2284
  830SOL    HW1 2489   0.682   0.919   1.374 -3.4675  2.8719 -1.6972
  830SOL    HW2 2490   0.667   0.844   1.525  0.6439  0.5698  1.2077
  831SOL     OW 2491   2.919   1.594   2.937 -0.5279  0.0955  0.4567
  831SOL    HW1 2492   2.978   1.600   2.855 -0.8198  0.7331  2.3513
  831SOL    HW2 2493   2.928   1.504   2.978  2.8550  1.5430 -0.7074
  832SOL     OW 2494   1.263   2.310   2.929 -0.3371  0.2011  0.5810
  832SOL    HW1 2495   1.164   2.330   2.923  0.7603 -0.5267  1.2147
  832SOL    HW2 2496   1.298   2.247   2.855 -0.4026  0.2196 -1.1323
  833SOL     OW 2497   0.387   0.368   1.820 -0.0864  0.2778  0.2557
  833SOL    HW1 2498   0.430   0.434   1.883  0.5727 -2.3539 -0.6684
  833SOL    HW2 2499   0.345   0.295   1.877  0.5104 -2.8250 -0.0346
  834SOL     OW 2500   0.049   0.836   1.351 -0.2502  0.0300  0.1904
  834SOL    HW1 2501   0.116   0.909   1.366 -0.2030 -1.5569 -1.8703
  834SOL    HW2 2502   3.118   0.871   1.301  0.4697  0.0510 -0.5010
  835SOL     OW 2503   2.664   0.386   0.414  0.1655 -0.2487  0.1576
  835SOL    HW1 2504   2.725   0.305   0.400 -1.4424  1.9130 -0.2394
  835SOL    HW2 2505   2.649   0.440   0.329 -1.1380 -2.2750 -0.6132
  836SOL     OW 2506   0.810   2.318   0.145 -0.5696  0.1030  0.2337
  836SOL    HW1 2507   0.909   2.334   0.124 -0.9516  2.2396  0.2923
  836SOL    HW2 2508   0.797   2.283   0.238 -3.5952 -2.1540  0.2995
  837SOL     OW 2509   1.728   1.913   0.500  0.6050  0.1674 -0.2389
  837SOL    HW1 2510   1.728   1.926   0.398 -0.7233  0.0869 -0.7672
  837SOL    HW2 2511   1.663   1.836   0.531  2.3365 -2.5034  0.1908
  838SOL     OW 2512   1.982   1.013   2.071 -0.0850  0.1054  0.1775
  838SOL    HW1 2513   2.057   0.971   2.010 -2.9287 -1.4449  0.2130
  838SOL    HW2 2514   1.887   0.990   2.034  1.2178 -0.1115  0.7310
  839SOL     OW 2515   1.176   1.337   2.680 -0.1381  0.2897 -0.3170
  839SOL    HW1 2516   1.227   1.309   2.762  1.4559  1.0579 -1.4875
  839SOL    HW2 2517   1.192   1.433   2.659  1.7074  1.4635  0.2918
  840SOL     OW 2518   0.905   1.360   0.069  0.4884  0.3215 -0.0594
  840SOL    HW1 2519   0.913   1.327   0.167 -0.2445 -1.1958  1.3227
  840SOL    HW2 2520   0.831   1.312   0.018  2.4368 -3.5530  2.6959
  841SOL     OW 2521   1.406   2.224   0.011 -0.0769  0.5404  0.8004
  841SOL    HW1 2522   1.411   2.275   0.097  1.6244  0.2898 -3.3744
  841SOL    HW2 2523   1.341   2.273   3.094 -0.6040  1.6793 -1.4342
  842SOL     OW 2524   0.017   0.481   0.313  0.5401 -0.1617 -0.3006
  842SOL    HW1 2525   0.062   0.479   0.404 -0.5833 -0.0823  2.4603
  842SOL    HW2 2526   0.081   0.463   0.239 -1.0129 -0.6347  0.9998
  843SOL     OW 2527   0.542   0.687   0.869  0.4553  0.2920  0.2289
  843SOL    HW1 2528   0.570   0.785   0.853 -0.3808  1.2478 -5.0589
  843SOL    HW2 2529   0.506   0.673   0.959  1.6833  1.2687  0.2470
  844SOL     OW 2530   2.273   2.513   2.473  0.4383 -0.0632  0.2826
  844SOL    HW1 2531   2.191   2.567   2.436 -2.1678 -1.0627 -0.2136
  844SOL    HW2 2532   2.267   2.494   2.571  0.3772 -2.0596  0.6637
  845SOL     OW 2533   3.031   2.529   1.908 -0.1679  0.3552 -0.9864
  845SOL    HW1 2534   3.101   2.599   1.925 -1.9075 -2.5039 -1.5356
  845SOL    HW2 2535   2.966   2.554   1.829  0.2677  2.0278  1.0871
  846SOL     OW 2536   2.108   1.287   2.364 -0.0658 -0.3002 -0.1727
  846SOL    HW1 2537   2.084   1.196   2.400  0.8362  1.2560 -0.1461
  846SOL    HW2 2538   2.052   1.363   2.397 -0.1040  0.0807 -2.0100
  847SOL     OW 2539   2.789   0.302   2.007 -0.2710  0.9691  0.8814
  847SOL    HW1 2540   2.799   0.391   1.961  0.6677 -0.1784  0.2220
  847SOL    HW2 2541   2.875   0.270   2.046 -0.8535 -2.2325  1.5596
  848SOL     OW 2542   2.613   2.793   3.070  0.3882  0.5105 -0.4482
  848SOL    HW1 2543   2.625   2.760   0.018  0.7588 -0.4136  1.9330
  848SOL    HW2 2544   2.601   2.712   3.006 -0.2419  1.9179 -0.1248
  849SOL     OW 2545   0.454   3.027   0.639  0.3170 -0.0948 -0.5760
  849SOL    HW1 2546   0.475   2.939   0.685 -2.2840  0.0334 -0.0859
  849SOL    HW2 2547   0.353   3.037   0.633  1.7731 -1.4472 -3.7609
  850SOL     OW 2548   0.854   2.636   0.274  0.2064  0.0940 -0.1424
  850SOL    HW1 2549   0.928   2.703   0.279 -0.0643 -0.4987  0.8504
  850SOL    HW2 2550   0.874   2.556   0.214 -0.8964 -0.6432 -1.3372
  851SOL     OW 2551   1.806   0.491   2.755 -0.5263 -0.1201 -0.1206
  851SOL    HW1 2552   1.789   0.587   2.727  0.7741  1.2821  0.1296
  851SOL    HW2 2553   1.895   0.454   2.724 -0.4896 -0.7286 -1.8187
  852SOL     OW 2554   1.661   2.654   2.620 -0.5862 -0.1740  0.8741
  852SOL    HW1 2555   1.744   2.598   2.611 -2.8058  1.2184 -0.2718
  852SOL    HW2 2556   1.683   2.758   2.611 -0.2429  0.6844  0.2867
  853SOL     OW 2557   3.135   2.531   0.006 -0.1683  0.3127 -0.2648
  853SOL    HW1 2558   0.068   2.521   3.098  0.4654  1.2790  1.0625
  853SOL    HW2 2559   3.115   2.624   0.018 -1.5086 -2.3433 -1.4756
  854SOL     OW 2560   1.401   0.803   2.483  0.1025  0.1348 -0.0070
  854SOL    HW1 2561   1.371   0.754   2.397 -1.3593 -0.9362 -0.1364
  854SOL    HW2 2562   1.475   0.871   2.460  0.1393 -1.3401  2.0456
  855SOL     OW 2563   0.278   2.695   0.541 -0.3728 -0.0233 -0.1879
  855SOL    HW1 2564   0.298   2.636   0.460 -1.0498 -2.5665 -2.1490
  855SOL    HW2 2565   0.179   2.717   0.545 -1.0390 -0.2752 -0.3287
  856SOL     OW 2566   0.177   2.696   2.587 -0.2760 -0.5712 -0.3765
  856SOL    HW1 2567   0.150   2.636   2.509 -1.9821  0.7584 -3.7437
  856SOL    HW2 2568   0.280   2.709   2.599  2.1287  1.0400  1.3295
  857SOL     OW 2569   1.360   0.056   1.632 -0.0817  0.0370  0.3317
  857SOL    HW1 2570   1.319   0.035   1.541  1.4649  1.8010 -0.0507
  857SOL    HW2 2571   1.457   0.087   1.635 -1.0081 -1.3303  0.1205
  858SOL     OW 2572   0.115   2.088   1.498  0.4305  0.2141 -0.0895
  858SOL    HW1 2573   0.095   2.167   1.436 -3.6155 -0.1638 -0.6513
  858SOL    HW2 2574   0.195   2.114   1.559 -0.7052  0.6878 -0.0106
  859SOL     OW 2575   2.028   2.633   1.969 -0.0799  0.2246 -0.4354
  859SOL    HW1 2576   2.055   2.699   1.899  2.0589 -0.1660 -0.4228
  859SOL    HW2 2577   2.006   2.545   1.923 -1.9652 -4.2834 -0.7192
  860SOL     OW 2578   1.546   0.177   0.686  0.6906  0.1686  0.7423
  860SOL    HW1 2579   1.554   0.262   0.743 -0.8081  0.7490  0.9873
  860SOL    HW2 2580   1.542   0.095   0.744  0.6084 -0.4086  0.8379
  861SOL     OW 2581   2.902   0.717   0.778  0.5690 -0.0241 -0.2590
  861SOL    HW1 2582   2.845   0.638   0.750 -0.7975 -1.5488  1.1390
  861SOL    HW2 2583   2.897   0.734   0.877  1.1985  1.2606 -3.1676
  862SOL     OW 2584   1.902   0.723   2.058  0.0830 -0.0482  0.3570
  862SOL    HW1 2585   1.989   0.698   2.107  2.3467 -0.1232 -0.2179
  862SOL    HW2 2586   1.919   0.773   1.971 -2.0410  1.9590  0.2501
  863SOL     OW 2587   0.921   0.704   1.048  0.1155 -0.0896  0.4404
  863SOL    HW1 2588   0.978   0.685   0.967  0.4310 -0.7696 -1.2535
  863SOL    HW2 2589   0.884   0.622   1.088  1.5262  3.0932  0.3977
  864SOL     OW 2590   3.003   2.872   2.179  0.0496 -0.0367  0.1806
  864SOL    HW1 2591   2.917   2.833   2.142 -1.6554  0.6510  0.7869
  864SOL    HW2 2592   2.987   2.886   2.282  0.7134 -1.6919 -1.0978
  865SOL     OW 2593   1.202   0.938   2.618  0.6145  0.0478 -0.8728
  865SOL    HW1 2594   1.259   0.872   2.565 -1.1518  2.2052  0.4726
  865SOL    HW2 2595   1.177   0.907   2.711 -1.8720  0.2007  1.8146
  866SOL     OW 2596   2.844   2.813   0.323 -0.0708 -0.1515 -0.0968
  866SOL    HW1 2597   2.863   2.902   0.375 -0.3086  0.7826  0.5589
  866SOL    HW2 2598   2.923   2.743   0.338  1.5650 -2.0878 -0.2936
  867SOL     OW 2599   3.034   2.811   0.090  0.0876 -0.0045 -0.2966
  867SOL    HW1 2600   2.939   2.827   0.120  1.0732  0.1325 -0.5845
  867SOL    HW2 2601   3.061   2.863   0.014 -3.1124 -3.3688  3.8316
  868SOL     OW 2602   1.868   1.126   0.165 -0.2542  0.1864  0.3729
  868SOL    HW1 2603   1.936   1.190   0.121  1.1421 -0.1003  0.9418
  868SOL    HW2 2604   1.896   1.115   0.263  1.6015 -1.5962 -0.9018
  869SOL     OW 2605   3.028   2.073   0.709  0.1862 -0.4848 -0.1210
  869SOL    HW1 2606   2.932   2.090   0.677 -1.2818 -1.6018 -0.8549
  869SOL    HW2 2607   3.081   2.162   0.695  4.9623  0.1635 -0.0481
  870SOL     OW 2608   2.295   2.097   0.238  0.1969  0.3216 -0.9067
  870SOL    HW1 2609   2.257   2.026   0.306 -2.1141  2.2441  2.5680
  870SOL    HW2 2610   2.326   2.061   0.150 -0.1716  0.7225  1.1902
  871SOL     OW 2611   0.588   1.208   1.009 -0.1636 -0.0044 -0.1146
  871SOL    HW1 2612   0.568   1.108   1.002 -0.6074 -1.1708 -0.2229
  871SOL    HW2 2613   0.634   1.231   1.097  0.3712  1.3497  2.2385
  872SOL     OW 2614   1.194   1.880   2.128 -0.2555 -0.6823  0.2030
  872SOL    HW1 2615   1.181   1.952   2.052  3.7199 -1.1452 -2.7022
  872SOL    HW2 2616   1.163   1.913   2.219 -1.9070  1.6980  3.2159
  873SOL     OW 2617   0.550   2.491   2.004  0.0876 -0.0838  0.0309
  873SOL    HW1 2618   0.613   2.537   2.072  0.7937  3.5713  0.8183
  873SOL    HW2 2619   0.470   2.440   2.049 -3.2929  0.3168  1.6993
  874SOL     OW 2620   0.845   0.108   1.070 -0.5674  0.1769  0.2537
  874SOL    HW1 2621   0.765   0.090   1.133 -0.5149 -3.4023  1.5453
  874SOL    HW2 2622   0.827   0.167   0.987 -0.2532  3.3853 -2.1376
  875SOL     OW 2623   2.941   0.242   1.173  0.1864 -0.1985 -0.3582
  875SOL    HW1 2624   2.942   0.348   1.162  0.0030 -1.0692  2.6349
  875SOL    HW2 2625   2.959   0.216   1.273  0.0852  0.6277  2.7106
  876SOL     OW 2626   0.591   0.677   0.255 -0.5706  0.0705 -0.1035
  876SOL    HW1 2627   0.601   0.765   0.301  0.7243 -0.0056 -1.3673
  876SOL    HW2 2628   0.644   0.677   0.173 -1.3325  0.8205  4.7230
  877SOL     OW 2629   0.467   0.519   1.458  0.0629 -0.0562 -0.6453
  877SOL    HW1 2630   0.530   0.560   1.388  0.3018  0.1782 -2.3747
  877SOL    HW2 2631   0.375   0.567   1.468  0.4451  4.3777 -1.5534
  878SOL     OW 2632   2.421   2.767   0.359  0.7852 -0.0852 -0.1777
  878SOL    HW1 2633   2.336   2.794   0.308 -1.4009  1.2177  1.4573
  878SOL    HW2 2634   2.422   2.832   0.440 -1.1955  1.0501  2.5922
  879SOL     OW 2635   2.626   1.592   1.399  0.2637 -0.6273 -0.5018
  879SOL    HW1 2636   2.624   1.519   1.326  0.4597  1.2576 -1.1518
  879SOL    HW2 2637   2.532   1.622   1.430  2.0677  0.1642  0.6235
  880SOL     OW 2638   1.470   2.393   0.625 -0.9966 -0.2936  0.5538
  880SOL    HW1 2639   1.539   2.320   0.603  0.0181  0.8641  3.1649
  880SOL    HW2 2640   1.394   2.387   0.559  4.1598  0.9279  0.9190
  881SOL     OW 2641   1.062   2.342   0.082  0.1089 -0.1393 -0.7871
  881SOL    HW1 2642   1.116   2.430   0.073 -0.3899  1.1093  0.0979
  881SOL    HW2 2643   1.116   2.283   0.149  0.8680  1.9407  1.3631
  882SOL     OW 2644   1.861   0.903   1.238 -0.5722  0.2519 -0.0753
  882SOL    HW1 2645   1.893   0.812   1.275 -0.1722  0.1975 -1.7466
  882SOL    HW2 2646   1.761   0.918   1.252 -1.5714  0.6835 -1.2196
  883SOL     OW 2647   1.624   0.789   1.561 -0.4153 -0.0973 -0.0666
  883SOL    HW1 2648   1.711   0.755   1.608  0.0247  0.4212  0.3951
  883SOL    HW2 2649   1.611   0.759   1.469 -2.3634 -1.2165 -0.0730
  884SOL     OW 2650   2.797   0.549   0.173 -0.1560 -0.2253  0.0796
  884SOL    HW1 2651   2.697   0.559   0.156  1.8491 -0.6813 -1.0529
  884SOL    HW2 2652   2.825   0.597   0.260  0.2732 -0.4069  0.7004
  885SOL     OW 2653   1.224   1.916   0.067  0.2346 -0.8037 -0.3114
  885SOL    HW1 2654   1.186   1.819   0.078 -4.3043 -1.7072 -1.1080
  885SOL    HW2 2655   1.196   1.956   3.127  0.4770  0.9430 -2.4304
  886SOL     OW 2656   1.662   1.543   2.854 -0.4974  0.1859  0.9289
  886SOL    HW1 2657   1.684   1.601   2.925 -1.8934 -1.0977 -1.9235
  886SOL    HW2 2658   1.706   1.455   2.872 -3.7835  2.1798  0.8955
  887SOL     OW 2659   1.524   0.395   1.469  0.4863  0.0913 -0.4156
  887SOL    HW1 2660   1.444   0.435   1.520  0.3492  0.2111 -4.0147
  887SOL    HW2 2661   1.546   0.300   1.507 -1.3606 -0.5316  1.3696
  888SOL     OW 2662   2.536   0.583   1.812  0.7127 -0.2556  0.2092
  888SOL    HW1 2663   2.615   0.580   1.879  1.4758 -2.3949  4.2565
  888SOL    HW2 2664   2.515   0.680   1.790  0.2130 -1.0196  1.7386
  889SOL     OW 2665   0.082   2.695   0.872  1.0446 -0.2074 -0.3222
  889SOL    HW1 2666   0.071   2.593   0.874  0.0104 -0.6618 -1.3767
  889SOL    HW2 2667   0.041   2.735   0.787 -1.4238  0.9162 -1.5188
  890SOL     OW 2668   2.412   2.481   0.281 -0.1321 -0.2656 -0.0132
  890SOL    HW1 2669   2.378   2.507   0.187 -1.9240  1.3138 -0.6120
  890SOL    HW2 2670   2.458   2.563   0.322 -0.3917  0.1730  1.6313
  891SOL     OW 2671   0.679   1.338   2.666  0.2776  0.2667 -0.5005
  891SOL    HW1 2672   0.767   1.284   2.665  1.0339  0.5542  0.9802
  891SOL    HW2 2673   0.614   1.294   2.602  0.5871 -0.6635  0.5911
  892SOL     OW 2674   0.105   3.090   1.191 -0.0465 -0.5294 -0.2075
  892SOL    HW1 2675   0.159   0.026   1.197 -1.3235  1.7903 -1.2371
  892SOL    HW2 2676   0.024   3.090   1.128  2.3332 -1.4612  1.1978
  893SOL     OW 2677   1.427   0.247   1.250  0.3843  0.1812 -0.2375
  893SOL    HW1 2678   1.470   0.321   1.309  1.5011 -0.3516  2.2415
  893SOL    HW2 2679   1.326   0.250   1.257  4.8534  1.9068 -1.5600
  894SOL     OW 2680   2.539   0.778   0.817 -0.3889  0.7298 -0.0406
  894SOL    HW1 2681   2.521   0.870   0.782  2.1073 -1.9876 -0.8900
  894SOL    HW2 2682   2.562   0.717   0.743  1.0907  0.2902  0.0726
  895SOL     OW 2683   2.001   1.937   2.273  1.2280  0.5820  0.4653
  895SOL    HW1 2684   2.006   1.889   2.365 -0.1893 -1.7111  0.6874
  895SOL    HW2 2685   2.095   1.963   2.239  0.9681  1.6246 -0.2536
  896SOL     OW 2686   1.552   0.136   1.980  0.0393 -0.5693  0.3647
  896SOL    HW1 2687   1.497   0.221   1.959 -0.3774 -1.6852  0.8160
  896SOL    HW2 2688   1.633   0.129   1.918  1.6852  2.5154  1.0251
  897SOL     OW 2689   0.735   1.791   2.083 -0.1745 -0.0272  0.1415
  897SOL    HW1 2690   0.805   1.769   2.013  2.0415 -0.4530  1.2522
  897SOL    HW2 2691   0.681   1.873   2.056 -0.3434 -3.5060 -0.7417
  898SOL     OW 2692   2.575   2.656   2.220  0.0955 -0.2099 -0.4216
  898SOL    HW1 2693   2.533   2.618   2.306 -0.1222 -0.9175 -2.6809
  898SOL    HW2 2694   2.545   2.600   2.145  4.7888  1.4804  1.1651
  899SOL     OW 2695   1.310   1.019   1.219 -1.1201 -0.0983  0.0529
  899SOL    HW1 2696   1.266   1.052   1.133  0.2778 -0.0294  1.3101
  899SOL    HW2 2697   1.392   1.068   1.247  1.0584 -1.9406  0.9512
  900SOL     OW 2698   1.786   2.361   2.946 -0.1043 -0.4316  0.0417
  900SOL    HW1 2699   1.750   2.290   3.007  0.8440  1.0641 -0.3134
  900SOL    HW2 2700   1.786   2.335   2.844  1.0905 -0.1468  1.4762
  901SOL     OW 2701   0.700   2.100   2.697 -0.4605 -0.5954 -0.1400
  901SOL    HW1 2702   0.615   2.044   2.714  2.2275  0.1839  0.9274
  901SOL    HW2 2703   0.689   2.152   2.609  0.0166  0.9624  2.3352
  902SOL     OW 2704   2.302   1.439   0.150 -0.2795  0.1925 -0.0436
  902SOL    HW1 2705   2.295   1.536   0.146  1.0523 -4.6388 -0.8786
  902SOL    HW2 2706   2.398   1.405   0.172  1.3417  1.3546  0.7214
  903SOL     OW 2707   2.229   0.968   0.272  0.1438 -0.0054 -0.2636
  903SOL    HW1 2708   2.321   1.015   0.279  0.0498  1.6611  1.1715
  903SOL    HW2 2709   2.191   0.952   0.177  0.2964 -2.2243 -1.6968
  904SOL     OW 2710   0.840   0.885   2.738 -0.3847  0.6448  0.0031
  904SOL    HW1 2711   0.886   0.919   2.654 -1.1146  0.4557  0.5258
  904SOL    HW2 2712   0.828   0.961   2.810  1.4235  2.3955  1.5665
  905SOL     OW 2713   2.595   0.420   1.069 -0.1341 -0.1124 -0.0853
  905SOL    HW1 2714   2.610   0.324   1.035  0.9593 -1.5520 -0.7781
  905SOL    HW2 2715   2.577   0.425   1.170 -1.4485 -0.7907 -0.0830
  906SOL     OW 2716   2.646   2.179   0.985 -0.2339  0.0403  0.1208
  906SOL    HW1 2717   2.580   2.257   0.992  1.8459  0.4897  1.1304
  906SOL    HW2 2718   2.740   2.210   1.004 -0.1498 -0.0455 -1.3618
  907SOL     OW 2719   1.437   0.510   0.576 -0.1017 -0.1255 -0.4024
  907SOL    HW1 2720   1.412   0.471   0.486  0.2996 -0.1843 -0.1226
  907SOL    HW2 2721   1.383   0.599   0.594 -2.2906  1.9380  0.4104
  908SOL     OW 2722   2.207   3.107   1.472 -0.4021  0.1477 -0.2736
  908SOL    HW1 2723   2.143   0.017   1.422  0.3171 -0.3714  2.5835
  908SOL    HW2 2724   2.206   3.127   1.572  0.4037  0.0927  2.8004
  909SOL     OW 2725   2.580   0.858   1.494 -0.0499 -0.3846 -0.4312
  909SOL    HW1 2726   2.633   0.774   1.507  1.9169  1.7656 -4.6467
  909SOL    HW2 2727   2.631   0.940   1.450 -0.3014  3.6943  1.2413
  910SOL     OW 2728   1.337   2.806   2.326  0.0981  0.4756  0.0752
  910SOL    HW1 2729   1.256   2.853   2.292 -2.0767 -2.3678  0.8895
  910SOL    HW2 2730   1.421   2.863   2.329 -0.2797  1.0565 -1.6036
  911SOL     OW 2731   2.143   0.381   2.109 -0.4036  0.4783 -0.3615
  911SOL    HW1 2732   2.127   0.340   2.022  1.3085  0.3862  1.9769
  911SOL    HW2 2733   2.164   0.478   2.093  0.6223 -3.1858 -1.2582
  912SOL     OW 2734   2.454   1.925   1.575  0.2168 -0.8678 -0.1444
  912SOL    HW1 2735   2.503   1.978   1.499  0.4592  1.7170  0.5094
  912SOL    HW2 2736   2.413   1.984   1.647  2.1572 -1.3830 -1.5250
  913SOL     OW 2737   2.678   2.064   1.445  0.2401  0.3884 -0.1879
  913SOL    HW1 2738   2.619   2.145   1.414 -0.6937  0.2506 -0.0689
  913SOL    HW2 2739   2.776   2.084   1.466 -0.5828  1.9490 -0.0998
  914SOL     OW 2740   2.185   1.461   1.424  0.2185  0.1486 -0.1573
  914SOL    HW1 2741   2.276   1.447   1.471  2.7519 -0.6306  1.5624
  914SOL    HW2 2742   2.192   1.510   1.337 -0.7955 -0.2151  2.4844
  915SOL     OW 2743   0.789   1.245   1.210 -0.5765  0.0677  0.0772
  915SOL    HW1 2744   0.782   1.209   1.309  1.1540  0.3461  2.5596
  915SOL    HW2 2745   0.891   1.256   1.179  5.3892 -3.0766 -1.8438
  916SOL     OW 2746   2.198   2.608   1.219  0.1475  0.4270  0.1137
  916SOL    HW1 2747   2.282   2.570   1.266 -0.7099  3.1632  3.0246
  916SOL    HW2 2748   2.151   2.678   1.274  1.0596  1.3843  0.0812
  917SOL     OW 2749   2.478   1.772   0.117  0.4699 -0.0954  0.3765
  917SOL    HW1 2750   2.529   1.815   0.197  1.0269  2.1841  1.1607
  917SOL    HW2 2751   2.525   1.772   0.026  2.6620  0.0683 -2.0131
  918SOL     OW 2752   1.917   2.552   2.658 -0.0187  0.1497 -0.4085
  918SOL    HW1 2753   1.890   2.451   2.665  1.8592  1.0444  0.0880
  918SOL    HW2 2754   2.014   2.571   2.681 -1.0524  1.4906 -0.1856
  919SOL     OW 2755   1.380   1.933   1.709 -0.1997 -0.5033 -0.2885
  919SOL    HW1 2756   1.420   1.843   1.727  0.5815 -0.3213  1.7833
  919SOL    HW2 2757   1.440   1.999   1.659  0.0495 -1.4663  1.6343
  920SOL     OW 2758   3.014   0.181   2.690 -0.1169 -0.3047  0.3697
  920SOL    HW1 2759   3.109   0.209   2.714  3.9519  1.0334  0.2481
  920SOL    HW2 2760   2.953   0.255   2.661  0.6120 -2.0996  1.0478
  921SOL     OW 2761   2.717   0.301   2.285  0.2118 -0.1164  0.0834
  921SOL    HW1 2762   2.744   0.210   2.320 -0.7174  0.3488 -1.2965
  921SOL    HW2 2763   2.729   0.311   2.183  1.6576 -1.1234  1.7100
  922SOL     OW 2764   2.176   2.348   0.365 -0.8814 -0.3521  0.1778
  922SOL    HW1 2765   2.266   2.382   0.325  1.5806  0.9056 -0.9444
  922SOL    HW2 2766   2.177   2.247   0.367 -1.3775 -0.4795 -1.5339
  923SOL     OW 2767   0.392   2.145   0.362 -0.3905  0.3221  0.5122
  923SOL    HW1 2768   0.410   2.149   0.259 -3.0572  1.3906 -0.0668
  923SOL    HW2 2769   0.320   2.208   0.380  1.9221 -2.7961  0.3914
  924SOL     OW 2770   0.815   0.344   0.162  0.4451  0.2555 -0.3068
  924SOL    HW1 2771   0.878   0.289   0.221 -2.2180 -0.0772 -0.9586
  924SOL    HW2 2772   0.838   0.443   0.163  0.4769 -0.0633  1.7509
  925SOL     OW 2773   2.435   1.009   0.696  0.3432 -0.2368 -0.8018
  925SOL    HW1 2774   2.502   1.050   0.626  1.1393 -0.6965 -0.5760
  925SOL    HW2 2775   2.421   1.072   0.773  0.6061 -2.2190  0.5086
  926SOL     OW 2776   2.907   0.886   1.028  0.0679  0.1566  0.2167
  926SOL    HW1 2777   2.824   0.839   1.069 -3.9696 -1.6914 -0.4422
  926SOL    HW2 2778   2.975   0.899   1.103  0.0445  0.9121  1.9225
  927SOL     OW 2779   0.025   1.026   3.061 -0.3430 -0.1219 -0.4252
  927SOL    HW1 2780   0.113   0.965   3.066  0.0115 -0.6630 -2.1571
  927SOL    HW2 2781   0.051   1.113   3.026  1.7534 -3.1380  0.9348
  928SOL     OW 2782   3.143   0.310   2.347 -0.1740  0.1595 -0.1542
  928SOL    HW1 2783   0.085   0.354   2.353 -1.0039 -0.8900  0.7335
  928SOL    HW2 2784   3.146   0.214   2.384 -0.2082 -1.0439 -0.4743
  929SOL     OW 2785   0.007   2.843   1.083  0.7899  0.3025 -0.0553
  929SOL    HW1 2786   0.089   2.906   1.089  1.1160  1.1227 -1.1031
  929SOL    HW2 2787   0.019   2.773   1.010 -0.4280 -1.3467  1.1572
  930SOL     OW 2788   2.015   1.653   1.571 -0.3965  0.0333  0.3530
  930SOL    HW1 2789   2.116   1.668   1.557 -2.5018 -2.3572 -0.3247
  930SOL    HW2 2790   1.979   1.584   1.504 -0.5935 -0.7563 -0.4855
  931SOL     OW 2791   1.275   1.661   0.784 -0.4219 -0.2229 -0.0206
  931SOL    HW1 2792   1.366   1.655   0.816 -1.8458  1.0052 -2.7507
  931SOL    HW2 2793   1.278   1.731   0.714 -1.3855 -2.1755  3.3712
  932SOL     OW 2794   2.726   1.280   1.215 -0.0797 -0.0307 -0.1023
  932SOL    HW1 2795   2.695   1.184   1.204 -2.9656 -1.9980  0.2634
  932SOL    HW2 2796   2.652   1.345   1.189  1.6361 -2.2241  2.7757
  933SOL     OW 2797   2.394   1.683   1.468 -0.3116 -0.3535 -0.2730
  933SOL    HW1 2798   2.357   1.703   1.369 -0.5812 -0.8358 -4.0903
  933SOL    HW2 2799   2.406   1.775   1.521 -2.7984  0.8112  0.3047
  934SOL     OW 2800   1.671   2.857   1.442 -0.0161  0.0080  0.0826
  934SOL    HW1 2801   1.723   2.832   1.526 -1.5494  1.5543 -1.1568
  934SOL    HW2 2802   1.727   2.839   1.357 -0.0889 -2.7099  1.0882
  935SOL     OW 2803   0.323   1.580   0.739 -0.2488  0.2468 -0.0775
  935SOL    HW1 2804   0.297   1.677   0.713  2.3084 -1.1726 -1.0041
  935SOL    HW2 2805   0.425   1.574   0.766  1.6200  0.4107 -1.3072
  936SOL     OW 2806   3.109   1.283   0.566  0.1311  0.0615 -0.7102
  936SOL    HW1 2807   3.068   1.193   0.580  0.3136  2.3313  0.6938
  936SOL    HW2 2808   3.074   1.352   0.633 -0.5358  2.4079  2.6303
  937SOL     OW 2809   1.598   2.658   0.950  0.8467 -0.2668  0.1187
  937SOL    HW1 2810   1.514   2.656   1.007 -0.8052  0.6886  2.6368
  937SOL    HW2 2811   1.603   2.738   0.887 -1.5034  0.8732  0.3991
  938SOL     OW 2812   2.475   2.395   0.921  0.6836  0.1111 -0.4312
  938SOL    HW1 2813   2.427   2.409   0.833 -0.1270 -0.5858 -0.3944
  938SOL    HW2 2814   2.513   2.487   0.943  1.1528  0.8119  0.7064
  939SOL     OW 2815   0.592   2.132   0.083  0.2592 -1.2470  0.1172
  939SOL    HW1 2816   0.671   2.194   0.105 -0.5027  1.1525  2.2915
  939SOL    HW2 2817   0.621   2.035   0.111  0.4766 -1.3611  2.0470
  940SOL     OW 2818   3.081   0.095   2.958 -0.0213  0.5202  0.6445
  940SOL    HW1 2819   3.088   0.157   3.034 -0.5979 -1.0721  0.3891
  940SOL    HW2 2820   3.032   0.137   2.879  0.8603  1.7902  0.5090
  941SOL     OW 2821   1.331   0.139   3.084 -0.2253 -0.0876 -0.3838
  941SOL    HW1 2822   1.373   0.049   3.108  0.0294 -2.4773 -1.3270
  941SOL    HW2 2823   1.394   0.180   3.016  0.2406 -0.9700  3.2798
  942SOL     OW 2824   0.998   1.538   1.565 -0.5760 -0.1122 -0.2566
  942SOL    HW1 2825   0.973   1.470   1.636  0.4627 -1.5873 -0.2216
  942SOL    HW2 2826   0.970   1.630   1.595  1.0622 -3.2558  0.3966
  943SOL     OW 2827   1.953   1.315   1.496 -0.6818 -0.2612  0.2984
  943SOL    HW1 2828   1.938   1.239   1.570  1.8639 -2.7051  0.9013
  943SOL    HW2 2829   2.048   1.359   1.496 -0.0906 -2.0642  3.2903
  944SOL     OW 2830   1.854   0.676   1.663 -0.1497  0.4148  0.0963
  944SOL    HW1 2831   1.855   0.598   1.595 -0.4184 -1.9309  0.2477
  944SOL    HW2 2832   1.943   0.681   1.712  0.3061  0.3973 -1.0344
  945SOL     OW 2833   0.038   0.014   0.838 -0.2225 -0.3676  0.1128
  945SOL    HW1 2834   3.116   3.110   0.890 -2.2280 -0.9837  1.7178
  945SOL    HW2 2835   0.100   0.073   0.898  1.2592  2.4879  0.7315
  946SOL     OW 2836   0.541   0.757   1.634  0.0095 -0.7605  0.2065
  946SOL    HW1 2837   0.526   0.652   1.634 -0.1855 -3.0774 -0.1711
  946SOL    HW2 2838   0.458   0.803   1.675 -0.9684 -1.3268  3.6049
  947SOL     OW 2839   0.484   2.770   0.709  0.3705 -0.0608 -0.3945
  947SOL    HW1 2840   0.402   2.750   0.652  0.2204 -1.8378  1.6208
  947SOL    HW2 2841   0.504   2.686   0.764  2.5909 -0.4536  0.0749
  948SOL     OW 2842   2.727   1.213   1.799  0.1556  0.5576  0.0703
  948SOL    HW1 2843   2.676   1.299   1.784 -3.1903 -1.4932  1.0097
  948SOL    HW2 2844   2.820   1.214   1.746 -0.4828  1.8316 -1.7250
  949SOL     OW 2845   0.483   1.237   2.532 -0.2729  0.1850 -0.2733
  949SOL    HW1 2846   0.511   1.148   2.495 -2.6371 -0.1250  1.4796
  949SOL    HW2 2847   0.377   1.235   2.531 -2.0950 -0.7800 -0.4004
  950SOL     OW 2848   1.102   0.639   0.841 -0.0854  0.2372  0.4771
  950SOL    HW1 2849   1.154   0.594   0.910 -1.0144  0.0523  0.6780
  950SOL    HW2 2850   1.152   0.648   0.753 -1.6123  0.8114  0.3001
  951SOL     OW 2851   1.014   2.385   2.142 -0.0480  0.4803  0.3094
  951SOL    HW1 2852   1.001   2.452   2.067  0.8848 -0.5141 -0.7297
  951SOL    HW2 2853   1.116   2.366   2.148  1.7223 -1.2056 -1.7570
  952SOL     OW 2854   0.641   1.867   0.125  0.0911  0.2861  0.2530
  952SOL    HW1 2855   0.684   1.780   0.154  0.6854  3.6572 -0.8519
  952SOL    HW2 2856   0.545   1.850   0.099  3.6926 -0.0298  0.7879
  953SOL     OW 2857   2.047   2.970   2.263 -0.1217  0.4679 -0.6684
  953SOL    HW1 2858   2.084   3.036   2.194 -0.2234 -0.3666 -1.1825
  953SOL    HW2 2859   1.996   2.896   2.219  0.4603  1.0000  1.0999
  954SOL     OW 2860   1.581   1.308   0.871 -0.4614 -0.3151 -0.7199
  954SOL    HW1 2861   1.605   1.358   0.783  0.2031 -0.4876 -0.4289
  954SOL    HW2 2862   1.485   1.271   0.867  1.6526 -2.4688  2.7337
  955SOL     OW 2863   0.393   2.314   2.467 -0.1525  0.5027 -0.1421
  955SOL    HW1 2864   0.348   2.353   2.385 -2.2223  0.8426 -1.1702
  955SOL    HW2 2865   0.376   2.378   2.546 -1.0873 -1.2464  2.4672
  956SOL     OW 2866   1.838   0.479   1.498 -0.7960 -0.5481  0.5216
  956SOL    HW1 2867   1.884   0.541   1.430  1.2328  0.4650 -0.4879
  956SOL    HW2 2868   1.744   0.455   1.467  2.0753  1.8160  2.1386
  957SOL     OW 2869   1.960   1.995   2.811  0.3785  0.0604 -0.1580
  957SOL    HW1 2870   1.985   1.944   2.726  0.6086  0.0008  1.1236
  957SOL    HW2 2871   1.864   1.979   2.844  1.2612  0.7081 -0.1527
  958SOL     OW 2872   1.075   2.393   1.143  0.1286  0.6010  0.0788
  958SOL    HW1 2873   1.120   2.343   1.069 -2.9183 -0.4481  1.0122
  958SOL    HW2 2874   0.979   2.418   1.116  0.1087 -0.1891 -1.4809
  959SOL     OW 2875   2.017   2.456   3.065  0.1663  0.1288  0.3660
  959SOL    HW1 2876   1.999   2.445   0.014  0.8244  2.5331  1.0079
  959SOL    HW2 2877   1.938   2.421   3.010 -0.1869 -2.8021 -0.9113
  960SOL     OW 2878   0.134   0.282   2.748  0.3024  0.3441  0.3293
  960SOL    HW1 2879   0.147   0.182   2.728  0.0703 -0.9222  2.1919
  960SOL    HW2 2880   0.181   0.303   2.836  1.1917  1.3572  2.0713
  961SOL     OW 2881   0.937   1.002   2.520  0.4887  0.0861 -0.4535
  961SOL    HW1 2882   0.945   1.095   2.561  0.4305  1.8554  0.2098
  961SOL    HW2 2883   1.007   0.986   2.450  1.0975 -1.7013 -0.0702
  962SOL     OW 2884   1.102   1.284   3.042 -0.6283  0.6985  0.1710
  962SOL    HW1 2885   1.192   1.312   3.091  0.2617  1.6079  3.1280
  962SOL    HW2 2886   1.027   1.320   3.099  1.5573  1.7515  0.1777
  963SOL     OW 2887   2.582   1.797   3.005  0.4418 -0.2363 -0.6626
  963SOL    HW1 2888   2.664   1.754   3.052  0.7803 -2.1633  0.7875
  963SOL    HW2 2889   2.604   1.852   2.920 -0.0699  3.1598 -0.8036
  964SOL     OW 2890   1.326   2.608   1.050  0.5271 -0.0549  0.1363
  964SOL    HW1 2891   1.292   2.559   0.965  1.4347  2.4287 -0.8122
  964SOL    HW2 2892   1.328   2.539   1.128 -0.0410 -1.7928  1.4266
  965SOL     OW 2893   0.943   1.691   1.041  0.0373  0.3273  0.4149
  965SOL    HW1 2894   0.905   1.717   1.132 -0.0761  0.5732  1.9118
  965SOL    HW2 2895   1.043   1.678   1.046 -0.8326  1.0735 -1.3115
  966SOL     OW 2896   0.072   1.527   3.088  0.0323 -0.4853 -0.4668
  966SOL    HW1 2897   0.065   1.610   3.029  0.0787 -1.9938  0.2166
  966SOL    HW2 2898   0.001   1.529   0.012 -2.6129  1.7016 -1.6744
  967SOL     OW 2899   1.782   0.105   1.838 -0.4960 -0.9572 -0.1950
  967SOL    HW1 2900   1.829   0.095   1.926 -0.3410  0.6428 -0.5620
  967SOL    HW2 2901   1.811   0.029   1.775 -1.1914  0.0406 -2.2457
  968SOL     OW 2902   1.797   0.868   0.645  0.4810 -0.0079 -0.2031
  968SOL    HW1 2903   1.737   0.867   0.730 -0.7538 -0.0259  0.2555
  968SOL    HW2 2904   1.886   0.919   0.660 -1.3337 -0.1961 -0.4780
  969SOL     OW 2905   0.238   1.217   2.224  0.1150  0.0130  0.2936
  969SOL    HW1 2906   0.318   1.166   2.186 -0.6154  1.9831  0.2448
  969SOL    HW2 2907   0.248   1.310   2.192 -0.4900 -1.1005 -2.5608
  970SOL     OW 2908   2.526   1.441   1.150  0.2640  0.1528  0.0401
  970SOL    HW1 2909   2.449   1.372   1.145 -0.0327  1.1469 -0.3477
  970SOL    HW2 2910   2.511   1.522   1.094  2.8820 -1.4786  1.1461
  971SOL     OW 2911   0.530   0.174   1.358  0.1816 -0.3972 -0.5048
  971SOL    HW1 2912   0.533   0.237   1.439  1.1044 -0.2871  0.7074
  971SOL    HW2 2913   0.581   0.088   1.373  2.6254 -2.5265 -0.0706
  972SOL     OW 2914   0.677   0.638   2.746 -0.0630  0.2121 -0.1569
  972SOL    HW1 2915   0.738   0.717   2.737 -1.5978 -0.4028 -1.0997
  972SOL    HW2 2916   0.658   0.589   2.658  1.0094 -0.8623 -0.5225
  973SOL     OW 2917   3.117   1.053   1.139 -0.3222 -0.3613  0.6444
  973SOL    HW1 2918   3.091   1.128   1.201 -0.7919 -3.3486  0.6152
  973SOL    HW2 2919   3.117   1.089   1.043  0.6194 -1.1038  0.1967
  974SOL     OW 2920   2.414   1.059   1.916 -0.1892 -0.4011  0.5380
  974SOL    HW1 2921   2.370   1.127   1.857  1.5613  0.1669  3.5260
  974SOL    HW2 2922   2.469   0.995   1.857  4.6776 -2.1110 -0.2954
  975SOL     OW 2923   2.512   3.139   0.105  0.3996  0.1458  0.3811
  975SOL    HW1 2924   2.486   3.046   0.070  1.5103  0.5514  1.3452
  975SOL    HW2 2925   2.432   0.054   0.121  0.0255  2.1404 -1.8665
  976SOL     OW 2926   3.005   1.171   1.653 -0.0748  0.0748  0.0135
  976SOL    HW1 2927   3.011   1.273   1.630  0.7157  1.3998 -0.3769
  976SOL    HW2 2928   3.076   1.159   1.725  1.2372  2.9210  0.0718
  977SOL     OW 2929   1.014   2.913   3.005  0.3383  0.0624 -0.5339
  977SOL    HW1 2930   1.005   3.015   3.011 -0.9642 -2.2139  2.5254
  977SOL    HW2 2931   0.961   2.869   3.078 -0.9973  0.5325  0.0078
  978SOL     OW 2932   0.409   1.644   0.230  0.4683  0.2030  0.7705
  978SOL    HW1 2933   0.392   1.582   0.151  0.2938  1.6907  3.3595
  978SOL    HW2 2934   0.406   1.602   0.324  0.3573 -3.3078  1.3372
  979SOL     OW 2935   1.486   1.675   1.407  0.3602 -0.4258 -0.2312
  979SOL    HW1 2936   1.563   1.706   1.464 -1.8915 -1.2849 -1.9684
  979SOL    HW2 2937   1.483   1.579   1.383 -1.2063  6.5371  2.9584
  980SOL     OW 2938   0.483   1.362   1.919  0.3134  0.0834  0.3778
  980SOL    HW1 2939   0.542   1.428   1.867 -1.2584  0.6485 -1.4222
  980SOL    HW2 2940   0.390   1.355   1.879  1.3584 -0.8823 -0.4733
  981SOL     OW 2941   3.021   1.504   0.134  0.1282  0.3151  0.2167
  981SOL    HW1 2942   2.965   1.585   0.154  0.6069 -1.8071 -1.1275
  981SOL    HW2 2943   3.075   1.464   0.214 -0.9705 -0.9761  0.3676
  982SOL     OW 2944   2.539   2.528   2.476  0.0832 -0.1895 -0.3657
  982SOL    HW1 2945   2.438   2.522   2.464  1.4683 -1.4435  3.4598
  982SOL    HW2 2946   2.559   2.612   2.531  0.5901 -1.6668  0.3769
  983SOL     OW 2947   1.331   0.511   1.629  0.4429  0.0931  0.0576
  983SOL    HW1 2948   1.407   0.558   1.676 -0.4430 -3.4457 -0.9922
  983SOL    HW2 2949   1.279   0.575   1.570 -0.7947 -0.0854  2.2693
  984SOL     OW 2950   1.221   3.147   2.665  0.7577  0.0528 -0.0531
  984SOL    HW1 2951   1.302   0.056   2.679 -0.6368  1.8176 -0.6995
  984SOL    HW2 2952   1.137   0.044   2.693  0.3338 -0.9157  0.4156
  985SOL     OW 2953   1.614   2.371   1.636  0.2876 -0.2211  0.4808
  985SOL    HW1 2954   1.641   2.441   1.706 -0.5401 -0.3500  1.3341
  985SOL    HW2 2955   1.670   2.382   1.550  1.5700  0.9760 -0.4780
  986SOL     OW 2956   2.498   3.112   2.201  0.0921  0.1533  0.0458
  986SOL    HW1 2957   2.469   3.060   2.115 -1.5590 -0.0936 -3.1831
  986SOL    HW2 2958   2.440   0.043   2.215  0.0123  1.1222 -0.0891
  987SOL     OW 2959   2.452   0.377   2.370 -0.4483 -0.2199 -0.5382
  987SOL    HW1 2960   2.547   0.353   2.356 -3.2646 -0.1487 -0.8178
  987SOL    HW2 2961   2.428   0.467   2.330  1.8811 -0.5963 -1.0167
  988SOL     OW 2962   2.706   0.745   2.732  0.0756  0.0178 -0.2333
  988SOL    HW1 2963   2.612   0.744   2.770  2.5666 -0.5599 -0.2441
  988SOL    HW2 2964   2.707   0.790   2.643  1.6816 -1.4037  3.0123
  989SOL     OW 2965   2.307   2.191   2.353 -0.2745  0.5841  0.1253
  989SOL    HW1 2966   2.302   2.103   2.304 -1.8275  0.5426 -0.0746
  989SOL    HW2 2967   2.403   2.229   2.337  1.4202  0.6460 -3.9171
  990SOL     OW 2968   0.376   1.150   2.858 -0.2637 -0.6430 -0.0610
  990SOL    HW1 2969   0.293   1.193   2.904 -2.8328  0.9584  1.1590
  990SOL    HW2 2970   0.438   1.217   2.816 -1.7557 -1.2668  0.9710
  991SOL     OW 2971   0.793   1.517   2.825  0.2610  0.1437 -0.0668
  991SOL    HW1 2972   0.728   1.462   2.769  0.3755 -0.0442 -0.2629
  991SOL    HW2 2973   0.771   1.617   2.818  3.1559 -0.0451  0.0621
  992SOL     OW 2974   2.932   2.019   1.842 -0.0655 -0.3122 -0.1642
  992SOL    HW1 2975   2.946   2.106   1.784  1.7363  2.5702 -1.9410
  992SOL    HW2 2976   2.991   1.943   1.807 -1.4083 -1.0484 -0.1801
  993SOL     OW 2977   0.534   0.110   0.903 -0.5465  0.4187 -0.1865
  993SOL    HW1 2978   0.528   0.022   0.953 -1.4978  1.0581  0.0104
  993SOL    HW2 2979   0.584   0.098   0.817 -3.9608 -0.8069 -1.0258
  994SOL     OW 2980   0.225   1.775   1.428  0.0258 -0.3918 -0.4182
  994SOL    HW1 2981   0.254   1.745   1.521 -1.1713  0.1968  1.1002
  994SOL    HW2 2982   0.166   1.859   1.430  0.7358  0.4606  0.2529
  995SOL     OW 2983   2.222   1.643   2.468  0.5677  0.2596 -0.0335
  995SOL    HW1 2984   2.263   1.560   2.511 -1.5652 -0.0628  0.2730
  995SOL    HW2 2985   2.248   1.659   2.373 -1.3291  0.8263  1.3368
  996SOL     OW 2986   2.021   1.368   2.999  0.1421 -0.7554 -0.6151
  996SOL    HW1 2987   2.050   1.455   2.948  0.5429  2.1587  0.5259
  996SOL    HW2 2988   1.922   1.348   2.990 -1.8403  0.4204  0.8737
  997SOL     OW 2989   1.853   0.890   1.825  0.1091  0.1161  0.2161
  997SOL    HW1 2990   1.849   0.795   1.775  0.2565 -3.0633 -2.1352
  997SOL    HW2 2991   1.902   0.952   1.761 -2.5453 -0.7664  2.6001
  998SOL     OW 2992   2.280   2.197   1.098  0.0767  0.3228  0.5488
  998SOL    HW1 2993   2.291   2.099   1.070  1.4596 -2.6757 -4.0163
  998SOL    HW2 2994   2.344   2.259   1.055 -0.7846 -1.6447  0.6537
  999SOL     OW 2995   2.348   2.270   0.595 -0.0328  0.3125 -0.4336
  999SOL    HW1 2996   2.255   2.236   0.590 -0.3239  1.1438  1.4523
  999SOL    HW2 2997   2.346   2.365   0.632  2.2358 -0.3114  2.4572
 1000SOL     OW 2998   1.079   2.952   2.565 -0.2679  0.0488  0.0797
 1000SOL    HW1 2999   1.138   3.028   2.596  0.1130 -1.5601 -4.0424
 1000SOL    HW2 3000   1.081   2.870   2.625  0.3721 -0.5756  0.6511
   3.14993   3.14993   3.14993
