1000 SPC/Fw water molecules t= 122.00000 step= 122000
 3000
    1SOL     OW    1   2.164   2.107   0.908 -0.2356  0.6156 -0.2320
    1SOL    HW1    2   2.216   2.051   0.840 -2.2629 -1.1315  0.0120
    1SOL    HW2    3   2.147   2.061   0.997 -2.2321 -2.2516 -1.5089
    2SOL     OW    4   1.404   1.783   2.334  0.1773  0.5797  0.1585
    2SOL    HW1    5   1.303   1.789   2.361 -2.6187  0.6644 -1.0857
    2SOL    HW2    6   1.440   1.690   2.307 -0.3891 -2.6644  3.0532
    3SOL     OW    7   1.361   2.465   2.173  0.7684  0.6178  0.3071
    3SOL    HW1    8   1.288   2.413   2.117 -0.3888 -0.8195 -2.1912
    3SOL    HW2    9   1.420   2.402   2.225 -0.7003  3.4902 -1.1126
    4SOL     OW   10   1.151   2.181   1.780 -0.1801  0.3130  0.4095
    4SOL    HW1   11   1.216   2.114   1.744  0.2372  0.5773  0.3203
    4SOL    HW2   12   1.149   2.266   1.725 -1.4114  1.4019 -1.4180
    5SOL     OW   13   0.625   0.860   1.671  0.1713 -0.4134 -0.3869
    5SOL    HW1   14   0.660   0.948   1.702 -2.6276 -1.1995 -1.1618
    5SOL    HW2   15   0.524   0.860   1.686  0.7505  0.0046 -0.1876
    6SOL     OW   16   2.217   0.903   0.130 -0.0690 -0.3815  0.0789
    6SOL    HW1   17   2.127   0.861   0.107 -0.3739  2.4143  1.3390
    6SOL    HW2   18   2.284   0.825   0.140 -0.3030 -0.6367  0.9042
    7SOL     OW   19   0.822   0.286   1.579 -0.0325  0.5803  0.0304
    7SOL    HW1   20   0.903   0.260   1.636  1.1513  0.1459 -2.2662
    7SOL    HW2   21   0.736   0.240   1.606 -1.3546 -0.2887 -2.1085
    8SOL     OW   22   1.627   0.101   1.655  0.4111 -0.8723 -0.2610
    8SOL    HW1   23   1.723   0.094   1.683 -2.5985 -1.1043  2.9904
    8SOL    HW2   24   1.598   0.196   1.682  1.6884 -0.5945 -0.9051
    9SOL     OW   25   0.627   0.771   0.744  0.2390 -0.2724 -0.8366
    9SOL    HW1   26   0.697   0.840   0.730 -0.2006 -4.8976  0.3194
    9SOL    HW2   27   0.604   0.726   0.660  1.8557  1.2457  1.4630
   10SOL     OW   28   0.574   2.360   2.445  0.8307  0.2413  0.0536
   10SOL    HW1   29   0.591   2.323   2.536 -0.0099 -3.1918 -0.7355
   10SOL    HW2   30   0.506   2.435   2.447 -3.2450  0.2931 -0.9388
   11SOL     OW   31   0.541   1.892   2.991 -0.1452  0.1370  0.4788
   11SOL    HW1   32   0.637   1.897   2.948 -0.2383  0.2631 -0.7215
   11SOL    HW2   33   0.544   1.853   3.082  0.1486  2.0247 -0.4995
   12SOL     OW   34   0.271   0.110   1.410  0.6504 -0.0343 -0.1211
   12SOL    HW1   35   0.360   0.111   1.459 -2.5259  2.5182  1.8438
   12SOL    HW2   36   0.245   0.010   1.400 -2.4096 -2.9194  0.8974
   13SOL     OW   37   0.886   2.593   0.006 -0.1747  0.2291  0.4157
   13SOL    HW1   38   0.962   2.542   3.059  0.4402 -0.0888 -2.4905
   13SOL    HW2   39   0.867   2.681   3.053  2.6881  1.9499 -2.1680
   14SOL     OW   40   1.533   1.648   0.928  0.0954  0.4018 -0.2360
   14SOL    HW1   41   1.604   1.644   1.002  1.0770 -0.0416 -0.8064
   14SOL    HW2   42   1.443   1.679   0.958  3.8313  1.2544 -1.9569
   15SOL     OW   43   2.827   1.220   2.138 -0.1903 -0.1622  0.0642
   15SOL    HW1   44   2.907   1.178   2.184 -1.0391 -0.9586  1.7282
   15SOL    HW2   45   2.779   1.283   2.198  1.5788 -0.6718 -1.3748
   16SOL     OW   46   1.190   2.936   2.900  0.1828 -0.4218 -0.6578
   16SOL    HW1   47   1.106   2.880   2.908  0.4607  0.1299 -1.4547
   16SOL    HW2   48   1.158   3.026   2.856 -1.3810  0.8455 -1.1476
   17SOL     OW   49   0.546   2.375   2.025  0.1805 -0.3646 -0.1221
   17SOL    HW1   50   0.617   2.373   2.096  0.7705  2.0602 -1.1730
   17SOL    HW2   51   0.450   2.361   2.062 -0.9400 -1.0042 -0.3707
   18SOL     OW   52   1.670   0.764   0.275  0.0436 -0.1039 -0.6587
   18SOL    HW1   53   1.693   0.867   0.271  0.8829  1.5528  0.7941
   18SOL    HW2   54   1.685   0.712   0.189  1.5222  1.5236 -0.1683
   19SOL     OW   55   2.314   1.878   2.752 -0.0902  0.5159 -0.0648
   19SOL    HW1   56   2.266   1.820   2.820 -1.4585 -1.7411  2.4716
   19SOL    HW2   57   2.412   1.842   2.746  2.7928 -2.1259  0.0401
   20SOL     OW   58   2.390   2.143   2.364 -0.3733 -0.0249  0.0152
   20SOL    HW1   59   2.384   2.234   2.405 -0.6759 -3.5867  0.2584
   20SOL    HW2   60   2.477   2.098   2.392 -1.4534  1.6429 -0.1079
   21SOL     OW   61   0.628   2.071   0.198 -0.2757  0.1498 -0.6980
   21SOL    HW1   62   0.560   2.121   0.252  1.6198  1.1192 -0.0784
   21SOL    HW2   63   0.607   1.972   0.199 -1.2883 -0.0388 -0.9683
   22SOL     OW   64   2.440   2.651   1.180  0.3839  0.1941  0.1336
   22SOL    HW1   65   2.509   2.716   1.219 -0.8687 -0.0570  0.6998
   22SOL    HW2   66   2.356   2.642   1.241 -0.7991 -0.7920  0.6860
   23SOL     OW   67   0.382   1.376   1.556  0.2230 -0.1352  0.2389
   23SOL    HW1   68   0.338   1.400   1.642  1.7091 -0.2539 -0.8792
   23SOL    HW2   69   0.479   1.400   1.543  1.0118 -3.1719 -3.0270
   24SOL     OW   70   2.112   2.074   1.652 -0.2199  0.2561  0.5315
   24SOL    HW1   71   2.045   2.000   1.678  1.3278 -0.0660  1.9575
   24SOL    HW2   72   2.143   2.114   1.736 -0.9197 -1.2331 -2.6804
   25SOL     OW   73   1.790   0.124   2.589  0.1751 -0.2564  0.4632
   25SOL    HW1   74   1.763   0.222   2.569  0.1629  0.8796 -0.8613
   25SOL    HW2   75   1.780   0.062   2.509  0.5546 -0.3677 -1.2977
   26SOL     OW   76   1.603   2.932   0.966 -0.9003 -0.3594 -0.3336
   26SOL    HW1   77   1.613   2.954   0.870  1.0689  2.0718  0.7163
   26SOL    HW2   78   1.593   3.019   1.028  1.1884  2.2514  1.2415
   27SOL     OW   79   1.187   1.882   3.021  0.2900  0.0851  0.1505
   27SOL    HW1   80   1.230   1.939   3.094  2.1559 -1.0388 -0.1956
   27SOL    HW2   81   1.103   1.837   3.065  1.2036  0.6971 -1.0046
   28SOL     OW   82   2.868   2.003   1.270  0.1355  0.0157  0.1078
   28SOL    HW1   83   2.839   1.913   1.311 -0.4994  0.0186  1.1914
   28SOL    HW2   84   2.961   2.034   1.302  1.9433  0.4638 -2.8823
   29SOL     OW   85   2.286   2.733   1.914  1.1447  0.1278  0.2429
   29SOL    HW1   86   2.232   2.646   1.912  1.3501  0.0112  1.1637
   29SOL    HW2   87   2.342   2.732   2.000  0.0537 -1.8844  1.5471
   30SOL     OW   88   0.976   2.739   1.146 -0.4252 -0.2361  0.3630
   30SOL    HW1   89   1.009   2.691   1.063  0.0094  0.7203  0.9471
   30SOL    HW2   90   0.962   2.834   1.123 -1.7897 -1.3025  0.2325
   31SOL     OW   91   2.953   2.240   2.197 -0.4464  0.1691  0.0333
   31SOL    HW1   92   2.952   2.145   2.152  1.2639 -1.7408 -0.7470
   31SOL    HW2   93   2.978   2.324   2.138  1.0927  3.3046 -0.0321
   32SOL     OW   94   1.542   1.201   1.985 -0.0569 -0.5817  0.2249
   32SOL    HW1   95   1.533   1.100   1.970  1.5359  4.4801  2.0815
   32SOL    HW2   96   1.456   1.243   1.949  0.1356  0.1131 -0.6054
   33SOL     OW   97   0.213   3.008   2.497 -0.1366 -0.0602  0.4216
   33SOL    HW1   98   0.282   3.041   2.560  0.4368 -2.0844 -3.0946
   33SOL    HW2   99   0.216   2.906   2.507  2.0608 -1.0922 -0.0590
   34SOL     OW  100   1.927   0.222   1.440  0.2930 -0.0982 -0.4558
   34SOL    HW1  101   1.939   0.293   1.511 -0.6853 -1.5797 -1.8869
   34SOL    HW2  102   1.969   0.137   1.473 -0.6126  3.2567  1.4825
   35SOL     OW  103   2.277   0.553   1.368 -0.0835  0.1133  0.1492
   35SOL    HW1  104   2.296   0.576   1.464  0.3258  4.3162 -4.1362
   35SOL    HW2  105   2.286   0.631   1.304 -0.9838 -2.1632 -0.6276
   36SOL     OW  106   2.432   2.894   2.301 -0.1635  0.8911  0.4047
   36SOL    HW1  107   2.353   2.884   2.364 -1.0659 -3.2328 -2.3425
   36SOL    HW2  108   2.514   2.939   2.343  0.3834  1.0390 -1.2604
   37SOL     OW  109   1.144   2.217   2.940  0.2339  0.7512 -0.1300
   37SOL    HW1  110   1.124   2.189   3.037 -0.5771  0.4287  3.0355
   37SOL    HW2  111   1.109   2.148   2.873 -3.1796 -0.2884  0.3198
   38SOL     OW  112   2.998   0.907   2.676  0.5584 -0.6391 -0.0035
   38SOL    HW1  113   2.924   0.840   2.647 -0.2320  1.2246 -0.9603
   38SOL    HW2  114   3.029   0.893   2.771 -1.8105  0.5429 -0.7123
   39SOL     OW  115   2.102   2.187   2.288  0.3503  0.3445 -0.1577
   39SOL    HW1  116   2.045   2.101   2.297 -0.9048  0.9920 -1.2711
   39SOL    HW2  117   2.201   2.169   2.303 -0.2008 -1.1907 -0.5182
   40SOL     OW  118   0.429   0.220   3.004  0.2176 -0.0500 -0.5862
   40SOL    HW1  119   0.531   0.195   3.000  0.9019 -1.1719 -0.4793
   40SOL    HW2  120   0.368   0.136   3.023 -0.4599 -0.1686  1.1486
   41SOL     OW  121   1.380   0.842   1.451  0.1558  0.3626  0.0401
   41SOL    HW1  122   1.481   0.855   1.437 -0.2162 -0.4783  1.6973
   41SOL    HW2  123   1.354   0.882   1.542  0.6052  1.4596  0.2351
   42SOL     OW  124   0.268   0.289   1.983  0.1528 -0.0626  0.7472
   42SOL    HW1  125   0.200   0.364   1.969  0.1413 -0.3029 -2.0569
   42SOL    HW2  126   0.362   0.335   1.977 -0.4457  0.9825  0.2782
   43SOL     OW  127   1.659   1.368   2.205  0.2978  0.6212 -0.7154
   43SOL    HW1  128   1.602   1.446   2.226 -0.1473 -1.8699 -4.0971
   43SOL    HW2  129   1.615   1.313   2.132  2.7576  3.2845 -2.8342
   44SOL     OW  130   2.927   2.870   2.688 -0.1238  0.2571 -0.9791
   44SOL    HW1  131   2.964   2.959   2.656 -2.7636 -1.9296 -0.6524
   44SOL    HW2  132   2.900   2.876   2.786  0.5512 -0.4065 -4.1296
   45SOL     OW  133   0.599   2.293   1.328 -0.3097 -0.0923  0.1015
   45SOL    HW1  134   0.690   2.336   1.314 -2.5216  1.2851 -0.6685
   45SOL    HW2  135   0.604   2.216   1.392 -0.6408  1.4360  2.8987
   46SOL     OW  136   2.573   2.584   1.855  0.2146  0.1714 -0.2606
   46SOL    HW1  137   2.512   2.665   1.839  0.2670 -2.0172  1.3905
   46SOL    HW2  138   2.527   2.503   1.810  0.2308 -2.5701 -0.6904
   47SOL     OW  139   1.729   1.663   1.444 -0.1164  0.0018  0.4326
   47SOL    HW1  140   1.680   1.717   1.518 -0.3219  0.2140 -0.9893
   47SOL    HW2  141   1.828   1.669   1.453  1.0524 -0.4620  0.5566
   48SOL     OW  142   0.195   2.175   0.308  0.4575  0.0967  0.0351
   48SOL    HW1  143   0.153   2.096   0.259 -1.7944  0.5199 -1.1756
   48SOL    HW2  144   0.190   2.164   0.410 -0.8683 -0.5789 -2.4029
   49SOL     OW  145   2.924   1.342   1.863 -0.3405 -0.2017  0.4588
   49SOL    HW1  146   3.005   1.400   1.877  1.3460  1.1273 -0.7362
   49SOL    HW2  147   2.882   1.319   1.955 -1.0456  0.3804 -0.0727
   50SOL     OW  148   1.961   0.922   0.665  0.3510 -0.4588 -0.1299
   50SOL    HW1  149   2.050   0.884   0.644 -3.4052 -0.1522 -0.2794
   50SOL    HW2  150   1.892   0.872   0.612 -0.7682  0.5096  1.3207
   51SOL     OW  151   1.217   0.628   0.730 -0.5258 -0.0274 -0.4512
   51SOL    HW1  152   1.124   0.638   0.771  1.1959 -0.9159  0.6605
   51SOL    HW2  153   1.288   0.637   0.804  1.4114 -1.0145 -1.8463
   52SOL     OW  154   1.283   1.086   0.334  0.1664 -0.6875  0.1250
   52SOL    HW1  155   1.243   0.993   0.357  0.3573 -2.2441  0.6287
   52SOL    HW2  156   1.369   1.099   0.392  2.7194  1.5212  0.3499
   53SOL     OW  157   1.191   2.390   2.592 -0.9947 -0.1697  0.7906
   53SOL    HW1  158   1.191   2.319   2.517 -0.3287 -2.4302 -1.3836
   53SOL    HW2  159   1.267   2.367   2.659  1.2680 -1.6146  1.9120
   54SOL     OW  160   1.585   0.772   1.783 -0.2148  0.1183  0.2213
   54SOL    HW1  161   1.519   0.848   1.768  0.8302 -1.0071 -0.5114
   54SOL    HW2  162   1.643   0.760   1.696  2.3158  0.8602 -2.7150
   55SOL     OW  163   2.269   2.867   0.578 -0.7245  0.8214  0.4113
   55SOL    HW1  164   2.191   2.916   0.538 -0.1870  0.7799  0.0513
   55SOL    HW2  165   2.333   2.826   0.510  1.6781  0.5934 -0.4683
   56SOL     OW  166   1.200   2.707   1.653 -0.2018  0.1339 -0.0392
   56SOL    HW1  167   1.176   2.764   1.734  2.5759  0.4039 -2.6732
   56SOL    HW2  168   1.161   2.746   1.572  2.4271 -0.6402 -0.3300
   57SOL     OW  169   1.910   0.663   2.893  0.1948 -0.6308 -0.4358
   57SOL    HW1  170   1.837   0.740   2.890 -2.7201  2.5453 -2.7067
   57SOL    HW2  171   1.865   0.574   2.908  3.0750  3.5143 -1.3309
   58SOL     OW  172   2.807   1.255   1.636  0.2712  0.1350  0.1994
   58SOL    HW1  173   2.868   1.286   1.713  0.9543  0.7859 -3.7835
   58SOL    HW2  174   2.790   1.327   1.570  1.1463 -1.9513  0.4900
   59SOL     OW  175   0.418   2.718   2.287  0.8259 -0.0565 -0.3826
   59SOL    HW1  176   0.340   2.709   2.217 -0.9456  1.1518 -2.4051
   59SOL    HW2  177   0.449   2.815   2.296 -0.6336  1.5813 -1.0812
   60SOL     OW  178   2.704   2.532   0.869 -0.7637 -0.0885  0.1867
   60SOL    HW1  179   2.648   2.462   0.921 -2.9753 -0.2991 -2.0441
   60SOL    HW2  180   2.654   2.554   0.788 -1.5454 -0.9747  0.5023
   61SOL     OW  181   1.061   2.381   0.305 -0.4313  0.4090  0.3833
   61SOL    HW1  182   1.152   2.348   0.269 -1.1183 -1.0158 -0.1718
   61SOL    HW2  183   0.998   2.302   0.309  1.0924 -1.7627  3.6910
   62SOL     OW  184   2.010   2.656   2.996 -0.1917  0.2007 -0.1481
   62SOL    HW1  185   2.032   2.609   2.908 -0.3721 -1.7410 -0.4905
   62SOL    HW2  186   1.910   2.667   3.011 -0.2730 -0.4791 -1.7391
   63SOL     OW  187   1.926   0.222   2.958  0.2535  0.3486 -0.8747
   63SOL    HW1  188   1.862   0.145   2.979  0.6570 -1.8258 -0.7144
   63SOL    HW2  189   2.017   0.181   2.940 -2.4830  0.6953  0.5507
   64SOL     OW  190   0.775   1.022   2.538  0.2278 -0.6413  0.7148
   64SOL    HW1  191   0.850   0.960   2.544 -1.8572  0.8449  1.1456
   64SOL    HW2  192   0.690   0.992   2.588 -0.2553  0.7266  1.4462
   65SOL     OW  193   1.487   2.712   0.700 -0.3366  0.1417 -0.2698
   65SOL    HW1  194   1.494   2.655   0.612 -1.4150 -1.9527 -1.8837
   65SOL    HW2  195   1.577   2.709   0.748  0.6372  0.2765  1.4320
   66SOL     OW  196   0.496   1.619   1.801  0.4643 -0.2557 -0.4156
   66SOL    HW1  197   0.545   1.603   1.891 -0.8448  1.6027 -0.2791
   66SOL    HW2  198   0.407   1.577   1.810  0.0666  3.5068 -0.0333
   67SOL     OW  199   2.132   0.053   2.054 -0.0790 -0.0364  0.1361
   67SOL    HW1  200   2.137   0.003   1.968  1.3140  1.8769  1.1495
   67SOL    HW2  201   2.220   0.046   2.100  1.2739 -1.7171 -1.0980
   68SOL     OW  202   0.817   0.771   1.470  0.0362  0.0928 -0.0241
   68SOL    HW1  203   0.805   0.673   1.432  0.8665 -0.9899  1.2836
   68SOL    HW2  204   0.739   0.792   1.533  0.6493 -1.1094  1.6952
   69SOL     OW  205   2.018   3.000   0.529 -0.2241  0.1691  0.2049
   69SOL    HW1  206   1.980   2.926   0.593  1.1868 -0.0611 -0.4792
   69SOL    HW2  207   1.950   3.037   0.464  1.7389 -0.6397  0.8917
   70SOL     OW  208   2.671   0.686   2.971 -0.1605  0.2056 -0.3950
   70SOL    HW1  209   2.725   0.749   3.026  0.5082  1.7582 -1.9122
   70SOL    HW2  210   2.598   0.633   3.020  2.7254 -1.6066  1.9457
   71SOL     OW  211   2.690   1.718   3.008 -0.1584 -0.1226 -0.0189
   71SOL    HW1  212   2.646   1.725   2.914  0.1987  1.3149  0.4131
   71SOL    HW2  213   2.789   1.734   3.004  0.2387  0.2576 -0.4598
   72SOL     OW  214   2.970   1.905   0.371  0.3184 -0.1733 -0.1932
   72SOL    HW1  215   2.978   1.808   0.390  0.5315 -0.7417 -1.6514
   72SOL    HW2  216   3.005   1.951   0.456 -0.0550 -0.8606 -1.2040
   73SOL     OW  217   0.946   0.988   0.409 -0.0678 -0.1011  0.3523
   73SOL    HW1  218   0.895   1.076   0.414 -0.1975 -0.5023 -0.6022
   73SOL    HW2  219   0.910   0.929   0.331 -3.2917 -3.4089 -0.4236
   74SOL     OW  220   0.052   2.066   1.881 -0.0613 -0.6777 -0.4713
   74SOL    HW1  221   0.086   2.164   1.895  0.0879  2.5262 -1.7640
   74SOL    HW2  222   0.124   2.001   1.847  0.7794  0.4849 -0.7990
   75SOL     OW  223   1.818   1.151   1.612 -0.0188  0.3064  0.0156
   75SOL    HW1  224   1.720   1.150   1.583 -0.1991  0.4665  0.3585
   75SOL    HW2  225   1.828   1.183   1.709  0.7979 -1.9334  3.0133
   76SOL     OW  226   2.028   2.190   1.210 -0.4273  0.2582  0.0999
   76SOL    HW1  227   2.027   2.096   1.252  0.5382  0.5890  0.2076
   76SOL    HW2  228   2.118   2.237   1.214 -1.8243  0.7354 -3.6506
   77SOL     OW  229   2.775   1.639   1.617 -0.0922  0.1508 -0.0478
   77SOL    HW1  230   2.705   1.625   1.692 -1.1341  1.4946  1.4031
   77SOL    HW2  231   2.869   1.672   1.653  1.0953  0.7225  1.0310
   78SOL     OW  232   1.538   0.477   0.568  0.2750  0.3160 -0.6499
   78SOL    HW1  233   1.534   0.503   0.669  1.4029  2.7104  3.9067
   78SOL    HW2  234   1.626   0.437   0.548 -1.3632 -0.1101  0.1299
   79SOL     OW  235   2.348   1.713   1.566  0.3931  0.1753  0.1559
   79SOL    HW1  236   2.338   1.756   1.660 -0.2405  1.7881  2.1807
   79SOL    HW2  237   2.381   1.620   1.575 -0.8194  1.7082  0.0836
   80SOL     OW  238   0.733   0.508   1.442  0.4000  0.1971 -0.7169
   80SOL    HW1  239   0.754   0.425   1.501 -0.9334  0.5929 -1.0238
   80SOL    HW2  240   0.730   0.483   1.344 -0.5103  2.5134  0.1566
   81SOL     OW  241   0.716   2.731   0.968 -0.6672  0.1555 -0.7836
   81SOL    HW1  242   0.786   2.723   0.894 -2.5219 -1.2217 -0.7740
   81SOL    HW2  243   0.644   2.800   0.951  0.4994  0.0990  0.4157
   82SOL     OW  244   1.461   0.018   1.875  0.9027  0.0440 -0.0593
   82SOL    HW1  245   1.531   0.044   1.807 -1.7652  1.0908  2.9633
   82SOL    HW2  246   1.378   0.075   1.884  1.0674  0.2274 -1.1641
   83SOL     OW  247   1.248   1.852   0.774 -0.3209  0.3120  0.1553
   83SOL    HW1  248   1.307   1.895   0.848  0.2937  3.9827  3.7463
   83SOL    HW2  249   1.255   1.920   0.700  1.9632  1.3936  1.4320
   84SOL     OW  250   0.059   1.459   2.867  0.0123  0.1044 -0.4280
   84SOL    HW1  251   0.064   1.354   2.854  1.5943 -1.4521 -0.2389
   84SOL    HW2  252   3.063   1.493   2.869  1.5776  0.0976 -1.0810
   85SOL     OW  253   0.240   2.320   0.910 -0.5766  0.3039 -0.3150
   85SOL    HW1  254   0.268   2.372   0.825  2.4269  0.0989  0.3211
   85SOL    HW2  255   0.296   2.351   0.990  2.9464 -0.4583 -0.4111
   86SOL     OW  256   2.091   2.620   1.593 -0.1756  0.8947 -0.1314
   86SOL    HW1  257   2.195   2.617   1.598  1.6344  0.3982  1.6607
   86SOL    HW2  258   2.046   2.585   1.681 -1.0306  1.2186 -0.9540
   87SOL     OW  259   3.064   2.014   0.590 -0.1888 -0.3444  0.4781
   87SOL    HW1  260   0.029   2.092   0.584 -1.0167 -2.3126  0.6663
   87SOL    HW2  261   3.073   1.952   0.667 -0.2977  0.2027 -1.8763
   88SOL     OW  262   0.928   0.706   1.076 -0.5602 -0.5946 -0.2597
   88SOL    HW1  263   0.907   0.806   1.051  1.5401  1.4172  0.4053
   88SOL    HW2  264   1.028   0.688   1.102  1.3885 -0.0706 -0.1255
   89SOL     OW  265   1.005   3.043   2.010  0.0855  0.2067 -0.4372
   89SOL    HW1  266   0.916   3.083   1.995  1.9214 -0.9200  0.4848
   89SOL    HW2  267   1.075   0.013   2.028 -1.3416  0.0740 -2.8949
   90SOL     OW  268   0.238   2.161   1.381  0.3203 -0.2258  0.2543
   90SOL    HW1  269   0.299   2.105   1.323 -0.7407 -2.4615 -2.1679
   90SOL    HW2  270   0.282   2.191   1.470 -0.7277  1.6943  0.1524
   91SOL     OW  271   1.343   2.039   1.358  0.5845 -0.1323 -0.3314
   91SOL    HW1  272   1.382   2.102   1.424 -1.8052  1.1610 -0.0971
   91SOL    HW2  273   1.415   2.031   1.283  1.5164  2.4645 -0.4241
   92SOL     OW  274   2.687   2.910   1.516  0.4095  0.1170  0.0478
   92SOL    HW1  275   2.696   3.006   1.479  2.4424 -0.0249 -1.1272
   92SOL    HW2  276   2.772   2.871   1.550 -0.0876  0.8804 -1.4018
   93SOL     OW  277   0.111   1.203   2.919 -0.8028  0.3004  0.3814
   93SOL    HW1  278   0.114   1.104   2.900  2.6142 -0.3268  1.3486
   93SOL    HW2  279   0.200   1.230   2.958 -1.7211  2.6500 -1.4568
   94SOL     OW  280   2.838   2.633   1.876  0.1765  0.1167  0.3745
   94SOL    HW1  281   2.844   2.730   1.903  0.0613 -1.3116 -1.7323
   94SOL    HW2  282   2.738   2.616   1.854 -0.6940 -0.6153  1.6728
   95SOL     OW  283   1.477   0.620   2.159 -0.7123  0.2404 -0.4222
   95SOL    HW1  284   1.537   0.567   2.222  1.1152  0.2904  0.8267
   95SOL    HW2  285   1.410   0.664   2.220  1.2535 -2.7157  1.5224
   96SOL     OW  286   2.688   0.563   1.723 -0.1907 -0.3084 -0.0657
   96SOL    HW1  287   2.673   0.471   1.672 -0.3579 -3.6375 -1.2424
   96SOL    HW2  288   2.790   0.568   1.758  2.2567 -2.9073 -1.9708
   97SOL     OW  289   2.415   0.190   1.549  0.0155  0.2011  0.1421
   97SOL    HW1  290   2.507   0.237   1.540 -0.2014 -0.9926 -2.4974
   97SOL    HW2  291   2.343   0.259   1.560 -0.0370  2.3608 -1.0143
   98SOL     OW  292   2.240   2.367   1.302 -0.0982 -0.7253  0.5543
   98SOL    HW1  293   2.213   2.467   1.282 -1.1843  1.0203  2.4313
   98SOL    HW2  294   2.339   2.360   1.318 -1.6086  0.0849  0.2808
   99SOL     OW  295   2.757   0.366   2.009 -0.1841 -0.0684  0.2370
   99SOL    HW1  296   2.775   0.357   2.111 -0.3498 -0.4497  1.4238
   99SOL    HW2  297   2.820   0.433   1.963  1.1991  2.1759 -1.9846
  100SOL     OW  298   2.341   1.801   1.809 -0.0608  0.1062 -0.3431
  100SOL    HW1  299   2.268   1.761   1.871 -1.6696 -2.9989  0.9663
  100SOL    HW2  300   2.410   1.854   1.867  3.4944 -0.2365  1.0518
  101SOL     OW  301   1.898   0.062   0.757  0.4799  0.5056 -0.2542
  101SOL    HW1  302   1.942   0.138   0.816 -0.8755 -1.7803 -0.2233
  101SOL    HW2  303   1.964   3.085   0.749  0.9910 -0.1526  0.5126
  102SOL     OW  304   0.513   0.917   1.347 -0.2837  0.2508  0.0359
  102SOL    HW1  305   0.556   0.862   1.270  1.7716 -0.7398 -0.8672
  102SOL    HW2  306   0.530   0.868   1.429 -2.4331 -0.5851 -7.8390
  103SOL     OW  307   2.565   0.264   0.008 -0.0923  0.0984  0.0605
  103SOL    HW1  308   2.610   0.178   3.078  1.8563 -2.2988 -0.4116
  103SOL    HW2  309   2.605   0.300   0.093 -0.6530 -4.0244 -0.9467
  104SOL     OW  310   2.751   0.174   1.833  0.5544  0.5972  0.1094
  104SOL    HW1  311   2.850   0.155   1.809 -2.5076 -0.3210 -0.8181
  104SOL    HW2  312   2.740   0.254   1.896  0.3461 -1.6753 -0.8823
  105SOL     OW  313   1.820   0.846   2.404 -0.0464  0.2979  0.2949
  105SOL    HW1  314   1.870   0.762   2.428 -3.0723  0.5752 -1.6325
  105SOL    HW2  315   1.881   0.923   2.388 -0.5386 -4.0567 -1.1897
  106SOL     OW  316   1.927   2.858   0.968 -0.1559 -0.1614 -0.2668
  106SOL    HW1  317   1.890   2.909   1.053 -1.0218  2.5217  6.2323
  106SOL    HW2  318   2.026   2.879   0.948  2.5411  1.1504 -0.6863
  107SOL     OW  319   0.798   1.172   0.790  0.1567 -0.0287  0.1579
  107SOL    HW1  320   0.789   1.275   0.790  1.7788  1.8558 -1.2953
  107SOL    HW2  321   0.749   1.136   0.870 -0.8719  3.1990 -3.8683
  108SOL     OW  322   2.807   0.428   2.256  0.3348 -0.1367  0.2410
  108SOL    HW1  323   2.870   0.352   2.276  0.1843 -1.9939 -0.3254
  108SOL    HW2  324   2.720   0.415   2.300  1.8440  3.2339 -0.5275
  109SOL     OW  325   2.030   0.273   0.128 -0.2222  0.2516 -0.5225
  109SOL    HW1  326   2.036   0.270   0.027  0.6270 -0.4396  2.7856
  109SOL    HW2  327   1.984   0.364   0.155  1.3775  0.8959  0.7862
  110SOL     OW  328   0.226   2.117   2.698 -0.1845  0.0607  0.3124
  110SOL    HW1  329   0.249   2.210   2.665  1.8412 -3.1679 -0.4854
  110SOL    HW2  330   0.158   2.072   2.638  0.4785 -0.4519  1.6073
  111SOL     OW  331   2.053   0.268   2.190  0.1007 -0.1277  0.0002
  111SOL    HW1  332   2.096   0.192   2.138  2.1116 -1.4843 -2.1073
  111SOL    HW2  333   2.103   0.283   2.277  0.4522  0.7393 -2.5556
  112SOL     OW  334   2.498   3.003   0.702  0.0358 -0.1334 -0.5827
  112SOL    HW1  335   2.454   3.064   0.772  0.8758  1.8101 -1.3858
  112SOL    HW2  336   2.425   2.968   0.643  1.7199 -1.9584  3.3733
  113SOL     OW  337   2.436   2.396   1.735 -0.0249 -0.6865 -0.3139
  113SOL    HW1  338   2.397   2.422   1.645  1.0872  1.4613  0.6395
  113SOL    HW2  339   2.375   2.414   1.812  1.2730 -1.1422  0.4103
  114SOL     OW  340   2.830   0.645   0.728 -0.5074  0.5027  0.6329
  114SOL    HW1  341   2.877   0.554   0.720 -1.0988  1.8388  0.7824
  114SOL    HW2  342   2.878   0.696   0.802 -0.2092 -0.6823  0.7858
  115SOL     OW  343   2.627   1.780   0.151 -0.9549 -0.1063  0.5698
  115SOL    HW1  344   2.677   1.869   0.180 -1.3568 -0.7147  2.1793
  115SOL    HW2  345   2.637   1.755   0.050  0.4283  1.1138  2.6045
  116SOL     OW  346   2.967   1.654   2.002 -0.0079 -0.2345  0.2629
  116SOL    HW1  347   2.881   1.624   2.044  1.2154  2.3851 -0.8841
  116SOL    HW2  348   2.952   1.685   1.902  0.2151  3.2847 -0.0072
  117SOL     OW  349   2.709   0.024   0.563  0.3505 -0.1582 -0.0902
  117SOL    HW1  350   2.632   3.071   0.607 -0.6197 -1.6662 -0.3372
  117SOL    HW2  351   2.682   0.043   0.468  1.5184 -0.3800  1.0061
  118SOL     OW  352   0.499   2.771   1.550  0.2701 -0.3260 -0.1723
  118SOL    HW1  353   0.484   2.676   1.509 -1.1603 -0.3398  0.1969
  118SOL    HW2  354   0.594   2.796   1.534  0.6303 -0.6479 -1.3095
  119SOL     OW  355   1.661   2.200   1.055  0.2967  0.4378  0.1107
  119SOL    HW1  356   1.733   2.191   0.979 -1.6419  0.9832 -2.1169
  119SOL    HW2  357   1.676   2.278   1.120  0.5455  2.2250  0.2708
  120SOL     OW  358   0.487   1.889   2.198 -0.0545  0.5001 -0.5871
  120SOL    HW1  359   0.508   1.820   2.267  0.6005 -0.2415  0.4324
  120SOL    HW2  360   0.496   1.987   2.223 -2.3757  2.5568  1.3183
  121SOL     OW  361   2.850   1.559   0.895  0.4005 -0.1494  0.1826
  121SOL    HW1  362   2.847   1.609   0.985  0.0127  1.0109 -0.8398
  121SOL    HW2  363   2.841   1.465   0.920  1.8572  1.0521  0.0937
  122SOL     OW  364   1.933   1.575   2.439 -0.1269  0.0951 -0.3461
  122SOL    HW1  365   1.849   1.622   2.404  3.4048 -0.3534  0.8254
  122SOL    HW2  366   2.012   1.639   2.433 -1.8029  0.3425 -0.2102
  123SOL     OW  367   2.771   0.240   0.715  0.1627 -0.9395  0.2482
  123SOL    HW1  368   2.861   0.281   0.706  0.8043  0.6274  1.5434
  123SOL    HW2  369   2.763   0.154   0.666 -1.2029  5.6945 -0.3358
  124SOL     OW  370   1.377   1.226   2.766  0.1906 -0.2491 -0.1678
  124SOL    HW1  371   1.293   1.271   2.804 -1.4515  1.2582  1.4469
  124SOL    HW2  372   1.439   1.206   2.841 -1.2107  2.8024 -0.8793
  125SOL     OW  373   0.309   1.732   2.534  0.0890 -0.5858  0.5496
  125SOL    HW1  374   0.324   1.741   2.635 -2.6973  0.7835  1.1011
  125SOL    HW2  375   0.390   1.697   2.482  0.5352  2.0742 -1.5007
  126SOL     OW  376   2.757   2.004   0.216  0.5493 -0.0886 -0.3904
  126SOL    HW1  377   2.777   2.097   0.181  2.6543  3.2204 -0.5399
  126SOL    HW2  378   2.844   1.968   0.264  1.1645 -2.1830 -2.3026
  127SOL     OW  379   0.569   1.747   0.968 -0.2596 -0.0907 -0.3889
  127SOL    HW1  380   0.499   1.695   1.023  0.0098 -3.1543  2.1779
  127SOL    HW2  381   0.519   1.825   0.930  2.8148 -2.0090  4.5999
  128SOL     OW  382   1.324   0.877   0.065 -0.5382  0.6756 -0.1042
  128SOL    HW1  383   1.311   0.875   0.166 -0.9467 -0.3536  1.4029
  128SOL    HW2  384   1.422   0.909   0.038  2.5576  0.5871 -1.7533
  129SOL     OW  385   2.334   1.505   1.185 -0.4640 -0.1043 -0.0088
  129SOL    HW1  386   2.389   1.590   1.191 -2.2236  1.5013  0.7025
  129SOL    HW2  387   2.240   1.524   1.219  2.4304 -2.3529 -2.3008
  130SOL     OW  388   1.774   1.252   0.548  0.1876 -0.0941  0.0791
  130SOL    HW1  389   1.723   1.343   0.558  0.7710  0.2953  2.1527
  130SOL    HW2  390   1.818   1.233   0.636 -2.0907 -0.8527 -0.6408
  131SOL     OW  391   2.984   1.158   2.556 -0.0110 -0.7093  0.8287
  131SOL    HW1  392   2.990   1.068   2.611  1.6666 -3.2634  1.8883
  131SOL    HW2  393   2.894   1.205   2.567  0.3127 -0.9409 -1.9889
  132SOL     OW  394   2.043   1.614   1.690  0.4720 -0.3359  0.1607
  132SOL    HW1  395   2.119   1.675   1.674 -1.4747  1.1301 -0.2787
  132SOL    HW2  396   2.063   1.548   1.760 -1.5639  3.2454 -3.7570
  133SOL     OW  397   0.259   1.587   2.979  0.7583 -0.0908 -0.4507
  133SOL    HW1  398   0.184   1.535   2.943  0.4162  0.6962 -0.5945
  133SOL    HW2  399   0.262   1.581   3.082 -0.3987  1.1998  2.9874
  134SOL     OW  400   2.698   1.406   3.053  0.6875 -0.2480  0.0200
  134SOL    HW1  401   2.751   1.415   2.966 -0.5987 -0.9741  0.2097
  134SOL    HW2  402   2.702   1.496   3.099 -1.2695  2.4963 -2.3398
  135SOL     OW  403   2.599   1.037   0.183  0.1707  0.0309 -0.1441
  135SOL    HW1  404   2.543   1.048   0.096 -0.9026 -0.7213 -1.2330
  135SOL    HW2  405   2.606   1.130   0.224 -0.5466  0.9216  0.5481
  136SOL     OW  406   2.040   1.342   1.540  0.4146 -0.4933  0.3906
  136SOL    HW1  407   2.040   1.421   1.605  0.0789  4.2801  1.1220
  136SOL    HW2  408   1.947   1.302   1.535 -0.6811  1.1308  2.8638
  137SOL     OW  409   2.474   2.022   0.316  0.2307  0.2253 -0.1854
  137SOL    HW1  410   2.434   1.930   0.339 -1.6092 -1.0325  0.0121
  137SOL    HW2  411   2.574   2.018   0.326  1.0420  0.8891 -0.1025
  138SOL     OW  412   1.644   0.325   1.820 -0.3008 -0.0797  0.2983
  138SOL    HW1  413   1.566   0.367   1.877 -0.5500 -0.4916 -0.7657
  138SOL    HW2  414   1.732   0.376   1.826  0.1475 -1.6541  1.2131
  139SOL     OW  415   2.318   0.168   0.028 -0.1602  0.3924 -0.6479
  139SOL    HW1  416   2.402   0.221   0.007  1.1553  0.8978 -2.1845
  139SOL    HW2  417   2.333   0.102   0.099 -1.4151 -2.0555 -1.2173
  140SOL     OW  418   1.251   1.944   2.557  0.1196  0.0812  0.0622
  140SOL    HW1  419   1.323   1.884   2.596  0.2325  0.2861  0.7603
  140SOL    HW2  420   1.196   2.000   2.630 -0.7892  0.8466  2.0763
  141SOL     OW  421   0.918   0.991   1.999  0.1208 -0.0269  0.1907
  141SOL    HW1  422   0.860   0.977   2.080  1.4816  0.2014 -1.0476
  141SOL    HW2  423   0.964   0.901   1.978  0.2765 -0.5847 -0.7138
  142SOL     OW  424   2.143   2.535   0.074 -0.1391  0.3041  0.0039
  142SOL    HW1  425   2.110   2.602   0.001  1.0140 -1.1488 -0.0980
  142SOL    HW2  426   2.194   2.455   0.022  0.3841 -1.0816 -0.1232
  143SOL     OW  427   0.833   2.006   0.033  0.6624 -0.1943  0.0130
  143SOL    HW1  428   0.908   2.072   0.048  0.6011  2.1929  0.0295
  143SOL    HW2  429   0.746   2.040   0.077 -1.9757  0.5445 -0.0964
  144SOL     OW  430   1.156   2.615   0.195 -0.3521  0.7022 -0.2709
  144SOL    HW1  431   1.161   2.624   0.092 -2.8946 -1.0508 -1.1125
  144SOL    HW2  432   1.107   2.528   0.212 -0.3552 -2.7634  0.3762
  145SOL     OW  433   2.191   1.761   2.975 -0.0305  0.0042  0.4552
  145SOL    HW1  434   2.233   1.822   3.046 -0.2344  1.4488 -1.1353
  145SOL    HW2  435   2.095   1.791   2.955  2.3803  0.4973  2.5166
  146SOL     OW  436   2.482   2.853   2.669 -0.0281  0.0281 -0.1264
  146SOL    HW1  437   2.401   2.876   2.609 -1.5202 -0.2556  0.1235
  146SOL    HW2  438   2.501   2.922   2.737 -0.4477 -1.7097 -1.4181
  147SOL     OW  439   2.742   1.863   1.029  0.6271  0.3075 -0.0006
  147SOL    HW1  440   2.771   1.951   1.061 -0.7850 -1.8520 -2.0783
  147SOL    HW2  441   2.771   1.788   1.091 -0.6120 -0.2184 -2.4754
  148SOL     OW  442   1.826   3.045   3.003  0.2082  0.4637  0.7380
  148SOL    HW1  443   1.750   3.002   2.948 -3.8434 -0.9101  0.7809
  148SOL    HW2  444   1.797   3.041   0.000  0.9433  1.3641 -2.4668
  149SOL     OW  445   1.056   1.388   2.778 -0.1527 -0.3058  0.3209
  149SOL    HW1  446   1.124   1.402   2.855  2.4583  4.6781  0.8453
  149SOL    HW2  447   0.993   1.309   2.793 -0.6396 -2.1096 -3.9571
  150SOL     OW  448   0.646   2.113   0.791  0.1989  0.0992  0.3763
  150SOL    HW1  449   0.646   2.172   0.875  1.1040 -0.4047  1.4174
  150SOL    HW2  450   0.738   2.068   0.777  1.9022  0.8769 -0.6241
  151SOL     OW  451   0.571   1.793   0.156 -0.4109  0.5159  0.5507
  151SOL    HW1  452   0.507   1.741   0.223 -0.8253 -1.0123  0.3852
  151SOL    HW2  453   0.636   1.735   0.100  2.9047  0.1377 -2.4714
  152SOL     OW  454   2.650   1.272   0.273  0.4235  0.4080  0.1382
  152SOL    HW1  455   2.591   1.279   0.357 -1.4648 -1.1427 -1.4420
  152SOL    HW2  456   2.667   1.366   0.243  1.2932 -4.2199  0.9060
  153SOL     OW  457   2.182   2.333   0.431  0.4671  0.1060 -0.1599
  153SOL    HW1  458   2.130   2.276   0.360 -3.0142 -2.5885 -0.5033
  153SOL    HW2  459   2.112   2.386   0.474 -0.0357  0.3697 -3.0123
  154SOL     OW  460   0.632   2.946   0.525  0.1576  0.0985 -0.4126
  154SOL    HW1  461   0.726   2.967   0.569  1.9879  1.3068  2.3269
  154SOL    HW2  462   0.585   2.865   0.567 -1.4373 -4.4040  0.0741
  155SOL     OW  463   0.444   1.942   0.804  0.4869  0.8531  0.7502
  155SOL    HW1  464   0.513   2.015   0.782  2.8861 -3.1014 -1.7192
  155SOL    HW2  465   0.351   1.976   0.830  1.0684  0.9612 -0.5722
  156SOL     OW  466   2.337   2.381   3.066 -0.3308 -0.4005  0.3239
  156SOL    HW1  467   2.388   2.425   2.991 -0.4151  1.7726 -0.4488
  156SOL    HW2  468   2.393   2.335   0.036  1.4313  0.1727 -1.7251
  157SOL     OW  469   1.035   2.148   1.386 -0.3228  0.1484 -0.0376
  157SOL    HW1  470   1.085   2.224   1.433  0.5152 -0.6216  1.6206
  157SOL    HW2  471   0.949   2.132   1.439  1.4734  0.8819  0.5215
  158SOL     OW  472   1.663   0.390   0.220 -0.1548  0.1397 -0.3310
  158SOL    HW1  473   1.634   0.468   0.167  0.6719 -2.0089 -0.7108
  158SOL    HW2  474   1.631   0.306   0.173  0.9691 -0.0721  1.9859
  159SOL     OW  475   1.032   0.551   0.010 -0.5110  0.0704 -0.0638
  159SOL    HW1  476   1.122   0.555   3.064  0.9848  0.7582  0.3372
  159SOL    HW2  477   1.054   0.566   0.107  0.2219  1.6087  1.3471
  160SOL     OW  478   1.084   1.491   0.126  0.2511  0.4118 -0.0442
  160SOL    HW1  479   1.034   1.580   0.116  0.5021  0.0826 -0.4313
  160SOL    HW2  480   1.076   1.461   0.222  0.1357  2.2207 -0.3780
  161SOL     OW  481   0.415   1.995   2.515  0.2056  0.3329  0.4607
  161SOL    HW1  482   0.359   2.035   2.589 -0.5328  0.2881  0.7613
  161SOL    HW2  483   0.398   1.893   2.515 -1.3837 -4.0345 -0.0045
  162SOL     OW  484   0.567   2.483   0.961 -0.6325 -0.3056 -0.2980
  162SOL    HW1  485   0.621   2.572   0.977  1.2470  2.2700  0.0764
  162SOL    HW2  486   0.498   2.458   1.032  1.5399 -1.3482 -2.9091
  163SOL     OW  487   2.938   0.573   0.065 -0.1924 -0.0230 -0.7342
  163SOL    HW1  488   2.942   0.563   3.065  2.4292 -0.0400  1.3178
  163SOL    HW2  489   2.982   0.663   0.086 -0.3685 -0.2909  0.2026
  164SOL     OW  490   0.289   0.071   2.746  0.6118  0.2222  0.1922
  164SOL    HW1  491   0.220   3.094   2.768 -3.4254 -2.9731  2.2010
  164SOL    HW2  492   0.381   0.026   2.746  0.1577 -1.0313 -0.5518
  165SOL     OW  493   2.209   0.373   1.555  0.1888 -0.0820 -0.0297
  165SOL    HW1  494   2.220   0.391   1.458  1.5548  0.3308 -0.4443
  165SOL    HW2  495   2.249   0.449   1.608 -0.2962  0.3492  1.3499
  166SOL     OW  496   2.028   2.828   1.430 -0.5041 -0.6455 -0.1351
  166SOL    HW1  497   1.936   2.813   1.386 -0.4969 -1.5893 -0.7880
  166SOL    HW2  498   2.047   2.746   1.484 -0.5061  0.5008 -0.1631
  167SOL     OW  499   1.183   0.368   1.956  0.9157 -0.4657  0.3149
  167SOL    HW1  500   1.118   0.423   2.013  1.6242  0.6023  1.3065
  167SOL    HW2  501   1.277   0.407   1.958 -1.5477 -0.4602 -1.3180
  168SOL     OW  502   2.480   0.305   2.052  0.3162 -0.0956  0.1392
  168SOL    HW1  503   2.566   0.343   2.012 -1.0264  0.6528 -3.7929
  168SOL    HW2  504   2.474   0.203   2.044  1.2993  0.9661  3.6705
  169SOL     OW  505   0.234   1.510   0.129 -0.4480 -0.2953  0.6530
  169SOL    HW1  506   0.213   1.575   0.200 -2.0521  0.5805  0.9769
  169SOL    HW2  507   0.218   1.414   0.167  0.4286 -2.4754  1.1385
  170SOL     OW  508   0.139   1.629   1.620 -0.1297 -0.3780 -0.3271
  170SOL    HW1  509   0.200   1.699   1.583  0.2625  0.4695 -0.8965
  170SOL    HW2  510   0.079   1.582   1.552 -1.0702 -0.1275  1.9131
  171SOL     OW  511   0.962   2.488   2.197 -0.2304  0.1760 -0.3150
  171SOL    HW1  512   0.888   2.420   2.205 -2.2039  0.4114 -0.8055
  171SOL    HW2  513   1.042   2.432   2.167  2.6627 -0.0695 -0.2881
  172SOL     OW  514   0.788   2.729   1.561  0.1061 -0.0443  0.2563
  172SOL    HW1  515   0.815   2.685   1.651  2.5917  1.0418  2.2339
  172SOL    HW2  516   0.801   2.667   1.479  0.3917 -0.7862 -0.5308
  173SOL     OW  517   1.406   2.284   0.912 -0.2977  0.0591  0.7469
  173SOL    HW1  518   1.463   2.212   0.953  0.2297  3.3645  0.5662
  173SOL    HW2  519   1.395   2.357   0.980  0.5167 -3.3359  0.9008
  174SOL     OW  520   1.344   0.141   0.651  0.0662 -0.2486 -0.0297
  174SOL    HW1  521   1.408   0.165   0.728 -1.9595 -3.3775  0.7283
  174SOL    HW2  522   1.385   0.072   0.592 -3.9227  0.9473  1.1309
  175SOL     OW  523   1.145   1.322   0.355  0.4097  0.1322 -0.0486
  175SOL    HW1  524   1.135   1.375   0.439 -0.4923 -0.8033  1.1571
  175SOL    HW2  525   1.210   1.244   0.354 -0.5937 -1.8527  0.4365
  176SOL     OW  526   1.453   0.704   0.416  0.2612 -0.1212 -0.6401
  176SOL    HW1  527   1.519   0.724   0.345 -3.1352 -0.5028  1.0265
  176SOL    HW2  528   1.460   0.608   0.454  0.2784 -0.1697 -0.4090
  177SOL     OW  529   1.227   0.623   1.345  0.2168 -0.4591 -0.3924
  177SOL    HW1  530   1.149   0.597   1.412 -2.2277 -0.0990  2.2163
  177SOL    HW2  531   1.283   0.701   1.387  0.3486  0.4196  1.0389
  178SOL     OW  532   2.556   1.712   2.788 -0.2466  0.5822  0.2278
  178SOL    HW1  533   2.566   1.663   2.698 -1.6828 -0.6913  0.3717
  178SOL    HW2  534   2.480   1.666   2.838  0.3921 -0.8607 -2.8328
  179SOL     OW  535   0.625   2.541   3.019  0.2129 -0.1706  0.4120
  179SOL    HW1  536   0.604   2.633   2.982  0.8171  1.9771  1.1034
  179SOL    HW2  537   0.689   2.545   3.099  0.2027 -2.6392  0.3590
  180SOL     OW  538   2.020   1.403   1.857  0.6937 -0.6165 -0.4049
  180SOL    HW1  539   2.095   1.339   1.882 -1.1978 -0.8021  1.3704
  180SOL    HW2  540   1.931   1.353   1.862  1.0901 -2.8037  0.2030
  181SOL     OW  541   1.129   1.204   2.357 -0.2283 -0.1995  0.9420
  181SOL    HW1  542   1.137   1.204   2.257  0.2518  2.4007  1.0075
  181SOL    HW2  543   1.176   1.120   2.390 -0.1363 -0.5128 -1.2548
  182SOL     OW  544   3.044   1.132   2.267 -0.1465 -0.4722 -0.6432
  182SOL    HW1  545   0.031   1.182   2.262 -2.1220 -0.3588 -1.0953
  182SOL    HW2  546   3.012   1.120   2.365 -0.2893  0.5842  1.2803
  183SOL     OW  547   1.629   0.474   2.317  0.1403 -0.3086 -0.0583
  183SOL    HW1  548   1.628   0.448   2.414 -0.8589  1.0953 -1.1541
  183SOL    HW2  549   1.726   0.476   2.287 -0.5136  0.6087  0.0302
  184SOL     OW  550   0.153   0.661   1.510  0.3099  0.1272  0.6146
  184SOL    HW1  551   0.253   0.643   1.495  0.5089  2.8192 -2.5155
  184SOL    HW2  552   0.121   0.727   1.436 -1.2438 -0.9505 -1.1345
  185SOL     OW  553   2.214   1.685   0.929 -0.3015 -0.1341  0.5025
  185SOL    HW1  554   2.192   1.773   0.973 -2.2855  0.5221 -0.3365
  185SOL    HW2  555   2.305   1.676   0.890 -3.0903 -0.0921 -0.3502
  186SOL     OW  556   0.595   1.663   2.778 -0.0347  0.5604  0.0604
  186SOL    HW1  557   0.675   1.727   2.778  1.7115  2.1129  0.0631
  186SOL    HW2  558   0.506   1.708   2.797 -1.0398  2.9764  0.7042
  187SOL     OW  559   2.348   1.924   0.026  0.3857 -0.0530 -0.2346
  187SOL    HW1  560   2.447   1.917   0.011 -1.0603  1.7820 -0.5225
  187SOL    HW2  561   2.329   1.889   0.121 -0.5053 -2.5421  2.4730
  188SOL     OW  562   0.678   2.266   0.563 -0.2173 -0.4043 -0.4310
  188SOL    HW1  563   0.663   2.215   0.649 -1.5873 -0.5502 -0.9163
  188SOL    HW2  564   0.620   2.233   0.488  0.6438 -4.5067 -0.0404
  189SOL     OW  565   2.177   0.600   2.807  0.3929 -0.5082  0.5314
  189SOL    HW1  566   2.082   0.636   2.812  0.1765  0.1383  0.2988
  189SOL    HW2  567   2.246   0.674   2.826 -1.8670  0.9073 -1.6311
  190SOL     OW  568   1.155   1.816   2.141 -0.1167  0.0273  0.5042
  190SOL    HW1  569   1.140   1.918   2.152  1.5932  1.3004  0.6190
  190SOL    HW2  570   1.140   1.777   2.228  3.0006  0.2435 -1.5212
  191SOL     OW  571   2.266   0.771   1.195  0.1793  0.1180  0.6664
  191SOL    HW1  572   2.341   0.831   1.229 -2.5060  2.0296 -1.4516
  191SOL    HW2  573   2.273   0.747   1.094  2.0178 -0.0491 -0.2180
  192SOL     OW  574   2.057   0.405   1.961 -0.0871  0.2338 -0.5705
  192SOL    HW1  575   2.136   0.465   1.980 -1.3171  1.2654  1.5473
  192SOL    HW2  576   2.049   0.345   2.046  0.1674 -0.5129  2.2336
  193SOL     OW  577   0.033   0.482   0.941  0.3693  0.3398 -0.0394
  193SOL    HW1  578   0.048   0.407   1.013  0.3153  0.0152  1.5076
  193SOL    HW2  579   0.110   0.554   0.946  1.4934 -1.2290  1.8435
  194SOL     OW  580   1.529   2.430   1.642 -0.1075 -0.3437 -0.3898
  194SOL    HW1  581   1.512   2.526   1.616 -0.1283  1.5422  0.8521
  194SOL    HW2  582   1.629   2.400   1.649 -0.8074 -2.0720  1.2762
  195SOL     OW  583   2.555   0.643   0.717 -0.0824 -0.5434 -0.3229
  195SOL    HW1  584   2.527   0.548   0.694  1.1948 -1.5142  1.4713
  195SOL    HW2  585   2.656   0.657   0.724 -0.6957  1.7588  1.0904
  196SOL     OW  586   1.194   1.937   1.605  0.1742  0.4502 -0.0964
  196SOL    HW1  587   1.227   1.986   1.520 -0.7561  2.2734  0.9835
  196SOL    HW2  588   1.254   1.861   1.628 -0.0879  1.6162  2.0531
  197SOL     OW  589   0.168   0.307   2.717 -0.6403  0.0338  0.7300
  197SOL    HW1  590   0.223   0.219   2.720 -0.3424 -1.5729  0.9865
  197SOL    HW2  591   0.214   0.381   2.659 -0.0447  0.1962  2.1354
  198SOL     OW  592   1.178   0.907   0.638 -0.0218 -0.1273  0.6220
  198SOL    HW1  593   1.201   0.807   0.648 -0.2374 -2.6838 -1.6880
  198SOL    HW2  594   1.141   0.925   0.541 -0.8187 -0.1070 -1.4110
  199SOL     OW  595   2.452   0.638   1.878 -0.1436 -0.4595  0.1519
  199SOL    HW1  596   2.461   0.734   1.904  0.4760 -1.4882 -0.8332
  199SOL    HW2  597   2.533   0.599   1.830  1.0224 -1.4938 -0.2932
  200SOL     OW  598   2.423   2.683   2.141  0.1660  0.1711 -0.1594
  200SOL    HW1  599   2.423   2.774   2.189  2.1793 -0.9774 -1.2184
  200SOL    HW2  600   2.514   2.642   2.144 -2.5127 -0.9251  0.7198
  201SOL     OW  601   2.677   0.320   1.615  0.3481 -0.0465 -1.2575
  201SOL    HW1  602   2.682   0.255   1.693  1.0712 -0.2914  0.0690
  201SOL    HW2  603   2.760   0.305   1.558 -0.1533  0.2430 -1.5114
  202SOL     OW  604   2.145   2.996   0.208 -0.3625 -0.1518  0.5025
  202SOL    HW1  605   2.060   3.048   0.231 -0.1600  0.5055  2.5603
  202SOL    HW2  606   2.126   2.936   0.128 -1.1332  0.8580 -0.6871
  203SOL     OW  607   1.120   2.075   2.230 -0.9708  0.0018 -0.0128
  203SOL    HW1  608   1.023   2.090   2.256 -2.4521 -0.4461  0.4488
  203SOL    HW2  609   1.185   2.114   2.301 -1.5503  1.2668  2.7712
  204SOL     OW  610   1.119   1.443   2.506  0.2240  0.4163  0.1215
  204SOL    HW1  611   1.087   1.422   2.600  0.2305 -1.9559  0.2768
  204SOL    HW2  612   1.128   1.354   2.453 -0.3912 -3.0160 -2.5314
  205SOL     OW  613   0.792   1.251   1.280 -0.2931 -0.1918 -0.5476
  205SOL    HW1  614   0.832   1.160   1.293 -0.8314  0.5860 -0.7781
  205SOL    HW2  615   0.865   1.320   1.266  0.4863  0.8088  1.7257
  206SOL     OW  616   0.474   0.399   2.776 -0.3335  0.4487 -0.1740
  206SOL    HW1  617   0.404   0.470   2.746 -1.3998 -1.2646  2.1415
  206SOL    HW2  618   0.424   0.324   2.826 -0.4872 -1.3136  0.4360
  207SOL     OW  619   1.634   2.674   2.551  0.3020  0.5525  0.0713
  207SOL    HW1  620   1.702   2.749   2.528  1.4744 -0.0560 -2.0715
  207SOL    HW2  621   1.540   2.691   2.512  1.2403  1.5961  0.0557
  208SOL     OW  622   0.842   2.597   1.331 -0.0631  0.1875  0.0024
  208SOL    HW1  623   0.896   2.660   1.270 -3.9725 -0.2592  3.7438
  208SOL    HW2  624   0.863   2.500   1.298  0.8705 -1.5691 -1.6741
  209SOL     OW  625   1.580   1.356   2.646 -0.0574 -0.4038  0.1194
  209SOL    HW1  626   1.593   1.292   2.565 -3.3876 -0.0870 -0.9875
  209SOL    HW2  627   1.519   1.311   2.715  0.0288 -0.2152  4.0264
  210SOL     OW  628   1.863   1.074   0.876  0.5646 -0.1782 -0.6025
  210SOL    HW1  629   1.926   1.053   0.954 -0.0039 -0.6933 -0.1362
  210SOL    HW2  630   1.899   1.034   0.790 -0.7281  1.0618  2.3151
  211SOL     OW  631   0.840   2.492   0.544 -0.4904  0.0663 -0.0712
  211SOL    HW1  632   0.782   2.411   0.540 -0.2271  1.8826 -0.4786
  211SOL    HW2  633   0.848   2.539   0.454  0.2625 -0.8910  2.7233
  212SOL     OW  634   1.890   1.736   0.416  0.2777  0.3814 -0.1107
  212SOL    HW1  635   1.890   1.834   0.404 -1.7993 -3.1842 -2.7238
  212SOL    HW2  636   1.929   1.706   0.508  2.0281 -0.3677  2.7611
  213SOL     OW  637   1.763   0.442   2.955  0.1194  0.8422 -0.1174
  213SOL    HW1  638   1.826   0.362   2.957 -0.1339  0.3797  0.1439
  213SOL    HW2  639   1.667   0.422   2.924 -0.3221  0.3708  0.8888
  214SOL     OW  640   1.165   1.552   2.150 -0.0963 -0.2462  0.3455
  214SOL    HW1  641   1.080   1.504   2.121 -0.0083 -0.2127 -3.2287
  214SOL    HW2  642   1.155   1.653   2.133  1.0227 -1.2986 -0.4190
  215SOL     OW  643   0.871   1.726   0.294  0.1365 -0.0891 -0.0125
  215SOL    HW1  644   0.899   1.736   0.196  0.6994  0.6908 -0.6037
  215SOL    HW2  645   0.771   1.741   0.308 -0.3931 -1.8188  0.4320
  216SOL     OW  646   0.213   2.751   2.605  0.8050  0.5109 -0.2481
  216SOL    HW1  647   0.275   2.675   2.576  1.3242  1.0879  0.2185
  216SOL    HW2  648   0.131   2.708   2.643  1.3382 -2.2198 -0.5242
  217SOL     OW  649   2.538   0.779   0.988  0.0870 -0.1292  0.6392
  217SOL    HW1  650   2.527   0.734   0.896  1.2089  1.9666 -0.9242
  217SOL    HW2  651   2.539   0.715   1.068 -1.1490 -0.2672 -0.0121
  218SOL     OW  652   1.733   1.722   2.351  0.0790  0.1614  0.8620
  218SOL    HW1  653   1.738   1.755   2.251 -0.1381 -1.6658 -1.4159
  218SOL    HW2  654   1.686   1.790   2.407  1.1324 -3.2371 -1.6410
  219SOL     OW  655   2.066   1.625   0.206 -0.0664 -0.1399 -0.3699
  219SOL    HW1  656   2.028   1.613   0.112  1.9088 -0.8381  1.9354
  219SOL    HW2  657   1.990   1.664   0.259 -2.0198 -3.4855  4.0247
  220SOL     OW  658   1.518   1.091   0.489 -0.1176  0.0729  0.1212
  220SOL    HW1  659   1.448   1.112   0.557  0.7938  2.3363  1.4423
  220SOL    HW2  660   1.608   1.135   0.514  0.1286  0.2369  0.6308
  221SOL     OW  661   0.662   0.603   2.913 -0.0186  0.1600 -0.3946
  221SOL    HW1  662   0.599   0.578   2.992 -0.9577  1.1420 -0.7501
  221SOL    HW2  663   0.617   0.569   2.827  0.5652  1.6439 -0.3020
  222SOL     OW  664   1.404   1.425   0.157  0.0949  0.4420  0.1654
  222SOL    HW1  665   1.443   1.493   0.223  1.7059  1.0251  0.0922
  222SOL    HW2  666   1.305   1.436   0.140  2.9905 -0.9846  0.7516
  223SOL     OW  667   1.262   0.313   0.140 -0.6728 -0.2751 -0.1039
  223SOL    HW1  668   1.202   0.390   0.160 -1.1314  0.6610  0.4765
  223SOL    HW2  669   1.304   0.276   0.230  1.0365 -0.4103  4.0041
  224SOL     OW  670   2.036   3.089   1.509  0.3193 -0.1192 -0.6899
  224SOL    HW1  671   2.058   3.083   1.605  0.1191 -0.6958  0.1039
  224SOL    HW2  672   2.036   2.994   1.460 -1.8815 -1.9130 -2.2552
  225SOL     OW  673   0.302   2.660   1.266 -0.7915  0.0441  0.0845
  225SOL    HW1  674   0.350   2.622   1.347 -0.1484  0.5048 -0.6585
  225SOL    HW2  675   0.363   2.719   1.209 -1.8931  0.7850 -0.6547
  226SOL     OW  676   1.236   1.448   2.978  0.7403  0.0615  0.3360
  226SOL    HW1  677   1.311   1.509   2.954  3.1898 -0.9659  1.1560
  226SOL    HW2  678   1.189   1.486   3.061  1.8449  0.3001  2.7263
  227SOL     OW  679   1.022   1.361   0.897 -0.2967 -0.3582  0.0307
  227SOL    HW1  680   1.034   1.463   0.878  2.5059  0.2868 -2.3724
  227SOL    HW2  681   1.073   1.334   0.985 -0.7186 -2.0528  0.0806
  228SOL     OW  682   0.158   1.697   0.630  0.2768 -0.3635 -0.1168
  228SOL    HW1  683   0.251   1.671   0.672 -0.4440  3.7977 -2.1928
  228SOL    HW2  684   0.103   1.769   0.678 -0.0485  2.3451  1.3578
  229SOL     OW  685   1.429   0.121   3.001  0.3405 -0.2761 -0.2585
  229SOL    HW1  686   1.486   0.116   2.914  0.6127  3.9798 -1.8997
  229SOL    HW2  687   1.364   0.198   2.999 -0.7759  1.5251 -1.6513
  230SOL     OW  688   1.506   0.936   2.746 -0.5870  0.1660  0.4370
  230SOL    HW1  689   1.591   0.967   2.791 -1.0232  0.0935  0.8000
  230SOL    HW2  690   1.425   0.992   2.762  4.8897 -0.5994 -1.5465
  231SOL     OW  691   1.155   1.740   2.406 -0.2244 -0.1054 -0.2579
  231SOL    HW1  692   1.150   1.795   2.496 -0.6295  0.3721 -2.7479
  231SOL    HW2  693   1.156   1.640   2.418 -0.4930 -0.5984  3.0000
  232SOL     OW  694   2.410   2.180   0.536 -0.4189  0.1491 -0.5692
  232SOL    HW1  695   2.338   2.248   0.524  0.9730  0.5185 -1.6132
  232SOL    HW2  696   2.441   2.150   0.440  0.4717 -0.0182 -2.6748
  233SOL     OW  697   2.326   2.549   0.269  0.0651  0.1412  0.7387
  233SOL    HW1  698   2.274   2.532   0.184 -0.6255 -0.4032  0.6059
  233SOL    HW2  699   2.291   2.489   0.343  0.5195 -0.4183  0.1919
  234SOL     OW  700   0.722   0.835   2.784 -0.1107 -0.4336 -0.3800
  234SOL    HW1  701   0.721   0.757   2.849 -2.2120  2.4314 -1.0007
  234SOL    HW2  702   0.719   0.927   2.826  3.1453  1.9593  0.8519
  235SOL     OW  703   2.835   0.367   2.664 -0.3198  0.3066  0.0002
  235SOL    HW1  704   2.789   0.298   2.721 -2.6668 -1.0925 -3.5243
  235SOL    HW2  705   2.773   0.421   2.608 -0.8001 -1.6828 -0.9895
  236SOL     OW  706   1.966   2.543   1.836 -0.3469 -0.2013  0.1844
  236SOL    HW1  707   1.934   2.457   1.880  1.4470  2.5687  0.6952
  236SOL    HW2  708   1.954   2.622   1.900  3.6372 -0.6388 -0.3649
  237SOL     OW  709   0.647   1.641   2.012  0.2188 -0.1210 -0.2472
  237SOL    HW1  710   0.715   1.720   2.003 -0.2964  1.3119 -0.6030
  237SOL    HW2  711   0.674   1.572   2.084 -1.3934  0.2099  2.1918
  238SOL     OW  712   1.534   0.448   2.759  0.3451  0.0852 -0.1710
  238SOL    HW1  713   1.477   0.530   2.741 -0.2788  2.1699  0.8889
  238SOL    HW2  714   1.482   0.369   2.797  0.2053  1.4702 -0.1794
  239SOL     OW  715   0.377   2.204   1.610 -0.3029  0.2061 -0.1885
  239SOL    HW1  716   0.323   2.266   1.668 -0.3433 -2.7924  0.9836
  239SOL    HW2  717   0.439   2.148   1.673  1.1816 -1.7186  2.8683
  240SOL     OW  718   2.663   2.292   0.578  0.2876  0.1203  0.6900
  240SOL    HW1  719   2.639   2.389   0.590 -0.3664 -3.0096 -0.6881
  240SOL    HW2  720   2.576   2.236   0.586 -0.6735 -0.4055 -0.4116
  241SOL     OW  721   2.672   1.005   0.869 -0.1107  0.0326  0.6288
  241SOL    HW1  722   2.636   0.919   0.909 -0.5770 -2.5671  0.9964
  241SOL    HW2  723   2.596   1.041   0.809 -0.5838 -1.5912 -0.5356
  242SOL     OW  724   2.263   2.504   2.286  0.0561 -0.0224  0.1736
  242SOL    HW1  725   2.180   2.470   2.236 -1.2714  0.2861 -0.2253
  242SOL    HW2  726   2.330   2.556   2.232 -1.6151 -1.4192  1.0332
  243SOL     OW  727   0.912   2.412   1.675  0.3107  0.1595 -0.1767
  243SOL    HW1  728   0.914   2.509   1.705  2.0640  0.6882  0.6970
  243SOL    HW2  729   0.956   2.400   1.583 -1.4716  0.4466  0.0293
  244SOL     OW  730   1.575   0.137   2.760  0.3737 -0.1598  0.1121
  244SOL    HW1  731   1.663   0.125   2.705 -1.6393  1.7298  0.0705
  244SOL    HW2  732   1.499   0.089   2.712 -0.5179  1.6026 -1.1635
  245SOL     OW  733   1.362   0.073   1.313 -0.2392 -0.1488  0.4379
  245SOL    HW1  734   1.273   0.098   1.270 -0.3459  0.0893  0.3646
  245SOL    HW2  735   1.368   3.074   1.332 -0.3997  1.1317 -1.0194
  246SOL     OW  736   1.677   2.496   0.229  0.3631 -1.2700 -0.0526
  246SOL    HW1  737   1.764   2.469   0.181 -1.5532 -1.2632 -0.4855
  246SOL    HW2  738   1.598   2.467   0.172 -2.8656  2.7004 -1.8673
  247SOL     OW  739   1.233   0.571   2.527 -0.2122  0.0768  0.2915
  247SOL    HW1  740   1.136   0.583   2.504  0.4814  0.3079  0.3934
  247SOL    HW2  741   1.251   0.476   2.553 -1.7308  0.9212 -2.5426
  248SOL     OW  742   0.554   2.063   1.754 -0.7947 -0.2137 -0.5696
  248SOL    HW1  743   0.613   2.132   1.804 -0.2799  1.4735  0.0501
  248SOL    HW2  744   0.531   1.987   1.819  1.2848 -2.2394  2.5109
  249SOL     OW  745   2.186   0.102   0.570  0.2704 -0.0476 -0.1104
  249SOL    HW1  746   2.208   0.156   0.489 -3.0387  0.8410  3.4438
  249SOL    HW2  747   2.133   0.020   0.550 -0.2494  2.8824 -2.1493
  250SOL     OW  748   0.084   0.546   0.390 -0.0597 -0.1677  0.7161
  250SOL    HW1  749   0.148   0.481   0.345  0.7163  1.5685 -1.5794
  250SOL    HW2  750   3.090   0.507   0.395 -4.6207 -1.3797  1.0562
  251SOL     OW  751   1.285   0.634   3.004 -0.5904  0.8445 -0.0347
  251SOL    HW1  752   1.329   0.701   3.061  0.1367  1.3629 -3.0420
  251SOL    HW2  753   1.308   0.649   2.906 -0.3694 -0.8975  0.3464
  252SOL     OW  754   1.773   1.846   2.108 -0.1866 -0.0480 -0.4877
  252SOL    HW1  755   1.857   1.866   2.052 -0.6969  3.6358 -3.1102
  252SOL    HW2  756   1.708   1.794   2.050  3.5217  2.1472  3.0671
  253SOL     OW  757   2.517   2.322   1.370 -0.0212  0.4256  0.5435
  253SOL    HW1  758   2.550   2.275   1.456  0.1168  0.9637  1.3355
  253SOL    HW2  759   2.590   2.316   1.297 -2.5332 -0.5297  0.1507
  254SOL     OW  760   2.913   1.043   1.287 -0.0389 -0.1697 -0.9143
  254SOL    HW1  761   2.963   1.061   1.377 -1.4895  2.0099  0.1653
  254SOL    HW2  762   2.963   1.075   1.206  0.8100  1.1359 -2.2157
  255SOL     OW  763   1.238   0.344   0.994 -0.9973 -0.1136  0.5316
  255SOL    HW1  764   1.188   0.291   1.064  2.7406  1.7809 -1.2464
  255SOL    HW2  765   1.234   0.444   1.022  0.6999 -0.0621 -1.0986
  256SOL     OW  766   1.832   2.296   1.377  0.3124 -0.1983 -0.4335
  256SOL    HW1  767   1.816   2.240   1.460  0.7695 -0.5470 -0.6322
  256SOL    HW2  768   1.901   2.259   1.306  1.1520  0.4685 -0.9352
  257SOL     OW  769   0.478   2.983   2.660  0.2903  0.4141 -0.1627
  257SOL    HW1  770   0.502   2.888   2.689 -0.2156 -0.8513  0.0343
  257SOL    HW2  771   0.505   2.997   2.563 -0.3711 -1.8856 -4.1481
  258SOL     OW  772   0.904   2.113   0.334  0.2477  0.2073 -0.2406
  258SOL    HW1  773   0.810   2.135   0.302 -1.3391 -1.7953 -0.2318
  258SOL    HW2  774   0.906   2.023   0.389 -2.1535  1.1935  1.6078
  259SOL     OW  775   1.073   0.002   2.717  0.2674  0.2361 -0.2794
  259SOL    HW1  776   0.977   3.067   2.713  0.2014  0.2055  2.1930
  259SOL    HW2  777   1.135   3.052   2.651  1.8906  0.1529 -0.0046
  260SOL     OW  778   1.993   0.603   1.025  0.0279  0.4558  0.3528
  260SOL    HW1  779   1.979   0.669   1.099 -0.0527 -3.0309 -1.5604
  260SOL    HW2  780   1.915   0.536   1.027 -0.3581 -0.5938 -2.0329
  261SOL     OW  781   0.509   0.370   2.275  0.5454 -0.1305  0.1702
  261SOL    HW1  782   0.417   0.364   2.232  0.5433  0.8675  1.3218
  261SOL    HW2  783   0.523   0.467   2.311 -0.8369  2.5880  0.4891
  262SOL     OW  784   0.143   2.303   1.954 -0.1298  0.0646 -0.8120
  262SOL    HW1  785   0.215   2.288   2.035  2.3103 -1.4949  1.8069
  262SOL    HW2  786   0.198   2.355   1.885 -0.4919  2.9731  1.5469
  263SOL     OW  787   2.999   1.511   2.350 -0.0495 -0.1055  0.3584
  263SOL    HW1  788   3.080   1.504   2.405  0.6575 -0.6688 -1.6230
  263SOL    HW2  789   2.978   1.610   2.331  0.4139  0.9277  0.0296
  264SOL     OW  790   1.090   1.061   0.846 -0.0693  0.6159 -0.3667
  264SOL    HW1  791   1.008   1.111   0.816 -1.3324  3.0337  0.8906
  264SOL    HW2  792   1.108   0.981   0.779  0.5176  1.4062 -1.1609
  265SOL     OW  793   1.346   2.503   1.064 -0.2448  0.3391 -0.3720
  265SOL    HW1  794   1.337   2.437   1.148 -1.0386 -2.1570  1.3705
  265SOL    HW2  795   1.419   2.572   1.085  2.7366  0.7985  0.0889
  266SOL     OW  796   1.649   0.907   1.414  0.2612 -0.1898  0.0738
  266SOL    HW1  797   1.692   0.825   1.456 -1.2930 -2.0642  1.0764
  266SOL    HW2  798   1.679   0.923   1.321 -0.3005 -1.7444  1.6470
  267SOL     OW  799   2.379   1.074   3.057 -0.3445 -0.1302 -0.0554
  267SOL    HW1  800   2.402   1.022   2.972  0.2516  0.2181 -2.0868
  267SOL    HW2  801   2.328   1.016   0.021 -0.1836  0.8996  1.3250
  268SOL     OW  802   1.394   0.283   0.389 -0.0242 -0.5123 -0.4427
  268SOL    HW1  803   1.403   0.184   0.413 -1.7937 -3.7999  1.2830
  268SOL    HW2  804   1.452   0.341   0.446  0.3819 -0.8640 -1.1747
  269SOL     OW  805   2.840   0.738   2.588  0.1825 -0.4692  0.1770
  269SOL    HW1  806   2.852   0.728   2.485 -0.8384  1.2771 -2.4083
  269SOL    HW2  807   2.748   0.712   2.616  1.1039  3.2932  0.0922
  270SOL     OW  808   0.279   1.355   2.711 -0.1095 -0.2374  0.1492
  270SOL    HW1  809   0.355   1.299   2.748  3.1215 -0.5408 -0.0119
  270SOL    HW2  810   0.233   1.407   2.787  1.0354 -0.9073  2.8955
  271SOL     OW  811   2.844   1.023   0.035  0.5244  0.1106 -0.7501
  271SOL    HW1  812   2.757   1.054   0.078  3.3165  0.6921  0.7356
  271SOL    HW2  813   2.890   1.095   3.080 -1.0752  0.2944  0.3575
  272SOL     OW  814   2.743   2.524   2.501 -0.0402 -0.2582 -0.7275
  272SOL    HW1  815   2.807   2.604   2.504  0.5632  1.1303 -0.1409
  272SOL    HW2  816   2.794   2.440   2.530  0.3531 -0.5348 -0.5511
  273SOL     OW  817   2.961   3.072   2.894 -0.3457 -0.3529  0.2014
  273SOL    HW1  818   2.896   0.021   2.953  0.0846 -0.8282 -0.2361
  273SOL    HW2  819   3.051   3.061   2.946  4.0845 -0.1758  1.4092
  274SOL     OW  820   0.800   2.341   0.937 -0.3705 -0.0664 -0.6973
  274SOL    HW1  821   0.718   2.398   0.945 -1.5606  1.3751  0.8841
  274SOL    HW2  822   0.862   2.383   0.866 -0.7353  3.5734  1.7456
  275SOL     OW  823   2.165   0.790   0.535 -0.3682 -0.4472  0.6480
  275SOL    HW1  824   2.178   0.694   0.504  2.8358  2.2617  0.8481
  275SOL    HW2  825   2.256   0.830   0.560 -0.8953  1.5405 -0.6111
  276SOL     OW  826   2.810   1.457   1.439  0.1972 -0.3878 -0.0761
  276SOL    HW1  827   2.716   1.435   1.409  0.9889  2.6163  2.8513
  276SOL    HW2  828   2.804   1.535   1.508  0.9719  2.1544 -0.7744
  277SOL     OW  829   2.167   3.030   1.141 -0.1038 -0.3225 -0.2609
  277SOL    HW1  830   2.079   2.984   1.151 -0.8313  1.5365 -1.3853
  277SOL    HW2  831   2.209   3.055   1.233  1.0794  0.1050  1.6569
  278SOL     OW  832   1.373   2.666   2.451 -0.6679 -0.4333  0.6269
  278SOL    HW1  833   1.353   2.575   2.414 -2.0242  1.7488  1.2840
  278SOL    HW2  834   1.289   2.704   2.496  2.1110 -3.3002  0.0814
  279SOL     OW  835   1.548   1.999   1.172 -0.1243  1.0455 -0.2164
  279SOL    HW1  836   1.608   1.944   1.234 -1.5815 -0.8985  2.1417
  279SOL    HW2  837   1.594   2.077   1.130 -1.3469  2.7457  2.5072
  280SOL     OW  838   0.360   1.498   0.927 -0.3586 -0.3118 -0.1777
  280SOL    HW1  839   0.267   1.533   0.961  0.5028 -1.2606  1.5135
  280SOL    HW2  840   0.422   1.495   1.011 -0.9974  3.0081  1.4116
  281SOL     OW  841   2.820   1.379   2.802  0.3183 -0.5611 -0.4441
  281SOL    HW1  842   2.780   1.337   2.717 -0.1994 -0.1303 -1.7722
  281SOL    HW2  843   2.877   1.457   2.768 -1.1698 -0.3525 -1.7322
  282SOL     OW  844   0.412   1.664   0.352 -0.4205 -0.6716 -0.5001
  282SOL    HW1  845   0.318   1.663   0.383 -1.6209  1.4303  0.1539
  282SOL    HW2  846   0.439   1.578   0.310  0.0612  0.2935  0.8515
  283SOL     OW  847   1.894   2.404   0.051 -0.1375 -0.3777 -0.0845
  283SOL    HW1  848   1.984   2.442   0.036 -1.6247  1.6767 -0.5262
  283SOL    HW2  849   1.851   2.365   3.067 -1.4069 -1.5986 -0.1287
  284SOL     OW  850   1.156   0.002   0.866 -0.0827  0.1174 -0.2938
  284SOL    HW1  851   1.168   0.082   0.808  0.0827  0.2351 -0.5978
  284SOL    HW2  852   1.189   3.018   0.818 -2.0109 -1.2262  1.9325
  285SOL     OW  853   2.240   1.067   2.750  0.1933 -0.1021 -0.3685
  285SOL    HW1  854   2.227   1.136   2.672  0.5922 -1.3081  3.1640
  285SOL    HW2  855   2.163   1.086   2.823 -0.9968  0.5210  1.8224
  286SOL     OW  856   2.026   2.417   1.003 -0.2547 -0.2871  0.2564
  286SOL    HW1  857   2.048   2.324   1.038  4.6105 -1.7198 -1.1031
  286SOL    HW2  858   2.112   2.476   0.994  4.1963  3.6760  1.2006
  287SOL     OW  859   1.444   0.204   0.908 -0.2573 -0.2042  0.1228
  287SOL    HW1  860   1.489   0.139   0.973  3.1799 -1.9403 -1.5282
  287SOL    HW2  861   1.366   0.257   0.953 -0.4143  0.1301 -0.6449
  288SOL     OW  862   0.789   2.421   2.817  0.7198 -0.2644  0.1354
  288SOL    HW1  863   0.856   2.494   2.792 -0.5738 -1.3270  0.3941
  288SOL    HW2  864   0.732   2.455   2.898  1.7181 -2.7244 -0.8522
  289SOL     OW  865   0.024   1.498   0.762  0.2263 -0.4288  0.3691
  289SOL    HW1  866   3.099   1.527   0.856 -1.8109  0.1769  1.1772
  289SOL    HW2  867   0.094   1.563   0.721  1.9101  2.5181 -0.0402
  290SOL     OW  868   1.432   1.984   0.927  0.2568 -0.0885  0.1849
  290SOL    HW1  869   1.473   1.984   1.019  3.3484  0.2642 -1.1397
  290SOL    HW2  870   1.497   1.955   0.854  0.9208  1.7871 -0.0315
  291SOL     OW  871   1.307   3.009   0.336 -0.3258 -0.5371 -0.4570
  291SOL    HW1  872   1.324   2.907   0.330  0.4889  0.7254 -0.9657
  291SOL    HW2  873   1.232   3.050   0.281  2.0939  2.3933 -0.4455
  292SOL     OW  874   0.501   0.429   1.974  0.2566 -0.0788 -0.2869
  292SOL    HW1  875   0.483   0.450   2.071 -0.1640  2.2748 -0.3246
  292SOL    HW2  876   0.602   0.430   1.947  0.4607 -1.3368 -1.0389
  293SOL     OW  877   2.472   1.740   1.159 -0.2399 -0.5689  0.3220
  293SOL    HW1  878   2.509   1.793   1.080 -0.2403 -1.0902 -1.3581
  293SOL    HW2  879   2.441   1.803   1.233  1.5868 -0.1758 -0.0418
  294SOL     OW  880   0.939   0.299   2.307 -0.2466 -0.1363 -0.2799
  294SOL    HW1  881   0.932   0.348   2.395  0.8102  0.2489 -0.7218
  294SOL    HW2  882   0.855   0.243   2.287 -1.4963  1.9833  1.3818
  295SOL     OW  883   1.646   1.430   1.299 -0.7559 -0.0841 -0.2696
  295SOL    HW1  884   1.649   1.344   1.351  0.5983  0.1330 -3.5719
  295SOL    HW2  885   1.666   1.505   1.362  0.9706 -3.6151 -1.9482
  296SOL     OW  886   2.395   1.771   0.327  0.1907  0.1851  0.2473
  296SOL    HW1  887   2.361   1.674   0.316  0.2245 -0.1606 -0.7043
  296SOL    HW2  888   2.481   1.778   0.273  0.1163 -0.6530 -0.9782
  297SOL     OW  889   2.594   0.139   0.327  0.4941  0.0508  0.1271
  297SOL    HW1  890   2.524   0.073   0.294  0.6556  1.1450 -1.1614
  297SOL    HW2  891   2.559   0.233   0.345 -2.1009 -0.0771 -1.7842
  298SOL     OW  892   0.710   0.164   2.984 -0.1696 -0.5497  0.6313
  298SOL    HW1  893   0.689   0.133   2.887 -2.1485 -4.0180  0.5988
  298SOL    HW2  894   0.767   0.250   2.984 -0.4560  2.1380  0.3362
  299SOL     OW  895   0.758   2.314   2.249  0.5255 -0.4108  0.0583
  299SOL    HW1  896   0.789   2.214   2.264 -0.7348 -2.7136 -2.5348
  299SOL    HW2  897   0.700   2.343   2.327 -0.7043  0.6406 -1.9645
  300SOL     OW  898   2.844   0.015   2.402 -0.4717  0.3808  0.5198
  300SOL    HW1  899   2.872   0.106   2.357  1.2422  1.9066 -0.0971
  300SOL    HW2  900   2.911   0.001   2.476  3.0517 -0.3555 -1.2228
  301SOL     OW  901   1.110   0.496   1.571 -0.0875 -0.9502  0.3112
  301SOL    HW1  902   1.214   0.488   1.563  4.9003 -0.3538 -2.2388
  301SOL    HW2  903   1.068   0.414   1.610  1.2523  2.6404 -1.3489
  302SOL     OW  904   2.834   2.265   2.822  0.3267 -0.5197  0.0372
  302SOL    HW1  905   2.851   2.283   2.919  1.4072  0.6041 -3.2129
  302SOL    HW2  906   2.753   2.205   2.811  0.5700  0.2048 -3.0133
  303SOL     OW  907   2.382   2.558   1.500 -0.1217 -0.1351  0.1251
  303SOL    HW1  908   2.462   2.521   1.451  0.5556  1.9393  0.4552
  303SOL    HW2  909   2.413   2.639   1.550 -2.2180 -1.7107  0.7069
  304SOL     OW  910   2.660   0.834   1.698 -0.3398  0.1630 -0.2806
  304SOL    HW1  911   2.668   0.732   1.713  1.6453 -0.9709  2.2536
  304SOL    HW2  912   2.746   0.884   1.715 -3.1669  0.8123  3.0952
  305SOL     OW  913   0.840   1.768   0.979 -0.2743 -0.0768 -0.0070
  305SOL    HW1  914   0.894   1.834   1.033  1.1794 -1.9723 -2.4448
  305SOL    HW2  915   0.742   1.782   0.982  0.8304  2.8800  0.1964
  306SOL     OW  916   0.362   1.617   2.166 -0.3521 -0.2865 -0.4084
  306SOL    HW1  917   0.281   1.658   2.121  1.6688 -1.1022  0.7713
  306SOL    HW2  918   0.440   1.686   2.175  0.4113  0.7478  0.0328
  307SOL     OW  919   1.070   0.246   1.726  0.4226 -0.0904  0.1000
  307SOL    HW1  920   1.135   0.289   1.784  1.6274 -1.2155  0.4253
  307SOL    HW2  921   1.091   0.146   1.719  0.5403 -1.7562  3.0810
  308SOL     OW  922   3.036   1.135   1.060 -0.2705  0.1270  0.0148
  308SOL    HW1  923   3.094   1.052   1.072 -0.1842  1.7800 -1.6123
  308SOL    HW2  924   3.009   1.140   0.965  1.9846 -1.0808  3.0191
  309SOL     OW  925   2.649   1.103   1.305 -0.0570 -0.1669  0.1058
  309SOL    HW1  926   2.618   1.198   1.325  1.3323 -1.6377  2.1125
  309SOL    HW2  927   2.745   1.099   1.277  1.1596 -1.0392  2.7897
  310SOL     OW  928   0.153   1.852   2.336  0.4324  0.9698  0.1801
  310SOL    HW1  929   0.225   1.809   2.397  0.3549  0.0545 -0.0141
  310SOL    HW2  930   0.192   1.857   2.241 -2.2020  1.5855  1.6170
  311SOL     OW  931   2.758   2.746   2.150 -0.4290 -0.2053  0.0784
  311SOL    HW1  932   2.756   2.787   2.058 -0.7098  0.5613  0.3311
  311SOL    HW2  933   2.830   2.797   2.207  0.3667  1.5801  0.1579
  312SOL     OW  934   1.999   2.148   2.827 -0.3107  0.4471 -0.7796
  312SOL    HW1  935   1.929   2.212   2.861  3.3174 -1.0768  0.0255
  312SOL    HW2  936   2.081   2.153   2.893 -0.8478 -1.0783  1.5178
  313SOL     OW  937   2.976   3.078   0.630  0.1557  0.3512 -0.3656
  313SOL    HW1  938   2.886   3.089   0.588  1.1761 -0.0512 -1.1077
  313SOL    HW2  939   3.043   0.056   0.619  0.4806 -0.5626  0.6400
  314SOL     OW  940   1.931   1.022   0.041 -0.0994  0.1011 -0.0765
  314SOL    HW1  941   1.892   1.102   0.086  1.7390  1.4432  2.2856
  314SOL    HW2  942   2.010   1.048   3.075  2.3114  2.3743 -1.1928
  315SOL     OW  943   1.370   0.035   2.619  0.2746  0.0019 -0.7762
  315SOL    HW1  944   1.389   0.038   2.524 -0.6285  0.6290  3.3868
  315SOL    HW2  945   1.374   3.039   2.655  1.8604 -0.9473  1.4649
  316SOL     OW  946   3.074   1.396   0.446 -0.2720  0.2158 -0.0646
  316SOL    HW1  947   0.064   1.355   0.464  0.6471  0.8524  0.1488
  316SOL    HW2  948   3.034   1.360   0.359 -1.5110 -1.2452 -1.8183
  317SOL     OW  949   0.580   2.784   2.912  0.2037 -0.5030 -0.3724
  317SOL    HW1  950   0.482   2.810   2.926  3.3922 -0.7743  1.3881
  317SOL    HW2  951   0.635   2.845   2.970 -1.7028 -0.0549 -1.4935
  318SOL     OW  952   2.726   2.302   1.164  0.3150 -0.1426 -0.2541
  318SOL    HW1  953   2.764   2.222   1.113  0.5866  1.4417  0.6427
  318SOL    HW2  954   2.651   2.339   1.108  2.8127 -4.2021  1.6539
  319SOL     OW  955   1.082   1.968   2.779  0.0464  0.3316 -0.3813
  319SOL    HW1  956   1.006   1.917   2.725 -0.7967 -0.8845  1.3296
  319SOL    HW2  957   1.104   1.921   2.869 -0.7751 -0.0336  1.0495
  320SOL     OW  958   0.679   2.008   1.222 -0.2757 -0.1892 -0.0225
  320SOL    HW1  959   0.772   2.009   1.182 -2.9205 -1.0867  0.6344
  320SOL    HW2  960   0.686   2.022   1.323 -0.1912 -0.1553 -1.1422
  321SOL     OW  961   1.119   2.873   2.531  0.2024 -0.1005 -0.0093
  321SOL    HW1  962   1.132   2.936   2.448 -0.4469 -0.7975 -0.9244
  321SOL    HW2  963   1.077   2.782   2.503 -0.3089 -1.6070 -0.4696
  322SOL     OW  964   2.558   1.879   1.957  0.0793 -0.2749 -0.1492
  322SOL    HW1  965   2.488   1.899   2.030 -0.1970  1.2366 -0.1329
  322SOL    HW2  966   2.604   1.965   1.934 -1.6766 -1.2197  0.6170
  323SOL     OW  967   3.000   0.774   0.906 -0.4252  0.5478 -0.3187
  323SOL    HW1  968   3.026   0.865   0.872  1.1743 -3.7281 -0.4243
  323SOL    HW2  969   3.088   0.719   0.914  2.2380 -3.8100  1.3254
  324SOL     OW  970   2.602   3.024   2.467 -0.3172  0.0483  0.3487
  324SOL    HW1  971   2.596   2.950   2.533  1.7090  1.0083  1.5414
  324SOL    HW2  972   2.697   3.060   2.454  0.0580  1.7842 -0.6588
  325SOL     OW  973   0.948   0.655   2.469 -0.0711  0.3715 -0.2511
  325SOL    HW1  974   0.921   0.566   2.510 -3.1564 -0.2938 -2.3734
  325SOL    HW2  975   0.906   0.666   2.375  0.0510 -0.0349 -0.0331
  326SOL     OW  976   1.929   2.772   2.061 -0.4740  0.8981  0.1834
  326SOL    HW1  977   1.943   2.837   2.138 -0.9258 -1.3189  0.6007
  326SOL    HW2  978   1.926   2.818   1.975  1.9929 -3.0247  3.0286
  327SOL     OW  979   2.158   0.064   2.939  0.3735  0.5208 -0.4473
  327SOL    HW1  980   2.218   0.121   2.998  1.3063 -1.0034 -0.5516
  327SOL    HW2  981   2.157   3.065   2.975 -0.4728  1.6565  0.5077
  328SOL     OW  982   0.101   1.404   2.017 -0.2657 -0.1450  0.1893
  328SOL    HW1  983   0.125   1.343   2.092  1.3391 -1.4109  1.4759
  328SOL    HW2  984   0.078   1.497   2.051  1.6044  0.9938 -1.0596
  329SOL     OW  985   1.943   0.451   1.568 -0.6771  0.3534 -0.0312
  329SOL    HW1  986   1.888   0.463   1.654 -0.7921 -0.1795 -1.1984
  329SOL    HW2  987   2.043   0.437   1.590  0.8757  2.3718 -0.4446
  330SOL     OW  988   0.287   1.256   0.841  0.2866 -0.7218 -0.1204
  330SOL    HW1  989   0.194   1.257   0.798 -1.6207  1.5734 -1.8192
  330SOL    HW2  990   0.317   1.351   0.858 -0.7246  1.2034 -1.1272
  331SOL     OW  991   0.143   1.715   2.042 -0.4836  0.7159 -0.2378
  331SOL    HW1  992   0.046   1.685   2.056  1.2817 -0.0988 -0.6425
  331SOL    HW2  993   0.153   1.778   1.961  0.5732 -0.4153 -1.5796
  332SOL     OW  994   2.940   2.805   1.521 -0.0441  0.1315  0.9371
  332SOL    HW1  995   2.994   2.820   1.432 -0.8505 -0.2126 -2.3718
  332SOL    HW2  996   2.940   2.704   1.539 -0.3055 -1.7527 -2.1492
  333SOL     OW  997   2.349   0.008   0.966  0.1496  0.2099 -0.2878
  333SOL    HW1  998   2.279   3.094   1.041 -0.5836  0.5978  0.9576
  333SOL    HW2  999   2.445   0.024   1.006  2.2599 -0.6561 -0.5103
  334SOL     OW 1000   0.574   1.820   0.560  0.0269 -0.0352  0.1024
  334SOL    HW1 1001   0.510   1.792   0.484 -0.6122 -1.5116 -1.0071
  334SOL    HW2 1002   0.527   1.882   0.624  0.0585  1.9350  2.4646
  335SOL     OW 1003   0.165   2.575   2.918  0.0000  0.7227  0.7424
  335SOL    HW1 1004   0.125   2.561   2.823 -1.3678 -0.6833  1.1643
  335SOL    HW2 1005   0.218   2.495   2.944  0.2072 -1.4897 -0.4557
  336SOL     OW 1006   2.983   2.899   2.310  0.4859 -0.1664  0.6403
  336SOL    HW1 1007   2.943   2.976   2.364  1.1725 -0.0492  0.3419
  336SOL    HW2 1008   3.081   2.915   2.280 -1.1531  0.4105  0.1282
  337SOL     OW 1009   1.830   2.541   2.154 -0.4860 -0.0383 -0.6481
  337SOL    HW1 1010   1.871   2.632   2.131 -1.1090 -0.5714 -0.5863
  337SOL    HW2 1011   1.743   2.526   2.106  0.6168 -0.1746 -0.0783
  338SOL     OW 1012   0.491   2.985   0.182 -0.4720  0.0818  0.3876
  338SOL    HW1 1013   0.486   3.082   0.212  0.6812  2.7624  0.1147
  338SOL    HW2 1014   0.583   2.950   0.199  1.4725 -1.4061 -0.5820
  339SOL     OW 1015   0.383   1.183   2.083  0.8029 -0.6465 -0.4644
  339SOL    HW1 1016   0.422   1.264   2.128 -0.1459 -0.3473 -0.2147
  339SOL    HW2 1017   0.381   1.202   1.982 -0.2152 -1.1861 -0.6698
  340SOL     OW 1018   1.870   2.869   0.709  0.0597  0.2009 -0.1624
  340SOL    HW1 1019   1.891   2.862   0.812  0.4870  3.1462  2.9262
  340SOL    HW2 1020   1.786   2.929   0.686 -2.1566  2.6299 -2.6805
  341SOL     OW 1021   2.192   1.080   0.759  0.0364 -0.5046 -0.1518
  341SOL    HW1 1022   2.128   1.053   0.679  0.5438 -0.5361 -0.5725
  341SOL    HW2 1023   2.195   1.001   0.829  1.2975 -1.4439  3.8521
  342SOL     OW 1024   2.378   3.092   0.241  0.6842 -0.0444 -0.1418
  342SOL    HW1 1025   2.284   3.055   0.216 -2.2822  0.7385 -1.3838
  342SOL    HW2 1026   2.455   3.027   0.236 -0.6388 -1.2465  0.4790
  343SOL     OW 1027   1.421   2.193   1.574  0.2989  0.2436  0.6833
  343SOL    HW1 1028   1.446   2.290   1.596  1.2108 -1.2969 -0.6879
  343SOL    HW2 1029   1.478   2.130   1.630  2.2069 -1.9782  0.3733
  344SOL     OW 1030   2.752   2.879   0.965  0.3844  0.5792 -0.4610
  344SOL    HW1 1031   2.767   2.813   1.038  2.5149  2.3696 -1.6408
  344SOL    HW2 1032   2.843   2.911   0.928  0.6665 -1.7218  0.1015
  345SOL     OW 1033   2.601   2.048   3.051 -0.4379  0.3462  0.3437
  345SOL    HW1 1034   2.667   1.983   3.084 -0.7032 -1.3514  0.7937
  345SOL    HW2 1035   2.546   2.098   0.024  0.5845  0.5418  2.3981
  346SOL     OW 1036   2.352   1.999   0.737 -0.3071 -0.1193 -0.0062
  346SOL    HW1 1037   2.384   2.054   0.656 -0.5904  2.1267  1.0207
  346SOL    HW2 1038   2.438   1.963   0.775 -1.1662  0.5638  2.1654
  347SOL     OW 1039   1.636   1.825   1.640 -0.0994 -0.2465 -0.3674
  347SOL    HW1 1040   1.614   1.923   1.639  0.2583 -0.6477 -0.8823
  347SOL    HW2 1041   1.568   1.770   1.692 -1.7775 -0.0027 -2.2710
  348SOL     OW 1042   0.570   1.733   2.423 -0.1547 -0.4010  0.1300
  348SOL    HW1 1043   0.600   1.644   2.467  2.3426  1.6053 -0.3880
  348SOL    HW2 1044   0.651   1.768   2.374  1.9326 -0.2609 -2.4576
  349SOL     OW 1045   2.292   1.333   0.948  0.4334 -0.1351 -0.2671
  349SOL    HW1 1046   2.257   1.396   0.875  3.6145  0.8557  0.5759
  349SOL    HW2 1047   2.371   1.377   0.992 -2.1175 -0.3313 -0.3221
  350SOL     OW 1048   2.978   2.396   0.623 -0.5095  0.9469 -0.6823
  350SOL    HW1 1049   2.989   2.475   0.558 -0.7164 -1.4841 -0.9856
  350SOL    HW2 1050   2.881   2.382   0.638  2.1906 -0.7004 -1.3675
  351SOL     OW 1051   0.502   3.066   1.912 -0.1568 -0.6384 -0.0981
  351SOL    HW1 1052   0.408   0.003   1.895 -1.6434 -0.6766  1.7045
  351SOL    HW2 1053   0.563   3.094   1.834  1.2203  2.0680  0.2922
  352SOL     OW 1054   0.797   1.607   1.222  0.1844 -0.6462  0.1273
  352SOL    HW1 1055   0.702   1.633   1.244  0.0809 -0.5110  1.6693
  352SOL    HW2 1056   0.817   1.630   1.123  0.0393  2.0013 -1.6914
  353SOL     OW 1057   1.364   1.507   2.588 -0.1751  0.0486  0.1484
  353SOL    HW1 1058   1.277   1.461   2.552 -1.1239 -1.1462 -0.8140
  353SOL    HW2 1059   1.438   1.444   2.614 -1.8751 -0.3350  2.9535
  354SOL     OW 1060   1.568   2.947   1.503  0.2397  0.0403  0.4090
  354SOL    HW1 1061   1.487   2.944   1.441 -1.4945  0.1278  2.4782
  354SOL    HW2 1062   1.574   3.038   1.549 -3.3235 -0.6329 -0.5626
  355SOL     OW 1063   2.160   1.347   0.703  0.3247  0.2494 -0.0462
  355SOL    HW1 1064   2.164   1.253   0.742 -0.1727 -1.3843 -1.3471
  355SOL    HW2 1065   2.110   1.337   0.614 -2.2308  0.1621 -2.5185
  356SOL     OW 1066   2.565   1.713   2.253 -0.4989  0.3733  0.8136
  356SOL    HW1 1067   2.495   1.783   2.256  1.5880  0.6756  1.1988
  356SOL    HW2 1068   2.645   1.745   2.311  0.0586 -0.0134  2.0480
  357SOL     OW 1069   0.616   3.005   1.341  0.3837 -0.2605  0.0204
  357SOL    HW1 1070   0.622   2.914   1.301  2.6547  2.8048  0.4331
  357SOL    HW2 1071   0.705   3.057   1.334  4.1193 -2.4395  0.5214
  358SOL     OW 1072   2.490   1.353   1.794 -0.4191  0.2584  0.0311
  358SOL    HW1 1073   2.540   1.434   1.830 -0.2843 -0.0884  0.8619
  358SOL    HW2 1074   2.564   1.291   1.761  0.1110 -1.7186 -0.7459
  359SOL     OW 1075   2.254   2.874   2.516 -0.2439 -0.0574  0.3436
  359SOL    HW1 1076   2.210   2.782   2.513 -1.0921 -0.0169  0.9775
  359SOL    HW2 1077   2.190   2.950   2.488 -0.6773 -0.1075  0.2874
  360SOL     OW 1078   0.706   0.417   0.967 -0.1875  1.0196  0.5491
  360SOL    HW1 1079   0.723   0.433   0.869  0.2503  1.1204 -0.4626
  360SOL    HW2 1080   0.668   0.327   0.985  0.9079  1.8357 -0.1828
  361SOL     OW 1081   1.849   2.968   1.204 -0.3055 -0.7353 -0.0261
  361SOL    HW1 1082   1.822   3.063   1.212  0.7124 -0.2037 -0.9074
  361SOL    HW2 1083   1.790   2.900   1.250  0.2819  0.8498 -1.3809
  362SOL     OW 1084   1.280   1.004   1.025 -0.1090  0.4069 -0.1083
  362SOL    HW1 1085   1.337   1.073   1.071 -1.0522 -0.5139 -2.0780
  362SOL    HW2 1086   1.201   1.044   0.982  1.1156  1.0870 -1.6917
  363SOL     OW 1087   2.286   1.522   2.591 -0.0903  0.2647  0.0235
  363SOL    HW1 1088   2.333   1.522   2.681 -1.4490  0.7561  2.9336
  363SOL    HW2 1089   2.356   1.531   2.515 -2.3298 -1.3819  0.4010
  364SOL     OW 1090   0.165   0.061   1.029  0.2825 -0.5258 -0.9316
  364SOL    HW1 1091   0.220   0.131   1.078 -0.9407  0.6166 -1.9012
  364SOL    HW2 1092   0.064   0.074   1.044  1.3612 -1.4912  0.3972
  365SOL     OW 1093   0.131   2.954   2.785  0.4661  0.2012  0.3743
  365SOL    HW1 1094   0.147   2.899   2.702  0.8238  1.7162  1.6311
  365SOL    HW2 1095   0.036   2.970   2.815 -2.1346 -0.5741  0.3789
  366SOL     OW 1096   2.207   2.158   3.004 -0.6091  0.0956 -0.4474
  366SOL    HW1 1097   2.262   2.095   3.053  0.0480  2.6328 -2.2487
  366SOL    HW2 1098   2.246   2.250   3.015  1.5059 -4.5890 -0.6478
  367SOL     OW 1099   2.547   2.491   2.917  0.0397 -0.3183  0.3223
  367SOL    HW1 1100   2.554   2.499   2.817 -1.5849 -0.4523 -0.5510
  367SOL    HW2 1101   2.596   2.411   2.954  0.1619  0.2056  0.1761
  368SOL     OW 1102   0.129   1.565   1.039  0.6084  0.0131  0.5600
  368SOL    HW1 1103   0.106   1.660   1.063 -1.5746 -0.7152 -0.6346
  368SOL    HW2 1104   0.082   1.500   1.099  1.3389  3.6247 -2.2640
  369SOL     OW 1105   0.602   2.691   2.671 -0.0469  0.3620 -0.8794
  369SOL    HW1 1106   0.593   2.714   2.769  0.7112  1.6564 -0.8069
  369SOL    HW2 1107   0.693   2.650   2.642 -0.4807 -0.5617  0.0021
  370SOL     OW 1108   2.909   1.004   0.499  0.2317  0.3512 -0.5963
  370SOL    HW1 1109   2.847   1.083   0.480  1.1797 -0.4451  0.7665
  370SOL    HW2 1110   2.867   0.917   0.481  0.3022  2.0669 -1.1936
  371SOL     OW 1111   1.881   2.114   0.905 -0.7494 -0.2285  0.2928
  371SOL    HW1 1112   1.980   2.115   0.889 -2.5395  2.3416  0.7825
  371SOL    HW2 1113   1.859   2.039   0.974  0.2887 -0.1947 -2.3070
  372SOL     OW 1114   0.268   0.942   2.996  0.5849 -0.3728 -0.3662
  372SOL    HW1 1115   0.240   0.989   3.083 -0.3658  2.1474 -0.1080
  372SOL    HW2 1116   0.243   0.844   2.999  0.6308 -1.0235  1.9376
  373SOL     OW 1117   3.072   1.840   1.054  0.3094  0.6687 -0.3803
  373SOL    HW1 1118   2.992   1.899   1.039  0.5868 -2.5495  1.2262
  373SOL    HW2 1119   3.087   1.830   1.154 -0.2437 -2.4871 -1.5849
  374SOL     OW 1120   0.344   2.771   0.183  0.1378 -0.6527  0.4417
  374SOL    HW1 1121   0.344   2.701   0.110  3.7673 -0.6515 -0.2616
  374SOL    HW2 1122   0.412   2.849   0.173  1.7393 -0.7902  0.8389
  375SOL     OW 1123   0.105   0.196   0.340 -0.3826  0.3716  0.1528
  375SOL    HW1 1124   0.187   0.256   0.330 -2.2432  1.0123  0.1599
  375SOL    HW2 1125   0.043   0.207   0.263  2.0567  3.2698  1.9591
  376SOL     OW 1126   0.149   2.545   1.625 -0.2681 -0.2707  0.2686
  376SOL    HW1 1127   0.046   2.547   1.615 -1.2535 -2.0090  0.9194
  376SOL    HW2 1128   0.189   2.643   1.614 -0.1175  2.1596 -2.0820
  377SOL     OW 1129   1.786   2.530   2.789  0.2395  0.1511 -0.5081
  377SOL    HW1 1130   1.757   2.591   2.868 -2.0678  0.5584  0.0897
  377SOL    HW2 1131   1.769   2.579   2.700 -3.0335  0.0825 -0.4338
  378SOL     OW 1132   0.585   0.335   0.346  0.4034  0.1903 -0.1181
  378SOL    HW1 1133   0.676   0.340   0.302  1.0053  1.9167  1.5877
  378SOL    HW2 1134   0.593   0.258   0.415  0.6979  1.7064  3.5864
  379SOL     OW 1135   0.523   1.403   0.533  0.4966 -0.3934  0.2523
  379SOL    HW1 1136   0.525   1.410   0.428  1.2906 -0.4670 -2.8896
  379SOL    HW2 1137   0.614   1.407   0.570 -1.8667  0.2723 -0.0859
  380SOL     OW 1138   0.333   1.846   1.492 -0.2293 -0.3946  0.5148
  380SOL    HW1 1139   0.430   1.826   1.519  5.6121  1.0971  0.4010
  380SOL    HW2 1140   0.326   1.911   1.416 -2.3412  1.7932  0.0505
  381SOL     OW 1141   0.527   0.959   2.043 -0.3786 -0.0246 -0.0826
  381SOL    HW1 1142   0.585   0.991   1.965  1.4159 -0.0497 -0.3866
  381SOL    HW2 1143   0.456   1.027   2.063 -0.6606 -2.9149 -2.1916
  382SOL     OW 1144   2.231   1.824   0.556 -0.2260  0.4941 -0.4123
  382SOL    HW1 1145   2.270   1.884   0.632  1.5842  1.4142  0.1086
  382SOL    HW2 1146   2.280   1.826   0.468 -0.5066 -1.5092 -0.9264
  383SOL     OW 1147   2.773   1.772   2.450 -0.1384  0.2157  0.0203
  383SOL    HW1 1148   2.799   1.806   2.543 -0.3665 -3.0815 -2.9238
  383SOL    HW2 1149   2.851   1.776   2.384 -0.4913 -1.0708  0.8849
  384SOL     OW 1150   0.499   2.138   2.309 -0.2712 -0.8682  0.0121
  384SOL    HW1 1151   0.448   2.093   2.387  2.4304  1.8563  0.9415
  384SOL    HW2 1152   0.552   2.218   2.338  0.0212  1.9844 -0.7285
  385SOL     OW 1153   2.648   1.904   0.772  0.4512 -0.5764 -0.4605
  385SOL    HW1 1154   2.671   1.880   0.869  2.1566  0.4935  0.6394
  385SOL    HW2 1155   2.669   2.001   0.744 -1.3332 -2.6449  0.5952
  386SOL     OW 1156   1.720   0.966   1.158  0.0366  0.2525  0.4651
  386SOL    HW1 1157   1.813   1.007   1.141  1.3040  0.6448  0.7315
  386SOL    HW2 1158   1.684   0.920   1.074 -1.0453 -0.9522  1.7690
  387SOL     OW 1159   0.386   0.987   1.687 -0.4761  0.2556  0.3499
  387SOL    HW1 1160   0.404   1.070   1.742  0.6867 -1.6472  0.1339
  387SOL    HW2 1161   0.315   0.998   1.613 -1.0736 -3.1835 -0.7097
  388SOL     OW 1162   2.317   0.947   2.187 -0.1290  0.2129  0.1454
  388SOL    HW1 1163   2.337   0.989   2.274 -0.5968 -0.3983 -1.8940
  388SOL    HW2 1164   2.260   0.859   2.195 -4.8749 -4.1942 -4.1341
  389SOL     OW 1165   2.031   1.159   2.072 -0.4172 -0.5475  0.0723
  389SOL    HW1 1166   2.125   1.180   2.036 -0.1701 -0.4384 -1.0483
  389SOL    HW2 1167   2.006   1.232   2.142 -0.7510  1.2100  0.7482
  390SOL     OW 1168   1.743   2.773   0.313  0.3621 -0.4652 -0.2543
  390SOL    HW1 1169   1.832   2.743   0.355 -1.0695  1.8613  1.3124
  390SOL    HW2 1170   1.684   2.695   0.283 -3.8933 -1.1846 -0.9050
  391SOL     OW 1171   2.151   1.894   1.107 -0.3459 -0.3818  0.3254
  391SOL    HW1 1172   2.058   1.869   1.077  3.4649 -2.3678  1.1514
  391SOL    HW2 1173   2.166   1.864   1.203 -0.6452  0.7503 -0.4458
  392SOL     OW 1174   3.073   2.848   1.271 -0.0909  0.4427 -0.0856
  392SOL    HW1 1175   2.983   2.890   1.245 -1.7887  3.1051  1.3415
  392SOL    HW2 1176   3.089   2.754   1.228  1.2927  0.0428 -1.5301
  393SOL     OW 1177   1.954   1.894   2.960  0.2243 -0.6382  0.1128
  393SOL    HW1 1178   1.978   1.984   2.912  2.7630 -1.1672 -2.2040
  393SOL    HW2 1179   1.856   1.869   2.946  0.9823  1.2580 -2.0804
  394SOL     OW 1180   0.318   0.591   2.650  0.3400  0.5513 -0.0848
  394SOL    HW1 1181   0.407   0.630   2.629 -1.0257  0.8572 -1.9943
  394SOL    HW2 1182   0.244   0.658   2.629  0.3277 -1.5322 -0.5821
  395SOL     OW 1183   0.935   0.674   0.793  0.5167  0.0971  0.2889
  395SOL    HW1 1184   0.924   0.669   0.894 -0.1974  0.8476 -0.7727
  395SOL    HW2 1185   0.906   0.765   0.755  0.0940 -2.4530  1.8086
  396SOL     OW 1186   1.083   1.081   0.128 -0.5496  0.3996 -0.5997
  396SOL    HW1 1187   1.145   1.105   0.207  1.8628  0.0672 -0.5219
  396SOL    HW2 1188   1.043   0.993   0.148  0.6715  0.6762 -3.1305
  397SOL     OW 1189   0.396   0.711   2.135  0.0706 -0.0188 -0.2332
  397SOL    HW1 1190   0.447   0.794   2.111  1.1050 -2.4264  0.5487
  397SOL    HW2 1191   0.313   0.700   2.076 -3.3858  0.6740  0.1204
  398SOL     OW 1192   0.850   0.110   0.307 -0.1807 -0.1915  0.1111
  398SOL    HW1 1193   0.804   0.020   0.290 -0.5232  0.7915  0.1870
  398SOL    HW2 1194   0.859   0.131   0.407  2.5415  1.5772 -0.6209
  399SOL     OW 1195   1.947   0.163   1.776 -0.3652 -0.3803 -0.1027
  399SOL    HW1 1196   1.981   0.248   1.821 -4.6090  0.4408  2.7348
  399SOL    HW2 1197   1.918   0.099   1.850  4.0585 -1.3333 -0.2499
  400SOL     OW 1198   0.487   1.875   1.934  0.0249  0.3562 -0.0660
  400SOL    HW1 1199   0.504   1.887   2.035  0.3688  0.2363  0.5947
  400SOL    HW2 1200   0.505   1.779   1.913 -0.7992  1.1838 -1.2058
  401SOL     OW 1201   0.528   0.793   2.582 -0.0238 -0.5980  0.0335
  401SOL    HW1 1202   0.614   0.810   2.633  0.0459  3.7166 -1.0915
  401SOL    HW2 1203   0.475   0.879   2.572 -0.5874  1.7108 -1.8152
  402SOL     OW 1204   2.939   2.330   1.449 -0.1298 -0.6519  0.4303
  402SOL    HW1 1205   2.880   2.250   1.466 -1.6876  3.0207  0.0471
  402SOL    HW2 1206   2.998   2.310   1.371  1.6248  1.0089 -2.1816
  403SOL     OW 1207   0.439   1.241   1.833 -0.1344 -0.2198  0.4701
  403SOL    HW1 1208   0.378   1.317   1.804  0.8104  0.1794 -2.0309
  403SOL    HW2 1209   0.529   1.242   1.789 -0.0325  0.9770  1.5797
  404SOL     OW 1210   3.014   2.924   1.749 -0.3193 -0.0768  0.1800
  404SOL    HW1 1211   0.004   2.897   1.789  1.2356  2.0183 -0.1258
  404SOL    HW2 1212   2.997   2.879   1.659  1.0248  2.1533 -1.0989
  405SOL     OW 1213   0.506   0.489   1.694  0.0529 -0.1671 -0.4409
  405SOL    HW1 1214   0.464   0.450   1.782 -0.0937  1.7566  1.1801
  405SOL    HW2 1215   0.605   0.516   1.704 -3.0163 -1.6771 -1.6694
  406SOL     OW 1216   1.736   2.214   2.481 -0.5071 -0.0969 -0.0679
  406SOL    HW1 1217   1.749   2.313   2.472  0.9059 -0.1006 -1.8455
  406SOL    HW2 1218   1.823   2.168   2.501  0.1159 -0.0998 -1.7689
  407SOL     OW 1219   1.419   1.469   2.318 -0.0855 -0.2965 -0.2784
  407SOL    HW1 1220   1.347   1.405   2.307 -0.3797  1.3228  2.7342
  407SOL    HW2 1221   1.430   1.493   2.418 -0.7792  0.8822  3.1995
  408SOL     OW 1222   0.620   0.311   2.573  0.4911  0.2320 -0.2377
  408SOL    HW1 1223   0.571   0.305   2.484 -0.4030 -0.9657  0.4211
  408SOL    HW2 1224   0.554   0.336   2.649  0.5468  1.1278 -0.8732
  409SOL     OW 1225   3.088   2.042   3.059 -0.7391  0.7212 -0.2539
  409SOL    HW1 1226   0.037   1.974   0.018 -0.2663 -0.6585  0.4682
  409SOL    HW2 1227   3.098   2.136   3.094 -1.1886 -1.4987  0.7299
  410SOL     OW 1228   2.734   1.536   0.264  0.1584  0.2176 -0.1080
  410SOL    HW1 1229   2.823   1.549   0.313  2.0110  1.5859  0.2546
  410SOL    HW2 1230   2.694   1.626   0.239  0.3172 -1.2941 -1.5992
  411SOL     OW 1231   2.656   0.440   1.029  0.4896 -0.3924  0.7083
  411SOL    HW1 1232   2.717   0.510   0.982 -0.1742  2.6740 -1.7502
  411SOL    HW2 1233   2.563   0.432   0.978 -1.3011 -0.4853  0.6231
  412SOL     OW 1234   1.204   1.018   1.285 -0.5386 -0.0941  0.6483
  412SOL    HW1 1235   1.240   0.982   1.198  0.3981  1.8481  1.3237
  412SOL    HW2 1236   1.258   0.985   1.368 -1.0841 -0.1630 -0.3804
  413SOL     OW 1237   0.638   2.739   1.227  0.0962  0.6593 -0.8006
  413SOL    HW1 1238   0.686   2.675   1.288 -0.4725  0.0586  1.2721
  413SOL    HW2 1239   0.679   2.731   1.132  0.3157 -0.6900  0.5344
  414SOL     OW 1240   2.962   1.585   2.720 -0.0410 -0.1253 -0.1005
  414SOL    HW1 1241   3.051   1.566   2.678 -3.2533 -0.5565  1.7753
  414SOL    HW2 1242   2.926   1.668   2.677  0.8171 -2.2246 -1.0437
  415SOL     OW 1243   0.449   2.125   2.906 -0.2953 -0.2491 -0.0134
  415SOL    HW1 1244   0.481   2.040   2.960 -0.6438 -2.4763  2.7187
  415SOL    HW2 1245   0.354   2.120   2.870 -0.8395  0.0126 -1.1364
  416SOL     OW 1246   1.511   0.021   0.457 -0.0657 -0.2490  0.3058
  416SOL    HW1 1247   1.603   0.036   0.418 -4.6856  0.4993 -2.9890
  416SOL    HW2 1248   1.451   3.082   0.381  0.5180 -1.7854 -1.0255
  417SOL     OW 1249   0.443   1.042   0.807 -0.2200  0.1943 -0.1229
  417SOL    HW1 1250   0.518   1.034   0.872 -2.0452 -0.4945 -1.1870
  417SOL    HW2 1251   0.379   1.122   0.821 -0.3350 -1.4139  1.8368
  418SOL     OW 1252   2.416   0.999   1.942 -0.2035  0.4304  0.2148
  418SOL    HW1 1253   2.340   0.953   1.882 -0.9598 -0.3362  0.5978
  418SOL    HW2 1254   2.401   0.988   2.038 -0.4189  2.4867 -1.7440
  419SOL     OW 1255   2.996   0.413   0.712 -0.1254 -0.2783  0.2144
  419SOL    HW1 1256   3.063   0.347   0.662 -0.3610 -4.9278  0.7266
  419SOL    HW2 1257   3.031   0.432   0.806  2.4869 -2.5731 -2.2419
  420SOL     OW 1258   0.399   1.578   0.680 -0.1939 -0.2526  0.1854
  420SOL    HW1 1259   0.462   1.526   0.621 -0.3697  3.1438  1.2421
  420SOL    HW2 1260   0.401   1.524   0.771 -1.8558 -2.3446  2.5866
  421SOL     OW 1261   0.990   2.425   0.757  0.7109  0.0371  0.0107
  421SOL    HW1 1262   0.933   2.448   0.673 -1.6735  0.8550  1.7278
  421SOL    HW2 1263   1.071   2.367   0.734  0.4302 -0.4465 -0.4396
  422SOL     OW 1264   0.066   0.846   1.322 -0.6337  0.2717  0.1996
  422SOL    HW1 1265   3.068   0.827   1.306 -2.0676 -0.8377  1.1385
  422SOL    HW2 1266   0.098   0.868   1.230  0.3192 -0.9681  0.8575
  423SOL     OW 1267   1.071   1.339   1.369 -0.2939  0.0978 -0.1788
  423SOL    HW1 1268   1.076   1.246   1.408  2.0145  2.1875 -0.7197
  423SOL    HW2 1269   1.114   1.340   1.277  4.5917  0.0555 -0.2529
  424SOL     OW 1270   2.078   1.159   2.955  0.3852  0.2942 -0.1709
  424SOL    HW1 1271   2.137   1.212   3.021  0.5747 -0.9348  1.8162
  424SOL    HW2 1272   1.996   1.209   2.920 -0.3700 -4.0473 -0.9952
  425SOL     OW 1273   0.047   0.474   1.970  0.1078  0.4104  0.1455
  425SOL    HW1 1274   0.098   0.556   2.005 -0.6859  0.6178 -1.3492
  425SOL    HW2 1275   3.059   0.503   1.927  1.1208 -0.2747 -2.9743
  426SOL     OW 1276   2.880   2.772   2.967 -0.0325 -0.1359 -0.1273
  426SOL    HW1 1277   2.972   2.732   2.968  0.5907  0.4529  1.2168
  426SOL    HW2 1278   2.816   2.703   3.010  1.2116 -0.1105  1.3445
  427SOL     OW 1279   0.816   0.688   2.243 -0.6279  0.3692 -0.6157
  427SOL    HW1 1280   0.728   0.668   2.286  0.1014 -2.7110 -3.0914
  427SOL    HW2 1281   0.830   0.788   2.221 -0.4993  1.3791  0.1553
  428SOL     OW 1282   2.293   0.914   1.506  1.4298 -0.1909 -0.1941
  428SOL    HW1 1283   2.390   0.911   1.479 -4.2662 -3.0301 -0.2074
  428SOL    HW2 1284   2.249   0.998   1.467  1.2573 -2.0545 -1.3152
  429SOL     OW 1285   2.583   2.444   0.290  0.1963  0.0449  0.2020
  429SOL    HW1 1286   2.652   2.477   0.356 -2.7380  2.2384  0.6974
  429SOL    HW2 1287   2.491   2.491   0.302  2.2273  0.5574  1.6469
  430SOL     OW 1288   1.570   1.872   2.529  0.2804 -0.3173 -0.0124
  430SOL    HW1 1289   1.504   1.849   2.451  3.2204  1.4672 -2.2259
  430SOL    HW2 1290   1.535   1.816   2.607  2.5634 -1.9993 -3.1344
  431SOL     OW 1291   0.069   1.745   1.290  0.3834 -0.5535  0.1355
  431SOL    HW1 1292   0.022   1.662   1.331 -1.8519 -0.9149  2.1713
  431SOL    HW2 1293   0.065   1.827   1.355  0.4788  0.1617  0.4836
  432SOL     OW 1294   1.373   2.885   2.726  0.0461  0.1517  0.0173
  432SOL    HW1 1295   1.309   2.909   2.803 -0.3500 -1.2301 -2.0704
  432SOL    HW2 1296   1.401   2.785   2.717 -1.1250 -2.0161 -0.8316
  433SOL     OW 1297   1.709   3.059   2.373  0.1567 -0.3120  0.5787
  433SOL    HW1 1298   1.772   2.982   2.380 -2.8007  0.9125  1.4014
  433SOL    HW2 1299   1.614   3.032   2.383  1.3437 -0.3125 -0.1469
  434SOL     OW 1300   0.183   2.791   2.099  0.1117 -0.4562  0.3381
  434SOL    HW1 1301   0.145   2.699   2.130 -0.9659 -1.6920 -0.0534
  434SOL    HW2 1302   0.137   2.819   2.013 -0.0870 -0.0866  0.7782
  435SOL     OW 1303   3.030   2.561   3.074  0.1466  0.0998  0.0920
  435SOL    HW1 1304   0.017   2.555   3.017 -0.7724 -1.5469  0.1867
  435SOL    HW2 1305   3.050   2.615   0.061  0.3915  1.0678  2.5351
  436SOL     OW 1306   0.768   0.627   1.734  0.7940 -0.6174 -0.0397
  436SOL    HW1 1307   0.820   0.617   1.650  0.8377  2.9346 -0.2694
  436SOL    HW2 1308   0.721   0.717   1.742  1.7683 -1.3849  1.7047
  437SOL     OW 1309   0.404   2.574   2.521 -0.3010 -0.0810 -0.0615
  437SOL    HW1 1310   0.418   2.628   2.435  1.8373 -0.0460  0.3627
  437SOL    HW2 1311   0.482   2.606   2.582  2.5072 -1.1185  3.3569
  438SOL     OW 1312   0.574   1.759   1.572  0.1656 -0.2894  0.4032
  438SOL    HW1 1313   0.670   1.786   1.588  0.4795 -0.5556  0.4182
  438SOL    HW2 1314   0.546   1.700   1.647 -0.2055  1.2000 -2.1371
  439SOL     OW 1315   2.371   0.831   2.823  0.0101  0.1564 -0.2174
  439SOL    HW1 1316   2.445   0.784   2.768 -1.6170 -2.6850  2.4945
  439SOL    HW2 1317   2.335   0.916   2.781  1.3419 -0.4401 -1.5627
  440SOL     OW 1318   0.545   0.556   0.053 -0.3458 -0.1927  0.3071
  440SOL    HW1 1319   0.590   0.588   0.134  1.2234  0.0933 -0.3346
  440SOL    HW2 1320   0.447   0.530   0.069 -1.6956 -0.4703 -2.7598
  441SOL     OW 1321   1.142   2.376   1.501 -0.4549 -0.2282  0.6568
  441SOL    HW1 1322   1.198   2.373   1.414  0.4906 -0.5857 -0.9105
  441SOL    HW2 1323   1.187   2.425   1.583 -2.0667 -1.4299 -0.0307
  442SOL     OW 1324   2.851   1.739   0.683 -1.0210  0.3439  0.0299
  442SOL    HW1 1325   2.787   1.819   0.682  0.9329  2.0590  2.8137
  442SOL    HW2 1326   2.846   1.675   0.764  0.3320 -3.8197 -1.5489
  443SOL     OW 1327   2.600   2.029   2.483 -0.1153 -0.1824  0.2238
  443SOL    HW1 1328   2.650   1.944   2.463 -2.0002 -3.8179 -0.2854
  443SOL    HW2 1329   2.592   2.049   2.585  1.0813  3.0404  1.0922
  444SOL     OW 1330   1.572   1.228   0.082  0.0582  0.5898  0.2929
  444SOL    HW1 1331   1.570   1.144   0.146  0.2571 -3.2927  0.0425
  444SOL    HW2 1332   1.498   1.292   0.105  1.0668 -1.9487  0.9992
  445SOL     OW 1333   2.637   3.033   1.859 -0.5927 -0.2303 -0.4357
  445SOL    HW1 1334   2.675   0.029   1.849  0.8344  0.5916 -3.0588
  445SOL    HW2 1335   2.707   2.967   1.879 -2.1482  0.9360  2.0248
  446SOL     OW 1336   0.303   1.138   1.087  0.7810 -0.1342  0.0087
  446SOL    HW1 1337   0.376   1.153   1.155 -0.2695  0.9405 -2.3305
  446SOL    HW2 1338   0.299   1.205   1.014  2.1447 -0.0991 -0.5632
  447SOL     OW 1339   1.055   1.624   0.873 -0.3062  0.0965  0.6379
  447SOL    HW1 1340   0.970   1.665   0.905  1.3771  3.0437 -1.9670
  447SOL    HW2 1341   1.095   1.694   0.809 -1.4183 -0.8694 -1.7564
  448SOL     OW 1342   1.305   0.906   1.706  0.2028 -0.0216 -0.0195
  448SOL    HW1 1343   1.336   0.922   1.804 -1.2375  1.2772 -1.0325
  448SOL    HW2 1344   1.210   0.865   1.699 -4.1569  0.6880 -0.6233
  449SOL     OW 1345   2.689   2.298   2.058 -0.1345 -0.2417 -0.5984
  449SOL    HW1 1346   2.670   2.392   2.095 -0.7459  2.9136  1.1081
  449SOL    HW2 1347   2.778   2.268   2.097 -0.7045 -0.2763  0.8728
  450SOL     OW 1348   3.011   1.999   1.660 -0.0693  0.2016  0.4602
  450SOL    HW1 1349   2.921   2.031   1.628  2.3848 -1.4943  2.6597
  450SOL    HW2 1350   3.044   2.048   1.745  0.7175 -0.7719  0.0970
  451SOL     OW 1351   2.206   0.875   0.945 -0.7895  0.3738 -0.3041
  451SOL    HW1 1352   2.139   0.900   1.015  0.8492  0.6820 -0.2779
  451SOL    HW2 1353   2.181   0.785   0.906 -0.2389  0.2358  1.9144
  452SOL     OW 1354   0.661   1.459   0.920 -0.3827 -0.3043  0.4488
  452SOL    HW1 1355   0.641   1.556   0.923  1.2624 -1.1799 -0.5347
  452SOL    HW2 1356   0.620   1.419   1.004 -1.7318 -1.1068  2.2630
  453SOL     OW 1357   1.030   2.043   0.877 -0.1921 -0.4360  0.3198
  453SOL    HW1 1358   1.066   2.123   0.825 -1.3811  1.4636  1.6960
  453SOL    HW2 1359   1.072   1.957   0.843 -0.0963  0.8749  1.4534
  454SOL     OW 1360   0.514   1.490   2.969 -0.8522 -0.0086  0.4011
  454SOL    HW1 1361   0.568   1.554   2.911  0.5714 -1.2411 -0.4826
  454SOL    HW2 1362   0.417   1.520   2.977 -4.3808  1.0278 -0.9011
  455SOL     OW 1363   1.542   0.815   0.667 -0.2013  0.6116 -0.2338
  455SOL    HW1 1364   1.539   0.715   0.704 -0.9969 -2.5633 -2.5594
  455SOL    HW2 1365   1.489   0.829   0.583 -0.2703  0.9515  0.8122
  456SOL     OW 1366   2.296   2.345   0.882 -0.1130 -0.1389 -0.0308
  456SOL    HW1 1367   2.237   2.263   0.867 -0.9539 -1.7582  2.7314
  456SOL    HW2 1368   2.284   2.416   0.816  1.1952  1.8114  0.5769
  457SOL     OW 1369   1.618   2.927   2.888  0.3027 -0.2303 -0.1121
  457SOL    HW1 1370   1.555   2.927   2.972 -1.6848 -2.6170  1.9195
  457SOL    HW2 1371   1.562   2.941   2.803  3.8048 -2.3141  0.4330
  458SOL     OW 1372   2.227   0.471   0.357  0.8809  0.0746  0.3981
  458SOL    HW1 1373   2.215   0.374   0.320 -0.2189 -2.1246 -0.2615
  458SOL    HW2 1374   2.132   0.500   0.380 -1.2553 -2.0621  2.4965
  459SOL     OW 1375   3.059   0.851   2.127  0.3877 -0.0392 -0.1350
  459SOL    HW1 1376   3.059   0.945   2.173  0.0880  3.2000  2.8373
  459SOL    HW2 1377   2.985   0.850   2.049 -1.3513 -0.2333 -0.8065
  460SOL     OW 1378   0.228   1.001   0.190 -0.2112  0.8255 -0.1139
  460SOL    HW1 1379   0.305   0.979   0.247 -1.2753 -0.5011 -2.4729
  460SOL    HW2 1380   0.151   0.947   0.226  0.8525  0.7709 -1.5949
  461SOL     OW 1381   2.873   2.816   0.544  0.1705  0.2146 -0.3002
  461SOL    HW1 1382   2.930   2.882   0.593 -0.6996 -0.5549  1.7139
  461SOL    HW2 1383   2.783   2.804   0.599  0.4566 -2.2995  1.1916
  462SOL     OW 1384   0.120   0.157   1.645  0.1644 -0.5751  0.0161
  462SOL    HW1 1385   0.136   0.256   1.669 -1.2992  1.7861 -0.9933
  462SOL    HW2 1386   0.184   0.127   1.567 -0.5365  1.1519  0.0601
  463SOL     OW 1387   2.042   2.385   2.124 -0.0845  0.4843 -0.0996
  463SOL    HW1 1388   2.054   2.308   2.192 -2.9459  3.7894 -1.7855
  463SOL    HW2 1389   1.955   2.438   2.138 -0.0675  0.7805 -4.5321
  464SOL     OW 1390   0.937   3.060   1.301  0.0989 -0.1899  0.5747
  464SOL    HW1 1391   0.938   3.034   1.202 -2.8505 -1.4891 -3.4366
  464SOL    HW2 1392   0.925   0.061   1.308 -1.5383 -0.3741  1.2897
  465SOL     OW 1393   0.685   0.037   1.704 -1.2753 -0.3745  0.1407
  465SOL    HW1 1394   0.745   3.075   1.648 -1.0955 -2.0565  2.5578
  465SOL    HW2 1395   0.741   0.076   1.781  1.8283 -1.2727 -0.2274
  466SOL     OW 1396   1.191   2.298   2.065  0.5680  0.4155 -0.1456
  466SOL    HW1 1397   1.163   2.201   2.092  0.7695 -1.6369 -1.3576
  466SOL    HW2 1398   1.202   2.311   1.962  0.5892  2.9644 -1.4495
  467SOL     OW 1399   0.399   2.005   1.220 -0.9538  0.1825 -0.8259
  467SOL    HW1 1400   0.348   2.055   1.151  3.4875  0.9919  1.7899
  467SOL    HW2 1401   0.499   2.004   1.202 -0.6200 -0.7124 -0.0701
  468SOL     OW 1402   2.591   1.580   2.559  0.2189  0.3490  0.7480
  468SOL    HW1 1403   2.680   1.629   2.534 -0.7650 -1.0919  0.3209
  468SOL    HW2 1404   2.546   1.537   2.477 -1.7761  1.0324 -2.7149
  469SOL     OW 1405   1.250   2.014   0.581  0.1857 -0.0162 -0.1785
  469SOL    HW1 1406   1.333   2.043   0.526  1.9977  3.4914 -2.5278
  469SOL    HW2 1407   1.168   2.001   0.519 -2.1351  0.3768  1.8191
  470SOL     OW 1408   2.570   1.346   1.352  0.4750 -0.0198 -0.2417
  470SOL    HW1 1409   2.555   1.400   1.268  0.0358  1.1899 -0.3179
  470SOL    HW2 1410   2.494   1.354   1.417 -0.0241  1.1063  1.2522
  471SOL     OW 1411   0.398   2.400   2.969  0.2872  0.2255 -0.3163
  471SOL    HW1 1412   0.413   2.298   2.966 -1.6564 -0.0697 -2.3721
  471SOL    HW2 1413   0.480   2.452   3.000  1.0947 -2.1035 -2.0780
  472SOL     OW 1414   2.932   2.027   2.022 -0.6389 -0.4367 -0.8932
  472SOL    HW1 1415   3.023   2.038   1.972  0.5325  1.6572  0.6023
  472SOL    HW2 1416   2.850   2.033   1.960 -1.3876 -0.2254  0.5500
  473SOL     OW 1417   0.898   2.727   0.777  0.4933 -0.0728 -0.1310
  473SOL    HW1 1418   0.934   2.660   0.710 -0.7553 -0.2723 -0.4934
  473SOL    HW2 1419   0.958   2.807   0.780  0.1272 -0.7755 -0.5764
  474SOL     OW 1420   2.996   0.068   1.087  0.0258  0.1713  0.0401
  474SOL    HW1 1421   2.921   0.131   1.052  0.8120 -0.9489  2.0576
  474SOL    HW2 1422   2.956   0.020   1.168 -0.3093  0.3866 -0.7209
  475SOL     OW 1423   1.799   3.086   1.963  0.0379 -0.6577 -0.8140
  475SOL    HW1 1424   1.794   0.067   2.025 -2.8036  2.2400 -2.4966
  475SOL    HW2 1425   1.718   3.027   1.983 -2.5901 -1.8588 -1.8605
  476SOL     OW 1426   0.514   0.625   0.950  0.3144  0.1521  0.0615
  476SOL    HW1 1427   0.546   0.671   0.869 -1.7539 -2.2854  1.7106
  476SOL    HW2 1428   0.563   0.540   0.978 -1.7692 -0.4249  3.3744
  477SOL     OW 1429   0.876   2.335   1.253 -0.2733 -0.1237  0.5706
  477SOL    HW1 1430   0.868   2.315   1.155  1.3972  0.7087  0.7382
  477SOL    HW2 1431   0.938   2.268   1.297  1.2916  0.1873 -0.4797
  478SOL     OW 1432   0.135   2.343   2.367 -0.0724 -0.3913  0.6819
  478SOL    HW1 1433   0.153   2.301   2.459  0.4418 -0.8911  0.0217
  478SOL    HW2 1434   0.045   2.308   2.331 -1.1862  0.2199  1.6963
  479SOL     OW 1435   0.197   0.806   1.734  0.0523  0.3509  0.5058
  479SOL    HW1 1436   0.269   0.879   1.721 -1.3455 -0.2923  0.6787
  479SOL    HW2 1437   0.171   0.761   1.643  0.1408 -2.0048  1.3679
  480SOL     OW 1438   2.824   2.377   3.063  0.5183 -0.0196  0.5820
  480SOL    HW1 1439   2.832   2.345   0.057 -0.6183  0.3729 -4.7992
  480SOL    HW2 1440   2.894   2.448   3.041  2.6215  0.0107 -0.2267
  481SOL     OW 1441   1.497   2.011   2.165 -0.0799  0.2478  0.5587
  481SOL    HW1 1442   1.576   1.947   2.151 -2.3522 -0.0233  0.9302
  481SOL    HW2 1443   1.419   1.967   2.205  2.9034  0.1121 -0.8005
  482SOL     OW 1444   1.526   2.122   2.616 -0.3795  0.8166  0.4501
  482SOL    HW1 1445   1.524   2.022   2.577 -0.0471 -0.5909 -0.6376
  482SOL    HW2 1446   1.611   2.159   2.578 -2.1992 -0.2304  2.1100
  483SOL     OW 1447   0.795   2.040   2.609 -0.8606 -0.2116 -0.2001
  483SOL    HW1 1448   0.703   2.085   2.591  3.8775  1.1731  2.0490
  483SOL    HW2 1449   0.853   2.112   2.653 -1.1986  0.3047  1.0820
  484SOL     OW 1450   0.058   0.309   1.172 -0.2917  0.0984 -0.1483
  484SOL    HW1 1451   0.049   0.337   1.271 -0.8412 -2.4101 -0.5928
  484SOL    HW2 1452   0.010   0.217   1.167 -0.0734 -0.9222  1.5850
  485SOL     OW 1453   1.982   0.587   0.428  0.3595  0.1444  0.1142
  485SOL    HW1 1454   1.914   0.637   0.480  3.0891 -0.3122 -1.8877
  485SOL    HW2 1455   1.936   0.558   0.342 -0.0582 -2.2314  2.3810
  486SOL     OW 1456   1.859   2.809   2.459  0.2756 -0.5318  0.0338
  486SOL    HW1 1457   1.917   2.815   2.379 -0.0774  2.1017 -1.2643
  486SOL    HW2 1458   1.914   2.780   2.541  0.8245 -1.2049 -1.0780
  487SOL     OW 1459   1.617   1.468   0.744  0.2368  0.5808  0.4464
  487SOL    HW1 1460   1.707   1.426   0.759 -1.1431 -0.1292  0.3240
  487SOL    HW2 1461   1.588   1.532   0.817 -0.1834 -2.0421  0.5937
  488SOL     OW 1462   2.261   1.270   0.213  0.0506 -0.2676  0.2769
  488SOL    HW1 1463   2.238   1.178   0.246  0.9163  2.2660  0.1991
  488SOL    HW2 1464   2.218   1.297   0.123  1.2132 -1.9114 -2.0420
  489SOL     OW 1465   2.312   0.226   0.792 -0.1462  0.0585  0.1940
  489SOL    HW1 1466   2.261   0.187   0.710 -2.9669 -1.2409 -2.1371
  489SOL    HW2 1467   2.286   0.168   0.875 -3.7218 -0.8739  4.0397
  490SOL     OW 1468   1.523   2.743   0.086 -0.6532 -0.4647  0.2867
  490SOL    HW1 1469   1.476   2.726   0.173  0.2630 -0.0906  1.0974
  490SOL    HW2 1470   1.517   2.842   0.068 -0.9614  3.1321  2.1138
  491SOL     OW 1471   0.844   0.932   0.679 -0.1968  0.3356  0.0766
  491SOL    HW1 1472   0.812   1.021   0.715  3.9555 -0.7773 -0.5268
  491SOL    HW2 1473   0.875   0.943   0.582 -0.5842 -1.1433 -0.2152
  492SOL     OW 1474   1.599   0.154   0.114 -0.6427 -0.2603  0.1008
  492SOL    HW1 1475   1.657   0.075   0.114 -0.6529  2.0642 -0.8687
  492SOL    HW2 1476   1.526   0.141   0.043 -0.6241 -0.4639  0.2303
  493SOL     OW 1477   1.807   2.307   2.916 -0.0650  0.3346  0.3040
  493SOL    HW1 1478   1.731   2.240   2.904 -0.3678 -0.1890 -0.7496
  493SOL    HW2 1479   1.805   2.389   2.856  0.5511 -3.2701  0.2669
  494SOL     OW 1480   0.517   1.117   0.548  0.1019  0.2975  0.2422
  494SOL    HW1 1481   0.501   1.060   0.629  0.0728  1.8492 -2.3295
  494SOL    HW2 1482   0.490   1.213   0.569 -0.1418 -1.4603 -1.7332
  495SOL     OW 1483   2.844   3.002   1.236  0.0521 -0.2402 -0.6569
  495SOL    HW1 1484   2.783   3.059   1.298  1.1182  1.8835  2.2552
  495SOL    HW2 1485   2.801   2.920   1.204 -0.2037  0.4260 -0.5837
  496SOL     OW 1486   2.426   3.054   1.693  0.1264  0.1629  0.1027
  496SOL    HW1 1487   2.497   3.045   1.765  2.5073  1.1932 -0.5044
  496SOL    HW2 1488   2.440   0.038   1.639  0.6226 -1.6619  1.1002
  497SOL     OW 1489   1.720   1.599   2.716  0.0983  0.0772  0.5531
  497SOL    HW1 1490   1.666   1.514   2.704  3.1259  1.6796  0.1759
  497SOL    HW2 1491   1.774   1.618   2.630 -0.0198  0.2862  4.5576
  498SOL     OW 1492   0.828   1.818   0.705 -0.2649  0.2193 -0.1074
  498SOL    HW1 1493   0.734   1.798   0.665 -1.7656 -1.1196 -2.5447
  498SOL    HW2 1494   0.830   1.812   0.806 -3.6405 -1.1993  0.1476
  499SOL     OW 1495   0.359   1.720   1.167  0.0009 -0.3754  0.3891
  499SOL    HW1 1496   0.356   1.825   1.173  1.7970  1.5122  1.5233
  499SOL    HW2 1497   0.268   1.673   1.159  1.1591 -4.0135  2.8997
  500SOL     OW 1498   1.324   2.332   0.183  0.2548 -0.1542 -0.0536
  500SOL    HW1 1499   1.391   2.370   0.114 -0.4067 -0.2041  1.7529
  500SOL    HW2 1500   1.372   2.300   0.263 -0.5602  0.3170 -2.6880
  501SOL     OW 1501   2.503   2.423   1.053 -0.1514 -0.3219  0.5383
  501SOL    HW1 1502   2.466   2.507   1.096  1.3698  2.2764  2.1252
  501SOL    HW2 1503   2.435   2.386   0.993  1.1863  2.3455  4.5223
  502SOL     OW 1504   0.252   0.990   1.444 -0.0289  0.3105 -0.1881
  502SOL    HW1 1505   0.347   0.957   1.407  2.9533 -2.8312 -0.9704
  502SOL    HW2 1506   0.175   0.946   1.395  0.6139  0.5570  0.1149
  503SOL     OW 1507   2.320   0.651   1.600 -0.0367  0.1144  0.7061
  503SOL    HW1 1508   2.380   0.662   1.680  1.0768  0.8095 -1.3636
  503SOL    HW2 1509   2.279   0.739   1.568 -1.5865  1.4644 -1.1428
  504SOL     OW 1510   1.695   0.647   1.994 -0.7801  0.4672  0.2233
  504SOL    HW1 1511   1.621   0.619   2.059  0.2127  0.1347 -0.8085
  504SOL    HW2 1512   1.656   0.692   1.909  1.6456 -2.0287 -0.3055
  505SOL     OW 1513   1.048   0.341   2.773  0.4684 -0.6448 -0.3045
  505SOL    HW1 1514   1.036   0.240   2.788 -2.0256  0.4221  1.2956
  505SOL    HW2 1515   1.053   0.392   2.860 -0.1726  0.7975  0.6395
  506SOL     OW 1516   0.415   0.607   1.464 -0.8242  0.1824  0.4919
  506SOL    HW1 1517   0.473   0.579   1.385  1.5009  0.5730  2.1383
  506SOL    HW2 1518   0.455   0.571   1.548 -2.7987 -0.1928 -1.2154
  507SOL     OW 1519   1.407   2.948   3.062 -0.1858  0.3410 -0.0525
  507SOL    HW1 1520   1.317   2.934   3.018 -0.7815  2.5879  1.8222
  507SOL    HW2 1521   1.424   3.046   3.076  1.1214 -0.1471 -4.1128
  508SOL     OW 1522   2.576   0.465   2.592 -0.4856  0.6382  0.0805
  508SOL    HW1 1523   2.510   0.449   2.672 -0.4892  0.1367 -3.0980
  508SOL    HW2 1524   2.535   0.429   2.506 -1.6761  0.2297  2.8442
  509SOL     OW 1525   0.952   1.436   2.034 -0.6457  0.0950  0.2062
  509SOL    HW1 1526   0.872   1.419   2.100 -0.2244  1.2756  2.1588
  509SOL    HW2 1527   0.918   1.473   1.945  1.3020  2.6529  0.5188
  510SOL     OW 1528   0.044   1.233   0.757 -0.2917  0.4083 -0.0729
  510SOL    HW1 1529   0.017   1.331   0.772 -0.1793  1.2504  2.0269
  510SOL    HW2 1530   3.062   1.170   0.768  0.0282  0.5309 -0.1256
  511SOL     OW 1531   1.742   1.563   1.090  0.1461 -0.2689 -0.3837
  511SOL    HW1 1532   1.694   1.497   1.148  1.6902  1.4618  0.9838
  511SOL    HW2 1533   1.829   1.521   1.067  1.6125  1.9332  1.8838
  512SOL     OW 1534   0.915   1.264   0.057 -0.3275  0.0785  0.2043
  512SOL    HW1 1535   0.957   1.354   0.063  1.5967  1.8320 -2.4052
  512SOL    HW2 1536   0.974   1.189   0.101  0.1253 -1.5202  1.5591
  513SOL     OW 1537   0.258   2.468   0.676 -0.6419 -0.4417  0.0850
  513SOL    HW1 1538   0.213   2.557   0.671  2.1205  0.2274  0.0073
  513SOL    HW2 1539   0.361   2.483   0.660  1.5806  0.5781 -0.4676
  514SOL     OW 1540   0.058   2.069   2.478 -0.0127  0.6671 -0.5125
  514SOL    HW1 1541   0.085   1.983   2.433 -1.8154  3.7032 -0.3649
  514SOL    HW2 1542   3.058   2.080   2.474 -0.0103  0.6953 -1.7194
  515SOL     OW 1543   2.363   0.647   0.192 -0.8874 -0.3494 -0.1819
  515SOL    HW1 1544   2.425   0.700   0.257  1.4131  1.1710  2.5031
  515SOL    HW2 1545   2.285   0.610   0.241 -0.1616  1.6474 -0.5302
  516SOL     OW 1546   2.666   2.801   0.710 -0.0471 -0.2788 -0.3025
  516SOL    HW1 1547   2.699   2.795   0.809 -3.2506 -0.3932  2.3771
  516SOL    HW2 1548   2.592   2.870   0.717 -0.0354  1.0337  1.7682
  517SOL     OW 1549   1.406   1.696   2.965  0.3361  0.5360 -0.2356
  517SOL    HW1 1550   1.466   1.666   3.042  0.4027  1.1306  0.2842
  517SOL    HW2 1551   1.332   1.760   2.997 -0.3449 -0.2272 -1.6756
  518SOL     OW 1552   1.047   0.766   1.642 -0.0806  0.2520 -0.0328
  518SOL    HW1 1553   0.991   0.794   1.560 -1.4109  0.6168 -1.1176
  518SOL    HW2 1554   1.088   0.672   1.635  2.4719 -0.7303 -0.9467
  519SOL     OW 1555   2.961   1.639   0.440 -0.0033 -0.3666 -0.4214
  519SOL    HW1 1556   2.921   1.664   0.531  0.3160 -1.9511  1.1923
  519SOL    HW2 1557   3.017   1.557   0.452 -1.3376  0.1619 -1.5059
  520SOL     OW 1558   2.187   2.113   1.917  0.1090 -0.0102  0.5723
  520SOL    HW1 1559   2.261   2.158   1.969 -0.2708  0.3993  2.5650
  520SOL    HW2 1560   2.167   2.023   1.954 -1.0751 -0.9655  0.4557
  521SOL     OW 1561   0.839   2.946   2.671  0.4514  0.0780  0.1091
  521SOL    HW1 1562   0.761   3.004   2.691 -1.2559  0.3034 -0.1861
  521SOL    HW2 1563   0.843   2.918   2.574 -0.1512  0.6569  3.3222
  522SOL     OW 1564   2.552   0.326   2.355  0.3658 -0.0129  0.6659
  522SOL    HW1 1565   2.494   0.348   2.273  1.1582  2.0724  0.8279
  522SOL    HW2 1566   2.528   0.232   2.386  0.1343  3.0441  0.4601
  523SOL     OW 1567   1.802   2.314   1.686  0.2154  0.2652  0.2145
  523SOL    HW1 1568   1.827   2.413   1.698  2.7449 -1.5759  0.4678
  523SOL    HW2 1569   1.836   2.255   1.765 -0.8367  1.2647 -1.9504
  524SOL     OW 1570   1.639   2.088   2.873  0.4077  0.0597 -0.5699
  524SOL    HW1 1571   1.602   2.120   2.783  2.1556  0.2664 -1.7790
  524SOL    HW2 1572   1.635   1.985   2.868  1.2765 -0.2428  0.1298
  525SOL     OW 1573   0.189   0.706   3.019  0.7859  0.3340 -0.7134
  525SOL    HW1 1574   0.233   0.672   0.006 -2.3237  0.6899  0.4469
  525SOL    HW2 1575   0.143   0.627   2.969 -1.1887 -2.7625 -2.8538
  526SOL     OW 1576   1.120   2.901   0.542  0.1435  0.4222 -0.0668
  526SOL    HW1 1577   1.201   2.934   0.486 -0.4670 -2.4281 -2.0667
  526SOL    HW2 1578   1.151   2.871   0.634  2.8850 -1.3027 -1.7847
  527SOL     OW 1579   2.453   1.692   0.791 -0.4180 -0.8810  0.5591
  527SOL    HW1 1580   2.526   1.759   0.762 -0.3434  2.3518  0.7484
  527SOL    HW2 1581   2.425   1.628   0.713 -2.4228 -1.2212 -0.9515
  528SOL     OW 1582   0.757   0.949   2.229 -0.1235 -0.0493  0.9022
  528SOL    HW1 1583   0.757   1.002   2.317  0.0640  3.0630  0.2445
  528SOL    HW2 1584   0.668   0.956   2.186 -0.5924  0.0576  0.2625
  529SOL     OW 1585   1.391   1.751   2.701  0.2046 -0.1340  0.3070
  529SOL    HW1 1586   1.382   1.752   2.799  2.0252  2.1475 -1.3624
  529SOL    HW2 1587   1.392   1.654   2.666  1.2399 -0.1102 -0.9436
  530SOL     OW 1588   1.607   1.190   2.427  0.2540 -0.1224 -0.2486
  530SOL    HW1 1589   1.612   1.255   2.347  1.9712 -0.7216 -1.6544
  530SOL    HW2 1590   1.544   1.111   2.418  0.9870  0.1123 -0.4646
  531SOL     OW 1591   0.605   2.244   2.720 -0.0288 -1.0259  0.3902
  531SOL    HW1 1592   0.546   2.196   2.793 -0.5339 -0.7898  0.3902
  531SOL    HW2 1593   0.674   2.308   2.765  0.4548  1.6555  0.5468
  532SOL     OW 1594   2.448   0.840   0.584  0.0644  0.3986  0.4746
  532SOL    HW1 1595   2.471   0.927   0.634 -0.6460  1.7372  1.0425
  532SOL    HW2 1596   2.475   0.752   0.634  2.0057 -3.2292  2.6733
  533SOL     OW 1597   0.156   0.409   1.734 -0.1781 -0.2967  0.8838
  533SOL    HW1 1598   0.175   0.489   1.664  2.1089  2.7534 -3.3053
  533SOL    HW2 1599   0.127   0.445   1.823 -3.0068  0.7794 -1.9364
  534SOL     OW 1600   1.110   0.029   0.208  0.2863 -0.0556 -0.6666
  534SOL    HW1 1601   1.136   0.108   0.150  0.1089  0.2731 -1.6890
  534SOL    HW2 1602   1.009   0.037   0.232 -2.4986 -1.0650  1.2356
  535SOL     OW 1603   0.347   3.081   3.060 -0.3853 -0.1440  0.1521
  535SOL    HW1 1604   0.308   3.012   3.001  0.8685  2.3283  1.0810
  535SOL    HW2 1605   0.404   3.040   0.032 -0.6121 -2.0225 -0.7964
  536SOL     OW 1606   0.528   1.627   1.345  0.3145  0.2786  0.5292
  536SOL    HW1 1607   0.453   1.685   1.297 -3.6519  0.9276 -2.5163
  536SOL    HW2 1608   0.546   1.658   1.443  0.4781  0.0141  1.0860
  537SOL     OW 1609   0.872   2.645   1.821  0.0601  0.3515  0.3754
  537SOL    HW1 1610   0.931   2.709   1.870  0.7285  0.6610  0.9783
  537SOL    HW2 1611   0.794   2.623   1.881  0.1066 -0.3172 -0.6402
  538SOL     OW 1612   2.956   1.751   3.042 -0.1791 -0.2445 -0.1387
  538SOL    HW1 1613   2.978   1.831   2.984  0.9054  0.7578 -0.5369
  538SOL    HW2 1614   3.029   1.738   0.010 -1.8818  0.9357 -0.9888
  539SOL     OW 1615   2.598   0.737   2.698 -0.1351  0.0942 -0.5220
  539SOL    HW1 1616   2.566   0.649   2.652 -0.6293 -1.4522 -1.9107
  539SOL    HW2 1617   2.626   0.718   2.796  0.8791  0.1935  4.6877
  540SOL     OW 1618   1.716   0.393   2.564  0.1971  0.2056 -0.2011
  540SOL    HW1 1619   1.665   0.423   2.650 -1.0964 -0.7094  1.9807
  540SOL    HW2 1620   1.796   0.451   2.546 -1.3352 -0.6794 -3.6190
  541SOL     OW 1621   0.820   0.173   1.924 -0.1613 -0.2409  0.5274
  541SOL    HW1 1622   0.776   0.229   1.994 -0.3527 -2.7347 -2.0350
  541SOL    HW2 1623   0.890   0.225   1.876  0.8909 -0.2856  1.7433
  542SOL     OW 1624   1.740   2.690   3.004 -0.3408  0.2076 -0.4335
  542SOL    HW1 1625   1.683   2.679   3.083  1.3365  0.6003 -4.0466
  542SOL    HW2 1626   1.701   2.753   2.936 -0.3780 -1.4341  2.4172
  543SOL     OW 1627   0.881   3.045   0.577  0.9121 -0.3224  0.2506
  543SOL    HW1 1628   0.863   0.016   0.646  0.9882  1.4013  0.6505
  543SOL    HW2 1629   0.972   3.009   0.575 -1.4202 -0.3391  1.5792
  544SOL     OW 1630   2.625   1.603   1.861 -0.2206  0.2439  0.3528
  544SOL    HW1 1631   2.679   1.576   1.946  2.7076 -2.0860  0.8077
  544SOL    HW2 1632   2.564   1.681   1.880  1.0720 -2.8242  0.1651
  545SOL     OW 1633   2.176   1.763   1.348  0.2754  0.0252  0.2557
  545SOL    HW1 1634   2.234   1.758   1.432 -0.2488  0.7889 -2.1290
  545SOL    HW2 1635   2.144   1.671   1.319  1.8588  1.4575 -2.6777
  546SOL     OW 1636   0.067   0.166   2.131  0.0297 -0.0164  0.1682
  546SOL    HW1 1637   0.143   0.194   2.070  3.2558 -0.2090 -0.9669
  546SOL    HW2 1638   0.094   0.079   2.177 -0.6330  0.4292 -3.0675
  547SOL     OW 1639   1.172   0.605   1.092  0.4262  0.2073 -0.0543
  547SOL    HW1 1640   1.181   0.598   1.194 -2.0641 -2.1968  1.2877
  547SOL    HW2 1641   1.243   0.660   1.049  0.5860 -4.1276  1.2602
  548SOL     OW 1642   1.357   2.321   2.796  0.1822  0.1497  0.1998
  548SOL    HW1 1643   1.288   2.288   2.864 -2.4635 -1.9699  0.1525
  548SOL    HW2 1644   1.383   2.242   2.738 -2.3867  1.3715 -0.0100
  549SOL     OW 1645   2.208   0.210   0.314 -0.1821 -0.2157  0.2810
  549SOL    HW1 1646   2.150   0.229   0.232 -0.0645  0.9436  0.2393
  549SOL    HW2 1647   2.266   0.128   0.297 -1.6496  1.3596 -0.3405
  550SOL     OW 1648   2.819   2.112   0.687  0.3276 -0.1834 -0.4763
  550SOL    HW1 1649   2.762   2.177   0.630 -0.9543 -1.3018  3.0728
  550SOL    HW2 1650   2.913   2.106   0.651 -2.2546  1.5054 -0.6098
  551SOL     OW 1651   1.120   3.021   2.292  0.6589 -0.1580  0.3185
  551SOL    HW1 1652   1.096   3.009   2.195  0.4477 -2.9044  1.7332
  551SOL    HW2 1653   1.149   0.019   2.306  2.7084 -1.0249 -2.2845
  552SOL     OW 1654   2.986   2.377   2.617  0.5554 -0.5960 -0.4117
  552SOL    HW1 1655   2.968   2.306   2.546  0.8833  2.6179  0.3075
  552SOL    HW2 1656   2.933   2.365   2.703 -1.1351 -0.5308 -0.2153
  553SOL     OW 1657   0.278   2.907   1.061  0.3695 -0.1159  0.6532
  553SOL    HW1 1658   0.229   2.995   1.065 -1.1819 -2.4942  1.5789
  553SOL    HW2 1659   0.217   2.838   1.021  0.1271  1.5901 -1.1593
  554SOL     OW 1660   2.307   2.089   1.473 -0.2254  0.2489 -0.3445
  554SOL    HW1 1661   2.242   2.071   1.550 -0.5408 -0.3925 -0.4404
  554SOL    HW2 1662   2.278   2.164   1.409 -0.4987  2.5317 -0.3189
  555SOL     OW 1663   1.586   2.156   1.959  0.1044  0.2927  0.2192
  555SOL    HW1 1664   1.524   2.092   2.013 -0.7877 -2.1254  1.3203
  555SOL    HW2 1665   1.586   2.257   1.983  0.0174  2.2412 -1.1713
  556SOL     OW 1666   1.189   1.347   1.123 -0.0700  0.1460  0.2433
  556SOL    HW1 1667   1.271   1.283   1.117  2.9939 -0.8924  0.9424
  556SOL    HW2 1668   1.222   1.443   1.127 -0.5614 -0.3566  0.6241
  557SOL     OW 1669   1.944   2.898   1.823 -0.1693  0.3266 -0.1088
  557SOL    HW1 1670   2.033   2.946   1.810  1.7106 -2.5742  1.4932
  557SOL    HW2 1671   1.878   2.966   1.859 -1.0137  1.7071 -0.5296
  558SOL     OW 1672   0.251   0.044   1.859 -0.1124 -0.2802 -0.6672
  558SOL    HW1 1673   0.252   0.139   1.906  0.9972  1.0203  0.6952
  558SOL    HW2 1674   0.220   0.053   1.765  1.8209  1.0456  2.2024
  559SOL     OW 1675   2.181   2.882   0.861 -0.4438  0.2833  0.0933
  559SOL    HW1 1676   2.236   2.948   0.916  0.1498 -1.0511 -1.0519
  559SOL    HW2 1677   2.205   2.878   0.764  0.1342  1.3085 -0.5063
  560SOL     OW 1678   1.910   2.535   0.751 -0.7676  0.1950 -0.9373
  560SOL    HW1 1679   1.965   2.507   0.831 -0.4918 -0.9130  0.0373
  560SOL    HW2 1680   1.844   2.603   0.788 -0.0179  2.1630  0.6016
  561SOL     OW 1681   0.863   0.170   0.743  0.4440  0.3068  0.6142
  561SOL    HW1 1682   0.957   0.200   0.763 -1.8320  0.4376 -1.4396
  561SOL    HW2 1683   0.800   0.244   0.721  0.1305 -3.8545  0.5867
  562SOL     OW 1684   0.494   1.390   2.223 -0.5981 -0.0928 -0.3043
  562SOL    HW1 1685   0.426   1.462   2.220  1.0977 -1.1433 -1.8152
  562SOL    HW2 1686   0.495   1.341   2.311  2.5937 -2.1338  1.1073
  563SOL     OW 1687   1.514   2.268   2.302 -0.7332 -0.0370  0.8191
  563SOL    HW1 1688   1.510   2.181   2.249 -0.8768 -0.7765 -0.3183
  563SOL    HW2 1689   1.590   2.276   2.358 -3.0347  2.9294 -1.8924
  564SOL     OW 1690   2.930   1.051   0.787  0.0717  0.8978  0.2893
  564SOL    HW1 1691   2.941   1.018   0.688  1.0524  0.3580 -1.3759
  564SOL    HW2 1692   2.835   1.034   0.818  1.5965 -1.6582 -0.2974
  565SOL     OW 1693   0.572   0.969   0.110 -0.2824 -0.2300 -0.1228
  565SOL    HW1 1694   0.587   0.945   0.011 -1.7547  0.3962  0.1079
  565SOL    HW2 1695   0.621   1.053   0.140  0.0540 -2.9718 -0.6009
  566SOL     OW 1696   2.359   0.191   2.762 -0.3106 -0.1196 -0.1880
  566SOL    HW1 1697   2.270   0.160   2.809  1.9347 -0.6253  0.5315
  566SOL    HW2 1698   2.394   0.271   2.814 -2.0647  0.0060  0.5706
  567SOL     OW 1699   1.367   0.750   0.975  0.0664  0.4832 -0.1090
  567SOL    HW1 1700   1.467   0.753   0.951 -0.5518 -1.1602 -2.1017
  567SOL    HW2 1701   1.327   0.843   0.981 -2.3286 -1.4150 -1.3699
  568SOL     OW 1702   1.710   1.792   2.899  0.0132 -0.0432 -0.4176
  568SOL    HW1 1703   1.661   1.753   2.980 -0.2787 -0.7816 -0.7030
  568SOL    HW2 1704   1.705   1.720   2.829 -0.5086 -3.4233  2.5786
  569SOL     OW 1705   2.151   1.376   3.096 -0.0138  0.1149 -0.2564
  569SOL    HW1 1706   2.095   1.455   0.020  2.4495 -2.2285 -1.3274
  569SOL    HW2 1707   2.239   1.401   3.055 -1.4530  1.2265  2.0433
  570SOL     OW 1708   0.308   2.430   1.801 -0.4420  0.3244 -0.1882
  570SOL    HW1 1709   0.380   2.504   1.812 -0.5575  1.7893  0.1843
  570SOL    HW2 1710   0.238   2.458   1.732 -1.7862  0.1329  3.9973
  571SOL     OW 1711   2.996   1.731   1.757  0.2702 -0.3518  0.1915
  571SOL    HW1 1712   2.997   1.832   1.747  4.3135 -0.2369 -0.3855
  571SOL    HW2 1713   3.093   1.701   1.750  1.0258  1.4879  1.7859
  572SOL     OW 1714   1.639   1.988   0.474 -0.0348 -0.6019 -0.0498
  572SOL    HW1 1715   1.617   1.914   0.539 -0.9531  0.9640 -1.1908
  572SOL    HW2 1716   1.738   2.015   0.488  1.1345 -0.1578 -1.7149
  573SOL     OW 1717   1.873   2.139   0.458 -0.6046 -0.1024  0.5369
  573SOL    HW1 1718   1.911   2.188   0.376 -1.3000 -1.3382  0.6387
  573SOL    HW2 1719   1.862   2.203   0.535 -0.0092 -0.7493 -2.2146
  574SOL     OW 1720   0.699   0.017   0.900  0.1945  0.6483  0.4214
  574SOL    HW1 1721   0.626   0.081   0.928 -0.3872 -0.6593 -1.8718
  574SOL    HW2 1722   0.747   0.068   0.820 -0.1544  0.0265 -0.9095
  575SOL     OW 1723   0.755   1.072   1.779 -0.1249  0.2001 -0.0562
  575SOL    HW1 1724   0.749   1.170   1.742  1.4258  1.4818 -1.8217
  575SOL    HW2 1725   0.825   1.060   1.851 -1.5141 -0.0307  3.9543
  576SOL     OW 1726   2.698   0.056   1.398  0.7764  0.5134 -0.2047
  576SOL    HW1 1727   2.762   0.109   1.459  0.0922 -2.8658  1.4703
  576SOL    HW2 1728   2.651   0.117   1.331  0.3098 -1.0895 -3.0262
  577SOL     OW 1729   1.166   0.952   2.461  0.1209  0.2331 -0.0203
  577SOL    HW1 1730   1.111   0.910   2.535 -1.1405 -2.0007 -2.0812
  577SOL    HW2 1731   1.215   0.880   2.408  0.6082 -1.1704 -0.5034
  578SOL     OW 1732   2.192   1.265   2.514 -0.3692  0.0811 -0.3020
  578SOL    HW1 1733   2.091   1.268   2.514 -0.4662  1.2722  0.1412
  578SOL    HW2 1734   2.231   1.358   2.516  0.3911 -0.9207 -0.8784
  579SOL     OW 1735   1.631   2.088   1.711  0.1657 -0.4931 -0.1847
  579SOL    HW1 1736   1.611   2.104   1.808 -2.0436  1.1201 -0.0626
  579SOL    HW2 1737   1.695   2.156   1.670  0.6135  1.8847 -1.7828
  580SOL     OW 1738   1.310   1.787   0.306  0.2579 -0.3739 -0.1753
  580SOL    HW1 1739   1.388   1.723   0.320 -1.5360 -1.0448 -2.6653
  580SOL    HW2 1740   1.248   1.789   0.389 -1.9714  1.1072 -0.5445
  581SOL     OW 1741   1.224   0.802   2.075 -0.5473 -0.2517  0.0209
  581SOL    HW1 1742   1.152   0.755   2.019  2.4704 -2.0510 -0.8394
  581SOL    HW2 1743   1.233   0.768   2.171 -0.1211 -0.8410 -0.7683
  582SOL     OW 1744   0.677   1.340   1.711  0.8073 -0.0363  0.1538
  582SOL    HW1 1745   0.720   1.425   1.746 -2.8401 -0.1309 -2.1803
  582SOL    HW2 1746   0.656   1.352   1.610  1.2074  0.6298  1.6398
  583SOL     OW 1747   1.101   1.205   2.065  0.2386  0.2319 -0.3311
  583SOL    HW1 1748   1.041   1.132   2.031 -0.6712 -0.2264  0.6634
  583SOL    HW2 1749   1.060   1.301   2.057 -1.2981 -2.3460 -0.0882
  584SOL     OW 1750   2.569   2.552   0.614 -0.2477  0.4425  0.6055
  584SOL    HW1 1751   2.466   2.559   0.624 -2.3408  0.8362  4.5880
  584SOL    HW2 1752   2.603   2.647   0.619 -0.8453 -0.6100  0.0815
  585SOL     OW 1753   1.948   3.050   2.721  0.0802 -0.6265 -0.3379
  585SOL    HW1 1754   1.883   0.027   2.691 -1.7655  0.5740 -1.7406
  585SOL    HW2 1755   1.976   3.072   2.820  0.3608 -0.5330 -0.2632
  586SOL     OW 1756   0.111   2.257   0.576  0.6659 -0.4014 -0.5096
  586SOL    HW1 1757   0.017   2.299   0.588 -0.7059  1.6275  0.4212
  586SOL    HW2 1758   0.179   2.325   0.606 -0.4414 -0.0224  2.7694
  587SOL     OW 1759   1.628   1.691   0.056 -0.3181 -0.6034  0.1255
  587SOL    HW1 1760   1.644   1.764   0.127  0.8928  2.0428 -0.4642
  587SOL    HW2 1761   1.669   1.601   0.091 -0.2364  0.4273  0.8423
  588SOL     OW 1762   0.344   0.256   1.162  0.5291 -0.0133  0.2780
  588SOL    HW1 1763   0.346   0.203   1.245 -0.3673 -1.4453 -0.7838
  588SOL    HW2 1764   0.271   0.320   1.155  5.3038  1.6175 -1.1907
  589SOL     OW 1765   1.629   0.602   0.818  0.2662 -0.4559  0.2311
  589SOL    HW1 1766   1.721   0.571   0.790 -2.8662 -0.2892  0.8181
  589SOL    HW2 1767   1.636   0.626   0.916 -1.8252  0.3161 -1.2202
  590SOL     OW 1768   1.252   1.172   3.031  0.2337 -0.2008 -0.1036
  590SOL    HW1 1769   1.246   1.274   3.041 -1.0408 -1.0821  0.1575
  590SOL    HW2 1770   1.181   1.120   3.085 -0.8240 -3.7492  1.3913
  591SOL     OW 1771   2.365   2.417   2.505 -0.2219  0.2410 -0.3000
  591SOL    HW1 1772   2.439   2.477   2.551  0.2759  0.8037  1.3127
  591SOL    HW2 1773   2.325   2.468   2.428  1.6772 -0.9507 -1.7160
  592SOL     OW 1774   1.992   1.985   1.410  0.0915 -0.2748 -0.0761
  592SOL    HW1 1775   2.028   2.041   1.487 -0.0751 -1.0324  0.0235
  592SOL    HW2 1776   2.064   1.916   1.377  0.2558 -0.3590 -0.2626
  593SOL     OW 1777   0.887   0.222   1.329  0.8751  0.2816 -0.1331
  593SOL    HW1 1778   0.870   0.251   1.426 -0.8738 -0.6979 -1.1171
  593SOL    HW2 1779   0.872   0.307   1.273  0.1839 -1.0962 -0.8606
  594SOL     OW 1780   2.631   0.996   2.524 -0.2473 -0.4014 -0.6484
  594SOL    HW1 1781   2.633   0.909   2.577  1.9067 -2.8993 -1.1596
  594SOL    HW2 1782   2.678   0.991   2.433 -2.3386  1.1131  0.6825
  595SOL     OW 1783   0.166   0.038   0.744  0.2041  0.1884  0.0622
  595SOL    HW1 1784   0.154   0.050   0.841 -2.2680  3.9614 -3.5829
  595SOL    HW2 1785   0.159   3.042   0.713 -0.5707  1.6956 -0.3134
  596SOL     OW 1786   0.058   1.346   1.172  0.0988 -0.2447  0.3074
  596SOL    HW1 1787   0.129   1.312   1.241  0.9036 -2.2554  1.8666
  596SOL    HW2 1788   0.002   1.267   1.143  0.4264 -0.4165  0.3605
  597SOL     OW 1789   1.800   1.482   0.373 -0.0551 -0.3248  0.0790
  597SOL    HW1 1790   1.868   1.409   0.394 -2.1032 -0.3991 -0.3967
  597SOL    HW2 1791   1.821   1.566   0.421 -0.5014  0.3822  0.5961
  598SOL     OW 1792   0.154   2.890   1.843 -0.3263 -0.2785 -0.3593
  598SOL    HW1 1793   0.183   2.851   1.754 -2.1963  1.6556  1.9875
  598SOL    HW2 1794   0.190   2.984   1.857 -1.3593 -0.5740  0.3778
  599SOL     OW 1795   2.475   1.234   2.778  0.2904 -0.3799 -0.6216
  599SOL    HW1 1796   2.393   1.177   2.782 -0.5844 -0.9223 -0.2062
  599SOL    HW2 1797   2.507   1.237   2.875  1.6950  1.1154 -1.9713
  600SOL     OW 1798   0.694   1.205   0.182 -0.2123 -0.8246 -0.2595
  600SOL    HW1 1799   0.775   1.228   0.127  0.9202 -0.7575 -1.2555
  600SOL    HW2 1800   0.713   1.206   0.282  0.7978  0.2994 -1.9439
  601SOL     OW 1801   0.619   1.016   0.999  0.4112  0.6211  0.2636
  601SOL    HW1 1802   0.706   0.967   1.018 -1.2754 -1.3525 -0.0129
  601SOL    HW2 1803   0.562   1.027   1.080  0.0938  0.3207  1.7356
  602SOL     OW 1804   1.536   2.560   0.462  0.5938 -0.1932 -0.9207
  602SOL    HW1 1805   1.543   2.476   0.518  0.4485  0.0417 -1.9144
  602SOL    HW2 1806   1.589   2.539   0.381  1.9144 -1.1564 -2.3360
  603SOL     OW 1807   0.645   2.625   1.966 -0.1356  0.5661  0.4190
  603SOL    HW1 1808   0.590   2.690   1.915  0.2350 -0.6302  1.7849
  603SOL    HW2 1809   0.588   2.543   1.991 -0.6895  4.1128  2.2579
  604SOL     OW 1810   0.239   0.365   2.283 -0.4386  0.3902  0.4153
  604SOL    HW1 1811   0.189   0.281   2.255  0.7070 -0.6000 -0.0588
  604SOL    HW2 1812   0.184   0.447   2.258  0.9863  1.9661 -0.9882
  605SOL     OW 1813   3.083   1.126   1.495 -0.8241  0.2649 -0.3547
  605SOL    HW1 1814   0.083   1.141   1.476 -0.2228  2.0992 -0.4063
  605SOL    HW2 1815   3.049   1.184   1.574  0.7389  0.3451 -0.4753
  606SOL     OW 1816   0.899   1.566   2.427  0.1684  0.6906 -0.1409
  606SOL    HW1 1817   0.815   1.512   2.454 -0.3414  0.6213 -0.1592
  606SOL    HW2 1818   0.988   1.521   2.441  1.0088 -1.2428 -0.7061
  607SOL     OW 1819   0.300   0.036   0.437  0.6688  0.2631  0.4602
  607SOL    HW1 1820   0.391   0.071   0.413 -2.3037  0.4957  2.2140
  607SOL    HW2 1821   0.224   0.075   0.384 -1.4960  0.5698  1.8457
  608SOL     OW 1822   2.118   1.781   2.214 -0.3493 -0.3808 -0.0793
  608SOL    HW1 1823   2.034   1.842   2.217 -2.0045  0.6944 -0.2305
  608SOL    HW2 1824   2.133   1.743   2.307 -0.7640  2.3729  0.9676
  609SOL     OW 1825   2.665   0.413   1.307 -0.0807  0.2329 -0.2082
  609SOL    HW1 1826   2.681   0.442   1.211 -2.4019  0.4005  0.6530
  609SOL    HW2 1827   2.609   0.329   1.311 -0.6547  1.5685 -0.8068
  610SOL     OW 1828   0.472   2.760   0.644 -0.5395  0.5019  0.4881
  610SOL    HW1 1829   0.481   2.800   0.739  0.8238  2.5915 -1.1763
  610SOL    HW2 1830   0.492   2.656   0.634  2.1515 -0.3643 -0.1971
  611SOL     OW 1831   1.586   0.880   3.071 -0.7501  0.4947 -0.0501
  611SOL    HW1 1832   1.622   0.959   0.028  1.5867  2.0961 -1.9509
  611SOL    HW2 1833   1.628   0.889   2.974  3.0851  0.3476  2.3825
  612SOL     OW 1834   0.730   2.253   1.855  0.0739  0.1422 -0.0825
  612SOL    HW1 1835   0.660   2.305   1.911  0.9442  2.3199 -1.0957
  612SOL    HW2 1836   0.795   2.310   1.804 -0.3906 -0.6650  3.9045
  613SOL     OW 1837   0.530   2.495   0.695  0.1169 -0.0265 -0.4669
  613SOL    HW1 1838   0.557   2.492   0.798  3.2454  3.0737 -0.2158
  613SOL    HW2 1839   0.601   2.442   0.646 -0.5577 -0.5470  1.3201
  614SOL     OW 1840   2.214   2.650   1.322  0.0753  0.2732  0.4368
  614SOL    HW1 1841   2.277   2.632   1.402  1.1592 -0.0316  1.0849
  614SOL    HW2 1842   2.148   2.727   1.342 -2.4169  0.6053  1.4166
  615SOL     OW 1843   1.650   1.036   0.246  0.6915  0.5721 -0.0148
  615SOL    HW1 1844   1.591   1.032   0.324  3.2985 -2.6919 -2.1808
  615SOL    HW2 1845   1.734   1.085   0.265 -0.2973  0.5240 -2.8225
  616SOL     OW 1846   1.921   0.522   0.172 -0.1511  0.2007 -0.1719
  616SOL    HW1 1847   1.944   0.614   0.135 -0.3525 -0.8044  1.4680
  616SOL    HW2 1848   1.822   0.507   0.169  3.0073  1.1936  0.1294
  617SOL     OW 1849   0.954   0.801   3.003 -0.4434 -0.4607  0.4117
  617SOL    HW1 1850   1.040   0.851   2.972 -0.8962 -0.7494 -0.2868
  617SOL    HW2 1851   0.966   0.703   3.035 -0.8144 -0.9318  0.7289
  618SOL     OW 1852   0.612   3.033   2.157  0.0106 -0.1885  0.2208
  618SOL    HW1 1853   0.666   2.945   2.154  0.2268  0.0676 -2.5512
  618SOL    HW2 1854   0.575   3.054   2.062 -1.2386  0.7013 -2.4890
  619SOL     OW 1855   3.078   1.501   1.380  0.1051 -0.6113 -0.1136
  619SOL    HW1 1856   0.018   1.455   1.297 -0.2690 -0.7280  1.1096
  619SOL    HW2 1857   2.982   1.474   1.402  0.1400 -0.8416  1.5912
  620SOL     OW 1858   3.092   0.854   2.925 -0.0092 -0.3228 -0.7976
  620SOL    HW1 1859   0.074   0.804   2.960 -0.3868 -1.2492  0.4803
  620SOL    HW2 1860   3.039   0.882   3.006  3.9118 -0.5406 -0.3888
  621SOL     OW 1861   2.283   2.442   1.958 -0.1299  0.1176  0.3591
  621SOL    HW1 1862   2.340   2.400   2.027 -3.0156 -1.4103  1.7020
  621SOL    HW2 1863   2.187   2.437   1.986  0.4528  0.7648  0.3326
  622SOL     OW 1864   0.977   0.481   2.093 -0.0736  0.3820 -0.3063
  622SOL    HW1 1865   0.989   0.403   2.158  1.6700  1.0699 -0.8791
  622SOL    HW2 1866   0.928   0.559   2.138  1.4238 -0.1400 -0.6271
  623SOL     OW 1867   1.002   0.850   2.647  0.0986  0.2778 -0.0028
  623SOL    HW1 1868   0.972   0.770   2.591  1.7188  3.7107  0.3577
  623SOL    HW2 1869   0.979   0.847   2.743 -2.6481 -1.7591  0.7320
  624SOL     OW 1870   2.534   0.809   0.330 -0.4037  0.1880  0.4819
  624SOL    HW1 1871   2.575   0.889   0.280 -1.8914  0.0597  0.2234
  624SOL    HW2 1872   2.512   0.836   0.424  1.6583 -0.3174 -2.9648
  625SOL     OW 1873   1.052   1.315   0.634 -0.1179 -0.5774 -0.4382
  625SOL    HW1 1874   1.036   1.319   0.736  0.8665 -1.0730  0.9276
  625SOL    HW2 1875   0.993   1.381   0.581 -2.0168 -0.8638 -3.8316
  626SOL     OW 1876   1.766   0.927   2.859 -0.4559 -0.1726  0.4195
  626SOL    HW1 1877   1.817   0.908   2.775 -0.7339  1.0873  0.6702
  626SOL    HW2 1878   1.782   1.022   2.887  2.7342 -1.5603  2.2229
  627SOL     OW 1879   0.954   2.824   2.943  0.1077  0.2151  0.7863
  627SOL    HW1 1880   0.875   2.856   2.883 -2.5962 -0.8735 -0.1892
  627SOL    HW2 1881   0.952   2.867   3.031  0.3909 -3.6847 -2.7155
  628SOL     OW 1882   2.181   0.227   2.447  0.6237  0.3815 -0.4432
  628SOL    HW1 1883   2.274   0.199   2.485 -2.2075  0.6845  0.3648
  628SOL    HW2 1884   2.144   0.306   2.506 -1.5607  4.4425  1.6278
  629SOL     OW 1885   0.833   0.410   2.995 -0.2701  0.2713 -0.3174
  629SOL    HW1 1886   0.760   0.463   2.949  0.6207 -1.7921  0.8462
  629SOL    HW2 1887   0.896   0.483   3.036  0.5594 -0.0294  2.2102
  630SOL     OW 1888   0.876   0.407   2.550  0.5570 -0.0405 -0.0331
  630SOL    HW1 1889   0.904   0.385   2.647  0.4297 -0.2332  1.4076
  630SOL    HW2 1890   0.777   0.387   2.544  0.7071 -0.1425  1.3963
  631SOL     OW 1891   2.470   1.087   0.719 -0.2426 -0.3992 -0.1892
  631SOL    HW1 1892   2.375   1.088   0.754 -0.5750 -0.9659  1.6212
  631SOL    HW2 1893   2.492   1.164   0.660 -3.0567 -1.3568  1.1808
  632SOL     OW 1894   1.878   0.703   1.248  0.3403 -0.0985  0.1797
  632SOL    HW1 1895   1.938   0.764   1.303 -2.4243 -2.3622 -2.3324
  632SOL    HW2 1896   1.838   0.627   1.303  0.9187  0.0932  1.1540
  633SOL     OW 1897   0.949   1.562   0.512 -0.1957 -0.3255  0.1398
  633SOL    HW1 1898   0.914   1.603   0.431 -0.3572  0.6821  2.1946
  633SOL    HW2 1899   1.044   1.586   0.540  1.1807 -1.5813  1.0835
  634SOL     OW 1900   2.274   0.034   1.360 -0.4816 -0.1803  0.2583
  634SOL    HW1 1901   2.175   0.038   1.395 -1.2518 -0.0563  0.6512
  634SOL    HW2 1902   2.337   0.075   1.429  1.6909 -0.4008  1.4278
  635SOL     OW 1903   1.790   0.360   1.054 -0.4223 -0.3265 -0.1555
  635SOL    HW1 1904   1.740   0.434   1.096  0.4631 -0.1463 -0.9689
  635SOL    HW2 1905   1.736   0.332   0.974 -0.2036  0.1841  4.1752
  636SOL     OW 1906   0.813   1.200   0.458  0.1922  0.4727  0.0506
  636SOL    HW1 1907   0.728   1.208   0.513  3.1207 -2.5149 -0.4732
  636SOL    HW2 1908   0.896   1.207   0.516 -0.0602 -1.9213  1.8030
  637SOL     OW 1909   2.598   2.117   2.777 -0.0938  0.3941  0.2424
  637SOL    HW1 1910   2.607   2.072   2.871 -1.4757 -3.0601  3.4298
  637SOL    HW2 1911   2.503   2.160   2.761 -2.6414  1.0599 -1.3870
  638SOL     OW 1912   1.483   2.576   2.750  0.0267 -0.2066  0.0537
  638SOL    HW1 1913   1.545   2.596   2.672 -0.5681  2.9682 -1.3471
  638SOL    HW2 1914   1.466   2.477   2.749 -1.0152  4.1957  0.0745
  639SOL     OW 1915   1.405   1.553   1.386  0.2285  0.1171 -0.3510
  639SOL    HW1 1916   1.359   1.638   1.347 -1.8866  0.7608 -0.1953
  639SOL    HW2 1917   1.467   1.517   1.316 -1.5464  2.5883 -1.0896
  640SOL     OW 1918   2.450   2.805   0.382 -0.1668 -0.4342 -0.5202
  640SOL    HW1 1919   2.414   2.728   0.332  0.1837  0.3805 -3.7978
  640SOL    HW2 1920   2.502   2.861   0.314 -2.8218  2.7782  0.1963
  641SOL     OW 1921   0.062   3.069   3.071 -0.4922  1.0257 -0.6458
  641SOL    HW1 1922   0.163   3.058   3.091  1.1425  1.1050  2.1843
  641SOL    HW2 1923   0.001   3.080   0.054 -0.1560 -4.2015  0.8899
  642SOL     OW 1924   2.923   0.767   1.198 -0.2746 -0.0713  0.1239
  642SOL    HW1 1925   2.918   0.734   1.101 -0.7079 -0.7289 -2.4570
  642SOL    HW2 1926   2.875   0.855   1.213  0.0549  0.0846  1.2334
  643SOL     OW 1927   0.887   1.799   1.995 -0.0072  0.3174 -0.3662
  643SOL    HW1 1928   0.912   1.901   2.002 -1.0373 -1.8715  0.0067
  643SOL    HW2 1929   0.960   1.745   1.949  0.4759 -2.2572  0.3673
  644SOL     OW 1930   1.816   2.280   0.688 -0.0080 -0.5081 -0.1274
  644SOL    HW1 1931   1.842   2.208   0.758  0.5698 -2.4916 -0.1589
  644SOL    HW2 1932   1.856   2.372   0.710  1.8869  2.8229  1.7676
  645SOL     OW 1933   1.876   1.884   1.030  0.4965 -0.3441  0.0564
  645SOL    HW1 1934   1.890   1.822   0.955 -2.3990  2.9770  1.3041
  645SOL    HW2 1935   1.803   1.853   1.090  1.1216 -3.1004 -0.7729
  646SOL     OW 1936   1.103   2.487   2.995  0.1588 -0.3132  0.0943
  646SOL    HW1 1937   1.176   2.553   2.972 -0.3095 -2.2103  0.2190
  646SOL    HW2 1938   1.134   2.389   2.989 -0.8226 -0.3408  1.6176
  647SOL     OW 1939   0.489   2.786   1.811  0.4450  0.0540  0.1992
  647SOL    HW1 1940   0.465   2.878   1.850  1.2669  1.7848  1.2729
  647SOL    HW2 1941   0.513   2.787   1.709  2.2674 -1.0336  0.9002
  648SOL     OW 1942   1.675   0.642   1.081  0.5528  0.0193  0.1339
  648SOL    HW1 1943   1.593   0.617   1.137  1.4943  0.4029  0.1119
  648SOL    HW2 1944   1.747   0.683   1.138 -0.5091 -2.8896  1.2698
  649SOL     OW 1945   1.568   2.144   0.041 -0.2514 -0.0669 -0.3544
  649SOL    HW1 1946   1.549   2.243   0.025  1.0397 -1.1768  1.4704
  649SOL    HW2 1947   1.638   2.106   3.075  0.1163  2.4311 -2.4318
  650SOL     OW 1948   2.148   1.663   1.982  0.2328 -0.3301 -0.7334
  650SOL    HW1 1949   2.154   1.691   2.084 -0.9388 -0.7625  4.9457
  650SOL    HW2 1950   2.089   1.588   1.977  0.5138 -0.1260 -0.7370
  651SOL     OW 1951   1.499   2.412   3.074  0.4643 -0.0010  0.0813
  651SOL    HW1 1952   1.463   2.508   3.058 -0.4819  1.1094 -1.3523
  651SOL    HW2 1953   1.504   2.371   2.980 -0.7912  0.8643 -0.3199
  652SOL     OW 1954   0.468   2.248   0.348  0.2875 -0.7754  0.1254
  652SOL    HW1 1955   0.370   2.251   0.322 -0.7400 -1.2840  0.6349
  652SOL    HW2 1956   0.506   2.345   0.336  0.3572  1.1083  2.5957
  653SOL     OW 1957   2.523   1.960   1.333  0.1812 -0.0351 -0.7367
  653SOL    HW1 1958   2.566   2.025   1.271  0.6390 -2.4733  1.2990
  653SOL    HW2 1959   2.445   2.003   1.386  0.8318 -0.5303  2.1759
  654SOL     OW 1960   2.694   2.778   1.260 -0.3695 -0.2521  0.1016
  654SOL    HW1 1961   2.671   2.833   1.341 -0.9705 -1.2791 -4.0027
  654SOL    HW2 1962   2.727   2.684   1.287  1.7060 -0.0986  1.9368
  655SOL     OW 1963   0.044   2.312   1.227 -0.5429 -0.4837 -0.1327
  655SOL    HW1 1964   0.120   2.259   1.276  0.5265 -0.4895  0.8116
  655SOL    HW2 1965   0.028   2.280   1.132 -0.8472 -1.8623 -0.5568
  656SOL     OW 1966   2.918   2.705   2.474 -0.1775 -0.1473 -0.5822
  656SOL    HW1 1967   2.942   2.756   2.389 -1.1581  1.1986 -2.5284
  656SOL    HW2 1968   2.911   2.766   2.558 -0.7021  2.7876  2.4331
  657SOL     OW 1969   3.030   0.816   0.107  0.4479 -0.2085  0.3554
  657SOL    HW1 1970   2.949   0.880   0.089  1.2920  0.0740  3.5736
  657SOL    HW2 1971   3.064   0.838   0.200 -0.2774 -0.4403 -0.2576
  658SOL     OW 1972   1.590   1.831   0.702 -0.4050 -0.2545  0.2440
  658SOL    HW1 1973   1.684   1.825   0.740  0.0833  0.1732  1.8137
  658SOL    HW2 1974   1.537   1.748   0.732 -0.1098 -0.0533  1.1661
  659SOL     OW 1975   1.477   0.556   1.252  0.1056 -0.3287  0.4223
  659SOL    HW1 1976   1.389   0.607   1.264  1.4580  0.8475  1.6778
  659SOL    HW2 1977   1.470   0.457   1.282  2.3618 -1.3311  2.3348
  660SOL     OW 1978   1.726   1.452   0.113  0.1581 -0.2127  0.6391
  660SOL    HW1 1979   1.740   1.466   0.213  0.6660 -2.8869 -0.3583
  660SOL    HW2 1980   1.661   1.375   0.085  1.4092 -2.1247  0.4879
  661SOL     OW 1981   0.058   2.271   0.063  0.0281  0.0510  1.1171
  661SOL    HW1 1982   0.116   2.249   0.146 -1.1503 -1.6983  0.2200
  661SOL    HW2 1983   0.014   2.366   0.071 -0.1535  0.7390 -0.8239
  662SOL     OW 1984   0.157   0.724   1.988 -0.2693 -0.3978  0.3528
  662SOL    HW1 1985   0.092   0.792   2.033 -0.2848 -0.5570  3.7417
  662SOL    HW2 1986   0.172   0.752   1.888 -0.4252 -0.6905 -0.4451
  663SOL     OW 1987   1.852   1.335   0.813  0.1515 -0.2871 -0.1823
  663SOL    HW1 1988   1.855   1.236   0.828 -0.2720 -1.3500  1.1107
  663SOL    HW2 1989   1.921   1.373   0.878 -2.6568  1.9689 -1.0763
  664SOL     OW 1990   0.897   0.453   1.179  0.0929  0.6685 -0.2566
  664SOL    HW1 1991   0.913   0.550   1.159 -2.3852 -0.4621  1.5938
  664SOL    HW2 1992   0.842   0.414   1.105 -1.7270  0.6220 -0.2925
  665SOL     OW 1993   0.969   2.932   0.083  0.2427 -0.3625  0.8482
  665SOL    HW1 1994   0.982   2.873   0.165  2.0252  3.9541  2.4268
  665SOL    HW2 1995   1.024   3.018   0.098  0.0105  1.5289  0.4139
  666SOL     OW 1996   3.060   0.278   2.551 -0.0309 -0.0852  0.7203
  666SOL    HW1 1997   0.045   0.297   2.604  3.8159 -1.2498 -1.0956
  666SOL    HW2 1998   2.976   0.303   2.601 -0.0007 -1.6907  2.3220
  667SOL     OW 1999   2.381   1.906   2.184  0.4897  0.3141 -0.6414
  667SOL    HW1 2000   2.389   1.984   2.248  1.6312 -1.8752 -1.4849
  667SOL    HW2 2001   2.288   1.862   2.174  0.0728 -0.4229  0.5836
  668SOL     OW 2002   0.639   1.507   2.555  0.2232 -0.4912  0.3656
  668SOL    HW1 2003   0.630   1.546   2.648 -1.2619  0.0395  0.7561
  668SOL    HW2 2004   0.594   1.417   2.552  1.4498  0.2937  0.1238
  669SOL     OW 2005   2.114   2.615   2.509  0.1966  0.3351 -0.0858
  669SOL    HW1 2006   2.140   2.601   2.412  0.2250 -1.8761 -1.6423
  669SOL    HW2 2007   2.091   2.523   2.553  0.0286 -3.1505 -0.2224
  670SOL     OW 2008   2.375   1.063   2.424 -0.0092 -0.2128  0.2468
  670SOL    HW1 2009   2.457   1.061   2.486 -0.0058 -1.4336 -1.5268
  670SOL    HW2 2010   2.333   1.154   2.429  1.1629 -2.2864  3.0862
  671SOL     OW 2011   2.429   1.365   3.080 -0.8112  0.0721  0.2519
  671SOL    HW1 2012   2.384   1.275   0.003 -1.1026 -1.0319  0.3640
  671SOL    HW2 2013   2.529   1.368   3.096  0.3505  0.4847  1.6063
  672SOL     OW 2014   2.696   1.251   2.610  0.0747  0.3747  0.3221
  672SOL    HW1 2015   2.624   1.255   2.685 -1.9222  1.9481  0.3944
  672SOL    HW2 2016   2.686   1.159   2.563  1.8520 -1.4214 -0.3060
  673SOL     OW 2017   2.543   0.894   1.455 -0.1221  0.1032  0.4716
  673SOL    HW1 2018   2.588   0.979   1.412 -1.1052  0.2105 -1.3307
  673SOL    HW2 2019   2.591   0.884   1.548 -0.2124  0.8633  1.0101
  674SOL     OW 2020   1.993   1.891   1.950 -0.5713  0.2388  0.1815
  674SOL    HW1 2021   2.058   1.812   1.946 -0.3021  0.3359 -0.9603
  674SOL    HW2 2022   1.947   1.893   1.858 -0.7937 -0.2447 -0.4548
  675SOL     OW 2023   0.231   0.654   0.924 -0.3115 -0.6880  0.0499
  675SOL    HW1 2024   0.209   0.706   0.834 -0.9643 -1.6399 -3.0104
  675SOL    HW2 2025   0.324   0.619   0.919 -2.6032 -1.1188 -0.7381
  676SOL     OW 2026   1.993   1.037   1.110 -0.0498 -0.1357 -0.6575
  676SOL    HW1 2027   2.071   1.100   1.105  2.4215  0.0855 -1.6217
  676SOL    HW2 2028   2.010   0.965   1.186  1.3043 -2.2783  2.8119
  677SOL     OW 2029   1.924   1.322   2.266 -0.4335  0.4797  0.8137
  677SOL    HW1 2030   1.827   1.321   2.238  0.9887  0.6569  0.1645
  677SOL    HW2 2031   1.930   1.382   2.342  1.3483 -0.0471 -2.5421
  678SOL     OW 2032   3.091   1.841   0.783 -0.0246 -0.2678 -0.3389
  678SOL    HW1 2033   3.070   1.835   0.885 -1.1137  3.1937  2.1422
  678SOL    HW2 2034   3.015   1.799   0.724 -1.6333 -2.6800 -0.7688
  679SOL     OW 2035   2.817   2.886   0.301  0.1432 -0.3771 -0.3586
  679SOL    HW1 2036   2.873   2.972   0.286 -1.7642  0.0274 -2.3937
  679SOL    HW2 2037   2.845   2.840   0.389  0.4863  0.9465 -0.0052
  680SOL     OW 2038   0.052   2.610   1.194  0.0835  0.8091 -0.2994
  680SOL    HW1 2039   0.148   2.624   1.224 -1.4127 -0.7576 -1.1400
  680SOL    HW2 2040   0.020   2.515   1.208  1.8924  0.8165  2.1670
  681SOL     OW 2041   0.527   1.172   1.232 -0.5565 -0.3387  0.2101
  681SOL    HW1 2042   0.615   1.224   1.239 -0.2639  0.0526  0.9208
  681SOL    HW2 2043   0.524   1.085   1.288 -1.4850  1.4418 -1.5456
  682SOL     OW 2044   1.803   2.513   1.099 -0.0856  0.5635 -0.7841
  682SOL    HW1 2045   1.886   2.455   1.068 -0.0567 -1.2504  1.3382
  682SOL    HW2 2046   1.838   2.587   1.160  0.6329 -0.0723  0.7688
  683SOL     OW 2047   2.244   1.152   1.138 -0.0915 -0.1960  0.2206
  683SOL    HW1 2048   2.264   1.208   1.058 -3.0045 -2.6974  0.9735
  683SOL    HW2 2049   2.299   1.066   1.150  1.7609  0.8533 -1.4833
  684SOL     OW 2050   0.960   2.063   1.919 -0.1799 -0.4695 -0.4739
  684SOL    HW1 2051   0.887   2.130   1.910  1.3223 -0.7414  0.1721
  684SOL    HW2 2052   1.047   2.106   1.884  2.1089  1.7171  1.1038
  685SOL     OW 2053   2.275   1.505   0.341  0.4763  0.1429 -0.8433
  685SOL    HW1 2054   2.293   1.422   0.290 -1.1438  0.9573  0.5710
  685SOL    HW2 2055   2.200   1.558   0.298  0.2316  3.3496 -3.1480
  686SOL     OW 2056   2.930   0.494   0.367 -0.1996 -0.2977 -1.1346
  686SOL    HW1 2057   2.918   0.527   0.272  3.3523  2.5133  0.3619
  686SOL    HW2 2058   2.877   0.559   0.431  0.1265 -0.4376 -0.0692
  687SOL     OW 2059   1.005   2.797   0.311 -0.2131  0.1569  0.1217
  687SOL    HW1 2060   1.027   2.829   0.408 -2.1543  0.6895  2.6972
  687SOL    HW2 2061   1.067   2.720   0.286  0.8075 -1.6380  1.4004
  688SOL     OW 2062   1.932   1.981   2.303 -0.0745  0.0632 -0.3417
  688SOL    HW1 2063   1.860   1.929   2.244 -2.0672 -1.3821 -0.9956
  688SOL    HW2 2064   1.894   2.004   2.399  1.2627  3.1235  1.5071
  689SOL     OW 2065   2.692   0.996   2.006  0.1151  0.1204  0.1151
  689SOL    HW1 2066   2.593   1.002   1.981  0.8578  0.8059  1.8249
  689SOL    HW2 2067   2.728   1.090   2.034 -1.8760  0.8833  1.1934
  690SOL     OW 2068   1.624   0.917   0.889 -0.7850 -0.0858  0.0109
  690SOL    HW1 2069   1.594   0.879   0.798 -1.2756 -0.1237 -0.0052
  690SOL    HW2 2070   1.696   0.993   0.871  1.5744  0.5320 -2.2977
  691SOL     OW 2071   1.042   1.635   1.404  0.1113  0.5149  0.3687
  691SOL    HW1 2072   1.069   1.535   1.403  0.7000  0.3934  0.1973
  691SOL    HW2 2073   0.974   1.651   1.324  0.0416  1.5725 -0.5902
  692SOL     OW 2074   1.494   0.239   2.199 -0.3921 -0.5668 -0.1419
  692SOL    HW1 2075   1.485   0.316   2.266 -1.7182  0.5535 -2.1351
  692SOL    HW2 2076   1.593   0.219   2.180  0.4613  2.6668  1.1723
  693SOL     OW 2077   0.362   1.247   2.990  0.1433  0.1843 -0.1379
  693SOL    HW1 2078   0.402   1.335   3.022 -1.9062  1.4925 -0.4266
  693SOL    HW2 2079   0.433   1.178   2.999 -5.3515  0.9586 -2.1906
  694SOL     OW 2080   2.317   2.551   0.699 -0.2112 -0.5288 -0.4385
  694SOL    HW1 2081   2.292   2.573   0.800 -1.1550  2.5607  2.2169
  694SOL    HW2 2082   2.247   2.558   0.626 -0.3520 -0.3285 -1.1863
  695SOL     OW 2083   1.603   1.201   2.912  0.2777  0.1651  0.3164
  695SOL    HW1 2084   1.606   1.214   3.015 -0.3050  2.3669 -0.3638
  695SOL    HW2 2085   1.689   1.239   2.867  0.5674  0.7933  1.3487
  696SOL     OW 2086   1.526   0.293   1.347  0.2466 -0.7404  0.1450
  696SOL    HW1 2087   1.465   0.216   1.337  1.1291  0.8304  0.3766
  696SOL    HW2 2088   1.626   0.265   1.346  3.1638  0.8478  0.2396
  697SOL     OW 2089   1.442   0.391   1.985  0.0666 -0.0715 -0.6642
  697SOL    HW1 2090   1.459   0.474   2.038  2.4364  0.9693 -2.1797
  697SOL    HW2 2091   1.460   0.309   2.044  1.3019 -0.2938  1.0546
  698SOL     OW 2092   1.920   1.195   2.541 -0.3024 -0.3750  0.0808
  698SOL    HW1 2093   1.821   1.199   2.517 -0.0982 -0.9897  2.3255
  698SOL    HW2 2094   1.965   1.119   2.490  1.1463 -2.4641 -1.3115
  699SOL     OW 2095   1.426   1.216   1.102  0.6433  0.2666  0.0997
  699SOL    HW1 2096   1.515   1.229   1.148  0.4585 -0.0965 -3.1056
  699SOL    HW2 2097   1.439   1.228   1.002 -1.0216  1.2354  0.5423
  700SOL     OW 2098   1.772   3.000   0.151 -0.2368  0.1372  0.3894
  700SOL    HW1 2099   1.842   3.062   0.196  1.3537  2.2985  0.1955
  700SOL    HW2 2100   1.765   2.909   0.200  0.4542  0.5405 -2.2394
  701SOL     OW 2101   0.505   0.079   1.518 -0.1919 -0.4222 -0.4727
  701SOL    HW1 2102   0.521   0.008   1.446 -1.9314  4.0606  2.6474
  701SOL    HW2 2103   0.558   0.056   1.599  1.4808  0.5887  0.5804
  702SOL     OW 2104   1.516   2.725   1.144  0.0386  0.3080  0.3106
  702SOL    HW1 2105   1.589   2.748   1.212  0.0607 -0.1516  0.2927
  702SOL    HW2 2106   1.533   2.777   1.058  0.8683 -0.7779  0.8781
  703SOL     OW 2107   2.451   0.037   2.058 -0.1731  0.5816 -0.3091
  703SOL    HW1 2108   2.454   3.094   2.151  2.9346 -0.2580  4.3623
  703SOL    HW2 2109   2.507   3.084   1.989  0.0224 -0.6013 -0.1587
  704SOL     OW 2110   1.266   1.599   1.077  0.6219  0.0560 -0.3995
  704SOL    HW1 2111   1.227   1.620   0.985 -0.6284 -0.0900  1.4483
  704SOL    HW2 2112   1.247   1.682   1.138  1.9262 -1.2596  0.7928
  705SOL     OW 2113   2.742   1.555   2.115 -0.0214 -0.0066  0.1522
  705SOL    HW1 2114   2.677   1.621   2.155  0.5861 -1.1755 -0.4780
  705SOL    HW2 2115   2.759   1.469   2.168  2.3263  1.2067  0.8919
  706SOL     OW 2116   1.609   2.984   0.704 -0.0671  0.2342 -0.1625
  706SOL    HW1 2117   1.558   2.894   0.716 -0.8352  0.7067 -0.9707
  706SOL    HW2 2118   1.576   3.038   0.622  2.1054  0.3531 -0.3817
  707SOL     OW 2119   1.058   2.607   2.464 -0.1533 -0.1031  0.2250
  707SOL    HW1 2120   1.026   2.566   2.377  0.8782  3.5849 -0.8363
  707SOL    HW2 2121   1.104   2.539   2.526 -1.6662  2.3269 -0.6605
  708SOL     OW 2122   0.406   2.493   1.449 -0.5464  0.7131  0.3851
  708SOL    HW1 2123   0.317   2.471   1.492 -1.2454  3.1298 -0.8772
  708SOL    HW2 2124   0.470   2.420   1.470 -0.8202  2.9239  2.1145
  709SOL     OW 2125   2.188   0.698   2.218  0.1659 -0.3623 -0.1124
  709SOL    HW1 2126   2.227   0.619   2.173  0.0635  2.3427  1.6997
  709SOL    HW2 2127   2.099   0.709   2.175 -0.7650  0.1745 -0.2233
  710SOL     OW 2128   3.014   0.623   1.609 -0.5621 -0.2773  0.1092
  710SOL    HW1 2129   2.946   0.609   1.534  1.0827 -0.1014 -1.3140
  710SOL    HW2 2130   0.008   0.638   1.574 -1.3924  2.1328  1.9370
  711SOL     OW 2131   3.080   2.392   0.315 -0.2286  0.6127 -0.4070
  711SOL    HW1 2132   0.058   2.331   0.347 -2.4855  1.8446  1.4734
  711SOL    HW2 2133   3.076   2.483   0.361  0.3269  0.6402  2.6884
  712SOL     OW 2134   0.297   2.395   2.694  0.5996 -0.0920  0.0174
  712SOL    HW1 2135   0.334   2.446   2.619 -3.1682 -0.0808  1.0503
  712SOL    HW2 2136   0.353   2.405   2.777 -1.2134 -0.4106 -1.1513
  713SOL     OW 2137   1.974   0.750   0.069  0.3505  0.3072  0.7388
  713SOL    HW1 2138   1.924   0.839   0.097 -0.3323  2.4572 -1.3390
  713SOL    HW2 2139   1.952   0.734   3.069  1.7330 -1.7817 -1.7175
  714SOL     OW 2140   1.448   2.169   0.457  0.4914  0.4792  0.2565
  714SOL    HW1 2141   1.514   2.094   0.457 -0.4994  0.0332  0.8341
  714SOL    HW2 2142   1.469   2.238   0.529  0.6297 -2.0770  1.2228
  715SOL     OW 2143   0.034   0.207   0.587 -0.0927  0.1025  0.0322
  715SOL    HW1 2144   0.069   0.220   0.491  1.0349  1.0758 -0.3696
  715SOL    HW2 2145   0.107   0.160   0.642 -2.6224  1.0077  1.4863
  716SOL     OW 2146   0.713   0.184   2.181  0.2559  0.3052 -0.5748
  716SOL    HW1 2147   0.648   0.252   2.219 -0.0846 -1.2708  1.6125
  716SOL    HW2 2148   0.683   0.088   2.188 -0.2652 -1.3751  2.9565
  717SOL     OW 2149   0.305   0.418   0.032 -0.2480  0.0321  0.1625
  717SOL    HW1 2150   0.358   0.353   3.073  0.6978 -1.4906 -1.0736
  717SOL    HW2 2151   0.216   0.439   3.096  3.0260  0.0741  1.7619
  718SOL     OW 2152   1.204   0.482   0.496 -0.1002 -0.3566 -0.0708
  718SOL    HW1 2153   1.242   0.540   0.573  2.2671 -0.0692 -0.7642
  718SOL    HW2 2154   1.264   0.399   0.489  0.2758  1.0343  0.6576
  719SOL     OW 2155   2.363   2.222   2.707  0.8726 -0.8937  0.0543
  719SOL    HW1 2156   2.372   2.294   2.637 -0.1334  1.4508  1.3512
  719SOL    HW2 2157   2.269   2.220   2.748 -0.2522 -0.9006 -0.4761
  720SOL     OW 2158   1.686   0.879   2.147  0.7024  0.2728  0.7065
  720SOL    HW1 2159   1.696   0.798   2.090  1.3055  1.6362 -4.2765
  720SOL    HW2 2160   1.719   0.853   2.243  1.4260 -0.9603  4.8077
  721SOL     OW 2161   2.803   0.208   0.994 -0.6958 -0.2155 -0.0267
  721SOL    HW1 2162   2.750   0.298   1.010  2.0350  2.3646 -0.1697
  721SOL    HW2 2163   2.804   0.187   0.899  0.7871 -0.2594  3.0984
  722SOL     OW 2164   1.282   2.174   2.424  0.4009  0.5135 -0.4948
  722SOL    HW1 2165   1.376   2.200   2.396  1.2666  2.3118 -0.1648
  722SOL    HW2 2166   1.289   2.095   2.487 -0.9955 -3.1379 -0.5796
  723SOL     OW 2167   1.118   0.267   0.757 -0.2022  0.3627 -0.2474
  723SOL    HW1 2168   1.135   0.291   0.856  1.2584  0.3537 -2.2614
  723SOL    HW2 2169   1.205   0.250   0.707  1.4828 -0.7180 -1.3369
  724SOL     OW 2170   0.856   2.079   2.331  0.3138  0.3815 -0.9189
  724SOL    HW1 2171   0.876   2.069   2.433  1.9282  1.1104  1.7707
  724SOL    HW2 2172   0.823   1.992   2.291 -3.3254 -1.6930 -0.4251
  725SOL     OW 2173   0.135   0.934   1.045 -0.0351  0.0355 -0.3105
  725SOL    HW1 2174   0.191   1.019   1.064 -0.0780 -2.3153 -1.5133
  725SOL    HW2 2175   0.188   0.873   0.983  0.0518 -0.0082 -1.5857
  726SOL     OW 2176   1.781   0.106   0.500 -0.3962 -0.0129  0.4903
  726SOL    HW1 2177   1.764   0.205   0.503 -0.6592  1.1990 -0.2394
  726SOL    HW2 2178   1.818   0.082   0.596  1.3982 -1.0663  3.3303
  727SOL     OW 2179   2.027   1.017   2.323 -0.2587 -1.1532 -0.0774
  727SOL    HW1 2180   2.061   1.044   2.236  0.8762  0.9484  2.3783
  727SOL    HW2 2181   2.099   0.961   2.374  1.3454  0.5578 -1.3658
  728SOL     OW 2182   1.736   2.711   1.699  0.0608  0.2390 -0.0379
  728SOL    HW1 2183   1.804   2.772   1.744 -0.2938 -0.0630 -0.5679
  728SOL    HW2 2184   1.783   2.653   1.631 -1.8271 -1.6873  0.0024
  729SOL     OW 2185   1.846   0.521   1.821 -0.0414  0.0701 -0.4998
  729SOL    HW1 2186   1.926   0.480   1.866 -0.7897  1.7702 -1.5192
  729SOL    HW2 2187   1.788   0.565   1.896 -0.4545  1.1314  1.7474
  730SOL     OW 2188   0.912   1.733   1.668  0.4899  0.1019  0.5398
  730SOL    HW1 2189   0.944   1.828   1.667  0.7310 -4.3403 -2.4535
  730SOL    HW2 2190   0.942   1.693   1.581  0.0397 -0.0434 -1.9973
  731SOL     OW 2191   0.460   0.142   0.186 -0.1094 -0.0747  0.1953
  731SOL    HW1 2192   0.511   0.224   0.225  0.1495  0.9639  2.0024
  731SOL    HW2 2193   0.414   0.172   0.101  0.8912  1.7821 -1.6364
  732SOL     OW 2194   0.541   0.676   0.447 -0.2140  0.1173  0.2063
  732SOL    HW1 2195   0.613   0.689   0.381 -1.8800  0.3846 -1.0909
  732SOL    HW2 2196   0.479   0.756   0.451  3.0209 -1.2116  1.0069
  733SOL     OW 2197   1.607   1.660   1.952 -0.0880 -0.4637  0.0677
  733SOL    HW1 2198   1.507   1.682   1.968  1.1840  0.3073  1.8519
  733SOL    HW2 2199   1.617   1.583   1.887 -0.4871 -2.1884 -0.1584
  734SOL     OW 2200   2.986   2.460   2.036 -0.0103 -0.1271 -0.4892
  734SOL    HW1 2201   3.077   2.444   1.995 -0.9616 -0.5359  2.0163
  734SOL    HW2 2202   2.928   2.512   1.966 -1.3980 -1.4084 -1.4622
  735SOL     OW 2203   1.233   2.821   0.765  0.2486 -0.4158 -0.1536
  735SOL    HW1 2204   1.194   2.748   0.826 -1.2817  0.1643  1.4522
  735SOL    HW2 2205   1.329   2.791   0.740 -0.8937  1.6612 -1.8674
  736SOL     OW 2206   1.183   0.928   2.934 -0.6365  0.1623 -0.0812
  736SOL    HW1 2207   1.223   0.904   3.024 -4.7834 -2.6202 -1.7342
  736SOL    HW2 2208   1.216   1.017   2.897 -0.5475  2.7190 -1.2962
  737SOL     OW 2209   0.096   1.004   0.560 -0.2907  0.3303  0.3824
  737SOL    HW1 2210   0.090   1.073   0.635  0.7889  1.3858 -1.1590
  737SOL    HW2 2211   0.002   1.001   0.521 -1.0957  1.1546 -1.6470
  738SOL     OW 2212   0.239   2.814   1.588  0.6507 -0.4116 -0.2406
  738SOL    HW1 2213   0.333   2.793   1.572 -3.1490 -1.2318 -2.0946
  738SOL    HW2 2214   0.205   2.861   1.502 -1.8027  3.4401 -2.0605
  739SOL     OW 2215   1.369   2.733   0.308  0.0573 -0.0364  0.6574
  739SOL    HW1 2216   1.430   2.697   0.378 -1.8448 -0.2335 -0.4259
  739SOL    HW2 2217   1.297   2.667   0.277 -2.3917 -0.8981 -0.1586
  740SOL     OW 2218   1.737   2.763   1.370 -0.2081 -0.1152  0.3163
  740SOL    HW1 2219   1.695   2.833   1.429  1.7643 -1.4644 -0.0570
  740SOL    HW2 2220   1.768   2.684   1.423 -1.0269  1.0391  1.1508
  741SOL     OW 2221   2.088   0.455   0.692 -0.0457  0.5613  0.0574
  741SOL    HW1 2222   2.154   0.512   0.746 -0.1731  2.2503  0.1785
  741SOL    HW2 2223   2.098   0.467   0.588  0.7156 -0.6999 -2.4532
  742SOL     OW 2224   0.827   2.732   2.187  0.0830  0.2071  0.5018
  742SOL    HW1 2225   0.740   2.696   2.135 -1.9604 -3.2758  0.2695
  742SOL    HW2 2226   0.899   2.658   2.172 -0.4631 -2.4242 -0.4184
  743SOL     OW 2227   2.172   0.982   1.769 -0.2760  0.2701  0.2703
  743SOL    HW1 2228   2.238   0.991   1.696  0.8916  1.4167  0.1372
  743SOL    HW2 2229   2.107   0.907   1.743  1.9287  2.2095 -0.2981
  744SOL     OW 2230   2.216   0.616   0.873 -0.1783 -0.1811  0.1220
  744SOL    HW1 2231   2.298   0.575   0.919 -0.5911 -0.6788 -1.2758
  744SOL    HW2 2232   2.131   0.610   0.924  1.1772  2.3420  0.2428
  745SOL     OW 2233   2.250   1.259   1.909  0.2438  0.2136  0.4486
  745SOL    HW1 2234   2.340   1.295   1.873  0.5198  0.1198 -0.9187
  745SOL    HW2 2235   2.239   1.162   1.872  0.9701  1.8956 -0.7846
  746SOL     OW 2236   1.416   1.422   0.557 -0.0737 -0.1478 -0.1454
  746SOL    HW1 2237   1.491   1.445   0.621  0.2572  0.6271 -1.3894
  746SOL    HW2 2238   1.359   1.345   0.588 -2.0489  2.6318 -0.5574
  747SOL     OW 2239   2.073   1.523   1.310 -0.1803  1.0258 -0.4068
  747SOL    HW1 2240   2.035   1.483   1.226 -1.4649 -0.6114 -0.8633
  747SOL    HW2 2241   2.044   1.471   1.393  1.2029  0.2966  2.1410
  748SOL     OW 2242   0.162   2.922   0.310  0.0485  0.3692 -0.4198
  748SOL    HW1 2243   0.187   2.968   0.396 -1.7538 -0.6278  1.4999
  748SOL    HW2 2244   0.235   2.853   0.287 -0.5438 -3.4571  0.3612
  749SOL     OW 2245   0.145   0.725   2.323  0.3288  0.0985  0.1444
  749SOL    HW1 2246   0.235   0.741   2.281 -2.1156 -1.4666  0.5665
  749SOL    HW2 2247   0.066   0.746   2.260 -0.5680  0.6932 -0.2250
  750SOL     OW 2248   1.576   2.943   2.026 -1.0408 -0.0769  0.5050
  750SOL    HW1 2249   1.516   3.003   1.977  1.3475 -2.4313 -0.7989
  750SOL    HW2 2250   1.531   2.907   2.106  1.7901  0.9336 -1.4459
  751SOL     OW 2251   2.513   0.416   0.380  0.5879 -0.3858 -0.5082
  751SOL    HW1 2252   2.417   0.449   0.361 -2.3023 -0.3446 -2.0785
  751SOL    HW2 2253   2.523   0.398   0.481 -0.0958 -1.1862 -0.2617
  752SOL     OW 2254   0.235   2.041   0.967 -0.2970  0.0761  0.1139
  752SOL    HW1 2255   0.145   1.998   0.979 -0.3673  0.2921  1.2103
  752SOL    HW2 2256   0.231   2.135   0.936  1.4620 -2.0700  1.0694
  753SOL     OW 2257   1.106   0.165   1.159 -0.3335  0.3534 -0.3696
  753SOL    HW1 2258   1.084   0.098   1.089 -1.5553  0.1734  0.5373
  753SOL    HW2 2259   1.034   0.188   1.225  1.7887  3.0581 -1.1977
  754SOL     OW 2260   0.577   2.957   2.411 -0.5265 -0.3920 -0.3315
  754SOL    HW1 2261   0.560   2.998   2.321 -2.1424  1.0137 -0.6818
  754SOL    HW2 2262   0.676   2.939   2.427  3.7143  1.0552 -0.4061
  755SOL     OW 2263   2.106   0.987   0.363  0.1730  0.5384  0.0332
  755SOL    HW1 2264   2.114   0.907   0.429  2.0090 -0.2130  1.1680
  755SOL    HW2 2265   2.154   0.957   0.276 -1.0393 -1.4117  0.9969
  756SOL     OW 2266   2.206   1.988   2.527 -0.4017 -0.1190  0.0479
  756SOL    HW1 2267   2.246   1.966   2.622  0.5765 -0.4242  1.8006
  756SOL    HW2 2268   2.263   2.064   2.491 -0.1626  2.7156 -0.3640
  757SOL     OW 2269   1.696   0.243   0.838 -0.2930 -0.6483 -0.1640
  757SOL    HW1 2270   1.599   0.229   0.868  2.2690 -0.0849 -1.2435
  757SOL    HW2 2271   1.743   0.152   0.819 -1.8729 -2.2041  0.9606
  758SOL     OW 2272   1.710   2.676   0.882 -0.1632  0.5940 -0.2054
  758SOL    HW1 2273   1.755   2.764   0.923  2.2057  2.5808  0.9324
  758SOL    HW2 2274   1.704   2.597   0.944  0.8006 -1.2550  0.8362
  759SOL     OW 2275   2.599   0.678   1.283 -0.2728  0.3138 -0.3169
  759SOL    HW1 2276   2.589   0.755   1.349  1.2251 -0.6404 -0.2523
  759SOL    HW2 2277   2.595   0.585   1.326 -0.7283  0.8111 -0.0124
  760SOL     OW 2278   2.445   0.982   1.148  0.1464 -0.0707  0.0856
  760SOL    HW1 2279   2.498   1.017   1.225 -2.0052  0.0937  1.2998
  760SOL    HW2 2280   2.502   0.933   1.077  1.2939 -0.1310 -0.0399
  761SOL     OW 2281   0.354   0.515   0.569 -0.3369 -0.0792 -0.5000
  761SOL    HW1 2282   0.421   0.575   0.519 -1.4756  1.6196 -0.2656
  761SOL    HW2 2283   0.264   0.542   0.547  2.2464 -1.6902  0.3520
  762SOL     OW 2284   1.729   1.910   1.338 -0.4989 -1.4601  0.4002
  762SOL    HW1 2285   1.814   1.945   1.377  0.4111 -2.2952 -1.4791
  762SOL    HW2 2286   1.722   1.810   1.345  0.1209 -1.6748 -1.3183
  763SOL     OW 2287   1.332   1.409   2.001 -0.4500 -0.2823  0.4434
  763SOL    HW1 2288   1.285   1.494   2.048 -1.7095  2.0043 -0.2336
  763SOL    HW2 2289   1.289   1.324   2.036  0.3600  0.0321 -2.3966
  764SOL     OW 2290   2.986   1.777   2.277 -0.1349  0.7129 -0.3597
  764SOL    HW1 2291   2.958   1.806   2.181  0.1309 -0.1104 -0.7822
  764SOL    HW2 2292   3.072   1.818   2.309  0.1497  0.3012  1.9305
  765SOL     OW 2293   1.573   2.403   1.265 -0.1366 -0.3671 -0.0102
  765SOL    HW1 2294   1.641   2.367   1.328  2.2458  0.0582 -1.8360
  765SOL    HW2 2295   1.605   2.477   1.203  0.9851 -1.6552 -0.0083
  766SOL     OW 2296   0.016   2.606   2.684  0.1423 -0.5400  0.3013
  766SOL    HW1 2297   3.028   2.659   2.672 -1.2103  0.1159  3.9289
  766SOL    HW2 2298   0.009   2.514   2.632 -0.5635 -0.3401 -1.0161
  767SOL     OW 2299   1.332   0.745   2.337 -0.1529 -0.1499  0.2520
  767SOL    HW1 2300   1.418   0.788   2.370  1.5614  0.6137  2.6382
  767SOL    HW2 2301   1.288   0.680   2.405  2.0010  2.9723  0.0349
  768SOL     OW 2302   1.330   1.997   0.115 -0.5111  0.4177 -0.1445
  768SOL    HW1 2303   1.417   2.035   0.090 -2.9228 -0.7527  1.1957
  768SOL    HW2 2304   1.332   1.940   0.201 -1.4042 -0.9279  0.7722
  769SOL     OW 2305   0.391   2.362   1.153  0.5014  0.7922 -0.0212
  769SOL    HW1 2306   0.472   2.333   1.208  0.2325  0.4954 -0.4789
  769SOL    HW2 2307   0.341   2.425   1.211  1.8876 -2.2472 -1.9689
  770SOL     OW 2308   1.667   0.628   0.051  0.1159  1.0129 -0.1991
  770SOL    HW1 2309   1.697   0.557   3.085  0.1867 -1.4849  0.9238
  770SOL    HW2 2310   1.627   0.712   0.012  0.7111 -0.5517 -1.3753
  771SOL     OW 2311   0.132   3.020   2.230  0.1861 -0.0155 -0.3418
  771SOL    HW1 2312   0.180   3.015   2.320  1.3434  1.5482  0.0298
  771SOL    HW2 2313   0.163   2.945   2.170  0.0787  1.7885  0.3608
  772SOL     OW 2314   2.025   2.980   2.243  0.0821  0.1000  0.4430
  772SOL    HW1 2315   2.077   3.025   2.162  0.7450 -1.7999 -2.1655
  772SOL    HW2 2316   2.037   3.020   2.335  0.3458  1.4237  0.6755
  773SOL     OW 2317   0.951   2.009   1.652 -0.1610  0.1602  0.2114
  773SOL    HW1 2318   1.049   1.984   1.620  2.1055 -0.2217 -0.1890
  773SOL    HW2 2319   0.960   2.032   1.747 -0.0751 -1.0449 -1.0811
  774SOL     OW 2320   1.212   0.114   2.053  0.1797 -0.2719  0.2182
  774SOL    HW1 2321   1.202   0.201   2.002 -0.7679 -1.9376  1.0660
  774SOL    HW2 2322   1.259   0.133   2.141  0.6432 -0.0997 -0.4321
  775SOL     OW 2323   2.043   2.925   3.046  0.5173 -0.0006 -0.4305
  775SOL    HW1 2324   2.045   2.822   3.030 -0.7891 -1.3893 -2.3101
  775SOL    HW2 2325   1.953   2.968   3.027 -0.3530  1.8899 -0.7636
  776SOL     OW 2326   2.752   0.910   2.288  0.5566  0.8125  0.1785
  776SOL    HW1 2327   2.788   0.816   2.288 -0.7402 -0.7164 -1.0917
  776SOL    HW2 2328   2.771   0.951   2.194  0.9313  0.6058 -0.0972
  777SOL     OW 2329   2.420   2.212   2.061 -0.8059 -0.0914 -0.0742
  777SOL    HW1 2330   2.398   2.174   2.152 -1.0039  0.8212  0.6962
  777SOL    HW2 2331   2.518   2.226   2.043  0.0302 -1.4115 -1.4596
  778SOL     OW 2332   1.955   0.892   2.658 -0.1416 -0.0830  0.2970
  778SOL    HW1 2333   2.047   0.906   2.629 -2.2373 -0.0274  0.4898
  778SOL    HW2 2334   1.924   0.803   2.622  3.5265 -1.7170  0.8770
  779SOL     OW 2335   3.020   0.288   0.132 -0.4603 -0.5421 -0.0147
  779SOL    HW1 2336   2.998   0.373   0.079 -0.8407  2.0955 -3.1708
  779SOL    HW2 2337   2.952   0.255   0.197  0.7618  1.1330 -2.4817
  780SOL     OW 2338   2.488   0.520   3.059 -0.5529 -0.0739  0.2139
  780SOL    HW1 2339   2.532   0.433   3.088  1.3436 -0.7206 -1.3265
  780SOL    HW2 2340   2.437   0.567   0.035 -2.0867 -0.4087 -2.9603
  781SOL     OW 2341   0.204   2.933   1.341 -0.5526  0.0419 -0.2626
  781SOL    HW1 2342   0.265   2.921   1.268  0.3603  2.1722  1.6605
  781SOL    HW2 2343   0.121   2.880   1.311  4.7041 -0.1127 -1.1627
  782SOL     OW 2344   2.083   2.563   0.539  0.0359 -0.1488  0.4693
  782SOL    HW1 2345   2.033   2.618   0.466 -0.3303 -0.4256  0.6014
  782SOL    HW2 2346   2.019   2.553   0.618 -2.2430  0.2469 -0.5436
  783SOL     OW 2347   0.651   1.400   1.450  0.2870 -0.0013 -0.1565
  783SOL    HW1 2348   0.647   1.494   1.404 -1.3435  2.0821 -3.8641
  783SOL    HW2 2349   0.710   1.335   1.401  0.4026  0.0198  3.0321
  784SOL     OW 2350   1.379   0.688   2.745 -0.8704 -0.0070  0.2480
  784SOL    HW1 2351   1.307   0.708   2.676 -0.4342 -0.9255 -1.6604
  784SOL    HW2 2352   1.435   0.771   2.769  2.2409 -1.6118 -2.2299
  785SOL     OW 2353   2.313   0.351   1.189  0.1301 -0.0417  0.1608
  785SOL    HW1 2354   2.327   0.428   1.251  1.3312 -0.3201 -4.3742
  785SOL    HW2 2355   2.215   0.326   1.189  2.3209  2.5870 -0.9448
  786SOL     OW 2356   1.309   2.680   2.042 -0.1008  0.1132  0.3600
  786SOL    HW1 2357   1.377   2.686   1.966 -0.1787 -0.7563 -0.1281
  786SOL    HW2 2358   1.304   2.585   2.083  0.5728  0.0220  2.0831
  787SOL     OW 2359   1.777   0.143   1.235 -0.0984 -0.6947 -0.1467
  787SOL    HW1 2360   1.831   0.168   1.318 -1.3129  0.1421  0.9322
  787SOL    HW2 2361   1.797   0.210   1.161  3.0137  1.1853 -1.9655
  788SOL     OW 2362   0.065   0.823   0.328 -0.1829 -0.8618 -0.4085
  788SOL    HW1 2363   0.082   0.720   0.334  1.3490 -1.4132 -2.0738
  788SOL    HW2 2364   0.106   0.876   0.405 -1.4627 -1.0403 -0.2856
  789SOL     OW 2365   0.697   2.064   1.507 -0.2309 -0.3169  0.0195
  789SOL    HW1 2366   0.780   2.026   1.548 -1.4979  0.2327  2.2297
  789SOL    HW2 2367   0.622   2.058   1.578 -0.0311  0.6615  0.3572
  790SOL     OW 2368   0.562   0.646   2.356  0.2156  0.5786  0.2589
  790SOL    HW1 2369   0.564   0.704   2.440 -1.3241  0.1402 -1.2255
  790SOL    HW2 2370   0.490   0.675   2.291  0.4950  1.6544  1.3055
  791SOL     OW 2371   1.840   0.476   0.754 -0.2432  0.5295 -0.4851
  791SOL    HW1 2372   1.802   0.382   0.776  0.7160 -1.6822 -1.0125
  791SOL    HW2 2373   1.939   0.462   0.734  0.4649 -1.1102 -1.1690
  792SOL     OW 2374   1.093   2.810   1.909 -0.1938 -0.0563 -0.4439
  792SOL    HW1 2375   1.053   2.897   1.948 -0.9998  1.1565  0.1650
  792SOL    HW2 2376   1.148   2.764   1.982  1.4539 -0.9062  1.2732
  793SOL     OW 2377   0.573   0.120   0.506  0.2728 -0.5187  0.5555
  793SOL    HW1 2378   0.519   0.160   0.585 -0.1231 -0.8099 -3.0558
  793SOL    HW2 2379   0.579   0.020   0.503  1.7881  0.5417  0.0497
  794SOL     OW 2380   0.269   1.458   1.800 -0.2520 -0.5544  0.5732
  794SOL    HW1 2381   0.227   1.441   1.892  3.1604 -2.3696  1.1526
  794SOL    HW2 2382   0.217   1.530   1.748 -0.4056  0.8022 -2.8237
  795SOL     OW 2383   0.323   2.285   2.173  0.2559  0.0525 -0.6217
  795SOL    HW1 2384   0.267   2.309   2.258 -1.8240 -0.1090 -2.0241
  795SOL    HW2 2385   0.401   2.218   2.195  0.0109 -1.0350  0.3115
  796SOL     OW 2386   2.284   0.502   2.043  0.2925  0.0063 -0.1334
  796SOL    HW1 2387   2.339   0.424   2.075 -0.2554 -1.7288  2.7414
  796SOL    HW2 2388   2.332   0.564   1.978  1.0897  0.7447 -0.8510
  797SOL     OW 2389   2.523   2.583   2.650  0.2428  0.2234 -0.0986
  797SOL    HW1 2390   2.512   2.682   2.644 -0.1612 -0.1674  0.9223
  797SOL    HW2 2391   2.613   2.562   2.610 -2.4632  2.0805  0.6061
  798SOL     OW 2392   2.933   0.016   2.116 -0.0879 -0.1004 -0.1717
  798SOL    HW1 2393   2.906   3.094   2.210 -1.6371 -0.3416 -0.2164
  798SOL    HW2 2394   3.012   0.081   2.117  3.2038 -0.2357 -0.8475
  799SOL     OW 2395   0.079   2.560   2.187  0.3463 -0.1015  0.4341
  799SOL    HW1 2396   0.098   2.490   2.261  1.8741  0.5454 -2.2637
  799SOL    HW2 2397   3.090   2.544   2.141  0.2002 -1.4504  0.8856
  800SOL     OW 2398   2.941   2.003   2.867 -0.1197 -0.2457  0.0247
  800SOL    HW1 2399   2.917   2.094   2.833  0.0403 -0.9783 -1.0506
  800SOL    HW2 2400   3.014   2.019   2.936  1.3064  2.4027  0.1351
  801SOL     OW 2401   1.576   1.199   1.459  0.1292  0.0992  0.2407
  801SOL    HW1 2402   1.589   1.103   1.419 -0.6686 -1.1555  0.9910
  801SOL    HW2 2403   1.478   1.225   1.483 -0.8190  1.1997  3.0451
  802SOL     OW 2404   0.242   1.303   0.501 -0.4746 -0.1838  0.2555
  802SOL    HW1 2405   0.215   1.244   0.581  1.1265 -0.3989  0.7241
  802SOL    HW2 2406   0.332   1.347   0.526 -0.9198  0.3752 -0.0766
  803SOL     OW 2407   1.351   1.736   1.970 -0.0679 -0.3976 -0.6108
  803SOL    HW1 2408   1.294   1.760   1.891  2.0010 -0.0589  0.9336
  803SOL    HW2 2409   1.305   1.767   2.057  1.0941 -0.7686 -0.6514
  804SOL     OW 2410   2.046   1.470   1.014  0.2298 -0.3135  0.1660
  804SOL    HW1 2411   2.126   1.411   1.039  2.7153  0.5015 -1.1035
  804SOL    HW2 2412   2.088   1.558   0.988 -0.0591 -1.7170  2.6604
  805SOL     OW 2413   2.935   1.191   2.958  0.1475 -0.2968 -0.0774
  805SOL    HW1 2414   2.889   1.251   2.887  0.8830 -1.6067  0.6305
  805SOL    HW2 2415   3.031   1.182   2.945 -3.1750  0.2374  0.9120
  806SOL     OW 2416   0.544   2.495   0.291 -0.0501  0.3311 -0.5526
  806SOL    HW1 2417   0.633   2.542   0.271  0.2635  1.3163  0.4552
  806SOL    HW2 2418   0.472   2.560   0.286 -0.4075 -1.7323  1.0666
  807SOL     OW 2419   2.353   1.565   2.872  0.3211  0.2084  0.1000
  807SOL    HW1 2420   2.377   1.484   2.929  1.2367 -1.5429  1.1444
  807SOL    HW2 2421   2.283   1.627   2.918 -2.2861  1.0950 -1.2103
  808SOL     OW 2422   1.252   1.778   1.274 -0.2556 -0.1984 -0.1204
  808SOL    HW1 2423   1.184   1.741   1.335  1.7815  1.8831 -0.2504
  808SOL    HW2 2424   1.285   1.866   1.310  0.0076 -0.6134 -0.4772
  809SOL     OW 2425   2.767   0.704   0.444 -0.0031 -0.1975 -0.3113
  809SOL    HW1 2426   2.776   0.698   0.542 -0.2407 -3.5501 -2.2668
  809SOL    HW2 2427   2.670   0.707   0.413 -3.5864 -3.1863 -0.8980
  810SOL     OW 2428   0.742   1.446   0.674  0.6838 -0.3847 -0.3976
  810SOL    HW1 2429   0.712   1.448   0.771  0.6981 -0.0529 -0.9308
  810SOL    HW2 2430   0.821   1.506   0.650 -1.7279 -2.0063 -5.5900
  811SOL     OW 2431   1.857   2.542   1.493 -0.5810  0.5779  0.3613
  811SOL    HW1 2432   1.862   2.449   1.442 -1.1873 -0.8911 -2.3167
  811SOL    HW2 2433   1.953   2.571   1.511 -0.8829  0.4606 -0.5613
  812SOL     OW 2434   1.464   2.688   1.585 -0.1631 -0.2078 -0.4136
  812SOL    HW1 2435   1.513   2.775   1.560  1.9103  0.1311  0.1012
  812SOL    HW2 2436   1.369   2.695   1.621  0.0237  1.5580 -1.4316
  813SOL     OW 2437   0.870   3.009   1.543 -0.1089 -0.7419  0.1623
  813SOL    HW1 2438   0.841   2.911   1.549 -2.2307 -0.6311  0.2317
  813SOL    HW2 2439   0.913   3.033   1.453 -1.9361  1.4309  1.3223
  814SOL     OW 2440   0.857   2.937   2.390  0.1262  0.4019  0.5222
  814SOL    HW1 2441   0.940   2.997   2.376  1.0620  1.1543 -0.3921
  814SOL    HW2 2442   0.867   2.847   2.337 -0.5649 -2.4558 -3.0671
  815SOL     OW 2443   0.661   0.090   2.726  0.1782  0.2988  0.1145
  815SOL    HW1 2444   0.592   0.018   2.705 -0.3884  0.5353  2.4333
  815SOL    HW2 2445   0.664   0.166   2.653 -0.7617  2.2087 -2.5096
  816SOL     OW 2446   2.433   0.466   2.805  0.1465  0.0895 -0.4260
  816SOL    HW1 2447   2.462   0.501   2.901  0.2291  0.3027  1.3876
  816SOL    HW2 2448   2.334   0.473   2.788  1.6325 -1.1985 -3.4547
  817SOL     OW 2449   2.202   2.999   1.853  0.3995  0.9220  0.1543
  817SOL    HW1 2450   2.288   3.038   1.805 -0.2523 -0.1208 -1.7241
  817SOL    HW2 2451   2.227   2.913   1.905  0.8524  1.2320  2.1212
  818SOL     OW 2452   1.097   0.581   0.279  0.1990 -0.4378 -0.2151
  818SOL    HW1 2453   1.007   0.600   0.318  0.8272 -2.5576  1.3855
  818SOL    HW2 2454   1.154   0.536   0.352  0.4343  1.0115  0.2955
  819SOL     OW 2455   1.999   1.507   2.796 -0.0453  0.4972 -0.3363
  819SOL    HW1 2456   2.095   1.518   2.765  0.5726  0.4304 -0.4248
  819SOL    HW2 2457   1.932   1.570   2.748  3.0028 -5.4451 -1.8649
  820SOL     OW 2458   0.110   1.555   2.568 -0.1471 -0.1970  0.2790
  820SOL    HW1 2459   0.155   1.476   2.609  0.9846  1.5280  1.5330
  820SOL    HW2 2460   0.169   1.642   2.556  1.6439  2.1072 -2.4376
  821SOL     OW 2461   0.126   2.704   0.665  0.4728  0.2488  0.0926
  821SOL    HW1 2462   0.180   2.778   0.622 -1.6085 -1.2922  0.2306
  821SOL    HW2 2463   0.112   2.729   0.763 -2.2005 -1.7821 -0.6166
  822SOL     OW 2464   2.197   2.637   2.784 -0.2792  0.2568  0.4699
  822SOL    HW1 2465   2.165   2.628   2.686 -0.0758  0.3612 -1.7972
  822SOL    HW2 2466   2.296   2.625   2.792  2.2241  0.6266  0.7543
  823SOL     OW 2467   1.434   0.020   2.358  0.7697 -0.7047 -0.0681
  823SOL    HW1 2468   1.439   0.102   2.292  0.3292 -0.9668 -0.8569
  823SOL    HW2 2469   1.386   3.044   2.315 -0.6823  1.5515 -2.4412
  824SOL     OW 2470   2.655   2.506   2.237 -0.4817 -0.2918 -0.6679
  824SOL    HW1 2471   2.694   2.590   2.194 -1.6585  0.5329 -0.5208
  824SOL    HW2 2472   2.680   2.496   2.335 -2.8383 -2.4309  1.6884
  825SOL     OW 2473   2.882   2.168   2.451 -0.0846  0.1597 -0.3915
  825SOL    HW1 2474   2.786   2.159   2.468  1.1267 -0.3075 -0.9337
  825SOL    HW2 2475   2.908   2.201   2.358  0.3541 -0.1536  0.6609
  826SOL     OW 2476   2.155   0.459   2.588  0.0083 -0.6921  0.0517
  826SOL    HW1 2477   2.234   0.492   2.533  1.0043  1.0670  0.8742
  826SOL    HW2 2478   2.150   0.510   2.676  1.7621  0.5353  0.6941
  827SOL     OW 2479   2.784   2.106   1.519  0.6775  0.0581  0.7310
  827SOL    HW1 2480   2.700   2.107   1.578  0.5296 -0.4246  0.8374
  827SOL    HW2 2481   2.767   2.063   1.425 -1.7272 -0.7327 -2.5000
  828SOL     OW 2482   2.911   0.205   1.512  0.1514  0.0321  0.2258
  828SOL    HW1 2483   2.964   0.169   1.589  0.9260 -1.2724 -3.9402
  828SOL    HW2 2484   2.959   0.259   1.440  0.6772 -1.8158  2.1003
  829SOL     OW 2485   0.867   1.766   2.632 -0.3833  0.0575  0.3531
  829SOL    HW1 2486   0.827   1.851   2.598  0.2597  2.0394  1.0544
  829SOL    HW2 2487   0.876   1.694   2.557  1.4535  1.4636  0.5625
  830SOL     OW 2488   0.903   0.970   1.030 -0.1852 -0.0205  0.0276
  830SOL    HW1 2489   0.918   0.996   1.126 -2.7817 -2.9409  0.0405
  830SOL    HW2 2490   0.978   1.004   0.966 -1.6067 -1.3135  2.5585
  831SOL     OW 2491   2.836   1.827   2.705  0.2501  0.2612 -1.0314
  831SOL    HW1 2492   2.884   1.899   2.761 -2.9589 -0.1382  1.3592
  831SOL    HW2 2493   2.764   1.783   2.763  0.0291  0.2791 -3.5203
  832SOL     OW 2494   1.786   2.477   2.457  0.3009 -0.0542  0.2071
  832SOL    HW1 2495   1.817   2.515   2.368  2.4402  2.4568 -4.6295
  832SOL    HW2 2496   1.714   2.544   2.490 -0.2293  2.4415  1.3126
  833SOL     OW 2497   0.767   0.458   1.935  0.3844  0.0687 -0.2819
  833SOL    HW1 2498   0.795   0.506   1.851 -1.0267 -1.4572  1.3528
  833SOL    HW2 2499   0.841   0.464   2.003  1.2386 -0.4031  0.2276
  834SOL     OW 2500   3.094   0.386   1.407  0.2112  0.2938 -0.0199
  834SOL    HW1 2501   3.028   0.461   1.394 -1.7487 -2.9437  0.5848
  834SOL    HW2 2502   0.045   0.393   1.493  0.4127  1.8330 -1.7368
  835SOL     OW 2503   2.708   0.441   0.179 -0.1086  0.6514 -0.0160
  835SOL    HW1 2504   2.664   0.478   0.261 -1.0867  1.9196 -1.1862
  835SOL    HW2 2505   2.781   0.505   0.137  4.1606 -0.1253 -1.5442
  836SOL     OW 2506   1.675   1.937   0.203  0.8297  0.1925  0.5408
  836SOL    HW1 2507   1.614   2.007   0.160  1.3738 -1.5129  3.1455
  836SOL    HW2 2508   1.648   1.931   0.305 -0.2944  0.5662  1.6128
  837SOL     OW 2509   1.878   1.746   0.793  1.0711  0.0946 -0.0381
  837SOL    HW1 2510   1.902   1.656   0.762  0.8561  0.2370 -0.6333
  837SOL    HW2 2511   1.923   1.816   0.732 -1.8404  0.1935  1.0004
  838SOL     OW 2512   1.526   0.876   2.471  0.4975  0.1657  0.3947
  838SOL    HW1 2513   1.498   0.897   2.568 -1.7686  1.3614 -0.0600
  838SOL    HW2 2514   1.630   0.875   2.456  1.8022 -2.2629 -0.9380
  839SOL     OW 2515   0.749   1.474   2.200 -0.0939  0.0032 -0.3809
  839SOL    HW1 2516   0.651   1.448   2.206  1.7288 -0.0324  0.8560
  839SOL    HW2 2517   0.808   1.426   2.266  0.1120  3.7460  0.2511
  840SOL     OW 2518   1.222   1.634   0.572 -0.0443 -0.5402 -0.2415
  840SOL    HW1 2519   1.236   1.701   0.647  0.2754  1.4391 -2.1362
  840SOL    HW2 2520   1.301   1.574   0.578  1.8688 -1.0873  0.8669
  841SOL     OW 2521   1.547   2.346   0.645 -0.4759 -0.2161  0.2322
  841SOL    HW1 2522   1.647   2.335   0.642  2.8010  0.8120 -0.4512
  841SOL    HW2 2523   1.502   2.341   0.737  2.4833 -0.7585 -2.8201
  842SOL     OW 2524   0.280   0.394   0.289  0.2349  0.3461  0.0583
  842SOL    HW1 2525   0.377   0.402   0.319  3.9740 -1.5568  0.9610
  842SOL    HW2 2526   0.274   0.399   0.186  1.3927 -1.1304  0.2408
  843SOL     OW 2527   0.726   0.405   0.687 -0.5778  0.3748 -0.3216
  843SOL    HW1 2528   0.630   0.399   0.657 -0.5920 -1.4272 -2.0448
  843SOL    HW2 2529   0.779   0.466   0.622  1.1902  2.4742  1.0005
  844SOL     OW 2530   2.700   0.173   2.807  0.0896  0.4741  0.6629
  844SOL    HW1 2531   2.762   0.171   2.889 -0.6165  1.6044  2.5350
  844SOL    HW2 2532   2.662   0.080   2.774  1.3609 -0.3097 -1.5093
  845SOL     OW 2533   2.953   2.549   1.634  0.2489  0.0398  0.4603
  845SOL    HW1 2534   2.901   2.580   1.719 -0.0804 -1.2053  0.8231
  845SOL    HW2 2535   2.944   2.454   1.609 -0.6753  0.8095  0.0200
  846SOL     OW 2536   2.419   1.482   2.353 -0.5350 -0.0496  0.1771
  846SOL    HW1 2537   2.399   1.414   2.286 -0.2975  2.8382  0.8655
  846SOL    HW2 2538   2.469   1.557   2.306 -0.2398 -3.3225 -1.7645
  847SOL     OW 2539   0.996   0.743   1.894 -0.1607 -0.2998  0.6195
  847SOL    HW1 2540   0.904   0.706   1.899  3.1475  0.5290 -2.3242
  847SOL    HW2 2541   1.021   0.762   1.794 -0.3731  1.4424  0.7263
  848SOL     OW 2542   2.526   3.060   2.825  0.5309  0.6627 -0.6948
  848SOL    HW1 2543   2.577   3.046   2.909 -0.5292 -1.1850  0.4702
  848SOL    HW2 2544   2.460   0.036   2.821  1.6649  2.2880  1.8460
  849SOL     OW 2545   0.315   2.818   2.937 -0.1033  0.1362  0.0671
  849SOL    HW1 2546   0.247   2.865   2.878  1.3926 -3.1292 -0.0990
  849SOL    HW2 2547   0.272   2.728   2.967  0.7586 -3.5049 -1.4480
  850SOL     OW 2548   1.153   2.613   0.932 -0.2492  0.3084 -0.6333
  850SOL    HW1 2549   1.220   2.577   1.001 -1.0628 -0.7271  2.5610
  850SOL    HW2 2550   1.126   2.540   0.868 -0.8703 -1.6711  0.3567
  851SOL     OW 2551   2.325   0.618   2.442  0.4639 -0.0474  0.5238
  851SOL    HW1 2552   2.422   0.635   2.413 -0.2496 -0.3052 -2.4528
  851SOL    HW2 2553   2.265   0.644   2.364  0.5792 -2.1456 -2.8742
  852SOL     OW 2554   1.251   0.294   2.590  0.2756 -0.6730 -0.0374
  852SOL    HW1 2555   1.290   0.209   2.623 -0.5904 -0.8881 -0.0044
  852SOL    HW2 2556   1.195   0.331   2.669  1.1807 -0.5015  0.1596
  853SOL     OW 2557   0.014   2.688   0.206 -0.8264 -0.1667  0.4647
  853SOL    HW1 2558   3.098   2.668   0.299  0.8765 -2.7703 -1.4566
  853SOL    HW2 2559   0.061   2.780   0.200  0.9287  1.5019 -1.6896
  854SOL     OW 2560   2.191   0.870   2.488  0.3119  0.1461  0.5579
  854SOL    HW1 2561   2.258   0.947   2.470 -1.0426 -0.1094 -1.9842
  854SOL    HW2 2562   2.232   0.774   2.494  1.1196  3.5974  3.2928
  855SOL     OW 2563   0.796   2.594   0.268  0.1874  0.4997  0.1087
  855SOL    HW1 2564   0.862   2.650   0.321 -1.7404 -3.6507  1.2804
  855SOL    HW2 2565   0.844   2.557   0.184 -0.2847 -2.0348  0.8153
  856SOL     OW 2566   3.060   3.100   2.536  0.2073 -0.2635  0.3775
  856SOL    HW1 2567   0.048   3.055   2.505  5.3982 -0.3979  1.4370
  856SOL    HW2 2568   3.070   0.100   2.550  1.1167 -0.7089 -0.3362
  857SOL     OW 2569   1.121   2.849   1.344 -0.9600  0.1264  0.0812
  857SOL    HW1 2570   1.060   2.927   1.368 -1.2415  2.3043  2.4186
  857SOL    HW2 2571   1.093   2.799   1.263  2.6051 -0.8331  1.2552
  858SOL     OW 2572   2.527   2.153   1.652 -0.5351  0.1396  0.4524
  858SOL    HW1 2573   2.503   2.244   1.697 -1.2133  0.8419  0.2359
  858SOL    HW2 2574   2.455   2.120   1.592  0.2589 -0.0351  1.7303
  859SOL     OW 2575   1.901   2.198   1.895  0.3148 -0.1883 -0.6177
  859SOL    HW1 2576   1.989   2.191   1.945 -1.1860  1.2947  1.8844
  859SOL    HW2 2577   1.826   2.158   1.948  1.7014  1.7830 -1.7690
  860SOL     OW 2578   1.924   0.045   0.291  0.4748  0.2839  0.4335
  860SOL    HW1 2579   1.950   0.125   0.235  0.8001 -0.3419  1.1967
  860SOL    HW2 2580   1.862   0.073   0.366  0.9954 -0.2859  1.3523
  861SOL     OW 2581   2.540   0.378   0.642 -0.6271 -0.2682  0.4271
  861SOL    HW1 2582   2.617   0.330   0.688  0.6705  1.3125  0.6322
  861SOL    HW2 2583   2.458   0.319   0.642  0.3426  0.2042 -0.1250
  862SOL     OW 2584   0.882   2.645   2.693  0.5307  0.0164  0.6785
  862SOL    HW1 2585   0.896   2.713   2.765 -0.3637 -0.7013  0.8189
  862SOL    HW2 2586   0.953   2.655   2.620  1.1457 -2.4191  1.5262
  863SOL     OW 2587   0.634   0.748   1.162 -0.1666  0.3674 -0.2217
  863SOL    HW1 2588   0.720   0.744   1.113 -1.8861  0.0215  2.0954
  863SOL    HW2 2589   0.559   0.720   1.093  0.4625 -1.0146 -0.0217
  864SOL     OW 2590   2.995   0.084   1.785 -0.1243 -0.1940 -0.3252
  864SOL    HW1 2591   3.078   0.117   1.744 -0.7729  2.0862  0.4081
  864SOL    HW2 2592   2.989   3.088   1.770 -0.9064 -0.3650 -0.6405
  865SOL     OW 2593   0.598   1.294   2.787  0.0519 -0.3757  0.0845
  865SOL    HW1 2594   0.695   1.284   2.802 -0.8504  1.9451 -2.9250
  865SOL    HW2 2595   0.568   1.353   2.863 -1.2072  0.5658  1.2636
  866SOL     OW 2596   2.854   0.224   3.024 -0.0172  0.1474 -0.3407
  866SOL    HW1 2597   2.820   0.318   3.010  0.4341 -1.3559 -1.6153
  866SOL    HW2 2598   2.913   0.221   0.008  0.8758  1.9524  1.1444
  867SOL     OW 2599   2.702   3.003   3.045 -0.3464  0.0047 -0.1602
  867SOL    HW1 2600   2.640   2.968   0.022  0.9195  1.2383  2.2548
  867SOL    HW2 2601   2.776   2.936   3.026 -1.9896  0.9719 -0.1366
  868SOL     OW 2602   1.219   0.833   0.358  0.3423  0.5326  0.3403
  868SOL    HW1 2603   1.162   0.766   0.307  0.6709 -1.2796 -0.7710
  868SOL    HW2 2604   1.310   0.796   0.379 -0.2695  1.5554 -0.0980
  869SOL     OW 2605   2.574   1.303   0.549  0.2952  0.7597 -0.3804
  869SOL    HW1 2606   2.507   1.376   0.541  2.0546  1.0819 -1.6061
  869SOL    HW2 2607   2.668   1.338   0.567 -1.5999 -3.3827  0.3444
  870SOL     OW 2608   2.369   1.485   0.600 -0.2814  0.2993 -0.6060
  870SOL    HW1 2609   2.337   1.497   0.504 -1.2464 -0.2200 -1.2445
  870SOL    HW2 2610   2.301   1.437   0.657  0.9748 -0.5123 -0.1175
  871SOL     OW 2611   1.284   1.187   0.623 -0.1925 -0.0610 -0.1450
  871SOL    HW1 2612   1.258   1.091   0.661  1.4086 -3.1831 -1.9229
  871SOL    HW2 2613   1.197   1.240   0.627 -0.2313 -0.7619  0.6201
  872SOL     OW 2614   1.334   1.710   1.666  0.7265  0.0818  0.1685
  872SOL    HW1 2615   1.314   1.675   1.572  0.6376 -0.3447 -2.9977
  872SOL    HW2 2616   1.393   1.641   1.716  1.0968 -1.9937  1.2470
  873SOL     OW 2617   0.803   1.796   2.273  0.2706 -0.1736  0.3947
  873SOL    HW1 2618   0.830   1.792   2.170 -0.2674  1.4077 -1.8589
  873SOL    HW2 2619   0.853   1.725   2.328 -0.7206 -1.7981 -1.4429
  874SOL     OW 2620   0.958   1.988   1.128 -0.0028  0.1774  0.4718
  874SOL    HW1 2621   0.977   2.022   1.032  0.9718  1.6228  1.7096
  874SOL    HW2 2622   1.028   2.032   1.185 -0.6406 -2.0571 -1.8639
  875SOL     OW 2623   2.018   0.348   1.216 -0.4457  0.3691 -0.1378
  875SOL    HW1 2624   1.988   0.313   1.310 -0.8784 -0.6511 -0.3619
  875SOL    HW2 2625   1.942   0.360   1.153  2.6254  0.3108  1.6604
  876SOL     OW 2626   0.834   0.580   0.307  0.5671  0.1863  0.0591
  876SOL    HW1 2627   0.855   0.541   0.403 -0.2638 -0.8350 -0.0642
  876SOL    HW2 2628   0.825   0.500   0.242 -1.8989 -1.4792 -0.1759
  877SOL     OW 2629   2.890   0.558   1.379 -0.0937 -0.4256 -0.5407
  877SOL    HW1 2630   2.803   0.506   1.365 -1.1008  2.1560 -1.1168
  877SOL    HW2 2631   2.904   0.635   1.312  0.6486  1.3823  0.8747
  878SOL     OW 2632   2.011   2.231   0.241 -0.2994 -0.4028  0.1567
  878SOL    HW1 2633   1.962   2.289   0.172 -1.3262  0.6509  1.0403
  878SOL    HW2 2634   2.011   2.141   0.197 -1.1808  1.1863  0.5934
  879SOL     OW 2635   2.744   1.777   1.370  0.2815  0.7204 -0.7936
  879SOL    HW1 2636   2.655   1.821   1.371  2.5282 -2.4389 -1.2426
  879SOL    HW2 2637   2.765   1.727   1.458  2.7915 -1.1442  0.5642
  880SOL     OW 2638   1.369   2.908   1.315  0.6106 -0.1519 -0.6646
  880SOL    HW1 2639   1.405   2.848   1.242 -0.7296 -0.2212  0.2635
  880SOL    HW2 2640   1.264   2.889   1.335 -2.5039 -0.6505  2.3891
  881SOL     OW 2641   1.068   2.128   0.114  0.4372 -0.3709  0.7305
  881SOL    HW1 2642   1.024   2.088   0.199 -3.6379 -0.3981  2.2598
  881SOL    HW2 2643   1.172   2.135   0.109 -0.4387  1.2337 -0.0358
  882SOL     OW 2644   1.970   0.712   2.052  0.4944 -0.5688 -0.2042
  882SOL    HW1 2645   1.976   0.683   1.955 -1.7247 -1.8351 -1.9840
  882SOL    HW2 2646   1.940   0.810   2.058  0.6431  2.8835 -0.1846
  883SOL     OW 2647   1.195   0.189   2.325 -0.3428  0.2554 -0.2525
  883SOL    HW1 2648   1.240   0.227   2.410  0.3832  0.0073  1.3550
  883SOL    HW2 2649   1.108   0.239   2.309 -0.5386  0.1060  1.4136
  884SOL     OW 2650   2.858   0.213   0.335 -0.0498 -0.3570  0.0723
  884SOL    HW1 2651   2.760   0.180   0.314 -2.0973  0.4397 -1.0438
  884SOL    HW2 2652   2.859   0.312   0.367 -1.0314  0.3555 -0.6857
  885SOL     OW 2653   0.743   1.594   0.025  0.1689  0.3764 -0.0586
  885SOL    HW1 2654   0.792   1.590   3.033 -1.0157  0.2051 -0.4522
  885SOL    HW2 2655   0.688   1.507   0.042 -0.7346  0.8164  2.6116
  886SOL     OW 2656   1.873   1.263   2.813 -0.0949  0.0165 -0.3512
  886SOL    HW1 2657   1.879   1.236   2.715 -2.4253  0.6350  0.9035
  886SOL    HW2 2658   1.917   1.356   2.829  1.0887 -1.1496 -1.3956
  887SOL     OW 2659   1.382   0.492   1.591 -1.2093 -0.6727 -0.5590
  887SOL    HW1 2660   1.413   0.415   1.527  1.5103 -2.3915 -1.0457
  887SOL    HW2 2661   1.444   0.520   1.663 -4.1598  0.5831 -0.1274
  888SOL     OW 2662   2.932   0.579   1.839  0.4806 -0.0940 -0.2935
  888SOL    HW1 2663   2.894   0.659   1.884 -0.7530 -1.2319  0.7549
  888SOL    HW2 2664   2.980   0.597   1.750 -1.1078 -0.6297 -0.4614
  889SOL     OW 2665   3.041   2.631   0.468  0.3568  0.5972  0.1651
  889SOL    HW1 2666   2.968   2.700   0.487 -2.6956  0.5270  0.0150
  889SOL    HW2 2667   0.022   2.639   0.532  2.4249  1.7798  0.7487
  890SOL     OW 2668   2.609   2.630   0.046  0.2462 -0.2738 -0.4254
  890SOL    HW1 2669   2.613   2.577   0.131  2.1318  1.2363  1.0920
  890SOL    HW2 2670   2.573   2.576   3.067  0.8628 -2.5398 -4.7461
  891SOL     OW 2671   0.907   1.594   2.895  0.0079  0.3377 -0.1222
  891SOL    HW1 2672   0.974   1.522   2.877  1.3099  0.1796  1.4327
  891SOL    HW2 2673   0.895   1.649   2.809 -0.9431 -0.6686 -0.7468
  892SOL     OW 2674   2.998   2.969   0.881  0.2449  0.2631 -0.6883
  892SOL    HW1 2675   2.954   3.012   0.804 -1.0740  0.9705  2.3746
  892SOL    HW2 2676   3.020   3.042   0.950  0.5000  2.8518 -1.0919
  893SOL     OW 2677   0.925   3.016   1.025  0.1099 -0.2368 -0.4092
  893SOL    HW1 2678   0.842   3.033   0.969  3.1316  1.5426 -3.0619
  893SOL    HW2 2679   1.000   3.038   0.960 -3.6432  1.0721 -0.7938
  894SOL     OW 2680   2.841   1.406   0.610  0.6643  0.1121 -0.3816
  894SOL    HW1 2681   2.876   1.441   0.699 -3.8689 -0.6671 -2.0982
  894SOL    HW2 2682   2.918   1.399   0.545 -0.6167 -1.5157  2.4495
  895SOL     OW 2683   2.456   2.799   1.582 -0.5083  0.2660 -0.3960
  895SOL    HW1 2684   2.418   2.885   1.622  0.0584  1.1444 -2.1889
  895SOL    HW2 2685   2.548   2.831   1.540  2.1170 -0.7773 -2.2364
  896SOL     OW 2686   1.056   3.075   1.720 -0.2880 -0.4890 -0.6349
  896SOL    HW1 2687   1.007   3.052   1.635  1.1691  0.2965 -0.0038
  896SOL    HW2 2688   1.090   2.998   1.775  0.8908 -1.5011 -0.9138
  897SOL     OW 2689   0.822   1.538   1.812  0.5956  0.1625 -0.2906
  897SOL    HW1 2690   0.863   1.625   1.768  1.4659  3.9779 -0.3884
  897SOL    HW2 2691   0.746   1.566   1.873  1.4763  0.0567 -1.3548
  898SOL     OW 2692   1.544   2.684   1.885 -0.0325  0.5433 -0.1678
  898SOL    HW1 2693   1.572   2.775   1.930 -0.0853  0.7736  2.4569
  898SOL    HW2 2694   1.584   2.681   1.789  3.4394  1.2422 -4.6208
  899SOL     OW 2695   0.938   0.538   0.549 -0.0083 -0.1275 -0.3116
  899SOL    HW1 2696   0.925   0.579   0.643 -0.0002  0.7250  0.4892
  899SOL    HW2 2697   1.033   0.505   0.540 -0.5668 -0.4331 -1.6981
  900SOL     OW 2698   1.569   2.431   1.994 -0.8635 -0.0305  0.1881
  900SOL    HW1 2699   1.569   2.520   1.943  1.6568 -1.3779  1.7873
  900SOL    HW2 2700   1.490   2.422   2.051 -0.7010 -1.5445 -3.7659
  901SOL     OW 2701   0.949   2.246   2.723 -0.2588  0.3451 -0.1604
  901SOL    HW1 2702   1.040   2.293   2.724  0.3316  3.1325 -1.1335
  901SOL    HW2 2703   0.885   2.318   2.755  0.8460 -0.1037 -1.6278
  902SOL     OW 2704   1.897   1.158   0.310 -0.8124 -0.2728 -0.0156
  902SOL    HW1 2705   1.980   1.097   0.303  4.1636 -0.0480  3.3354
  902SOL    HW2 2706   1.878   1.169   0.412 -1.6470  0.7426  3.1240
  903SOL     OW 2707   1.771   0.768   0.524  0.8411 -0.2593  0.1101
  903SOL    HW1 2708   1.697   0.786   0.595 -2.9686 -1.2752  2.2304
  903SOL    HW2 2709   1.724   0.768   0.431 -0.5709  0.3957  1.0834
  904SOL     OW 2710   0.804   1.044   2.986 -0.0827  0.4215 -0.2337
  904SOL    HW1 2711   0.796   1.100   3.072  1.4912 -2.0866 -1.0382
  904SOL    HW2 2712   0.853   0.956   2.994 -1.1445 -0.7620 -1.4948
  905SOL     OW 2713   2.020   0.243   0.887 -0.2913  0.1584  0.6429
  905SOL    HW1 2714   2.034   0.282   0.979 -0.7407 -2.6794 -0.3552
  905SOL    HW2 2715   2.082   0.291   0.820  0.2163 -1.6559  0.5363
  906SOL     OW 2716   3.054   2.311   0.940 -0.2646 -0.0594 -0.1833
  906SOL    HW1 2717   3.014   2.383   0.882 -1.4456 -1.8878  2.3291
  906SOL    HW2 2718   0.057   2.309   0.919  1.3193 -0.6542  2.7828
  907SOL     OW 2719   0.870   0.829   0.189  0.3138 -0.0634  0.3860
  907SOL    HW1 2720   0.828   0.760   0.251 -2.3016 -0.7146  3.2930
  907SOL    HW2 2721   0.880   0.789   0.096  1.2876 -2.0585  0.7344
  908SOL     OW 2722   2.249   2.635   0.950  0.6419  0.4295 -0.0912
  908SOL    HW1 2723   2.314   2.633   1.030  1.5173 -1.1946  0.8940
  908SOL    HW2 2724   2.233   2.727   0.911  0.3559 -0.8490 -2.3660
  909SOL     OW 2725   2.163   1.133   1.401  0.1839  0.0878  0.3472
  909SOL    HW1 2726   2.198   1.156   1.308  0.3263  1.2146  0.2641
  909SOL    HW2 2727   2.131   1.222   1.437  0.1963 -1.3043 -0.7294
  910SOL     OW 2728   1.433   2.848   2.229 -0.1342 -0.3285 -0.4152
  910SOL    HW1 2729   1.446   2.799   2.317 -1.6532 -0.2953 -1.7249
  910SOL    HW2 2730   1.385   2.788   2.159 -0.4734 -0.1882 -0.0963
  911SOL     OW 2731   2.881   0.687   2.283  0.2024  0.3877  0.4633
  911SOL    HW1 2732   2.962   0.703   2.219  1.7441  3.7361 -1.2221
  911SOL    HW2 2733   2.842   0.603   2.265  4.9394  3.8674 -2.4807
  912SOL     OW 2734   0.207   1.269   1.371 -0.3233  0.6595 -0.4040
  912SOL    HW1 2735   0.232   1.173   1.376  2.8933 -3.9979  0.0017
  912SOL    HW2 2736   0.273   1.329   1.425 -1.4313  1.3364  1.3573
  913SOL     OW 2737   2.830   2.513   1.305 -0.3806  0.1558 -0.2046
  913SOL    HW1 2738   2.864   2.462   1.388  0.3902 -1.4512 -1.5591
  913SOL    HW2 2739   2.767   2.457   1.256  0.9257  0.7727 -1.1006
  914SOL     OW 2740   1.783   0.711   1.557 -0.1371  0.2043  0.2872
  914SOL    HW1 2741   1.818   0.630   1.515  1.8444  1.2319  0.7996
  914SOL    HW2 2742   1.860   0.760   1.608 -0.0179 -1.2794  1.6050
  915SOL     OW 2743   1.728   0.487   1.374 -0.2777  0.2355 -0.0726
  915SOL    HW1 2744   1.779   0.429   1.442 -2.1422  1.2974  0.4666
  915SOL    HW2 2745   1.633   0.454   1.361 -0.1156  1.7106 -0.3390
  916SOL     OW 2746   2.903   2.662   1.046  0.1482 -0.1419 -0.7656
  916SOL    HW1 2747   2.857   2.610   0.970 -0.3326 -1.4503  0.4554
  916SOL    HW2 2748   2.902   2.612   1.140  0.1719 -1.3506  1.7717
  917SOL     OW 2749   1.929   1.975   0.112  0.0900  0.2724 -0.2182
  917SOL    HW1 2750   1.836   1.962   0.144 -1.2175  0.9433 -2.1983
  917SOL    HW2 2751   1.943   1.919   0.032 -1.2312 -2.2471 -0.1078
  918SOL     OW 2752   1.975   2.783   2.715 -0.0090 -0.0938  0.0170
  918SOL    HW1 2753   1.958   2.886   2.718 -2.0369 -0.8354  0.0104
  918SOL    HW2 2754   2.068   2.755   2.747 -0.2325  0.2878  1.3732
  919SOL     OW 2755   1.301   2.329   1.280 -0.0777  0.4909 -0.0618
  919SOL    HW1 2756   1.274   2.232   1.262 -0.8525 -0.4125  2.9517
  919SOL    HW2 2757   1.403   2.332   1.295 -1.9861  0.6354  0.5889
  920SOL     OW 2758   2.978   0.243   2.309 -0.4109  0.4112 -0.8088
  920SOL    HW1 2759   3.022   0.260   2.402 -1.2336 -0.2256  0.1356
  920SOL    HW2 2760   3.050   0.225   2.239 -1.8280  0.8824 -2.2798
  921SOL     OW 2761   2.896   1.002   1.711 -0.1811  0.4415  0.2315
  921SOL    HW1 2762   2.855   1.096   1.713  0.4319  1.7637  2.2717
  921SOL    HW2 2763   2.982   0.996   1.655  2.7676  0.3967 -1.1201
  922SOL     OW 2764   1.981   1.934   0.625 -0.1688 -0.2397  0.0965
  922SOL    HW1 2765   2.059   1.883   0.584 -0.5315  0.1310 -0.1526
  922SOL    HW2 2766   1.943   2.010   0.564  0.9883  1.4930  0.1444
  923SOL     OW 2767   0.980   1.753   0.017  0.5983  0.3898 -0.5207
  923SOL    HW1 2768   0.935   1.698   3.045 -0.0519  1.3342  0.1170
  923SOL    HW2 2769   0.933   1.837   0.032  1.8641 -4.1346 -0.2648
  924SOL     OW 2770   0.821   0.364   0.168  0.6023 -0.0767 -0.0660
  924SOL    HW1 2771   0.849   0.271   0.191 -3.0940  2.8457 -0.1975
  924SOL    HW2 2772   0.821   0.382   0.065 -1.0684  0.9766 -1.0249
  925SOL     OW 2773   2.406   0.423   0.949 -0.0453  0.5479  0.6900
  925SOL    HW1 2774   2.371   0.346   0.888  1.7085 -3.7452  1.5977
  925SOL    HW2 2775   2.383   0.401   1.049 -2.5565  0.6807  0.4351
  926SOL     OW 2776   0.509   0.209   0.971  0.0254 -0.1731 -0.1421
  926SOL    HW1 2777   0.463   0.240   0.886  0.5512 -1.1462 -0.9814
  926SOL    HW2 2778   0.451   0.217   1.055  1.4013 -2.0839  3.2505
  927SOL     OW 2779   0.145   1.192   2.511  0.5346  0.1240 -0.2665
  927SOL    HW1 2780   0.194   1.230   2.594  0.7004  0.2080 -0.0952
  927SOL    HW2 2781   0.050   1.166   2.535  2.5846  2.1338  1.4273
  928SOL     OW 2782   2.875   0.488   2.921  0.1889 -0.4126  0.5256
  928SOL    HW1 2783   2.798   0.556   2.934  0.0413 -0.2526 -3.5202
  928SOL    HW2 2784   2.876   0.443   2.831  1.9140 -1.7001  1.5437
  929SOL     OW 2785   2.515   0.187   1.251 -0.1920 -0.1510 -0.6455
  929SOL    HW1 2786   2.447   0.251   1.204 -0.3170  0.0892 -1.7996
  929SOL    HW2 2787   2.490   0.088   1.229  1.0332  0.9143  0.1681
  930SOL     OW 2788   1.899   0.954   2.003  0.3219 -0.5149  0.2405
  930SOL    HW1 2789   1.804   0.974   2.034  1.5048  0.6840  0.1950
  930SOL    HW2 2790   1.968   1.018   2.046  2.4373  0.8562  1.5099
  931SOL     OW 2791   2.086   1.348   0.462  0.2779 -0.4314  0.2576
  931SOL    HW1 2792   2.068   1.281   0.390  2.9906  1.3436  0.5667
  931SOL    HW2 2793   2.144   1.426   0.426  3.1504  1.3378 -2.9465
  932SOL     OW 2794   2.678   1.298   0.844  0.0845 -0.0472  0.1648
  932SOL    HW1 2795   2.643   1.313   0.748 -0.7089 -0.4988  1.8709
  932SOL    HW2 2796   2.681   1.201   0.869 -1.3343  3.4558 -2.3171
  933SOL     OW 2797   2.813   1.619   1.155 -0.0321 -0.0610 -0.1853
  933SOL    HW1 2798   2.818   1.653   1.251  0.3146 -2.5418  0.7335
  933SOL    HW2 2799   2.749   1.542   1.151  0.0568  2.2206 -0.9724
  934SOL     OW 2800   1.925   0.573   2.504  0.2008  0.0636  0.1863
  934SOL    HW1 2801   1.912   0.538   2.411  1.6935  0.6637  0.4092
  934SOL    HW2 2802   2.009   0.534   2.537 -3.3681 -2.2203 -5.1216
  935SOL     OW 2803   0.138   1.676   0.372 -0.4533  0.2196 -0.1610
  935SOL    HW1 2804   0.048   1.628   0.358 -1.0144  1.0708 -0.9979
  935SOL    HW2 2805   0.149   1.705   0.471  0.0902 -0.4511  1.4923
  936SOL     OW 2806   0.241   0.849   0.746  0.6454  0.3189  0.0696
  936SOL    HW1 2807   0.341   0.870   0.754  2.0285  0.5075  1.6026
  936SOL    HW2 2808   0.195   0.916   0.684  0.7611  0.8311  0.7148
  937SOL     OW 2809   2.607   0.008   1.030 -0.3351  0.1467  0.4487
  937SOL    HW1 2810   2.650   3.017   0.998  2.6712 -2.1102  0.2790
  937SOL    HW2 2811   2.678   0.070   1.063  1.0468 -0.4732  1.4152
  938SOL     OW 2812   2.836   2.274   0.218  0.7819 -0.0940 -0.4447
  938SOL    HW1 2813   2.931   2.298   0.256  2.9231 -2.0984  0.6233
  938SOL    HW2 2814   2.764   2.303   0.282 -0.6403  3.1436 -0.3825
  939SOL     OW 2815   0.973   1.901   0.482  0.1566  0.4763  0.1426
  939SOL    HW1 2816   0.960   1.818   0.417  0.7295 -4.9378 -3.3501
  939SOL    HW2 2817   0.930   1.885   0.573  0.8758 -0.9436  1.3033
  940SOL     OW 2818   0.056   0.462   2.944  0.4441  0.0617  0.1227
  940SOL    HW1 2819   0.088   0.405   2.868 -1.3751  1.7945 -0.6566
  940SOL    HW2 2820   3.056   0.470   2.934  2.3237  2.3299  1.1338
  941SOL     OW 2821   1.267   0.360   2.986 -0.7260  0.0565  0.3654
  941SOL    HW1 2822   1.306   0.455   2.975  1.8345  2.4458 -0.5561
  941SOL    HW2 2823   1.267   0.338   3.081  1.4795  2.7650 -2.2487
  942SOL     OW 2824   0.931   0.957   1.303  0.1599  0.1212 -0.5796
  942SOL    HW1 2825   1.032   0.959   1.300  0.1482  1.4604  0.1547
  942SOL    HW2 2826   0.890   0.865   1.330 -1.4849 -0.9446 -0.0415
  943SOL     OW 2827   1.437   0.933   1.970 -0.1963  0.2225  0.5422
  943SOL    HW1 2828   1.526   0.904   2.011  0.4018  0.9703  0.5849
  943SOL    HW2 2829   1.356   0.892   2.019 -0.7483  0.1714  5.7079
  944SOL     OW 2830   1.907   0.898   1.720  0.3423 -0.4420 -0.3785
  944SOL    HW1 2831   1.911   0.929   1.820 -1.8583 -0.5998 -2.3703
  944SOL    HW2 2832   1.878   0.980   1.669  1.0481 -1.5636  0.3342
  945SOL     OW 2833   3.038   3.068   0.231  0.2856  0.5457  0.2140
  945SOL    HW1 2834   0.013   3.000   0.257  1.0247 -0.5693  0.5333
  945SOL    HW2 2835   3.018   0.030   0.305  1.0523 -1.6015 -1.9764
  946SOL     OW 2836   2.884   0.820   1.927 -0.6502 -0.1058  0.4852
  946SOL    HW1 2837   2.911   0.856   1.835 -0.4469 -0.6545 -1.7349
  946SOL    HW2 2838   2.806   0.879   1.970  0.0786  1.4473 -2.0400
  947SOL     OW 2839   0.758   2.932   0.294 -0.0879 -0.3673  0.7779
  947SOL    HW1 2840   0.702   2.920   0.376  2.5363  1.1054  0.1411
  947SOL    HW2 2841   0.848   2.881   0.301 -0.1659  1.1113  0.1761
  948SOL     OW 2842   2.366   1.408   1.562 -0.0263 -0.3483 -0.2708
  948SOL    HW1 2843   2.409   1.389   1.654  0.4894  0.7636  1.0750
  948SOL    HW2 2844   2.266   1.407   1.569 -2.5151 -0.8147  2.0532
  949SOL     OW 2845   0.466   1.295   2.470 -0.4061 -0.0060 -0.0481
  949SOL    HW1 2846   0.369   1.313   2.498 -1.5287 -0.9170  0.0703
  949SOL    HW2 2847   0.510   1.225   2.525  0.0853  0.9840 -0.6131
  950SOL     OW 2848   0.514   2.888   0.909  0.2404  0.8197  0.0864
  950SOL    HW1 2849   0.427   2.897   0.966 -0.4755  2.0038  3.4767
  950SOL    HW2 2850   0.554   2.980   0.912 -2.6287  0.1364  2.5975
  951SOL     OW 2851   0.863   1.279   2.355  0.1778  0.1331  0.3701
  951SOL    HW1 2852   0.960   1.243   2.346 -0.4173 -1.7334  1.0375
  951SOL    HW2 2853   0.817   1.231   2.431  0.0990 -0.4789 -0.8842
  952SOL     OW 2854   0.501   1.385   0.258  0.2900 -0.5724  0.4380
  952SOL    HW1 2855   0.562   1.321   0.200  0.5148 -1.7694 -2.6135
  952SOL    HW2 2856   0.401   1.355   0.237 -2.7967 -1.4406  0.1271
  953SOL     OW 2857   2.449   0.140   2.496  0.0019 -0.2873 -0.1080
  953SOL    HW1 2858   2.415   0.140   2.592 -0.2526 -0.6092 -0.2288
  953SOL    HW2 2859   2.509   0.062   2.474  0.9826  3.3656  0.4622
  954SOL     OW 2860   1.477   1.249   0.834 -0.0659  0.0769  0.7231
  954SOL    HW1 2861   1.383   1.240   0.790  0.0926  1.4816 -2.7449
  954SOL    HW2 2862   1.525   1.331   0.800  0.9137  1.2050  1.0846
  955SOL     OW 2863   0.765   1.920   2.853 -0.4425 -0.8000 -0.0873
  955SOL    HW1 2864   0.805   1.985   2.924 -0.0486  0.6577  1.6053
  955SOL    HW2 2865   0.763   1.971   2.764  2.1709  1.5331 -1.2747
  956SOL     OW 2866   1.904   0.505   2.243 -0.1921 -0.5562  0.4411
  956SOL    HW1 2867   1.936   0.410   2.222 -0.2280  1.1270  0.0745
  956SOL    HW2 2868   1.925   0.577   2.173 -0.5269  2.1875 -0.5131
  957SOL     OW 2869   1.957   2.090   2.559  0.1854 -0.4155  0.1379
  957SOL    HW1 2870   2.044   2.041   2.528  1.0901 -0.9656 -0.6274
  957SOL    HW2 2871   1.964   2.108   2.659 -3.0194  3.6546 -2.0443
  958SOL     OW 2872   1.344   1.322   1.536 -0.0934  0.4275  0.0972
  958SOL    HW1 2873   1.281   1.334   1.615 -1.4866 -1.0128 -2.3227
  958SOL    HW2 2874   1.323   1.396   1.469 -0.1777 -1.1016  0.2400
  959SOL     OW 2875   2.006   2.374   2.570  0.0139  0.3260 -0.1364
  959SOL    HW1 2876   1.921   2.420   2.526 -0.9680  1.1480 -2.5708
  959SOL    HW2 2877   1.990   2.278   2.586 -0.8071  0.3098 -1.9139
  960SOL     OW 2878   0.134   0.797   2.583 -0.3872  0.1063  0.2635
  960SOL    HW1 2879   0.128   0.743   2.497 -0.2254  1.2022 -0.8339
  960SOL    HW2 2880   0.052   0.850   2.602 -0.5675 -3.8602 -0.4015
  961SOL     OW 2881   0.513   1.067   2.675  0.7164  0.2180  0.1078
  961SOL    HW1 2882   0.426   1.032   2.707  2.5126 -0.8431 -1.9466
  961SOL    HW2 2883   0.546   1.147   2.728 -0.6938  1.6353 -0.6760
  962SOL     OW 2884   0.857   1.203   2.770  0.0924  0.0490 -0.0731
  962SOL    HW1 2885   0.857   1.141   2.853  2.1491  0.8280  0.2978
  962SOL    HW2 2886   0.811   1.156   2.695  2.4145  2.7071 -1.3620
  963SOL     OW 2887   2.491   2.234   0.133 -0.1232 -0.3031  0.2264
  963SOL    HW1 2888   2.545   2.317   0.155 -2.7446 -1.8237 -0.9824
  963SOL    HW2 2889   2.478   2.172   0.216  1.1403  0.7571 -1.2329
  964SOL     OW 2890   1.272   2.458   1.793 -0.0471 -0.1456 -0.4623
  964SOL    HW1 2891   1.376   2.446   1.784  1.9026  1.4218 -0.3436
  964SOL    HW2 2892   1.243   2.551   1.760 -1.0535  0.2618  0.8294
  965SOL     OW 2893   1.495   1.591   0.357  0.3974 -0.6242  0.0740
  965SOL    HW1 2894   1.592   1.560   0.357  0.6305  1.7472 -0.9792
  965SOL    HW2 2895   1.445   1.525   0.417  2.5086 -0.5661 -0.0899
  966SOL     OW 2896   0.048   1.875   0.160 -0.7011  0.8841  0.6395
  966SOL    HW1 2897   0.128   1.831   0.201  2.7139 -2.6670  1.3469
  966SOL    HW2 2898   3.081   1.899   0.229 -1.3347 -0.8897 -1.9360
  967SOL     OW 2899   1.774   0.148   2.172  0.0477  0.0691  0.5159
  967SOL    HW1 2900   1.876   0.160   2.172  5.1240 -0.7397 -1.8661
  967SOL    HW2 2901   1.740   0.084   2.245 -1.4654 -4.2324  4.1532
  968SOL     OW 2902   1.771   0.368   0.471  0.5115  0.4330 -0.1810
  968SOL    HW1 2903   1.742   0.366   0.376  1.9271 -0.8529 -0.5496
  968SOL    HW2 2904   1.836   0.447   0.483 -0.6933  0.2325 -0.4072
  969SOL     OW 2905   0.181   1.248   2.248 -0.3004  0.5502  0.1630
  969SOL    HW1 2906   0.251   1.202   2.183  3.3893 -0.1275 -0.5362
  969SOL    HW2 2907   0.190   1.219   2.346  0.4261 -1.0766  1.1855
  970SOL     OW 2908   2.601   1.443   1.064  0.3246  0.3294 -0.0024
  970SOL    HW1 2909   2.630   1.385   0.982 -0.3995 -1.2837 -1.5551
  970SOL    HW2 2910   2.547   1.525   1.046  0.7866 -2.6971 -0.1421
  971SOL     OW 2911   0.093   2.769   0.935  0.4494  0.2266 -0.1147
  971SOL    HW1 2912   0.057   2.697   1.001 -0.3029  0.1593 -2.4986
  971SOL    HW2 2913   0.024   2.834   0.902  0.7122  3.8016  0.3785
  972SOL     OW 2914   0.282   0.953   2.733 -0.3659 -0.3370 -0.0833
  972SOL    HW1 2915   0.264   0.950   2.833  2.5105 -0.3425 -0.8163
  972SOL    HW2 2916   0.214   0.894   2.683  1.1252 -0.3765  0.7415
  973SOL     OW 2917   0.370   0.278   0.717 -0.2609 -0.3223  0.0399
  973SOL    HW1 2918   0.297   0.212   0.703  1.4377  1.2142 -0.2282
  973SOL    HW2 2919   0.348   0.370   0.673 -3.3804  0.1265 -1.0256
  974SOL     OW 2920   2.057   0.883   1.339  0.4131 -0.6164  0.3047
  974SOL    HW1 2921   2.073   0.975   1.371 -1.1134 -1.7618  2.5441
  974SOL    HW2 2922   2.140   0.838   1.303 -2.6313  1.9897 -0.5995
  975SOL     OW 2923   2.595   2.865   0.160 -0.2813  0.2143 -0.5528
  975SOL    HW1 2924   2.684   2.873   0.212 -0.4359 -1.6852  1.6916
  975SOL    HW2 2925   2.580   2.778   0.103 -0.9976 -1.7127  0.3405
  976SOL     OW 2926   0.516   1.438   1.144  0.2348 -0.2930  0.2282
  976SOL    HW1 2927   0.493   1.352   1.190  0.3809  1.1847 -0.4948
  976SOL    HW2 2928   0.504   1.518   1.204  0.2211  1.5487  1.2790
  977SOL     OW 2929   1.185   2.238   0.736  0.2688  0.2708  0.6685
  977SOL    HW1 2930   1.228   2.185   0.659  1.3021  0.4991 -0.1993
  977SOL    HW2 2931   1.262   2.264   0.800 -1.6526  0.0675  0.8248
  978SOL     OW 2932   0.425   0.946   0.370 -0.2701  0.5517 -0.0457
  978SOL    HW1 2933   0.458   1.025   0.425 -0.7041 -0.2995  0.2620
  978SOL    HW2 2934   0.474   0.947   0.284  1.0212 -3.3774  2.4442
  979SOL     OW 2935   2.043   1.613   0.627 -0.2889 -0.2320  0.2511
  979SOL    HW1 2936   2.071   1.531   0.682 -1.9194 -1.6260 -0.3863
  979SOL    HW2 2937   2.117   1.682   0.626 -1.6221 -0.9006  1.6805
  980SOL     OW 2938   0.248   1.907   1.772  0.0952 -0.4293 -0.0940
  980SOL    HW1 2939   0.282   1.908   1.676  2.3337  1.2817  2.6004
  980SOL    HW2 2940   0.331   1.891   1.825  2.1784  0.7193 -1.4392
  981SOL     OW 2941   2.969   1.316   0.218  0.6565 -0.1196 -0.2910
  981SOL    HW1 2942   2.869   1.306   0.221  1.8222  0.7272  1.0105
  981SOL    HW2 2943   3.010   1.298   0.124 -2.4798  0.5942  0.0226
  982SOL     OW 2944   2.852   2.903   1.955 -0.5581  0.1741 -0.2285
  982SOL    HW1 2945   2.879   2.974   2.025 -0.6800 -1.8736 -0.2985
  982SOL    HW2 2946   2.918   2.905   1.881 -2.9364 -1.5839  0.2498
  983SOL     OW 2947   1.558   0.041   1.130  0.0054 -0.2017  0.3961
  983SOL    HW1 2948   1.478   0.026   1.187  1.7674  1.0388 -2.0415
  983SOL    HW2 2949   1.634   0.083   1.180 -0.7446  0.6829 -0.2258
  984SOL     OW 2950   1.352   2.654   2.964 -0.6145  0.3430  0.7875
  984SOL    HW1 2951   1.399   2.725   3.021 -1.2949  1.1966 -2.6863
  984SOL    HW2 2952   1.406   2.630   2.880  1.5503 -0.8699  1.9498
  985SOL     OW 2953   1.921   1.894   1.693 -0.4515  0.4655  0.8418
  985SOL    HW1 2954   1.825   1.899   1.667 -0.6778  1.1748  0.7487
  985SOL    HW2 2955   1.957   1.799   1.706 -1.8617  0.6577  0.0228
  986SOL     OW 2956   2.078   3.086   2.485 -0.7217  0.1243  0.4065
  986SOL    HW1 2957   2.111   0.081   2.482  1.2232 -0.8547  1.8713
  986SOL    HW2 2958   2.028   3.072   2.574  1.7813  1.3991 -0.5803
  987SOL     OW 2959   2.747   1.401   2.350 -0.4500 -0.2987 -0.2164
  987SOL    HW1 2960   2.729   1.359   2.437  1.6527 -0.3627 -1.8907
  987SOL    HW2 2961   2.834   1.452   2.345  1.4931  1.2493 -2.2307
  988SOL     OW 2962   2.545   0.703   2.296 -0.2008 -0.1392  0.8649
  988SOL    HW1 2963   2.644   0.677   2.290 -0.9615 -0.2097  0.9831
  988SOL    HW2 2964   2.524   0.782   2.237 -1.9276  1.1972  1.5537
  989SOL     OW 2965   1.787   1.251   1.896 -0.2293  0.1136  0.4255
  989SOL    HW1 2966   1.689   1.248   1.932 -1.5494 -2.0596  0.1813
  989SOL    HW2 2967   1.852   1.212   1.964 -0.6907 -0.4185  1.2436
  990SOL     OW 2968   0.243   1.272   0.232 -0.1811 -0.6297 -1.1857
  990SOL    HW1 2969   0.237   1.263   0.334 -0.0309  2.5354  1.1573
  990SOL    HW2 2970   0.219   1.177   0.192 -1.0058 -0.1568  1.1638
  991SOL     OW 2971   0.356   1.768   2.784  0.8855 -0.0044  0.3929
  991SOL    HW1 2972   0.385   1.860   2.815  1.0711 -2.4818  2.0648
  991SOL    HW2 2973   0.306   1.721   2.861 -0.5082 -1.7573 -0.6266
  992SOL     OW 2974   2.723   2.098   1.863 -0.6432  0.3137  0.0236
  992SOL    HW1 2975   2.716   2.165   1.940 -0.0029 -2.9421 -1.4118
  992SOL    HW2 2976   2.670   2.128   1.783 -0.2691 -0.3623  0.6352
  993SOL     OW 2977   0.269   2.920   0.613 -0.1108 -0.1615  0.6899
  993SOL    HW1 2978   0.305   3.011   0.578  1.3683  3.9774 -0.4133
  993SOL    HW2 2979   0.351   2.861   0.609  1.5331  2.0525 -1.0688
  994SOL     OW 2980   0.017   2.003   1.404  0.2391 -0.0496 -0.2902
  994SOL    HW1 2981   3.088   2.008   1.501 -0.9440 -0.1045  1.4117
  994SOL    HW2 2982   0.103   2.058   1.396 -0.8254 -2.1750  2.6651
  995SOL     OW 2983   2.161   1.724   2.455  0.3663 -0.4282  0.1122
  995SOL    HW1 2984   2.185   1.815   2.503 -0.8555  1.7832  2.3559
  995SOL    HW2 2985   2.203   1.654   2.506  1.4258  2.4605 -3.7744
  996SOL     OW 2986   1.934   1.554   3.082 -0.0848  0.0956  0.3589
  996SOL    HW1 2987   1.852   1.507   0.018 -1.4719 -1.6540  1.9243
  996SOL    HW2 2988   1.941   1.551   2.977 -0.5174  0.9173 -3.2891
  997SOL     OW 2989   1.473   1.475   1.765  1.1303 -0.1945 -0.4688
  997SOL    HW1 2990   1.428   1.451   1.854  1.2269 -1.9048 -2.2692
  997SOL    HW2 2991   1.475   1.389   1.707 -0.4258  0.3364  2.0496
  998SOL     OW 2992   2.854   2.133   0.969  0.1769 -0.3533 -0.3369
  998SOL    HW1 2993   2.931   2.198   0.975 -1.3496 -0.2558 -0.4848
  998SOL    HW2 2994   2.833   2.132   0.867  1.0721  3.1818 -0.6294
  999SOL     OW 2995   2.015   2.676   0.300  0.2917 -0.4261 -0.4676
  999SOL    HW1 2996   2.040   2.773   0.291  1.7817  0.1185 -3.1349
  999SOL    HW2 2997   2.072   2.614   0.241  1.8817 -1.6711 -0.9714
 1000SOL     OW 2998   0.718   2.964   3.062  0.2794 -0.6554  0.2821
 1000SOL    HW1 2999   0.791   2.965   0.031 -1.3027 -1.8395 -1.9534
 1000SOL    HW2 3000   0.699   3.061   3.027  1.1172 -0.8777  2.1329
   3.10030   3.10030   3.10030
