1000 SPC/Fw water molecules t= 212.00000 step= 212000
 3000
    1SOL     OW    1   2.870   2.936   0.967  0.4438  0.9255 -0.3806
    1SOL    HW1    2   2.904   2.848   0.923  1.0401  0.0715 -0.0127
    1SOL    HW2    3   2.918   3.020   0.938 -1.7865 -0.7243 -1.9707
    2SOL     OW    4   1.745   1.566   2.089  0.0125 -0.0477  0.1051
    2SOL    HW1    5   1.832   1.612   2.115  0.9808  2.7309  0.3246
    2SOL    HW2    6   1.732   1.484   2.150  1.0086  0.6913  0.8125
    3SOL     OW    7   1.946   2.510   2.210  0.5439 -0.6316  0.1963
    3SOL    HW1    8   1.894   2.553   2.287 -0.0126 -1.3076 -1.1419
    3SOL    HW2    9   1.991   2.425   2.244 -1.4156  2.4958  0.8175
    4SOL     OW   10   2.060   1.760   2.469 -0.0202  0.3737  0.4065
    4SOL    HW1   11   2.076   1.696   2.388  0.3819 -1.6667 -1.3588
    4SOL    HW2   12   1.981   1.729   2.524  3.2969  3.7665 -0.4491
    5SOL     OW   13   1.410   0.593   1.683  0.2038 -0.5119 -0.0884
    5SOL    HW1   14   1.456   0.501   1.688 -0.8513  3.1585 -2.1007
    5SOL    HW2   15   1.332   0.580   1.617 -0.8228  0.3525 -0.0186
    6SOL     OW   16   2.859   0.568   2.917 -0.6090 -0.3600  0.1473
    6SOL    HW1   17   2.946   0.537   2.959  0.3718  1.4598  1.6075
    6SOL    HW2   18   2.784   0.518   2.962  2.6854  1.0287 -0.8754
    7SOL     OW   19   0.694   1.439   1.413 -0.4394  0.2424  0.4781
    7SOL    HW1   20   0.774   1.501   1.396  2.9495 -1.8865 -0.0108
    7SOL    HW2   21   0.648   1.395   1.332  0.8436  1.0983  1.9514
    8SOL     OW   22   1.225   0.498   0.890  0.1235 -0.0309 -0.3517
    8SOL    HW1   23   1.126   0.487   0.861  2.9995  0.9261  1.1612
    8SOL    HW2   24   1.261   0.417   0.945 -0.6884 -1.7786  3.7631
    9SOL     OW   25   1.054   0.632   2.450 -0.5139 -0.2102  0.2810
    9SOL    HW1   26   1.065   0.647   2.350 -1.1398 -1.0844  1.2993
    9SOL    HW2   27   1.099   0.550   2.491 -0.3680  1.4574 -2.8117
   10SOL     OW   28   0.435   2.517   0.288 -0.1447 -0.2755  0.0586
   10SOL    HW1   29   0.524   2.472   0.266 -0.7846  0.7279 -1.1942
   10SOL    HW2   30   0.412   2.590   0.225 -0.1607 -1.4457 -1.2399
   11SOL     OW   31   0.849   1.271   3.073 -0.2561  0.0399  0.4547
   11SOL    HW1   32   0.759   1.224   3.079 -0.9876  0.0362  1.3799
   11SOL    HW2   33   0.886   1.302   0.072 -0.8221 -0.2425  1.0122
   12SOL     OW   34   0.324   0.324   1.597 -0.4467  0.3116 -0.3287
   12SOL    HW1   35   0.318   0.250   1.525  0.5308 -0.9718 -1.4426
   12SOL    HW2   36   0.406   0.311   1.655  0.1387 -1.7342 -1.2923
   13SOL     OW   37   0.823   0.071   0.248 -0.2385 -0.1323 -0.1528
   13SOL    HW1   38   0.890   0.077   0.174 -0.0291 -2.8039  2.4693
   13SOL    HW2   39   0.870   0.064   0.337 -3.1569  1.0308 -4.2261
   14SOL     OW   40   1.185   2.302   1.266  0.2649 -0.2870 -0.6968
   14SOL    HW1   41   1.103   2.358   1.296 -3.7661  1.0901 -1.2836
   14SOL    HW2   42   1.266   2.341   1.313 -0.6985  3.3406  2.2557
   15SOL     OW   43   2.667   1.229   1.800  0.2069  0.2606  0.3750
   15SOL    HW1   44   2.674   1.171   1.720  1.5836  0.2199 -0.4182
   15SOL    HW2   45   2.757   1.225   1.852  0.3077  3.4653 -1.8939
   16SOL     OW   46   1.293   2.884   0.025 -0.3314  0.4824  0.1783
   16SOL    HW1   47   1.257   2.972   0.061  1.8890  2.3592 -1.6289
   16SOL    HW2   48   1.394   2.892   3.088  1.4033 -2.1282 -0.7335
   17SOL     OW   49   0.756   0.157   1.446  0.2516  0.3040 -0.4755
   17SOL    HW1   50   0.709   0.122   1.361 -1.7126 -1.5959 -0.9805
   17SOL    HW2   51   0.759   0.255   1.455  0.9352 -0.8783 -0.1636
   18SOL     OW   52   1.288   0.785   0.114 -0.6244 -0.4004 -0.6001
   18SOL    HW1   53   1.289   0.683   0.098  2.4137  1.1850 -0.9895
   18SOL    HW2   54   1.197   0.825   0.090 -0.6220  0.4674 -1.1813
   19SOL     OW   55   2.140   1.634   3.066 -0.0083  0.4601 -0.3136
   19SOL    HW1   56   2.120   1.734   3.090 -0.6695  1.5449  0.7336
   19SOL    HW2   57   2.053   1.581   3.073  2.0334  1.5398  2.2971
   20SOL     OW   58   2.051   1.682   1.561 -0.1862  0.0804 -0.2888
   20SOL    HW1   59   2.015   1.757   1.618  0.9005 -1.8164  0.5011
   20SOL    HW2   60   1.996   1.674   1.478  0.1966 -2.0221  0.7368
   21SOL     OW   61   0.967   1.042   2.984  0.6177  0.1887 -0.0694
   21SOL    HW1   62   1.061   1.071   2.955 -0.5219  3.8416 -0.2261
   21SOL    HW2   63   0.912   1.125   3.009 -0.9237 -0.2227 -2.4536
   22SOL     OW   64   2.270   0.006   1.239 -0.1082 -0.3954  0.2337
   22SOL    HW1   65   2.207   0.032   1.163 -0.5521  0.0374  0.3040
   22SOL    HW2   66   2.332   3.024   1.211 -0.9837 -1.0676 -2.4312
   23SOL     OW   67   0.022   0.884   1.768  0.2642 -0.0121  0.2764
   23SOL    HW1   68   0.107   0.889   1.723 -4.1758  2.8461  2.0004
   23SOL    HW2   69   3.039   0.893   1.701 -0.2331 -0.6856 -0.0287
   24SOL     OW   70   2.410   2.427   1.226 -0.1439 -0.5715  0.0650
   24SOL    HW1   71   2.397   2.449   1.124 -0.4611  0.3804 -2.0807
   24SOL    HW2   72   2.506   2.391   1.243  0.0416 -0.5599 -1.7015
   25SOL     OW   73   1.831   2.802   2.669 -0.2091  0.5110  0.1239
   25SOL    HW1   74   1.728   2.801   2.654 -0.1495  1.1166  1.3806
   25SOL    HW2   75   1.881   2.769   2.585 -2.6191  1.3325 -0.9773
   26SOL     OW   76   1.331   2.708   0.429 -0.0407 -0.2743  0.0948
   26SOL    HW1   77   1.408   2.653   0.464 -0.1366 -0.8846  0.2930
   26SOL    HW2   78   1.275   2.648   0.365 -1.6191 -3.4563 -1.3934
   27SOL     OW   79   0.462   1.777   2.815 -0.2340  0.0135  0.0793
   27SOL    HW1   80   0.445   1.828   2.727 -2.6320  1.6486 -0.4203
   27SOL    HW2   81   0.554   1.796   2.849 -1.3496 -0.5048 -0.7973
   28SOL     OW   82   3.036   1.239   1.544  0.0341  0.0926 -0.3876
   28SOL    HW1   83   3.032   1.303   1.462 -1.2868 -0.4246 -1.4797
   28SOL    HW2   84   0.002   1.270   1.625  2.9856  2.3494  1.7689
   29SOL     OW   85   2.745   2.435   2.018 -0.4411  0.1007  0.0954
   29SOL    HW1   86   2.810   2.422   2.094 -1.7145  1.2743 -2.2153
   29SOL    HW2   87   2.703   2.347   1.991  1.1560  2.2174  0.6898
   30SOL     OW   88   1.279   0.071   0.051 -0.2210 -0.2654  0.2317
   30SOL    HW1   89   1.334   0.089   3.060 -0.9404  0.6371  1.0311
   30SOL    HW2   90   1.323   0.089   0.141  0.4537 -0.5805  0.2529
   31SOL     OW   91   2.689   2.412   1.718  0.3521 -0.1209 -0.0292
   31SOL    HW1   92   2.696   2.443   1.813 -0.3384  0.9631 -0.4536
   31SOL    HW2   93   2.726   2.318   1.708  1.8709  2.4990 -0.2037
   32SOL     OW   94   1.343   1.261   1.493 -0.4644 -0.1277 -0.3410
   32SOL    HW1   95   1.266   1.219   1.446  3.2628 -0.6277  2.4754
   32SOL    HW2   96   1.387   1.331   1.435 -0.2521 -2.0138  0.8965
   33SOL     OW   97   0.025   2.589   2.686  0.2954 -0.2006 -0.6484
   33SOL    HW1   98   0.090   2.593   2.606  3.1040  0.2731 -2.5873
   33SOL    HW2   99   3.022   2.618   2.657 -2.4943  2.8435  1.6739
   34SOL     OW  100   1.796   0.158   0.722 -0.6409  0.2166  0.3385
   34SOL    HW1  101   1.819   0.120   0.627  0.9754  0.5955 -1.6955
   34SOL    HW2  102   1.708   0.208   0.721  3.4632 -1.2747 -0.1117
   35SOL     OW  103   2.295   0.204   0.839 -0.0612  0.0299 -0.6274
   35SOL    HW1  104   2.247   0.113   0.859 -1.5223 -0.9625 -1.8796
   35SOL    HW2  105   2.348   0.195   0.748  3.5094  1.9127 -1.9511
   36SOL     OW  106   1.914   2.711   2.413 -0.1357 -0.2045  0.0087
   36SOL    HW1  107   2.010   2.694   2.433 -2.9426  0.3859  2.8812
   36SOL    HW2  108   1.906   2.760   2.325  1.0380  0.9149 -0.1915
   37SOL     OW  109   1.070   2.550   2.473 -0.1400 -0.1495 -0.3378
   37SOL    HW1  110   1.030   2.524   2.566 -1.2442  1.0190  2.4580
   37SOL    HW2  111   1.171   2.528   2.467 -1.2685  0.8141 -2.5369
   38SOL     OW  112   2.863   0.208   2.705  0.1667 -0.0042 -0.2005
   38SOL    HW1  113   2.804   0.208   2.785  1.3736  1.5879  0.4473
   38SOL    HW2  114   2.880   0.113   2.673 -0.4364  1.0032 -0.4003
   39SOL     OW  115   2.099   1.479   1.759 -0.2980  0.4182  0.4873
   39SOL    HW1  116   2.198   1.485   1.745 -1.5361  0.6013  0.5438
   39SOL    HW2  117   2.062   1.560   1.716  1.1041  0.4691  0.9102
   40SOL     OW  118   0.092   3.057   2.699  0.0292 -0.4098  0.8098
   40SOL    HW1  119   0.170   0.031   2.724  2.9969  0.9200  0.1099
   40SOL    HW2  120   0.082   2.986   2.774 -1.3412 -1.4766  1.0497
   41SOL     OW  121   1.730   0.530   0.753  0.4511  0.4427  0.0523
   41SOL    HW1  122   1.673   0.610   0.781  1.2484 -0.5585  0.8508
   41SOL    HW2  123   1.827   0.559   0.774  3.4504  0.9796  1.8310
   42SOL     OW  124   0.578   0.763   1.525 -0.2220  0.6274 -0.0429
   42SOL    HW1  125   0.475   0.746   1.537  0.1682 -0.9743 -0.9495
   42SOL    HW2  126   0.630   0.700   1.587 -0.8321 -0.7326  0.9195
   43SOL     OW  127   2.732   1.472   2.522 -0.3557  0.0792 -0.2908
   43SOL    HW1  128   2.681   1.558   2.505 -3.8249 -2.0232 -0.6513
   43SOL    HW2  129   2.679   1.385   2.504  3.8823  2.0803  1.4193
   44SOL     OW  130   2.804   2.907   0.630  0.2873 -0.5628 -0.2713
   44SOL    HW1  131   2.853   2.993   0.656 -0.5296  2.2344 -0.4093
   44SOL    HW2  132   2.827   2.832   0.700  0.4936 -4.2331  3.5273
   45SOL     OW  133   0.138   2.350   1.910  0.0869 -0.2893 -0.4295
   45SOL    HW1  134   0.093   2.437   1.877 -0.8181 -1.0619  0.8295
   45SOL    HW2  135   0.232   2.336   1.874  0.6037 -0.0766  0.5239
   46SOL     OW  136   2.343   2.493   2.307  0.1443 -0.4562  0.1100
   46SOL    HW1  137   2.424   2.444   2.337 -1.0897  2.4907 -3.8392
   46SOL    HW2  138   2.359   2.513   2.207 -0.3955 -0.4707  0.1865
   47SOL     OW  139   2.145   2.015   1.737  0.2348  0.1796  0.2634
   47SOL    HW1  140   2.246   2.007   1.734 -1.4125  0.5560 -1.4998
   47SOL    HW2  141   2.099   1.924   1.734  0.7673  0.2245  0.5589
   48SOL     OW  142   0.694   1.779   0.304 -0.6618 -0.4254  0.1678
   48SOL    HW1  143   0.652   1.758   0.215  3.0503 -0.2990 -0.8654
   48SOL    HW2  144   0.793   1.764   0.291  2.0614  3.3407 -0.6838
   49SOL     OW  145   2.529   0.485   2.601  0.6026  0.6738  0.3232
   49SOL    HW1  146   2.457   0.411   2.617 -2.1498  0.6186  2.1276
   49SOL    HW2  147   2.495   0.551   2.525 -0.1924  0.5048 -2.9113
   50SOL     OW  148   2.389   1.048   0.072  0.4470 -0.6529 -0.0782
   50SOL    HW1  149   2.313   1.090   0.123 -0.4177  1.0921  2.1204
   50SOL    HW2  150   2.375   0.947   0.072 -0.1384  2.1925 -1.5084
   51SOL     OW  151   2.012   0.711   1.085  0.3789 -0.5811 -0.2104
   51SOL    HW1  152   1.933   0.652   1.116  1.1593  0.3236  1.1058
   51SOL    HW2  153   2.105   0.679   1.113 -2.1899 -0.4108 -0.3217
   52SOL     OW  154   1.219   1.099   2.936 -0.2960 -0.2829 -0.5745
   52SOL    HW1  155   1.258   1.135   3.022 -1.7347  0.2126 -1.4462
   52SOL    HW2  156   1.242   1.001   2.914 -1.3434 -0.6887  0.1355
   53SOL     OW  157   0.982   1.573   1.965  0.1729  0.5635 -0.0351
   53SOL    HW1  158   0.900   1.614   2.002  2.0214  1.0929 -1.5801
   53SOL    HW2  159   0.964   1.526   1.877  2.9633 -0.2084 -0.7281
   54SOL     OW  160   2.112   0.351   1.129  0.5500 -0.6149  0.7325
   54SOL    HW1  161   2.107   0.251   1.108 -1.6429 -1.7615 -0.4775
   54SOL    HW2  162   2.161   0.405   1.056 -2.1134 -0.7529 -0.5122
   55SOL     OW  163   2.549   2.603   0.904  0.6410  0.0714  0.2810
   55SOL    HW1  164   2.452   2.585   0.870 -1.8480 -0.3395 -1.6027
   55SOL    HW2  165   2.552   2.705   0.919 -0.7105  0.7907  2.1832
   56SOL     OW  166   0.709   2.750   1.506 -0.1679 -0.3128 -0.2673
   56SOL    HW1  167   0.700   2.666   1.451 -2.3964  1.3977  0.5349
   56SOL    HW2  168   0.807   2.770   1.522 -0.2533  0.0968 -1.9829
   57SOL     OW  169   1.433   1.319   0.325  0.7542 -0.2041 -0.0254
   57SOL    HW1  170   1.379   1.312   0.412  1.6356 -0.0927 -0.9110
   57SOL    HW2  171   1.480   1.414   0.316  3.4979  5.2610  0.2253
   58SOL     OW  172   2.985   0.561   2.375 -0.5845 -0.1155  0.1510
   58SOL    HW1  173   2.951   0.642   2.321  2.0495 -0.2748  0.4736
   58SOL    HW2  174   2.908   0.507   2.412  1.6801 -2.4358 -0.7975
   59SOL     OW  175   0.858   2.737   2.709  0.3091 -0.4672 -0.4650
   59SOL    HW1  176   0.882   2.766   2.806  1.1702 -0.3754  0.3806
   59SOL    HW2  177   0.880   2.636   2.695  0.1622  1.9837  0.3059
   60SOL     OW  178   2.290   2.679   0.672 -0.2183  0.2444 -0.1108
   60SOL    HW1  179   2.298   2.604   0.597  0.5782 -1.1867 -3.2008
   60SOL    HW2  180   2.231   2.755   0.647 -0.0725 -1.8801 -0.2197
   61SOL     OW  181   1.286   2.378   0.809  0.6256  0.3667  0.0416
   61SOL    HW1  182   1.189   2.405   0.838  1.8982 -0.8043 -1.8760
   61SOL    HW2  183   1.363   2.434   0.847  0.7432  3.1115  0.5172
   62SOL     OW  184   2.543   2.238   2.688 -0.1777  0.1207 -0.1246
   62SOL    HW1  185   2.474   2.186   2.742  2.6396  3.5089 -0.5305
   62SOL    HW2  186   2.631   2.232   2.737 -1.8895 -1.0379  1.0412
   63SOL     OW  187   2.420   0.463   2.867 -0.4552  0.1178  0.0921
   63SOL    HW1  188   2.461   0.478   2.773 -1.4129 -0.5967  2.1032
   63SOL    HW2  189   2.485   0.430   2.939 -2.4524  0.4209  0.4345
   64SOL     OW  190   1.099   0.829   2.627 -0.3339  0.0040  0.5499
   64SOL    HW1  191   1.006   0.829   2.667  1.1655  2.1870  0.3010
   64SOL    HW2  192   1.103   0.755   2.551  0.7272 -0.9681 -2.6102
   65SOL     OW  193   1.140   1.990   0.416  0.4630  0.0517 -0.1341
   65SOL    HW1  194   1.186   2.035   0.492  0.1197 -2.1545 -1.5836
   65SOL    HW2  195   1.191   2.010   0.326 -1.2440  1.3892 -4.0973
   66SOL     OW  196   0.273   1.077   2.006  0.3443  0.1590  0.2193
   66SOL    HW1  197   0.270   1.171   2.048  0.7241  0.8371  0.0711
   66SOL    HW2  198   0.358   1.055   1.955  0.2890 -1.4286  1.8019
   67SOL     OW  199   2.334   0.129   2.415 -0.2852 -0.3463 -0.5146
   67SOL    HW1  200   2.432   0.134   2.410 -3.9214 -1.3635 -1.2670
   67SOL    HW2  201   2.305   0.031   2.409 -3.7954 -2.4857 -0.2176
   68SOL     OW  202   0.619   2.009   1.220  0.5914  0.2245  0.8882
   68SOL    HW1  203   0.618   1.927   1.278  0.5125  0.6749 -0.1398
   68SOL    HW2  204   0.529   2.055   1.216  0.8235  1.9509 -0.5909
   69SOL     OW  205   0.911   2.633   0.517 -0.0162  0.5660  0.1539
   69SOL    HW1  206   0.880   2.675   0.427 -0.9339  1.8588  0.1382
   69SOL    HW2  207   0.989   2.682   0.561  0.0666  0.1221 -0.2586
   70SOL     OW  208   0.006   1.037   2.875  0.3817 -0.4378 -0.6447
   70SOL    HW1  209   3.088   1.142   2.884  0.1234  0.5958 -0.3512
   70SOL    HW2  210   3.037   1.007   2.796 -3.6332  1.1214 -1.5009
   71SOL     OW  211   0.199   1.409   2.689  0.0568  0.4796  0.1867
   71SOL    HW1  212   0.152   1.489   2.645 -2.3740  1.5648 -3.9386
   71SOL    HW2  213   0.232   1.345   2.615  1.7441 -0.1474  1.0198
   72SOL     OW  214   2.971   2.178   0.499  0.1864 -0.1654 -0.4604
   72SOL    HW1  215   2.948   2.100   0.438  0.6250 -1.5493 -0.5889
   72SOL    HW2  216   3.058   2.156   0.555 -0.1160  0.3470  0.8234
   73SOL     OW  217   0.964   1.386   0.189  0.3619 -0.1347 -0.0048
   73SOL    HW1  218   1.033   1.343   0.250  0.5423 -0.0404  2.4115
   73SOL    HW2  219   0.962   1.487   0.211  0.5696 -0.8157 -0.4558
   74SOL     OW  220   2.972   0.472   0.162 -0.0892  0.2349  0.3284
   74SOL    HW1  221   3.029   0.412   0.220  1.0213  0.9928 -1.6680
   74SOL    HW2  222   3.006   0.454   0.070  0.8735 -1.8643  1.9689
   75SOL     OW  223   2.075   1.460   2.020  0.0839  0.7067  0.0097
   75SOL    HW1  224   2.089   1.466   1.917  2.2887 -0.8220  1.6133
   75SOL    HW2  225   2.056   1.553   2.060 -1.1119  0.4976  3.7651
   76SOL     OW  226   2.084   2.708   1.478 -0.0511 -0.0714  0.3647
   76SOL    HW1  227   2.161   2.657   1.450 -2.5850  2.8578  0.6614
   76SOL    HW2  228   2.058   2.684   1.570  1.3204  1.0560 -2.2661
   77SOL     OW  229   2.718   0.460   1.235 -0.5126  0.2624 -0.1707
   77SOL    HW1  230   2.813   0.429   1.235 -1.5272  2.1830  0.0829
   77SOL    HW2  231   2.654   0.380   1.232 -2.5937  1.3558 -0.4333
   78SOL     OW  232   1.514   0.932   3.067  0.1797 -0.2940 -0.8889
   78SOL    HW1  233   1.440   0.888   0.027  0.8876  1.1510  0.1867
   78SOL    HW2  234   1.497   0.943   2.969 -1.6450  1.1784  1.4961
   79SOL     OW  235   0.529   1.807   1.787 -0.1075  0.1494  0.1051
   79SOL    HW1  236   0.584   1.895   1.804  1.6250  1.6717  2.4153
   79SOL    HW2  237   0.591   1.729   1.769  1.4113  2.1915  1.6382
   80SOL     OW  238   1.561   0.963   0.991  0.1633 -0.4307  0.0031
   80SOL    HW1  239   1.537   0.982   1.089 -3.7902  0.1346 -0.6874
   80SOL    HW2  240   1.639   1.018   0.962 -0.3236 -1.4710  0.1665
   81SOL     OW  241   0.334   0.335   1.198 -0.9365 -0.7354 -0.5130
   81SOL    HW1  242   0.275   0.326   1.118  2.6110  1.3831 -0.4155
   81SOL    HW2  243   0.429   0.370   1.180  0.3355  1.8588 -0.0468
   82SOL     OW  244   1.479   2.508   1.761  0.0433  0.2872 -0.0246
   82SOL    HW1  245   1.399   2.569   1.775 -1.2804 -0.1563 -0.2609
   82SOL    HW2  246   1.512   2.461   1.844 -3.6781 -2.8813  0.1613
   83SOL     OW  247   0.564   2.856   1.282 -0.7466 -0.1348  0.1596
   83SOL    HW1  248   0.464   2.844   1.273  4.2710  2.2284  0.8901
   83SOL    HW2  249   0.597   2.812   1.368 -2.4873  0.4328 -0.6268
   84SOL     OW  250   0.448   1.244   2.933 -0.1044 -0.5491 -0.5700
   84SOL    HW1  251   0.373   1.179   2.908 -0.5063  2.5216 -0.2019
   84SOL    HW2  252   0.494   1.287   2.849 -1.6539  1.0743 -3.9056
   85SOL     OW  253   2.954   2.214   1.620 -0.0749  0.5243 -0.4199
   85SOL    HW1  254   2.996   2.284   1.554  2.2792  0.3336  2.4509
   85SOL    HW2  255   2.866   2.181   1.582 -0.4448  1.7146  0.3319
   86SOL     OW  256   2.814   2.571   1.540  0.6789 -0.7414 -0.1767
   86SOL    HW1  257   2.763   2.514   1.607 -0.9968  0.1918 -2.2036
   86SOL    HW2  258   2.889   2.510   1.502  3.8164 -2.2491 -0.8947
   87SOL     OW  259   2.850   2.393   2.772  0.3108 -0.3975 -0.2632
   87SOL    HW1  260   2.767   2.455   2.768 -0.7162 -0.4830  1.1086
   87SOL    HW2  261   2.869   2.360   2.678 -3.0773 -0.2853 -1.3879
   88SOL     OW  262   0.352   1.792   1.295 -0.0843  0.1256 -0.0272
   88SOL    HW1  263   0.403   1.853   1.358 -0.7325 -0.7537  0.3682
   88SOL    HW2  264   0.414   1.770   1.213  0.9206  0.3475 -3.4194
   89SOL     OW  265   0.866   0.040   1.919 -0.1732  0.6376 -0.8351
   89SOL    HW1  266   0.851   0.059   1.820  0.2411 -3.9786 -3.2275
   89SOL    HW2  267   0.920   3.048   1.921  1.2525  1.8726 -2.0839
   90SOL     OW  268   0.255   1.783   1.860 -0.3246  0.0478 -0.4060
   90SOL    HW1  269   0.210   1.834   1.786  0.1517 -0.8407  0.2056
   90SOL    HW2  270   0.354   1.801   1.857  0.9596 -1.1650  0.1826
   91SOL     OW  271   1.045   1.750   0.529 -0.1697 -0.3705 -0.4294
   91SOL    HW1  272   1.115   1.675   0.512  2.0889 -0.6814  1.3500
   91SOL    HW2  273   1.068   1.836   0.482 -0.1302 -0.0191 -0.1317
   92SOL     OW  274   2.583   0.230   1.255  0.4466  0.4150  0.8495
   92SOL    HW1  275   2.498   0.222   1.313  1.7724  2.2032  1.3729
   92SOL    HW2  276   2.574   0.200   1.153  2.5656  0.5160 -3.9141
   93SOL     OW  277   2.484   1.417   2.980  0.5621  0.6316 -0.5299
   93SOL    HW1  278   2.552   1.350   3.016  0.0684 -2.7321  2.6746
   93SOL    HW2  279   2.447   1.368   2.895  0.6598 -1.4558  0.3523
   94SOL     OW  280   2.591   2.365   2.431  0.0635 -0.1300  0.1961
   94SOL    HW1  281   2.576   2.335   2.522  0.4123  4.3007 -0.2415
   94SOL    HW2  282   2.664   2.315   2.388 -1.3797  2.4035 -0.2321
   95SOL     OW  283   1.867   0.467   1.109  0.1937  0.3283 -0.0974
   95SOL    HW1  284   1.803   0.407   1.051 -1.7542 -1.9413 -0.7473
   95SOL    HW2  285   1.955   0.419   1.122  1.1535 -2.5236 -1.7919
   96SOL     OW  286   2.901   2.815   1.676 -0.8719  0.0904  0.6148
   96SOL    HW1  287   2.860   2.727   1.654 -0.0599  1.8883 -1.3793
   96SOL    HW2  288   2.852   2.894   1.639 -0.3864  0.7266  0.2240
   97SOL     OW  289   2.353   0.203   1.394  0.0459 -0.3041  0.3435
   97SOL    HW1  290   2.322   0.123   1.337 -0.2274  0.4372 -0.4628
   97SOL    HW2  291   2.289   0.277   1.399  2.4969  0.4253  0.9634
   98SOL     OW  292   1.426   2.375   1.412  0.2923 -0.2230 -0.0483
   98SOL    HW1  293   1.501   2.311   1.441  3.7054 -0.7746  2.0221
   98SOL    HW2  294   1.396   2.442   1.490 -2.4181  0.9027  2.0612
   99SOL     OW  295   3.029   2.997   1.872  0.1832 -0.1733  0.6344
   99SOL    HW1  296   3.042   3.089   1.828  0.5981  2.1861 -0.7471
   99SOL    HW2  297   3.005   2.932   1.797 -1.2842 -0.7896 -0.6488
  100SOL     OW  298   0.088   0.983   2.480 -0.5517  0.0397 -0.2178
  100SOL    HW1  299   0.069   0.978   2.383 -0.4885  0.4888  2.7418
  100SOL    HW2  300   0.181   1.031   2.488  1.1857  0.2342  1.1781
  101SOL     OW  301   1.921   0.596   3.020  0.3333 -0.3229  0.1679
  101SOL    HW1  302   1.903   0.498   3.025  0.4476  3.5002 -1.7902
  101SOL    HW2  303   1.916   0.636   0.024  0.7850  2.6295 -2.0755
  102SOL     OW  304   0.176   0.523   1.326 -0.1360 -0.4903 -0.0741
  102SOL    HW1  305   0.212   0.440   1.286  2.0307  2.1348 -0.1726
  102SOL    HW2  306   0.166   0.602   1.259  0.2023  1.2383 -0.4837
  103SOL     OW  307   2.612   0.823   1.971  0.3839 -0.1959  0.4136
  103SOL    HW1  308   2.686   0.772   2.018  0.1533 -0.4171  1.1127
  103SOL    HW2  309   2.593   0.908   2.023 -3.1605  1.4117  1.4450
  104SOL     OW  310   0.278   0.255   2.606  0.2470 -0.0638  0.6552
  104SOL    HW1  311   0.291   0.241   2.506  0.5241  2.7697  2.7257
  104SOL    HW2  312   0.364   0.214   2.649 -0.0547 -0.1919 -0.3517
  105SOL     OW  313   2.044   1.239   1.651 -0.6879  0.2618  0.3106
  105SOL    HW1  314   1.949   1.203   1.661 -3.6305 -0.7510  0.6895
  105SOL    HW2  315   2.046   1.332   1.687 -0.8293 -0.0186 -1.1261
  106SOL     OW  316   0.954   3.086   0.473  0.1022  0.3091  0.1369
  106SOL    HW1  317   0.941   0.083   0.517  0.5802 -0.1663  2.3291
  106SOL    HW2  318   0.882   3.023   0.507  0.7044 -1.8979  3.2485
  107SOL     OW  319   0.392   1.568   1.441  0.5817 -0.3571 -0.2641
  107SOL    HW1  320   0.485   1.564   1.475  1.2233 -0.0016  1.5835
  107SOL    HW2  321   0.377   1.646   1.382  3.6555  3.1009  1.6884
  108SOL     OW  322   0.067   2.862   2.216  0.0974 -0.2324 -0.4131
  108SOL    HW1  323   0.104   2.859   2.317  1.1458  0.0053  0.9153
  108SOL    HW2  324   3.085   2.931   2.204 -1.4489  3.1288 -1.4562
  109SOL     OW  325   1.805   0.336   0.043 -0.3480 -0.1095 -0.0818
  109SOL    HW1  326   1.730   0.382   0.096  1.5562 -0.0320  1.7605
  109SOL    HW2  327   1.772   0.252   3.087 -1.2949 -1.8536  0.2549
  110SOL     OW  328   0.345   2.335   2.503 -0.3535 -0.0872 -0.6043
  110SOL    HW1  329   0.385   2.386   2.424 -1.2991  0.0743  0.8026
  110SOL    HW2  330   0.424   2.309   2.568 -0.9763  0.0779  0.2617
  111SOL     OW  331   1.453   2.650   2.051  0.4090  1.0794  0.2639
  111SOL    HW1  332   1.418   2.701   2.131  0.4912 -1.7383 -1.2359
  111SOL    HW2  333   1.390   2.644   1.971 -1.4763 -4.0845 -3.7734
  112SOL     OW  334   1.951   2.252   2.628 -0.4181 -0.2289 -0.4379
  112SOL    HW1  335   2.028   2.309   2.660 -0.1701  0.9528  1.6256
  112SOL    HW2  336   1.989   2.181   2.572  0.3206  0.2872  0.2883
  113SOL     OW  337   2.246   2.667   1.768 -0.1699  0.0654  0.1927
  113SOL    HW1  338   2.239   2.566   1.795  0.3853 -1.5122  2.9341
  113SOL    HW2  339   2.315   2.673   1.693 -2.7413 -1.1407 -2.2517
  114SOL     OW  340   3.044   0.842   0.763  0.3401 -0.2931  0.1342
  114SOL    HW1  341   0.051   0.823   0.747 -1.4137 -1.2624 -1.1037
  114SOL    HW2  342   3.002   0.882   0.680  0.4888  1.0220  1.2557
  115SOL     OW  343   0.350   1.568   2.941  0.3753  0.1255 -0.0892
  115SOL    HW1  344   0.384   1.654   2.900  1.6088  3.0481 -1.1254
  115SOL    HW2  345   0.376   1.486   2.888  1.0561  1.1996  1.5805
  116SOL     OW  346   0.255   1.334   2.099  0.4456 -0.3323  0.2935
  116SOL    HW1  347   0.299   1.394   2.028 -0.2530 -0.7853  1.8407
  116SOL    HW2  348   0.181   1.389   2.145 -1.5062 -0.9390 -0.7781
  117SOL     OW  349   2.504   0.153   0.641 -0.3888  0.1791 -0.6082
  117SOL    HW1  350   2.574   0.186   0.709 -1.0778 -0.0275 -0.1233
  117SOL    HW2  351   2.533   0.168   0.550 -3.7139  1.0273  2.8611
  118SOL     OW  352   1.301   1.844   1.851  0.0386 -0.2096  0.1249
  118SOL    HW1  353   1.311   1.745   1.857  0.7273  3.4953  0.0674
  118SOL    HW2  354   1.230   1.882   1.912  2.6393  2.7633 -0.8789
  119SOL     OW  355   1.059   2.282   0.228  0.7179  0.4199 -0.3208
  119SOL    HW1  356   1.007   2.288   0.316  0.9271  0.6128  2.0694
  119SOL    HW2  357   1.132   2.217   0.221 -0.4540 -1.6837 -3.0457
  120SOL     OW  358   0.283   1.166   2.487 -0.3655 -0.2138 -0.6589
  120SOL    HW1  359   0.264   1.248   2.432 -0.6085 -1.0759 -0.3713
  120SOL    HW2  360   0.386   1.155   2.482  3.4565 -0.2965 -1.2348
  121SOL     OW  361   2.066   2.852   1.031  0.4047 -0.3710 -0.4866
  121SOL    HW1  362   2.023   2.926   0.969 -2.8372  3.0492 -2.8543
  121SOL    HW2  363   2.166   2.853   1.027 -3.0128 -3.1755 -0.5538
  122SOL     OW  364   2.381   2.171   1.959  0.0913  0.1798 -0.3431
  122SOL    HW1  365   2.314   2.123   2.023 -0.6518 -0.2206 -0.8594
  122SOL    HW2  366   2.342   2.260   1.922 -1.0186  0.3105 -2.6211
  123SOL     OW  367   2.910   0.102   0.570 -0.3926 -0.4188  0.0390
  123SOL    HW1  368   2.905   0.200   0.531 -0.6532  2.4229 -0.8273
  123SOL    HW2  369   2.977   0.051   0.513  0.8910 -1.3293  1.6476
  124SOL     OW  370   1.788   0.709   2.285  0.4720 -0.1202 -0.0774
  124SOL    HW1  371   1.705   0.768   2.263 -1.7047  1.9545 -2.2194
  124SOL    HW2  372   1.819   0.672   2.195  0.1708  0.3916 -0.2365
  125SOL     OW  373   0.454   1.437   0.518  0.3488  0.2278  0.4882
  125SOL    HW1  374   0.532   1.416   0.456  0.3388  0.5253  2.7585
  125SOL    HW2  375   0.475   1.506   0.590 -1.0775  4.5423  2.2855
  126SOL     OW  376   2.412   1.628   0.547  0.0518 -0.6735  0.3601
  126SOL    HW1  377   2.414   1.561   0.474 -1.7316  1.9168  2.5394
  126SOL    HW2  378   2.340   1.607   0.608  2.0347 -0.7294 -1.0666
  127SOL     OW  379   0.126   1.925   1.671  0.0423  0.1731  0.2108
  127SOL    HW1  380   0.125   1.936   1.570 -2.2964 -2.8240  0.7414
  127SOL    HW2  381   0.061   1.988   1.713  0.8553 -3.9045  0.3226
  128SOL     OW  382   0.784   0.685   2.519  0.0448  0.3111 -0.1748
  128SOL    HW1  383   0.810   0.766   2.462  1.0517 -0.3285  1.2245
  128SOL    HW2  384   0.856   0.613   2.505  1.6788 -2.3969 -1.5198
  129SOL     OW  385   2.560   0.948   1.063  0.6883  0.4341  0.1426
  129SOL    HW1  386   2.500   0.874   1.028 -0.0137 -2.0487 -1.9708
  129SOL    HW2  387   2.597   0.923   1.148 -1.2039  1.0013 -1.4630
  130SOL     OW  388   2.456   1.350   1.380 -0.3289  0.3189 -0.7943
  130SOL    HW1  389   2.524   1.275   1.386 -0.7557  0.8436 -1.2853
  130SOL    HW2  390   2.460   1.413   1.463 -2.3326  2.0785  2.0328
  131SOL     OW  391   2.708   0.779   0.024  0.3464  0.0669  0.1049
  131SOL    HW1  392   2.778   0.848   3.090 -3.3099 -0.0089 -0.1172
  131SOL    HW2  393   2.718   0.695   3.060  2.8436 -1.3856  0.2283
  132SOL     OW  394   2.651   2.189   1.936 -0.1891 -0.6575 -0.6882
  132SOL    HW1  395   2.554   2.175   1.976  2.4472 -0.9092  3.0469
  132SOL    HW2  396   2.710   2.112   1.959 -0.2309 -1.1617 -2.3761
  133SOL     OW  397   0.643   1.093   0.961 -0.1810  0.0169 -0.3466
  133SOL    HW1  398   0.593   1.172   0.915 -1.3440 -0.5864  1.9164
  133SOL    HW2  399   0.684   1.116   1.055  2.6196 -1.8659  2.7748
  134SOL     OW  400   0.305   1.247   0.078  0.6128  0.2882  0.1015
  134SOL    HW1  401   0.206   1.276   0.074 -0.7005  0.1816 -0.1153
  134SOL    HW2  402   0.357   1.292   0.007  0.1893  2.5910  0.7312
  135SOL     OW  403   2.059   1.579   1.272  0.4740  0.1492  0.2573
  135SOL    HW1  404   2.109   1.493   1.255 -0.1588  0.8426  0.5672
  135SOL    HW2  405   1.961   1.557   1.243 -1.2209  0.4967 -0.5385
  136SOL     OW  406   2.313   1.118   0.639 -0.1843 -0.1206 -0.1219
  136SOL    HW1  407   2.376   1.073   0.573  0.2489 -1.8639 -0.4453
  136SOL    HW2  408   2.215   1.103   0.617 -0.0010  0.5307  2.2471
  137SOL     OW  409   2.667   1.746   0.932 -0.0120  0.4511  0.2665
  137SOL    HW1  410   2.649   1.828   0.996 -0.0030 -1.8641  1.3332
  137SOL    HW2  411   2.704   1.670   0.993  0.2847 -0.8289 -0.8281
  138SOL     OW  412   1.900   0.558   1.357  0.3997  0.0466 -0.2474
  138SOL    HW1  413   1.862   0.532   1.267  1.6534 -0.6265 -0.2189
  138SOL    HW2  414   1.880   0.492   1.433 -1.7318 -1.9888 -3.7011
  139SOL     OW  415   2.225   0.005   2.837  0.0288  0.4697 -0.3580
  139SOL    HW1  416   2.194   0.044   2.927 -0.3719 -1.7427  1.1712
  139SOL    HW2  417   2.209   2.994   2.834 -1.6665  1.7011  3.3183
  140SOL     OW  418   1.657   1.826   2.114  1.0689 -0.3331 -0.6580
  140SOL    HW1  419   1.655   1.874   2.025  0.9025  1.6451  1.6809
  140SOL    HW2  420   1.707   1.735   2.101 -1.7081  0.1094 -1.8945
  141SOL     OW  421   1.837   1.889   1.069  0.1186 -0.4345  0.0593
  141SOL    HW1  422   1.898   1.938   1.137  1.7225 -0.0095  1.1897
  141SOL    HW2  423   1.773   1.827   1.122  0.5461 -0.1732  1.8488
  142SOL     OW  424   0.046   0.687   0.115  0.4670  0.1397  1.5049
  142SOL    HW1  425   3.082   0.596   0.119 -1.5322 -3.1465  0.6318
  142SOL    HW2  426   0.066   0.724   0.209  0.6493 -0.2018  1.0961
  143SOL     OW  427   0.448   2.221   2.966 -0.1296 -0.3994  0.0153
  143SOL    HW1  428   0.445   2.131   3.014  1.2830 -2.0343 -0.6044
  143SOL    HW2  429   0.498   2.211   2.880  0.2157  1.3801 -0.2587
  144SOL     OW  430   0.985   2.888   1.906  0.3398 -0.4520  1.0655
  144SOL    HW1  431   0.969   2.874   1.805 -1.1155  0.5544 -5.2425
  144SOL    HW2  432   1.011   2.796   1.952  1.9940  1.8536  0.1364
  145SOL     OW  433   2.148   1.393   0.409 -0.1363 -0.3089  0.1029
  145SOL    HW1  434   2.085   1.454   0.347 -3.3168  1.4992 -2.6303
  145SOL    HW2  435   2.246   1.421   0.392 -0.6518  1.9352 -1.3855
  146SOL     OW  436   2.523   0.010   2.865 -0.4875 -0.4834  0.0657
  146SOL    HW1  437   2.436   0.027   2.815 -1.4831 -1.8103 -0.0406
  146SOL    HW2  438   2.588   3.038   2.822  1.0166  3.0342  2.9915
  147SOL     OW  439   2.815   2.546   1.147  0.1649 -0.1349 -0.5257
  147SOL    HW1  440   2.766   2.552   1.061 -2.7604 -0.0123  1.1708
  147SOL    HW2  441   2.791   2.626   1.206  1.5579  0.2522  1.7885
  148SOL     OW  442   1.554   2.828   2.621  0.1949 -0.1657 -0.5176
  148SOL    HW1  443   1.492   2.747   2.640 -1.9939 -0.0729  0.1963
  148SOL    HW2  444   1.503   2.916   2.639 -1.2880 -2.3707 -2.7950
  149SOL     OW  445   1.175   0.405   2.536 -0.4499 -0.0289  0.4615
  149SOL    HW1  446   1.259   0.375   2.487  1.3943  1.2343 -1.3716
  149SOL    HW2  447   1.091   0.350   2.517 -1.7370 -1.4111  2.8226
  150SOL     OW  448   0.742   2.941   0.588  0.8093 -0.2643  0.4196
  150SOL    HW1  449   0.693   2.894   0.509  1.8817  0.8948 -2.5207
  150SOL    HW2  450   0.680   2.956   0.668 -2.8306 -2.9215 -2.7310
  151SOL     OW  451   2.999   1.756   0.131  0.1328 -0.3652 -0.0297
  151SOL    HW1  452   2.934   1.722   0.058 -1.7102 -1.8874 -1.8671
  151SOL    HW2  453   3.083   1.791   0.084  0.0972  0.2048 -0.5015
  152SOL     OW  454   0.316   1.040   0.839 -1.0379  0.1187  0.2244
  152SOL    HW1  455   0.313   1.110   0.764 -0.6041  2.1057  0.5452
  152SOL    HW2  456   0.279   0.950   0.814  3.5129  0.5484 -1.6138
  153SOL     OW  457   2.097   2.921   0.377  0.0335 -0.0856  0.5169
  153SOL    HW1  458   2.072   3.016   0.341  2.0839  3.6934 -1.0620
  153SOL    HW2  459   2.133   2.868   0.299  0.3482  3.1758 -0.4790
  154SOL     OW  460   0.808   0.419   1.504 -0.0816  0.5975  0.4076
  154SOL    HW1  461   0.907   0.397   1.522 -0.2001 -0.8570 -0.8873
  154SOL    HW2  462   0.768   0.465   1.582  0.8928 -0.3189 -1.7706
  155SOL     OW  463   2.940   1.889   1.028  0.6829 -0.5155 -0.0540
  155SOL    HW1  464   2.941   1.797   1.059  1.4297  2.6416 -1.4495
  155SOL    HW2  465   2.884   1.901   0.943 -1.2430  1.8310  1.0977
  156SOL     OW  466   2.094   2.269   0.148  0.0259  0.2904  0.3201
  156SOL    HW1  467   2.175   2.212   0.172 -0.2638  0.9462  0.4883
  156SOL    HW2  468   2.058   2.237   0.059  0.7485  0.6503 -0.5520
  157SOL     OW  469   0.866   2.858   0.818  0.0112  0.3584 -0.4251
  157SOL    HW1  470   0.851   2.757   0.839 -1.4640  2.3385  2.0705
  157SOL    HW2  471   0.868   2.877   0.721 -1.1346  0.2708  2.5302
  158SOL     OW  472   2.427   0.652   2.420  0.3007 -0.4398 -0.1259
  158SOL    HW1  473   2.331   0.682   2.413  2.2934 -3.6648  1.2174
  158SOL    HW2  474   2.483   0.732   2.416 -3.0833 -2.1111  1.0445
  159SOL     OW  475   0.620   0.446   0.001  0.0394  0.9027 -0.0122
  159SOL    HW1  476   0.625   0.544   0.022  0.7722  0.7932 -2.7206
  159SOL    HW2  477   0.525   0.418   3.059 -3.8806 -3.5423 -0.1157
  160SOL     OW  478   0.796   2.061   3.073 -0.8216 -0.1146  0.2488
  160SOL    HW1  479   0.752   2.110   0.055  2.2971 -0.2823 -2.4024
  160SOL    HW2  480   0.855   2.131   3.026 -0.0461 -1.2424 -3.1080
  161SOL     OW  481   0.006   1.989   2.896 -0.4886 -0.4871  0.0098
  161SOL    HW1  482   0.033   2.013   2.800  0.6550 -1.1652 -1.0623
  161SOL    HW2  483   3.061   2.067   2.948 -0.0701  0.1647 -0.2852
  162SOL     OW  484   0.307   2.851   1.230  0.1546  0.0975 -0.0144
  162SOL    HW1  485   0.250   2.771   1.206 -2.2374 -2.8486  0.1451
  162SOL    HW2  486   0.267   2.942   1.221  1.2635 -3.5365  1.9235
  163SOL     OW  487   2.155   0.414   2.797 -0.0814 -0.1033 -0.5535
  163SOL    HW1  488   2.080   0.454   2.850  0.4809 -0.4246  1.5082
  163SOL    HW2  489   2.248   0.429   2.834  0.3600 -0.5844  2.8718
  164SOL     OW  490   2.903   2.023   0.771 -0.0732 -0.4181 -0.5499
  164SOL    HW1  491   3.002   2.033   0.787  1.6285 -1.1347  1.0125
  164SOL    HW2  492   2.855   2.103   0.813 -0.1335 -0.2010  0.6368
  165SOL     OW  493   2.724   3.039   1.609  0.3619  0.5593 -0.3216
  165SOL    HW1  494   2.753   0.008   1.684 -1.2610  0.7856  0.3051
  165SOL    HW2  495   2.625   3.062   1.593  1.1153 -1.1904 -0.4645
  166SOL     OW  496   2.251   0.403   0.660 -0.1689 -0.4644  0.1206
  166SOL    HW1  497   2.238   0.501   0.681 -0.7587 -0.1837 -0.1048
  166SOL    HW2  498   2.236   0.342   0.741 -0.9791 -2.5300 -1.5479
  167SOL     OW  499   0.521   0.380   0.919 -0.2749  0.0753 -0.4155
  167SOL    HW1  500   0.617   0.381   0.955  0.7279 -3.3444  2.3161
  167SOL    HW2  501   0.518   0.411   0.823 -1.0982  0.1219  2.0801
  168SOL     OW  502   2.057   2.820   1.878 -0.3961 -0.2232  0.4056
  168SOL    HW1  503   2.053   2.783   1.974 -2.1448 -2.2032  3.8318
  168SOL    HW2  504   2.136   2.774   1.832  2.9950 -1.4888 -1.5369
  169SOL     OW  505   0.262   1.272   0.572  0.3179 -0.1575  0.0805
  169SOL    HW1  506   0.343   1.331   0.559 -1.6987 -1.1669  3.3956
  169SOL    HW2  507   0.176   1.330   0.571 -3.7898  0.3680  0.0669
  170SOL     OW  508   2.657   0.854   1.306 -1.1538 -0.3127  0.4848
  170SOL    HW1  509   2.654   0.764   1.354 -2.6362  2.2212 -0.7323
  170SOL    HW2  510   2.570   0.904   1.317 -0.2473 -3.4943  0.1945
  171SOL     OW  511   1.198   2.488   1.592  0.1772  0.4801 -0.4068
  171SOL    HW1  512   1.220   2.405   1.646 -0.6517 -0.2376  1.0505
  171SOL    HW2  513   1.107   2.470   1.550 -0.2457 -3.3197  2.7789
  172SOL     OW  514   0.205   2.488   1.345 -0.0360 -0.1920  0.0416
  172SOL    HW1  515   0.309   2.481   1.362 -0.7119 -2.4261  0.8628
  172SOL    HW2  516   0.163   2.571   1.389  1.8729 -0.7531 -0.0756
  173SOL     OW  517   1.422   0.088   2.922  0.3226  0.1217 -0.2573
  173SOL    HW1  518   1.412   0.046   2.832 -1.4207  1.7262  0.3239
  173SOL    HW2  519   1.427   0.189   2.909  0.2685 -2.8379  1.7051
  174SOL     OW  520   1.204   2.774   2.837  0.0163 -0.0659  0.0325
  174SOL    HW1  521   1.130   2.704   2.853 -1.9903  1.1466 -0.9118
  174SOL    HW2  522   1.219   2.824   2.926  1.3459  1.1987 -1.7301
  175SOL     OW  523   1.578   2.598   3.023 -0.4408 -0.0036  0.0788
  175SOL    HW1  524   1.600   2.690   2.990 -0.0520 -2.5846 -0.4230
  175SOL    HW2  525   1.549   2.598   0.028 -1.2503  0.8860 -1.7886
  176SOL     OW  526   1.658   0.172   2.637  0.1803 -0.0179 -0.0539
  176SOL    HW1  527   1.726   0.101   2.676  2.0456  0.6725  0.1509
  176SOL    HW2  528   1.568   0.128   2.632  0.6065 -0.8590  0.2468
  177SOL     OW  529   1.013   1.532   0.786  0.0050  0.3011 -0.0180
  177SOL    HW1  530   1.101   1.551   0.836  0.4477 -0.8062 -0.6006
  177SOL    HW2  531   0.990   1.622   0.745 -0.9879  2.4225  2.3618
  178SOL     OW  532   2.860   1.641   2.242  0.1599 -0.2902  0.2557
  178SOL    HW1  533   2.846   1.544   2.227 -0.6255 -0.6142 -0.7082
  178SOL    HW2  534   2.931   1.663   2.312  1.9168 -0.1145  1.7158
  179SOL     OW  535   0.371   2.623   2.723 -0.2347 -0.7124 -0.2251
  179SOL    HW1  536   0.309   2.600   2.644  1.6696  0.7275 -0.1857
  179SOL    HW2  537   0.425   2.705   2.699 -1.4046 -1.3721 -0.0320
  180SOL     OW  538   1.937   1.838   1.755  0.2164 -0.4905  0.1608
  180SOL    HW1  539   1.958   1.841   1.854  0.1463  0.3413  1.7048
  180SOL    HW2  540   1.843   1.878   1.739 -0.2438 -1.0265 -1.5148
  181SOL     OW  541   1.143   1.167   2.265 -0.1773 -0.8553  0.1340
  181SOL    HW1  542   1.199   1.163   2.351 -1.3738  1.9123 -0.5794
  181SOL    HW2  543   1.127   1.263   2.242  3.0028 -1.4194 -0.6317
  182SOL     OW  544   0.052   0.316   2.718 -0.5148  0.5503 -0.6156
  182SOL    HW1  545   3.066   0.282   2.660 -0.6301  2.5587 -1.2446
  182SOL    HW2  546   0.142   0.316   2.670 -3.6887 -0.1839  4.1619
  183SOL     OW  547   1.158   0.448   2.788  0.1737 -0.3332 -0.4297
  183SOL    HW1  548   1.169   0.444   2.686 -1.6277 -1.0730  1.0864
  183SOL    HW2  549   1.253   0.437   2.830  0.1365  0.0539  0.6266
  184SOL     OW  550   1.145   1.191   1.326  0.5199 -0.4365  0.1864
  184SOL    HW1  551   1.089   1.107   1.348 -0.6747 -1.5093  0.9207
  184SOL    HW2  552   1.101   1.241   1.249  1.9085  0.1789 -0.3946
  185SOL     OW  553   2.833   1.215   1.193 -0.5186 -0.1278  0.2080
  185SOL    HW1  554   2.904   1.279   1.234  1.3607  2.1775  0.8382
  185SOL    HW2  555   2.766   1.184   1.262 -0.8657  1.4891  1.2513
  186SOL     OW  556   0.721   1.645   2.599 -0.3808  0.3956 -0.4104
  186SOL    HW1  557   0.727   1.557   2.545 -0.3335 -1.0383 -1.6535
  186SOL    HW2  558   0.707   1.725   2.542 -0.7644 -2.0831  0.0492
  187SOL     OW  559   2.743   1.444   0.112  0.2953 -0.0191 -0.0275
  187SOL    HW1  560   2.664   1.384   0.119 -1.4501 -0.3001  2.6010
  187SOL    HW2  561   2.778   1.459   0.208 -0.0171 -0.0280  0.4589
  188SOL     OW  562   0.099   2.101   0.644  0.3749 -0.7050  0.5039
  188SOL    HW1  563   0.180   2.139   0.689 -1.5688 -0.1552  1.3656
  188SOL    HW2  564   0.095   1.999   0.639 -0.2551 -1.4824  2.1082
  189SOL     OW  565   2.438   0.770   0.097  0.1120 -0.3764  0.3128
  189SOL    HW1  566   2.539   0.770   0.090 -1.5131 -0.3741  1.5713
  189SOL    HW2  567   2.415   0.725   0.186  0.7031  0.1356  3.1693
  190SOL     OW  568   1.172   1.438   2.212  0.0706  0.0492  0.1802
  190SOL    HW1  569   1.268   1.459   2.235 -3.9228  0.5484  0.6401
  190SOL    HW2  570   1.150   1.489   2.128 -0.4980  1.3863 -1.3090
  191SOL     OW  571   2.206   0.230   1.862 -0.5568 -1.1118 -0.4639
  191SOL    HW1  572   2.306   0.251   1.834 -1.6587 -1.8301 -1.0124
  191SOL    HW2  573   2.187   0.133   1.841  2.3091  1.5643  0.6873
  192SOL     OW  574   1.906   0.350   1.572  0.0291  0.3220 -0.4139
  192SOL    HW1  575   1.956   0.351   1.661 -1.1107  1.4751  1.2357
  192SOL    HW2  576   1.824   0.295   1.593  0.4678  5.7212 -0.9254
  193SOL     OW  577   0.588   0.640   0.627  0.0235 -0.1370  0.0118
  193SOL    HW1  578   0.636   0.661   0.715  0.2295  0.0296 -0.9857
  193SOL    HW2  579   0.654   0.661   0.555 -2.4075  2.2004 -1.8559
  194SOL     OW  580   1.137   2.926   1.133  0.1292  0.3145 -0.2476
  194SOL    HW1  581   1.188   2.838   1.153 -2.4390 -0.7343 -0.4664
  194SOL    HW2  582   1.176   3.002   1.190  1.0639 -1.4619 -0.8907
  195SOL     OW  583   2.460   0.961   0.485 -0.3329 -0.5503 -0.0279
  195SOL    HW1  584   2.424   0.875   0.523 -0.7631 -0.1006  3.4647
  195SOL    HW2  585   2.519   0.946   0.398  2.5066  2.2217 -1.8464
  196SOL     OW  586   1.459   1.589   1.679 -0.7824 -0.4647  0.4156
  196SOL    HW1  587   1.548   1.583   1.725  0.0880 -2.2996 -0.3596
  196SOL    HW2  588   1.390   1.564   1.753 -0.7284 -2.3736 -0.7650
  197SOL     OW  589   0.004   3.027   0.461 -0.2913 -0.4045 -0.2819
  197SOL    HW1  590   3.047   2.942   0.438 -0.9243  1.6071  0.1609
  197SOL    HW2  591   0.084   3.005   0.526 -1.7326 -2.0330  3.9784
  198SOL     OW  592   1.045   1.296   0.625 -0.0331 -0.0645  0.1834
  198SOL    HW1  593   1.055   1.382   0.672 -0.9435 -0.3527 -0.2819
  198SOL    HW2  594   0.949   1.259   0.641 -2.5229 -1.3143  2.2953
  199SOL     OW  595   3.042   0.489   1.954 -0.0717 -0.4818  0.3558
  199SOL    HW1  596   3.017   0.589   1.967  1.8106  0.9300 -0.0048
  199SOL    HW2  597   0.010   0.476   1.878 -4.4941  0.3265 -0.1821
  200SOL     OW  598   2.366   2.059   2.776  0.2876 -0.0190  0.2655
  200SOL    HW1  599   2.300   1.996   2.725 -0.3659 -0.4487 -2.8051
  200SOL    HW2  600   2.342   2.041   2.876 -0.0143 -1.8970  3.4970
  201SOL     OW  601   2.453   2.986   0.689 -0.4159  0.2648 -0.7361
  201SOL    HW1  602   2.475   3.087   0.678 -3.0349  1.2958  0.9597
  201SOL    HW2  603   2.470   2.942   0.599  0.8142  0.2541 -0.5749
  202SOL     OW  604   2.768   0.657   0.254 -0.0893 -0.0526  0.0808
  202SOL    HW1  605   2.759   0.704   0.164 -1.2004 -1.5505  0.5990
  202SOL    HW2  606   2.855   0.600   0.252  0.9246 -0.2757 -2.3509
  203SOL     OW  607   1.442   1.468   2.200  0.3345  0.0184 -0.2522
  203SOL    HW1  608   1.426   1.416   2.112 -1.3404  1.9309  0.1692
  203SOL    HW2  609   1.474   1.399   2.266  1.0531  1.0575 -1.6139
  204SOL     OW  610   0.742   1.568   2.113  0.1531 -0.0385  0.0348
  204SOL    HW1  611   0.796   1.551   2.195 -0.2407  1.5375  0.2549
  204SOL    HW2  612   0.666   1.634   2.130 -1.3598 -1.0454  0.3301
  205SOL     OW  613   1.371   2.021   1.671 -0.0504 -0.5838  0.4888
  205SOL    HW1  614   1.368   1.949   1.746 -0.5591 -1.0386  3.0071
  205SOL    HW2  615   1.459   2.015   1.618 -1.1286 -0.0217  0.6738
  206SOL     OW  616   0.076   0.581   2.799  0.0015  0.3156  0.0088
  206SOL    HW1  617   0.042   0.484   2.783 -1.3222  3.1034 -0.3760
  206SOL    HW2  618   0.055   0.638   2.717 -1.1018 -2.7758  0.2527
  207SOL     OW  619   1.849   2.848   2.188  0.2113  0.2599 -0.6522
  207SOL    HW1  620   1.774   2.802   2.137  2.2935  1.6253 -1.0583
  207SOL    HW2  621   1.905   2.901   2.125  0.1052 -0.2351  1.0873
  208SOL     OW  622   0.360   2.293   1.777 -0.2817 -0.4533 -0.1355
  208SOL    HW1  623   0.354   2.236   1.690 -0.7382 -0.9170  1.1166
  208SOL    HW2  624   0.379   2.387   1.742  2.3216 -1.7662 -2.1589
  209SOL     OW  625   1.777   0.890   2.754 -0.0584 -0.0136  0.3760
  209SOL    HW1  626   1.721   0.935   2.683 -0.0437 -0.1877 -1.2649
  209SOL    HW2  627   1.738   0.794   2.762  0.5400  1.6998  1.7857
  210SOL     OW  628   2.511   0.653   0.560 -0.3728  0.0129 -0.0416
  210SOL    HW1  629   2.591   0.708   0.598  0.8942  0.4624  2.0660
  210SOL    HW2  630   2.447   0.619   0.633 -1.4064 -0.9336  0.1167
  211SOL     OW  631   0.710   0.676   0.874  0.0714  0.0684  0.6081
  211SOL    HW1  632   0.781   0.749   0.879  0.1907 -0.3693 -0.8262
  211SOL    HW2  633   0.748   0.583   0.898 -0.4049 -1.0679 -1.2121
  212SOL     OW  634   1.181   1.545   0.422  0.3948  0.1811 -0.1870
  212SOL    HW1  635   1.149   1.450   0.419 -0.2186 -0.4507 -0.4850
  212SOL    HW2  636   1.240   1.563   0.339 -1.2968  0.9021  0.3170
  213SOL     OW  637   1.325   2.955   1.721  0.1664  0.1347  0.3394
  213SOL    HW1  638   1.273   3.034   1.687  0.6395 -1.2349  2.5534
  213SOL    HW2  639   1.362   2.978   1.813 -0.6522 -0.3598 -3.2258
  214SOL     OW  640   1.508   1.271   2.385 -0.0313 -0.0631 -0.2280
  214SOL    HW1  641   1.414   1.233   2.407  0.5785  1.8952  3.4993
  214SOL    HW2  642   1.536   1.333   2.464 -1.3392  0.6736 -0.8718
  215SOL     OW  643   0.495   1.695   1.081  0.1209 -0.2813 -0.6712
  215SOL    HW1  644   0.489   1.596   1.077  2.1829 -0.5056  0.2148
  215SOL    HW2  645   0.471   1.736   0.996 -1.3595  1.4105 -0.0644
  216SOL     OW  646   0.468   2.900   2.393 -0.0895 -0.6632 -0.1217
  216SOL    HW1  647   0.526   2.944   2.321 -0.5236  0.6841 -2.7426
  216SOL    HW2  648   0.510   2.939   2.480 -1.3260 -0.0297  0.3799
  217SOL     OW  649   2.431   0.728   2.931  0.1383  0.1656 -0.3846
  217SOL    HW1  650   2.407   0.632   2.911 -1.2455 -0.4712 -0.5454
  217SOL    HW2  651   2.438   0.752   3.032  0.6899 -0.7182  3.0051
  218SOL     OW  652   1.956   1.703   2.130 -0.3517 -0.0292 -0.0487
  218SOL    HW1  653   2.022   1.668   2.203  1.5673 -1.0487  0.3516
  218SOL    HW2  654   1.991   1.790   2.090 -1.4847  0.7369 -3.1523
  219SOL     OW  655   1.569   1.053   0.371  1.3347  0.3019  0.0899
  219SOL    HW1  656   1.520   1.143   0.351  0.9777  0.8811 -3.5763
  219SOL    HW2  657   1.631   1.033   0.292 -1.8956 -0.9285 -0.3314
  220SOL     OW  658   1.516   1.735   1.117 -0.2947  0.5273  0.2725
  220SOL    HW1  659   1.503   1.831   1.086 -1.5757 -0.1968 -1.0628
  220SOL    HW2  660   1.536   1.667   1.043 -0.9766  0.4507  2.1563
  221SOL     OW  661   0.329   0.476   2.909  0.3639 -0.4619 -0.3911
  221SOL    HW1  662   0.403   0.451   2.843 -2.0879  0.6642  1.3872
  221SOL    HW2  663   0.264   0.539   2.860  1.9579 -0.0959 -2.0895
  222SOL     OW  664   1.308   2.290   1.738 -0.6501  0.1844 -0.1443
  222SOL    HW1  665   1.327   2.200   1.693 -0.5894  0.7986 -0.9358
  222SOL    HW2  666   1.387   2.358   1.725  0.4852  3.6727  1.3607
  223SOL     OW  667   1.384   2.645   2.703 -0.3801  0.4418 -0.7602
  223SOL    HW1  668   1.415   2.568   2.767  0.7053 -0.9470  2.5015
  223SOL    HW2  669   1.319   2.712   2.752 -1.7820  0.1878  0.3812
  224SOL     OW  670   2.635   1.280   1.037 -0.1589 -0.2724  0.0818
  224SOL    HW1  671   2.727   1.255   1.080  1.5534 -1.3524 -1.8836
  224SOL    HW2  672   2.640   1.265   0.940 -1.8477 -1.5458  3.3188
  225SOL     OW  673   1.317   1.078   1.168 -0.1307  0.8390  0.4888
  225SOL    HW1  674   1.266   1.117   1.249  0.0094  0.3649 -0.6257
  225SOL    HW2  675   1.396   1.023   1.205 -0.9998  0.0980  2.5180
  226SOL     OW  676   1.475   2.423   2.848  0.2675 -0.1260  0.0570
  226SOL    HW1  677   1.507   2.499   2.910 -1.0297  1.2652 -0.5503
  226SOL    HW2  678   1.549   2.353   2.828 -1.2019  2.4155  2.8078
  227SOL     OW  679   1.007   2.188   1.012 -0.0632  0.1041 -0.2087
  227SOL    HW1  680   0.905   2.186   1.025  0.3525 -1.8689 -1.2409
  227SOL    HW2  681   1.058   2.235   1.090  1.8901 -0.4911 -1.3448
  228SOL     OW  682   0.362   2.077   1.169  0.3622  0.3699 -0.1828
  228SOL    HW1  683   0.288   2.123   1.225 -2.8754  2.2506 -1.8642
  228SOL    HW2  684   0.314   2.039   1.087 -1.3801 -0.8435 -0.9531
  229SOL     OW  685   2.132   0.792   2.949 -0.1338 -0.2883 -0.1715
  229SOL    HW1  686   2.232   0.763   2.952  3.0135  1.0311  0.0613
  229SOL    HW2  687   2.066   0.723   2.989  1.4547  0.4802 -2.3459
  230SOL     OW  688   0.874   1.033   1.931 -0.7276  0.7457 -0.5904
  230SOL    HW1  689   0.802   1.080   1.983  0.1620 -1.3949 -0.9460
  230SOL    HW2  690   0.948   1.000   1.997  0.3352 -0.6779  0.2743
  231SOL     OW  691   1.456   2.050   2.000 -0.4984 -0.6019 -0.3230
  231SOL    HW1  692   1.439   1.963   1.953 -0.3748  2.4206  0.0349
  231SOL    HW2  693   1.389   2.067   2.076 -0.2147 -0.4989  1.8341
  232SOL     OW  694   2.013   2.213   1.416 -0.0601 -0.1081  0.2112
  232SOL    HW1  695   2.018   2.194   1.514 -1.5714 -0.1088 -0.3617
  232SOL    HW2  696   1.975   2.306   1.400  0.5102  0.3066 -0.2178
  233SOL     OW  697   1.806   2.465   2.487  0.3487 -0.0100 -0.3952
  233SOL    HW1  698   1.865   2.403   2.541 -0.2080 -1.2520 -1.7980
  233SOL    HW2  699   1.857   2.548   2.458  2.8290  0.5305 -0.8448
  234SOL     OW  700   1.134   3.083   2.627  0.1232  0.6547  0.3202
  234SOL    HW1  701   1.052   3.017   2.607  0.9370 -2.0527  0.6477
  234SOL    HW2  702   1.133   0.027   2.723  0.8744  0.1350 -0.7044
  235SOL     OW  703   2.393   2.856   3.086  0.2514 -0.0416  0.1339
  235SOL    HW1  704   2.443   2.905   3.012  0.5217  0.5519 -1.3255
  235SOL    HW2  705   2.393   2.906   0.085 -0.6319  1.8174  1.5215
  236SOL     OW  706   2.180   2.575   2.515  0.0415 -0.2041 -0.7599
  236SOL    HW1  707   2.233   2.545   2.436 -1.3965  0.1030  1.1276
  236SOL    HW2  708   2.215   2.670   2.542 -3.2366  2.0210 -1.0539
  237SOL     OW  709   1.525   1.084   1.630  0.5174  0.2531  0.1062
  237SOL    HW1  710   1.517   0.983   1.619  0.4994 -0.4648  2.1780
  237SOL    HW2  711   1.454   1.135   1.578  1.6326  1.5694 -1.3103
  238SOL     OW  712   2.000   0.031   2.112 -0.3999  0.1787 -0.5647
  238SOL    HW1  713   2.088   0.066   2.076  2.2277  0.2089 -1.3624
  238SOL    HW2  714   2.003   0.030   2.212  2.1419 -2.2046 -1.4639
  239SOL     OW  715   0.471   1.639   2.150 -0.1966 -0.1212  0.3151
  239SOL    HW1  716   0.419   1.582   2.086 -0.5587 -1.5636  0.7099
  239SOL    HW2  717   0.418   1.730   2.167 -2.0958  2.6360 -0.2103
  240SOL     OW  718   2.930   2.715   0.814  0.0074  0.2646  1.0640
  240SOL    HW1  719   3.026   2.685   0.790  1.6222 -0.4299 -0.8115
  240SOL    HW2  720   2.871   2.630   0.802 -1.1122 -1.2373  1.5631
  241SOL     OW  721   1.707   2.089   0.927  0.0237 -0.0392 -0.0966
  241SOL    HW1  722   1.768   2.022   0.972  2.3677  0.6123 -1.1718
  241SOL    HW2  723   1.759   2.124   0.843  1.8503  0.8776  1.5650
  242SOL     OW  724   1.363   1.823   0.011  0.2177 -0.0514  0.4402
  242SOL    HW1  725   1.442   1.770   3.060 -1.4202 -1.9220 -2.0603
  242SOL    HW2  726   1.352   1.915   3.059 -0.5996  1.1207  0.5848
  243SOL     OW  727   1.006   2.746   2.294  0.8741 -0.4932  0.2410
  243SOL    HW1  728   0.912   2.732   2.257 -2.2851 -0.3769 -0.1042
  243SOL    HW2  729   1.027   2.665   2.353 -0.8554  0.8525  0.8975
  244SOL     OW  730   1.853   3.076   2.719  0.3205  0.6911  0.4527
  244SOL    HW1  731   1.855   2.977   2.697 -0.0073  1.3445 -1.8698
  244SOL    HW2  732   1.929   0.031   2.661  4.6949  0.7506 -0.9557
  245SOL     OW  733   1.135   2.711   0.683 -0.1995  0.2516 -0.0753
  245SOL    HW1  734   1.199   2.701   0.606 -0.9343 -0.3462  0.9842
  245SOL    HW2  735   1.134   2.805   0.718  1.0896 -0.4220  0.6119
  246SOL     OW  736   0.951   0.047   2.912  0.3917  0.1380 -0.6033
  246SOL    HW1  737   0.872   3.080   2.932  2.5221  0.7700  0.4424
  246SOL    HW2  738   0.997   0.063   3.000 -1.6178 -0.1678 -0.0858
  247SOL     OW  739   0.307   0.808   2.163 -0.5118  0.2106  0.9162
  247SOL    HW1  740   0.333   0.813   2.064  0.5291  1.1479  0.1208
  247SOL    HW2  741   0.339   0.718   2.201 -2.9364 -0.8263  0.8297
  248SOL     OW  742   0.694   1.132   2.091  0.0509  0.6736  0.1234
  248SOL    HW1  743   0.729   1.088   2.178  2.9052 -2.8732 -0.0702
  248SOL    HW2  744   0.649   1.222   2.116 -1.3119  0.6844 -1.4855
  249SOL     OW  745   2.148   0.526   0.264  0.6462 -0.1796 -0.0493
  249SOL    HW1  746   2.140   0.434   0.216 -2.6730  0.7588 -0.0338
  249SOL    HW2  747   2.071   0.587   0.232 -1.7239  3.8915  2.4948
  250SOL     OW  748   0.627   0.187   0.498 -0.0605 -0.3095 -0.5719
  250SOL    HW1  749   0.569   0.100   0.499 -0.4327 -0.8919 -1.5887
  250SOL    HW2  750   0.620   0.240   0.413  2.8298 -1.3072 -2.4525
  251SOL     OW  751   1.414   3.074   2.649  0.2358  0.1790 -1.2836
  251SOL    HW1  752   1.313   3.062   2.650 -0.7840 -0.3165 -0.1713
  251SOL    HW2  753   1.444   0.012   2.558 -1.0380  1.8015  1.9633
  252SOL     OW  754   1.801   1.421   2.386 -0.3812  0.0357  0.3477
  252SOL    HW1  755   1.796   1.334   2.441  0.8225 -0.4517  2.6954
  252SOL    HW2  756   1.854   1.401   2.299  1.9800  2.1721  2.2903
  253SOL     OW  757   2.350   2.562   2.043 -0.5663  0.5159  0.0567
  253SOL    HW1  758   2.430   2.620   2.023 -1.8289 -2.3076 -0.4198
  253SOL    HW2  759   2.331   2.499   1.964 -0.3618 -2.4089 -0.9464
  254SOL     OW  760   0.950   2.126   1.622 -0.6731  0.4095 -0.1897
  254SOL    HW1  761   0.854   2.104   1.616  1.7478  0.5627  0.9884
  254SOL    HW2  762   0.991   2.091   1.706 -0.3127 -1.4423 -0.9551
  255SOL     OW  763   1.068   0.992   0.737  0.1472 -0.0737  0.3693
  255SOL    HW1  764   1.144   0.999   0.804 -1.8204  0.4194 -0.2671
  255SOL    HW2  765   1.017   1.077   0.714 -2.8589 -2.4051  2.1267
  256SOL     OW  766   1.779   2.023   2.293  0.3545  0.5266  0.0232
  256SOL    HW1  767   1.838   2.070   2.224 -1.9735  1.5876 -0.5536
  256SOL    HW2  768   1.728   1.950   2.246 -0.3608  0.2255  0.0220
  257SOL     OW  769   0.501   2.508   2.936 -0.6028 -0.0484  0.3689
  257SOL    HW1  770   0.458   2.531   2.847  1.3037 -1.6732 -0.9206
  257SOL    HW2  771   0.474   2.416   2.959 -0.5977  2.0380 -2.4078
  258SOL     OW  772   0.739   0.172   2.147  0.2317  0.4819  0.0448
  258SOL    HW1  773   0.817   0.172   2.215  1.1554 -0.2543  0.2282
  258SOL    HW2  774   0.772   0.122   2.060  1.1348  1.7949 -1.3704
  259SOL     OW  775   1.057   0.141   2.233  0.6190 -0.2760  0.2066
  259SOL    HW1  776   1.088   0.073   2.161 -1.0022 -0.7154 -2.3080
  259SOL    HW2  777   1.081   0.239   2.206  0.8761  1.1332  0.2133
  260SOL     OW  778   1.561   0.715   0.875 -0.6144  0.4979  0.6062
  260SOL    HW1  779   1.581   0.789   0.943  1.3667 -1.4276  1.4936
  260SOL    HW2  780   1.469   0.725   0.830 -0.1776  2.1860 -1.3897
  261SOL     OW  781   0.486   0.132   2.745 -0.1406  0.2242 -0.7371
  261SOL    HW1  782   0.422   0.099   2.815 -2.8196 -1.6310  1.0900
  261SOL    HW2  783   0.561   0.187   2.784 -2.5161  2.8154  1.9233
  262SOL     OW  784   2.527   2.868   2.260  0.1480 -0.1773  1.0014
  262SOL    HW1  785   2.566   2.863   2.351 -0.6125  2.0829 -0.4979
  262SOL    HW2  786   2.556   2.795   2.192  3.0150 -1.0508  1.9488
  263SOL     OW  787   0.373   1.983   2.478 -0.4037 -0.4516  0.4969
  263SOL    HW1  788   0.352   2.075   2.448 -0.4426 -1.7213  1.0112
  263SOL    HW2  789   0.295   1.941   2.535  1.0817 -1.7574  3.0092
  264SOL     OW  790   0.985   1.161   1.112  0.4520 -0.0924  0.2037
  264SOL    HW1  791   0.959   1.244   1.054 -1.2597  0.5724 -0.6019
  264SOL    HW2  792   1.047   1.097   1.058 -0.3831  1.2443 -2.3310
  265SOL     OW  793   0.383   2.017   0.041  0.2218  0.3333  0.2063
  265SOL    HW1  794   0.317   2.039   0.117 -0.3127 -0.9761 -0.7433
  265SOL    HW2  795   0.433   1.932   0.059  0.7926  1.6096  1.2231
  266SOL     OW  796   1.203   1.030   0.291 -0.0762 -0.4742 -0.3684
  266SOL    HW1  797   1.293   1.031   0.343  0.6986 -0.0125  0.5983
  266SOL    HW2  798   1.155   0.948   0.318 -0.6598  0.9066 -0.7590
  267SOL     OW  799   2.824   1.077   0.168 -0.0474  0.1609  0.0330
  267SOL    HW1  800   2.873   1.141   0.233  1.7246  0.6551  0.6020
  267SOL    HW2  801   2.887   1.021   0.107  0.1143 -1.8060 -3.8261
  268SOL     OW  802   2.315   0.335   2.594  0.7374 -0.1832 -0.8414
  268SOL    HW1  803   2.323   0.250   2.535 -1.2925 -1.1667  0.7613
  268SOL    HW2  804   2.242   0.333   2.669  1.6302  0.2368  1.5904
  269SOL     OW  805   1.579   0.507   2.427 -0.3451 -0.0829 -0.5190
  269SOL    HW1  806   1.625   0.461   2.344  0.5850  1.6940 -1.0820
  269SOL    HW2  807   1.510   0.573   2.397  0.6643  0.6053 -0.2212
  270SOL     OW  808   0.977   1.324   2.589  0.6302 -0.2794  0.6168
  270SOL    HW1  809   0.901   1.358   2.652  0.1533 -0.7532  1.6985
  270SOL    HW2  810   1.049   1.287   2.653 -2.3632 -1.8313  0.9934
  271SOL     OW  811   2.847   1.210   0.504  0.3508 -0.1160 -0.1167
  271SOL    HW1  812   2.907   1.231   0.432 -1.7750 -2.1841  1.1526
  271SOL    HW2  813   2.903   1.205   0.589  0.4751 -1.0432 -0.0155
  272SOL     OW  814   2.916   1.507   2.752 -0.6890 -0.1805  0.3178
  272SOL    HW1  815   2.861   1.474   2.673 -0.2454 -1.0965 -1.1181
  272SOL    HW2  816   2.958   1.602   2.742  2.8333  0.4476 -0.7186
  273SOL     OW  817   2.077   0.098   0.315 -0.1113  0.0911 -0.5079
  273SOL    HW1  818   2.153   0.146   0.367 -1.9356 -0.2926  1.2192
  273SOL    HW2  819   2.072   0.138   0.222 -0.6252 -0.2089 -0.0895
  274SOL     OW  820   0.354   2.363   1.030 -0.2084 -0.4866 -0.0705
  274SOL    HW1  821   0.436   2.417   1.056  2.8155  1.6230  1.5489
  274SOL    HW2  822   0.375   2.267   1.053  1.4028 -1.6096 -2.2559
  275SOL     OW  823   2.409   1.440   0.351 -0.5296 -0.4316  0.4004
  275SOL    HW1  824   2.400   1.487   0.265 -0.6228 -1.9614  0.2687
  275SOL    HW2  825   2.471   1.357   0.357 -1.6213 -1.8238  2.6199
  276SOL     OW  826   3.007   1.221   2.355  0.2479 -0.0146 -0.2410
  276SOL    HW1  827   3.087   1.160   2.359 -2.3852 -1.8279 -0.3498
  276SOL    HW2  828   2.920   1.168   2.358  1.3267  0.8098  0.6979
  277SOL     OW  829   1.909   2.808   1.266  0.0775  0.7372 -0.4336
  277SOL    HW1  830   1.958   2.768   1.353  2.7861  0.9933  2.3299
  277SOL    HW2  831   1.954   2.790   1.181 -2.9898 -1.2338 -0.5431
  278SOL     OW  832   1.185   3.051   2.058 -0.5068 -0.0285 -0.3817
  278SOL    HW1  833   1.119   3.010   1.995 -0.0892  1.8483  1.4220
  278SOL    HW2  834   1.281   3.049   2.013  1.5478 -0.2523 -1.6193
  279SOL     OW  835   1.762   1.695   0.525 -0.4331  0.8584 -0.1896
  279SOL    HW1  836   1.731   1.754   0.600  0.8554 -1.8394 -2.1069
  279SOL    HW2  837   1.861   1.677   0.537 -0.4924  1.9484  1.0777
  280SOL     OW  838   0.539   1.578   0.763 -0.2003  0.2786  0.3242
  280SOL    HW1  839   0.570   1.623   0.672  1.0672  2.8875 -1.4907
  280SOL    HW2  840   0.465   1.634   0.802  0.0934 -2.2647  0.3898
  281SOL     OW  841   2.794   0.427   2.548  0.1987 -0.4750  1.3188
  281SOL    HW1  842   2.697   0.444   2.545  0.2906 -2.8054 -1.1576
  281SOL    HW2  843   2.820   0.360   2.618 -0.5699  0.0689 -2.2065
  282SOL     OW  844   0.531   0.933   0.659 -0.1728  0.3605  0.0210
  282SOL    HW1  845   0.501   0.842   0.629  1.5639  0.1363  0.1412
  282SOL    HW2  846   0.486   0.957   0.749  0.9697 -0.9113  2.2782
  283SOL     OW  847   1.947   1.777   0.187 -0.2475  0.3502  0.3311
  283SOL    HW1  848   1.846   1.789   0.197  0.1787  0.8077  0.9921
  283SOL    HW2  849   1.989   1.829   0.109  2.3432 -1.7273 -1.2380
  284SOL     OW  850   1.476   0.806   0.285  0.3748  0.1978 -0.2274
  284SOL    HW1  851   1.396   0.814   0.217 -1.0266  2.2944 -1.9868
  284SOL    HW2  852   1.500   0.899   0.318  0.3519 -3.6813  2.7718
  285SOL     OW  853   2.139   0.728   2.460 -0.5697 -0.0488  0.0258
  285SOL    HW1  854   2.066   0.706   2.528  0.5458 -0.9187  0.4016
  285SOL    HW2  855   2.115   0.699   2.365  1.5719  1.6372  0.5903
  286SOL     OW  856   1.649   2.707   1.360  0.2069  0.0966  0.0620
  286SOL    HW1  857   1.674   2.668   1.448 -0.0787  0.2492 -1.1180
  286SOL    HW2  858   1.733   2.744   1.307  1.7360  1.8587  0.3600
  287SOL     OW  859   1.144   0.955   1.000  0.4452  0.9618 -0.2804
  287SOL    HW1  860   1.167   0.857   1.001 -2.7961 -1.4446 -1.2366
  287SOL    HW2  861   1.215   1.012   1.041 -0.6483  0.5141  2.7776
  288SOL     OW  862   0.867   2.777   3.013  0.3822 -0.2086  0.1916
  288SOL    HW1  863   0.802   2.857   3.011  0.4404  0.2178 -0.2174
  288SOL    HW2  864   0.930   2.782   0.003 -0.7756  0.0094  1.9258
  289SOL     OW  865   0.341   1.528   1.921 -0.5085  0.1509  0.1462
  289SOL    HW1  866   0.395   1.486   1.844 -0.7650  0.5308  1.5035
  289SOL    HW2  867   0.304   1.618   1.887 -0.1832 -0.9536 -1.3755
  290SOL     OW  868   1.736   2.275   1.185 -0.0068  0.3584  0.3706
  290SOL    HW1  869   1.726   2.237   1.095 -0.9689  2.8345  1.2397
  290SOL    HW2  870   1.800   2.354   1.194 -3.5963 -0.0647  0.1391
  291SOL     OW  871   2.008   2.236   2.985  0.4426  0.1374 -0.4133
  291SOL    HW1  872   1.993   2.336   2.977 -1.6376 -3.2533 -2.8826
  291SOL    HW2  873   2.102   2.222   2.951 -0.5225 -1.1017  4.2720
  292SOL     OW  874   0.944   0.811   1.784 -0.0702  0.4343  0.0637
  292SOL    HW1  875   0.909   0.894   1.835  1.5707 -2.9059  2.2936
  292SOL    HW2  876   1.011   0.834   1.715  0.8153  0.3278  0.7520
  293SOL     OW  877   1.871   2.676   0.945  0.4127  0.1045 -0.0615
  293SOL    HW1  878   1.798   2.735   0.913  1.7456  0.1664 -0.4856
  293SOL    HW2  879   1.952   2.731   0.956 -0.3362 -1.7164 -4.0961
  294SOL     OW  880   0.507   0.752   2.498  0.0553 -0.2008  0.1632
  294SOL    HW1  881   0.421   0.701   2.503  1.0499 -1.4355 -1.6924
  294SOL    HW2  882   0.582   0.687   2.512 -1.5615 -1.8855  0.0756
  295SOL     OW  883   1.496   1.578   0.888  0.2301  0.8890  0.1185
  295SOL    HW1  884   1.517   1.500   0.822  2.1413 -0.2143 -1.0690
  295SOL    HW2  885   1.394   1.597   0.881 -1.3726  1.7093 -0.4712
  296SOL     OW  886   2.298   2.139   0.247  0.2619  0.0701  0.0111
  296SOL    HW1  887   2.386   2.180   0.224 -2.3999  3.4022 -1.1662
  296SOL    HW2  888   2.292   2.041   0.223  1.0753 -1.0137 -1.2639
  297SOL     OW  889   2.138   0.048   3.080  0.1977  0.4739  0.1743
  297SOL    HW1  890   2.225   0.052   0.042  0.2408 -1.2358 -3.3881
  297SOL    HW2  891   2.093   3.057   0.022  1.0919 -0.0380  1.1611
  298SOL     OW  892   1.376   2.244   2.636  0.3482 -0.1819  0.1222
  298SOL    HW1  893   1.444   2.293   2.576  1.6930  1.8522 -1.0890
  298SOL    HW2  894   1.364   2.303   2.719 -2.4286  0.4001  1.8528
  299SOL     OW  895   1.345   2.518   2.474  0.2595 -0.0962 -0.8393
  299SOL    HW1  896   1.363   2.569   2.561  0.4711  0.6420 -0.2941
  299SOL    HW2  897   1.425   2.460   2.452 -1.8932  1.9672 -0.4579
  300SOL     OW  898   2.060   0.108   2.631  0.2918 -0.2185  0.3178
  300SOL    HW1  899   2.041   0.206   2.601  0.5309  3.2094  1.1781
  300SOL    HW2  900   2.130   0.093   2.703 -2.1520 -2.0086 -3.5105
  301SOL     OW  901   1.349   1.028   1.983 -0.1495  0.0205  0.5259
  301SOL    HW1  902   1.403   1.116   1.985 -1.5459  0.4864 -2.0569
  301SOL    HW2  903   1.415   0.957   1.998 -1.5269  3.1580 -2.6964
  302SOL     OW  904   2.726   2.277   0.026 -0.2079 -0.6148 -0.0569
  302SOL    HW1  905   2.781   2.332   0.095 -0.8050 -0.5298  0.9647
  302SOL    HW2  906   2.782   2.210   3.064 -1.7643  0.8700  1.8455
  303SOL     OW  907   2.817   2.302   2.267  0.0431 -0.4940  0.4738
  303SOL    HW1  908   2.859   2.288   2.357 -0.8431  1.5558 -2.9805
  303SOL    HW2  909   2.852   2.229   2.205  0.3581 -2.2036  0.8871
  304SOL     OW  910   2.789   0.614   1.800 -0.2490  0.1877  0.4116
  304SOL    HW1  911   2.755   0.703   1.760  0.0431  0.6920  1.4451
  304SOL    HW2  912   2.816   0.629   1.896  2.6918  0.1924 -1.8504
  305SOL     OW  913   0.614   2.066   1.896  0.3519 -0.1103  0.2146
  305SOL    HW1  914   0.642   2.086   1.800 -1.4782 -1.6742  0.4560
  305SOL    HW2  915   0.568   2.150   1.937 -1.3364  1.8239 -1.1475
  306SOL     OW  916   2.709   0.850   1.708  0.1174  0.2760 -0.1973
  306SOL    HW1  917   2.623   0.855   1.646 -0.9296 -0.2284  0.7265
  306SOL    HW2  918   2.673   0.850   1.802 -1.7964  0.7580 -0.2543
  307SOL     OW  919   1.566   0.842   1.917 -0.4274 -0.2788 -0.1619
  307SOL    HW1  920   1.607   0.757   1.950 -2.5764  2.2818 -0.0902
  307SOL    HW2  921   1.567   0.849   1.815 -0.7360  2.3928 -1.2027
  308SOL     OW  922   2.921   1.626   1.086  0.0711 -0.8051 -0.4243
  308SOL    HW1  923   2.989   1.573   1.027  1.0577  0.8706 -1.4110
  308SOL    HW2  924   2.837   1.579   1.117  1.2243 -0.8772 -1.1078
  309SOL     OW  925   2.681   1.528   1.127  0.0360 -0.3677  0.5473
  309SOL    HW1  926   2.596   1.567   1.170 -2.5309  1.1238 -0.4465
  309SOL    HW2  927   2.657   1.439   1.081 -0.6208  1.2742  0.2651
  310SOL     OW  928   2.772   1.874   2.541 -0.2398 -0.2288  0.3790
  310SOL    HW1  929   2.677   1.837   2.568 -3.3525 -2.1628  0.7109
  310SOL    HW2  930   2.785   1.958   2.598  0.5683  0.5909  0.0719
  311SOL     OW  931   0.027   2.634   0.275  0.3392 -0.7448  0.2671
  311SOL    HW1  932   3.072   2.714   0.321 -1.4924 -0.2574 -1.7594
  311SOL    HW2  933   3.081   2.543   0.302  2.2118 -0.0424 -2.4201
  312SOL     OW  934   2.045   1.491   0.832 -0.8228 -0.0603  0.8061
  312SOL    HW1  935   2.009   1.577   0.878  2.6907  1.6159  1.8558
  312SOL    HW2  936   2.146   1.502   0.828  1.0457  1.7065 -2.0059
  313SOL     OW  937   2.526   0.114   1.002 -0.1179  0.0166 -0.0926
  313SOL    HW1  938   2.432   0.147   0.972  0.3125  0.7477  0.2439
  313SOL    HW2  939   2.595   0.156   0.944 -2.9535 -1.0783  3.8594
  314SOL     OW  940   1.391   1.613   0.247 -0.5108  0.1388  0.3392
  314SOL    HW1  941   1.455   1.597   0.173  1.4126  0.3041  1.1530
  314SOL    HW2  942   1.346   1.705   0.235 -0.7314  0.9510  0.5323
  315SOL     OW  943   1.252   2.336   2.196  0.3203 -0.0330  0.3539
  315SOL    HW1  944   1.340   2.380   2.175  0.1399  1.1657 -0.2373
  315SOL    HW2  945   1.210   2.288   2.113 -1.3123 -3.1298  0.3746
  316SOL     OW  946   3.004   0.949   0.497 -0.3545 -0.5402  0.1316
  316SOL    HW1  947   2.921   0.999   0.461  0.9375 -1.1349  2.1817
  316SOL    HW2  948   3.083   1.010   0.510  0.2690 -0.0578  1.6646
  317SOL     OW  949   0.444   0.000   0.541 -0.4239  0.0797  0.7245
  317SOL    HW1  950   0.353   3.050   0.529  1.0148  1.5318  0.2283
  317SOL    HW2  951   0.491   3.058   0.623 -0.6776  0.5017  2.2860
  318SOL     OW  952   2.708   2.274   0.466 -0.2589  0.4344 -0.1832
  318SOL    HW1  953   2.646   2.248   0.540  3.3473  2.2628 -1.6114
  318SOL    HW2  954   2.806   2.240   0.484  0.3768  0.3451  1.8163
  319SOL     OW  955   0.795   1.349   2.817  0.1373 -0.0681 -0.1040
  319SOL    HW1  956   0.700   1.384   2.818  0.1060  1.6357 -0.6914
  319SOL    HW2  957   0.827   1.321   2.909 -2.1922 -1.9755 -0.2073
  320SOL     OW  958   0.775   2.484   1.734  0.2611  0.1473  0.0871
  320SOL    HW1  959   0.738   2.578   1.745  2.4753  0.9774  1.4962
  320SOL    HW2  960   0.870   2.472   1.773  1.8655  0.3495  0.6687
  321SOL     OW  961   1.570   2.208   3.082 -0.0702 -0.4797  0.0730
  321SOL    HW1  962   1.621   2.160   0.064 -0.7506 -1.0824 -0.5346
  321SOL    HW2  963   1.619   2.205   2.994  1.0668 -1.2714 -2.5888
  322SOL     OW  964   2.871   1.374   2.163 -0.4527  0.1105 -0.0375
  322SOL    HW1  965   2.927   1.311   2.222  0.0769  1.3551  2.2254
  322SOL    HW2  966   2.883   1.351   2.065  0.2435  0.3656  1.5829
  323SOL     OW  967   2.590   1.231   0.365 -0.1761  0.1939 -0.3381
  323SOL    HW1  968   2.588   1.131   0.356 -0.7288  1.2001  0.3831
  323SOL    HW2  969   2.672   1.262   0.417  1.2517 -0.3273  1.0034
  324SOL     OW  970   0.052   2.832   2.850  0.0190  0.4933 -0.2250
  324SOL    HW1  971   0.061   2.757   2.787  1.1285  1.1962 -0.1848
  324SOL    HW2  972   0.053   2.808   2.947  3.7071 -0.6372 -3.1138
  325SOL     OW  973   1.610   0.282   2.243 -0.5657  0.2651 -0.4784
  325SOL    HW1  974   1.679   0.286   2.166 -0.9215 -0.7665  2.5360
  325SOL    HW2  975   1.634   0.207   2.307  1.2784 -0.3812 -1.6625
  326SOL     OW  976   2.299   2.552   1.445  0.0483 -0.2164 -0.5043
  326SOL    HW1  977   2.320   2.502   1.532  0.7800 -0.6662 -1.2071
  326SOL    HW2  978   2.341   2.512   1.363 -2.7076 -0.6608  2.3558
  327SOL     OW  979   1.632   0.095   0.004  0.6220 -0.4602  0.5921
  327SOL    HW1  980   1.710   0.038   3.065 -1.2939  1.1580  0.1264
  327SOL    HW2  981   1.549   0.054   3.053 -1.7367 -0.5878 -0.7101
  328SOL     OW  982   2.899   0.814   2.278  0.3530 -0.1579  0.0912
  328SOL    HW1  983   2.996   0.847   2.265 -0.9385  2.6099  1.5886
  328SOL    HW2  984   2.841   0.883   2.322  1.4789 -1.6027 -2.7371
  329SOL     OW  985   1.428   3.058   1.946 -0.3760 -0.0488  0.0939
  329SOL    HW1  986   1.411   0.066   1.919  1.3027  2.0620  1.9531
  329SOL    HW2  987   1.503   3.061   2.012 -1.4588  0.5814 -0.0202
  330SOL     OW  988   2.800   1.920   1.339 -0.1558  0.3356  0.0660
  330SOL    HW1  989   2.894   1.915   1.306 -1.3595 -1.4706 -1.5151
  330SOL    HW2  990   2.788   1.842   1.403  1.3078  0.8190 -0.7436
  331SOL     OW  991   0.452   1.667   2.462  0.1398  0.4713  0.2615
  331SOL    HW1  992   0.466   1.688   2.363  0.0335  2.0682 -1.1466
  331SOL    HW2  993   0.536   1.687   2.522  0.7472  2.5171  1.2126
  332SOL     OW  994   0.110   0.019   1.619 -0.3973 -0.2397 -0.0276
  332SOL    HW1  995   0.192   3.063   1.589  0.7426  2.0963 -0.1335
  332SOL    HW2  996   0.134   0.081   1.696 -0.4619 -2.2445 -0.2639
  333SOL     OW  997   2.564   2.727   1.594  0.4031  0.2980 -0.4533
  333SOL    HW1  998   2.645   2.671   1.567 -2.7448 -3.2131  2.1970
  333SOL    HW2  999   2.515   2.767   1.512  1.1803 -0.8585 -0.2126
  334SOL     OW 1000   1.021   2.010   0.824  0.0975 -0.3767 -0.3641
  334SOL    HW1 1001   1.025   2.071   0.910 -2.3724 -1.3304 -1.2065
  334SOL    HW2 1002   1.068   2.055   0.748 -0.8527  1.6348  4.4327
  335SOL     OW 1003   0.599   2.164   0.160  0.2173 -0.5712  0.5266
  335SOL    HW1 1004   0.527   2.116   0.108  0.5793  1.8251 -0.4403
  335SOL    HW2 1005   0.613   2.115   0.247  0.1950  0.1149  0.2178
  336SOL     OW 1006   0.333   0.268   1.934 -0.3977  0.2325 -0.5905
  336SOL    HW1 1007   0.236   0.256   1.905 -0.3240  0.1544 -0.8158
  336SOL    HW2 1008   0.398   0.247   1.857 -0.2412  1.7310 -1.9095
  337SOL     OW 1009   2.724   1.868   2.970  0.2964 -0.1715  0.0351
  337SOL    HW1 1010   2.671   1.897   3.049  0.4974 -1.9267  0.0200
  337SOL    HW2 1011   2.773   1.783   2.993  0.4934 -2.4258  2.5544
  338SOL     OW 1012   1.267   1.666   1.161  0.1720  0.3893 -0.1319
  338SOL    HW1 1013   1.369   1.687   1.157 -0.7049 -1.9093 -1.4473
  338SOL    HW2 1014   1.212   1.755   1.174 -1.3236  1.7210  1.0046
  339SOL     OW 1015   3.079   0.286   2.100 -0.1655 -0.1711 -0.1289
  339SOL    HW1 1016   3.042   0.365   2.042 -1.0714  2.1082 -1.2726
  339SOL    HW2 1017   0.059   0.317   2.169  2.8227  0.0634  0.7312
  340SOL     OW 1018   1.552   2.539   0.469 -0.0714 -0.0860 -0.4381
  340SOL    HW1 1019   1.520   2.459   0.421  0.1878  4.5816  3.3725
  340SOL    HW2 1020   1.562   2.513   0.568  0.5226 -0.7044 -1.3015
  341SOL     OW 1021   1.811   1.512   1.198  0.3096  0.0624  0.2089
  341SOL    HW1 1022   1.747   1.471   1.125  2.3158 -1.0122  0.9943
  341SOL    HW2 1023   1.768   1.524   1.291  0.4604 -0.6223 -0.2643
  342SOL     OW 1024   0.037   1.823   0.599  0.3176 -0.2787 -0.0421
  342SOL    HW1 1025   3.025   1.814   0.584 -1.5359 -1.4793 -0.6721
  342SOL    HW2 1026   0.093   1.776   0.526 -0.8630 -1.6378 -0.2338
  343SOL     OW 1027   1.476   2.541   1.193 -0.0513 -0.1407 -0.2897
  343SOL    HW1 1028   1.549   2.611   1.220  2.1123 -0.1096 -0.9289
  343SOL    HW2 1029   1.477   2.466   1.264 -0.0210  0.4876 -0.4399
  344SOL     OW 1030   2.207   3.048   0.812  0.3668  0.5300  0.0141
  344SOL    HW1 1031   2.131   3.009   0.753 -1.4069 -0.4553 -2.2434
  344SOL    HW2 1032   2.289   3.001   0.785 -0.2785  1.8021  0.1367
  345SOL     OW 1033   2.790   2.055   2.766 -0.4213 -0.1362 -0.7323
  345SOL    HW1 1034   2.770   1.975   2.831 -2.6286 -1.6218  1.4754
  345SOL    HW2 1035   2.871   2.108   2.796  1.0090  0.7935 -1.6210
  346SOL     OW 1036   0.399   1.801   0.843  0.0368 -0.1610 -0.2666
  346SOL    HW1 1037   0.296   1.812   0.861  0.4914 -0.3970  1.8463
  346SOL    HW2 1038   0.442   1.890   0.838  2.5097 -0.4293 -0.7040
  347SOL     OW 1039   1.958   2.463   1.351 -0.5335  0.0212 -0.4510
  347SOL    HW1 1040   2.023   2.532   1.390  2.9749 -1.0663  0.5852
  347SOL    HW2 1041   1.939   2.483   1.253 -0.2497  0.2737  0.2288
  348SOL     OW 1042   1.337   1.606   2.734  0.2364  0.1678  0.0238
  348SOL    HW1 1043   1.266   1.626   2.807 -2.5005  2.0695  3.4576
  348SOL    HW2 1044   1.319   1.660   2.646 -0.4331  0.4854 -3.0699
  349SOL     OW 1045   2.409   1.052   2.264  0.0151  0.2192  0.5355
  349SOL    HW1 1046   2.366   1.113   2.335 -2.1332  0.4179  0.8451
  349SOL    HW2 1047   2.334   1.023   2.202 -3.7892 -3.5679 -1.0750
  350SOL     OW 1048   3.001   2.417   1.451 -0.1682 -0.2944  0.4927
  350SOL    HW1 1049   3.078   2.481   1.480  1.1816 -0.2935 -1.3932
  350SOL    HW2 1050   3.017   2.389   1.351  3.1734  1.9051 -1.2879
  351SOL     OW 1051   0.555   0.461   2.741  0.6341  0.5207  0.0487
  351SOL    HW1 1052   0.539   0.453   2.639 -3.1675 -0.9540 -0.9373
  351SOL    HW2 1053   0.620   0.394   2.776  1.5852 -1.3063  1.2454
  352SOL     OW 1054   0.718   2.376   1.488 -0.4067  0.2519  0.3752
  352SOL    HW1 1055   0.755   2.400   1.582  1.2817 -0.6216 -1.0960
  352SOL    HW2 1056   0.623   2.412   1.478  0.7444 -1.3856  0.2402
  353SOL     OW 1057   0.967   1.495   2.382 -0.3716 -0.2358 -0.1004
  353SOL    HW1 1058   1.000   1.450   2.468  0.8452 -2.4807  0.8523
  353SOL    HW2 1059   1.031   1.476   2.306 -0.7542  0.2188 -0.8917
  354SOL     OW 1060   1.623   1.031   0.633  0.2378 -0.1599  0.7786
  354SOL    HW1 1061   1.536   1.006   0.687 -0.1207 -2.1655  1.4330
  354SOL    HW2 1062   1.621   1.015   0.533 -0.0789  0.4518  1.3291
  355SOL     OW 1063   2.991   0.551   0.519  0.0818 -0.4498  0.0085
  355SOL    HW1 1064   3.016   0.626   0.455  2.0345 -2.0278  1.7519
  355SOL    HW2 1065   3.076   0.524   0.571 -3.5196 -2.2733  2.1709
  356SOL     OW 1066   2.682   0.996   2.611 -0.5206 -0.0200  0.0370
  356SOL    HW1 1067   2.779   0.985   2.630 -0.4071  1.2362 -1.7760
  356SOL    HW2 1068   2.623   0.976   2.695 -1.4223 -2.3622 -0.0410
  357SOL     OW 1069   0.592   2.714   1.738  0.0537 -0.3469 -0.3351
  357SOL    HW1 1070   0.622   2.747   1.643  1.2689 -0.3290 -0.3465
  357SOL    HW2 1071   0.625   2.780   1.807  0.9933 -0.2094  0.6880
  358SOL     OW 1072   2.241   1.229   2.075 -0.1131 -0.0141 -0.3761
  358SOL    HW1 1073   2.184   1.314   2.081  0.0477 -1.7820  0.0364
  358SOL    HW2 1074   2.337   1.254   2.040  2.1054 -0.9998 -0.0722
  359SOL     OW 1075   2.282   2.322   2.992 -0.0002 -0.2187  0.0936
  359SOL    HW1 1076   2.263   2.381   2.914  0.2803 -0.7215  0.2451
  359SOL    HW2 1077   2.346   2.362   3.059  1.5217  0.3010 -0.6323
  360SOL     OW 1078   2.206   0.668   0.720  0.0956  0.3439  0.0424
  360SOL    HW1 1079   2.266   0.721   0.782 -1.1495 -2.7934  0.3738
  360SOL    HW2 1080   2.201   0.706   0.626  2.6587  0.7858  3.1775
  361SOL     OW 1081   1.903   3.030   0.868 -0.5618  0.0243  0.0360
  361SOL    HW1 1082   1.878   0.022   0.815 -0.7137 -2.5441 -1.3195
  361SOL    HW2 1083   1.834   2.959   0.848  0.9219  0.4933 -2.2804
  362SOL     OW 1084   1.330   1.165   0.578  0.1811  0.5997 -0.0888
  362SOL    HW1 1085   1.230   1.187   0.582 -1.2095 -1.7713 -0.3196
  362SOL    HW2 1086   1.356   1.092   0.645 -3.5412 -0.7042  1.7024
  363SOL     OW 1087   2.430   1.641   2.322  0.5665  0.1532  0.5590
  363SOL    HW1 1088   2.490   1.560   2.305 -0.0244  0.3123 -0.4081
  363SOL    HW2 1089   2.435   1.672   2.420  1.0837 -1.7859 -1.6180
  364SOL     OW 1090   1.212   0.560   1.503 -0.0589  0.0360  0.3570
  364SOL    HW1 1091   1.155   0.491   1.556 -2.2443  0.8091 -0.4113
  364SOL    HW2 1092   1.173   0.575   1.405  0.0370 -0.4360 -0.5930
  365SOL     OW 1093   0.171   0.204   1.028  0.2610 -0.0353  0.1743
  365SOL    HW1 1094   0.192   0.126   0.962 -0.7801 -1.7256 -1.3242
  365SOL    HW2 1095   0.081   0.250   1.009  0.7878  2.2288 -0.6798
  366SOL     OW 1096   2.823   1.484   0.366  0.7767  0.0414 -0.8901
  366SOL    HW1 1097   2.826   1.511   0.464 -0.0473  0.7769 -0.0288
  366SOL    HW2 1098   2.910   1.493   0.315  0.9457 -0.5353  0.8190
  367SOL     OW 1099   2.986   2.176   3.059 -0.4786  0.3162 -0.3410
  367SOL    HW1 1100   3.002   2.273   3.031  1.0155 -0.6381 -1.9195
  367SOL    HW2 1101   3.041   2.164   0.054 -0.9162  0.1375  2.9351
  368SOL     OW 1102   0.035   2.263   0.938  0.4290  0.5151  0.0609
  368SOL    HW1 1103   0.087   2.293   0.855  0.1610  1.8644  1.5712
  368SOL    HW2 1104   3.028   2.291   0.934 -0.2029 -3.6381  1.3135
  369SOL     OW 1105   0.328   0.231   0.428  0.0365  0.2049  0.1483
  369SOL    HW1 1106   0.275   0.261   0.512 -1.0324  0.5603  0.7080
  369SOL    HW2 1107   0.375   0.142   0.453  0.5866 -1.8588 -0.5590
  370SOL     OW 1108   0.434   1.137   1.390 -0.6915 -0.1846  0.0646
  370SOL    HW1 1109   0.455   1.119   1.488 -0.7874  0.5687  1.8744
  370SOL    HW2 1110   0.390   1.230   1.376 -1.3811  0.7861 -0.4720
  371SOL     OW 1111   2.064   2.314   0.872  0.1746 -0.2960 -0.1852
  371SOL    HW1 1112   2.097   2.224   0.909 -1.1237  0.2495 -0.5270
  371SOL    HW2 1113   2.045   2.315   0.769  2.8036  2.3989 -1.9099
  372SOL     OW 1114   2.953   0.962   2.641  0.1531 -0.2784 -0.0278
  372SOL    HW1 1115   2.954   0.860   2.643  0.4704  3.0782 -1.0634
  372SOL    HW2 1116   3.020   0.999   2.575 -1.2912 -0.3326 -1.8538
  373SOL     OW 1117   2.909   1.619   0.596 -0.0235  0.0780 -0.7866
  373SOL    HW1 1118   2.862   1.706   0.574  2.3439  1.1258  0.5286
  373SOL    HW2 1119   2.854   1.558   0.661  1.7086  0.4762 -1.0882
  374SOL     OW 1120   0.274   2.346   0.391 -0.4529 -0.1449 -0.5405
  374SOL    HW1 1121   0.341   2.422   0.361  0.2958  1.5427 -0.6115
  374SOL    HW2 1122   0.180   2.385   0.401 -1.3945  1.0694  0.6979
  375SOL     OW 1123   0.666   0.285   0.224  0.3926 -0.4617 -0.2414
  375SOL    HW1 1124   0.730   0.207   0.235 -1.0244  0.2230 -0.4453
  375SOL    HW2 1125   0.645   0.298   0.123 -1.6732 -1.9123 -0.4805
  376SOL     OW 1126   0.359   0.038   2.075 -0.0131  0.2587  0.4482
  376SOL    HW1 1127   0.352   0.133   2.052 -2.3663 -1.4720  1.1177
  376SOL    HW2 1128   0.281   3.076   2.038  0.0610 -0.3870 -1.4603
  377SOL     OW 1129   1.011   2.327   2.336  0.2685 -0.0772  0.8570
  377SOL    HW1 1130   1.089   2.290   2.283  0.7935  2.7094 -2.2152
  377SOL    HW2 1131   1.032   2.425   2.365  1.1177  0.1447  1.8094
  378SOL     OW 1132   1.122   0.838   0.513 -0.4654 -1.2071  0.2371
  378SOL    HW1 1133   1.095   0.907   0.578 -1.1894  0.3565 -0.0842
  378SOL    HW2 1134   1.069   0.753   0.531 -1.2982  2.4398  0.3237
  379SOL     OW 1135   1.143   1.645   2.924  0.2032 -0.3107 -0.2193
  379SOL    HW1 1136   1.152   1.546   2.948  0.8527 -1.8435 -0.1094
  379SOL    HW2 1137   1.153   1.716   2.998  1.0059  3.9950  0.3856
  380SOL     OW 1138   3.002   1.755   1.703 -0.2486  0.1025  0.1139
  380SOL    HW1 1139   2.946   1.764   1.786  1.4903 -0.7508 -0.6833
  380SOL    HW2 1140   3.090   1.804   1.724  0.9970 -3.1444 -1.2981
  381SOL     OW 1141   0.018   1.043   1.971 -0.0179  0.3666  0.4053
  381SOL    HW1 1142   0.120   1.057   1.984  0.7767 -1.0655 -0.4562
  381SOL    HW2 1143   0.008   0.976   1.891  0.5798  1.4336 -0.4679
  382SOL     OW 1144   2.530   2.447   3.069  0.1620 -0.5850  0.1212
  382SOL    HW1 1145   2.537   2.477   2.969 -1.0986  0.3012 -0.0389
  382SOL    HW2 1146   2.607   2.386   0.000  1.8089  2.7558  0.0309
  383SOL     OW 1147   2.275   2.002   2.168  0.0310  0.3268 -0.2719
  383SOL    HW1 1148   2.364   1.949   2.175  1.3269  3.8240 -1.0471
  383SOL    HW2 1149   2.250   2.053   2.255 -0.8492  1.3864 -1.7244
  384SOL     OW 1150   0.805   2.408   2.118  0.5104 -0.1725  0.1300
  384SOL    HW1 1151   0.881   2.394   2.186 -0.4930 -0.0738 -1.0802
  384SOL    HW2 1152   0.710   2.371   2.142 -1.4842 -3.2514 -2.3987
  385SOL     OW 1153   2.602   2.165   0.997 -0.0538  0.4711 -0.5656
  385SOL    HW1 1154   2.515   2.194   0.950 -0.6983  3.3103  0.6411
  385SOL    HW2 1155   2.595   2.066   1.034 -0.8077  0.4161  3.5513
  386SOL     OW 1156   1.726   0.638   2.821  0.1181 -0.3041 -0.3477
  386SOL    HW1 1157   1.696   0.549   2.784  1.3236  1.2560  0.7843
  386SOL    HW2 1158   1.792   0.622   2.891  0.3626 -1.4222 -2.1212
  387SOL     OW 1159   0.434   0.540   1.936  0.5277 -0.8062 -0.5904
  387SOL    HW1 1160   0.362   0.604   1.898 -1.7371 -0.6359 -0.2732
  387SOL    HW2 1161   0.403   0.444   1.945 -2.5020  0.6880  2.1193
  388SOL     OW 1162   2.802   1.075   1.595  0.1540  0.6173  0.3050
  388SOL    HW1 1163   2.789   0.989   1.651 -1.3061 -0.2095 -0.2323
  388SOL    HW2 1164   2.899   1.084   1.565  0.9025 -2.4370 -1.7916
  389SOL     OW 1165   1.580   0.864   2.188 -0.6462 -0.5304 -0.5971
  389SOL    HW1 1166   1.601   0.952   2.232 -0.8927  0.8413  0.3483
  389SOL    HW2 1167   1.589   0.883   2.088 -0.2762 -1.8837  0.9536
  390SOL     OW 1168   2.033   2.267   0.582  0.2671 -0.1536 -0.3149
  390SOL    HW1 1169   2.134   2.261   0.578  1.6474  0.4805  1.2890
  390SOL    HW2 1170   1.992   2.338   0.523 -0.8131  1.1769  1.7507
  391SOL     OW 1171   1.709   2.850   0.826  0.4784  0.2470 -0.3031
  391SOL    HW1 1172   1.734   2.819   0.730  0.6214 -0.6441  0.5297
  391SOL    HW2 1173   1.610   2.844   0.841  2.1875 -2.7782  0.2262
  392SOL     OW 1174   2.786   2.744   1.318 -0.3273  0.1984 -0.0783
  392SOL    HW1 1175   2.704   2.801   1.326 -0.8477 -0.0125  1.1585
  392SOL    HW2 1176   2.783   2.674   1.395 -0.5205  0.1328  0.5409
  393SOL     OW 1177   1.798   1.727   2.877  0.3149 -0.1217  0.8072
  393SOL    HW1 1178   1.847   1.816   2.857  0.0726  0.2873 -0.8522
  393SOL    HW2 1179   1.834   1.681   2.961  0.0742  0.9822 -1.7824
  394SOL     OW 1180   0.360   2.685   0.001  0.2505  0.1626  0.0955
  394SOL    HW1 1181   0.414   2.621   3.034  1.1864 -2.1196 -0.5348
  394SOL    HW2 1182   0.263   2.654   0.001 -3.3019  0.5947 -0.0110
  395SOL     OW 1183   1.314   1.267   0.994 -0.0859 -0.2181 -0.3830
  395SOL    HW1 1184   1.324   1.205   1.076 -1.4960  0.2105  1.0415
  395SOL    HW2 1185   1.367   1.227   0.916  3.7058  0.8820  0.6020
  396SOL     OW 1186   2.038   0.911   2.716 -0.2784  0.1134  0.3112
  396SOL    HW1 1187   1.940   0.919   2.726  2.1789  0.1381  0.9238
  396SOL    HW2 1188   2.074   0.865   2.796  0.3552  2.0066  1.5112
  397SOL     OW 1189   0.093   0.679   2.538 -0.3711 -0.0772  0.0293
  397SOL    HW1 1190   0.033   0.640   2.462  0.6902 -1.7933 -2.0476
  397SOL    HW2 1191   0.099   0.783   2.527 -1.6121 -0.6591 -0.0935
  398SOL     OW 1192   1.338   0.514   0.123  0.4256 -0.0614 -0.1108
  398SOL    HW1 1193   1.429   0.464   0.141  0.5134 -0.8174 -0.8234
  398SOL    HW2 1194   1.256   0.456   0.105  0.6757  1.1630 -0.2742
  399SOL     OW 1195   1.814   2.912   1.798  0.0972 -0.1822  0.5011
  399SOL    HW1 1196   1.900   2.858   1.829  0.9295 -0.7687 -0.3461
  399SOL    HW2 1197   1.740   2.860   1.756 -0.4185 -0.2500  0.7417
  400SOL     OW 1198   0.011   1.924   2.267 -0.2522 -0.0273  0.2507
  400SOL    HW1 1199   0.014   1.867   2.183 -2.4188  2.1352 -0.3877
  400SOL    HW2 1200   0.012   1.866   2.350 -0.8067  2.4746  2.7919
  401SOL     OW 1201   0.578   3.051   0.174  0.9750 -0.3534  0.4347
  401SOL    HW1 1202   0.656   3.073   0.238  0.8561  0.1000  2.3008
  401SOL    HW2 1203   0.512   0.041   0.162 -1.2616  1.1557  2.0968
  402SOL     OW 1204   0.455   2.424   1.486 -0.6974  0.4046 -0.0175
  402SOL    HW1 1205   0.397   2.339   1.486 -3.0859  1.3756  0.5252
  402SOL    HW2 1206   0.429   2.479   1.571 -1.0680 -1.9472 -0.8697
  403SOL     OW 1207   0.299   1.358   1.313  0.1307 -0.2630  0.3779
  403SOL    HW1 1208   0.207   1.368   1.271  0.9330 -0.0101  0.1081
  403SOL    HW2 1209   0.325   1.444   1.366 -0.6592  1.2975  1.2555
  404SOL     OW 1210   3.029   2.536   1.864  0.2807 -0.0651  0.2775
  404SOL    HW1 1211   2.962   2.523   1.790  0.3685  1.8865 -0.3316
  404SOL    HW2 1212   2.985   2.548   1.955 -0.4429 -1.4057 -0.7841
  405SOL     OW 1213   2.773   0.416   2.185 -0.2956  0.1987 -0.3419
  405SOL    HW1 1214   2.691   0.436   2.238 -0.3367 -0.6398 -0.5214
  405SOL    HW2 1215   2.824   0.336   2.223  0.9618 -3.2385 -1.0517
  406SOL     OW 1216   1.969   2.500   0.227  0.2391 -0.0905 -0.1675
  406SOL    HW1 1217   2.012   2.413   0.196  0.1436  0.2145  0.3641
  406SOL    HW2 1218   2.009   2.522   0.317 -0.1984  0.6560 -1.1028
  407SOL     OW 1219   2.007   1.766   0.904 -0.2584 -0.1972 -0.0094
  407SOL    HW1 1220   1.944   1.798   0.976  0.4935 -2.1414 -1.2151
  407SOL    HW2 1221   2.002   1.829   0.821 -1.6670  3.1638 -2.4764
  408SOL     OW 1222   0.611   0.448   2.220  0.1047  0.1106 -0.3503
  408SOL    HW1 1223   0.703   0.492   2.204  1.2989  1.0155  0.6169
  408SOL    HW2 1224   0.623   0.346   2.206  0.1481 -0.5591  1.9369
  409SOL     OW 1225   2.643   1.764   0.656 -0.3066  0.1988  0.0642
  409SOL    HW1 1226   2.643   1.777   0.759  0.1916 -3.0037  0.6084
  409SOL    HW2 1227   2.577   1.688   0.635  0.8291  0.9872 -0.5432
  410SOL     OW 1228   2.348   1.581   0.840  0.1290 -0.6208 -0.2137
  410SOL    HW1 1229   2.390   1.493   0.868 -1.8761  1.8217  0.2609
  410SOL    HW2 1230   2.328   1.634   0.927 -0.4992 -0.8284 -1.8377
  411SOL     OW 1231   0.053   0.749   0.365 -1.3888 -0.2749 -0.4038
  411SOL    HW1 1232   0.137   0.719   0.419  0.7134  0.8826 -1.4974
  411SOL    HW2 1233   3.090   0.829   0.406  0.4532 -0.5581 -0.0473
  412SOL     OW 1234   1.596   0.452   0.201  0.3115 -0.4330 -0.1970
  412SOL    HW1 1235   1.624   0.541   0.157 -0.8341  2.5562 -0.8223
  412SOL    HW2 1236   1.619   0.448   0.301 -0.5748 -0.8890  4.3793
  413SOL     OW 1237   0.912   0.842   1.187 -0.3119 -0.0045 -0.1136
  413SOL    HW1 1238   0.839   0.779   1.213 -0.8707 -1.1663 -1.4686
  413SOL    HW2 1239   0.907   0.864   1.089 -0.5186 -0.7774 -2.1228
  414SOL     OW 1240   3.084   1.318   2.842  0.7646  0.7723 -0.3202
  414SOL    HW1 1241   3.002   1.383   2.839 -0.5092  3.0591  0.1629
  414SOL    HW2 1242   0.064   1.345   2.774 -0.2032  0.6812  1.3945
  415SOL     OW 1243   0.095   1.577   3.054 -0.0903 -0.2410 -0.2195
  415SOL    HW1 1244   0.182   1.540   3.012 -1.8674 -2.3926 -2.4635
  415SOL    HW2 1245   0.061   1.509   0.032 -1.6983  1.3451 -2.7050
  416SOL     OW 1246   1.658   0.673   0.092  0.0496 -0.1146 -0.3485
  416SOL    HW1 1247   1.733   0.732   0.058 -2.6711 -0.5830  0.6711
  416SOL    HW2 1248   1.601   0.735   0.159  1.6255  2.6389  0.5836
  417SOL     OW 1249   0.196   0.722   1.144  0.6204 -0.6606  0.1127
  417SOL    HW1 1250   0.229   0.803   1.194 -2.4651 -1.2663 -1.2830
  417SOL    HW2 1251   0.247   0.687   1.070 -1.4074  2.2037  1.6737
  418SOL     OW 1252   2.291   1.027   2.681 -0.7424 -0.3760  0.0790
  418SOL    HW1 1253   2.209   0.962   2.683 -1.9715 -0.8904 -2.7054
  418SOL    HW2 1254   2.371   1.004   2.741 -0.1812  0.4480 -1.7909
  419SOL     OW 1255   0.429   0.554   0.305 -0.2711  0.0689  0.2458
  419SOL    HW1 1256   0.500   0.480   0.319  0.7301  1.9838  2.5508
  419SOL    HW2 1257   0.345   0.511   0.269 -1.1990 -3.6144  4.4368
  420SOL     OW 1258   0.605   1.363   0.906  0.4793 -0.8393 -0.0492
  420SOL    HW1 1259   0.571   1.381   1.004 -1.1791 -1.5591  1.1046
  420SOL    HW2 1260   0.582   1.451   0.851  0.2004  2.0254  0.0241
  421SOL     OW 1261   0.275   2.087   0.336 -0.1447  0.2326  0.4779
  421SOL    HW1 1262   0.274   2.186   0.362  0.2684 -0.5881 -0.4510
  421SOL    HW2 1263   0.324   2.037   0.412  0.2617  1.1912 -1.0217
  422SOL     OW 1264   2.602   0.587   1.448  0.2930 -0.1766  0.7610
  422SOL    HW1 1265   2.642   0.548   1.364  0.6769 -1.5685  2.1225
  422SOL    HW2 1266   2.598   0.521   1.526 -2.5537  0.5007  1.5755
  423SOL     OW 1267   2.005   1.242   0.951  0.0403 -0.2486  0.0114
  423SOL    HW1 1268   2.023   1.345   0.960 -0.9390  0.3848 -0.0580
  423SOL    HW2 1269   2.083   1.193   0.905  1.2594  0.0976  0.3128
  424SOL     OW 1270   1.723   0.983   0.145 -0.4501 -0.1772 -0.2474
  424SOL    HW1 1271   1.814   0.960   0.102  1.9130 -0.7484 -1.3964
  424SOL    HW2 1272   1.652   0.975   0.071 -1.0522 -1.5258 -1.1028
  425SOL     OW 1273   0.171   2.943   1.976 -0.1443  0.3168  0.9348
  425SOL    HW1 1274   0.156   2.897   2.060 -2.0455  1.4858 -4.4703
  425SOL    HW2 1275   0.082   2.975   1.937 -3.2839 -0.9325  0.8472
  426SOL     OW 1276   2.538   2.687   2.627 -0.0144  0.6667  0.4076
  426SOL    HW1 1277   2.449   2.740   2.615 -2.3653  2.3334 -0.4057
  426SOL    HW2 1278   2.572   2.654   2.535  0.3020  1.2863 -2.4948
  427SOL     OW 1279   0.769   0.835   2.191  0.6298 -0.0433  0.6934
  427SOL    HW1 1280   0.669   0.865   2.208 -4.0681  1.8223 -1.9247
  427SOL    HW2 1281   0.827   0.920   2.189 -0.8595 -0.7138 -0.2680
  428SOL     OW 1282   2.134   0.772   2.162 -0.3569  0.0301 -0.4473
  428SOL    HW1 1283   2.233   0.760   2.129  1.0317 -1.3535 -1.0417
  428SOL    HW2 1284   2.111   0.868   2.184  2.5136 -2.0340  1.5374
  429SOL     OW 1285   2.269   0.257   0.415  0.0947  0.2386 -0.3042
  429SOL    HW1 1286   2.370   0.229   0.410  2.1774 -0.3905 -0.8700
  429SOL    HW2 1287   2.248   0.281   0.511 -0.3379  2.3834 -2.5183
  430SOL     OW 1288   1.811   1.018   2.052 -0.2597 -0.5483 -0.1207
  430SOL    HW1 1289   1.882   1.016   2.126 -1.2113  0.7976  0.7990
  430SOL    HW2 1290   1.839   0.968   1.966 -2.3037 -0.6326 -1.7579
  431SOL     OW 1291   2.753   2.161   1.445  0.5453  0.6670  0.5448
  431SOL    HW1 1292   2.760   2.072   1.385 -2.3042  1.2492 -1.7663
  431SOL    HW2 1293   2.728   2.241   1.388 -2.3092 -0.1225  0.3677
  432SOL     OW 1294   1.246   2.645   1.806  0.4907 -0.2245  0.0703
  432SOL    HW1 1295   1.167   2.688   1.858  0.2122  2.0108  0.2535
  432SOL    HW2 1296   1.221   2.607   1.717  1.6771  0.6962  1.8039
  433SOL     OW 1297   1.546   0.017   1.282  0.0134  0.1367 -0.4888
  433SOL    HW1 1298   1.580   0.029   1.188  0.0699 -0.8763  2.4134
  433SOL    HW2 1299   1.509   3.013   1.306 -2.8597  2.7518 -0.6165
  434SOL     OW 1300   0.114   2.338   2.183  0.1741 -0.0003  0.1537
  434SOL    HW1 1301   0.127   2.340   2.080  2.1641  0.5821  1.5961
  434SOL    HW2 1302   0.198   2.380   2.226 -3.1892  1.5427 -1.2610
  435SOL     OW 1303   0.232   1.802   0.304  0.7861 -0.4001 -0.4191
  435SOL    HW1 1304   0.311   1.861   0.314  1.7110  1.6013 -0.3302
  435SOL    HW2 1305   0.172   1.827   0.227  2.8191  1.7146 -0.0039
  436SOL     OW 1306   0.492   1.073   1.694 -0.1749  0.1761 -0.0070
  436SOL    HW1 1307   0.565   1.141   1.674  3.5308 -0.8624  0.9650
  436SOL    HW2 1308   0.490   1.053   1.797 -0.9669 -1.8521  2.2922
  437SOL     OW 1309   1.061   0.617   2.981 -0.7188 -0.0800 -0.1835
  437SOL    HW1 1310   1.060   0.713   2.949 -1.2320  0.5185 -0.3100
  437SOL    HW2 1311   1.057   0.545   2.912  3.0498 -1.7364  2.3977
  438SOL     OW 1312   0.488   1.927   1.511 -0.1688 -0.1943  0.2555
  438SOL    HW1 1313   0.577   1.895   1.473 -2.2802  0.9857  0.4219
  438SOL    HW2 1314   0.461   1.864   1.585 -1.0954  2.0624 -1.1921
  439SOL     OW 1315   1.907   1.513   3.037  0.0127  0.0361 -0.2404
  439SOL    HW1 1316   1.846   1.469   2.974 -0.3829 -0.0184 -1.5825
  439SOL    HW2 1317   1.912   1.455   0.029  0.5053  1.3113 -0.8926
  440SOL     OW 1318   1.341   0.692   0.505  0.0994 -0.3141  0.3384
  440SOL    HW1 1319   1.408   0.717   0.431 -0.4347  1.6041  0.6978
  440SOL    HW2 1320   1.268   0.765   0.517  0.0564  0.3875  0.6278
  441SOL     OW 1321   0.386   2.544   1.716  0.0367 -0.4194 -0.0712
  441SOL    HW1 1322   0.467   2.605   1.741  0.4469 -2.1025 -1.6476
  441SOL    HW2 1323   0.296   2.587   1.737 -0.6401  0.1422 -0.2230
  442SOL     OW 1324   2.278   2.503   0.899  0.0683 -0.4961 -0.1107
  442SOL    HW1 1325   2.187   2.460   0.908  0.2808  1.8416  0.3395
  442SOL    HW2 1326   2.270   2.590   0.845 -0.6405  1.9543  2.6858
  443SOL     OW 1327   2.594   1.240   2.496  0.1130  0.2448 -0.0765
  443SOL    HW1 1328   2.496   1.242   2.485 -0.5989 -0.5439  1.0769
  443SOL    HW2 1329   2.618   1.158   2.552  2.8990 -0.3398  2.0484
  444SOL     OW 1330   1.428   0.723   2.343 -0.3907 -0.0726  0.0808
  444SOL    HW1 1331   1.501   0.773   2.292  0.2354 -2.4359  0.0035
  444SOL    HW2 1332   1.350   0.713   2.278  0.8135 -1.3969  3.9625
  445SOL     OW 1333   2.430   2.393   1.622 -0.0021 -0.0768 -0.6831
  445SOL    HW1 1334   2.427   2.295   1.584  1.4747 -0.7619  1.4006
  445SOL    HW2 1335   2.529   2.416   1.654  6.1483  0.8293  0.9012
  446SOL     OW 1336   3.077   1.518   0.253  0.0672  0.1074 -0.3856
  446SOL    HW1 1337   3.049   1.609   0.211 -2.4481  3.2182  2.0578
  446SOL    HW2 1338   0.078   1.528   0.302  1.2738  1.0365 -0.6668
  447SOL     OW 1339   0.971   2.480   1.128 -0.4215 -0.3673  0.5985
  447SOL    HW1 1340   0.873   2.501   1.127  0.7416 -0.2068  4.6418
  447SOL    HW2 1341   1.024   2.533   1.055 -0.3183  0.8928 -1.0612
  448SOL     OW 1342   1.677   1.570   1.828 -0.3946  0.3259 -0.5886
  448SOL    HW1 1343   1.688   1.582   1.929 -0.9696 -0.0620  2.2722
  448SOL    HW2 1344   1.718   1.485   1.790  0.1153  0.0181 -0.7791
  449SOL     OW 1345   0.752   2.048   2.703  0.0779 -0.2269  0.2649
  449SOL    HW1 1346   0.720   1.999   2.786  2.8633 -0.1561 -0.7022
  449SOL    HW2 1347   0.845   2.090   2.719  1.0252  1.5866 -0.8514
  450SOL     OW 1348   3.012   1.754   2.467  0.1071  0.5387 -0.3457
  450SOL    HW1 1349   3.010   1.656   2.496  0.0629  0.0273 -0.3736
  450SOL    HW2 1350   2.934   1.811   2.510  1.1320  0.0466  0.2647
  451SOL     OW 1351   2.080   0.764   1.502  0.5164 -0.0387 -0.3512
  451SOL    HW1 1352   2.167   0.734   1.470 -2.1547  0.1062  1.0589
  451SOL    HW2 1353   2.027   0.683   1.539 -1.1366  0.1063  1.1448
  452SOL     OW 1354   0.979   2.428   1.386 -0.0945 -0.3116  0.0399
  452SOL    HW1 1355   0.902   2.374   1.419 -0.6866 -0.7461  1.2109
  452SOL    HW2 1356   0.965   2.449   1.290 -0.6862  1.6770  2.9797
  453SOL     OW 1357   1.276   1.909   0.814  0.2855 -0.1257  0.1869
  453SOL    HW1 1358   1.343   1.930   0.890  0.4756  1.8263  0.0173
  453SOL    HW2 1359   1.179   1.937   0.835 -3.6857 -1.4773 -3.5527
  454SOL     OW 1360   3.009   1.210   0.718  0.2405  0.3400 -0.0619
  454SOL    HW1 1361   2.981   1.183   0.812 -1.2093  1.5504  1.1529
  454SOL    HW2 1362   0.010   1.251   0.741 -0.3361  0.6978  3.6844
  455SOL     OW 1363   0.707   0.984   0.463 -0.1656  0.1608 -0.2836
  455SOL    HW1 1364   0.664   1.026   0.379 -0.9864 -0.3602 -2.3001
  455SOL    HW2 1365   0.635   0.969   0.533 -1.0762  1.0860 -1.9531
  456SOL     OW 1366   1.914   2.448   1.079 -0.1583  0.3154  0.1537
  456SOL    HW1 1367   1.978   2.410   1.004  0.2758 -3.0851 -1.8441
  456SOL    HW2 1368   1.879   2.540   1.047 -2.4341 -1.3073 -0.5649
  457SOL     OW 1369   1.389   2.420   0.068  0.8164 -0.2869  0.2658
  457SOL    HW1 1370   1.356   2.480   3.079 -3.3277  0.3449  0.1879
  457SOL    HW2 1371   1.454   2.344   0.037  2.3450 -0.3280 -0.5076
  458SOL     OW 1372   2.726   0.181   2.942  0.1357 -0.0880  0.0080
  458SOL    HW1 1373   2.652   0.120   2.902  1.7354  0.2402  1.7535
  458SOL    HW2 1374   2.761   0.140   3.026  1.2665  0.6499 -1.0543
  459SOL     OW 1375   2.165   3.063   1.753 -0.3263  0.1058  0.0802
  459SOL    HW1 1376   2.166   3.041   1.653  0.0093  2.2290 -0.7678
  459SOL    HW2 1377   2.138   2.980   1.806 -1.0601  0.8631 -2.8088
  460SOL     OW 1378   3.084   0.428   3.021 -0.5866 -0.2199 -0.0751
  460SOL    HW1 1379   0.041   0.487   2.955  1.5878 -0.9488  2.1597
  460SOL    HW2 1380   0.026   0.332   3.011  0.6159 -0.7543 -0.4794
  461SOL     OW 1381   0.184   2.024   0.984 -0.1718  0.0002 -0.5738
  461SOL    HW1 1382   0.145   1.942   0.939  0.0959  0.4038  1.6261
  461SOL    HW2 1383   0.123   2.102   0.975  2.7956 -0.4057 -0.7455
  462SOL     OW 1384   2.941   0.090   0.834  1.2212 -0.1845  0.0559
  462SOL    HW1 1385   2.944   0.099   0.733 -1.0703  1.1778  2.1271
  462SOL    HW2 1386   2.981   0.169   0.881 -0.2477 -2.4706 -1.5162
  463SOL     OW 1387   2.379   1.567   0.091  0.0440 -0.6850  0.1827
  463SOL    HW1 1388   2.284   1.578   0.057  0.0954  1.9453 -1.2546
  463SOL    HW2 1389   2.427   1.504   0.026 -2.2135 -1.6944 -1.1743
  464SOL     OW 1390   0.682   0.040   1.182  0.1638 -0.2193  0.5105
  464SOL    HW1 1391   0.600   3.069   1.199 -3.0378 -1.2192  0.7467
  464SOL    HW2 1392   0.762   0.001   1.132  3.0701  1.2003  0.0568
  465SOL     OW 1393   1.101   0.561   1.257  0.0464 -0.0853 -0.4017
  465SOL    HW1 1394   1.140   0.637   1.203  0.8881 -1.1567  0.2519
  465SOL    HW2 1395   1.005   0.548   1.231  2.1025  0.2968 -0.1796
  466SOL     OW 1396   1.512   2.383   2.024 -0.6370  0.2202 -0.3829
  466SOL    HW1 1397   1.507   2.482   2.043 -0.2389  0.2021  1.3384
  466SOL    HW2 1398   1.557   2.330   2.100  0.4360 -0.6010  2.2040
  467SOL     OW 1399   0.710   2.863   1.993  0.6176 -0.0172 -0.6033
  467SOL    HW1 1400   0.648   2.918   2.057 -0.9582  0.8603 -0.4615
  467SOL    HW2 1401   0.795   2.917   1.966  0.7044  0.3928  1.5678
  468SOL     OW 1402   0.071   1.515   2.214 -0.2875  0.7459 -0.1824
  468SOL    HW1 1403   3.074   1.499   2.269  0.1412 -1.6743 -1.3417
  468SOL    HW2 1404   0.065   1.592   2.148  0.8455  0.6640  0.3552
  469SOL     OW 1405   1.155   2.177   0.653  0.0921  0.5228  0.7165
  469SOL    HW1 1406   1.085   2.241   0.610 -0.2469  0.7112  0.7282
  469SOL    HW2 1407   1.210   2.224   0.729  1.7194  0.1986  0.0130
  470SOL     OW 1408   2.044   1.043   2.205 -0.9258  0.1639  0.3502
  470SOL    HW1 1409   2.102   1.127   2.191 -0.2695  0.2925  0.3425
  470SOL    HW2 1410   2.001   1.035   2.298  0.2750 -1.6150 -3.1675
  471SOL     OW 1411   0.660   2.447   0.169  0.1404  0.4224 -0.2450
  471SOL    HW1 1412   0.622   2.356   0.159  1.0645  0.0276  1.4130
  471SOL    HW2 1413   0.695   2.481   0.077 -0.2586  0.2921  1.9833
  472SOL     OW 1414   0.001   2.588   2.173 -0.2383  0.0360 -0.4092
  472SOL    HW1 1415   0.046   2.499   2.201  0.4725 -1.1253  0.5125
  472SOL    HW2 1416   0.064   2.667   2.182  0.6675 -1.3108  2.3394
  473SOL     OW 1417   0.710   2.984   3.044 -0.3727  0.2283  0.2060
  473SOL    HW1 1418   0.635   2.976   2.975 -0.3029 -2.7144  1.4706
  473SOL    HW2 1419   0.667   2.991   0.045  0.5590 -1.2276  0.4359
  474SOL     OW 1420   1.567   0.300   0.705 -0.8632 -0.1086  0.2387
  474SOL    HW1 1421   1.477   0.304   0.654 -3.2455 -0.2082  0.6785
  474SOL    HW2 1422   1.623   0.385   0.690  1.9768  0.5698  1.1487
  475SOL     OW 1423   1.395   0.199   1.419  0.0879 -0.8197 -0.1618
  475SOL    HW1 1424   1.337   0.259   1.356 -0.2033  1.1554  0.7700
  475SOL    HW2 1425   1.439   0.124   1.364 -0.9327 -0.8135  1.9787
  476SOL     OW 1426   0.172   1.109   1.054  0.0760 -0.4014  0.0833
  476SOL    HW1 1427   0.215   1.052   1.126 -0.2324  1.5242 -0.3779
  476SOL    HW2 1428   0.237   1.106   0.974  1.0308 -1.4729 -1.0701
  477SOL     OW 1429   0.860   1.870   0.669  0.4508  0.4091  0.1095
  477SOL    HW1 1430   0.916   1.814   0.608  0.8755 -0.1514  1.4667
  477SOL    HW2 1431   0.921   1.910   0.742 -0.0919 -0.0916  2.4923
  478SOL     OW 1432   0.209   2.615   2.497 -0.7106 -0.0627  0.3594
  478SOL    HW1 1433   0.262   2.564   2.429 -1.4311 -0.4610 -2.4150
  478SOL    HW2 1434   0.218   2.718   2.493 -0.7763  0.8408 -1.4452
  479SOL     OW 1435   2.951   0.348   1.708  0.0439 -0.1406  0.3124
  479SOL    HW1 1436   2.920   0.424   1.768 -1.7071  2.3517  1.6889
  479SOL    HW2 1437   2.990   0.396   1.627 -0.4719 -0.0959  0.8462
  480SOL     OW 1438   2.855   2.497   0.173  0.0950  0.0193  0.3434
  480SOL    HW1 1439   2.905   2.468   0.091 -1.8498 -0.9424  3.5782
  480SOL    HW2 1440   2.902   2.456   0.253 -0.3775  2.0495 -0.7426
  481SOL     OW 1441   2.417   1.997   1.762 -0.3118  0.0133  0.2252
  481SOL    HW1 1442   2.450   2.047   1.679  0.6628 -1.6227 -2.3624
  481SOL    HW2 1443   2.442   2.046   1.847  0.9183  0.1547  0.8060
  482SOL     OW 1444   1.641   1.643   2.451 -0.4582  0.4101  0.4237
  482SOL    HW1 1445   1.714   1.579   2.424 -0.4227  3.2788 -1.0029
  482SOL    HW2 1446   1.615   1.707   2.374  2.3337  0.5446  2.6842
  483SOL     OW 1447   0.964   1.472   1.717  0.5160  0.2787  0.2849
  483SOL    HW1 1448   0.995   1.510   1.627  0.2390  2.2080  2.2215
  483SOL    HW2 1449   0.976   1.368   1.718  2.5865 -1.0148 -2.6853
  484SOL     OW 1450   0.326   0.650   1.544  0.2401  0.7006  0.6833
  484SOL    HW1 1451   0.323   0.573   1.615  0.8144 -1.1392  0.6518
  484SOL    HW2 1452   0.300   0.610   1.452  0.8670 -1.6293  0.7300
  485SOL     OW 1453   2.211   1.146   2.973 -0.0291  0.2847  0.3132
  485SOL    HW1 1454   2.254   1.209   2.905  0.9525  1.3423 -1.2372
  485SOL    HW2 1455   2.279   1.097   3.035 -0.5691 -0.2758  0.6378
  486SOL     OW 1456   1.188   0.045   1.585 -0.2638  0.2193 -0.4044
  486SOL    HW1 1457   1.278   0.082   1.550 -1.4437  1.7348  1.9230
  486SOL    HW2 1458   1.120   0.067   1.505 -2.5909 -0.7573 -1.1163
  487SOL     OW 1459   0.674   2.115   1.597 -0.1414 -0.2537  0.0776
  487SOL    HW1 1460   0.693   2.209   1.561  0.2937 -1.6734 -0.8313
  487SOL    HW2 1461   0.588   2.080   1.551 -1.3975 -1.4940 -0.1967
  488SOL     OW 1462   2.541   1.668   2.861 -0.0919  0.6201 -0.5420
  488SOL    HW1 1463   2.613   1.728   2.902  0.5806  0.3241  0.1578
  488SOL    HW2 1464   2.544   1.578   2.905  1.9685 -0.0313 -2.8773
  489SOL     OW 1465   2.081   2.878   0.624 -0.1147  0.3195  0.3483
  489SOL    HW1 1466   1.984   2.859   0.633  0.0900  2.3816  0.0230
  489SOL    HW2 1467   2.092   2.897   0.521 -0.4286  0.4519 -1.9697
  490SOL     OW 1468   0.988   2.351   3.046  0.3672  0.2508  0.6570
  490SOL    HW1 1469   0.901   2.405   3.026 -2.2816 -0.1682 -0.2407
  490SOL    HW2 1470   0.998   2.320   0.051 -0.4422 -0.0736 -0.8905
  491SOL     OW 1471   0.679   1.248   1.614 -0.4170  0.3912 -0.0361
  491SOL    HW1 1472   0.688   1.304   1.533 -0.1559 -0.6924 -0.0210
  491SOL    HW2 1473   0.770   1.241   1.666 -1.7925 -0.1577  0.8039
  492SOL     OW 1474   1.026   0.531   1.903 -0.0081 -0.0129 -0.2776
  492SOL    HW1 1475   0.993   0.615   1.860  0.4060 -1.6502 -1.6558
  492SOL    HW2 1476   1.130   0.541   1.915 -1.5327  1.1195 -0.1045
  493SOL     OW 1477   2.245   1.916   0.770  0.4637  0.6499 -0.2454
  493SOL    HW1 1478   2.150   1.912   0.731 -0.3146 -0.6055  1.7267
  493SOL    HW2 1479   2.293   1.825   0.766  1.2506 -1.2323  0.9915
  494SOL     OW 1480   0.862   1.378   0.981 -0.4100  0.5114 -0.2528
  494SOL    HW1 1481   0.921   1.442   0.924  0.1550  1.0610 -0.3496
  494SOL    HW2 1482   0.769   1.359   0.940  0.1687  0.5429  2.1837
  495SOL     OW 1483   2.297   2.541   0.446  0.7402 -0.6708  0.3326
  495SOL    HW1 1484   2.347   2.561   0.357  1.6537  0.0738 -4.3447
  495SOL    HW2 1485   2.289   2.444   0.459 -1.1558  2.9806 -2.0044
  496SOL     OW 1486   2.541   2.879   1.345  0.7927 -0.4818  0.2451
  496SOL    HW1 1487   2.496   2.889   1.252  2.4406  0.6518 -1.3231
  496SOL    HW2 1488   2.538   2.965   1.401 -0.4426 -2.1367  2.7738
  497SOL     OW 1489   2.306   1.181   2.474  0.0967  0.1056 -0.5588
  497SOL    HW1 1490   2.210   1.220   2.464  2.3982  0.3303 -0.4841
  497SOL    HW2 1491   2.308   1.108   2.547 -0.4307  0.9583  0.8233
  498SOL     OW 1492   0.171   2.218   1.289 -0.4722  0.3375  0.2694
  498SOL    HW1 1493   0.092   2.181   1.241 -1.6482  0.9071 -1.4897
  498SOL    HW2 1494   0.165   2.318   1.296 -3.3143 -1.4483  0.6161
  499SOL     OW 1495   0.970   2.424   1.896 -0.0993  0.0053 -0.0463
  499SOL    HW1 1496   0.893   2.428   1.968 -0.7257 -0.1866  2.8200
  499SOL    HW2 1497   1.035   2.345   1.917  1.9019 -0.1609  0.7079
  500SOL     OW 1498   0.687   2.022   0.386  0.1135  0.9638 -0.4242
  500SOL    HW1 1499   0.695   1.925   0.348 -0.2890 -0.6738 -0.4959
  500SOL    HW2 1500   0.613   2.017   0.454 -1.6950  1.8191  1.2554
  501SOL     OW 1501   2.072   0.086   1.070  0.2914 -0.4474  0.6867
  501SOL    HW1 1502   2.034   0.055   0.983 -2.5869  0.1003 -0.0739
  501SOL    HW2 1503   2.011   0.063   1.147 -5.3308  3.2349  0.0013
  502SOL     OW 1504   2.659   0.388   1.630 -0.4477  0.1671 -0.2808
  502SOL    HW1 1505   2.658   0.464   1.701  0.0367  3.3044  1.9977
  502SOL    HW2 1506   2.754   0.362   1.609 -0.4543  1.4161  0.8363
  503SOL     OW 1507   2.466   1.319   1.937 -0.4329 -0.2159  0.4531
  503SOL    HW1 1508   2.418   1.394   1.886  0.6287 -1.4797  0.1991
  503SOL    HW2 1509   2.550   1.289   1.886  2.3818  2.2555 -1.6952
  504SOL     OW 1510   1.540   0.812   1.594  0.5895 -0.1690  0.1115
  504SOL    HW1 1511   1.479   0.743   1.640 -0.7883  0.0281  1.5737
  504SOL    HW2 1512   1.573   0.772   1.508  2.1287 -0.7888 -0.2861
  505SOL     OW 1513   0.523   3.067   1.736 -0.3300 -0.0934 -0.0769
  505SOL    HW1 1514   0.472   3.025   1.813 -1.3895  2.3477  0.3542
  505SOL    HW2 1515   0.478   3.033   1.648 -0.9732 -0.3338 -1.5069
  506SOL     OW 1516   0.125   0.332   0.258  0.4187 -0.0829  0.5773
  506SOL    HW1 1517   0.174   0.373   0.178  0.6776  0.1950 -0.3425
  506SOL    HW2 1518   0.186   0.330   0.344 -0.2498  1.0362  1.5404
  507SOL     OW 1519   2.436   0.375   0.105 -0.1780 -0.2449 -0.5926
  507SOL    HW1 1520   2.394   0.283   0.115 -1.2816  2.7568 -1.8185
  507SOL    HW2 1521   2.374   0.447   0.136  0.3935 -2.0495 -2.6502
  508SOL     OW 1522   1.347   0.219   1.861  0.0505 -0.4654 -0.3569
  508SOL    HW1 1523   1.249   0.216   1.832  2.2503 -0.6624 -0.1291
  508SOL    HW2 1524   1.406   0.239   1.780 -0.1951  1.3604 -0.2468
  509SOL     OW 1525   1.673   1.778   1.341  0.0645  0.5300  0.6661
  509SOL    HW1 1526   1.613   1.754   1.262 -1.1368 -0.9406 -1.2037
  509SOL    HW2 1527   1.704   1.694   1.392 -2.1628 -0.7917 -1.4341
  510SOL     OW 1528   2.662   1.154   1.393  0.0802 -0.3972 -0.2860
  510SOL    HW1 1529   2.721   1.115   1.468 -1.7247  0.3839 -0.0991
  510SOL    HW2 1530   2.574   1.098   1.382 -3.5887  0.5838  0.3680
  511SOL     OW 1531   1.607   1.947   1.537 -0.0882 -0.5126 -0.0893
  511SOL    HW1 1532   1.636   1.897   1.457  0.3508  1.8707  1.7945
  511SOL    HW2 1533   1.617   2.050   1.521 -2.0964  1.6877  1.7347
  512SOL     OW 1534   0.049   1.472   0.596  0.6583  0.3369  0.2036
  512SOL    HW1 1535   0.114   1.512   0.529  0.1860  0.9269 -0.9748
  512SOL    HW2 1536   3.042   1.510   0.585 -1.6437 -0.2634 -2.7020
  513SOL     OW 1537   0.131   1.879   0.033  0.3655  0.0797 -0.5181
  513SOL    HW1 1538   0.078   1.936   3.057  1.2949  0.5515  0.3810
  513SOL    HW2 1539   0.219   1.853   3.083 -1.1237  0.5465  0.9325
  514SOL     OW 1540   2.726   1.881   2.266  0.7019 -0.4149  0.1355
  514SOL    HW1 1541   2.722   1.887   2.369  1.9540 -1.9198  2.6066
  514SOL    HW2 1542   2.773   1.793   2.240 -0.8280 -2.5961 -0.1645
  515SOL     OW 1543   2.044   1.065   0.582  0.2033 -0.3689 -0.1978
  515SOL    HW1 1544   2.035   1.164   0.585  2.1035 -0.4937  0.6738
  515SOL    HW2 1545   1.983   1.018   0.646  1.0416 -1.6962 -1.7192
  516SOL     OW 1546   2.138   2.706   0.156  0.3851  1.0265  0.0295
  516SOL    HW1 1547   2.089   2.617   0.161  3.0080  0.1968 -1.1503
  516SOL    HW2 1548   2.239   2.690   0.176  2.5070  1.6311  2.8329
  517SOL     OW 1549   1.025   2.005   2.478 -0.2086  0.4976  0.2158
  517SOL    HW1 1550   1.113   2.056   2.472 -0.6512 -0.4145 -2.0012
  517SOL    HW2 1551   0.992   1.996   2.380 -0.8803 -1.6593 -2.6297
  518SOL     OW 1552   0.278   0.161   2.318 -0.2752  0.2433  0.3112
  518SOL    HW1 1553   0.323   0.123   2.239 -1.4122  2.0928  0.6513
  518SOL    HW2 1554   0.225   0.245   2.288  0.1119  0.2818 -0.4074
  519SOL     OW 1555   0.544   1.529   0.091 -0.2191  0.1097 -0.0150
  519SOL    HW1 1556   0.475   1.485   0.034  2.3738  0.5941  0.6545
  519SOL    HW2 1557   0.561   1.480   0.176 -1.2851  3.6022 -5.0882
  520SOL     OW 1558   2.806   2.000   2.043 -0.4011 -0.0178  0.0050
  520SOL    HW1 1559   2.765   1.964   2.132 -1.1940  0.0729 -0.0759
  520SOL    HW2 1560   2.890   2.059   2.061  1.3289  2.5333 -1.0643
  521SOL     OW 1561   0.658   2.422   2.492  0.0499 -0.0815 -0.2686
  521SOL    HW1 1562   0.685   2.351   2.428 -2.8500  1.9106  0.6837
  521SOL    HW2 1563   0.635   2.512   2.448  1.0581  0.1630  2.2763
  522SOL     OW 1564   1.672   2.760   2.010 -0.3031  0.2428  0.0222
  522SOL    HW1 1565   1.581   2.728   1.999  4.9389  1.9731  1.6903
  522SOL    HW2 1566   1.671   2.853   1.971 -0.5218 -1.7206 -1.3798
  523SOL     OW 1567   2.050   1.932   2.040  0.0459 -0.0724 -0.5426
  523SOL    HW1 1568   2.140   1.943   2.085 -0.0928  0.5909  0.0491
  523SOL    HW2 1569   2.008   2.023   2.029  0.1030 -1.7349 -0.1042
  524SOL     OW 1570   0.629   2.771   0.410  0.2529 -0.1577  0.4343
  524SOL    HW1 1571   0.688   2.719   0.344  0.1455 -2.0419  0.7478
  524SOL    HW2 1572   0.543   2.791   0.356 -3.3210  0.4992 -4.1753
  525SOL     OW 1573   0.277   0.663   0.509  0.0641  0.1205  0.4273
  525SOL    HW1 1574   0.352   0.646   0.439  3.1394 -0.5839 -1.5252
  525SOL    HW2 1575   0.256   0.578   0.562 -0.2120  0.2031 -2.1251
  526SOL     OW 1576   0.561   2.981   0.776 -0.0212 -0.0119  0.0115
  526SOL    HW1 1577   0.562   2.901   0.840 -0.9460 -0.5463  1.1759
  526SOL    HW2 1578   0.548   3.068   0.827 -1.0786 -3.3185  0.5571
  527SOL     OW 1579   2.221   1.687   1.072 -0.7515  0.1450 -0.3654
  527SOL    HW1 1580   2.143   1.731   1.023  0.0721  1.3029 -0.7159
  527SOL    HW2 1581   2.196   1.650   1.161 -0.3772  1.2547 -1.5516
  528SOL     OW 1582   2.891   2.674   2.576  0.2182 -0.6779  0.2712
  528SOL    HW1 1583   2.818   2.641   2.512 -0.8416 -2.7654 -0.0138
  528SOL    HW2 1584   2.894   2.776   2.568  1.5942  2.2373 -1.0141
  529SOL     OW 1585   1.415   1.722   2.256 -0.1925 -0.0862 -0.4581
  529SOL    HW1 1586   1.417   1.621   2.248  3.8614  1.4204  0.9838
  529SOL    HW2 1587   1.472   1.764   2.187 -1.2961 -1.2396  0.2017
  530SOL     OW 1588   1.579   1.261   2.800  0.3836 -0.0919 -0.2534
  530SOL    HW1 1589   1.563   1.325   2.721  1.4720 -0.6643  3.1074
  530SOL    HW2 1590   1.526   1.173   2.795  2.8536 -0.7887  0.5184
  531SOL     OW 1591   0.614   1.145   0.002 -0.3743 -0.0927 -0.1695
  531SOL    HW1 1592   0.539   1.180   3.033  0.8649 -1.9978 -1.2502
  531SOL    HW2 1593   0.630   1.044   3.075  0.1177 -0.1729  2.5104
  532SOL     OW 1594   1.712   1.457   0.393 -0.9303  0.3543 -0.1613
  532SOL    HW1 1595   1.701   1.359   0.434  2.4634 -2.3237  0.5290
  532SOL    HW2 1596   1.693   1.525   0.464  0.8012 -0.3625  0.5494
  533SOL     OW 1597   0.631   0.433   2.484  0.0958 -0.6315 -0.0665
  533SOL    HW1 1598   0.612   0.445   2.388 -1.8803 -0.6153  0.0876
  533SOL    HW2 1599   0.721   0.397   2.500 -2.2188 -0.7719 -0.0108
  534SOL     OW 1600   0.756   2.522   3.023  0.0646  0.4472  0.0545
  534SOL    HW1 1601   0.668   2.532   2.971  0.1130  2.2193  0.2618
  534SOL    HW2 1602   0.805   2.612   3.029  1.6096  1.2711  0.5171
  535SOL     OW 1603   0.033   0.070   0.209 -0.5227  0.0597 -0.4738
  535SOL    HW1 1604   3.087   0.023   0.291  3.3735  2.1976  1.8008
  535SOL    HW2 1605   0.071   0.160   0.227 -2.0674 -4.0292 -1.0118
  536SOL     OW 1606   0.048   0.940   2.215  0.2863 -0.3709  0.0925
  536SOL    HW1 1607   0.011   0.976   2.127  0.9738 -0.3469 -0.5664
  536SOL    HW2 1608   0.146   0.908   2.203 -0.1577  0.4353 -0.2193
  537SOL     OW 1609   1.031   0.123   1.390 -0.1729  0.2204  1.1299
  537SOL    HW1 1610   0.930   0.139   1.390  1.0990 -0.6631  1.1491
  537SOL    HW2 1611   1.076   0.187   1.320  1.5586 -1.3753  1.9106
  538SOL     OW 1612   0.212   1.551   0.382  0.3445 -0.2992 -0.3503
  538SOL    HW1 1613   0.229   1.648   0.357 -0.7480  0.4572 -2.5271
  538SOL    HW2 1614   0.298   1.499   0.390  1.8951 -1.4175 -0.4045
  539SOL     OW 1615   2.595   1.080   2.086 -0.8118 -0.2996  0.7397
  539SOL    HW1 1616   2.525   1.066   2.156  1.6789  3.4678 -0.3048
  539SOL    HW2 1617   2.556   1.146   2.021 -0.6253 -1.6210  1.6896
  540SOL     OW 1618   1.874   1.305   2.138 -0.3717  0.2725 -0.3551
  540SOL    HW1 1619   1.860   1.233   2.070  0.0427 -1.4399 -1.0097
  540SOL    HW2 1620   1.952   1.360   2.110  0.0733 -1.2614 -2.5031
  541SOL     OW 1621   0.936   1.203   1.734  0.6559  0.9714  0.0827
  541SOL    HW1 1622   0.932   1.152   1.823 -1.7302 -0.8363  1.4272
  541SOL    HW2 1623   0.998   1.153   1.671  0.7438  1.3596 -0.8955
  542SOL     OW 1624   1.770   0.296   2.045  0.1013 -0.2501 -0.2695
  542SOL    HW1 1625   1.839   0.308   2.118 -2.3721  4.2204 -0.3260
  542SOL    HW2 1626   1.798   0.229   1.972  0.7781 -0.8618 -2.4681
  543SOL     OW 1627   0.988   0.379   0.424  0.1040  0.5556 -1.1542
  543SOL    HW1 1628   0.910   0.408   0.365 -0.5386 -1.5249 -0.2975
  543SOL    HW2 1629   1.078   0.364   0.371 -2.3113 -2.3823 -2.8500
  544SOL     OW 1630   2.490   1.830   2.153  0.2660  0.3582 -0.1296
  544SOL    HW1 1631   2.447   1.755   2.212  2.6438 -1.2392 -1.0458
  544SOL    HW2 1632   2.584   1.847   2.185 -2.4578  1.5066  2.0148
  545SOL     OW 1633   1.944   2.169   2.124  0.1760 -0.3322  0.4943
  545SOL    HW1 1634   2.021   2.222   2.170  3.2048  1.8633  2.5957
  545SOL    HW2 1635   1.899   2.224   2.052  1.2077 -2.0482  2.4279
  546SOL     OW 1636   0.340   0.050   2.964  0.3958  0.7070 -0.2068
  546SOL    HW1 1637   0.354   0.068   3.062 -2.1453  0.5309  1.0099
  546SOL    HW2 1638   0.377   3.046   2.942  1.2713 -1.0368  1.0273
  547SOL     OW 1639   1.948   0.733   0.188  0.2780  0.5514 -0.1556
  547SOL    HW1 1640   1.895   0.691   0.261  0.3948 -0.1364 -0.3283
  547SOL    HW2 1641   1.983   0.826   0.217 -0.7933  2.2744  0.6069
  548SOL     OW 1642   2.120   1.562   2.299 -0.1737  0.3939 -0.1863
  548SOL    HW1 1643   2.120   1.482   2.370  0.7960 -1.6678  0.7771
  548SOL    HW2 1644   2.219   1.577   2.273  0.7026 -2.4454  0.6384
  549SOL     OW 1645   2.015   0.432   0.490  0.0331  0.1332  0.2802
  549SOL    HW1 1646   2.072   0.472   0.415 -0.8589  2.7647 -2.6830
  549SOL    HW2 1647   2.053   0.450   0.577 -3.4937 -0.9196  1.1232
  550SOL     OW 1648   2.396   2.237   0.848  0.1432 -0.4625  0.2569
  550SOL    HW1 1649   2.321   2.179   0.884  0.7912 -3.0044  2.8627
  550SOL    HW2 1650   2.370   2.337   0.857  0.3878  1.1688  1.2351
  551SOL     OW 1651   0.989   2.888   1.622 -0.1609  0.3097  0.0826
  551SOL    HW1 1652   1.077   2.872   1.574  0.0926 -0.5528 -0.0777
  551SOL    HW2 1653   0.954   2.985   1.614 -0.6948  2.6814 -0.6521
  552SOL     OW 1654   2.858   2.242   2.546 -0.1234  0.3434 -0.0457
  552SOL    HW1 1655   2.822   2.174   2.613 -1.7952 -0.9956  1.1678
  552SOL    HW2 1656   2.947   2.208   2.498  3.5901  0.3757  0.6021
  553SOL     OW 1657   0.228   2.947   0.604  0.2534 -0.0898 -0.0859
  553SOL    HW1 1658   0.236   2.939   0.708 -2.0432 -0.0850  2.6974
  553SOL    HW2 1659   0.232   2.852   0.560 -1.0839  0.9620 -0.5143
  554SOL     OW 1660   2.264   2.405   1.844 -0.2504  0.2582 -0.7589
  554SOL    HW1 1661   2.172   2.358   1.836  0.3518  2.7052 -0.5397
  554SOL    HW2 1662   2.330   2.390   1.770 -0.1902 -0.6537 -3.4093
  555SOL     OW 1663   1.153   2.234   1.976 -0.0864  0.1847 -0.1004
  555SOL    HW1 1664   1.207   2.235   1.892 -1.0306 -4.1672  2.5930
  555SOL    HW2 1665   1.128   2.134   1.996 -1.0802 -0.5630 -0.4708
  556SOL     OW 1666   1.343   1.663   1.454 -0.0632  0.2640  0.0811
  556SOL    HW1 1667   1.277   1.737   1.464  0.8960  0.3806  0.8892
  556SOL    HW2 1668   1.386   1.654   1.546  1.9943  0.9675 -2.5921
  557SOL     OW 1669   2.138   2.321   2.283  0.1012 -0.2052 -0.6527
  557SOL    HW1 1670   2.201   2.402   2.281  0.7762 -2.3455  3.1664
  557SOL    HW2 1671   2.157   2.270   2.370  2.9867  0.1830  1.2445
  558SOL     OW 1672   0.595   3.034   2.166  0.2919  0.1103 -0.4605
  558SOL    HW1 1673   0.505   3.054   2.122 -0.9386  0.7751 -0.2609
  558SOL    HW2 1674   0.656   0.023   2.180 -2.7913 -0.3893 -1.3669
  559SOL     OW 1675   2.369   2.928   1.048  0.2496 -0.0307 -0.2420
  559SOL    HW1 1676   2.441   2.882   0.996 -2.3071  3.5994  1.8104
  559SOL    HW2 1677   2.325   3.002   0.994 -0.7468  0.9853  0.3542
  560SOL     OW 1678   0.980   2.347   0.494 -0.5573  0.1296 -0.7427
  560SOL    HW1 1679   0.941   2.443   0.499 -0.3041 -1.6279  1.1854
  560SOL    HW2 1680   0.913   2.274   0.514  2.1706 -0.1352  0.1984
  561SOL     OW 1681   1.078   0.431   0.102  0.5098  0.0597 -0.3590
  561SOL    HW1 1682   1.086   0.498   0.025 -0.1415  1.5950 -1.1798
  561SOL    HW2 1683   0.994   0.453   0.159  1.4819  0.9982  0.5254
  562SOL     OW 1684   0.711   0.274   2.880 -0.0986 -0.5235 -0.0743
  562SOL    HW1 1685   0.700   0.336   2.962 -0.9275  0.0925  0.3265
  562SOL    HW2 1686   0.808   0.271   2.848  1.2605  1.9221  0.6250
  563SOL     OW 1687   1.529   1.652   2.950  0.4724  0.4138 -0.8905
  563SOL    HW1 1688   1.623   1.670   2.912 -0.1499  1.1780  0.6749
  563SOL    HW2 1689   1.463   1.656   2.875 -0.7324 -1.0708 -0.3208
  564SOL     OW 1690   2.597   1.221   0.771  0.1661 -0.3590  0.3738
  564SOL    HW1 1691   2.634   1.128   0.789  2.0994  1.2655  0.1034
  564SOL    HW2 1692   2.510   1.208   0.722  3.2705  2.0723  0.4613
  565SOL     OW 1693   0.951   0.279   2.791 -0.5174  0.9420 -0.4292
  565SOL    HW1 1694   0.956   0.186   2.830 -0.8856 -0.1929 -2.7640
  565SOL    HW2 1695   1.044   0.323   2.801  1.2064 -1.2716 -0.2820
  566SOL     OW 1696   1.469   0.019   2.345 -0.1523  0.3969 -0.0142
  566SOL    HW1 1697   1.389   3.057   2.317  0.1227  0.1121 -1.0178
  566SOL    HW2 1698   1.548   3.048   2.340 -0.8566 -0.3469 -0.0414
  567SOL     OW 1699   1.987   1.330   0.621  0.4215  1.0145 -1.0322
  567SOL    HW1 1700   2.031   1.363   0.536 -0.1586  1.2157  2.1427
  567SOL    HW2 1701   2.009   1.387   0.706  1.2212  1.0400  2.9668
  568SOL     OW 1702   1.993   1.890   0.660 -0.5311 -0.2480 -0.2096
  568SOL    HW1 1703   2.012   1.870   0.563 -1.5635  2.4239 -1.1570
  568SOL    HW2 1704   1.929   1.967   0.665  2.2976 -1.7539  0.0209
  569SOL     OW 1705   1.964   1.188   3.081  0.3567 -0.1499  0.1708
  569SOL    HW1 1706   1.934   1.092   3.069  0.5912 -1.4338  0.6331
  569SOL    HW2 1707   2.064   1.198   3.056  1.6732 -2.2921  0.3859
  570SOL     OW 1708   0.137   2.680   1.743  0.2133 -0.3974 -0.6042
  570SOL    HW1 1709   0.056   2.641   1.792  3.2268  1.4243  0.8326
  570SOL    HW2 1710   0.179   2.761   1.792 -1.4509  1.9370 -0.4909
  571SOL     OW 1711   0.135   0.406   2.286  0.5246 -0.1687 -0.0905
  571SOL    HW1 1712   0.216   0.464   2.273  0.2535 -0.3409  2.5290
  571SOL    HW2 1713   0.059   0.461   2.327  1.3956  2.9264 -2.8500
  572SOL     OW 1714   1.230   1.643   0.877  0.1960  0.2465 -0.6356
  572SOL    HW1 1715   1.201   1.650   0.974  0.2738 -1.3660  0.4761
  572SOL    HW2 1716   1.238   1.734   0.833 -0.9495 -0.7539 -0.3844
  573SOL     OW 1717   1.265   2.061   0.195 -0.5140 -0.3714  0.1129
  573SOL    HW1 1718   1.269   2.058   0.094  1.3081 -2.6663 -3.7550
  573SOL    HW2 1719   1.342   2.008   0.232 -1.0324  0.8511 -1.0520
  574SOL     OW 1720   0.960   0.114   0.856 -0.4456 -0.5454 -0.4881
  574SOL    HW1 1721   0.935   0.079   0.949 -3.3353 -0.5986  0.9670
  574SOL    HW2 1722   0.877   0.122   0.793 -0.5077 -0.9253  1.2326
  575SOL     OW 1723   0.023   1.098   1.343 -0.2324 -0.0073 -0.2663
  575SOL    HW1 1724   3.046   1.026   1.329  1.4064 -2.7183 -0.4754
  575SOL    HW2 1725   0.022   1.136   1.437  1.6605 -1.4398 -1.4834
  576SOL     OW 1726   1.721   3.038   1.494 -0.1355  0.3468  0.3124
  576SOL    HW1 1727   1.698   2.970   1.569 -3.7071  0.6594  3.5304
  576SOL    HW2 1728   1.638   3.053   1.438 -0.9994  0.6774 -1.0658
  577SOL     OW 1729   0.522   0.982   1.966 -0.2968  0.2077 -0.5160
  577SOL    HW1 1730   0.585   1.053   2.008  1.6822  2.7642  2.3008
  577SOL    HW2 1731   0.570   0.893   1.959 -1.6808 -0.0708  1.4925
  578SOL     OW 1732   1.998   0.375   2.516 -0.2778 -0.3932  0.0072
  578SOL    HW1 1733   2.099   0.395   2.511  1.6472 -1.0888 -1.8057
  578SOL    HW2 1734   1.946   0.462   2.525 -0.0509 -2.2503  3.0138
  579SOL     OW 1735   2.385   1.769   1.910 -0.4749  0.1195  0.6644
  579SOL    HW1 1736   2.381   1.853   1.854  0.7673 -1.8659  3.3371
  579SOL    HW2 1737   2.415   1.796   2.009  0.1597  4.5702  1.9357
  580SOL     OW 1738   1.841   1.209   2.551  0.7286 -0.0064  0.1672
  580SOL    HW1 1739   1.844   1.226   2.652  1.4661 -0.9075  0.6896
  580SOL    HW2 1740   1.862   1.113   2.524 -0.0978  1.2582  0.7095
  581SOL     OW 1741   1.460   0.999   2.802 -0.5163 -0.7859 -0.1284
  581SOL    HW1 1742   1.379   0.934   2.807 -2.8032  0.2163  0.7375
  581SOL    HW2 1743   1.527   0.972   2.726 -0.8454 -1.1814  1.5612
  582SOL     OW 1744   1.124   1.503   1.449  0.2138  0.0427  0.6530
  582SOL    HW1 1745   1.141   1.407   1.425  0.3306  0.3265  0.9032
  582SOL    HW2 1746   1.204   1.567   1.425  1.4591  2.4971  0.1301
  583SOL     OW 1747   1.668   1.239   1.389 -0.2812 -0.4692  0.3113
  583SOL    HW1 1748   1.761   1.235   1.347  1.6497  0.9629  1.2711
  583SOL    HW2 1749   1.598   1.302   1.337 -1.6027  0.5529  0.3254
  584SOL     OW 1750   1.861   2.519   0.711  0.4200 -0.3578 -0.0589
  584SOL    HW1 1751   1.769   2.471   0.697 -0.6126 -1.0939  2.0057
  584SOL    HW2 1752   1.871   2.560   0.805  0.1914 -1.2252  0.3851
  585SOL     OW 1753   1.992   2.670   2.851 -0.0185 -0.1334  0.2622
  585SOL    HW1 1754   1.930   2.725   2.794  2.7261 -0.5481  2.5835
  585SOL    HW2 1755   1.952   2.608   2.922  1.4008  0.0740 -1.6330
  586SOL     OW 1756   2.837   2.258   0.886 -0.0059  0.5062 -0.4128
  586SOL    HW1 1757   2.799   2.337   0.833 -1.6893  1.7325 -0.1788
  586SOL    HW2 1758   2.761   2.208   0.935  0.1917  0.3903 -2.2470
  587SOL     OW 1759   1.125   1.819   0.134  0.0470 -0.3539 -0.5637
  587SOL    HW1 1760   1.126   1.918   0.173  0.8631  3.1271  1.6625
  587SOL    HW2 1761   1.208   1.803   0.078  0.0003  0.2087  1.4298
  588SOL     OW 1762   0.511   0.098   0.953  0.3728  0.1760  0.2301
  588SOL    HW1 1763   0.580   0.104   1.029  0.6336 -2.1183 -2.8333
  588SOL    HW2 1764   0.493   0.190   0.917  1.3892  0.7474  3.3661
  589SOL     OW 1765   1.293   0.732   0.763 -0.5954 -0.1482  0.0922
  589SOL    HW1 1766   1.338   0.694   0.680  1.3314 -2.6304  1.2507
  589SOL    HW2 1767   1.237   0.662   0.808 -1.2900  2.0326  2.4515
  590SOL     OW 1768   1.882   2.516   3.046 -0.0807 -0.3955  0.2619
  590SOL    HW1 1769   1.918   2.508   0.048 -0.9461  1.9533  0.3541
  590SOL    HW2 1770   1.779   2.525   3.051 -0.1253 -2.4843 -1.9737
  591SOL     OW 1771   0.136   2.341   2.689  0.3559  0.3097 -0.3138
  591SOL    HW1 1772   0.212   2.344   2.620  0.7829 -0.1682  1.9843
  591SOL    HW2 1773   0.087   2.430   2.697  1.1151  0.0897 -0.1322
  592SOL     OW 1774   2.659   1.623   1.909 -0.3462 -0.2001 -0.0597
  592SOL    HW1 1775   2.565   1.637   1.939  2.4862  0.6346  2.4192
  592SOL    HW2 1776   2.666   1.568   1.823 -0.2768  0.2049 -1.6047
  593SOL     OW 1777   1.735   1.535   1.460  0.0762  0.0231 -0.7915
  593SOL    HW1 1778   1.763   1.491   1.547  1.2552 -3.8088  1.5904
  593SOL    HW2 1779   1.642   1.513   1.439  4.9687  0.4675 -0.2814
  594SOL     OW 1780   2.623   1.170   0.011 -0.0550  0.3646 -0.7062
  594SOL    HW1 1781   2.704   1.133   0.061  0.7979 -0.8064 -1.8736
  594SOL    HW2 1782   2.541   1.116   0.043 -0.2102  0.8764 -0.9453
  595SOL     OW 1783   0.778   0.724   0.446 -0.1555 -0.0523  0.3384
  595SOL    HW1 1784   0.770   0.826   0.468  0.2207  3.1633 -0.4529
  595SOL    HW2 1785   0.776   0.722   0.346 -1.0168  0.5240  1.5084
  596SOL     OW 1786   3.004   1.411   1.332 -0.3706  0.4753  0.6838
  596SOL    HW1 1787   3.068   1.404   1.251  1.5418  0.7787 -1.6009
  596SOL    HW2 1788   3.035   1.493   1.385 -1.9260  1.5076  0.2965
  597SOL     OW 1789   1.049   2.057   1.392  0.0465  0.3909  0.4632
  597SOL    HW1 1790   1.107   2.129   1.357  1.6100 -0.5132  0.4385
  597SOL    HW2 1791   1.000   2.095   1.471 -1.7885 -0.6374 -1.6196
  598SOL     OW 1792   2.794   2.884   1.989 -0.3860 -0.2957 -0.3577
  598SOL    HW1 1793   2.886   2.920   1.961 -1.1410 -0.3845 -0.4838
  598SOL    HW2 1794   2.730   2.866   1.912 -0.9608 -2.3881 -2.1475
  599SOL     OW 1795   0.542   1.407   2.707  0.1425  0.1738  0.6012
  599SOL    HW1 1796   0.446   1.406   2.680 -1.4620  0.4320  0.2314
  599SOL    HW2 1797   0.607   1.430   2.634 -1.8485 -0.3184  4.0834
  600SOL     OW 1798   0.641   0.858   3.004 -0.2569  0.1838  0.1701
  600SOL    HW1 1799   0.638   0.832   2.903 -1.8513 -0.2189 -2.0796
  600SOL    HW2 1800   0.591   0.787   3.058  0.1263  1.3909 -0.2259
  601SOL     OW 1801   0.730   0.646   1.693  0.0007 -0.3063  0.1486
  601SOL    HW1 1802   0.819   0.698   1.692 -1.0487  2.3250  1.4882
  601SOL    HW2 1803   0.684   0.665   1.781  2.1381  0.9248 -1.7592
  602SOL     OW 1804   0.354   0.134   0.169 -0.1062 -0.3607 -0.2068
  602SOL    HW1 1805   0.366   0.189   0.256 -0.2613  1.5441  1.1689
  602SOL    HW2 1806   0.260   0.102   0.155  0.0568  2.6207 -1.1241
  603SOL     OW 1807   1.344   2.762   2.288 -0.1127 -0.0637  0.3103
  603SOL    HW1 1808   1.300   2.848   2.301  2.6375 -2.4396 -1.1958
  603SOL    HW2 1809   1.348   2.707   2.377  0.0886 -0.0199 -0.6131
  604SOL     OW 1810   0.228   2.418   3.008 -0.3344  0.2104  0.4029
  604SOL    HW1 1811   0.273   2.327   3.014 -1.8484 -1.1828  0.8401
  604SOL    HW2 1812   0.189   2.426   2.916  0.7911 -2.4346 -0.6829
  605SOL     OW 1813   2.180   1.112   1.442 -0.2441 -0.1916 -0.2078
  605SOL    HW1 1814   2.093   1.071   1.402 -2.6736  2.0618 -1.9638
  605SOL    HW2 1815   2.158   1.161   1.531 -0.2525 -2.0983 -1.5756
  606SOL     OW 1816   0.721   1.065   2.716 -0.0761 -0.0364  0.3052
  606SOL    HW1 1817   0.770   1.155   2.735  1.2606  1.4957  3.8920
  606SOL    HW2 1818   0.787   0.990   2.739  1.1758 -1.6763  3.5313
  607SOL     OW 1819   0.783   0.422   0.974  0.0336  0.1780  0.0738
  607SOL    HW1 1820   0.792   0.446   1.072 -0.3785  2.1997  0.6028
  607SOL    HW2 1821   0.870   0.428   0.919  0.9808 -2.6545 -1.3371
  608SOL     OW 1822   2.879   1.775   1.930  0.0452 -0.0919  0.0911
  608SOL    HW1 1823   2.795   1.712   1.923 -0.6023 -0.8479 -0.5395
  608SOL    HW2 1824   2.846   1.865   1.971 -2.3870  2.0631  0.5239
  609SOL     OW 1825   2.419   0.597   0.308 -0.1387 -0.5153  0.1690
  609SOL    HW1 1826   2.461   0.638   0.390  0.6811  0.8703 -0.9204
  609SOL    HW2 1827   2.333   0.548   0.325 -3.0979 -0.0593  1.2077
  610SOL     OW 1828   0.057   2.649   1.495  0.0925  0.4506 -0.1080
  610SOL    HW1 1829   0.095   2.685   1.583  0.5893  1.7081  3.5376
  610SOL    HW2 1830   0.025   2.725   1.436  0.9399 -2.0389 -0.3851
  611SOL     OW 1831   1.660   2.120   0.254  0.1473 -0.2714 -0.2634
  611SOL    HW1 1832   1.749   2.092   0.291 -1.6586  2.7941  0.6170
  611SOL    HW2 1833   1.588   2.049   0.262 -1.5246  1.8189  0.6522
  612SOL     OW 1834   0.758   0.375   1.905 -0.1625 -0.1218  0.6268
  612SOL    HW1 1835   0.731   0.369   2.006 -2.3739 -0.8741  1.7643
  612SOL    HW2 1836   0.809   0.464   1.897 -0.4676  2.6744  0.5438
  613SOL     OW 1837   0.398   2.073   0.766 -0.5679 -0.2514  0.9057
  613SOL    HW1 1838   0.336   2.065   0.843 -1.4222 -3.9544 -0.8014
  613SOL    HW2 1839   0.472   2.149   0.771  2.9809  0.9581  0.9361
  614SOL     OW 1840   1.720   0.174   1.668  0.4748 -0.0947 -0.5202
  614SOL    HW1 1841   1.749   0.138   1.758 -0.5729  0.3042  0.1529
  614SOL    HW2 1842   1.714   0.101   1.596  1.4701 -0.9977 -1.0197
  615SOL     OW 1843   1.510   1.394   0.647 -0.0269  0.3602 -0.1177
  615SOL    HW1 1844   1.605   1.362   0.631 -2.2683 -0.2545 -0.0304
  615SOL    HW2 1845   1.434   1.332   0.619 -2.7130 -0.4562 -1.6340
  616SOL     OW 1846   1.951   1.507   0.247 -0.0210  0.3622 -0.2378
  616SOL    HW1 1847   1.864   1.483   0.295  3.5132 -1.3766  1.7846
  616SOL    HW2 1848   1.943   1.600   0.205 -2.0116  2.7291  0.3264
  617SOL     OW 1849   1.484   0.630   2.960 -0.3505  0.4429 -0.1293
  617SOL    HW1 1850   1.531   0.655   3.048  1.4366 -2.7747 -0.7987
  617SOL    HW2 1851   1.542   0.655   2.881  0.8281  0.1670  0.4865
  618SOL     OW 1852   0.624   0.728   1.971 -0.2407 -0.2330 -0.4614
  618SOL    HW1 1853   0.670   0.709   2.059 -1.4125 -1.7702 -1.2509
  618SOL    HW2 1854   0.556   0.662   1.940  0.5040  2.8886 -2.2932
  619SOL     OW 1855   3.083   1.672   1.463  0.7591 -0.8636 -0.0419
  619SOL    HW1 1856   3.041   1.705   1.554 -3.0460  0.7528  0.3838
  619SOL    HW2 1857   0.014   1.755   1.407  0.3363  1.6117  1.7480
  620SOL     OW 1858   2.294   2.793   2.608  0.4292  0.5521 -0.0940
  620SOL    HW1 1859   2.279   2.891   2.582  1.0629  2.1292 -3.4456
  620SOL    HW2 1860   2.278   2.781   2.712  1.3641 -2.2578  1.1603
  621SOL     OW 1861   2.568   1.962   0.084  0.1576  0.3156 -0.3607
  621SOL    HW1 1862   2.578   1.876   0.136  0.6926 -1.2976 -0.4853
  621SOL    HW2 1863   2.590   2.043   0.146 -0.1158  1.7512  2.3235
  622SOL     OW 1864   1.407   0.270   2.463  0.2187 -0.0694  0.0698
  622SOL    HW1 1865   1.406   0.183   2.411 -1.5785  0.1301  1.4491
  622SOL    HW2 1866   1.483   0.332   2.438  0.0907 -3.6383  2.6783
  623SOL     OW 1867   0.693   1.813   1.383  0.2809  0.0537 -0.2402
  623SOL    HW1 1868   0.790   1.840   1.399 -0.0734  1.7366  1.2280
  623SOL    HW2 1869   0.693   1.723   1.330  1.2367 -0.4928  1.0010
  624SOL     OW 1870   2.787   2.894   3.052  0.2063 -0.0175 -0.3451
  624SOL    HW1 1871   2.746   2.886   2.957 -1.7915 -0.5309  1.9803
  624SOL    HW2 1872   2.869   2.961   3.045  0.9091  1.9341  2.4442
  625SOL     OW 1873   0.811   2.143   0.589 -0.3964  0.0166 -0.1920
  625SOL    HW1 1874   0.834   2.050   0.636  0.7010 -2.8022  0.5735
  625SOL    HW2 1875   0.772   2.131   0.497  0.7586  1.2785 -0.5704
  626SOL     OW 1876   2.922   0.663   2.673  0.1825 -0.1379  0.0454
  626SOL    HW1 1877   2.890   0.598   2.603 -0.2822  1.6532  0.1920
  626SOL    HW2 1878   2.904   0.626   2.770 -0.2873  2.0362 -0.2392
  627SOL     OW 1879   1.342   2.093   3.014  0.2992 -0.2964 -0.3800
  627SOL    HW1 1880   1.420   2.155   3.041 -1.1975 -0.3897 -0.9488
  627SOL    HW2 1881   1.353   2.075   2.917  1.6266  0.8349  0.2187
  628SOL     OW 1882   2.986   2.442   3.014  0.8438 -0.5489  0.3345
  628SOL    HW1 1883   2.937   2.441   2.920 -1.7934  0.1814 -0.2652
  628SOL    HW2 1884   3.080   2.476   3.016 -2.6077 -1.8595  0.8799
  629SOL     OW 1885   0.598   2.814   2.725 -0.2563 -0.4823  0.2364
  629SOL    HW1 1886   0.691   2.770   2.710  1.1914  2.1177 -0.1792
  629SOL    HW2 1887   0.591   2.893   2.663 -0.5269 -0.7390  3.0973
  630SOL     OW 1888   1.055   0.237   1.879 -0.2311  0.2074 -0.7013
  630SOL    HW1 1889   1.006   0.148   1.890 -0.9284 -1.9872 -2.1874
  630SOL    HW2 1890   0.997   0.309   1.918  1.1889 -2.6042 -1.8078
  631SOL     OW 1891   2.046   0.944   0.327  0.2748  0.0084  0.0350
  631SOL    HW1 1892   2.105   1.011   0.283 -2.5494  0.4906 -1.0959
  631SOL    HW2 1893   2.024   0.982   0.421 -0.6405 -0.7826  3.7652
  632SOL     OW 1894   2.475   0.305   1.810  0.0596 -0.1070  0.1182
  632SOL    HW1 1895   2.527   0.329   1.725  1.0778 -0.0053  1.0274
  632SOL    HW2 1896   2.539   0.263   1.873 -2.2811  0.5782 -0.9563
  633SOL     OW 1897   1.132   1.274   0.372 -0.3961  0.4001 -0.9210
  633SOL    HW1 1898   1.082   1.268   0.462 -3.4472 -0.9653  1.7316
  633SOL    HW2 1899   1.159   1.181   0.340 -0.3352  1.0695  3.7274
  634SOL     OW 1900   2.678   2.611   2.392  1.0667  0.2717 -0.3162
  634SOL    HW1 1901   2.638   2.521   2.411  1.0951  0.4578  0.5253
  634SOL    HW2 1902   2.727   2.621   2.302 -0.9661  0.1679 -2.3114
  635SOL     OW 1903   1.828   0.596   0.379  0.1330 -0.2223  0.0061
  635SOL    HW1 1904   1.737   0.573   0.424 -0.5298 -2.8633 -0.0786
  635SOL    HW2 1905   1.902   0.552   0.437 -0.7311 -0.2608  0.7613
  636SOL     OW 1906   0.803   1.188   0.671 -0.3025  0.7516  0.4945
  636SOL    HW1 1907   0.728   1.242   0.714  0.1497 -0.0891 -1.4130
  636SOL    HW2 1908   0.772   1.102   0.622 -2.0751 -0.9868 -3.3707
  637SOL     OW 1909   2.551   2.236   0.231 -0.3863 -0.6885 -0.1066
  637SOL    HW1 1910   2.590   2.278   0.315  1.7638  0.8166 -1.0743
  637SOL    HW2 1911   2.619   2.244   0.153  2.0536  1.2499  0.5950
  638SOL     OW 1912   1.559   2.356   2.437  0.6923 -0.0831 -0.0144
  638SOL    HW1 1913   1.590   2.301   2.357  1.2668  0.5984  0.4965
  638SOL    HW2 1914   1.638   2.415   2.464  0.2340  1.1470  1.6427
  639SOL     OW 1915   1.440   1.928   0.593 -0.8324 -0.0176 -0.0461
  639SOL    HW1 1916   1.349   1.915   0.640  1.0907 -1.3248  0.2225
  639SOL    HW2 1917   1.516   1.880   0.647  1.5301 -0.5324  1.9062
  640SOL     OW 1918   1.829   0.171   0.422  0.1435 -0.2490 -0.2985
  640SOL    HW1 1919   1.912   0.137   0.372 -3.4361  2.2488 -1.7709
  640SOL    HW2 1920   1.851   0.264   0.453  0.1438 -2.0147  0.0328
  641SOL     OW 1921   2.814   0.153   0.102 -0.4206  0.2220  0.5650
  641SOL    HW1 1922   2.897   0.110   0.139  1.2760  1.2989  0.5646
  641SOL    HW2 1923   2.805   0.250   0.132 -0.6497 -1.1928 -1.0541
  642SOL     OW 1924   0.690   0.714   1.274 -0.2040  0.3216 -0.7484
  642SOL    HW1 1925   0.618   0.761   1.221 -2.5080  2.0831  3.1260
  642SOL    HW2 1926   0.657   0.706   1.371 -1.7194  0.3830  1.9498
  643SOL     OW 1927   0.694   1.443   2.449 -0.0945 -0.1179 -0.2023
  643SOL    HW1 1928   0.790   1.445   2.421  3.2248 -0.0634 -3.8014
  643SOL    HW2 1929   0.648   1.362   2.408 -1.1037  2.5423 -1.8406
  644SOL     OW 1930   1.575   2.162   0.579 -0.3386 -0.1133 -0.1909
  644SOL    HW1 1931   1.532   2.070   0.578  0.8687  4.6473 -1.1573
  644SOL    HW2 1932   1.541   2.218   0.502 -0.5306 -0.7287 -1.8197
  645SOL     OW 1933   1.468   1.928   0.303  0.3061  0.4971 -0.4905
  645SOL    HW1 1934   1.527   1.844   0.288 -0.1700 -1.4852  0.9383
  645SOL    HW2 1935   1.457   1.935   0.406  0.6386 -0.3151  1.6917
  646SOL     OW 1936   3.068   1.720   2.842  0.2223 -0.0960  0.2677
  646SOL    HW1 1937   3.060   1.823   2.865 -0.3331  2.4325 -1.5328
  646SOL    HW2 1938   0.024   1.670   2.914  0.5205 -2.2184 -1.4251
  647SOL     OW 1939   0.979   0.451   0.793 -0.2966  0.0674 -0.1182
  647SOL    HW1 1940   0.969   0.352   0.766  0.2829 -2.3309  1.4126
  647SOL    HW2 1941   0.954   0.513   0.716 -3.4421  0.4652 -0.2565
  648SOL     OW 1942   1.544   0.463   1.022 -0.4309 -0.2306 -0.1304
  648SOL    HW1 1943   1.558   0.556   0.976  2.1350  2.6836  2.3520
  648SOL    HW2 1944   1.609   0.394   0.981 -0.0146 -1.1270 -3.7100
  649SOL     OW 1945   0.939   1.669   0.261  0.5107 -0.0307  0.3643
  649SOL    HW1 1946   0.981   1.740   0.200 -0.6286  0.2484 -0.1203
  649SOL    HW2 1947   0.991   1.656   0.348 -1.9255 -1.8041  0.0766
  650SOL     OW 1948   2.376   1.528   1.787  0.6402  0.2692  0.0227
  650SOL    HW1 1949   2.359   1.623   1.822  0.0886  0.8137 -0.1010
  650SOL    HW2 1950   2.464   1.528   1.734  2.1906 -1.5510  4.3659
  651SOL     OW 1951   1.683   2.227   2.818  0.3941  0.1039 -0.3339
  651SOL    HW1 1952   1.763   2.278   2.777 -1.3116  1.6341  0.9333
  651SOL    HW2 1953   1.680   2.130   2.784  3.3434  2.6551  1.6187
  652SOL     OW 1954   2.596   1.711   0.217 -0.3818  0.1248 -0.3731
  652SOL    HW1 1955   2.527   1.670   0.154 -2.0631 -0.4151 -1.7423
  652SOL    HW2 1956   2.666   1.643   0.248  0.3746 -1.4085 -2.4616
  653SOL     OW 1957   0.250   0.251   0.709 -0.2197  0.0708 -0.1911
  653SOL    HW1 1958   0.344   0.294   0.709  2.8759  0.6010  0.7444
  653SOL    HW2 1959   0.251   0.158   0.750  3.0547 -0.4176 -0.2245
  654SOL     OW 1960   2.518   0.056   2.133 -0.0515 -0.6999  0.4342
  654SOL    HW1 1961   2.517   0.087   2.233 -0.6004 -3.1620  0.6548
  654SOL    HW2 1962   2.559   3.056   2.135 -0.2240 -2.7014  0.0441
  655SOL     OW 1963   0.554   2.766   1.003  0.0863  0.1071  0.4956
  655SOL    HW1 1964   0.455   2.748   0.992  0.6107  0.8928 -2.2625
  655SOL    HW2 1965   0.566   2.807   1.093 -1.5972 -0.0097  0.1045
  656SOL     OW 1966   2.916   3.032   2.642  0.1163  0.6180  0.0228
  656SOL    HW1 1967   2.875   3.007   2.550 -0.6495  0.2133 -1.1703
  656SOL    HW2 1968   3.017   3.024   2.648 -0.4809  0.3957  1.9958
  657SOL     OW 1969   2.974   0.903   0.020 -0.0340 -0.5411 -0.0160
  657SOL    HW1 1970   3.019   0.928   3.023 -1.6956 -0.4558 -1.9708
  657SOL    HW2 1971   3.022   0.825   0.069 -1.2076 -0.0485 -1.2102
  658SOL     OW 1972   2.385   1.960   1.262  0.1008 -0.1299 -0.3518
  658SOL    HW1 1973   2.368   2.042   1.321  0.9813 -1.6586  0.5939
  658SOL    HW2 1974   2.300   1.906   1.249 -0.1140  1.1315  2.3454
  659SOL     OW 1975   1.725   2.608   0.241  0.6481  0.9183  0.1015
  659SOL    HW1 1976   1.820   2.569   0.234 -0.6672  1.2311 -3.7910
  659SOL    HW2 1977   1.684   2.579   0.333 -0.4546 -3.3167  1.2524
  660SOL     OW 1978   1.618   0.976   2.543  0.6358 -0.8387  0.2516
  660SOL    HW1 1979   1.667   1.000   2.459 -1.6484 -1.1980  0.4235
  660SOL    HW2 1980   1.522   0.985   2.519  0.1007 -1.2402  0.1846
  661SOL     OW 1981   3.016   2.064   1.214 -0.6335  0.3267 -0.0202
  661SOL    HW1 1982   3.006   2.162   1.210  0.7042 -0.9661 -0.2197
  661SOL    HW2 1983   2.986   2.007   1.133 -1.2836 -0.7219  0.3003
  662SOL     OW 1984   0.501   0.697   0.092 -0.3815  0.5929  0.1510
  662SOL    HW1 1985   0.415   0.756   0.075 -0.3324 -0.8034 -0.3500
  662SOL    HW2 1986   0.492   0.643   0.179 -0.7732 -2.9016 -2.6069
  663SOL     OW 1987   2.029   2.049   1.202  0.3814  0.2196 -0.1949
  663SOL    HW1 1988   2.016   2.108   1.281 -1.9599 -3.7244 -2.1337
  663SOL    HW2 1989   2.071   1.968   1.246 -2.3242  0.0529 -1.9964
  664SOL     OW 1990   0.880   1.531   1.213  0.2666  0.3559 -0.0772
  664SOL    HW1 1991   0.823   1.453   1.183 -1.0339 -2.0340  4.0925
  664SOL    HW2 1992   0.967   1.527   1.161  0.8078  2.7815 -0.6430
  665SOL     OW 1993   1.821   2.540   1.963 -0.0628  0.0071 -0.0304
  665SOL    HW1 1994   1.744   2.610   1.958 -2.6568 -0.0401 -0.3705
  665SOL    HW2 1995   1.859   2.552   2.054 -2.8041 -1.3609  0.2153
  666SOL     OW 1996   2.947   2.815   0.424  0.1674  0.7920 -0.3859
  666SOL    HW1 1997   2.894   2.803   0.336 -0.4633 -0.3996 -6.3192
  666SOL    HW2 1998   2.884   2.851   0.498  1.8949  1.1630 -0.5310
  667SOL     OW 1999   2.647   1.470   1.689 -0.7826  0.0289 -0.0722
  667SOL    HW1 2000   2.693   1.475   1.601 -2.4493  0.8220  1.0074
  667SOL    HW2 2001   2.689   1.395   1.743  1.0402  1.3797 -0.9401
  668SOL     OW 2002   0.303   0.518   2.554 -0.0457  0.2044  0.8071
  668SOL    HW1 2003   0.295   0.437   2.609 -0.0459  1.3437 -1.0238
  668SOL    HW2 2004   0.227   0.576   2.570  3.4805 -1.1792 -1.6920
  669SOL     OW 2005   2.261   1.853   2.606  0.4285  0.3064  0.6955
  669SOL    HW1 2006   2.181   1.835   2.545 -2.5922 -1.1040 -2.0697
  669SOL    HW2 2007   2.251   1.795   2.688  1.7748  0.3802 -1.0133
  670SOL     OW 2008   2.580   1.431   2.204  0.0331 -0.1891  0.5157
  670SOL    HW1 2009   2.674   1.396   2.230  2.9942  1.7393  0.3210
  670SOL    HW2 2010   2.550   1.385   2.115  2.3544 -2.0799 -1.3320
  671SOL     OW 2011   0.109   1.807   0.856 -0.1293  0.0686 -0.4871
  671SOL    HW1 2012   0.038   1.763   0.913  1.4875  0.1615  2.3883
  671SOL    HW2 2013   0.082   1.795   0.757  0.2690 -1.7469  0.6754
  672SOL     OW 2014   2.375   0.696   1.989  0.6441  0.4612  0.3556
  672SOL    HW1 2015   2.322   0.738   1.910 -0.9685  0.6382 -0.4469
  672SOL    HW2 2016   2.470   0.737   1.985  2.6110 -0.2675  0.8388
  673SOL     OW 2017   2.578   2.684   2.069  0.2452 -0.6534  0.2655
  673SOL    HW1 2018   2.643   2.606   2.064 -1.5016 -2.3268 -0.7683
  673SOL    HW2 2019   2.594   2.750   1.989  0.1437  0.0232  0.6682
  674SOL     OW 2020   1.685   2.572   1.587 -0.9025 -0.1657 -0.0375
  674SOL    HW1 2021   1.627   2.514   1.647  0.6243  0.5305 -1.4830
  674SOL    HW2 2022   1.785   2.551   1.608  1.2541 -0.5045 -0.6182
  675SOL     OW 2023   0.549   0.825   1.043 -0.0476 -0.2168  0.3021
  675SOL    HW1 2024   0.555   0.929   1.037  1.2877 -0.8806 -2.8596
  675SOL    HW2 2025   0.607   0.786   0.969  0.9215  1.6709  0.4435
  676SOL     OW 2026   1.737   1.260   0.587  0.3752  0.1397 -0.3249
  676SOL    HW1 2027   1.692   1.176   0.629  0.1756 -0.8701  1.4792
  676SOL    HW2 2028   1.835   1.275   0.601  1.3736 -0.2517 -2.8497
  677SOL     OW 2029   2.981   1.476   2.431 -0.2938  0.2777  0.3288
  677SOL    HW1 2030   2.885   1.483   2.464 -1.4994  1.5317  0.1339
  677SOL    HW2 2031   3.004   1.378   2.416  0.1580 -3.1388 -0.6291
  678SOL     OW 2032   2.616   1.937   1.124  0.0393 -0.0816 -0.1425
  678SOL    HW1 2033   2.697   1.894   1.173  0.8832 -1.2622  0.2889
  678SOL    HW2 2034   2.537   1.935   1.190 -1.6828 -1.4676 -0.0095
  679SOL     OW 2035   2.019   2.555   0.485  0.3202  0.5967  0.1834
  679SOL    HW1 2036   2.111   2.593   0.507  1.4161 -0.3099  0.2663
  679SOL    HW2 2037   1.964   2.549   0.571 -3.2304  0.8694 -1.5007
  680SOL     OW 2038   3.000   2.196   2.080 -0.7118  0.2299 -0.5706
  680SOL    HW1 2039   3.042   2.184   1.986 -2.4705  0.3207 -0.0907
  680SOL    HW2 2040   3.067   2.238   2.146  1.2281 -3.6153  0.4551
  681SOL     OW 2041   0.074   1.315   1.761  0.0575  0.5327 -0.4482
  681SOL    HW1 2042   0.144   1.257   1.809 -0.5737  0.1062 -1.8560
  681SOL    HW2 2043   0.114   1.402   1.731 -3.1755 -2.2678 -1.2754
  682SOL     OW 2044   1.121   2.571   0.929  0.2140  0.2720  0.0694
  682SOL    HW1 2045   1.184   2.626   0.984 -1.2356 -1.6501 -2.1567
  682SOL    HW2 2046   1.117   2.608   0.833  2.1362 -2.2050 -2.9306
  683SOL     OW 2047   2.363   1.236   1.073 -0.6317  0.3654  0.0904
  683SOL    HW1 2048   2.462   1.264   1.057  1.9489  1.4822  0.0627
  683SOL    HW2 2049   2.325   1.298   1.145  0.7509 -1.4474 -0.7767
  684SOL     OW 2050   0.638   1.920   2.493  0.4348 -0.3117 -0.1542
  684SOL    HW1 2051   0.671   1.947   2.588 -0.2740 -1.1880  4.0748
  684SOL    HW2 2052   0.537   1.935   2.490 -0.2048  0.2767  0.3601
  685SOL     OW 2053   1.610   1.533   0.085 -0.4696  0.0018  0.4683
  685SOL    HW1 2054   1.625   1.432   0.074 -2.4777 -0.9641  0.1775
  685SOL    HW2 2055   1.576   1.576   3.087  1.8784 -0.3767 -0.1955
  686SOL     OW 2056   2.960   0.811   1.531  0.0869 -0.2685 -0.8748
  686SOL    HW1 2057   2.872   0.779   1.561  2.0916  1.8480 -2.5735
  686SOL    HW2 2058   2.957   0.853   1.437 -0.1092  2.6427  1.4822
  687SOL     OW 2059   0.950   2.224   2.812  0.2275 -0.6482 -0.0616
  687SOL    HW1 2060   0.991   2.281   2.888 -0.6206 -0.9367 -0.4336
  687SOL    HW2 2061   1.000   2.137   2.784 -2.8688  0.5665 -1.7236
  688SOL     OW 2062   0.171   2.056   2.081  0.7167  0.0693  0.2069
  688SOL    HW1 2063   0.156   2.006   1.991 -0.4559  0.0695 -0.2523
  688SOL    HW2 2064   0.103   2.042   2.159  1.0297 -0.5021  0.4388
  689SOL     OW 2065   2.042   0.684   1.786  0.2158  0.6609  0.0008
  689SOL    HW1 2066   1.976   0.755   1.784  4.0846 -2.6762 -2.1222
  689SOL    HW2 2067   1.998   0.592   1.793 -1.6796 -1.9286  1.1069
  690SOL     OW 2068   2.344   0.818   0.910  0.3148 -0.4218  0.4438
  690SOL    HW1 2069   2.295   0.778   0.990 -2.0420 -1.1772 -1.0934
  690SOL    HW2 2070   2.328   0.918   0.904  2.6298 -0.8717 -1.6820
  691SOL     OW 2071   0.712   1.608   1.808 -0.0888 -0.3843 -0.2052
  691SOL    HW1 2072   0.738   1.609   1.910 -1.3317 -0.3654  0.1757
  691SOL    HW2 2073   0.795   1.581   1.752  0.0999 -1.2439 -0.2981
  692SOL     OW 2074   2.147   0.373   1.398 -0.6004 -0.3878 -0.5282
  692SOL    HW1 2075   2.072   0.335   1.453 -0.4527 -0.0653  2.0815
  692SOL    HW2 2076   2.119   0.371   1.301  1.5109  0.8027  3.2308
  693SOL     OW 2077   0.521   1.170   2.390  0.2295  0.3317  0.2418
  693SOL    HW1 2078   0.546   1.084   2.337  2.1158 -0.7954  1.9306
  693SOL    HW2 2079   0.525   1.243   2.318 -1.3057  2.0345 -0.4200
  694SOL     OW 2080   1.649   0.009   1.035  0.1326 -0.3378  0.1474
  694SOL    HW1 2081   1.591   0.036   0.952  4.3785  0.4626 -0.9363
  694SOL    HW2 2082   1.722   3.043   1.009 -1.4620 -1.5499  1.6835
  695SOL     OW 2083   1.198   1.061   1.725 -0.1151 -0.7853 -0.1467
  695SOL    HW1 2084   1.199   0.977   1.665  1.2081 -1.9485 -1.0589
  695SOL    HW2 2085   1.272   1.050   1.795 -1.5789  0.7799 -0.4177
  696SOL     OW 2086   1.257   3.052   0.472 -0.3603 -0.9903  0.6434
  696SOL    HW1 2087   1.252   3.052   0.575 -0.6542  0.0555 -2.0778
  696SOL    HW2 2088   1.162   3.060   0.439  1.2414 -1.5905 -0.6519
  697SOL     OW 2089   0.982   0.617   0.569 -0.2287 -0.3526 -0.3296
  697SOL    HW1 2090   0.895   0.656   0.533 -0.7676 -2.3937  1.1316
  697SOL    HW2 2091   1.000   0.523   0.526  1.6434 -0.4057 -1.3027
  698SOL     OW 2092   1.300   1.157   2.500 -0.0216 -1.0016 -0.6294
  698SOL    HW1 2093   1.278   1.199   2.590  0.4036 -0.2160  0.8205
  698SOL    HW2 2094   1.317   1.058   2.509 -0.6782  0.2910  1.4674
  699SOL     OW 2095   1.470   1.449   1.322 -0.3570  0.4618  0.7737
  699SOL    HW1 2096   1.429   1.524   1.379 -0.1833  1.1893  1.4049
  699SOL    HW2 2097   1.428   1.439   1.229  1.2622 -0.1780  0.5520
  700SOL     OW 2098   1.384   0.142   0.329  0.2848  0.5308  0.2760
  700SOL    HW1 2099   1.317   0.084   0.377  2.6700 -1.0658 -0.3936
  700SOL    HW2 2100   1.478   0.106   0.338 -1.4518 -2.1460  0.2659
  701SOL     OW 2101   2.884   0.219   2.377  0.0985  0.2498  0.8286
  701SOL    HW1 2102   2.979   0.182   2.398 -3.5646  1.1095 -1.8674
  701SOL    HW2 2103   2.861   0.299   2.438  1.4121 -3.3289  2.2094
  702SOL     OW 2104   1.029   0.163   0.067  0.2202 -0.0219  0.2633
  702SOL    HW1 2105   1.041   0.263   0.063 -0.3148 -3.0267  1.1772
  702SOL    HW2 2106   1.114   0.106   0.077  1.0643 -1.9887  1.1062
  703SOL     OW 2107   2.269   2.893   2.332  0.6654  0.1813  0.0961
  703SOL    HW1 2108   2.208   2.825   2.291  1.3761 -1.0524  1.5666
  703SOL    HW2 2109   2.358   2.885   2.291 -2.6326 -0.2261  0.1681
  704SOL     OW 2110   0.749   2.165   1.038  0.0483 -0.1988 -0.0579
  704SOL    HW1 2111   0.674   2.220   0.991 -0.1370  1.7206  1.8052
  704SOL    HW2 2112   0.712   2.097   1.108 -2.2993 -1.2227  1.0337
  705SOL     OW 2113   2.652   0.229   1.984 -0.2310 -0.2038 -0.2518
  705SOL    HW1 2114   2.706   0.301   2.035 -1.3134  1.9743 -0.3656
  705SOL    HW2 2115   2.611   0.151   2.045 -0.6851 -1.6724  0.3614
  706SOL     OW 2116   1.650   0.012   0.295  0.0611  0.0739  0.1695
  706SOL    HW1 2117   1.720   0.059   0.352 -1.6915 -0.8693  0.2963
  706SOL    HW2 2118   1.650   0.038   0.198 -0.5367 -3.6239 -0.7878
  707SOL     OW 2119   1.290   1.968   2.216  0.0058  0.1123 -0.0404
  707SOL    HW1 2120   1.315   1.871   2.234 -0.5309  0.6352  0.0532
  707SOL    HW2 2121   1.282   2.017   2.303  3.4129 -1.2139  0.6543
  708SOL     OW 2122   3.089   2.132   1.828 -0.1642 -0.3289  0.8142
  708SOL    HW1 2123   0.045   2.218   1.868 -2.4742  2.5407  2.0814
  708SOL    HW2 2124   3.024   2.158   1.752  0.4058 -1.5462 -0.0845
  709SOL     OW 2125   1.833   0.064   1.892 -0.4234 -0.1634 -0.4167
  709SOL    HW1 2126   1.838   3.078   1.824  0.1292  2.2188  0.9660
  709SOL    HW2 2127   1.892   0.043   1.977 -0.1633 -3.0092 -2.0451
  710SOL     OW 2128   2.341   0.633   1.433  0.0037  0.1046  0.1948
  710SOL    HW1 2129   2.280   0.551   1.437 -4.5160  0.5027 -0.2456
  710SOL    HW2 2130   2.439   0.603   1.450 -1.7733 -0.3786  0.5173
  711SOL     OW 2131   0.426   1.941   0.517  0.2633  0.1511 -0.0137
  711SOL    HW1 2132   0.403   1.980   0.611  0.5045  0.7301  2.2708
  711SOL    HW2 2133   0.475   1.853   0.530 -1.7212  0.1408 -0.2818
  712SOL     OW 2134   0.559   2.643   2.359 -0.2859  0.2086  0.6207
  712SOL    HW1 2135   0.642   2.644   2.295  3.9639 -0.7436 -1.0421
  712SOL    HW2 2136   0.535   2.737   2.389  1.4869 -1.6338 -0.7003
  713SOL     OW 2137   1.909   0.945   3.016  0.2873  0.5415  0.2773
  713SOL    HW1 2138   1.851   0.931   2.937  1.3014 -0.7430  1.4452
  713SOL    HW2 2139   1.994   0.892   2.991 -2.1025 -2.2615  0.7557
  714SOL     OW 2140   1.108   1.884   1.194  0.3213  0.1816  0.3325
  714SOL    HW1 2141   1.048   1.896   1.111  0.6055  1.5650  0.7790
  714SOL    HW2 2142   1.065   1.938   1.272 -3.4575  0.2424 -3.3999
  715SOL     OW 2143   1.816   3.042   2.978 -0.0993  0.3336 -0.0557
  715SOL    HW1 2144   1.892   2.981   3.007 -0.2496  0.6303 -1.3049
  715SOL    HW2 2145   1.838   3.069   2.884  0.3234  0.3027  0.6013
  716SOL     OW 2146   0.070   0.191   1.863  0.1979 -0.3134 -0.0940
  716SOL    HW1 2147   0.031   0.257   1.796  0.2869 -1.7576 -0.8629
  716SOL    HW2 2148   0.035   0.212   1.956  1.5443 -0.4818  0.6768
  717SOL     OW 2149   0.276   1.014   0.192  0.0429 -0.2673 -0.2064
  717SOL    HW1 2150   0.262   0.952   0.114  1.7756 -0.4845 -0.0025
  717SOL    HW2 2151   0.309   1.104   0.159 -1.5789 -3.0993  0.7448
  718SOL     OW 2152   1.331   0.904   2.511 -0.4035  0.0692 -0.3914
  718SOL    HW1 2153   1.247   0.876   2.559  1.9033 -1.9631 -2.1373
  718SOL    HW2 2154   1.364   0.824   2.457 -0.7228  1.3729 -3.3229
  719SOL     OW 2155   2.844   1.625   3.039  0.2026  0.0857 -0.4867
  719SOL    HW1 2156   2.809   1.548   0.008 -1.8409 -2.8637 -0.6926
  719SOL    HW2 2157   2.872   1.588   2.949  2.0187 -1.7420  1.3884
  720SOL     OW 2158   1.244   0.711   1.079  0.1188 -0.3788  0.0024
  720SOL    HW1 2159   1.265   0.645   1.006 -0.6689 -1.0560  0.7751
  720SOL    HW2 2160   1.324   0.716   1.144  1.4936  1.5694 -0.2710
  721SOL     OW 2161   2.658   0.920   0.323 -0.6132 -0.7644  0.3014
  721SOL    HW1 2162   2.706   0.828   0.333  0.6447 -1.0736  2.1417
  721SOL    HW2 2163   2.733   0.982   0.286  3.9004  0.6463  1.4508
  722SOL     OW 2164   1.257   0.825   2.879 -0.0785  0.1358 -0.6918
  722SOL    HW1 2165   1.300   0.763   2.950  1.1145 -0.4601 -0.4574
  722SOL    HW2 2166   1.198   0.769   2.815 -0.0970 -1.2304  0.2145
  723SOL     OW 2167   0.147   1.099   0.431  0.4522  0.8319  0.6634
  723SOL    HW1 2168   0.209   1.161   0.488 -0.2040  0.3183 -0.9034
  723SOL    HW2 2169   0.199   1.062   0.349  0.4241 -0.0914  0.3426
  724SOL     OW 2170   0.669   1.883   2.088  0.2775 -0.1054 -0.0143
  724SOL    HW1 2171   0.587   1.856   2.144  1.0160 -1.4394  1.8634
  724SOL    HW2 2172   0.654   1.931   2.001  1.6107  2.1199 -1.0726
  725SOL     OW 2173   2.433   1.000   1.385  0.5677 -0.9566 -0.3974
  725SOL    HW1 2174   2.343   1.047   1.375 -0.6026 -0.2197 -2.3794
  725SOL    HW2 2175   2.443   0.959   1.480  1.5513 -2.4663  1.7063
  726SOL     OW 2176   1.750   2.818   0.567  0.1657  0.1814 -0.0162
  726SOL    HW1 2177   1.750   2.720   0.536 -0.6183 -2.3429 -1.3145
  726SOL    HW2 2178   1.668   2.868   0.539 -0.8845  0.5997  0.8742
  727SOL     OW 2179   1.105   0.952   2.083 -0.0142  0.5343  0.4716
  727SOL    HW1 2180   1.114   1.017   2.159 -2.2792 -0.2109 -0.3505
  727SOL    HW2 2181   1.189   0.972   2.025  2.5830 -1.3174  0.3198
  728SOL     OW 2182   1.244   2.664   1.156  0.0919  0.0418 -0.6862
  728SOL    HW1 2183   1.337   2.631   1.166 -1.8494  2.1613 -1.2237
  728SOL    HW2 2184   1.179   2.642   1.234 -1.5909  1.4930  0.9108
  729SOL     OW 2185   2.059   0.991   1.114 -0.2526  0.4450 -0.4022
  729SOL    HW1 2186   2.111   1.042   1.048 -1.5811 -2.8824 -2.1267
  729SOL    HW2 2187   2.067   0.888   1.102 -1.4349 -0.2064  0.9081
  730SOL     OW 2188   0.847   1.912   2.279 -0.4182  0.5731  0.0637
  730SOL    HW1 2189   0.771   1.913   2.212 -1.9960 -0.4302  0.7323
  730SOL    HW2 2190   0.810   1.925   2.375 -2.0397  1.5191  0.6533
  731SOL     OW 2191   0.484   0.385   0.661 -0.6100  0.1624 -0.3740
  731SOL    HW1 2192   0.527   0.318   0.594 -2.1824  1.4036  1.9536
  731SOL    HW2 2193   0.515   0.481   0.645 -0.9009  1.9229  1.1193
  732SOL     OW 2194   0.793   0.774   0.166  0.2792 -0.1357  0.2036
  732SOL    HW1 2195   0.733   0.816   0.091  1.2712  2.5748 -2.4462
  732SOL    HW2 2196   0.881   0.827   0.177  0.5124  1.4305 -0.4186
  733SOL     OW 2197   0.906   2.318   0.796  0.0160 -0.2593 -0.2382
  733SOL    HW1 2198   0.851   2.241   0.758  1.2167 -0.0768  1.3249
  733SOL    HW2 2199   0.972   2.284   0.866  1.9238  0.9869 -2.1972
  734SOL     OW 2200   0.072   2.081   2.649  0.6046 -0.5486 -0.2817
  734SOL    HW1 2201   0.065   2.088   2.548  0.3625  1.3063  2.4392
  734SOL    HW2 2202   0.105   2.177   2.677 -0.4003 -2.6898  0.6847
  735SOL     OW 2203   0.881   3.029   1.035  0.1211 -0.2867  0.1097
  735SOL    HW1 2204   0.955   2.982   1.079 -2.3814 -0.4402 -0.5205
  735SOL    HW2 2205   0.848   2.960   0.967 -0.6328  0.5917  0.2245
  736SOL     OW 2206   1.561   2.889   3.055  0.3980 -0.2465 -0.1744
  736SOL    HW1 2207   1.628   2.886   0.043  1.1097 -0.3416  0.2867
  736SOL    HW2 2208   1.609   2.937   2.980  3.2475 -0.6018  0.2735
  737SOL     OW 2209   2.848   0.321   0.422 -0.4433  0.6499 -0.0641
  737SOL    HW1 2210   2.900   0.404   0.437 -0.4746 -4.3392  0.9036
  737SOL    HW2 2211   2.779   0.327   0.348 -0.4400  0.0700 -1.6417
  738SOL     OW 2212   2.598   2.866   0.924  0.1583 -0.3212  0.0004
  738SOL    HW1 2213   2.697   2.890   0.946  1.5176  0.5160 -0.8956
  738SOL    HW2 2214   2.565   2.904   0.835  2.7665  0.9712  1.0662
  739SOL     OW 2215   1.501   2.304   0.333  0.1368  0.2901  0.2824
  739SOL    HW1 2216   1.577   2.236   0.310  0.5145  1.3781 -0.9267
  739SOL    HW2 2217   1.454   2.332   0.246 -1.6078 -1.8648 -1.0910
  740SOL     OW 2218   1.464   0.101   0.843 -0.0967 -0.6076 -0.8034
  740SOL    HW1 2219   1.382   0.062   0.794  1.7759  0.5652 -0.4638
  740SOL    HW2 2220   1.506   0.174   0.786 -1.5920  0.1553  0.6583
  741SOL     OW 2221   2.190   0.739   0.436 -0.1087  0.2584  0.0124
  741SOL    HW1 2222   2.134   0.817   0.399  1.4404  2.0024  0.8973
  741SOL    HW2 2223   2.178   0.662   0.376 -0.1876  1.8060 -2.5265
  742SOL     OW 2224   1.275   2.138   2.421  0.0236 -0.4998 -0.3388
  742SOL    HW1 2225   1.309   2.168   2.515 -1.0537  0.7064  0.4026
  742SOL    HW2 2226   1.275   2.223   2.357 -1.7660  1.5879 -0.1712
  743SOL     OW 2227   2.006   0.392   1.836 -0.4926  0.1237 -0.2094
  743SOL    HW1 2228   1.985   0.438   1.927 -0.9498  0.3005 -1.0276
  743SOL    HW2 2229   2.098   0.343   1.839  0.0877  0.5967 -2.3028
  744SOL     OW 2230   2.335   0.438   0.980  0.1577  0.6867  0.6240
  744SOL    HW1 2231   2.318   0.354   0.928 -0.3478  2.8517  0.5746
  744SOL    HW2 2232   2.408   0.494   0.931 -2.3242  1.9309  0.5252
  745SOL     OW 2233   1.742   1.322   1.645 -0.5508  0.1187  0.0690
  745SOL    HW1 2234   1.715   1.272   1.731  2.0601  2.2230  1.8323
  745SOL    HW2 2235   1.695   1.289   1.562  0.0631  0.2592  4.0167
  746SOL     OW 2236   1.648   1.378   1.029 -0.2697  0.4178  0.0921
  746SOL    HW1 2237   1.606   1.445   0.965 -0.4522 -0.6641 -0.7333
  746SOL    HW2 2238   1.654   1.288   0.982  0.5087  0.9981  0.0804
  747SOL     OW 2239   1.929   1.229   1.233  0.7956  0.1338  0.0002
  747SOL    HW1 2240   1.910   1.322   1.201  0.2636 -0.0817 -0.5209
  747SOL    HW2 2241   1.951   1.181   1.150 -2.6253  3.7352  2.0114
  748SOL     OW 2242   0.241   2.398   0.789 -0.2014  0.0840  0.5760
  748SOL    HW1 2243   0.272   2.378   0.881  2.3346 -0.0616 -0.1272
  748SOL    HW2 2244   0.320   2.413   0.730  0.3476 -0.8637  0.3386
  749SOL     OW 2245   2.894   2.942   2.371 -0.1180  0.3837 -0.1047
  749SOL    HW1 2246   2.923   3.012   2.296  0.4854  1.8751 -0.1018
  749SOL    HW2 2247   2.875   2.852   2.325  0.0361 -0.8615  2.2867
  750SOL     OW 2248   2.481   0.593   0.839  0.4054 -0.2685  0.2934
  750SOL    HW1 2249   2.578   0.590   0.863 -2.9664 -1.7733 -0.3679
  750SOL    HW2 2250   2.447   0.690   0.853 -2.3623  3.0372 -1.1971
  751SOL     OW 2251   2.647   0.409   0.252 -0.0203  0.4812  0.7702
  751SOL    HW1 2252   2.683   0.506   0.246 -0.2446 -1.2945  0.6738
  751SOL    HW2 2253   2.564   0.404   0.192 -2.1981 -0.1192  1.2853
  752SOL     OW 2254   0.231   2.805   0.906  0.0991  0.2148 -0.0714
  752SOL    HW1 2255   0.184   2.777   0.991  0.5049 -0.5411  1.2488
  752SOL    HW2 2256   0.206   2.741   0.832  2.0731 -0.4075 -0.8289
  753SOL     OW 2257   1.276   0.563   1.951 -0.0306  0.3605  0.2880
  753SOL    HW1 2258   1.319   0.476   1.984 -0.5099 -1.0592 -0.8439
  753SOL    HW2 2259   1.328   0.596   1.867 -0.0506  4.0870 -1.0302
  754SOL     OW 2260   1.835   2.275   1.910  0.2295  0.4599  0.1474
  754SOL    HW1 2261   1.825   2.376   1.936  0.0658 -1.3951  0.4781
  754SOL    HW2 2262   1.744   2.241   1.876  1.5033  0.5819  3.0486
  755SOL     OW 2263   2.641   0.858   0.669 -0.0827 -0.0767 -0.1803
  755SOL    HW1 2264   2.667   0.905   0.752 -0.0904 -0.1644 -1.5106
  755SOL    HW2 2265   2.574   0.914   0.620  0.9941 -1.5201  0.0155
  756SOL     OW 2266   1.546   1.433   2.606  0.1437 -0.0686 -0.0410
  756SOL    HW1 2267   1.472   1.480   2.655 -1.3683  0.2494 -0.7468
  756SOL    HW2 2268   1.596   1.499   2.550 -0.7202  0.2747 -2.8923
  757SOL     OW 2269   1.520   2.926   0.462  0.2526  0.1207  0.0752
  757SOL    HW1 2270   1.435   2.875   0.435  0.1367  1.6494  0.0787
  757SOL    HW2 2271   1.544   2.999   0.401  1.0721 -0.1169  0.7808
  758SOL     OW 2272   0.296   0.153   1.384  0.6559 -0.0877  0.6172
  758SOL    HW1 2273   0.203   0.108   1.364 -3.2194  0.8629 -0.8895
  758SOL    HW2 2274   0.311   0.232   1.318 -4.5525 -0.9412 -1.1267
  759SOL     OW 2275   0.270   0.955   1.256  0.2697  0.6798 -0.2551
  759SOL    HW1 2276   0.359   0.990   1.291 -0.7897  0.7691 -1.8847
  759SOL    HW2 2277   0.200   1.012   1.302  2.2426 -2.1362 -1.8643
  760SOL     OW 2278   2.244   1.077   0.905  0.2371  0.6546  0.1769
  760SOL    HW1 2279   2.276   1.097   0.810  1.0864 -0.1763 -0.2191
  760SOL    HW2 2280   2.306   1.130   0.967 -1.7613 -0.2807 -0.3954
  761SOL     OW 2281   1.400   0.987   0.795  0.4086  0.3518 -0.0991
  761SOL    HW1 2282   1.350   0.897   0.776 -0.8995 -3.3382 -2.3011
  761SOL    HW2 2283   1.462   0.973   0.877  1.8024 -1.3596  4.8235
  762SOL     OW 2284   2.294   2.203   1.368  0.1382 -0.4762 -0.2322
  762SOL    HW1 2285   2.195   2.194   1.378  0.4305 -1.8584 -1.6254
  762SOL    HW2 2286   2.319   2.287   1.317 -0.4751 -0.2776  0.2567
  763SOL     OW 2287   1.455   1.331   1.957 -0.3752  0.4523  0.2338
  763SOL    HW1 2288   1.537   1.271   1.921  1.0174  0.1762 -1.9252
  763SOL    HW2 2289   1.391   1.352   1.880  3.2744 -5.8591  1.0128
  764SOL     OW 2290   0.221   1.853   2.659 -0.1578 -0.0581 -0.1049
  764SOL    HW1 2291   0.230   1.769   2.721  0.2349 -0.6659  2.7001
  764SOL    HW2 2292   0.146   1.913   2.678  3.4156 -0.2778 -2.3896
  765SOL     OW 2293   0.723   2.570   1.309 -0.3048 -0.3207 -0.6604
  765SOL    HW1 2294   0.721   2.482   1.362  1.5112  2.3901 -1.4032
  765SOL    HW2 2295   0.730   2.563   1.204  1.5322 -1.8110 -1.6268
  766SOL     OW 2296   0.793   2.188   2.402  0.0390 -0.2140 -0.2151
  766SOL    HW1 2297   0.879   2.237   2.389  0.2046  1.2046  0.6058
  766SOL    HW2 2298   0.794   2.141   2.493 -0.4434 -2.2305 -3.0766
  767SOL     OW 2299   1.940   0.307   2.246  0.2606 -0.1172 -0.2390
  767SOL    HW1 2300   2.033   0.274   2.223 -2.3733  1.7506  1.5902
  767SOL    HW2 2301   1.930   0.299   2.348  0.6155  0.0406 -0.3909
  768SOL     OW 2302   1.157   2.576   3.024  0.3468  0.0501  0.2784
  768SOL    HW1 2303   1.104   2.494   3.046 -0.0277  2.8231  0.7023
  768SOL    HW2 2304   1.180   2.635   0.012 -0.1816 -0.0471  2.0432
  769SOL     OW 2305   0.119   2.669   1.145  0.3835  0.2324 -0.4375
  769SOL    HW1 2306   0.034   2.730   1.150  1.9764 -0.3404  0.4030
  769SOL    HW2 2307   0.108   2.574   1.168  1.9819  3.2459 -2.5147
  770SOL     OW 2308   0.472   2.910   2.929 -0.0652 -0.3912 -0.1878
  770SOL    HW1 2309   0.452   2.830   2.993  1.1925 -1.4526  0.7220
  770SOL    HW2 2310   0.491   2.871   2.834 -1.4309 -0.2962 -1.7185
  771SOL     OW 2311   0.913   2.472   2.664  0.2202  0.3004  0.3063
  771SOL    HW1 2312   0.921   2.395   2.735  0.2314 -0.1501  0.0407
  771SOL    HW2 2313   0.824   2.465   2.619  0.4267  0.9862 -1.4948
  772SOL     OW 2314   2.376   3.024   1.923  0.3595 -0.1344  0.4091
  772SOL    HW1 2315   2.357   3.061   2.017 -0.6720 -1.5400 -2.8368
  772SOL    HW2 2316   2.317   3.076   1.859  0.2247 -1.4572  3.7851
  773SOL     OW 2317   1.068   2.673   2.029 -0.1141 -0.5994 -0.1018
  773SOL    HW1 2318   1.094   2.576   2.033 -0.8245 -1.1934 -1.6254
  773SOL    HW2 2319   1.065   2.709   2.124  0.9965 -0.1721  0.6162
  774SOL     OW 2320   1.408   0.353   2.080  0.5693  1.0555  0.0928
  774SOL    HW1 2321   1.479   0.320   2.141 -2.0048 -1.1941 -4.1932
  774SOL    HW2 2322   1.389   0.281   2.011 -0.3469  0.0222 -1.1568
  775SOL     OW 2323   1.989   2.883   0.036 -0.5320  0.2862  0.2824
  775SOL    HW1 2324   2.066   2.824   0.075 -0.1272 -0.0976 -0.0403
  775SOL    HW2 2325   1.911   2.873   0.101 -0.0572 -0.2407  2.4406
  776SOL     OW 2326   2.258   0.842   1.803 -0.3224 -0.0911 -0.1135
  776SOL    HW1 2327   2.177   0.784   1.782  3.7065  1.3823 -0.4374
  776SOL    HW2 2328   2.226   0.935   1.813  3.3860 -2.0115  1.3200
  777SOL     OW 2329   2.761   1.104   2.284  0.0932 -0.7058  0.5725
  777SOL    HW1 2330   2.709   1.147   2.360  0.6961 -0.0437  2.6867
  777SOL    HW2 2331   2.705   1.093   2.202  0.7832 -0.9318 -1.1106
  778SOL     OW 2332   2.387   0.419   2.049  0.1750  0.3082  0.1598
  778SOL    HW1 2333   2.365   0.517   2.017  0.6836  2.3547 -1.9281
  778SOL    HW2 2334   2.423   0.362   1.968  2.8411  2.0224 -0.1989
  779SOL     OW 2335   2.994   3.049   3.024  0.1269  0.0933 -0.1484
  779SOL    HW1 2336   3.031   3.084   2.937  2.3934 -1.5413 -2.4427
  779SOL    HW2 2337   3.050   3.078   0.008  0.4002 -2.6954 -3.1807
  780SOL     OW 2338   2.049   3.060   2.394 -0.2565 -0.3131  0.2887
  780SOL    HW1 2339   2.137   3.008   2.379 -0.2468  2.0258  1.7657
  780SOL    HW2 2340   2.048   0.020   2.485 -1.7075  1.2515  1.2564
  781SOL     OW 2341   0.271   0.922   1.634  0.1991  0.2815 -0.8630
  781SOL    HW1 2342   0.283   0.840   1.579 -1.6385 -0.8518  0.6419
  781SOL    HW2 2343   0.345   0.988   1.627 -2.2839  0.4410 -0.8660
  782SOL     OW 2344   1.940   2.098   0.305 -0.2243 -0.1976  0.5414
  782SOL    HW1 2345   1.979   2.177   0.256 -0.5730  1.5052  2.6011
  782SOL    HW2 2346   2.007   2.055   0.367  2.2292  0.5079 -1.4581
  783SOL     OW 2347   0.945   1.743   1.499 -0.3546  0.0468 -0.1638
  783SOL    HW1 2348   1.024   1.797   1.531 -0.6996  0.0003 -0.0315
  783SOL    HW2 2349   0.976   1.679   1.427 -1.8074 -1.3857  0.3443
  784SOL     OW 2350   1.954   0.571   2.099  0.5851  0.3038  0.3139
  784SOL    HW1 2351   1.968   0.515   2.182 -1.2960  1.4067  1.5375
  784SOL    HW2 2352   2.028   0.641   2.087  1.3951  3.8318 -1.2091
  785SOL     OW 2353   3.031   0.316   0.972 -0.6583 -0.1483  0.1319
  785SOL    HW1 2354   3.004   0.306   1.070 -1.7908  1.5977 -0.8218
  785SOL    HW2 2355   2.997   0.408   0.942  0.1984  2.7923  3.6716
  786SOL     OW 2356   1.748   2.873   0.170 -0.1503  0.4847 -0.1649
  786SOL    HW1 2357   1.698   2.938   0.233 -3.5412  1.1697  1.4220
  786SOL    HW2 2358   1.739   2.773   0.191  0.2967 -1.5662  0.0642
  787SOL     OW 2359   1.192   0.079   0.729 -0.2513 -0.2364 -0.1934
  787SOL    HW1 2360   1.208   0.159   0.670  1.3614 -0.6713  1.0618
  787SOL    HW2 2361   1.097   0.092   0.769 -0.3346  0.6674  2.0806
  788SOL     OW 2362   0.113   1.914   1.379 -0.0447  0.6010  0.0697
  788SOL    HW1 2363   0.051   1.969   1.318 -0.6621  0.7086  1.4014
  788SOL    HW2 2364   0.197   1.883   1.333 -2.3411 -1.6548 -1.6395
  789SOL     OW 2365   2.823   0.647   2.061  0.1308 -0.1902  0.5209
  789SOL    HW1 2366   2.801   0.551   2.089 -0.5400  0.5612  1.5184
  789SOL    HW2 2367   2.837   0.707   2.140 -0.1497 -1.3256 -3.3922
  790SOL     OW 2368   0.651   0.728   2.762 -0.0657 -0.2712  0.4899
  790SOL    HW1 2369   0.694   0.709   2.671 -0.9724  1.7863  1.9547
  790SOL    HW2 2370   0.597   0.644   2.785 -0.9372  0.8341 -1.3356
  791SOL     OW 2371   2.655   0.431   3.031 -0.7907  0.2518 -0.2730
  791SOL    HW1 2372   2.704   0.350   2.987 -1.5646 -1.0709 -1.8507
  791SOL    HW2 2373   2.595   0.404   0.021  0.6630 -0.3054  1.4272
  792SOL     OW 2374   1.479   0.668   1.217 -0.2254 -0.1518  0.6533
  792SOL    HW1 2375   1.503   0.589   1.162 -0.5392 -0.4364  0.3653
  792SOL    HW2 2376   1.568   0.698   1.262  2.3585 -1.6179  2.5871
  793SOL     OW 2377   2.840   0.127   1.793  0.7409  0.3716 -0.4943
  793SOL    HW1 2378   2.770   0.148   1.865  0.1876  0.7156 -0.3722
  793SOL    HW2 2379   2.877   0.207   1.743 -2.0554 -2.5976  2.4589
  794SOL     OW 2380   2.952   0.005   2.161 -0.7069  0.2589 -0.1134
  794SOL    HW1 2381   2.976   0.102   2.167 -0.3286  0.6737  1.3066
  794SOL    HW2 2382   2.940   3.069   2.066 -0.2320 -0.1541  2.2337
  795SOL     OW 2383   0.566   2.246   2.673 -0.2101 -0.2771 -0.4331
  795SOL    HW1 2384   0.595   2.329   2.622 -1.8843 -1.9616 -0.2898
  795SOL    HW2 2385   0.649   2.189   2.694 -0.8034  1.9816  1.4855
  796SOL     OW 2386   1.879   0.611   2.545 -0.4179  0.2043 -0.0267
  796SOL    HW1 2387   1.836   0.636   2.453  0.8524 -0.0688 -0.8444
  796SOL    HW2 2388   1.811   0.615   2.619  1.7871 -3.2736 -0.4754
  797SOL     OW 2389   2.350   2.049   3.051  0.4903 -0.4391 -0.4213
  797SOL    HW1 2390   2.346   2.152   3.040  2.4968  0.2654  2.5421
  797SOL    HW2 2391   2.438   2.024   0.011 -3.2094  0.1889  0.5648
  798SOL     OW 2392   0.009   0.561   1.550 -0.3531  0.0799 -0.1421
  798SOL    HW1 2393   0.079   0.544   1.479  1.9664 -0.6206  1.8000
  798SOL    HW2 2394   3.043   0.646   1.537 -2.4153 -0.0873 -0.4436
  799SOL     OW 2395   0.542   0.246   1.757  0.2895  0.1359 -0.0532
  799SOL    HW1 2396   0.631   0.290   1.780 -0.5503  0.3982 -2.4570
  799SOL    HW2 2397   0.551   0.143   1.736  0.8218 -1.1174  0.2387
  800SOL     OW 2398   3.059   2.369   0.310  0.2499  0.5515 -0.2475
  800SOL    HW1 2399   3.018   2.314   0.392 -0.0186  1.4010  1.1215
  800SOL    HW2 2400   0.013   2.303   0.247 -2.0314 -0.0373  1.5096
  801SOL     OW 2401   1.612   1.820   0.775 -0.0416  0.1140 -0.0218
  801SOL    HW1 2402   1.596   1.897   0.836  3.8870 -1.3816 -1.6467
  801SOL    HW2 2403   1.575   1.736   0.814  0.2091  1.2049 -0.0931
  802SOL     OW 2404   0.844   0.500   0.214  0.0853  0.2480 -0.1332
  802SOL    HW1 2405   0.761   0.438   0.198  2.3240 -0.4869  1.4485
  802SOL    HW2 2406   0.820   0.597   0.203  1.3310 -2.8543 -0.6288
  803SOL     OW 2407   1.265   1.316   1.750  0.1876 -0.2967  0.1170
  803SOL    HW1 2408   1.215   1.228   1.769 -1.3751  2.0277 -1.6489
  803SOL    HW2 2409   1.303   1.307   1.654  2.4591  0.1207 -0.5595
  804SOL     OW 2410   1.680   2.205   1.445 -0.3652  0.3787 -0.7566
  804SOL    HW1 2411   1.761   2.257   1.479  0.6620  2.5787 -0.9713
  804SOL    HW2 2412   1.669   2.221   1.345 -3.4379 -2.6839 -2.7372
  805SOL     OW 2413   3.069   2.165   2.396 -0.0206 -0.0778  0.3515
  805SOL    HW1 2414   3.076   2.070   2.355 -0.3408 -0.7478 -0.6757
  805SOL    HW2 2415   0.030   2.238   2.339 -0.8046  0.6834 -1.6697
  806SOL     OW 2416   0.832   2.651   0.260 -0.1645 -0.7354 -0.1522
  806SOL    HW1 2417   0.896   2.708   0.209 -3.7930  0.1301  2.9870
  806SOL    HW2 2418   0.801   2.566   0.220 -0.5813  0.9650 -1.2349
  807SOL     OW 2419   2.514   0.978   2.832 -0.5312  0.4305 -0.1103
  807SOL    HW1 2420   2.549   1.021   2.916 -2.7731 -1.6966  0.2108
  807SOL    HW2 2421   2.459   0.899   2.864  2.2074 -0.1437  1.0713
  808SOL     OW 2422   1.478   1.961   0.989  0.0681 -0.2664  0.5102
  808SOL    HW1 2423   1.544   2.036   0.968 -0.8214 -2.0496 -0.9154
  808SOL    HW2 2424   1.429   1.994   1.068  2.4302 -0.7094 -1.7796
  809SOL     OW 2425   0.091   0.482   0.674 -0.2319 -0.1437  0.1506
  809SOL    HW1 2426   0.005   0.493   0.733  3.6426 -0.4732  1.4251
  809SOL    HW2 2427   0.134   0.394   0.706  1.9641 -0.3902 -2.8028
  810SOL     OW 2428   1.357   1.208   0.063  0.3868 -0.2678  0.0116
  810SOL    HW1 2429   1.453   1.223   0.036 -2.4084 -0.1903 -0.0708
  810SOL    HW2 2430   1.352   1.215   0.162  0.6496  1.0254  1.9971
  811SOL     OW 2431   1.431   2.859   1.352  0.0172  0.9913 -0.5977
  811SOL    HW1 2432   1.505   2.791   1.356 -1.9760 -0.1902 -0.5192
  811SOL    HW2 2433   1.351   2.821   1.405 -1.8158 -1.4857  2.2396
  812SOL     OW 2434   1.307   0.328   0.633  0.4315  0.2432  0.2886
  812SOL    HW1 2435   1.288   0.361   0.533 -1.2518 -0.8471 -3.6093
  812SOL    HW2 2436   1.270   0.397   0.700  0.7303  1.3309  0.8955
  813SOL     OW 2437   1.228   2.994   2.317 -0.9711 -0.3341  0.6414
  813SOL    HW1 2438   1.183   3.061   2.382 -2.2184  2.7245 -0.6059
  813SOL    HW2 2439   1.199   3.012   2.219  0.3710 -0.7642  3.1789
  814SOL     OW 2440   1.272   2.746   1.522  0.1654  0.5628 -0.5483
  814SOL    HW1 2441   1.239   2.653   1.542  0.1569  4.2107 -1.6793
  814SOL    HW2 2442   1.276   2.798   1.606 -0.8994 -3.6634  0.9091
  815SOL     OW 2443   0.030   2.713   0.007  0.1139  0.5551  0.4344
  815SOL    HW1 2444   3.029   2.764   0.005  1.3185  0.3697 -2.8833
  815SOL    HW2 2445   0.038   2.673   0.100 -1.2290  0.6970 -0.7193
  816SOL     OW 2446   2.339   1.282   2.779 -0.1557 -0.0922 -0.0905
  816SOL    HW1 2447   2.256   1.337   2.747 -0.7195  0.2089  0.8884
  816SOL    HW2 2448   2.341   1.188   2.730 -0.5545 -1.6654 -0.5223
  817SOL     OW 2449   2.271   2.121   2.461 -0.0076  0.0897  0.3043
  817SOL    HW1 2450   2.191   2.075   2.509  0.2070  0.7267 -0.0883
  817SOL    HW2 2451   2.342   2.141   2.526 -0.8673 -0.5956 -2.2831
  818SOL     OW 2452   1.048   0.894   0.116  0.5331 -0.2507 -0.0171
  818SOL    HW1 2453   1.091   0.963   0.178 -0.1411 -0.0962 -1.0130
  818SOL    HW2 2454   1.038   0.928   0.019  2.9079 -1.5298 -0.0390
  819SOL     OW 2455   1.645   1.268   3.073  0.0373  0.1870  0.1360
  819SOL    HW1 2456   1.615   1.276   2.975 -0.0726 -1.4784  1.6009
  819SOL    HW2 2457   1.736   1.235   3.090 -1.4509  1.2988 -1.3741
  820SOL     OW 2458   0.235   0.806   0.734  0.0755 -0.2035 -0.4709
  820SOL    HW1 2459   0.259   0.727   0.798  0.0527  1.7028  1.3337
  820SOL    HW2 2460   0.261   0.787   0.639  1.5040 -1.2355  2.6062
  821SOL     OW 2461   0.350   2.988   1.526  0.7118 -0.1931 -0.7290
  821SOL    HW1 2462   0.348   3.075   1.471  1.7844  1.8549 -1.5349
  821SOL    HW2 2463   0.308   2.909   1.475  0.0817  4.0177  0.4837
  822SOL     OW 2464   1.914   1.976   2.906  0.4689  0.0361 -0.2007
  822SOL    HW1 2465   1.927   2.073   2.941 -2.5326  1.3839  1.4325
  822SOL    HW2 2466   1.860   1.983   2.820 -1.3846  1.4519 -0.3091
  823SOL     OW 2467   0.835   0.578   2.130  0.2671 -0.4734  0.0781
  823SOL    HW1 2468   0.915   0.548   2.073  0.8747 -1.1277  1.8120
  823SOL    HW2 2469   0.843   0.675   2.164  0.4400  1.9648 -0.3266
  824SOL     OW 2470   2.455   3.085   1.526 -0.0309 -0.5291  0.0059
  824SOL    HW1 2471   2.443   0.085   1.480  1.9437  1.0332 -1.6557
  824SOL    HW2 2472   2.366   3.048   1.541 -0.0183  0.4035  1.2914
  825SOL     OW 2473   0.267   1.438   2.412 -0.4537  0.2077  0.8405
  825SOL    HW1 2474   0.321   1.516   2.439  1.2768 -0.1961  0.6802
  825SOL    HW2 2475   0.188   1.470   2.352 -0.9018 -0.5676 -2.0134
  826SOL     OW 2476   1.625   0.426   2.667 -0.2373  0.4133  0.0073
  826SOL    HW1 2477   1.607   0.466   2.571 -0.2557 -0.1110 -3.8020
  826SOL    HW2 2478   1.638   0.322   2.652 -0.4085 -1.4966 -0.0434
  827SOL     OW 2479   0.375   2.489   2.259 -0.3181  0.3772 -0.4677
  827SOL    HW1 2480   0.432   2.417   2.214 -1.1269 -1.0878  1.0184
  827SOL    HW2 2481   0.437   2.568   2.272 -0.8356 -0.2901 -2.1783
  828SOL     OW 2482   3.017   0.158   1.457  0.1678 -0.3942 -0.1282
  828SOL    HW1 2483   3.057   0.122   1.544 -1.9740 -1.1767  3.8632
  828SOL    HW2 2484   2.937   0.108   1.427  1.3910  0.9563  0.5535
  829SOL     OW 2485   1.239   1.561   1.872 -0.3169  0.2073  0.0902
  829SOL    HW1 2486   1.246   1.469   1.829 -1.7832 -2.2310  0.0906
  829SOL    HW2 2487   1.145   1.580   1.906  0.4919 -1.6549 -0.7832
  830SOL     OW 2488   0.995   0.956   1.398  0.3303 -0.1160  0.0160
  830SOL    HW1 2489   0.968   0.910   1.312 -2.1550  0.7929 -1.2825
  830SOL    HW2 2490   0.903   0.972   1.449 -1.9584 -0.3360 -0.4054
  831SOL     OW 2491   2.977   1.950   0.325  0.0448  0.0002  0.0301
  831SOL    HW1 2492   2.984   1.871   0.260 -2.2091 -2.7057 -0.9986
  831SOL    HW2 2493   2.916   1.926   0.404  2.7962  1.5697 -2.0686
  832SOL     OW 2494   1.205   2.516   0.261 -0.5280  0.3000  0.1380
  832SOL    HW1 2495   1.130   2.448   0.259  0.4334  0.9571 -2.0317
  832SOL    HW2 2496   1.280   2.490   0.200 -1.2105 -0.1626 -1.1091
  833SOL     OW 2497   0.130   0.453   1.759  0.3547  0.3036 -0.0665
  833SOL    HW1 2498   0.219   0.406   1.731  2.2658 -0.0997  0.1094
  833SOL    HW2 2499   0.091   0.503   1.676 -2.2565  1.6812 -0.7749
  834SOL     OW 2500   3.034   0.814   1.034  0.1013  0.1139  0.0567
  834SOL    HW1 2501   0.031   0.761   1.048  1.8750 -0.9889 -1.6462
  834SOL    HW2 2502   3.028   0.840   0.932 -2.8858 -0.3121 -1.5145
  835SOL     OW 2503   2.535   0.195   0.365  0.0232 -0.2172  0.2437
  835SOL    HW1 2504   2.585   0.284   0.351  0.0520  0.0145  1.8301
  835SOL    HW2 2505   2.577   0.118   0.310 -0.8584 -2.1389  0.6443
  836SOL     OW 2506   1.049   1.991   2.752  0.0252 -0.1256 -0.7698
  836SOL    HW1 2507   1.003   1.912   2.797 -2.9894  1.3987  0.1093
  836SOL    HW2 2508   1.038   1.976   2.653 -0.7626 -2.3975  2.7464
  837SOL     OW 2509   1.684   1.756   0.265 -0.1970 -0.1411  0.9815
  837SOL    HW1 2510   1.723   1.734   0.357 -0.9861 -2.2971 -0.0323
  837SOL    HW2 2511   1.656   1.670   0.216  1.6472  0.3631  2.3765
  838SOL     OW 2512   2.586   0.870   2.398  0.1331  0.0299 -0.3608
  838SOL    HW1 2513   2.627   0.888   2.491  0.1628 -1.6893 -1.1523
  838SOL    HW2 2514   2.541   0.954   2.357 -0.3649  2.0829 -3.0992
  839SOL     OW 2515   0.869   1.109   2.310 -0.1408 -0.2114  0.0596
  839SOL    HW1 2516   0.965   1.130   2.327 -1.0739 -0.6930  1.3505
  839SOL    HW2 2517   0.816   1.128   2.392 -1.0135  3.3886 -1.9184
  840SOL     OW 2518   0.894   0.851   2.799 -0.9925  0.0225 -0.3136
  840SOL    HW1 2519   0.896   0.918   2.877 -0.3472 -2.0543 -0.9962
  840SOL    HW2 2520   0.809   0.797   2.806  0.2439  1.1339 -3.3026
  841SOL     OW 2521   0.850   2.587   0.783 -0.4051  0.0151  0.5883
  841SOL    HW1 2522   0.853   2.610   0.684 -1.1529 -0.7947 -1.8526
  841SOL    HW2 2523   0.880   2.492   0.794 -0.3550  2.2803  1.6185
  842SOL     OW 2524   0.343   0.648   0.926 -0.4125 -0.4340 -0.0035
  842SOL    HW1 2525   0.409   0.721   0.953  0.4696  2.6695 -3.0572
  842SOL    HW2 2526   0.383   0.555   0.919 -0.9046 -1.7453 -0.7945
  843SOL     OW 2527   0.740   0.989   1.509 -0.0980  0.0895  0.1733
  843SOL    HW1 2528   0.665   0.918   1.506 -2.2795  0.5379 -1.4613
  843SOL    HW2 2529   0.716   1.069   1.572  0.3012 -0.8536  1.7289
  844SOL     OW 2530   2.149   2.462   2.754 -0.3414  0.2245 -0.2110
  844SOL    HW1 2531   2.092   2.544   2.785 -1.0492  1.5109  1.9530
  844SOL    HW2 2532   2.190   2.478   2.658  0.6699  0.6674 -2.1225
  845SOL     OW 2533   2.194   2.982   1.483  0.1687 -0.3344  0.3444
  845SOL    HW1 2534   2.207   3.026   1.391  0.1065 -1.2066  0.9326
  845SOL    HW2 2535   2.132   2.900   1.482 -2.7570 -1.9220  0.7904
  846SOL     OW 2536   1.932   0.976   2.471  0.2335  0.1337 -0.0597
  846SOL    HW1 2537   1.903   0.895   2.413  0.5462 -0.2537 -1.0782
  846SOL    HW2 2538   2.013   0.957   2.529 -0.3779  3.9160  3.8233
  847SOL     OW 2539   2.552   2.846   1.849  0.4204 -0.6876 -0.5435
  847SOL    HW1 2540   2.486   2.926   1.862 -1.3891  1.8555 -2.2511
  847SOL    HW2 2541   2.573   2.835   1.751 -0.6654 -0.8521  1.5568
  848SOL     OW 2542   2.791   2.771   0.206 -0.6873  0.4319  0.2685
  848SOL    HW1 2543   2.798   2.670   0.188 -0.2872  1.1273 -1.0456
  848SOL    HW2 2544   2.784   2.818   0.117 -1.5146 -0.8215 -0.5238
  849SOL     OW 2545   0.270   3.089   0.872  0.0721  0.0641  0.1436
  849SOL    HW1 2546   0.244   3.000   0.911 -2.5384  0.1615  0.4944
  849SOL    HW2 2547   0.355   0.033   0.906 -3.3668 -4.3948 -2.7859
  850SOL     OW 2548   0.589   2.245   0.790  0.0421  0.1210 -0.2186
  850SOL    HW1 2549   0.546   2.300   0.715  0.5232 -0.2799  3.5974
  850SOL    HW2 2550   0.678   2.210   0.760 -3.3520  1.8230  0.1422
  851SOL     OW 2551   2.067   0.272   0.101 -0.3260  0.0244 -0.0625
  851SOL    HW1 2552   2.094   0.195   0.038 -0.7360  0.5295 -0.8478
  851SOL    HW2 2553   1.969   0.299   0.079 -1.0605  1.8211  1.0904
  852SOL     OW 2554   1.767   1.980   2.682  0.1353 -0.1143  0.1024
  852SOL    HW1 2555   1.684   1.931   2.656  1.1523  1.3795  0.2484
  852SOL    HW2 2556   1.838   1.963   2.615 -0.0223 -1.6909  1.4852
  853SOL     OW 2557   0.040   2.130   0.205  0.1575  0.2715 -0.7700
  853SOL    HW1 2558   3.060   2.064   0.240  1.2798  0.9001  1.3247
  853SOL    HW2 2559   0.123   2.104   0.258 -2.2122  2.0614  0.1683
  854SOL     OW 2560   1.670   0.588   1.990  0.1331 -0.4424  0.3893
  854SOL    HW1 2561   1.620   0.504   2.011 -0.2453  0.6729  0.8287
  854SOL    HW2 2562   1.767   0.564   1.989  0.4812 -0.8607  2.5171
  855SOL     OW 2563   0.235   2.715   0.460  0.2547 -0.3354 -0.4371
  855SOL    HW1 2564   0.333   2.688   0.446 -1.5731 -0.9033 -2.8153
  855SOL    HW2 2565   0.199   2.717   0.370  1.9939  0.8787 -0.7809
  856SOL     OW 2566   0.211   2.873   2.455  0.1290 -0.5783  0.6849
  856SOL    HW1 2567   0.181   2.943   2.520  2.0080 -1.2101  0.3714
  856SOL    HW2 2568   0.309   2.886   2.422  1.0385  2.2748 -1.3021
  857SOL     OW 2569   0.803   0.021   1.660 -0.5560  0.2839 -0.1186
  857SOL    HW1 2570   0.779   0.067   1.570  0.1524  1.3562  4.0080
  857SOL    HW2 2571   0.721   3.070   1.703  0.1223  0.4818  0.2122
  858SOL     OW 2572   0.385   2.195   2.019  0.0283  0.3086  0.2284
  858SOL    HW1 2573   0.309   2.131   2.041  1.7552 -1.9077 -1.1713
  858SOL    HW2 2574   0.380   2.216   1.916 -1.0093  0.3402 -0.1518
  859SOL     OW 2575   1.938   2.512   1.695 -0.5851 -0.4407  0.1240
  859SOL    HW1 2576   1.916   2.541   1.791  0.9595  3.8824  2.7420
  859SOL    HW2 2577   1.977   2.419   1.689 -0.4295  2.1238  0.1257
  860SOL     OW 2578   1.603   0.536   0.511  0.3797 -0.1737 -0.7514
  860SOL    HW1 2579   1.504   0.567   0.503 -0.0154  0.6623  0.6703
  860SOL    HW2 2580   1.630   0.514   0.611  0.9937 -0.7743  2.8705
  861SOL     OW 2581   2.972   0.546   0.846  0.4877  0.1926  0.5863
  861SOL    HW1 2582   2.999   0.642   0.859 -1.0614 -0.9326  0.9926
  861SOL    HW2 2583   2.895   0.537   0.779  2.1900  0.1621 -1.1913
  862SOL     OW 2584   1.929   0.927   1.352  0.0054 -0.8937  0.7040
  862SOL    HW1 2585   1.967   0.972   1.267  0.2838 -1.1317 -0.7708
  862SOL    HW2 2586   2.000   0.872   1.400  0.8643 -1.2800 -1.3000
  863SOL     OW 2587   0.737   1.174   1.213  0.5273  0.1695 -0.4071
  863SOL    HW1 2588   0.717   1.116   1.291  1.6840 -0.4336 -0.9640
  863SOL    HW2 2589   0.837   1.170   1.193 -1.3082  0.6482  0.2126
  864SOL     OW 2590   2.855   2.730   2.214 -0.0415 -0.4234  0.6941
  864SOL    HW1 2591   2.930   2.667   2.186  0.9921  0.2072 -1.4817
  864SOL    HW2 2592   2.822   2.789   2.134 -1.4056 -0.1729  0.8207
  865SOL     OW 2593   1.159   0.396   2.219  0.0063 -0.4427 -0.2494
  865SOL    HW1 2594   1.141   0.497   2.216  1.9671  1.7411 -0.0640
  865SOL    HW2 2595   1.248   0.379   2.173 -3.5235 -0.6434 -0.1180
  866SOL     OW 2596   2.365   2.901   0.267 -0.1471 -0.6564 -0.4949
  866SOL    HW1 2597   2.304   2.962   0.323  0.9449  3.4204  0.8594
  866SOL    HW2 2598   2.425   2.861   0.334 -0.9347  2.4273  0.3284
  867SOL     OW 2599   2.574   2.813   0.487 -0.2740  0.5775  0.4204
  867SOL    HW1 2600   2.593   2.713   0.484 -0.2746 -1.7239  0.2992
  867SOL    HW2 2601   2.653   2.856   0.533  1.2918 -0.6229  1.1424
  868SOL     OW 2602   1.850   1.347   2.811  0.0262  0.3844 -0.0686
  868SOL    HW1 2603   1.911   1.282   2.859  2.5082 -1.9270  0.1071
  868SOL    HW2 2604   1.752   1.310   2.816 -2.7238 -0.4056 -0.4577
  869SOL     OW 2605   2.709   2.566   0.476  0.2353  0.1168 -0.4281
  869SOL    HW1 2606   2.686   2.473   0.436 -1.4447 -1.5801  3.6476
  869SOL    HW2 2607   2.770   2.620   0.420 -3.6374 -4.2306  1.1392
  870SOL     OW 2608   2.537   2.150   0.627 -0.1042 -0.2537 -0.5246
  870SOL    HW1 2609   2.487   2.151   0.713  0.8327 -3.2833 -0.4719
  870SOL    HW2 2610   2.577   2.057   0.611 -1.1156 -0.2150  0.5595
  871SOL     OW 2611   0.542   1.347   1.165  0.3649  0.2167 -0.2314
  871SOL    HW1 2612   0.622   1.282   1.174  1.6630  0.6645 -0.9724
  871SOL    HW2 2613   0.458   1.311   1.215 -0.4831  0.4312  1.3645
  872SOL     OW 2614   1.284   1.725   2.487 -0.2537  0.4230  0.4050
  872SOL    HW1 2615   1.187   1.727   2.455  1.2421 -2.6782 -0.3269
  872SOL    HW2 2616   1.350   1.737   2.407  1.1413 -0.1917 -2.1670
  873SOL     OW 2617   0.747   2.666   2.171 -0.5729 -0.0559  0.1295
  873SOL    HW1 2618   0.733   2.724   2.088  0.3031 -1.5870  1.5085
  873SOL    HW2 2619   0.778   2.570   2.145 -2.9550 -0.7245  0.3107
  874SOL     OW 2620   0.851   0.496   1.231  0.4936 -0.4300 -0.0967
  874SOL    HW1 2621   0.792   0.581   1.223 -0.4985  0.8750  0.2359
  874SOL    HW2 2622   0.816   0.441   1.307 -0.1843 -0.0332 -0.5371
  875SOL     OW 2623   2.974   0.328   1.246 -0.1480 -0.4201  0.3120
  875SOL    HW1 2624   3.030   0.393   1.301  0.3521  0.4979  1.2495
  875SOL    HW2 2625   2.973   0.235   1.291 -0.2960 -1.8233  0.8890
  876SOL     OW 2626   0.545   1.103   0.260  0.5021 -0.1813 -0.4334
  876SOL    HW1 2627   0.443   1.078   0.269 -2.4470  0.4028  2.8740
  876SOL    HW2 2628   0.562   1.129   0.167  1.5192 -2.9949  2.7354
  877SOL     OW 2629   1.144   0.826   1.576  0.6284 -0.3333 -0.3374
  877SOL    HW1 2630   1.180   0.734   1.546 -0.7310  1.2352  1.8001
  877SOL    HW2 2631   1.103   0.881   1.500  0.2915  0.5219 -0.3296
  878SOL     OW 2632   2.322   2.284   0.484  0.8780  0.6150  0.3021
  878SOL    HW1 2633   2.310   2.240   0.391 -1.6774 -1.9180 -3.4355
  878SOL    HW2 2634   2.389   2.234   0.537 -3.4078 -1.3049  0.6756
  879SOL     OW 2635   2.800   1.737   1.528 -0.2930  0.3925  0.0794
  879SOL    HW1 2636   2.864   1.736   1.610  1.8863  1.6348  0.6364
  879SOL    HW2 2637   2.804   1.644   1.480  1.2445 -2.8980 -0.6050
  880SOL     OW 2638   1.615   2.422   0.707 -0.0161 -0.1783 -0.0593
  880SOL    HW1 2639   1.568   2.449   0.793 -0.9025 -2.2406 -0.5527
  880SOL    HW2 2640   1.601   2.323   0.684 -0.0531  0.3608 -0.2320
  881SOL     OW 2641   0.447   2.403   0.609 -0.1511  0.1183  0.4470
  881SOL    HW1 2642   0.367   2.379   0.547 -0.1361  0.4907  1.4138
  881SOL    HW2 2643   0.479   2.496   0.597 -3.3820  0.1428 -1.8370
  882SOL     OW 2644   1.966   0.665   0.817 -0.3198  0.0661 -0.5513
  882SOL    HW1 2645   2.055   0.677   0.762  1.8160  1.5620 -1.4722
  882SOL    HW2 2646   1.978   0.684   0.916 -2.0281  0.3818 -1.3492
  883SOL     OW 2647   1.705   0.768   1.378  0.1786  0.4654  0.5874
  883SOL    HW1 2648   1.749   0.680   1.405  0.0738  2.9865 -1.5351
  883SOL    HW2 2649   1.781   0.836   1.371  0.2287  0.9197  0.2890
  884SOL     OW 2650   2.380   0.090   0.099 -0.2487 -0.0358 -0.3964
  884SOL    HW1 2651   2.392   0.092   3.091  1.0084 -0.0318  0.6833
  884SOL    HW2 2652   2.454   0.044   0.149 -0.7731  1.7494  1.7974
  885SOL     OW 2653   1.204   1.279   2.730  0.0162 -0.6326 -0.2841
  885SOL    HW1 2654   1.212   1.202   2.796  0.9604 -1.2759  0.1368
  885SOL    HW2 2655   1.215   1.363   2.785  0.2551 -0.7593  1.8757
  886SOL     OW 2656   1.524   1.863   2.633  0.3335 -0.3610 -0.0923
  886SOL    HW1 2657   1.506   1.788   2.562 -0.4513 -1.4987 -1.1945
  886SOL    HW2 2658   1.431   1.885   2.676  1.8020 -1.5229  0.0757
  887SOL     OW 2659   1.168   0.307   1.241 -0.0109  0.1386  0.0636
  887SOL    HW1 2660   1.218   0.296   1.153 -1.5377 -1.7387  0.8325
  887SOL    HW2 2661   1.154   0.407   1.260 -0.2797  0.0064  2.0493
  888SOL     OW 2662   2.458   0.850   1.615 -0.2551 -0.1721 -0.2419
  888SOL    HW1 2663   2.393   0.854   1.686 -1.9998 -3.1993 -2.4128
  888SOL    HW2 2664   2.436   0.762   1.565  2.6154 -1.5841 -0.9609
  889SOL     OW 2665   0.112   2.640   0.718 -0.0468  0.2548 -0.0997
  889SOL    HW1 2666   0.157   2.656   0.630  1.8403 -0.7490  3.3912
  889SOL    HW2 2667   0.137   2.552   0.763 -0.5694  2.4719 -0.7188
  890SOL     OW 2668   1.837   2.109   0.686 -0.2644  0.1907  0.1392
  890SOL    HW1 2669   1.915   2.163   0.645  1.5072  0.7977  0.3387
  890SOL    HW2 2670   1.753   2.117   0.635 -1.1732 -3.0557  2.1288
  891SOL     OW 2671   0.276   1.036   2.915 -0.5895 -0.2776  0.0438
  891SOL    HW1 2672   0.330   1.018   2.824  0.8738  0.3796 -3.4410
  891SOL    HW2 2673   0.181   1.056   2.890 -0.5193 -0.7485 -1.7677
  892SOL     OW 2674   3.039   2.377   1.186  0.1181 -0.4206  0.1208
  892SOL    HW1 2675   3.090   2.355   1.101  2.0321 -1.5647 -1.6236
  892SOL    HW2 2676   2.962   2.443   1.171  1.4321 -0.8469  0.2316
  893SOL     OW 2677   1.346   0.286   1.026  0.1253 -0.6482  0.2545
  893SOL    HW1 2678   1.374   0.198   0.989 -0.7458  3.9340  0.2213
  893SOL    HW2 2679   1.430   0.341   1.035 -0.3458 -4.8236  0.2032
  894SOL     OW 2680   2.752   0.467   0.672 -0.6618 -0.6073 -0.4802
  894SOL    HW1 2681   2.820   0.472   0.596  1.2414  0.7253 -0.7000
  894SOL    HW2 2682   2.672   0.522   0.650 -0.1318  1.9477  1.0802
  895SOL     OW 2683   1.678   1.089   2.301  0.2216 -0.2725 -0.2232
  895SOL    HW1 2684   1.616   1.161   2.342 -2.6043  1.6053  0.5798
  895SOL    HW2 2685   1.731   1.118   2.221  1.1926  0.9409  1.2352
  896SOL     OW 2686   1.469   0.325   1.642  0.4974  0.0005  0.0874
  896SOL    HW1 2687   1.571   0.297   1.651  3.2181 -0.0426  0.3185
  896SOL    HW2 2688   1.429   0.280   1.557  2.8418  2.7738 -0.9589
  897SOL     OW 2689   0.512   1.454   1.723  0.3997  0.3258  0.1566
  897SOL    HW1 2690   0.559   1.375   1.684 -1.4967 -0.1836 -0.8899
  897SOL    HW2 2691   0.576   1.526   1.756 -2.3759 -2.3007 -0.5757
  898SOL     OW 2692   2.158   2.706   2.146  0.1174  0.0868 -0.0597
  898SOL    HW1 2693   2.088   2.640   2.175 -0.5809  1.9179  0.5560
  898SOL    HW2 2694   2.243   2.668   2.109 -3.3482 -0.7332 -1.2599
  899SOL     OW 2695   1.148   1.440   1.111 -0.1354  0.2763 -0.0405
  899SOL    HW1 2696   1.215   1.385   1.055  0.7122  0.9286  1.4248
  899SOL    HW2 2697   1.190   1.527   1.140 -0.4136 -1.2879 -0.9714
  900SOL     OW 2698   1.312   2.002   2.747 -0.0229 -0.2812  0.5875
  900SOL    HW1 2699   1.212   1.990   2.749  0.5771  1.1572 -0.9502
  900SOL    HW2 2700   1.339   2.077   2.688 -0.1793 -0.0141  0.5936
  901SOL     OW 2701   1.060   1.743   2.311 -0.5177 -0.2157 -0.1417
  901SOL    HW1 2702   1.004   1.816   2.280  2.2099 -0.5739 -0.3132
  901SOL    HW2 2703   1.001   1.666   2.346  0.3803 -0.6544 -0.1172
  902SOL     OW 2704   2.384   1.834   0.350  0.0513 -0.2830  0.1384
  902SOL    HW1 2705   2.462   1.823   0.285  2.9542  1.8119 -1.7915
  902SOL    HW2 2706   2.400   1.779   0.435  0.2819  0.4075  0.1209
  903SOL     OW 2707   2.094   1.872   0.393 -0.4383  0.2368  0.2628
  903SOL    HW1 2708   2.046   1.839   0.310  0.5382 -0.4064 -0.3421
  903SOL    HW2 2709   2.192   1.837   0.387  2.3278  0.0753 -0.6395
  904SOL     OW 2710   1.162   0.681   2.177  0.0112 -0.8765 -0.3676
  904SOL    HW1 2711   1.159   0.774   2.137 -0.6154 -1.3528  0.9483
  904SOL    HW2 2712   1.214   0.623   2.113  1.7379 -0.1418 -0.6536
  905SOL     OW 2713   2.688   0.228   0.809 -0.5350  0.6437 -0.4212
  905SOL    HW1 2714   2.713   0.321   0.771  1.4499 -0.4768 -1.0433
  905SOL    HW2 2715   2.774   0.179   0.830 -0.6930  3.1591 -2.7827
  906SOL     OW 2716   2.837   1.893   0.541 -0.1358 -0.3246  0.4601
  906SOL    HW1 2717   2.863   1.959   0.609 -0.2320 -1.9452 -0.1600
  906SOL    HW2 2718   2.756   1.833   0.570 -0.9536  0.0980 -1.9187
  907SOL     OW 2719   1.246   0.381   0.375  0.2151  0.5593 -0.2246
  907SOL    HW1 2720   1.300   0.297   0.338  1.6189 -1.9016 -0.8840
  907SOL    HW2 2721   1.251   0.455   0.304  2.1653 -0.4563  0.6790
  908SOL     OW 2722   1.957   3.090   1.299 -0.0457 -0.4316  0.2288
  908SOL    HW1 2723   1.924   2.995   1.274 -0.9239 -0.0652 -1.5155
  908SOL    HW2 2724   1.928   0.024   1.394 -2.2126 -3.0813 -3.5685
  909SOL     OW 2725   2.706   0.638   1.007 -0.2770  0.6410  0.6024
  909SOL    HW1 2726   2.767   0.716   1.002  0.9165 -1.5382 -2.4801
  909SOL    HW2 2727   2.721   0.570   1.085  2.0602 -1.3668 -0.2374
  910SOL     OW 2728   0.939   2.932   2.515 -0.0550  0.3577  0.2595
  910SOL    HW1 2729   0.886   2.871   2.574 -0.9688 -2.9396 -0.8413
  910SOL    HW2 2730   0.989   2.882   2.440 -0.4287 -3.3151  3.0189
  911SOL     OW 2731   2.136   1.100   1.861  0.3314 -0.7699 -0.2520
  911SOL    HW1 2732   2.166   1.156   1.944  1.6279  1.5747 -1.4152
  911SOL    HW2 2733   2.131   1.160   1.774 -4.1680  1.7545 -2.4053
  912SOL     OW 2734   2.493   2.121   1.542 -0.3057  0.0040 -0.6774
  912SOL    HW1 2735   2.592   2.121   1.510  1.2397 -0.8505 -1.1588
  912SOL    HW2 2736   2.431   2.158   1.470 -0.4571 -1.5854  0.1879
  913SOL     OW 2737   2.663   2.317   1.233 -0.2080 -0.4257  0.7279
  913SOL    HW1 2738   2.702   2.397   1.184  1.3940 -0.4998  1.6234
  913SOL    HW2 2739   2.663   2.237   1.174  1.0228  1.1635  2.7903
  914SOL     OW 2740   2.140   1.835   1.339 -0.7874  0.2643 -0.0746
  914SOL    HW1 2741   2.095   1.748   1.310 -1.6069  0.1124  0.3631
  914SOL    HW2 2742   2.183   1.821   1.432 -1.3925 -1.6156  0.6069
  915SOL     OW 2743   1.184   1.880   1.546  0.1345  0.1174  0.2608
  915SOL    HW1 2744   1.166   1.963   1.488  0.3134  1.3084 -0.9688
  915SOL    HW2 2745   1.246   1.898   1.623 -0.0123 -1.6525  0.2574
  916SOL     OW 2746   3.010   2.872   1.187  0.2526  0.2543  0.1616
  916SOL    HW1 2747   2.966   2.897   1.102  3.0863 -1.5702  1.7016
  916SOL    HW2 2748   2.942   2.863   1.263  1.5350 -1.6636 -0.3889
  917SOL     OW 2749   2.517   1.767   2.581  0.0108  0.0905 -0.2521
  917SOL    HW1 2750   2.433   1.822   2.559  0.2597 -0.6729 -1.0680
  917SOL    HW2 2751   2.512   1.729   2.676 -1.2155 -0.1242  2.5137
  918SOL     OW 2752   1.995   2.021   2.478  0.9238 -0.4587 -0.9635
  918SOL    HW1 2753   1.912   2.034   2.416 -3.4908 -0.8801  0.2346
  918SOL    HW2 2754   2.016   1.923   2.491 -1.1016 -0.6363  1.0161
  919SOL     OW 2755   1.629   2.141   1.811 -0.3607 -0.2247  0.4805
  919SOL    HW1 2756   1.548   2.142   1.872  1.2640  1.1366  0.1771
  919SOL    HW2 2757   1.646   2.047   1.775  0.4146 -1.0244 -3.1789
  920SOL     OW 2758   0.100   0.168   2.943  0.3012  0.1678  0.2619
  920SOL    HW1 2759   0.080   0.229   2.862 -0.0446  2.1773  0.8357
  920SOL    HW2 2760   0.194   0.120   2.936  0.9481  0.6089 -0.0414
  921SOL     OW 2761   2.613   0.145   2.410 -0.1417 -0.1942  0.1422
  921SOL    HW1 2762   2.714   0.123   2.412  1.2818  1.6130  0.1144
  921SOL    HW2 2763   2.607   0.244   2.435  1.3993  0.1722  2.4396
  922SOL     OW 2764   2.500   1.659   1.285  0.0527  0.2949  0.4707
  922SOL    HW1 2765   2.528   1.669   1.383  2.8533  0.2066 -0.7210
  922SOL    HW2 2766   2.421   1.721   1.262 -1.1910  3.7628  3.2630
  923SOL     OW 2767   0.628   1.763   0.568 -0.2647  0.3101  0.3282
  923SOL    HW1 2768   0.660   1.753   0.470 -1.3209  1.3109 -1.0866
  923SOL    HW2 2769   0.702   1.789   0.632 -0.3125  1.0958 -0.1063
  924SOL     OW 2770   1.423   0.399   2.860  0.2663  0.0846  0.0912
  924SOL    HW1 2771   1.439   0.489   2.911  1.2666  3.5507 -0.2392
  924SOL    HW2 2772   1.489   0.387   2.783  1.3135  0.3350  0.5903
  925SOL     OW 2773   2.796   1.393   0.723  0.4356 -0.1216  0.1545
  925SOL    HW1 2774   2.710   1.352   0.752  0.8962  1.4459 -1.5551
  925SOL    HW2 2775   2.850   1.327   0.667  2.3026 -1.3294  0.3246
  926SOL     OW 2776   2.768   1.012   0.889  0.3372 -0.4540 -0.3404
  926SOL    HW1 2777   2.718   1.003   0.976 -0.0198 -0.3607 -0.9944
  926SOL    HW2 2778   2.864   1.038   0.901  2.9731  0.3308 -1.0100
  927SOL     OW 2779   0.636   1.375   0.322 -0.2247 -0.1332  0.0067
  927SOL    HW1 2780   0.604   1.279   0.303  1.3000  0.7967 -1.2886
  927SOL    HW2 2781   0.739   1.381   0.304 -1.3895  1.1432  0.6645
  928SOL     OW 2782   0.047   0.109   2.430  0.1868  0.6017  0.2274
  928SOL    HW1 2783   0.058   0.081   2.529  1.2445  0.7544  2.2838
  928SOL    HW2 2784   0.132   0.101   2.374 -0.7993 -1.0092 -1.7765
  929SOL     OW 2785   2.826   0.085   1.195  0.7671 -0.3435 -0.0465
  929SOL    HW1 2786   2.807   3.089   1.139 -1.0858 -0.2257 -0.4409
  929SOL    HW2 2787   2.740   0.131   1.217  1.3455 -0.5632 -0.0287
  930SOL     OW 2788   2.058   2.259   1.784  0.3424 -0.5983 -0.3435
  930SOL    HW1 2789   1.974   2.267   1.845 -3.1616 -3.0528  1.3479
  930SOL    HW2 2790   2.093   2.163   1.778 -1.5522 -0.4405  0.6855
  931SOL     OW 2791   1.743   1.140   0.924 -0.2898 -0.2123 -0.0732
  931SOL    HW1 2792   1.833   1.186   0.953  2.3647  0.3597  1.6823
  931SOL    HW2 2793   1.772   1.067   0.861 -1.5752  0.4386  0.2269
  932SOL     OW 2794   2.916   0.906   1.277  0.6477  0.2130  0.0239
  932SOL    HW1 2795   2.813   0.897   1.296  0.0894 -1.2490 -0.8105
  932SOL    HW2 2796   2.944   0.857   1.193 -0.5674 -0.6145 -2.5302
  933SOL     OW 2797   2.523   1.763   1.561  0.1359  0.0056  0.0626
  933SOL    HW1 2798   2.481   1.851   1.577 -1.8741 -1.3558 -0.2117
  933SOL    HW2 2799   2.622   1.755   1.584 -1.5190 -1.1108  2.3474
  934SOL     OW 2800   1.757   0.263   0.984  0.2162 -0.0137  0.1542
  934SOL    HW1 2801   1.736   0.184   1.039 -0.8266 -0.3860 -1.7965
  934SOL    HW2 2802   1.781   0.236   0.889 -1.9004 -0.8109 -0.3714
  935SOL     OW 2803   0.106   1.363   1.132  0.0836 -0.9279 -0.9515
  935SOL    HW1 2804   0.083   1.415   1.049  0.5729  0.0516  0.6537
  935SOL    HW2 2805   0.131   1.268   1.105 -1.1536  0.0739 -0.5405
  936SOL     OW 2806   2.988   1.121   0.980 -0.3076 -0.3088  0.7639
  936SOL    HW1 2807   2.927   1.147   1.058 -0.7551 -1.4492 -3.1689
  936SOL    HW2 2808   3.081   1.097   1.019 -1.7294  0.2693  1.2296
  937SOL     OW 2809   1.442   2.816   0.753 -0.5538 -0.3729  0.2076
  937SOL    HW1 2810   1.358   2.867   0.787 -1.1605 -0.5973  0.4761
  937SOL    HW2 2811   1.461   2.830   0.655 -0.4751 -1.4845  2.5400
  938SOL     OW 2812   2.751   2.484   0.752 -0.1677 -0.9437 -0.2263
  938SOL    HW1 2813   2.709   2.481   0.660 -2.1225  1.9097 -0.1149
  938SOL    HW2 2814   2.677   2.524   0.823 -4.7878  1.2353  2.3091
  939SOL     OW 2815   0.696   1.870   2.906  0.1515 -0.9867 -0.3484
  939SOL    HW1 2816   0.778   1.814   2.892 -2.0666  2.2386 -1.0177
  939SOL    HW2 2817   0.711   1.944   2.978 -0.8736  0.7173  0.6507
  940SOL     OW 2818   2.694   2.935   2.772  0.1196  0.4997 -0.0924
  940SOL    HW1 2819   2.779   2.947   2.719 -1.6873  0.0519  0.4637
  940SOL    HW2 2820   2.654   2.848   2.741  1.5792  0.0357 -1.8880
  941SOL     OW 2821   1.061   2.747   0.155 -0.1733 -0.0534  0.2482
  941SOL    HW1 2822   1.102   2.685   0.224  0.2425  0.7708  2.1069
  941SOL    HW2 2823   1.134   2.808   0.117  1.3527 -1.1404  0.4791
  942SOL     OW 2824   1.661   1.849   1.793  0.7161 -0.1156  0.5030
  942SOL    HW1 2825   1.700   1.755   1.803 -1.5615  0.2107 -0.3550
  942SOL    HW2 2826   1.633   1.874   1.695  1.4645 -0.1797 -0.4493
  943SOL     OW 2827   2.218   1.338   1.268 -0.4941 -0.2660 -0.3566
  943SOL    HW1 2828   2.301   1.336   1.328  2.0227 -2.3543 -3.2378
  943SOL    HW2 2829   2.155   1.257   1.287  0.5979 -1.8307 -0.0608
  944SOL     OW 2830   1.809   1.017   1.589 -0.2208  0.4260 -0.2136
  944SOL    HW1 2831   1.714   0.982   1.603 -0.7658 -2.3306  0.0876
  944SOL    HW2 2832   1.866   0.988   1.510 -0.1060 -0.5079  2.4138
  945SOL     OW 2833   0.158   3.072   1.197  0.1089 -0.3316 -0.1299
  945SOL    HW1 2834   0.104   3.001   1.154 -0.6868  2.0521  4.4788
  945SOL    HW2 2835   0.150   0.072   1.158 -0.0258 -0.6206  1.3640
  946SOL     OW 2836   0.276   0.745   1.866  0.1974 -0.5512 -0.1475
  946SOL    HW1 2837   0.180   0.768   1.895  3.2174  2.1803 -1.3039
  946SOL    HW2 2838   0.305   0.810   1.791  2.1944 -0.3175 -0.6723
  947SOL     OW 2839   0.465   2.685   0.612 -0.1406 -0.5271 -0.5054
  947SOL    HW1 2840   0.535   2.701   0.535  1.0363  2.7284  0.9396
  947SOL    HW2 2841   0.509   2.703   0.700  1.3366 -0.2724  0.2635
  948SOL     OW 2842   2.917   1.221   1.912 -0.1641  0.4494  0.5619
  948SOL    HW1 2843   2.984   1.258   1.845  0.7563 -1.0190  2.9766
  948SOL    HW2 2844   2.965   1.145   1.957 -0.0261  0.1357  0.5783
  949SOL     OW 2845   0.531   0.914   2.275  0.7274 -0.1292  0.5097
  949SOL    HW1 2846   0.526   0.855   2.361 -0.8170  1.3884  2.5912
  949SOL    HW2 2847   0.453   0.900   2.212 -1.4376  2.8839  3.4049
  950SOL     OW 2848   0.836   0.908   0.919  0.2753 -0.3603  0.4311
  950SOL    HW1 2849   0.917   0.936   0.861 -1.7856  0.8963 -1.5679
  950SOL    HW2 2850   0.764   0.982   0.925 -0.3984 -2.4676 -1.3084
  951SOL     OW 2851   1.087   1.971   2.038 -0.5152  0.5351  0.3937
  951SOL    HW1 2852   1.138   1.929   2.114  0.4641  0.0903  0.1246
  951SOL    HW2 2853   0.988   1.951   2.050  2.0586 -3.2229  0.2338
  952SOL     OW 2854   0.899   1.748   2.798  0.3891 -0.1380  0.2107
  952SOL    HW1 2855   0.967   1.688   2.834 -0.7531  3.8183 -2.3059
  952SOL    HW2 2856   0.835   1.704   2.728 -2.0583  0.4421 -4.1754
  953SOL     OW 2857   1.652   3.059   2.121 -0.4274 -0.1118  0.0638
  953SOL    HW1 2858   1.721   0.018   2.065  0.8221 -0.2857 -0.2010
  953SOL    HW2 2859   1.691   3.026   2.206 -1.6324  1.3632 -0.1105
  954SOL     OW 2860   2.164   1.148   0.209 -0.4487  0.5514 -0.1475
  954SOL    HW1 2861   2.175   1.221   0.280 -1.3248 -0.6103  0.8579
  954SOL    HW2 2862   2.080   1.156   0.156 -0.8774 -0.6126  0.4833
  955SOL     OW 2863   0.561   2.262   2.231  0.1929 -0.0053  0.4566
  955SOL    HW1 2864   0.616   2.182   2.266 -0.0575 -2.3808  1.3324
  955SOL    HW2 2865   0.497   2.231   2.154  2.9636 -2.4712 -1.4930
  956SOL     OW 2866   1.575   0.996   1.252 -0.2054  0.1755  0.3688
  956SOL    HW1 2867   1.606   0.912   1.295  1.0040  4.1901  2.2369
  956SOL    HW2 2868   1.585   1.075   1.313 -0.8572  1.4274  0.6157
  957SOL     OW 2869   2.092   1.383   2.496 -0.1835  0.3816 -0.4474
  957SOL    HW1 2870   2.122   1.443   2.571  1.5616 -2.3178 -1.8466
  957SOL    HW2 2871   2.002   1.344   2.522 -1.0460  1.2813  1.6642
  958SOL     OW 2872   1.498   2.546   0.911  0.2843  0.0092  0.0139
  958SOL    HW1 2873   1.441   2.629   0.890 -2.3168 -0.1078  0.2110
  958SOL    HW2 2874   1.491   2.518   1.009  1.4069 -0.2147 -0.5722
  959SOL     OW 2875   1.865   1.687   2.618  0.5347 -0.0621 -0.8780
  959SOL    HW1 2876   1.775   1.664   2.580 -1.0917 -0.2113 -1.8117
  959SOL    HW2 2877   1.852   1.694   2.717 -0.1241  0.5036  1.1685
  960SOL     OW 2878   0.265   0.496   0.089 -0.3047 -0.0410 -0.2629
  960SOL    HW1 2879   0.173   0.545   0.084 -2.9075 -0.9541 -0.6517
  960SOL    HW2 2880   0.299   0.481   3.084  0.0206  2.7338 -0.3246
  961SOL     OW 2881   0.370   0.556   2.280  0.2806  0.0372  0.2800
  961SOL    HW1 2882   0.465   0.521   2.257 -0.3603 -3.9892 -4.3202
  961SOL    HW2 2883   0.344   0.533   2.378 -0.0106 -0.4634  2.0104
  962SOL     OW 2884   1.137   1.386   3.025  0.7156  0.4403  0.6024
  962SOL    HW1 2885   1.214   1.332   3.055  0.9631 -1.2653  0.0708
  962SOL    HW2 2886   1.060   1.390   0.002 -1.7156 -0.4523  1.8281
  963SOL     OW 2887   2.104   1.905   3.084 -0.2816 -0.6222 -0.0796
  963SOL    HW1 2888   2.044   1.944   3.018  0.3052 -0.5953  0.9140
  963SOL    HW2 2889   2.195   1.956   3.083  1.7827  2.4389  0.3386
  964SOL     OW 2890   1.199   2.933   0.842 -0.0300  0.0046  0.1845
  964SOL    HW1 2891   1.211   3.027   0.800  0.8622  2.1907  0.3603
  964SOL    HW2 2892   1.159   2.932   0.934 -0.8142  0.8835 -1.3799
  965SOL     OW 2893   0.711   2.547   1.040  0.5606  0.3018  0.0103
  965SOL    HW1 2894   0.762   2.531   0.956 -1.4833  0.2139  1.2781
  965SOL    HW2 2895   0.670   2.640   1.035  0.1818 -1.1518 -1.9458
  966SOL     OW 2896   0.043   1.288   0.024  0.1721  0.6447 -0.1724
  966SOL    HW1 2897   0.024   1.306   3.014 -0.4540  0.3835 -0.8477
  966SOL    HW2 2898   3.053   1.243   0.067 -0.1050 -1.5950  0.7839
  967SOL     OW 2899   1.600   2.830   1.634 -0.2077  0.2169 -0.0453
  967SOL    HW1 2900   1.620   2.730   1.626 -2.4756  0.5060  2.1131
  967SOL    HW2 2901   1.500   2.844   1.617  2.5426 -0.0735 -1.9301
  968SOL     OW 2902   1.845   0.942   0.765  0.0214 -0.1803  0.3076
  968SOL    HW1 2903   1.753   0.959   0.725  3.2990 -0.3053  2.7805
  968SOL    HW2 2904   1.868   0.841   0.772  1.0395 -2.5513 -2.4599
  969SOL     OW 2905   0.409   1.887   2.215 -0.1809 -0.2250  0.2521
  969SOL    HW1 2906   0.333   1.948   2.177  2.5209 -2.2965 -0.9976
  969SOL    HW2 2907   0.426   1.922   2.308  2.0999  0.1954 -0.0553
  970SOL     OW 2908   2.757   1.487   1.405  0.0722 -0.2944 -0.1208
  970SOL    HW1 2909   2.831   1.424   1.378 -2.2240  2.0720  0.1327
  970SOL    HW2 2910   2.696   1.500   1.322 -1.1859 -0.6417 -1.7482
  971SOL     OW 2911   1.036   0.352   1.613 -0.2517  0.4984  0.3987
  971SOL    HW1 2912   0.998   0.362   1.710 -1.4740 -3.6286  1.8031
  971SOL    HW2 2913   1.056   0.251   1.588 -1.4605 -3.2045  2.8335
  972SOL     OW 2914   0.889   0.323   2.532  0.2558  0.3206  0.2781
  972SOL    HW1 2915   0.906   0.290   2.628  0.1658 -3.5918 -1.5047
  972SOL    HW2 2916   0.890   0.237   2.477  0.0375  1.4083  1.0094
  973SOL     OW 2917   3.053   1.490   0.882  0.2000 -0.1732 -0.3574
  973SOL    HW1 2918   2.956   1.477   0.861 -2.1768  0.8916 -1.3534
  973SOL    HW2 2919   0.011   1.500   0.795  1.3904  0.4806  2.8421
  974SOL     OW 2920   1.921   0.950   1.819  0.5943 -0.1510 -0.0584
  974SOL    HW1 2921   2.005   1.004   1.834  0.9399 -1.7846  0.9291
  974SOL    HW2 2922   1.874   0.970   1.727  0.2539 -0.0025 -2.6212
  975SOL     OW 2923   2.618   3.073   0.193 -0.1207  0.7913 -0.0886
  975SOL    HW1 2924   2.633   2.974   0.203  1.3231  0.6087  0.1818
  975SOL    HW2 2925   2.694   0.028   0.141  2.5637  1.1970 -0.2873
  976SOL     OW 2926   0.194   1.537   1.616  0.1821  0.3385 -0.2106
  976SOL    HW1 2927   0.279   1.544   1.562 -1.5678  0.5326  3.3362
  976SOL    HW2 2928   0.110   1.568   1.568  0.4768  3.0226  2.4507
  977SOL     OW 2929   0.448   2.825   0.222 -0.5218 -0.0874  0.5721
  977SOL    HW1 2930   0.469   2.924   0.202 -0.4210  0.0352  1.5985
  977SOL    HW2 2931   0.431   2.778   0.136 -1.4767 -1.2181  0.7182
  978SOL     OW 2932   0.573   1.779   0.055  0.6441  0.2919  0.1271
  978SOL    HW1 2933   0.557   1.680   0.072 -0.1941  0.0550  1.4796
  978SOL    HW2 2934   0.593   1.789   3.047  1.2127 -1.9513 -1.4060
  979SOL     OW 2935   1.369   2.072   1.214  0.5498  0.8539 -0.4706
  979SOL    HW1 2936   1.342   2.170   1.221 -1.2591  1.3321  0.1880
  979SOL    HW2 2937   1.312   2.012   1.273 -0.2524  2.0305 -1.6871
  980SOL     OW 2938   0.532   1.337   2.183  0.0670 -0.1924 -0.2098
  980SOL    HW1 2939   0.567   1.430   2.157 -2.8784  2.1165  3.5046
  980SOL    HW2 2940   0.428   1.340   2.164 -5.4992  0.6312 -0.5006
  981SOL     OW 2941   3.030   1.228   0.318 -0.1527  0.1739  0.6094
  981SOL    HW1 2942   0.015   1.167   0.349 -3.3772  2.2076  0.9684
  981SOL    HW2 2943   3.068   1.318   0.291 -0.5738 -0.2631  4.2151
  982SOL     OW 2944   2.211   2.820   2.865  0.3570  0.3113 -0.1831
  982SOL    HW1 2945   2.275   2.826   2.945  1.5567 -0.6632  2.9643
  982SOL    HW2 2946   2.124   2.773   2.892 -0.6243 -1.0627  0.0153
  983SOL     OW 2947   2.286   0.664   1.136 -0.8812  0.1593  0.0902
  983SOL    HW1 2948   2.299   0.660   1.236  2.0715 -0.8240  0.2088
  983SOL    HW2 2949   2.315   0.577   1.086  1.6728  0.7380 -0.5864
  984SOL     OW 2950   0.867   0.076   2.426 -0.5514  0.2623 -0.4518
  984SOL    HW1 2951   0.928   0.084   2.340  1.3998 -0.9534 -1.8465
  984SOL    HW2 2952   0.885   3.080   2.478  1.3016 -2.1102  3.2630
  985SOL     OW 2953   1.601   2.201   2.225  0.1087  0.1976  0.3318
  985SOL    HW1 2954   1.559   2.138   2.154 -0.7180 -1.6941 -0.7587
  985SOL    HW2 2955   1.667   2.138   2.276 -0.8159  0.4400 -0.0567
  986SOL     OW 2956   1.652   2.916   2.388 -0.0530  0.5609  0.3602
  986SOL    HW1 2957   1.614   2.845   2.449  1.6080  1.5745  0.6911
  986SOL    HW2 2958   1.745   2.889   2.356  0.8551 -0.8130  2.3607
  987SOL     OW 2959   2.219   0.258   2.202  0.0938 -0.2013  0.6560
  987SOL    HW1 2960   2.271   0.321   2.137  1.3289  0.3485  0.9301
  987SOL    HW2 2961   2.283   0.203   2.256 -1.7376 -1.6220 -2.2838
  988SOL     OW 2962   2.508   0.416   2.295  0.0718  0.4608  0.5334
  988SOL    HW1 2963   2.477   0.508   2.333 -2.2277  1.3169 -0.7306
  988SOL    HW2 2964   2.464   0.407   2.204 -1.4543 -0.5053  0.0255
  989SOL     OW 2965   2.569   2.483   2.794  0.0567 -0.1623 -0.6518
  989SOL    HW1 2966   2.562   2.568   2.736 -0.4871 -4.2218  0.3577
  989SOL    HW2 2967   2.564   2.398   2.734  1.4608 -0.8804 -0.9564
  990SOL     OW 2968   0.270   0.821   3.084  0.0921  0.6519  0.0679
  990SOL    HW1 2969   0.171   0.795   0.002 -0.9572 -1.5552  0.0874
  990SOL    HW2 2970   0.278   0.910   3.031  1.1569 -1.9678 -0.6779
  991SOL     OW 2971   0.449   0.974   2.719  0.1215  0.2889 -0.1271
  991SOL    HW1 2972   0.537   1.020   2.716  0.0055 -0.7867 -2.0809
  991SOL    HW2 2973   0.453   0.893   2.656  1.0379 -0.6912  0.0791
  992SOL     OW 2974   0.044   1.760   2.052  0.0753  0.4558  0.0511
  992SOL    HW1 2975   0.115   1.753   1.976 -1.3369 -2.6647  1.4672
  992SOL    HW2 2976   3.041   1.758   2.006 -1.3633  1.6927 -1.9035
  993SOL     OW 2977   0.873   0.227   0.612  0.3822 -0.4553  0.3059
  993SOL    HW1 2978   0.924   0.283   0.543  1.8688  0.4529 -1.4283
  993SOL    HW2 2979   0.775   0.227   0.587  3.4117 -0.7925  0.0086
  994SOL     OW 2980   0.351   2.167   1.510 -0.3612  0.5520 -0.4331
  994SOL    HW1 2981   0.260   2.168   1.463  0.7995 -0.3241 -0.6050
  994SOL    HW2 2982   0.405   2.080   1.506 -0.7905  1.7152  1.2976
  995SOL     OW 2983   2.287   1.733   2.840  0.0889 -0.4849  0.6265
  995SOL    HW1 2984   2.392   1.720   2.853 -0.0932  0.0956  0.7754
  995SOL    HW2 2985   2.235   1.716   2.925  0.8863 -0.1440  0.2507
  996SOL     OW 2986   2.155   1.507   2.717  0.1494 -0.3628  0.2676
  996SOL    HW1 2987   2.061   1.523   2.753 -3.3756  0.8952  2.9678
  996SOL    HW2 2988   2.210   1.591   2.744  1.6561  2.9349 -0.2781
  997SOL     OW 2989   1.632   1.160   1.865  0.4043  0.1981 -0.1867
  997SOL    HW1 2990   1.687   1.082   1.908 -0.0401 -0.0671 -1.2340
  997SOL    HW2 2991   1.575   1.119   1.791  0.7192 -1.5828 -0.9040
  998SOL     OW 2992   2.171   2.085   0.961  0.4897  0.8002  0.0236
  998SOL    HW1 2993   2.116   2.068   1.046  5.0448 -0.4472 -0.4415
  998SOL    HW2 2994   2.195   1.998   0.914 -0.0507 -1.7522 -0.3663
  999SOL     OW 2995   2.405   2.607   0.163  0.0344 -0.2489  0.3041
  999SOL    HW1 2996   2.412   2.700   0.113  2.6787 -0.3357 -1.1379
  999SOL    HW2 2997   2.457   2.535   0.114 -0.9177  1.8270  2.5040
 1000SOL     OW 2998   0.631   3.048   2.582  0.4469  0.2492 -0.0048
 1000SOL    HW1 2999   0.576   0.016   2.643  0.7680  0.2849  0.7026
 1000SOL    HW2 3000   0.696   0.006   2.523  1.6003  1.5895 -0.1736
   3.09146   3.09146   3.09146
