1000 SPC/Fw water molecules t= 325.00000 step= 325000
 3000
    1SOL     OW    1   2.314   0.096   1.082 -0.6396  0.2759 -0.2463
    1SOL    HW1    2   2.225   0.057   1.083  3.7985  1.2794  1.4520
    1SOL    HW2    3   2.389   0.027   1.085 -0.1410  0.6539  0.6841
    2SOL     OW    4   2.656   2.507   0.841 -0.2096 -0.3787  0.1814
    2SOL    HW1    5   2.639   2.516   0.942  2.5521  1.0195  0.4962
    2SOL    HW2    6   2.717   2.427   0.816 -0.3954  0.4474 -2.2925
    3SOL     OW    7   0.945   0.010   2.888  0.1535  0.1635  0.5148
    3SOL    HW1    8   1.003   3.021   2.923  0.5293 -1.8136  0.3378
    3SOL    HW2    9   0.845   3.083   2.899  0.0645  0.8932  0.3195
    4SOL     OW   10   1.769   2.469   2.079  0.5541  0.5206 -0.7623
    4SOL    HW1   11   1.723   2.523   2.001 -3.8683  0.3920  2.3417
    4SOL    HW2   12   1.797   2.379   2.050 -0.4463 -1.7675  0.9138
    5SOL     OW   13   1.798   0.804   1.567  0.7743 -0.0835  0.1513
    5SOL    HW1   14   1.833   0.755   1.480 -1.0861 -0.5347  0.5224
    5SOL    HW2   15   1.779   0.905   1.546  0.0327  2.7609 -2.9330
    6SOL     OW   16   2.237   2.449   0.754 -0.2199  0.1827  0.4948
    6SOL    HW1   17   2.211   2.350   0.765  1.5624 -0.2753  2.4357
    6SOL    HW2   18   2.288   2.485   0.837  0.6124  0.7981  2.4229
    7SOL     OW   19   2.402   1.535   1.062 -0.1757  0.2890 -0.3839
    7SOL    HW1   20   2.492   1.538   1.109 -2.6592 -1.9827  2.9925
    7SOL    HW2   21   2.329   1.475   1.105 -1.2896  0.2437 -0.2786
    8SOL     OW   22   0.961   1.717   1.413  0.2007  0.3248 -0.0660
    8SOL    HW1   23   0.873   1.670   1.389 -2.3085 -1.8645  0.1971
    8SOL    HW2   24   1.034   1.728   1.340  2.5062 -0.5297 -1.1869
    9SOL     OW   25   1.287   2.822   2.321 -0.1956 -0.6961  0.0594
    9SOL    HW1   26   1.229   2.746   2.360 -0.7460 -3.5295 -0.5254
    9SOL    HW2   27   1.228   2.873   2.247 -2.4923  2.3722 -0.5270
   10SOL     OW   28   0.575   1.929   0.875  0.6983  0.2009 -0.0666
   10SOL    HW1   29   0.675   1.933   0.896  2.9140 -0.1425 -1.2426
   10SOL    HW2   30   0.518   1.952   0.952  1.2117 -0.6006 -0.1948
   11SOL     OW   31   1.768   1.582   1.098 -0.1577 -0.6181 -0.5287
   11SOL    HW1   32   1.810   1.507   1.153  0.4275  2.6098  1.8587
   11SOL    HW2   33   1.766   1.664   1.149 -1.3877 -5.5622  1.5019
   12SOL     OW   34   2.561   2.666   1.821 -0.1831  0.3155 -0.0819
   12SOL    HW1   35   2.515   2.578   1.794 -0.3648 -2.0143  1.4517
   12SOL    HW2   36   2.653   2.658   1.869  2.9611 -0.3444  0.2701
   13SOL     OW   37   2.453   2.896   0.367  0.0795 -0.2945  0.3210
   13SOL    HW1   38   2.372   2.930   0.317  1.9067 -1.8469 -1.2259
   13SOL    HW2   39   2.456   2.934   0.461 -0.7806  1.8939  1.4158
   14SOL     OW   40   1.540   2.082   0.081  0.3146 -0.0290  0.3998
   14SOL    HW1   41   1.468   2.127   0.138  0.2616  0.6433  0.4342
   14SOL    HW2   42   1.632   2.071   0.128 -1.2829  2.3186  0.8946
   15SOL     OW   43   2.796   2.448   1.549  0.3956 -0.2639 -0.4192
   15SOL    HW1   44   2.809   2.463   1.650  2.3245 -1.3329  2.5837
   15SOL    HW2   45   2.817   2.530   1.496  2.1816 -3.0125  0.3710
   16SOL     OW   46   2.656   0.003   0.197 -0.0242 -0.5982 -0.5811
   16SOL    HW1   47   2.595   0.003   0.278  3.4111 -1.1598 -0.7681
   16SOL    HW2   48   2.748   3.042   0.213  3.1557  0.3616  3.0147
   17SOL     OW   49   0.094   0.398   1.255 -0.1938 -0.0772 -0.6401
   17SOL    HW1   50   0.192   0.417   1.231 -0.5430  0.9746 -1.6648
   17SOL    HW2   51   0.090   0.306   1.298 -0.2676 -0.3012 -2.9210
   18SOL     OW   52   2.115   1.000   0.350 -0.3435  0.1369 -0.1412
   18SOL    HW1   53   2.113   0.927   0.279  0.2286  0.4479  0.3610
   18SOL    HW2   54   2.101   0.959   0.441  1.1214 -1.8085 -1.4082
   19SOL     OW   55   1.649   1.956   0.494 -0.1727 -0.2644 -0.1246
   19SOL    HW1   56   1.687   1.898   0.566  1.7713 -1.0372  0.0583
   19SOL    HW2   57   1.714   1.983   0.424  1.4013  2.3122  1.8823
   20SOL     OW   58   2.427   2.163   2.173 -0.1557 -0.6714  0.4601
   20SOL    HW1   59   2.421   2.084   2.237 -1.0122 -1.9172  2.3791
   20SOL    HW2   60   2.332   2.188   2.145 -0.3294  0.0733 -0.4059
   21SOL     OW   61   1.629   0.217   0.611  0.1438 -0.0205  0.1124
   21SOL    HW1   62   1.676   0.144   0.671 -0.5585 -2.0243  2.2248
   21SOL    HW2   63   1.530   0.230   0.637 -0.9570  2.2018 -0.3379
   22SOL     OW   64   2.585   0.134   1.558  0.0608 -0.2074 -0.6330
   22SOL    HW1   65   2.629   0.224   1.563  1.0985  1.3472 -0.9273
   22SOL    HW2   66   2.489   0.129   1.588 -0.5871 -2.2437  1.0953
   23SOL     OW   67   0.055   0.414   1.870 -0.0703  0.2013  0.0545
   23SOL    HW1   68   0.082   0.420   1.972 -1.3335 -1.5775  2.1068
   23SOL    HW2   69   0.046   0.510   1.831 -2.7108 -0.3386  0.4462
   24SOL     OW   70   2.513   2.689   0.205  0.0888 -0.2058  0.3093
   24SOL    HW1   71   2.526   2.622   0.284 -0.8713  1.9012 -1.8797
   24SOL    HW2   72   2.490   2.778   0.251  0.0117 -1.1939 -2.7352
   25SOL     OW   73   1.230   3.005   2.523  0.3394  0.0834 -0.4309
   25SOL    HW1   74   1.281   2.947   2.457  2.6028  0.3894 -1.5162
   25SOL    HW2   75   1.277   3.015   2.611  0.4260 -1.2354 -0.5953
   26SOL     OW   76   1.447   2.444   0.332 -0.5530  0.5750  0.1307
   26SOL    HW1   77   1.547   2.446   0.358  1.9828  1.0339 -3.6903
   26SOL    HW2   78   1.432   2.506   0.246 -1.8445  1.8314 -1.2435
   27SOL     OW   79   2.417   1.101   2.800 -0.8083 -0.2023 -0.0204
   27SOL    HW1   80   2.474   1.183   2.786  0.0923  0.5183  0.7795
   27SOL    HW2   81   2.477   1.016   2.795 -2.3122 -0.4096  1.0269
   28SOL     OW   82   1.136   1.450   1.258 -0.2615  0.1137  0.2583
   28SOL    HW1   83   1.139   1.407   1.352 -2.3341 -1.2032 -1.1307
   28SOL    HW2   84   1.042   1.438   1.218 -0.0776 -1.3179  0.9844
   29SOL     OW   85   2.918   2.489   1.827 -0.2433  0.7284 -0.3507
   29SOL    HW1   86   2.938   2.586   1.798  0.2029  0.4723 -3.5523
   29SOL    HW2   87   3.005   2.435   1.816  0.5121  0.0507 -0.6765
   30SOL     OW   88   1.293   0.199   1.075 -0.1258 -0.4235 -0.4990
   30SOL    HW1   89   1.194   0.184   1.089  1.0287 -0.3051  0.2846
   30SOL    HW2   90   1.317   0.292   1.102 -0.8969 -2.0549 -0.9717
   31SOL     OW   91   2.195   2.939   1.947  0.2366 -0.0147  0.6629
   31SOL    HW1   92   2.243   3.028   1.943  0.6979  2.0530 -0.7037
   31SOL    HW2   93   2.120   2.944   2.015  0.2893 -1.5018  1.5112
   32SOL     OW   94   0.985   1.669   0.345 -0.4199 -0.0569 -0.5406
   32SOL    HW1   95   1.072   1.624   0.329  2.0591 -0.9572 -1.2213
   32SOL    HW2   96   0.967   1.661   0.446  0.9018  0.4538  3.0413
   33SOL     OW   97   0.375   0.869   2.329 -0.4281  0.3584  0.3238
   33SOL    HW1   98   0.294   0.825   2.374  1.5309 -1.8471  1.7721
   33SOL    HW2   99   0.417   0.804   2.256 -0.9235  0.7555  0.3617
   34SOL     OW  100   2.163   2.956   0.422  0.2513 -0.0401  0.9741
   34SOL    HW1  101   2.185   2.982   0.517  0.5776  1.3629 -0.0520
   34SOL    HW2  102   2.182   3.035   0.356  0.2961  1.6907  1.5850
   35SOL     OW  103   1.985   2.563   1.753 -0.0718 -0.3479 -0.6486
   35SOL    HW1  104   1.960   2.661   1.765 -1.9497 -1.1458  0.4986
   35SOL    HW2  105   1.910   2.504   1.717 -1.2758  2.0438 -0.4085
   36SOL     OW  106   1.801   2.315   3.009  0.3008 -0.0872 -0.3798
   36SOL    HW1  107   1.719   2.330   2.954  3.2011  0.0104  2.0638
   36SOL    HW2  108   1.833   2.222   2.982  0.2825 -2.9101  1.9758
   37SOL     OW  109   1.314   0.630   2.219  0.2870  0.1852 -0.2257
   37SOL    HW1  110   1.343   0.709   2.274 -1.5941 -2.4845  0.9083
   37SOL    HW2  111   1.266   0.564   2.286 -1.0042  2.4370  2.1700
   38SOL     OW  112   0.198   0.310   2.705 -0.1380  0.2700  0.2914
   38SOL    HW1  113   0.162   0.362   2.625  0.2428 -1.3927 -0.8707
   38SOL    HW2  114   0.239   0.222   2.669  3.2276 -0.3285  0.6621
   39SOL     OW  115   2.227   1.441   1.794 -0.4574  0.2324 -0.4525
   39SOL    HW1  116   2.272   1.489   1.715 -2.5713 -0.1502  1.6131
   39SOL    HW2  117   2.214   1.509   1.871 -1.4037  0.8783  1.5075
   40SOL     OW  118   1.307   2.822   0.469  0.4150  0.1301 -0.6301
   40SOL    HW1  119   1.292   2.862   0.562 -0.3868 -1.6347 -0.1947
   40SOL    HW2  120   1.279   2.725   0.476 -0.2374 -0.8995 -0.2000
   41SOL     OW  121   2.324   1.463   0.814 -0.1163  0.9185  0.3397
   41SOL    HW1  122   2.368   1.504   0.891 -1.7424 -1.3336 -0.7062
   41SOL    HW2  123   2.270   1.537   0.763 -0.5450  0.7934  0.7273
   42SOL     OW  124   0.566   0.481   1.404 -0.4223  0.2442  0.0273
   42SOL    HW1  125   0.474   0.484   1.443  0.7676 -2.0771 -3.1414
   42SOL    HW2  126   0.625   0.402   1.444  3.2063 -2.0348 -2.0159
   43SOL     OW  127   0.232   1.521   2.431 -0.1366 -0.1831  0.0513
   43SOL    HW1  128   0.206   1.481   2.516 -0.9522  1.2088 -0.2280
   43SOL    HW2  129   0.302   1.457   2.389  2.1352 -0.8542 -2.3817
   44SOL     OW  130   2.190   2.859   1.672 -0.3472 -0.3964 -0.1288
   44SOL    HW1  131   2.173   2.870   1.774 -0.7043  1.0028  1.4812
   44SOL    HW2  132   2.190   2.952   1.632  1.7179  0.9545  0.3936
   45SOL     OW  133   1.271   0.170   2.313  0.3053 -0.3933 -0.1226
   45SOL    HW1  134   1.363   0.134   2.292 -0.6600  2.1737  0.4892
   45SOL    HW2  135   1.239   0.121   2.399 -1.0601  2.3774 -0.0972
   46SOL     OW  136   1.081   2.722   2.707 -0.4653 -0.3301  1.0472
   46SOL    HW1  137   1.148   2.679   2.772  0.7201  1.2857 -2.1298
   46SOL    HW2  138   1.009   2.777   2.742  3.0719 -1.3784 -0.4469
   47SOL     OW  139   1.760   1.433   0.718 -0.0469  0.5762 -0.3661
   47SOL    HW1  140   1.776   1.529   0.753  1.0530  1.4052 -1.5769
   47SOL    HW2  141   1.850   1.399   0.677  0.1818  1.0608 -1.5323
   48SOL     OW  142   1.150   2.144   0.613 -0.0559  0.2827 -0.2262
   48SOL    HW1  143   1.143   2.131   0.515 -0.9231 -1.8240 -1.0690
   48SOL    HW2  144   1.108   2.064   0.663  2.2334  1.8154 -0.0102
   49SOL     OW  145   2.094   0.014   2.795  0.5682 -0.0496  0.2565
   49SOL    HW1  146   2.101   3.078   2.697 -0.7945 -4.0718  1.5561
   49SOL    HW2  147   2.179   0.014   2.853 -1.7290  0.6873 -0.9917
   50SOL     OW  148   1.772   2.972   3.083  0.1703  0.2294 -0.4013
   50SOL    HW1  149   1.737   3.065   3.067  0.2367  0.6621  0.3942
   50SOL    HW2  150   1.872   2.977   0.011 -1.2442  3.5520  0.1426
   51SOL     OW  151   2.144   0.593   1.233  0.4086 -0.0368  0.1520
   51SOL    HW1  152   2.208   0.644   1.292  2.4626  2.0772 -0.1155
   51SOL    HW2  153   2.189   0.580   1.142 -0.2129 -1.0084 -0.2993
   52SOL     OW  154   1.000   1.578   0.892 -0.4747  0.1778 -0.5466
   52SOL    HW1  155   1.100   1.548   0.907  3.7470 -4.2484  0.0300
   52SOL    HW2  156   0.966   1.646   0.961  1.5811  1.4467  1.3452
   53SOL     OW  157   0.554   1.523   2.657  0.0564 -0.3698 -0.1995
   53SOL    HW1  158   0.518   1.599   2.715 -0.7569 -3.1442 -3.2297
   53SOL    HW2  159   0.496   1.441   2.656  2.4465  2.6203 -0.5036
   54SOL     OW  160   2.809   1.319   1.739  0.4141  0.3800 -0.2172
   54SOL    HW1  161   2.824   1.221   1.753  2.1465 -1.6203 -0.5942
   54SOL    HW2  162   2.789   1.370   1.825  1.1089  3.3005  0.5871
   55SOL     OW  163   2.481   1.782   0.592 -0.2290 -0.4841 -0.3116
   55SOL    HW1  164   2.540   1.695   0.594  0.5525 -1.7684  0.5702
   55SOL    HW2  165   2.480   1.839   0.676  1.1020 -0.5291  3.0649
   56SOL     OW  166   1.485   0.021   1.645  0.2935  0.2044  0.1350
   56SOL    HW1  167   1.532   3.063   1.721 -0.2927  0.6170 -0.5711
   56SOL    HW2  168   1.490   0.121   1.657  0.3671  0.6349  1.2871
   57SOL     OW  169   1.516   1.324   2.716  0.0223 -0.3091  0.0149
   57SOL    HW1  170   1.615   1.353   2.715  1.3652 -0.0181 -0.3958
   57SOL    HW2  171   1.513   1.236   2.664 -0.4438 -2.7185 -1.1223
   58SOL     OW  172   0.194   0.776   1.577  0.0710 -0.0924  0.0866
   58SOL    HW1  173   0.291   0.803   1.563 -0.1724 -0.3157  0.2161
   58SOL    HW2  174   0.135   0.856   1.597 -0.7769 -2.0845  0.6372
   59SOL     OW  175   1.891   2.852   0.285 -0.8670  0.3532 -0.4665
   59SOL    HW1  176   1.936   2.934   0.248  1.6938 -3.7078 -1.8149
   59SOL    HW2  177   1.949   2.772   0.257  1.0582 -0.2241 -0.1386
   60SOL     OW  178   0.050   1.762   0.040  0.4422  0.1195 -0.2791
   60SOL    HW1  179   3.078   1.833   0.088 -0.1395  0.2656  1.8890
   60SOL    HW2  180   0.035   1.760   3.028  0.9986  0.5542  0.8554
   61SOL     OW  181   0.890   2.564   0.772 -0.7330  0.2734  0.3854
   61SOL    HW1  182   0.823   2.590   0.842 -0.2706 -0.1797 -1.9830
   61SOL    HW2  183   0.902   2.467   0.765  0.9151  3.1048 -0.1341
   62SOL     OW  184   1.954   1.495   2.536 -0.1025  0.4049  0.2251
   62SOL    HW1  185   2.035   1.445   2.500  0.8220  1.7708 -1.6256
   62SOL    HW2  186   1.989   1.583   2.572 -1.1406 -2.7254 -1.2222
   63SOL     OW  187   2.160   2.174   0.794  0.2392  0.5425 -0.1427
   63SOL    HW1  188   2.238   2.144   0.730 -0.1722 -0.6650 -2.7500
   63SOL    HW2  189   2.076   2.176   0.735 -0.0498 -1.7853 -1.1269
   64SOL     OW  190   1.641   1.057   2.956 -0.3543  0.3530 -0.0840
   64SOL    HW1  191   1.680   0.989   2.892 -0.7052  0.5451  0.5549
   64SOL    HW2  192   1.717   1.128   2.963  3.0825  1.4473 -0.0893
   65SOL     OW  193   1.894   1.807   2.269  0.6010 -0.6411 -0.4920
   65SOL    HW1  194   1.972   1.746   2.281 -2.7282  1.7482  4.3348
   65SOL    HW2  195   1.905   1.871   2.188 -1.0949 -0.5237  1.7446
   66SOL     OW  196   0.345   0.905   1.354  0.6907 -0.0327 -0.4236
   66SOL    HW1  197   0.420   0.882   1.292 -1.7620 -0.3378 -1.5424
   66SOL    HW2  198   0.294   0.989   1.319 -1.7284  1.9368 -0.9468
   67SOL     OW  199   2.284   2.815   2.553 -0.0774  0.3190 -0.1862
   67SOL    HW1  200   2.340   2.744   2.502 -1.4362 -0.1981 -0.2078
   67SOL    HW2  201   2.333   2.900   2.575  0.3247  1.7717  1.1670
   68SOL     OW  202   1.197   2.479   1.381 -0.1340 -0.0419  0.1219
   68SOL    HW1  203   1.290   2.506   1.413 -0.4571  2.2964 -0.9048
   68SOL    HW2  204   1.161   2.565   1.333 -1.6075 -0.2739  2.0179
   69SOL     OW  205   0.538   2.492   0.118  0.3001 -0.2482 -0.4941
   69SOL    HW1  206   0.531   2.496   0.219  0.9581 -2.0629 -0.1161
   69SOL    HW2  207   0.480   2.415   0.085  2.8692  1.3714 -0.7905
   70SOL     OW  208   2.782   0.435   2.435 -0.1307  0.0835  0.1724
   70SOL    HW1  209   2.796   0.375   2.350 -0.0549 -2.0621 -1.4379
   70SOL    HW2  210   2.854   0.510   2.434 -1.1529  0.1052 -1.1580
   71SOL     OW  211   0.419   1.294   2.677  0.5427 -0.1019 -0.2123
   71SOL    HW1  212   0.334   1.347   2.684  0.1302  0.2854  1.8124
   71SOL    HW2  213   0.399   1.194   2.690  3.8516 -2.3509  1.9819
   72SOL     OW  214   0.358   1.851   2.606  0.1820 -0.4674 -0.2085
   72SOL    HW1  215   0.324   1.840   2.511  0.3446  0.4912  2.3521
   72SOL    HW2  216   0.433   1.919   2.609  0.6050 -0.9095  0.9251
   73SOL     OW  217   1.580   1.590   0.248 -0.1603  0.6009  0.3786
   73SOL    HW1  218   1.566   1.528   0.328 -0.0322 -0.2961  0.4044
   73SOL    HW2  219   1.509   1.662   0.245 -0.1986  2.6800  2.1858
   74SOL     OW  220   2.253   2.615   2.769  0.8410 -0.6305 -0.4072
   74SOL    HW1  221   2.267   2.684   2.692  1.3240 -0.1691 -0.7116
   74SOL    HW2  222   2.247   2.659   2.862 -0.8418 -2.8790 -1.7267
   75SOL     OW  223   1.895   2.062   1.086  0.3528 -0.3497 -0.2109
   75SOL    HW1  224   1.844   2.101   1.163  2.0277  0.5232  0.5940
   75SOL    HW2  225   1.901   1.957   1.084  0.9534  0.2395 -0.8167
   76SOL     OW  226   2.159   2.248   2.104  0.0313  0.1121 -0.0660
   76SOL    HW1  227   2.164   2.339   2.056 -0.2229  1.5551  0.4576
   76SOL    HW2  228   2.105   2.250   2.194 -0.0056  2.7027  0.8877
   77SOL     OW  229   2.580   0.098   2.152 -0.1594 -0.1790 -0.5148
   77SOL    HW1  230   2.577   0.079   2.052 -0.1079  3.3225  1.5503
   77SOL    HW2  231   2.605   0.022   2.212 -0.4175  0.2734 -2.5168
   78SOL     OW  232   1.891   1.177   2.916 -0.9192 -0.2286  0.0719
   78SOL    HW1  233   1.943   1.161   3.006  1.7845  0.9581  1.6848
   78SOL    HW2  234   1.954   1.196   2.836  2.3270  1.2450 -0.7485
   79SOL     OW  235   2.645   1.448   2.544  0.1157 -0.6641  0.4154
   79SOL    HW1  236   2.709   1.467   2.471  1.3907 -0.8769  1.2060
   79SOL    HW2  237   2.624   1.539   2.591  2.1986  0.2454  1.4899
   80SOL     OW  238   1.805   1.666   1.539 -0.0127 -0.1501  0.6265
   80SOL    HW1  239   1.803   1.716   1.628 -1.2422  1.5035  2.2589
   80SOL    HW2  240   1.804   1.564   1.557 -2.3350 -0.3319 -2.3883
   81SOL     OW  241   1.897   0.645   1.753 -0.3918  0.1537  0.3939
   81SOL    HW1  242   1.999   0.644   1.781  1.8652 -0.6263  1.8101
   81SOL    HW2  243   1.879   0.725   1.691  1.0349  1.6181  1.3169
   82SOL     OW  244   1.920   1.994   1.668 -0.3863 -0.0015 -0.7000
   82SOL    HW1  245   1.949   1.949   1.582  1.5940  1.7028  1.7272
   82SOL    HW2  246   1.948   2.092   1.669 -2.6232 -1.2559 -1.2083
   83SOL     OW  247   2.924   3.034   0.220 -0.1510  0.6525  0.0487
   83SOL    HW1  248   2.964   0.006   0.297 -0.1320  1.0933  1.1566
   83SOL    HW2  249   2.936   3.072   0.126 -1.5061 -1.7083 -3.4605
   84SOL     OW  250   0.632   1.219   0.172  0.6056  0.2159 -0.4836
   84SOL    HW1  251   0.673   1.140   0.125  0.2679 -1.8812  0.4630
   84SOL    HW2  252   0.701   1.258   0.238  2.7026  0.1501  1.0339
   85SOL     OW  253   2.584   2.025   1.509 -0.5374  0.2556 -0.0778
   85SOL    HW1  254   2.566   1.998   1.609  2.2889  0.0019  0.2654
   85SOL    HW2  255   2.572   1.944   1.454  2.1918  0.3993  1.7307
   86SOL     OW  256   0.444   2.680   1.378  0.1076  0.5710  0.2287
   86SOL    HW1  257   0.540   2.639   1.387 -1.7064  0.7321  0.2120
   86SOL    HW2  258   0.429   2.737   1.462 -1.1738  1.9508  2.6917
   87SOL     OW  259   0.338   2.478   2.278 -0.1877 -0.2793  0.2136
   87SOL    HW1  260   0.434   2.444   2.258  0.1503  1.0213  0.8204
   87SOL    HW2  261   0.274   2.401   2.286  1.3019  2.0384  0.4427
   88SOL     OW  262   0.156   2.269   0.571 -0.3052  0.1356  0.4273
   88SOL    HW1  263   0.213   2.285   0.654  0.9969  1.3878  1.9508
   88SOL    HW2  264   0.210   2.281   0.486 -1.5236  2.7289 -0.0263
   89SOL     OW  265   0.726   0.689   1.379  0.6470 -0.0019 -0.1130
   89SOL    HW1  266   0.825   0.663   1.373  0.4260 -2.2572 -0.3120
   89SOL    HW2  267   0.663   0.607   1.381  1.1152 -1.5990 -1.0981
   90SOL     OW  268   0.174   1.160   1.729  0.6916 -0.0114  0.0165
   90SOL    HW1  269   0.158   1.240   1.668  2.6864  0.1958 -2.5894
   90SOL    HW2  270   0.253   1.173   1.791 -0.2950  1.4386  1.0559
   91SOL     OW  271   1.168   0.717   1.059 -0.0275 -0.2802  0.4974
   91SOL    HW1  272   1.234   0.793   1.048  1.8222  1.5629  1.1669
   91SOL    HW2  273   1.204   0.631   1.026  0.7369  2.6525  2.3950
   92SOL     OW  274   2.035   1.028   0.809 -0.2498 -0.3683  0.0583
   92SOL    HW1  275   2.103   1.098   0.774  0.9925  1.3584 -1.6184
   92SOL    HW2  276   1.948   1.041   0.759  0.9690 -1.6825  0.5128
   93SOL     OW  277   2.435   0.783   2.413 -0.8292 -0.9869  0.0673
   93SOL    HW1  278   2.479   0.689   2.405 -0.0898 -2.8611  1.0810
   93SOL    HW2  279   2.360   0.788   2.482 -1.1441  0.3952 -2.0331
   94SOL     OW  280   2.216   1.875   2.512  0.0749  0.1601 -0.0314
   94SOL    HW1  281   2.201   1.974   2.482  3.5206  0.2293  0.7458
   94SOL    HW2  282   2.205   1.857   2.611 -1.5511  2.7712 -1.6664
   95SOL     OW  283   2.689   0.660   1.142 -0.5202 -0.3154  0.3607
   95SOL    HW1  284   2.694   0.718   1.057 -0.5832 -0.6329 -0.1766
   95SOL    HW2  285   2.600   0.614   1.151 -2.1035 -0.8370 -2.1170
   96SOL     OW  286   2.409   2.724   1.591 -0.0276 -0.1150  0.2996
   96SOL    HW1  287   2.320   2.780   1.605  0.1391  1.7996  1.4713
   96SOL    HW2  288   2.459   2.726   1.681 -2.5892 -3.9106  0.9999
   97SOL     OW  289   2.544   1.116   1.299 -0.3888  0.2963  0.2608
   97SOL    HW1  290   2.585   1.168   1.221  0.6096 -2.1979  4.3344
   97SOL    HW2  291   2.563   1.149   1.394  0.0189  3.1606  0.1565
   98SOL     OW  292   1.366   2.181   1.879 -0.1372  0.1022 -0.1296
   98SOL    HW1  293   1.330   2.085   1.877 -1.3610  2.3021 -0.1118
   98SOL    HW2  294   1.301   2.245   1.833  0.6181 -0.9141  1.7815
   99SOL     OW  295   0.618   2.266   1.372 -0.2376  0.1582 -0.2188
   99SOL    HW1  296   0.686   2.211   1.318 -0.0139 -0.9034 -0.1067
   99SOL    HW2  297   0.632   2.364   1.349 -1.9911 -0.7007  0.1208
  100SOL     OW  298   1.159   0.618   2.913  0.2940 -0.7527 -0.1263
  100SOL    HW1  299   1.203   0.662   2.998  0.7224  1.8231  1.6676
  100SOL    HW2  300   1.237   0.578   2.862 -0.1583 -0.2066 -0.6603
  101SOL     OW  301   2.451   0.160   2.735  0.1059  0.1564 -0.0412
  101SOL    HW1  302   2.412   0.093   2.672  1.8157 -0.0660 -2.8517
  101SOL    HW2  303   2.423   0.256   2.714 -2.4647  2.0847  0.8768
  102SOL     OW  304   0.466   0.880   1.592  0.2236 -0.1250 -0.1613
  102SOL    HW1  305   0.438   0.913   1.500  1.6735  1.1762  0.8519
  102SOL    HW2  306   0.566   0.860   1.599 -2.0264  2.2801  0.9804
  103SOL     OW  307   0.188   0.721   2.497 -0.4587 -0.1651  0.3832
  103SOL    HW1  308   0.149   0.790   2.560 -0.0272 -2.0787 -4.3993
  103SOL    HW2  309   0.284   0.702   2.523 -0.4888  1.5467  0.2168
  104SOL     OW  310   0.655   0.584   2.460 -0.8066  0.1404 -0.0620
  104SOL    HW1  311   0.647   0.533   2.370  1.5274  1.7911 -1.4359
  104SOL    HW2  312   0.723   0.542   2.519 -3.5071  0.6318 -0.4385
  105SOL     OW  313   2.032   2.249   1.763 -0.6740  0.4319  0.1743
  105SOL    HW1  314   2.101   2.254   1.834  0.5132  2.8931 -0.3172
  105SOL    HW2  315   2.073   2.290   1.681  1.2908 -0.9261  2.4379
  106SOL     OW  316   1.949   0.136   0.543 -0.3473 -0.2011  0.0535
  106SOL    HW1  317   1.898   0.048   0.532  0.7210  0.5750 -1.3506
  106SOL    HW2  318   1.946   0.188   0.456  0.3066 -2.1985 -0.2509
  107SOL     OW  319   2.817   2.006   1.013 -0.3836  0.1773 -0.5944
  107SOL    HW1  320   2.763   2.081   1.060  0.6563 -0.3176 -2.4657
  107SOL    HW2  321   2.815   2.008   0.910 -1.2752  0.3275  1.1226
  108SOL     OW  322   2.863   2.770   1.479 -0.2267 -0.3902 -0.0998
  108SOL    HW1  323   2.807   2.849   1.439  2.7978  0.8115  2.5799
  108SOL    HW2  324   2.961   2.781   1.450 -0.6243  0.5075  1.0526
  109SOL     OW  325   2.243   2.484   1.033  0.1322 -0.0543 -0.7593
  109SOL    HW1  326   2.201   2.435   1.112 -3.7360  1.8898 -1.2152
  109SOL    HW2  327   2.182   2.557   0.990 -2.9922  2.0651 -1.7219
  110SOL     OW  328   0.671   1.639   2.427 -0.2412  0.0440 -0.1638
  110SOL    HW1  329   0.624   1.588   2.496 -0.1574 -2.6206 -0.2053
  110SOL    HW2  330   0.764   1.675   2.455 -2.2856  0.9616  0.7162
  111SOL     OW  331   1.556   2.521   2.323 -0.2294 -0.0660 -0.6833
  111SOL    HW1  332   1.655   2.530   2.298 -0.0272 -0.1257  1.8370
  111SOL    HW2  333   1.496   2.523   2.242  0.3893 -1.2394  3.9371
  112SOL     OW  334   1.992   1.682   2.923  0.5338  0.3659  0.2981
  112SOL    HW1  335   2.088   1.668   2.889  0.1855  2.2888 -0.8165
  112SOL    HW2  336   1.941   1.713   2.842 -1.2544  0.6039  0.5695
  113SOL     OW  337   1.604   2.005   1.564 -0.5300  0.1314 -0.0190
  113SOL    HW1  338   1.554   1.929   1.613  2.0560  1.1002  0.9488
  113SOL    HW2  339   1.706   2.007   1.581 -2.1457  0.1746  1.1717
  114SOL     OW  340   2.962   0.927   0.874 -0.0967  0.0776  0.6465
  114SOL    HW1  341   2.935   0.854   0.811  1.5073  3.3718  1.9694
  114SOL    HW2  342   2.983   0.884   0.963  0.7683 -2.1842  0.6525
  115SOL     OW  343   0.751   0.794   0.324  0.9722 -0.3951  0.6128
  115SOL    HW1  344   0.769   0.736   0.402 -0.0943 -1.4604  1.3849
  115SOL    HW2  345   0.672   0.762   0.267 -2.5016 -1.1589 -1.9253
  116SOL     OW  346   2.769   1.713   2.540 -0.0395  0.0531  0.1385
  116SOL    HW1  347   2.696   1.776   2.506  1.5117 -0.4953 -4.3847
  116SOL    HW2  348   2.830   1.761   2.608  0.1813  1.1953  0.4169
  117SOL     OW  349   2.785   2.863   0.546 -0.6096  0.0448  0.0063
  117SOL    HW1  350   2.837   2.797   0.486 -0.3302 -1.2452  2.5692
  117SOL    HW2  351   2.770   2.825   0.636  2.1962 -1.8695 -1.7256
  118SOL     OW  352   1.031   1.552   2.843 -0.3002 -0.1453 -0.2860
  118SOL    HW1  353   0.954   1.538   2.774 -4.6670  0.9801  0.2022
  118SOL    HW2  354   1.004   1.618   2.913 -0.7189 -0.5120  0.1911
  119SOL     OW  355   0.295   2.015   0.021 -0.6941 -0.1446 -0.2409
  119SOL    HW1  356   0.202   2.047   0.014  1.9634 -2.9306 -0.8365
  119SOL    HW2  357   0.304   1.935   0.081 -1.2112  1.1000  2.2411
  120SOL     OW  358   1.474   0.634   0.283 -0.2015 -0.0704  0.0684
  120SOL    HW1  359   1.550   0.687   0.319  0.3296 -0.4532 -0.8776
  120SOL    HW2  360   1.396   0.692   0.247 -0.2459  0.8668  1.7879
  121SOL     OW  361   1.239   2.563   0.487  0.3060 -0.0556 -0.4739
  121SOL    HW1  362   1.278   2.539   0.580  0.0458  0.2290 -1.4763
  121SOL    HW2  363   1.283   2.510   0.417 -0.0531  2.0725  2.0730
  122SOL     OW  364   2.388   2.353   1.574  0.2800 -0.1038 -0.0098
  122SOL    HW1  365   2.305   2.311   1.533 -0.6576 -0.8782  1.9864
  122SOL    HW2  366   2.470   2.328   1.517  0.4511 -0.4181  1.8658
  123SOL     OW  367   0.782   2.066   0.471 -0.2115  0.5198  0.0316
  123SOL    HW1  368   0.737   2.047   0.387  2.3741  1.2506  2.5860
  123SOL    HW2  369   0.778   2.163   0.498  1.9666 -1.3154  1.9955
  124SOL     OW  370   2.894   0.792   0.324 -0.5228 -0.2585 -0.1959
  124SOL    HW1  371   2.990   0.784   0.297 -2.4383  2.8894 -1.6422
  124SOL    HW2  372   2.873   0.889   0.349  0.7211  0.3198 -1.1560
  125SOL     OW  373   0.348   0.737   0.304 -0.6867  0.1891  0.2005
  125SOL    HW1  374   0.426   0.722   0.235  0.7405 -1.8115 -0.8109
  125SOL    HW2  375   0.348   0.836   0.329 -1.0924  2.2581  0.4120
  126SOL     OW  376   0.072   2.038   0.735 -0.6243 -1.0308  0.2751
  126SOL    HW1  377   0.115   1.981   0.660  1.5681 -0.7973 -0.6979
  126SOL    HW2  378   0.102   2.137   0.727 -1.1902  4.4632 -0.9766
  127SOL     OW  379   1.314   1.906   1.917 -0.5713  0.9411  0.1503
  127SOL    HW1  380   1.396   1.868   1.963  1.4828 -2.6279 -0.6780
  127SOL    HW2  381   1.230   1.889   1.968  1.4758  0.0048 -2.4514
  128SOL     OW  382   1.168   1.354   0.433  0.0403  0.7693  0.1719
  128SOL    HW1  383   1.157   1.430   0.367 -0.6634  0.2677  2.2710
  128SOL    HW2  384   1.240   1.298   0.387 -0.0188  0.0405 -1.9114
  129SOL     OW  385   1.980   1.206   1.172  0.4504  0.2483  0.1409
  129SOL    HW1  386   1.960   1.196   1.074 -0.6652  0.6960  3.6860
  129SOL    HW2  387   1.904   1.259   1.214 -1.6704  0.8215 -2.2178
  130SOL     OW  388   2.347   1.605   1.607 -0.2014 -0.5282 -0.0235
  130SOL    HW1  389   2.311   1.670   1.538  3.9993 -1.3483  0.7750
  130SOL    HW2  390   2.446   1.627   1.632  2.6840 -0.1666 -1.1993
  131SOL     OW  391   2.958   2.616   2.743 -0.0127 -0.4452  0.2977
  131SOL    HW1  392   2.867   2.631   2.793 -0.2644 -0.0987 -2.1757
  131SOL    HW2  393   2.962   2.651   2.648  0.6270  0.2178  3.4613
  132SOL     OW  394   3.086   1.543   0.347 -0.2633 -0.3514  0.1747
  132SOL    HW1  395   3.016   1.562   0.273  0.9760 -0.1634  0.0519
  132SOL    HW2  396   3.073   1.595   0.434  1.2021 -0.6453 -0.4554
  133SOL     OW  397   0.316   0.357   1.698 -0.1209  0.6192  0.6006
  133SOL    HW1  398   0.385   0.302   1.746  0.0484 -0.5666  4.2780
  133SOL    HW2  399   0.238   0.302   1.659  0.8249  2.3630 -1.4581
  134SOL     OW  400   0.464   1.734   2.822  0.1745  0.0560  0.0630
  134SOL    HW1  401   0.419   1.776   2.741  0.4373 -1.6765  1.1981
  134SOL    HW2  402   0.509   1.809   2.867 -1.0266 -2.2892 -1.1387
  135SOL     OW  403   1.498   0.645   1.811 -0.0587 -0.2686 -0.2681
  135SOL    HW1  404   1.557   0.725   1.835  0.3311  0.4561  1.0848
  135SOL    HW2  405   1.488   0.581   1.884 -2.0901 -0.2550  1.0901
  136SOL     OW  406   3.013   1.181   0.213 -0.0230  0.0197  0.1423
  136SOL    HW1  407   2.993   1.181   0.111 -0.8927 -0.1844  1.6899
  136SOL    HW2  408   0.010   1.235   0.235  0.7968 -1.7431  0.5486
  137SOL     OW  409   0.181   1.780   1.050 -0.0838 -0.3457  0.2864
  137SOL    HW1  410   0.223   1.784   0.959 -2.1640 -0.6333 -0.1849
  137SOL    HW2  411   0.114   1.861   1.057 -1.5301 -2.4458  1.0686
  138SOL     OW  412   2.259   0.723   1.433  0.5351  0.3571 -0.0330
  138SOL    HW1  413   2.300   0.801   1.386 -0.6907  2.0842  2.6319
  138SOL    HW2  414   2.330   0.667   1.479 -0.2305  0.7158  0.4861
  139SOL     OW  415   1.452   2.609   0.128  0.1057 -0.3440  0.2906
  139SOL    HW1  416   1.536   2.645   0.086  0.7652  0.4413 -1.7543
  139SOL    HW2  417   1.388   2.689   0.129  0.1805 -0.7086  0.3650
  140SOL     OW  418   1.333   1.639   1.342 -0.6368  0.2421  0.4216
  140SOL    HW1  419   1.283   1.561   1.308  2.8672 -0.5116  0.4811
  140SOL    HW2  420   1.410   1.660   1.285  0.0268  1.4801 -1.1379
  141SOL     OW  421   1.346   2.218   0.225 -0.5307  0.4191 -0.2641
  141SOL    HW1  422   1.261   2.198   0.272  0.9412  0.2364 -0.7030
  141SOL    HW2  423   1.385   2.306   0.259  0.4335 -0.2670  0.5529
  142SOL     OW  424   0.998   0.426   0.633 -0.0306 -0.1777 -0.4535
  142SOL    HW1  425   0.991   0.343   0.570  0.6476 -1.6841 -1.3020
  142SOL    HW2  426   0.960   0.508   0.584 -0.6750 -1.5854 -0.6832
  143SOL     OW  427   0.783   1.886   2.978  0.5048  0.2222  0.2144
  143SOL    HW1  428   0.880   1.921   2.985  1.2450 -0.0089 -0.0977
  143SOL    HW2  429   0.711   1.958   2.988  1.2774  0.6986  2.0360
  144SOL     OW  430   1.555   2.653   0.861 -0.3894 -0.2823 -0.1119
  144SOL    HW1  431   1.559   2.751   0.881 -0.2489  0.0221 -1.2121
  144SOL    HW2  432   1.647   2.618   0.829 -1.3615 -2.5649 -0.7145
  145SOL     OW  433   1.836   0.521   2.466 -0.2025  0.0272 -0.6256
  145SOL    HW1  434   1.936   0.513   2.442  1.0219  1.9542  1.5270
  145SOL    HW2  435   1.778   0.455   2.419 -1.6270  1.0697  1.0982
  146SOL     OW  436   0.170   2.954   0.800  0.3948 -0.1665  0.1060
  146SOL    HW1  437   0.076   2.992   0.806  0.8564 -0.1389  0.7381
  146SOL    HW2  438   0.190   2.928   0.703  0.5494  1.9845 -1.3623
  147SOL     OW  439   2.276   0.128   1.907  0.0522 -0.5605 -0.1325
  147SOL    HW1  440   2.210   0.113   1.827 -2.1365 -0.9403  0.1032
  147SOL    HW2  441   2.247   0.206   1.967  0.5559  1.0583  0.6526
  148SOL     OW  442   1.185   0.168   2.063 -0.2326 -0.2135 -0.0252
  148SOL    HW1  443   1.118   0.244   2.054 -1.0375 -4.6873 -1.0300
  148SOL    HW2  444   1.224   0.176   2.158 -2.9235  3.8472 -0.3756
  149SOL     OW  445   1.502   0.492   2.046  0.8242 -0.5268 -0.2852
  149SOL    HW1  446   1.462   0.405   2.008 -0.4187 -0.7235  1.5177
  149SOL    HW2  447   1.434   0.557   2.095 -2.5396  0.4653  1.1008
  150SOL     OW  448   3.054   0.164   3.062 -0.4046 -0.0530  0.2537
  150SOL    HW1  449   3.016   0.221   0.047  0.4433 -0.1238 -0.6864
  150SOL    HW2  450   3.063   0.228   2.981  0.2021  2.0311 -3.8614
  151SOL     OW  451   0.735   1.609   0.250  0.1524 -0.0656 -0.0244
  151SOL    HW1  452   0.681   1.676   0.190  1.0306  1.0476 -0.1493
  151SOL    HW2  453   0.832   1.642   0.271 -4.1282  0.4661 -2.9837
  152SOL     OW  454   2.996   0.403   0.469  0.2780  0.2133 -0.4577
  152SOL    HW1  455   2.931   0.453   0.411  0.6450 -1.3948  2.1163
  152SOL    HW2  456   3.073   0.465   0.475 -1.9563 -3.7218 -0.7653
  153SOL     OW  457   2.500   0.569   1.554 -0.3177 -0.5705  0.5376
  153SOL    HW1  458   2.582   0.505   1.552  1.8149 -0.4336  1.0814
  153SOL    HW2  459   2.481   0.613   1.647 -2.1616 -1.5939 -1.5382
  154SOL     OW  460   1.591   0.113   2.118 -0.2757 -0.1277  0.0696
  154SOL    HW1  461   1.543   0.028   2.149 -1.1081 -2.3231 -0.0369
  154SOL    HW2  462   1.529   0.157   2.047  0.0189  0.9172  0.2457
  155SOL     OW  463   0.290   1.854   0.661 -0.1840  0.2689 -0.0238
  155SOL    HW1  464   0.321   1.941   0.704 -2.2245  3.3953  0.1220
  155SOL    HW2  465   0.281   1.781   0.727  0.7033  1.9343 -0.9385
  156SOL     OW  466   1.865   2.073   2.907 -0.4613  0.3253 -0.2352
  156SOL    HW1  467   1.923   2.063   2.823  0.3197  3.1788  1.1492
  156SOL    HW2  468   1.801   1.991   2.911 -0.1306 -0.0715  1.2486
  157SOL     OW  469   1.050   0.406   0.272 -0.6101  0.1894  0.0981
  157SOL    HW1  470   1.084   0.486   0.326 -2.6995 -0.5577  1.2723
  157SOL    HW2  471   1.104   0.383   0.183  0.4645 -1.4327 -1.4813
  158SOL     OW  472   2.245   0.329   2.468  0.0445 -0.5786  0.2156
  158SOL    HW1  473   2.302   0.286   2.398 -1.2978 -0.9630  4.7983
  158SOL    HW2  474   2.147   0.319   2.435 -0.8394  1.7417 -1.8163
  159SOL     OW  475   3.016   0.137   0.373  0.1512 -0.2097 -0.0985
  159SOL    HW1  476   2.996   0.236   0.404 -0.1049  1.2606  0.0337
  159SOL    HW2  477   0.014   0.108   0.417 -1.2110  0.8535 -1.2996
  160SOL     OW  478   1.735   1.849   2.475 -0.3776 -0.1397 -0.0278
  160SOL    HW1  479   1.649   1.799   2.464  2.3996 -0.1773 -1.9441
  160SOL    HW2  480   1.803   1.820   2.397  2.8679 -1.5712 -1.6010
  161SOL     OW  481   2.770   0.709   2.682  0.4990 -0.2686 -0.2878
  161SOL    HW1  482   2.851   0.707   2.620  0.8864  0.2272  1.4223
  161SOL    HW2  483   2.732   0.616   2.700  1.6510  0.1472 -1.4513
  162SOL     OW  484   0.682   2.557   1.361 -0.1379 -0.7024  0.0806
  162SOL    HW1  485   0.740   2.541   1.436  0.0189 -0.1392 -5.5852
  162SOL    HW2  486   0.728   2.579   1.276 -1.8811 -1.7475 -0.6794
  163SOL     OW  487   2.327   0.394   2.704  0.1612 -0.0680  0.2954
  163SOL    HW1  488   2.241   0.396   2.757 -2.5940 -0.7504  0.9854
  163SOL    HW2  489   2.305   0.378   2.609  2.8140 -1.4123  1.3006
  164SOL     OW  490   1.985   1.765   0.094  0.0883 -0.5376  0.0065
  164SOL    HW1  491   1.985   1.743   3.083  0.2916 -2.3394  0.6519
  164SOL    HW2  492   2.065   1.829   0.116  1.4361  1.8500 -1.4220
  165SOL     OW  493   2.691   0.387   1.530 -0.0609  0.3368 -0.1660
  165SOL    HW1  494   2.734   0.397   1.621 -0.5220 -3.8011 -4.9464
  165SOL    HW2  495   2.745   0.439   1.457  2.1001 -0.0023 -1.9918
  166SOL     OW  496   2.401   1.076   3.069  0.6046  0.1932 -0.1345
  166SOL    HW1  497   2.398   1.097   2.971  2.1179  0.3931 -0.9248
  166SOL    HW2  498   2.350   1.151   0.032 -1.9789  0.8978  1.3650
  167SOL     OW  499   2.756   0.560   2.955  0.7306  0.4244  0.0822
  167SOL    HW1  500   2.803   0.494   2.892  1.0921 -0.4993 -0.2542
  167SOL    HW2  501   2.691   0.505   3.013 -0.1998  1.4908 -0.4732
  168SOL     OW  502   1.702   2.897   2.800  0.1443 -0.5850  0.3166
  168SOL    HW1  503   1.797   2.896   2.827 -3.1377 -0.8319  0.5853
  168SOL    HW2  504   1.644   2.951   2.866 -0.6969  1.3508 -0.6718
  169SOL     OW  505   3.076   1.434   0.833  0.3800 -0.6146  0.2817
  169SOL    HW1  506   3.037   1.509   0.777 -5.0137  1.1551 -0.6545
  169SOL    HW2  507   3.062   1.345   0.786  1.2687  0.7023 -0.6925
  170SOL     OW  508   2.829   0.547   1.382  0.2585  0.1154  1.0931
  170SOL    HW1  509   2.920   0.590   1.395  0.2774  1.3083  0.7050
  170SOL    HW2  510   2.792   0.569   1.290  0.9551  1.3104  0.7394
  171SOL     OW  511   1.813   2.110   2.331  0.0734 -0.6592 -0.4964
  171SOL    HW1  512   1.829   2.011   2.353 -0.4663  1.7490  1.0922
  171SOL    HW2  513   1.712   2.128   2.332 -1.1550  3.2652  1.1193
  172SOL     OW  514   0.018   2.793   1.390  0.4728 -0.4898  0.6100
  172SOL    HW1  515   0.059   2.857   1.461 -1.6824 -0.9790  2.1107
  172SOL    HW2  516   0.086   2.738   1.343 -1.6139  1.9370 -0.6268
  173SOL     OW  517   1.060   0.945   0.163  0.1188  0.8284  0.5081
  173SOL    HW1  518   1.063   1.028   0.108 -1.2786 -0.6157  3.4613
  173SOL    HW2  519   1.022   0.960   0.256  1.3777 -0.1252  0.0554
  174SOL     OW  520   1.407   0.017   2.722  0.0605 -0.0182  0.4627
  174SOL    HW1  521   1.377   3.074   2.814  0.1609 -0.9330 -1.0875
  174SOL    HW2  522   1.368   0.111   2.691 -0.6476 -0.4862 -0.9138
  175SOL     OW  523   1.880   1.827   0.645 -0.0794  0.5215 -0.4705
  175SOL    HW1  524   1.828   1.785   0.721 -2.2578 -1.6793 -0.0316
  175SOL    HW2  525   1.965   1.772   0.627  0.6128 -0.1586 -0.7351
  176SOL     OW  526   1.411   0.381   0.274 -0.5865  0.1287 -0.5265
  176SOL    HW1  527   1.432   0.479   0.268 -0.4812 -1.1141  0.1677
  176SOL    HW2  528   1.356   0.362   0.188 -0.1626  1.3499  0.0680
  177SOL     OW  529   0.919   1.468   0.098 -0.0651  0.0878 -0.3498
  177SOL    HW1  530   0.835   1.490   0.145 -0.2870  0.6345  1.9116
  177SOL    HW2  531   0.966   1.556   0.064  2.0103 -0.2699 -0.3120
  178SOL     OW  532   2.627   2.352   2.718  0.3983  0.4441 -0.9190
  178SOL    HW1  533   2.531   2.358   2.753  1.0999  3.0511  1.5186
  178SOL    HW2  534   2.634   2.309   2.621  1.5164 -2.7512 -1.9193
  179SOL     OW  535   2.694   0.057   2.815 -0.1170 -0.0859 -0.6383
  179SOL    HW1  536   2.597   0.088   2.814 -0.6684  0.9430  0.1980
  179SOL    HW2  537   2.752   0.134   2.776 -0.1923  0.4832  0.4223
  180SOL     OW  538   1.323   1.430   0.667  0.3776  0.2326  0.2231
  180SOL    HW1  539   1.248   1.394   0.606 -0.7054 -2.1222 -0.1734
  180SOL    HW2  540   1.300   1.524   0.698 -1.0274  0.5308  1.2457
  181SOL     OW  541   1.711   0.993   2.463  0.1426  0.1668 -0.0324
  181SOL    HW1  542   1.740   0.906   2.415 -0.7450 -0.9478  0.0959
  181SOL    HW2  543   1.785   1.026   2.519 -0.0814  1.1570  0.2969
  182SOL     OW  544   2.537   2.936   2.654  0.4065 -0.0005  0.0416
  182SOL    HW1  545   2.615   2.988   2.684 -2.4369 -2.0546  2.9291
  182SOL    HW2  546   2.551   2.889   2.562 -2.4395 -0.6274 -0.5678
  183SOL     OW  547   2.127   0.566   2.357 -0.0512 -0.0142 -0.5303
  183SOL    HW1  548   2.125   0.576   2.257  1.5658 -0.1994 -0.0965
  183SOL    HW2  549   2.185   0.484   2.387  0.1923  0.9769 -1.4719
  184SOL     OW  550   0.079   1.386   1.598  0.8227  0.1936  0.8868
  184SOL    HW1  551   3.072   1.351   1.564 -0.9734 -2.2209 -1.0786
  184SOL    HW2  552   0.068   1.456   1.671 -0.0698 -0.0045  2.1467
  185SOL     OW  553   1.776   0.462   0.688 -0.8955  0.0031 -0.3883
  185SOL    HW1  554   1.858   0.450   0.742 -1.8124 -1.4443 -2.4832
  185SOL    HW2  555   1.713   0.376   0.689 -1.0877 -2.5600  0.2128
  186SOL     OW  556   0.254   2.383   2.897 -0.0420  0.2253 -0.2796
  186SOL    HW1  557   0.189   2.456   2.915  1.3890  2.3303 -2.0860
  186SOL    HW2  558   0.218   2.292   2.872  0.5842  0.4114 -0.1467
  187SOL     OW  559   2.783   1.056   0.287 -0.3613 -0.1750  0.2965
  187SOL    HW1  560   2.871   1.107   0.271 -0.1761  1.3788  3.1780
  187SOL    HW2  561   2.738   1.051   0.195 -0.0200  0.7968 -1.0500
  188SOL     OW  562   2.770   1.580   1.453 -0.4388  0.2170  0.2018
  188SOL    HW1  563   2.823   1.492   1.452 -1.7869 -0.3868 -1.9891
  188SOL    HW2  564   2.832   1.663   1.441 -1.0398 -1.1534  2.5306
  189SOL     OW  565   2.665   0.455   2.681 -0.2255  0.0718 -0.2934
  189SOL    HW1  566   2.566   0.446   2.686  2.4264 -1.6969 -2.6861
  189SOL    HW2  567   2.696   0.446   2.583  0.5686  3.3259  1.1841
  190SOL     OW  568   1.713   1.514   2.045 -0.0898  0.4664  0.3394
  190SOL    HW1  569   1.643   1.448   2.009  0.3317 -1.8537  1.2759
  190SOL    HW2  570   1.668   1.582   2.102  1.0470  0.0377 -1.0842
  191SOL     OW  571   0.459   0.324   1.975  0.6984 -0.4247  0.9876
  191SOL    HW1  572   0.422   0.420   1.980 -1.2632 -0.1932  2.4939
  191SOL    HW2  573   0.549   0.317   2.015  2.2877 -0.7998 -3.8741
  192SOL     OW  574   2.038   1.461   0.905  0.6327  0.3222  0.5905
  192SOL    HW1  575   1.956   1.395   0.893 -1.4127 -0.6588  1.3403
  192SOL    HW2  576   2.123   1.410   0.921 -0.8237 -0.3242  0.1388
  193SOL     OW  577   1.684   0.707   1.130 -0.0291 -0.7069 -0.4342
  193SOL    HW1  578   1.693   0.807   1.149  0.3059 -0.3168 -0.0188
  193SOL    HW2  579   1.638   0.687   1.043  2.2476  0.4409  0.7869
  194SOL     OW  580   0.621   1.926   1.293 -0.2439  0.2066  0.5746
  194SOL    HW1  581   0.691   2.004   1.306  2.6409  1.4209  0.0066
  194SOL    HW2  582   0.677   1.837   1.286  1.1237 -0.1931 -0.7019
  195SOL     OW  583   1.796   0.327   0.001  0.1565 -0.3489 -0.3213
  195SOL    HW1  584   1.839   0.350   0.090 -2.0261 -1.9976  0.3736
  195SOL    HW2  585   1.857   0.274   3.028  1.2204 -0.4447 -0.6713
  196SOL     OW  586   0.481   1.307   1.355  0.3777  0.2661  0.7357
  196SOL    HW1  587   0.518   1.387   1.406  1.6454  1.7234  0.1610
  196SOL    HW2  588   0.543   1.233   1.388 -0.0739  0.1118 -1.2959
  197SOL     OW  589   1.177   0.068   1.488 -0.0022 -0.2497  0.3204
  197SOL    HW1  590   1.249   0.050   1.417  0.7409 -1.0152 -3.6469
  197SOL    HW2  591   1.200   0.017   1.569  0.7779 -0.8152  0.1934
  198SOL     OW  592   0.687   1.067   1.170 -0.5792  0.1327  0.0860
  198SOL    HW1  593   0.692   1.090   1.267  0.6043 -3.1719 -0.4246
  198SOL    HW2  594   0.628   1.134   1.120  0.1363 -1.8947 -0.6797
  199SOL     OW  595   0.272   2.462   1.521 -0.3623 -0.3881 -0.6685
  199SOL    HW1  596   0.338   2.385   1.545 -0.6320 -0.5669  2.8848
  199SOL    HW2  597   0.303   2.513   1.437  3.0214  3.4122 -0.1575
  200SOL     OW  598   1.787   1.855   1.843 -0.0702 -0.2083  0.6415
  200SOL    HW1  599   1.811   1.758   1.830 -0.8702  0.2055 -1.4685
  200SOL    HW2  600   1.836   1.915   1.775 -0.9998  0.6937  1.0819
  201SOL     OW  601   0.525   1.765   2.259 -0.3534  0.2997  0.0443
  201SOL    HW1  602   0.432   1.776   2.303 -0.7545  0.9740 -0.2985
  201SOL    HW2  603   0.587   1.707   2.318  1.6623  0.4047 -1.0238
  202SOL     OW  604   1.910   0.641   0.005 -0.2789 -0.3631 -0.4550
  202SOL    HW1  605   1.922   0.600   3.002 -0.3433  2.9834 -0.4355
  202SOL    HW2  606   1.910   0.571   0.083 -0.0670  0.7052  1.1247
  203SOL     OW  607   1.204   2.764   1.967 -0.1919 -0.0860  0.3303
  203SOL    HW1  608   1.163   2.816   2.039  2.8902 -2.6033 -1.3115
  203SOL    HW2  609   1.152   2.784   1.884  1.3227  0.3669  1.0465
  204SOL     OW  610   0.556   2.102   1.816 -0.3202 -0.0072 -0.1735
  204SOL    HW1  611   0.657   2.113   1.793  0.3752  1.4907 -0.7701
  204SOL    HW2  612   0.511   2.028   1.770  0.9454 -0.1280 -0.6502
  205SOL     OW  613   1.558   1.845   2.051  0.3250  0.2098  0.3950
  205SOL    HW1  614   1.630   1.880   1.985  1.9839 -0.2588 -0.8987
  205SOL    HW2  615   1.600   1.794   2.126  1.1255  1.1186 -0.7078
  206SOL     OW  616   3.085   1.030   2.411 -0.1945 -0.5815 -0.6965
  206SOL    HW1  617   0.010   0.961   2.340  0.0523  1.2533  0.4526
  206SOL    HW2  618   0.082   1.083   2.422 -3.4508  0.3975 -2.3905
  207SOL     OW  619   0.821   2.934   1.888  0.2399  0.3214 -0.1765
  207SOL    HW1  620   0.825   3.003   1.964 -1.6831 -0.6805 -0.3480
  207SOL    HW2  621   0.764   2.854   1.918  0.7028  1.1613  1.0532
  208SOL     OW  622   0.515   2.647   1.832 -0.0206  0.3468 -0.0855
  208SOL    HW1  623   0.568   2.564   1.798 -1.5427  0.0729 -0.0840
  208SOL    HW2  624   0.414   2.624   1.824  3.7297  0.5254  0.5985
  209SOL     OW  625   1.572   0.031   0.196 -0.2296  0.3631 -0.1125
  209SOL    HW1  626   1.567   3.062   0.283 -1.9474  0.7736 -2.2304
  209SOL    HW2  627   1.601   0.124   0.224  0.0496  2.4274  1.7351
  210SOL     OW  628   2.672   0.748   0.881  0.2810  0.2986 -0.3487
  210SOL    HW1  629   2.746   0.733   0.813  1.1884  0.6910 -0.3196
  210SOL    HW2  630   2.580   0.731   0.846 -0.6425  0.2348  2.4289
  211SOL     OW  631   0.315   0.538   1.505 -0.0708 -0.2032 -0.0173
  211SOL    HW1  632   0.287   0.633   1.540 -1.6585  1.9670  0.0011
  211SOL    HW2  633   0.302   0.466   1.577 -2.5363 -1.4849  1.0087
  212SOL     OW  634   1.699   1.756   1.301  0.1754 -0.6147 -0.2952
  212SOL    HW1  635   1.746   1.742   1.390 -2.1122 -1.4013  0.8045
  212SOL    HW2  636   1.657   1.850   1.295 -1.3633  1.0722  2.3604
  213SOL     OW  637   2.589   0.421   1.856 -0.0341  0.6191 -0.2180
  213SOL    HW1  638   2.641   0.433   1.771 -0.2019  0.1773 -0.8068
  213SOL    HW2  639   2.650   0.428   1.936 -0.5572 -0.3338 -2.6513
  214SOL     OW  640   0.597   2.421   2.261 -0.5810  0.0631  0.3929
  214SOL    HW1  641   0.667   2.478   2.215  1.0588 -0.6235  1.1868
  214SOL    HW2  642   0.638   2.332   2.281  3.5851  1.6050 -1.1057
  215SOL     OW  643   2.623   1.659   1.681  0.2909 -0.4452  0.1814
  215SOL    HW1  644   2.687   1.672   1.762 -1.1628  1.0519 -0.3018
  215SOL    HW2  645   2.674   1.636   1.594 -0.8522  0.2625 -1.8804
  216SOL     OW  646   0.647   0.745   1.908 -0.5971  0.0964  0.0794
  216SOL    HW1  647   0.707   0.832   1.905 -1.6297  0.8585 -0.6942
  216SOL    HW2  648   0.547   0.762   1.911  1.0839 -0.9819 -1.4608
  217SOL     OW  649   2.602   0.478   0.669 -0.7214 -0.2465 -0.2076
  217SOL    HW1  650   2.664   0.471   0.750  2.4190  0.8889 -1.5588
  217SOL    HW2  651   2.538   0.558   0.678 -1.0100  2.3702  0.3580
  218SOL     OW  652   1.539   1.998   1.306 -0.2652  0.0347 -0.0684
  218SOL    HW1  653   1.458   2.014   1.244 -2.1178  0.0077 -0.6428
  218SOL    HW2  654   1.513   1.989   1.401  1.8311 -0.4516 -3.5155
  219SOL     OW  655   1.793   2.989   0.508  0.5342 -0.0629 -0.0819
  219SOL    HW1  656   1.807   2.931   0.592  1.2446  2.1636  1.8882
  219SOL    HW2  657   1.820   2.934   0.423  0.1092 -2.4423  0.6470
  220SOL     OW  658   1.736   2.398   0.334 -0.2079 -0.2638 -0.0506
  220SOL    HW1  659   1.745   2.444   0.245  0.7835  0.5317  2.1656
  220SOL    HW2  660   1.792   2.459   0.394  0.0607  0.8035 -1.8644
  221SOL     OW  661   2.715   1.612   0.293  0.1579 -0.1117 -0.4316
  221SOL    HW1  662   2.649   1.691   0.278 -1.0744  2.1940  0.2504
  221SOL    HW2  663   2.801   1.626   0.238  3.3281 -0.8713 -0.2752
  222SOL     OW  664   0.688   2.352   1.012  0.5545 -0.5497  0.4863
  222SOL    HW1  665   0.627   2.342   0.929 -0.7747  0.6246 -0.2013
  222SOL    HW2  666   0.754   2.276   1.014 -0.3812 -1.4435 -0.4213
  223SOL     OW  667   1.359   0.105   0.429  0.4942 -0.4699  0.3202
  223SOL    HW1  668   1.427   0.027   0.446  1.1382 -0.8192  1.4245
  223SOL    HW2  669   1.379   0.154   0.340 -0.7886  1.6809 -4.3151
  224SOL     OW  670   2.933   1.202   0.723  0.2965  0.2032  0.4222
  224SOL    HW1  671   2.850   1.242   0.676 -0.0071  0.8996  0.4544
  224SOL    HW2  672   2.920   1.127   0.792 -0.3514 -1.4046 -0.0758
  225SOL     OW  673   0.101   1.448   1.331 -0.6729 -0.2770 -0.3234
  225SOL    HW1  674   0.202   1.459   1.325 -0.3788  2.8680  0.7373
  225SOL    HW2  675   0.075   1.444   1.428 -1.3101 -0.8592  1.4037
  226SOL     OW  676   0.452   3.013   0.933  0.4687  0.0199 -0.5246
  226SOL    HW1  677   0.361   3.014   0.886 -0.2774 -0.2932  1.2130
  226SOL    HW2  678   0.464   0.018   0.965  3.2067 -1.2319 -1.3933
  227SOL     OW  679   1.288   1.424   1.834 -0.1222  0.2306 -0.6529
  227SOL    HW1  680   1.306   1.467   1.741 -0.7870  1.2077 -0.7730
  227SOL    HW2  681   1.246   1.501   1.889  1.2409  1.4714 -0.3403
  228SOL     OW  682   0.763   0.130   1.738  0.1667 -0.7377 -0.6431
  228SOL    HW1  683   0.797   0.230   1.738  0.2979  2.1580  1.6865
  228SOL    HW2  684   0.809   0.072   1.670 -3.4711  1.7120  1.8127
  229SOL     OW  685   2.978   0.697   2.500 -0.5639  0.2808  0.0991
  229SOL    HW1  686   3.009   0.678   2.401  0.1102  1.3451 -2.0676
  229SOL    HW2  687   3.059   0.696   2.563 -0.6487  0.9982 -1.2013
  230SOL     OW  688   0.202   0.757   0.985  0.3286  0.0590 -0.2717
  230SOL    HW1  689   0.183   0.825   0.910 -1.0368  1.8458  0.2467
  230SOL    HW2  690   0.184   0.797   1.076  1.4962 -2.7245 -0.3161
  231SOL     OW  691   1.202   0.060   1.815 -0.4382  0.3414  0.3301
  231SOL    HW1  692   1.170   0.115   1.896  2.1653 -1.2231  1.3876
  231SOL    HW2  693   1.296   0.030   1.828 -2.1831  1.6210 -0.8305
  232SOL     OW  694   2.951   1.953   0.114 -0.2231 -0.3122 -0.2104
  232SOL    HW1  695   2.988   1.964   0.210  1.1897 -1.0510  3.4425
  232SOL    HW2  696   2.852   1.961   0.117  3.9096  2.0323  0.2311
  233SOL     OW  697   1.268   2.556   2.846 -0.2796 -0.0838  0.1141
  233SOL    HW1  698   1.268   2.505   2.759 -1.0778 -2.6427 -0.5462
  233SOL    HW2  699   1.349   2.623   2.852  1.6533 -0.3966  1.4965
  234SOL     OW  700   0.450   1.159   1.794 -0.0758  0.3042  0.1900
  234SOL    HW1  701   0.463   1.087   1.727  1.4210  0.8570 -0.4733
  234SOL    HW2  702   0.526   1.162   1.866  0.1568  0.5041  2.1505
  235SOL     OW  703   0.076   2.327   2.377 -0.1621 -0.3688 -0.0207
  235SOL    HW1  704   0.141   2.253   2.400  0.1638 -1.6063 -0.5903
  235SOL    HW2  705   0.006   2.333   2.453 -1.9467 -1.6966  2.2601
  236SOL     OW  706   1.640   1.999   2.664 -0.4726 -0.2870 -0.4520
  236SOL    HW1  707   1.690   1.956   2.585  3.4101 -1.5338  1.0284
  236SOL    HW2  708   1.636   2.103   2.658 -2.3219  2.9345  0.8010
  237SOL     OW  709   1.530   0.612   0.917 -0.0321  0.0763 -0.2384
  237SOL    HW1  710   1.549   0.612   0.821 -0.7296 -0.7277  3.3991
  237SOL    HW2  711   1.464   0.689   0.939 -0.9460  2.6214 -0.8520
  238SOL     OW  712   1.131   2.985   2.145 -0.4689 -0.4857  0.5839
  238SOL    HW1  713   1.151   3.078   2.107 -0.9228  0.3753 -2.2488
  238SOL    HW2  714   1.048   2.978   2.192  2.3521 -2.6059 -2.4451
  239SOL     OW  715   0.952   2.586   1.913 -0.0902 -0.1422  0.3875
  239SOL    HW1  716   1.034   2.599   1.970 -0.6129 -1.1067 -1.0452
  239SOL    HW2  717   0.988   2.572   1.817  1.5788  0.1511 -0.5414
  240SOL     OW  718   2.170   0.018   0.660 -0.2987 -0.2601 -0.1117
  240SOL    HW1  719   2.083   0.041   0.612 -0.5952 -0.0681 -1.0309
  240SOL    HW2  720   2.226   0.101   0.683  0.6104 -1.4283 -0.9326
  241SOL     OW  721   1.247   1.359   2.711 -0.2874 -0.0253 -0.0279
  241SOL    HW1  722   1.205   1.387   2.800  0.3055  0.1297 -0.3419
  241SOL    HW2  723   1.346   1.359   2.711 -1.3856 -2.3738  0.8731
  242SOL     OW  724   2.719   0.826   2.975  0.4582 -0.7611 -0.3786
  242SOL    HW1  725   2.743   0.733   3.012  0.1500 -0.8940  0.3238
  242SOL    HW2  726   2.728   0.822   2.878 -1.6432  1.6817  4.2441
  243SOL     OW  727   0.848   0.371   1.714  0.1039  0.1644  0.5065
  243SOL    HW1  728   0.819   0.465   1.677  2.3794  3.9898 -0.2517
  243SOL    HW2  729   0.927   0.338   1.661  1.4831 -2.3194  2.9192
  244SOL     OW  730   1.347   2.984   2.950 -0.1137 -0.1152 -0.5451
  244SOL    HW1  731   1.247   2.973   2.979  1.7987 -0.5633  1.7589
  244SOL    HW2  732   1.405   2.959   3.029 -1.8005 -2.2601 -2.6704
  245SOL     OW  733   1.666   2.732   3.059 -0.3240  0.4991 -0.1633
  245SOL    HW1  734   1.720   2.646   3.084  1.0206 -1.6011 -0.9052
  245SOL    HW2  735   1.729   2.813   3.070 -0.9543 -0.4236 -2.6924
  246SOL     OW  736   0.770   0.979   1.881 -0.5696 -0.4807  0.0031
  246SOL    HW1  737   0.716   1.048   1.934 -1.0032  0.1381  0.3431
  246SOL    HW2  738   0.859   0.962   1.926  1.3145 -2.6423 -1.1701
  247SOL     OW  739   0.086   0.362   2.167 -0.1016  0.6147 -0.3425
  247SOL    HW1  740   0.069   0.264   2.171 -0.2770  0.5729 -3.6032
  247SOL    HW2  741   0.172   0.390   2.209 -3.3664 -2.1095  0.2486
  248SOL     OW  742   3.072   1.366   2.011  0.1513  0.6006  0.4215
  248SOL    HW1  743   2.989   1.394   1.962  5.0857 -0.5601  1.2310
  248SOL    HW2  744   3.068   1.397   2.106  0.9192  0.3438  1.1231
  249SOL     OW  745   0.053   0.462   0.157 -0.3233 -0.8140 -0.1225
  249SOL    HW1  746   0.117   0.410   0.214  1.8006  1.6235 -3.1831
  249SOL    HW2  747   3.052   0.417   0.134 -0.5872  0.0057  1.7311
  250SOL     OW  748   2.888   0.350   0.087  0.2976 -0.3264  0.0300
  250SOL    HW1  749   2.824   0.419   0.124 -1.6363 -2.5066 -0.7117
  250SOL    HW2  750   2.833   0.284   0.032 -0.7046 -1.4219 -1.2895
  251SOL     OW  751   0.967   1.798   1.873 -0.0338 -0.1785 -0.3915
  251SOL    HW1  752   0.866   1.813   1.857  1.4108  3.0059  0.2159
  251SOL    HW2  753   0.996   1.864   1.949  1.3080  1.9080  0.2872
  252SOL     OW  754   1.979   1.800   1.096 -0.1046 -0.8435 -0.0061
  252SOL    HW1  755   2.032   1.819   1.014 -0.8323  0.3381  2.5517
  252SOL    HW2  756   2.008   1.714   1.141  1.7662  0.3177 -3.1321
  253SOL     OW  757   1.561   2.243   2.318  0.0188  0.4512 -0.0497
  253SOL    HW1  758   1.590   2.344   2.315 -0.9395  3.1561 -1.5419
  253SOL    HW2  759   1.488   2.224   2.245  1.2061 -0.7889  1.9105
  254SOL     OW  760   0.463   2.263   2.008  0.0284 -0.0854  0.3516
  254SOL    HW1  761   0.493   2.194   1.938 -0.9565 -0.1999 -2.2993
  254SOL    HW2  762   0.532   2.335   2.036  0.0687  2.4390 -0.0570
  255SOL     OW  763   1.014   0.205   1.108 -0.5751  0.1552  0.4103
  255SOL    HW1  764   1.020   0.265   1.021  0.9030  2.8785 -2.2472
  255SOL    HW2  765   0.981   0.110   1.076 -0.9175  0.9215 -1.7036
  256SOL     OW  766   2.134   2.191   1.482  0.8602 -0.5123 -0.6906
  256SOL    HW1  767   2.194   2.191   1.399 -0.9433 -0.6244 -2.3633
  256SOL    HW2  768   2.178   2.142   1.561  3.1999 -2.1491 -3.0545
  257SOL     OW  769   0.548   2.293   2.812 -0.4589 -0.0978 -0.2039
  257SOL    HW1  770   0.528   2.387   2.845  0.6829 -0.6977  0.4951
  257SOL    HW2  771   0.648   2.284   2.827  1.7291  1.8689  0.3505
  258SOL     OW  772   0.766   1.050   2.218 -0.8623 -0.4228  0.1089
  258SOL    HW1  773   0.714   0.998   2.291 -1.2485 -1.7523 -1.7532
  258SOL    HW2  774   0.853   1.002   2.187  2.3954 -5.2898 -2.6657
  259SOL     OW  775   0.535   1.410   2.085  0.3968  0.0581  0.2688
  259SOL    HW1  776   0.490   1.491   2.044 -0.2184 -0.1696 -1.8302
  259SOL    HW2  777   0.635   1.424   2.098 -0.5439 -0.9608 -1.0958
  260SOL     OW  778   1.966   0.906   1.059  0.4198  0.6935  0.2144
  260SOL    HW1  779   2.037   0.907   1.130 -4.6068  1.0449  0.1059
  260SOL    HW2  780   2.002   0.952   0.973  2.9204 -1.9236 -1.7118
  261SOL     OW  781   0.952   3.047   0.995 -0.5718  0.4386  0.2208
  261SOL    HW1  782   0.957   3.061   0.895 -0.7941  1.0561 -0.5777
  261SOL    HW2  783   1.002   2.960   1.018 -2.0172 -2.6871 -2.6136
  262SOL     OW  784   2.060   2.578   2.405 -0.3945  0.0025 -0.2386
  262SOL    HW1  785   2.020   2.580   2.500  0.9067  1.5280  0.0774
  262SOL    HW2  786   2.154   2.614   2.409  0.1257  1.0953  1.0489
  263SOL     OW  787   0.405   1.509   2.978 -0.0412  0.2547 -0.7192
  263SOL    HW1  788   0.417   1.594   2.926 -0.5443  0.5084 -2.4508
  263SOL    HW2  789   0.476   1.436   2.963  0.4866 -1.2608  3.6697
  264SOL     OW  790   0.360   1.877   1.422 -0.0517 -0.3319 -0.4204
  264SOL    HW1  791   0.453   1.863   1.376  0.8303  1.0281  1.5710
  264SOL    HW2  792   0.299   1.931   1.368  3.0730 -0.3654  0.6550
  265SOL     OW  793   0.747   0.730   0.696  0.3545  0.2569 -0.2272
  265SOL    HW1  794   0.649   0.740   0.676  0.3229 -0.3996 -2.1177
  265SOL    HW2  795   0.777   0.732   0.792 -1.2281 -0.5147 -3.5641
  266SOL     OW  796   1.407   1.880   0.012 -0.7136  0.4557 -0.1695
  266SOL    HW1  797   1.481   1.948   0.021 -1.7126  0.9239 -3.1220
  266SOL    HW2  798   1.438   1.805   3.041 -1.1978  0.4760 -0.6605
  267SOL     OW  799   0.434   0.665   2.590 -0.5866 -0.0994  0.4286
  267SOL    HW1  800   0.421   0.619   2.678 -0.3296 -0.0548  1.2286
  267SOL    HW2  801   0.524   0.631   2.543 -0.6464 -1.5876  0.1006
  268SOL     OW  802   0.892   0.602   2.993  0.2929 -1.1221  0.4553
  268SOL    HW1  803   0.985   0.597   2.950 -1.1550 -1.0132 -0.1016
  268SOL    HW2  804   0.909   0.619   0.003  0.1266 -1.1177 -2.4104
  269SOL     OW  805   1.795   0.005   2.536  0.1661  0.3356  0.7460
  269SOL    HW1  806   1.748   0.057   2.458  0.6553 -2.0177 -0.2547
  269SOL    HW2  807   1.732   3.043   2.598  0.2100  1.2177 -0.1324
  270SOL     OW  808   0.826   0.832   2.670  0.6998  0.3719  0.1102
  270SOL    HW1  809   0.900   0.847   2.736 -0.6863 -2.4072 -0.6238
  270SOL    HW2  810   0.759   0.769   2.713  1.0803 -0.0369 -0.7656
  271SOL     OW  811   0.097   0.728   0.225  0.3769 -0.4468  0.2544
  271SOL    HW1  812   0.179   0.743   0.280 -0.9030  2.9154  1.3062
  271SOL    HW2  813   0.081   0.628   0.211 -0.7177  1.0317 -1.8168
  272SOL     OW  814   2.351   1.245   2.527  0.3286 -0.1159  0.5017
  272SOL    HW1  815   2.269   1.230   2.471  1.4014 -0.1960 -1.1890
  272SOL    HW2  816   2.426   1.182   2.503 -3.1511  1.8222 -0.4665
  273SOL     OW  817   0.037   0.098   2.067  0.2090 -0.3891  0.1812
  273SOL    HW1  818   0.130   0.118   2.034  0.4432 -1.0245 -0.6918
  273SOL    HW2  819   3.082   0.030   2.004 -1.5489 -1.1488 -2.0475
  274SOL     OW  820   2.933   0.238   1.909  0.0777 -0.3580 -0.7147
  274SOL    HW1  821   3.003   0.299   1.871 -4.0465 -0.5628  5.2403
  274SOL    HW2  822   2.979   0.181   1.978  0.5143 -0.8234  1.7489
  275SOL     OW  823   1.849   1.119   0.473 -0.0403  0.5227  0.2570
  275SOL    HW1  824   1.908   1.040   0.459  2.6894  1.3074 -0.4950
  275SOL    HW2  825   1.810   1.154   0.386 -3.9793 -0.1171  0.2633
  276SOL     OW  826   0.370   1.064   2.927 -0.0823  0.8735 -0.0692
  276SOL    HW1  827   0.435   0.988   2.954 -0.9942  0.1709  0.4118
  276SOL    HW2  828   0.340   1.050   2.828  0.8789 -0.4541  0.8218
  277SOL     OW  829   1.760   2.873   2.281 -0.3100  0.2453 -0.0511
  277SOL    HW1  830   1.769   2.769   2.292 -0.1098 -0.8865  0.8675
  277SOL    HW2  831   1.793   2.924   2.359  1.8987 -0.9604 -0.1262
  278SOL     OW  832   1.850   0.029   1.520  0.1632 -0.8470  0.0804
  278SOL    HW1  833   1.852   0.110   1.581 -2.2788 -0.2397 -2.6057
  278SOL    HW2  834   1.801   3.036   1.563 -2.7890 -2.3080  0.0220
  279SOL     OW  835   1.421   1.234   2.993  0.0749  0.2937 -0.5514
  279SOL    HW1  836   1.450   1.293   2.917 -3.5767 -1.1212  1.6331
  279SOL    HW2  837   1.479   1.151   3.001  1.5000 -0.2127 -0.4580
  280SOL     OW  838   0.852   1.256   0.335 -0.2077  0.6002 -0.5158
  280SOL    HW1  839   0.918   1.324   0.302  2.3144  1.2408  0.2090
  280SOL    HW2  840   0.889   1.162   0.325 -0.9234 -0.8418 -0.2811
  281SOL     OW  841   0.132   2.953   1.564 -0.0842 -0.8773 -0.4100
  281SOL    HW1  842   0.215   2.947   1.623  0.5323  1.1136  2.3895
  281SOL    HW2  843   0.067   3.014   1.611 -2.2317 -0.5301  1.2195
  282SOL     OW  844   3.065   2.394   0.880  0.0439  0.5828 -0.0219
  282SOL    HW1  845   3.055   2.496   0.882  0.8165  1.5249 -0.7936
  282SOL    HW2  846   0.074   2.375   0.904 -0.4987  0.7131  0.0605
  283SOL     OW  847   1.061   2.264   1.967 -0.7107 -0.0974 -0.5853
  283SOL    HW1  848   1.069   2.344   2.027 -0.7377 -0.2361  0.2240
  283SOL    HW2  849   1.117   2.281   1.881  1.0918  0.8551 -1.9511
  284SOL     OW  850   2.262   0.718   0.553  0.6166 -0.0782 -0.5219
  284SOL    HW1  851   2.279   0.620   0.581  1.4809 -0.5123  1.7033
  284SOL    HW2  852   2.318   0.749   0.473  1.3450  2.7745 -1.1404
  285SOL     OW  853   2.980   2.738   2.472 -0.0664  0.2929 -0.2393
  285SOL    HW1  854   3.054   2.738   2.402 -1.0043  0.9853  1.7603
  285SOL    HW2  855   3.008   2.807   2.541 -1.8598 -1.0463 -0.3753
  286SOL     OW  856   2.052   2.445   1.300 -0.1192  0.3527  0.3247
  286SOL    HW1  857   2.075   2.511   1.374  3.2941  0.5795  0.7816
  286SOL    HW2  858   1.984   2.375   1.329  1.1480 -1.5999 -2.4714
  287SOL     OW  859   0.554   1.255   1.034 -0.1122  0.2332 -0.1897
  287SOL    HW1  860   0.614   1.319   0.981  2.7642 -0.5803 -0.1890
  287SOL    HW2  861   0.510   1.297   1.113 -0.7024  1.6554 -0.4880
  288SOL     OW  862   1.802   2.531   0.085 -0.0599  0.2336 -0.3125
  288SOL    HW1  863   1.893   2.567   0.108 -3.9024 -1.7954 -1.5005
  288SOL    HW2  864   1.809   2.452   0.020  2.1571 -0.0579  0.1205
  289SOL     OW  865   0.594   2.029   2.541  0.5353  0.4662  0.1016
  289SOL    HW1  866   0.534   2.074   2.608 -0.3230 -1.0767  1.3632
  289SOL    HW2  867   0.643   2.103   2.488  0.3090  0.0309  1.0703
  290SOL     OW  868   1.423   2.059   1.060 -0.2820 -0.1055 -0.1142
  290SOL    HW1  869   1.403   2.160   1.069  3.0975  2.7891 -1.6770
  290SOL    HW2  870   1.341   2.002   1.031 -1.9182 -2.9906 -1.2757
  291SOL     OW  871   1.525   1.672   2.943 -0.0461 -0.3809  0.1218
  291SOL    HW1  872   1.614   1.627   2.974 -0.3136 -0.4246  2.1423
  291SOL    HW2  873   1.444   1.611   2.964  0.0401  0.1800  2.0598
  292SOL     OW  874   1.488   1.656   1.071 -0.2202  0.4254  0.3915
  292SOL    HW1  875   1.491   1.680   0.972 -0.9078  1.2468 -1.8651
  292SOL    HW2  876   1.582   1.629   1.102  2.3311 -1.4876 -0.6043
  293SOL     OW  877   1.802   2.857   0.731 -0.5911  0.2898 -0.2724
  293SOL    HW1  878   1.889   2.889   0.774  0.5101 -2.2542  0.8134
  293SOL    HW2  879   1.796   2.758   0.751  0.7120 -0.9586 -1.7692
  294SOL     OW  880   2.989   1.329   2.633 -1.0469 -0.2941 -0.4125
  294SOL    HW1  881   2.914   1.287   2.687  1.0099  1.2597 -0.0493
  294SOL    HW2  882   2.991   1.291   2.540  0.5766 -0.5489  0.7432
  295SOL     OW  883   1.286   2.188   2.735  0.3888  0.2418 -0.5436
  295SOL    HW1  884   1.215   2.264   2.734  0.2651  0.8687 -1.3053
  295SOL    HW2  885   1.341   2.188   2.827  3.5657 -0.1594 -0.1234
  296SOL     OW  886   1.928   1.398   2.185 -0.4782 -0.3471  0.0340
  296SOL    HW1  887   1.955   1.330   2.120  0.3868  1.5664  0.8158
  296SOL    HW2  888   1.839   1.438   2.163  2.8325 -1.3112  0.9360
  297SOL     OW  889   3.041   0.615   2.235  0.0994 -0.3815  0.1527
  297SOL    HW1  890   0.006   0.529   2.205  1.9790  0.0213  0.4662
  297SOL    HW2  891   2.956   0.632   2.182 -0.7235  0.6680 -0.2147
  298SOL     OW  892   1.124   2.476   2.130 -0.1244  0.3862  0.6807
  298SOL    HW1  893   1.223   2.478   2.110  0.2171  0.4370  0.7788
  298SOL    HW2  894   1.110   2.451   2.227  0.3718 -0.5591 -0.9969
  299SOL     OW  895   0.852   2.795   2.876  0.5914  0.3420  0.0874
  299SOL    HW1  896   0.767   2.780   2.816 -0.5722 -1.6271 -0.7858
  299SOL    HW2  897   0.856   2.738   2.961 -1.6720 -2.4912 -0.8236
  300SOL     OW  898   3.080   0.627   2.805  0.5862 -0.0542 -0.4383
  300SOL    HW1  899   3.052   0.723   2.785  0.3716  1.3301 -2.4323
  300SOL    HW2  900   0.068   0.634   2.868 -0.6531  2.0250 -1.0004
  301SOL     OW  901   1.739   1.064   1.548 -0.0101  0.1343  0.9852
  301SOL    HW1  902   1.699   1.069   1.456 -0.5571 -0.7197 -0.3419
  301SOL    HW2  903   1.663   1.071   1.617 -3.1065  0.4941 -3.2299
  302SOL     OW  904   2.539   1.928   2.665  0.6567  0.4063 -0.1850
  302SOL    HW1  905   2.574   1.953   2.570 -1.2009  2.7392 -3.7513
  302SOL    HW2  906   2.513   1.828   2.668  1.7623  0.4587  0.5086
  303SOL     OW  907   0.062   0.178   2.433 -0.4648  0.3184  0.1023
  303SOL    HW1  908   0.140   0.138   2.481 -3.3096 -1.2617  0.1004
  303SOL    HW2  909   0.047   0.277   2.456  0.9340  1.6937 -0.7557
  304SOL     OW  910   2.807   0.877   1.594 -0.3561 -0.2320 -0.3706
  304SOL    HW1  911   2.892   0.820   1.609 -0.0356 -0.6135  1.9002
  304SOL    HW2  912   2.776   0.877   1.499 -0.3518 -0.4942  1.2311
  305SOL     OW  913   2.991   0.011   1.672  0.7715  0.2275  0.1786
  305SOL    HW1  914   2.962   3.063   1.762  0.1278 -0.1047 -1.7169
  305SOL    HW2  915   2.914   0.045   1.614  3.1760 -1.8273  1.5439
  306SOL     OW  916   2.915   1.350   1.489 -0.0981  0.0647 -0.3388
  306SOL    HW1  917   2.845   1.353   1.562 -0.0989  0.8606 -1.6806
  306SOL    HW2  918   2.911   1.266   1.432 -0.6971 -3.0327  1.9664
  307SOL     OW  919   2.047   0.350   1.316 -0.3579 -0.1841  0.0492
  307SOL    HW1  920   1.947   0.359   1.342  0.0445  1.0503 -0.0653
  307SOL    HW2  921   2.087   0.438   1.283  1.6070  2.4265 -1.3228
  308SOL     OW  922   0.191   2.035   1.233 -0.1012 -0.2025 -0.4612
  308SOL    HW1  923   0.104   2.017   1.188  0.5811 -3.3648 -4.0002
  308SOL    HW2  924   0.187   2.113   1.293  1.7809 -3.0983 -1.9596
  309SOL     OW  925   2.251   1.782   1.432  0.3587  0.3698  0.2804
  309SOL    HW1  926   2.324   1.832   1.383 -2.1212 -1.0909  0.4396
  309SOL    HW2  927   2.169   1.840   1.449  0.3098  2.7716 -2.5540
  310SOL     OW  928   2.412   1.818   0.051 -0.2423  0.1560  0.5457
  310SOL    HW1  929   2.324   1.871   0.053  2.7024 -1.2696 -1.2957
  310SOL    HW2  930   2.479   1.861   3.074  0.0245  1.9012 -1.5702
  311SOL     OW  931   2.352   1.438   2.704  0.0290  0.4206 -0.3861
  311SOL    HW1  932   2.370   1.361   2.640 -0.0099  0.5930  0.7577
  311SOL    HW2  933   2.271   1.418   2.761  1.5463 -0.2278 -2.2168
  312SOL     OW  934   1.695   2.200   1.227  0.4694  0.0175 -0.2419
  312SOL    HW1  935   1.650   2.288   1.238  1.3778 -1.3996  1.5293
  312SOL    HW2  936   1.638   2.124   1.260  1.5119  0.1241 -2.1567
  313SOL     OW  937   0.167   2.439   1.174 -0.0349 -0.8634 -0.0124
  313SOL    HW1  938   0.266   2.414   1.170 -0.6577 -0.0285  0.2332
  313SOL    HW2  939   0.125   2.386   1.105  1.4635  1.8404  1.1621
  314SOL     OW  940   1.070   1.683   1.660 -0.1121  0.2966 -0.0708
  314SOL    HW1  941   1.027   1.714   1.573 -1.8297 -1.5042  1.4493
  314SOL    HW2  942   1.032   1.737   1.739  1.5631 -0.3128 -2.4981
  315SOL     OW  943   0.596   2.878   2.341 -0.2125  0.0862 -0.3899
  315SOL    HW1  944   0.683   2.909   2.302 -0.3612 -1.8449  1.9392
  315SOL    HW2  945   0.603   2.819   2.426  0.1089  1.0965  1.2984
  316SOL     OW  946   2.874   2.028   0.717  0.3119 -0.2778 -0.7266
  316SOL    HW1  947   2.820   1.973   0.650 -1.1863  1.9600 -3.1460
  316SOL    HW2  948   2.965   1.988   0.733  0.7690  2.1752  0.2250
  317SOL     OW  949   2.197   0.569   0.252 -0.0516  0.3199 -0.2981
  317SOL    HW1  950   2.120   0.634   0.225 -0.7432  0.4606  1.5296
  317SOL    HW2  951   2.274   0.623   0.278  0.7124 -2.5934 -1.0131
  318SOL     OW  952   2.739   2.412   0.147  0.0487  0.4491  0.1120
  318SOL    HW1  953   2.766   2.479   0.077 -0.9108 -0.2576  3.3948
  318SOL    HW2  954   2.782   2.437   0.237  0.8933  0.6316  2.3698
  319SOL     OW  955   1.372   1.755   0.249  0.5749  0.2144 -0.2941
  319SOL    HW1  956   1.406   1.812   0.172 -1.5908  3.1496 -3.0967
  319SOL    HW2  957   1.356   1.809   0.333 -2.0871 -0.9589 -0.2111
  320SOL     OW  958   0.592   2.697   2.775 -0.5238  0.3529  0.6362
  320SOL    HW1  959   0.544   2.643   2.840  0.0653  1.1314 -0.3451
  320SOL    HW2  960   0.585   2.655   2.680 -1.5188  1.9151 -2.5318
  321SOL     OW  961   1.023   0.007   0.209 -0.3596  0.6328  0.2810
  321SOL    HW1  962   0.955   3.034   0.251  1.9068 -3.0887  0.8190
  321SOL    HW2  963   1.117   3.058   0.227  0.0015 -2.2284  1.3994
  322SOL     OW  964   2.260   1.070   2.112  0.2985  0.0830  0.2735
  322SOL    HW1  965   2.159   1.065   2.127 -2.1926 -0.2774  1.4365
  322SOL    HW2  966   2.299   0.977   2.126 -1.7505 -1.1177 -0.2797
  323SOL     OW  967   2.666   0.708   0.494  0.0575 -0.2486 -0.7243
  323SOL    HW1  968   2.665   0.614   0.535 -1.4523 -1.6915  1.6617
  323SOL    HW2  969   2.748   0.726   0.437 -1.9440 -2.9397  0.3395
  324SOL     OW  970   0.109   0.463   2.481  0.4855 -0.2371  0.1946
  324SOL    HW1  971   0.094   0.564   2.465  1.6312  0.5941 -2.1466
  324SOL    HW2  972   0.190   0.428   2.427 -1.4396  0.9673 -3.0431
  325SOL     OW  973   0.846   3.038   2.285 -0.4160  0.5569 -0.5379
  325SOL    HW1  974   0.813   3.086   2.200 -1.0747 -0.4920  3.6134
  325SOL    HW2  975   0.794   3.072   2.359  1.2678 -2.0988 -2.3918
  326SOL     OW  976   2.363   2.732   1.225 -0.2265  0.2485 -0.1366
  326SOL    HW1  977   2.307   2.688   1.147 -1.2022 -2.4884 -1.9170
  326SOL    HW2  978   2.427   2.661   1.262 -0.6393  0.5631  0.9655
  327SOL     OW  979   1.743   0.880   0.086  0.3078 -0.1033  0.7440
  327SOL    HW1  980   1.713   0.948   0.018 -1.9122 -1.1032 -1.2521
  327SOL    HW2  981   1.790   0.807   0.035 -0.4587  2.5459  0.4736
  328SOL     OW  982   2.972   1.790   2.052 -0.2380  0.6959  0.1885
  328SOL    HW1  983   3.031   1.864   2.086  0.7085  1.3286 -2.7038
  328SOL    HW2  984   2.903   1.760   2.122 -0.8007 -1.6063  1.9554
  329SOL     OW  985   1.830   2.804   1.894 -0.8621  0.1240  0.7361
  329SOL    HW1  986   1.787   2.713   1.884  1.1836  0.1937  0.0705
  329SOL    HW2  987   1.822   2.864   1.813 -0.8620 -3.1186 -0.0671
  330SOL     OW  988   2.524   1.708   1.937 -0.0532  0.2248  0.0746
  330SOL    HW1  989   2.573   1.674   2.022 -1.8571 -2.6152 -2.7244
  330SOL    HW2  990   2.559   1.674   1.848 -1.5458  1.5722  2.4042
  331SOL     OW  991   2.834   2.295   0.782 -0.3826  0.0393 -0.1341
  331SOL    HW1  992   2.822   2.197   0.746  1.4900  1.0524  0.0981
  331SOL    HW2  993   2.930   2.329   0.794  0.8721  1.6316  3.0363
  332SOL     OW  994   0.504   0.005   0.553 -0.8470 -0.1536  0.5219
  332SOL    HW1  995   0.453   0.023   0.469  0.9192 -0.1127  1.0510
  332SOL    HW2  996   0.464   0.068   0.624  1.0330 -0.0047  1.9721
  333SOL     OW  997   1.974   0.288   2.389  0.0161  0.7928 -0.9901
  333SOL    HW1  998   1.957   0.222   2.317 -2.7759  2.8816 -0.8136
  333SOL    HW2  999   1.892   0.290   2.450  2.2239  2.1523  0.1906
  334SOL     OW 1000   0.758   1.399   0.867 -0.3590 -0.4504 -0.0900
  334SOL    HW1 1001   0.770   1.365   0.771 -0.7027 -0.0341 -1.1100
  334SOL    HW2 1002   0.851   1.413   0.910  1.1031 -0.1756 -0.7807
  335SOL     OW 1003   0.101   2.734   2.308  0.6831 -0.3318 -0.0783
  335SOL    HW1 1004   0.184   2.780   2.269 -2.5441 -1.2793 -1.7489
  335SOL    HW2 1005   0.113   2.634   2.314  1.0786  1.3622  0.1886
  336SOL     OW 1006   2.920   3.019   1.954  0.3108  0.2874  0.5610
  336SOL    HW1 1007   2.958   2.951   2.023  2.2801  1.3557  2.0160
  336SOL    HW2 1008   2.818   3.010   1.963 -2.6036 -1.5977  2.1490
  337SOL     OW 1009   1.975   1.346   0.583 -0.3230  0.3587  0.2250
  337SOL    HW1 1010   2.055   1.287   0.611 -3.2256  0.4409 -1.3458
  337SOL    HW2 1011   1.917   1.293   0.519  2.3763  2.8023  4.0617
  338SOL     OW 1012   0.919   1.732   1.103  0.1555 -0.4532  0.3034
  338SOL    HW1 1013   0.864   1.701   1.184 -2.1328 -1.4128 -0.9147
  338SOL    HW2 1014   1.009   1.768   1.129  1.6464  1.0969 -1.9326
  339SOL     OW 1015   2.971   0.804   1.114  0.4393  0.3579  0.1362
  339SOL    HW1 1016   3.062   0.816   1.164  1.8921  0.0832  0.8407
  339SOL    HW2 1017   2.894   0.813   1.178  1.5490  0.2175 -3.5689
  340SOL     OW 1018   1.485   2.948   2.191  0.1414 -0.2447  0.1547
  340SOL    HW1 1019   1.404   2.898   2.228  0.8739  2.3539 -0.6355
  340SOL    HW2 1020   1.570   2.908   2.229 -0.4332 -0.6728  0.0802
  341SOL     OW 1021   2.197   1.231   0.677  0.3170  0.2497 -0.1720
  341SOL    HW1 1022   2.256   1.306   0.721 -1.2058  1.0650  0.0535
  341SOL    HW2 1023   2.261   1.159   0.637  0.0096  0.7009  0.0582
  342SOL     OW 1024   3.004   1.660   0.591 -0.4626  0.2544  0.4185
  342SOL    HW1 1025   2.902   1.661   0.610  0.8912 -0.8055 -1.9088
  342SOL    HW2 1026   3.033   1.745   0.543 -0.3432  0.8005 -2.2823
  343SOL     OW 1027   2.562   1.208   1.558  0.0691 -0.0362 -0.0864
  343SOL    HW1 1028   2.506   1.131   1.593 -0.7782 -2.2093 -1.6632
  343SOL    HW2 1029   2.627   1.248   1.626 -0.0423 -2.1918  0.2559
  344SOL     OW 1030   1.904   0.648   0.976 -0.0883  0.2256 -0.0502
  344SOL    HW1 1031   1.827   0.632   1.040  0.0703  1.7264  1.4336
  344SOL    HW2 1032   1.916   0.750   0.969 -0.5396  1.6938  2.2725
  345SOL     OW 1033   0.136   3.015   2.327 -0.9279  0.0885  0.1963
  345SOL    HW1 1034   0.073   2.944   2.363 -0.1965  1.7105  0.5526
  345SOL    HW2 1035   0.082   0.016   2.317 -2.6967 -1.4575  0.4563
  346SOL     OW 1036   2.934   1.595   0.113  0.0752  0.0314  0.5780
  346SOL    HW1 1037   3.013   1.640   0.070 -1.2438 -0.6323  1.5734
  346SOL    HW2 1038   2.932   1.496   0.089  1.5932  1.3911  0.9440
  347SOL     OW 1039   1.442   2.469   1.673 -0.7352  0.4095 -0.0249
  347SOL    HW1 1040   1.345   2.447   1.690 -0.0122  0.7074 -2.5053
  347SOL    HW2 1041   1.491   2.381   1.659 -1.0253  0.8532  0.8305
  348SOL     OW 1042   1.289   1.150   1.743  0.3779  0.2765  0.4953
  348SOL    HW1 1043   1.287   1.249   1.729  0.1689 -0.3816 -1.6355
  348SOL    HW2 1044   1.242   1.124   1.826 -0.7168 -0.9959 -0.0690
  349SOL     OW 1045   2.272   1.569   2.452  0.0234  0.1190  0.2454
  349SOL    HW1 1046   2.312   1.541   2.541 -2.1812  1.9720  1.2556
  349SOL    HW2 1047   2.263   1.672   2.449 -1.1956 -0.5510  2.3801
  350SOL     OW 1048   2.590   2.139   0.445 -0.4880  0.0261  0.0631
  350SOL    HW1 1049   2.582   2.177   0.349 -2.6134 -0.0386 -1.2279
  350SOL    HW2 1050   2.600   2.213   0.516 -0.6857 -1.3083  1.0543
  351SOL     OW 1051   0.083   0.237   1.654  0.1426 -0.3409 -0.0060
  351SOL    HW1 1052   0.007   0.173   1.632  1.6367  0.6781 -0.9258
  351SOL    HW2 1053   0.071   0.291   1.739  1.2819 -2.9629 -0.7870
  352SOL     OW 1054   1.188   2.337   1.708  0.1043 -0.6837 -0.6675
  352SOL    HW1 1055   1.150   2.427   1.676 -0.2055  0.2203 -0.2388
  352SOL    HW2 1056   1.154   2.256   1.658 -0.9630 -0.3559  0.1454
  353SOL     OW 1057   1.070   1.009   2.411 -0.1805  0.1417 -0.0934
  353SOL    HW1 1058   1.040   1.031   2.506 -1.7462 -0.4178  2.3445
  353SOL    HW2 1059   1.064   0.908   2.394 -2.9055 -1.0893 -0.2430
  354SOL     OW 1060   1.254   1.736   0.646 -0.7028  0.1163  0.2703
  354SOL    HW1 1061   1.297   1.800   0.579  2.0818  0.2805 -0.9066
  354SOL    HW2 1062   1.163   1.769   0.680  1.6668  1.9753 -0.8886
  355SOL     OW 1063   1.981   0.266   0.782 -0.4320  0.0094 -0.6820
  355SOL    HW1 1064   1.925   0.246   0.865 -1.5795  0.4025  1.9390
  355SOL    HW2 1065   1.941   0.209   0.708  0.3478  2.0201  3.3466
  356SOL     OW 1066   3.061   1.352   3.031  0.0913  0.3114  0.1698
  356SOL    HW1 1067   0.035   1.273   3.040 -1.2491  0.3376 -2.3436
  356SOL    HW2 1068   2.967   1.320   3.000  0.6336 -1.2168 -0.6035
  357SOL     OW 1069   0.328   2.915   1.786  0.1162 -0.2707 -0.4697
  357SOL    HW1 1070   0.389   2.976   1.842  2.5427 -0.0653 -1.4671
  357SOL    HW2 1071   0.236   2.908   1.835 -2.0053 -0.5086  1.5983
  358SOL     OW 1072   0.549   1.261   2.986 -0.3238 -0.4713 -0.1700
  358SOL    HW1 1073   0.477   1.190   2.968  2.3861 -1.3376  1.4248
  358SOL    HW2 1074   0.582   1.253   3.082 -1.5296  1.3589 -2.1401
  359SOL     OW 1075   2.816   2.513   2.383  0.3866  0.1125 -0.1348
  359SOL    HW1 1076   2.827   2.597   2.435  1.0708 -2.9005 -3.5722
  359SOL    HW2 1077   2.810   2.529   2.282  0.9168 -0.2122 -0.9809
  360SOL     OW 1078   1.601   1.235   1.045 -0.5337  0.0569  0.2571
  360SOL    HW1 1079   1.565   1.245   0.950 -0.4479  2.5711  2.4688
  360SOL    HW2 1080   1.570   1.312   1.102 -0.7911 -2.3115 -2.5162
  361SOL     OW 1081   1.875   2.235   1.437  0.3945  0.0880  0.2148
  361SOL    HW1 1082   1.830   2.206   1.348 -1.8743 -0.6893  1.0261
  361SOL    HW2 1083   1.975   2.204   1.454 -2.6534  0.1098 -0.1849
  362SOL     OW 1084   1.531   1.288   0.791  0.4240  0.3959  0.4581
  362SOL    HW1 1085   1.621   1.321   0.752 -0.4625  1.3242 -2.5359
  362SOL    HW2 1086   1.459   1.352   0.748 -1.1556 -1.4265  0.1268
  363SOL     OW 1087   2.354   2.157   0.594 -0.4653 -0.1797 -0.4018
  363SOL    HW1 1088   2.394   2.108   0.515  0.8975  1.0122  1.4652
  363SOL    HW2 1089   2.428   2.222   0.624  0.7157  0.1055 -0.9221
  364SOL     OW 1090   2.806   0.193   1.165 -0.7907  0.2395 -0.4566
  364SOL    HW1 1091   2.853   0.151   1.242 -0.8698  2.3610 -1.1038
  364SOL    HW2 1092   2.878   0.211   1.091  1.6380  0.6582  1.1514
  365SOL     OW 1093   0.494   2.713   0.907  0.0880  0.0892  0.0678
  365SOL    HW1 1094   0.484   2.809   0.923  3.0107 -3.9318 -2.1671
  365SOL    HW2 1095   0.585   2.682   0.951 -0.1032  0.0703 -0.1161
  366SOL     OW 1096   0.524   1.444   0.673 -0.1095  0.2424 -0.3662
  366SOL    HW1 1097   0.522   1.484   0.578 -1.5462 -0.7062  0.7856
  366SOL    HW2 1098   0.570   1.507   0.744  3.1560  0.5610 -1.0353
  367SOL     OW 1099   2.566   2.605   2.631  0.3392 -0.1320  0.1168
  367SOL    HW1 1100   2.477   2.587   2.589  1.9155  1.9622  2.5511
  367SOL    HW2 1101   2.600   2.518   2.664  0.1022  0.2826 -2.1491
  368SOL     OW 1102   2.538   1.855   0.853 -0.0083 -0.0622 -0.6520
  368SOL    HW1 1103   2.476   1.843   0.937 -0.4828 -1.1652 -1.1550
  368SOL    HW2 1104   2.630   1.817   0.868 -2.4289  1.3844  0.7461
  369SOL     OW 1105   0.886   1.061   0.679 -0.0970 -0.0100  0.3511
  369SOL    HW1 1106   0.936   1.151   0.682  1.0379  0.4168 -0.1624
  369SOL    HW2 1107   0.844   1.035   0.771 -5.0399 -0.5101  3.0810
  370SOL     OW 1108   0.086   2.893   1.043 -0.4227 -0.3488 -0.3425
  370SOL    HW1 1109   0.141   2.899   0.955 -0.4270 -1.9155  0.4917
  370SOL    HW2 1110   0.119   2.816   1.102  3.0365 -1.3415  0.9901
  371SOL     OW 1111   2.747   1.247   2.703 -0.3651  0.3974  0.1754
  371SOL    HW1 1112   2.693   1.329   2.670 -0.3286  0.2839 -0.8797
  371SOL    HW2 1113   2.713   1.167   2.656  1.9230  1.8926  0.7214
  372SOL     OW 1114   0.642   0.456   2.222  0.1253  0.2303 -0.1091
  372SOL    HW1 1115   0.674   0.474   2.126  1.2652  0.1247  1.0316
  372SOL    HW2 1116   0.641   0.356   2.238 -0.3573 -0.7098 -0.5212
  373SOL     OW 1117   0.702   0.450   0.045 -0.4446 -0.3898  0.0313
  373SOL    HW1 1118   0.791   0.450   3.078  2.3071  1.4410 -0.7422
  373SOL    HW2 1119   0.716   0.415   0.138 -0.4342 -0.8178 -1.4430
  374SOL     OW 1120   0.986   2.298   0.166  0.5200  0.0825 -0.0474
  374SOL    HW1 1121   1.044   2.330   0.091 -0.6415 -1.0663 -1.3703
  374SOL    HW2 1122   0.898   2.270   0.122  1.1581  1.4526 -2.3356
  375SOL     OW 1123   0.826   3.009   1.239  0.0005 -0.8016  0.7467
  375SOL    HW1 1124   0.880   3.051   1.163 -1.3289 -2.3409 -0.4224
  375SOL    HW2 1125   0.729   3.030   1.234  0.7415 -0.8816 -0.0562
  376SOL     OW 1126   0.213   2.348   1.959 -0.2581 -0.2823  0.2828
  376SOL    HW1 1127   0.212   2.436   2.007 -0.9445 -1.0568 -1.6572
  376SOL    HW2 1128   0.301   2.300   1.978  1.6936  0.5800  3.7012
  377SOL     OW 1129   2.114   2.163   3.018  0.0497  0.3864 -0.1245
  377SOL    HW1 1130   2.043   2.112   2.974  0.3992  1.2566  0.6558
  377SOL    HW2 1131   2.162   2.232   2.956 -0.7268 -0.3597  1.7767
  378SOL     OW 1132   2.280   0.452   0.603  0.7414  0.0807  0.2072
  378SOL    HW1 1133   2.197   0.473   0.660 -1.3499 -0.0199 -0.9032
  378SOL    HW2 1134   2.349   0.390   0.645  1.6049 -0.1456 -0.8331
  379SOL     OW 1135   1.250   0.489   0.919  0.0544  0.4847 -0.0531
  379SOL    HW1 1136   1.233   0.540   0.832  0.2048  0.8058  0.6710
  379SOL    HW2 1137   1.319   0.416   0.903 -1.7257  1.5115  1.4198
  380SOL     OW 1138   2.691   2.343   1.819  0.5431  0.2071 -0.2970
  380SOL    HW1 1139   2.713   2.269   1.886  0.3200 -2.1856 -1.9911
  380SOL    HW2 1140   2.773   2.405   1.823  0.5133  1.8394 -0.6994
  381SOL     OW 1141   2.809   1.473   1.957 -0.2115  0.2493  0.5358
  381SOL    HW1 1142   2.845   1.546   1.898  1.0167 -2.9618 -0.6844
  381SOL    HW2 1143   2.742   1.500   2.030  1.2728  1.3440  0.2287
  382SOL     OW 1144   2.901   2.300   2.840  0.1358  0.1230  0.4797
  382SOL    HW1 1145   2.933   2.321   2.744 -0.1896 -0.5034  1.7114
  382SOL    HW2 1146   2.801   2.321   2.842  0.0093  1.3663 -1.3089
  383SOL     OW 1147   1.256   0.769   2.469  1.1745 -0.6143 -0.2278
  383SOL    HW1 1148   1.297   0.826   2.543  2.1082 -0.0121  2.6475
  383SOL    HW2 1149   1.166   0.736   2.498  0.7501  1.3930 -1.1282
  384SOL     OW 1150   1.189   2.108   2.327  0.4818 -0.4771  1.2241
  384SOL    HW1 1151   1.253   2.085   2.398  1.3918  1.4495 -5.0141
  384SOL    HW2 1152   1.130   2.031   2.308 -1.1558  2.7927  1.2259
  385SOL     OW 1153   2.491   2.571   3.043 -0.4612 -0.1546 -0.1537
  385SOL    HW1 1154   2.460   2.476   3.050  2.5163  1.6006 -1.3378
  385SOL    HW2 1155   2.512   2.606   0.047  1.0845  1.1262  2.0068
  386SOL     OW 1156   1.364   1.047   0.549  0.2522 -0.2920  0.2639
  386SOL    HW1 1157   1.329   1.073   0.641  4.5092 -0.3942  0.3798
  386SOL    HW2 1158   1.440   0.982   0.554 -0.6987  2.2143  0.8762
  387SOL     OW 1159   0.043   1.755   1.724 -0.1804  0.1523 -0.4037
  387SOL    HW1 1160   0.069   1.719   1.820  0.5806  1.3726  3.6880
  387SOL    HW2 1161   0.116   1.719   1.657  3.0236 -2.1776  0.5275
  388SOL     OW 1162   0.656   1.120   1.442  0.2234 -0.1239  0.0442
  388SOL    HW1 1163   0.728   1.183   1.473 -0.5939  1.3616  1.2601
  388SOL    HW2 1164   0.657   1.040   1.504  0.9244 -0.2846 -2.9955
  389SOL     OW 1165   2.029   0.973   2.461 -0.4011 -0.1216  0.0635
  389SOL    HW1 1166   2.082   0.891   2.491  2.4392  0.7796 -2.5264
  389SOL    HW2 1167   1.962   1.006   2.533  0.4855 -3.3427 -1.3105
  390SOL     OW 1168   0.989   1.915   0.199  0.1517  0.1824  0.3701
  390SOL    HW1 1169   0.905   1.969   0.192  0.0005 -1.8648 -0.9014
  390SOL    HW2 1170   0.980   1.851   0.274 -2.7748  1.4552  2.5884
  391SOL     OW 1171   1.049   1.918   0.740 -0.3142  0.2281 -0.1294
  391SOL    HW1 1172   0.957   1.947   0.767  0.9526  1.8172 -0.1492
  391SOL    HW2 1173   1.113   1.919   0.823  1.1782 -1.2261  1.1413
  392SOL     OW 1174   2.823   2.575   2.121  0.0194  0.1002  0.2258
  392SOL    HW1 1175   2.758   2.527   2.061  1.4543  1.3614  0.4278
  392SOL    HW2 1176   2.915   2.536   2.120 -0.5961 -2.5990 -1.1903
  393SOL     OW 1177   1.420   2.233   2.975  0.2032  0.7370 -0.0137
  393SOL    HW1 1178   1.482   2.197   3.044 -1.2302 -0.3830 -0.0631
  393SOL    HW2 1179   1.474   2.304   2.928 -0.7429 -0.7795  0.8910
  394SOL     OW 1180   0.414   3.077   2.342 -0.1843 -0.0044 -0.2161
  394SOL    HW1 1181   0.320   3.071   2.310  0.6317  1.6609  0.0471
  394SOL    HW2 1182   0.471   2.993   2.331  0.2256 -2.6335 -1.9132
  395SOL     OW 1183   3.088   1.218   1.199  0.3343  0.0149 -0.1681
  395SOL    HW1 1184   0.027   1.306   1.241  0.4381  2.4902 -0.5559
  395SOL    HW2 1185   0.079   1.156   1.201  0.2137 -2.6165 -0.9624
  396SOL     OW 1186   2.160   1.431   2.881 -0.0615  0.9248 -0.0522
  396SOL    HW1 1187   2.174   1.331   2.907 -0.4470 -1.1163  0.4820
  396SOL    HW2 1188   2.155   1.488   2.962 -1.6372 -2.5235 -1.7937
  397SOL     OW 1189   0.554   0.880   3.009  0.1297 -0.2453 -0.2683
  397SOL    HW1 1190   0.585   0.809   2.943 -0.0231  1.5978 -0.0933
  397SOL    HW2 1191   0.631   0.947   3.040  0.2849  1.6377  0.9083
  398SOL     OW 1192   0.966   2.584   0.506  0.4260 -0.1233 -0.0360
  398SOL    HW1 1193   1.066   2.566   0.511  0.7817 -0.7920 -0.2995
  398SOL    HW2 1194   0.949   2.651   0.580  0.5487 -1.3840  1.1782
  399SOL     OW 1195   1.812   2.605   2.290  0.7574  0.1904  0.3648
  399SOL    HW1 1196   1.909   2.619   2.317  0.9696  1.0948  2.0764
  399SOL    HW2 1197   1.801   2.557   2.199  1.4287 -0.0694  3.3781
  400SOL     OW 1198   0.004   1.094   1.944  0.2702  0.3919 -0.2517
  400SOL    HW1 1199   3.065   1.188   1.967  0.7712 -0.1745 -0.7788
  400SOL    HW2 1200   0.073   1.097   1.874 -1.6085 -1.4531  1.2807
  401SOL     OW 1201   0.462   0.761   0.620  0.0071 -0.3643 -0.8921
  401SOL    HW1 1202   0.476   0.846   0.565  2.6779  2.6278  1.4834
  401SOL    HW2 1203   0.369   0.721   0.628 -1.2829  0.0773  2.3000
  402SOL     OW 1204   0.782   0.114   2.485 -0.6555  0.7881 -0.3471
  402SOL    HW1 1205   0.712   0.107   2.562 -2.4037 -1.0762  1.7992
  402SOL    HW2 1206   0.874   0.071   2.513 -0.1181 -1.1459  2.1376
  403SOL     OW 1207   2.528   1.973   1.777  0.2136 -0.4102 -0.3202
  403SOL    HW1 1208   2.557   2.036   1.847  0.3981 -4.6293  1.0033
  403SOL    HW2 1209   2.506   1.881   1.815  0.4949  1.6603  0.5489
  404SOL     OW 1210   2.619   2.319   1.423 -0.0362 -0.4431  0.4002
  404SOL    HW1 1211   2.688   2.359   1.487  0.1025  0.1792  2.0448
  404SOL    HW2 1212   2.657   2.240   1.366 -0.4302  1.2479 -1.2343
  405SOL     OW 1213   1.774   0.253   2.652 -0.3827  0.2409  0.1520
  405SOL    HW1 1214   1.783   0.156   2.627  0.2818 -0.9502 -2.6706
  405SOL    HW2 1215   1.672   0.274   2.657 -3.8726 -1.8454  0.2011
  406SOL     OW 1216   1.190   2.065   0.007  0.4755 -0.4273 -0.1102
  406SOL    HW1 1217   1.262   1.995   0.009 -0.3564 -0.0966 -0.7440
  406SOL    HW2 1218   1.153   2.057   0.100 -0.0946  1.4509  0.9127
  407SOL     OW 1219   1.543   1.442   0.477 -0.0758  0.6363 -0.0742
  407SOL    HW1 1220   1.458   1.437   0.528 -0.7399 -0.6983 -0.9011
  407SOL    HW2 1221   1.620   1.449   0.544 -0.8116 -0.2319  3.2338
  408SOL     OW 1222   0.013   0.610   1.411 -0.3017 -0.0698  0.0558
  408SOL    HW1 1223   0.074   0.624   1.491 -1.3644 -0.4797  1.0738
  408SOL    HW2 1224   0.040   0.530   1.344  2.9699 -0.5350 -1.4402
  409SOL     OW 1225   2.506   1.434   3.003  0.1399 -0.2189 -0.2057
  409SOL    HW1 1226   2.533   1.435   0.012  0.8975 -3.5361  1.3011
  409SOL    HW2 1227   2.410   1.461   2.986  3.1249 -2.5295 -0.3771
  410SOL     OW 1228   2.559   2.295   0.652  0.1449  0.6057 -0.0248
  410SOL    HW1 1229   2.601   2.385   0.672 -0.3736 -1.1130 -1.4147
  410SOL    HW2 1230   2.565   2.235   0.737  0.5431 -2.6119  1.7842
  411SOL     OW 1231   0.412   0.060   0.302  0.4342 -0.0690 -0.0324
  411SOL    HW1 1232   0.346   0.131   0.279  2.1279  0.1958  1.2300
  411SOL    HW2 1233   0.498   0.066   0.252 -1.3777 -1.2356  2.5000
  412SOL     OW 1234   1.531   2.988   0.442 -0.5444 -0.2561 -0.4840
  412SOL    HW1 1235   1.482   2.899   0.457  1.3251 -1.3007 -0.6165
  412SOL    HW2 1236   1.627   2.994   0.473 -0.6944 -1.8028 -0.9752
  413SOL     OW 1237   1.783   0.661   2.080  0.3234 -0.2690  0.6973
  413SOL    HW1 1238   1.822   0.684   1.990 -2.1286  1.2402 -0.4591
  413SOL    HW2 1239   1.735   0.571   2.076  0.0054 -1.9148  0.7948
  414SOL     OW 1240   0.068   0.654   0.519 -0.2352 -0.1609  0.5474
  414SOL    HW1 1241   0.108   0.738   0.480 -3.6639 -1.8537 -2.0413
  414SOL    HW2 1242   0.139   0.612   0.574 -1.8073  1.3897 -1.0829
  415SOL     OW 1243   3.058   1.099   0.507  0.0271 -0.3116 -0.2098
  415SOL    HW1 1244   3.012   1.116   0.420  0.6000  0.5153  3.3092
  415SOL    HW2 1245   3.004   1.134   0.585 -1.2702 -2.1957 -3.2195
  416SOL     OW 1246   3.049   0.368   2.835 -0.5420  0.3647  0.6610
  416SOL    HW1 1247   0.049   0.347   2.792  1.2981  0.9262  1.5759
  416SOL    HW2 1248   3.050   0.472   2.842  1.0771  3.1103 -0.0798
  417SOL     OW 1249   2.361   0.202   0.724 -0.2487  0.2096  0.0324
  417SOL    HW1 1250   2.390   0.246   0.805  0.1924  0.1790 -1.3898
  417SOL    HW2 1251   2.435   0.200   0.652  4.5860  0.2922 -2.0589
  418SOL     OW 1252   0.670   0.029   2.975 -0.0268 -0.1524 -0.0097
  418SOL    HW1 1253   0.626   0.089   3.041 -0.7023 -3.0324 -1.8031
  418SOL    HW2 1254   0.614   3.031   2.973 -0.8807 -3.1094 -1.2378
  419SOL     OW 1255   0.130   0.483   0.920  0.2326 -0.5734 -0.4482
  419SOL    HW1 1256   0.187   0.557   0.944 -1.1308 -1.6210  1.3044
  419SOL    HW2 1257   0.175   0.398   0.949 -1.2835  1.6909 -0.5537
  420SOL     OW 1258   2.927   1.090   1.374 -0.2842 -0.5100  0.2799
  420SOL    HW1 1259   2.971   1.113   1.284 -1.1914 -1.7371 -3.1483
  420SOL    HW2 1260   2.869   1.006   1.363  0.2504  1.7479  0.4892
  421SOL     OW 1261   1.003   2.057   2.924  0.6005  0.0491  0.5652
  421SOL    HW1 1262   1.071   2.086   2.989 -3.3073  0.9105 -3.9433
  421SOL    HW2 1263   1.045   2.042   2.832  0.0150 -2.3464  2.5806
  422SOL     OW 1264   2.407   0.307   2.222  0.4597 -0.0337 -0.6945
  422SOL    HW1 1265   2.467   0.226   2.194  0.1325 -1.0293 -0.1594
  422SOL    HW2 1266   2.349   0.333   2.140  1.5677  1.3130  0.6637
  423SOL     OW 1267   1.891   1.556   0.225 -0.2155 -0.0264  0.4519
  423SOL    HW1 1268   1.945   1.624   0.171  1.4538  0.2747  0.3142
  423SOL    HW2 1269   1.793   1.587   0.239 -1.1546  0.7314 -0.2400
  424SOL     OW 1270   1.195   1.085   2.025  0.6369 -0.2216 -0.4423
  424SOL    HW1 1271   1.176   1.179   2.063  0.2261  0.9081 -0.9788
  424SOL    HW2 1272   1.283   1.052   2.066  0.8243 -2.3882 -0.0835
  425SOL     OW 1273   0.206   2.612   2.025 -0.0513 -0.5943  0.0155
  425SOL    HW1 1274   0.244   2.680   2.087 -2.5500 -1.2931 -3.1338
  425SOL    HW2 1275   0.232   2.629   1.931  0.2455 -0.2322  2.0863
  426SOL     OW 1276   2.283   2.579   0.532 -0.4902 -0.6629 -0.0241
  426SOL    HW1 1277   2.367   2.636   0.548  2.5893  1.8044  0.6332
  426SOL    HW2 1278   2.259   2.524   0.616 -1.1722  0.1835  0.7664
  427SOL     OW 1279   0.678   0.686   2.864  0.1455 -0.3145 -0.5219
  427SOL    HW1 1280   0.611   0.609   2.869 -2.7578 -2.7508 -0.0017
  427SOL    HW2 1281   0.766   0.653   2.912  3.0529  1.3720  0.7974
  428SOL     OW 1282   2.704   1.538   2.835  0.1121 -0.6851 -0.1798
  428SOL    HW1 1283   2.629   1.500   2.893  0.4864  3.7768 -0.4239
  428SOL    HW2 1284   2.776   1.467   2.813  1.4508  0.4574 -2.0011
  429SOL     OW 1285   2.560   0.512   0.255 -0.7031 -0.3828  0.0420
  429SOL    HW1 1286   2.522   0.429   0.297 -0.2927  1.2955  0.1993
  429SOL    HW2 1287   2.503   0.595   0.277 -0.9895  0.9132  0.7235
  430SOL     OW 1288   1.417   2.065   2.503 -0.2968  0.7645  0.3654
  430SOL    HW1 1289   1.491   2.132   2.474  2.2429 -0.6937 -0.1273
  430SOL    HW2 1290   1.393   2.085   2.599  0.6435  0.4230  0.6666
  431SOL     OW 1291   0.251   2.107   1.618  0.1256  0.2227 -0.2816
  431SOL    HW1 1292   0.204   2.137   1.530 -1.2531  0.5137 -1.4116
  431SOL    HW2 1293   0.176   2.068   1.676  0.0118 -0.2548 -1.6001
  432SOL     OW 1294   1.632   2.585   1.868  0.1798  0.4592 -0.0097
  432SOL    HW1 1295   1.602   2.492   1.843 -1.3176  3.0927  3.7364
  432SOL    HW2 1296   1.597   2.645   1.796  1.8114 -1.0876  2.6267
  433SOL     OW 1297   1.115   2.133   0.337  0.0740  0.5309 -0.0009
  433SOL    HW1 1298   1.074   2.201   0.273 -1.8412 -3.1321 -1.4442
  433SOL    HW2 1299   1.074   2.043   0.314 -0.4374  0.5202  1.2134
  434SOL     OW 1300   0.377   2.174   2.659 -0.0342  0.5488  0.1462
  434SOL    HW1 1301   0.432   2.246   2.712  1.0712  1.6674 -1.3496
  434SOL    HW2 1302   0.314   2.131   2.718  0.1294  1.4804 -3.0846
  435SOL     OW 1303   0.171   0.917   0.531  0.3772 -0.2906  0.2794
  435SOL    HW1 1304   0.077   0.957   0.504 -1.7919  1.0283 -0.4293
  435SOL    HW2 1305   0.239   0.969   0.476  0.2128 -1.9947  0.9195
  436SOL     OW 1306   0.506   2.835   1.594 -0.2074 -0.3103 -0.0131
  436SOL    HW1 1307   0.464   2.819   1.686 -1.3814 -1.8361 -0.4276
  436SOL    HW2 1308   0.602   2.872   1.601  0.6978  1.1409  0.3731
  437SOL     OW 1309   0.683   0.303   0.831  0.6354  0.3280  0.0334
  437SOL    HW1 1310   0.748   0.353   0.891  0.3374 -2.0500 -0.9315
  437SOL    HW2 1311   0.727   0.266   0.749 -1.4165 -0.7460 -0.9467
  438SOL     OW 1312   0.409   2.116   0.738  0.0391 -0.1933  0.5607
  438SOL    HW1 1313   0.448   2.212   0.736  0.4039 -0.8471 -0.5437
  438SOL    HW2 1314   0.461   2.058   0.803 -1.1805 -2.4187 -2.3626
  439SOL     OW 1315   0.814   2.593   1.612  0.1697 -0.1815 -0.0824
  439SOL    HW1 1316   0.744   2.546   1.666 -0.1654  1.4442  1.1832
  439SOL    HW2 1317   0.804   2.698   1.614  0.2481 -0.7248 -0.3165
  440SOL     OW 1318   1.929   2.970   2.084 -0.3384 -0.9105  0.7226
  440SOL    HW1 1319   1.893   2.886   2.034 -0.7394 -0.7812 -2.3857
  440SOL    HW2 1320   1.866   2.984   2.165 -2.1269 -0.5232 -0.0713
  441SOL     OW 1321   2.858   0.437   1.740  0.4429 -0.8125 -0.4713
  441SOL    HW1 1322   2.884   0.373   1.814 -0.0008  0.9631  2.4310
  441SOL    HW2 1323   2.933   0.501   1.718 -0.2317 -0.9148 -0.5493
  442SOL     OW 1324   1.832   2.385   0.964  0.2484 -0.1384 -0.3192
  442SOL    HW1 1325   1.848   2.377   0.861  0.5799 -0.9680 -3.4274
  442SOL    HW2 1326   1.843   2.293   1.005  0.7889  2.7784 -1.3162
  443SOL     OW 1327   2.825   0.700   2.074  0.2479  0.4606  0.1211
  443SOL    HW1 1328   2.795   0.608   2.041  1.9245 -1.8636  1.0755
  443SOL    HW2 1329   2.754   0.773   2.057  1.1284  2.0266  0.6266
  444SOL     OW 1330   1.969   1.189   2.002  0.3294 -0.2028 -0.0155
  444SOL    HW1 1331   1.882   1.132   1.992 -0.8318 -1.8211 -0.8518
  444SOL    HW2 1332   2.001   1.238   1.917  1.8905 -0.2239 -0.4224
  445SOL     OW 1333   2.906   2.398   1.093  0.0894 -0.2211 -0.2680
  445SOL    HW1 1334   2.908   2.501   1.114 -1.3287  3.2320 -0.4566
  445SOL    HW2 1335   2.963   2.381   1.011 -0.0185 -1.1143  1.5638
  446SOL     OW 1336   2.751   1.605   1.032  0.0555  0.0472  0.2211
  446SOL    HW1 1337   2.807   1.674   1.077  0.0853 -0.6063 -2.0254
  446SOL    HW2 1338   2.797   1.515   1.041  0.7860  2.1220 -1.8833
  447SOL     OW 1339   0.504   0.972   0.861  0.5791  0.2941 -0.7735
  447SOL    HW1 1340   0.502   0.881   0.814  0.5940 -2.5902  0.2060
  447SOL    HW2 1341   0.603   0.991   0.888  1.4627  0.8155 -1.6002
  448SOL     OW 1342   1.511   1.339   1.973  0.1438  0.1723 -0.4860
  448SOL    HW1 1343   1.417   1.377   1.947 -0.1287 -0.9671  0.1119
  448SOL    HW2 1344   1.510   1.304   2.066  1.0545 -2.0320  0.2410
  449SOL     OW 1345   1.228   1.355   0.061 -0.6712  0.5646 -0.2404
  449SOL    HW1 1346   1.286   1.301   0.001 -0.1071  0.8050 -0.7768
  449SOL    HW2 1347   1.164   1.294   0.110  1.0191  2.3743  0.1512
  450SOL     OW 1348   2.923   2.238   2.081 -0.0168  0.4995 -0.3163
  450SOL    HW1 1349   2.948   2.333   2.102 -0.9470 -1.7858  0.8632
  450SOL    HW2 1350   3.004   2.188   2.048  1.7950 -1.5678  1.3871
  451SOL     OW 1351   2.064   2.998   2.544  0.1302  0.2745  0.1052
  451SOL    HW1 1352   2.091   2.899   2.554 -0.9978 -0.5467 -0.6615
  451SOL    HW2 1353   1.962   3.012   2.545  0.1668 -0.2740 -3.1569
  452SOL     OW 1354   1.723   2.961   1.115  0.5471  0.4609  0.6274
  452SOL    HW1 1355   1.692   3.055   1.120  1.4087 -1.8713  2.6041
  452SOL    HW2 1356   1.822   2.958   1.098 -2.8126 -0.8846 -1.0643
  453SOL     OW 1357   1.718   0.986   1.129 -0.0985  0.2091  0.2829
  453SOL    HW1 1358   1.817   0.969   1.131 -0.2812 -1.1124  1.1411
  453SOL    HW2 1359   1.694   1.038   1.047 -2.9666 -1.6557  1.1575
  454SOL     OW 1360   0.242   1.214   0.466  0.0917  0.1179 -0.0389
  454SOL    HW1 1361   0.292   1.231   0.556 -1.9367  2.2159 -0.5515
  454SOL    HW2 1362   0.152   1.165   0.487  0.5969  0.6087 -2.1167
  455SOL     OW 1363   2.774   0.049   0.488 -0.3270  0.4773 -0.2691
  455SOL    HW1 1364   2.852   0.084   0.433 -1.0801  0.6077 -1.2251
  455SOL    HW2 1365   2.775   3.037   0.500  0.5645  2.0319  2.6833
  456SOL     OW 1366   2.901   2.652   1.144 -0.0190 -0.1501 -0.2616
  456SOL    HW1 1367   2.966   2.685   1.215 -3.1554  1.5917 -1.5977
  456SOL    HW2 1368   2.862   2.729   1.088 -2.7315 -1.7937 -0.7984
  457SOL     OW 1369   1.300   3.023   0.668 -0.2818  0.0275 -0.1412
  457SOL    HW1 1370   1.314   3.080   0.586  0.7224 -1.3583 -0.5551
  457SOL    HW2 1371   1.319   3.067   0.757  0.3664  0.6449  2.5872
  458SOL     OW 1372   2.519   0.261   0.312 -0.5701 -0.0290 -0.6128
  458SOL    HW1 1373   2.542   0.253   0.409  2.2018 -4.2040 -2.3931
  458SOL    HW2 1374   2.430   0.220   0.296  0.2717 -0.2570  0.7547
  459SOL     OW 1375   2.196   0.764   2.552 -0.8010 -0.0629 -0.0643
  459SOL    HW1 1376   2.160   0.698   2.483  4.2183  0.6583  0.5140
  459SOL    HW2 1377   2.222   0.722   2.641 -2.0681 -1.5678 -0.4078
  460SOL     OW 1378   2.897   2.950   2.845 -0.4414 -0.0387 -0.6729
  460SOL    HW1 1379   2.848   3.023   2.796  3.0111 -0.2099  0.4207
  460SOL    HW2 1380   2.837   2.874   2.877  0.5487  1.0825 -2.4465
  461SOL     OW 1381   0.901   1.661   0.651  0.5130 -0.4071  0.0276
  461SOL    HW1 1382   0.942   1.617   0.734 -0.7311 -1.4403 -0.2468
  461SOL    HW2 1383   0.840   1.744   0.670 -2.7745  1.0085 -1.1574
  462SOL     OW 1384   2.460   2.334   1.061  0.3930 -0.0544 -0.1717
  462SOL    HW1 1385   2.380   2.396   1.051 -0.4993 -0.6863 -1.1156
  462SOL    HW2 1386   2.474   2.279   0.976 -3.4807 -1.1073  1.7411
  463SOL     OW 1387   2.359   1.022   0.644 -0.2657 -0.1640  0.4843
  463SOL    HW1 1388   2.414   0.994   0.565  1.8800 -1.2514  1.9965
  463SOL    HW2 1389   2.409   1.000   0.733  3.6478 -0.4647  2.0459
  464SOL     OW 1390   0.216   2.712   1.209 -0.3676  0.1137 -0.5072
  464SOL    HW1 1391   0.177   2.619   1.217  1.1047  2.2867  0.3241
  464SOL    HW2 1392   0.313   2.704   1.248  2.2694  0.0994  0.2385
  465SOL     OW 1393   0.145   1.535   2.936 -0.4989  0.3051 -0.2872
  465SOL    HW1 1394   0.074   1.473   2.971  0.0553  0.7757 -0.2623
  465SOL    HW2 1395   0.237   1.507   2.973  1.6903  1.3258 -1.0711
  466SOL     OW 1396   1.620   0.085   2.894 -0.0572 -0.0982  0.3521
  466SOL    HW1 1397   1.551   0.066   2.825  2.4858 -0.1568  0.7496
  466SOL    HW2 1398   1.620   0.183   2.925 -2.6625  0.7079  0.9129
  467SOL     OW 1399   1.011   0.883   1.991  0.0646  0.0714 -0.3162
  467SOL    HW1 1400   1.044   0.794   1.953 -0.0895 -0.1095 -1.3701
  467SOL    HW2 1401   1.088   0.949   1.998 -0.1455  1.0507  1.8746
  468SOL     OW 1402   0.623   0.925   2.413 -0.2796 -0.0458  0.0852
  468SOL    HW1 1403   0.661   0.866   2.485 -0.9379 -1.7585 -0.0493
  468SOL    HW2 1404   0.535   0.891   2.375  0.3379  0.4588  2.8168
  469SOL     OW 1405   0.047   2.122   3.083 -0.0290 -0.1363  0.5477
  469SOL    HW1 1406   0.026   2.219   3.069  0.5513 -1.9917 -0.6254
  469SOL    HW2 1407   3.056   2.062   0.007 -0.5754  0.5735 -1.3426
  470SOL     OW 1408   2.203   1.809   2.769 -0.1743 -0.2508 -0.0781
  470SOL    HW1 1409   2.278   1.737   2.754  2.3412 -1.4038  0.6253
  470SOL    HW2 1410   2.243   1.898   2.812 -1.0506  0.4614  1.2895
  471SOL     OW 1411   2.384   0.823   2.147 -0.3851 -0.2508 -0.4576
  471SOL    HW1 1412   2.403   0.807   2.251  0.1500 -2.9850  0.6498
  471SOL    HW2 1413   2.469   0.807   2.088 -1.0790  0.2248  0.0016
  472SOL     OW 1414   0.419   2.541   0.726  0.6291 -0.7720 -0.5691
  472SOL    HW1 1415   0.433   2.591   0.639 -1.2385 -0.5353  0.5357
  472SOL    HW2 1416   0.426   2.607   0.806  0.5302  0.7697  2.7523
  473SOL     OW 1417   0.616   0.143   2.718 -0.2715  0.1434 -0.3278
  473SOL    HW1 1418   0.641   0.104   2.806  0.2910 -1.4818 -1.1552
  473SOL    HW2 1419   0.602   0.241   2.729  0.6044  0.0032 -0.9415
  474SOL     OW 1420   1.713   0.191   2.352  0.3675  0.0991  0.1671
  474SOL    HW1 1421   1.674   0.283   2.343  0.8767  0.3350  1.2471
  474SOL    HW2 1422   1.683   0.140   2.268  1.9673  3.6217 -0.1851
  475SOL     OW 1423   1.771   2.569   0.707  0.1286 -0.2796 -0.5158
  475SOL    HW1 1424   1.768   2.466   0.709  0.1538 -0.5180  1.8577
  475SOL    HW2 1425   1.818   2.592   0.624  0.9290  2.4316  1.4624
  476SOL     OW 1426   2.970   0.589   0.963 -0.5035 -0.1972  0.0076
  476SOL    HW1 1427   2.967   0.674   1.021 -0.3613 -0.3513 -2.0091
  476SOL    HW2 1428   3.063   0.551   0.943 -2.0110 -1.7045  0.0725
  477SOL     OW 1429   1.338   2.262   0.759 -0.0807  0.4690 -0.5113
  477SOL    HW1 1430   1.426   2.209   0.772  0.1068 -0.1857 -2.0994
  477SOL    HW2 1431   1.274   2.212   0.702  0.4469  0.7868  2.5468
  478SOL     OW 1432   0.228   2.123   2.439 -0.0634 -0.1850  0.5547
  478SOL    HW1 1433   0.295   2.148   2.511  0.6624  0.0801 -1.8122
  478SOL    HW2 1434   0.282   2.091   2.358 -0.6739  1.9020 -0.5983
  479SOL     OW 1435   2.264   0.561   0.993 -0.6049 -0.1641  0.2748
  479SOL    HW1 1436   2.192   0.539   0.917 -2.0157  1.2429 -2.2489
  479SOL    HW2 1437   2.332   0.485   0.996  0.5585  0.0480  1.1986
  480SOL     OW 1438   3.021   2.774   0.185 -0.1116 -0.0504  0.7624
  480SOL    HW1 1439   2.990   2.864   0.211  0.0281  0.7541 -1.5265
  480SOL    HW2 1440   0.025   2.773   0.134 -2.9448  1.9712  3.9978
  481SOL     OW 1441   2.640   2.556   1.108 -0.3712  0.1697  0.0055
  481SOL    HW1 1442   2.585   2.559   1.196 -0.9518  1.3266  2.7984
  481SOL    HW2 1443   2.742   2.572   1.136 -0.3261  0.4866  0.1984
  482SOL     OW 1444   1.035   2.355   2.811  0.2581 -0.4521 -0.2247
  482SOL    HW1 1445   1.076   2.348   2.902 -2.1782  0.2255 -1.6778
  482SOL    HW2 1446   1.052   2.447   2.770  0.0825  0.3986  0.2940
  483SOL     OW 1447   0.798   1.929   2.683 -0.1368 -0.4043 -0.1371
  483SOL    HW1 1448   0.780   1.914   2.780 -0.7191 -0.5965 -3.1488
  483SOL    HW2 1449   0.714   1.964   2.638 -1.2380 -1.0314  0.6405
  484SOL     OW 1450   0.982   0.885   1.444  0.2474  0.1043 -0.9096
  484SOL    HW1 1451   0.988   0.800   1.389  1.3819  1.2608 -2.8120
  484SOL    HW2 1452   1.077   0.904   1.481  0.9555 -0.4740 -1.5592
  485SOL     OW 1453   2.343   0.816   0.081  0.1234 -0.1347  0.3225
  485SOL    HW1 1454   2.398   0.743   0.030  0.7445 -0.9880  0.5327
  485SOL    HW2 1455   2.350   0.905   0.032 -1.1426 -0.8795  3.1623
  486SOL     OW 1456   2.052   2.976   1.133 -0.2901 -0.7219 -0.0738
  486SOL    HW1 1457   2.081   2.912   1.202 -0.3018  1.4344 -1.6143
  486SOL    HW2 1458   2.017   3.063   1.170  2.0833  0.1000 -2.1390
  487SOL     OW 1459   0.441   2.021   1.096 -0.1268 -0.3504  0.9391
  487SOL    HW1 1460   0.498   1.978   1.163 -0.6886 -0.8425  0.0677
  487SOL    HW2 1461   0.342   2.022   1.116 -0.5154  1.0005 -1.1137
  488SOL     OW 1462   2.659   1.022   0.047 -0.4302  0.0259  0.2363
  488SOL    HW1 1463   2.566   1.058   0.025 -1.5046 -1.1448  0.8814
  488SOL    HW2 1464   2.674   0.927   0.005  0.5175 -4.2060 -0.3740
  489SOL     OW 1465   1.859   0.173   1.020 -0.2600  0.2179  0.1215
  489SOL    HW1 1466   1.917   0.154   1.100  0.9647 -0.9218  0.5426
  489SOL    HW2 1467   1.779   0.233   1.039  0.9096  0.3740 -1.3081
  490SOL     OW 1468   0.844   0.594   0.492 -0.0558 -0.1832  0.1669
  490SOL    HW1 1469   0.796   0.506   0.475 -0.9203 -1.2719 -0.5490
  490SOL    HW2 1470   0.801   0.648   0.569 -0.7072  1.4619 -0.6976
  491SOL     OW 1471   0.571   2.341   0.758 -0.1502  0.0220  0.2116
  491SOL    HW1 1472   0.633   2.336   0.675  3.3991  0.9073 -1.7618
  491SOL    HW2 1473   0.511   2.421   0.742  1.4032  0.3725 -0.1413
  492SOL     OW 1474   1.598   1.660   2.256  0.5217  0.1624 -0.2429
  492SOL    HW1 1475   1.616   1.602   2.339  0.6997  0.5301  2.5952
  492SOL    HW2 1476   1.501   1.655   2.222  0.2201 -1.6517  2.1171
  493SOL     OW 1477   0.001   2.667   0.842  0.2551 -0.1947 -0.1191
  493SOL    HW1 1478   2.994   2.702   0.841 -0.7653 -1.7182 -0.7072
  493SOL    HW2 1479   0.069   2.737   0.865  0.3427  0.9259  1.9372
  494SOL     OW 1480   2.683   1.978   0.107  0.4200 -0.7157  0.2906
  494SOL    HW1 1481   2.633   1.912   0.172  1.2256 -0.6230  3.9207
  494SOL    HW2 1482   2.657   1.959   0.007 -2.4963 -1.0014 -2.3051
  495SOL     OW 1483   2.623   1.880   2.934  0.0562  0.2670 -0.8481
  495SOL    HW1 1484   2.587   1.901   2.841  0.3902 -0.8002 -0.1059
  495SOL    HW2 1485   2.699   1.814   2.921 -1.9359 -1.8197  0.0631
  496SOL     OW 1486   2.693   3.002   1.415  0.3930  0.0952 -0.3208
  496SOL    HW1 1487   2.631   3.050   1.482 -1.8538  0.4610  1.1379
  496SOL    HW2 1488   2.638   2.956   1.341  2.8198 -0.1005 -1.9880
  497SOL     OW 1489   2.814   1.224   2.974 -0.2083  0.6209 -0.5074
  497SOL    HW1 1490   2.768   1.245   2.887 -1.8213 -1.3715  1.4961
  497SOL    HW2 1491   2.760   1.150   3.022  1.0702 -1.9065 -0.9720
  498SOL     OW 1492   0.078   1.925   2.207  0.3793  0.3392  0.0129
  498SOL    HW1 1493   0.067   2.013   2.154  1.1192  0.5581 -0.7303
  498SOL    HW2 1494   0.035   1.934   2.301 -1.9476  0.6949  0.2439
  499SOL     OW 1495   0.798   2.244   2.902 -0.3393  0.1834 -0.5669
  499SOL    HW1 1496   0.871   2.177   2.898 -2.6679  3.2517  0.8104
  499SOL    HW2 1497   0.829   2.330   2.863  0.6660  0.0608  2.4245
  500SOL     OW 1498   1.530   0.321   3.042 -0.0659  0.6764 -0.0970
  500SOL    HW1 1499   1.490   0.243   0.005  1.0992  1.2282 -1.3729
  500SOL    HW2 1500   1.620   0.350   3.081  0.2705  0.9032  0.1223
  501SOL     OW 1501   1.433   2.916   1.474 -0.0900  0.5896  0.5821
  501SOL    HW1 1502   1.419   2.965   1.382 -0.5589  3.7088 -1.8509
  501SOL    HW2 1503   1.466   2.981   1.543 -0.0957 -1.7160 -2.9817
  502SOL     OW 1504   2.622   0.851   2.004 -0.2665  0.2857 -0.0653
  502SOL    HW1 1505   2.625   0.955   2.004 -2.2923  0.2412  0.4856
  502SOL    HW2 1506   2.627   0.817   1.906 -1.1249 -2.3046  1.8933
  503SOL     OW 1507   2.172   2.126   2.432 -0.4910 -0.0656 -0.3972
  503SOL    HW1 1508   2.249   2.182   2.472  1.9590 -0.4714 -1.0912
  503SOL    HW2 1509   2.102   2.187   2.394  0.7727  0.8881  2.4617
  504SOL     OW 1510   1.382   0.743   1.589 -0.2068  0.4516  0.2515
  504SOL    HW1 1511   1.397   0.679   1.516 -0.7474  0.2977 -1.4452
  504SOL    HW2 1512   1.427   0.708   1.674  2.6936  0.4323  0.9707
  505SOL     OW 1513   0.720   0.624   1.655 -0.1340 -0.1976 -0.3835
  505SOL    HW1 1514   0.694   0.666   1.747 -1.4319  2.7541  0.9861
  505SOL    HW2 1515   0.716   0.689   1.578  1.6410  2.6382  1.2661
  506SOL     OW 1516   0.325   0.443   2.317 -0.4844  0.4791 -0.2513
  506SOL    HW1 1517   0.414   0.393   2.304  0.9158 -3.4154 -1.4014
  506SOL    HW2 1518   0.334   0.544   2.295  0.0523  0.4462  0.6983
  507SOL     OW 1519   0.161   2.781   0.039 -0.2390  0.2288 -0.2742
  507SOL    HW1 1520   0.260   2.798   0.069  1.7319  0.3863  2.1706
  507SOL    HW2 1521   0.124   2.870   0.016 -1.8200 -2.3979  3.1374
  508SOL     OW 1522   1.372   1.016   1.307  0.0814 -0.3680  0.1828
  508SOL    HW1 1523   1.301   1.000   1.380  0.4283  0.0028  1.1691
  508SOL    HW2 1524   1.436   1.091   1.329  1.1807 -1.7983 -4.1335
  509SOL     OW 1525   1.436   2.211   1.509  0.0696 -0.1355 -0.8381
  509SOL    HW1 1526   1.467   2.280   1.436  0.6266 -0.7711 -1.4911
  509SOL    HW2 1527   1.513   2.141   1.533  0.9747 -3.1582 -1.0325
  510SOL     OW 1528   2.442   1.409   2.263  0.1406  0.4358  0.6378
  510SOL    HW1 1529   2.410   1.456   2.347  3.2822 -1.3305  1.3395
  510SOL    HW2 1530   2.391   1.328   2.232 -3.0911  0.9027 -1.0207
  511SOL     OW 1531   0.716   1.642   1.315  0.0549  0.3979 -0.2854
  511SOL    HW1 1532   0.661   1.594   1.245  1.7024 -0.3880  2.6960
  511SOL    HW2 1533   0.711   1.586   1.398  1.8018  0.2130 -0.1548
  512SOL     OW 1534   2.734   1.914   0.507  0.0846 -0.3051  0.2712
  512SOL    HW1 1535   2.681   1.993   0.466 -0.9293 -1.4805  1.9562
  512SOL    HW2 1536   2.687   1.828   0.485 -1.6688  0.9726 -0.5751
  513SOL     OW 1537   0.052   1.767   2.833  1.0698  0.2459 -0.1927
  513SOL    HW1 1538   0.106   1.795   2.752 -0.6942 -4.2677 -2.9188
  513SOL    HW2 1539   0.094   1.684   2.876  1.9846 -0.7402 -1.8337
  514SOL     OW 1540   3.079   2.469   2.136 -0.1616  0.0233  0.0718
  514SOL    HW1 1541   0.021   2.407   2.211 -0.0017  0.4113  0.8927
  514SOL    HW2 1542   0.068   2.514   2.089  0.5891 -1.0361 -0.1514
  515SOL     OW 1543   2.216   1.398   1.222 -0.3520 -0.8169 -0.0731
  515SOL    HW1 1544   2.138   1.337   1.214  2.4820  0.1684 -0.6170
  515SOL    HW2 1545   2.272   1.366   1.303  0.3589  0.5369 -0.9525
  516SOL     OW 1546   2.159   2.298   0.164  0.0557  0.2356 -0.2046
  516SOL    HW1 1547   2.189   2.254   0.251 -1.7730  2.0374 -1.0595
  516SOL    HW2 1548   2.105   2.243   0.099 -3.2485  1.9370 -2.6116
  517SOL     OW 1549   1.177   1.101   3.053 -0.2345  0.3844  0.4485
  517SOL    HW1 1550   1.258   1.139   3.001  0.1050 -0.7064 -1.9519
  517SOL    HW2 1551   1.099   1.163   3.044  0.6099  1.5914 -0.8061
  518SOL     OW 1552   0.137   2.893   1.987 -0.2004  0.9734 -0.1215
  518SOL    HW1 1553   0.168   2.940   2.068  0.6674 -0.8715  0.8516
  518SOL    HW2 1554   0.052   2.852   2.015  0.7003  0.9483  1.9740
  519SOL     OW 1555   1.663   1.502   2.457 -0.2458  0.1185 -0.8534
  519SOL    HW1 1556   1.760   1.536   2.463 -0.1422  1.2241  2.3462
  519SOL    HW2 1557   1.648   1.454   2.542 -0.7219  1.7097 -0.5026
  520SOL     OW 1558   2.589   2.770   2.431  0.0920  0.1000  0.6336
  520SOL    HW1 1559   2.556   2.721   2.350 -0.7576  1.6769  0.4138
  520SOL    HW2 1560   2.597   2.701   2.506  1.4999  1.3678 -1.6159
  521SOL     OW 1561   0.244   1.871   1.984 -0.1861  0.0979 -0.1416
  521SOL    HW1 1562   0.164   1.873   2.044  0.7608 -1.1814 -1.9876
  521SOL    HW2 1563   0.245   1.960   1.934  0.7145 -0.6897  2.2493
  522SOL     OW 1564   1.065   2.567   1.651 -0.3648  0.4188 -0.3382
  522SOL    HW1 1565   0.969   2.582   1.627  2.3282 -0.8016 -0.3766
  522SOL    HW2 1566   1.124   2.641   1.607  0.7895  0.2427 -0.6365
  523SOL     OW 1567   0.111   2.236   1.420  0.0735  0.1653  0.0186
  523SOL    HW1 1568   0.157   2.323   1.440  0.8240 -1.1003 -0.3347
  523SOL    HW2 1569   0.010   2.249   1.398 -2.1387  2.0624 -0.4482
  524SOL     OW 1570   1.346   2.546   0.722  0.1730 -0.0865  0.2029
  524SOL    HW1 1571   1.416   2.607   0.763 -2.4878  0.4618 -0.2457
  524SOL    HW2 1572   1.371   2.451   0.746 -1.4362  1.2186  0.3928
  525SOL     OW 1573   2.525   1.283   0.874 -0.8786 -0.0234  0.4270
  525SOL    HW1 1574   2.562   1.289   0.968  1.3288  0.9352  1.5904
  525SOL    HW2 1575   2.461   1.358   0.849 -0.5381  0.1751  0.4976
  526SOL     OW 1576   0.952   2.287   0.744 -0.0361 -0.1670  0.3963
  526SOL    HW1 1577   0.872   2.297   0.679 -0.1101 -0.2309 -1.4930
  526SOL    HW2 1578   1.034   2.255   0.690 -0.1454 -1.6304  0.3187
  527SOL     OW 1579   2.590   2.138   0.866 -0.6737  0.3825  0.2218
  527SOL    HW1 1580   2.669   2.155   0.926  0.2974 -3.0714  1.7779
  527SOL    HW2 1581   2.567   2.040   0.862  0.8025  0.3300  1.7673
  528SOL     OW 1582   2.115   0.412   2.911  0.3234 -0.0590  0.2648
  528SOL    HW1 1583   2.035   0.352   2.919  0.3396  0.9415  0.2972
  528SOL    HW2 1584   2.166   0.402   2.997  1.9219  0.7970 -0.0154
  529SOL     OW 1585   1.211   1.327   2.175 -0.1039 -0.3921 -0.1840
  529SOL    HW1 1586   1.257   1.264   2.246  4.2944 -0.3712  2.6698
  529SOL    HW2 1587   1.245   1.421   2.186  2.8189 -2.2170 -2.0408
  530SOL     OW 1588   2.529   1.057   2.427 -0.0663  0.2595  0.4368
  530SOL    HW1 1589   2.568   1.097   2.343  0.8413  2.0508 -1.0868
  530SOL    HW2 1590   2.501   0.964   2.407  2.2494  0.7639  1.1150
  531SOL     OW 1591   0.941   0.691   0.165  0.4037 -0.7533  0.3203
  531SOL    HW1 1592   0.981   0.779   0.138 -1.8570 -3.3369 -0.9336
  531SOL    HW2 1593   0.861   0.703   0.222 -0.4216  0.8992  0.0780
  532SOL     OW 1594   1.558   0.882   0.570 -1.0581  0.2154  0.2269
  532SOL    HW1 1595   1.536   0.795   0.624  0.2184 -2.3801  1.1526
  532SOL    HW2 1596   1.608   0.857   0.481  1.0027  2.6225 -0.2049
  533SOL     OW 1597   0.444   0.668   2.179 -0.6399  0.2906  0.3595
  533SOL    HW1 1598   0.390   0.633   2.096 -2.4169 -1.6428 -2.7926
  533SOL    HW2 1599   0.524   0.607   2.195 -2.0533  2.7696  0.5023
  534SOL     OW 1600   1.599   0.426   2.309  0.3705  0.4908 -0.6227
  534SOL    HW1 1601   1.574   0.442   2.208  1.2853 -2.1032 -2.9470
  534SOL    HW2 1602   1.555   0.486   2.375 -2.2251  0.0149 -1.2328
  535SOL     OW 1603   0.730   0.170   0.588  0.0755 -0.0961 -0.1565
  535SOL    HW1 1604   0.830   0.149   0.575 -0.8434 -1.1320 -0.3294
  535SOL    HW2 1605   0.674   0.090   0.558 -0.5540 -0.9861 -1.7782
  536SOL     OW 1606   1.031   0.346   0.889  0.6332 -0.7326 -0.0194
  536SOL    HW1 1607   1.110   0.397   0.924 -3.8120  1.2749 -0.2703
  536SOL    HW2 1608   0.998   0.381   0.795 -4.1849  0.5015 -3.1743
  537SOL     OW 1609   1.444   2.955   1.910  0.3027  0.3695  0.4462
  537SOL    HW1 1610   1.472   2.933   2.004 -1.8570  1.2230 -1.3731
  537SOL    HW2 1611   1.437   2.875   1.852  1.0951  0.7860  0.3285
  538SOL     OW 1612   0.479   2.782   0.040  0.2001  0.4604 -0.1259
  538SOL    HW1 1613   0.545   2.702   0.041  1.1855  0.9707  1.0651
  538SOL    HW2 1614   0.472   2.826   3.037 -2.5915  3.1623 -0.3753
  539SOL     OW 1615   2.864   1.713   1.823  0.2324 -0.3079 -0.0433
  539SOL    HW1 1616   2.929   1.723   1.749 -1.1424 -1.6481  0.6605
  539SOL    HW2 1617   2.914   1.740   1.907  0.5966  0.3362 -2.0715
  540SOL     OW 1618   2.518   2.420   2.077 -0.4002  0.6158  0.5714
  540SOL    HW1 1619   2.468   2.437   1.985 -0.5720  0.7938 -0.0269
  540SOL    HW2 1620   2.500   2.327   2.117 -0.8327 -0.1416  1.5428
  541SOL     OW 1621   0.384   3.019   1.428 -0.0084  0.1358 -0.0265
  541SOL    HW1 1622   0.287   2.989   1.419 -0.3016 -1.4289 -0.6696
  541SOL    HW2 1623   0.435   2.946   1.484 -1.7543  2.2672 -0.2112
  542SOL     OW 1624   2.802   0.431   2.070 -0.1118 -0.5618 -0.2133
  542SOL    HW1 1625   2.771   0.378   2.152 -0.7221 -1.6006 -0.1255
  542SOL    HW2 1626   2.868   0.375   2.008  1.2162 -1.2341 -1.2409
  543SOL     OW 1627   0.722   0.566   1.002 -0.0891 -0.9827  0.0038
  543SOL    HW1 1628   0.623   0.586   1.021 -0.5732  3.8574  2.5875
  543SOL    HW2 1629   0.753   0.499   1.071  1.0951 -0.8947 -1.2989
  544SOL     OW 1630   2.337   2.174   1.270  0.2837  0.6109 -0.0019
  544SOL    HW1 1631   2.269   2.160   1.196 -0.2434  0.0457  1.1714
  544SOL    HW2 1632   2.398   2.246   1.237  0.7824 -2.8735  0.6328
  545SOL     OW 1633   1.237   1.499   1.014  0.2789 -0.0031  0.1576
  545SOL    HW1 1634   1.325   1.553   1.010  3.8922  2.7087  0.5684
  545SOL    HW2 1635   1.213   1.492   1.114  1.2396  2.6508  2.0540
  546SOL     OW 1636   2.790   0.234   2.265 -0.3757  0.3654  0.0700
  546SOL    HW1 1637   2.737   0.193   2.188  0.7794  1.1544 -0.3361
  546SOL    HW2 1638   2.788   0.164   2.337  0.1322 -3.0734 -0.2910
  547SOL     OW 1639   2.857   0.251   2.697 -0.2204 -0.1549 -0.4809
  547SOL    HW1 1640   2.787   0.323   2.687  2.1078 -2.7858  1.4175
  547SOL    HW2 1641   2.937   0.285   2.749  1.2103  0.2684 -2.4634
  548SOL     OW 1642   2.322   2.076   2.755  0.1762 -0.2276 -0.5578
  548SOL    HW1 1643   2.402   2.022   2.716  3.1659 -1.8754 -3.0784
  548SOL    HW2 1644   2.348   2.172   2.781  1.9332  0.8734 -1.6127
  549SOL     OW 1645   2.091   0.499   0.816  0.6217 -0.3399  0.2725
  549SOL    HW1 1646   2.056   0.402   0.800 -2.0052 -0.5475  0.2796
  549SOL    HW2 1647   2.014   0.554   0.862 -1.6069  1.4909  4.0422
  550SOL     OW 1648   2.591   1.359   0.207 -0.2502 -0.1328 -0.1444
  550SOL    HW1 1649   2.601   1.270   0.256 -0.0756  0.1700  1.6041
  550SOL    HW2 1650   2.659   1.427   0.237  2.9453 -0.3089  0.6909
  551SOL     OW 1651   1.500   2.411   1.313 -0.1363 -0.1611 -0.6733
  551SOL    HW1 1652   1.512   2.434   1.220  0.1323 -2.7883  6.2322
  551SOL    HW2 1653   1.554   2.475   1.373  0.0576 -0.4756 -0.0090
  552SOL     OW 1654   2.631   2.311   2.447  0.1707  0.5310  0.2830
  552SOL    HW1 1655   2.690   2.233   2.411  0.3924  0.7038 -0.6437
  552SOL    HW2 1656   2.676   2.400   2.418 -1.2076  1.6083  0.9667
  553SOL     OW 1657   0.616   2.943   0.725  0.5823  0.4085  0.1599
  553SOL    HW1 1658   0.583   2.996   0.641  1.3746 -1.5048 -0.4694
  553SOL    HW2 1659   0.559   2.981   0.798  2.3139  2.6794  0.7039
  554SOL     OW 1660   1.606   2.287   1.837  0.2304  0.0709 -0.3054
  554SOL    HW1 1661   1.519   2.237   1.867 -1.5392 -1.7557  0.3363
  554SOL    HW2 1662   1.686   2.238   1.871 -0.4857  2.5960  0.1710
  555SOL     OW 1663   1.384   2.567   2.012  0.0492 -0.6931  0.6629
  555SOL    HW1 1664   1.475   2.607   1.988  1.5887 -2.2122  0.4787
  555SOL    HW2 1665   1.306   2.636   1.994 -0.1038  2.3617 -2.7428
  556SOL     OW 1666   1.549   0.610   0.639 -0.0961  0.1381 -0.1711
  556SOL    HW1 1667   1.638   0.554   0.647  1.6748 -0.8424  0.3548
  556SOL    HW2 1668   1.487   0.573   0.572 -1.1794  0.9125 -2.8683
  557SOL     OW 1669   1.220   2.079   1.586 -0.2554 -0.5658  0.2664
  557SOL    HW1 1670   1.285   2.148   1.549  3.5208 -1.0630 -0.1044
  557SOL    HW2 1671   1.263   2.029   1.668  1.2301 -2.1965  2.9018
  558SOL     OW 1672   2.912   1.245   2.372 -0.5734 -0.2021  0.0926
  558SOL    HW1 1673   2.820   1.252   2.332  1.9611  1.5305 -0.6504
  558SOL    HW2 1674   2.945   1.148   2.375  0.7999 -0.5424  2.9919
  559SOL     OW 1675   2.471   2.649   2.210  0.4127 -0.5996 -0.3506
  559SOL    HW1 1676   2.511   2.569   2.165 -1.4374  1.0833  1.4936
  559SOL    HW2 1677   2.442   2.723   2.147  0.4445  2.9377 -2.6398
  560SOL     OW 1678   0.281   0.085   2.578 -0.2373 -0.5332  0.0695
  560SOL    HW1 1679   0.259   0.022   2.501 -0.4880  0.5099  0.7367
  560SOL    HW2 1680   0.385   0.084   2.587  2.0201 -1.6206 -0.5632
  561SOL     OW 1681   1.326   0.478   0.524  0.2695  0.1947  0.2552
  561SOL    HW1 1682   1.231   0.520   0.500 -2.2990 -0.1251 -0.4796
  561SOL    HW2 1683   1.366   0.448   0.434 -0.2779  0.1719 -2.4595
  562SOL     OW 1684   0.966   1.369   1.970  0.1494 -0.2287 -0.4903
  562SOL    HW1 1685   0.981   1.265   1.973  2.2672 -3.1522  0.2812
  562SOL    HW2 1686   0.874   1.396   2.014 -2.5669 -2.3979  3.7654
  563SOL     OW 1687   1.809   1.986   0.114 -0.6477 -0.0471  0.3227
  563SOL    HW1 1688   1.820   2.035   0.024 -3.1983 -1.0812 -0.8363
  563SOL    HW2 1689   1.840   1.889   0.102  1.2648  1.9015  0.0293
  564SOL     OW 1690   3.029   2.230   0.428 -0.1680  0.2987 -0.1736
  564SOL    HW1 1691   2.997   2.129   0.419  0.2791 -1.9634 -0.9017
  564SOL    HW2 1692   0.005   2.240   0.507  1.6046  0.0426  0.7864
  565SOL     OW 1693   0.490   2.927   2.888 -0.0955  0.1357  0.4772
  565SOL    HW1 1694   0.415   2.974   2.835 -0.8797  3.3875  0.4122
  565SOL    HW2 1695   0.551   2.865   2.830  2.5494  1.1330 -2.1461
  566SOL     OW 1696   1.444   2.738   2.869 -0.0583 -0.1668 -0.5526
  566SOL    HW1 1697   1.510   2.735   2.948  0.8011  0.4076 -0.1107
  566SOL    HW2 1698   1.422   2.836   2.852  1.4516 -0.1160 -1.5612
  567SOL     OW 1699   2.448   1.911   1.298 -0.5808 -0.1286 -0.1872
  567SOL    HW1 1700   2.544   1.893   1.262  2.1048  0.8435 -0.2806
  567SOL    HW2 1701   2.438   2.007   1.317  1.9558 -0.4608  0.4638
  568SOL     OW 1702   1.788   0.847   2.840  0.6612  0.4515  0.9025
  568SOL    HW1 1703   1.890   0.849   2.858 -1.5631 -0.7572 -0.4722
  568SOL    HW2 1704   1.758   0.772   2.778 -3.0367  0.1034  2.1362
  569SOL     OW 1705   2.186   2.052   1.935 -0.0512 -0.1939  0.2927
  569SOL    HW1 1706   2.254   1.975   1.940 -2.5253 -0.1499 -0.1057
  569SOL    HW2 1707   2.192   2.115   2.014  0.2763 -1.1765 -0.0821
  570SOL     OW 1708   2.894   2.756   1.742  0.0593 -0.0973  0.2123
  570SOL    HW1 1709   2.838   2.823   1.792 -0.8647 -2.2282 -1.3325
  570SOL    HW2 1710   2.876   2.770   1.643 -0.3145  1.3957 -0.7724
  571SOL     OW 1711   0.110   0.790   1.243 -0.7284  0.3016  0.3753
  571SOL    HW1 1712   0.184   0.839   1.287 -2.9134 -1.2936 -1.9274
  571SOL    HW2 1713   0.066   0.730   1.317  1.4132 -0.4292  0.0655
  572SOL     OW 1714   0.204   1.418   0.999 -0.0263  0.0641  0.0987
  572SOL    HW1 1715   0.116   1.416   0.948  4.0238 -1.1586 -0.1660
  572SOL    HW2 1716   0.245   1.327   0.995  0.0952  1.0973 -1.1335
  573SOL     OW 1717   0.935   0.974   0.396  0.1599 -0.1112  0.5184
  573SOL    HW1 1718   0.860   0.923   0.350  0.6082  0.2321  0.5344
  573SOL    HW2 1719   0.924   0.991   0.497  2.6840 -1.4169  1.8725
  574SOL     OW 1720   0.225   0.300   0.358  0.5687  0.0327 -0.3457
  574SOL    HW1 1721   0.283   0.380   0.387 -1.2578  2.0637  3.5887
  574SOL    HW2 1722   0.205   0.234   0.437 -0.6524  1.3319  1.2818
  575SOL     OW 1723   0.911   2.206   1.016 -0.1901  0.3116  0.4154
  575SOL    HW1 1724   0.931   2.225   0.917 -2.2254  0.2944  2.7345
  575SOL    HW2 1725   0.987   2.243   1.072 -0.6366  2.9172 -2.7532
  576SOL     OW 1726   2.893   0.095   1.410  0.1488 -0.2052 -0.2415
  576SOL    HW1 1727   2.849   0.183   1.429 -0.3497 -1.4167  1.3816
  576SOL    HW2 1728   2.833   0.015   1.403  0.3509  1.5997  2.7883
  577SOL     OW 1729   2.657   2.087   2.007 -0.1889 -0.3218 -0.3428
  577SOL    HW1 1730   2.587   2.103   2.082  2.1176  0.2178 -0.0151
  577SOL    HW2 1731   2.746   2.122   2.035  0.0886 -0.2402 -1.9117
  578SOL     OW 1732   0.991   0.012   2.601  0.1581  0.0188  1.0951
  578SOL    HW1 1733   1.080   3.066   2.576 -2.3962 -0.6750  0.5287
  578SOL    HW2 1734   0.974   3.076   2.697  2.2171  3.1081 -0.8574
  579SOL     OW 1735   1.943   1.942   2.046  0.0627  0.3379 -0.0925
  579SOL    HW1 1736   2.041   1.971   2.027  3.4936  0.0367  0.8651
  579SOL    HW2 1737   1.886   1.916   1.966 -1.1463  0.8649  1.1618
  580SOL     OW 1738   1.781   1.000   2.023  0.1930  0.0278 -0.0475
  580SOL    HW1 1739   1.868   0.946   2.031 -0.9454  0.6701 -0.4068
  580SOL    HW2 1740   1.764   1.057   2.101 -0.6940  0.7777 -1.7812
  581SOL     OW 1741   1.310   1.151   2.384  0.4717  0.3116 -0.1751
  581SOL    HW1 1742   1.366   1.161   2.469 -0.4704 -1.3823 -2.0070
  581SOL    HW2 1743   1.220   1.112   2.403 -1.8076 -1.1242  0.0266
  582SOL     OW 1744   0.253   2.618   1.771  0.1947 -0.1333 -0.0450
  582SOL    HW1 1745   0.247   2.551   1.696 -1.2293  2.3096 -1.2084
  582SOL    HW2 1746   0.205   2.706   1.744 -2.8804  1.5742 -0.0691
  583SOL     OW 1747   1.612   1.131   1.320  0.1352  0.1393  0.4004
  583SOL    HW1 1748   1.627   1.079   1.235 -0.3816  0.6346  0.7789
  583SOL    HW2 1749   1.626   1.233   1.300 -0.4507  2.0865 -2.3395
  584SOL     OW 1750   1.110   1.981   2.675  0.1688  0.1280  0.6038
  584SOL    HW1 1751   1.207   1.984   2.717  2.1168  0.1351  0.0153
  584SOL    HW2 1752   1.118   1.998   2.576  0.8366 -0.0715  1.6743
  585SOL     OW 1753   0.079   2.387   0.229  0.4722 -0.1161 -0.2447
  585SOL    HW1 1754   0.024   2.388   0.145 -0.1292 -3.1270 -0.2280
  585SOL    HW2 1755   0.041   2.324   0.296  2.4810  1.6230 -1.1027
  586SOL     OW 1756   1.997   1.607   0.471 -0.1199 -0.3637  0.7029
  586SOL    HW1 1757   1.949   1.580   0.382 -1.4431  0.9852  1.3900
  586SOL    HW2 1758   2.017   1.528   0.534  1.2791 -2.6169  1.3977
  587SOL     OW 1759   2.976   1.963   0.378 -0.2557 -0.5538  0.5032
  587SOL    HW1 1760   3.063   1.929   0.413  1.0109 -0.4616 -2.9449
  587SOL    HW2 1761   2.895   1.941   0.429 -0.3354  0.8052 -0.9319
  588SOL     OW 1762   2.424   0.314   0.962 -0.2261  0.2624 -0.0510
  588SOL    HW1 1763   2.512   0.340   1.012  0.1565 -0.4144 -1.7378
  588SOL    HW2 1764   2.395   0.221   1.000 -0.4402 -4.6634  0.3092
  589SOL     OW 1765   0.905   0.760   0.937  0.7095  0.0956 -0.1556
  589SOL    HW1 1766   1.001   0.755   0.966 -1.4913  2.8979  2.2692
  589SOL    HW2 1767   0.848   0.680   0.970 -0.3824 -0.8457 -1.8563
  590SOL     OW 1768   2.392   2.316   3.073 -0.1480 -0.4729  0.2781
  590SOL    HW1 1769   2.298   2.311   0.026  0.7532  0.5712  3.3564
  590SOL    HW2 1770   2.460   2.266   0.039 -1.0881 -1.2762 -0.3928
  591SOL     OW 1771   0.632   2.424   1.750  0.3150 -0.2408  0.0986
  591SOL    HW1 1772   0.715   2.370   1.778  1.3147  0.7252 -4.2305
  591SOL    HW2 1773   0.560   2.360   1.704 -1.1166 -2.7455 -0.6936
  592SOL     OW 1774   0.859   1.316   1.517 -0.2697 -0.6364 -0.5112
  592SOL    HW1 1775   0.922   1.369   1.577 -2.2977  0.0117  2.0571
  592SOL    HW2 1776   0.903   1.265   1.440 -2.0535  1.4324 -1.2544
  593SOL     OW 1777   1.157   1.809   1.220  0.3258  0.5244  0.1363
  593SOL    HW1 1778   1.218   1.753   1.279  1.1609 -0.9980 -3.7281
  593SOL    HW2 1779   1.166   1.904   1.249 -2.2050 -3.4528  4.4301
  594SOL     OW 1780   0.938   1.091   2.639  0.5849 -0.5278 -0.3344
  594SOL    HW1 1781   0.870   1.015   2.629  0.9847  0.1858 -0.5572
  594SOL    HW2 1782   0.890   1.169   2.684 -2.1483 -0.9424 -1.4264
  595SOL     OW 1783   1.639   0.349   1.025  0.1110  0.4016  0.0082
  595SOL    HW1 1784   1.610   0.353   1.120  1.4103 -0.5280 -0.8982
  595SOL    HW2 1785   1.605   0.429   0.974  0.9622 -2.5689  0.5319
  596SOL     OW 1786   0.280   1.153   0.978  0.3434 -0.1190 -0.1038
  596SOL    HW1 1787   0.373   1.120   0.964 -0.4174  0.3234 -1.6753
  596SOL    HW2 1788   0.212   1.109   0.917  4.0113  1.8012 -1.0927
  597SOL     OW 1789   0.140   2.120   2.817  0.2639  0.3178 -0.5190
  597SOL    HW1 1790   0.049   2.096   2.776 -1.0589  1.9527 -1.0012
  597SOL    HW2 1791   0.138   2.116   2.919 -1.8218  1.2343 -0.9616
  598SOL     OW 1792   2.024   2.066   2.701  0.4074 -0.2801 -0.2192
  598SOL    HW1 1793   1.983   2.143   2.644  2.3368  2.2405  2.0550
  598SOL    HW2 1794   2.121   2.073   2.691 -0.5427  1.1321 -1.2791
  599SOL     OW 1795   1.841   0.471   0.230 -0.1379  0.1177  0.0430
  599SOL    HW1 1796   1.765   0.425   0.279 -0.1500  0.9380  1.9191
  599SOL    HW2 1797   1.872   0.559   0.275 -0.5205  0.7128 -1.6972
  600SOL     OW 1798   0.989   0.195   0.471 -0.0966 -0.0250 -0.1158
  600SOL    HW1 1799   1.087   0.204   0.441  0.3555  0.9164  0.9178
  600SOL    HW2 1800   0.937   0.155   0.395  2.5105  0.2979  0.1578
  601SOL     OW 1801   0.352   0.467   1.204  0.1524 -0.5333 -0.3113
  601SOL    HW1 1802   0.443   0.423   1.208  0.4291  0.1151  0.8842
  601SOL    HW2 1803   0.344   0.553   1.260  0.7263 -0.9181  1.3403
  602SOL     OW 1804   2.973   2.990   0.730  0.3212 -0.3249  0.6681
  602SOL    HW1 1805   2.957   2.910   0.793  1.4656 -2.7113 -0.9014
  602SOL    HW2 1806   2.889   3.022   0.683 -1.2891  1.6968 -1.0373
  603SOL     OW 1807   0.541   2.577   2.514 -0.0300 -0.4206 -0.1719
  603SOL    HW1 1808   0.613   2.513   2.481  2.7158  0.7153  0.1218
  603SOL    HW2 1809   0.451   2.573   2.460 -3.7840  0.0198  0.2792
  604SOL     OW 1810   1.132   2.666   0.010 -0.1085 -0.2123 -0.1128
  604SOL    HW1 1811   1.089   2.625   0.097 -2.6052 -0.4771 -1.4904
  604SOL    HW2 1812   1.174   2.598   3.034 -0.1571 -1.8621  1.0894
  605SOL     OW 1813   1.234   0.953   1.534  0.4035  0.3018  0.4193
  605SOL    HW1 1814   1.292   0.872   1.545  1.1688  2.5089 -4.1029
  605SOL    HW2 1815   1.257   1.021   1.607  1.7746  1.3474 -1.8478
  606SOL     OW 1816   1.309   0.225   2.612  0.3050 -0.6688 -0.3679
  606SOL    HW1 1817   1.228   0.275   2.653 -2.1988  1.9564  2.7811
  606SOL    HW2 1818   1.394   0.278   2.632 -1.1564  0.2249 -1.0269
  607SOL     OW 1819   0.272   1.155   1.254 -0.4250  0.0180 -0.4404
  607SOL    HW1 1820   0.337   1.224   1.289 -0.6082  0.5903  0.7183
  607SOL    HW2 1821   0.283   1.133   1.152  1.0302 -0.5125 -1.4836
  608SOL     OW 1822   2.805   2.137   2.339  0.1586  0.1906 -0.1965
  608SOL    HW1 1823   2.849   2.185   2.263 -0.9069 -2.6382 -0.5279
  608SOL    HW2 1824   2.868   2.098   2.408  0.8680  0.4933 -0.5227
  609SOL     OW 1825   2.220   0.376   0.079 -0.2907  0.5408 -0.2372
  609SOL    HW1 1826   2.288   0.297   0.081  2.4255 -0.0990  2.3534
  609SOL    HW2 1827   2.243   0.459   0.135 -0.3906  0.1935 -0.9371
  610SOL     OW 1828   0.867   2.736   1.217 -0.7950  0.0917  0.0991
  610SOL    HW1 1829   0.823   2.826   1.233  1.4717 -0.2796  1.0927
  610SOL    HW2 1830   0.970   2.738   1.223  2.2583 -1.3881  0.4540
  611SOL     OW 1831   0.739   1.316   0.592 -0.2538 -0.0541  0.5543
  611SOL    HW1 1832   0.648   1.357   0.609  3.1377 -0.7208  0.2248
  611SOL    HW2 1833   0.762   1.319   0.496 -0.5576  1.4025  1.7917
  612SOL     OW 1834   0.900   0.287   2.211  0.3781  0.3140 -0.0409
  612SOL    HW1 1835   0.893   0.232   2.297 -0.6278  3.4415 -2.1851
  612SOL    HW2 1836   0.942   0.379   2.221  0.6283  0.5778  0.2076
  613SOL     OW 1837   2.433   1.349   0.532 -0.2990 -0.1474  0.3987
  613SOL    HW1 1838   2.404   1.271   0.479  2.8282  0.7219  2.0637
  613SOL    HW2 1839   2.392   1.435   0.497  0.4749  1.7402  1.3307
  614SOL     OW 1840   1.693   0.476   1.698 -0.2764  0.0051 -0.6831
  614SOL    HW1 1841   1.614   0.534   1.726  0.6655  0.2545 -0.3020
  614SOL    HW2 1842   1.783   0.522   1.716 -0.6705 -1.9873  1.5074
  615SOL     OW 1843   0.828   1.934   0.951  0.6570  0.1169 -0.1817
  615SOL    HW1 1844   0.851   1.848   1.000  1.3877 -0.2169 -0.8610
  615SOL    HW2 1845   0.856   2.016   1.006 -0.5487  1.5819 -0.3579
  616SOL     OW 1846   1.510   1.096   2.601  0.7090 -0.1594  0.9215
  616SOL    HW1 1847   1.579   1.050   2.546 -2.6435 -1.0823  0.8760
  616SOL    HW2 1848   1.454   1.030   2.649 -0.7744 -1.1317 -0.6283
  617SOL     OW 1849   1.901   2.583   0.445  0.2146  0.1636 -0.1711
  617SOL    HW1 1850   1.862   2.655   0.382 -0.4923  1.4921 -2.2179
  617SOL    HW2 1851   1.998   2.567   0.421 -1.1654  2.0201  0.0951
  618SOL     OW 1852   0.787   1.015   0.025  0.6658  0.0171  0.2028
  618SOL    HW1 1853   0.841   1.101   0.018  3.4965 -1.9185  0.7186
  618SOL    HW2 1854   0.832   0.935   3.065 -1.1559 -1.5207 -1.5297
  619SOL     OW 1855   2.699   1.545   0.561  0.1999  0.4656  0.5424
  619SOL    HW1 1856   2.722   1.562   0.459  0.6113  0.4106 -1.4361
  619SOL    HW2 1857   2.663   1.448   0.577  1.0458 -1.4076  0.3873
  620SOL     OW 1858   2.430   2.859   2.930  0.1792 -0.7382 -0.2840
  620SOL    HW1 1859   2.454   2.762   2.935 -0.6212  2.3025 -0.5238
  620SOL    HW2 1860   2.462   2.900   2.844 -2.0479  0.6375  1.6582
  621SOL     OW 1861   1.980   1.128   0.120 -0.2989 -0.0199  0.0720
  621SOL    HW1 1862   1.998   1.046   0.177 -4.0882  2.5827 -0.4067
  621SOL    HW2 1863   1.922   1.198   0.167  1.3326 -1.9189 -1.1619
  622SOL     OW 1864   1.089   2.343   2.389  0.1419  0.2423 -0.1058
  622SOL    HW1 1865   1.009   2.322   2.445  2.0944  0.3921  1.4380
  622SOL    HW2 1866   1.121   2.262   2.343 -0.4074  0.8089  2.1455
  623SOL     OW 1867   0.609   1.763   0.079 -0.3529  0.2652 -0.2679
  623SOL    HW1 1868   0.657   1.788   3.086 -0.0756 -2.0411  0.9710
  623SOL    HW2 1869   0.510   1.749   0.059 -0.0718 -1.6611 -2.4108
  624SOL     OW 1870   0.239   3.013   2.781 -0.1462 -0.2871  0.5220
  624SOL    HW1 1871   0.241   3.088   2.713  2.6633  3.1316 -1.6598
  624SOL    HW2 1872   0.184   3.035   2.865 -0.7653 -0.7010 -0.3792
  625SOL     OW 1873   0.718   2.003   0.188 -0.4359 -0.2945 -0.5251
  625SOL    HW1 1874   0.694   2.095   0.149 -0.4806  3.4817  0.0150
  625SOL    HW2 1875   0.677   1.924   0.138  0.4812 -1.0170 -2.7527
  626SOL     OW 1876   2.590   0.411   0.005  0.3418 -0.1276  0.0856
  626SOL    HW1 1877   2.627   0.316   3.078 -1.9204 -2.4179 -0.5919
  626SOL    HW2 1878   2.592   0.434   0.106 -0.1310 -0.4566  3.1140
  627SOL     OW 1879   1.347   0.894   2.686  0.1539  0.4333 -0.2582
  627SOL    HW1 1880   1.285   0.970   2.714 -0.0384  2.3537 -0.3279
  627SOL    HW2 1881   1.378   0.833   2.762 -1.9868 -0.1288 -0.1771
  628SOL     OW 1882   0.994   0.716   2.500  0.2117 -0.2606  0.9630
  628SOL    HW1 1883   0.956   0.637   2.447  0.5364 -1.4119 -1.7925
  628SOL    HW2 1884   0.924   0.768   2.553 -1.2406  0.2314  1.1978
  629SOL     OW 1885   0.518   3.016   1.937 -0.1367 -0.1617  0.0562
  629SOL    HW1 1886   0.540   2.931   1.991 -0.2017  0.8227  2.6185
  629SOL    HW2 1887   0.600   3.056   1.892  0.9016  1.3312 -0.7828
  630SOL     OW 1888   2.423   1.005   1.725 -0.3935 -0.3470 -0.3822
  630SOL    HW1 1889   2.407   1.067   1.806  0.2799 -2.9388 -3.5839
  630SOL    HW2 1890   2.331   0.961   1.693  1.6985 -0.0409 -0.3373
  631SOL     OW 1891   2.361   1.134   0.357 -0.6532  0.3439 -0.3119
  631SOL    HW1 1892   2.269   1.103   0.319 -2.7200 -0.9342 -0.4481
  631SOL    HW2 1893   2.431   1.061   0.341  0.3705  1.1469  0.3182
  632SOL     OW 1894   2.332   0.460   1.807  0.1488 -0.1050  0.1771
  632SOL    HW1 1895   2.430   0.443   1.826  2.0161 -1.3845 -1.2790
  632SOL    HW2 1896   2.308   0.403   1.727 -0.4735  3.0588  1.1501
  633SOL     OW 1897   0.798   2.962   0.314 -0.2132  0.2155 -0.4289
  633SOL    HW1 1898   0.720   2.899   0.327 -0.4865 -0.7232 -0.3095
  633SOL    HW2 1899   0.843   2.964   0.412 -1.5268  1.1545  1.8717
  634SOL     OW 1900   1.471   2.899   0.089  0.5171 -0.3180 -0.0168
  634SOL    HW1 1901   1.518   2.981   0.128  0.0604  1.3244  1.3652
  634SOL    HW2 1902   1.536   2.842   0.040  1.7152  1.3687  1.7654
  635SOL     OW 1903   2.833   0.533   0.293  0.3871  0.2479  0.1477
  635SOL    HW1 1904   2.853   0.633   0.285  1.1630  0.1146 -0.3987
  635SOL    HW2 1905   2.733   0.507   0.289  0.7511 -2.0126  1.4740
  636SOL     OW 1906   0.604   1.628   0.862 -0.3500 -0.0021 -0.3108
  636SOL    HW1 1907   0.624   1.726   0.836  1.6219  1.0093  0.3072
  636SOL    HW2 1908   0.689   1.570   0.861  0.4460  2.4193  0.7224
  637SOL     OW 1909   0.215   2.866   0.554 -0.5360 -0.2399  0.3438
  637SOL    HW1 1910   0.313   2.858   0.523 -1.8955  0.7989  1.4406
  637SOL    HW2 1911   0.166   2.781   0.571  0.9437  2.9654 -1.2798
  638SOL     OW 1912   2.941   2.688   0.424 -0.0696 -0.2261  0.4326
  638SOL    HW1 1913   2.974   2.704   0.329 -0.9011 -0.3318 -1.1664
  638SOL    HW2 1914   3.019   2.671   0.486  1.2593 -0.3078 -1.4979
  639SOL     OW 1915   1.198   1.535   0.248 -0.4774  0.2685  0.0082
  639SOL    HW1 1916   1.203   1.479   0.165 -0.4893  0.7489 -1.3890
  639SOL    HW2 1917   1.266   1.616   0.245  0.8382  1.8730  0.2018
  640SOL     OW 1918   1.315   2.350   1.012 -0.3122 -0.1695 -0.0658
  640SOL    HW1 1919   1.408   2.385   1.032  1.4149 -3.8136 -0.9053
  640SOL    HW2 1920   1.292   2.357   0.910 -1.4018  0.6072  1.1391
  641SOL     OW 1921   2.809   2.740   0.782  0.2542  0.4420 -0.3511
  641SOL    HW1 1922   2.756   2.655   0.792 -1.3280  1.8518  2.8719
  641SOL    HW2 1923   2.784   2.792   0.868  1.4034 -1.1839 -2.1315
  642SOL     OW 1924   1.074   2.898   1.771  0.4391  0.5140  0.1989
  642SOL    HW1 1925   0.982   2.917   1.798  1.2684  0.3261  0.2533
  642SOL    HW2 1926   1.136   2.972   1.800 -1.1228 -1.8969  3.0555
  643SOL     OW 1927   0.750   2.194   2.353  0.1941  0.6306 -0.3199
  643SOL    HW1 1928   0.758   2.091   2.353 -0.9953  0.9228  1.8829
  643SOL    HW2 1929   0.812   2.234   2.418  1.0103 -1.0898 -0.8424
  644SOL     OW 1930   0.851   2.963   0.575 -0.0722  0.2247  0.2783
  644SOL    HW1 1931   0.926   2.973   0.638 -1.4447  0.0994 -2.5306
  644SOL    HW2 1932   0.773   2.927   0.631 -0.3395  2.7048 -1.0067
  645SOL     OW 1933   1.305   1.587   2.152 -0.0576 -0.2329 -0.3516
  645SOL    HW1 1934   1.240   1.598   2.074 -1.0120  1.5395 -1.4245
  645SOL    HW2 1935   1.261   1.619   2.239 -0.7784 -0.1868  0.3711
  646SOL     OW 1936   0.623   1.027   0.521  0.1907 -0.3500 -0.5923
  646SOL    HW1 1937   0.688   0.952   0.540 -0.9277 -0.9407  1.6132
  646SOL    HW2 1938   0.668   1.110   0.562 -0.3654 -0.6837 -1.1117
  647SOL     OW 1939   1.451   0.070   0.886 -0.1470 -0.2127  0.8204
  647SOL    HW1 1940   1.421   0.117   0.972  0.2217  1.3437 -0.9364
  647SOL    HW2 1941   1.529   0.117   0.842 -2.4096 -1.2013  0.6494
  648SOL     OW 1942   2.517   2.561   1.358 -0.0709  0.0149 -0.5692
  648SOL    HW1 1943   2.500   2.606   1.447 -1.3430  3.4784 -1.5595
  648SOL    HW2 1944   2.535   2.462   1.371 -1.5452 -0.5669  2.2862
  649SOL     OW 1945   0.736   2.250   0.069  0.5427  0.0699 -0.4723
  649SOL    HW1 1946   0.674   2.318   0.110 -1.0739 -0.2281 -0.6252
  649SOL    HW2 1947   0.726   2.242   3.057  1.3081 -0.6472  0.9157
  650SOL     OW 1948   2.869   2.031   1.575  0.5354  0.1577 -0.2565
  650SOL    HW1 1949   2.901   2.127   1.561  0.6837  1.0196  1.3128
  650SOL    HW2 1950   2.763   2.028   1.564 -0.4928  1.7241  1.7133
  651SOL     OW 1951   0.079   3.010   3.016 -0.4535 -0.0237  0.0278
  651SOL    HW1 1952   3.083   2.963   2.980 -2.5485 -2.6112 -0.1554
  651SOL    HW2 1953   0.051   0.016   3.048 -0.2240  3.0366 -0.3495
  652SOL     OW 1954   2.201   1.962   0.115  0.0709 -0.5240  0.1177
  652SOL    HW1 1955   2.163   2.027   0.042 -1.2832  2.2764 -0.8848
  652SOL    HW2 1956   2.227   2.017   0.200 -0.7763  0.2750  1.2686
  653SOL     OW 1957   0.264   0.257   0.996 -0.0630  0.0987 -0.5741
  653SOL    HW1 1958   0.364   0.263   1.004 -0.4929 -1.6037  0.9734
  653SOL    HW2 1959   0.240   0.166   1.033 -2.8418 -1.4279  2.0969
  654SOL     OW 1960   1.257   2.960   0.228  0.3790 -0.2175  0.0118
  654SOL    HW1 1961   1.271   2.924   0.324 -2.6782 -1.0635  2.6404
  654SOL    HW2 1962   1.335   2.929   0.169 -0.2181 -0.8224 -0.6681
  655SOL     OW 1963   0.730   2.625   1.007 -0.1911 -0.7624 -0.1245
  655SOL    HW1 1964   0.734   2.527   1.028  0.6659  0.4978 -1.0225
  655SOL    HW2 1965   0.777   2.688   1.073 -2.5278  1.0922 -1.6803
  656SOL     OW 1966   0.633   2.774   2.028  0.0837  0.1768  0.2323
  656SOL    HW1 1967   0.577   2.734   1.952  0.8432 -1.1063  1.4310
  656SOL    HW2 1968   0.690   2.696   2.060  0.0262  2.0758 -0.7942
  657SOL     OW 1969   1.826   0.763   2.317 -0.7981 -0.1454  0.1395
  657SOL    HW1 1970   1.800   0.752   2.217  0.8481  1.4802 -0.9442
  657SOL    HW2 1971   1.848   0.676   2.357 -1.0094  1.3476 -0.0626
  658SOL     OW 1972   2.356   1.797   1.085  0.1478  0.3512  0.1213
  658SOL    HW1 1973   2.369   1.851   1.170 -1.3984  0.6618  2.7566
  658SOL    HW2 1974   2.359   1.695   1.095 -0.3991  0.6658  0.4567
  659SOL     OW 1975   2.763   2.699   0.051 -0.1558 -0.2457  0.6445
  659SOL    HW1 1976   2.845   2.709   0.107  1.4082 -1.5550 -2.4348
  659SOL    HW2 1977   2.676   2.705   0.107 -0.1670 -0.9896  2.3951
  660SOL     OW 1978   1.269   0.742   0.053  0.3181 -0.2041 -0.4237
  660SOL    HW1 1979   1.337   0.815   0.071  1.2357  0.0017 -0.1971
  660SOL    HW2 1980   1.193   0.754   0.118  2.4589  0.9908 -0.8009
  661SOL     OW 1981   2.505   2.725   0.938 -0.1840 -0.3410 -0.0304
  661SOL    HW1 1982   2.503   2.693   0.842  0.0575  1.0671 -1.3301
  661SOL    HW2 1983   2.553   2.655   0.993  1.4995 -0.7668 -0.1242
  662SOL     OW 1984   0.670   0.394   0.472  0.5553  0.2760 -0.1986
  662SOL    HW1 1985   0.664   0.306   0.518  0.5090  0.4258 -1.2203
  662SOL    HW2 1986   0.572   0.415   0.452 -2.0693  0.6201  0.5555
  663SOL     OW 1987   1.253   2.455   2.593  0.0086 -0.0407 -0.1323
  663SOL    HW1 1988   1.339   2.505   2.585 -1.1520 -1.2459 -0.7801
  663SOL    HW2 1989   1.218   2.437   2.499  0.2077  1.4905 -0.0513
  664SOL     OW 1990   0.833   2.118   1.279  0.6807  0.4443  0.4163
  664SOL    HW1 1991   0.880   2.177   1.349  0.1569  0.1285 -1.0591
  664SOL    HW2 1992   0.862   2.145   1.185  0.1983 -0.0279  2.0403
  665SOL     OW 1993   1.441   1.845   1.692  0.0304  0.0581  0.3829
  665SOL    HW1 1994   1.425   1.866   1.792  1.7696 -0.3287  0.2864
  665SOL    HW2 1995   1.392   1.758   1.673 -0.9229 -2.1525  2.0131
  666SOL     OW 1996   0.389   2.287   0.062 -0.0422 -0.0324  0.2329
  666SOL    HW1 1997   0.312   2.336   0.020  3.4039  0.3939  1.7519
  666SOL    HW2 1998   0.358   2.203   0.102 -0.3152  0.7785 -0.1857
  667SOL     OW 1999   1.881   1.428   1.309 -0.2234  0.3466 -0.2196
  667SOL    HW1 2000   1.948   1.505   1.308 -0.4672 -1.4361  0.3884
  667SOL    HW2 2001   1.855   1.401   1.406  2.1294 -0.9213  0.4620
  668SOL     OW 2002   0.314   0.105   1.969 -0.2772  0.1659  0.5747
  668SOL    HW1 2003   0.351   0.197   1.958 -0.5757 -0.9734  0.8643
  668SOL    HW2 2004   0.391   0.037   1.955 -0.3466 -0.0191 -1.6453
  669SOL     OW 2005   1.989   2.305   2.327  0.5570  0.7155 -0.5687
  669SOL    HW1 2006   1.908   2.247   2.306  2.7850 -0.6749  1.3828
  669SOL    HW2 2007   1.975   2.406   2.315  2.8887  0.0392 -1.7672
  670SOL     OW 2008   2.192   2.116   0.362  0.3613  0.1929 -0.2425
  670SOL    HW1 2009   2.132   2.034   0.360 -0.6786  0.1749  0.3969
  670SOL    HW2 2010   2.226   2.140   0.457  1.4106 -1.5553 -0.2028
  671SOL     OW 2011   0.984   1.136   1.320 -0.3616 -0.2835  0.4165
  671SOL    HW1 2012   0.998   1.118   1.220  3.3000 -1.7588 -3.0941
  671SOL    HW2 2013   0.964   1.048   1.366  2.5100  1.4698 -1.9292
  672SOL     OW 2014   2.627   1.597   2.155 -0.0459  0.3884  0.0569
  672SOL    HW1 2015   2.705   1.605   2.219 -0.3625  0.5834 -1.8274
  672SOL    HW2 2016   2.551   1.539   2.196 -0.9117 -0.6155  2.8271
  673SOL     OW 2017   2.849   1.610   2.304  0.0731 -0.6665  0.1535
  673SOL    HW1 2018   2.832   1.624   2.404 -0.8205 -0.3874  2.9470
  673SOL    HW2 2019   2.936   1.560   2.292 -0.8560  0.9213  1.1315
  674SOL     OW 2020   0.939   2.779   2.252 -0.3501 -1.0977  0.0265
  674SOL    HW1 2021   0.920   2.876   2.278 -2.0133 -1.3477  0.9796
  674SOL    HW2 2022   0.990   2.726   2.325  2.7439  0.0667 -2.3579
  675SOL     OW 2023   0.747   0.917   1.597 -0.1389 -0.1983 -0.0309
  675SOL    HW1 2024   0.824   0.905   1.526  0.7362 -2.1882 -0.8992
  675SOL    HW2 2025   0.779   0.939   1.689 -0.7285 -0.4973 -0.4530
  676SOL     OW 2026   1.840   0.628   0.453 -0.0684 -0.1285 -0.0076
  676SOL    HW1 2027   1.795   0.561   0.511 -0.3350  0.5255  1.8078
  676SOL    HW2 2028   1.890   0.704   0.508 -2.4916 -1.7951 -0.9894
  677SOL     OW 2029   2.863   1.771   2.789 -0.1193  0.1039 -0.1166
  677SOL    HW1 2030   2.806   1.688   2.810  0.1787  1.5704 -0.1312
  677SOL    HW2 2031   2.963   1.763   2.816 -1.3970 -1.7276  2.4613
  678SOL     OW 2032   2.990   3.072   1.058  0.4705  0.1913  0.8243
  678SOL    HW1 2033   3.043   0.073   1.069  0.7725 -1.0547 -1.0307
  678SOL    HW2 2034   3.057   2.992   1.080  0.7907 -0.0785 -0.7709
  679SOL     OW 2035   2.260   0.087   0.324 -0.1940  0.4584  1.1465
  679SOL    HW1 2036   2.303   0.093   0.231  0.7965 -1.5454  1.8596
  679SOL    HW2 2037   2.211   0.176   0.336  0.9688  0.1407 -2.8485
  680SOL     OW 2038   0.379   2.077   2.219  0.3252  0.3743 -0.0084
  680SOL    HW1 2039   0.382   1.979   2.191 -0.6562  0.1217  1.5225
  680SOL    HW2 2040   0.418   2.132   2.140  0.2559 -0.0506 -0.8606
  681SOL     OW 2041   3.057   1.700   1.181  0.3278 -0.6907 -0.2153
  681SOL    HW1 2042   0.041   1.708   1.106 -1.4055 -0.9544  0.1091
  681SOL    HW2 2043   3.060   1.607   1.222 -3.1205 -0.3254  2.5446
  682SOL     OW 2044   0.460   2.288   1.585  0.3587  0.1698 -0.0056
  682SOL    HW1 2045   0.402   2.202   1.604 -2.3750 -0.0747 -2.1120
  682SOL    HW2 2046   0.531   2.272   1.512  1.9309  0.2309  1.2671
  683SOL     OW 2047   0.026   2.018   1.748  0.0303  0.3591  0.2417
  683SOL    HW1 2048   3.027   2.041   1.696 -3.8674 -0.8424 -1.1128
  683SOL    HW2 2049   0.037   1.913   1.752 -4.3276 -2.1576 -2.2450
  684SOL     OW 2050   2.480   1.673   2.746  0.6471 -0.0465 -0.0620
  684SOL    HW1 2051   2.567   1.679   2.792 -2.1580  1.1720  1.7932
  684SOL    HW2 2052   2.441   1.581   2.751  0.8957  0.8391  1.0504
  685SOL     OW 2053   1.389   1.232   0.345  0.1809  0.7642  0.2441
  685SOL    HW1 2054   1.383   1.158   0.419  1.3249 -1.7540  0.9530
  685SOL    HW2 2055   1.476   1.284   0.347  2.8843 -0.3339  0.7055
  686SOL     OW 2056   0.396   0.168   0.715 -0.4565  0.0797 -0.4111
  686SOL    HW1 2057   0.430   0.261   0.741  0.2771 -0.4282 -1.2391
  686SOL    HW2 2058   0.307   0.156   0.764 -1.4877 -1.1390 -1.9078
  687SOL     OW 2059   1.103   1.426   2.490 -0.2897 -0.7697 -0.1333
  687SOL    HW1 2060   1.131   1.415   2.585 -0.8778  1.5492 -0.3537
  687SOL    HW2 2061   1.046   1.348   2.454 -2.5665  0.1078 -1.2293
  688SOL     OW 2062   1.304   1.617   1.603  0.1394 -0.0118 -0.1491
  688SOL    HW1 2063   1.317   1.636   1.504 -0.7056 -1.2536 -2.8128
  688SOL    HW2 2064   1.212   1.653   1.637  0.1902 -1.5376  3.8383
  689SOL     OW 2065   2.302   0.230   1.322  0.1355  0.0259 -0.3217
  689SOL    HW1 2066   2.313   0.179   1.231  0.3830 -0.9820 -1.9298
  689SOL    HW2 2067   2.207   0.265   1.338  1.5776 -1.0402  0.9720
  690SOL     OW 2068   2.908   1.381   1.035 -0.1110 -0.0432 -0.3575
  690SOL    HW1 2069   2.955   1.321   1.105  0.9536 -0.2552  0.2771
  690SOL    HW2 2070   2.976   1.413   0.963  2.9259 -1.1731  1.9748
  691SOL     OW 2071   0.406   2.309   1.126  0.3529  0.1006 -0.0319
  691SOL    HW1 2072   0.485   2.366   1.138 -0.4864 -0.1509  0.9153
  691SOL    HW2 2073   0.431   2.208   1.119  1.2048 -0.4240  0.2515
  692SOL     OW 2074   2.297   0.275   1.610  0.2181  0.4036  0.1926
  692SOL    HW1 2075   2.281   0.259   1.511 -1.1333 -1.7631 -1.3243
  692SOL    HW2 2076   2.222   0.231   1.655  4.0752  1.8939 -2.0927
  693SOL     OW 2077   0.277   1.780   2.351 -0.3475 -0.1433  0.2225
  693SOL    HW1 2078   0.259   1.680   2.373 -0.6174 -0.7598 -3.0905
  693SOL    HW2 2079   0.200   1.811   2.285 -1.4815  1.7963 -0.6687
  694SOL     OW 2080   1.802   1.392   1.591 -0.3420 -0.0217  0.0121
  694SOL    HW1 2081   1.709   1.351   1.600  2.4568  0.0297  0.1181
  694SOL    HW2 2082   1.871   1.343   1.652  0.2355  0.9208  0.3733
  695SOL     OW 2083   0.559   0.839   1.209  0.0544  0.0964 -0.1063
  695SOL    HW1 2084   0.624   0.911   1.172  0.2569 -2.6122  0.9548
  695SOL    HW2 2085   0.612   0.786   1.276 -0.0371  1.0971 -0.4166
  696SOL     OW 2086   1.723   0.053   0.799 -0.1043  0.3228  0.0542
  696SOL    HW1 2087   1.771   0.073   0.887  1.2916 -1.7070  2.2487
  696SOL    HW2 2088   1.748   3.050   0.762 -3.0443  0.9078 -1.0824
  697SOL     OW 2089   1.018   0.392   1.344  0.2903  0.1296 -0.1090
  697SOL    HW1 2090   1.034   0.386   1.442  1.7209 -1.9867 -0.9785
  697SOL    HW2 2091   1.044   0.311   1.289  1.3036  1.1466  1.9233
  698SOL     OW 2092   1.453   1.079   2.163  0.5241 -0.0105 -0.3553
  698SOL    HW1 2093   1.400   1.092   2.249 -1.0588  3.9851 -0.5172
  698SOL    HW2 2094   1.552   1.113   2.164  1.1869 -0.6106 -0.9916
  699SOL     OW 2095   1.884   0.654   1.329  0.1420  0.3585 -0.2601
  699SOL    HW1 2096   1.806   0.666   1.263 -0.3853 -0.7652  0.6966
  699SOL    HW2 2097   1.974   0.628   1.288  0.6315 -1.5978 -1.2390
  700SOL     OW 2098   1.026   2.577   0.242 -0.1875 -0.0487 -0.4519
  700SOL    HW1 2099   1.004   2.611   0.336 -0.6325  1.1359  4.7446
  700SOL    HW2 2100   1.007   2.477   0.240 -0.9464 -2.5413  2.7185
  701SOL     OW 2101   2.353   2.366   2.808  0.0062 -0.3821  0.6981
  701SOL    HW1 2102   2.312   2.456   2.786  3.1397  3.4852 -0.9272
  701SOL    HW2 2103   2.379   2.357   2.906  1.6704  2.5998  1.7840
  702SOL     OW 2104   0.542   0.226   1.053 -0.5384 -0.8053 -0.1252
  702SOL    HW1 2105   0.609   0.258   1.126  1.9340 -3.3332  0.9338
  702SOL    HW2 2106   0.592   0.219   0.962  2.3261  2.2209 -1.5853
  703SOL     OW 2107   2.306   0.035   2.539  0.5424  0.0588 -0.0451
  703SOL    HW1 2108   2.211   3.080   2.534 -2.4634 -1.8210  0.9171
  703SOL    HW2 2109   2.372   0.010   2.465 -0.9775  0.6978  1.0245
  704SOL     OW 2110   2.848   2.438   0.387  0.0435 -0.2117  0.5490
  704SOL    HW1 2111   2.895   2.524   0.410  1.5255 -3.0517 -1.7627
  704SOL    HW2 2112   2.922   2.369   0.395  1.3590  0.9463 -3.1885
  705SOL     OW 2113   2.992   2.803   2.136 -0.2373 -0.3721 -0.7650
  705SOL    HW1 2114   3.041   2.763   2.216  0.0426 -1.0807  0.9606
  705SOL    HW2 2115   2.917   2.739   2.107 -3.1805 -2.5641 -1.7536
  706SOL     OW 2116   2.137   2.816   1.351  0.0752 -0.9199  0.0834
  706SOL    HW1 2117   2.112   2.747   1.415 -0.2015  1.5355 -2.8377
  706SOL    HW2 2118   2.226   2.794   1.307 -1.6041 -0.6063 -0.0075
  707SOL     OW 2119   0.789   2.581   2.121 -0.5969  0.1623  0.4078
  707SOL    HW1 2120   0.838   2.566   2.034  0.7802  2.8594 -0.8201
  707SOL    HW2 2121   0.840   2.652   2.180  0.9622  1.5259  0.7208
  708SOL     OW 2122   0.063   2.363   1.735 -0.2768 -0.4442  0.1131
  708SOL    HW1 2123   0.121   2.365   1.648 -0.2702 -1.6585 -0.6618
  708SOL    HW2 2124   0.127   2.365   1.817  0.6039  2.8235  0.4283
  709SOL     OW 2125   1.833   0.237   1.717  0.0403  0.6079  0.7368
  709SOL    HW1 2126   1.779   0.323   1.725  1.9179 -1.3185 -0.1499
  709SOL    HW2 2127   1.811   0.166   1.788 -1.1949 -2.6897  1.4289
  710SOL     OW 2128   1.515   0.384   2.675  0.6197  0.0616 -0.5261
  710SOL    HW1 2129   1.522   0.438   2.761 -0.0659 -2.8964  2.0563
  710SOL    HW2 2130   1.500   0.440   2.591  1.9126  1.2689  0.3400
  711SOL     OW 2131   0.915   1.714   2.579 -0.5419  0.1635 -0.2029
  711SOL    HW1 2132   0.881   1.798   2.627  0.1292 -2.0005 -1.4142
  711SOL    HW2 2133   1.015   1.716   2.572 -1.3975 -3.3795 -0.5319
  712SOL     OW 2134   0.897   2.210   2.620  0.8229 -0.5815 -0.3615
  712SOL    HW1 2135   0.964   2.254   2.683 -2.1019 -2.3117 -1.0316
  712SOL    HW2 2136   0.876   2.113   2.650 -1.9790 -3.0873  2.7654
  713SOL     OW 2137   1.864   1.100   2.643  0.2173 -0.1090 -0.0003
  713SOL    HW1 2138   1.862   1.050   2.732 -3.1485 -1.0613 -0.3943
  713SOL    HW2 2139   1.813   1.189   2.648  0.6156 -2.8999  2.0962
  714SOL     OW 2140   1.124   1.599   1.965 -0.1043 -0.1324 -0.5462
  714SOL    HW1 2141   1.066   1.517   1.973 -0.2020  3.3822  0.6043
  714SOL    HW2 2142   1.075   1.684   1.931  0.1810  0.7362 -2.5796
  715SOL     OW 2143   1.923   0.219   2.890 -0.2491  0.1339  0.5385
  715SOL    HW1 2144   1.981   0.136   2.871  0.9489 -0.4367  3.4501
  715SOL    HW2 2145   1.867   0.249   2.812  0.5910  1.1554 -0.3570
  716SOL     OW 2146   2.943   2.246   1.400  0.7110  0.2170  0.2555
  716SOL    HW1 2147   2.887   2.313   1.450  0.3249  2.6208 -0.8849
  716SOL    HW2 2148   2.880   2.191   1.340 -0.5575  0.4907 -0.2936
  717SOL     OW 2149   2.681   1.283   0.643  0.1052  0.6013  0.5650
  717SOL    HW1 2150   2.635   1.298   0.729 -1.0609  1.3675 -1.4278
  717SOL    HW2 2151   2.607   1.276   0.574  1.7100  0.1932  0.1825
  718SOL     OW 2152   1.074   1.986   2.022  0.0251  0.1081 -0.0539
  718SOL    HW1 2153   1.047   2.085   2.005  2.6839 -0.6749  0.0085
  718SOL    HW2 2154   1.073   1.961   2.125  0.9229 -0.3412  3.9852
  719SOL     OW 2155   2.240   0.665   2.811  0.1539  0.2758 -0.2229
  719SOL    HW1 2156   2.181   0.583   2.833  4.3145 -0.4783 -2.2882
  719SOL    HW2 2157   2.332   0.652   2.846 -2.8714  0.6180 -0.2714
  720SOL     OW 2158   0.753   0.383   1.230 -0.4019 -0.7308  0.0307
  720SOL    HW1 2159   0.684   0.419   1.297 -0.7428 -0.9543  0.7247
  720SOL    HW2 2160   0.833   0.340   1.278 -2.0487 -0.6451 -0.4930
  721SOL     OW 2161   2.563   0.939   0.426  0.4727 -0.0345  0.3814
  721SOL    HW1 2162   2.640   1.005   0.418 -0.1785 -0.5273 -0.9902
  721SOL    HW2 2163   2.596   0.855   0.479 -0.5760 -3.6670  1.0989
  722SOL     OW 2164   0.004   2.922   2.642  0.2739 -0.2064  0.4288
  722SOL    HW1 2165   3.012   2.946   2.698  0.7991  1.3946 -0.2491
  722SOL    HW2 2166   0.089   2.946   2.689 -2.2598 -0.9783 -0.5309
  723SOL     OW 2167   1.646   0.313   0.363 -0.1254 -0.1252 -0.5069
  723SOL    HW1 2168   1.655   0.266   0.453  0.9419 -1.7009  0.5258
  723SOL    HW2 2169   1.547   0.338   0.341  0.3941 -1.5103 -0.0673
  724SOL     OW 2170   0.774   1.487   2.185  0.4497  0.3345 -0.3121
  724SOL    HW1 2171   0.831   1.420   2.243  1.6270 -2.4009  2.8803
  724SOL    HW2 2172   0.748   1.570   2.237  0.7747  0.2223 -1.7865
  725SOL     OW 2173   1.517   2.906   0.956 -0.0828  0.2083 -0.2156
  725SOL    HW1 2174   1.598   2.901   1.020 -0.7400  2.0529 -0.4416
  725SOL    HW2 2175   1.499   3.000   0.920 -1.0313 -0.4636 -3.8903
  726SOL     OW 2176   2.272   2.880   0.112 -0.0970 -0.7785  0.4553
  726SOL    HW1 2177   2.291   2.789   0.157  1.0086 -0.3618  0.9790
  726SOL    HW2 2178   2.354   2.909   0.057  1.5432 -0.5936 -0.1820
  727SOL     OW 2179   1.455   1.746   0.814 -0.0065  0.5247 -0.2858
  727SOL    HW1 2180   1.553   1.731   0.784 -0.4461  0.0875  1.8420
  727SOL    HW2 2181   1.386   1.732   0.743  2.4628  0.1688  1.9537
  728SOL     OW 2182   2.172   2.441   1.922  0.1589  0.2014 -0.0151
  728SOL    HW1 2183   2.096   2.481   1.862 -5.0505 -0.1794  3.2368
  728SOL    HW2 2184   2.263   2.447   1.875 -0.0540  1.7429 -1.6563
  729SOL     OW 2185   1.950   1.875   1.403  0.1002  0.1326  0.2176
  729SOL    HW1 2186   1.956   1.776   1.438  1.7854 -0.4821  1.8882
  729SOL    HW2 2187   1.935   1.863   1.302 -0.3065 -0.4547  0.4356
  730SOL     OW 2188   1.433   0.941   0.079 -0.3966  0.4447  0.0965
  730SOL    HW1 2189   1.391   0.986   0.161  1.3090 -0.3543  1.1440
  730SOL    HW2 2190   1.527   0.974   0.071  1.8508  0.2481  1.8427
  731SOL     OW 2191   0.578   0.025   1.240  0.2036 -0.1890 -0.0083
  731SOL    HW1 2192   0.526   3.061   1.316  0.0576 -0.2593  0.2884
  731SOL    HW2 2193   0.510   0.079   1.187 -0.8469  0.1129  0.1952
  732SOL     OW 2194   1.350   0.299   0.720  0.2068  0.2699  0.4114
  732SOL    HW1 2195   1.333   0.365   0.647  3.7836 -2.5625  0.6474
  732SOL    HW2 2196   1.272   0.237   0.739 -0.3814 -0.5531 -0.6968
  733SOL     OW 2197   0.870   1.418   1.173 -0.3456 -0.3851  0.0237
  733SOL    HW1 2198   0.778   1.454   1.149  3.7621 -1.2821  2.3016
  733SOL    HW2 2199   0.880   1.316   1.163  0.8261 -0.2089  0.3099
  734SOL     OW 2200   2.726   2.699   2.841  0.2857  0.1780 -0.3224
  734SOL    HW1 2201   2.706   2.656   2.931  1.4235 -2.7638 -0.3939
  734SOL    HW2 2202   2.655   2.669   2.769 -2.4144 -1.9022 -1.2287
  735SOL     OW 2203   1.141   2.719   1.248  1.0441 -0.0416  0.0995
  735SOL    HW1 2204   1.183   2.759   1.333 -3.5675 -2.1695  1.3548
  735SOL    HW2 2205   1.207   2.742   1.172  0.4726  0.4038  2.0386
  736SOL     OW 2206   1.831   2.153   0.369  0.0245  0.0190  0.1885
  736SOL    HW1 2207   1.790   2.245   0.366  2.5351 -0.7389  0.1710
  736SOL    HW2 2208   1.829   2.103   0.281  0.6296  0.9492 -1.4258
  737SOL     OW 2209   2.934   1.819   1.403 -0.2414 -0.5300  0.2279
  737SOL    HW1 2210   3.009   1.804   1.331  0.5691  0.1204 -1.1111
  737SOL    HW2 2211   2.966   1.867   1.487 -0.5035  2.7512  0.2144
  738SOL     OW 2212   1.925   2.309   2.599  0.0261 -0.1637  0.5133
  738SOL    HW1 2213   1.917   2.407   2.630 -0.7108 -0.8521 -0.4027
  738SOL    HW2 2214   1.953   2.304   2.497 -0.4922 -2.7786 -1.5693
  739SOL     OW 2215   1.391   1.806   2.463  0.5763  0.0368 -0.4154
  739SOL    HW1 2216   1.410   1.904   2.445  0.1203  0.8545  0.4989
  739SOL    HW2 2217   1.398   1.789   2.564 -0.1365 -1.4204 -3.9879
  740SOL     OW 2218   1.269   2.840   1.049 -0.5348  0.1095  0.4434
  740SOL    HW1 2219   1.367   2.861   1.024  2.6067  1.4466 -0.1935
  740SOL    HW2 2220   1.219   2.796   0.970 -0.1922  1.6753 -0.6174
  741SOL     OW 2221   0.397   0.988   0.381 -0.6367 -0.0628  0.6808
  741SOL    HW1 2222   0.346   1.059   0.325 -1.9559 -0.2083  1.3187
  741SOL    HW2 2223   0.487   1.026   0.420  3.4612 -0.4284 -1.3703
  742SOL     OW 2224   1.169   1.671   2.377 -0.1665  0.4381 -0.3846
  742SOL    HW1 2225   1.148   1.589   2.435 -1.0503  2.9046 -0.0430
  742SOL    HW2 2226   1.258   1.717   2.401 -0.2146 -0.1917 -1.6314
  743SOL     OW 2227   0.820   0.731   2.130  0.3780 -0.2317  0.5739
  743SOL    HW1 2228   0.740   0.733   2.067  1.0980  1.4013 -1.6821
  743SOL    HW2 2229   0.889   0.800   2.104  0.4520 -1.6014  0.1823
  744SOL     OW 2230   2.169   3.070   1.472  0.1548  0.3156  0.5289
  744SOL    HW1 2231   2.139   2.982   1.430  0.7165 -1.3779  1.7989
  744SOL    HW2 2232   2.246   0.021   1.412  0.5813 -0.6229 -3.2568
  745SOL     OW 2233   2.091   1.608   1.311 -0.8235  0.5629 -0.1179
  745SOL    HW1 2234   2.150   1.670   1.365 -1.0803 -1.8638 -2.4263
  745SOL    HW2 2235   2.156   1.545   1.259 -0.4234 -1.3112  0.2019
  746SOL     OW 2236   1.786   1.038   0.723  0.4475  0.1635 -0.5958
  746SOL    HW1 2237   1.781   1.092   0.635 -0.1619  1.3788  0.1418
  746SOL    HW2 2238   1.711   0.965   0.729  0.8861  1.0206 -0.5149
  747SOL     OW 2239   2.275   1.612   0.467  0.0504  0.0303 -0.3527
  747SOL    HW1 2240   2.331   1.680   0.516 -1.4203  0.9436  0.8706
  747SOL    HW2 2241   2.182   1.613   0.510 -3.7559  2.7746  2.3306
  748SOL     OW 2242   0.465   1.820   0.373  0.2008 -0.5622  0.1035
  748SOL    HW1 2243   0.389   1.795   0.308 -0.3513  0.6639 -1.3333
  748SOL    HW2 2244   0.506   1.747   0.431 -1.5875  2.2691 -3.0535
  749SOL     OW 2245   2.986   2.391   2.580  0.6237  0.2127 -0.1135
  749SOL    HW1 2246   2.912   2.418   2.519  1.1612  1.3235  1.0526
  749SOL    HW2 2247   3.009   2.461   2.650 -0.9343 -0.1104  1.5957
  750SOL     OW 2248   2.002   0.830   0.619  0.5710 -0.9197  0.1390
  750SOL    HW1 2249   2.090   0.781   0.602  1.0497 -1.6986 -0.4023
  750SOL    HW2 2250   2.016   0.899   0.694 -1.4591  0.3858  0.8277
  751SOL     OW 2251   2.704   0.171   3.064 -0.1213 -0.2492  0.6738
  751SOL    HW1 2252   2.713   0.111   2.975  1.9680 -3.6359 -1.6986
  751SOL    HW2 2253   2.699   0.115   0.058  0.3885  1.3418 -1.2027
  752SOL     OW 2254   2.494   2.707   0.643 -0.6349 -0.1203  0.6074
  752SOL    HW1 2255   2.526   2.805   0.646  2.9592  1.1546 -0.6754
  752SOL    HW2 2256   2.556   2.663   0.570  5.1632 -0.8583 -3.1208
  753SOL     OW 2257   1.721   1.150   2.237  0.0265 -0.0361  0.5115
  753SOL    HW1 2258   1.710   1.096   2.325 -0.0336  0.4138 -1.2912
  753SOL    HW2 2259   1.778   1.233   2.256 -0.4849  0.1726 -0.0676
  754SOL     OW 2260   1.854   2.217   1.972 -0.4423 -0.0067 -0.6503
  754SOL    HW1 2261   1.907   2.208   1.885  1.0040  2.4047 -1.0544
  754SOL    HW2 2262   1.862   2.132   2.026  0.5538 -0.6346 -2.5250
  755SOL     OW 2263   2.492   0.977   0.884  0.4488 -0.3275  0.0667
  755SOL    HW1 2264   2.584   0.942   0.888 -0.6530  0.6080 -1.1667
  755SOL    HW2 2265   2.486   1.079   0.887  0.3871  2.2753 -2.5040
  756SOL     OW 2266   0.950   1.242   3.056 -0.3734 -0.8238  0.4443
  756SOL    HW1 2267   0.947   1.337   0.004  1.7180 -2.2740  0.6972
  756SOL    HW2 2268   0.880   1.235   2.982 -0.2205 -0.1072  1.0598
  757SOL     OW 2269   1.861   2.584   1.158 -0.0554 -0.1091 -0.0199
  757SOL    HW1 2270   1.953   2.551   1.199  1.6049 -0.9627  1.0288
  757SOL    HW2 2271   1.846   2.522   1.075  3.0069  0.3342 -0.6434
  758SOL     OW 2272   1.154   2.056   1.328  0.3596  0.4189  0.6395
  758SOL    HW1 2273   1.136   2.145   1.280 -1.1193  1.4243 -1.9665
  758SOL    HW2 2274   1.159   2.070   1.428  1.9527  2.6229 -1.6714
  759SOL     OW 2275   2.654   1.294   1.127  0.2640 -0.3681 -0.2266
  759SOL    HW1 2276   2.624   1.377   1.181 -0.2663 -2.1422  0.9945
  759SOL    HW2 2277   2.739   1.320   1.074 -0.3712  1.2417 -0.0448
  760SOL     OW 2278   2.005   1.085   1.600  0.2953 -0.1350  0.5489
  760SOL    HW1 2279   2.060   1.087   1.515 -2.3811  0.4671  1.0055
  760SOL    HW2 2280   1.904   1.093   1.581 -3.4008  1.3748  2.7671
  761SOL     OW 2281   2.037   3.010   0.113  0.3133  0.3190 -0.0513
  761SOL    HW1 2282   2.038   0.020   0.132  0.9872 -2.4271  1.4383
  761SOL    HW2 2283   2.131   2.971   0.127 -2.6004  0.9632  2.1460
  762SOL     OW 2284   1.939   1.767   2.662  0.0917 -0.3023  0.6302
  762SOL    HW1 2285   1.875   1.839   2.631 -0.8212  1.8161 -0.7043
  762SOL    HW2 2286   2.036   1.799   2.685  3.0989 -0.1210 -1.2595
  763SOL     OW 2287   0.637   1.470   1.505  0.0887  0.6320 -0.1222
  763SOL    HW1 2288   0.721   1.413   1.531 -0.4977  1.3143  0.5418
  763SOL    HW2 2289   0.557   1.468   1.570 -1.9671 -2.7698 -1.0219
  764SOL     OW 2290   3.035   2.376   3.069 -0.3906  0.2189 -0.6848
  764SOL    HW1 2291   2.976   2.340   2.997  2.0290 -0.8725  1.8297
  764SOL    HW2 2292   0.003   2.449   3.026  1.5284 -0.5035 -0.6455
  765SOL     OW 2293   0.656   0.230   1.449  0.8672 -0.2420  0.1443
  765SOL    HW1 2294   0.604   0.171   1.383 -1.0852 -1.3400  0.7643
  765SOL    HW2 2295   0.722   0.172   1.496  1.7441 -0.6695 -1.9410
  766SOL     OW 2296   0.048   2.113   1.993 -0.2873 -0.4928  0.8252
  766SOL    HW1 2297   0.116   2.186   1.980 -1.2047 -0.9525 -0.1099
  766SOL    HW2 2298   0.013   2.091   1.900  1.1657 -2.4108 -1.2895
  767SOL     OW 2299   2.605   1.133   1.979  0.4379 -0.1530  0.2148
  767SOL    HW1 2300   2.521   1.185   1.951  2.3198  2.8089 -0.2701
  767SOL    HW2 2301   2.667   1.105   1.899  1.5937 -0.9178  0.1609
  768SOL     OW 2302   0.829   0.504   2.641 -0.2579 -0.0116 -0.3902
  768SOL    HW1 2303   0.783   0.491   2.732  0.2776 -1.5655  1.8242
  768SOL    HW2 2304   0.931   0.483   2.645  0.4540  0.1430 -1.7237
  769SOL     OW 2305   2.204   2.771   0.984  0.0136 -0.1346 -0.5175
  769SOL    HW1 2306   2.298   2.764   0.947 -1.7864 -1.6711 -0.8485
  769SOL    HW2 2307   2.145   2.812   0.920  0.6589 -0.7831  2.5662
  770SOL     OW 2308   2.890   0.071   2.493  0.0627  0.6389  0.3469
  770SOL    HW1 2309   2.879   0.129   2.577 -0.2520 -0.6805 -1.3410
  770SOL    HW2 2310   2.985   0.092   2.459 -1.5593  0.0017  1.7180
  771SOL     OW 2311   1.359   2.224   2.144 -0.4298  0.0379 -0.0074
  771SOL    HW1 2312   1.385   2.196   2.049  0.6241  0.7085  0.4568
  771SOL    HW2 2313   1.274   2.178   2.181  1.7156 -2.5531  2.9001
  772SOL     OW 2314   1.233   0.350   0.042  0.0644 -0.2082 -0.0020
  772SOL    HW1 2315   1.180   0.261   0.031 -1.1821 -1.6850  1.4012
  772SOL    HW2 2316   1.267   0.384   3.042 -0.1904 -0.6799 -3.3926
  773SOL     OW 2317   2.565   0.782   1.728 -0.0003  0.3490  0.1577
  773SOL    HW1 2318   2.658   0.787   1.688  1.1291  0.1507 -2.5192
  773SOL    HW2 2319   2.510   0.866   1.723  1.0601 -2.7668 -2.3752
  774SOL     OW 2320   0.996   1.118   1.066  0.4472 -0.9275  0.0830
  774SOL    HW1 2321   1.047   1.187   1.009 -0.6861 -0.7403 -0.0863
  774SOL    HW2 2322   0.948   1.049   1.012  1.1972  0.0250  0.4464
  775SOL     OW 2323   2.324   0.006   2.941 -0.3596 -0.0349  0.5353
  775SOL    HW1 2324   2.385   0.053   2.875 -0.1762 -0.2869  0.9863
  775SOL    HW2 2325   2.358   2.994   2.952  1.9410 -3.1366  3.3133
  776SOL     OW 2326   2.358   1.218   1.900 -0.1255  0.5460  0.1012
  776SOL    HW1 2327   2.307   1.191   1.988  0.4892  0.3743  1.6182
  776SOL    HW2 2328   2.310   1.291   1.848  0.1222  0.2906 -0.3619
  777SOL     OW 2329   0.291   1.109   2.400 -0.2189  0.0157  0.7343
  777SOL    HW1 2330   0.322   1.021   2.360 -2.7526 -1.9089  1.6171
  777SOL    HW2 2331   0.364   1.180   2.402  0.1497 -0.7676  2.6599
  778SOL     OW 2332   0.548   0.692   0.102  0.5204 -0.4300 -0.3442
  778SOL    HW1 2333   0.599   0.614   0.065  0.6802 -0.0264 -1.7091
  778SOL    HW2 2334   0.549   0.770   0.033 -0.4331  1.5628 -0.7090
  779SOL     OW 2335   0.607   0.198   2.295  1.0562 -0.2025  0.7424
  779SOL    HW1 2336   0.674   0.167   2.363 -2.0244  0.6790 -2.4318
  779SOL    HW2 2337   0.522   0.149   2.307  0.8063  1.0325 -0.4080
  780SOL     OW 2338   2.153   1.137   2.736 -0.6487 -0.1333 -0.0619
  780SOL    HW1 2339   2.254   1.128   2.761  0.4479 -2.5174  0.6657
  780SOL    HW2 2340   2.144   1.187   2.649  0.1117 -0.9350  1.0993
  781SOL     OW 2341   2.794   1.041   1.807  0.3743  0.4582  0.5175
  781SOL    HW1 2342   2.787   0.982   1.721  0.4510  0.8878 -1.3597
  781SOL    HW2 2343   2.865   1.000   1.866 -0.5110  1.3172  0.1868
  782SOL     OW 2344   0.787   1.262   2.847  0.9614 -0.3606  0.2755
  782SOL    HW1 2345   0.690   1.246   2.871  0.7465 -1.1888  0.7417
  782SOL    HW2 2346   0.807   1.351   2.805  0.8006  1.9822 -0.0063
  783SOL     OW 2347   1.134   2.296   1.197 -0.0630  0.0640 -0.0782
  783SOL    HW1 2348   1.166   2.350   1.278 -0.8490  2.1000  0.1692
  783SOL    HW2 2349   1.212   2.307   1.129 -0.5355  0.3888  2.7125
  784SOL     OW 2350   1.476   0.530   2.882  0.5045  0.2977  0.5646
  784SOL    HW1 2351   1.483   0.477   2.966 -1.9309 -0.2569 -1.4414
  784SOL    HW2 2352   1.461   0.631   2.897 -0.5057  2.3113 -1.7186
  785SOL     OW 2353   0.800   0.098   2.027  0.2420 -0.1251  0.0231
  785SOL    HW1 2354   0.817   0.181   2.087 -0.4965  0.1372 -0.6073
  785SOL    HW2 2355   0.766   0.131   1.936 -3.3240  0.7023 -0.7524
  786SOL     OW 2356   0.417   2.084   0.465  0.7371  0.0475  0.3815
  786SOL    HW1 2357   0.428   1.985   0.432  0.6758 -1.1653 -0.0100
  786SOL    HW2 2358   0.434   2.095   0.563  1.4587  0.7473 -1.3827
  787SOL     OW 2359   1.129   0.625   0.427 -0.0862  0.4019  0.1452
  787SOL    HW1 2360   1.189   0.707   0.409 -0.2580  1.4716  0.5740
  787SOL    HW2 2361   1.032   0.643   0.423  3.6529 -4.8939  1.6348
  788SOL     OW 2362   2.575   1.504   1.270 -0.3501  0.0540  0.4163
  788SOL    HW1 2363   2.641   1.565   1.319  0.3074  1.7311  0.3749
  788SOL    HW2 2364   2.501   1.473   1.338 -2.6600 -3.3924  2.2512
  789SOL     OW 2365   2.657   1.222   2.237 -0.4942 -0.1285 -0.3603
  789SOL    HW1 2366   2.660   1.184   2.143 -0.9822 -0.3984 -0.9908
  789SOL    HW2 2367   2.597   1.304   2.254  0.4153  3.6844  0.0215
  790SOL     OW 2368   0.647   0.098   0.175 -0.4052  0.3161 -0.0272
  790SOL    HW1 2369   0.725   0.033   0.190 -1.0327  0.7755 -0.5139
  790SOL    HW2 2370   0.682   0.191   0.188 -0.6126 -1.7572 -1.7524
  791SOL     OW 2371   0.169   0.580   3.004 -0.0642  0.5385 -0.5330
  791SOL    HW1 2372   0.129   0.527   3.080 -0.6986  2.7249 -3.4789
  791SOL    HW2 2373   0.191   0.675   3.035  0.3192  1.3876 -1.9373
  792SOL     OW 2374   1.462   0.611   2.529 -0.0432  0.1621  0.1024
  792SOL    HW1 2375   1.378   0.653   2.491 -3.4189 -0.8433  0.2432
  792SOL    HW2 2376   1.542   0.673   2.519 -0.8424  0.0733 -1.0434
  793SOL     OW 2377   2.912   0.274   0.714 -0.1420 -0.6028  0.0337
  793SOL    HW1 2378   2.932   0.299   0.621  0.9594 -0.3742 -0.0444
  793SOL    HW2 2379   2.856   0.341   0.765 -2.0401 -1.1485  1.3233
  794SOL     OW 2380   0.331   0.563   1.942 -0.8047  0.0294  0.1920
  794SOL    HW1 2381   0.345   0.658   1.906  2.1137  0.1699 -1.4370
  794SOL    HW2 2382   0.293   0.505   1.866 -1.3049  0.8374 -0.6148
  795SOL     OW 2383   0.336   1.263   0.225  0.1445 -0.0594 -0.0692
  795SOL    HW1 2384   0.440   1.257   0.234  3.2210 -0.4270  0.1453
  795SOL    HW2 2385   0.294   1.263   0.316 -0.8114  0.5383 -1.1355
  796SOL     OW 2386   0.116   0.882   3.080  0.0951 -0.2127 -0.5599
  796SOL    HW1 2387   0.109   0.822   0.075 -1.2933  0.8706  0.5088
  796SOL    HW2 2388   0.137   0.977   0.017 -0.6288  2.5475 -0.3276
  797SOL     OW 2389   1.718   2.640   2.761  0.1265 -0.1663 -0.1169
  797SOL    HW1 2390   1.686   2.702   2.840 -0.6749  4.2435  2.2854
  797SOL    HW2 2391   1.641   2.643   2.692 -0.0069 -0.1607  2.1038
  798SOL     OW 2392   3.021   0.279   1.032 -0.1831  0.4141 -0.4617
  798SOL    HW1 2393   2.989   0.311   0.939  1.5517 -0.2309 -0.3385
  798SOL    HW2 2394   3.077   0.347   1.080 -2.7177 -0.7049 -0.3634
  799SOL     OW 2395   2.177   0.658   2.102  0.2125 -0.1592  0.4107
  799SOL    HW1 2396   2.271   0.693   2.113 -0.9749 -1.9034 -0.8688
  799SOL    HW2 2397   2.148   0.666   2.004  1.2051  0.2102 -2.2049
  800SOL     OW 2398   0.098   1.824   0.461 -0.0108  0.5416 -0.1631
  800SOL    HW1 2399   0.182   1.817   0.518 -1.4512  1.4578  1.5115
  800SOL    HW2 2400   0.122   1.781   0.371  0.0683 -2.0112 -0.4725
  801SOL     OW 2401   1.589   2.102   0.748  0.0433 -0.0427 -0.5573
  801SOL    HW1 2402   1.604   2.044   0.665  1.4803  2.0529 -1.5797
  801SOL    HW2 2403   1.590   2.052   0.836 -1.0188  1.7179 -0.1107
  802SOL     OW 2404   1.282   1.549   2.934  0.0100 -0.1849 -0.4829
  802SOL    HW1 2405   1.258   1.501   3.024  0.7017 -0.9594  2.8066
  802SOL    HW2 2406   1.202   1.573   2.873  0.5111  0.9246 -2.3108
  803SOL     OW 2407   0.499   1.862   1.656  0.0681 -0.5555  0.5757
  803SOL    HW1 2408   0.508   1.760   1.653 -1.0559 -0.8461  0.5575
  803SOL    HW2 2409   0.449   1.889   1.574 -1.0369  0.1639  0.5322
  804SOL     OW 2410   1.569   2.460   1.061 -0.6298  0.0722 -0.4122
  804SOL    HW1 2411   1.666   2.436   1.044 -0.8039  1.0649  1.0833
  804SOL    HW2 2412   1.541   2.532   0.996 -2.5768  0.6441  2.0770
  805SOL     OW 2413   2.359   2.305   2.525 -0.7177 -0.7000  0.3827
  805SOL    HW1 2414   2.458   2.305   2.494  2.1626 -1.7108 -2.2612
  805SOL    HW2 2415   2.352   2.332   2.623  1.8787 -0.3452 -0.5326
  806SOL     OW 2416   2.478   3.006   0.642  0.1755  0.1924 -0.6382
  806SOL    HW1 2417   2.400   3.023   0.708 -2.6793 -0.9266 -0.1444
  806SOL    HW2 2418   2.539   3.086   0.623  0.9509 -0.1883 -1.3984
  807SOL     OW 2419   0.294   1.047   2.672 -0.2844  0.2826  0.0486
  807SOL    HW1 2420   0.314   1.066   2.575 -0.6368 -1.1533  3.0243
  807SOL    HW2 2421   0.207   0.997   2.681  2.5049  0.5759  0.7554
  808SOL     OW 2422   0.742   1.879   0.656  0.1098  0.6401 -0.1262
  808SOL    HW1 2423   0.679   1.911   0.729  1.5697  1.9984 -0.5538
  808SOL    HW2 2424   0.752   1.941   0.571  2.3096  1.1926 -3.4808
  809SOL     OW 2425   2.649   2.968   1.974  0.0306 -0.1150  0.2442
  809SOL    HW1 2426   2.632   3.049   1.913  0.0830 -1.2166  0.9474
  809SOL    HW2 2427   2.561   2.919   1.996 -0.8657 -2.0373  1.9122
  810SOL     OW 2428   1.291   0.478   1.280  0.7086  0.4927  0.7578
  810SOL    HW1 2429   1.196   0.463   1.309  1.0742 -0.4498 -0.6582
  810SOL    HW2 2430   1.316   0.578   1.283  1.7974  3.6321 -1.0578
  811SOL     OW 2431   1.788   0.055   1.914 -0.2394  0.1320  0.1919
  811SOL    HW1 2432   1.857   3.074   1.946 -0.3717  1.0084  1.2762
  811SOL    HW2 2433   1.717   0.069   1.984  1.6309 -2.5395 -1.6055
  812SOL     OW 2434   1.958   2.101   0.638  0.4296 -0.0847  0.6750
  812SOL    HW1 2435   1.932   2.103   0.537  2.5234 -0.4105 -0.6314
  812SOL    HW2 2436   1.922   2.017   0.677 -0.7980  4.3236 -3.3449
  813SOL     OW 2437   1.237   0.459   1.759 -1.0523 -0.3423  0.0251
  813SOL    HW1 2438   1.175   0.423   1.834 -1.6969 -3.7429 -0.1722
  813SOL    HW2 2439   1.269   0.553   1.776  0.3723  1.3690  3.5174
  814SOL     OW 2440   0.204   0.049   1.168  0.1020 -0.9418 -0.3926
  814SOL    HW1 2441   0.190   3.037   1.168 -1.2014  0.0456  0.7056
  814SOL    HW2 2442   0.170   0.087   1.259 -1.1378 -4.0502 -1.3864
  815SOL     OW 2443   0.155   0.058   0.531 -0.3052  0.2837 -0.1427
  815SOL    HW1 2444   0.174   3.048   0.514 -0.8698  0.1839  1.0810
  815SOL    HW2 2445   0.130   0.072   0.630  2.0907  1.4337  1.2515
  816SOL     OW 2446   2.373   1.898   2.255  0.4880 -0.2363 -0.3835
  816SOL    HW1 2447   2.326   1.873   2.163 -0.3394 -0.1586 -0.6386
  816SOL    HW2 2448   2.301   1.896   2.334  0.4637  0.5954  3.4282
  817SOL     OW 2449   1.059   2.948   0.748 -0.9629  0.6541 -0.5487
  817SOL    HW1 2450   1.131   2.984   0.687 -1.2690 -1.1762 -0.9230
  817SOL    HW2 2451   1.087   2.861   0.799  2.3540 -1.0361 -0.1327
  818SOL     OW 2452   1.741   0.622   2.698  0.0242  0.4140  0.1630
  818SOL    HW1 2453   1.715   0.560   2.771  0.9527 -0.0202 -3.4994
  818SOL    HW2 2454   1.776   0.567   2.621  0.2725 -1.4420  3.0387
  819SOL     OW 2455   2.353   0.160   0.085 -0.3454  0.6692  0.2917
  819SOL    HW1 2456   2.452   0.172   0.101  0.1406 -1.1703  1.2991
  819SOL    HW2 2457   2.329   0.126   3.081 -0.6061  1.3508  0.8416
  820SOL     OW 2458   2.082   0.906   2.867  0.3170  0.1181  0.1750
  820SOL    HW1 2459   2.144   0.830   2.843 -0.0269 -1.2938 -0.3946
  820SOL    HW2 2460   2.111   0.992   2.817  1.2034 -0.7792 -0.2454
  821SOL     OW 2461   2.778   0.437   0.885  0.2893 -0.5240 -0.0581
  821SOL    HW1 2462   2.710   0.405   0.954  0.8540  1.0590 -1.7884
  821SOL    HW2 2463   2.838   0.506   0.935 -0.7527  1.3440  1.1065
  822SOL     OW 2464   1.043   2.655   2.452 -0.4187 -0.5037 -0.0228
  822SOL    HW1 2465   1.019   2.557   2.457  0.1264  2.0507  1.7398
  822SOL    HW2 2466   1.061   2.696   2.544  1.2834 -1.7741 -0.8925
  823SOL     OW 2467   0.409   1.401   1.640  0.4463  0.0150  0.0887
  823SOL    HW1 2468   0.416   1.300   1.645 -0.4738 -0.1415  2.3319
  823SOL    HW2 2469   0.359   1.432   1.723  0.6039 -1.4123 -0.9504
  824SOL     OW 2470   1.513   2.611   2.577 -0.2900  0.3674  0.1798
  824SOL    HW1 2471   1.527   2.565   2.487 -0.0518 -0.1480  0.2383
  824SOL    HW2 2472   1.496   2.712   2.573 -1.5906 -2.1742 -0.6595
  825SOL     OW 2473   1.682   0.801   0.335 -0.1201  0.6066 -0.3594
  825SOL    HW1 2474   1.731   0.709   0.359  0.6950 -1.9649  1.1595
  825SOL    HW2 2475   1.705   0.834   0.238  0.4780  1.9147 -2.1423
  826SOL     OW 2476   2.081   0.797   0.155 -0.4557  0.5649 -0.3519
  826SOL    HW1 2477   2.012   0.767   0.087 -0.9708  2.5494  0.1415
  826SOL    HW2 2478   2.169   0.819   0.109 -1.6338 -0.3004 -1.3756
  827SOL     OW 2479   0.817   1.486   2.693 -0.5899 -0.5420  0.0830
  827SOL    HW1 2480   0.719   1.493   2.680  0.1496  0.7709  1.3937
  827SOL    HW2 2481   0.866   1.549   2.634 -3.7699 -4.6726 -0.6739
  828SOL     OW 2482   2.373   1.396   1.435 -0.1411 -0.5943  0.5692
  828SOL    HW1 2483   2.357   1.481   1.486  0.2401  0.4465  1.2036
  828SOL    HW2 2484   2.409   1.326   1.495 -1.5917  1.1536 -1.5090
  829SOL     OW 2485   0.317   1.657   0.852 -0.8153  0.1922 -0.6314
  829SOL    HW1 2486   0.259   1.576   0.872 -0.2750 -0.8858  0.7676
  829SOL    HW2 2487   0.410   1.644   0.897  2.2770 -0.5827  2.1530
  830SOL     OW 2488   1.335   0.930   1.041  0.3801  0.0881  0.1669
  830SOL    HW1 2489   1.315   1.000   0.971  0.2151  1.4352  3.5725
  830SOL    HW2 2490   1.358   0.978   1.129  3.4506  0.3247 -2.5163
  831SOL     OW 2491   0.289   1.766   0.156 -0.6708  0.5462 -0.1029
  831SOL    HW1 2492   0.205   1.756   0.100  1.5746  2.0786 -0.4851
  831SOL    HW2 2493   0.307   1.679   0.202  1.3760 -0.2489 -0.9033
  832SOL     OW 2494   0.796   0.317   0.254 -0.0164 -0.5182 -0.5173
  832SOL    HW1 2495   0.744   0.360   0.332 -0.0903 -0.1781  0.7336
  832SOL    HW2 2496   0.898   0.343   0.259  0.9125 -1.1343 -1.7558
  833SOL     OW 2497   0.700   0.471   1.965  0.0279 -0.4533  0.2329
  833SOL    HW1 2498   0.681   0.571   1.935 -1.5670  0.0961 -0.7972
  833SOL    HW2 2499   0.705   0.416   1.883 -0.8584 -1.1868  0.3040
  834SOL     OW 2500   0.104   0.192   0.777  0.0194  0.0143 -0.2275
  834SOL    HW1 2501   0.007   0.221   0.769 -2.7032 -2.2381 -0.9313
  834SOL    HW2 2502   0.156   0.225   0.859 -0.4061 -1.4840  1.4655
  835SOL     OW 2503   2.572   0.008   1.010  0.7171  0.4894 -0.6594
  835SOL    HW1 2504   2.582   0.067   1.092  0.7109  0.6227  1.2357
  835SOL    HW2 2505   2.646   0.028   0.948 -1.6828 -1.8463 -1.3218
  836SOL     OW 2506   0.523   2.021   2.950  0.4633 -0.0790 -0.3623
  836SOL    HW1 2507   0.530   2.122   2.931 -1.8077 -0.1758 -1.1614
  836SOL    HW2 2508   0.436   2.010   2.997 -1.4201 -0.7338  3.0086
  837SOL     OW 2509   1.793   1.371   2.695  0.3229  0.0985  0.2914
  837SOL    HW1 2510   1.870   1.411   2.635  2.2535  0.8136  0.7621
  837SOL    HW2 2511   1.808   1.383   2.795  0.9413  0.8697 -2.4643
  838SOL     OW 2512   0.022   0.983   1.617 -0.0887 -0.6417  0.0440
  838SOL    HW1 2513   3.035   1.017   1.560 -2.0177 -0.8386  1.1477
  838SOL    HW2 2514   0.081   1.056   1.649  0.2314 -4.1866  1.8940
  839SOL     OW 2515   0.788   0.997   0.931  0.6229  0.4411 -0.3299
  839SOL    HW1 2516   0.730   1.003   1.014 -0.2926 -0.6518  3.0837
  839SOL    HW2 2517   0.838   0.905   0.937  0.7322 -0.4788  1.4442
  840SOL     OW 2518   1.480   2.743   1.693 -0.4111  0.1073 -0.0360
  840SOL    HW1 2519   1.468   2.641   1.687 -0.2470 -2.7228 -0.0165
  840SOL    HW2 2520   1.441   2.784   1.611  1.9052  1.3862  0.3197
  841SOL     OW 2521   0.530   2.495   0.407  0.5669  0.3305 -0.0332
  841SOL    HW1 2522   0.534   2.583   0.454 -3.3985 -1.7333 -0.3330
  841SOL    HW2 2523   0.435   2.451   0.411  0.8397  0.8243  0.3465
  842SOL     OW 2524   0.483   0.479   0.832 -0.1288  0.2642 -0.1497
  842SOL    HW1 2525   0.487   0.563   0.890  1.7918 -0.0264  0.1776
  842SOL    HW2 2526   0.565   0.420   0.839  0.2699  1.3671  0.4014
  843SOL     OW 2527   0.966   1.305   2.293  0.6240  0.3958  0.1140
  843SOL    HW1 2528   0.962   1.211   2.338 -1.2561  0.1881  1.9205
  843SOL    HW2 2529   1.055   1.325   2.251 -1.6163  1.7094  2.7307
  844SOL     OW 2530   1.162   2.327   3.051 -0.2578  0.7930  0.0757
  844SOL    HW1 2531   1.167   2.228   3.076 -0.9436  0.7115 -0.4403
  844SOL    HW2 2532   1.258   2.366   3.043  2.3838 -0.9183  0.4061
  845SOL     OW 2533   2.356   2.570   2.445  0.3988 -0.0603  0.6445
  845SOL    HW1 2534   2.378   2.590   2.345  3.2487 -1.2435 -1.0050
  845SOL    HW2 2535   2.336   2.472   2.450  3.0598  3.5459  1.5508
  846SOL     OW 2536   1.709   1.852   2.893  0.2443  0.8453  0.0809
  846SOL    HW1 2537   1.716   1.873   2.793 -0.3031  0.1669 -0.8448
  846SOL    HW2 2538   1.642   1.780   2.918  0.2841  0.0086 -3.5850
  847SOL     OW 2539   1.976   2.862   2.858 -0.1070  0.0017 -0.0046
  847SOL    HW1 2540   2.012   2.952   2.835 -2.7635  3.8001  1.0408
  847SOL    HW2 2541   2.033   2.811   2.928 -2.5440 -1.4197  0.1368
  848SOL     OW 2542   0.259   0.527   0.673 -0.5149  0.8589  0.2649
  848SOL    HW1 2543   0.347   0.532   0.719 -1.1256  0.4951 -2.0253
  848SOL    HW2 2544   0.189   0.483   0.735  0.0043 -1.4340 -1.5979
  849SOL     OW 2545   1.184   2.804   1.544  0.2655  0.2581  0.1442
  849SOL    HW1 2546   1.140   2.846   1.626 -1.7105 -1.7442 -1.3334
  849SOL    HW2 2547   1.271   2.851   1.526 -0.0515 -0.8308  0.8139
  850SOL     OW 2548   0.549   1.488   0.395 -0.7003 -0.5243  0.0180
  850SOL    HW1 2549   0.457   1.478   0.365  0.6601 -0.2091 -1.7954
  850SOL    HW2 2550   0.613   1.544   0.334  0.6589  1.3456 -1.9218
  851SOL     OW 2551   0.130   0.974   0.806 -0.2623 -0.5605  0.0278
  851SOL    HW1 2552   0.142   0.967   0.699 -0.5888 -1.4496 -2.7885
  851SOL    HW2 2553   0.033   0.976   0.823 -0.1011 -0.4228 -2.8118
  852SOL     OW 2554   1.805   2.428   1.629 -0.4598 -0.0959 -0.3424
  852SOL    HW1 2555   1.760   2.379   1.708 -0.4113 -0.4078 -0.3602
  852SOL    HW2 2556   1.828   2.372   1.547 -0.4663 -1.9094 -2.7412
  853SOL     OW 2557   0.261   1.525   0.252 -0.3669 -0.0954  0.1031
  853SOL    HW1 2558   0.168   1.543   0.291 -2.6641 -0.3608 -1.4846
  853SOL    HW2 2559   0.274   1.427   0.228 -0.3080 -0.9947 -2.4580
  854SOL     OW 2560   1.564   1.178   1.744  0.3472 -0.0394  0.2973
  854SOL    HW1 2561   1.473   1.133   1.738  2.2565 -1.9272  1.3857
  854SOL    HW2 2562   1.569   1.247   1.822  2.2145  0.6093  2.7150
  855SOL     OW 2563   0.480   2.524   2.947  0.7792 -0.0866  0.9931
  855SOL    HW1 2564   0.385   2.486   2.936  0.8944 -0.0032 -0.3487
  855SOL    HW2 2565   0.521   2.507   3.040  0.9220 -0.5549  3.4565
  856SOL     OW 2566   3.067   0.658   1.737  0.0226  0.0902  0.1045
  856SOL    HW1 2567   3.038   0.729   1.809 -2.9850  0.4232 -0.2589
  856SOL    HW2 2568   0.051   0.703   1.683 -1.8120  0.3760 -1.8619
  857SOL     OW 2569   0.618   1.145   2.012  0.2158 -0.2498 -0.9023
  857SOL    HW1 2570   0.680   1.108   2.088  0.6494  0.1972  1.6435
  857SOL    HW2 2571   0.572   1.230   2.045 -0.7841 -0.2913 -0.4852
  858SOL     OW 2572   0.452   1.357   2.360 -0.1604 -0.0014  0.1128
  858SOL    HW1 2573   0.536   1.315   2.402  0.3122 -2.2940  0.5006
  858SOL    HW2 2574   0.479   1.405   2.270  0.6983  0.4153 -2.1992
  859SOL     OW 2575   2.583   0.222   0.573  0.1499 -0.4068  0.2016
  859SOL    HW1 2576   2.620   0.307   0.611  0.2343  3.4821  0.6482
  859SOL    HW2 2577   2.658   0.168   0.530  0.3630  0.6221  1.6035
  860SOL     OW 2578   2.135   2.719   3.011 -0.1288  0.3270  0.1070
  860SOL    HW1 2579   2.111   2.646   3.076 -0.3572  2.8613  1.3065
  860SOL    HW2 2580   2.178   2.798   3.061 -0.3276  0.3361 -1.2772
  861SOL     OW 2581   0.406   0.485   0.436 -0.0584 -0.6341 -0.0571
  861SOL    HW1 2582   0.419   0.585   0.411 -0.5446 -1.9754  0.8746
  861SOL    HW2 2583   0.342   0.478   0.514 -0.9774  0.9259  2.3339
  862SOL     OW 2584   1.412   0.240   1.951  0.3162 -0.2015 -0.2963
  862SOL    HW1 2585   1.438   0.256   1.849 -2.0201 -0.1982  0.0194
  862SOL    HW2 2586   1.318   0.196   1.962 -1.1462 -3.1251 -0.1973
  863SOL     OW 2587   2.722   2.225   1.150 -0.0790  0.1763  0.2579
  863SOL    HW1 2588   2.633   2.272   1.136 -0.6681 -0.5019  0.8076
  863SOL    HW2 2589   2.804   2.283   1.116  2.1964  3.2527 -1.2743
  864SOL     OW 2590   2.419   2.818   2.008 -0.4591 -0.3237  0.9044
  864SOL    HW1 2591   2.332   2.865   1.985 -2.9577  0.7704  0.3345
  864SOL    HW2 2592   2.468   2.755   1.939  2.2684 -2.8905 -0.8327
  865SOL     OW 2593   1.090   0.313   1.594  0.0259 -0.1195 -0.3310
  865SOL    HW1 2594   1.127   0.221   1.570  0.2296  1.2888  0.5007
  865SOL    HW2 2595   1.145   0.364   1.665  2.2188  0.7289 -0.2022
  866SOL     OW 2596   2.042   2.936   0.860 -0.0604 -0.0414  0.2381
  866SOL    HW1 2597   2.080   3.016   0.807 -0.5289 -1.5118  0.1047
  866SOL    HW2 2598   2.048   2.948   0.959  0.9549 -0.1268  0.8673
  867SOL     OW 2599   2.589   2.542   0.436  0.1601 -0.8047  0.5631
  867SOL    HW1 2600   2.678   2.504   0.414 -3.1687 -2.4092 -1.6480
  867SOL    HW2 2601   2.517   2.477   0.476  0.5962 -0.4970  1.4467
  868SOL     OW 2602   0.965   2.022   1.616 -0.3693  0.1626 -0.3924
  868SOL    HW1 2603   1.064   2.039   1.600  1.6921  1.3977 -1.2114
  868SOL    HW2 2604   0.940   1.932   1.579 -0.1395 -0.2222  0.1795
  869SOL     OW 2605   2.088   2.554   0.128 -0.2502  0.2149 -0.2738
  869SOL    HW1 2606   2.112   2.459   0.134 -0.6775  0.4815  0.0460
  869SOL    HW2 2607   2.140   2.608   0.197 -2.1070 -0.9304  0.0586
  870SOL     OW 2608   2.174   2.158   1.073 -0.3541  0.5741  0.1513
  870SOL    HW1 2609   2.188   2.181   0.975  1.5305 -0.7284 -0.2425
  870SOL    HW2 2610   2.086   2.111   1.092  0.1885  0.7670  2.4774
  871SOL     OW 2611   0.251   1.655   1.551 -0.0025 -0.3744  0.3219
  871SOL    HW1 2612   0.311   1.722   1.509  0.1806 -3.0515  1.8775
  871SOL    HW2 2613   0.258   1.567   1.513 -0.3605  2.0333 -0.4208
  872SOL     OW 2614   0.657   1.222   2.475  1.1596  0.0626 -0.5388
  872SOL    HW1 2615   0.614   1.226   2.565 -0.5262  0.4723 -1.7858
  872SOL    HW2 2616   0.678   1.128   2.439 -2.3070 -0.0770 -2.4654
  873SOL     OW 2617   0.977   2.331   1.443  0.2723  0.7146  0.4774
  873SOL    HW1 2618   0.900   2.366   1.494  1.5316  0.3252 -0.9097
  873SOL    HW2 2619   1.049   2.403   1.424 -0.0183 -0.3540  3.0624
  874SOL     OW 2620   1.433   0.899   1.950  0.2924 -0.4978 -0.6958
  874SOL    HW1 2621   1.466   0.963   2.024  0.0631 -0.1833 -0.6178
  874SOL    HW2 2622   1.514   0.893   1.889 -0.7359  1.2359  1.8968
  875SOL     OW 2623   2.786   2.861   1.017  0.0097 -0.0329  0.3769
  875SOL    HW1 2624   2.688   2.849   1.038 -2.0469 -1.0214 -1.6378
  875SOL    HW2 2625   2.809   2.962   1.023 -0.1735 -0.9488  1.2258
  876SOL     OW 2626   1.024   1.316   0.654 -1.1298  0.0775  0.3540
  876SOL    HW1 2627   1.089   1.300   0.573  1.0669  0.7155  1.1599
  876SOL    HW2 2628   0.933   1.348   0.625 -1.0791 -2.1096  1.6766
  877SOL     OW 2629   2.616   0.353   1.129  0.0397  0.2202  0.0329
  877SOL    HW1 2630   2.565   0.369   1.217 -0.3523  0.6064 -1.4801
  877SOL    HW2 2631   2.699   0.293   1.138  1.0931 -3.2047 -2.8699
  878SOL     OW 2632   2.315   1.468   0.231  0.4034  0.1743  0.3388
  878SOL    HW1 2633   2.404   1.427   0.203  2.0235 -0.5142 -2.2774
  878SOL    HW2 2634   2.313   1.528   0.314  1.6618 -0.3971 -0.4567
  879SOL     OW 2635   2.713   1.869   1.217  0.0924  0.6197 -0.5198
  879SOL    HW1 2636   2.795   1.839   1.268 -3.5210 -0.6783  1.1873
  879SOL    HW2 2637   2.739   1.919   1.134 -0.7334  0.0653  2.7331
  880SOL     OW 2638   0.254   2.387   0.904 -0.6709  0.4763 -0.0599
  880SOL    HW1 2639   0.311   2.373   0.994  1.1278  1.8637  2.7950
  880SOL    HW2 2640   0.302   2.453   0.841 -0.9828  0.4590 -0.6070
  881SOL     OW 2641   1.326   1.117   0.833 -0.1458 -0.5531 -1.1260
  881SOL    HW1 2642   1.409   1.176   0.811 -2.6654  0.5239 -0.1139
  881SOL    HW2 2643   1.249   1.180   0.856  1.1430 -1.0334  0.0301
  882SOL     OW 2644   2.653   0.980   2.660  0.6690 -0.6738 -0.5754
  882SOL    HW1 2645   2.605   0.992   2.569  0.2883  1.3295 -0.9731
  882SOL    HW2 2646   2.695   0.887   2.665  0.4803 -1.0332  0.3128
  883SOL     OW 2647   1.333   3.062   1.243 -0.3322 -0.5672 -0.1769
  883SOL    HW1 2648   1.311   2.990   1.178  1.7469 -1.7282  3.8085
  883SOL    HW2 2649   1.347   0.059   1.184  0.6295  3.2311  0.0991
  884SOL     OW 2650   2.805   0.076   0.890 -0.1502  0.4678 -0.4519
  884SOL    HW1 2651   2.881   0.047   0.950 -2.5803 -0.6653  2.2926
  884SOL    HW2 2652   2.841   0.140   0.819 -1.5291  2.3486 -1.8088
  885SOL     OW 2653   1.394   0.726   1.294 -0.0470  0.2745  0.2894
  885SOL    HW1 2654   1.374   0.829   1.300 -0.1898  2.3986  0.7760
  885SOL    HW2 2655   1.487   0.701   1.266  0.8509  0.7047  2.0473
  886SOL     OW 2656   1.480   0.803   2.896 -0.2980 -0.1733 -0.1245
  886SOL    HW1 2657   1.568   0.847   2.876 -1.0857  3.1885  0.6045
  886SOL    HW2 2658   1.447   0.844   2.979 -0.9708  1.7382 -0.1799
  887SOL     OW 2659   1.564   0.373   1.281  0.3428  0.3209  0.4770
  887SOL    HW1 2660   1.628   0.394   1.357 -0.7679  2.2309 -2.2160
  887SOL    HW2 2661   1.475   0.416   1.303  0.1647 -0.0857  0.1426
  888SOL     OW 2662   2.116   1.625   1.973  0.0960 -0.1644  0.7937
  888SOL    HW1 2663   2.103   1.646   2.070  1.8764 -0.1101  0.3364
  888SOL    HW2 2664   2.028   1.627   1.919  0.4301  1.5036 -0.5685
  889SOL     OW 2665   2.181   1.914   0.902 -0.0385  0.0809 -0.1916
  889SOL    HW1 2666   2.247   1.891   0.979  1.0217  0.6219  0.0320
  889SOL    HW2 2667   2.194   2.007   0.867 -3.1758 -1.6056  1.1630
  890SOL     OW 2668   1.244   1.881   0.956  0.4107  0.3367  0.4214
  890SOL    HW1 2669   1.296   1.814   0.901 -0.0025  0.2434  2.7979
  890SOL    HW2 2670   1.217   1.839   1.047  0.8215  1.4637  1.3217
  891SOL     OW 2671   2.507   0.528   2.376 -0.3207  0.2162 -0.3774
  891SOL    HW1 2672   2.601   0.488   2.389 -3.9378  0.2310  3.1273
  891SOL    HW2 2673   2.447   0.465   2.322 -1.6406  0.1641  1.4927
  892SOL     OW 2674   1.004   0.536   2.166  0.4344  0.4670  0.3466
  892SOL    HW1 2675   1.081   0.598   2.146  5.6561  0.8196 -0.6581
  892SOL    HW2 2676   0.917   0.589   2.164  2.3064  0.8664  0.5662
  893SOL     OW 2677   1.655   0.117   1.253 -0.1215  0.2248  0.3185
  893SOL    HW1 2678   1.720   0.086   1.324  0.4723 -1.5806 -2.2854
  893SOL    HW2 2679   1.619   0.208   1.279  0.4455  0.8125  1.2048
  894SOL     OW 2680   2.422   0.687   0.768 -0.0916  0.1831  0.3924
  894SOL    HW1 2681   2.374   0.654   0.854 -0.3701  0.5343 -0.1787
  894SOL    HW2 2682   2.354   0.702   0.696 -0.0499  0.4102  0.0020
  895SOL     OW 2683   1.971   2.590   2.676  0.5010 -1.2678 -0.2804
  895SOL    HW1 2684   2.043   2.618   2.744  0.7936  1.2987  2.1964
  895SOL    HW2 2685   1.877   2.626   2.701  1.2140  1.0620  0.3983
  896SOL     OW 2686   1.751   2.871   1.589  0.1576  0.2581  0.0366
  896SOL    HW1 2687   1.648   2.858   1.592  0.9905  1.1271 -1.1306
  896SOL    HW2 2688   1.779   2.858   1.490  2.1576  0.1950 -0.1368
  897SOL     OW 2689   0.678   1.821   1.874 -0.5326 -0.0716  0.4076
  897SOL    HW1 2690   0.664   1.736   1.927  3.0779  1.2472 -0.3437
  897SOL    HW2 2691   0.605   1.825   1.802  1.5151 -2.2220  0.6568
  898SOL     OW 2692   2.292   1.823   1.986 -0.2333  0.1050 -0.5691
  898SOL    HW1 2693   2.229   1.749   1.955  0.2222 -1.7987 -1.8728
  898SOL    HW2 2694   2.386   1.780   1.989 -1.9128  1.0495 -1.0160
  899SOL     OW 2695   1.794   2.305   0.695 -0.9670 -0.2214 -0.1883
  899SOL    HW1 2696   1.707   2.259   0.720 -0.2464  2.1247 -0.7406
  899SOL    HW2 2697   1.874   2.240   0.678  2.5137 -1.5066  2.0824
  900SOL     OW 2698   1.039   0.179   3.070 -0.2465 -0.0698  0.1033
  900SOL    HW1 2699   0.995   0.132   2.986  1.8700  0.6491 -0.8488
  900SOL    HW2 2700   1.019   0.128   0.072  0.7763  1.3166  2.7700
  901SOL     OW 2701   1.030   1.887   2.277 -0.4284  0.4665  0.5422
  901SOL    HW1 2702   0.926   1.895   2.293 -2.4963 -0.4292  2.0238
  901SOL    HW2 2703   1.069   1.800   2.314 -0.1014  0.7437  0.7011
  902SOL     OW 2704   2.477   0.656   2.939 -0.1070  0.3715 -0.5077
  902SOL    HW1 2705   2.544   0.731   2.919 -1.1322 -2.1103  0.4406
  902SOL    HW2 2706   2.532   0.571   2.953  3.9325 -0.6288  0.0562
  903SOL     OW 2707   2.030   0.913   2.179 -0.1915 -0.3765  0.0713
  903SOL    HW1 2708   2.087   0.827   2.192 -0.6982 -1.0169 -1.4883
  903SOL    HW2 2709   1.956   0.916   2.247 -1.4016  0.4329  2.0199
  904SOL     OW 2710   1.657   0.884   1.803  0.0094 -0.0161 -0.4060
  904SOL    HW1 2711   1.722   0.845   1.738  0.0955 -1.3753  4.6061
  904SOL    HW2 2712   1.700   0.947   1.869  3.1402  0.7227 -1.2520
  905SOL     OW 2713   2.091   0.127   1.716  0.2681  0.2252 -0.0764
  905SOL    HW1 2714   2.075   0.064   1.637  2.1626 -2.8220 -0.1785
  905SOL    HW2 2715   2.004   0.181   1.732 -2.5216 -0.8687 -0.6632
  906SOL     OW 2716   2.042   1.875   0.400 -0.4451  0.2379 -0.2462
  906SOL    HW1 2717   2.013   1.909   0.490 -3.2874 -0.7393 -0.8089
  906SOL    HW2 2718   2.031   1.773   0.396 -1.2371 -0.7468 -1.0110
  907SOL     OW 2719   1.138   2.703   0.855  0.4293 -0.7684 -0.2903
  907SOL    HW1 2720   1.191   2.660   0.776  1.7663 -0.6243  0.1176
  907SOL    HW2 2721   1.047   2.657   0.852 -0.0989 -0.1917 -0.6774
  908SOL     OW 2722   1.642   2.268   2.575  0.2870  0.2376  0.0557
  908SOL    HW1 2723   1.744   2.276   2.578  2.9041  2.5452 -1.5034
  908SOL    HW2 2724   1.611   2.245   2.480 -1.4939 -0.1764  1.4780
  909SOL     OW 2725   2.217   0.360   2.039  0.4049 -0.4271  0.2392
  909SOL    HW1 2726   2.172   0.427   2.101 -0.7511  0.9698 -2.0534
  909SOL    HW2 2727   2.237   0.405   1.946  0.7593  0.5962 -0.0633
  910SOL     OW 2728   1.018   0.861   2.854 -0.1247  0.3007  0.2919
  910SOL    HW1 2729   1.074   0.775   2.878  2.1266 -2.7868 -0.8390
  910SOL    HW2 2730   1.055   0.940   2.905 -1.7183 -1.2795  1.1653
  911SOL     OW 2731   3.010   0.884   2.912  0.0050 -0.3186 -0.1230
  911SOL    HW1 2732   0.001   0.875   2.978  1.4021  1.1607 -1.1805
  911SOL    HW2 2733   2.919   0.878   2.957  2.4019 -0.0717 -0.7565
  912SOL     OW 2734   0.094   2.615   0.580 -0.5470 -0.0602  0.3435
  912SOL    HW1 2735   0.138   2.538   0.534  0.7072 -0.9995  0.0883
  912SOL    HW2 2736   0.076   2.592   0.679 -1.2692  0.2403  0.3186
  913SOL     OW 2737   2.616   1.942   2.402 -0.0219 -0.3303  0.2091
  913SOL    HW1 2738   2.536   1.905   2.350 -0.0258 -0.5725 -3.6158
  913SOL    HW2 2739   2.668   2.019   2.362 -2.4027  0.8627  1.0838
  914SOL     OW 2740   1.847   1.253   0.928 -0.2997  0.0152  0.2312
  914SOL    HW1 2741   1.847   1.198   0.842  0.1794 -1.7360  1.1232
  914SOL    HW2 2742   1.754   1.252   0.974 -1.0744  0.8780  0.6240
  915SOL     OW 2743   0.360   2.771   2.182  0.1239  0.3498  0.3746
  915SOL    HW1 2744   0.367   2.675   2.222  1.5503  0.2841 -0.9601
  915SOL    HW2 2745   0.437   2.827   2.219  0.7225 -0.7848 -0.6745
  916SOL     OW 2746   0.880   3.086   1.510 -0.0201  0.3323 -0.5544
  916SOL    HW1 2747   0.865   3.058   1.413  0.3860  1.1861  2.0037
  916SOL    HW2 2748   0.978   0.021   1.523  0.4409 -1.2617  0.3849
  917SOL     OW 2749   2.403   0.759   0.330 -0.4615  0.2946  0.0394
  917SOL    HW1 2750   2.473   0.825   0.368 -0.2222  1.5893 -1.0757
  917SOL    HW2 2751   2.391   0.789   0.233 -0.6754  0.5645 -0.1230
  918SOL     OW 2752   1.590   2.393   2.826  0.8114  0.2922 -0.2754
  918SOL    HW1 2753   1.632   2.486   2.830 -0.1864 -2.1515  0.6790
  918SOL    HW2 2754   1.592   2.356   2.731 -0.0769 -0.2660  0.6343
  919SOL     OW 2755   1.806   2.805   1.320 -0.3677  0.6298 -0.7131
  919SOL    HW1 2756   1.762   2.871   1.255  0.5235 -0.6306 -2.1100
  919SOL    HW2 2757   1.841   2.718   1.271  2.0787 -2.3027  0.9881
  920SOL     OW 2758   1.263   0.423   2.371  0.6092 -0.0891 -0.1157
  920SOL    HW1 2759   1.264   0.437   2.472 -1.6708  0.0358 -0.4956
  920SOL    HW2 2760   1.253   0.325   2.343 -2.8447  1.1204  0.6258
  921SOL     OW 2761   0.052   0.912   2.648  0.2298  0.1544 -0.5261
  921SOL    HW1 2762   0.016   0.962   2.569  0.2409 -1.3197  0.4570
  921SOL    HW2 2763   3.081   0.921   2.723  2.3596 -0.0172 -2.6273
  922SOL     OW 2764   0.020   1.987   1.009  0.0318 -0.1131  0.1554
  922SOL    HW1 2765   3.006   1.999   1.015  2.1346  0.6363  1.8695
  922SOL    HW2 2766   0.051   2.012   0.915 -0.3750  0.3443 -1.5140
  923SOL     OW 2767   0.427   1.652   2.042 -0.0645  0.3265 -0.1875
  923SOL    HW1 2768   0.482   1.688   2.118 -0.3989 -0.6985  0.3118
  923SOL    HW2 2769   0.358   1.722   2.019 -0.5480 -0.6421 -1.1921
  924SOL     OW 2770   1.524   2.908   2.595  0.2057  0.2753  0.2231
  924SOL    HW1 2771   1.467   2.987   2.628  1.5682  1.8738  2.4375
  924SOL    HW2 2772   1.587   2.881   2.668 -0.0722 -0.5368  0.5439
  925SOL     OW 2773   2.768   1.700   0.788  0.9728 -0.5556 -0.0037
  925SOL    HW1 2774   2.729   1.629   0.721 -1.5844 -1.7094 -0.4990
  925SOL    HW2 2775   2.798   1.654   0.876  0.3582  2.2970  1.4819
  926SOL     OW 2776   2.295   0.839   1.037 -0.0092  0.0237  0.0425
  926SOL    HW1 2777   2.256   0.756   0.996  0.0969 -3.2190 -0.3288
  926SOL    HW2 2778   2.354   0.884   0.967 -0.3159 -0.8291  1.0840
  927SOL     OW 2779   1.964   0.106   1.270 -0.0004  0.6339  0.3609
  927SOL    HW1 2780   2.000   0.196   1.300 -1.8923 -0.9939  1.1272
  927SOL    HW2 2781   1.943   0.051   1.350  0.3400  0.0228 -0.7767
  928SOL     OW 2782   0.051   0.869   2.207  0.1763 -0.2064 -0.2338
  928SOL    HW1 2783   0.011   0.772   2.214  0.4468 -2.0345  1.4046
  928SOL    HW2 2784   0.147   0.869   2.175  0.4382  1.5233 -0.9223
  929SOL     OW 2785   2.375   0.918   1.306  0.2814 -0.2390  0.2509
  929SOL    HW1 2786   2.355   0.890   1.210 -0.3241  1.6863 -2.1489
  929SOL    HW2 2787   2.453   0.989   1.304 -1.0969  2.1592  2.8817
  930SOL     OW 2788   2.435   2.426   1.814  0.3845  0.1280 -0.0044
  930SOL    HW1 2789   2.532   2.389   1.802  0.4927 -1.5899  1.2173
  930SOL    HW2 2790   2.382   2.401   1.727 -3.0944  0.7941 -1.6009
  931SOL     OW 2791   2.139   1.064   1.351 -0.1607 -0.0329 -0.1746
  931SOL    HW1 2792   2.233   1.036   1.324 -2.9545  2.5935 -1.0461
  931SOL    HW2 2793   2.082   1.100   1.274 -1.3650 -2.5882 -1.7226
  932SOL     OW 2794   0.360   0.826   1.847 -0.5320 -0.3090  0.5351
  932SOL    HW1 2795   0.400   0.860   1.758  4.1150 -1.0085 -2.0860
  932SOL    HW2 2796   0.323   0.903   1.910  0.3265  3.0762  1.8041
  933SOL     OW 2797   2.275   2.076   1.653  0.4271  0.1120 -0.2249
  933SOL    HW1 2798   2.368   2.048   1.675 -2.2842  0.6325 -0.6032
  933SOL    HW2 2799   2.223   2.068   1.742 -1.8344 -3.1232  0.2230
  934SOL     OW 2800   0.821   2.192   1.790  0.3028 -0.3334  0.2004
  934SOL    HW1 2801   0.880   2.183   1.875  2.4142 -2.3411  3.7481
  934SOL    HW2 2802   0.868   2.147   1.709 -0.6664  0.9876 -1.8961
  935SOL     OW 2803   0.292   1.462   1.902 -0.2234  0.1764  0.4666
  935SOL    HW1 2804   0.201   1.422   1.925  0.9061 -0.6007  2.5749
  935SOL    HW2 2805   0.334   1.525   1.973 -0.8048 -1.7523 -2.0319
  936SOL     OW 2806   2.724   0.904   1.322  0.1005  0.1857 -0.1637
  936SOL    HW1 2807   2.664   0.985   1.303 -1.9317 -1.0513 -1.5474
  936SOL    HW2 2808   2.709   0.825   1.254  0.4083 -0.6232 -1.0923
  937SOL     OW 2809   1.796   0.429   1.430  0.0844 -0.0533 -0.5071
  937SOL    HW1 2810   1.846   0.516   1.423 -0.4295 -0.6191 -0.9981
  937SOL    HW2 2811   1.772   0.408   1.527 -0.8068  0.4008 -2.1959
  938SOL     OW 2812   0.505   2.721   0.534  0.0535 -0.2256 -0.6045
  938SOL    HW1 2813   0.513   2.777   0.447  1.4050 -2.7077  0.7591
  938SOL    HW2 2814   0.526   2.778   0.618 -0.1251  4.4566  2.1395
  939SOL     OW 2815   2.975   2.018   2.706 -0.1021  0.2127 -0.6218
  939SOL    HW1 2816   2.947   1.922   2.729 -1.9900  1.4132  0.6496
  939SOL    HW2 2817   2.913   2.079   2.762 -1.5633 -1.3060 -1.1477
  940SOL     OW 2818   1.384   1.906   0.466 -0.0595  0.0067  0.2275
  940SOL    HW1 2819   1.485   1.910   0.479  0.7607 -0.5459  1.4642
  940SOL    HW2 2820   1.351   2.003   0.480 -0.7023  1.8821  0.7421
  941SOL     OW 2821   2.150   2.712   0.340  0.4265 -0.0049  0.3662
  941SOL    HW1 2822   2.140   2.813   0.356  1.5119 -1.3125 -2.2453
  941SOL    HW2 2823   2.200   2.671   0.412 -0.2083  1.2072 -1.5420
  942SOL     OW 2824   1.742   1.727   0.872 -0.1565  0.0186  0.2920
  942SOL    HW1 2825   1.758   1.659   0.949 -1.6065 -2.3625 -0.6122
  942SOL    HW2 2826   1.745   1.821   0.904 -0.0058  0.9520 -3.0633
  943SOL     OW 2827   2.198   0.886   1.648 -0.2423 -0.1914  0.2650
  943SOL    HW1 2828   2.208   0.809   1.582  0.1996 -0.0986  0.5344
  943SOL    HW2 2829   2.142   0.961   1.622  0.4583 -1.9629 -2.4692
  944SOL     OW 2830   1.238   0.703   1.961 -0.0993  0.0764 -0.0116
  944SOL    HW1 2831   1.270   0.671   2.053  0.7179  2.2867  0.9751
  944SOL    HW2 2832   1.305   0.784   1.942  0.0788  1.1370 -0.3172
  945SOL     OW 2833   2.146   2.557   1.533  0.2298  0.6135  0.3447
  945SOL    HW1 2834   2.246   2.563   1.546 -0.8678  1.6067 -1.0868
  945SOL    HW2 2835   2.092   2.562   1.618 -1.3473  0.8501 -0.9223
  946SOL     OW 2836   0.389   1.213   0.705 -0.1277  0.0883  0.3073
  946SOL    HW1 2837   0.436   1.158   0.779 -0.5964 -0.4465  1.4370
  946SOL    HW2 2838   0.427   1.307   0.692  0.1154  0.6568  2.0564
  947SOL     OW 2839   1.659   1.975   0.972  0.3116  0.0140  0.2924
  947SOL    HW1 2840   1.573   1.939   1.017  1.2830 -3.0188  1.8618
  947SOL    HW2 2841   1.723   2.021   1.030 -2.7376  1.1715  1.3002
  948SOL     OW 2842   0.321   1.583   1.192 -0.5499  0.1067 -0.1611
  948SOL    HW1 2843   0.270   1.671   1.181  0.8835 -1.7712 -1.0655
  948SOL    HW2 2844   0.266   1.510   1.148 -0.5721  3.5497  0.5606
  949SOL     OW 2845   1.186   1.283   1.474 -0.3315 -0.2333  0.1684
  949SOL    HW1 2846   1.126   1.304   1.555 -2.2807  0.6767 -0.8539
  949SOL    HW2 2847   1.160   1.201   1.421  1.7313 -0.2502 -0.5157
  950SOL     OW 2848   0.458   0.679   0.998 -0.3630 -0.1039  0.1003
  950SOL    HW1 2849   0.489   0.745   1.070  0.0566  1.7475 -0.2640
  950SOL    HW2 2850   0.352   0.687   0.995 -0.4332  0.1945 -3.2263
  951SOL     OW 2851   0.698   2.029   2.047 -0.0054  0.5997  0.3989
  951SOL    HW1 2852   0.689   1.961   1.976  1.2913  2.9066  1.4141
  951SOL    HW2 2853   0.665   2.119   2.010 -1.6077  2.4895 -1.5899
  952SOL     OW 2854   1.043   1.698   0.000 -0.7345 -0.1288 -0.4482
  952SOL    HW1 2855   1.036   1.778   0.065 -1.8157  1.5980  2.4183
  952SOL    HW2 2856   1.124   1.704   3.031  1.0775  1.4421  1.5907
  953SOL     OW 2857   1.096   2.940   3.059  0.2191 -0.0058  0.5150
  953SOL    HW1 2858   1.045   2.981   0.047 -0.3602 -0.1100 -3.3766
  953SOL    HW2 2859   1.102   2.835   3.076 -0.2880  1.4289 -0.6769
  954SOL     OW 2860   1.586   1.325   0.102  0.6495  0.2363 -0.1129
  954SOL    HW1 2861   1.530   1.288   0.023 -1.6856  1.4103 -0.2055
  954SOL    HW2 2862   1.538   1.405   0.135  0.4552 -1.9657  0.4701
  955SOL     OW 2863   0.081   2.589   2.952  0.5121  0.1909  0.1709
  955SOL    HW1 2864   0.114   2.667   3.005 -0.9654 -1.3305 -1.1741
  955SOL    HW2 2865   3.085   2.616   2.896 -2.1478  0.2651  1.4808
  956SOL     OW 2866   1.003   0.663   1.291 -0.1955  0.1791 -0.0393
  956SOL    HW1 2867   1.049   0.706   1.211 -2.5131  1.2954  2.0331
  956SOL    HW2 2868   1.015   0.563   1.291 -0.9713  0.8958 -0.8012
  957SOL     OW 2869   1.473   1.341   1.518 -0.2401  0.4907 -0.2759
  957SOL    HW1 2870   1.372   1.341   1.522 -2.7753 -0.8694 -1.0093
  957SOL    HW2 2871   1.505   1.278   1.593 -1.1385 -0.4427  2.6382
  958SOL     OW 2872   0.584   1.519   1.116 -0.4193  0.3667 -0.5098
  958SOL    HW1 2873   0.495   1.561   1.146 -0.4242  0.8395  2.7025
  958SOL    HW2 2874   0.602   1.550   1.016 -2.0266 -2.1504 -1.4337
  959SOL     OW 2875   1.562   1.411   1.263  0.4595  0.1546 -0.6202
  959SOL    HW1 2876   1.650   1.455   1.279 -0.8961  0.2139  0.7578
  959SOL    HW2 2877   1.502   1.428   1.342  1.1221  0.0609 -0.0815
  960SOL     OW 2878   0.193   1.164   0.011  0.2509 -0.1601 -0.4675
  960SOL    HW1 2879   0.231   1.191   0.100  0.0601 -0.1062 -0.0183
  960SOL    HW2 2880   0.271   1.130   3.036 -0.0925 -1.7046  1.6253
  961SOL     OW 2881   1.050   1.391   1.689 -0.2005 -0.1987  0.3258
  961SOL    HW1 2882   1.028   1.359   1.781  1.5916  0.0543 -3.3517
  961SOL    HW2 2883   1.056   1.494   1.681  1.8836 -3.5187  0.2968
  962SOL     OW 2884   1.122   1.287   0.893  0.1480 -0.6758  0.3523
  962SOL    HW1 2885   1.156   1.376   0.926  0.7060  1.0198  0.3673
  962SOL    HW2 2886   1.091   1.298   0.793 -2.3948  1.4252 -1.2123
  963SOL     OW 2887   1.412   1.823   2.721  0.2911  0.5186  0.2161
  963SOL    HW1 2888   1.464   1.908   2.728  0.9538  2.1959 -1.2314
  963SOL    HW2 2889   1.446   1.763   2.796  1.8503 -0.8638  0.9191
  964SOL     OW 2890   0.520   2.879   0.303  0.0056  0.7279 -0.0982
  964SOL    HW1 2891   0.477   2.967   0.299  0.8018 -3.2685  1.6867
  964SOL    HW2 2892   0.510   2.819   0.220 -0.9863  0.9668  1.9486
  965SOL     OW 2893   0.323   2.310   0.342  0.4936 -0.7956 -0.2561
  965SOL    HW1 2894   0.353   2.215   0.360 -2.3444 -1.5251 -2.6729
  965SOL    HW2 2895   0.279   2.316   0.252 -0.0816  0.2007  2.2829
  966SOL     OW 2896   0.181   1.404   2.697  1.2441 -0.0731  0.1309
  966SOL    HW1 2897   0.090   1.357   2.679 -0.8602  0.7740 -1.6655
  966SOL    HW2 2898   0.174   1.445   2.789 -1.7313  0.2762 -1.7244
  967SOL     OW 2899   2.657   3.044   2.374 -0.5786  0.1779 -0.2637
  967SOL    HW1 2900   2.624   2.951   2.380  0.2496  3.3311  0.2782
  967SOL    HW2 2901   2.728   3.052   2.440 -0.7236  0.4698 -2.1339
  968SOL     OW 2902   2.146   0.315   0.383 -0.5463 -0.0089 -0.0933
  968SOL    HW1 2903   2.139   0.402   0.333 -0.2600 -1.6228  0.0716
  968SOL    HW2 2904   2.198   0.331   0.470  0.8865 -0.3577 -0.9896
  969SOL     OW 2905   0.265   0.993   2.025 -0.1035  0.3833  0.0598
  969SOL    HW1 2906   0.170   1.025   2.036  0.1058 -0.3258 -4.3984
  969SOL    HW2 2907   0.335   1.067   2.046  0.7740  1.7034 -2.9850
  970SOL     OW 2908   2.134   1.666   0.750  0.4799  0.2964  0.3401
  970SOL    HW1 2909   2.146   1.750   0.805 -0.9263 -0.3472  0.2680
  970SOL    HW2 2910   2.086   1.587   0.798  1.8155 -0.1155 -0.9851
  971SOL     OW 2911   2.549   2.921   1.199 -0.2458  0.9365  0.3238
  971SOL    HW1 2912   2.491   2.839   1.204  1.8154  1.2517  0.2958
  971SOL    HW2 2913   2.541   2.969   1.111  1.5562 -0.9730  2.4297
  972SOL     OW 2914   0.779   2.871   1.628  0.3979 -0.6192 -0.0623
  972SOL    HW1 2915   0.799   2.868   1.728  3.8156 -2.8751  0.0783
  972SOL    HW2 2916   0.835   2.944   1.580  1.0153  1.0681 -1.3349
  973SOL     OW 2917   0.610   0.393   2.847  0.5788  0.3599  0.0654
  973SOL    HW1 2918   0.624   0.406   2.951  0.8707 -0.0894  0.1177
  973SOL    HW2 2919   0.520   0.437   2.821 -1.6461 -1.2128  4.2713
  974SOL     OW 2920   2.099   1.593   2.242  0.4830  0.0662 -0.0334
  974SOL    HW1 2921   2.034   1.517   2.245  0.3964  1.2958 -1.6848
  974SOL    HW2 2922   2.174   1.577   2.314 -0.8755 -0.7095 -2.5433
  975SOL     OW 2923   0.087   0.161   1.394  0.2490  0.5817 -0.1501
  975SOL    HW1 2924   0.123   0.217   1.473 -0.5861  1.4658 -2.2776
  975SOL    HW2 2925   0.010   0.097   1.427 -1.2959 -1.7386  1.9818
  976SOL     OW 2926   0.751   1.942   2.297 -0.2286 -0.2738  0.2754
  976SOL    HW1 2927   0.752   1.979   2.200  0.4187 -0.3735 -0.6896
  976SOL    HW2 2928   0.664   1.890   2.304  0.0458 -0.1449  1.0164
  977SOL     OW 2929   0.746   2.375   0.533  0.1917  0.0821  0.0207
  977SOL    HW1 2930   0.675   2.417   0.473  2.3960  1.4967  1.1510
  977SOL    HW2 2931   0.830   2.429   0.526  0.5026 -1.7893 -0.5502
  978SOL     OW 2932   3.085   1.456   2.278  0.2134  0.1523 -0.5925
  978SOL    HW1 2933   0.076   1.482   2.337  0.2930  1.1558  0.1079
  978SOL    HW2 2934   3.035   1.372   2.313 -2.8762  0.9294  0.1329
  979SOL     OW 2935   1.651   2.592   1.473  0.7018 -0.1783  0.7830
  979SOL    HW1 2936   1.716   2.665   1.445 -2.6091 -1.4238  1.3193
  979SOL    HW2 2937   1.695   2.526   1.530 -0.3533  3.1513  1.2018
  980SOL     OW 2938   1.188   1.095   2.727 -0.3780  0.3394 -0.0925
  980SOL    HW1 2939   1.218   1.183   2.687  1.7343 -0.5804  1.4095
  980SOL    HW2 2940   1.084   1.089   2.739 -1.0116  0.7164 -2.1926
  981SOL     OW 2941   2.548   0.111   1.853  0.3274  0.0202 -0.4585
  981SOL    HW1 2942   2.447   0.113   1.875  0.1148 -0.2364  0.8279
  981SOL    HW2 2943   2.578   0.197   1.814  0.1900  0.6273 -0.0384
  982SOL     OW 2944   0.369   0.491   2.805  0.6601  0.0796 -0.1587
  982SOL    HW1 2945   0.305   0.535   2.870 -1.3892  2.0046  3.1458
  982SOL    HW2 2946   0.316   0.426   2.743 -1.4366 -1.3466 -0.9435
  983SOL     OW 2947   2.133   1.194   2.394 -0.1200  0.1950  0.7396
  983SOL    HW1 2948   2.123   1.216   2.297  0.0919 -1.9385 -1.4425
  983SOL    HW2 2949   2.077   1.111   2.424 -2.1635  0.5874  0.3618
  984SOL     OW 2950   1.468   0.300   1.691 -0.1014 -0.7483  0.1082
  984SOL    HW1 2951   1.382   0.360   1.680 -1.8843  2.7680 -0.0459
  984SOL    HW2 2952   1.555   0.357   1.706  0.9420  3.3144  0.5543
  985SOL     OW 2953   1.865   1.581   1.847  0.4222  0.2909  0.2728
  985SOL    HW1 2954   1.806   1.557   1.930 -1.7836 -1.2521  0.5911
  985SOL    HW2 2955   1.883   1.500   1.792  0.9292  0.3232  0.0349
  986SOL     OW 2956   2.161   0.649   1.817  0.5231 -0.1538 -0.2608
  986SOL    HW1 2957   2.230   0.572   1.803  1.3202 -3.8941 -1.1944
  986SOL    HW2 2958   2.202   0.741   1.793  2.6501 -0.0957  0.7626
  987SOL     OW 2959   2.442   0.476   1.297  0.5233 -0.4740 -1.1047
  987SOL    HW1 2960   2.448   0.507   1.395  1.8491 -0.2900  0.0066
  987SOL    HW2 2961   2.377   0.400   1.294 -1.2261 -1.1493 -0.8050
  988SOL     OW 2962   2.995   0.830   1.925 -0.0642  0.2142  0.1106
  988SOL    HW1 2963   2.929   0.784   1.990  2.9568  0.1520 -1.4657
  988SOL    HW2 2964   3.030   0.918   1.955 -0.7263 -0.8008 -0.5706
  989SOL     OW 2965   2.254   1.590   3.081  0.2909  0.5292  0.0544
  989SOL    HW1 2966   2.246   1.545   0.081 -1.1160 -0.3849 -0.5851
  989SOL    HW2 2967   2.303   1.677   0.003 -1.2656  1.7662  0.8216
  990SOL     OW 2968   1.051   0.303   2.688 -0.3792  0.1054  0.3042
  990SOL    HW1 2969   0.999   0.235   2.633  0.2126 -1.4249 -1.3668
  990SOL    HW2 2970   1.047   0.268   2.780 -3.0084 -0.2424  0.7992
  991SOL     OW 2971   1.263   0.873   0.367 -0.2016  0.6490  0.0427
  991SOL    HW1 2972   1.210   0.937   0.308 -3.0120  0.1309  1.7248
  991SOL    HW2 2973   1.303   0.922   0.445 -0.6990  0.3604 -0.2086
  992SOL     OW 2974   1.798   1.287   0.261 -0.1865 -0.9261 -0.1073
  992SOL    HW1 2975   1.833   1.386   0.252 -3.2642  0.9768  0.8945
  992SOL    HW2 2976   1.707   1.283   0.213  0.0765  0.1429  0.8475
  993SOL     OW 2977   2.930   0.702   0.712  0.1362 -0.1234 -0.1265
  993SOL    HW1 2978   3.007   0.693   0.649 -4.4458  0.9743 -0.2762
  993SOL    HW2 2979   2.946   0.654   0.801 -2.6738 -0.4123  0.2556
  994SOL     OW 2980   0.003   1.974   2.479 -0.1080 -0.1462  0.0908
  994SOL    HW1 2981   3.062   1.969   2.580  0.2974 -1.6282  0.7951
  994SOL    HW2 2982   0.079   2.043   2.467 -0.7871  2.0461  0.0733
  995SOL     OW 2983   1.759   1.546   2.988  0.1029  0.1359 -0.1463
  995SOL    HW1 2984   1.746   1.507   3.080  1.1894  0.4561 -1.1969
  995SOL    HW2 2985   1.854   1.594   2.981  3.2621  3.4181  1.3284
  996SOL     OW 2986   2.205   1.254   0.076  0.3307 -0.4406 -0.1611
  996SOL    HW1 2987   2.235   1.327   0.145 -3.2408 -0.9820  3.3962
  996SOL    HW2 2988   2.112   1.212   0.099 -2.8369  0.8360  0.0633
  997SOL     OW 2989   2.002   1.301   1.751 -0.2398  0.1566  0.3495
  997SOL    HW1 2990   2.011   1.201   1.728  0.4938 -1.3658 -1.3100
  997SOL    HW2 2991   2.091   1.352   1.741 -2.1426 -0.8498 -2.3559
  998SOL     OW 2992   2.533   1.811   0.281  0.7518  0.1519 -0.3602
  998SOL    HW1 2993   2.463   1.806   0.203  3.3712 -1.2161  0.4643
  998SOL    HW2 2994   2.494   1.822   0.375  1.8058  2.5424  2.1721
  999SOL     OW 2995   2.559   2.209   0.172 -0.1330  0.1514  0.0148
  999SOL    HW1 2996   2.604   2.116   0.163 -0.9554 -3.6592  0.7647
  999SOL    HW2 2997   2.631   2.287   0.164 -0.9481 -0.9172  3.5933
 1000SOL     OW 2998   1.026   0.370   1.951  0.0178  0.3684  0.4350
 1000SOL    HW1 2999   0.996   0.422   2.034 -1.6219  2.0906  1.7952
 1000SOL    HW2 3000   0.949   0.361   1.892  1.1258 -0.4400  0.1561
   3.08862   3.08862   3.08862
