1000 SPC/Fw water molecules t= 310.00000 step= 310000
 3000
    1SOL     OW    1   2.843   3.082   0.873  0.2552 -0.0388 -0.2670
    1SOL    HW1    2   2.799   2.999   0.912 -0.2316 -0.4542 -1.4280
    1SOL    HW2    3   2.943   3.076   0.888  1.6365 -2.1761 -0.2405
    2SOL     OW    4   3.094   2.542   0.784  0.3230  0.2006 -0.0419
    2SOL    HW1    5   0.008   2.448   0.828 -0.4037 -1.1063 -3.2147
    2SOL    HW2    6   0.034   2.539   0.686  0.0526  1.3715  0.5417
    3SOL     OW    7   0.529   2.701   2.880  0.3065 -0.2495  0.3538
    3SOL    HW1    8   0.625   2.677   2.907  1.3894  0.3442  2.2057
    3SOL    HW2    9   0.516   2.720   2.780  0.5484 -0.3716 -0.9296
    4SOL     OW   10   2.102   2.350   1.872 -0.1243 -0.0957  0.2578
    4SOL    HW1   11   2.067   2.275   1.814  1.2656  0.5003  2.1607
    4SOL    HW2   12   2.167   2.312   1.939 -1.8426  2.2043  1.4476
    5SOL     OW   13   1.557   0.896   1.351  0.3649 -0.3600 -0.1256
    5SOL    HW1   14   1.535   0.846   1.266  2.8728 -0.1399  0.3298
    5SOL    HW2   15   1.479   0.959   1.379  0.5538  1.7118 -0.6205
    6SOL     OW   16   1.987   2.778   0.170 -0.2350 -0.1610  0.5716
    6SOL    HW1   17   1.926   2.860   0.179 -0.9176 -2.1747  3.4407
    6SOL    HW2   18   1.970   2.716   0.250 -1.5575 -2.1920  3.7276
    7SOL     OW   19   2.596   1.389   1.144  0.0505  0.2027  0.3554
    7SOL    HW1   20   2.628   1.483   1.152  1.8548 -0.9018 -1.1680
    7SOL    HW2   21   2.629   1.337   1.221 -0.9919  1.7090 -1.2023
    8SOL     OW   22   1.407   2.331   1.549 -0.2525  0.0838  0.5153
    8SOL    HW1   23   1.334   2.260   1.550 -0.8018  0.0563 -1.7638
    8SOL    HW2   24   1.407   2.383   1.461  1.3645 -0.2601 -0.0557
    9SOL     OW   25   1.515   2.858   2.270 -0.1555 -0.0698 -0.2825
    9SOL    HW1   26   1.441   2.805   2.315 -1.0597  1.3160 -1.3165
    9SOL    HW2   27   1.478   2.893   2.178  3.4533 -2.2993 -1.1536
   10SOL     OW   28   0.755   1.947   1.391 -0.2553 -0.2152 -0.1807
   10SOL    HW1   29   0.816   1.919   1.311  1.6582 -0.3582 -1.3067
   10SOL    HW2   30   0.668   1.996   1.354 -0.8374 -0.2012 -4.7529
   11SOL     OW   31   1.877   1.837   1.258  1.0012 -0.1355  0.6190
   11SOL    HW1   32   1.964   1.840   1.313 -0.2638  1.3369  2.0897
   11SOL    HW2   33   1.862   1.929   1.218 -1.0791  1.2070  2.5863
   12SOL     OW   34   2.476   2.690   1.680  0.6562  0.3790  0.2121
   12SOL    HW1   35   2.544   2.612   1.681  3.0480 -0.2674 -1.3458
   12SOL    HW2   36   2.483   2.751   1.761 -1.4613  0.3177 -1.6966
   13SOL     OW   37   2.339   3.086   0.470 -0.4453 -0.4167 -0.2116
   13SOL    HW1   38   2.350   2.998   0.523  2.0879  1.4674  0.5407
   13SOL    HW2   39   2.426   0.009   0.415  0.6812  0.3753 -0.2832
   14SOL     OW   40   1.597   2.315   0.303 -0.3928  0.2134 -0.1373
   14SOL    HW1   41   1.680   2.260   0.321  1.1051 -0.6766  0.1379
   14SOL    HW2   42   1.547   2.272   0.224  0.3725  1.5133  0.0470
   15SOL     OW   43   2.952   1.951   1.902  0.1252 -0.0358  0.5250
   15SOL    HW1   44   3.013   1.879   1.945  1.7714  1.7193  0.8042
   15SOL    HW2   45   2.989   2.044   1.917 -0.9655 -2.2561  1.4189
   16SOL     OW   46   2.125   2.666   0.588 -0.3725 -0.1649 -0.1704
   16SOL    HW1   47   2.088   2.668   0.494 -0.2629  0.2922 -3.7741
   16SOL    HW2   48   2.061   2.703   0.657  0.9547  0.6559 -2.6234
   17SOL     OW   49   0.650   0.255   1.169  0.3676  0.2428  0.2503
   17SOL    HW1   50   0.719   0.290   1.236  1.3973  2.3857  1.4475
   17SOL    HW2   51   0.637   0.323   1.096 -0.9043 -0.5761  3.0495
   18SOL     OW   52   2.039   0.897   0.131 -0.2917  0.8017  0.1803
   18SOL    HW1   53   1.954   0.844   0.121  0.3051  0.2463 -0.5321
   18SOL    HW2   54   2.119   0.835   0.143 -0.8536 -0.5209  0.5728
   19SOL     OW   55   1.817   1.932   0.513 -0.4789 -0.1360 -0.0030
   19SOL    HW1   56   1.890   1.900   0.584  3.5104  0.4003  1.1050
   19SOL    HW2   57   1.859   1.964   0.428  0.2209  1.3911  2.3483
   20SOL     OW   58   2.398   1.968   2.173 -0.1805 -0.5943  0.0362
   20SOL    HW1   59   2.333   2.012   2.240  0.6041  0.3651  1.7065
   20SOL    HW2   60   2.425   2.039   2.106  1.8846  0.2310 -1.5767
   21SOL     OW   61   1.785   0.593   0.840  0.4819 -0.2759  0.1321
   21SOL    HW1   62   1.774   0.624   0.745  0.9865 -0.8793  0.3391
   21SOL    HW2   63   1.868   0.635   0.886  0.4798  3.5312  2.5325
   22SOL     OW   64   2.199   0.181   1.458 -0.3123 -0.4416  0.2289
   22SOL    HW1   65   2.099   0.175   1.446  0.5055 -0.0591  1.4213
   22SOL    HW2   66   2.218   0.254   1.525  0.0892 -2.9902 -0.5282
   23SOL     OW   67   0.059   0.487   1.948 -0.2367  0.7088  0.2917
   23SOL    HW1   68   0.008   0.411   1.990  2.2633 -0.6156  3.0979
   23SOL    HW2   69   3.088   0.560   1.923  2.0431  1.8107 -1.7996
   24SOL     OW   70   2.565   2.736   0.456  0.6517  0.4298  0.4646
   24SOL    HW1   71   2.495   2.790   0.503  0.3767 -1.4743 -1.6502
   24SOL    HW2   72   2.651   2.733   0.510 -0.1009 -1.9988  1.9759
   25SOL     OW   73   1.620   0.118   2.265 -0.0189  0.3101  0.7619
   25SOL    HW1   74   1.631   0.039   2.327  1.9620  0.3086 -0.4242
   25SOL    HW2   75   1.530   0.155   2.285 -0.3729 -0.0322 -3.1010
   26SOL     OW   76   1.263   2.398   0.281 -0.4639  0.0022 -0.1167
   26SOL    HW1   77   1.304   2.347   0.358 -1.1385  1.2238 -0.2834
   26SOL    HW2   78   1.294   2.496   0.294  2.4757 -2.9480  0.5383
   27SOL     OW   79   2.284   1.611   2.894 -0.0647  0.2565  0.1053
   27SOL    HW1   80   2.254   1.572   2.804 -1.5168  3.3381  0.9103
   27SOL    HW2   81   2.312   1.540   2.963  2.7042 -0.1406 -0.1720
   28SOL     OW   82   0.845   1.483   1.584  0.1890 -0.0730 -0.2161
   28SOL    HW1   83   0.848   1.379   1.586 -0.8831 -0.0013  0.2351
   28SOL    HW2   84   0.847   1.523   1.490 -1.7306  0.6000 -0.6409
   29SOL     OW   85   2.707   2.508   1.601  0.3124 -0.1925  0.1931
   29SOL    HW1   86   2.736   2.588   1.544  1.0268 -1.0300  3.6179
   29SOL    HW2   87   2.643   2.447   1.556  2.3098  3.5195  3.1582
   30SOL     OW   88   1.310   0.586   1.145 -0.0399  0.0820  0.1450
   30SOL    HW1   89   1.213   0.562   1.169 -0.2303  1.4376 -1.1198
   30SOL    HW2   90   1.359   0.514   1.091  1.0347 -0.3770  1.1918
   31SOL     OW   91   2.216   2.766   1.880  0.4213 -0.2865  0.2784
   31SOL    HW1   92   2.206   2.699   1.954  0.6913  1.8059  1.0341
   31SOL    HW2   93   2.167   2.735   1.798 -0.1409 -0.2280  1.9001
   32SOL     OW   94   1.166   1.563   0.542 -0.0104 -0.3105 -0.6678
   32SOL    HW1   95   1.074   1.576   0.590 -1.5599  0.0095  0.8471
   32SOL    HW2   96   1.150   1.560   0.439 -2.5797  1.5057  0.2199
   33SOL     OW   97   0.274   0.325   2.569 -0.6566  0.1432  0.2979
   33SOL    HW1   98   0.358   0.384   2.557  0.9286  1.2507  0.4588
   33SOL    HW2   99   0.229   0.318   2.477  0.3955 -0.3897 -1.4278
   34SOL     OW  100   1.837   2.830   0.659 -0.6993  0.5762  0.0961
   34SOL    HW1  101   1.782   2.791   0.735 -1.4255 -1.9743  0.7025
   34SOL    HW2  102   1.865   2.926   0.670 -0.3672  1.3999 -1.4258
   35SOL     OW  103   2.185   2.650   1.246 -0.0070  0.1325 -0.3395
   35SOL    HW1  104   2.190   2.727   1.311  1.5531 -1.2868  0.1116
   35SOL    HW2  105   2.103   2.664   1.182 -2.0480  0.2962  0.3483
   36SOL     OW  106   1.829   2.357   2.833  0.4892  0.1378  0.5663
   36SOL    HW1  107   1.753   2.334   2.899 -1.3098  0.4345  0.8863
   36SOL    HW2  108   1.801   2.327   2.738  0.3026 -0.8077  0.1278
   37SOL     OW  109   1.367   0.212   2.348  0.1573  0.3930  0.3959
   37SOL    HW1  110   1.366   0.306   2.388 -1.6031 -0.0036 -2.3488
   37SOL    HW2  111   1.356   0.147   2.422 -1.7242  3.9786 -0.5106
   38SOL     OW  112   0.281   0.205   2.816 -0.2115  0.1850  0.2535
   38SOL    HW1  113   0.281   0.222   2.715  0.7120 -0.4841  1.3352
   38SOL    HW2  114   0.373   0.178   2.852  0.4291  1.1767  0.0806
   39SOL     OW  115   2.476   1.197   1.578  0.0915  0.4299  0.0459
   39SOL    HW1  116   2.462   1.146   1.666  0.0574 -1.6920  0.6981
   39SOL    HW2  117   2.409   1.276   1.569  0.6758  2.8451 -0.6196
   40SOL     OW  118   1.170   2.846   0.341  0.2577 -0.1681  0.1427
   40SOL    HW1  119   1.205   2.942   0.327 -0.7183 -2.9819  2.4384
   40SOL    HW2  120   1.108   2.820   0.272  0.2592 -2.2448  2.1540
   41SOL     OW  121   2.444   1.468   0.943  0.6578 -0.3268 -0.3539
   41SOL    HW1  122   2.495   1.443   1.028 -2.1168 -1.0952 -2.8367
   41SOL    HW2  123   2.504   1.464   0.859  1.7129 -0.2768  1.7094
   42SOL     OW  124   1.039   0.300   1.374 -0.3386 -0.3383  0.0781
   42SOL    HW1  125   0.946   0.282   1.407  2.9558  2.2716  0.9859
   42SOL    HW2  126   1.085   0.378   1.425  1.8118  1.1947  1.9301
   43SOL     OW  127   2.929   1.607   2.426  0.4767 -0.0888 -0.4147
   43SOL    HW1  128   2.934   1.615   2.530  0.0345 -2.1442  0.9798
   43SOL    HW2  129   2.924   1.702   2.390 -0.2005  0.2918  0.5786
   44SOL     OW  130   2.315   0.153   1.836  0.3947  0.8289 -0.3543
   44SOL    HW1  131   2.246   0.098   1.885 -1.5181 -1.7849  1.7743
   44SOL    HW2  132   2.409   0.146   1.873 -2.3932 -0.0013 -1.9736
   45SOL     OW  133   1.045   3.024   1.966 -0.4737 -0.0114  0.1098
   45SOL    HW1  134   1.064   3.029   1.865 -0.5568  0.1046 -0.6846
   45SOL    HW2  135   1.114   3.069   2.028  3.1916  2.0317  0.2620
   46SOL     OW  136   1.210   2.891   2.543 -0.0557 -0.0430 -0.0135
   46SOL    HW1  137   1.152   2.824   2.594  2.0516 -2.1942 -0.4130
   46SOL    HW2  138   1.293   2.919   2.596 -0.9875 -0.5684 -2.5424
   47SOL     OW  139   1.993   1.848   0.691 -0.0975  0.3058  0.1170
   47SOL    HW1  140   2.041   1.875   0.778 -1.2494  0.0205  0.1814
   47SOL    HW2  141   2.024   1.754   0.656  2.4110 -1.1658 -1.2698
   48SOL     OW  142   1.146   2.143   0.621  0.1949 -0.1361  0.1585
   48SOL    HW1  143   1.097   2.173   0.535  1.5969  0.7422 -1.9804
   48SOL    HW2  144   1.166   2.042   0.625 -0.3915 -0.7878 -0.1272
   49SOL     OW  145   2.213   2.736   2.516  0.1465  0.2288  0.3730
   49SOL    HW1  146   2.166   2.784   2.436  2.3235 -0.4667 -2.0964
   49SOL    HW2  147   2.252   2.803   2.587  0.7246 -0.3943  1.6995
   50SOL     OW  148   1.601   2.995   0.054 -0.7116 -0.2060  0.2779
   50SOL    HW1  149   1.654   2.977   0.137 -2.7825 -2.2707 -0.4387
   50SOL    HW2  150   1.528   3.062   0.076 -0.1596 -2.1517 -1.1597
   51SOL     OW  151   2.122   0.857   0.822  0.0669 -0.2648  0.8890
   51SOL    HW1  152   2.068   0.811   0.894  1.2122  0.2737  0.4830
   51SOL    HW2  153   2.118   0.960   0.842 -0.4431 -1.3863  0.3563
   52SOL     OW  154   1.218   1.586   1.087  0.0171  0.0325  0.3575
   52SOL    HW1  155   1.276   1.571   1.168  2.3003 -2.4303  1.0713
   52SOL    HW2  156   1.147   1.656   1.110 -1.4479  2.9108  0.2148
   53SOL     OW  157   0.616   1.875   2.594  0.0491 -0.2859 -0.1156
   53SOL    HW1  158   0.543   1.811   2.563 -1.6599 -1.7272  3.9221
   53SOL    HW2  159   0.681   1.820   2.654  2.4138 -1.8036  1.1134
   54SOL     OW  160   2.748   0.820   1.575 -0.1016 -0.2740 -0.1572
   54SOL    HW1  161   2.831   0.871   1.609 -1.7703 -1.5926  1.9639
   54SOL    HW2  162   2.705   0.773   1.657  0.9917 -1.6495 -1.6878
   55SOL     OW  163   2.615   1.954   0.549  0.2040 -0.0070  0.2941
   55SOL    HW1  164   2.585   1.911   0.460  1.1974 -0.2374 -1.4078
   55SOL    HW2  165   2.685   2.031   0.532 -2.8471  1.1223 -1.1138
   56SOL     OW  166   1.541   0.164   1.859  0.4870  0.1008 -0.0763
   56SOL    HW1  167   1.514   0.167   1.763  0.8683  0.2822  3.4537
   56SOL    HW2  168   1.549   0.250   1.906 -0.6983 -3.9472 -2.7739
   57SOL     OW  169   1.282   1.357   2.766  0.3574 -0.4589 -0.1864
   57SOL    HW1  170   1.341   1.432   2.729 -3.3434 -2.7498 -0.4557
   57SOL    HW2  171   1.334   1.270   2.762 -0.8194  1.6870  0.8830
   58SOL     OW  172   2.982   0.693   1.850 -0.3007 -0.2807  0.3680
   58SOL    HW1  173   3.069   0.721   1.804  0.4828 -0.8858 -1.8456
   58SOL    HW2  174   2.922   0.632   1.792  3.2148  1.8750  4.1892
   59SOL     OW  175   1.546   2.689   0.128  0.6258  0.0803  0.2079
   59SOL    HW1  176   1.607   2.619   0.097 -1.3524  1.8931  1.9729
   59SOL    HW2  177   1.558   2.773   0.071  2.3009  0.7222  1.0197
   60SOL     OW  178   2.955   1.838   0.023  0.3349  0.1052 -0.3469
   60SOL    HW1  179   2.956   1.872   0.122 -0.0837 -0.0699 -0.6749
   60SOL    HW2  180   2.956   1.911   3.048  0.5289 -0.2268  0.4414
   61SOL     OW  181   0.839   2.795   0.949 -0.7151 -0.1687  0.6720
   61SOL    HW1  182   0.935   2.812   0.915 -1.5731 -1.6512 -3.0609
   61SOL    HW2  183   0.784   2.755   0.870  2.1795 -1.6393 -0.8837
   62SOL     OW  184   1.895   2.037   2.591  0.4399 -0.1722  0.0790
   62SOL    HW1  185   1.942   2.041   2.503 -0.8607 -1.0947  3.0154
   62SOL    HW2  186   1.795   2.025   2.576  1.2357  1.1141 -1.7351
   63SOL     OW  187   2.320   2.451   0.620 -0.3965  0.0832  0.0547
   63SOL    HW1  188   2.260   2.526   0.587  0.1849  0.3093 -2.0737
   63SOL    HW2  189   2.409   2.456   0.569 -0.8604  0.4049 -1.7999
   64SOL     OW  190   1.356   0.873   2.533 -0.0846  0.0922 -0.3661
   64SOL    HW1  191   1.264   0.828   2.558 -1.0521 -1.0666  1.9451
   64SOL    HW2  192   1.425   0.806   2.522 -0.8695  0.8345 -0.2855
   65SOL     OW  193   1.924   1.643   2.449  0.4185  0.2942 -0.0470
   65SOL    HW1  194   1.911   1.542   2.445  1.3675 -0.2727 -1.8129
   65SOL    HW2  195   1.851   1.699   2.405  0.0511  2.1576 -0.4156
   66SOL     OW  196   0.268   0.969   1.673  0.2364 -0.1477 -0.4079
   66SOL    HW1  197   0.198   1.031   1.624 -3.6255  0.9881  2.1908
   66SOL    HW2  198   0.342   0.956   1.606 -0.0427  0.5842  2.8733
   67SOL     OW  199   2.300   2.904   2.696 -0.2518 -0.1804 -0.2990
   67SOL    HW1  200   2.338   2.854   2.774  2.4334  3.6963 -1.2044
   67SOL    HW2  201   2.342   3.003   2.694 -1.1920  3.1204  1.0228
   68SOL     OW  202   1.134   2.614   1.327  0.1288 -0.3090  0.3321
   68SOL    HW1  203   1.150   2.710   1.348  0.3021  1.0926 -2.1643
   68SOL    HW2  204   1.107   2.598   1.222 -1.1251 -0.8221 -2.6923
   69SOL     OW  205   0.575   2.282   0.052  0.1964 -0.2197  0.1107
   69SOL    HW1  206   0.668   2.319   0.033  2.2866 -1.9727  1.3298
   69SOL    HW2  207   0.531   2.248   3.061  2.7325  2.6393 -1.2234
   70SOL     OW  208   2.791   0.230   2.376  0.4535 -0.8290 -0.5501
   70SOL    HW1  209   2.713   0.187   2.427 -1.4952  1.6992  1.3035
   70SOL    HW2  210   2.773   0.327   2.362 -0.3945 -1.4695  0.5972
   71SOL     OW  211   0.337   1.374   2.516 -0.2094 -0.2636  0.0575
   71SOL    HW1  212   0.269   1.316   2.466 -0.1815 -4.3532  1.5136
   71SOL    HW2  213   0.343   1.361   2.611  0.7437  1.5575 -2.5818
   72SOL     OW  214   2.875   2.076   2.959  0.3674  0.3080  0.1337
   72SOL    HW1  215   2.809   2.147   2.935  0.0485  0.3708 -0.6597
   72SOL    HW2  216   2.885   2.016   2.877 -1.1480  0.4047  0.8473
   73SOL     OW  217   1.342   1.131   0.544  0.2815  0.4538  0.3851
   73SOL    HW1  218   1.381   1.098   0.454 -1.2264 -2.8989 -3.3842
   73SOL    HW2  219   1.241   1.127   0.531  0.6650 -1.4103  2.4418
   74SOL     OW  220   2.349   2.723   2.894  0.1689 -0.1574  0.1943
   74SOL    HW1  221   2.308   2.630   2.883 -1.3194  2.7035  0.5755
   74SOL    HW2  222   2.309   2.762   2.982  1.3130  2.0769  1.2442
   75SOL     OW  223   2.332   1.912   0.693  0.4465 -0.0412 -0.1931
   75SOL    HW1  224   2.340   1.867   0.782 -2.3651  6.2557  0.7611
   75SOL    HW2  225   2.337   1.841   0.620  0.2527  0.0709  1.0401
   76SOL     OW  226   2.116   2.498   1.622  0.7089 -0.3950  0.2377
   76SOL    HW1  227   2.199   2.497   1.560 -0.0572  0.9878  1.1314
   76SOL    HW2  228   2.127   2.428   1.698  0.9279 -2.1177  1.5957
   77SOL     OW  229   2.585   3.059   2.090 -0.3310  0.0895  0.4468
   77SOL    HW1  230   2.554   0.061   2.081  3.5995  0.6322  0.6513
   77SOL    HW2  231   2.553   2.999   2.012 -1.4277 -1.5397 -0.9481
   78SOL     OW  232   1.800   0.928   2.914 -0.5215  0.0262  0.0313
   78SOL    HW1  233   1.732   0.872   2.859 -0.9082  2.9523 -0.8290
   78SOL    HW2  234   1.828   0.871   2.993  0.6338 -0.0678  0.6282
   79SOL     OW  235   2.410   1.454   2.359 -0.4110 -0.3155 -0.0633
   79SOL    HW1  236   2.502   1.486   2.384  1.3607 -1.0380  0.9727
   79SOL    HW2  237   2.352   1.527   2.314 -0.6755  0.3187 -0.6894
   80SOL     OW  238   2.057   1.717   1.653 -0.5612 -0.1024  0.1899
   80SOL    HW1  239   1.975   1.717   1.715 -1.1165  0.6345 -1.8472
   80SOL    HW2  240   2.144   1.709   1.698 -2.2390 -0.7445 -0.0869
   81SOL     OW  241   1.730   0.661   1.449 -0.5044  0.4100 -0.2431
   81SOL    HW1  242   1.744   0.652   1.346 -0.4623 -1.0434  0.3519
   81SOL    HW2  243   1.642   0.700   1.472  2.3217 -2.4260 -2.2407
   82SOL     OW  244   1.755   2.567   1.573 -0.2004  0.2815  0.5799
   82SOL    HW1  245   1.793   2.478   1.545  0.6151  0.9383  0.1063
   82SOL    HW2  246   1.743   2.582   1.673  0.9473 -0.6699 -0.3657
   83SOL     OW  247   2.997   0.008   0.482  0.8262  0.2525 -0.3688
   83SOL    HW1  248   3.009   0.092   0.539 -2.3621 -1.1739  1.9790
   83SOL    HW2  249   3.028   0.011   0.386 -0.5167  0.4009 -0.2427
   84SOL     OW  250   0.414   1.010   0.191 -0.1195  0.3146  0.0763
   84SOL    HW1  251   0.431   1.019   0.293  1.8574 -1.6568 -0.3943
   84SOL    HW2  252   0.464   1.080   0.143 -1.8446  0.1859 -0.4167
   85SOL     OW  253   2.672   2.047   1.508  0.0615 -0.7435  0.0594
   85SOL    HW1  254   2.754   2.014   1.561  0.2295  0.5801 -1.1496
   85SOL    HW2  255   2.589   1.997   1.534  0.5265  0.7974 -1.7673
   86SOL     OW  256   0.158   2.699   1.362 -0.0445  0.8312  0.0766
   86SOL    HW1  257   0.156   2.600   1.330 -1.7654 -1.1252 -0.7081
   86SOL    HW2  258   0.236   2.737   1.308 -2.7657  1.6348  0.3962
   87SOL     OW  259   0.539   2.934   2.187 -0.1659  0.1681  0.1943
   87SOL    HW1  260   0.637   2.925   2.194  0.6067  1.0152  0.7163
   87SOL    HW2  261   0.502   2.997   2.257  0.2056  0.7344 -2.8826
   88SOL     OW  262   0.449   2.217   0.935  0.2696  0.5217 -0.0784
   88SOL    HW1  263   0.553   2.231   0.925  4.5053 -2.4739  1.1381
   88SOL    HW2  264   0.425   2.142   0.870  0.7116 -0.4324  0.3022
   89SOL     OW  265   1.009   0.775   1.742 -0.4929  0.1257 -0.0948
   89SOL    HW1  266   1.110   0.796   1.728  0.7799 -0.4795  0.0150
   89SOL    HW2  267   1.003   0.683   1.789 -0.2443 -3.4298  0.6090
   90SOL     OW  268   2.938   0.983   1.644 -0.5991  0.2726  0.3460
   90SOL    HW1  269   3.012   0.933   1.693  2.5642 -0.5389  1.9484
   90SOL    HW2  270   2.896   1.051   1.707 -1.5251 -1.3997  1.8475
   91SOL     OW  271   1.307   1.083   1.055 -1.0776 -0.5233 -0.4371
   91SOL    HW1  272   1.275   1.080   0.960 -2.0919  0.6047  1.1575
   91SOL    HW2  273   1.408   1.062   1.064  2.7616  1.4391 -2.7734
   92SOL     OW  274   2.254   1.283   0.787 -0.1214  0.3798 -0.8855
   92SOL    HW1  275   2.331   1.262   0.727 -5.2677  3.1978 -0.8552
   92SOL    HW2  276   2.260   1.376   0.833  2.1597  1.5337 -3.6305
   93SOL     OW  277   2.330   0.639   2.555  0.0136  0.0256 -0.3117
   93SOL    HW1  278   2.426   0.612   2.544 -1.2105  4.2300 -0.8389
   93SOL    HW2  279   2.273   0.598   2.479  0.9527 -0.1681 -0.9629
   94SOL     OW  280   2.255   1.909   2.528 -0.4575  0.2073 -0.5262
   94SOL    HW1  281   2.256   1.965   2.448 -1.0683 -2.9202  1.6169
   94SOL    HW2  282   2.242   1.960   2.613  2.1643 -1.3793 -0.0119
   95SOL     OW  283   2.167   0.783   1.197  0.2095  0.5369  0.0537
   95SOL    HW1  284   2.158   0.681   1.189  2.0316  1.1780 -1.6532
   95SOL    HW2  285   2.261   0.823   1.174  0.3407 -0.2305  2.2567
   96SOL     OW  286   2.551   3.015   1.701  0.1631 -0.0536 -0.5341
   96SOL    HW1  287   2.520   2.968   1.790 -2.2762 -1.5219  1.1407
   96SOL    HW2  288   2.478   3.017   1.635  4.1328  1.3358  0.9153
   97SOL     OW  289   2.418   0.909   1.195  0.5175 -0.2176 -0.2358
   97SOL    HW1  290   2.434   0.989   1.133 -2.1105  1.0402  0.8487
   97SOL    HW2  291   2.463   0.931   1.286  1.4625  3.4783  1.7375
   98SOL     OW  292   1.518   1.981   1.781 -0.5376  0.5607 -0.2610
   98SOL    HW1  293   1.427   1.949   1.758  3.1423  0.1941 -1.3839
   98SOL    HW2  294   1.522   2.081   1.766 -1.6844 -0.5323  0.9381
   99SOL     OW  295   2.926   2.342   1.642  0.3364  0.7755  0.1340
   99SOL    HW1  296   2.853   2.411   1.640 -0.3838 -0.7702  0.8047
   99SOL    HW2  297   2.997   2.375   1.706  1.0831 -0.6675 -0.8990
  100SOL     OW  298   1.080   0.834   3.004  0.0469  0.0169  0.6068
  100SOL    HW1  299   1.003   0.795   3.062 -2.0499 -0.7406  0.9203
  100SOL    HW2  300   1.147   0.896   3.049 -0.5719 -0.5228 -0.4096
  101SOL     OW  301   2.068   0.260   2.776  0.0801  0.0965  0.1258
  101SOL    HW1  302   2.018   0.171   2.797 -2.1972  0.3475  0.1782
  101SOL    HW2  303   2.085   0.308   2.866 -0.3247 -2.1003  3.7253
  102SOL     OW  304   0.661   0.532   1.897  0.0806 -0.2630  0.2749
  102SOL    HW1  305   0.619   0.624   1.917  0.8289  0.1913  0.0895
  102SOL    HW2  306   0.644   0.470   1.981 -2.2445  0.8597  1.2006
  103SOL     OW  307   0.426   0.522   2.864 -0.4759 -0.6041  0.1665
  103SOL    HW1  308   0.485   0.603   2.891  2.5111  0.2876 -1.0698
  103SOL    HW2  309   0.404   0.463   2.941 -3.1284  0.2292  0.9352
  104SOL     OW  310   1.138   0.473   2.504 -0.2850  0.3220  0.1750
  104SOL    HW1  311   1.098   0.482   2.414  0.8363 -0.3557  3.6039
  104SOL    HW2  312   1.083   0.409   2.560  3.1283  2.4668 -2.0713
  105SOL     OW  313   2.298   2.007   1.767 -0.9430  0.3752 -0.4320
  105SOL    HW1  314   2.286   1.921   1.822  0.8583 -0.1619  1.5058
  105SOL    HW2  315   2.364   2.075   1.814 -0.3029  0.4631  0.6027
  106SOL     OW  316   1.632   0.409   0.555 -0.0435  0.2830  0.1896
  106SOL    HW1  317   1.594   0.329   0.606  1.1559 -0.9175  0.8505
  106SOL    HW2  318   1.732   0.401   0.564 -1.7264 -0.6713  1.7239
  107SOL     OW  319   2.711   2.034   0.853 -0.4707 -0.0440  0.5884
  107SOL    HW1  320   2.686   2.051   0.951 -3.3352  0.3545  0.5707
  107SOL    HW2  321   2.797   2.076   0.821 -0.2620  1.5496 -0.7564
  108SOL     OW  322   2.779   2.696   1.358  0.3015 -0.3790 -0.0929
  108SOL    HW1  323   2.732   2.786   1.374 -0.2193  0.1012 -1.3706
  108SOL    HW2  324   2.871   2.708   1.314 -0.5452 -2.7405 -0.9201
  109SOL     OW  325   2.031   2.842   0.938  0.1357  0.5220 -0.4269
  109SOL    HW1  326   1.958   2.794   0.998 -2.4934 -2.8079  0.7413
  109SOL    HW2  327   2.066   2.933   0.975  1.7914  2.6636  3.9322
  110SOL     OW  328   0.546   1.977   2.350 -0.2581 -0.6484  0.2042
  110SOL    HW1  329   0.474   2.049   2.366 -2.0059  0.2565  0.1782
  110SOL    HW2  330   0.597   1.946   2.435  0.7254 -1.8303  3.0396
  111SOL     OW  331   1.744   2.425   2.085 -0.8167 -0.3002  0.6852
  111SOL    HW1  332   1.653   2.415   2.129  0.4709 -1.1371 -1.5998
  111SOL    HW2  333   1.766   2.345   2.023  2.2448 -2.2031 -0.1594
  112SOL     OW  334   1.924   1.872   0.003 -0.2596  0.0206 -0.5471
  112SOL    HW1  335   1.995   1.915   0.069  2.6646  1.4218  2.5648
  112SOL    HW2  336   1.978   1.834   3.022 -2.7000 -0.9574 -0.7294
  113SOL     OW  337   1.753   2.072   1.452 -0.0518  0.4500 -0.1449
  113SOL    HW1  338   1.837   2.122   1.431 -2.2852 -2.8531  0.4206
  113SOL    HW2  339   1.757   2.015   1.537 -2.2546  0.4185 -1.1308
  114SOL     OW  340   2.890   1.103   0.695 -0.6082 -0.0474 -0.1820
  114SOL    HW1  341   2.898   1.147   0.789  0.7381 -1.5822 -0.2991
  114SOL    HW2  342   2.792   1.089   0.681  0.4376  1.7683 -0.6881
  115SOL     OW  343   0.596   0.819   0.092  0.0794 -0.1934  0.2645
  115SOL    HW1  344   0.526   0.874   0.134  0.2254 -0.2782 -1.1854
  115SOL    HW2  345   0.580   0.723   0.126  1.3658 -0.8774 -0.0560
  116SOL     OW  346   2.621   1.587   2.442 -0.4144  0.3786 -0.2016
  116SOL    HW1  347   2.676   1.516   2.488  1.8488 -0.2140 -0.8555
  116SOL    HW2  348   2.608   1.672   2.492  1.1746 -0.6629 -0.4074
  117SOL     OW  349   0.076   2.893   0.739 -0.1324 -0.4594  0.2160
  117SOL    HW1  350   0.064   2.872   0.643 -0.0454  0.9317  0.2470
  117SOL    HW2  351   0.016   2.843   0.808 -1.3121 -1.4223  0.0625
  118SOL     OW  352   0.787   1.659   2.781 -0.2944 -0.3005  0.1145
  118SOL    HW1  353   0.822   1.653   2.875 -1.2875  3.3260  1.1111
  118SOL    HW2  354   0.695   1.624   2.768  1.2384 -0.9045 -2.4693
  119SOL     OW  355   0.441   2.162   0.424  0.2886  0.2621  0.2043
  119SOL    HW1  356   0.538   2.181   0.455  2.6328  2.2486  1.4283
  119SOL    HW2  357   0.386   2.247   0.433 -1.3130  0.2502 -1.3764
  120SOL     OW  358   1.251   0.439   0.124  0.0784 -0.0004  0.1077
  120SOL    HW1  359   1.213   0.399   0.213  0.9257 -0.0762 -0.2803
  120SOL    HW2  360   1.342   0.479   0.139  0.3052  0.7697 -1.9733
  121SOL     OW  361   1.325   2.545   0.584 -0.3006 -0.2641 -0.1982
  121SOL    HW1  362   1.376   2.463   0.619 -0.2953 -2.2942 -0.4240
  121SOL    HW2  363   1.354   2.566   0.489 -1.6615  0.6116  3.9033
  122SOL     OW  364   2.319   2.495   1.441  0.5006  0.6398  0.3092
  122SOL    HW1  365   2.417   2.499   1.420 -0.1050 -0.8132 -0.9477
  122SOL    HW2  366   2.260   2.550   1.377  0.0248 -0.3127  0.5476
  123SOL     OW  367   0.584   1.992   0.662  0.6514 -0.0134 -0.2191
  123SOL    HW1  368   0.481   1.997   0.668  0.1686 -0.8954 -4.5804
  123SOL    HW2  369   0.610   1.948   0.575  1.1504  0.8786 -1.0077
  124SOL     OW  370   2.734   0.551   0.187 -0.0501  0.4189  0.3651
  124SOL    HW1  371   2.808   0.481   0.202 -0.5920 -0.0703  0.5632
  124SOL    HW2  372   2.686   0.583   0.272  1.1471  1.2642 -1.7064
  125SOL     OW  373   0.513   1.011   0.442 -0.2032 -0.1239  0.3450
  125SOL    HW1  374   0.470   0.917   0.454  1.4129  3.2556  0.4540
  125SOL    HW2  375   0.535   1.047   0.533 -3.4834  0.0877 -0.8844
  126SOL     OW  376   0.063   1.915   1.057  0.0513 -0.0510 -0.5227
  126SOL    HW1  377   0.090   1.827   1.017  0.7137  3.2090  0.3181
  126SOL    HW2  378   0.009   1.909   1.148 -3.5415  0.9301 -1.6946
  127SOL     OW  379   1.204   1.942   1.968 -0.5066  0.4491 -0.4585
  127SOL    HW1  380   1.194   2.003   2.048  1.8787 -0.0804  0.1675
  127SOL    HW2  381   1.186   1.994   1.885 -0.8424  0.8402  2.7747
  128SOL     OW  382   1.061   1.068   0.535 -0.6360 -0.3155  0.0463
  128SOL    HW1  383   1.097   1.000   0.466 -0.3640 -0.8772 -0.2076
  128SOL    HW2  384   1.019   1.148   0.495 -4.0215 -0.1130  1.0589
  129SOL     OW  385   1.993   1.218   0.838  0.1028 -0.0310  0.0969
  129SOL    HW1  386   2.082   1.236   0.796  0.0031 -0.4805 -0.4867
  129SOL    HW2  387   1.927   1.293   0.806 -0.5539 -0.4540 -1.1343
  130SOL     OW  388   2.525   1.576   1.397  0.2468 -0.7293 -0.0459
  130SOL    HW1  389   2.620   1.586   1.377  0.8932 -2.1142  0.5488
  130SOL    HW2  390   2.476   1.499   1.356  0.4156  0.1469  0.9431
  131SOL     OW  391   3.047   2.602   2.889  0.1136 -0.5063  0.2563
  131SOL    HW1  392   2.950   2.590   2.915  0.8088  2.9538 -1.7840
  131SOL    HW2  393   3.069   2.703   2.904  0.1193  2.0029 -0.9235
  132SOL     OW  394   0.063   1.294   0.705 -0.4088 -0.2162  0.1571
  132SOL    HW1  395   0.059   1.279   0.605 -0.4093  0.6234 -1.8318
  132SOL    HW2  396   0.120   1.215   0.748  0.8724 -2.5736 -0.7010
  133SOL     OW  397   0.674   0.373   1.664  0.4957 -0.1662  0.7386
  133SOL    HW1  398   0.672   0.452   1.728  0.5920  0.5250  0.7192
  133SOL    HW2  399   0.766   0.340   1.653 -1.3779 -0.7620  1.7556
  134SOL     OW  400   0.223   1.836   2.849 -0.1767 -0.3265 -0.2081
  134SOL    HW1  401   0.233   1.905   2.925 -0.9539  0.9600 -0.3325
  134SOL    HW2  402   0.246   1.878   2.761 -0.4763 -0.5932  0.6756
  135SOL     OW  403   1.734   0.726   1.824  0.1698  0.0570 -0.7496
  135SOL    HW1  404   1.815   0.787   1.818  2.7958 -0.5472 -1.5306
  135SOL    HW2  405   1.644   0.777   1.852 -3.5477  3.0498 -0.0276
  136SOL     OW  406   3.061   1.136   0.127 -0.3032 -0.2479  0.1058
  136SOL    HW1  407   0.038   1.074   0.170  0.1480 -2.1147 -1.2480
  136SOL    HW2  408   2.975   1.141   0.182  0.5401  2.0503 -0.9036
  137SOL     OW  409   0.100   1.217   1.009 -0.4136 -0.1187 -0.1529
  137SOL    HW1  410   0.157   1.141   0.975 -2.3912  1.0448  0.6649
  137SOL    HW2  411   0.133   1.310   0.985  0.0910  0.6710 -0.2636
  138SOL     OW  412   1.923   0.882   1.151  0.2667 -0.4378  0.2348
  138SOL    HW1  413   2.022   0.859   1.157  1.0854  0.9447  0.5589
  138SOL    HW2  414   1.866   0.805   1.123  0.4102  1.9712  0.5783
  139SOL     OW  415   1.374   2.641   0.323 -0.3238 -0.2874 -0.1735
  139SOL    HW1  416   1.441   2.658   0.248  2.5698  1.0847  1.2371
  139SOL    HW2  417   1.324   2.726   0.344  0.7591  0.4269 -1.0192
  140SOL     OW  418   1.424   1.589   1.847  0.5182 -0.0240  0.7349
  140SOL    HW1  419   1.386   1.674   1.807 -0.3845 -1.7098  2.2022
  140SOL    HW2  420   1.376   1.508   1.812 -0.8742  0.8607  0.6528
  141SOL     OW  421   1.525   2.024   0.441 -0.4504 -0.2716  0.1841
  141SOL    HW1  422   1.603   2.072   0.491 -0.0072 -1.0480  0.3806
  141SOL    HW2  423   1.548   1.926   0.423  0.3146 -2.3015  0.7793
  142SOL     OW  424   0.982   0.428   0.337 -0.1956  0.0798  0.0871
  142SOL    HW1  425   0.969   0.457   0.242 -1.3597  1.9231  0.1990
  142SOL    HW2  426   0.926   0.489   0.393 -3.3972 -1.1917  1.8576
  143SOL     OW  427   0.289   1.984   2.606  0.0401  0.3676  0.0072
  143SOL    HW1  428   0.253   2.042   2.685 -0.7198 -0.5001 -1.4508
  143SOL    HW2  429   0.305   2.045   2.523 -0.1183  2.8375 -1.6214
  144SOL     OW  430   1.444   2.554   1.048 -0.0213 -0.2827  0.3304
  144SOL    HW1  431   1.503   2.466   1.063  4.2925  0.0863 -1.5257
  144SOL    HW2  432   1.472   2.623   1.118 -0.9941  1.1395  1.1556
  145SOL     OW  433   2.007   0.982   2.725 -0.4593 -0.0069 -0.6468
  145SOL    HW1  434   2.093   1.010   2.781  1.0055  0.5444  0.7665
  145SOL    HW2  435   1.930   0.953   2.786 -1.3978  2.6777  2.0478
  146SOL     OW  436   0.269   2.551   0.836 -0.7496 -1.4578  0.7255
  146SOL    HW1  437   0.278   2.642   0.889 -0.6324  2.6327  0.2139
  146SOL    HW2  438   0.175   2.549   0.793  0.3623 -0.5925 -0.3242
  147SOL     OW  439   2.153   3.035   1.954 -0.1311 -0.6487 -0.6762
  147SOL    HW1  440   2.150   2.935   1.928  0.4893 -1.9668 -0.5466
  147SOL    HW2  441   2.077   3.083   1.914  0.7836 -0.5246  2.3890
  148SOL     OW  442   0.776   3.043   2.003 -0.1117  0.5135  0.2769
  148SOL    HW1  443   0.877   3.051   2.000 -1.5745 -1.5476 -0.3355
  148SOL    HW2  444   0.741   2.966   1.949  1.6220  0.5148 -0.6290
  149SOL     OW  445   1.679   0.350   2.531  0.4845 -0.0964 -0.5155
  149SOL    HW1  446   1.584   0.351   2.575 -1.6364 -0.0122  2.1699
  149SOL    HW2  447   1.677   0.406   2.447  0.8266  0.5945  3.0495
  150SOL     OW  448   3.088   3.088   0.211  0.3650  0.3097 -0.2541
  150SOL    HW1  449   2.995   3.074   0.170 -2.1970  0.1130  0.3410
  150SOL    HW2  450   0.037   0.084   0.186 -0.6759 -0.6611 -1.3960
  151SOL     OW  451   0.725   1.717   0.509 -0.1927  0.3677 -0.2472
  151SOL    HW1  452   0.793   1.793   0.510 -0.0117 -3.5309  0.8481
  151SOL    HW2  453   0.702   1.694   0.415  0.6276 -0.2814 -0.4991
  152SOL     OW  454   2.878   0.316   0.274  0.3088  0.1092 -0.2828
  152SOL    HW1  455   2.795   0.267   0.259  0.8234  0.5763 -1.3746
  152SOL    HW2  456   2.878   0.372   0.357  1.7088  1.1542 -0.8471
  153SOL     OW  457   2.696   0.310   1.285  0.1541 -0.0189 -0.2541
  153SOL    HW1  458   2.795   0.320   1.302 -3.0901 -1.2294  0.4954
  153SOL    HW2  459   2.657   0.389   1.233 -2.5408  1.0253  2.0724
  154SOL     OW  460   1.253   0.032   2.135  0.7748 -0.3957 -0.3098
  154SOL    HW1  461   1.299   0.100   2.196 -2.1704 -0.2371 -0.4267
  154SOL    HW2  462   1.319   3.073   2.087 -3.5778 -0.2355  0.8278
  155SOL     OW  463   0.521   1.939   1.036  0.2438 -0.5322 -0.4313
  155SOL    HW1  464   0.437   1.941   0.979 -1.1715  1.5772  0.3600
  155SOL    HW2  465   0.531   2.006   1.109  2.5013  1.0448  0.6257
  156SOL     OW  466   2.270   2.131   0.105 -0.2362 -0.1973 -0.1932
  156SOL    HW1  467   2.253   2.233   0.135 -0.1064  3.6021  1.2813
  156SOL    HW2  468   2.210   2.067   0.157  0.3410 -0.6820 -0.7741
  157SOL     OW  469   0.802   0.758   0.359  0.0583  0.3000 -0.8116
  157SOL    HW1  470   0.717   0.706   0.366  1.1294 -0.0755 -0.0060
  157SOL    HW2  471   0.831   0.767   0.264  0.2806 -1.2278  0.4189
  158SOL     OW  472   2.441   0.067   2.737 -0.4030 -0.1934  0.4317
  158SOL    HW1  473   2.468   0.038   2.832 -0.8773 -0.2532 -0.1003
  158SOL    HW2  474   2.407   0.160   2.741  1.5468 -1.8462 -0.2814
  159SOL     OW  475   3.018   0.248   0.612  0.1639  0.1920 -0.3167
  159SOL    HW1  476   3.054   0.341   0.614  1.5284 -0.7149 -0.3851
  159SOL    HW2  477   3.074   0.192   0.680  0.0381  0.1502 -0.1257
  160SOL     OW  478   1.452   1.861   2.406  0.0406 -0.0878  0.2859
  160SOL    HW1  479   1.377   1.828   2.465  1.7060  3.1776 -0.2628
  160SOL    HW2  480   1.428   1.849   2.307 -1.8703  0.0057  0.7497
  161SOL     OW  481   2.979   0.898   2.660 -0.0875  0.5931 -0.1609
  161SOL    HW1  482   2.934   0.808   2.656  1.2945  2.2937  0.7872
  161SOL    HW2  483   2.992   0.919   2.763 -1.0504 -0.3451  1.3861
  162SOL     OW  484   0.383   2.314   1.371  0.1074  0.2026 -0.2767
  162SOL    HW1  485   0.324   2.258   1.435  0.3219 -1.1789  2.5565
  162SOL    HW2  486   0.441   2.254   1.315  1.8448 -0.0474 -0.4765
  163SOL     OW  487   2.024   0.266   2.274  0.0645  0.0761 -0.5719
  163SOL    HW1  488   2.071   0.178   2.264 -0.7589  1.5880  0.2792
  163SOL    HW2  489   1.997   0.283   2.374  0.8507  1.6594  0.3110
  164SOL     OW  490   2.157   1.678   0.211  0.2439  0.0677  0.3716
  164SOL    HW1  491   2.075   1.678   0.145 -1.2800 -1.1967 -0.8209
  164SOL    HW2  492   2.146   1.599   0.272  0.9023  1.1397  2.0339
  165SOL     OW  493   0.085   0.357   1.373 -0.3320  0.4180 -0.1189
  165SOL    HW1  494   0.102   0.456   1.377  0.6007 -3.5414  1.2501
  165SOL    HW2  495   0.079   0.322   1.278 -0.3959  0.1508  0.7913
  166SOL     OW  496   2.184   1.064   2.904 -0.2195 -0.1907 -0.0572
  166SOL    HW1  497   2.266   1.031   2.949 -1.2144  0.1953 -1.7682
  166SOL    HW2  498   2.131   1.126   2.965  0.2457 -1.0515  1.2220
  167SOL     OW  499   2.819   0.786   0.067  0.9419  0.3109  0.2731
  167SOL    HW1  500   2.793   0.686   0.071 -2.7967  2.7220  1.2776
  167SOL    HW2  501   2.913   0.794   0.033 -2.7641 -2.0162  1.4520
  168SOL     OW  502   1.595   2.761   2.560  0.0587 -0.1592 -0.1172
  168SOL    HW1  503   1.509   2.802   2.600 -0.4355  1.2643  0.6764
  168SOL    HW2  504   1.658   2.743   2.638 -0.7366 -0.1313 -1.1498
  169SOL     OW  505   0.441   1.512   0.497 -0.4512 -0.2175  0.2463
  169SOL    HW1  506   0.451   1.467   0.586  1.9183 -0.1171 -0.0592
  169SOL    HW2  507   0.452   1.446   0.424  1.7096  3.1359  0.8926
  170SOL     OW  508   0.410   0.306   1.284 -0.1847 -0.7284 -0.4724
  170SOL    HW1  509   0.431   0.343   1.378 -0.8580 -1.6884  1.0854
  170SOL    HW2  510   0.494   0.290   1.229 -0.0673  0.2542  0.4156
  171SOL     OW  511   1.224   2.299   2.765  0.3700 -0.4953  0.2643
  171SOL    HW1  512   1.200   2.240   2.681  2.1546 -0.9232 -0.8358
  171SOL    HW2  513   1.310   2.355   2.743  5.4758  0.3534 -0.8793
  172SOL     OW  514   3.003   2.779   1.237 -0.3113 -0.4059  0.3281
  172SOL    HW1  515   3.012   2.701   1.171 -1.3615 -0.5308  2.1254
  172SOL    HW2  516   3.083   2.790   1.302 -2.0324  0.8782  1.4845
  173SOL     OW  517   1.443   0.457   2.953  0.1111  0.8260 -0.2657
  173SOL    HW1  518   1.391   0.469   3.041  0.7775  1.4464 -3.2208
  173SOL    HW2  519   1.515   0.529   2.943  1.8179  0.6321 -0.0765
  174SOL     OW  520   1.102   0.079   2.687 -0.3203  0.7289  0.7384
  174SOL    HW1  521   1.052   3.088   2.663 -0.0579  2.1181  1.6161
  174SOL    HW2  522   1.091   0.092   2.787 -2.0998  2.4510 -1.6465
  175SOL     OW  523   2.123   2.047   0.495  0.2597  0.2073  0.3498
  175SOL    HW1  524   2.112   2.129   0.553  0.0431 -1.6047  0.0898
  175SOL    HW2  525   2.101   1.965   0.554  0.0186  2.2394  2.2100
  176SOL     OW  526   1.376   0.086   2.907 -0.4274 -0.1677  0.4942
  176SOL    HW1  527   1.300   0.155   2.892  0.3167  0.5928  1.0652
  176SOL    HW2  528   1.342   3.088   2.938  1.0873 -0.7727 -1.3925
  177SOL     OW  529   1.141   1.506   0.273  0.2719  0.5687 -0.0639
  177SOL    HW1  530   1.083   1.591   0.258 -0.6891  0.8510  1.0335
  177SOL    HW2  531   1.212   1.498   0.201  1.6381  0.3757  0.9391
  178SOL     OW  532   2.464   2.329   2.999 -0.3272 -1.0176 -0.3966
  178SOL    HW1  533   2.443   2.397   3.071 -0.1426  0.5065 -0.0812
  178SOL    HW2  534   2.428   2.239   3.028 -0.4025 -1.5339  0.3793
  179SOL     OW  535   2.599   2.814   2.935 -0.0332 -0.1727 -0.1609
  179SOL    HW1  536   2.504   2.781   2.914  0.2856 -1.6268  1.4740
  179SOL    HW2  537   2.654   2.808   2.850 -1.7812 -1.2351  1.1172
  180SOL     OW  538   1.627   1.530   0.918  0.2335 -0.3765  0.4489
  180SOL    HW1  539   1.597   1.617   0.970 -0.0638  0.0393  2.8443
  180SOL    HW2  540   1.561   1.453   0.938 -0.4249  0.4689  1.8607
  181SOL     OW  541   1.738   0.767   2.389  0.1707  0.7402  0.1616
  181SOL    HW1  542   1.747   0.865   2.374  0.3423 -2.5291  1.1199
  181SOL    HW2  543   1.749   0.716   2.305 -4.6718  0.9019 -1.4207
  182SOL     OW  544   2.554   0.120   2.482  0.0092  0.2080  0.5851
  182SOL    HW1  545   2.515   0.086   2.574 -0.3915 -2.3348  1.8275
  182SOL    HW2  546   2.493   0.187   2.439 -0.0236  0.7696  0.7810
  183SOL     OW  547   1.779   0.640   2.161 -0.4167  0.4216  0.1851
  183SOL    HW1  548   1.861   0.649   2.101 -0.3581  1.4509 -0.9646
  183SOL    HW2  549   1.763   0.545   2.195 -0.4255  0.7464  2.5405
  184SOL     OW  550   2.992   1.250   1.229  0.0842 -0.0379 -0.4283
  184SOL    HW1  551   3.056   1.212   1.159 -1.5371  1.1644 -1.2807
  184SOL    HW2  552   2.937   1.169   1.260 -1.1860 -1.1978  0.9917
  185SOL     OW  553   1.965   0.677   0.444  0.2921  0.3369  0.5392
  185SOL    HW1  554   1.967   0.774   0.469 -0.4995 -1.0666 -1.1757
  185SOL    HW2  555   2.059   0.640   0.474  0.4977 -0.9377 -2.4355
  186SOL     OW  556   0.335   2.573   3.060  0.2631  0.0747 -0.2920
  186SOL    HW1  557   0.427   2.593   3.022 -3.4689 -1.6531 -1.1856
  186SOL    HW2  558   0.322   2.609   0.060  1.1050  0.6075  0.5030
  187SOL     OW  559   2.381   0.861   2.934 -0.0879 -0.4053  0.5236
  187SOL    HW1  560   2.372   0.916   2.848  1.3263  2.3259 -0.5614
  187SOL    HW2  561   2.483   0.864   2.960 -0.9141 -0.1374 -0.0992
  188SOL     OW  562   3.020   1.500   1.374 -0.0703  0.2955 -0.4559
  188SOL    HW1  563   2.973   1.408   1.368 -2.5601  2.6820  2.9372
  188SOL    HW2  564   3.070   1.513   1.459  1.1273  2.8356 -1.3524
  189SOL     OW  565   2.600   0.291   2.964  0.0532 -0.4151  0.6184
  189SOL    HW1  566   2.569   0.339   2.874  1.5312  0.7491 -2.3211
  189SOL    HW2  567   2.546   0.333   3.037 -1.8133  2.3959 -0.5871
  190SOL     OW  568   1.419   1.077   1.831 -0.0498  0.5069  0.1283
  190SOL    HW1  569   1.474   1.018   1.759  0.7485  0.1883 -0.1786
  190SOL    HW2  570   1.489   1.108   1.902  3.0945  1.0246  0.7572
  191SOL     OW  571   0.576   0.379   2.103  0.5706  0.0585 -0.0869
  191SOL    HW1  572   0.600   0.296   2.046  1.4289 -1.8587  1.3496
  191SOL    HW2  573   0.481   0.414   2.088 -1.5381 -0.2095  0.1359
  192SOL     OW  574   2.067   1.487   1.190  0.2931  0.3162 -0.0572
  192SOL    HW1  575   1.991   1.529   1.130  0.3088  2.1836 -0.5319
  192SOL    HW2  576   2.040   1.492   1.287  1.0145  1.5587 -2.3249
  193SOL     OW  577   1.513   0.767   1.108 -0.1797  0.0822  0.5920
  193SOL    HW1  578   1.477   0.830   1.033 -1.1695  1.1047  1.3300
  193SOL    HW2  579   1.453   0.684   1.122 -1.7023 -3.1106  1.6047
  194SOL     OW  580   0.797   2.472   1.667 -0.1090 -0.3195  0.6738
  194SOL    HW1  581   0.887   2.501   1.633 -1.0617  1.2821 -0.7832
  194SOL    HW2  582   0.777   2.376   1.640  1.4840  1.0624  1.3365
  195SOL     OW  583   1.952   0.058   0.012 -0.0960  0.3013  0.1423
  195SOL    HW1  584   1.929   0.052   3.005  2.9516 -0.6747 -0.4460
  195SOL    HW2  585   2.052   0.053   0.027  2.5744  0.0451  2.3337
  196SOL     OW  586   0.783   1.962   1.853 -0.0424  0.5093 -0.0125
  196SOL    HW1  587   0.813   1.978   1.758  2.4893 -0.2656 -3.8061
  196SOL    HW2  588   0.852   1.993   1.920 -1.9669 -1.5759  1.3617
  197SOL     OW  589   1.164   0.053   1.286 -0.3081  0.0263 -0.3497
  197SOL    HW1  590   1.141   0.135   1.341 -1.0182  0.3573  1.5534
  197SOL    HW2  591   1.118   0.050   1.195  1.1128 -0.1687 -1.9184
  198SOL     OW  592   0.826   1.015   1.060 -0.2619  0.1219  0.0164
  198SOL    HW1  593   0.843   1.027   1.159 -1.0702 -1.9229 -0.1433
  198SOL    HW2  594   0.794   0.915   1.042  2.4790 -1.6584 -0.7095
  199SOL     OW  595   0.086   2.792   1.610  0.8062 -0.0385 -0.2452
  199SOL    HW1  596   0.176   2.834   1.631 -2.2445  1.0095  1.4638
  199SOL    HW2  597   0.077   2.766   1.512 -0.7976  1.3866  2.2476
  200SOL     OW  598   2.027   2.088   2.088 -0.4830 -0.0182 -0.0422
  200SOL    HW1  599   1.991   2.138   2.005  0.0875  0.0465  1.7745
  200SOL    HW2  600   2.119   2.113   2.125  1.9403 -0.2315 -1.6519
  201SOL     OW  601   0.348   1.609   2.069 -0.1973  0.3874  0.1811
  201SOL    HW1  602   0.374   1.526   2.016  0.9353  3.1745 -1.8216
  201SOL    HW2  603   0.430   1.669   2.070 -0.8682 -1.9618 -0.6550
  202SOL     OW  604   1.962   0.533   0.223  0.3645 -0.3686  0.1913
  202SOL    HW1  605   1.874   0.544   0.164 -2.2803  1.2753 -1.7742
  202SOL    HW2  606   1.944   0.582   0.310  0.8061 -0.7669  1.5698
  203SOL     OW  607   1.017   2.431   2.301  0.2818 -0.1061 -0.2012
  203SOL    HW1  608   0.992   2.377   2.386  2.1049 -0.7500  0.4187
  203SOL    HW2  609   1.009   2.537   2.310  0.4613  0.4831  1.5211
  204SOL     OW  610   1.100   2.036   1.735 -0.1856  0.3674 -0.3445
  204SOL    HW1  611   1.016   2.021   1.678  0.0390 -0.7858  0.4927
  204SOL    HW2  612   1.102   2.132   1.762 -0.7803 -1.6441  0.9076
  205SOL     OW  613   1.674   1.769   2.105 -0.0272 -0.6818 -0.0842
  205SOL    HW1  614   1.571   1.777   2.115 -1.5525 -1.0683  0.6181
  205SOL    HW2  615   1.699   1.725   2.017 -0.6367 -1.2835  1.9066
  206SOL     OW  616   0.509   0.719   2.414  0.0465  0.4916  0.0244
  206SOL    HW1  617   0.523   0.646   2.483  0.2264  1.5646  1.5238
  206SOL    HW2  618   0.518   0.811   2.455  0.3689 -2.1024 -0.9269
  207SOL     OW  619   1.129   2.737   1.963  0.0886  0.2509 -0.1231
  207SOL    HW1  620   1.060   2.812   1.960  1.0231  0.5593 -0.9814
  207SOL    HW2  621   1.157   2.718   1.864  0.2035  0.9514  0.5645
  208SOL     OW  622   0.617   2.868   1.831  0.7695 -0.0678 -0.7478
  208SOL    HW1  623   0.623   2.782   1.774  2.4545 -0.2073  0.3904
  208SOL    HW2  624   0.530   2.874   1.887 -2.0839  1.1310  0.9284
  209SOL     OW  625   1.499   0.223   0.004  0.5811  0.3760 -0.5201
  209SOL    HW1  626   1.463   0.162   3.020 -1.4480 -2.3006  2.4702
  209SOL    HW2  627   1.577   0.279   3.069  0.2005 -2.4938 -1.1671
  210SOL     OW  628   2.863   0.590   0.467  0.3383  0.0359 -0.6250
  210SOL    HW1  629   2.809   0.577   0.558 -1.0263 -1.1198  2.8732
  210SOL    HW2  630   2.870   0.684   0.435 -2.1945  0.0895 -3.6474
  211SOL     OW  631   0.758   0.383   1.379  0.0003  0.2093 -0.4451
  211SOL    HW1  632   0.735   0.480   1.403 -1.2617 -1.1501  1.2070
  211SOL    HW2  633   0.729   0.320   1.456  0.4192 -2.0979 -0.2396
  212SOL     OW  634   1.443   1.973   1.167  0.2127  0.6200 -0.0626
  212SOL    HW1  635   1.497   1.891   1.125 -0.4349 -3.3124 -1.3129
  212SOL    HW2  636   1.378   2.010   1.101  2.8161 -0.2751  2.3358
  213SOL     OW  637   2.239   0.380   1.690 -0.0290 -0.3382  0.3377
  213SOL    HW1  638   2.279   0.298   1.730 -0.8689  2.2830  1.1103
  213SOL    HW2  639   2.293   0.461   1.715 -2.8370 -1.9894 -0.2010
  214SOL     OW  640   0.856   2.477   2.635  0.0369  0.0185  0.2540
  214SOL    HW1  641   0.829   2.513   2.730  1.4499  1.2289  0.6048
  214SOL    HW2  642   0.780   2.427   2.593 -0.4265  2.7685  1.4217
  215SOL     OW  643   2.752   1.635   1.598 -0.1818 -0.4567  0.2869
  215SOL    HW1  644   2.765   1.581   1.514 -0.7071 -0.0345 -0.9983
  215SOL    HW2  645   2.820   1.707   1.593 -1.0009 -1.9305 -1.2357
  216SOL     OW  646   0.654   1.044   1.636  0.5151 -0.1401  0.0801
  216SOL    HW1  647   0.612   1.105   1.706 -1.0284  0.3463 -2.3886
  216SOL    HW2  648   0.583   0.982   1.599  1.9953  2.1974  0.3294
  217SOL     OW  649   2.639   0.336   0.541 -0.1903 -0.4357 -0.5310
  217SOL    HW1  650   2.633   0.427   0.590  0.2182 -0.2271  1.7896
  217SOL    HW2  651   2.685   0.267   0.599  0.9843  0.6264 -0.2851
  218SOL     OW  652   1.819   2.060   1.089  0.1365  0.4790  0.0261
  218SOL    HW1  653   1.884   2.135   1.066 -1.7447 -1.1765 -0.1248
  218SOL    HW2  654   1.726   2.075   1.053  0.9930  1.2119  1.8379
  219SOL     OW  655   1.582   2.900   0.509 -0.4320 -0.4682 -0.2598
  219SOL    HW1  656   1.482   2.885   0.511  0.4872 -0.4497  1.0929
  219SOL    HW2  657   1.634   2.820   0.550  1.5575  1.4666 -1.5022
  220SOL     OW  658   1.709   2.136   0.641  0.3707 -0.0570  0.2521
  220SOL    HW1  659   1.773   2.195   0.696  0.8674  0.3390  0.5095
  220SOL    HW2  660   1.755   2.052   0.601 -0.1827 -1.9088  1.7126
  221SOL     OW  661   2.761   1.009   0.201  0.0599  0.1371 -0.4759
  221SOL    HW1  662   2.700   1.075   0.152 -3.9839 -0.1840  0.3180
  221SOL    HW2  663   2.783   0.927   0.140  0.1091 -4.5182  0.2404
  222SOL     OW  664   0.810   2.273   1.291 -0.2647  0.6145 -0.1199
  222SOL    HW1  665   0.822   2.377   1.299 -0.3821  0.8554 -0.2185
  222SOL    HW2  666   0.896   2.227   1.253 -1.5572  1.7434 -2.9852
  223SOL     OW  667   1.438   0.202   0.272 -0.1796  0.3909  0.1595
  223SOL    HW1  668   1.405   0.291   0.293 -0.1722 -3.8283  0.8808
  223SOL    HW2  669   1.454   0.191   0.169  1.9448 -1.2486 -0.0857
  224SOL     OW  670   2.780   0.925   0.937 -0.1614 -0.2564  0.0841
  224SOL    HW1  671   2.802   0.888   1.028 -0.2919 -0.7476  1.5910
  224SOL    HW2  672   2.815   1.022   0.929 -0.6124  3.0321  1.5976
  225SOL     OW  673   0.779   1.594   1.338 -0.5043  0.3604 -0.0660
  225SOL    HW1  674   0.807   1.592   1.238 -0.1789  3.1913  0.5423
  225SOL    HW2  675   0.709   1.527   1.348  2.6445  0.6240 -1.4597
  226SOL     OW  676   0.612   2.711   0.755  0.0344 -0.2069  0.6405
  226SOL    HW1  677   0.644   2.745   0.660  1.6878 -0.2241 -0.7803
  226SOL    HW2  678   0.559   2.621   0.748  0.0010 -0.6785 -2.9613
  227SOL     OW  679   1.283   1.795   1.746 -0.3555 -0.1405  0.4696
  227SOL    HW1  680   1.209   1.746   1.693 -1.7006 -1.2113  0.4322
  227SOL    HW2  681   1.246   1.846   1.827  1.1107 -0.6290 -1.7228
  228SOL     OW  682   0.897   0.147   1.781 -0.3432  0.1504 -0.1646
  228SOL    HW1  683   0.913   0.194   1.869  0.2068  1.7145  0.3899
  228SOL    HW2  684   0.961   0.068   1.766 -1.8314 -1.4520  3.0142
  229SOL     OW  685   2.662   0.648   2.832  0.0530  0.5235 -0.9292
  229SOL    HW1  686   2.652   0.734   2.891  0.4590  2.2221  1.0496
  229SOL    HW2  687   2.719   0.575   2.873 -0.5133  3.7177 -0.7144
  230SOL     OW  688   0.424   0.667   1.399  0.4889 -0.1630 -0.1354
  230SOL    HW1  689   0.391   0.636   1.305 -0.5543 -0.3802 -2.4663
  230SOL    HW2  690   0.407   0.591   1.466  2.1451 -0.6316  2.2840
  231SOL     OW  691   0.973   2.905   1.464  0.1828 -0.7847  0.4856
  231SOL    HW1  692   0.927   2.984   1.412 -2.2589  1.2679  0.0731
  231SOL    HW2  693   1.065   2.883   1.429 -1.2912  0.0468 -1.2000
  232SOL     OW  694   0.021   2.115   0.405  0.3783  0.3506 -0.5040
  232SOL    HW1  695   0.101   2.061   0.437  0.4934  1.3292  2.8529
  232SOL    HW2  696   0.045   2.181   0.331  0.2315 -1.1297  0.1646
  233SOL     OW  697   1.062   2.608   2.918 -0.3861 -0.0651  0.0262
  233SOL    HW1  698   1.072   2.648   2.821 -1.2562  0.4330 -3.4509
  233SOL    HW2  699   1.154   2.594   2.964  2.7537  1.9030 -0.7114
  234SOL     OW  700   0.560   1.186   1.857 -0.6503 -0.4487 -0.4425
  234SOL    HW1  701   0.512   1.104   1.894  1.7499  1.0654  1.5545
  234SOL    HW2  702   0.611   1.230   1.938  1.3679 -0.1001 -0.6217
  235SOL     OW  703   0.019   2.254   2.582 -0.2858  0.5732  0.1074
  235SOL    HW1  704   0.034   2.273   2.486  0.3153  0.3431  2.9951
  235SOL    HW2  705   3.050   2.330   2.615  0.8572  3.1863  1.5761
  236SOL     OW  706   1.658   2.256   3.047  0.0737  0.0114  0.4817
  236SOL    HW1  707   1.574   2.233   2.991 -2.3423  0.5096  0.0221
  236SOL    HW2  708   1.699   2.171   3.087 -0.4095  1.3334 -0.5011
  237SOL     OW  709   1.829   1.009   0.926  0.1989  0.5333  0.1734
  237SOL    HW1  710   1.857   0.971   1.017  0.0743 -0.3790 -0.1787
  237SOL    HW2  711   1.887   1.095   0.909  5.0610 -0.8233 -1.5282
  238SOL     OW  712   1.122   2.461   2.013 -0.2114 -0.1330 -0.2435
  238SOL    HW1  713   1.070   2.436   2.096 -1.4858  1.0870  1.1445
  238SOL    HW2  714   1.138   2.560   2.004  2.1200 -2.5313 -2.7859
  239SOL     OW  715   0.707   2.463   1.923  0.3710 -0.6518 -0.3505
  239SOL    HW1  716   0.692   2.362   1.923 -1.1386  0.3003  0.1625
  239SOL    HW2  717   0.746   2.496   1.830  2.4453 -0.3081 -3.6989
  240SOL     OW  718   2.549   0.083   0.661  0.1630 -0.5909 -0.3270
  240SOL    HW1  719   2.640   0.127   0.691  1.4833  2.1594  2.5950
  240SOL    HW2  720   2.476   0.149   0.637 -0.7453  0.8747 -0.6626
  241SOL     OW  721   1.212   1.535   2.994  0.0100 -0.2601 -1.0578
  241SOL    HW1  722   1.130   1.479   3.012 -1.2197 -2.5097 -2.5335
  241SOL    HW2  723   1.270   1.493   2.921  0.0675  1.1478 -0.9581
  242SOL     OW  724   2.638   0.890   2.976  0.9350 -0.3420  0.2847
  242SOL    HW1  725   2.703   0.853   3.047  1.4290 -0.7622 -0.2701
  242SOL    HW2  726   2.680   0.963   2.921  0.7448  0.8593 -2.7902
  243SOL     OW  727   0.959   0.560   1.936  0.0703 -0.0860 -0.0265
  243SOL    HW1  728   1.005   0.606   2.016 -1.1323 -0.0444 -1.3207
  243SOL    HW2  729   0.860   0.548   1.952  0.3623 -0.2334 -1.7506
  244SOL     OW  730   1.306   2.578   3.037 -0.1287  0.0249  0.4563
  244SOL    HW1  731   1.404   2.553   3.011 -0.7129  0.5914 -0.6942
  244SOL    HW2  732   1.284   2.539   0.033 -2.5119 -0.4827 -0.9556
  245SOL     OW  733   1.747   2.486   0.098 -0.5757 -0.4461  0.0064
  245SOL    HW1  734   1.725   2.400   0.052  0.9824  3.0256 -0.6071
  245SOL    HW2  735   1.827   2.473   0.160  0.2272 -1.4637 -0.4874
  246SOL     OW  736   0.827   1.032   2.137  0.4231 -0.1846 -0.3677
  246SOL    HW1  737   0.837   0.932   2.150  2.5217  0.3839  0.9916
  246SOL    HW2  738   0.752   1.057   2.206  0.2494  1.4749 -0.8671
  247SOL     OW  739   0.086   0.697   2.533  0.2089 -0.2758 -0.0797
  247SOL    HW1  740   0.001   0.715   2.581 -0.3156  2.0614 -0.7340
  247SOL    HW2  741   0.130   0.618   2.584  0.0462 -1.5508 -0.8944
  248SOL     OW  742   0.120   1.222   2.020  0.3361 -0.5264 -0.1218
  248SOL    HW1  743   0.035   1.163   2.014 -0.3715  2.2984  1.1507
  248SOL    HW2  744   0.186   1.170   2.077 -0.7024  0.0217  0.3352
  249SOL     OW  745   0.025   0.276   0.126 -0.1020  0.1411  0.7344
  249SOL    HW1  746   0.028   0.309   0.029 -0.8998 -2.1453 -1.1567
  249SOL    HW2  747   3.023   0.277   0.164 -0.2622 -0.7807  1.4312
  250SOL     OW  748   2.884   2.999   0.031  0.1664 -0.7578 -0.1848
  250SOL    HW1  749   2.962   2.952   3.079 -0.9243  0.5338  1.5610
  250SOL    HW2  750   2.813   2.932   0.051  1.5311 -2.5606  1.3844
  251SOL     OW  751   0.951   1.568   1.900 -0.3670  0.3695  0.0053
  251SOL    HW1  752   1.022   1.587   1.972  0.1354  1.7148  0.2799
  251SOL    HW2  753   0.950   1.469   1.882 -1.0874  0.5167  0.8459
  252SOL     OW  754   2.097   1.847   1.402 -0.2757 -0.1070  0.3551
  252SOL    HW1  755   2.185   1.831   1.355  0.2063 -1.7167 -0.6510
  252SOL    HW2  756   2.093   1.802   1.490 -1.4801  1.7747  1.1242
  253SOL     OW  757   1.931   2.518   2.239  0.6592 -0.0479 -0.3993
  253SOL    HW1  758   1.861   2.479   2.172 -0.9363 -1.0682  0.9132
  253SOL    HW2  759   1.883   2.587   2.298 -1.5446  2.6262  3.4253
  254SOL     OW  760   0.462   2.305   2.208  0.0620  0.5856 -0.0769
  254SOL    HW1  761   0.461   2.358   2.120  0.2768 -1.2318 -1.6502
  254SOL    HW2  762   0.556   2.296   2.248  2.0173  1.9426 -2.0997
  255SOL     OW  763   1.625   0.381   0.869  0.0869 -0.0502  0.0349
  255SOL    HW1  764   1.590   0.327   0.792  0.6467 -0.1965 -0.4985
  255SOL    HW2  765   1.692   0.454   0.839  0.5206  0.5886  2.3820
  256SOL     OW  766   2.297   2.226   1.377 -0.5197  0.1322 -0.1530
  256SOL    HW1  767   2.305   2.326   1.402 -1.8747  2.5961  3.6661
  256SOL    HW2  768   2.319   2.210   1.278 -0.1611  1.6350 -0.9467
  257SOL     OW  769   0.236   2.577   2.791  0.4704  0.0564 -0.1148
  257SOL    HW1  770   0.137   2.585   2.793  2.1377 -1.5726 -0.6865
  257SOL    HW2  771   0.271   2.581   2.882 -1.0421 -0.3072 -3.0525
  258SOL     OW  772   0.721   0.793   2.202 -0.2539 -0.4031  0.1168
  258SOL    HW1  773   0.675   0.787   2.291 -0.6654  0.0166  1.6453
  258SOL    HW2  774   0.655   0.836   2.137 -1.4015  0.0603 -0.4885
  259SOL     OW  775   1.015   1.047   2.383 -0.1991 -0.1488  0.4840
  259SOL    HW1  776   1.063   1.132   2.397 -1.7620 -2.8532 -1.1221
  259SOL    HW2  777   1.070   0.984   2.325 -2.7706 -2.3301  0.2045
  260SOL     OW  778   2.015   0.928   0.502  0.0571  0.6907  0.3193
  260SOL    HW1  779   2.018   0.931   0.603 -2.8703 -0.2818  4.2019
  260SOL    HW2  780   2.058   1.011   0.454  1.4293  1.8557 -0.0375
  261SOL     OW  781   1.071   0.016   0.638 -0.0953 -0.1994 -0.1750
  261SOL    HW1  782   1.033   0.082   0.564 -0.3386  1.2942 -2.2065
  261SOL    HW2  783   1.162   0.061   0.670 -0.1701  2.0139  0.6113
  262SOL     OW  784   2.138   2.485   2.590  0.2568  0.4664 -0.6538
  262SOL    HW1  785   2.167   2.576   2.552  1.8671 -0.1303  0.1603
  262SOL    HW2  786   2.205   2.413   2.559 -0.2533  0.5381 -0.9730
  263SOL     OW  787   0.494   1.700   2.938  0.4545 -0.1962  0.6658
  263SOL    HW1  788   0.518   1.635   2.862  0.6768  1.5522 -0.4567
  263SOL    HW2  789   0.402   1.743   2.922 -2.0699  0.6905  1.7443
  264SOL     OW  790   0.370   1.742   1.514 -0.6530 -0.4125 -0.0975
  264SOL    HW1  791   0.340   1.845   1.505 -1.0513  0.6435  2.1272
  264SOL    HW2  792   0.472   1.734   1.518  2.7412 -0.7533  0.2158
  265SOL     OW  793   1.026   0.675   0.622  0.2273 -0.2549 -0.1119
  265SOL    HW1  794   1.112   0.689   0.676 -0.6757  0.5984  1.8099
  265SOL    HW2  795   0.983   0.769   0.611  0.5650  0.9362  1.2405
  266SOL     OW  796   1.154   1.790   2.891 -0.0142 -0.5681 -0.4334
  266SOL    HW1  797   1.165   1.783   2.790 -2.4993  1.2387 -0.0002
  266SOL    HW2  798   1.145   1.698   2.940  0.5447  0.4071 -0.4762
  267SOL     OW  799   0.303   0.355   3.066 -0.7649  0.1131 -0.2511
  267SOL    HW1  800   0.270   0.301   2.988  0.9891 -0.1736 -0.4285
  267SOL    HW2  801   0.334   0.297   0.051  1.7527  1.8900 -0.7983
  268SOL     OW  802   0.955   0.517   2.869  0.0778 -0.2388 -0.2133
  268SOL    HW1  803   0.919   0.447   2.803  2.0244  2.0497  0.6490
  268SOL    HW2  804   0.930   0.611   2.837  0.7189 -1.4146  0.0685
  269SOL     OW  805   1.719   0.093   2.637  0.0100 -0.7999 -1.2989
  269SOL    HW1  806   1.716   0.011   2.577  0.6754  1.1488  2.0393
  269SOL    HW2  807   1.700   0.175   2.583  0.4340 -1.2785  2.0376
  270SOL     OW  808   0.811   0.725   2.741  0.1722  0.4333  0.1260
  270SOL    HW1  809   0.821   0.665   2.659  0.1971 -2.1952 -0.7359
  270SOL    HW2  810   0.814   0.823   2.707  0.3067  2.7710 -0.4941
  271SOL     OW  811   0.145   0.924   0.169 -0.3704 -0.2590 -0.2156
  271SOL    HW1  812   0.242   0.969   0.160 -0.5032  2.1130 -0.3214
  271SOL    HW2  813   0.134   0.890   0.266  0.4882  0.8670  1.4542
  272SOL     OW  814   2.274   1.229   2.492  0.7846  0.3166 -0.3478
  272SOL    HW1  815   2.310   1.299   2.425  0.7184 -0.8757  0.3985
  272SOL    HW2  816   2.349   1.203   2.554  1.4068 -0.4986 -0.7725
  273SOL     OW  817   2.989   0.487   2.348  0.1363  0.3206  0.0272
  273SOL    HW1  818   3.087   0.508   2.333 -2.2326 -1.0798  0.6861
  273SOL    HW2  819   2.978   0.426   2.433  1.0720  1.0807  2.2710
  274SOL     OW  820   2.720   0.131   1.686 -0.2603 -0.4684 -0.0257
  274SOL    HW1  821   2.645   0.066   1.706  2.9483 -2.4061  1.0330
  274SOL    HW2  822   2.678   0.216   1.652 -0.7179 -0.5474  1.9051
  275SOL     OW  823   1.911   1.362   0.233 -0.4289  0.2818 -0.0548
  275SOL    HW1  824   1.926   1.420   0.151 -0.0849 -0.7987 -0.7500
  275SOL    HW2  825   1.817   1.370   0.268  2.0031  1.8380  0.4780
  276SOL     OW  826   0.290   1.311   2.776  0.3641 -0.0847 -0.1719
  276SOL    HW1  827   0.223   1.389   2.770  1.8816  0.5551 -1.1551
  276SOL    HW2  828   0.250   1.219   2.748  0.1938  0.6037  0.7993
  277SOL     OW  829   1.923   2.800   2.115  0.0931 -0.4191  0.0551
  277SOL    HW1  830   2.005   2.740   2.119  2.3839  1.7974 -0.5066
  277SOL    HW2  831   1.864   2.778   2.193  2.6621 -0.5635 -0.1997
  278SOL     OW  832   1.958   3.032   1.300  0.4014 -0.2581 -0.4682
  278SOL    HW1  833   1.881   2.968   1.310 -1.3327  0.7226  1.5761
  278SOL    HW2  834   1.952   0.015   1.363 -0.9358 -1.2089 -0.0766
  279SOL     OW  835   1.008   1.335   2.773  0.3339  0.1603 -0.0768
  279SOL    HW1  836   1.111   1.350   2.786  1.5092  0.8727  2.0389
  279SOL    HW2  837   0.956   1.397   2.832  1.1386 -1.1940 -1.6226
  280SOL     OW  838   0.744   1.380   0.364 -0.3329  0.0052 -0.9332
  280SOL    HW1  839   0.734   1.464   0.309  1.3478 -0.3244 -0.9774
  280SOL    HW2  840   0.837   1.342   0.374  0.7006  1.9757  1.4278
  281SOL     OW  841   0.126   2.946   1.993 -0.0431  0.4369  0.1009
  281SOL    HW1  842   0.083   2.969   1.901  1.0799  0.3915 -0.1020
  281SOL    HW2  843   0.094   2.860   2.032 -1.2413  2.6400  0.6043
  282SOL     OW  844   0.200   2.189   1.052  0.3261 -0.0838 -0.4949
  282SOL    HW1  845   0.286   2.201   1.004 -2.2335 -0.3058  4.0980
  282SOL    HW2  846   0.170   2.092   1.051 -3.1533 -0.0187 -0.2482
  283SOL     OW  847   1.281   2.181   2.323  0.0916 -0.2075 -0.2914
  283SOL    HW1  848   1.197   2.198   2.260 -0.1493  0.6206 -1.7612
  283SOL    HW2  849   1.357   2.134   2.276  0.9116  1.2724  0.7322
  284SOL     OW  850   2.313   0.802   0.089 -0.4011 -0.2359  0.8405
  284SOL    HW1  851   2.377   0.859   0.145 -0.0657 -0.2677 -0.6619
  284SOL    HW2  852   2.334   0.805   3.084  1.0045 -2.0302 -0.4394
  285SOL     OW  853   2.737   2.766   2.687  0.1233 -0.4301  0.5098
  285SOL    HW1  854   2.835   2.740   2.661 -0.5262  2.8993 -1.6215
  285SOL    HW2  855   2.657   2.727   2.635 -1.5320 -0.1453  0.5269
  286SOL     OW  856   1.890   2.687   1.110 -0.3059  0.3106  0.1772
  286SOL    HW1  857   1.828   2.745   1.167 -2.1945 -0.9298 -3.1374
  286SOL    HW2  858   1.868   2.588   1.131 -0.2233 -0.3521 -0.8223
  287SOL     OW  859   0.607   1.211   1.027 -0.1223  0.0428  0.4945
  287SOL    HW1  860   0.653   1.123   1.000  0.2379 -3.2758 -0.9518
  287SOL    HW2  861   0.673   1.275   1.071 -1.7625  0.0911 -2.9240
  288SOL     OW  862   1.271   2.183   0.094  0.2037  0.9966 -0.0598
  288SOL    HW1  863   1.248   2.248   0.167  0.1872  3.2205  0.7443
  288SOL    HW2  864   1.323   2.101   0.129 -0.1845  2.2224 -2.3111
  289SOL     OW  865   0.106   1.976   2.405 -0.0104  0.4830  0.0009
  289SOL    HW1  866   0.142   1.933   2.316  0.6373 -0.9671  1.8916
  289SOL    HW2  867   0.173   1.974   2.480 -3.5339 -1.5235 -2.3040
  290SOL     OW  868   1.280   2.026   0.911  0.6147 -0.2112 -0.0740
  290SOL    HW1  869   1.235   2.118   0.905  0.2988 -0.0684  0.3091
  290SOL    HW2  870   1.214   1.964   0.869 -0.4235  1.4134 -0.4907
  291SOL     OW  871   1.697   1.467   2.933  0.2287 -0.4855 -0.1128
  291SOL    HW1  872   1.761   1.440   2.861 -2.7184 -0.4687  0.7679
  291SOL    HW2  873   1.676   1.568   2.932  2.4755 -1.6372 -0.7342
  292SOL     OW  874   1.351   1.401   1.628 -0.9871  0.1452 -0.1581
  292SOL    HW1  875   1.278   1.455   1.586 -0.2368  0.6517  4.1480
  292SOL    HW2  876   1.327   1.363   1.717 -0.2223 -0.4469 -0.6122
  293SOL     OW  877   1.730   2.714   0.891  0.3331  0.3269 -0.3692
  293SOL    HW1  878   1.788   2.685   0.966 -1.2902 -1.1625 -1.5784
  293SOL    HW2  879   1.708   2.640   0.824 -0.8530 -1.4960 -0.0080
  294SOL     OW  880   0.150   1.221   2.383 -0.0057  0.2825  0.7103
  294SOL    HW1  881   0.091   1.301   2.371  1.4012 -2.5777 -0.1544
  294SOL    HW2  882   0.092   1.140   2.403 -1.4732  1.4730  4.9214
  295SOL     OW  883   0.897   2.033   2.788  0.3718 -0.2991 -0.7686
  295SOL    HW1  884   0.946   2.100   2.854  0.1826  1.2822  0.8787
  295SOL    HW2  885   0.846   1.961   2.838 -1.8401  0.5985  1.4849
  296SOL     OW  886   1.691   1.751   2.366 -0.1229 -0.2272 -0.1408
  296SOL    HW1  887   1.707   1.753   2.263  0.5329 -2.2568 -1.7823
  296SOL    HW2  888   1.591   1.781   2.382  0.9301 -0.0427  0.3497
  297SOL     OW  889   2.880   0.654   2.656 -0.0181 -0.4510 -0.1029
  297SOL    HW1  890   2.900   0.563   2.614  0.4074  0.6031  0.5174
  297SOL    HW2  891   2.791   0.650   2.709 -3.3763  3.1523 -1.3196
  298SOL     OW  892   0.864   2.172   2.454 -0.0413 -0.3378  0.0248
  298SOL    HW1  893   0.790   2.215   2.513  1.7745  0.5751  0.4787
  298SOL    HW2  894   0.832   2.139   2.365  3.5627  0.6759  0.1174
  299SOL     OW  895   0.910   2.840   2.630 -0.2084  0.0213 -0.1211
  299SOL    HW1  896   0.824   2.848   2.571  0.0034 -1.2814 -4.4057
  299SOL    HW2  897   0.967   2.762   2.605  2.5845  0.6330 -2.3837
  300SOL     OW  898   2.823   0.465   2.955  0.1196 -0.3464 -0.1014
  300SOL    HW1  899   2.769   0.386   2.986 -0.0571 -2.8746  1.3399
  300SOL    HW2  900   2.923   0.443   2.955  0.0686 -3.0867 -1.6275
  301SOL     OW  901   1.244   0.758   1.364 -0.0549 -0.3299  0.5734
  301SOL    HW1  902   1.294   0.721   1.284 -1.5308  0.2859  3.6641
  301SOL    HW2  903   1.197   0.846   1.340  2.5041 -2.4641 -1.1175
  302SOL     OW  904   2.878   1.892   2.761 -0.7958  0.0557  0.3390
  302SOL    HW1  905   2.897   1.954   2.682 -1.7886 -0.8565  0.8314
  302SOL    HW2  906   2.925   1.799   2.747 -0.8131 -3.0473  2.1129
  303SOL     OW  907   3.077   3.045   2.452  0.6626  0.3098  0.2031
  303SOL    HW1  908   3.088   3.073   2.354 -0.9487  0.3473  0.3098
  303SOL    HW2  909   2.988   3.085   2.480  1.9808 -1.6281  0.9932
  304SOL     OW  910   3.062   0.341   1.641  0.0333 -0.4452 -0.2405
  304SOL    HW1  911   0.018   0.374   1.557  0.6220 -1.0183 -0.9152
  304SOL    HW2  912   3.085   0.247   1.674  1.8519 -0.3824  0.8392
  305SOL     OW  913   3.092   0.020   2.185 -0.3288 -0.1588 -0.0488
  305SOL    HW1  914   0.026   3.047   2.109  0.9694 -2.4864  0.4475
  305SOL    HW2  915   2.990   0.037   2.178 -3.6949  1.5357 -3.2177
  306SOL     OW  916   2.669   1.237   1.368 -0.4967  0.0791  0.4527
  306SOL    HW1  917   2.760   1.260   1.413  2.2713  1.3688 -0.5462
  306SOL    HW2  918   2.592   1.219   1.426  1.9505 -0.8090 -3.5577
  307SOL     OW  919   2.042   0.498   1.220  0.6949  0.1203 -0.0695
  307SOL    HW1  920   2.046   0.539   1.310 -0.7582 -1.6040 -0.0969
  307SOL    HW2  921   1.968   0.423   1.226 -2.8454  0.6852  3.1639
  308SOL     OW  922   0.130   2.110   1.295  0.0253 -0.2455 -0.0047
  308SOL    HW1  923   0.166   2.160   1.214 -0.7458  1.1805 -0.5338
  308SOL    HW2  924   0.052   2.164   1.337  0.0287  2.3654  0.0453
  309SOL     OW  925   2.347   1.762   1.332 -0.1866 -0.3739  0.3882
  309SOL    HW1  926   2.419   1.693   1.353 -0.1620  1.9310 -0.2706
  309SOL    HW2  927   2.368   1.842   1.390 -1.8007 -0.9498 -1.6766
  310SOL     OW  928   2.712   1.698   3.066  0.0586 -0.5355  0.3552
  310SOL    HW1  929   2.801   1.739   0.004 -2.4660  4.1313  1.1391
  310SOL    HW2  930   2.655   1.680   0.053  0.4502 -2.1286  0.1055
  311SOL     OW  931   2.184   1.696   2.371 -0.1092 -0.0971  0.3531
  311SOL    HW1  932   2.095   1.647   2.382 -0.0984 -2.6976 -1.9939
  311SOL    HW2  933   2.182   1.786   2.417 -1.4519  0.1485 -2.2127
  312SOL     OW  934   2.363   2.351   0.885 -0.0155 -0.1774 -0.8049
  312SOL    HW1  935   2.405   2.263   0.859  2.0490 -0.2240  0.3834
  312SOL    HW2  936   2.333   2.393   0.798 -1.8614 -0.6437  1.0411
  313SOL     OW  937   3.029   2.541   1.134  0.1715 -0.1555 -0.5258
  313SOL    HW1  938   3.064   2.459   1.079 -1.1064 -1.6511  0.6339
  313SOL    HW2  939   2.925   2.540   1.133 -2.0505 -1.2482  1.1406
  314SOL     OW  940   1.245   2.127   1.504 -0.0970 -0.0361 -0.4151
  314SOL    HW1  941   1.311   2.053   1.490  0.7668 -1.1193  3.1088
  314SOL    HW2  942   1.181   2.094   1.573  0.3425 -0.4999 -0.8783
  315SOL     OW  943   0.186   2.782   2.247 -0.0232  0.0864  0.0598
  315SOL    HW1  944   0.129   2.723   2.307 -0.2257  1.9604  4.0048
  315SOL    HW2  945   0.182   2.875   2.283 -0.7757  1.0491  0.0547
  316SOL     OW  946   3.011   2.002   0.852  0.8132  0.2050  0.1994
  316SOL    HW1  947   3.051   1.955   0.937  0.3645 -3.3670  0.4886
  316SOL    HW2  948   2.981   1.929   0.785 -0.5060 -1.1367 -2.1172
  317SOL     OW  949   1.914   0.039   0.460 -0.0924 -0.0578  0.2426
  317SOL    HW1  950   1.822   0.092   0.471 -2.4191  1.7418 -1.0815
  317SOL    HW2  951   1.968   0.025   0.547  1.7053 -1.5776 -0.5382
  318SOL     OW  952   2.875   2.753   0.317  0.2208  0.2560 -0.4883
  318SOL    HW1  953   2.861   2.742   0.218  0.2186  3.0399 -0.3655
  318SOL    HW2  954   2.797   2.811   0.361 -4.9662  0.7766 -1.4179
  319SOL     OW  955   1.367   1.523   0.123  0.0403  0.1846  0.5932
  319SOL    HW1  956   1.417   1.608   0.158 -0.3641  1.6488  0.3237
  319SOL    HW2  957   1.324   1.538   0.037  1.6518  1.4937  1.3958
  320SOL     OW  958   0.566   2.977   2.701 -0.2085  0.1503  0.1199
  320SOL    HW1  959   0.634   2.945   2.626  0.7531  0.4742 -1.4509
  320SOL    HW2  960   0.488   2.911   2.714 -2.5268 -1.4432  0.3269
  321SOL     OW  961   0.983   0.036   0.118  0.5297  0.3626 -0.0801
  321SOL    HW1  962   1.051   0.028   0.192 -2.3332  1.3239 -0.0369
  321SOL    HW2  963   0.930   3.038   0.115 -0.0181 -2.6119 -0.3293
  322SOL     OW  964   2.432   1.067   1.827  0.0534  0.0411  0.4971
  322SOL    HW1  965   2.350   1.068   1.887  0.2238 -1.0193 -0.2403
  322SOL    HW2  966   2.503   1.130   1.862  3.3595  2.3296  0.6842
  323SOL     OW  967   2.610   0.901   0.397 -0.4355  0.3079  0.5185
  323SOL    HW1  968   2.589   0.802   0.386  0.5425  0.7152  2.6614
  323SOL    HW2  969   2.648   0.946   0.315 -1.3311 -0.4664 -0.4694
  324SOL     OW  970   0.142   0.483   2.737  0.2063 -0.6933  0.0541
  324SOL    HW1  971   0.195   0.512   2.821 -2.4871  1.0686  0.6789
  324SOL    HW2  972   0.186   0.405   2.683  2.0496  0.4323 -0.7679
  325SOL     OW  973   1.384   2.896   2.031 -0.5286  0.1845  0.0798
  325SOL    HW1  974   1.438   2.876   1.948 -1.2179  0.9530  1.0081
  325SOL    HW2  975   1.300   2.833   2.034 -2.2271 -1.3127 -2.0781
  326SOL     OW  976   2.422   3.077   1.444 -0.1305  0.1098  0.0226
  326SOL    HW1  977   2.361   0.055   1.481  0.0424 -0.2449  1.4168
  326SOL    HW2  978   2.491   0.035   1.383  0.7484  2.1999 -1.6094
  327SOL     OW  979   1.854   0.724   3.085  0.1714  0.1259 -0.3439
  327SOL    HW1  980   1.785   0.668   0.048  0.8992 -0.6980  0.4880
  327SOL    HW2  981   1.910   0.667   3.024 -2.1710  1.2098  2.7703
  328SOL     OW  982   2.787   1.429   2.224  0.1246  0.0797  0.6365
  328SOL    HW1  983   2.846   1.353   2.238 -1.7069  3.0445 -1.7092
  328SOL    HW2  984   2.811   1.505   2.284  1.1265 -1.4546 -1.8225
  329SOL     OW  985   1.458   2.566   1.692  0.2367 -0.2163 -0.4094
  329SOL    HW1  986   1.526   2.532   1.759 -0.9729 -0.2410  0.7460
  329SOL    HW2  987   1.434   2.484   1.627 -1.5252 -2.5819 -1.2784
  330SOL     OW  988   2.648   1.504   1.836  0.0876  0.0694  0.6549
  330SOL    HW1  989   2.707   1.524   1.758 -0.1204 -1.9347  2.3214
  330SOL    HW2  990   2.675   1.560   1.917  0.2663 -0.3164  1.2890
  331SOL     OW  991   3.018   2.218   0.669 -0.5590 -0.1471  0.0861
  331SOL    HW1  992   3.022   2.130   0.724  1.3465 -0.1191  1.4466
  331SOL    HW2  993   0.005   2.227   0.605  2.9481 -0.9923  1.0877
  332SOL     OW  994   0.597   0.239   0.553  0.6326 -0.5899  0.3167
  332SOL    HW1  995   0.502   0.272   0.549 -2.1516  2.4430  0.8210
  332SOL    HW2  996   0.603   0.176   0.632  3.0977 -0.3257 -2.5507
  333SOL     OW  997   2.066   2.888   2.358  0.1438  0.2232  0.0889
  333SOL    HW1  998   1.999   2.870   2.284 -1.6895  1.4965  3.1745
  333SOL    HW2  999   2.114   2.973   2.326 -1.1112 -0.0674 -1.3623
  334SOL     OW 1000   1.150   1.306   1.082 -0.2056 -0.0418  0.8460
  334SOL    HW1 1001   1.209   1.226   1.082 -1.5309 -0.5908  1.8344
  334SOL    HW2 1002   1.203   1.392   1.095  0.2250 -2.8870  2.5468
  335SOL     OW 1003   3.077   2.686   2.441  0.0664 -0.0248  0.6135
  335SOL    HW1 1004   0.055   2.617   2.470 -0.2069 -1.4015  1.3714
  335SOL    HW2 1005   3.062   2.751   2.515  1.5490  0.7214 -0.1519
  336SOL     OW 1006   2.799   2.582   1.872  0.0777 -0.2555  0.5381
  336SOL    HW1 1007   2.849   2.668   1.848  1.8994  0.2334  0.1253
  336SOL    HW2 1008   2.770   2.534   1.790 -4.4632  0.4916  1.3381
  337SOL     OW 1009   2.060   1.560   0.666 -0.6473 -0.2581  0.3111
  337SOL    HW1 1010   2.109   1.575   0.758  0.1591 -0.0542  3.0364
  337SOL    HW2 1011   1.967   1.531   0.678  1.6784  1.5166 -0.8719
  338SOL     OW 1012   1.130   1.812   1.441  0.4263  0.1680 -1.0016
  338SOL    HW1 1013   1.075   1.777   1.524  0.6429  0.7861  1.9332
  338SOL    HW2 1014   1.228   1.832   1.466  4.4070  1.6946  0.0598
  339SOL     OW 1015   2.935   0.534   1.255  0.3090  0.0188  0.5912
  339SOL    HW1 1016   3.006   0.564   1.323 -1.2176  0.3988 -3.4379
  339SOL    HW2 1017   2.857   0.599   1.260  0.0604  2.6843  1.6789
  340SOL     OW 1018   1.721   2.588   1.844  0.2042 -0.3988 -0.3568
  340SOL    HW1 1019   1.719   2.520   1.919 -2.4694 -2.7367 -0.3380
  340SOL    HW2 1020   1.741   2.680   1.882  1.9742  0.6585 -0.9296
  341SOL     OW 1021   2.176   1.522   0.906 -1.2404 -0.2026 -0.2660
  341SOL    HW1 1022   2.274   1.507   0.934 -0.8011 -1.2679  2.3607
  341SOL    HW2 1023   2.127   1.565   0.980  2.1701 -2.6731 -0.2327
  342SOL     OW 1024   0.153   1.730   0.823 -0.3300 -0.2641 -0.4545
  342SOL    HW1 1025   0.170   1.647   0.879  0.7513  1.5856 -0.8075
  342SOL    HW2 1026   0.116   1.708   0.730 -2.0475 -0.7234 -3.1648
  343SOL     OW 1027   2.538   0.967   1.453 -0.0261 -0.3627  0.6323
  343SOL    HW1 1028   2.521   1.052   1.502 -1.9436 -1.1591  2.0025
  343SOL    HW2 1029   2.624   0.921   1.481  0.1282 -0.6990  0.4666
  344SOL     OW 1030   2.226   0.367   0.810 -0.4438 -0.8934 -0.4715
  344SOL    HW1 1031   2.233   0.469   0.795  0.7014  2.9101 -0.6772
  344SOL    HW2 1032   2.250   0.316   0.730 -2.7451  0.7181  1.1629
  345SOL     OW 1033   2.898   2.634   2.244 -0.3976 -0.3181  0.0857
  345SOL    HW1 1034   2.963   2.665   2.320  0.8043  0.3088 -0.5663
  345SOL    HW2 1035   2.804   2.666   2.259  0.4547  1.2652  1.7939
  346SOL     OW 1036   0.030   1.333   0.400  0.1562 -0.5231  0.0979
  346SOL    HW1 1037   3.048   1.268   0.390  0.9023 -0.3047 -0.2918
  346SOL    HW2 1038   0.012   1.435   0.389  0.9819  0.6864  0.1322
  347SOL     OW 1039   1.783   2.813   1.339 -0.2330  0.1008  0.0469
  347SOL    HW1 1040   1.832   2.769   1.417 -1.0793 -0.3256  0.4698
  347SOL    HW2 1041   1.681   2.789   1.351  1.1591 -0.2662 -2.3660
  348SOL     OW 1042   1.250   1.327   1.877 -0.4642  0.2074  0.1332
  348SOL    HW1 1043   1.293   1.235   1.872  0.4551  2.6313 -1.7258
  348SOL    HW2 1044   1.147   1.327   1.878 -2.7544  0.6733 -0.8211
  349SOL     OW 1045   2.277   1.728   2.116  0.3696  0.2781  0.1084
  349SOL    HW1 1046   2.237   1.703   2.205  0.7905  2.6665 -0.6667
  349SOL    HW2 1047   2.336   1.812   2.137 -2.3715 -1.8103  1.5234
  350SOL     OW 1048   2.795   2.136   0.529 -0.0053 -0.4445 -0.1028
  350SOL    HW1 1049   2.742   2.200   0.589 -1.4895  1.4334  0.0755
  350SOL    HW2 1050   2.895   2.140   0.549 -0.2434 -0.2683 -1.0319
  351SOL     OW 1051   0.259   0.378   1.763  0.1295 -0.5675 -0.1793
  351SOL    HW1 1052   0.305   0.290   1.787 -0.2775  3.7702 -0.4668
  351SOL    HW2 1053   0.178   0.399   1.825 -1.7045  1.2412  0.0489
  352SOL     OW 1054   1.234   2.734   1.714  0.4788 -0.4667 -0.2621
  352SOL    HW1 1055   1.266   2.819   1.672 -1.1628 -0.8979  1.3268
  352SOL    HW2 1056   1.301   2.659   1.702  0.3391  1.1467  0.5131
  353SOL     OW 1057   0.628   1.290   2.666  0.6022 -0.0622  0.1549
  353SOL    HW1 1058   0.716   1.257   2.626 -0.5543  1.6034  2.0718
  353SOL    HW2 1059   0.547   1.280   2.606  1.8562 -1.0236 -0.4468
  354SOL     OW 1060   1.524   1.719   0.216 -0.3560  0.0705  0.1481
  354SOL    HW1 1061   1.560   1.708   0.311 -0.4460  1.8458  1.4850
  354SOL    HW2 1062   1.597   1.726   0.143 -1.4622 -0.7015 -2.0477
  355SOL     OW 1063   1.997   0.224   0.854  0.1855 -0.1604  0.1421
  355SOL    HW1 1064   1.929   0.239   0.930 -1.2406 -0.5857  0.6081
  355SOL    HW2 1065   2.080   0.282   0.868  0.2309  1.4611 -2.7428
  356SOL     OW 1066   0.100   1.427   3.067  0.7989  0.2468  0.1785
  356SOL    HW1 1067   0.170   1.385   0.035 -0.7478  0.1145 -1.4982
  356SOL    HW2 1068   0.044   1.355   3.026 -0.2582  0.8141  1.5009
  357SOL     OW 1069   0.107   0.082   1.741  0.5020  0.2746 -0.5594
  357SOL    HW1 1070   0.185   0.101   1.805  2.2061  1.9514  3.2786
  357SOL    HW2 1071   0.020   0.064   1.793 -0.1621 -2.2018  1.4035
  358SOL     OW 1072   0.428   1.211   3.002 -0.0518 -0.3452 -0.2443
  358SOL    HW1 1073   0.370   1.252   2.928 -0.8424  0.5403 -1.0745
  358SOL    HW2 1074   0.385   1.242   3.087  0.3204  0.2317 -0.5868
  359SOL     OW 1075   2.520   2.664   2.541 -0.3058  0.2443 -0.0348
  359SOL    HW1 1076   2.423   2.690   2.571  0.5636  0.0918  0.0802
  359SOL    HW2 1077   2.527   2.686   2.445  0.7149  1.3551 -0.2849
  360SOL     OW 1078   1.447   1.337   0.949 -0.1427 -0.1650 -0.0189
  360SOL    HW1 1079   1.408   1.264   0.892 -1.6517  1.6620  2.1928
  360SOL    HW2 1080   1.472   1.299   1.041  1.9759 -0.2354 -2.5860
  361SOL     OW 1081   2.222   2.408   1.106  0.4470 -0.2947 -0.0189
  361SOL    HW1 1082   2.292   2.410   1.035 -2.8443 -1.3521  0.4598
  361SOL    HW2 1083   2.223   2.501   1.153  1.1746 -0.3810 -0.3724
  362SOL     OW 1084   1.923   1.667   1.039 -0.3046 -0.0524 -1.0370
  362SOL    HW1 1085   1.948   1.751   0.986 -1.7546  1.4185  0.2890
  362SOL    HW2 1086   1.919   1.702   1.137  1.3802 -2.3623  1.4087
  363SOL     OW 1087   2.570   2.278   0.285  0.3384  0.5983 -0.1922
  363SOL    HW1 1088   2.482   2.244   0.322  0.7239  2.6026 -1.1883
  363SOL    HW2 1089   2.619   2.205   0.232  1.1353 -0.4183 -2.5214
  364SOL     OW 1090   2.613   0.039   1.242 -0.1270 -0.4464 -0.4205
  364SOL    HW1 1091   2.630   0.135   1.270 -2.7609  0.5493  1.0084
  364SOL    HW2 1092   2.700   3.082   1.220  0.1011 -0.4727 -0.0021
  365SOL     OW 1093   0.690   2.882   1.177  0.0889 -0.1158 -0.1567
  365SOL    HW1 1094   0.714   2.825   1.100  0.6267  1.2684  0.3128
  365SOL    HW2 1095   0.696   2.830   1.263  1.1247  0.3426 -2.2747
  366SOL     OW 1096   3.024   1.602   0.339 -0.0360  0.3280 -0.3003
  366SOL    HW1 1097   2.955   1.663   0.381  0.1985  0.7748  2.5105
  366SOL    HW2 1098   3.074   1.634   0.256  0.6029  0.3294  0.7324
  367SOL     OW 1099   2.256   2.477   2.826  0.0953  0.4111  0.7747
  367SOL    HW1 1100   2.202   2.466   2.738  2.7313 -0.6378  2.8205
  367SOL    HW2 1101   2.342   2.424   2.822 -0.0414  1.6861  0.8669
  368SOL     OW 1102   2.471   2.115   0.783  0.0217 -0.5281 -0.2750
  368SOL    HW1 1103   2.409   2.044   0.747  0.7050 -0.1710  0.8186
  368SOL    HW2 1104   2.555   2.071   0.818 -2.4792  1.2520 -0.9585
  369SOL     OW 1105   0.629   1.050   0.685 -0.1166 -0.1353 -0.0531
  369SOL    HW1 1106   0.655   1.154   0.690  3.2208  1.1775  2.4574
  369SOL    HW2 1107   0.707   0.995   0.642  0.6720  1.3181 -1.5549
  370SOL     OW 1108   0.601   0.078   0.773 -0.7173  0.4093 -0.3296
  370SOL    HW1 1109   0.697   0.077   0.817  2.6240  0.7999 -0.0677
  370SOL    HW2 1110   0.555   3.084   0.786  0.1591 -2.0020  0.3235
  371SOL     OW 1111   2.479   1.127   2.675  0.4527  0.3136 -0.1058
  371SOL    HW1 1112   2.570   1.093   2.647 -1.8675  4.3183  1.7242
  371SOL    HW2 1113   2.414   1.049   2.675  0.6425 -1.7104 -0.9280
  372SOL     OW 1114   0.829   0.567   2.526  0.1899 -0.4353  0.2602
  372SOL    HW1 1115   0.773   0.591   2.443 -2.2255  1.0156  1.8147
  372SOL    HW2 1116   0.884   0.481   2.518  2.1044 -2.3567  3.0916
  373SOL     OW 1117   0.586   0.723   2.912 -0.1064  0.2182 -0.4828
  373SOL    HW1 1118   0.664   0.711   2.852 -0.7991 -0.5229  2.5735
  373SOL    HW2 1119   0.628   0.756   3.000  1.6710 -1.2239 -1.1992
  374SOL     OW 1120   0.949   2.022   0.190  0.1621  0.1447 -0.1520
  374SOL    HW1 1121   1.020   2.011   0.115  1.4847  2.4585 -2.1112
  374SOL    HW2 1122   0.855   2.025   0.153 -1.2552 -0.1628 -0.8884
  375SOL     OW 1123   0.860   0.091   0.833 -0.0298 -0.4573  0.3826
  375SOL    HW1 1124   0.893   0.049   0.920  2.2580 -1.9726 -0.4917
  375SOL    HW2 1125   0.926   0.077   0.754 -1.4208 -2.1420 -0.8337
  376SOL     OW 1126   0.015   2.453   1.824 -0.7426  0.6622 -0.2007
  376SOL    HW1 1127   3.076   2.527   1.889  2.2146 -1.6206 -0.6604
  376SOL    HW2 1128   0.098   2.484   1.771  2.4620  0.9224  1.3319
  377SOL     OW 1129   2.482   2.038   3.052 -0.7259  0.2757 -0.6020
  377SOL    HW1 1130   2.391   2.068   3.092  1.3645  0.0982  0.0217
  377SOL    HW2 1131   2.473   1.958   2.989  0.9844  2.3817  2.3425
  378SOL     OW 1132   1.903   0.361   0.592 -0.2343 -0.5919 -0.2463
  378SOL    HW1 1133   1.993   0.384   0.561  1.0003  1.8480 -0.6527
  378SOL    HW2 1134   1.909   0.314   0.681 -0.1567 -0.9230 -2.7321
  379SOL     OW 1135   1.243   1.028   0.799 -0.3741  0.1308 -0.2648
  379SOL    HW1 1136   1.145   0.996   0.795 -0.7887 -0.4931  0.6033
  379SOL    HW2 1137   1.281   1.067   0.710  0.6003  1.0512  2.6638
  380SOL     OW 1138   2.517   2.108   1.944  0.1495 -0.4622 -0.5651
  380SOL    HW1 1139   2.531   2.010   1.935  1.1431 -0.4640  0.9584
  380SOL    HW2 1140   2.605   2.160   1.927  1.5322  0.9312  2.5757
  381SOL     OW 1141   2.922   1.199   2.279  0.5050 -0.0733  0.0908
  381SOL    HW1 1142   2.945   1.139   2.362 -1.4454 -2.1016  0.1533
  381SOL    HW2 1143   2.959   1.161   2.194  0.9007 -1.4702 -0.2189
  382SOL     OW 1144   2.872   2.292   0.207  0.1044  0.5318  0.0433
  382SOL    HW1 1145   2.819   2.207   0.229 -2.1299 -0.6896 -0.8298
  382SOL    HW2 1146   2.865   2.356   0.286  0.0341 -0.8691 -2.7233
  383SOL     OW 1147   1.396   0.841   2.269 -0.3292  0.1256 -0.3449
  383SOL    HW1 1148   1.305   0.850   2.224 -2.4274  0.9241 -0.8607
  383SOL    HW2 1149   1.392   0.865   2.366 -2.7612 -0.2913 -0.6515
  384SOL     OW 1150   1.120   2.141   2.550  0.2567 -0.4962  0.0684
  384SOL    HW1 1151   1.175   2.159   2.470 -2.9245 -0.0542  3.5004
  384SOL    HW2 1152   1.022   2.161   2.533  0.1866 -0.4137  1.5205
  385SOL     OW 1153   2.182   2.395   0.148  0.8186 -0.3750 -0.2810
  385SOL    HW1 1154   2.141   2.418   0.055  1.8551 -0.1282 -1.9825
  385SOL    HW2 1155   2.274   2.439   0.153  1.3784 -2.1567  1.6355
  386SOL     OW 1156   1.704   1.417   0.443 -0.3986 -0.1268  0.2095
  386SOL    HW1 1157   1.686   1.494   0.515 -1.1053  1.2657  1.3308
  386SOL    HW2 1158   1.685   1.326   0.480  2.0918  2.8982 -2.8734
  387SOL     OW 1159   2.939   1.297   1.516  1.2542  0.8201  0.3457
  387SOL    HW1 1160   2.942   1.354   1.598  0.5612 -1.0636 -2.7282
  387SOL    HW2 1161   3.005   1.221   1.513 -0.8578 -2.3530 -2.5198
  388SOL     OW 1162   0.459   0.917   1.471 -0.2343 -0.4086  0.2212
  388SOL    HW1 1163   0.439   0.973   1.387  1.1561 -0.6860 -0.7662
  388SOL    HW2 1164   0.457   0.818   1.439 -0.4286  0.3096 -0.2442
  389SOL     OW 1165   2.227   1.099   2.038  0.0926  0.2591 -0.0074
  389SOL    HW1 1166   2.261   1.085   2.134  0.1739  0.1308  2.7791
  389SOL    HW2 1167   2.140   1.146   2.040  0.9208  0.4624  1.6815
  390SOL     OW 1168   1.216   1.866   0.496 -0.3430 -0.2652  0.3348
  390SOL    HW1 1169   1.307   1.892   0.527 -1.8192 -1.1916 -0.3191
  390SOL    HW2 1170   1.208   1.762   0.504 -0.9619 -0.6608 -2.8053
  391SOL     OW 1171   1.088   1.862   0.778  0.4484  0.2775 -0.0920
  391SOL    HW1 1172   1.171   1.802   0.793  0.1596 -0.8481 -2.6622
  391SOL    HW2 1173   1.014   1.814   0.731 -1.5140 -0.0329  1.9640
  392SOL     OW 1174   2.577   2.643   2.028  0.4625  0.6189 -0.0111
  392SOL    HW1 1175   2.514   2.565   2.044 -0.2202 -0.1835 -1.1913
  392SOL    HW2 1176   2.664   2.612   1.980 -0.6956  0.2951  1.9439
  393SOL     OW 1177   1.403   2.190   2.943 -0.4083  0.0320 -0.2990
  393SOL    HW1 1178   1.347   2.219   2.863 -2.5338 -2.1626 -2.4880
  393SOL    HW2 1179   1.349   2.205   3.030  2.1400  0.9440  0.9807
  394SOL     OW 1180   0.191   0.360   2.312  0.1369 -0.0849 -0.9247
  394SOL    HW1 1181   0.245   0.434   2.269  0.3180  2.1012 -1.4454
  394SOL    HW2 1182   0.196   0.275   2.257  0.3844  1.9755 -0.0613
  395SOL     OW 1183   0.317   0.957   1.046 -0.3307  0.3088 -0.4187
  395SOL    HW1 1184   0.335   1.022   1.117 -1.6807 -3.8322 -0.1344
  395SOL    HW2 1185   0.402   0.939   0.999 -2.3078  2.7688  1.1121
  396SOL     OW 1186   2.230   1.527   2.639  0.2410 -0.4236  0.3792
  396SOL    HW1 1187   2.263   1.434   2.611 -0.5002 -3.9708 -0.7668
  396SOL    HW2 1188   2.205   1.592   2.561 -1.2939  3.5046  0.6706
  397SOL     OW 1189   0.321   0.805   2.990  0.1300  0.6037 -0.3432
  397SOL    HW1 1190   0.316   0.888   3.051 -1.8652  2.3227 -1.0139
  397SOL    HW2 1191   0.382   0.809   2.909 -0.9697  0.0096  0.9491
  398SOL     OW 1192   1.009   2.598   0.565  0.1947 -0.3095  0.5801
  398SOL    HW1 1193   1.107   2.577   0.553  0.0428  0.8653 -1.8379
  398SOL    HW2 1194   1.003   2.702   0.580 -0.1078  1.0806 -0.5020
  399SOL     OW 1195   2.123   2.572   2.059 -0.2507  0.1355  0.0186
  399SOL    HW1 1196   2.066   2.539   2.139  0.6973 -0.0024 -1.8838
  399SOL    HW2 1197   2.119   2.505   1.979 -1.2939 -0.6742  0.8666
  400SOL     OW 1198   0.139   1.343   1.756 -0.0084 -0.5062  0.1018
  400SOL    HW1 1199   0.138   1.308   1.851  0.8607 -0.7640 -1.0366
  400SOL    HW2 1200   0.196   1.427   1.750 -1.8312  1.0207 -1.7739
  401SOL     OW 1201   0.557   0.935   0.914 -0.1272 -0.6899  0.1871
  401SOL    HW1 1202   0.632   0.866   0.914 -1.7332  1.8550  0.2447
  401SOL    HW2 1203   0.578   0.997   0.837 -0.3689  0.4666  0.4838
  402SOL     OW 1204   0.836   2.919   2.234 -0.0702  0.0249  0.0831
  402SOL    HW1 1205   0.912   2.972   2.279 -0.5778 -1.7707  0.3307
  402SOL    HW2 1206   0.804   2.959   2.141  4.4848 -0.6960  0.6614
  403SOL     OW 1207   2.687   1.884   1.914 -0.5666  0.2669 -0.3017
  403SOL    HW1 1208   2.785   1.918   1.920 -2.1510  0.0563 -2.4343
  403SOL    HW2 1209   2.686   1.785   1.946 -0.9185 -1.4061 -3.2260
  404SOL     OW 1210   2.762   2.268   1.947  0.0627 -0.3312 -0.4087
  404SOL    HW1 1211   2.763   2.326   2.033  1.0294  1.5559 -0.9902
  404SOL    HW2 1212   2.858   2.248   1.921  0.1385 -0.1841  1.2270
  405SOL     OW 1213   1.934   0.028   2.832 -0.0820  0.1805 -0.1338
  405SOL    HW1 1214   1.983   3.033   2.803 -0.2702  0.5105 -1.5253
  405SOL    HW2 1215   1.848   0.041   2.785  2.4263 -0.9771  0.5561
  406SOL     OW 1216   1.039   1.749   0.197  0.1900  0.1239 -0.6547
  406SOL    HW1 1217   1.092   1.800   0.124  1.9759 -1.7058 -0.8798
  406SOL    HW2 1218   0.986   1.815   0.250 -0.4770 -2.2647 -3.1443
  407SOL     OW 1219   1.484   1.331   0.283  0.4668 -0.2731  0.1219
  407SOL    HW1 1220   1.423   1.385   0.221 -0.8171 -0.0026  2.5346
  407SOL    HW2 1221   1.548   1.387   0.340  0.3281  3.0255 -0.2949
  408SOL     OW 1222   0.431   0.429   1.547 -0.8378 -0.4553 -0.1473
  408SOL    HW1 1223   0.360   0.418   1.620  0.3538 -1.8620 -0.2847
  408SOL    HW2 1224   0.525   0.409   1.587 -0.6933  0.8023 -0.8156
  409SOL     OW 1225   2.768   1.422   2.974  0.1340 -0.3679  0.7193
  409SOL    HW1 1226   2.678   1.396   2.938  1.7217 -1.2158  0.8322
  409SOL    HW2 1227   2.768   1.502   3.038 -0.9227 -0.2805  1.7822
  410SOL     OW 1228   2.747   2.773   0.666  0.1498 -0.4449 -0.7424
  410SOL    HW1 1229   2.735   2.796   0.767 -0.1871  1.2274  1.9633
  410SOL    HW2 1230   2.783   2.678   0.658  1.2299  0.5892 -0.1681
  411SOL     OW 1231   0.542   0.575   0.562 -0.3272 -0.0949 -0.2445
  411SOL    HW1 1232   0.638   0.566   0.591 -1.2563  2.0738  0.5105
  411SOL    HW2 1233   0.491   0.488   0.559  3.5401  4.9652  0.1226
  412SOL     OW 1234   1.331   2.818   0.606 -0.8571 -0.4103  0.0134
  412SOL    HW1 1235   1.258   2.846   0.544 -1.9639 -0.7717 -0.7524
  412SOL    HW2 1236   1.331   2.718   0.618 -1.2389 -0.6474  2.9273
  413SOL     OW 1237   1.956   0.564   1.952 -0.0211 -0.3799 -0.0628
  413SOL    HW1 1238   1.991   0.467   1.968  0.4108  1.2222 -1.3704
  413SOL    HW2 1239   1.891   0.580   1.872  0.6648 -1.9191 -0.5551
  414SOL     OW 1240   0.095   0.830   0.445  0.3043 -0.2400  0.3626
  414SOL    HW1 1241   0.019   0.801   0.392  1.2058 -0.6749  0.9600
  414SOL    HW2 1242   0.069   0.884   0.528 -0.3594  1.9117 -0.3658
  415SOL     OW 1243   2.909   1.115   0.398  0.5217  1.0042 -0.2080
  415SOL    HW1 1244   2.829   1.084   0.341 -0.2834 -0.2328 -0.8991
  415SOL    HW2 1245   2.879   1.096   0.496 -3.1134  0.7619  1.4796
  416SOL     OW 1246   2.525   0.427   2.741 -0.3335 -0.3223 -0.0336
  416SOL    HW1 1247   2.569   0.417   2.649 -1.1492 -0.0240  1.9463
  416SOL    HW2 1248   2.554   0.513   2.777 -0.3652 -1.2091 -2.4009
  417SOL     OW 1249   2.314   0.233   0.588 -0.9750 -0.2902 -0.3276
  417SOL    HW1 1250   2.307   0.141   0.536  0.2974 -1.0042  1.7971
  417SOL    HW2 1251   2.329   0.312   0.524 -1.4857 -2.6426 -0.4444
  418SOL     OW 1252   0.416   0.188   0.187  0.0999 -0.3169 -0.4621
  418SOL    HW1 1253   0.467   0.246   0.251 -1.7511  1.0735  0.8545
  418SOL    HW2 1254   0.366   0.110   0.231 -0.4672 -0.4569  1.1673
  419SOL     OW 1255   0.811   0.600   1.128 -0.2316  0.1137  0.4254
  419SOL    HW1 1256   0.793   0.591   1.229 -3.2541 -0.4088 -2.0986
  419SOL    HW2 1257   0.749   0.539   1.078  0.4254  2.2284  1.4250
  420SOL     OW 1258   0.078   0.823   1.083  0.2945  0.1188 -0.6712
  420SOL    HW1 1259   0.175   0.847   1.100 -0.2921  0.3341  0.3078
  420SOL    HW2 1260   0.026   0.865   1.162  3.1174 -1.4150 -0.6364
  421SOL     OW 1261   0.717   1.870   2.961 -0.1407  0.1841  0.3354
  421SOL    HW1 1262   0.641   1.817   2.924  0.6541  0.0717  1.0400
  421SOL    HW2 1263   0.690   1.933   3.036 -0.4640  0.1837 -0.3677
  422SOL     OW 1264   2.526   0.201   1.998  0.5821 -0.2935 -0.3024
  422SOL    HW1 1265   2.611   0.249   1.974 -2.8227  1.9777 -0.2363
  422SOL    HW2 1266   2.458   0.263   2.042 -1.3005 -2.0083 -0.3358
  423SOL     OW 1267   1.936   1.547   0.039 -0.6320  0.0572 -0.3447
  423SOL    HW1 1268   1.990   1.612   3.073  1.7728 -0.6004  1.0502
  423SOL    HW2 1269   1.853   1.511   3.086  0.4155 -2.0085 -2.2050
  424SOL     OW 1270   1.397   1.507   2.235 -0.0504  0.4655 -0.1929
  424SOL    HW1 1271   1.296   1.521   2.224 -1.0314  2.9934 -0.7023
  424SOL    HW2 1272   1.412   1.441   2.313  0.2618 -3.8945  1.3770
  425SOL     OW 1273   3.076   2.644   2.022  0.1347  0.1791 -0.1181
  425SOL    HW1 1274   0.074   2.616   2.051  0.1866 -1.0579  0.2755
  425SOL    HW2 1275   3.003   2.620   2.089 -0.3359  0.9831 -1.7254
  426SOL     OW 1276   2.372   2.847   0.600  0.6407  0.1973 -1.1744
  426SOL    HW1 1277   2.288   2.793   0.609 -0.3238 -0.2818  2.4360
  426SOL    HW2 1278   2.399   2.872   0.696  0.2692 -0.7339  0.5753
  427SOL     OW 1279   0.598   0.938   2.530 -0.2371 -0.8311  0.4736
  427SOL    HW1 1280   0.548   0.922   2.618  1.2007  1.5034  0.3306
  427SOL    HW2 1281   0.703   0.928   2.533  1.3813  1.5329  1.2402
  428SOL     OW 1282   2.733   1.371   2.627 -0.2102 -0.0897 -0.3512
  428SOL    HW1 1283   2.709   1.284   2.579 -0.2837 -1.4694 -1.4789
  428SOL    HW2 1284   2.692   1.382   2.721 -0.0337 -1.4438  1.1571
  429SOL     OW 1285   2.365   0.449   0.369 -0.3517  0.2714  0.3360
  429SOL    HW1 1286   2.316   0.489   0.285 -0.0227  1.3439  1.0870
  429SOL    HW2 1287   2.417   0.365   0.341  3.0669 -0.8756 -0.8608
  430SOL     OW 1288   1.625   2.026   2.528 -0.3391  0.5419  0.1444
  430SOL    HW1 1289   1.669   2.073   2.451  0.0562  0.2200 -2.1617
  430SOL    HW2 1290   1.559   1.954   2.497 -1.6716 -0.6404 -1.2597
  431SOL     OW 1291   0.042   1.724   1.743 -0.7380  0.4498  0.2395
  431SOL    HW1 1292   3.065   1.695   1.811 -2.1844  0.2371 -2.3755
  431SOL    HW2 1293   0.126   1.662   1.753  1.2844  2.4201 -0.3840
  432SOL     OW 1294   1.424   2.089   2.120 -0.0485  0.9967 -0.4527
  432SOL    HW1 1295   1.519   2.068   2.104 -2.0196 -1.2037 -1.3400
  432SOL    HW2 1296   1.388   2.175   2.074  0.7182 -0.6507 -1.7451
  433SOL     OW 1297   0.983   2.185   0.413  0.1417  0.4183 -0.0992
  433SOL    HW1 1298   0.934   2.274   0.413  0.6691  1.1894  1.2535
  433SOL    HW2 1299   0.972   2.128   0.323  0.0314 -0.5030 -1.9351
  434SOL     OW 1300   0.367   2.193   2.431  0.3018  0.4059  0.2370
  434SOL    HW1 1301   0.387   2.231   2.337 -2.6952 -1.4699 -1.5943
  434SOL    HW2 1302   0.350   2.267   2.497 -0.3961  1.5643 -1.4872
  435SOL     OW 1303   0.294   1.292   0.380 -0.3093 -0.6315  0.3036
  435SOL    HW1 1304   0.192   1.290   0.363  0.1548 -0.1877  1.0391
  435SOL    HW2 1305   0.317   1.239   0.465 -1.4831  2.5777 -0.2267
  436SOL     OW 1306   0.197   2.550   1.642  0.2799 -0.0022 -0.4818
  436SOL    HW1 1307   0.143   2.634   1.632  0.6394  0.8283 -0.3032
  436SOL    HW2 1308   0.282   2.570   1.589 -0.7480 -0.7903  0.6856
  437SOL     OW 1309   0.989   0.171   0.460 -0.0418  0.3778  0.9976
  437SOL    HW1 1310   0.997   0.261   0.411 -0.6606  1.9149  0.4636
  437SOL    HW2 1311   0.902   0.123   0.434 -2.2601 -0.4342 -2.0838
  438SOL     OW 1312   0.694   2.208   0.514 -0.1066  0.9672 -0.0334
  438SOL    HW1 1313   0.780   2.265   0.522 -2.1797  0.4700  2.1891
  438SOL    HW2 1314   0.684   2.141   0.594 -0.6089 -1.2020  1.6731
  439SOL     OW 1315   0.413   2.592   1.493  0.0439 -0.0849 -0.2745
  439SOL    HW1 1316   0.437   2.503   1.457 -1.0453  2.1832 -0.2098
  439SOL    HW2 1317   0.407   2.667   1.421  1.0621  0.6599  0.9594
  440SOL     OW 1318   1.864   2.964   1.649  0.7209 -0.0628  0.3118
  440SOL    HW1 1319   1.839   2.931   1.742 -2.6660 -1.2119 -1.1907
  440SOL    HW2 1320   1.950   2.917   1.616  0.2960  0.9633 -0.8417
  441SOL     OW 1321   2.857   0.497   1.701 -0.5153  0.4989  0.4064
  441SOL    HW1 1322   2.770   0.471   1.655  0.1798  0.4659  0.3721
  441SOL    HW2 1323   2.931   0.430   1.678  0.6744 -2.8404 -0.4397
  442SOL     OW 1324   1.879   2.278   0.801 -0.4081 -0.1346 -0.5927
  442SOL    HW1 1325   1.884   2.297   0.904  1.1927  0.3781  0.1240
  442SOL    HW2 1326   1.975   2.268   0.764  0.8122  0.6952  0.2873
  443SOL     OW 1327   2.742   0.548   2.243 -0.4759  0.3831  0.5252
  443SOL    HW1 1328   2.829   0.543   2.296 -2.2707  0.8940  3.0457
  443SOL    HW2 1329   2.737   0.647   2.216  0.7058 -2.1094  1.0386
  444SOL     OW 1330   1.959   0.933   1.891  0.3995 -0.4043  0.0564
  444SOL    HW1 1331   1.911   0.936   1.985 -3.7565 -0.9341 -0.4997
  444SOL    HW2 1332   2.048   0.887   1.900 -2.2424 -3.6055  0.0639
  445SOL     OW 1333   2.796   2.299   1.258 -0.4455 -0.1652 -0.0692
  445SOL    HW1 1334   2.729   2.273   1.330 -3.3642 -2.1530  0.1081
  445SOL    HW2 1335   2.780   2.396   1.228 -0.2917 -0.6345 -0.1205
  446SOL     OW 1336   2.875   1.421   0.654  0.0987  0.3739 -0.2827
  446SOL    HW1 1337   2.896   1.358   0.577  0.0502  1.1312 -0.1254
  446SOL    HW2 1338   2.955   1.444   0.711 -1.3487 -1.9585 -0.7954
  447SOL     OW 1339   0.491   1.370   0.842  0.6338 -0.3071  0.3739
  447SOL    HW1 1340   0.541   1.320   0.914 -1.4003  1.0990 -4.2018
  447SOL    HW2 1341   0.529   1.463   0.828 -0.3848 -1.9062  1.3636
  448SOL     OW 1342   1.499   1.283   1.441  0.1079  0.1353  0.0355
  448SOL    HW1 1343   1.569   1.251   1.508 -1.5946 -1.7243 -0.4223
  448SOL    HW2 1344   1.426   1.335   1.494 -1.5915  0.0101 -0.0770
  449SOL     OW 1345   1.045   1.059   0.155  0.4162  0.4927 -0.1228
  449SOL    HW1 1346   1.139   1.049   0.115  2.0839  0.7179  0.4251
  449SOL    HW2 1347   0.987   1.112   0.088 -1.4408  0.2076 -2.4273
  450SOL     OW 1348   2.467   2.256   2.308  0.3303 -0.2846  0.0984
  450SOL    HW1 1349   2.462   2.340   2.254  0.8670 -3.1722  0.4202
  450SOL    HW2 1350   2.550   2.202   2.278 -1.4504  3.1043  1.3085
  451SOL     OW 1351   1.888   2.846   2.565  0.3153  0.1811 -0.1714
  451SOL    HW1 1352   1.930   2.847   2.660 -2.2554 -2.9212 -1.8460
  451SOL    HW2 1353   1.968   2.857   2.499 -0.0249  2.5891  0.4668
  452SOL     OW 1354   1.505   2.929   1.351  0.0325  0.2261 -0.7236
  452SOL    HW1 1355   1.488   2.950   1.254  0.4118  0.0116  0.8720
  452SOL    HW2 1356   1.524   2.829   1.366  0.3497 -1.0743 -0.5286
  453SOL     OW 1357   1.575   1.041   1.038  0.2968  0.9252  0.0138
  453SOL    HW1 1358   1.653   0.992   0.997 -2.9487 -0.0439 -0.1697
  453SOL    HW2 1359   1.612   1.103   1.114  2.6630 -0.1781  1.8410
  454SOL     OW 1360   0.240   1.443   0.892 -0.9574 -0.6256  0.2837
  454SOL    HW1 1361   0.191   1.442   0.807  1.3349  1.7153  2.9389
  454SOL    HW2 1362   0.333   1.397   0.874  1.9208  0.9125 -1.5615
  455SOL     OW 1363   2.551   3.075   0.303 -0.1176  0.0742 -0.2915
  455SOL    HW1 1364   2.549   3.018   0.221  1.1903  2.1700 -0.2543
  455SOL    HW2 1365   2.637   3.052   0.354 -2.0267  1.2690 -1.4090
  456SOL     OW 1366   2.721   2.548   1.120 -0.1436 -0.3012 -0.4452
  456SOL    HW1 1367   2.710   2.608   1.202 -0.3156 -1.8607  1.2158
  456SOL    HW2 1368   2.641   2.551   1.061  2.0424 -0.9145  0.5301
  457SOL     OW 1369   1.191   0.066   0.298  0.2591  0.3422  0.2025
  457SOL    HW1 1370   1.268   0.131   0.296 -0.7353 -1.7724 -5.6088
  457SOL    HW2 1371   1.132   0.098   0.376 -0.7869 -2.2670  3.2270
  458SOL     OW 1372   2.555   0.643   0.407 -0.3232 -0.2245 -0.5788
  458SOL    HW1 1373   2.628   0.626   0.477 -0.4561 -1.2699 -0.4996
  458SOL    HW2 1374   2.485   0.568   0.397 -1.1590  1.2342 -1.6246
  459SOL     OW 1375   1.947   0.324   2.526  0.0425  0.5367 -0.1221
  459SOL    HW1 1376   1.845   0.346   2.530 -2.3221 -1.8084 -2.3608
  459SOL    HW2 1377   1.980   0.302   2.620 -1.4621 -1.5540  1.4926
  460SOL     OW 1378   2.777   0.018   2.636  0.1313  0.2512  0.3831
  460SOL    HW1 1379   2.780   3.009   2.647 -0.5431 -2.9587 -0.0311
  460SOL    HW2 1380   2.689   0.046   2.593 -0.7843 -1.1977 -0.9047
  461SOL     OW 1381   1.289   1.682   0.813 -0.2970 -0.4531 -0.7813
  461SOL    HW1 1382   1.261   1.608   0.874 -2.6365  2.9685  2.8759
  461SOL    HW2 1383   1.361   1.658   0.745  1.8978  0.9537 -1.7323
  462SOL     OW 1384   2.498   2.811   1.427  0.0274 -0.0587 -0.3047
  462SOL    HW1 1385   2.478   2.910   1.432  0.1099 -1.7818 -0.4376
  462SOL    HW2 1386   2.479   2.759   1.512 -2.5714 -3.3070  0.0954
  463SOL     OW 1387   2.639   1.027   0.632 -0.3941 -0.4527  0.4578
  463SOL    HW1 1388   2.632   0.985   0.538  0.0708  0.4659 -1.2396
  463SOL    HW2 1389   2.621   0.961   0.710 -0.4764  0.2026  2.2963
  464SOL     OW 1390   0.354   2.445   1.097  0.1577  0.2528  0.0133
  464SOL    HW1 1391   0.329   2.435   0.998  0.2460  0.3968 -2.6040
  464SOL    HW2 1392   0.279   2.409   1.156 -1.1097 -0.3550  2.3305
  465SOL     OW 1393   0.055   1.677   0.105  0.1406  0.2757 -0.3023
  465SOL    HW1 1394   0.057   1.584   0.063 -1.9783  0.7725 -1.8222
  465SOL    HW2 1395   3.076   1.734   0.060  1.0098 -1.3729  1.4542
  466SOL     OW 1396   1.238   0.377   2.802  0.1016 -0.6110  0.5503
  466SOL    HW1 1397   1.147   0.411   2.843 -3.8237  0.0514 -2.0243
  466SOL    HW2 1398   1.322   0.405   2.859  4.0464 -2.9751  0.1174
  467SOL     OW 1399   1.091   0.683   2.129 -0.1298  0.5303 -0.5916
  467SOL    HW1 1400   1.191   0.653   2.128  2.4736 -0.8228 -0.6891
  467SOL    HW2 1401   1.082   0.780   2.164  2.1502 -0.1223  0.1291
  468SOL     OW 1402   0.593   1.076   2.297  0.0782 -0.2210 -0.2759
  468SOL    HW1 1403   0.594   1.040   2.390  1.1955  1.2984  0.0330
  468SOL    HW2 1404   0.600   1.181   2.291 -2.5503  1.9667  0.0974
  469SOL     OW 1405   0.052   2.136   3.001  0.2204 -0.7534 -0.0486
  469SOL    HW1 1406   3.050   2.108   2.975  1.2040 -0.5383 -0.3520
  469SOL    HW2 1407   0.050   2.232   3.036  0.5503 -0.4689 -1.6112
  470SOL     OW 1408   2.488   1.789   2.913  0.0710  0.4653 -0.0509
  470SOL    HW1 1409   2.404   1.725   2.900 -1.3884 -1.2445 -1.3441
  470SOL    HW2 1410   2.560   1.744   2.977  3.8883 -0.3021  1.6421
  471SOL     OW 1411   2.217   0.556   2.183 -0.0245 -0.0906  0.6803
  471SOL    HW1 1412   2.274   0.638   2.191 -1.3107 -1.0112  0.3030
  471SOL    HW2 1413   2.154   0.552   2.260  0.5801  2.3529  0.9882
  472SOL     OW 1414   0.659   2.494   1.037 -0.6092  0.3949 -0.1308
  472SOL    HW1 1415   0.715   2.504   1.125 -1.4959 -0.2894  2.4474
  472SOL    HW2 1416   0.564   2.461   1.059 -0.6551  0.5623 -1.1455
  473SOL     OW 1417   0.430   0.026   2.354  0.1567  0.2728 -0.5310
  473SOL    HW1 1418   0.526   0.055   2.360 -1.2505 -0.6105  1.0813
  473SOL    HW2 1419   0.374   0.081   2.289 -0.2068  1.9459  0.5634
  474SOL     OW 1420   1.673   0.002   2.003 -0.0774  0.2001 -0.3717
  474SOL    HW1 1421   1.615   0.060   1.948  1.0680  0.4177  2.9054
  474SOL    HW2 1422   1.654   0.020   2.100  0.6873 -1.4598 -0.2239
  475SOL     OW 1423   1.632   2.573   0.682 -0.1551  0.2284 -0.5707
  475SOL    HW1 1424   1.570   2.494   0.700  0.0858 -1.7615 -1.1787
  475SOL    HW2 1425   1.649   2.578   0.580 -0.1150 -1.8583 -1.3802
  476SOL     OW 1426   0.401   0.613   0.891 -0.1669 -0.2466 -0.1571
  476SOL    HW1 1427   0.325   0.598   0.825 -0.0112  0.4099 -1.8586
  476SOL    HW2 1428   0.456   0.687   0.851  0.3763  0.0356  0.8318
  477SOL     OW 1429   1.351   2.226   0.463  0.4910 -0.0245  0.0558
  477SOL    HW1 1430   1.418   2.146   0.461  1.9928  0.5270 -0.5085
  477SOL    HW2 1431   1.279   2.214   0.537 -0.4822 -1.1088  3.9571
  478SOL     OW 1432   0.184   2.504   2.390  0.5059 -0.0964 -0.0567
  478SOL    HW1 1433   0.262   2.474   2.450  1.5920  0.0461  1.8096
  478SOL    HW2 1434   0.186   2.474   2.293  1.5634 -0.4398  0.9504
  479SOL     OW 1435   2.623   0.453   1.055 -0.2872 -0.0837 -0.3868
  479SOL    HW1 1436   2.702   0.449   0.985  0.5138 -1.7838 -2.7094
  479SOL    HW2 1437   2.550   0.386   1.031 -0.4774  0.9995 -0.4056
  480SOL     OW 1438   0.143   2.876   0.083  0.2434 -0.1043  0.4163
  480SOL    HW1 1439   0.226   2.847   0.134  0.9050  1.1771 -3.0001
  480SOL    HW2 1440   0.093   2.937   0.149 -0.0568  0.0337  0.2406
  481SOL     OW 1441   2.575   2.290   1.485  0.2397 -0.1930 -0.5660
  481SOL    HW1 1442   2.475   2.269   1.483  0.5821  1.0449 -0.1130
  481SOL    HW2 1443   2.622   2.197   1.484  2.6395 -0.6824  1.9862
  482SOL     OW 1444   1.095   2.601   2.624  0.1684  0.4714  0.4700
  482SOL    HW1 1445   1.169   2.546   2.579 -0.5933  0.6645 -0.3551
  482SOL    HW2 1446   1.008   2.548   2.619  1.2672  1.8912 -0.5125
  483SOL     OW 1447   0.501   2.660   2.318  0.6370 -0.0549 -0.3051
  483SOL    HW1 1448   0.437   2.723   2.272 -0.7124  2.1730  0.9031
  483SOL    HW2 1449   0.584   2.635   2.261 -0.3900 -0.6168  4.1675
  484SOL     OW 1450   1.272   0.850   1.766 -0.2246 -0.5408 -0.2206
  484SOL    HW1 1451   1.310   0.947   1.776  1.0236  0.5379 -2.2360
  484SOL    HW2 1452   1.333   0.790   1.716  0.2084 -0.7793 -0.2926
  485SOL     OW 1453   2.307   0.907   2.670  0.5018 -0.1018  0.7793
  485SOL    HW1 1454   2.326   0.821   2.623  0.9409  0.0692 -1.8743
  485SOL    HW2 1455   2.206   0.918   2.687  0.8466  0.3695 -0.4562
  486SOL     OW 1456   2.401   3.075   1.063  0.4713  0.0885 -0.0439
  486SOL    HW1 1457   2.476   3.083   1.130 -2.1465  0.4286 -2.3891
  486SOL    HW2 1458   2.445   3.040   0.974  0.1609  1.9527 -3.2664
  487SOL     OW 1459   0.506   2.063   1.603 -0.1681  0.3909  0.4410
  487SOL    HW1 1460   0.563   1.978   1.632 -0.2114 -1.3605  1.8616
  487SOL    HW2 1461   0.422   2.041   1.548  1.3404  0.6660  2.3485
  488SOL     OW 1462   2.552   1.333   2.830 -0.2795 -0.8857  0.2766
  488SOL    HW1 1463   2.497   1.389   2.891  2.9736 -1.6277 -2.1436
  488SOL    HW2 1464   2.503   1.268   2.766 -1.2486 -0.2803  0.5552
  489SOL     OW 1465   1.822   0.014   1.034 -0.4356  0.3242  0.1145
  489SOL    HW1 1466   1.915   3.088   1.068 -0.2735  1.0326  0.8111
  489SOL    HW2 1467   1.813   0.115   1.020  0.0481 -1.8027  1.0189
  490SOL     OW 1468   0.837   0.920   0.585  0.0872 -0.1378  0.7216
  490SOL    HW1 1469   0.912   0.989   0.564 -1.3635 -0.3338  0.8849
  490SOL    HW2 1470   0.818   0.869   0.497  0.3872  2.1168  0.2886
  491SOL     OW 1471   0.688   2.309   0.829 -0.6451 -0.1831 -0.0140
  491SOL    HW1 1472   0.779   2.275   0.797 -2.6090  1.0355  0.0578
  491SOL    HW2 1473   0.705   2.387   0.900  0.5409  3.4287 -0.2679
  492SOL     OW 1474   1.411   1.792   2.121  0.0992  0.1512  0.3257
  492SOL    HW1 1475   1.359   1.860   2.060 -2.5232  1.4314 -3.2766
  492SOL    HW2 1476   1.376   1.700   2.101  1.5803  1.0982  1.8558
  493SOL     OW 1477   2.837   2.504   0.669 -0.1567  0.5639  0.6652
  493SOL    HW1 1478   2.920   2.498   0.728 -1.8540  0.5390  0.4945
  493SOL    HW2 1479   2.761   2.439   0.693 -1.3989 -0.2844 -0.3258
  494SOL     OW 1480   2.694   2.059   0.149 -0.3110  0.1694 -0.8513
  494SOL    HW1 1481   2.637   2.047   0.064  0.9816  0.4214 -0.2981
  494SOL    HW2 1482   2.778   2.001   0.138 -0.2650  0.3927 -1.4701
  495SOL     OW 1483   2.807   2.445   0.005 -0.7061  0.1969  0.4337
  495SOL    HW1 1484   2.762   2.383   3.032  0.3678 -2.7844 -2.1678
  495SOL    HW2 1485   2.829   2.388   0.090  0.2827 -1.4930  0.4209
  496SOL     OW 1486   2.609   0.348   1.545  0.0955  0.1592  0.0064
  496SOL    HW1 1487   2.523   0.401   1.578 -3.2635  1.9670  0.2248
  496SOL    HW2 1488   2.620   0.351   1.442  0.4086 -0.1499  1.6878
  497SOL     OW 1489   2.973   1.255   2.980  0.2907 -0.2778 -0.5736
  497SOL    HW1 1490   2.977   1.216   3.077  1.5517  1.3775  0.4075
  497SOL    HW2 1491   2.915   1.341   2.979 -1.1346 -0.1250  0.5453
  498SOL     OW 1492   2.962   1.598   1.932  0.3525  0.3308 -0.0726
  498SOL    HW1 1493   2.895   1.632   2.000 -0.7443  0.1826 -2.4002
  498SOL    HW2 1494   3.048   1.569   1.982  1.6891  2.5307  3.6028
  499SOL     OW 1495   0.639   2.294   2.547 -0.2328 -0.4059 -0.0687
  499SOL    HW1 1496   0.549   2.346   2.537  2.5870 -0.1628 -2.9095
  499SOL    HW2 1497   0.626   2.226   2.621  0.1557  1.9740 -1.2309
  500SOL     OW 1498   1.835   0.335   3.046  0.1605 -0.0690 -0.5050
  500SOL    HW1 1499   1.916   0.364   2.984  1.1952 -1.4034 -1.5488
  500SOL    HW2 1500   1.857   0.243   3.075  0.3588  3.8561 -1.6728
  501SOL     OW 1501   1.330   2.957   1.592 -0.1291  0.0069  0.5572
  501SOL    HW1 1502   1.355   2.928   1.496 -0.8338  2.5235  0.6661
  501SOL    HW2 1503   1.418   2.973   1.643 -0.7882 -0.9232 -0.1117
  502SOL     OW 1504   2.557   0.845   1.996  0.1895  0.0222 -0.3015
  502SOL    HW1 1505   2.549   0.944   1.969 -0.0314  0.1712  0.1444
  502SOL    HW2 1506   2.575   0.790   1.913  1.3233 -1.6947  0.6986
  503SOL     OW 1507   2.189   2.098   2.359  0.0545  0.1403  0.1175
  503SOL    HW1 1508   2.169   2.198   2.389  1.4589 -2.3650 -1.7933
  503SOL    HW2 1509   2.108   2.040   2.346 -0.7160 -1.4683  0.8556
  504SOL     OW 1510   1.443   0.696   1.558 -0.2112  0.4445  0.2657
  504SOL    HW1 1511   1.372   0.715   1.485 -1.4003 -0.1116 -2.4424
  504SOL    HW2 1512   1.440   0.597   1.589  1.4699  0.0539  0.9398
  505SOL     OW 1513   0.780   0.896   1.848 -0.3238  0.3972  0.4823
  505SOL    HW1 1514   0.741   0.967   1.783  1.3684  0.7901 -0.2958
  505SOL    HW2 1515   0.879   0.871   1.823  1.1832  0.1470 -0.8687
  506SOL     OW 1516   0.497   0.493   2.595  0.1528 -0.1986 -0.5594
  506SOL    HW1 1517   0.464   0.502   2.692  0.3412 -1.7086  2.5560
  506SOL    HW2 1518   0.584   0.439   2.595 -0.0931  0.5165  0.7260
  507SOL     OW 1519   0.283   0.003   0.348  0.2757  0.0545  0.1037
  507SOL    HW1 1520   0.273   3.077   0.448  0.0378  0.0648  1.0086
  507SOL    HW2 1521   0.193   3.069   0.310 -1.2321 -1.3092 -0.2883
  508SOL     OW 1522   1.360   1.057   1.469 -0.2985  0.4931 -0.8319
  508SOL    HW1 1523   1.371   0.995   1.551  2.5224 -0.8990  1.7293
  508SOL    HW2 1524   1.408   1.143   1.481  0.1860 -3.1436  3.2072
  509SOL     OW 1525   1.531   2.171   1.310  0.3443 -0.2773 -0.5703
  509SOL    HW1 1526   1.489   2.092   1.266  1.5581  1.0428  0.2446
  509SOL    HW2 1527   1.602   2.137   1.382  1.6069 -2.3371  2.9520
  510SOL     OW 1528   2.590   1.258   1.926 -0.2980  0.3981  0.3191
  510SOL    HW1 1529   2.603   1.355   1.889  0.0963 -0.0726  1.1089
  510SOL    HW2 1530   2.563   1.269   2.021  0.2832  1.7763 -0.7631
  511SOL     OW 1531   0.698   2.259   1.561  0.1715 -0.3471  0.3007
  511SOL    HW1 1532   0.736   2.242   1.465 -2.2562 -0.5301 -1.2451
  511SOL    HW2 1533   0.602   2.226   1.563  1.2250 -0.9737 -1.3477
  512SOL     OW 1534   2.631   1.763   0.746 -0.1966 -0.1331  0.2456
  512SOL    HW1 1535   2.626   1.824   0.663  0.5895  1.8652 -1.1220
  512SOL    HW2 1536   2.697   1.804   0.812  1.7276 -0.6075 -0.1548
  513SOL     OW 1537   0.093   1.605   2.807  0.9056  0.5717 -0.4074
  513SOL    HW1 1538   0.130   1.696   2.812 -1.4573 -3.0206 -0.6247
  513SOL    HW2 1539   0.097   1.552   2.897  1.9207 -1.9129 -1.5950
  514SOL     OW 1540   2.896   2.340   2.218  0.0097  0.2973 -0.0521
  514SOL    HW1 1541   2.987   2.288   2.234  2.1330  0.9555  0.5139
  514SOL    HW2 1542   2.916   2.440   2.232 -1.5311 -2.8553 -0.4629
  515SOL     OW 1543   2.110   1.241   1.082 -0.2193  0.3361  0.1878
  515SOL    HW1 1544   2.060   1.235   0.993 -2.1992 -0.1723 -0.0495
  515SOL    HW2 1545   2.093   1.332   1.123  2.6599 -0.6595 -0.4883
  516SOL     OW 1546   2.107   1.946   0.229  0.1482  0.1292 -0.4646
  516SOL    HW1 1547   2.144   1.975   0.320 -0.2696  0.0883  2.7822
  516SOL    HW2 1548   2.128   1.845   0.227 -1.5010  0.5527 -0.4118
  517SOL     OW 1549   0.848   1.204   0.036  0.0795  0.0333 -0.1557
  517SOL    HW1 1550   0.782   1.220   3.054 -0.8741 -0.5854 -0.9705
  517SOL    HW2 1551   0.795   1.158   0.113 -2.2626 -0.0151 -1.1742
  518SOL     OW 1552   2.931   2.906   2.013  0.1530  0.1062  0.1064
  518SOL    HW1 1553   2.891   2.873   2.099 -1.1124  0.6608 -0.4671
  518SOL    HW2 1554   2.972   2.836   1.952 -0.6094  0.9991  1.1738
  519SOL     OW 1555   1.263   1.699   2.517 -0.1214 -0.1693  0.0385
  519SOL    HW1 1556   1.187   1.761   2.546  2.5257  0.4505 -0.8322
  519SOL    HW2 1557   1.317   1.644   2.589  2.1076 -1.5168 -1.3140
  520SOL     OW 1558   2.461   3.001   2.320 -0.2466  0.2847  0.6286
  520SOL    HW1 1559   2.521   3.005   2.241  1.7014  2.3570  0.7446
  520SOL    HW2 1560   2.488   3.078   2.377  1.1294  3.4855  2.0463
  521SOL     OW 1561   0.220   1.825   2.219 -0.0118  0.4198 -0.2472
  521SOL    HW1 1562   0.276   1.823   2.137 -2.2275 -0.8098  2.2199
  521SOL    HW2 1563   0.240   1.742   2.277  1.2635 -0.1439 -1.8914
  522SOL     OW 1564   0.602   2.647   1.686 -0.2341 -0.0196 -0.0131
  522SOL    HW1 1565   0.536   2.632   1.612  0.0069  1.3222  1.4770
  522SOL    HW2 1566   0.686   2.587   1.672 -1.4058 -0.4505 -0.9976
  523SOL     OW 1567   3.031   2.261   1.395  0.1756 -0.0442 -0.2456
  523SOL    HW1 1568   2.992   2.275   1.486  2.5757 -0.0347 -0.3242
  523SOL    HW2 1569   2.956   2.278   1.328  2.6998  3.1073  1.6905
  524SOL     OW 1570   1.484   2.347   0.700  0.0351  0.1525  0.0847
  524SOL    HW1 1571   1.522   2.293   0.622 -2.7496 -2.7269  0.6644
  524SOL    HW2 1572   1.471   2.286   0.781 -0.3202 -1.2476  0.2264
  525SOL     OW 1573   2.431   1.126   1.023 -0.5455 -0.0331 -0.2148
  525SOL    HW1 1574   2.487   1.214   1.019  2.2246  0.7791  0.1431
  525SOL    HW2 1575   2.333   1.150   1.012  1.9828 -0.5069  1.7714
  526SOL     OW 1576   0.923   2.187   0.773 -0.3472 -0.5273 -0.1656
  526SOL    HW1 1577   0.994   2.169   0.708 -3.4203 -0.7363 -0.0201
  526SOL    HW2 1578   0.888   2.104   0.816  0.4464 -2.4073 -3.3417
  527SOL     OW 1579   2.114   2.282   0.618 -0.2721  0.6664  0.1248
  527SOL    HW1 1580   2.030   2.337   0.585 -1.7045  0.3889 -1.7152
  527SOL    HW2 1581   2.198   2.343   0.600  1.1625 -0.2719 -1.0868
  528SOL     OW 1582   2.078   0.284   0.150 -0.0007  0.5235 -0.5563
  528SOL    HW1 1583   2.020   0.348   0.202 -1.8893  0.3135 -0.7207
  528SOL    HW2 1584   2.097   0.194   0.194  1.3423 -0.2029  1.5860
  529SOL     OW 1585   1.133   1.523   2.112  0.1982  0.4479  0.1111
  529SOL    HW1 1586   1.179   1.442   2.074  0.7453  0.3890 -1.0283
  529SOL    HW2 1587   1.086   1.511   2.201 -0.8393  3.0296 -0.7025
  530SOL     OW 1588   2.298   1.033   2.318  0.7250 -0.1944 -0.4007
  530SOL    HW1 1589   2.397   1.040   2.321 -1.5309  0.6633 -2.6070
  530SOL    HW2 1590   2.255   1.101   2.385 -1.7147  0.0926 -0.7121
  531SOL     OW 1591   0.858   0.842   0.100  0.6590  0.2579  0.8931
  531SOL    HW1 1592   0.894   0.940   0.113 -0.6443 -0.3261 -0.0442
  531SOL    HW2 1593   0.755   0.847   0.081 -1.7863 -0.4644 -0.6891
  532SOL     OW 1594   1.627   1.212   0.637 -0.9619 -0.4914 -0.2424
  532SOL    HW1 1595   1.650   1.111   0.646 -1.2169 -4.0493 -0.3196
  532SOL    HW2 1596   1.526   1.232   0.659  0.1613 -1.1861 -1.0112
  533SOL     OW 1597   0.340   0.784   2.177 -0.5369 -0.0779 -0.4384
  533SOL    HW1 1598   0.406   0.806   2.105 -2.0270  2.0605  0.1272
  533SOL    HW2 1599   0.377   0.776   2.271  3.7354 -1.0328 -3.7343
  534SOL     OW 1600   1.438   0.310   2.648  0.4324  0.3070  0.1059
  534SOL    HW1 1601   1.360   0.354   2.700  0.5396  1.5554  1.6126
  534SOL    HW2 1602   1.406   0.216   2.616  0.7424  2.0706  1.2087
  535SOL     OW 1603   0.761   0.042   0.409 -0.1861 -0.2338  0.2469
  535SOL    HW1 1604   0.717   3.054   0.371 -0.6001 -1.4153 -1.2633
  535SOL    HW2 1605   0.688   0.090   0.460 -2.0844  0.8763  0.1571
  536SOL     OW 1606   1.050   0.157   2.960  0.5736 -0.1705  0.6345
  536SOL    HW1 1607   1.024   0.250   2.984 -0.6716  1.8014  1.8358
  536SOL    HW2 1608   1.031   0.096   3.043 -0.7223 -0.7188  1.7331
  537SOL     OW 1609   1.513   2.852   1.795  0.3451  0.5281  0.5724
  537SOL    HW1 1610   1.495   2.761   1.751 -0.7677 -1.7713  0.8425
  537SOL    HW2 1611   1.604   2.852   1.842  0.8485  2.3644 -2.3258
  538SOL     OW 1612   0.399   2.734   0.193  0.4854  0.4922 -0.0315
  538SOL    HW1 1613   0.377   2.750   0.289 -0.5318  0.0039 -0.0127
  538SOL    HW2 1614   0.459   2.804   0.156 -1.4151  1.2048 -1.0681
  539SOL     OW 1615   2.833   1.176   1.832  0.8340 -0.4568  0.1325
  539SOL    HW1 1616   2.872   1.267   1.806  0.0062  0.3716  1.2132
  539SOL    HW2 1617   2.741   1.198   1.878 -4.0452 -1.9177  0.8491
  540SOL     OW 1618   2.274   2.241   2.038  0.2994  0.5508 -0.1915
  540SOL    HW1 1619   2.278   2.305   2.114 -2.3633 -2.6963  0.2255
  540SOL    HW2 1620   2.364   2.240   1.987  1.6087 -0.6154 -0.4702
  541SOL     OW 1621   0.396   2.690   1.202  0.2890 -0.2412 -0.7137
  541SOL    HW1 1622   0.391   2.603   1.150 -1.1889  0.5292  0.9535
  541SOL    HW2 1623   0.376   2.767   1.140 -1.4864  2.3672  1.1377
  542SOL     OW 1624   2.756   0.365   2.020  0.2888  0.5355  0.1998
  542SOL    HW1 1625   2.848   0.335   2.042 -0.5564  1.0658  1.6679
  542SOL    HW2 1626   2.725   0.434   2.087  0.3108 -1.7187 -1.2006
  543SOL     OW 1627   1.054   0.502   1.151  0.5860 -0.1710  0.1604
  543SOL    HW1 1628   0.963   0.549   1.130  0.2173  1.3345  1.6664
  543SOL    HW2 1629   1.045   0.430   1.222  2.8177 -0.3484 -0.4829
  544SOL     OW 1630   2.358   2.160   1.136 -0.4369  0.2658  0.1322
  544SOL    HW1 1631   2.323   2.066   1.118  0.7720 -0.6470  0.6189
  544SOL    HW2 1632   2.296   2.230   1.092 -2.3782  0.6727  5.2870
  545SOL     OW 1633   1.425   1.582   1.264  0.2703  0.5380 -0.0864
  545SOL    HW1 1634   1.517   1.609   1.294  0.0560  0.2027 -0.2835
  545SOL    HW2 1635   1.382   1.520   1.334  0.8137  0.3155  1.4898
  546SOL     OW 1636   2.945   0.199   2.795 -0.8015 -0.3220  0.4025
  546SOL    HW1 1637   2.891   0.143   2.731  0.6557 -1.9846  0.7530
  546SOL    HW2 1638   2.916   0.171   2.896 -1.8782 -1.1378  2.4799
  547SOL     OW 1639   2.273   0.330   2.621  0.2861  0.2174  0.0642
  547SOL    HW1 1640   2.187   0.303   2.669 -2.0322  2.6136 -1.0820
  547SOL    HW2 1641   2.344   0.375   2.680 -0.1857 -0.3430  0.4309
  548SOL     OW 1642   2.625   1.961   2.742  0.0260  0.3031  0.2997
  548SOL    HW1 1643   2.565   1.884   2.776  3.2368 -1.6123  2.8067
  548SOL    HW2 1644   2.723   1.937   2.762  3.2691  1.8749 -0.6926
  549SOL     OW 1645   2.206   0.593   0.554  0.0009 -0.3628  0.2375
  549SOL    HW1 1646   2.259   0.641   0.629 -1.0004  0.6402  0.6355
  549SOL    HW2 1647   2.268   0.533   0.496  0.9607 -3.4187  1.8479
  550SOL     OW 1648   2.619   1.195   0.070  0.1193  0.3280 -0.1889
  550SOL    HW1 1649   2.522   1.169   0.093 -0.9529 -2.8289 -0.1034
  550SOL    HW2 1650   2.635   1.217   3.064  0.5607  0.3625  0.2784
  551SOL     OW 1651   1.375   2.483   1.313  0.1043 -0.5682 -0.6871
  551SOL    HW1 1652   1.275   2.506   1.329 -1.4839 -0.5642 -0.4949
  551SOL    HW2 1653   1.388   2.444   1.218  0.5749 -0.1946 -0.4292
  552SOL     OW 1654   2.701   2.282   2.871  0.0719  0.7366  0.1170
  552SOL    HW1 1655   2.685   2.330   2.782  0.1149  2.2573  2.7493
  552SOL    HW2 1656   2.621   2.297   2.930  0.4807 -2.5336 -0.6308
  553SOL     OW 1657   0.318   3.044   0.618 -0.0099  0.4756  0.4217
  553SOL    HW1 1658   0.254   0.009   0.668 -1.4043 -1.7409  0.5861
  553SOL    HW2 1659   0.404   3.029   0.670  0.3628 -1.4414 -0.5437
  554SOL     OW 1660   1.793   1.956   1.692  0.4932 -0.2384 -0.1825
  554SOL    HW1 1661   1.695   1.969   1.728 -2.9935 -0.4503  1.2149
  554SOL    HW2 1662   1.819   1.863   1.727  2.2795 -4.1649 -0.9981
  555SOL     OW 1663   1.377   2.354   1.989 -0.0814 -0.5814  0.5513
  555SOL    HW1 1664   1.438   2.373   2.068 -2.7685 -0.5433  0.8347
  555SOL    HW2 1665   1.287   2.402   2.008 -1.2860 -1.6060  0.8312
  556SOL     OW 1666   1.696   0.928   0.700 -0.5129  0.4456 -0.3229
  556SOL    HW1 1667   1.759   0.943   0.776 -2.4168 -0.6122 -0.0775
  556SOL    HW2 1668   1.691   0.830   0.668  1.3337  1.1187 -0.0139
  557SOL     OW 1669   1.549   2.270   1.777 -0.2874  0.6800 -0.0394
  557SOL    HW1 1670   1.510   2.295   1.687 -0.4934 -1.6733  1.7285
  557SOL    HW2 1671   1.484   2.282   1.851  3.8606  0.3929  0.6130
  558SOL     OW 1672   3.080   1.012   2.442  0.0848 -0.0158  0.2034
  558SOL    HW1 1673   3.049   0.969   2.527 -0.1335  1.0384  2.1152
  558SOL    HW2 1674   0.013   0.939   2.376  2.0575  0.2107  0.3228
  559SOL     OW 1675   2.375   2.492   2.145 -0.5020  0.1037  0.4334
  559SOL    HW1 1676   2.281   2.513   2.108 -1.9643  0.3193  1.9704
  559SOL    HW2 1677   2.406   2.560   2.215 -0.6176  0.4204  1.5473
  560SOL     OW 1678   0.239   2.956   2.484  0.0178  0.0318 -0.9394
  560SOL    HW1 1679   0.142   2.984   2.476  0.9093  1.3174 -0.5199
  560SOL    HW2 1680   0.308   3.028   2.460  0.7463  0.9434  2.7679
  561SOL     OW 1681   1.725   0.655   0.588  0.3508 -0.0946 -0.0541
  561SOL    HW1 1682   1.669   0.568   0.572 -3.2634 -0.4327 -2.5685
  561SOL    HW2 1683   1.815   0.653   0.534 -1.9691  0.5411 -1.0615
  562SOL     OW 1684   0.774   1.289   2.054 -0.3712 -0.1851  0.3260
  562SOL    HW1 1685   0.803   1.203   2.099  0.2535  0.3777  2.0538
  562SOL    HW2 1686   0.763   1.362   2.124 -0.6296 -1.4327  0.7122
  563SOL     OW 1687   1.442   1.961   0.112 -0.1335  0.3075  0.0854
  563SOL    HW1 1688   1.466   1.881   0.174 -0.3218  0.0310  1.1893
  563SOL    HW2 1689   1.523   2.003   0.064 -2.7699 -3.2131 -0.7810
  564SOL     OW 1690   0.323   1.959   0.807 -0.5297 -0.1083  0.0839
  564SOL    HW1 1691   0.263   2.002   0.734 -1.4123 -0.4061  0.9842
  564SOL    HW2 1692   0.281   1.871   0.831  0.8402 -1.2669 -0.8425
  565SOL     OW 1693   0.551   2.891   0.014  0.0546 -0.4549 -0.0468
  565SOL    HW1 1694   0.522   2.833   3.028 -2.9080  1.2671  1.4846
  565SOL    HW2 1695   0.546   2.988   3.085 -0.6617 -1.2415  0.0925
  566SOL     OW 1696   1.566   2.551   2.935 -0.2566  0.0667  0.2884
  566SOL    HW1 1697   1.626   2.506   3.001  1.5103 -1.3811 -1.2524
  566SOL    HW2 1698   1.611   2.620   2.879 -0.9820  1.7753 -0.8129
  567SOL     OW 1699   2.413   1.743   0.895 -0.0169  0.2870 -0.5804
  567SOL    HW1 1700   2.481   1.756   0.819  0.8157  0.6998 -2.5800
  567SOL    HW2 1701   2.422   1.648   0.930 -2.1220  1.7314 -0.3971
  568SOL     OW 1702   1.595   1.041   2.556  0.4436  0.3425 -0.1054
  568SOL    HW1 1703   1.508   0.991   2.548  0.2424  1.1450  0.3081
  568SOL    HW2 1704   1.596   1.108   2.634  1.2753  1.9549 -1.5090
  569SOL     OW 1705   2.268   1.741   1.852 -0.3429  0.0677  0.0071
  569SOL    HW1 1706   2.330   1.679   1.797 -0.4517  1.4328  0.2206
  569SOL    HW2 1707   2.280   1.732   1.955 -2.1453 -0.4226  0.7955
  570SOL     OW 1708   2.929   2.783   1.728 -0.1023  0.0858  0.2476
  570SOL    HW1 1709   3.020   2.755   1.686  1.3482 -1.0296 -2.1579
  570SOL    HW2 1710   2.871   2.827   1.656  0.8164 -2.7313  1.6792
  571SOL     OW 1711   0.099   0.638   1.358  0.4579  0.7807 -0.6419
  571SOL    HW1 1712   0.172   0.635   1.285  1.9138 -1.9835 -1.9015
  571SOL    HW2 1713   0.069   0.728   1.396  0.8797  1.4514  2.9540
  572SOL     OW 1714   0.650   1.564   0.718  0.0063 -0.3128  0.1146
  572SOL    HW1 1715   0.636   1.634   0.790 -0.1273  0.1277  1.6677
  572SOL    HW2 1716   0.668   1.604   0.624  3.5953  1.7531 -0.6189
  573SOL     OW 1717   1.110   0.869   0.330  0.3243  0.0792  0.1622
  573SOL    HW1 1718   1.064   0.779   0.324  0.4988 -1.7863  0.4471
  573SOL    HW2 1719   1.070   0.937   0.260 -1.0379  0.6736  0.6518
  574SOL     OW 1720   0.197   0.494   0.296 -0.5580 -0.0419 -0.2610
  574SOL    HW1 1721   0.171   0.444   0.212 -1.4304 -0.6602  0.5486
  574SOL    HW2 1722   0.288   0.535   0.275 -0.5954 -0.7275 -2.0099
  575SOL     OW 1723   0.917   1.978   1.115 -0.2388 -0.4198 -0.2583
  575SOL    HW1 1724   0.866   2.006   1.030 -0.0520 -1.6155  0.3552
  575SOL    HW2 1725   0.982   2.048   1.151 -1.0932  0.8534  2.2971
  576SOL     OW 1726   2.965   0.038   1.860 -0.3535  0.0238 -0.4054
  576SOL    HW1 1727   2.888   0.051   1.796  0.7904  0.5818  3.7519
  576SOL    HW2 1728   2.936   3.057   1.921  1.1534  1.9918 -3.1323
  577SOL     OW 1729   2.733   1.636   2.063 -0.2481 -0.2476 -0.1671
  577SOL    HW1 1730   2.699   1.700   2.135  2.8468 -1.3283 -0.9617
  577SOL    HW2 1731   2.740   1.542   2.107 -0.3360 -0.9725 -2.3543
  578SOL     OW 1732   1.080   3.035   2.340  0.4180  0.5662 -0.4068
  578SOL    HW1 1733   1.152   3.065   2.276  0.6017 -1.2927  0.1069
  578SOL    HW2 1734   1.112   2.982   2.416 -0.1692  1.3652 -4.0197
  579SOL     OW 1735   1.940   1.977   2.307 -0.4094 -0.3072 -0.3476
  579SOL    HW1 1736   1.948   2.009   2.209 -2.3126 -0.5508 -1.5796
  579SOL    HW2 1737   1.855   1.920   2.320 -0.5189 -0.2201  2.3610
  580SOL     OW 1738   1.802   0.998   2.114  0.2393  0.1306 -0.2251
  580SOL    HW1 1739   1.722   0.942   2.090  0.3428 -1.6689  1.5009
  580SOL    HW2 1740   1.819   0.987   2.214 -2.6334  1.6694  0.2922
  581SOL     OW 1741   1.195   1.261   2.409  0.2209  0.2348 -0.0772
  581SOL    HW1 1742   1.287   1.237   2.445  0.4198 -1.8414 -0.9772
  581SOL    HW2 1743   1.175   1.358   2.401  0.8398  1.3507 -0.4076
  582SOL     OW 1744   3.087   2.196   1.918 -0.4267 -0.1648  0.2192
  582SOL    HW1 1745   0.059   2.178   1.994  1.4543  0.0272 -0.7717
  582SOL    HW2 1746   0.011   2.288   1.882  3.1886 -3.1359  1.8436
  583SOL     OW 1747   1.722   1.491   1.173  0.5265 -0.1021  0.0639
  583SOL    HW1 1748   1.719   1.508   1.073  0.7622 -1.3439  0.2114
  583SOL    HW2 1749   1.709   1.576   1.228  1.8564 -0.5886  2.1620
  584SOL     OW 1750   0.849   2.351   0.003  0.5456 -0.1618  0.4249
  584SOL    HW1 1751   0.901   2.395   0.071 -4.6541 -3.8632 -2.6449
  584SOL    HW2 1752   0.918   2.306   3.038  1.1852  2.0134 -0.9002
  585SOL     OW 1753   0.245   2.362   0.370 -0.1048  0.2804 -0.7633
  585SOL    HW1 1754   0.169   2.330   0.311  1.5829  1.5657  1.1656
  585SOL    HW2 1755   0.324   2.412   0.325 -1.3352  2.7379 -1.1230
  586SOL     OW 1756   2.131   1.418   0.390 -0.5485  0.2204 -0.0688
  586SOL    HW1 1757   2.066   1.384   0.319  0.1094 -0.2317 -1.3627
  586SOL    HW2 1758   2.093   1.421   0.487  0.2895  0.3041  3.4506
  587SOL     OW 1759   2.921   1.946   0.269  0.0120  0.0619 -0.3795
  587SOL    HW1 1760   2.967   2.016   0.328 -0.6217  0.5682  0.5356
  587SOL    HW2 1761   2.866   1.881   0.330 -1.9574 -1.5010  1.8181
  588SOL     OW 1762   3.052   0.689   0.890  0.0683 -0.7317 -0.5014
  588SOL    HW1 1763   3.093   0.731   0.976 -1.4405 -1.4352 -0.1183
  588SOL    HW2 1764   3.003   0.600   0.914 -0.6669 -2.5990 -0.0225
  589SOL     OW 1765   1.108   0.451   0.885 -0.4046 -0.4442  0.0287
  589SOL    HW1 1766   1.179   0.486   0.822  0.4470 -0.2921  3.0209
  589SOL    HW2 1767   1.109   0.491   0.978  0.7345  0.5190 -0.7736
  590SOL     OW 1768   2.446   2.498   0.129 -0.1552  0.2301  0.0133
  590SOL    HW1 1769   2.519   2.456   0.184  1.4106 -0.4787  0.2922
  590SOL    HW2 1770   2.457   2.599   0.127  0.5157 -1.8046  0.3982
  591SOL     OW 1771   0.439   2.430   1.975 -0.2037  0.3752  0.1182
  591SOL    HW1 1772   0.525   2.474   1.950  2.1905 -1.5472  0.7598
  591SOL    HW2 1773   0.394   2.385   1.897  0.7060 -1.1651  0.5866
  592SOL     OW 1774   0.488   1.452   1.878 -0.2559 -0.8366 -0.1418
  592SOL    HW1 1775   0.566   1.500   1.831  1.6208 -1.8589  1.1552
  592SOL    HW2 1776   0.478   1.356   1.850 -1.2574  1.9308  0.7646
  593SOL     OW 1777   1.395   1.909   1.464  0.6171 -0.0945 -0.4322
  593SOL    HW1 1778   1.398   1.938   1.368  0.6196 -1.4331 -0.2704
  593SOL    HW2 1779   1.485   1.867   1.490 -0.7017 -0.7352  3.3249
  594SOL     OW 1780   0.435   0.968   2.780  0.0336 -0.0901  0.3271
  594SOL    HW1 1781   0.461   1.042   2.844  0.7285 -1.9292  0.4338
  594SOL    HW2 1782   0.346   0.990   2.733 -0.7949  1.9589  0.2864
  595SOL     OW 1783   1.826   0.278   1.040  0.1685 -0.1523  0.2040
  595SOL    HW1 1784   1.759   0.324   0.983  0.4259 -1.3933 -2.7788
  595SOL    HW2 1785   1.825   0.296   1.138  2.0218 -0.4181 -3.1278
  596SOL     OW 1786   0.401   1.147   1.228 -0.1955  0.6228  0.1327
  596SOL    HW1 1787   0.446   1.187   1.148  0.2907 -0.0916 -0.9405
  596SOL    HW2 1788   0.313   1.199   1.245  1.6453  1.0898 -1.3559
  597SOL     OW 1789   2.933   2.467   2.641 -0.3571  0.4326  0.4263
  597SOL    HW1 1790   2.986   2.516   2.713 -0.0882  0.6693  1.2640
  597SOL    HW2 1791   2.832   2.469   2.656 -2.1719  0.8468 -0.6130
  598SOL     OW 1792   2.208   2.003   2.813 -0.1414  0.1708  0.2998
  598SOL    HW1 1793   2.115   2.038   2.833  0.6685  0.7517 -0.0063
  598SOL    HW2 1794   2.277   2.076   2.816 -2.5431 -1.7753 -2.6774
  599SOL     OW 1795   1.534   0.547   0.342 -0.3055 -0.3010  0.0101
  599SOL    HW1 1796   1.477   0.617   0.390 -0.5138  1.9357  2.7569
  599SOL    HW2 1797   1.586   0.491   0.408 -2.6562  0.1222  0.4008
  600SOL     OW 1798   0.814   0.245   0.149 -0.0076  0.3534  0.0690
  600SOL    HW1 1799   0.875   0.162   0.151  0.9407 -2.3454  0.0753
  600SOL    HW2 1800   0.857   0.324   0.103 -1.2121  0.5527 -0.7033
  601SOL     OW 1801   0.494   0.110   1.473  0.0915 -0.7030  0.5753
  601SOL    HW1 1802   0.476   0.148   1.379  0.0454  0.0996 -0.8361
  601SOL    HW2 1803   0.407   0.111   1.523  1.8530  1.2300 -2.2977
  602SOL     OW 1804   0.260   2.812   0.913  0.1655  0.2408 -0.5646
  602SOL    HW1 1805   0.233   2.821   0.817  3.0004  1.6840  2.7310
  602SOL    HW2 1806   0.190   2.861   0.969 -0.0644 -0.6942 -0.8583
  603SOL     OW 1807   0.683   2.867   2.459  0.2360  0.2419  0.6177
  603SOL    HW1 1808   0.725   2.904   2.373  2.6369 -2.2387  0.0045
  603SOL    HW2 1809   0.599   2.811   2.448  0.7669  0.7624 -0.0864
  604SOL     OW 1810   1.029   2.724   0.085 -0.1596 -0.1254 -0.0835
  604SOL    HW1 1811   1.007   2.656   0.156  0.1572 -0.6371 -0.8578
  604SOL    HW2 1812   1.031   2.679   3.090  0.0007 -1.2321  2.3018
  605SOL     OW 1813   1.531   0.929   1.656  0.6253 -0.3601 -0.2114
  605SOL    HW1 1814   1.521   0.833   1.615 -1.5561 -1.3425 -0.1030
  605SOL    HW2 1815   1.631   0.958   1.676  0.8796  3.7211  2.7696
  606SOL     OW 1816   1.287   0.793   2.835 -0.0835 -0.2380 -0.1558
  606SOL    HW1 1817   1.254   0.741   2.749 -0.4032 -0.6229 -2.9510
  606SOL    HW2 1818   1.215   0.798   2.905  1.5104 -1.1105  0.5168
  607SOL     OW 1819   0.175   1.307   1.331  0.1340  0.4760 -0.1508
  607SOL    HW1 1820   0.078   1.319   1.304  1.1531 -0.5196 -0.0903
  607SOL    HW2 1821   0.228   1.395   1.321  0.5716  1.0985 -1.2596
  608SOL     OW 1822   2.712   2.187   2.569  0.1959  0.3415  0.0037
  608SOL    HW1 1823   2.732   2.154   2.475 -0.6327 -0.8290  0.3997
  608SOL    HW2 1824   2.656   2.119   2.624 -0.5118  2.1973  1.0815
  609SOL     OW 1825   2.136   0.000   0.293  0.0971  0.1374  0.2754
  609SOL    HW1 1826   2.048   0.003   0.345 -0.2134  1.0485  0.5465
  609SOL    HW2 1827   2.216   3.074   0.353 -0.2503 -0.5382  1.0545
  610SOL     OW 1828   0.799   2.551   1.268 -0.0062  0.0159  0.0576
  610SOL    HW1 1829   0.884   2.562   1.216 -2.4145  2.1729  2.0662
  610SOL    HW2 1830   0.776   2.636   1.318 -0.2876 -0.7653  0.3229
  611SOL     OW 1831   0.925   1.575   0.669 -0.3543  0.1722 -0.3554
  611SOL    HW1 1832   0.828   1.603   0.660  1.7944 -1.1716 -0.0672
  611SOL    HW2 1833   0.947   1.505   0.741 -0.0322 -2.6410 -0.9218
  612SOL     OW 1834   0.667   0.215   2.335 -0.1810  0.3519 -0.5340
  612SOL    HW1 1835   0.654   0.278   2.259  2.1253 -2.8162  1.9616
  612SOL    HW2 1836   0.761   0.178   2.332  2.5537  1.1989 -0.2169
  613SOL     OW 1837   2.818   1.743   0.447 -0.1269 -0.5913 -0.0288
  613SOL    HW1 1838   2.837   1.778   0.540  0.8871 -1.7709  0.8665
  613SOL    HW2 1839   2.730   1.694   0.434  0.8235  0.3980 -2.1723
  614SOL     OW 1840   1.727   0.472   1.726 -0.2213 -0.5413  0.0514
  614SOL    HW1 1841   1.714   0.569   1.763 -0.8199  0.0058 -0.3375
  614SOL    HW2 1842   1.661   0.456   1.655  4.5758 -1.8071 -0.7732
  615SOL     OW 1843   1.036   1.742   1.198 -0.6898  0.5484 -0.1267
  615SOL    HW1 1844   1.069   1.764   1.294 -1.3970  1.6102 -2.5742
  615SOL    HW2 1845   0.998   1.831   1.166  0.5518 -2.8470 -0.3706
  616SOL     OW 1846   1.439   1.587   2.686 -0.1886  0.0463 -0.4313
  616SOL    HW1 1847   1.521   1.567   2.626 -0.5099 -0.8820  1.1313
  616SOL    HW2 1848   1.461   1.668   2.742  0.4429 -0.2589 -0.0945
  617SOL     OW 1849   1.655   2.576   0.413  0.1758  0.1911  0.5666
  617SOL    HW1 1850   1.572   2.626   0.377 -0.6591 -2.3234 -0.0932
  617SOL    HW2 1851   1.652   2.482   0.372  0.7238 -1.3959  2.4840
  618SOL     OW 1852   0.870   0.941   2.581 -0.0523 -0.5347  0.1481
  618SOL    HW1 1853   0.931   0.964   2.666  1.5475 -0.6596  2.6412
  618SOL    HW2 1854   0.914   0.972   2.496  0.2405  0.1128  1.3160
  619SOL     OW 1855   2.599   1.566   0.442 -0.4577  0.0630  0.7026
  619SOL    HW1 1856   2.560   1.500   0.375  1.7615 -1.3364 -1.6425
  619SOL    HW2 1857   2.610   1.520   0.532 -2.2318  1.6254  0.1050
  620SOL     OW 1858   2.244   2.746   0.045  0.7496 -0.4232 -0.6030
  620SOL    HW1 1859   2.304   2.728   0.125 -3.0196 -2.0763 -3.8670
  620SOL    HW2 1860   2.148   2.762   0.077 -0.9005 -1.5507  2.1449
  621SOL     OW 1861   2.284   1.214   0.086 -0.0596 -0.0106  0.4098
  621SOL    HW1 1862   2.309   1.156   0.163 -1.8556  1.3996 -0.9630
  621SOL    HW2 1863   2.183   1.220   0.078  0.5436  2.0534  1.2112
  622SOL     OW 1864   1.295   2.451   2.464 -0.3086 -0.2320 -0.1049
  622SOL    HW1 1865   1.274   2.367   2.422 -0.5945  1.5939  1.0395
  622SOL    HW2 1866   1.360   2.446   2.543 -0.9444 -1.9897  0.7823
  623SOL     OW 1867   0.722   1.598   0.208 -0.0080 -0.4364  0.0179
  623SOL    HW1 1868   0.789   1.634   0.142  0.1951 -1.0231  0.5572
  623SOL    HW2 1869   0.631   1.574   0.169  1.4300  1.9522 -0.6814
  624SOL     OW 1870   0.564   0.128   2.799 -0.0497 -0.3273 -0.0708
  624SOL    HW1 1871   0.565   0.126   2.900  0.1139 -1.4778 -2.5855
  624SOL    HW2 1872   0.565   0.033   2.757  1.0766 -0.4088  0.4755
  625SOL     OW 1873   0.902   1.948   0.502 -0.2911 -0.1002  0.4402
  625SOL    HW1 1874   0.926   2.043   0.471 -0.2465  1.6350 -1.2653
  625SOL    HW2 1875   0.990   1.892   0.511  0.2983  0.0561  2.6625
  626SOL     OW 1876   2.433   0.053   3.034  0.0472  0.3445  0.4625
  626SOL    HW1 1877   2.336   0.050   3.066  0.0963 -2.2565  1.4834
  626SOL    HW2 1878   2.479   0.142   3.053  1.2054 -1.1797  0.2404
  627SOL     OW 1879   1.485   1.312   2.452 -0.0639  0.2142 -0.1774
  627SOL    HW1 1880   1.545   1.230   2.469  0.1184 -1.2041 -0.8761
  627SOL    HW2 1881   1.538   1.401   2.476  0.1201  2.4956 -1.6946
  628SOL     OW 1882   0.990   0.417   2.290 -0.3440 -0.5446  0.2934
  628SOL    HW1 1883   1.026   0.405   2.198  1.2646  0.9687  0.6743
  628SOL    HW2 1884   0.903   0.473   2.292  1.6142 -0.4054  2.1685
  629SOL     OW 1885   0.354   0.110   1.885 -0.2092 -0.5214 -0.0496
  629SOL    HW1 1886   0.347   0.008   1.896  0.5276  0.7220 -0.0972
  629SOL    HW2 1887   0.454   0.147   1.894  1.5434 -0.8888 -1.0361
  630SOL     OW 1888   2.373   0.610   1.725  0.0422  0.0300 -0.2408
  630SOL    HW1 1889   2.365   0.679   1.645  2.8728 -0.6900 -2.3430
  630SOL    HW2 1890   2.317   0.649   1.803 -2.9328 -0.1324  1.6844
  631SOL     OW 1891   2.372   1.042   0.261 -0.0992  0.6119  0.9326
  631SOL    HW1 1892   2.441   1.013   0.333 -0.9276  1.3789 -0.3579
  631SOL    HW2 1893   2.276   1.020   0.278  0.9860 -1.1637  0.4710
  632SOL     OW 1894   2.038   0.315   2.011  0.3476 -0.3844  0.2249
  632SOL    HW1 1895   2.006   0.227   1.979  0.7576  2.5698  1.1854
  632SOL    HW2 1896   2.031   0.316   2.115 -0.5795  0.5636  1.1716
  633SOL     OW 1897   0.681   2.802   0.514  0.3932 -0.1714  0.3752
  633SOL    HW1 1898   0.667   2.703   0.484 -2.1578  1.8215 -3.0205
  633SOL    HW2 1899   0.620   2.863   0.457  0.0814 -3.0629  0.5285
  634SOL     OW 1900   1.417   2.901   2.741 -0.7635  0.2021  0.7402
  634SOL    HW1 1901   1.510   2.923   2.775  2.1808  3.2924 -3.8837
  634SOL    HW2 1902   1.348   2.914   2.813  0.9457 -0.9934 -3.0137
  635SOL     OW 1903   2.459   0.410   0.062  0.1793  1.1600 -0.3527
  635SOL    HW1 1904   2.534   0.413   0.130 -0.1123  0.6573  0.6337
  635SOL    HW2 1905   2.381   0.473   0.077  0.4426 -0.3520 -3.2696
  636SOL     OW 1906   0.853   1.560   1.088  0.2917  0.1265 -0.4202
  636SOL    HW1 1907   0.942   1.609   1.104  3.4132 -0.9542 -1.0794
  636SOL    HW2 1908   0.865   1.459   1.091  1.7061  2.2477 -0.6647
  637SOL     OW 1909   0.031   2.754   0.485  0.1458  0.0815  0.0506
  637SOL    HW1 1910   0.033   2.651   0.487 -0.3792 -0.9236  1.3872
  637SOL    HW2 1911   3.056   2.781   0.417 -2.6836 -0.3883 -1.7881
  638SOL     OW 1912   0.316   2.752   0.458  0.2758  0.9585  0.4241
  638SOL    HW1 1913   0.215   2.737   0.462  2.8171  1.6927  1.1199
  638SOL    HW2 1914   0.342   2.794   0.546 -2.5186 -0.0467 -1.2446
  639SOL     OW 1915   0.996   1.297   0.343  0.2181 -0.2721 -0.2751
  639SOL    HW1 1916   0.999   1.221   0.277  0.9655  2.3579  0.1774
  639SOL    HW2 1917   1.058   1.372   0.317 -2.0308 -0.4833  1.5383
  640SOL     OW 1918   1.220   2.522   0.898 -0.1665  0.8544 -0.2745
  640SOL    HW1 1919   1.313   2.526   0.946  0.0999 -1.1330  0.5119
  640SOL    HW2 1920   1.232   2.519   0.795  2.0199 -0.1078 -1.9101
  641SOL     OW 1921   0.050   2.477   0.529 -0.1839 -0.0754 -0.1094
  641SOL    HW1 1922   3.065   2.431   0.483 -0.2878 -2.1391 -0.9517
  641SOL    HW2 1923   0.138   2.437   0.488  2.7032 -0.7318  0.5428
  642SOL     OW 1924   1.071   3.014   1.700 -0.3217 -0.1675  0.0945
  642SOL    HW1 1925   1.169   2.996   1.679 -1.0253 -1.7698 -0.0783
  642SOL    HW2 1926   1.022   2.981   1.616  0.6473 -0.3417 -1.3614
  643SOL     OW 1927   0.716   2.142   2.212 -0.8422  0.4211  0.3902
  643SOL    HW1 1928   0.674   2.160   2.118 -0.8641  1.7634  2.0830
  643SOL    HW2 1929   0.680   2.057   2.256  1.1927  0.4728  0.5983
  644SOL     OW 1930   0.972   2.859   0.625  0.1103 -0.2563 -0.0564
  644SOL    HW1 1931   0.881   2.853   0.576  0.2453  0.4251  0.5436
  644SOL    HW2 1932   0.997   2.955   0.648  1.6954 -0.2959  0.4117
  645SOL     OW 1933   1.116   1.512   2.389  0.0325  0.1819  0.4541
  645SOL    HW1 1934   1.023   1.517   2.430  1.7497 -0.3715  1.0080
  645SOL    HW2 1935   1.185   1.575   2.433  0.4330  0.4395  0.5046
  646SOL     OW 1936   0.695   1.112   0.266 -0.7442 -0.1603 -0.4972
  646SOL    HW1 1937   0.630   1.063   0.323  3.2922  1.2791 -1.5565
  646SOL    HW2 1938   0.691   1.207   0.307  1.2401  1.2707  2.2740
  647SOL     OW 1939   1.194   0.207   1.003 -0.3296  0.4031  0.0237
  647SOL    HW1 1940   1.159   0.296   0.969  0.7088 -0.4263 -0.9789
  647SOL    HW2 1941   1.121   0.138   1.029 -0.3122 -1.5646 -2.7610
  648SOL     OW 1942   2.779   2.926   1.534  0.2167 -0.4788 -0.0303
  648SOL    HW1 1943   2.691   2.930   1.591 -2.2985 -1.9893  0.0325
  648SOL    HW2 1944   2.811   3.021   1.517  1.8349  2.4495  0.9856
  649SOL     OW 1945   0.687   2.016   0.096 -0.0523  0.1721  0.9433
  649SOL    HW1 1946   0.649   2.109   0.089  0.7381  3.1518 -0.1937
  649SOL    HW2 1947   0.657   1.975   0.188  0.5856 -2.4987  1.4863
  650SOL     OW 1948   0.265   1.991   1.497 -0.0944 -0.2433 -0.0205
  650SOL    HW1 1949   0.215   2.013   1.581  1.8250  0.1236  0.7491
  650SOL    HW2 1950   0.215   2.015   1.412  1.6254 -0.8594 -2.1530
  651SOL     OW 1951   0.019   2.885   2.934 -0.4762 -0.3731  0.0544
  651SOL    HW1 1952   0.073   2.872   3.021 -1.6647  0.5238  1.1431
  651SOL    HW2 1953   0.034   2.984   2.898  0.0362  2.3852 -0.4339
  652SOL     OW 1954   2.498   1.910   0.260  0.6126 -0.1201 -0.5204
  652SOL    HW1 1955   2.573   1.963   0.217 -0.3065 -0.3863 -0.1182
  652SOL    HW2 1956   2.429   1.971   0.305 -0.5541  0.3635 -1.0741
  653SOL     OW 1957   0.204   0.320   1.092  0.2848  0.6542 -0.4248
  653SOL    HW1 1958   0.233   0.241   1.029 -0.1325  0.3207 -2.2039
  653SOL    HW2 1959   0.283   0.340   1.156 -1.8521 -0.9236 -0.4395
  654SOL     OW 1960   1.639   3.004   2.858  0.3852 -0.1659 -0.2347
  654SOL    HW1 1961   1.663   3.083   2.794  2.4015  0.7555 -2.2562
  654SOL    HW2 1962   1.615   3.036   2.949 -0.6810  1.3027 -1.9506
  655SOL     OW 1963   1.003   2.587   1.060  0.2094  0.0358  0.0952
  655SOL    HW1 1964   0.946   2.653   1.010 -2.1001  0.3092  2.1233
  655SOL    HW2 1965   1.083   2.560   1.007 -2.2112  0.3737 -0.1456
  656SOL     OW 1966   0.385   2.937   1.965  0.3159  0.2671  0.3922
  656SOL    HW1 1967   0.448   2.922   2.050  1.8996 -0.4288  2.0465
  656SOL    HW2 1968   0.285   2.942   1.983  2.8669 -0.4032 -4.5918
  657SOL     OW 1969   2.210   0.725   1.896  0.0047 -0.0767  0.3590
  657SOL    HW1 1970   2.250   0.758   1.983  3.2113  0.5013  0.5015
  657SOL    HW2 1971   2.142   0.651   1.913  3.1741  0.9198 -0.1054
  658SOL     OW 1972   2.292   1.906   1.101  0.2048 -0.4666  0.2566
  658SOL    HW1 1973   2.289   1.850   1.183 -0.1525  2.5718 -0.1155
  658SOL    HW2 1974   2.363   1.867   1.038 -0.4253  0.7932  2.5793
  659SOL     OW 1975   2.446   2.747   0.218 -0.1550 -0.3942  0.6311
  659SOL    HW1 1976   2.485   2.827   0.171 -2.9065 -0.2154  0.9572
  659SOL    HW2 1977   2.485   2.742   0.316  2.4372 -1.1263  2.4242
  660SOL     OW 1978   1.011   0.998   2.810  0.2776  0.2284  0.0904
  660SOL    HW1 1979   1.082   1.074   2.812 -1.0901  0.2494  1.7951
  660SOL    HW2 1980   1.025   0.933   2.890 -0.0523  0.9414 -0.3401
  661SOL     OW 1981   2.489   2.566   0.987  0.2962 -0.1068  0.5859
  661SOL    HW1 1982   2.436   2.646   0.967 -0.9413  1.2226 -1.4336
  661SOL    HW2 1983   2.460   2.488   0.925 -3.1533 -2.6068 -1.0678
  662SOL     OW 1984   0.509   0.580   0.247 -0.1428  0.4515  0.5252
  662SOL    HW1 1985   0.544   0.486   0.266  0.9982  1.2493  3.0853
  662SOL    HW2 1986   0.460   0.629   0.319  0.5080 -1.0895 -2.3549
  663SOL     OW 1987   1.036   2.202   2.955 -0.0606 -0.2338 -0.1264
  663SOL    HW1 1988   1.087   2.128   3.003  0.0664 -0.6256 -1.4568
  663SOL    HW2 1989   1.108   2.243   2.891  0.9886 -0.0844  0.0073
  664SOL     OW 1990   0.754   2.762   1.428  0.1471  0.5735 -0.4216
  664SOL    HW1 1991   0.679   2.785   1.492 -0.8571 -1.1496 -0.5138
  664SOL    HW2 1992   0.841   2.806   1.458 -0.5948  0.7304 -0.6657
  665SOL     OW 1993   1.834   1.711   1.849 -0.0665  0.4466  0.1604
  665SOL    HW1 1994   1.797   1.626   1.802  0.1780 -0.6587  0.8952
  665SOL    HW2 1995   1.924   1.695   1.896 -1.1877  0.7527 -0.1086
  666SOL     OW 1996   0.445   2.453   0.230  0.3483  0.4179  0.1799
  666SOL    HW1 1997   0.512   2.390   0.181  1.7961  1.2019 -0.5521
  666SOL    HW2 1998   0.452   2.544   0.189  0.6640  1.5773  1.7014
  667SOL     OW 1999   1.982   1.513   1.455  0.2445  0.9984  0.0807
  667SOL    HW1 2000   1.886   1.484   1.457  0.2882  0.3771 -0.4078
  667SOL    HW2 2001   2.001   1.596   1.512 -0.1947 -0.7232  0.0133
  668SOL     OW 2002   0.245   0.131   2.157 -0.2345  0.0043  0.0857
  668SOL    HW1 2003   0.283   0.142   2.065  0.6376 -1.1082  0.0467
  668SOL    HW2 2004   0.146   0.097   2.153 -0.3509 -1.5656  0.1042
  669SOL     OW 2005   1.750   2.219   2.342 -0.1319 -0.2818  0.8283
  669SOL    HW1 2006   1.844   2.255   2.334 -0.7031 -1.5203  0.7328
  669SOL    HW2 2007   1.729   2.151   2.267 -0.9944 -1.1405  1.3267
  670SOL     OW 2008   2.405   2.115   0.468  0.3632 -0.0002  0.0441
  670SOL    HW1 2009   2.464   2.071   0.534 -0.8639 -1.5139  1.1105
  670SOL    HW2 2010   2.310   2.111   0.501 -0.1069 -1.7720 -0.0010
  671SOL     OW 2011   0.572   1.386   1.352 -0.7037 -0.0882 -0.3313
  671SOL    HW1 2012   0.584   1.287   1.360  1.4185 -1.4005 -1.5690
  671SOL    HW2 2013   0.477   1.421   1.376 -1.8597 -2.3491 -1.5286
  672SOL     OW 2014   2.562   1.289   2.195 -0.7952  0.0844 -0.4994
  672SOL    HW1 2015   2.493   1.324   2.262  2.6534 -1.2953 -1.4510
  672SOL    HW2 2016   2.649   1.349   2.190  1.7675  1.9802  0.8018
  673SOL     OW 2017   2.901   1.861   2.304  0.2974 -0.1080  0.6224
  673SOL    HW1 2018   2.802   1.849   2.277 -0.9782  1.3017 -0.9323
  673SOL    HW2 2019   2.910   1.936   2.375 -0.0301  1.0047  2.0682
  674SOL     OW 2020   1.000   2.697   2.300 -0.4153 -0.0207  0.7395
  674SOL    HW1 2021   1.090   2.712   2.257 -0.2045  1.9226 -0.1524
  674SOL    HW2 2022   0.943   2.781   2.281 -0.7741  2.1552  1.5739
  675SOL     OW 2023   0.849   0.838   1.532  0.0128 -0.0565  0.4491
  675SOL    HW1 2024   0.921   0.794   1.588 -1.7406 -0.6335  0.4273
  675SOL    HW2 2025   0.791   0.899   1.587  1.0470 -0.5484 -1.8099
  676SOL     OW 2026   1.683   0.849   0.275  1.1107 -0.0960 -0.5835
  676SOL    HW1 2027   1.680   0.746   0.270  2.0163  0.6283 -0.1595
  676SOL    HW2 2028   1.681   0.874   0.375 -0.4321  0.6851 -0.6035
  677SOL     OW 2029   2.939   1.616   2.707  0.5451  0.1803  0.5602
  677SOL    HW1 2030   2.866   1.547   2.720 -1.8144 -1.4111 -0.2865
  677SOL    HW2 2031   3.018   1.599   2.770  0.2573  0.9264  1.2644
  678SOL     OW 2032   2.869   3.005   1.246  0.2554  0.3004  0.5942
  678SOL    HW1 2033   2.857   3.048   1.332  0.2159  1.7766 -2.7781
  678SOL    HW2 2034   2.929   2.922   1.246  0.7135 -0.1867 -2.8848
  679SOL     OW 2035   1.973   3.080   0.721  0.1719  0.3382 -0.8145
  679SOL    HW1 2036   1.970   0.065   0.782 -0.6593  0.9229 -0.3483
  679SOL    HW2 2037   1.995   2.995   0.772  0.7017 -0.0095 -1.4809
  680SOL     OW 2038   0.203   2.150   2.091  0.2726  0.7903 -0.3061
  680SOL    HW1 2039   0.248   2.056   2.069  2.3238 -1.5177 -0.0564
  680SOL    HW2 2040   0.272   2.222   2.119 -0.2793  0.8191 -0.9812
  681SOL     OW 2041   0.324   1.536   1.343 -0.3331  0.1211  0.1299
  681SOL    HW1 2042   0.328   1.582   1.250  0.0043  1.5801 -1.4136
  681SOL    HW2 2043   0.331   1.603   1.420  0.2377 -1.1503  0.7180
  682SOL     OW 2044   0.167   2.285   1.593  0.6668  0.4373  0.3391
  682SOL    HW1 2045   0.093   2.263   1.531  2.8547  2.4092  0.7183
  682SOL    HW2 2046   0.177   2.387   1.602 -2.5810 -1.7102  0.4651
  683SOL     OW 2047   2.971   1.804   1.543  0.4094  0.3277  0.1569
  683SOL    HW1 2048   2.939   1.897   1.571 -0.6205 -0.3746  0.6040
  683SOL    HW2 2049   3.048   1.769   1.601  0.2797 -0.8183 -0.4630
  684SOL     OW 2050   2.497   1.594   0.159 -0.2798  0.4125 -0.3040
  684SOL    HW1 2051   2.484   1.681   0.208 -3.6739  0.4581 -0.2326
  684SOL    HW2 2052   2.461   1.514   0.212 -1.6285  2.4275 -2.1934
  685SOL     OW 2053   1.383   0.798   0.417  0.0830 -0.0755 -0.4514
  685SOL    HW1 2054   1.455   0.855   0.370 -1.3667  1.2600  0.3445
  685SOL    HW2 2055   1.290   0.823   0.388  2.7110  0.8807  1.4938
  686SOL     OW 2056   0.322   0.118   0.901 -0.0336 -1.1528 -0.0508
  686SOL    HW1 2057   0.402   0.127   0.838  1.6128  1.6061  2.1465
  686SOL    HW2 2058   0.349   0.059   0.975  1.3460  0.6845 -2.8075
  687SOL     OW 2059   0.874   1.253   2.552 -0.2449  0.0032  1.0170
  687SOL    HW1 2060   0.917   1.169   2.508 -1.5762 -3.4223 -0.0990
  687SOL    HW2 2061   0.920   1.284   2.641  1.2123  0.0200  2.4309
  688SOL     OW 2062   1.024   1.698   1.652 -0.0940  0.2210 -0.5501
  688SOL    HW1 2063   0.957   1.632   1.616  0.3436  3.3348 -1.2332
  688SOL    HW2 2064   1.005   1.702   1.751 -1.2055  0.7855 -1.3522
  689SOL     OW 2065   2.338   0.495   1.208 -1.0054  0.1093 -1.0018
  689SOL    HW1 2066   2.350   0.410   1.150  0.8768 -2.2062 -2.0138
  689SOL    HW2 2067   2.267   0.481   1.281  1.5988  0.9949 -0.6111
  690SOL     OW 2068   3.056   1.490   0.857  0.1015 -0.1870 -0.0555
  690SOL    HW1 2069   0.011   1.526   0.942 -0.2856 -2.4756  1.0442
  690SOL    HW2 2070   0.026   1.427   0.812 -0.8797  2.0373  1.8275
  691SOL     OW 2071   0.146   2.431   1.292 -0.3423  0.5948 -0.4453
  691SOL    HW1 2072   0.236   2.400   1.323 -2.8175  2.0626 -0.7991
  691SOL    HW2 2073   0.066   2.375   1.322 -0.0024  0.7313 -1.0085
  692SOL     OW 2074   2.119   3.047   1.092 -0.2796 -0.2642  0.0712
  692SOL    HW1 2075   2.214   3.077   1.101 -1.6166 -0.9723  0.6775
  692SOL    HW2 2076   2.069   3.015   1.175  2.6091  1.4213 -0.4454
  693SOL     OW 2077   0.256   1.611   2.391  0.2830  0.0675 -0.0793
  693SOL    HW1 2078   0.308   1.531   2.419 -0.0486  1.0660 -1.9232
  693SOL    HW2 2079   0.158   1.575   2.378  0.0781  0.1073 -1.4224
  694SOL     OW 2080   1.805   1.037   1.342 -0.3307 -0.0228  0.2334
  694SOL    HW1 2081   1.835   0.979   1.265  0.1009 -0.4940 -0.0197
  694SOL    HW2 2082   1.725   0.989   1.385  2.0246 -1.7617 -0.8413
  695SOL     OW 2083   0.882   1.006   1.308  0.3708 -0.5597 -0.6950
  695SOL    HW1 2084   0.847   0.939   1.379 -3.8067 -1.2262 -2.6890
  695SOL    HW2 2085   0.985   1.019   1.311  0.3763  1.4463 -2.2291
  696SOL     OW 2086   1.365   2.957   0.826 -0.4990 -0.1437 -0.4413
  696SOL    HW1 2087   1.459   2.950   0.874  2.0206 -1.1556 -0.2182
  696SOL    HW2 2088   1.347   2.873   0.769 -0.8641 -0.0865 -0.3158
  697SOL     OW 2089   1.200   0.506   1.496 -0.6292 -0.0392 -0.4371
  697SOL    HW1 2090   1.242   0.483   1.587  1.0162 -3.4838  0.4332
  697SOL    HW2 2091   1.188   0.606   1.473 -1.9397 -0.5752 -1.7995
  698SOL     OW 2092   1.582   1.195   2.022 -0.3115 -0.7310  0.2845
  698SOL    HW1 2093   1.667   1.161   2.068  2.5646  3.4873  1.8263
  698SOL    HW2 2094   1.588   1.296   2.036 -0.7514 -0.1899  0.1117
  699SOL     OW 2095   1.753   0.674   1.121  0.0238 -0.2163  0.5170
  699SOL    HW1 2096   1.764   0.615   1.039  0.8716  1.5925 -0.1888
  699SOL    HW2 2097   1.663   0.721   1.115 -0.2555  1.3342 -1.7357
  700SOL     OW 2098   1.008   2.459   0.215  0.0604 -0.0837 -0.4324
  700SOL    HW1 2099   0.951   2.475   0.298  0.4351 -0.1827 -1.6993
  700SOL    HW2 2100   1.105   2.438   0.245  1.0093 -2.9803  0.7112
  701SOL     OW 2101   2.048   2.447   2.999  0.1724  0.1268 -0.1084
  701SOL    HW1 2102   1.976   2.402   2.935  0.6011 -1.0573 -1.9201
  701SOL    HW2 2103   2.138   2.454   2.944  0.2766 -0.3612 -3.7367
  702SOL     OW 2104   0.860   0.363   0.836  0.1590 -0.1362  0.2852
  702SOL    HW1 2105   0.953   0.399   0.864 -0.2890 -1.8614 -1.9426
  702SOL    HW2 2106   0.858   0.265   0.837 -2.6333  3.3419  1.1482
  703SOL     OW 2107   2.362   0.285   2.376  0.3271 -0.0816 -0.1914
  703SOL    HW1 2108   2.324   0.277   2.468  1.5701  0.1958 -0.4852
  703SOL    HW2 2109   2.296   0.300   2.298  1.8208 -3.4641 -2.1590
  704SOL     OW 2110   0.258   2.005   0.531  0.1769 -0.2664 -0.4047
  704SOL    HW1 2111   0.261   1.907   0.504  1.7087 -3.4694  1.0507
  704SOL    HW2 2112   0.324   2.068   0.480  2.8202  1.5425  2.0182
  705SOL     OW 2113   2.488   2.718   2.279 -0.2219 -0.3581  0.3128
  705SOL    HW1 2114   2.533   2.726   2.187 -0.1287  0.2900  1.1436
  705SOL    HW2 2115   2.440   2.807   2.301 -0.4993 -0.3026  0.5018
  706SOL     OW 2116   2.330   2.807   0.995 -0.0242 -0.4524 -0.2110
  706SOL    HW1 2117   2.233   2.808   1.027 -3.0094 -0.8367  1.0299
  706SOL    HW2 2118   2.352   2.890   0.943 -0.7590 -2.0479  2.3752
  707SOL     OW 2119   0.722   2.634   2.181 -0.1251 -0.2687  0.2830
  707SOL    HW1 2120   0.725   2.563   2.105  1.8970 -1.7840 -0.2882
  707SOL    HW2 2121   0.816   2.661   2.216 -1.0219 -1.7576  0.0264
  708SOL     OW 2122   0.024   2.207   2.291  0.3945  0.4549  0.1532
  708SOL    HW1 2123   0.027   2.120   2.345 -2.9063 -1.0388  0.5689
  708SOL    HW2 2124   0.107   2.208   2.228  0.3507 -0.8908 -0.1875
  709SOL     OW 2125   1.931   0.108   1.908  0.4357  0.2890  0.2996
  709SOL    HW1 2126   1.924   0.170   1.825 -0.1678 -0.2731 -0.3817
  709SOL    HW2 2127   1.839   0.075   1.942  1.2879  0.5845  1.0816
  710SOL     OW 2128   1.533   0.678   2.531 -0.3839 -0.1219  0.3518
  710SOL    HW1 2129   1.583   0.648   2.610 -2.1287 -0.3449 -3.2150
  710SOL    HW2 2130   1.602   0.725   2.467  1.3191  0.1602  1.1399
  711SOL     OW 2131   0.644   2.120   2.740  0.5610  0.5769 -0.4213
  711SOL    HW1 2132   0.740   2.104   2.770 -0.6402 -1.4344  1.9431
  711SOL    HW2 2133   0.610   2.034   2.693 -1.5574 -3.1186  2.3285
  712SOL     OW 2134   0.431   2.493   2.527 -0.2363  0.4499  0.3547
  712SOL    HW1 2135   0.388   2.547   2.601  0.9127 -2.3239  0.5588
  712SOL    HW2 2136   0.467   2.548   2.451 -3.0603  0.1292  0.0169
  713SOL     OW 2137   1.668   1.505   2.550 -0.0992  0.0776  0.0170
  713SOL    HW1 2138   1.745   1.476   2.611 -0.1301  0.1234  0.4955
  713SOL    HW2 2139   1.683   1.593   2.497 -3.5629  1.9042 -0.8472
  714SOL     OW 2140   1.575   1.471   2.031 -0.1818 -0.5774  0.3525
  714SOL    HW1 2141   1.528   1.536   1.961 -1.3846  2.4958 -2.6211
  714SOL    HW2 2142   1.519   1.475   2.115  1.5747  0.6423  0.8189
  715SOL     OW 2143   2.083   0.562   2.419 -0.3602  0.4541  1.1898
  715SOL    HW1 2144   2.028   0.480   2.449 -1.6525 -1.1674 -0.2390
  715SOL    HW2 2145   2.047   0.643   2.462  1.0337 -0.6422 -3.6496
  716SOL     OW 2146   2.913   2.054   1.630 -0.1592 -0.4683  0.2599
  716SOL    HW1 2147   2.933   2.018   1.723  0.8067 -1.1471 -2.7056
  716SOL    HW2 2148   2.946   2.148   1.617  0.6812  0.3288 -1.2858
  717SOL     OW 2149   2.514   1.271   0.600 -0.0448  0.5859 -0.0418
  717SOL    HW1 2150   2.564   1.347   0.632  1.8592 -3.4504 -0.3898
  717SOL    HW2 2151   2.560   1.186   0.628  1.5585 -0.0876  0.1803
  718SOL     OW 2152   0.932   1.983   2.101  0.2233  0.2396  0.1396
  718SOL    HW1 2153   0.868   2.042   2.153  1.4505  0.8497 -0.2555
  718SOL    HW2 2154   0.957   1.899   2.157  0.1425  1.7448  1.9056
  719SOL     OW 2155   1.920   0.751   2.601  0.2512  0.7357 -0.1522
  719SOL    HW1 2156   1.874   0.777   2.517 -1.4042  2.1995  1.5921
  719SOL    HW2 2157   1.954   0.829   2.656 -4.0058 -1.6282 -1.1900
  720SOL     OW 2158   0.635   0.447   0.973 -0.3386  0.2473 -0.3171
  720SOL    HW1 2159   0.693   0.410   0.898 -0.6455 -0.0608 -0.9497
  720SOL    HW2 2160   0.542   0.482   0.937 -2.5970  1.2759  1.7717
  721SOL     OW 2161   2.936   0.799   0.324  0.2648  0.5484  0.2770
  721SOL    HW1 2162   2.879   0.771   0.242  2.8587 -0.7363 -2.3973
  721SOL    HW2 2163   2.911   0.895   0.343  1.8611 -0.5093  0.8547
  722SOL     OW 2164   2.971   0.399   2.606 -0.2149  0.2552  0.0732
  722SOL    HW1 2165   2.940   0.325   2.675  0.0407 -2.2658  1.4518
  722SOL    HW2 2166   3.058   0.436   2.639  1.1037 -0.2032 -1.8096
  723SOL     OW 2167   1.618   0.060   0.468  0.1244  0.1188  0.1387
  723SOL    HW1 2168   1.562   0.097   0.387 -0.6527  2.0696  0.7239
  723SOL    HW2 2169   1.606   3.054   0.484 -0.2570  0.8337  1.5647
  724SOL     OW 2170   0.606   1.747   2.219  0.5539  0.0565  0.1366
  724SOL    HW1 2171   0.635   1.762   2.121  1.5069  0.0766  2.3800
  724SOL    HW2 2172   0.558   1.831   2.260 -3.9736  1.1344 -0.0572
  725SOL     OW 2173   1.598   2.930   0.965 -0.4086  0.4767  0.3278
  725SOL    HW1 2174   1.631   2.847   0.918  0.9331  2.3660 -1.5428
  725SOL    HW2 2175   1.670   2.999   0.978 -2.1382 -2.4602  1.3991
  726SOL     OW 2176   1.924   2.389   0.276  0.2756  0.1638 -0.0498
  726SOL    HW1 2177   2.024   2.386   0.247 -0.0259 -1.0191  0.0510
  726SOL    HW2 2178   1.915   2.383   0.379 -0.5361  2.9979  1.3027
  727SOL     OW 2179   1.674   1.677   1.376  0.0952  0.4102  0.1321
  727SOL    HW1 2180   1.647   1.695   1.471 -0.5768 -0.7787  1.6466
  727SOL    HW2 2181   1.754   1.730   1.344 -0.4357  0.3281 -0.4255
  728SOL     OW 2182   2.079   2.775   1.609  0.2705  0.4647  0.8125
  728SOL    HW1 2183   2.156   2.800   1.550  0.4811 -0.0506  0.0009
  728SOL    HW2 2184   2.053   2.676   1.594 -1.3885 -2.0433 -0.8855
  729SOL     OW 2185   2.049   2.137   1.436  0.1264  0.2199 -0.0493
  729SOL    HW1 2186   2.146   2.180   1.424  1.0430  0.6128 -0.3750
  729SOL    HW2 2187   2.051   2.038   1.443 -0.9494  1.9349 -0.0915
  730SOL     OW 2188   1.549   0.784   2.881  0.1116  0.4895 -0.1404
  730SOL    HW1 2189   1.452   0.801   2.855  1.3002 -1.2203  1.4056
  730SOL    HW2 2190   1.586   0.710   2.821 -2.0892  0.4006 -1.8101
  731SOL     OW 2191   0.351   0.334   0.609  0.0558 -0.0895  0.1948
  731SOL    HW1 2192   0.305   0.386   0.686 -1.0872 -0.1046  0.2925
  731SOL    HW2 2193   0.278   0.327   0.538 -0.8425 -2.0864  0.7509
  732SOL     OW 2194   1.524   0.205   0.680 -0.1371 -0.1287 -0.4579
  732SOL    HW1 2195   1.429   0.163   0.686 -2.2804 -1.8768 -0.8229
  732SOL    HW2 2196   1.574   0.143   0.620 -3.0303  2.7390  2.8558
  733SOL     OW 2197   0.645   1.764   1.552 -0.0059  0.0553 -0.2940
  733SOL    HW1 2198   0.697   1.687   1.593  2.6283  0.3604  0.6746
  733SOL    HW2 2199   0.700   1.811   1.484 -0.9983 -2.7275  0.7671
  734SOL     OW 2200   2.777   2.718   0.036  0.3388 -0.2132  0.5082
  734SOL    HW1 2201   2.725   2.740   3.048  0.9085 -1.1736  4.5508
  734SOL    HW2 2202   2.794   2.616   0.036  0.3887  1.1078 -0.9919
  735SOL     OW 2203   1.212   2.875   1.310  0.4531 -0.1473 -0.2308
  735SOL    HW1 2204   1.214   2.977   1.309  0.7493  1.2745  0.2892
  735SOL    HW2 2205   1.290   2.843   1.249  3.6182 -1.3806  0.9056
  736SOL     OW 2206   1.904   2.118   0.281  0.2057 -0.6840 -0.2451
  736SOL    HW1 2207   1.987   2.066   0.243  1.9412  1.9600 -0.8621
  736SOL    HW2 2208   1.941   2.211   0.293 -2.9743 -2.5675  1.4970
  737SOL     OW 2209   0.031   1.600   1.116 -0.0570 -0.4240 -0.3691
  737SOL    HW1 2210   0.106   1.671   1.135  0.0308  1.0744  2.1965
  737SOL    HW2 2211   3.066   1.586   1.196 -0.3300 -3.6883 -3.6032
  738SOL     OW 2212   2.031   2.313   2.393  0.2374 -0.4639  0.3134
  738SOL    HW1 2213   2.037   2.322   2.493 -0.3575 -0.8860 -1.6699
  738SOL    HW2 2214   1.987   2.398   2.359 -1.1379 -1.3684  0.5803
  739SOL     OW 2215   1.036   1.875   2.603  0.4762  0.0959 -0.2767
  739SOL    HW1 2216   1.077   1.970   2.594 -0.2023 -0.0951 -2.3321
  739SOL    HW2 2217   0.962   1.882   2.673 -0.2330  0.2612  3.0534
  740SOL     OW 2218   1.395   2.837   1.096  0.0384  0.2363 -0.2198
  740SOL    HW1 2219   1.346   2.788   1.023 -1.1993  1.1734  0.2928
  740SOL    HW2 2220   1.471   2.891   1.052 -0.3317  0.8941  0.5971
  741SOL     OW 2221   0.223   1.058   0.803  0.6816 -0.6043 -0.1565
  741SOL    HW1 2222   0.259   1.000   0.882  0.4383  1.2246  1.0063
  741SOL    HW2 2223   0.159   1.004   0.746  0.6849 -0.7890  1.9883
  742SOL     OW 2224   0.744   1.527   2.264 -0.7181 -0.2948  0.1949
  742SOL    HW1 2225   0.810   1.527   2.345  0.6634 -0.4982  0.3649
  742SOL    HW2 2226   0.693   1.613   2.240  1.0146 -0.6431 -2.0342
  743SOL     OW 2227   1.148   0.956   2.144  0.3132 -0.0136  0.5658
  743SOL    HW1 2228   1.229   0.973   2.088  0.0371 -1.0098 -3.0041
  743SOL    HW2 2229   1.071   1.009   2.103  0.0333  1.1595  1.0388
  744SOL     OW 2230   1.927   0.302   1.693 -0.6962 -0.1061  0.6650
  744SOL    HW1 2231   1.845   0.361   1.711  0.1683 -0.4573 -2.9751
  744SOL    HW2 2232   2.012   0.358   1.678  1.1140 -2.1348 -0.6151
  745SOL     OW 2233   2.280   1.380   1.707  0.3633 -0.0016  0.1518
  745SOL    HW1 2234   2.327   1.468   1.686  0.6964 -0.3527  0.3032
  745SOL    HW2 2235   2.200   1.363   1.649 -0.9392  1.6173  2.0675
  746SOL     OW 2236   2.079   1.117   0.312  0.2998 -0.3153  0.5913
  746SOL    HW1 2237   2.038   1.204   0.287  0.2135  1.1588  0.6034
  746SOL    HW2 2238   2.052   1.038   0.253 -0.4005 -0.7436 -0.8912
  747SOL     OW 2239   2.615   1.478   0.718 -0.0615  0.5070 -0.0649
  747SOL    HW1 2240   2.715   1.452   0.732  1.8361 -0.0887  1.9735
  747SOL    HW2 2241   2.604   1.580   0.714 -1.5078 -1.3085  0.8768
  748SOL     OW 2242   0.314   1.746   0.451 -0.0144 -0.2404  0.2743
  748SOL    HW1 2243   0.318   1.761   0.349 -1.0550 -0.7652 -0.9503
  748SOL    HW2 2244   0.356   1.655   0.466 -1.2725 -0.9024  1.8065
  749SOL     OW 2245   2.645   2.440   2.644  0.0781 -0.5371 -0.2622
  749SOL    HW1 2246   2.665   2.351   2.596 -2.2591  3.1059 -0.4190
  749SOL    HW2 2247   2.595   2.504   2.585  1.7305  0.4389  2.0783
  750SOL     OW 2248   2.299   0.645   0.850 -0.0292 -0.7680  0.1286
  750SOL    HW1 2249   2.238   0.728   0.842 -0.6851  0.4235  1.5350
  750SOL    HW2 2250   2.382   0.662   0.906 -0.9593  1.6629  0.8709
  751SOL     OW 2251   2.522   2.946   0.066  0.2862  0.2040  0.0707
  751SOL    HW1 2252   2.484   3.028   0.018  0.0941 -0.6850 -2.2486
  751SOL    HW2 2253   2.558   2.892   3.080 -2.2656  2.2105 -0.5090
  752SOL     OW 2254   3.000   2.773   0.935 -0.0095  0.2754  0.0143
  752SOL    HW1 2255   3.052   2.812   1.014 -1.4811 -0.6992  1.4698
  752SOL    HW2 2256   3.044   2.692   0.890  2.4706  2.9581  0.3380
  753SOL     OW 2257   1.813   1.027   2.397  0.2864  1.0469  0.0270
  753SOL    HW1 2258   1.897   1.078   2.428 -1.2353 -0.5620 -1.1004
  753SOL    HW2 2259   1.732   1.047   2.455 -1.7886 -2.4507  2.8461
  754SOL     OW 2260   2.023   2.106   1.783  0.1262 -0.2447 -0.2576
  754SOL    HW1 2261   1.955   2.042   1.734 -1.1920 -3.8204 -2.3494
  754SOL    HW2 2262   2.120   2.069   1.775  1.1971  0.4726  0.5656
  755SOL     OW 2263   2.615   0.806   0.793 -0.4578 -0.0306  0.2271
  755SOL    HW1 2264   2.547   0.787   0.870 -2.1028 -1.2952  0.9134
  755SOL    HW2 2265   2.691   0.861   0.831 -3.0742 -0.5261  1.4476
  756SOL     OW 2266   0.683   1.219   2.922  0.5965  0.1033 -0.3105
  756SOL    HW1 2267   0.589   1.231   2.950  1.8481  0.5349  0.4357
  756SOL    HW2 2268   0.688   1.238   2.823 -0.0464  0.1240  2.7451
  757SOL     OW 2269   1.568   2.314   1.081  0.2528  0.3485 -0.1773
  757SOL    HW1 2270   1.573   2.250   0.999  1.5141  0.7826 -0.7496
  757SOL    HW2 2271   1.529   2.264   1.168 -1.3608 -2.0622 -0.7905
  758SOL     OW 2272   1.082   2.530   1.598 -0.1220  0.5188  0.8188
  758SOL    HW1 2273   1.087   2.563   1.498  1.6528  1.8801  0.2397
  758SOL    HW2 2274   1.110   2.609   1.656 -0.5213 -1.7157 -1.3209
  759SOL     OW 2275   2.913   1.162   0.952 -0.2943  0.5950  1.1819
  759SOL    HW1 2276   2.864   1.233   1.007  1.5483  0.5368 -0.6239
  759SOL    HW2 2277   3.010   1.180   0.949 -0.8277  0.7122  1.7861
  760SOL     OW 2278   2.122   1.268   1.491  0.5107  0.0650 -0.2131
  760SOL    HW1 2279   2.096   1.208   1.414  1.6511  0.7048 -1.2392
  760SOL    HW2 2280   2.053   1.343   1.500 -0.3411  3.9205 -0.4546
  761SOL     OW 2281   1.830   2.998   0.247  0.3609  0.2090 -0.1472
  761SOL    HW1 2282   1.849   3.049   0.336  3.0255 -1.4646  1.9069
  761SOL    HW2 2283   1.855   3.055   0.166 -0.0328  1.1010 -0.3220
  762SOL     OW 2284   1.884   1.415   2.700 -0.2979 -0.5141 -0.0351
  762SOL    HW1 2285   1.905   1.380   2.605 -0.2208  0.2782 -0.8380
  762SOL    HW2 2286   1.967   1.463   2.733  1.6187 -1.7721 -1.0011
  763SOL     OW 2287   0.395   2.229   1.782 -0.1866  0.6807 -0.4154
  763SOL    HW1 2288   0.432   2.164   1.715  2.2171 -2.5938  0.6200
  763SOL    HW2 2289   0.295   2.248   1.773  2.6575  0.4981  0.5941
  764SOL     OW 2290   0.061   2.308   0.191  0.1925  0.0753  0.3667
  764SOL    HW1 2291   3.055   2.301   0.194 -2.7911  2.1850 -0.6462
  764SOL    HW2 2292   0.092   2.354   0.104 -1.2867 -0.4275  1.5629
  765SOL     OW 2293   0.510   0.002   1.130 -0.6685 -0.2683 -0.6129
  765SOL    HW1 2294   0.590   0.070   1.125  0.0958  1.0356 -2.0654
  765SOL    HW2 2295   0.556   3.005   1.133  1.7040  1.6150 -2.1732
  766SOL     OW 2296   2.740   2.135   2.292  0.5839 -0.2785 -0.4531
  766SOL    HW1 2297   2.797   2.207   2.245  4.6199 -3.4683 -0.7160
  766SOL    HW2 2298   2.736   2.043   2.248 -0.0107 -0.1018 -0.2343
  767SOL     OW 2299   2.738   0.835   2.197  0.4068  0.2930 -0.6623
  767SOL    HW1 2300   2.670   0.846   2.124  0.0458 -0.1337 -0.8180
  767SOL    HW2 2301   2.830   0.851   2.162  1.8033  0.5346  0.6024
  768SOL     OW 2302   0.968   0.299   2.609  0.2178 -0.2766  0.3574
  768SOL    HW1 2303   0.876   0.268   2.603  1.0777  2.0313 -0.6677
  768SOL    HW2 2304   1.016   0.220   2.647 -1.7714  1.7631  0.4722
  769SOL     OW 2305   2.729   2.838   0.948 -0.3724  0.5042  0.4522
  769SOL    HW1 2306   2.827   2.803   0.947  2.1905 -1.4841  0.8970
  769SOL    HW2 2307   2.671   2.804   1.031 -2.5917 -0.8665  2.6375
  770SOL     OW 2308   0.374   2.775   2.657  0.4577 -0.6737 -0.8159
  770SOL    HW1 2309   0.339   2.841   2.590  1.4248 -0.0591 -1.1098
  770SOL    HW2 2310   0.298   2.707   2.685 -4.4510 -1.9300  2.6035
  771SOL     OW 2311   1.694   2.042   2.109  0.1258  0.0471 -0.0959
  771SOL    HW1 2312   1.738   2.078   2.027  3.0917  1.5129  1.9355
  771SOL    HW2 2313   1.694   1.939   2.115  0.0286  0.7588  1.6013
  772SOL     OW 2314   1.256   2.917   2.956  0.1638 -0.2367  0.7926
  772SOL    HW1 2315   1.156   2.908   2.933 -0.5223 -0.2141 -0.2272
  772SOL    HW2 2316   1.281   2.849   3.025  0.8088  2.8415 -1.1720
  773SOL     OW 2317   2.381   0.751   1.501 -0.2084 -0.7733  0.6365
  773SOL    HW1 2318   2.424   0.844   1.500  0.9422  1.5732  1.3224
  773SOL    HW2 2319   2.290   0.749   1.457 -0.6059  0.6118 -0.5010
  774SOL     OW 2320   0.880   1.292   1.089  0.0386  0.3928 -0.2221
  774SOL    HW1 2321   0.981   1.298   1.103  2.5083  0.4565  2.8336
  774SOL    HW2 2322   0.850   1.199   1.053 -2.0889  0.1841  0.1176
  775SOL     OW 2323   1.946   2.678   3.014 -0.1168 -0.3694 -0.3586
  775SOL    HW1 2324   1.967   2.710   0.016  0.4714  1.5734  0.3718
  775SOL    HW2 2325   1.980   2.584   3.006 -0.1658  0.3401 -0.6694
  776SOL     OW 2326   2.125   0.902   1.540 -0.2478 -0.5743 -0.3921
  776SOL    HW1 2327   2.168   0.936   1.627 -0.5858  0.2349  2.4601
  776SOL    HW2 2328   2.149   0.965   1.465 -0.2625 -0.3591 -0.9301
  777SOL     OW 2329   0.344   1.111   2.167 -0.0373 -0.2643  0.5721
  777SOL    HW1 2330   0.276   1.121   2.238  1.8485  0.2881 -0.1756
  777SOL    HW2 2331   0.428   1.069   2.205 -1.5239 -0.6688 -1.8188
  778SOL     OW 2332   0.176   0.596   3.063  0.4054  0.2718 -0.9951
  778SOL    HW1 2333   0.230   0.677   3.054 -0.7379  1.1128 -0.1815
  778SOL    HW2 2334   0.228   0.510   3.086  1.1548 -0.2856  0.6380
  779SOL     OW 2335   0.690   0.251   2.609 -0.1991 -0.1512 -0.4434
  779SOL    HW1 2336   0.658   0.220   2.518 -3.9018 -1.3747  1.3110
  779SOL    HW2 2337   0.648   0.196   2.685  2.6168 -0.0944  0.2863
  780SOL     OW 2338   2.017   1.142   2.509  0.7523 -0.4493 -0.1444
  780SOL    HW1 2339   1.983   1.082   2.584 -2.7730  0.7548  1.9899
  780SOL    HW2 2340   2.114   1.167   2.529 -0.9705  0.2059 -0.0997
  781SOL     OW 2341   2.974   1.118   2.041  0.0942  0.1307 -0.2404
  781SOL    HW1 2342   2.932   1.151   1.954 -0.8796  0.6410  0.9084
  781SOL    HW2 2343   2.970   1.013   2.048  1.5263 -3.7631 -1.8873
  782SOL     OW 2344   0.564   1.552   2.727  0.1284 -0.0518 -0.0918
  782SOL    HW1 2345   0.563   1.449   2.715 -1.8089 -0.7539  0.9466
  782SOL    HW2 2346   0.509   1.588   2.651  1.9946  0.6655  2.6529
  783SOL     OW 2347   1.075   2.153   1.239  0.4670  0.8599  0.0460
  783SOL    HW1 2348   1.096   2.157   1.336 -1.6286  1.5636 -1.8857
  783SOL    HW2 2349   1.164   2.171   1.190  0.7942  0.6272  1.8672
  784SOL     OW 2350   1.669   0.560   2.758  0.5298 -0.2871 -0.2769
  784SOL    HW1 2351   1.761   0.541   2.793  1.6357 -0.1466 -1.1540
  784SOL    HW2 2352   1.615   0.468   2.755 -0.4224 -2.5684  0.7338
  785SOL     OW 2353   0.621   0.180   1.919 -0.0374  0.7812  0.0915
  785SOL    HW1 2354   0.663   0.100   1.965  2.0080 -0.5322  1.2885
  785SOL    HW2 2355   0.668   0.187   1.829 -2.8597 -1.0570  2.5658
  786SOL     OW 2356   0.563   1.931   0.316  0.0356 -0.5349 -0.7342
  786SOL    HW1 2357   0.536   1.869   0.393  2.6283  0.2051  1.5420
  786SOL    HW2 2358   0.519   2.021   0.339  1.5785  2.0892  0.3749
  787SOL     OW 2359   1.243   0.389   0.409 -0.3190  0.2669  0.2885
  787SOL    HW1 2360   1.306   0.412   0.482 -0.1675 -2.3352  1.0361
  787SOL    HW2 2361   1.146   0.404   0.432 -0.3069 -0.4708 -1.1066
  788SOL     OW 2362   2.779   1.618   1.290 -0.2065 -0.3702  0.3810
  788SOL    HW1 2363   2.787   1.716   1.262  2.2324  2.2254 -1.7629
  788SOL    HW2 2364   2.871   1.585   1.303  1.5718 -1.1338  0.6619
  789SOL     OW 2365   2.608   1.032   2.333 -0.4574  0.1559  0.1513
  789SOL    HW1 2366   2.655   0.949   2.296 -1.0596 -1.2021  1.7396
  789SOL    HW2 2367   2.628   1.118   2.279  1.0745  1.0335 -0.5497
  790SOL     OW 2368   0.606   0.345   0.303 -0.1442 -0.6261 -0.1278
  790SOL    HW1 2369   0.632   0.312   0.396  0.3788 -0.1472  2.1646
  790SOL    HW2 2370   0.671   0.309   0.235  0.3742  0.0433  1.2000
  791SOL     OW 2371   2.826   0.172   3.047  0.0498 -0.3943 -0.1088
  791SOL    HW1 2372   2.726   0.195   3.026 -1.2686  0.5243  2.0631
  791SOL    HW2 2373   2.837   0.082   3.092 -0.3316 -0.8866 -1.0662
  792SOL     OW 2374   1.389   0.492   2.398 -0.1693 -0.5956 -0.0744
  792SOL    HW1 2375   1.302   0.480   2.450 -0.0882  0.6151 -0.1448
  792SOL    HW2 2376   1.450   0.564   2.441  0.9927 -1.1731  1.3078
  793SOL     OW 2377   2.820   0.411   0.883  0.4163  0.0701  0.1166
  793SOL    HW1 2378   2.778   0.321   0.851  0.8608 -1.9616 -1.6249
  793SOL    HW2 2379   2.897   0.393   0.947 -1.6892 -0.8554  1.7969
  794SOL     OW 2380   0.334   0.501   2.113  0.2344  0.0357  0.1152
  794SOL    HW1 2381   0.351   0.600   2.136  1.6153  3.4237  0.1399
  794SOL    HW2 2382   0.245   0.491   2.062  1.2408  2.4377  3.0175
  795SOL     OW 2383   0.376   1.219   0.619  0.2930  0.2523  0.2418
  795SOL    HW1 2384   0.451   1.255   0.677 -2.4918 -0.2641 -0.4028
  795SOL    HW2 2385   0.330   1.144   0.671  0.2103  1.0888  0.1662
  796SOL     OW 2386   3.065   0.807   3.073  0.3429  0.5682  0.5374
  796SOL    HW1 2387   0.016   0.868   0.044 -0.2433 -0.4601  1.1629
  796SOL    HW2 2388   0.042   0.732   3.059 -0.3485 -2.2639 -1.0820
  797SOL     OW 2389   1.871   2.573   2.564  0.1489  0.2302  0.0653
  797SOL    HW1 2390   1.958   2.530   2.598 -0.8514  3.2851 -0.0511
  797SOL    HW2 2391   1.871   2.675   2.564  0.6011 -0.3146 -0.3172
  798SOL     OW 2392   0.169   0.123   1.484  0.1499  0.0123 -0.1157
  798SOL    HW1 2393   0.136   0.214   1.458  0.5616  2.5491  0.3562
  798SOL    HW2 2394   0.157   0.101   1.585  1.4251 -4.8325 -1.1059
  799SOL     OW 2395   2.628   0.683   1.784 -0.1264  0.2785 -0.2012
  799SOL    HW1 2396   2.550   0.641   1.738  1.8665 -1.0227  0.4880
  799SOL    HW2 2397   2.692   0.611   1.814  0.6912  0.6014 -0.0357
  800SOL     OW 2398   0.075   1.704   0.550 -0.2653 -0.2872  0.3973
  800SOL    HW1 2399   0.006   1.644   0.500  0.0656 -3.7942 -1.7786
  800SOL    HW2 2400   0.167   1.708   0.504 -0.2041  2.1398  0.1705
  801SOL     OW 2401   1.627   1.771   0.466 -0.2364  0.2225  0.5341
  801SOL    HW1 2402   1.593   1.715   0.543 -0.3176  1.5117 -0.4773
  801SOL    HW2 2403   1.705   1.828   0.492 -1.7517  2.5830 -0.1035
  802SOL     OW 2404   1.330   1.083   2.824 -0.2306  1.0554  0.0820
  802SOL    HW1 2405   1.307   0.981   2.820 -1.8051 -1.5025  3.0286
  802SOL    HW2 2406   1.428   1.108   2.829  1.5870 -0.0672 -2.6192
  803SOL     OW 2407   0.188   2.004   1.774 -0.7334  0.6893  0.3558
  803SOL    HW1 2408   0.122   2.077   1.795  2.4353 -1.6695  1.7023
  803SOL    HW2 2409   0.140   1.911   1.761 -1.5816 -1.8968 -0.2715
  804SOL     OW 2410   1.532   2.121   0.856  0.3022 -0.1495 -0.0839
  804SOL    HW1 2411   1.585   2.067   0.785  1.8533 -1.1474  0.2572
  804SOL    HW2 2412   1.440   2.077   0.865  2.1236 -0.3370  1.7177
  805SOL     OW 2413   2.419   2.182   2.769  0.6694 -0.4059  0.1264
  805SOL    HW1 2414   2.452   2.239   2.853  0.0711 -0.3930  1.5754
  805SOL    HW2 2415   2.474   2.097   2.768 -3.3068  0.2877  1.7356
  806SOL     OW 2416   2.783   0.183   0.709 -0.1253  0.5174 -0.0888
  806SOL    HW1 2417   2.795   0.093   0.761  0.0232  1.4888  2.3652
  806SOL    HW2 2418   2.875   0.209   0.674  1.3372 -1.0148  0.9347
  807SOL     OW 2419   2.779   1.091   2.851 -0.4460  0.2638  0.5886
  807SOL    HW1 2420   2.770   1.072   2.748 -0.5892  0.9459 -2.0092
  807SOL    HW2 2421   2.841   1.174   2.867  0.8440  0.2401  3.7374
  808SOL     OW 2422   0.767   1.969   0.859  0.2184 -0.0794  0.4430
  808SOL    HW1 2423   0.685   1.987   0.798  0.4868 -2.1397 -2.3520
  808SOL    HW2 2424   0.788   1.874   0.848 -1.3513  0.9152 -1.8868
  809SOL     OW 2425   2.836   0.060   2.171 -0.2038  0.1161 -0.2864
  809SOL    HW1 2426   2.757   0.035   2.113  1.1351  1.0484 -0.7823
  809SOL    HW2 2427   2.808   0.120   2.247 -0.4291 -0.6735 -0.9583
  810SOL     OW 2428   1.424   0.836   0.847 -0.7475  0.1033 -0.3300
  810SOL    HW1 2429   1.505   0.873   0.794 -0.6850 -1.1529  0.4449
  810SOL    HW2 2430   1.348   0.904   0.848 -3.8434 -2.6153  1.8918
  811SOL     OW 2431   1.765   2.869   1.910  0.2478 -0.0148  0.0756
  811SOL    HW1 2432   1.844   2.859   1.974 -1.4153 -0.1044 -2.1537
  811SOL    HW2 2433   1.713   2.952   1.933 -2.9324  2.6009 -0.9623
  812SOL     OW 2434   1.911   2.453   0.557  0.3906 -0.0572 -0.1812
  812SOL    HW1 2435   1.838   2.441   0.628 -1.0911 -0.9206  0.3676
  812SOL    HW2 2436   1.912   2.548   0.523  0.0932 -0.3105  0.1127
  813SOL     OW 2437   1.181   0.402   1.926 -0.0583  0.9483 -0.2050
  813SOL    HW1 2438   1.090   0.445   1.903 -1.0793  2.9348  0.5979
  813SOL    HW2 2439   1.212   0.417   2.020  1.0421  3.0279  0.2559
  814SOL     OW 2440   0.259   3.018   1.277  0.5312 -0.1388 -0.2307
  814SOL    HW1 2441   0.345   3.051   1.241 -3.1505 -2.5673 -3.5310
  814SOL    HW2 2442   0.227   3.073   1.353  0.0074  1.3614 -3.4592
  815SOL     OW 2443   0.064   0.067   0.752 -0.4618 -0.0525 -0.1130
  815SOL    HW1 2444   0.045   3.058   0.751  0.3311 -0.0153  0.9772
  815SOL    HW2 2445   0.110   0.097   0.838  0.0484  0.8586  1.3161
  816SOL     OW 2446   2.632   1.819   2.231 -0.2512 -0.1513  0.0274
  816SOL    HW1 2447   2.617   1.817   2.331  1.2191  0.1689  1.0552
  816SOL    HW2 2448   2.554   1.865   2.183 -3.6395 -0.6206 -2.5004
  817SOL     OW 2449   1.293   0.106   0.747  0.0281  0.1617 -0.0027
  817SOL    HW1 2450   1.258   0.146   0.834  1.6392  0.0027 -0.3053
  817SOL    HW2 2451   1.332   0.010   0.766 -2.3064 -1.0011  0.6598
  818SOL     OW 2452   1.704   0.541   0.114 -0.5183 -0.2844 -0.2434
  818SOL    HW1 2453   1.745   0.461   0.069  1.9400  2.3568 -0.5046
  818SOL    HW2 2454   1.623   0.512   0.171 -1.1720 -1.7287 -2.7477
  819SOL     OW 2455   2.212   3.077   0.046  0.6128 -0.3231  0.5484
  819SOL    HW1 2456   2.193   0.003   0.144 -0.8119  1.2013  1.5748
  819SOL    HW2 2457   2.216   2.978   0.028  0.6057  0.1525  0.2961
  820SOL     OW 2458   1.603   1.147   2.857  0.7187 -0.4499  0.5861
  820SOL    HW1 2459   1.560   1.196   2.936  1.1541  0.6492  0.2486
  820SOL    HW2 2460   1.687   1.106   2.894 -1.8791  0.5277  0.1829
  821SOL     OW 2461   0.257   0.581   1.143  0.3869 -0.4157 -0.1247
  821SOL    HW1 2462   0.204   0.495   1.110 -1.2098 -1.7824  1.3382
  821SOL    HW2 2463   0.284   0.641   1.061  0.2061  1.9664 -2.6307
  822SOL     OW 2464   1.290   2.715   2.339 -0.2002  0.0688 -0.2009
  822SOL    HW1 2465   1.285   2.617   2.360  2.2160 -0.0426  1.0760
  822SOL    HW2 2466   1.254   2.779   2.414  1.1517  1.1515  1.5938
  823SOL     OW 2467   0.271   1.594   1.747  0.1379 -0.2211  0.0959
  823SOL    HW1 2468   0.297   1.644   1.664  1.2811 -1.2030  1.3677
  823SOL    HW2 2469   0.351   1.572   1.806  0.7436 -0.3127  0.7409
  824SOL     OW 2470   1.741   2.721   2.321  0.1481 -0.4367 -0.3467
  824SOL    HW1 2471   1.716   2.711   2.419 -2.8126 -1.6057 -0.6714
  824SOL    HW2 2472   1.657   2.752   2.270  1.9974  3.0088  0.7833
  825SOL     OW 2473   1.435   1.066   0.296 -0.5741 -0.4002  0.3240
  825SOL    HW1 2474   1.454   1.008   0.213  1.6203  0.4385 -0.0839
  825SOL    HW2 2475   1.456   1.166   0.289  2.6829 -0.5783  0.1407
  826SOL     OW 2476   1.966   0.624   2.858 -0.2611  0.1029 -0.8347
  826SOL    HW1 2477   1.931   0.672   2.775 -0.1083  0.1404  1.8556
  826SOL    HW2 2478   2.063   0.605   2.855  1.7513 -1.6431 -0.9795
  827SOL     OW 2479   0.440   2.186   2.915 -0.5088 -0.0786  0.3912
  827SOL    HW1 2480   0.366   2.253   2.878 -1.4407  2.3104  0.2631
  827SOL    HW2 2481   0.510   2.155   2.843  1.4094 -1.5880 -0.7717
  828SOL     OW 2482   2.847   1.037   1.297  0.5222 -0.5717 -0.4480
  828SOL    HW1 2483   2.810   0.945   1.269  3.4855 -1.6036 -0.9848
  828SOL    HW2 2484   2.765   1.097   1.312  0.1275  0.0030  0.1349
  829SOL     OW 2485   0.653   1.721   0.940  0.0954 -0.4829  0.0524
  829SOL    HW1 2486   0.613   1.810   0.964  0.4353 -1.1500 -1.3332
  829SOL    HW2 2487   0.724   1.685   1.001 -1.6145 -0.6533 -2.9589
  830SOL     OW 2488   0.993   1.302   1.375  0.4212 -0.5871 -0.1743
  830SOL    HW1 2489   1.088   1.278   1.334 -0.8040 -1.5321  0.6710
  830SOL    HW2 2490   0.922   1.307   1.309  2.7249 -0.1568  0.5530
  831SOL     OW 2491   0.263   1.990   3.071  0.3051 -0.2601  0.1432
  831SOL    HW1 2492   0.175   2.049   3.061 -1.5600  1.8266 -1.7219
  831SOL    HW2 2493   0.343   2.044   3.038  1.2261  0.2748 -1.0808
  832SOL     OW 2494   0.565   0.079   3.073 -0.3571  0.0684 -0.4610
  832SOL    HW1 2495   0.503   0.130   0.044 -1.5087 -2.6619 -1.8229
  832SOL    HW2 2496   0.661   0.093   0.007 -1.2562  3.4435  0.8192
  833SOL     OW 2497   0.745   0.542   2.256 -0.0510 -0.2625  0.0539
  833SOL    HW1 2498   0.744   0.637   2.216  2.3617 -2.1971  2.0721
  833SOL    HW2 2499   0.662   0.494   2.221  1.7466  2.9173  0.0297
  834SOL     OW 2500   0.176   0.563   0.739 -0.4760  0.6157 -0.2277
  834SOL    HW1 2501   0.118   0.609   0.807  2.9726 -1.0842 -0.9264
  834SOL    HW2 2502   0.134   0.548   0.647  1.4045 -2.5224  2.6795
  835SOL     OW 2503   3.019   0.066   1.083  0.2385 -0.5477  0.1619
  835SOL    HW1 2504   3.007   0.169   1.085  0.7806  1.4238 -1.5290
  835SOL    HW2 2505   2.952   0.020   1.148 -0.5898 -1.0538  0.7204
  836SOL     OW 2506   0.201   2.188   2.775 -0.1352  0.1216  0.5326
  836SOL    HW1 2507   0.143   2.213   2.693  1.3070 -0.5336 -1.4509
  836SOL    HW2 2508   0.146   2.178   2.857  0.5991  0.5448  0.6077
  837SOL     OW 2509   1.656   1.749   2.845 -0.2831  0.0459 -0.6852
  837SOL    HW1 2510   1.745   1.748   2.791  0.4400 -0.6191 -2.6166
  837SOL    HW2 2511   1.613   1.841   2.840 -0.3707 -0.4171  0.2931
  838SOL     OW 2512   0.002   0.919   1.375 -0.3625  0.0700  0.4412
  838SOL    HW1 2513   0.043   0.953   1.462  2.6632  0.9753 -2.3565
  838SOL    HW2 2514   2.999   0.948   1.371 -1.8896  3.0340 -1.7624
  839SOL     OW 2515   0.962   0.977   0.839 -0.1216  0.3060 -0.1768
  839SOL    HW1 2516   0.937   0.985   0.939  0.5446 -1.4902  1.6827
  839SOL    HW2 2517   0.900   0.909   0.792 -1.1372 -0.0828  0.4208
  840SOL     OW 2518   1.647   0.034   1.518 -0.2073  0.5452 -0.5368
  840SOL    HW1 2519   1.721   3.082   1.575 -0.3718  0.6328  2.0033
  840SOL    HW2 2520   1.617   3.069   1.439 -1.2683 -2.0909  0.3086
  841SOL     OW 2521   0.597   2.553   0.434 -0.1304  0.4061 -0.3252
  841SOL    HW1 2522   0.549   2.510   0.355 -2.0595 -0.3705 -1.9147
  841SOL    HW2 2523   0.554   2.523   0.521 -0.4892 -0.5043 -0.8073
  842SOL     OW 2524   0.770   0.770   0.940  0.1798  0.7525 -0.1294
  842SOL    HW1 2525   0.794   0.703   1.010 -0.5626 -1.1102 -0.4738
  842SOL    HW2 2526   0.758   0.715   0.850 -2.2298 -0.4889 -0.9844
  843SOL     OW 2527   0.986   1.300   1.869  0.7140  0.2926  0.1390
  843SOL    HW1 2528   0.918   1.293   1.943  0.0253  0.4704 -1.5251
  843SOL    HW2 2529   0.946   1.261   1.787  0.8488  0.0901  4.8359
  844SOL     OW 2530   1.145   1.926   0.035 -0.1525 -0.3038 -0.1322
  844SOL    HW1 2531   1.142   1.878   3.039 -0.5360  0.2751 -2.3380
  844SOL    HW2 2532   1.239   1.955   0.063 -0.8504 -0.5183  0.2383
  845SOL     OW 2533   2.321   2.298   2.541  0.0808 -0.5706  0.4277
  845SOL    HW1 2534   2.380   2.277   2.460 -2.1083  1.1077 -1.7218
  845SOL    HW2 2535   2.352   2.249   2.623 -0.9934 -0.7622 -0.8409
  846SOL     OW 2536   1.955   2.094   2.843 -0.1670  0.4650  0.8845
  846SOL    HW1 2537   1.912   2.183   2.874 -0.1437  2.6292  1.9193
  846SOL    HW2 2538   1.937   2.074   2.741 -0.1047 -1.6020  2.4657
  847SOL     OW 2539   2.038   2.871   2.795 -0.0836 -0.0135  0.0255
  847SOL    HW1 2540   2.134   2.877   2.763  0.3675 -2.3729  1.2956
  847SOL    HW2 2541   2.030   2.811   2.879 -1.9188 -0.2573  1.7905
  848SOL     OW 2542   0.793   0.593   0.721  0.1215 -0.0654  0.0735
  848SOL    HW1 2543   0.795   0.511   0.776 -1.7619  5.0205  2.5397
  848SOL    HW2 2544   0.885   0.619   0.686  1.7539  1.2427 -2.8779
  849SOL     OW 2545   0.821   3.078   1.323 -0.8731 -0.1457  0.1743
  849SOL    HW1 2546   0.763   3.002   1.289  1.5457  0.2208 -0.1974
  849SOL    HW2 2547   0.758   0.045   1.379 -0.5787  0.3032 -0.5892
  850SOL     OW 2548   0.468   1.603   0.101  0.0334 -0.1845  0.6682
  850SOL    HW1 2549   0.405   1.669   0.151 -2.3286  2.7834  1.9559
  850SOL    HW2 2550   0.487   1.644   0.008 -1.2582 -1.5600  2.8954
  851SOL     OW 2551   0.003   0.934   0.688 -0.1426 -0.3163 -0.0021
  851SOL    HW1 2552   3.023   0.999   0.688  0.6286  2.2089 -2.0340
  851SOL    HW2 2553   3.070   0.846   0.730  0.0703 -0.7023 -1.0937
  852SOL     OW 2554   1.784   2.218   1.904  0.5665  0.4459  0.2096
  852SOL    HW1 2555   1.861   2.193   1.842  0.3519 -1.1308 -0.9267
  852SOL    HW2 2556   1.704   2.252   1.852 -0.2178  2.5796  0.0726
  853SOL     OW 2557   0.281   1.809   0.167 -0.3385  0.1661  0.4509
  853SOL    HW1 2558   0.189   1.770   0.154  1.7158 -0.2561  1.4509
  853SOL    HW2 2559   0.291   1.890   0.100  1.2854  2.2867 -1.3319
  854SOL     OW 2560   1.723   1.245   1.600 -0.5048  0.0511 -0.2703
  854SOL    HW1 2561   1.778   1.256   1.515  0.1993 -2.3462 -3.6738
  854SOL    HW2 2562   1.743   1.153   1.632  1.8283  0.2860 -2.0280
  855SOL     OW 2563   0.805   2.559   2.891 -0.4912 -0.4693  0.1841
  855SOL    HW1 2564   0.907   2.582   2.896 -0.9883  0.4547 -0.6561
  855SOL    HW2 2565   0.782   2.491   2.961  0.5281 -0.4143 -2.0331
  856SOL     OW 2566   3.007   0.266   2.053  0.1311  0.5315  0.2399
  856SOL    HW1 2567   3.008   0.194   1.980  0.5867 -1.8014  0.0877
  856SOL    HW2 2568   3.030   0.225   2.143  0.0005  0.2652 -0.9496
  857SOL     OW 2569   0.551   0.808   1.995 -0.0668 -0.0802  0.2910
  857SOL    HW1 2570   0.488   0.885   1.961  0.7212 -1.3108  0.1192
  857SOL    HW2 2571   0.637   0.803   1.943  2.3542  1.0126  1.9591
  858SOL     OW 2572   0.551   1.331   2.352  0.2165  0.0390  0.6471
  858SOL    HW1 2573   0.464   1.367   2.397 -3.3579 -0.5100  1.3691
  858SOL    HW2 2574   0.611   1.401   2.312 -1.2312 -2.4780  0.1846
  859SOL     OW 2575   2.608   0.275   0.294  0.1136  0.3945  0.3746
  859SOL    HW1 2576   2.635   0.292   0.394 -1.8675  0.7179 -0.2843
  859SOL    HW2 2577   2.584   0.181   0.292  1.3281  2.3688  2.0141
  860SOL     OW 2578   1.743   2.738   2.829 -0.1622 -0.4622 -0.0090
  860SOL    HW1 2579   1.725   2.836   2.827  0.6972 -2.4102  0.2644
  860SOL    HW2 2580   1.824   2.722   2.883  0.0545  2.8875 -3.3153
  861SOL     OW 2581   0.380   0.784   0.518 -0.3103  0.3007  0.2304
  861SOL    HW1 2582   0.286   0.759   0.495  1.1106 -1.9842  1.6655
  861SOL    HW2 2583   0.440   0.702   0.533  0.0347 -1.3093  1.8854
  862SOL     OW 2584   1.770   0.365   2.224  0.5954 -0.0068 -0.2170
  862SOL    HW1 2585   1.870   0.346   2.231 -2.3016 -0.4769 -0.7148
  862SOL    HW2 2586   1.718   0.281   2.243 -1.0061  1.8261 -0.1892
  863SOL     OW 2587   2.622   2.124   1.093 -0.0891  0.5249 -0.1010
  863SOL    HW1 2588   2.526   2.146   1.102  0.9418 -0.5945 -0.3991
  863SOL    HW2 2589   2.686   2.191   1.140  3.3628 -0.6699  1.9918
  864SOL     OW 2590   2.484   2.873   1.915  0.3727 -0.0493 -0.2790
  864SOL    HW1 2591   2.388   2.845   1.898 -1.5062  0.7152 -0.2010
  864SOL    HW2 2592   2.544   2.799   1.963  0.1788 -2.5827  1.9674
  865SOL     OW 2593   1.352   0.435   1.704 -0.4075  0.2756  0.9077
  865SOL    HW1 2594   1.398   0.353   1.660  2.4918 -2.3829 -1.7811
  865SOL    HW2 2595   1.293   0.413   1.785 -0.0853  0.9359 -1.4182
  866SOL     OW 2596   2.505   2.975   0.848  0.0669 -0.1240 -0.3877
  866SOL    HW1 2597   2.531   3.047   0.782  1.9954 -1.9854 -0.2196
  866SOL    HW2 2598   2.584   2.912   0.873  0.1803 -1.3789 -0.4607
  867SOL     OW 2599   2.755   2.989   0.460 -0.3534  0.6226  0.4306
  867SOL    HW1 2600   2.849   3.022   0.465 -2.4691  0.4443 -0.8994
  867SOL    HW2 2601   2.742   2.937   0.547 -1.6310 -1.5393  1.2526
  868SOL     OW 2602   1.071   2.198   2.164 -0.7749  0.1955  0.3578
  868SOL    HW1 2603   1.033   2.112   2.119 -2.5972 -2.7234 -1.8697
  868SOL    HW2 2604   0.999   2.248   2.215  2.0163 -0.9299 -0.9299
  869SOL     OW 2605   1.727   2.027   0.083  0.6820 -0.3618 -0.5387
  869SOL    HW1 2606   1.773   2.070   0.161 -0.5648 -0.2754  0.7783
  869SOL    HW2 2607   1.787   1.957   0.046 -0.3096 -0.4503  2.0147
  870SOL     OW 2608   2.558   2.465   0.489 -0.0509  0.0179 -0.1939
  870SOL    HW1 2609   2.591   2.557   0.453 -2.3979  2.4501 -0.0648
  870SOL    HW2 2610   2.562   2.389   0.415 -0.3154  0.7619  0.2535
  871SOL     OW 2611   0.107   1.154   1.551  1.0332 -0.2444  0.3875
  871SOL    HW1 2612   0.133   1.185   1.458 -1.1411  1.5156  1.3064
  871SOL    HW2 2613   0.132   1.230   1.619 -0.7791  0.2972  1.6100
  872SOL     OW 2614   0.867   1.510   2.512 -0.0569 -0.1075 -0.5165
  872SOL    HW1 2615   0.850   1.548   2.606 -1.4511  2.7438 -0.6426
  872SOL    HW2 2616   0.843   1.409   2.513  0.5167  1.5431 -0.3515
  873SOL     OW 2617   0.596   2.952   1.564 -0.1160 -0.1534  0.0209
  873SOL    HW1 2618   0.601   2.944   1.665 -1.4486  0.4076  0.0601
  873SOL    HW2 2619   0.547   3.033   1.536  0.6090 -4.9878 -0.0519
  874SOL     OW 2620   1.332   0.532   2.126  0.2831  0.2097  0.3423
  874SOL    HW1 2621   1.381   0.510   2.215  1.5457 -1.1980 -0.1329
  874SOL    HW2 2622   1.395   0.518   2.049 -0.6329 -0.7775 -0.4184
  875SOL     OW 2623   2.545   2.788   1.150 -0.2134 -0.2629 -0.3173
  875SOL    HW1 2624   2.528   2.771   1.251 -0.1020  0.8093  0.5154
  875SOL    HW2 2625   2.460   2.794   1.096  0.0501  1.2014  1.1560
  876SOL     OW 2626   1.009   1.334   0.822  0.4743  0.0586 -0.2669
  876SOL    HW1 2627   1.067   1.329   0.907  1.0112 -0.5022  2.2034
  876SOL    HW2 2628   0.965   1.248   0.785 -1.6788 -0.8888 -0.8535
  877SOL     OW 2629   3.031   0.332   1.076 -0.8236 -0.1145 -0.7714
  877SOL    HW1 2630   2.982   0.402   1.138 -2.7254  1.8573  1.1338
  877SOL    HW2 2631   0.034   0.354   1.073 -2.5799 -0.1297 -1.2691
  878SOL     OW 2632   2.412   1.419   3.054  0.3455 -0.3718 -0.6536
  878SOL    HW1 2633   2.461   1.472   0.030  0.9729  2.5592  0.0063
  878SOL    HW2 2634   2.359   1.338   0.004  0.1618  0.0174  1.3399
  879SOL     OW 2635   2.757   1.920   1.255  0.1837  0.0333  0.0421
  879SOL    HW1 2636   2.717   1.936   1.345  1.3681 -0.0536 -3.1590
  879SOL    HW2 2637   2.720   1.989   1.189  1.1695 -0.7860 -2.8533
  880SOL     OW 2638   0.572   2.162   1.194 -0.6414  0.3964 -0.6359
  880SOL    HW1 2639   0.516   2.209   1.127  0.6776  1.2838  1.4085
  880SOL    HW2 2640   0.658   2.212   1.218 -2.8201 -2.2503  0.2372
  881SOL     OW 2641   1.388   1.389   0.597  0.1250 -0.4623 -0.3571
  881SOL    HW1 2642   1.303   1.444   0.578 -1.0393 -1.2353 -0.5168
  881SOL    HW2 2643   1.371   1.293   0.569  0.4001  0.5809 -0.2955
  882SOL     OW 2644   2.748   1.042   2.576 -0.4005  0.2684 -0.3145
  882SOL    HW1 2645   2.707   1.039   2.482 -0.5343  0.1405  1.0283
  882SOL    HW2 2646   2.828   0.976   2.580  0.8871 -1.5310 -1.8077
  883SOL     OW 2647   1.449   0.363   1.081  0.9596 -0.2055  0.4309
  883SOL    HW1 2648   1.377   0.290   1.061 -0.1083 -2.4591 -1.3914
  883SOL    HW2 2649   1.517   0.377   1.005  1.3721  0.8589 -0.6269
  884SOL     OW 2650   0.080   2.944   1.075 -0.2722  0.1305  0.1446
  884SOL    HW1 2651   0.017   3.023   1.084  0.7933  1.6111  0.0721
  884SOL    HW2 2652   0.146   2.959   1.152 -1.0590 -3.6415 -0.5762
  885SOL     OW 2653   1.163   1.515   1.426 -0.0424 -0.4494 -0.3023
  885SOL    HW1 2654   1.084   1.453   1.436  1.1760  2.0464 -3.4916
  885SOL    HW2 2655   1.131   1.611   1.406 -0.2441 -0.9210 -0.2986
  886SOL     OW 2656   1.269   1.000   3.079  0.2426 -0.4377  0.2948
  886SOL    HW1 2657   1.359   0.964   0.014 -2.4697  0.7932 -0.4058
  886SOL    HW2 2658   1.285   1.050   2.990  0.1843  1.3640 -2.2242
  887SOL     OW 2659   1.310   0.629   0.686  0.3020 -0.5437  0.0272
  887SOL    HW1 2660   1.335   0.647   0.589 -1.1867 -0.5842  0.5302
  887SOL    HW2 2661   1.364   0.681   0.756 -0.0748  0.6431  0.2179
  888SOL     OW 2662   2.042   1.402   1.843  0.7096 -0.1264 -0.1222
  888SOL    HW1 2663   2.140   1.421   1.814  3.2942 -1.0565  0.0841
  888SOL    HW2 2664   2.036   1.303   1.867 -0.0074 -0.5530  1.0502
  889SOL     OW 2665   2.653   2.310   0.693  0.4885  0.5171  0.2587
  889SOL    HW1 2666   2.584   2.254   0.746  0.8160 -3.0890  0.1783
  889SOL    HW2 2667   2.600   2.372   0.629 -0.5909 -1.0494 -1.5833
  890SOL     OW 2668   1.471   1.742   1.026  0.4045 -0.4185 -0.1291
  890SOL    HW1 2669   1.401   1.728   0.954  0.4657 -0.1394  0.9379
  890SOL    HW2 2670   1.441   1.685   1.104 -1.1509  0.6947 -0.7596
  891SOL     OW 2671   2.555   0.470   2.441  0.2302 -0.2794 -0.3177
  891SOL    HW1 2672   2.634   0.475   2.369 -2.1978 -0.7387 -4.4578
  891SOL    HW2 2673   2.477   0.403   2.415 -0.5487 -0.9833  0.6995
  892SOL     OW 2674   0.922   0.130   2.256 -0.7028 -0.2410 -0.6719
  892SOL    HW1 2675   0.978   0.053   2.297  0.3633 -1.0770 -2.0581
  892SOL    HW2 2676   0.955   0.220   2.300  0.8657  0.5786  0.4810
  893SOL     OW 2677   1.511   0.255   1.570 -0.6132 -0.5177  0.5605
  893SOL    HW1 2678   1.570   0.173   1.562  1.1218 -1.2974 -0.9809
  893SOL    HW2 2679   1.505   0.305   1.480 -0.6724 -0.1965  1.7259
  894SOL     OW 2680   2.692   0.571   0.669  0.0007 -0.3293 -0.3787
  894SOL    HW1 2681   2.716   0.500   0.739 -0.1708  1.4744 -0.7621
  894SOL    HW2 2682   2.660   0.656   0.716 -0.5609  2.2425 -2.0327
  895SOL     OW 2683   1.687   2.379   2.564  0.2568  0.3637 -0.0461
  895SOL    HW1 2684   1.747   2.463   2.571  1.0593  0.4228 -0.8096
  895SOL    HW2 2685   1.713   2.322   2.482  0.6485  1.6441 -0.3923
  896SOL     OW 2686   1.905   0.144   1.494 -0.8240  0.6340  0.2735
  896SOL    HW1 2687   1.922   0.190   1.584 -1.5836  2.1650  1.9140
  896SOL    HW2 2688   1.811   0.097   1.494  1.5887 -2.0166 -0.8906
  897SOL     OW 2689   0.603   1.781   1.937 -0.3100 -0.2808 -0.0725
  897SOL    HW1 2690   0.579   1.730   1.859  0.8512  2.5161  0.3920
  897SOL    HW2 2691   0.665   1.858   1.907 -0.2019  1.5296  0.8311
  898SOL     OW 2692   2.024   1.609   2.026 -0.1564 -0.0395 -0.3701
  898SOL    HW1 2693   2.048   1.525   1.976  3.9877 -2.6608  1.4699
  898SOL    HW2 2694   2.107   1.656   2.069  2.9953 -0.0527 -0.0168
  899SOL     OW 2695   1.956   2.289   1.057  0.4591 -0.2957 -0.0028
  899SOL    HW1 2696   2.045   2.327   1.047 -2.3471 -1.0814 -0.4911
  899SOL    HW2 2697   1.897   2.356   1.111 -2.4784  0.0062  2.8012
  900SOL     OW 2698   0.985   2.903   2.903 -0.6545  0.0601  0.4178
  900SOL    HW1 2699   0.922   2.874   2.979  1.6750  0.4455  1.2645
  900SOL    HW2 2700   0.937   2.896   2.812  0.1750  1.1854 -1.4847
  901SOL     OW 2701   0.963   1.785   2.285 -0.3468  0.0209  0.6914
  901SOL    HW1 2702   1.013   1.796   2.372  2.7074  1.1443 -2.1318
  901SOL    HW2 2703   0.949   1.686   2.264  1.1019 -3.6041  0.3673
  902SOL     OW 2704   2.120   0.387   2.998 -0.2222 -0.0863 -0.5438
  902SOL    HW1 2705   2.183   0.467   3.002 -0.6652  1.3998  2.4299
  902SOL    HW2 2706   2.093   0.351   3.086  0.2023 -0.2720 -0.5796
  903SOL     OW 2707   2.347   0.788   2.161  0.3073  0.1748  0.0785
  903SOL    HW1 2708   2.429   0.794   2.107 -1.1409 -1.5964  2.1968
  903SOL    HW2 2709   2.334   0.873   2.217  0.5082 -1.8134  2.0307
  904SOL     OW 2710   1.800   1.005   1.688 -0.1532 -0.3778  0.0571
  904SOL    HW1 2711   1.884   0.981   1.639  1.5015  0.3564  0.2811
  904SOL    HW2 2712   1.829   1.010   1.785  2.5391 -0.6079 -0.8002
  905SOL     OW 2713   2.043   0.610   0.981  0.5325 -0.3736 -0.6257
  905SOL    HW1 2714   2.134   0.575   0.949 -1.0315 -1.1056  0.2066
  905SOL    HW2 2715   2.034   0.574   1.075  0.0870  0.0567 -0.1618
  906SOL     OW 2716   2.314   1.694   0.527 -0.2845  0.0453  0.0165
  906SOL    HW1 2717   2.249   1.638   0.577  1.4653  0.8267  0.5621
  906SOL    HW2 2718   2.357   1.645   0.450 -0.5399  0.9933 -1.4705
  907SOL     OW 2719   1.082   2.882   0.874 -0.2863 -0.0831  0.3312
  907SOL    HW1 2720   1.166   2.942   0.879  0.9663  0.0704  1.2496
  907SOL    HW2 2721   1.028   2.883   0.784  0.1365  1.9218  0.7214
  908SOL     OW 2722   1.495   2.413   2.212  0.2058 -0.5877  0.1270
  908SOL    HW1 2723   1.553   2.392   2.293 -1.6798 -0.1662 -1.7541
  908SOL    HW2 2724   1.433   2.493   2.237  0.8362  2.0068  1.6296
  909SOL     OW 2725   2.302   0.327   2.102  0.2051  0.0518  0.2236
  909SOL    HW1 2726   2.296   0.425   2.131 -0.4333 -1.0153 -3.0937
  909SOL    HW2 2727   2.252   0.316   2.013  2.8778 -0.4104  0.7540
  910SOL     OW 2728   1.134   0.722   2.618 -0.2333 -0.5863 -0.7921
  910SOL    HW1 2729   1.142   0.626   2.583  1.1119  2.2695 -0.2526
  910SOL    HW2 2730   1.044   0.733   2.659  0.8911  1.7160  0.7236
  911SOL     OW 2731   3.092   1.014   2.878 -0.3839  0.4756 -0.1300
  911SOL    HW1 2732   0.010   0.937   2.942  2.0877 -1.1199 -0.2521
  911SOL    HW2 2733   3.053   1.099   2.920  2.7956  2.4898  0.2380
  912SOL     OW 2734   3.072   2.330   0.966  0.4654  0.1732 -0.6121
  912SOL    HW1 2735   3.007   2.271   0.914 -2.2353 -0.9858  0.9402
  912SOL    HW2 2736   0.049   2.264   0.996 -0.7715  1.6906 -0.9558
  913SOL     OW 2737   2.554   1.852   2.497 -0.4547 -0.1795 -0.0614
  913SOL    HW1 2738   2.452   1.854   2.495 -1.6546  2.0004  4.5192
  913SOL    HW2 2739   2.590   1.896   2.584 -0.2001  1.7098  1.1868
  914SOL     OW 2740   1.805   1.395   0.747  0.0806  0.1564 -0.3988
  914SOL    HW1 2741   1.754   1.329   0.691  1.4229  2.0839  0.3577
  914SOL    HW2 2742   1.743   1.447   0.806  2.4454 -0.2846  0.2545
  915SOL     OW 2743   0.216   2.516   2.093 -0.4682  0.0456 -0.6455
  915SOL    HW1 2744   0.216   2.608   2.140  1.4358 -1.2896 -3.7760
  915SOL    HW2 2745   0.307   2.483   2.057  0.0843  4.2146  0.3818
  916SOL     OW 2746   1.001   3.085   1.053  0.2317  0.4104 -0.5068
  916SOL    HW1 2747   1.028   2.994   1.012 -1.4672 -0.2871 -1.6511
  916SOL    HW2 2748   0.939   3.067   1.134 -0.2234  1.3714  0.0368
  917SOL     OW 2749   2.266   0.613   2.849  0.2670  0.2738  0.3725
  917SOL    HW1 2750   2.296   0.707   2.866  1.4347  2.8763 -0.4227
  917SOL    HW2 2751   2.287   0.589   2.754 -1.1833  0.2877 -0.6466
  918SOL     OW 2752   1.461   2.417   2.712 -0.1883 -0.6086  0.3854
  918SOL    HW1 2753   1.492   2.476   2.789  0.1614 -0.7428 -0.1098
  918SOL    HW2 2754   1.542   2.395   2.652  1.4801  0.4352  1.0766
  919SOL     OW 2755   1.790   2.444   1.218 -0.0008  0.2880 -0.0336
  919SOL    HW1 2756   1.808   2.421   1.318  2.0869 -2.2565 -1.0451
  919SOL    HW2 2757   1.707   2.390   1.190  1.1924 -0.2575  0.1329
  920SOL     OW 2758   1.350   0.054   2.579  0.2842 -0.5029 -0.1433
  920SOL    HW1 2759   1.259   0.048   2.623  1.4427 -0.1151 -1.8397
  920SOL    HW2 2760   1.411   3.078   2.610 -3.9301  0.7474 -0.3723
  921SOL     OW 2761   0.190   1.071   2.681 -0.8889 -0.2051  0.0844
  921SOL    HW1 2762   0.161   1.031   2.590  0.6612 -1.8690 -0.2126
  921SOL    HW2 2763   0.113   1.050   2.747 -3.3454 -0.6236  1.1568
  922SOL     OW 2764   3.011   1.855   1.277 -0.4112  0.4781  0.0417
  922SOL    HW1 2765   2.927   1.902   1.248  4.2273  0.0849  1.8822
  922SOL    HW2 2766   2.992   1.829   1.375 -3.6250 -1.2497  0.0073
  923SOL     OW 2767   0.080   1.490   2.069 -0.2913  0.1746 -0.7352
  923SOL    HW1 2768   0.166   1.542   2.078  0.7962 -1.2878  1.5051
  923SOL    HW2 2769   0.102   1.391   2.047 -0.9243 -1.8224 -2.7848
  924SOL     OW 2770   1.708   2.987   2.419 -0.4964 -0.5631 -0.2789
  924SOL    HW1 2771   1.660   2.918   2.364 -0.8694  1.6147  0.4551
  924SOL    HW2 2772   1.773   2.932   2.480 -2.8090 -1.4433  1.6511
  925SOL     OW 2773   2.961   1.776   0.722 -0.4857 -0.1048  0.0910
  925SOL    HW1 2774   3.047   1.740   0.680  0.9607 -3.4821  0.3837
  925SOL    HW2 2775   2.953   1.722   0.810 -1.3555 -1.3207  2.0553
  926SOL     OW 2776   2.503   0.699   1.027  0.0259 -0.4773 -0.3819
  926SOL    HW1 2777   2.546   0.611   1.055 -1.1572  0.9325 -2.1445
  926SOL    HW2 2778   2.493   0.764   1.106 -0.6725 -1.3560 -1.5450
  927SOL     OW 2779   1.844   0.335   1.302  0.1129  0.0988 -0.3228
  927SOL    HW1 2780   1.770   0.389   1.344 -0.6093 -1.7638  0.3676
  927SOL    HW2 2781   1.869   0.250   1.357 -2.4245 -1.6499 -0.6415
  928SOL     OW 2782   0.084   0.799   2.282 -0.5001  0.1069 -0.1025
  928SOL    HW1 2783   0.177   0.815   2.245 -1.0681 -1.9918  0.7589
  928SOL    HW2 2784   0.081   0.757   2.380 -0.8835 -1.7724  0.2733
  929SOL     OW 2785   2.159   1.077   1.280 -0.5320  0.0253  0.5602
  929SOL    HW1 2786   2.197   0.991   1.245 -1.4029  1.6598 -0.4118
  929SOL    HW2 2787   2.128   1.142   1.204 -0.2555 -3.9799  0.0845
  930SOL     OW 2788   1.920   2.378   1.464  0.0072 -0.6366 -0.7104
  930SOL    HW1 2789   1.964   2.291   1.436  0.0354 -0.3786 -0.5233
  930SOL    HW2 2790   1.987   2.434   1.519 -0.6099 -0.9947  0.0980
  931SOL     OW 2791   1.834   1.308   1.351  0.0236  0.1231  0.1126
  931SOL    HW1 2792   1.802   1.362   1.274 -1.7061 -0.7229  1.9636
  931SOL    HW2 2793   1.816   1.209   1.338 -2.5429  0.8252 -0.7805
  932SOL     OW 2794   0.122   0.731   1.714 -0.1616 -0.0475  0.0403
  932SOL    HW1 2795   0.183   0.656   1.742 -1.9355  1.9019 -1.4060
  932SOL    HW2 2796   0.162   0.824   1.708  1.2387  0.7376 -0.1552
  933SOL     OW 2797   2.367   1.984   1.493 -0.4651  0.0322 -0.0517
  933SOL    HW1 2798   2.356   2.077   1.450  0.7357 -0.0887  0.0022
  933SOL    HW2 2799   2.331   1.979   1.586  0.3188  0.9948 -1.5771
  934SOL     OW 2800   1.082   2.296   1.767  0.3437 -0.3642 -0.5425
  934SOL    HW1 2801   1.081   2.364   1.689  3.0891  1.6392  0.2867
  934SOL    HW2 2802   1.098   2.341   1.859 -0.0091 -0.0840  2.5206
  935SOL     OW 2803   2.969   1.402   1.759  0.3225  0.4691 -0.3816
  935SOL    HW1 2804   3.067   1.379   1.768  1.0504  1.9360  0.7527
  935SOL    HW2 2805   2.941   1.475   1.825  1.9061 -0.8875  1.1690
  936SOL     OW 2806   2.759   0.758   1.295  0.4967 -0.1762 -0.9876
  936SOL    HW1 2807   2.778   0.790   1.391  3.1798  0.0484 -0.5623
  936SOL    HW2 2808   2.675   0.700   1.289  2.2324  2.0803 -0.4810
  937SOL     OW 2809   1.495   0.410   1.363  0.2262 -0.2110 -0.4680
  937SOL    HW1 2810   1.504   0.380   1.266 -1.0395 -2.3639 -0.3219
  937SOL    HW2 2811   1.410   0.456   1.385  0.8005 -1.4073 -0.7552
  938SOL     OW 2812   0.486   2.940   0.811 -0.0689 -0.3358 -0.4881
  938SOL    HW1 2813   0.398   2.910   0.860 -1.7544  1.6769 -0.3302
  938SOL    HW2 2814   0.557   2.872   0.790  1.8196  1.8784 -2.5862
  939SOL     OW 2815   2.951   2.009   2.537  0.4278 -0.3777  0.4322
  939SOL    HW1 2816   3.040   1.992   2.492  0.4828 -0.3216  2.9283
  939SOL    HW2 2817   2.926   2.104   2.537  1.6250 -4.0738 -3.0133
  940SOL     OW 2818   1.692   1.712   0.025  0.1353  0.2778 -0.6145
  940SOL    HW1 2819   1.779   1.763   0.057  1.8377 -1.1618  0.1326
  940SOL    HW2 2820   1.667   1.736   3.022 -0.7583  2.4810  1.9568
  941SOL     OW 2821   1.899   2.694   0.421 -0.4212  0.5177  0.0497
  941SOL    HW1 2822   1.894   2.788   0.457 -0.9776 -0.7038 -0.7749
  941SOL    HW2 2823   1.807   2.652   0.403  0.2153 -3.1748  2.0371
  942SOL     OW 2824   2.039   1.907   0.961  0.1161 -0.3227  0.4711
  942SOL    HW1 2825   1.963   1.968   0.992  1.5250  1.5635  0.2065
  942SOL    HW2 2826   2.125   1.927   1.012 -2.2832  0.6443  0.4168
  943SOL     OW 2827   1.964   0.716   1.636  0.5504  0.0522 -0.5813
  943SOL    HW1 2828   1.872   0.716   1.597 -1.5365  0.4951 -0.9351
  943SOL    HW2 2829   2.016   0.789   1.590  1.1381 -1.1477  0.1914
  944SOL     OW 2830   1.593   0.821   2.063  0.0833 -0.3726 -0.1450
  944SOL    HW1 2831   1.659   0.747   2.092  2.3907  0.0703 -1.4198
  944SOL    HW2 2832   1.510   0.828   2.122 -3.3892 -1.7796  1.2002
  945SOL     OW 2833   2.202   2.893   1.386  0.1138 -0.0003  0.3366
  945SOL    HW1 2834   2.290   2.943   1.396  3.6651  0.4532 -0.1004
  945SOL    HW2 2835   2.126   2.957   1.364  2.0110 -2.0929 -1.0961
  946SOL     OW 2836   0.723   1.294   0.625 -0.0435 -0.4553  0.3204
  946SOL    HW1 2837   0.713   1.368   0.691 -2.1445 -0.2626 -0.3406
  946SOL    HW2 2838   0.732   1.331   0.532  0.4072 -0.2895  1.6899
  947SOL     OW 2839   1.140   2.261   0.971 -0.6954  0.5285  0.3637
  947SOL    HW1 2840   1.162   2.359   0.974  1.8322 -3.3541 -3.0546
  947SOL    HW2 2841   1.062   2.256   0.903  1.7870  0.1120 -0.2164
  948SOL     OW 2842   0.340   1.614   1.090  0.5481 -0.3238  0.1390
  948SOL    HW1 2843   0.321   1.538   1.028  0.3685  2.4815  1.2006
  948SOL    HW2 2844   0.418   1.677   1.070 -0.8042  0.8133  1.0955
  949SOL     OW 2845   0.850   1.215   1.612  0.1514 -0.1468  0.1652
  949SOL    HW1 2846   0.771   1.148   1.608  0.8015  0.4066 -0.2739
  949SOL    HW2 2847   0.913   1.199   1.537  2.5150  0.8761 -0.8189
  950SOL     OW 2848   0.707   0.648   1.385 -0.1617 -0.1617 -0.6114
  950SOL    HW1 2849   0.773   0.717   1.427  1.0565  0.2854  0.6365
  950SOL    HW2 2850   0.611   0.670   1.419 -0.4928 -0.0405  2.0419
  951SOL     OW 2851   0.631   2.190   1.922 -0.0939  0.0614 -0.8704
  951SOL    HW1 2852   0.542   2.215   1.884  1.6419 -0.3749 -2.2477
  951SOL    HW2 2853   0.664   2.102   1.888 -0.9669 -1.9348 -2.2995
  952SOL     OW 2854   0.858   1.681   3.078 -0.0169  0.5029  0.0153
  952SOL    HW1 2855   0.802   1.767   3.058 -1.1708  0.9140 -1.3098
  952SOL    HW2 2856   0.945   1.704   0.033 -1.4974 -3.6186  1.0114
  953SOL     OW 2857   0.811   2.924   0.079  0.4199  0.6374  0.0991
  953SOL    HW1 2858   0.717   2.899   0.045  2.1402 -2.0923 -1.3173
  953SOL    HW2 2859   0.868   2.839   0.076 -1.3498  0.9318  0.8703
  954SOL     OW 2860   1.587   1.287   0.008  0.3924  0.7794 -0.1052
  954SOL    HW1 2861   1.552   1.307   0.099 -2.4512  0.1113 -1.8835
  954SOL    HW2 2862   1.621   1.367   3.047 -1.6217 -2.6198  0.8236
  955SOL     OW 2863   0.116   2.416   3.062  0.5232  1.4267  0.2928
  955SOL    HW1 2864   0.205   2.459   3.070 -2.1800  1.1580  0.0363
  955SOL    HW2 2865   0.062   2.465   2.990  1.2763 -0.4558 -1.6378
  956SOL     OW 2866   1.170   1.031   1.272  0.4131  0.0043  0.1147
  956SOL    HW1 2867   1.209   1.048   1.185 -1.1380  1.9166  1.4661
  956SOL    HW2 2868   1.232   1.060   1.348 -0.9251  1.6318  0.9888
  957SOL     OW 2869   1.548   1.689   1.599  0.0862 -0.0191 -0.5748
  957SOL    HW1 2870   1.531   1.596   1.639  1.5198 -3.1698  0.0632
  957SOL    HW2 2871   1.523   1.765   1.665 -1.5850  2.1925  0.6518
  958SOL     OW 2872   0.866   2.058   1.620 -0.1597  0.4076  0.4107
  958SOL    HW1 2873   0.821   2.003   1.549 -3.4522  0.6279  2.3473
  958SOL    HW2 2874   0.821   2.150   1.636 -1.1083  1.3423 -0.2143
  959SOL     OW 2875   1.556   1.272   1.185 -0.6739  0.2043 -0.0788
  959SOL    HW1 2876   1.631   1.340   1.173 -4.4617  0.0284  0.8078
  959SOL    HW2 2877   1.544   1.255   1.286 -0.3742 -1.0026 -1.9213
  960SOL     OW 2878   0.323   1.362   0.115  0.0393  0.2755  0.2235
  960SOL    HW1 2879   0.375   1.445   0.091 -1.7128 -0.8792  0.1086
  960SOL    HW2 2880   0.335   1.326   0.211  0.4639 -0.1886 -0.6412
  961SOL     OW 2881   0.699   1.566   1.784 -0.2612  0.1774 -0.0167
  961SOL    HW1 2882   0.755   1.523   1.709 -0.9657  1.4256 -0.1713
  961SOL    HW2 2883   0.762   1.582   1.858 -0.3598  0.4518 -0.9930
  962SOL     OW 2884   1.545   1.592   0.673  0.4248  0.1756 -0.1525
  962SOL    HW1 2885   1.586   1.573   0.766  0.7106  0.0643  0.8434
  962SOL    HW2 2886   1.490   1.509   0.653 -0.4211  3.3684  0.2024
  963SOL     OW 2887   1.570   1.989   2.812 -0.0798 -0.1809 -0.6644
  963SOL    HW1 2888   1.571   2.002   2.712  1.9415  0.9846 -0.0749
  963SOL    HW2 2889   1.511   2.059   2.856  0.9569 -0.2095  1.0623
  964SOL     OW 2890   0.535   2.961   0.325  0.0148 -0.2108  0.7994
  964SOL    HW1 2891   0.449   3.020   0.339  0.3133  0.0909 -0.5907
  964SOL    HW2 2892   0.543   2.940   0.224 -1.0495 -1.3340  2.6002
  965SOL     OW 2893   0.522   2.478   0.695 -0.0008 -0.4839  0.1176
  965SOL    HW1 2894   0.574   2.413   0.754  0.9437  1.3376 -0.5799
  965SOL    HW2 2895   0.430   2.485   0.741 -0.8507 -1.4131 -0.5546
  966SOL     OW 2896   0.399   1.739   2.566 -0.6649  1.0126  0.6416
  966SOL    HW1 2897   0.373   1.827   2.605  1.2148 -3.2804 -0.3012
  966SOL    HW2 2898   0.331   1.704   2.495 -3.0186 -0.3999 -1.2378
  967SOL     OW 2899   3.017   2.883   2.667 -0.5964 -0.5230 -0.8473
  967SOL    HW1 2900   3.063   2.941   2.594 -1.1340 -1.5967 -1.6692
  967SOL    HW2 2901   3.057   2.887   2.761  0.2540  2.1592 -1.1818
  968SOL     OW 2902   2.213   0.570   0.143 -0.0463 -0.9527 -0.1002
  968SOL    HW1 2903   2.114   0.561   0.166  2.0505  1.9505  0.6466
  968SOL    HW2 2904   2.235   0.665   0.116 -0.0056 -1.5155  0.4073
  969SOL     OW 2905   0.375   1.001   1.913 -0.3838  0.3005  0.5529
  969SOL    HW1 2906   0.313   0.995   1.833  2.4272 -0.4134  0.5261
  969SOL    HW2 2907   0.328   1.043   1.995  3.9175 -2.5753 -1.0189
  970SOL     OW 2908   2.325   1.408   1.325  0.0701  0.0398  0.4737
  970SOL    HW1 2909   2.253   1.468   1.284 -0.2372 -0.5256  0.6879
  970SOL    HW2 2910   2.291   1.315   1.350  1.8386  0.7348  1.5066
  971SOL     OW 2911   2.404   0.281   1.020 -0.6275 -0.0913 -0.3825
  971SOL    HW1 2912   2.343   0.316   0.949  0.3027  0.3680  3.0190
  971SOL    HW2 2913   2.399   0.180   1.022 -1.9098  0.3495  0.3685
  972SOL     OW 2914   0.323   2.881   1.684  0.1724  0.7716 -0.1946
  972SOL    HW1 2915   0.353   2.884   1.783  0.5886 -2.4683 -1.6141
  972SOL    HW2 2916   0.403   2.862   1.623 -1.5596 -0.6402 -3.3005
  973SOL     OW 2917   3.092   0.413   2.981  0.3364  0.3675 -0.5056
  973SOL    HW1 2918   0.062   0.484   3.021  1.6541  1.5713 -0.2559
  973SOL    HW2 2919   0.004   0.409   2.884  0.3932 -0.2227  0.8278
  974SOL     OW 2920   1.826   1.427   2.128  0.2267  0.4373  0.5106
  974SOL    HW1 2921   1.735   1.457   2.083 -0.8180  1.2897  1.3844
  974SOL    HW2 2922   1.892   1.503   2.117 -1.3371 -3.7099 -1.1967
  975SOL     OW 2923   2.896   0.075   1.484  0.7474 -0.6010 -0.2447
  975SOL    HW1 2924   2.994   0.102   1.486 -0.6118  2.6564  0.8281
  975SOL    HW2 2925   2.844   0.122   1.556  1.4996 -1.6514  1.5255
  976SOL     OW 2926   0.371   1.929   1.971  0.0508 -0.6294 -0.3290
  976SOL    HW1 2927   0.458   1.874   1.951  0.6462  1.5697 -1.3635
  976SOL    HW2 2928   0.316   1.946   1.887  1.9320 -2.0065 -0.3443
  977SOL     OW 2929   0.853   2.427   0.449  0.2140 -0.0894 -0.1624
  977SOL    HW1 2930   0.766   2.472   0.449  2.2013  0.0818 -1.6706
  977SOL    HW2 2931   0.915   2.484   0.507  0.7254  0.7566 -0.6180
  978SOL     OW 2932   0.047   1.471   2.342  0.7710 -0.7622  0.3860
  978SOL    HW1 2933   0.039   1.486   2.238  0.6938  1.9775  0.2817
  978SOL    HW2 2934   3.055   1.494   2.393 -1.2494 -1.6768  0.6068
  979SOL     OW 2935   1.557   2.668   1.402 -0.2496 -0.0545  0.1600
  979SOL    HW1 2936   1.625   2.620   1.465  0.9160  1.0363  2.2467
  979SOL    HW2 2937   1.471   2.612   1.379  1.4332 -2.1809 -2.7992
  980SOL     OW 2938   0.981   1.430   3.054  0.0392 -0.0367 -0.6264
  980SOL    HW1 2939   0.928   1.513   3.073  1.0854  0.7730  2.3194
  980SOL    HW2 2940   0.944   1.342   0.003 -1.8446 -0.0668 -2.0113
  981SOL     OW 2941   2.187   3.089   2.223  0.0756 -0.2759 -0.1940
  981SOL    HW1 2942   2.284   3.091   2.249 -0.5001 -1.2394 -2.3249
  981SOL    HW2 2943   2.173   3.078   2.124 -0.3732  2.6792 -3.3440
  982SOL     OW 2944   0.058   0.030   2.806 -0.1883 -0.8219 -0.2526
  982SOL    HW1 2945   3.073   0.087   2.771  0.3758  0.4699 -2.7175
  982SOL    HW2 2946   0.139   0.089   2.804  1.1743 -4.0120  1.2265
  983SOL     OW 2947   1.973   1.210   2.041  0.6319  0.3962  0.8657
  983SOL    HW1 2948   1.906   1.279   2.071 -0.2625 -4.1272  0.3698
  983SOL    HW2 2949   1.928   1.119   2.039 -1.9233 -1.4206 -1.0491
  984SOL     OW 2950   1.605   0.411   2.006  0.2597 -0.0113 -0.5271
  984SOL    HW1 2951   1.659   0.375   2.089 -1.3231 -0.3007  3.5348
  984SOL    HW2 2952   1.670   0.434   1.929  1.9065 -1.3014  0.7467
  985SOL     OW 2953   1.812   1.474   1.712  0.1741  0.4353  0.2219
  985SOL    HW1 2954   1.754   1.396   1.677  1.8171 -1.4873  1.3555
  985SOL    HW2 2955   1.897   1.438   1.760  0.2359  0.3569  1.1243
  986SOL     OW 2956   2.121   0.546   1.487 -0.1548 -0.5423  0.2818
  986SOL    HW1 2957   2.157   0.475   1.548 -2.0637 -3.2007 -0.8221
  986SOL    HW2 2958   2.057   0.609   1.537  1.0188  0.2342 -2.3245
  987SOL     OW 2959   2.554   0.594   1.342 -0.2885  0.0352 -0.1651
  987SOL    HW1 2960   2.527   0.670   1.403  0.7706  1.1397  0.2604
  987SOL    HW2 2961   2.483   0.575   1.276 -1.3824  0.7610  1.7719
  988SOL     OW 2962   3.003   0.844   2.078  0.5799  0.1334  0.0474
  988SOL    HW1 2963   2.970   0.774   2.011  0.9451  0.2150 -3.1290
  988SOL    HW2 2964   3.069   0.808   2.147 -2.9304  2.0988  1.2680
  989SOL     OW 2965   2.058   1.726   2.916 -0.2813 -0.5340  0.3096
  989SOL    HW1 2966   2.020   1.739   2.818 -2.6854 -1.8654 -1.0772
  989SOL    HW2 2967   2.154   1.697   2.908 -3.2029  0.8418  2.5457
  990SOL     OW 2968   0.990   0.450   0.035 -0.0994  0.0307  0.4416
  990SOL    HW1 2969   0.953   0.483   3.038  0.4446  1.9100 -2.2982
  990SOL    HW2 2970   1.089   0.455   0.036 -0.6910  0.0852 -1.1164
  991SOL     OW 2971   1.522   0.904   0.049  0.2636  0.0065  0.3087
  991SOL    HW1 2972   1.598   0.882   0.111 -0.1518 -4.0054  1.1725
  991SOL    HW2 2973   1.545   0.878   3.048  0.3831 -1.1453  1.1786
  992SOL     OW 2974   2.017   1.186   3.086  0.2260  0.2682 -0.6286
  992SOL    HW1 2975   1.927   1.231   0.010  0.8044  0.4815 -3.1993
  992SOL    HW2 2976   2.007   1.083   3.089 -0.4777 -1.8019 -1.4726
  993SOL     OW 2977   0.038   0.521   0.497 -0.0384  0.0379 -0.1007
  993SOL    HW1 2978   0.100   0.504   0.413  1.4982 -0.2347 -4.4444
  993SOL    HW2 2979   3.052   0.562   0.455 -0.3380  1.7471  0.0713
  994SOL     OW 2980   3.081   1.830   2.096 -0.5990  0.1297  0.0530
  994SOL    HW1 2981   3.007   1.838   2.166  0.4118 -2.2410 -0.1094
  994SOL    HW2 2982   0.080   1.826   2.144 -1.9996  1.0947 -0.2681
  995SOL     OW 2983   1.919   1.377   2.412  0.1967 -0.3669 -0.1072
  995SOL    HW1 2984   1.872   1.366   2.322  0.2440  1.0944 -1.1763
  995SOL    HW2 2985   1.977   1.296   2.433 -0.9610  0.8874 -0.7604
  996SOL     OW 2986   1.902   1.785   2.692 -0.3167 -0.3686 -0.3873
  996SOL    HW1 2987   1.888   1.889   2.678 -1.3379 -0.9828  1.7040
  996SOL    HW2 2988   1.921   1.733   2.609  0.1934  0.8872  1.6643
  997SOL     OW 2989   2.445   1.601   1.689  0.3352  0.5608  0.1912
  997SOL    HW1 2990   2.460   1.600   1.585 -1.0289  0.3406 -1.1550
  997SOL    HW2 2991   2.534   1.577   1.736  1.5591  1.6828  0.7712
  998SOL     OW 2992   2.405   1.394   0.357 -0.2501 -0.0759  0.1185
  998SOL    HW1 2993   2.303   1.396   0.361 -0.7964  0.7993  2.8771
  998SOL    HW2 2994   2.440   1.332   0.433  1.0960  0.8818  1.4784
  999SOL     OW 2995   2.869   2.491   0.391 -0.1406 -0.8446 -0.3395
  999SOL    HW1 2996   2.832   2.477   0.486 -0.6055 -1.6563 -0.7898
  999SOL    HW2 2997   2.863   2.587   0.360  1.6213 -2.2995  1.4506
 1000SOL     OW 2998   0.983   0.234   2.019  0.2366 -0.3388  0.0918
 1000SOL    HW1 2999   0.973   0.177   2.104  0.1082  1.4115 -0.5169
 1000SOL    HW2 3000   1.068   0.261   1.983 -2.0612 -1.2252  2.8164
   3.09390   3.09390   3.09390
