1000 SPC/Fw water molecules t= 481.00000 step= 481000
 3000
    1SOL     OW    1   2.655   0.131   1.429 -0.5658  0.2927  0.2386
    1SOL    HW1    2   2.675   0.230   1.443  0.1417  0.7210 -0.8195
    1SOL    HW2    3   2.601   0.090   1.513 -2.4419  3.4979  0.7721
    2SOL     OW    4   2.945   2.815   2.768  0.1154  0.5106 -0.0810
    2SOL    HW1    5   2.995   2.721   2.755 -0.1625 -2.3203  0.2723
    2SOL    HW2    6   2.849   2.805   2.739 -0.3807 -1.3222  1.6287
    3SOL     OW    7   1.009   2.015   0.227 -0.5599  0.0523  0.0239
    3SOL    HW1    8   0.955   2.029   0.143  0.5529  1.6895  1.3960
    3SOL    HW2    9   0.938   2.028   0.297 -0.5100 -0.3682  0.0099
    4SOL     OW   10   1.271   2.773   2.260  0.0758  0.3691 -0.1277
    4SOL    HW1   11   1.234   2.864   2.234  1.8845 -1.2775  2.0924
    4SOL    HW2   12   1.269   2.755   2.361 -2.1409 -0.8717  2.8604
    5SOL     OW   13   2.031   0.272   3.057  0.2049 -0.2292 -0.1899
    5SOL    HW1   14   2.105   0.207   0.000  0.4215 -2.5222 -0.9290
    5SOL    HW2   15   1.977   0.293   0.064  0.8911 -2.0359  1.2359
    6SOL     OW   16   0.143   1.763   0.872  0.2014  0.1264 -0.1131
    6SOL    HW1   17   0.168   1.853   0.912  0.4125  1.2107  1.3556
    6SOL    HW2   18   0.231   1.708   0.870  2.0915  0.7635  3.3174
    7SOL     OW   19   1.037   1.847   0.705  0.2645 -0.3973  0.3450
    7SOL    HW1   20   1.016   1.802   0.615 -0.9167 -1.7778 -0.6409
    7SOL    HW2   21   1.139   1.848   0.717 -0.7705  0.6941 -0.9800
    8SOL     OW   22   0.383   0.403   0.475  0.0310  0.3504 -0.0007
    8SOL    HW1   23   0.431   0.447   0.395  3.0372  3.3833 -2.6247
    8SOL    HW2   24   0.300   0.455   0.504 -0.9094  0.7768  0.1414
    9SOL     OW   25   0.198   2.449   1.694  0.3049 -0.4668 -0.0162
    9SOL    HW1   26   0.275   2.510   1.674 -2.6227  0.6208 -0.8265
    9SOL    HW2   27   0.118   2.473   1.635 -0.3361 -0.0291  1.2220
   10SOL     OW   28   1.249   1.448   0.020  0.2302  0.3814 -0.4444
   10SOL    HW1   29   1.304   1.433   3.018 -1.0639  1.7352  3.5264
   10SOL    HW2   30   1.167   1.388   0.024  1.7854 -0.0964 -0.4938
   11SOL     OW   31   1.944   0.626   1.552 -0.8175 -0.0367 -0.1908
   11SOL    HW1   32   1.969   0.669   1.637 -1.0509  0.5828 -1.7305
   11SOL    HW2   33   1.843   0.602   1.560  0.6352 -1.1434  0.6935
   12SOL     OW   34   0.395   0.677   2.060 -0.1382 -0.7560  0.2793
   12SOL    HW1   35   0.475   0.723   2.104 -0.5895  0.2631 -2.9989
   12SOL    HW2   36   0.412   0.577   2.048  1.9125  2.4822 -2.9802
   13SOL     OW   37   2.153   0.148   0.371  0.1245  0.3381 -0.1115
   13SOL    HW1   38   2.119   0.099   0.291 -3.1143  0.9415  2.2112
   13SOL    HW2   39   2.066   0.188   0.419 -2.2163  2.7591  2.7699
   14SOL     OW   40   2.425   1.993   0.252  0.5824  0.6063 -0.2701
   14SOL    HW1   41   2.390   2.081   0.291  0.8533 -3.4262  1.9361
   14SOL    HW2   42   2.447   2.005   0.152 -1.1320  0.6441  0.7562
   15SOL     OW   43   2.882   2.924   3.005 -0.2194  0.4476 -0.1789
   15SOL    HW1   44   2.904   2.876   2.918 -0.9675 -0.8978 -1.3447
   15SOL    HW2   45   2.818   2.997   2.975  0.5662  0.3737 -0.7931
   16SOL     OW   46   3.051   0.741   1.121  0.3124 -0.5335  0.1127
   16SOL    HW1   47   0.014   0.646   1.114 -0.1454 -0.5518  1.0322
   16SOL    HW2   48   2.983   0.755   1.043  0.5908 -1.2382 -1.3217
   17SOL     OW   49   0.642   0.354   0.985 -0.7001  0.2339 -0.0902
   17SOL    HW1   50   0.728   0.352   0.933  0.4405  0.8692 -0.0588
   17SOL    HW2   51   0.657   0.405   1.076 -0.9567  0.3788  0.4803
   18SOL     OW   52   2.768   0.098   0.686 -0.2126 -0.0284 -0.2036
   18SOL    HW1   53   2.683   0.092   0.748 -1.1437 -1.4497 -0.4597
   18SOL    HW2   54   2.844   0.161   0.725 -0.4774  1.0362 -1.6390
   19SOL     OW   55   1.983   1.528   0.818  0.8572  0.3203  0.2092
   19SOL    HW1   56   1.989   1.628   0.811 -1.4846  0.0003  0.1217
   19SOL    HW2   57   1.896   1.492   0.781  0.7316 -0.1155  0.4885
   20SOL     OW   58   1.991   1.589   2.501  0.4025 -0.2485  0.3497
   20SOL    HW1   59   1.891   1.608   2.471 -0.3098 -0.0611 -0.4171
   20SOL    HW2   60   2.003   1.625   2.596 -1.1242 -3.0122  1.0321
   21SOL     OW   61   1.336   0.117   0.501 -0.3886  0.4441  0.1195
   21SOL    HW1   62   1.430   0.144   0.522 -1.2155  0.0302  0.6286
   21SOL    HW2   63   1.317   0.101   0.403 -1.0566  0.9456 -1.1195
   22SOL     OW   64   2.421   1.051   3.018  0.2393 -0.3380  0.0147
   22SOL    HW1   65   2.485   1.121   3.058 -4.0065  1.5460  0.1551
   22SOL    HW2   66   2.457   1.004   2.935  0.3326 -0.0196  1.3910
   23SOL     OW   67   0.480   0.202   2.443  0.0433 -0.0922 -0.3790
   23SOL    HW1   68   0.426   0.144   2.374 -0.3768  2.9291 -0.2076
   23SOL    HW2   69   0.555   0.260   2.398  1.5690 -1.1227  0.6529
   24SOL     OW   70   2.142   2.250   0.948  0.0990 -0.2560  0.4063
   24SOL    HW1   71   2.140   2.345   0.991 -1.8623  2.2775 -2.9293
   24SOL    HW2   72   2.105   2.256   0.852  0.3718  0.5999 -2.7192
   25SOL     OW   73   1.308   0.096   0.231  0.3597  0.2794  0.7403
   25SOL    HW1   74   1.348   0.005   0.216  0.8789  1.1551  1.3870
   25SOL    HW2   75   1.366   0.169   0.198  0.9834 -2.6733  0.0335
   26SOL     OW   76   1.018   2.721   2.714  0.0205  0.0892  0.1901
   26SOL    HW1   77   0.986   2.816   2.738  0.7848  1.0460 -1.1651
   26SOL    HW2   78   1.055   2.670   2.794 -4.7370 -1.6812 -0.0701
   27SOL     OW   79   0.986   0.506   1.357  0.3810  0.3312 -0.1879
   27SOL    HW1   80   0.974   0.500   1.258 -0.5161  1.6671  2.7907
   27SOL    HW2   81   0.906   0.449   1.393  1.0930 -1.2685  0.3731
   28SOL     OW   82   0.904   1.896   1.124 -0.1113 -0.0707  0.1474
   28SOL    HW1   83   0.896   1.939   1.030  0.5302 -1.7626 -1.5142
   28SOL    HW2   84   0.813   1.894   1.166 -0.1134 -3.3435  1.4241
   29SOL     OW   85   2.876   0.818   0.929 -0.1208  0.1436  0.9860
   29SOL    HW1   86   2.829   0.784   0.844  0.1486 -1.7117 -0.4699
   29SOL    HW2   87   2.876   0.922   0.931 -1.1077 -0.0735  1.2830
   30SOL     OW   88   1.430   3.046   1.720  0.3865 -0.0249  0.1430
   30SOL    HW1   89   1.402   0.005   1.628 -0.9316  1.1975  0.9206
   30SOL    HW2   90   1.348   3.019   1.776 -0.4213 -0.5511  1.1280
   31SOL     OW   91   1.257   0.027   1.174 -0.3464  0.0057 -0.3539
   31SOL    HW1   92   1.299   0.098   1.122 -1.2805  0.1202  0.9176
   31SOL    HW2   93   1.195   3.044   1.117 -1.1873  0.9039 -0.6011
   32SOL     OW   94   2.378   1.250   2.089  0.1898 -0.2585  0.1060
   32SOL    HW1   95   2.465   1.198   2.095 -0.7510  0.0807  1.6146
   32SOL    HW2   96   2.310   1.202   2.030 -1.1169  1.6060  0.5520
   33SOL     OW   97   2.452   2.642   2.665 -0.3126 -0.0689 -0.1124
   33SOL    HW1   98   2.444   2.652   2.564 -0.5504 -0.2212 -0.1129
   33SOL    HW2   99   2.544   2.677   2.685  0.9214  0.4051 -3.6404
   34SOL     OW  100   1.918   0.958   3.068  0.7548  0.0191  0.1192
   34SOL    HW1  101   2.000   0.906   0.023  0.4651 -2.1837  0.2547
   34SOL    HW2  102   1.873   0.892   3.005  0.2403 -1.6400 -2.3477
   35SOL     OW  103   3.067   1.207   1.201  0.3271  0.3670 -0.1254
   35SOL    HW1  104   0.027   1.290   1.158 -2.9701 -1.2235  0.0035
   35SOL    HW2  105   0.064   1.139   1.228 -0.2446  0.1504  1.5977
   36SOL     OW  106   2.258   2.237   2.674 -0.2798 -0.1578  0.1095
   36SOL    HW1  107   2.297   2.231   2.579 -0.0909  0.2498 -1.9796
   36SOL    HW2  108   2.208   2.329   2.687  0.9188  2.8621  1.6168
   37SOL     OW  109   1.601   0.103   2.153  0.3298  0.3453  0.3287
   37SOL    HW1  110   1.635   0.187   2.195  1.8424 -0.5374  0.2067
   37SOL    HW2  111   1.619   0.103   2.053 -1.5965  2.3886 -1.2474
   38SOL     OW  112   1.108   1.347   2.362 -0.4884  0.4446  0.1524
   38SOL    HW1  113   1.186   1.397   2.313 -2.7117  0.0560  0.1499
   38SOL    HW2  114   1.098   1.257   2.310  1.9191  0.6622 -3.7145
   39SOL     OW  115   1.600   0.367   1.724  0.3313 -0.9673 -0.1275
   39SOL    HW1  116   1.509   0.348   1.682  0.1836 -0.3333 -0.1445
   39SOL    HW2  117   1.617   0.308   1.805  0.4615  2.5952 -0.7570
   40SOL     OW  118   1.060   2.445   0.664 -0.1825  0.0044 -0.0003
   40SOL    HW1  119   1.083   2.387   0.582  0.2206 -3.6146  1.5044
   40SOL    HW2  120   1.138   2.499   0.692 -2.1165 -1.7697 -0.3845
   41SOL     OW  121   2.328   2.187   1.379 -0.2713 -0.6624 -0.1285
   41SOL    HW1  122   2.297   2.258   1.308 -0.3072 -2.4233  1.2952
   41SOL    HW2  123   2.432   2.174   1.377  3.1217 -3.5945 -0.3285
   42SOL     OW  124   2.502   0.024   0.552  0.4809  0.6024  0.5278
   42SOL    HW1  125   2.569   3.031   0.563 -2.1266  2.4691 -0.4657
   42SOL    HW2  126   2.444   0.043   0.636 -3.3535 -0.9770 -0.3072
   43SOL     OW  127   0.911   1.538   2.207  0.5921  0.7389 -0.4591
   43SOL    HW1  128   0.883   1.459   2.144 -1.4327  0.0114  1.7064
   43SOL    HW2  129   0.943   1.618   2.154  2.1076 -1.4776 -0.4242
   44SOL     OW  130   2.003   2.883   1.071  0.2855 -0.6554 -0.9255
   44SOL    HW1  131   1.917   2.917   1.033  1.2805 -0.2016  2.5595
   44SOL    HW2  132   2.059   2.835   1.000 -2.4277 -0.2241  1.6246
   45SOL     OW  133   0.103   2.192   2.439 -0.0197  0.2448 -0.1022
   45SOL    HW1  134   0.150   2.126   2.380 -1.2854  0.5278  0.5692
   45SOL    HW2  135   0.179   2.239   2.486 -2.1330 -1.2004  0.6510
   46SOL     OW  136   0.781   2.501   2.047  0.2532 -0.0650 -0.4815
   46SOL    HW1  137   0.799   2.493   2.148 -0.6413 -3.5683  0.4125
   46SOL    HW2  138   0.727   2.427   2.005  2.6539 -0.5442 -0.4738
   47SOL     OW  139   0.561   1.603   0.605  0.6518  0.0614  0.2572
   47SOL    HW1  140   0.527   1.682   0.544  0.9448  3.6436 -3.2448
   47SOL    HW2  141   0.590   1.524   0.550  1.1371  4.5796 -1.5755
   48SOL     OW  142   0.625   2.708   1.385  0.6552  0.5104  0.0774
   48SOL    HW1  143   0.596   2.634   1.321 -0.4155  0.7985  0.4905
   48SOL    HW2  144   0.579   2.797   1.378 -0.1613 -1.9911  1.6325
   49SOL     OW  145   0.218   2.806   0.196  0.6231  0.4013  0.2544
   49SOL    HW1  146   0.283   2.882   0.183 -3.2733 -0.7687 -1.1351
   49SOL    HW2  147   0.133   2.815   0.142  1.9071 -2.0153 -0.2076
   50SOL     OW  148   1.569   0.664   0.493  0.2990  0.2276 -0.1366
   50SOL    HW1  149   1.545   0.710   0.581  0.6764 -0.2433  0.7184
   50SOL    HW2  150   1.644   0.710   0.444 -0.2466 -2.0096 -2.8241
   51SOL     OW  151   1.716   0.048   0.669 -0.7025  0.3375 -0.2093
   51SOL    HW1  152   1.801   0.025   0.718 -0.5675 -1.1879  1.8673
   51SOL    HW2  153   1.681   0.137   0.701 -1.4507  3.9376  0.8160
   52SOL     OW  154   0.523   1.741   1.020  0.6193 -0.2707 -0.0295
   52SOL    HW1  155   0.556   1.668   1.080  0.3112  1.6465 -3.2213
   52SOL    HW2  156   0.557   1.830   1.049  0.8375 -0.7953  0.3984
   53SOL     OW  157   0.393   1.127   2.641  0.1183  0.3526 -0.8006
   53SOL    HW1  158   0.383   1.167   2.733 -2.0505 -2.2534  0.7105
   53SOL    HW2  159   0.324   1.048   2.637  1.5184 -1.2525  0.5857
   54SOL     OW  160   2.169   1.989   2.746 -0.1807 -0.3076 -0.2853
   54SOL    HW1  161   2.220   2.077   2.720  1.2666  1.0348  0.2884
   54SOL    HW2  162   2.194   1.957   2.838 -0.6205 -0.2330 -0.2991
   55SOL     OW  163   2.648   2.168   1.415 -0.0862  0.5221  0.0650
   55SOL    HW1  164   2.693   2.258   1.413 -2.6745 -3.0423  0.4065
   55SOL    HW2  165   2.681   2.120   1.500  1.1106  0.6175 -0.6431
   56SOL     OW  166   1.359   0.797   1.446 -0.0351 -0.0444 -0.8389
   56SOL    HW1  167   1.462   0.809   1.439 -0.2079  1.1374  2.2701
   56SOL    HW2  168   1.317   0.789   1.354 -0.6660 -0.4758  0.1221
   57SOL     OW  169   2.049   1.832   0.843  0.1148 -0.0154 -0.3105
   57SOL    HW1  170   2.042   1.918   0.896 -1.9755  0.2229 -3.2212
   57SOL    HW2  171   2.141   1.821   0.800 -1.1790  0.9151  1.5063
   58SOL     OW  172   1.965   0.259   2.292 -0.1160 -0.5850  0.1218
   58SOL    HW1  173   1.954   0.252   2.393  1.9524  2.0407 -2.6870
   58SOL    HW2  174   2.034   0.332   2.274 -0.9274  2.9560  0.9429
   59SOL     OW  175   1.553   0.148   2.822 -0.1394  0.2478  0.0337
   59SOL    HW1  176   1.656   0.153   2.812  2.1346 -0.9062  0.0040
   59SOL    HW2  177   1.520   0.067   2.771  0.6018  2.7592  0.2708
   60SOL     OW  178   1.625   1.804   2.875  0.1484  0.0253  0.2378
   60SOL    HW1  179   1.694   1.861   2.920 -0.7858 -0.0756 -1.2510
   60SOL    HW2  180   1.650   1.794   2.778 -2.2911  0.0136  0.5308
   61SOL     OW  181   0.275   2.101   2.969  0.0709 -0.0901  0.2509
   61SOL    HW1  182   0.176   2.095   2.941  0.9678 -0.1266  0.0294
   61SOL    HW2  183   0.331   2.074   2.885  1.3513 -0.5798 -0.7084
   62SOL     OW  184   1.663   1.956   1.197  0.7818  0.8409 -0.2519
   62SOL    HW1  185   1.621   1.925   1.286  0.2010 -1.1068  0.3439
   62SOL    HW2  186   1.745   1.901   1.174 -1.7703  3.1329 -0.6929
   63SOL     OW  187   0.969   2.092   0.582 -0.4382 -0.2152  0.2511
   63SOL    HW1  188   0.906   2.071   0.509  1.5338 -0.0617  0.9126
   63SOL    HW2  189   1.006   2.005   0.622  0.5384 -0.8356  0.7072
   64SOL     OW  190   1.727   1.677   2.385  0.1577  0.5715 -0.0860
   64SOL    HW1  191   1.692   1.592   2.341  0.7821  0.4688  1.2939
   64SOL    HW2  192   1.762   1.732   2.307 -0.8662 -1.1984  1.5384
   65SOL     OW  193   1.868   1.839   1.081  0.1416 -0.0283 -0.3540
   65SOL    HW1  194   1.954   1.894   1.068  2.1366 -1.5830  0.1254
   65SOL    HW2  195   1.861   1.756   1.026 -2.6642 -0.5295  1.8187
   66SOL     OW  196   2.928   0.719   0.509  0.8175 -0.5249 -0.3098
   66SOL    HW1  197   2.861   0.682   0.439  0.9934  0.6103 -3.8982
   66SOL    HW2  198   2.895   0.728   0.604 -0.4414 -1.1836 -1.2051
   67SOL     OW  199   2.090   2.508   1.040 -0.2455 -0.3817  0.2933
   67SOL    HW1  200   1.992   2.543   1.047  0.1632  2.3814  2.7381
   67SOL    HW2  201   2.148   2.553   0.968 -0.7838  0.5721 -1.5209
   68SOL     OW  202   2.440   2.675   1.675  0.2143 -0.4388 -0.0305
   68SOL    HW1  203   2.414   2.595   1.621  1.7414  0.1606 -0.4276
   68SOL    HW2  204   2.410   2.665   1.775  0.3178 -1.2805 -1.0857
   69SOL     OW  205   2.688   2.792   2.719 -0.0180  0.0371 -0.3767
   69SOL    HW1  206   2.688   2.847   2.636  0.8316 -0.6606  0.9687
   69SOL    HW2  207   2.624   2.831   2.791 -0.9547  0.5168 -1.5264
   70SOL     OW  208   1.245   1.466   2.125 -0.2630 -0.1239  0.1911
   70SOL    HW1  209   1.181   1.420   2.063  0.8337  0.4457 -1.3950
   70SOL    HW2  210   1.341   1.461   2.082  1.7443 -0.1432 -2.0919
   71SOL     OW  211   1.173   1.785   1.931  0.1787  0.0222  0.2054
   71SOL    HW1  212   1.180   1.692   1.885  1.2432 -1.4645 -0.2742
   71SOL    HW2  213   1.157   1.864   1.863  0.3170  0.6499 -1.7384
   72SOL     OW  214   2.702   1.304   1.524  0.4335 -0.3996  0.2669
   72SOL    HW1  215   2.751   1.262   1.599  0.3155 -1.8022  1.4318
   72SOL    HW2  216   2.661   1.393   1.550  0.0622 -0.0736 -2.1133
   73SOL     OW  217   0.632   2.047   2.544 -0.5849  0.0813 -0.3889
   73SOL    HW1  218   0.623   2.109   2.464  0.8636  0.5322 -1.0242
   73SOL    HW2  219   0.707   2.085   2.602 -0.2411  1.5581  3.4815
   74SOL     OW  220   0.899   0.252   2.398 -0.7881 -0.3188  0.3616
   74SOL    HW1  221   0.858   0.156   2.395  1.5594  0.4657 -1.9582
   74SOL    HW2  222   0.974   0.261   2.326  0.1375  1.2020 -0.5502
   75SOL     OW  223   0.890   3.034   0.642  0.4045  0.2799  0.3850
   75SOL    HW1  224   0.848   2.954   0.691 -1.5486 -1.8611 -0.7446
   75SOL    HW2  225   0.984   3.010   0.621 -1.8175 -0.2244  0.9540
   76SOL     OW  226   0.743   1.325   2.596  0.1757  0.2029 -0.0848
   76SOL    HW1  227   0.841   1.339   2.576  2.4425  3.7038  1.8847
   76SOL    HW2  228   0.683   1.335   2.513 -0.4793 -1.1074  0.2789
   77SOL     OW  229   0.600   2.620   0.707 -0.1896 -0.5030  0.4965
   77SOL    HW1  230   0.524   2.633   0.636 -3.0631 -2.2904 -2.8982
   77SOL    HW2  231   0.674   2.557   0.673  3.1400  1.3429  0.3367
   78SOL     OW  232   2.682   0.999   2.637  0.0776  0.1124 -0.6366
   78SOL    HW1  233   2.738   0.922   2.665 -2.3611 -2.3903 -2.0424
   78SOL    HW2  234   2.585   0.981   2.661 -1.8317  0.0874  1.1096
   79SOL     OW  235   0.974   1.477   2.553 -0.1227 -0.3173 -0.4587
   79SOL    HW1  236   1.044   1.436   2.492 -1.1647  0.4160  4.5222
   79SOL    HW2  237   0.899   1.522   2.505  1.2509 -3.1586 -0.4391
   80SOL     OW  238   2.142   0.889   1.325 -0.1938  0.0042 -0.6243
   80SOL    HW1  239   2.182   0.858   1.411 -4.5230  0.2501  1.3968
   80SOL    HW2  240   2.205   0.948   1.276  0.2266 -0.9347  0.2573
   81SOL     OW  241   2.037   0.968   2.690 -0.2254  0.3904  0.2672
   81SOL    HW1  242   2.012   1.054   2.738 -0.2949 -0.2895 -2.7894
   81SOL    HW2  243   2.030   0.887   2.746 -0.4410 -1.7476  0.8041
   82SOL     OW  244   2.403   1.793   1.396  0.4463 -0.3971 -0.1751
   82SOL    HW1  245   2.502   1.783   1.411 -3.2267  0.7442  0.1986
   82SOL    HW2  246   2.356   1.838   1.476 -0.7302 -0.4488 -0.1462
   83SOL     OW  247   1.986   2.799   0.163 -0.1698  0.1555 -0.1000
   83SOL    HW1  248   1.980   2.755   0.251 -2.2330 -1.8402 -2.6279
   83SOL    HW2  249   1.989   2.719   0.101 -2.3066  0.7993  1.1165
   84SOL     OW  250   0.748   0.880   0.767  0.3716 -0.3452 -0.4130
   84SOL    HW1  251   0.800   0.946   0.826  0.1957 -1.0705  3.5541
   84SOL    HW2  252   0.711   0.813   0.825 -0.8396  4.0558 -0.1324
   85SOL     OW  253   2.180   1.564   1.226  0.2014  0.0329  0.2001
   85SOL    HW1  254   2.134   1.584   1.140  0.2476  0.2254  2.6249
   85SOL    HW2  255   2.182   1.651   1.278 -0.5154 -1.1648 -0.6064
   86SOL     OW  256   0.669   0.797   1.185  0.0256  0.6814  0.5326
   86SOL    HW1  257   0.596   0.830   1.121 -0.2270 -2.0820 -0.1415
   86SOL    HW2  258   0.753   0.853   1.182  1.9352 -0.1882  2.0585
   87SOL     OW  259   3.001   2.367   2.314  0.4561 -0.6940  0.2432
   87SOL    HW1  260   3.050   2.391   2.223 -0.1497  0.0404 -2.4979
   87SOL    HW2  261   3.074   2.340   2.380  0.4843  1.7039  0.4000
   88SOL     OW  262   0.359   3.058   0.137 -0.1744  0.3604  0.6970
   88SOL    HW1  263   0.458   3.050   0.108  2.3339  1.9875  2.7923
   88SOL    HW2  264   0.314   0.072   0.116  0.7884 -1.2319  1.3649
   89SOL     OW  265   1.355   0.347   1.342  0.2489  0.3435  0.2042
   89SOL    HW1  266   1.337   0.428   1.280 -0.4351  0.2181  0.1426
   89SOL    HW2  267   1.363   0.377   1.440 -2.0420  3.1779  2.1028
   90SOL     OW  268   3.041   1.247   1.900 -0.4829 -0.3513  0.0536
   90SOL    HW1  269   3.070   1.331   1.944  0.6858 -1.4624 -1.7647
   90SOL    HW2  270   0.043   1.199   1.854 -0.8045 -0.1295 -0.0716
   91SOL     OW  271   1.862   2.727   0.764  0.0729  0.3295  0.0256
   91SOL    HW1  272   1.910   2.656   0.701  3.2762 -2.2909 -0.6324
   91SOL    HW2  273   1.845   2.678   0.855  0.1511  0.2603 -0.5907
   92SOL     OW  274   1.779   1.929   0.808  0.3155  0.2043  0.3984
   92SOL    HW1  275   1.854   1.867   0.836 -3.1253 -1.6996  1.1217
   92SOL    HW2  276   1.786   1.945   0.707 -0.6042  1.3224 -1.7958
   93SOL     OW  277   0.384   1.230   0.344 -0.0393 -0.5446 -0.2922
   93SOL    HW1  278   0.313   1.195   0.278 -0.2174  1.4515  0.8547
   93SOL    HW2  279   0.479   1.194   0.329 -4.2795  0.7430  0.2017
   94SOL     OW  280   0.766   2.279   0.918 -0.8180  0.7325 -0.1193
   94SOL    HW1  281   0.864   2.269   0.885 -1.0423  2.2811  0.5656
   94SOL    HW2  282   0.752   2.267   1.016 -2.3359 -0.3801  1.0936
   95SOL     OW  283   0.390   0.830   0.353  0.4482 -0.1043  0.0315
   95SOL    HW1  284   0.403   0.870   0.447 -1.0893 -0.0213  0.7054
   95SOL    HW2  285   0.466   0.857   0.294  1.7280 -1.0754 -0.8596
   96SOL     OW  286   0.784   2.252   1.918  0.4626  0.1091 -0.0079
   96SOL    HW1  287   0.871   2.303   1.918 -2.5332 -0.7585 -0.3065
   96SOL    HW2  288   0.743   2.235   1.824  0.9501  0.1437 -2.3708
   97SOL     OW  289   2.278   0.840   0.413  0.3587  0.1591 -0.3831
   97SOL    HW1  290   2.322   0.923   0.457 -0.9828 -0.1392 -0.2467
   97SOL    HW2  291   2.276   0.856   0.311  0.7387 -0.0079  0.9579
   98SOL     OW  292   0.203   1.923   1.864 -0.0845  0.3495  0.0850
   98SOL    HW1  293   0.219   1.922   1.762  0.5711  0.7600 -1.3217
   98SOL    HW2  294   0.117   1.963   1.891  1.1582 -0.0846  2.1378
   99SOL     OW  295   0.144   0.424   2.000  0.6353  0.3653  0.1473
   99SOL    HW1  296   0.052   0.409   1.961  0.7939  3.4702 -0.5887
   99SOL    HW2  297   0.197   0.484   1.939 -1.3079  1.0166  1.5513
  100SOL     OW  298   2.053   0.601   2.404  0.2120 -0.6482  0.1545
  100SOL    HW1  299   2.154   0.586   2.419  1.4393  1.2342  2.0127
  100SOL    HW2  300   2.026   0.697   2.400 -0.4961  2.0847  0.7060
  101SOL     OW  301   1.171   3.048   1.840 -0.0623 -0.6027  0.1804
  101SOL    HW1  302   1.138   2.957   1.804  1.9446 -2.3485  3.2173
  101SOL    HW2  303   1.103   0.001   1.910 -0.9445  2.4611  0.7170
  102SOL     OW  304   0.520   0.687   1.655 -1.0955 -0.4410  0.0821
  102SOL    HW1  305   0.480   0.653   1.569  0.1222 -0.6541  2.1762
  102SOL    HW2  306   0.453   0.725   1.717  1.3562 -1.6777 -3.0437
  103SOL     OW  307   0.314   0.818   2.873  0.0512 -0.5376  0.2292
  103SOL    HW1  308   0.302   0.747   2.951 -0.2247 -1.2358 -0.9823
  103SOL    HW2  309   0.411   0.851   2.873 -0.3992 -0.8906  3.0378
  104SOL     OW  310   0.522   2.884   1.991  0.0681 -0.0920  0.2376
  104SOL    HW1  311   0.536   2.887   1.893 -3.3046  0.8462  0.5900
  104SOL    HW2  312   0.578   2.952   2.042  1.5609  1.4736 -0.1029
  105SOL     OW  313   2.550   2.863   2.086 -0.2202  0.1276 -0.0632
  105SOL    HW1  314   2.598   2.951   2.071 -0.5423  0.6189 -1.6033
  105SOL    HW2  315   2.478   2.874   2.162 -0.5220 -1.6042 -0.9235
  106SOL     OW  316   0.568   3.005   0.947 -0.3639 -0.1089  0.1122
  106SOL    HW1  317   0.625   3.064   0.891 -2.6159 -1.2793 -1.3644
  106SOL    HW2  318   0.621   2.927   0.984 -2.3829  0.3052  2.1580
  107SOL     OW  319   2.985   1.808   1.004 -0.3452 -0.2914 -0.3583
  107SOL    HW1  320   2.986   1.905   1.040 -1.7059  2.1751  2.2246
  107SOL    HW2  321   3.064   1.791   0.940  0.8140  1.5796  2.1786
  108SOL     OW  322   0.425   2.124   0.843 -0.1257 -0.0104  0.4837
  108SOL    HW1  323   0.383   2.214   0.854  2.7969 -1.4710  1.5991
  108SOL    HW2  324   0.432   2.105   0.742 -0.6263 -2.1762  0.1601
  109SOL     OW  325   1.523   2.942   0.640 -0.2717  0.1419 -0.1972
  109SOL    HW1  326   1.445   2.960   0.701  1.8978 -1.6596  1.6344
  109SOL    HW2  327   1.602   3.004   0.654  0.2323 -1.6931 -1.6094
  110SOL     OW  328   1.463   2.000   0.423  0.5047  0.1206  0.2101
  110SOL    HW1  329   1.527   1.948   0.365 -3.4597 -1.3593  2.8396
  110SOL    HW2  330   1.474   2.100   0.402 -1.2672 -1.6419 -0.8367
  111SOL     OW  331   1.730   2.764   2.171 -0.2109 -0.1463 -0.2810
  111SOL    HW1  332   1.636   2.724   2.172  2.4080  0.8330 -1.1276
  111SOL    HW2  333   1.721   2.856   2.218 -0.2777  0.8308 -0.9375
  112SOL     OW  334   1.859   2.481   2.691  0.4911 -0.0390 -0.1381
  112SOL    HW1  335   1.953   2.457   2.668 -0.4514  0.4874  1.8450
  112SOL    HW2  336   1.848   2.570   2.730  0.6054 -0.9274  1.0080
  113SOL     OW  337   2.215   2.144   2.073 -0.8479 -0.1396 -0.2266
  113SOL    HW1  338   2.304   2.113   2.118  0.0148 -1.5201  0.8099
  113SOL    HW2  339   2.222   2.233   2.018 -1.0522  3.3376 -3.3183
  114SOL     OW  340   0.213   1.212   1.755 -0.0784 -0.6196 -0.0736
  114SOL    HW1  341   0.305   1.206   1.710  1.3336  3.5794  0.8653
  114SOL    HW2  342   0.160   1.283   1.709  1.2464  0.6001 -2.0385
  115SOL     OW  343   2.694   0.693   2.987 -0.3054 -0.3316  0.0216
  115SOL    HW1  344   2.718   0.744   2.902 -0.1815  0.1787 -1.3526
  115SOL    HW2  345   2.750   0.720   3.064  0.2224  0.8073  0.1639
  116SOL     OW  346   2.849   0.213   0.059  0.1597  0.0991 -0.0325
  116SOL    HW1  347   2.878   0.290   3.073 -1.1861  2.5653  2.7765
  116SOL    HW2  348   2.928   0.160   0.096 -0.9605  1.4151  0.3023
  117SOL     OW  349   2.635   2.747   0.878 -0.3143 -0.4006 -0.2732
  117SOL    HW1  350   2.669   2.736   0.783  1.2553 -1.2647 -0.2402
  117SOL    HW2  351   2.577   2.671   0.907 -1.3893  3.7440 -0.3281
  118SOL     OW  352   1.164   2.133   1.998  0.4288 -0.0798  0.2341
  118SOL    HW1  353   1.118   2.072   1.928 -2.8603 -0.8360 -0.9018
  118SOL    HW2  354   1.161   2.092   2.091  0.3001 -2.6749 -0.9250
  119SOL     OW  355   0.672   2.574   0.159 -0.0807 -0.3891 -0.1368
  119SOL    HW1  356   0.572   2.570   0.127 -1.8988  0.3048 -1.1910
  119SOL    HW2  357   0.678   2.605   0.254  1.5649  0.7774  0.1747
  120SOL     OW  358   1.279   1.035   0.368 -0.2771  0.5231  0.6316
  120SOL    HW1  359   1.289   0.939   0.389 -1.0279  0.2392  0.6889
  120SOL    HW2  360   1.189   1.058   0.325  0.5878  1.0084 -1.9996
  121SOL     OW  361   1.641   0.916   0.875 -0.2613 -0.5986  0.3253
  121SOL    HW1  362   1.588   0.958   0.951  1.0286 -0.6480  0.7634
  121SOL    HW2  363   1.580   0.853   0.817  0.1314  1.6612 -0.6078
  122SOL     OW  364   1.972   1.451   2.089 -0.0006  0.0389  0.4443
  122SOL    HW1  365   1.910   1.401   2.156  0.2479  0.9319  1.3305
  122SOL    HW2  366   2.063   1.465   2.134  0.9396 -0.4541 -0.2637
  123SOL     OW  367   0.373   0.998   0.576  0.2651  0.3357  0.3557
  123SOL    HW1  368   0.343   1.078   0.524 -1.4565  1.9268  0.3079
  123SOL    HW2  369   0.292   0.959   0.625 -1.2029 -0.1400  1.8783
  124SOL     OW  370   0.913   0.244   2.838  0.1057 -0.4869  0.0330
  124SOL    HW1  371   0.896   0.306   2.762 -3.1241 -0.2312 -0.6245
  124SOL    HW2  372   0.944   0.295   2.920 -1.7382  0.4873 -0.6712
  125SOL     OW  373   0.656   2.722   2.938 -0.5906 -0.3205 -0.4385
  125SOL    HW1  374   0.700   2.636   2.975 -2.4795 -3.3538 -0.3700
  125SOL    HW2  375   0.555   2.712   2.933 -0.9707 -2.0879 -1.9388
  126SOL     OW  376   0.582   1.456   2.791 -0.1849  0.0919  0.2056
  126SOL    HW1  377   0.617   1.408   2.706 -0.0001 -0.8173 -3.0954
  126SOL    HW2  378   0.660   1.489   2.844  0.4662 -1.0328  1.9603
  127SOL     OW  379   1.021   2.722   0.876 -0.0738  0.2318  0.0047
  127SOL    HW1  380   0.945   2.759   0.814  0.7761  6.6548 -0.5683
  127SOL    HW2  381   1.054   2.798   0.936  0.4474  0.3435 -2.6338
  128SOL     OW  382   1.777   2.056   0.112  0.1061  0.3063 -0.8197
  128SOL    HW1  383   1.706   2.010   0.171  0.9737 -1.8123  0.2737
  128SOL    HW2  384   1.800   2.001   0.028 -0.0084 -0.1706  2.7983
  129SOL     OW  385   1.862   1.766   1.395  0.4082  0.4082  0.0662
  129SOL    HW1  386   1.963   1.761   1.379 -0.3132 -2.8925  0.7636
  129SOL    HW2  387   1.817   1.695   1.338  0.1487  1.4767  0.0474
  130SOL     OW  388   2.076   1.625   1.689 -0.0588  0.0716  0.1803
  130SOL    HW1  389   2.066   1.663   1.783 -0.9298 -1.8932  0.8777
  130SOL    HW2  390   2.156   1.561   1.696  0.3174  0.0491  0.4018
  131SOL     OW  391   1.011   2.657   2.004 -0.0113  0.2670 -0.0585
  131SOL    HW1  392   1.022   2.712   1.920 -0.2580  2.1545  2.0156
  131SOL    HW2  393   0.924   2.597   2.007 -0.4799  2.0880  0.6621
  132SOL     OW  394   2.552   1.442   0.810 -0.5393 -0.6474 -0.4357
  132SOL    HW1  395   2.622   1.512   0.799  0.4767 -0.7974 -2.2647
  132SOL    HW2  396   2.568   1.364   0.743  0.8277 -2.1380 -0.3148
  133SOL     OW  397   0.698   1.720   1.646  0.1484  0.0591 -0.0257
  133SOL    HW1  398   0.650   1.663   1.715 -0.1513  0.5189  0.7200
  133SOL    HW2  399   0.655   1.812   1.643  2.1265 -0.0737 -0.7288
  134SOL     OW  400   0.068   1.278   0.862 -0.2025  0.3671 -0.2486
  134SOL    HW1  401   3.052   1.314   0.833 -1.6730 -0.3711 -0.9168
  134SOL    HW2  402   0.140   1.311   0.800 -2.3374  1.5955 -1.2758
  135SOL     OW  403   2.019   1.693   3.061  0.1684  0.3132 -0.1165
  135SOL    HW1  404   2.001   1.695   0.087 -1.4457  0.1567 -1.6669
  135SOL    HW2  405   1.986   1.606   3.025  1.3797  0.2646  0.7614
  136SOL     OW  406   0.059   1.717   1.364  0.1164 -0.2760 -0.6690
  136SOL    HW1  407   0.148   1.726   1.312 -0.3724 -2.9743  0.2936
  136SOL    HW2  408   3.067   1.791   1.333 -4.0892  0.1661  1.6253
  137SOL     OW  409   2.767   1.188   2.818 -0.3663  0.2244  0.2381
  137SOL    HW1  410   2.745   1.121   2.745 -1.0765  1.4222  2.8569
  137SOL    HW2  411   2.686   1.215   2.865  3.0580 -1.8488 -2.1737
  138SOL     OW  412   2.833   0.478   0.915  0.3129 -0.3723  1.1564
  138SOL    HW1  413   2.765   0.442   0.980 -0.5825 -0.6753 -0.8074
  138SOL    HW2  414   2.798   0.555   0.856  0.4623  0.3827 -2.4130
  139SOL     OW  415   1.970   2.121   2.900 -0.5539 -0.1072 -0.3679
  139SOL    HW1  416   1.911   2.202   2.874 -1.4144  1.8437  1.9746
  139SOL    HW2  417   2.023   2.083   2.819 -2.5244 -0.8029 -1.1069
  140SOL     OW  418   0.955   1.552   0.732 -0.4404  0.5866  0.2338
  140SOL    HW1  419   0.872   1.605   0.760 -1.9604  1.3091 -0.6853
  140SOL    HW2  420   0.929   1.483   0.659  0.0319 -1.8245 -0.1042
  141SOL     OW  421   1.416   1.476   0.978  0.3274 -0.0731  0.4130
  141SOL    HW1  422   1.332   1.493   0.921 -4.0496  0.4859 -0.0758
  141SOL    HW2  423   1.497   1.446   0.921  1.0964 -1.2347 -1.2788
  142SOL     OW  424   1.314   0.854   1.153  0.4713 -0.1431  0.3337
  142SOL    HW1  425   1.221   0.870   1.118 -2.0566  2.8464 -2.0804
  142SOL    HW2  426   1.341   0.761   1.132  1.4365  1.3883 -0.4006
  143SOL     OW  427   0.514   0.231   3.075  0.2881 -0.1950 -0.4979
  143SOL    HW1  428   0.532   0.326   3.038 -0.1142  3.7744  2.4191
  143SOL    HW2  429   0.417   0.222   0.015  3.2863  1.5743  0.7010
  144SOL     OW  430   2.341   0.360   0.364  0.3061 -0.1694 -0.2794
  144SOL    HW1  431   2.426   0.335   0.417  0.4475  0.4560 -1.5691
  144SOL    HW2  432   2.279   0.282   0.357  2.1143  0.2993  2.8250
  145SOL     OW  433   2.338   2.990   2.721 -0.1084 -0.3744  0.7114
  145SOL    HW1  434   2.272   2.956   2.652  0.7942 -1.4387  0.8473
  145SOL    HW2  435   2.332   0.018   2.743  1.3757  3.4865  0.1911
  146SOL     OW  436   2.814   2.741   0.402  0.5217 -0.7867 -0.0807
  146SOL    HW1  437   2.766   2.834   0.409 -0.2343 -0.7945  0.7649
  146SOL    HW2  438   2.813   2.691   0.316  0.0897  2.7716  0.1181
  147SOL     OW  439   1.575   0.896   0.292 -0.0508 -0.2868  0.1270
  147SOL    HW1  440   1.491   0.951   0.322  0.1872  1.3244  0.5272
  147SOL    HW2  441   1.550   0.828   0.223 -1.6139  0.8870  1.8483
  148SOL     OW  442   1.043   0.153   0.176  1.2243  0.3269 -0.4457
  148SOL    HW1  443   1.000   0.175   0.266 -1.3051  2.3925  1.9923
  148SOL    HW2  444   1.142   0.131   0.188 -1.2659  0.9520 -0.8779
  149SOL     OW  445   1.438   0.653   2.603  0.3393 -0.8052  0.0124
  149SOL    HW1  446   1.360   0.699   2.558 -2.5974 -1.6257 -1.2104
  149SOL    HW2  447   1.426   0.552   2.593  0.0562  1.8333 -0.2761
  150SOL     OW  448   1.580   2.887   2.807  0.0563 -0.1770 -0.4538
  150SOL    HW1  449   1.542   2.921   2.897  0.8414  1.6344  1.6905
  150SOL    HW2  450   1.604   2.793   2.809  1.5317  0.5981  0.8279
  151SOL     OW  451   0.024   1.066   0.051 -0.7795 -0.0771  0.1937
  151SOL    HW1  452   0.063   1.106   3.044  2.0799 -1.9659  0.2497
  151SOL    HW2  453   0.093   1.072   0.125  1.2883  0.4646  0.6321
  152SOL     OW  454   0.607   0.019   1.507 -0.1169  0.3365 -0.5175
  152SOL    HW1  455   0.552   0.087   1.566 -1.0414  1.3632 -0.7272
  152SOL    HW2  456   0.704   0.034   1.515 -2.7203  0.0489 -1.9251
  153SOL     OW  457   2.567   3.072   1.644 -0.1110 -0.3984  0.1653
  153SOL    HW1  458   2.506   0.048   1.712 -0.1819 -2.9916  0.0032
  153SOL    HW2  459   2.521   2.994   1.604  1.3331 -1.0761  2.1336
  154SOL     OW  460   2.168   0.286   2.008 -0.5596  0.0138 -0.2387
  154SOL    HW1  461   2.074   0.261   1.982  3.3133  0.9891  0.6981
  154SOL    HW2  462   2.176   0.331   2.098 -0.8778  0.6409  1.4848
  155SOL     OW  463   0.190   1.034   0.255  0.2927  0.0325 -0.6325
  155SOL    HW1  464   0.273   0.981   0.262  0.4360 -2.1377 -1.1003
  155SOL    HW2  465   0.125   0.995   0.324 -2.8063  2.0950 -1.2316
  156SOL     OW  466   1.744   1.080   0.166  0.4491 -0.1056 -0.0766
  156SOL    HW1  467   1.812   1.045   0.099  0.7212  1.6374  1.2575
  156SOL    HW2  468   1.679   1.003   0.191  0.5328 -3.7646 -1.4142
  157SOL     OW  469   0.991   2.230   0.017  0.4461 -0.1903 -0.1450
  157SOL    HW1  470   1.085   2.248   3.061  0.0233  2.1096  1.3944
  157SOL    HW2  471   0.946   2.157   3.038 -0.5198 -0.3140 -0.5080
  158SOL     OW  472   1.612   0.915   1.506  0.8614  0.1300 -0.5150
  158SOL    HW1  473   1.571   0.889   1.599  0.2478  1.3308  0.9223
  158SOL    HW2  474   1.638   1.010   1.518 -0.7945 -0.9041 -1.0556
  159SOL     OW  475   0.312   0.195   0.782  0.4538  0.2262  0.2428
  159SOL    HW1  476   0.329   0.093   0.758  0.1517 -0.1520 -1.5423
  159SOL    HW2  477   0.256   0.231   0.708 -0.4143 -0.7573 -0.8621
  160SOL     OW  478   2.594   1.693   1.806 -0.3547  0.4248 -0.1091
  160SOL    HW1  479   2.585   1.619   1.881  0.1695 -2.2098  1.7390
  160SOL    HW2  480   2.676   1.670   1.751 -1.4654 -0.8961 -2.4244
  161SOL     OW  481   3.034   2.972   0.309 -0.0836 -0.1039  0.2440
  161SOL    HW1  482   3.038   2.883   0.257  0.7477  0.9705  1.9210
  161SOL    HW2  483   3.020   2.952   0.409  1.5787 -0.2037 -2.3103
  162SOL     OW  484   0.277   0.434   2.470 -0.2248  0.0662  0.0541
  162SOL    HW1  485   0.241   0.403   2.562  0.9056  0.3293  3.2057
  162SOL    HW2  486   0.347   0.366   2.444 -1.9937 -0.9518 -1.1817
  163SOL     OW  487   0.017   2.914   2.358  0.1146 -0.0454 -0.5731
  163SOL    HW1  488   0.028   3.012   2.378  1.2568 -2.6179 -0.3747
  163SOL    HW2  489   3.000   2.877   2.365 -1.6154 -1.0650 -1.9046
  164SOL     OW  490   2.283   1.759   0.268 -0.0101  0.3509  0.0599
  164SOL    HW1  491   2.339   1.844   0.268  1.0569 -1.0867 -2.7546
  164SOL    HW2  492   2.290   1.706   0.183 -0.8785  1.1588  0.5214
  165SOL     OW  493   0.803   0.127   1.300 -0.1707 -0.3511 -0.8423
  165SOL    HW1  494   0.805   0.223   1.336 -0.4449  2.0929 -0.9058
  165SOL    HW2  495   0.868   0.060   1.351  1.5427 -0.0392 -0.0541
  166SOL     OW  496   2.855   0.125   0.407  0.4191  0.4522  0.0543
  166SOL    HW1  497   2.910   0.044   0.379  2.2635  1.1115 -4.1186
  166SOL    HW2  498   2.821   0.115   0.504 -2.7496  0.2376  1.5829
  167SOL     OW  499   2.254   0.676   0.901  0.0188  0.4903 -0.1374
  167SOL    HW1  500   2.239   0.776   0.901 -0.9663  0.2275  0.8451
  167SOL    HW2  501   2.194   0.635   0.971 -0.1738 -1.7645 -0.2318
  168SOL     OW  502   1.175   0.461   2.515 -0.1725  0.6009  0.1627
  168SOL    HW1  503   1.210   0.393   2.449 -0.7943 -0.0303 -0.1645
  168SOL    HW2  504   1.151   0.421   2.602  0.3280  1.2669 -1.0773
  169SOL     OW  505   1.158   1.795   1.154 -0.4842 -0.3913 -0.1928
  169SOL    HW1  506   1.206   1.778   1.065 -0.7325 -0.8033 -0.1124
  169SOL    HW2  507   1.078   1.857   1.139 -0.0755  0.2650  0.6087
  170SOL     OW  508   2.885   0.061   1.529  0.3389  0.1225  0.0249
  170SOL    HW1  509   2.901   3.040   1.522  1.0590  0.1275  1.4257
  170SOL    HW2  510   2.809   0.093   1.470 -0.3710 -1.8229  0.0748
  171SOL     OW  511   2.702   0.610   2.297 -0.0945  0.3508 -0.2343
  171SOL    HW1  512   2.614   0.578   2.254  0.7200  1.4978  1.0949
  171SOL    HW2  513   2.721   0.708   2.267 -0.0825 -0.0370  0.4794
  172SOL     OW  514   1.282   2.401   1.320 -0.0630  0.1607  0.8041
  172SOL    HW1  515   1.292   2.327   1.249  0.2570  0.1681  0.4873
  172SOL    HW2  516   1.275   2.493   1.279 -3.2564  0.0737  1.1619
  173SOL     OW  517   2.588   2.417   2.973 -0.0779  0.1880 -0.3329
  173SOL    HW1  518   2.528   2.373   2.906 -0.7037 -0.2601  2.2788
  173SOL    HW2  519   2.546   2.511   2.992  0.6137  0.1337 -2.4996
  174SOL     OW  520   1.790   0.768   0.372 -0.3592 -0.0701 -0.2570
  174SOL    HW1  521   1.863   0.837   0.399  1.8417  1.9674  1.0655
  174SOL    HW2  522   1.711   0.822   0.338  0.4537  0.8589  0.7454
  175SOL     OW  523   0.922   1.513   1.320 -0.6498 -0.4943 -0.1014
  175SOL    HW1  524   0.852   1.489   1.394  0.9496  1.7386  0.4789
  175SOL    HW2  525   0.995   1.578   1.359 -1.0188  2.7151  0.6499
  176SOL     OW  526   0.389   2.998   0.735  0.0766  0.0513  0.4399
  176SOL    HW1  527   0.457   2.995   0.812  0.8373 -2.0221 -1.0885
  176SOL    HW2  528   0.323   2.916   0.738  1.1208  2.1539  0.6515
  177SOL     OW  529   2.544   1.361   0.325 -0.3176 -0.3417 -0.4135
  177SOL    HW1  530   2.631   1.344   0.375 -1.1451 -1.0393  0.4137
  177SOL    HW2  531   2.482   1.435   0.365 -0.2448  2.9669  1.4627
  178SOL     OW  532   2.679   2.603   2.049 -0.2642  0.2461 -0.4319
  178SOL    HW1  533   2.628   2.687   2.075 -0.1470  0.2867  0.9408
  178SOL    HW2  534   2.725   2.569   2.139 -0.8921 -1.6056  0.8043
  179SOL     OW  535   2.361   3.005   0.317 -0.5722  0.6216  0.6756
  179SOL    HW1  536   2.415   3.047   0.397  1.1800  1.2011  1.0919
  179SOL    HW2  537   2.283   3.060   0.304  2.0104  0.1905  3.9911
  180SOL     OW  538   2.208   0.546   0.672 -0.3934 -0.1903 -0.5145
  180SOL    HW1  539   2.199   0.610   0.758 -1.7231  3.8634  1.6603
  180SOL    HW2  540   2.142   0.560   0.594  3.1777 -2.5690 -1.5373
  181SOL     OW  541   2.991   0.178   2.795 -0.4633  0.1726  0.5582
  181SOL    HW1  542   3.027   0.078   2.794  2.9217 -0.6582 -0.2525
  181SOL    HW2  543   2.955   0.206   2.706  2.4983  1.4436  2.1541
  182SOL     OW  544   2.575   1.922   2.445  0.2056  0.2756 -0.1621
  182SOL    HW1  545   2.487   1.886   2.480 -0.3287  1.0815 -0.2074
  182SOL    HW2  546   2.583   1.905   2.345 -0.1144 -1.5402 -1.0895
  183SOL     OW  547   0.114   1.073   1.465  0.1328  0.9104 -0.8006
  183SOL    HW1  548   0.169   1.035   1.390  0.8831 -1.7177  0.4632
  183SOL    HW2  549   0.170   1.135   1.527  2.0271  2.0054  0.2011
  184SOL     OW  550   0.272   1.395   1.349 -0.1557  0.0950  0.1365
  184SOL    HW1  551   0.205   1.446   1.291  0.7442  1.6807 -0.1060
  184SOL    HW2  552   0.345   1.350   1.294 -1.7387 -2.4588 -0.6878
  185SOL     OW  553   2.940   2.808   1.185  0.2683 -0.5602 -0.2994
  185SOL    HW1  554   2.973   2.785   1.090 -0.6210 -1.4744  0.3991
  185SOL    HW2  555   2.903   2.906   1.185  3.3725  0.2828  1.2909
  186SOL     OW  556   2.118   2.916   2.540  0.0977 -0.4150 -0.1018
  186SOL    HW1  557   2.145   2.821   2.513  2.4606 -0.6478  0.7365
  186SOL    HW2  558   2.022   2.914   2.573  0.1678 -2.1127 -1.3737
  187SOL     OW  559   0.146   1.323   0.550 -0.1284  0.1053  0.0818
  187SOL    HW1  560   0.204   1.341   0.468  0.7678  1.5725 -0.7191
  187SOL    HW2  561   0.180   1.386   0.622  0.0866 -0.4683 -1.6333
  188SOL     OW  562   1.712   1.621   0.155  0.0933  0.3278  0.3841
  188SOL    HW1  563   1.730   1.585   0.064 -1.2745  2.8073  1.3129
  188SOL    HW2  564   1.799   1.637   0.198  0.7941  1.2400  0.4925
  189SOL     OW  565   3.035   1.704   2.948  0.1353  0.6820  0.3685
  189SOL    HW1  566   0.001   1.748   3.030 -1.2097  0.7224 -0.8936
  189SOL    HW2  567   3.043   1.756   2.860 -1.1408 -0.1764 -1.6352
  190SOL     OW  568   2.342   0.858   2.164  0.6468 -0.0004  0.1490
  190SOL    HW1  569   2.439   0.871   2.128 -3.1433 -0.8000  1.5098
  190SOL    HW2  570   2.343   0.862   2.263  1.2425  1.9080  0.1926
  191SOL     OW  571   0.820   1.311   2.037 -0.3929 -0.3127  0.1227
  191SOL    HW1  572   0.723   1.316   2.007 -2.4408 -1.7374  0.2556
  191SOL    HW2  573   0.833   1.265   2.124 -3.1778  1.2902 -1.2670
  192SOL     OW  574   1.955   1.272   1.903  0.5102 -0.8333 -0.2599
  192SOL    HW1  575   1.971   1.330   1.983  1.8404  0.4871 -3.5867
  192SOL    HW2  576   2.034   1.280   1.843 -0.3083  1.3852 -1.8931
  193SOL     OW  577   0.688   0.092   0.795 -0.2364 -0.1832 -0.4115
  193SOL    HW1  578   0.621   0.144   0.737 -0.3004  1.0550  0.9464
  193SOL    HW2  579   0.752   0.050   0.729  1.9058 -1.0274 -0.8645
  194SOL     OW  580   1.441   1.464   1.524  0.4356 -0.3908 -0.1029
  194SOL    HW1  581   1.534   1.429   1.495  0.0657 -1.9719 -0.6501
  194SOL    HW2  582   1.437   1.483   1.623 -0.3150 -1.5850 -0.9507
  195SOL     OW  583   1.876   0.308   0.887 -0.4013 -0.2477 -0.4040
  195SOL    HW1  584   1.919   0.236   0.832  2.9780 -0.0719  0.8268
  195SOL    HW2  585   1.883   0.394   0.832  0.4439 -0.1985 -0.0610
  196SOL     OW  586   1.185   1.557   1.787  0.6201 -0.0512 -0.2592
  196SOL    HW1  587   1.287   1.553   1.785 -2.7165 -0.5324  0.5105
  196SOL    HW2  588   1.141   1.530   1.702  2.3604  1.1062  2.1697
  197SOL     OW  589   0.364   0.249   2.701  0.0967 -0.2325  0.5601
  197SOL    HW1  590   0.401   0.236   2.606  0.9863 -0.3944 -2.3237
  197SOL    HW2  591   0.442   0.281   2.763  0.6068 -0.7726  1.9776
  198SOL     OW  592   0.117   0.850   0.692  0.2255  0.3347 -0.2950
  198SOL    HW1  593   0.166   0.764   0.708 -0.1207  2.1657 -0.5964
  198SOL    HW2  594   0.086   0.860   0.596  0.2457 -0.4365 -0.8360
  199SOL     OW  595   0.617   2.005   0.993  0.4726  0.2148  0.2833
  199SOL    HW1  596   0.705   1.999   0.941 -2.8593  1.6387  2.8659
  199SOL    HW2  597   0.539   2.036   0.932  1.5265 -0.7198 -0.1743
  200SOL     OW  598   2.506   1.830   2.931 -0.0124  0.2287  0.7010
  200SOL    HW1  599   2.607   1.844   2.917 -0.4915 -0.3108  2.4822
  200SOL    HW2  600   2.485   1.730   2.931  1.8905 -2.2606  0.4134
  201SOL     OW  601   0.833   2.455   1.233  0.3934  0.2726 -0.2908
  201SOL    HW1  602   0.900   2.440   1.161 -1.7884 -0.4547 -1.9266
  201SOL    HW2  603   0.757   2.385   1.241 -0.6193  0.8206  0.0102
  202SOL     OW  604   1.052   2.531   0.121  0.3146 -0.7840  0.4733
  202SOL    HW1  605   1.027   2.434   0.132 -0.5272  2.6313 -2.0008
  202SOL    HW2  606   1.047   2.566   0.028  0.3320 -1.3902 -1.4874
  203SOL     OW  607   1.517   2.978   3.065  0.1128 -0.2156 -0.1170
  203SOL    HW1  608   1.590   3.050   3.059  0.0315  1.7394  0.0495
  203SOL    HW2  609   1.428   3.029   3.064 -0.5176 -0.0533 -0.6481
  204SOL     OW  610   0.561   1.711   1.362  0.1107  0.1381  0.3369
  204SOL    HW1  611   0.586   1.632   1.309  1.3639  3.8786  1.3085
  204SOL    HW2  612   0.483   1.682   1.419  0.2565 -1.9924 -0.7100
  205SOL     OW  613   1.844   1.266   2.233  0.7100 -0.4877 -0.2044
  205SOL    HW1  614   1.944   1.236   2.235  1.4288  1.2096 -0.1628
  205SOL    HW2  615   1.779   1.190   2.243  1.4232  1.7822 -1.7858
  206SOL     OW  616   0.005   2.075   2.895  0.3080  0.4414 -0.1242
  206SOL    HW1  617   3.072   2.018   2.812  0.5126 -0.1826 -0.9950
  206SOL    HW2  618   3.043   2.025   2.975 -2.5608  1.3626 -0.2397
  207SOL     OW  619   0.358   2.123   2.106  0.4795 -0.0477  0.5365
  207SOL    HW1  620   0.448   2.104   2.070 -0.4033 -1.8119  0.1387
  207SOL    HW2  621   0.294   2.152   2.030  0.6492  0.3050  0.5719
  208SOL     OW  622   0.078   2.732   1.331  0.3306 -0.0102 -0.1597
  208SOL    HW1  623   0.101   2.787   1.412 -1.3337 -1.0725 -0.6157
  208SOL    HW2  624   3.067   2.758   1.290 -1.7937 -1.9388  2.9622
  209SOL     OW  625   0.999   2.864   2.159  0.0940  0.7240  0.2044
  209SOL    HW1  626   1.011   2.780   2.094  0.5843 -3.5305 -3.6651
  209SOL    HW2  627   0.940   2.838   2.237 -0.3765  2.6176  0.2166
  210SOL     OW  628   2.574   1.241   1.856  0.5804 -0.3130  0.6290
  210SOL    HW1  629   2.663   1.204   1.819  0.2256 -0.2131 -3.1782
  210SOL    HW2  630   2.492   1.186   1.830  0.6265  0.7882 -3.4426
  211SOL     OW  631   0.976   0.030   2.049 -0.6886 -0.4033  0.0557
  211SOL    HW1  632   0.979   3.019   2.104  0.0863 -2.9711  2.7128
  211SOL    HW2  633   1.006   0.105   2.114  1.0569  0.2803  1.3004
  212SOL     OW  634   1.792   2.580   1.960  0.5515 -0.3991 -0.8228
  212SOL    HW1  635   1.769   2.624   2.048  0.0807 -1.2668  3.7357
  212SOL    HW2  636   1.843   2.498   1.976 -1.9783  1.9674 -0.5176
  213SOL     OW  637   2.681   0.493   1.711  0.0149  0.4923 -0.6605
  213SOL    HW1  638   2.686   0.468   1.610  0.7508 -0.7596  1.6330
  213SOL    HW2  639   2.690   0.593   1.729  1.8087  0.1020 -2.4391
  214SOL     OW  640   1.031   2.257   0.853  0.0068  0.2267  0.5631
  214SOL    HW1  641   1.097   2.179   0.865 -1.0449  1.1763  1.6370
  214SOL    HW2  642   1.059   2.316   0.775  0.3101 -1.3057  0.9324
  215SOL     OW  643   2.564   1.823   0.692 -0.1086  0.3087  0.3996
  215SOL    HW1  644   2.659   1.845   0.719  0.3774 -3.0672 -0.8394
  215SOL    HW2  645   2.510   1.905   0.679  1.1815 -2.7366  2.0571
  216SOL     OW  646   2.846   0.945   1.951 -0.1817  0.1453  0.3591
  216SOL    HW1  647   2.854   1.019   1.881  0.3326  1.6893  0.1924
  216SOL    HW2  648   2.937   0.907   1.972  0.8345  3.2941  0.7043
  217SOL     OW  649   2.190   0.180   1.598  0.7366 -0.3649 -0.3446
  217SOL    HW1  650   2.114   0.245   1.614 -0.3016  2.5947 -2.7166
  217SOL    HW2  651   2.236   0.209   1.515  1.0732  0.8574  0.9164
  218SOL     OW  652   1.923   2.568   1.392 -0.3563 -0.2559  0.1379
  218SOL    HW1  653   1.867   2.632   1.333 -1.8131 -1.6128 -3.7844
  218SOL    HW2  654   1.912   2.576   1.490 -2.0552 -0.6241  0.1268
  219SOL     OW  655   2.387   2.427   0.190 -0.2630  0.0907  0.2323
  219SOL    HW1  656   2.299   2.461   0.153 -0.1256  0.5436  1.3373
  219SOL    HW2  657   2.470   2.446   0.140 -2.4875  0.6621  2.4513
  220SOL     OW  658   1.440   2.955   0.305  0.2519  0.5571 -0.4118
  220SOL    HW1  659   1.378   2.895   0.362  1.2576 -0.2303  0.8278
  220SOL    HW2  660   1.515   2.907   0.250 -0.3986  0.7556  1.5961
  221SOL     OW  661   3.033   2.105   1.644  0.4820 -0.0470  0.4507
  221SOL    HW1  662   3.041   2.167   1.560 -0.0256  1.6782 -3.7292
  221SOL    HW2  663   2.970   2.029   1.632  0.4920  1.5865  1.4605
  222SOL     OW  664   1.839   2.631   1.048  0.3126 -0.6438  0.4283
  222SOL    HW1  665   1.867   2.712   1.113  1.9271  3.0396 -1.3284
  222SOL    HW2  666   1.740   2.629   1.023  0.9564 -1.3722  1.8557
  223SOL     OW  667   1.157   2.826   1.351  0.7201 -0.1541  0.1464
  223SOL    HW1  668   1.133   2.924   1.365 -1.0377 -1.4015  2.6739
  223SOL    HW2  669   1.245   2.802   1.390 -2.3785  0.4575 -0.4098
  224SOL     OW  670   2.790   2.389   1.388  0.5237 -0.2709 -0.2107
  224SOL    HW1  671   2.758   2.452   1.310 -2.8615 -3.0639  1.3877
  224SOL    HW2  672   2.810   2.449   1.472  0.3714  0.8885 -0.4838
  225SOL     OW  673   2.423   2.176   0.937 -0.4089 -1.0036 -0.3463
  225SOL    HW1  674   2.336   2.177   0.995 -1.1820 -0.2537 -0.6786
  225SOL    HW2  675   2.412   2.221   0.845  0.1662 -1.0582  1.5474
  226SOL     OW  676   1.279   2.136   0.123  0.2714 -0.7797 -0.5961
  226SOL    HW1  677   1.321   2.207   0.188  3.1072  1.3146  2.0523
  226SOL    HW2  678   1.200   2.085   0.156 -0.7981  0.2620  0.5092
  227SOL     OW  679   1.986   1.172   0.636 -0.7685  0.0954  0.4290
  227SOL    HW1  680   1.922   1.170   0.713  0.2772 -1.5698  0.3930
  227SOL    HW2  681   2.052   1.096   0.659 -0.7229 -0.7921 -0.1587
  228SOL     OW  682   1.308   0.771   0.338 -0.2444 -0.6414  0.2255
  228SOL    HW1  683   1.313   0.699   0.266 -0.9557 -0.0430  0.2999
  228SOL    HW2  684   1.385   0.751   0.405  1.9818 -0.1097  0.0999
  229SOL     OW  685   2.610   1.114   2.129  0.1472  0.3407  0.3340
  229SOL    HW1  686   2.601   1.037   2.060  0.5228  0.4915  1.6950
  229SOL    HW2  687   2.699   1.163   2.120  1.8722  0.9954  2.9759
  230SOL     OW  688   0.465   1.275   1.201  0.1875  0.1808 -0.0962
  230SOL    HW1  689   0.533   1.238   1.266  0.4107 -0.0854  1.0838
  230SOL    HW2  690   0.495   1.249   1.104  0.8927 -0.3842 -1.4557
  231SOL     OW  691   2.392   0.549   2.730 -0.1913  0.2280  0.0553
  231SOL    HW1  692   2.350   0.549   2.821  1.8746  0.9864 -0.7126
  231SOL    HW2  693   2.496   0.534   2.735 -0.5706 -3.6957 -0.0729
  232SOL     OW  694   2.832   1.868   0.717  0.2759 -0.3053 -0.0017
  232SOL    HW1  695   2.879   1.902   0.799 -0.1939 -1.1045  2.2331
  232SOL    HW2  696   2.850   1.919   0.632 -0.9415 -2.0139  0.0409
  233SOL     OW  697   1.859   2.826   2.620 -0.5117 -0.2522  0.1808
  233SOL    HW1  698   1.865   2.780   2.709  2.6006  2.3641 -4.5358
  233SOL    HW2  699   1.799   2.904   2.620  2.2347 -1.4233  0.2231
  234SOL     OW  700   1.578   2.373   1.049  0.0586  0.6017 -0.0139
  234SOL    HW1  701   1.527   2.364   1.134 -0.0423 -2.5989 -2.7861
  234SOL    HW2  702   1.668   2.329   1.054 -1.7093 -0.3984 -0.6034
  235SOL     OW  703   0.975   1.794   1.623 -0.4644  0.3897  0.0414
  235SOL    HW1  704   0.907   1.719   1.647  1.3916  0.0535 -0.1505
  235SOL    HW2  705   1.034   1.759   1.544  2.7243  1.1152 -0.0712
  236SOL     OW  706   0.699   2.402   2.743  0.1239 -0.0941 -0.0563
  236SOL    HW1  707   0.724   2.446   2.830  1.4362 -0.9501 -2.1592
  236SOL    HW2  708   0.598   2.401   2.726  2.2608  0.3088 -2.3369
  237SOL     OW  709   0.452   2.911   1.393 -0.1067 -0.3040 -0.3655
  237SOL    HW1  710   0.413   2.876   1.482  3.2994 -1.3078  0.4880
  237SOL    HW2  711   0.503   2.997   1.419  2.5717  0.3728  0.6113
  238SOL     OW  712   0.841   0.674   0.623 -0.2991  0.3963  0.5249
  238SOL    HW1  713   0.942   0.689   0.612  1.6140  0.2917  0.6002
  238SOL    HW2  714   0.793   0.759   0.655  0.5649 -0.4632 -0.9996
  239SOL     OW  715   2.448   0.874   2.802  0.3113  0.1580 -0.2407
  239SOL    HW1  716   2.384   0.904   2.730 -2.8745 -1.0120  1.5493
  239SOL    HW2  717   2.423   0.779   2.822 -0.1369 -2.1592 -0.4891
  240SOL     OW  718   2.665   2.248   0.861 -0.2770  0.2874 -0.1432
  240SOL    HW1  719   2.583   2.202   0.900 -0.0173 -0.0718  0.4728
  240SOL    HW2  720   2.699   2.208   0.774  1.1458  0.0602 -2.6123
  241SOL     OW  721   1.224   1.546   0.751  0.3646  0.2657 -0.0321
  241SOL    HW1  722   1.266   1.538   0.657 -0.5886 -0.7446  2.2977
  241SOL    HW2  723   1.122   1.564   0.752  0.4376  0.4981 -0.7787
  242SOL     OW  724   0.921   0.619   0.917  0.3636 -1.0691  0.1602
  242SOL    HW1  725   0.821   0.618   0.883 -1.9167 -0.5292 -0.5828
  242SOL    HW2  726   0.986   0.589   0.845 -1.7008  1.4640  1.3588
  243SOL     OW  727   0.388   0.565   1.132  0.1530  0.0623 -0.5789
  243SOL    HW1  728   0.345   0.471   1.152  0.7991 -0.6495  1.2259
  243SOL    HW2  729   0.319   0.629   1.094  0.6858  0.5595 -0.7836
  244SOL     OW  730   0.930   0.184   0.488 -0.4567  0.5753 -0.1331
  244SOL    HW1  731   0.907   0.100   0.543 -1.9980 -0.3761  0.1649
  244SOL    HW2  732   0.892   0.265   0.535  2.0543 -0.0441  0.3422
  245SOL     OW  733   1.984   0.950   0.395  0.3938 -0.0695 -0.6586
  245SOL    HW1  734   2.028   0.981   0.477 -2.6914  1.7820  0.1423
  245SOL    HW2  735   1.987   1.018   0.321  1.9571  2.8083  2.0820
  246SOL     OW  736   0.345   0.014   1.816 -0.0669 -0.6962 -0.2408
  246SOL    HW1  737   0.381   3.002   1.779  2.1011 -1.6597  0.0234
  246SOL    HW2  738   0.242   0.021   1.808  2.4328 -1.4580 -1.8813
  247SOL     OW  739   0.787   0.047   1.849  0.2333 -0.1635  0.8868
  247SOL    HW1  740   0.822   0.120   1.790  2.1390 -0.4046 -0.7505
  247SOL    HW2  741   0.858   0.023   1.922  0.6610  0.5416  0.5318
  248SOL     OW  742   0.409   1.785   2.004  0.1257  0.0253  0.6564
  248SOL    HW1  743   0.407   1.797   2.104  0.6469  0.3682  0.8115
  248SOL    HW2  744   0.359   1.860   1.959  1.8994  0.1783 -1.5406
  249SOL     OW  745   0.598   2.315   0.219  0.1021 -0.0658  0.0865
  249SOL    HW1  746   0.634   2.408   0.214 -1.2692  0.3775  0.1459
  249SOL    HW2  747   0.543   2.288   0.138 -1.0701  2.4363 -1.9092
  250SOL     OW  748   0.661   0.046   2.180 -0.4982 -0.3408  0.5009
  250SOL    HW1  749   0.565   0.022   2.213 -0.4630 -1.3028  1.0255
  250SOL    HW2  750   0.670   0.132   2.130  2.2043 -0.5848  1.0984
  251SOL     OW  751   2.848   1.881   1.572 -0.3442  0.6640 -0.2880
  251SOL    HW1  752   2.821   1.782   1.584  0.2676 -1.3809 -2.7727
  251SOL    HW2  753   2.781   1.946   1.614 -0.0844  0.6911  1.5042
  252SOL     OW  754   1.190   0.239   1.829  0.0266  0.1858  0.1706
  252SOL    HW1  755   1.120   0.228   1.754 -1.9906  2.8802 -1.2904
  252SOL    HW2  756   1.223   0.149   1.862  1.0943  2.4521  0.6225
  253SOL     OW  757   2.187   1.974   2.368  0.2809 -0.0542 -0.7002
  253SOL    HW1  758   2.161   1.893   2.311 -1.5246 -0.5022 -0.9425
  253SOL    HW2  759   2.103   2.035   2.391 -1.9030  2.9278 -0.0938
  254SOL     OW  760   0.987   1.478   1.044  0.2338  0.3137 -0.6008
  254SOL    HW1  761   0.989   1.505   1.143  0.2798  1.1570  1.6730
  254SOL    HW2  762   0.983   1.562   0.987  1.1951  0.8179 -0.3611
  255SOL     OW  763   0.074   2.608   1.919 -0.4384  0.0500 -0.0466
  255SOL    HW1  764   3.055   2.575   1.924  1.0656  0.5613  0.9092
  255SOL    HW2  765   0.112   2.565   1.841  0.3783 -0.2838  2.8533
  256SOL     OW  766   0.442   2.635   0.482 -0.2803 -0.0693 -0.3792
  256SOL    HW1  767   0.500   2.702   0.435  0.8790  1.0722  1.0502
  256SOL    HW2  768   0.374   2.586   0.429 -1.9099  1.6872  2.7648
  257SOL     OW  769   1.110   2.525   2.420  0.1779  0.0209 -0.2367
  257SOL    HW1  770   1.162   2.608   2.454  2.8784 -0.3273  0.2341
  257SOL    HW2  771   1.159   2.478   2.340  1.3987  1.6343 -2.1090
  258SOL     OW  772   1.625   2.132   2.043  0.0633 -0.1359  0.1999
  258SOL    HW1  773   1.620   2.044   1.997  3.4100  1.0175  0.9695
  258SOL    HW2  774   1.697   2.191   1.996 -1.8460  0.3360 -0.9270
  259SOL     OW  775   0.701   0.606   1.973  0.3400 -0.3623  0.0549
  259SOL    HW1  776   0.616   0.588   1.916 -1.3537 -0.3320 -1.5694
  259SOL    HW2  777   0.688   0.673   2.048  0.1133  1.7990 -0.0541
  260SOL     OW  778   2.842   0.781   2.727  0.4779 -0.1419  0.2065
  260SOL    HW1  779   2.908   0.787   2.801 -1.3565 -0.6754  0.8203
  260SOL    HW2  780   2.888   0.778   2.634  0.4596 -4.2015 -0.8326
  261SOL     OW  781   0.825   1.306   0.913  0.2843  0.0467  0.6578
  261SOL    HW1  782   0.894   1.342   0.977 -1.6516 -1.1968  0.7469
  261SOL    HW2  783   0.840   1.336   0.816 -0.9924  1.4678 -0.9422
  262SOL     OW  784   1.975   2.142   2.446  0.1291 -1.1392 -0.0004
  262SOL    HW1  785   1.926   2.232   2.446  0.0079  0.3786 -2.6323
  262SOL    HW2  786   1.930   2.088   2.521  0.2711  1.0511 -0.2147
  263SOL     OW  787   0.716   2.799   1.032  0.2005  0.5455  0.3424
  263SOL    HW1  788   0.786   2.797   1.104  0.3432  2.1976  1.3099
  263SOL    HW2  789   0.657   2.714   1.032 -1.9109 -2.5010  2.6379
  264SOL     OW  790   2.835   2.039   0.508  0.3434 -0.0270  0.0670
  264SOL    HW1  791   2.845   2.130   0.553 -1.3193 -2.5793  0.6639
  264SOL    HW2  792   2.806   2.041   0.410 -0.2029  0.5417 -2.8187
  265SOL     OW  793   1.924   1.334   2.610 -0.2539 -0.0815 -0.1377
  265SOL    HW1  794   2.022   1.305   2.610  2.2291 -0.0054 -1.1587
  265SOL    HW2  795   1.913   1.414   2.551 -0.1816  0.2530 -4.3241
  266SOL     OW  796   1.588   1.869   1.957 -0.0615 -0.4237 -0.0768
  266SOL    HW1  797   1.665   1.803   1.970  0.2994  0.4092 -1.5723
  266SOL    HW2  798   1.508   1.842   2.014 -0.2625  0.9533  0.7581
  267SOL     OW  799   2.482   0.819   2.453  0.1870  0.4695 -0.4158
  267SOL    HW1  800   2.403   0.860   2.502 -0.2194 -0.8352 -0.6311
  267SOL    HW2  801   2.482   0.714   2.468 -1.2057 -0.8240  0.7535
  268SOL     OW  802   0.817   1.265   2.963  0.1265 -0.5669 -0.0839
  268SOL    HW1  803   0.805   1.368   2.962 -0.8072  1.8026  1.3888
  268SOL    HW2  804   0.813   1.219   2.872  0.3531  1.2761 -0.9256
  269SOL     OW  805   3.061   2.023   2.036  0.0535 -0.6978  0.4554
  269SOL    HW1  806   0.003   1.937   2.088  0.5684  2.7869  0.9612
  269SOL    HW2  807   2.969   2.018   2.003  1.6737 -1.5565 -0.0489
  270SOL     OW  808   3.077   1.823   0.112 -0.2905 -0.1333 -0.2629
  270SOL    HW1  809   0.001   1.899   0.177  0.4808 -1.1966  1.6265
  270SOL    HW2  810   3.029   1.742   0.158  1.8068  1.9225  4.9126
  271SOL     OW  811   0.272   0.179   0.388  0.4615 -0.2424 -0.3158
  271SOL    HW1  812   0.322   0.089   0.395 -0.3439  0.7380 -0.0316
  271SOL    HW2  813   0.336   0.256   0.421  2.5460  1.2597 -1.7824
  272SOL     OW  814   2.992   2.890   0.568  0.3352  0.0571 -0.1880
  272SOL    HW1  815   2.968   2.912   0.667 -1.9539 -0.7199 -0.0343
  272SOL    HW2  816   2.948   2.805   0.540 -0.2981  2.5005  0.9679
  273SOL     OW  817   0.199   2.861   1.955  0.0287  0.2987  0.0643
  273SOL    HW1  818   0.293   2.861   1.981 -2.3564 -1.1828 -0.7997
  273SOL    HW2  819   0.161   2.767   1.937  0.7319 -1.8804 -2.3243
  274SOL     OW  820   0.309   0.355   1.509 -0.3286  0.1560 -0.3253
  274SOL    HW1  821   0.321   0.330   1.412 -0.4672  1.7427 -0.8576
  274SOL    HW2  822   0.285   0.455   1.528 -0.6602  2.0451  2.7176
  275SOL     OW  823   1.292   1.780   0.919  0.0465 -0.6232  0.0781
  275SOL    HW1  824   1.387   1.816   0.944 -1.5700  2.9058  0.0986
  275SOL    HW2  825   1.301   1.716   0.841  1.1402 -1.2959 -0.5643
  276SOL     OW  826   0.535   1.614   1.847  0.0611  0.7110 -0.0741
  276SOL    HW1  827   0.475   1.675   1.904  0.5115 -0.8508  1.9408
  276SOL    HW2  828   0.585   1.547   1.907  4.7091 -1.0195  0.4225
  277SOL     OW  829   1.400   2.183   1.838  0.3410  0.1429  0.1588
  277SOL    HW1  830   1.384   2.273   1.786 -1.3498  4.5691 -0.0506
  277SOL    HW2  831   1.329   2.159   1.909 -0.6424 -1.9719  0.2793
  278SOL     OW  832   1.976   3.063   2.183  0.6979 -0.2099  0.1710
  278SOL    HW1  833   1.918   3.013   2.251 -1.5429  1.9969 -0.4384
  278SOL    HW2  834   1.941   0.079   2.168  2.3028 -2.1342 -0.8058
  279SOL     OW  835   1.392   1.381   2.875  0.1335 -0.5219 -0.6267
  279SOL    HW1  836   1.479   1.330   2.895 -0.3581 -2.2402  0.3090
  279SOL    HW2  837   1.406   1.472   2.834 -0.6834  0.5996  0.0696
  280SOL     OW  838   1.326   0.388   0.618  0.3668 -0.2371  0.2226
  280SOL    HW1  839   1.304   0.300   0.573 -0.7516 -1.9717  2.6256
  280SOL    HW2  840   1.242   0.427   0.661 -2.2419  0.6431 -0.6153
  281SOL     OW  841   0.070   0.475   2.272  0.2960 -0.0802  0.2376
  281SOL    HW1  842   0.109   0.434   2.183  0.9682  0.6944 -5.1134
  281SOL    HW2  843   0.137   0.448   2.343  1.4889  2.7770  0.4119
  282SOL     OW  844   0.217   2.781   0.649 -0.6812  0.0281 -0.0929
  282SOL    HW1  845   0.119   2.790   0.624 -0.7473 -0.4471  2.2187
  282SOL    HW2  846   0.276   2.739   0.576 -2.5072 -1.3158 -1.3764
  283SOL     OW  847   1.351   2.316   1.552 -0.5096 -0.2964 -0.2839
  283SOL    HW1  848   1.349   2.359   1.461  0.9614 -4.6378 -2.0388
  283SOL    HW2  849   1.407   2.232   1.531  0.5803  1.3116 -1.7681
  284SOL     OW  850   2.123   2.763   1.494  0.6656  0.0489  0.3278
  284SOL    HW1  851   2.144   2.738   1.590 -1.7243 -0.8116 -0.4967
  284SOL    HW2  852   2.081   2.682   1.448  2.0837  1.4776 -0.1585
  285SOL     OW  853   0.867   1.970   0.865  0.5520  0.2022  0.0767
  285SOL    HW1  854   0.949   2.015   0.830 -1.9417 -2.2678 -0.4454
  285SOL    HW2  855   0.851   1.882   0.818  1.7373 -1.5672 -0.2042
  286SOL     OW  856   2.899   2.526   1.943  0.1725  0.1215 -0.1851
  286SOL    HW1  857   2.816   2.574   1.980  2.1560 -1.6269  2.1108
  286SOL    HW2  858   2.872   2.435   1.904 -0.8027 -0.6471 -3.0015
  287SOL     OW  859   0.546   1.288   0.937  0.0913 -0.2032 -0.1937
  287SOL    HW1  860   0.643   1.318   0.940 -3.0295 -0.3004  3.1709
  287SOL    HW2  861   0.539   1.207   0.874 -2.3343 -3.6687  0.0859
  288SOL     OW  862   1.277   2.142   2.716  0.1374  0.4140 -0.1192
  288SOL    HW1  863   1.227   2.197   2.644 -0.2978 -0.7805  3.1530
  288SOL    HW2  864   1.222   2.067   2.753 -0.4310  3.5313  2.4841
  289SOL     OW  865   2.349   1.244   2.641 -0.1115  0.1617  0.2208
  289SOL    HW1  866   2.314   1.218   2.736 -0.7631 -0.3127  2.4234
  289SOL    HW2  867   2.287   1.314   2.603  1.0766  0.8915  0.0692
  290SOL     OW  868   1.696   1.641   0.924  0.7241 -0.7447  0.5260
  290SOL    HW1  869   1.667   1.628   0.827  0.2229  3.2473 -0.8440
  290SOL    HW2  870   1.636   1.714   0.968 -0.3012  1.0593  1.6382
  291SOL     OW  871   1.021   0.816   0.100 -0.3431  0.3541 -0.2794
  291SOL    HW1  872   1.057   0.810   0.004 -3.1859 -1.2084  0.0121
  291SOL    HW2  873   1.031   0.723   0.142 -1.0057 -1.2029 -2.3722
  292SOL     OW  874   1.881   1.669   0.553 -0.0381  0.3592 -0.4227
  292SOL    HW1  875   1.864   1.593   0.486  0.0914 -2.7201 -0.9083
  292SOL    HW2  876   1.977   1.674   0.582 -0.4434 -1.2596  2.5734
  293SOL     OW  877   1.655   0.012   1.181 -0.5642 -0.0285 -0.2185
  293SOL    HW1  878   1.733   0.020   1.249  1.0178 -1.9820 -0.2489
  293SOL    HW2  879   1.602   0.098   1.171  1.5472  0.2102  2.8884
  294SOL     OW  880   2.261   0.918   0.154 -0.7934  0.6986  0.9971
  294SOL    HW1  881   2.318   0.949   0.081 -0.5932 -1.2997  5.3228
  294SOL    HW2  882   2.217   1.002   0.177  2.9432 -1.9087 -1.0607
  295SOL     OW  883   2.033   1.762   2.716  0.0473 -0.1537  0.0335
  295SOL    HW1  884   1.939   1.807   2.719 -2.8878  1.7655 -1.1965
  295SOL    HW2  885   2.097   1.842   2.712 -2.9033 -0.9042  0.1847
  296SOL     OW  886   1.502   1.558   1.215  0.3932 -0.0615  0.6029
  296SOL    HW1  887   1.477   1.521   1.119 -2.4539 -1.0680 -0.8176
  296SOL    HW2  888   1.487   1.659   1.226 -0.5203  0.8507  2.9732
  297SOL     OW  889   0.525   0.732   2.633 -0.8760 -0.3921  0.5597
  297SOL    HW1  890   0.449   0.664   2.639  0.9948 -0.5708 -2.6727
  297SOL    HW2  891   0.518   0.815   2.691  2.5580 -0.8240 -0.3179
  298SOL     OW  892   1.392   2.768   1.453 -0.5532  0.3426  0.8289
  298SOL    HW1  893   1.451   2.778   1.536 -0.9739 -1.6134  0.1788
  298SOL    HW2  894   1.447   2.791   1.367  3.4439 -0.0851  0.1982
  299SOL     OW  895   1.172   0.345   2.769 -0.0301  0.0493 -0.4232
  299SOL    HW1  896   1.132   0.429   2.807  0.2621  3.4871  0.5479
  299SOL    HW2  897   1.116   0.263   2.786  0.7426 -1.4766 -0.7831
  300SOL     OW  898   1.920   1.354   0.080 -0.7103 -0.4820 -0.5327
  300SOL    HW1  899   1.820   1.335   0.074  1.5321  0.9512 -0.4767
  300SOL    HW2  900   1.948   1.392   3.067  0.4830  1.1466 -1.4475
  301SOL     OW  901   2.371   0.567   2.451  0.1719  0.2216  0.4275
  301SOL    HW1  902   2.406   0.478   2.411  1.4933 -1.2766  0.1043
  301SOL    HW2  903   2.393   0.585   2.545 -1.0200 -2.9171 -4.5144
  302SOL     OW  904   2.432   1.590   2.584 -0.4237 -0.1219  0.2251
  302SOL    HW1  905   2.534   1.577   2.578  2.8829  0.1494  0.0472
  302SOL    HW2  906   2.406   1.687   2.563  2.0896  0.3840 -3.2042
  303SOL     OW  907   0.296   2.542   2.293  0.4543  0.2476 -0.0779
  303SOL    HW1  908   0.242   2.491   2.224 -0.2417  3.5510  0.1126
  303SOL    HW2  909   0.246   2.599   2.358  1.5535 -3.5328 -0.6404
  304SOL     OW  910   0.126   1.451   1.080  0.1518  0.0300 -0.1610
  304SOL    HW1  911   0.176   1.526   1.030 -1.2492  2.0819 -1.4426
  304SOL    HW2  912   0.125   1.369   1.022  0.0391 -1.4956  2.1985
  305SOL     OW  913   3.063   0.154   2.128 -0.0396 -0.0660  0.1081
  305SOL    HW1  914   2.978   0.198   2.125  3.6404 -1.0036 -1.4773
  305SOL    HW2  915   0.014   0.113   2.219  0.8700 -0.8651  1.0573
  306SOL     OW  916   1.331   1.537   0.512  0.0113  0.0277 -0.2985
  306SOL    HW1  917   1.350   1.439   0.495 -0.4149 -0.6649  0.9077
  306SOL    HW2  918   1.392   1.594   0.449 -0.4675 -0.6180 -1.9802
  307SOL     OW  919   3.001   0.152   1.223  0.2275 -0.0461  0.0616
  307SOL    HW1  920   3.062   0.129   1.303 -2.4756 -0.9912  2.6668
  307SOL    HW2  921   2.961   0.241   1.226  1.0615 -1.2855 -2.6618
  308SOL     OW  922   2.709   1.790   2.694 -0.3114  0.1421 -0.5994
  308SOL    HW1  923   2.714   1.691   2.662  1.3529  1.0901  0.3349
  308SOL    HW2  924   2.641   1.843   2.640 -0.7582 -0.0135 -2.1658
  309SOL     OW  925   0.002   1.844   2.717  0.4654  0.4942  0.2076
  309SOL    HW1  926   0.090   1.835   2.671 -1.2382  2.1423  2.9500
  309SOL    HW2  927   3.019   1.895   2.653 -0.4327 -1.3778  0.6649
  310SOL     OW  928   2.462   0.389   0.105  0.0389 -0.5613  0.0109
  310SOL    HW1  929   2.465   0.479   0.051 -1.5786  1.9469 -1.5287
  310SOL    HW2  930   2.420   0.394   0.200  0.1390  0.8569  0.6048
  311SOL     OW  931   1.948   1.157   2.870  0.2961  0.1135  0.4324
  311SOL    HW1  932   1.863   1.156   2.806 -0.5271  1.5153  0.1393
  311SOL    HW2  933   1.916   1.107   2.952 -0.6937 -0.1612 -2.9942
  312SOL     OW  934   1.144   1.167   2.128  0.0818 -0.2863 -0.5464
  312SOL    HW1  935   1.119   1.213   2.039 -1.9281  0.5176  3.1284
  312SOL    HW2  936   1.079   1.087   2.137 -1.2235  0.7892  1.8966
  313SOL     OW  937   0.230   0.216   0.113  0.2173  0.2369 -0.1044
  313SOL    HW1  938   0.126   0.200   0.105  1.0404 -1.2561  0.4637
  313SOL    HW2  939   0.247   0.231   0.215  0.4412  0.2315 -2.1122
  314SOL     OW  940   0.597   1.942   1.466 -0.6926  0.2494 -0.0943
  314SOL    HW1  941   0.566   1.858   1.414  1.3299 -1.2219 -0.0998
  314SOL    HW2  942   0.697   1.966   1.454  0.9179  0.8080  0.2008
  315SOL     OW  943   1.411   1.845   1.286 -1.0916  0.0710  0.0765
  315SOL    HW1  944   1.411   1.794   1.374  0.8333  1.7978 -1.1225
  315SOL    HW2  945   1.328   1.836   1.230  1.5510  1.0477  1.2770
  316SOL     OW  946   0.206   2.312   0.518  0.2363  0.0767  0.5666
  316SOL    HW1  947   0.212   2.341   0.614  3.3257 -0.8856  0.8572
  316SOL    HW2  948   0.284   2.254   0.489  0.9933 -0.8710 -1.7046
  317SOL     OW  949   2.630   0.358   1.080 -0.0429  0.2757  0.1153
  317SOL    HW1  950   2.617   0.398   1.172 -0.8137  2.0514 -1.6854
  317SOL    HW2  951   2.609   0.259   1.080  0.5113  4.3335 -0.4285
  318SOL     OW  952   1.303   2.576   0.180 -0.4970 -0.4395  0.2512
  318SOL    HW1  953   1.340   2.671   0.205  0.6643  3.1285 -0.8184
  318SOL    HW2  954   1.209   2.585   0.145  1.1870 -2.2647 -0.8114
  319SOL     OW  955   1.398   0.172   3.019 -0.8846 -0.7605  0.0605
  319SOL    HW1  956   1.315   0.111   3.006  0.2922  0.4101  1.7984
  319SOL    HW2  957   1.461   0.164   2.937 -1.1958  2.4027  0.0611
  320SOL     OW  958   2.560   1.953   1.922 -0.0914  0.0312  0.1028
  320SOL    HW1  959   2.463   1.993   1.914 -1.4035  3.7953  0.9859
  320SOL    HW2  960   2.561   1.850   1.896 -0.6383 -0.6863 -1.2190
  321SOL     OW  961   0.211   2.511   2.909  0.3769  0.2144 -0.1085
  321SOL    HW1  962   0.146   2.551   2.840 -1.2034  0.3395 -2.4833
  321SOL    HW2  963   0.165   2.453   2.980  0.6598  0.1641 -0.7347
  322SOL     OW  964   2.586   0.940   1.601 -0.2571  0.1055 -0.0706
  322SOL    HW1  965   2.486   0.937   1.636  1.3304  2.4183  1.3266
  322SOL    HW2  966   2.598   1.019   1.539 -2.5727 -1.0533  1.6589
  323SOL     OW  967   1.618   1.310   0.116 -0.0753  0.5887  0.3009
  323SOL    HW1  968   1.543   1.342   0.184  0.2021 -0.5573  1.0353
  323SOL    HW2  969   1.663   1.225   0.155  0.0242 -2.4807 -0.7125
  324SOL     OW  970   3.044   0.451   1.496 -0.0539 -0.9533  0.2158
  324SOL    HW1  971   0.065   0.477   1.482  1.6574  1.1961 -4.4501
  324SOL    HW2  972   3.028   0.404   1.587  0.0196 -0.9112  2.4551
  325SOL     OW  973   2.744   3.018   1.255 -0.0802 -0.1094 -0.4369
  325SOL    HW1  974   2.669   2.947   1.253 -1.1190  0.1752  0.9653
  325SOL    HW2  975   2.712   0.018   1.317 -0.6114  0.4107  3.0644
  326SOL     OW  976   1.676   2.647   0.399 -0.5607 -0.0708  1.0396
  326SOL    HW1  977   1.656   2.700   0.310  0.3928  1.6885  2.0305
  326SOL    HW2  978   1.615   2.664   0.481 -0.3747 -0.7309  0.7909
  327SOL     OW  979   2.290   2.215   0.323  0.4307 -0.3239  0.6502
  327SOL    HW1  980   2.186   2.222   0.317 -0.6653  0.2377 -0.0517
  327SOL    HW2  981   2.328   2.310   0.296  1.2810  4.1212  1.4115
  328SOL     OW  982   2.583   2.450   1.829 -0.3660 -0.3212  0.3127
  328SOL    HW1  983   2.556   2.520   1.763  0.5949 -0.1416  0.9584
  328SOL    HW2  984   2.621   2.491   1.914  0.5922  0.0559  0.8790
  329SOL     OW  985   0.043   2.096   0.821  0.2757  0.0993  0.7041
  329SOL    HW1  986   0.028   2.187   0.867 -2.2314 -0.5309  1.9057
  329SOL    HW2  987   0.120   2.055   0.876  1.1765 -1.8780 -0.4975
  330SOL     OW  988   2.176   1.079   2.003 -0.1482  0.1145  0.4588
  330SOL    HW1  989   2.100   1.057   1.938 -0.8547 -1.6180  0.0355
  330SOL    HW2  990   2.150   1.117   2.094 -0.0627  0.6208 -0.1843
  331SOL     OW  991   2.166   1.656   0.607  0.4633 -0.4041  0.0813
  331SOL    HW1  992   2.232   1.661   0.682  0.7645 -2.6850  1.4823
  331SOL    HW2  993   2.174   1.563   0.562 -0.0717 -2.8034 -0.9655
  332SOL     OW  994   0.130   2.897   1.543 -0.2595 -0.2345 -0.2874
  332SOL    HW1  995   0.032   2.875   1.565  1.6660 -0.1343 -0.7286
  332SOL    HW2  996   0.121   2.987   1.499 -1.6290 -2.3954  1.2416
  333SOL     OW  997   0.168   1.645   1.911  0.6596 -0.7823  0.1109
  333SOL    HW1  998   0.236   1.720   1.921  0.1809 -1.2831 -1.3620
  333SOL    HW2  999   0.130   1.633   1.819  1.0441 -0.9084  3.3743
  334SOL     OW 1000   0.324   0.785   1.361  0.2019 -0.2904  0.1056
  334SOL    HW1 1001   0.258   0.847   1.311 -0.5155 -0.7488  1.5207
  334SOL    HW2 1002   0.347   0.710   1.298  0.4346  0.5347  1.3360
  335SOL     OW 1003   2.819   1.625   1.674 -0.4518  0.1426  0.7436
  335SOL    HW1 1004   2.847   1.564   1.599  1.4322 -0.6314 -0.6662
  335SOL    HW2 1005   2.890   1.622   1.748  0.8605  0.6373 -1.4865
  336SOL     OW 1006   1.932   2.999   2.888  0.5995  0.2054 -0.1733
  336SOL    HW1 1007   1.850   2.938   2.911 -0.4663 -1.2229  0.6157
  336SOL    HW2 1008   2.019   2.957   2.919  1.0372 -0.6073  0.8864
  337SOL     OW 1009   0.639   0.515   1.225 -0.1188  0.2393  0.2157
  337SOL    HW1 1010   0.672   0.609   1.219 -2.6293  0.6068  0.4462
  337SOL    HW2 1011   0.537   0.515   1.212 -0.6088 -1.4322  2.4702
  338SOL     OW 1012   1.550   2.228   0.732 -0.6825  0.6164 -0.4020
  338SOL    HW1 1013   1.573   2.223   0.632 -1.9849 -0.3498 -2.2342
  338SOL    HW2 1014   1.640   2.216   0.781  1.0763  0.7245 -2.4427
  339SOL     OW 1015   0.216   1.990   1.007 -0.9190  0.1456  0.2860
  339SOL    HW1 1016   0.180   2.024   1.095  0.2949  0.9350 -1.4741
  339SOL    HW2 1017   0.309   2.033   0.985 -0.1290  1.2371 -1.2610
  340SOL     OW 1018   0.415   0.018   2.246 -0.2067  0.1328  0.5639
  340SOL    HW1 1019   0.370   0.069   2.173  0.9658 -1.3444  1.3519
  340SOL    HW2 1020   0.382   2.998   2.239  1.4711 -1.7793  0.5355
  341SOL     OW 1021   2.221   1.431   0.890  0.0870  0.4713 -0.4033
  341SOL    HW1 1022   2.117   1.438   0.879 -2.9565  0.6843  1.7894
  341SOL    HW2 1023   2.271   1.515   0.873 -1.1118 -0.9294 -0.2959
  342SOL     OW 1024   1.797   1.917   0.536 -0.0161  0.2309  0.2850
  342SOL    HW1 1025   1.815   1.821   0.554 -3.7804  0.2180  0.9947
  342SOL    HW2 1026   1.873   1.968   0.483  2.7916 -0.7106 -1.5088
  343SOL     OW 1027   1.990   0.141   0.719  0.1739  0.4855 -0.1936
  343SOL    HW1 1028   1.978   0.040   0.714  0.6838  0.1716 -1.2772
  343SOL    HW2 1029   2.088   0.171   0.697  0.8113 -1.1025  0.2769
  344SOL     OW 1030   2.617   0.224   2.735 -0.4263  0.6807 -0.1813
  344SOL    HW1 1031   2.616   0.323   2.745  0.7321 -3.5650  1.8831
  344SOL    HW2 1032   2.615   0.202   2.635  1.7786  0.3601 -1.5910
  345SOL     OW 1033   1.208   2.604   1.156  0.3749  0.0816 -0.3806
  345SOL    HW1 1034   1.161   2.675   1.211 -0.8617 -0.9833 -0.0521
  345SOL    HW2 1035   1.126   2.549   1.116  0.4303 -1.2432 -3.0371
  346SOL     OW 1036   2.255   2.228   1.634 -0.5206  0.1026  0.1095
  346SOL    HW1 1037   2.152   2.223   1.643 -0.7258 -0.7820  0.2962
  346SOL    HW2 1038   2.281   2.187   1.542 -1.2641 -2.1193 -0.6001
  347SOL     OW 1039   2.440   2.945   0.885  0.1012 -0.0596 -0.0096
  347SOL    HW1 1040   2.498   2.861   0.876  2.1262  0.2082 -1.1157
  347SOL    HW2 1041   2.505   3.022   0.892  1.6688  1.1701  1.0144
  348SOL     OW 1042   0.879   0.981   1.221 -0.3752 -0.2792 -0.3894
  348SOL    HW1 1043   0.889   0.922   1.306  1.1510  1.7802  0.9260
  348SOL    HW2 1044   0.897   1.081   1.243 -1.2462 -2.1033 -0.5292
  349SOL     OW 1045   2.271   0.151   0.009  0.3453  0.2292 -0.0500
  349SOL    HW1 1046   2.364   0.188   0.019 -0.0130 -0.5332  0.8929
  349SOL    HW2 1047   2.265   0.110   2.992  1.2421  0.3738 -0.3970
  350SOL     OW 1048   2.513   2.070   3.075  0.0698 -0.1945  0.1074
  350SOL    HW1 1049   2.514   1.991   3.006 -0.3145 -1.4766  0.2366
  350SOL    HW2 1050   2.507   2.157   3.025  2.3300 -0.2091 -0.2627
  351SOL     OW 1051   1.069   0.441   0.721  0.1238 -0.2942 -0.1292
  351SOL    HW1 1052   1.073   0.368   0.794 -0.9938  0.2703  2.4190
  351SOL    HW2 1053   0.989   0.429   0.660  0.8268  1.0501  1.1759
  352SOL     OW 1054   2.129   2.469   2.671 -0.0923  0.2255 -0.2551
  352SOL    HW1 1055   2.159   2.543   2.728  2.2665 -4.1371 -0.5483
  352SOL    HW2 1056   2.134   2.504   2.575 -1.9389  1.6109 -2.0997
  353SOL     OW 1057   0.562   0.527   3.076  0.1669  0.0387  0.2070
  353SOL    HW1 1058   0.560   0.489   0.094 -0.5887 -2.1771  1.7420
  353SOL    HW2 1059   0.472   0.568   3.057  0.6518  1.2387 -1.5165
  354SOL     OW 1060   0.951   1.921   3.043 -0.6613 -0.0475 -0.5965
  354SOL    HW1 1061   0.988   1.923   2.947 -0.6933 -0.8630  0.9085
  354SOL    HW2 1062   1.009   1.858   0.020  1.5634  3.5263  0.5590
  355SOL     OW 1063   2.696   2.773   1.702 -0.3553  0.0640 -0.2089
  355SOL    HW1 1064   2.716   2.861   1.749  0.8561 -1.6156 -1.9974
  355SOL    HW2 1065   2.595   2.769   1.685  0.4732 -0.1252  1.3903
  356SOL     OW 1066   0.013   0.936   0.445  0.4945 -0.8642  0.7058
  356SOL    HW1 1067   3.071   1.018   0.501 -0.2845 -2.2235 -2.4155
  356SOL    HW2 1068   3.016   0.861   0.453 -1.7234 -1.4773  0.6429
  357SOL     OW 1069   2.341   0.432   1.051 -0.1631 -0.1062  0.8628
  357SOL    HW1 1070   2.347   0.516   0.993 -0.6705 -1.2447 -2.3137
  357SOL    HW2 1071   2.427   0.411   1.108  3.1867 -3.7165  1.8778
  358SOL     OW 1072   1.004   2.479   1.020  0.1546 -0.6587 -0.0291
  358SOL    HW1 1073   1.054   2.403   0.980  1.7848  2.3317 -2.1035
  358SOL    HW2 1074   0.988   2.544   0.944 -1.6661 -0.2680 -0.4603
  359SOL     OW 1075   3.002   2.333   2.780  0.4139  0.2267 -0.0677
  359SOL    HW1 1076   3.040   2.242   2.761 -1.1033 -0.1572  0.8112
  359SOL    HW2 1077   2.921   2.319   2.840 -0.5751 -3.6239 -2.0607
  360SOL     OW 1078   0.506   1.012   1.909  0.3276  0.5384 -0.1404
  360SOL    HW1 1079   0.588   0.967   1.874 -0.6222  4.5092  3.1450
  360SOL    HW2 1080   0.428   0.988   1.845 -4.5754  1.6760 -1.6598
  361SOL     OW 1081   2.353   2.827   0.638  0.3751 -0.0269 -0.8477
  361SOL    HW1 1082   2.273   2.851   0.579 -1.7087 -2.3225  0.1676
  361SOL    HW2 1083   2.362   2.898   0.710  1.9441 -4.9196 -0.7079
  362SOL     OW 1084   3.051   0.060   0.962 -0.4471 -0.3094 -0.0829
  362SOL    HW1 1085   3.021   3.053   0.921  0.9842 -0.3238 -0.1206
  362SOL    HW2 1086   3.028   0.070   1.060  2.9342 -0.3799 -0.0273
  363SOL     OW 1087   0.615   1.351   0.493  0.2100 -0.4158  0.0652
  363SOL    HW1 1088   0.649   1.335   0.393 -0.7878 -1.5139 -0.9408
  363SOL    HW2 1089   0.516   1.330   0.509  2.1604 -0.6749  2.0222
  364SOL     OW 1090   0.718   1.454   1.471 -0.5404  0.1036 -0.2680
  364SOL    HW1 1091   0.722   1.391   1.554  1.2634 -0.4513  3.2589
  364SOL    HW2 1092   0.679   1.540   1.507  0.2081 -0.7814  2.0759
  365SOL     OW 1093   2.295   1.241   0.352  0.4128 -0.4389  0.1264
  365SOL    HW1 1094   2.324   1.175   0.427 -2.1689 -0.0099 -2.1052
  365SOL    HW2 1095   2.369   1.274   0.297 -3.4572  0.7503  2.3939
  366SOL     OW 1096   2.865   1.603   1.083 -0.7038  0.3664  0.2632
  366SOL    HW1 1097   2.922   1.679   1.045 -1.3550 -2.1946  0.9311
  366SOL    HW2 1098   2.893   1.589   1.180 -1.1749  0.0491 -0.5947
  367SOL     OW 1099   2.140   1.974   1.867 -0.4210 -0.3638 -0.2049
  367SOL    HW1 1100   2.110   1.885   1.907 -1.3837  0.6182  3.3080
  367SOL    HW2 1101   2.160   2.042   1.938  1.6560  1.2701  0.6453
  368SOL     OW 1102   2.577   1.152   1.333  0.9803  0.4682  0.1994
  368SOL    HW1 1103   2.580   1.218   1.405  1.5486 -0.9214 -0.3474
  368SOL    HW2 1104   2.666   1.102   1.321 -1.5022  0.2226  1.9894
  369SOL     OW 1105   2.433   2.695   3.047 -0.0981 -0.3215  0.2221
  369SOL    HW1 1106   2.432   2.713   0.072 -0.5876 -2.6088  2.3560
  369SOL    HW2 1107   2.472   2.775   3.000 -1.3778 -0.2267 -1.5111
  370SOL     OW 1108   2.928   2.853   1.507 -0.4104 -0.1578 -0.1195
  370SOL    HW1 1109   2.867   2.801   1.569 -0.0872  0.0486 -0.3159
  370SOL    HW2 1110   2.902   2.835   1.410  0.4481  0.2489 -0.6639
  371SOL     OW 1111   0.786   1.663   2.411  0.6293 -0.0209 -0.1572
  371SOL    HW1 1112   0.687   1.686   2.421  1.9854 -1.5180  3.5923
  371SOL    HW2 1113   0.807   1.597   2.337 -1.7709 -0.4671  1.3140
  372SOL     OW 1114   0.641   1.165   0.298  0.1037 -0.4528  0.8055
  372SOL    HW1 1115   0.708   1.109   0.353  0.0167 -2.9623 -0.0814
  372SOL    HW2 1116   0.649   1.143   0.200  2.3543 -0.2443  0.0733
  373SOL     OW 1117   1.582   2.630   2.883 -0.7063 -0.3178 -0.5528
  373SOL    HW1 1118   1.589   2.585   2.975  0.1982  0.7505 -1.1518
  373SOL    HW2 1119   1.505   2.602   2.823  1.2456  2.5625 -1.2906
  374SOL     OW 1120   0.273   1.711   0.163 -0.0784 -0.2524 -0.4443
  374SOL    HW1 1121   0.313   1.791   0.122 -0.9762 -0.0618 -0.5173
  374SOL    HW2 1122   0.178   1.708   0.136  3.0737 -1.3682 -2.6474
  375SOL     OW 1123   1.056   1.453   1.584  0.2274  0.7733  0.7118
  375SOL    HW1 1124   1.083   1.439   1.485 -2.8897 -0.6513 -3.2254
  375SOL    HW2 1125   0.983   1.386   1.614 -1.0166 -0.5889  0.3302
  376SOL     OW 1126   0.760   2.453   1.525  0.2080  0.2965 -0.0683
  376SOL    HW1 1127   0.682   2.470   1.462  0.3999  1.6613  2.1461
  376SOL    HW2 1128   0.737   2.502   1.610  1.6996 -0.2347 -1.5359
  377SOL     OW 1129   2.444   1.593   2.203  0.2458  0.7320  0.1224
  377SOL    HW1 1130   2.353   1.549   2.207  1.4703  0.8925 -0.0160
  377SOL    HW2 1131   2.504   1.534   2.257 -0.1028  0.9430 -1.8136
  378SOL     OW 1132   0.896   2.894   2.910 -1.0317 -0.2352 -0.0568
  378SOL    HW1 1133   0.799   2.885   2.911  1.6943 -0.9940 -0.4658
  378SOL    HW2 1134   0.934   2.919   3.002 -1.7249  2.1155 -0.4076
  379SOL     OW 1135   1.805   0.525   0.734 -0.0633 -0.6958 -0.2141
  379SOL    HW1 1136   1.825   0.623   0.750 -2.1593 -3.2876  1.2419
  379SOL    HW2 1137   1.756   0.513   0.645  2.6273  0.3916  0.5610
  380SOL     OW 1138   2.959   1.913   1.315  0.1199 -0.2412 -0.1810
  380SOL    HW1 1139   2.940   1.899   1.413 -0.0439 -0.9353 -1.0823
  380SOL    HW2 1140   2.872   1.941   1.266 -0.2137 -1.1826 -1.2111
  381SOL     OW 1141   1.659   1.721   1.692  0.3047  0.1825  0.5865
  381SOL    HW1 1142   1.647   1.769   1.785 -1.2773  3.7318  3.2218
  381SOL    HW2 1143   1.699   1.784   1.622 -0.5000  3.2977 -1.6443
  382SOL     OW 1144   2.915   0.388   2.947  0.2971 -0.0921 -0.0957
  382SOL    HW1 1145   2.952   0.312   2.890 -0.3972  0.1965  3.6790
  382SOL    HW2 1146   2.897   0.473   2.895  1.2392  0.4686 -0.0400
  383SOL     OW 1147   1.740   1.129   2.658  0.4650 -0.5765  0.2931
  383SOL    HW1 1148   1.643   1.168   2.656  0.7618  1.5767  4.0326
  383SOL    HW2 1149   1.810   1.198   2.637 -0.2575 -2.4106  1.8058
  384SOL     OW 1150   1.247   2.201   1.140  0.2696 -0.4435  0.6667
  384SOL    HW1 1151   1.258   2.121   1.075  2.1866  0.2344  0.5913
  384SOL    HW2 1152   1.151   2.206   1.172 -1.7317 -0.4573 -1.9757
  385SOL     OW 1153   1.986   2.286   0.708 -1.0022 -0.4999  0.1997
  385SOL    HW1 1154   1.973   2.288   0.609 -0.5564  1.2101 -0.1534
  385SOL    HW2 1155   1.901   2.255   0.756  0.1325 -0.6049 -0.3899
  386SOL     OW 1156   2.074   2.010   1.045  0.3863  0.5315 -0.3332
  386SOL    HW1 1157   2.101   2.097   1.001 -0.0139 -0.6668 -2.0870
  386SOL    HW2 1158   2.083   2.024   1.144 -1.6351  0.7225 -3.9893
  387SOL     OW 1159   0.495   2.200   1.399 -1.0512  0.2638  0.1171
  387SOL    HW1 1160   0.488   2.115   1.457 -0.6401  1.3538  0.2885
  387SOL    HW2 1161   0.565   2.191   1.325  1.6675  0.5840  1.8663
  388SOL     OW 1162   3.056   0.705   1.975  0.6283 -0.5289  0.0894
  388SOL    HW1 1163   3.026   0.608   1.989 -0.5163 -2.2800 -2.6095
  388SOL    HW2 1164   0.049   0.723   2.045 -1.6587 -2.5333 -1.1167
  389SOL     OW 1165   1.815   1.173   0.834  0.4327 -0.0991  0.4329
  389SOL    HW1 1166   1.753   1.245   0.867 -0.7077 -2.0010 -0.1468
  389SOL    HW2 1167   1.764   1.084   0.818  1.3538  0.0386  0.4047
  390SOL     OW 1168   0.927   2.113   2.451  0.2185 -0.2716  0.1349
  390SOL    HW1 1169   0.862   2.135   2.374  2.5114  0.5426  0.5486
  390SOL    HW2 1170   0.894   2.138   2.544  2.3306 -0.1827  0.9438
  391SOL     OW 1171   0.895   1.896   2.632 -0.0608 -0.0730 -0.3282
  391SOL    HW1 1172   0.820   1.834   2.615  2.6069  0.2079 -3.6123
  391SOL    HW2 1173   0.905   1.961   2.550  0.2956  3.1054 -4.7310
  392SOL     OW 1174   2.914   2.837   2.012 -0.4347  0.2511  0.2953
  392SOL    HW1 1175   2.911   2.890   1.926  0.7763  1.5896 -0.2038
  392SOL    HW2 1176   2.931   2.736   1.989  1.2861  1.6319  1.1663
  393SOL     OW 1177   1.961   2.677   0.389  0.3514  0.0764 -0.2828
  393SOL    HW1 1178   1.863   2.645   0.382 -0.3179  1.4170  0.2368
  393SOL    HW2 1179   2.002   2.638   0.475 -3.0272  0.4497  2.2274
  394SOL     OW 1180   0.716   0.606   2.499 -0.2365  0.3953 -0.2298
  394SOL    HW1 1181   0.647   0.660   2.551 -0.9949  0.1155  2.4120
  394SOL    HW2 1182   0.681   0.576   2.406  0.3865  0.8268  0.9814
  395SOL     OW 1183   0.659   1.173   1.369  0.8379 -0.6803 -0.1868
  395SOL    HW1 1184   0.653   1.083   1.406 -1.4674  1.1885 -0.6052
  395SOL    HW2 1185   0.753   1.194   1.335  0.3474  2.8911  0.8661
  396SOL     OW 1186   1.504   1.463   2.008  0.1246  0.3900 -0.6386
  396SOL    HW1 1187   1.502   1.362   1.982  1.1669  0.4992  1.1612
  396SOL    HW2 1188   1.541   1.478   2.102 -2.5983  0.6877  1.4096
  397SOL     OW 1189   1.005   0.564   2.827 -0.2376  0.0531 -0.5612
  397SOL    HW1 1190   0.940   0.555   2.907  2.3527 -0.8791  2.2002
  397SOL    HW2 1191   0.952   0.567   2.740  1.6908  0.9851 -1.1103
  398SOL     OW 1192   0.254   1.859   2.554  0.4003 -0.5663  0.1930
  398SOL    HW1 1193   0.321   1.905   2.618  2.3053 -2.4526  1.4500
  398SOL    HW2 1194   0.227   1.914   2.473 -2.1756  0.0043  2.1862
  399SOL     OW 1195   0.029   1.768   2.136 -0.1651  0.2052  0.5172
  399SOL    HW1 1196   0.068   1.721   2.216  3.6177  0.7108  0.4756
  399SOL    HW2 1197   0.056   1.712   2.051 -0.1025  0.0204 -1.6980
  400SOL     OW 1198   2.759   0.757   1.726 -0.2110 -0.4524  0.4421
  400SOL    HW1 1199   2.696   0.824   1.679 -0.4974  1.0863 -1.8963
  400SOL    HW2 1200   2.814   0.799   1.796 -1.8457 -1.5767  0.1379
  401SOL     OW 1201   1.049   1.584   0.428  0.3697  0.2777  0.3821
  401SOL    HW1 1202   1.009   1.549   0.337 -0.3226 -1.9134 -3.3648
  401SOL    HW2 1203   1.147   1.567   0.430 -3.9019  2.8619 -0.0497
  402SOL     OW 1204   0.125   2.424   2.111 -0.0240 -0.4141  0.1249
  402SOL    HW1 1205   0.108   2.505   2.049 -0.2422 -0.9482  3.0401
  402SOL    HW2 1206   0.137   2.338   2.059 -0.0245  0.3778  0.6124
  403SOL     OW 1207   0.423   1.404   2.111 -0.1228 -0.3064 -0.0409
  403SOL    HW1 1208   0.337   1.381   2.157  0.1651  0.6512  0.1844
  403SOL    HW2 1209   0.440   1.506   2.124  0.2186  2.6306  1.9754
  404SOL     OW 1210   1.818   1.986   1.569  0.0165 -0.2224 -0.2007
  404SOL    HW1 1211   1.768   2.070   1.544 -1.8274  1.2952 -3.1041
  404SOL    HW2 1212   1.847   1.938   1.484 -3.4385  1.2001  0.7543
  405SOL     OW 1213   2.741   2.520   2.657 -0.3441  0.6132  0.2981
  405SOL    HW1 1214   2.795   2.469   2.720  0.3625  3.7878 -1.0182
  405SOL    HW2 1215   2.709   2.610   2.693 -0.3922  1.4976 -0.5216
  406SOL     OW 1216   0.418   1.259   2.901 -0.1714 -0.0736 -0.0046
  406SOL    HW1 1217   0.477   1.199   2.965  2.2178 -1.7911  3.8024
  406SOL    HW2 1218   0.472   1.339   2.867 -2.0542 -0.9316  0.5538
  407SOL     OW 1219   2.262   2.637   2.862 -0.0710  0.1051 -0.0758
  407SOL    HW1 1220   2.313   2.624   2.776  0.9815 -0.4118  0.0789
  407SOL    HW2 1221   2.327   2.652   2.940  0.3167 -2.5934  0.1891
  408SOL     OW 1222   2.695   2.848   0.131 -0.3531  0.9169 -0.1638
  408SOL    HW1 1223   2.737   2.754   0.119 -2.3142 -0.0391  0.6930
  408SOL    HW2 1224   2.756   2.917   0.084  0.2116  1.3102  0.0437
  409SOL     OW 1225   2.245   1.233   0.698 -0.4560  0.6781 -0.4746
  409SOL    HW1 1226   2.254   1.308   0.769  1.2218  2.5558  0.0809
  409SOL    HW2 1227   2.174   1.255   0.628 -1.1794 -1.4856 -1.5479
  410SOL     OW 1228   2.905   1.550   0.519  0.3561  0.0478 -0.0659
  410SOL    HW1 1229   2.910   1.481   0.594  0.3198 -0.7148  0.7156
  410SOL    HW2 1230   2.998   1.578   0.497 -1.1484 -0.1796 -2.6429
  411SOL     OW 1231   0.295   1.375   0.786  0.5928 -0.3398  0.4448
  411SOL    HW1 1232   0.341   1.462   0.800  1.7384 -3.7552 -1.7248
  411SOL    HW2 1233   0.347   1.302   0.838 -2.5233  0.0151  3.2166
  412SOL     OW 1234   2.388   2.286   0.708 -0.0497  0.1034  0.6528
  412SOL    HW1 1235   2.457   2.329   0.645  2.7837  1.7289  0.8369
  412SOL    HW2 1236   2.301   2.336   0.709  0.1133 -2.2595  0.8379
  413SOL     OW 1237   1.645   1.078   2.255  0.2335  0.5577  0.1113
  413SOL    HW1 1238   1.623   1.053   2.158  1.3092  0.6269 -1.0087
  413SOL    HW2 1239   1.554   1.096   2.297  0.9850 -1.9108 -0.4562
  414SOL     OW 1240   2.713   2.977   0.380 -0.2028  0.6504 -0.5327
  414SOL    HW1 1241   2.694   2.930   0.292  0.9578  1.8734 -1.2781
  414SOL    HW2 1242   2.745   3.074   0.353 -0.6694  2.8317  1.2895
  415SOL     OW 1243   0.977   2.156   1.241  0.4697  0.2812 -0.1390
  415SOL    HW1 1244   0.960   2.175   1.340 -1.3575 -3.7553 -0.7056
  415SOL    HW2 1245   0.974   2.053   1.230  0.8605  1.0710  1.1269
  416SOL     OW 1246   0.003   2.590   2.715 -0.1861  0.1295  0.4983
  416SOL    HW1 1247   0.036   2.615   2.621 -1.5160 -5.0021  0.8210
  416SOL    HW2 1248   0.004   2.489   2.727  0.2260 -0.5921  1.3856
  417SOL     OW 1249   2.797   0.736   1.230 -0.4896  0.2291  0.0643
  417SOL    HW1 1250   2.859   0.733   1.150  1.0765  0.9273  2.6651
  417SOL    HW2 1251   2.846   0.723   1.316  0.3242  0.0890  0.1237
  418SOL     OW 1252   0.007   0.062   0.121 -0.6577  0.4860 -0.5267
  418SOL    HW1 1253   3.055   0.013   0.204  2.8901 -0.8372  0.0798
  418SOL    HW2 1254   0.001   0.002   0.040 -1.5762 -0.2397  0.7354
  419SOL     OW 1255   0.105   1.398   1.556 -0.0754  0.0399 -0.0062
  419SOL    HW1 1256   0.017   1.343   1.533 -1.3867 -2.3246  3.6010
  419SOL    HW2 1257   0.163   1.411   1.470  3.0136 -0.1279 -2.2150
  420SOL     OW 1258   0.227   1.309   0.072 -0.6524  0.2728  0.0463
  420SOL    HW1 1259   0.277   1.390   0.040 -1.8537 -3.9974  0.2915
  420SOL    HW2 1260   0.197   1.253   3.072 -1.0080  1.2003 -0.4784
  421SOL     OW 1261   2.134   2.656   2.447 -0.1792  0.4783  0.0042
  421SOL    HW1 1262   2.036   2.665   2.418  0.0800 -0.7985  1.9987
  421SOL    HW2 1263   2.184   2.587   2.389  0.5436 -1.2667 -0.0697
  422SOL     OW 1264   0.221   0.952   2.649  0.2064 -0.0066  0.2257
  422SOL    HW1 1265   0.219   0.870   2.589 -1.4092  1.5685 -0.8270
  422SOL    HW2 1266   0.242   0.920   2.741  2.1148  2.7479 -3.5174
  423SOL     OW 1267   1.179   2.268   0.504  0.1410 -0.1645 -0.3324
  423SOL    HW1 1268   1.248   2.215   0.562  3.1329 -1.2658  0.6952
  423SOL    HW2 1269   1.089   2.216   0.504  1.2703 -2.0374 -1.8440
  424SOL     OW 1270   0.862   1.959   1.448  0.1294 -0.4867 -0.3546
  424SOL    HW1 1271   0.888   2.055   1.474 -1.9108 -0.0214  1.4448
  424SOL    HW2 1272   0.913   1.894   1.508  1.6701  0.1741 -0.9793
  425SOL     OW 1273   2.576   2.391   2.490 -0.1060 -0.3590  0.3000
  425SOL    HW1 1274   2.530   2.474   2.455  2.1853  0.6134 -1.7044
  425SOL    HW2 1275   2.635   2.413   2.570 -2.7993 -1.9692  0.1465
  426SOL     OW 1276   1.472   0.478   0.939 -0.2338  0.2046  0.3208
  426SOL    HW1 1277   1.556   0.488   0.994 -0.2443 -1.1404 -2.1860
  426SOL    HW2 1278   1.482   0.400   0.876  0.9493 -1.0726  1.0961
  427SOL     OW 1279   0.035   1.506   2.707 -0.3537  0.2222  0.3987
  427SOL    HW1 1280   0.033   1.575   2.780 -1.1734  1.7865  0.2040
  427SOL    HW2 1281   3.073   1.417   2.726  1.8543  0.3860  1.0445
  428SOL     OW 1282   1.021   1.297   0.083  0.0677  0.0465 -0.6536
  428SOL    HW1 1283   1.050   1.214   0.137 -0.9079 -1.0188  0.8530
  428SOL    HW2 1284   0.943   1.278   0.018  0.7483  0.6706 -2.7837
  429SOL     OW 1285   2.661   2.683   0.615 -0.8847  0.2335 -0.2668
  429SOL    HW1 1286   2.566   2.667   0.582  0.5901  0.6321 -0.3076
  429SOL    HW2 1287   2.715   2.713   0.532 -0.9793 -0.9923 -4.0296
  430SOL     OW 1288   0.439   2.305   2.279  0.1426 -0.7806  0.3372
  430SOL    HW1 1289   0.377   2.387   2.259 -1.1892  0.8213 -2.2403
  430SOL    HW2 1290   0.416   2.227   2.217  1.4740 -0.5826 -0.1556
  431SOL     OW 1291   2.790   1.299   0.424  0.4334  0.9083 -0.0923
  431SOL    HW1 1292   2.837   1.385   0.407 -0.0282 -0.4821 -0.8817
  431SOL    HW2 1293   2.847   1.222   0.393  0.8100  2.9559  1.7652
  432SOL     OW 1294   1.888   2.701   2.378  0.6923 -0.5534  0.0425
  432SOL    HW1 1295   1.835   2.728   2.295 -2.8711  1.1285 -1.6618
  432SOL    HW2 1296   1.866   2.756   2.462  1.3654  0.1347 -0.1958
  433SOL     OW 1297   1.454   2.674   0.566 -0.0187 -0.0499 -0.2743
  433SOL    HW1 1298   1.489   2.770   0.566  0.2616 -0.0831  0.7626
  433SOL    HW2 1299   1.389   2.663   0.644  1.1214 -0.2730  2.0356
  434SOL     OW 1300   1.372   1.840   2.103 -0.2285 -0.0399  0.0435
  434SOL    HW1 1301   1.294   1.844   2.037  1.8194 -1.8002  1.4659
  434SOL    HW2 1302   1.349   1.789   2.190  1.7557  3.1289 -1.3728
  435SOL     OW 1303   2.440   0.624   3.070  0.4336  0.0305 -0.2883
  435SOL    HW1 1304   2.533   0.658   3.041  0.0070  0.3203 -1.1840
  435SOL    HW2 1305   2.417   0.654   0.089 -0.6957 -0.2289 -0.1524
  436SOL     OW 1306   0.534   2.585   2.422 -0.2401 -0.3087 -0.1905
  436SOL    HW1 1307   0.445   2.562   2.372 -2.4458  0.1616 -1.4644
  436SOL    HW2 1308   0.612   2.577   2.359  0.9820  2.1739 -0.8382
  437SOL     OW 1309   1.994   3.047   1.555  0.0305  0.0027  0.2084
  437SOL    HW1 1310   2.032   2.952   1.544 -1.2682 -0.6052  1.3909
  437SOL    HW2 1311   2.069   0.038   1.555 -1.1251 -0.2145  1.9896
  438SOL     OW 1312   0.215   1.816   0.603 -0.0418 -0.1012 -0.1798
  438SOL    HW1 1313   0.137   1.882   0.600 -2.1640  0.2367  1.3007
  438SOL    HW2 1314   0.235   1.786   0.697  0.2579  0.2408  1.0644
  439SOL     OW 1315   0.322   0.311   1.236 -0.2643 -0.2265  0.0891
  439SOL    HW1 1316   0.413   0.265   1.214 -0.7465 -1.1040 -1.3305
  439SOL    HW2 1317   0.252   0.291   1.165  0.1954 -2.0452 -1.9114
  440SOL     OW 1318   2.841   2.812   2.285 -0.3329  0.7269  0.0454
  440SOL    HW1 1319   2.847   2.714   2.303  0.3555 -2.8909 -0.2783
  440SOL    HW2 1320   2.857   2.831   2.188 -0.1517 -1.2123  0.6958
  441SOL     OW 1321   0.189   0.694   0.216 -0.3870 -0.0095 -0.0544
  441SOL    HW1 1322   0.267   0.737   0.268 -0.0162 -0.4792 -0.9481
  441SOL    HW2 1323   0.134   0.629   0.283 -2.4676 -0.2358  0.4408
  442SOL     OW 1324   1.489   2.356   2.225 -0.1851  0.8490 -0.6737
  442SOL    HW1 1325   1.535   2.296   2.155  1.5570  1.5227 -0.9036
  442SOL    HW2 1326   1.501   2.318   2.315 -1.2268  1.5814  0.3715
  443SOL     OW 1327   0.615   2.954   0.054  0.3445  0.5444  0.1831
  443SOL    HW1 1328   0.648   2.862   0.024 -2.2183 -1.0412  2.0800
  443SOL    HW2 1329   0.636   3.022   3.056  1.4176  0.2088  0.0182
  444SOL     OW 1330   1.381   1.728   2.528 -0.1656  0.3114 -0.0172
  444SOL    HW1 1331   1.326   1.811   2.539  0.5697 -1.0397  1.2118
  444SOL    HW2 1332   1.364   1.691   2.433 -0.3179  1.2516 -1.6902
  445SOL     OW 1333   0.428   0.454   0.839 -0.1423 -0.0898  0.3516
  445SOL    HW1 1334   0.406   0.373   0.781  1.4170 -1.0327  0.3105
  445SOL    HW2 1335   0.491   0.428   0.914  0.2187 -0.2934  0.7470
  446SOL     OW 1336   1.873   0.803   0.831 -0.2497 -0.1782  0.2897
  446SOL    HW1 1337   1.781   0.837   0.846  6.0425  0.6403 -0.5839
  446SOL    HW2 1338   1.922   0.818   0.918 -0.5239 -0.0972 -2.4792
  447SOL     OW 1339   2.851   1.084   0.150  0.3222 -0.5020 -1.0941
  447SOL    HW1 1340   2.824   0.982   0.151  2.0332 -4.2031  0.3840
  447SOL    HW2 1341   2.940   1.088   0.106 -2.1434 -0.5601 -0.8350
  448SOL     OW 1342   2.132   1.801   1.341 -0.0235 -0.5091  0.2028
  448SOL    HW1 1343   2.218   1.789   1.396 -0.2480 -0.7612 -1.0117
  448SOL    HW2 1344   2.112   1.897   1.312 -0.3989 -1.9626 -1.7392
  449SOL     OW 1345   0.792   1.530   2.955 -0.0315  0.0529  0.0450
  449SOL    HW1 1346   0.871   1.527   2.893 -2.0707 -1.7531  0.7894
  449SOL    HW2 1347   0.806   1.574   3.045  1.0476 -0.3194 -0.6696
  450SOL     OW 1348   2.200   0.007   2.354 -0.0147  0.1061  0.3699
  450SOL    HW1 1349   2.159   3.043   2.437  0.2092  1.3694 -0.4149
  450SOL    HW2 1350   2.135   0.014   2.278  1.7753  1.3437  0.1855
  451SOL     OW 1351   2.282   0.956   2.577 -0.0189  0.3931 -0.2997
  451SOL    HW1 1352   2.190   0.955   2.616  0.2157 -0.1139  1.0802
  451SOL    HW2 1353   2.292   1.027   2.504  1.0436 -1.0017 -1.8168
  452SOL     OW 1354   1.789   1.137   1.222 -0.7064  0.0566 -0.0147
  452SOL    HW1 1355   1.692   1.160   1.244 -1.2737 -0.4573  1.7208
  452SOL    HW2 1356   1.790   1.036   1.198 -1.3800 -1.8748 -0.6735
  453SOL     OW 1357   1.709   0.600   1.660  0.4746 -0.0735 -0.1442
  453SOL    HW1 1358   1.685   0.516   1.710 -0.5105  1.5867 -1.2761
  453SOL    HW2 1359   1.658   0.675   1.706 -3.0468  0.1551  0.4164
  454SOL     OW 1360   0.029   0.758   2.858  0.6139 -0.3420  0.2253
  454SOL    HW1 1361   0.014   0.753   2.959 -0.0615 -0.0294 -1.6842
  454SOL    HW2 1362   0.129   0.771   2.836  2.8632  0.2447 -0.5387
  455SOL     OW 1363   2.906   1.583   1.415  0.1379  0.6604  0.0988
  455SOL    HW1 1364   2.981   1.645   1.386 -1.2883  0.2047 -0.0336
  455SOL    HW2 1365   2.940   1.485   1.430  2.4949 -0.1327  0.8789
  456SOL     OW 1366   1.552   2.813   1.657  0.3383  0.0295 -0.0239
  456SOL    HW1 1367   1.542   2.758   1.741  1.3560  0.0778 -3.7336
  456SOL    HW2 1368   1.526   2.908   1.676  1.3055  1.3306  0.3298
  457SOL     OW 1369   1.369   2.766   1.026 -0.2237 -0.4885 -0.1657
  457SOL    HW1 1370   1.451   2.724   0.979 -0.1537  2.1327 -0.0401
  457SOL    HW2 1371   1.327   2.699   1.089  3.5009  1.4241 -0.5696
  458SOL     OW 1372   2.860   2.942   0.805 -0.4386  0.7350 -0.2468
  458SOL    HW1 1373   2.795   2.873   0.835 -2.1584  2.7869  0.5087
  458SOL    HW2 1374   2.814   3.027   0.764 -1.5044  1.6396  2.3809
  459SOL     OW 1375   1.746   1.176   0.429 -0.0127  0.0074  0.5248
  459SOL    HW1 1376   1.757   1.124   0.340 -0.5921  1.8787  0.1520
  459SOL    HW2 1377   1.815   1.156   0.497 -2.2863  1.8016 -0.7345
  460SOL     OW 1378   0.856   2.481   2.341 -0.0456 -0.0085 -0.3048
  460SOL    HW1 1379   0.955   2.492   2.349  0.2819  1.3263  1.1136
  460SOL    HW2 1380   0.807   2.525   2.418  3.1369 -0.4641 -1.4374
  461SOL     OW 1381   0.300   1.499   0.382  0.3307  0.7896 -0.1934
  461SOL    HW1 1382   0.331   1.569   0.317  3.5850 -0.9550  1.9684
  461SOL    HW2 1383   0.330   1.407   0.346  0.1518 -0.1819 -1.9129
  462SOL     OW 1384   1.938   2.043   0.341  0.8265  0.0510 -0.3310
  462SOL    HW1 1385   2.014   1.976   0.331 -1.0836  3.2577 -1.0149
  462SOL    HW2 1386   1.879   2.058   0.260  2.0746  0.5432 -0.4726
  463SOL     OW 1387   2.756   0.620   0.333  0.0904 -0.3262  0.0038
  463SOL    HW1 1388   2.677   0.638   0.395 -1.9060  1.6147 -0.3003
  463SOL    HW2 1389   2.746   0.533   0.283  2.9461 -0.3237  0.4678
  464SOL     OW 1390   0.588   2.034   0.225  0.2580  0.2946  0.3515
  464SOL    HW1 1391   0.629   1.994   0.136  0.8778  1.4167 -0.8551
  464SOL    HW2 1392   0.614   2.131   0.245  1.1949 -0.6072  1.1928
  465SOL     OW 1393   2.233   0.368   1.349 -0.0500  0.0350 -0.0557
  465SOL    HW1 1394   2.212   0.299   1.275  0.4896 -2.1257 -1.6730
  465SOL    HW2 1395   2.168   0.450   1.345 -3.4892  1.8493 -1.1661
  466SOL     OW 1396   2.254   0.161   0.650  0.0011 -0.1332  0.6644
  466SOL    HW1 1397   2.259   0.167   0.547  0.3484 -2.7222 -3.9647
  466SOL    HW2 1398   2.303   0.231   0.698  0.9451 -1.2023 -0.1059
  467SOL     OW 1399   0.677   0.365   2.341  0.0243 -0.0612 -0.0071
  467SOL    HW1 1400   0.680   0.407   2.248  4.3719  1.3791 -0.5434
  467SOL    HW2 1401   0.769   0.334   2.370  0.6937 -3.7837  3.4205
  468SOL     OW 1402   2.660   0.206   2.199  0.0599 -0.2922  0.2603
  468SOL    HW1 1403   2.656   0.128   2.135 -1.7197  0.0484 -0.2489
  468SOL    HW2 1404   2.756   0.247   2.187 -1.4108  0.7821 -1.3768
  469SOL     OW 1405   1.029   2.790   1.759  0.0225  0.0052 -0.5936
  469SOL    HW1 1406   1.101   2.737   1.703  1.1667 -2.6292  0.6988
  469SOL    HW2 1407   0.951   2.801   1.697  0.3074  0.8088 -1.4941
  470SOL     OW 1408   2.396   1.006   1.854  0.4584  0.3756 -0.0147
  470SOL    HW1 1409   2.469   0.938   1.887  0.3631 -3.2410 -3.5225
  470SOL    HW2 1410   2.318   1.014   1.922  0.8798  0.1127 -2.4465
  471SOL     OW 1411   2.785   1.549   2.928 -0.2206 -0.2564 -0.2871
  471SOL    HW1 1412   2.867   1.607   2.914 -0.4735 -5.1339 -3.2015
  471SOL    HW2 1413   2.735   1.561   3.020 -1.4018  3.1374  2.3010
  472SOL     OW 1414   0.439   2.129   0.519 -0.0417 -0.0283 -0.1455
  472SOL    HW1 1415   0.430   2.045   0.464 -1.4814  2.2832  4.1204
  472SOL    HW2 1416   0.531   2.172   0.509  1.1945 -1.7762  1.3804
  473SOL     OW 1417   1.205   2.356   2.246 -0.3679 -0.2919  0.0120
  473SOL    HW1 1418   1.185   2.255   2.261 -0.9464 -2.6457 -2.3416
  473SOL    HW2 1419   1.307   2.363   2.223  0.6118 -2.2965  2.2720
  474SOL     OW 1420   0.814   2.583   2.586  0.4569  0.1785  0.0927
  474SOL    HW1 1421   0.762   2.516   2.639 -1.3136 -1.0646 -0.5850
  474SOL    HW2 1422   0.891   2.628   2.637  2.8438  1.1983 -0.1577
  475SOL     OW 1423   0.681   1.930   3.068 -0.5361 -0.0756  0.1934
  475SOL    HW1 1424   0.778   1.902   3.053  0.2615  1.3040 -2.3311
  475SOL    HW2 1425   0.628   1.857   3.016 -0.1956 -1.8186 -0.3265
  476SOL     OW 1426   1.070   0.858   0.974 -0.5668  0.4961 -0.1802
  476SOL    HW1 1427   1.031   0.764   0.967  1.4258  0.8298 -1.6154
  476SOL    HW2 1428   1.005   0.930   0.995  3.8404 -2.1640 -0.0666
  477SOL     OW 1429   2.109   2.072   1.301 -0.3812  0.2981  0.5600
  477SOL    HW1 1430   2.187   2.115   1.352 -0.9757  0.0427 -2.7658
  477SOL    HW2 1431   2.033   2.139   1.294  1.1285 -0.4687 -1.0235
  478SOL     OW 1432   0.140   0.406   3.000 -0.3594 -0.6823  0.0625
  478SOL    HW1 1433   0.040   0.415   3.011  0.8710  0.0194  0.0865
  478SOL    HW2 1434   0.181   0.343   3.065 -3.7971  3.9148  1.5067
  479SOL     OW 1435   0.948   3.020   1.425  0.1021  0.7319  0.0777
  479SOL    HW1 1436   0.980   0.001   1.504 -2.4685 -0.6013  1.7294
  479SOL    HW2 1437   0.935   2.922   1.454  0.2683  2.6073  1.0348
  480SOL     OW 1438   2.720   2.306   0.287  0.3001 -0.4138  0.6156
  480SOL    HW1 1439   2.684   2.214   0.257 -0.2453 -1.8030  0.6326
  480SOL    HW2 1440   2.820   2.307   0.280  0.5420 -0.0421  0.0278
  481SOL     OW 1441   0.027   0.732   1.720 -0.1536  1.0615 -0.3233
  481SOL    HW1 1442   3.048   0.805   1.688  1.3018 -1.3736  1.0534
  481SOL    HW2 1443   0.019   0.727   1.820 -1.1495  2.9867 -4.3717
  482SOL     OW 1444   1.034   2.926   1.039 -0.4999 -0.1166  0.0511
  482SOL    HW1 1445   0.974   3.009   1.029  0.3514  2.6037  1.1969
  482SOL    HW2 1446   0.994   2.859   1.105  0.1241 -4.0940  0.7806
  483SOL     OW 1447   2.917   1.466   2.518 -0.4523  0.5187 -0.7374
  483SOL    HW1 1448   3.004   1.503   2.563  0.9057 -0.4532  0.2946
  483SOL    HW2 1449   2.842   1.524   2.549  0.7632 -1.3409  0.4216
  484SOL     OW 1450   1.780   1.671   1.974 -0.7061 -0.0507  0.3784
  484SOL    HW1 1451   1.738   1.587   2.013  0.5936 -1.3490  0.7441
  484SOL    HW2 1452   1.881   1.665   1.958 -0.7028 -0.8716  0.6744
  485SOL     OW 1453   0.331   2.839   2.257 -0.2042 -0.1203  0.6893
  485SOL    HW1 1454   0.232   2.867   2.258 -3.5877  0.1288 -1.3152
  485SOL    HW2 1455   0.343   2.743   2.281  0.4383  1.7621  3.7917
  486SOL     OW 1456   1.175   2.983   0.639  0.3095  0.3062  0.1558
  486SOL    HW1 1457   1.228   2.948   0.721 -0.1494 -0.1553 -0.4303
  486SOL    HW2 1458   1.229   3.046   0.580 -0.5413  0.8425  1.5127
  487SOL     OW 1459   1.502   0.083   0.909 -0.0672  0.4159  0.2831
  487SOL    HW1 1460   1.557   0.148   0.856 -1.8670  2.6010  2.0655
  487SOL    HW2 1461   1.502   0.112   1.006 -1.7305  0.0385 -0.9914
  488SOL     OW 1462   2.242   0.942   0.886  0.4242  0.0980 -0.0584
  488SOL    HW1 1463   2.329   0.981   0.915 -0.9891 -1.4917 -1.9340
  488SOL    HW2 1464   2.161   0.985   0.934 -0.3522 -1.1595  1.1527
  489SOL     OW 1465   1.137   0.184   1.365  0.3052  0.0282 -0.3889
  489SOL    HW1 1466   1.161   0.126   1.281  0.9005 -0.9040 -3.2988
  489SOL    HW2 1467   1.209   0.259   1.367  0.1575 -0.5719 -2.2317
  490SOL     OW 1468   0.831   0.560   3.035  0.2912 -0.6911 -0.2303
  490SOL    HW1 1469   0.894   0.523   0.031  3.0705  1.8491  1.2470
  490SOL    HW2 1470   0.730   0.545   3.056 -0.9176  0.4906  3.3814
  491SOL     OW 1471   1.000   2.738   0.268  0.8060  0.0855 -0.0688
  491SOL    HW1 1472   1.070   2.770   0.336  0.6892  0.2750  1.2584
  491SOL    HW2 1473   1.026   2.652   0.218 -2.1323  1.2753 -0.0527
  492SOL     OW 1474   1.386   1.725   1.510  0.1125 -0.8416  0.6154
  492SOL    HW1 1475   1.436   1.785   1.575  0.5332  0.4250  1.8591
  492SOL    HW2 1476   1.412   1.628   1.507  1.2512  1.2972 -0.4825
  493SOL     OW 1477   0.436   1.512   0.089 -0.0722 -0.1342  0.0016
  493SOL    HW1 1478   0.364   1.585   0.105 -3.8357 -1.7561  1.6061
  493SOL    HW2 1479   0.521   1.519   0.146 -1.4842 -0.5132 -1.5093
  494SOL     OW 1480   1.906   2.292   0.450 -0.8613  0.2668  0.0519
  494SOL    HW1 1481   1.918   2.196   0.417  0.2717 -1.0008  0.7622
  494SOL    HW2 1482   1.841   2.349   0.391  0.0369 -0.0009  2.3540
  495SOL     OW 1483   0.329   1.697   2.322 -0.3505  0.1264 -0.3494
  495SOL    HW1 1484   0.386   1.757   2.382  0.4378  0.2427  2.4316
  495SOL    HW2 1485   0.255   1.654   2.382 -1.1817 -1.0207 -1.5191
  496SOL     OW 1486   0.280   2.842   2.603 -0.8842 -0.4264 -0.0703
  496SOL    HW1 1487   0.248   2.934   2.569 -2.0507 -1.5511  0.1392
  496SOL    HW2 1488   0.376   2.842   2.633 -2.1583 -1.4073  0.7911
  497SOL     OW 1489   1.574   1.294   0.663 -0.6962  0.0824 -0.2214
  497SOL    HW1 1490   1.603   1.246   0.579 -0.7567  1.3038  1.4745
  497SOL    HW2 1491   1.596   1.391   0.665  0.8403 -1.7147  0.2491
  498SOL     OW 1492   2.752   2.561   0.194  0.6948 -0.4480 -0.5122
  498SOL    HW1 1493   2.846   2.541   0.158  0.6700 -1.3409 -1.1573
  498SOL    HW2 1494   2.711   2.474   0.224  0.6743  2.4373  1.3761
  499SOL     OW 1495   2.033   2.556   0.626  0.2934 -0.2541  0.1497
  499SOL    HW1 1496   1.994   2.465   0.650 -1.3462 -4.3750  0.4270
  499SOL    HW2 1497   2.126   2.552   0.665 -1.8371 -1.7457 -0.1319
  500SOL     OW 1498   0.588   0.383   2.849 -0.1421  0.2916  0.6730
  500SOL    HW1 1499   0.598   0.464   2.907  0.6564 -3.7540 -0.5296
  500SOL    HW2 1500   0.673   0.389   2.790 -0.6046  4.3629 -2.3009
  501SOL     OW 1501   1.755   2.640   1.694  0.3012  0.1234 -0.4282
  501SOL    HW1 1502   1.770   2.631   1.798  0.2097 -0.4849  0.5507
  501SOL    HW2 1503   1.680   2.706   1.668 -0.3348 -1.5428  0.4586
  502SOL     OW 1504   0.195   0.030   2.594 -0.3824 -0.1310 -0.2360
  502SOL    HW1 1505   0.129   3.075   2.666 -0.8545 -1.1328  0.2123
  502SOL    HW2 1506   0.256   0.099   2.638 -1.8075 -0.8051  3.3325
  503SOL     OW 1507   1.862   2.386   2.392 -0.4248 -0.5778  0.0299
  503SOL    HW1 1508   1.871   2.393   2.292  1.7486  0.9292  3.2060
  503SOL    HW2 1509   1.873   2.482   2.430  0.8390  2.3376  0.1062
  504SOL     OW 1510   1.912   0.288   1.874  0.4534  0.6363 -0.1728
  504SOL    HW1 1511   1.889   0.185   1.878 -1.9151 -1.2810  0.1187
  504SOL    HW2 1512   1.953   0.315   1.780  1.9108 -3.1297 -1.6292
  505SOL     OW 1513   2.512   1.507   1.522  0.6262 -0.2471 -0.2819
  505SOL    HW1 1514   2.573   1.588   1.517 -1.7003 -0.4421  4.2594
  505SOL    HW2 1515   2.463   1.492   1.431  0.4716  0.7609 -0.5032
  506SOL     OW 1516   0.076   1.635   1.661 -0.0168  0.3919  0.3490
  506SOL    HW1 1517   0.073   1.539   1.633  0.8190  2.1038  1.8877
  506SOL    HW2 1518   0.079   1.693   1.578  0.7824  2.3350 -1.1769
  507SOL     OW 1519   0.444   2.598   1.630 -0.6263  0.0062 -0.1931
  507SOL    HW1 1520   0.521   2.559   1.682 -0.5517 -0.6852 -1.1280
  507SOL    HW2 1521   0.451   2.565   1.531  1.3934 -0.5918 -2.6271
  508SOL     OW 1522   0.779   0.660   1.594  0.5633  0.1999  0.6591
  508SOL    HW1 1523   0.833   0.611   1.667 -1.9272  0.2194 -1.4592
  508SOL    HW2 1524   0.683   0.649   1.630 -2.1585  1.2731 -0.5270
  509SOL     OW 1525   1.614   2.328   1.726  0.2119 -0.9930  0.0492
  509SOL    HW1 1526   1.587   2.426   1.749  1.1959  1.5517  1.8898
  509SOL    HW2 1527   1.548   2.261   1.764  2.9935  2.0398 -0.4436
  510SOL     OW 1528   2.600   1.281   2.561  0.2891  0.0777  0.2162
  510SOL    HW1 1529   2.658   1.195   2.552  0.0759  0.3777  0.1913
  510SOL    HW2 1530   2.513   1.258   2.611  1.5971 -2.5391 -0.9798
  511SOL     OW 1531   0.904   1.255   1.263  0.1034 -0.7210  0.6781
  511SOL    HW1 1532   1.000   1.231   1.233  1.1691  0.2735  1.9671
  511SOL    HW2 1533   0.903   1.355   1.286 -0.8578  0.3032 -1.4865
  512SOL     OW 1534   2.656   1.668   0.478  0.3455 -0.4932 -0.3275
  512SOL    HW1 1535   2.740   1.615   0.496 -3.7710  0.4074 -0.4048
  512SOL    HW2 1536   2.625   1.715   0.556  1.1847 -4.8040 -4.8119
  513SOL     OW 1537   1.156   2.086   2.269  0.3022  0.1825 -0.0513
  513SOL    HW1 1538   1.066   2.068   2.319 -2.5980  0.1146  2.7484
  513SOL    HW2 1539   1.239   2.048   2.320 -0.3493  2.1485  1.6638
  514SOL     OW 1540   0.140   2.560   1.091  0.0115  0.2309  0.0326
  514SOL    HW1 1541   0.136   2.618   1.175  2.6606  0.5233 -0.8799
  514SOL    HW2 1542   0.236   2.539   1.075  0.2532  0.5060 -0.3794
  515SOL     OW 1543   1.913   0.932   1.605  0.2373  0.3111  0.1387
  515SOL    HW1 1544   1.920   1.029   1.574 -4.4350 -0.0207 -0.5651
  515SOL    HW2 1545   1.854   0.881   1.540  1.7635 -0.3902  0.7947
  516SOL     OW 1546   2.703   0.063   2.945  0.2299 -0.3762 -0.1305
  516SOL    HW1 1547   2.670   0.100   2.853  0.0187 -1.8114 -3.4015
  516SOL    HW2 1548   2.733   0.134   3.019  1.2536  0.0905  2.3154
  517SOL     OW 1549   1.189   1.697   2.881 -0.3144  1.0045 -0.8178
  517SOL    HW1 1550   1.287   1.673   2.847  3.7762  3.1374 -0.1113
  517SOL    HW2 1551   1.125   1.620   2.869  1.3722 -0.0916  2.5641
  518SOL     OW 1552   1.354   0.030   1.467 -0.0554 -0.2909  0.3936
  518SOL    HW1 1553   1.419   3.047   1.413 -1.0212  0.4640  0.2703
  518SOL    HW2 1554   1.279   0.076   1.418 -0.0214  1.5188  0.0676
  519SOL     OW 1555   2.237   2.580   0.813 -0.2409 -0.0552 -0.3453
  519SOL    HW1 1556   2.328   2.561   0.858  1.7348 -0.2247  0.9488
  519SOL    HW2 1557   2.216   2.682   0.810 -0.4925  0.0879  0.7741
  520SOL     OW 1558   2.781   2.141   1.989  0.4073  0.0790 -0.1399
  520SOL    HW1 1559   2.730   2.056   1.985 -2.7157  2.8723  1.2016
  520SOL    HW2 1560   2.798   2.167   2.086 -0.3461  1.8507 -2.2595
  521SOL     OW 1561   2.819   0.802   0.124  0.2361  0.7680  0.2288
  521SOL    HW1 1562   2.786   0.734   0.191 -2.6479  0.6450 -1.0244
  521SOL    HW2 1563   2.910   0.790   0.082 -2.3933 -1.3247  0.2029
  522SOL     OW 1564   0.902   0.800   2.467 -0.1043 -0.1333 -0.1038
  522SOL    HW1 1565   0.827   0.731   2.489 -2.1155  1.1190 -0.6867
  522SOL    HW2 1566   0.869   0.862   2.392  0.1433  2.4761 -0.7870
  523SOL     OW 1567   3.072   2.585   0.575 -0.0974 -0.2018 -0.0535
  523SOL    HW1 1568   0.085   2.593   0.611  0.4407 -0.6321  1.5147
  523SOL    HW2 1569   3.066   2.520   0.498  0.6434 -1.0860  0.5898
  524SOL     OW 1570   2.067   2.605   3.043  0.3267 -0.0470 -0.4680
  524SOL    HW1 1571   2.144   2.596   2.977  1.1492  0.5462 -2.2416
  524SOL    HW2 1572   2.072   2.533   0.036  2.8042  0.7363 -1.9561
  525SOL     OW 1573   2.491   0.457   1.289 -0.3401  0.0273  0.5387
  525SOL    HW1 1574   2.493   0.558   1.280  1.1142 -0.6377 -1.9736
  525SOL    HW2 1575   2.412   0.413   1.333  0.9089 -0.1475  0.6990
  526SOL     OW 1576   1.232   2.776   0.427  0.5509  0.5414 -0.3414
  526SOL    HW1 1577   1.184   2.835   0.496  1.1770  3.6221 -1.1449
  526SOL    HW2 1578   1.291   2.716   0.480 -0.2179  2.5913 -0.7942
  527SOL     OW 1579   2.130   2.879   0.476  0.2282 -0.3384  0.0852
  527SOL    HW1 1580   2.053   2.843   0.417  0.1385  0.5444  1.8284
  527SOL    HW2 1581   2.204   2.932   0.426  0.1878  1.9983 -1.5765
  528SOL     OW 1582   1.815   0.795   2.867 -0.2247 -0.1507  0.0057
  528SOL    HW1 1583   1.828   0.704   2.902  1.2913 -0.4127 -0.5678
  528SOL    HW2 1584   1.768   0.798   2.777 -1.5941 -4.1401  0.2190
  529SOL     OW 1585   1.651   1.452   2.242 -0.0662  0.6057 -0.2219
  529SOL    HW1 1586   1.588   1.418   2.321 -0.8879 -1.6347  2.8622
  529SOL    HW2 1587   1.727   1.384   2.227 -2.0036 -1.8627  1.6683
  530SOL     OW 1588   2.527   2.922   2.908  0.0490  0.7606 -0.4250
  530SOL    HW1 1589   2.472   2.935   2.824  0.1913  1.5752 -0.9895
  530SOL    HW2 1590   2.565   3.013   2.934 -1.3639  1.1198 -1.8599
  531SOL     OW 1591   1.705   1.535   2.969 -0.1804  0.4048 -0.5175
  531SOL    HW1 1592   1.623   1.485   3.002  2.3305 -1.4724 -2.4117
  531SOL    HW2 1593   1.691   1.607   2.898  1.8984  0.4923  0.7885
  532SOL     OW 1594   1.498   0.232   1.136 -0.3749 -0.4121  0.0469
  532SOL    HW1 1595   1.440   0.256   1.215  1.7844 -4.6561  0.3222
  532SOL    HW2 1596   1.556   0.304   1.099 -1.8674 -2.7624  2.0215
  533SOL     OW 1597   0.556   0.913   2.864 -0.1664  0.3269 -0.3122
  533SOL    HW1 1598   0.600   0.984   2.808 -0.9580 -0.3085  0.3981
  533SOL    HW2 1599   0.632   0.868   2.918 -0.3614  2.4742  0.0266
  534SOL     OW 1600   1.333   0.431   3.061  0.3216 -0.3059  0.6229
  534SOL    HW1 1601   1.378   0.504   3.001  0.4814 -1.1823  0.0432
  534SOL    HW2 1602   1.355   0.337   3.023  3.0660  0.2243  1.4928
  535SOL     OW 1603   0.749   2.156   2.958  0.0409  0.1765 -0.0058
  535SOL    HW1 1604   0.667   2.215   2.975 -1.7134  0.9935  0.3009
  535SOL    HW2 1605   0.729   2.067   2.996  1.0177  2.0590 -0.8214
  536SOL     OW 1606   0.581   2.917   0.327 -0.5495 -0.1568 -0.5673
  536SOL    HW1 1607   0.580   2.942   0.227 -1.4538  1.5427  0.7179
  536SOL    HW2 1608   0.630   2.828   0.339 -0.2008  0.7873  0.0075
  537SOL     OW 1609   1.924   0.368   0.229  0.2104  0.3158 -0.0831
  537SOL    HW1 1610   1.908   0.339   0.328 -0.8622 -1.5390  1.4292
  537SOL    HW2 1611   2.006   0.427   0.221 -1.6547 -0.3156 -1.2888
  538SOL     OW 1612   2.481   2.220   2.812  0.0531 -0.8390 -0.1595
  538SOL    HW1 1613   2.558   2.174   2.765  0.2091 -0.5153 -1.6945
  538SOL    HW2 1614   2.391   2.217   2.766 -0.1016  0.8178 -0.6815
  539SOL     OW 1615   2.564   1.309   2.949 -0.1105 -0.0052 -0.6254
  539SOL    HW1 1616   2.574   1.411   2.952  1.7610 -0.4877  1.1498
  539SOL    HW2 1617   2.583   1.271   3.044 -0.9206  2.8539 -0.9220
  540SOL     OW 1618   0.685   2.878   1.742 -0.0547 -0.0362 -0.2771
  540SOL    HW1 1619   0.741   2.953   1.783  1.8057  1.6512  1.2457
  540SOL    HW2 1620   0.617   2.909   1.673  2.0405 -0.1076  0.3212
  541SOL     OW 1621   2.341   0.195   2.478 -0.5791 -0.0112  0.6742
  541SOL    HW1 1622   2.283   0.271   2.519 -0.5218 -0.3729 -2.0189
  541SOL    HW2 1623   2.280   0.124   2.427 -1.4038 -1.8447 -1.7134
  542SOL     OW 1624   0.276   0.637   3.061 -0.0526 -0.0711  0.3174
  542SOL    HW1 1625   0.221   0.558   3.025 -1.6383 -2.0181 -0.7254
  542SOL    HW2 1626   0.249   0.671   0.075 -0.1516  0.4667  0.1230
  543SOL     OW 1627   0.483   0.903   1.034  0.3067 -0.5803  0.2921
  543SOL    HW1 1628   0.390   0.896   1.066  0.1353  0.7834  2.5879
  543SOL    HW2 1629   0.489   0.945   0.939 -0.5785  0.2745 -1.8796
  544SOL     OW 1630   2.522   0.734   1.223  0.2358  0.6864 -0.2847
  544SOL    HW1 1631   2.618   0.725   1.236 -1.6293 -1.4020 -1.0145
  544SOL    HW2 1632   2.477   0.741   1.313  1.8850  0.6477 -0.8248
  545SOL     OW 1633   1.117   1.763   0.102 -0.1496 -0.8921  0.3200
  545SOL    HW1 1634   1.172   1.777   0.187  0.2889  1.6019  0.9548
  545SOL    HW2 1635   1.167   1.715   0.025  1.3205 -3.1318  0.0214
  546SOL     OW 1636   2.342   2.461   1.506  0.0646 -0.2311  0.5168
  546SOL    HW1 1637   2.318   2.379   1.564 -1.0464  0.9658  2.2142
  546SOL    HW2 1638   2.322   2.444   1.407  0.0595 -2.1020 -0.5758
  547SOL     OW 1639   1.066   2.386   1.907  0.0185 -0.4387  0.3304
  547SOL    HW1 1640   1.100   2.304   1.954 -0.1739  2.2906 -0.9008
  547SOL    HW2 1641   1.048   2.465   1.970 -1.3581  1.9789  2.0270
  548SOL     OW 1642   1.308   0.945   3.023  0.3720  0.0536 -0.0011
  548SOL    HW1 1643   1.235   0.881   2.991 -1.1276  1.9553  0.9133
  548SOL    HW2 1644   1.280   0.996   0.029  1.5066  1.0340  1.6090
  549SOL     OW 1645   2.494   0.668   0.465  0.0366  0.5129  0.0319
  549SOL    HW1 1646   2.490   0.625   0.560  0.0186 -1.1334  0.7544
  549SOL    HW2 1647   2.398   0.704   0.444 -0.2093  1.8073  0.3806
  550SOL     OW 1648   2.087   1.149   0.194 -0.3571  0.5559  0.1028
  550SOL    HW1 1649   2.158   1.192   0.246 -0.2903 -0.5301 -0.6178
  550SOL    HW2 1650   2.014   1.208   0.159 -0.0268 -0.6769  0.2127
  551SOL     OW 1651   1.739   0.315   1.491 -0.0174  0.3033 -0.2478
  551SOL    HW1 1652   1.670   0.330   1.563 -0.7809  2.3759  0.6245
  551SOL    HW2 1653   1.724   0.387   1.418  1.1184  0.0817  0.1492
  552SOL     OW 1654   1.822   0.166   2.799 -0.4336 -0.3145  0.2727
  552SOL    HW1 1655   1.877   0.249   2.818  0.1309 -0.1889  0.8380
  552SOL    HW2 1656   1.878   0.079   2.818  3.6408  1.7538 -0.8497
  553SOL     OW 1657   0.642   2.687   2.198  0.5814  0.4263  0.5657
  553SOL    HW1 1658   0.668   2.663   2.099 -1.5675 -2.8425 -2.8526
  553SOL    HW2 1659   0.557   2.745   2.201  0.7267 -0.9232 -0.6182
  554SOL     OW 1660   0.154   0.065   1.436 -0.2260 -0.4155  0.3750
  554SOL    HW1 1661   0.155   0.153   1.489  1.3857  3.7889 -0.7351
  554SOL    HW2 1662   0.221   0.071   1.361 -1.8543 -0.4494  0.0694
  555SOL     OW 1663   2.302   1.801   2.123  0.6456  0.7029  0.4423
  555SOL    HW1 1664   2.338   1.890   2.151 -2.4910  1.0752  1.0923
  555SOL    HW2 1665   2.363   1.727   2.157 -2.7985  1.1014 -0.5794
  556SOL     OW 1666   1.026   0.563   0.200  0.3464  0.1227 -0.6509
  556SOL    HW1 1667   1.113   0.532   0.243  0.5808 -2.1881  1.0536
  556SOL    HW2 1668   0.960   0.485   0.207  0.7965 -0.3071  1.1060
  557SOL     OW 1669   0.222   1.982   2.304  0.2987  0.2311  0.1283
  557SOL    HW1 1670   0.258   2.036   2.225  0.0571 -1.5666 -1.4136
  557SOL    HW2 1671   0.182   1.890   2.271  0.8493 -1.4586 -2.1057
  558SOL     OW 1672   1.917   0.565   2.960 -0.4338 -0.0804 -0.9522
  558SOL    HW1 1673   1.954   0.480   2.920 -0.3090  1.3666  1.1629
  558SOL    HW2 1674   1.984   0.618   3.013 -1.3446  1.4572 -1.4378
  559SOL     OW 1675   2.220   1.854   1.618  0.0649 -0.3487  0.3518
  559SOL    HW1 1676   2.142   1.794   1.634 -2.8284 -0.1660 -1.7714
  559SOL    HW2 1677   2.232   1.922   1.693 -0.8134  0.3979  0.1250
  560SOL     OW 1678   1.864   1.025   1.840  0.0224  0.2914  0.6490
  560SOL    HW1 1679   1.866   0.991   1.742 -0.0604  0.1080 -2.4632
  560SOL    HW2 1680   1.888   1.123   1.835  0.2356 -3.3522  0.3657
  561SOL     OW 1681   0.040   3.009   2.803  0.5451  0.6533  0.6431
  561SOL    HW1 1682   3.061   2.928   2.780 -1.1151  1.9142 -2.6482
  561SOL    HW2 1683   0.119   2.980   2.862  0.0506 -2.2054  0.6716
  562SOL     OW 1684   1.121   1.716   1.409  0.1343  0.0186 -0.2982
  562SOL    HW1 1685   1.213   1.720   1.448 -0.2370 -0.1340 -1.1801
  562SOL    HW2 1686   1.124   1.742   1.310  2.1311 -0.6885  1.3806
  563SOL     OW 1687   0.836   0.347   0.205  0.2282 -0.1168 -0.5781
  563SOL    HW1 1688   0.841   0.273   0.135  0.6635  1.4156  0.1084
  563SOL    HW2 1689   0.778   0.328   0.286 -1.7671 -3.1371  0.5886
  564SOL     OW 1690   2.902   2.607   0.765 -0.0258 -0.0279  0.4177
  564SOL    HW1 1691   2.966   2.587   0.688 -1.9401 -0.4673  1.9201
  564SOL    HW2 1692   2.811   2.622   0.716  0.4373 -0.7922 -1.9279
  565SOL     OW 1693   0.695   2.192   1.183 -0.1938  0.6170 -0.6732
  565SOL    HW1 1694   0.799   2.184   1.177  6.0963  0.7054 -1.2235
  565SOL    HW2 1695   0.654   2.124   1.122 -1.1783  0.1640  1.1975
  566SOL     OW 1696   1.230   3.021   2.582 -0.5842  0.2368 -0.7110
  566SOL    HW1 1697   1.166   3.051   2.656 -2.8700  1.2279  1.9249
  566SOL    HW2 1698   1.193   3.057   2.495  1.3311  0.9408  1.1167
  567SOL     OW 1699   2.168   2.827   0.856 -0.2061 -0.1365 -0.0576
  567SOL    HW1 1700   2.254   2.885   0.853 -0.3668  1.1440 -0.2298
  567SOL    HW2 1701   2.102   2.850   0.789 -1.5616 -1.1185  1.5883
  568SOL     OW 1702   1.634   1.572   0.676 -0.6770 -0.6415  0.1062
  568SOL    HW1 1703   1.704   1.587   0.604 -1.8905 -1.1335  0.0741
  568SOL    HW2 1704   1.549   1.615   0.640  1.5689 -1.4945 -1.4620
  569SOL     OW 1705   2.107   1.139   2.255 -0.6522  0.2338 -0.2511
  569SOL    HW1 1706   2.089   1.043   2.266 -1.5052  0.9553  0.2523
  569SOL    HW2 1707   2.201   1.155   2.295  1.8699 -1.6334 -1.0632
  570SOL     OW 1708   0.059   0.015   1.893 -0.2917  0.4026 -0.4462
  570SOL    HW1 1709   0.033   0.052   1.983  0.4330 -1.9171  0.7217
  570SOL    HW2 1710   0.077   2.994   1.898  0.5805  4.0889  0.3533
  571SOL     OW 1711   0.378   2.866   1.681 -0.2741 -0.1305 -0.1847
  571SOL    HW1 1712   0.421   2.773   1.665 -0.6414 -0.9953  2.7474
  571SOL    HW2 1713   0.278   2.862   1.657 -1.7679 -0.0736  0.2636
  572SOL     OW 1714   3.043   2.284   1.412 -0.0887 -0.0289  0.2348
  572SOL    HW1 1715   2.954   2.305   1.360 -3.1669 -0.0569  0.5667
  572SOL    HW2 1716   3.070   2.375   1.455 -1.0094 -0.4383  3.1003
  573SOL     OW 1717   1.089   0.804   2.897  0.1458  0.5677 -0.5209
  573SOL    HW1 1718   1.078   0.708   2.867  0.3725 -1.5952  0.5622
  573SOL    HW2 1719   1.048   0.868   2.829  0.7033  0.0468  1.0300
  574SOL     OW 1720   2.438   2.643   2.383  0.3435 -0.6702  0.0295
  574SOL    HW1 1721   2.397   2.740   2.389 -1.9453  4.1983 -1.0206
  574SOL    HW2 1722   2.374   2.578   2.334  1.4130 -0.4054  0.2705
  575SOL     OW 1723   1.333   2.962   0.846  0.3841 -0.2149  0.1882
  575SOL    HW1 1724   1.381   3.049   0.876 -0.5994 -0.9160  0.9123
  575SOL    HW2 1725   1.324   2.885   0.915  0.1944 -2.1174  1.3363
  576SOL     OW 1726   1.053   0.444   1.083 -0.0393  0.0414  0.1188
  576SOL    HW1 1727   1.097   0.382   1.014  1.4697 -0.9496 -0.5014
  576SOL    HW2 1728   1.000   0.515   1.028  0.2186  0.5537 -0.5596
  577SOL     OW 1729   2.103   1.428   0.455  0.0870  0.0293 -0.1512
  577SOL    HW1 1730   2.183   1.361   0.440  0.2231 -2.6744 -0.6464
  577SOL    HW2 1731   2.029   1.393   0.511 -0.7450 -0.2179 -2.8046
  578SOL     OW 1732   2.053   0.591   1.067  0.4109  0.0724 -0.2923
  578SOL    HW1 1733   1.957   0.571   1.035 -0.3319 -0.6664 -1.1757
  578SOL    HW2 1734   2.068   0.587   1.169  1.8218  0.3320  2.3132
  579SOL     OW 1735   1.737   0.952   2.469  0.6366  0.0335 -0.0836
  579SOL    HW1 1736   1.695   0.995   2.385 -0.0269 -2.0523 -1.3740
  579SOL    HW2 1737   1.748   1.015   2.551  0.5433 -2.8618  0.9301
  580SOL     OW 1738   1.289   0.895   1.934  0.4604  0.2207  0.0334
  580SOL    HW1 1739   1.279   0.975   1.871 -0.8836  1.0097 -2.6536
  580SOL    HW2 1740   1.260   0.922   2.030 -0.9424  0.7245  1.8210
  581SOL     OW 1741   0.210   0.742   0.988  0.2553 -0.0600 -0.3478
  581SOL    HW1 1742   0.117   0.779   1.017 -0.7645  0.0944  3.8315
  581SOL    HW2 1743   0.200   0.695   0.897 -0.6086  0.9899  1.2901
  582SOL     OW 1744   2.963   0.427   1.938 -0.1306 -0.8453 -0.0056
  582SOL    HW1 1745   2.914   0.383   1.861  0.4670  2.7393 -0.0102
  582SOL    HW2 1746   2.911   0.419   2.025  0.7296 -1.8125 -0.3028
  583SOL     OW 1747   0.156   0.411   2.715  0.5897 -0.2754 -0.5258
  583SOL    HW1 1748   0.126   0.426   2.808 -1.8253 -0.4031 -0.3814
  583SOL    HW2 1749   0.237   0.348   2.719  2.9059 -2.3982  0.0246
  584SOL     OW 1750   2.080   2.399   0.135 -0.4268 -0.4778 -0.2436
  584SOL    HW1 1751   2.106   2.302   0.102  0.7494  0.7332  1.0411
  584SOL    HW2 1752   1.991   2.397   0.185 -0.3465  2.3127 -1.7717
  585SOL     OW 1753   0.086   2.315   3.053  0.7384  0.1686 -0.3554
  585SOL    HW1 1754   0.023   2.273   2.985  0.6220  0.0500  0.7987
  585SOL    HW2 1755   0.083   2.267   0.064 -1.8123  1.0710 -2.2619
  586SOL     OW 1756   1.819   1.811   2.190 -0.1232 -0.1751 -0.4337
  586SOL    HW1 1757   1.819   1.761   2.102  0.8356 -0.0462  3.5533
  586SOL    HW2 1758   1.860   1.902   2.182 -0.4860  1.2374  1.5026
  587SOL     OW 1759   2.430   1.562   2.876  0.0322 -0.1599 -0.1984
  587SOL    HW1 1760   2.435   1.550   2.778 -0.3384  0.2308 -0.1307
  587SOL    HW2 1761   2.347   1.517   2.913  0.6689  2.4334  2.1880
  588SOL     OW 1762   2.904   0.427   1.281 -0.0194 -0.1937 -0.4098
  588SOL    HW1 1763   2.933   0.483   1.202  1.3108  1.3432  1.2238
  588SOL    HW2 1764   2.970   0.425   1.360  0.5644  0.6424  1.1899
  589SOL     OW 1765   0.827   0.411   0.599  0.1481  0.3913  0.3859
  589SOL    HW1 1766   0.813   0.509   0.603  0.9234 -4.2167 -2.2174
  589SOL    HW2 1767   0.737   0.360   0.586 -1.6614  1.0312  1.1450
  590SOL     OW 1768   2.392   2.018   0.610 -0.3115 -0.4276  0.0443
  590SOL    HW1 1769   2.397   2.109   0.655  0.7328  4.3429  2.3294
  590SOL    HW2 1770   2.313   2.016   0.541 -1.3156  0.5000  0.0679
  591SOL     OW 1771   0.614   2.526   0.953  0.1572  0.6732  0.2908
  591SOL    HW1 1772   0.673   2.443   0.960  0.4675  2.9873  1.0537
  591SOL    HW2 1773   0.598   2.556   0.855 -2.3599  4.0506  1.2252
  592SOL     OW 1774   1.519   1.068   1.071 -0.2692 -0.5588  0.4085
  592SOL    HW1 1775   1.519   1.165   1.108  0.4660  0.6461  1.5073
  592SOL    HW2 1776   1.478   1.005   1.139  1.7496  2.2652 -0.4912
  593SOL     OW 1777   1.135   2.246   1.680 -0.2214  0.1870 -0.0995
  593SOL    HW1 1778   1.112   2.304   1.761  1.1677  0.2794 -1.4264
  593SOL    HW2 1779   1.213   2.292   1.634  0.9214 -0.4647 -0.4064
  594SOL     OW 1780   0.915   1.545   0.168 -0.3431 -0.0686 -0.1095
  594SOL    HW1 1781   0.961   1.460   0.130  0.6796 -0.7700  1.3130
  594SOL    HW2 1782   0.972   1.631   0.152  0.5829  1.7396 -0.3183
  595SOL     OW 1783   1.719   1.156   1.610 -0.4932 -0.1049 -0.1801
  595SOL    HW1 1784   1.711   1.248   1.647 -1.1445 -0.7226 -2.9244
  595SOL    HW2 1785   1.795   1.161   1.545  0.5266  1.1309  0.2991
  596SOL     OW 1786   2.860   1.259   2.143 -0.1899 -0.1745 -0.0785
  596SOL    HW1 1787   2.928   1.244   2.219  2.0666 -1.6539  2.8524
  596SOL    HW2 1788   2.904   1.236   2.054  0.1343 -1.2513  1.2869
  597SOL     OW 1789   1.470   2.687   1.883 -0.0970 -0.6325  0.0036
  597SOL    HW1 1790   1.447   2.595   1.844  1.7402  3.6562  0.6204
  597SOL    HW2 1791   1.480   2.677   1.982  1.8812  0.7207 -2.6988
  598SOL     OW 1792   2.270   1.204   1.488  0.2420  0.1998 -0.0194
  598SOL    HW1 1793   2.337   1.199   1.416 -1.1964 -0.3394 -1.7118
  598SOL    HW2 1794   2.222   1.293   1.504  2.0197  0.7259  0.4137
  599SOL     OW 1795   0.768   2.487   2.997  0.3934  0.0064 -0.3004
  599SOL    HW1 1796   0.746   2.523   0.012 -0.9099 -1.9459 -0.5468
  599SOL    HW2 1797   0.829   2.411   3.013 -2.1994  1.0726  0.5748
  600SOL     OW 1798   2.979   2.220   0.201 -0.2800  0.3090 -0.1248
  600SOL    HW1 1799   2.912   2.177   0.135  0.2626  0.0760  0.9234
  600SOL    HW2 1800   3.043   2.145   0.238  1.7126 -1.5694 -0.5562
  601SOL     OW 1801   0.617   0.909   1.448 -0.0120 -0.3367  0.0209
  601SOL    HW1 1802   0.534   0.861   1.480  2.4758 -0.6618  2.1954
  601SOL    HW2 1803   0.674   0.843   1.395  0.0945  0.0183  0.7878
  602SOL     OW 1804   0.532   0.156   1.174  0.1265 -0.1271 -0.1262
  602SOL    HW1 1805   0.608   0.118   1.233  0.6629 -0.0433 -0.9954
  602SOL    HW2 1806   0.563   0.189   1.085 -0.1870  4.9430  1.2176
  603SOL     OW 1807   0.441   3.043   2.793  0.2833 -0.3136 -0.2380
  603SOL    HW1 1808   0.461   0.062   2.754 -2.1320  0.9220 -0.0137
  603SOL    HW2 1809   0.464   2.963   2.734 -2.5737 -1.1932  3.3539
  604SOL     OW 1810   1.041   2.517   1.411  0.3603  0.6158  0.1200
  604SOL    HW1 1811   1.130   2.480   1.386 -2.6638 -0.3185  0.4976
  604SOL    HW2 1812   0.968   2.447   1.393  2.3423 -2.0341 -0.0250
  605SOL     OW 1813   1.511   1.197   1.919  0.6062  0.1084 -0.1081
  605SOL    HW1 1814   1.584   1.244   1.863 -1.2631  3.5043  0.2918
  605SOL    HW2 1815   1.436   1.180   1.855  1.5239  0.1614  0.0677
  606SOL     OW 1816   2.177   2.917   2.938  0.1047  0.6660  0.0177
  606SOL    HW1 1817   2.202   2.821   2.973 -0.9717 -2.9034  3.5833
  606SOL    HW2 1818   2.227   2.932   2.851 -0.1659 -0.8730  3.0719
  607SOL     OW 1819   0.572   0.178   1.947 -0.2923  0.1630 -0.1597
  607SOL    HW1 1820   0.475   0.141   1.927 -0.9335 -3.4289 -0.2557
  607SOL    HW2 1821   0.649   0.117   1.915  3.8950 -0.2447 -1.0740
  608SOL     OW 1822   0.171   2.212   1.949 -0.2610 -0.3684 -0.6907
  608SOL    HW1 1823   0.086   2.151   1.970 -2.5278 -1.5020 -1.4753
  608SOL    HW2 1824   0.205   2.197   1.852 -0.3154 -1.5180 -0.2555
  609SOL     OW 1825   1.044   1.046   0.222 -0.0203  0.8363  0.1803
  609SOL    HW1 1826   0.974   1.056   0.294  0.3007  1.0510 -1.7708
  609SOL    HW2 1827   1.048   0.954   0.175 -0.1503  1.1690 -0.5631
  610SOL     OW 1828   0.341   2.856   1.039  0.3188  0.6435 -0.0069
  610SOL    HW1 1829   0.412   2.913   0.997 -3.0006  0.4873  1.0169
  610SOL    HW2 1830   0.281   2.921   1.090  0.5384 -0.0578  2.5189
  611SOL     OW 1831   0.869   1.316   0.607  0.1797  0.0140 -0.2250
  611SOL    HW1 1832   0.784   1.326   0.549 -0.9620 -1.8444 -2.0937
  611SOL    HW2 1833   0.929   1.237   0.579 -1.1997 -2.6845 -0.1981
  612SOL     OW 1834   2.102   1.836   0.422 -0.6002 -0.1204  0.5198
  612SOL    HW1 1835   2.175   1.815   0.350 -0.5722 -1.2558  0.3591
  612SOL    HW2 1836   2.110   1.773   0.504  0.7300 -0.3400 -1.1420
  613SOL     OW 1837   1.496   1.659   0.347 -0.3481  0.3632  0.4249
  613SOL    HW1 1838   1.512   1.750   0.302 -0.6658  0.5279 -0.6257
  613SOL    HW2 1839   1.543   1.582   0.295 -0.6719  2.2285 -0.4819
  614SOL     OW 1840   2.801   0.531   2.530 -0.0109  0.1804  0.3792
  614SOL    HW1 1841   2.771   0.562   2.440  0.3195  0.1957 -1.7240
  614SOL    HW2 1842   2.894   0.558   2.559 -0.4087  0.2095  2.2786
  615SOL     OW 1843   0.826   1.737   0.477  0.0584 -0.0770 -0.0802
  615SOL    HW1 1844   0.911   1.690   0.461 -0.5612  0.2549 -0.8806
  615SOL    HW2 1845   0.796   1.727   0.570 -0.6663  1.0475  1.0595
  616SOL     OW 1846   1.384   0.932   2.748 -0.8470  0.2215  0.4663
  616SOL    HW1 1847   1.452   0.854   2.740 -0.3106  0.3124 -1.6146
  616SOL    HW2 1848   1.345   0.934   2.838  1.3259  1.5326 -1.0444
  617SOL     OW 1849   1.663   0.410   0.509  0.7037  0.2711 -0.2510
  617SOL    HW1 1850   1.633   0.509   0.500 -2.1088  1.8631 -0.3154
  617SOL    HW2 1851   1.604   0.351   0.445  0.6747  1.8619  1.2133
  618SOL     OW 1852   2.880   1.874   2.308 -0.0256  0.0895  0.3254
  618SOL    HW1 1853   2.959   1.862   2.246 -0.2429  0.0296 -0.3569
  618SOL    HW2 1854   2.811   1.799   2.292  0.6204  0.0506  1.7989
  619SOL     OW 1855   2.339   1.683   0.828 -0.3617 -0.2033 -0.1077
  619SOL    HW1 1856   2.356   1.697   0.928  0.4574  0.2859 -1.3708
  619SOL    HW2 1857   2.411   1.736   0.773  1.5815 -2.1676  1.6437
  620SOL     OW 1858   2.307   0.034   1.146 -0.0368  0.1397 -0.3728
  620SOL    HW1 1859   2.231   0.082   1.096 -3.1241 -0.4169  1.6316
  620SOL    HW2 1860   2.277   3.024   1.190  1.4019 -1.9971 -0.7459
  621SOL     OW 1861   0.038   2.030   0.549 -0.1432  0.5897 -0.2192
  621SOL    HW1 1862   3.024   2.039   0.507  2.5305 -0.8923  1.5137
  621SOL    HW2 1863   0.046   2.072   0.644  1.1011 -0.0042  2.9102
  622SOL     OW 1864   0.727   1.807   2.125  0.0262 -0.8912  0.1363
  622SOL    HW1 1865   0.702   1.889   2.070  0.5565 -1.2297 -0.4068
  622SOL    HW2 1866   0.830   1.798   2.135  0.9896  1.3649  0.1202
  623SOL     OW 1867   2.427   2.937   2.308 -0.5171  0.1540 -0.2230
  623SOL    HW1 1868   2.351   3.001   2.320  3.9353 -1.2908  1.7515
  623SOL    HW2 1869   2.491   2.932   2.388  2.6404 -0.3028 -1.0041
  624SOL     OW 1870   0.794   1.995   0.413  0.1693  0.2737 -0.4788
  624SOL    HW1 1871   0.797   1.892   0.423 -1.1967 -2.7529 -2.4095
  624SOL    HW2 1872   0.706   2.017   0.367 -0.0806  0.4392  1.9854
  625SOL     OW 1873   0.992   1.780   2.135 -0.4135  0.2231 -0.3550
  625SOL    HW1 1874   1.056   1.775   2.056 -0.3622 -0.4442  2.2248
  625SOL    HW2 1875   1.042   1.814   2.220  0.8893 -1.1153  1.1218
  626SOL     OW 1876   0.005   2.416   0.354  0.0646 -0.5038 -0.3921
  626SOL    HW1 1877   0.067   2.371   0.420  0.8582 -0.0941  1.3320
  626SOL    HW2 1878   3.050   2.346   0.282  0.8935 -0.3285  0.6723
  627SOL     OW 1879   1.277   1.667   2.297 -0.0135  0.0055 -0.1970
  627SOL    HW1 1880   1.248   1.602   2.225  1.2917 -0.7007  0.2210
  627SOL    HW2 1881   1.199   1.698   2.352 -0.3691  2.7661 -2.4010
  628SOL     OW 1882   1.212   1.859   0.332 -0.7866 -0.2524 -0.1532
  628SOL    HW1 1883   1.140   1.913   0.283  0.4147 -0.5537 -0.6890
  628SOL    HW2 1884   1.300   1.908   0.348 -1.1572  0.4111 -0.5297
  629SOL     OW 1885   0.888   0.537   1.798  0.0272 -0.0966  0.0427
  629SOL    HW1 1886   0.844   0.559   1.890  2.2975  2.0481  2.7098
  629SOL    HW2 1887   0.982   0.572   1.804  0.8105 -1.8049  0.9857
  630SOL     OW 1888   2.401   2.893   1.529 -0.4436 -0.0551  0.3275
  630SOL    HW1 1889   2.423   2.825   1.601 -1.0327 -0.9376  2.3319
  630SOL    HW2 1890   2.306   2.877   1.495 -0.0480  3.8994  2.3991
  631SOL     OW 1891   1.510   0.720   0.769 -0.0094 -0.0479 -0.2055
  631SOL    HW1 1892   1.418   0.763   0.784 -0.8147 -1.4420 -1.4118
  631SOL    HW2 1893   1.515   0.623   0.798  1.6079 -1.1492  0.2237
  632SOL     OW 1894   2.203   0.464   2.195 -0.0025  1.1296 -0.4272
  632SOL    HW1 1895   2.288   0.449   2.247  2.7453 -0.3964  1.3247
  632SOL    HW2 1896   2.188   0.561   2.173 -0.1960  2.2459 -1.1669
  633SOL     OW 1897   1.599   0.963   2.963 -0.3953  0.1883  0.7011
  633SOL    HW1 1898   1.504   0.928   2.978  0.0677 -0.1872 -0.3200
  633SOL    HW2 1899   1.657   0.891   2.921 -3.6257  3.0470  1.7855
  634SOL     OW 1900   0.319   1.991   0.143 -0.2894 -0.2766  0.1950
  634SOL    HW1 1901   0.411   2.014   0.177 -1.7031 -0.3894 -1.0539
  634SOL    HW2 1902   0.306   2.039   0.050 -0.1179  1.1415 -1.4227
  635SOL     OW 1903   2.885   1.543   1.950  0.4265 -0.2780 -0.6768
  635SOL    HW1 1904   2.974   1.522   1.992 -1.0194  1.7293  1.7748
  635SOL    HW2 1905   2.817   1.485   1.996 -1.5449  2.5338 -1.6001
  636SOL     OW 1906   0.430   1.692   2.692  0.0016  0.0719  0.2551
  636SOL    HW1 1907   0.479   1.617   2.748  0.5334  0.7762 -0.0003
  636SOL    HW2 1908   0.341   1.656   2.656 -0.4531 -1.3046  2.3317
  637SOL     OW 1909   0.076   2.044   0.268  0.1395  0.2145 -0.2098
  637SOL    HW1 1910   0.163   2.028   0.215  0.3739  0.9649 -2.6428
  637SOL    HW2 1911   0.080   2.034   0.366  0.7625  0.6886 -5.4168
  638SOL     OW 1912   2.415   2.598   0.478 -0.0319 -0.3774 -0.8062
  638SOL    HW1 1913   2.387   2.668   0.545  1.4208  2.7078 -1.1349
  638SOL    HW2 1914   2.410   2.635   0.382 -0.4974 -0.2852 -1.5216
  639SOL     OW 1915   0.753   0.628   0.348  0.0064 -0.7295 -0.3282
  639SOL    HW1 1916   0.825   0.600   0.284 -3.7937 -0.6583 -1.7433
  639SOL    HW2 1917   0.786   0.639   0.446 -0.7697 -1.1736  2.7585
  640SOL     OW 1918   2.360   2.295   1.879 -0.2284  0.0001  0.3860
  640SOL    HW1 1919   2.450   2.340   1.853  1.5838 -3.4034  0.2053
  640SOL    HW2 1920   2.317   2.270   1.790 -0.3817 -0.8688 -2.5026
  641SOL     OW 1921   2.489   2.889   1.276  0.0108 -0.0548  0.2137
  641SOL    HW1 1922   2.411   2.931   1.229  1.4206  1.3878 -0.2127
  641SOL    HW2 1923   2.474   2.890   1.377 -0.7344 -1.0089 -0.3656
  642SOL     OW 1924   1.001   1.016   1.590  0.1180 -0.1125 -0.2441
  642SOL    HW1 1925   0.990   0.921   1.553  1.0273  0.2564  0.8440
  642SOL    HW2 1926   1.098   1.046   1.570 -2.0994  2.7384 -1.2145
  643SOL     OW 1927   1.087   1.344   1.928 -0.1422  0.2453  0.1128
  643SOL    HW1 1928   0.983   1.337   1.934  1.7572  1.3059 -0.8047
  643SOL    HW2 1929   1.117   1.428   1.871 -2.7907  6.4899 -2.6795
  644SOL     OW 1930   1.076   0.263   2.212 -0.7612  0.0795  0.3772
  644SOL    HW1 1931   1.115   0.323   2.137 -0.8211 -0.4671  1.2919
  644SOL    HW2 1932   1.154   0.249   2.272  1.5213 -0.4094 -2.8351
  645SOL     OW 1933   1.936   1.178   1.459  0.4979  0.1200 -0.6703
  645SOL    HW1 1934   1.925   1.167   1.360 -0.5696 -0.9999  1.3496
  645SOL    HW2 1935   1.993   1.259   1.476  2.4503 -1.3947 -0.0301
  646SOL     OW 1936   1.725   2.307   0.035  1.0176  0.0769  0.0600
  646SOL    HW1 1937   1.768   2.323   3.021  1.8553 -3.5841 -0.2385
  646SOL    HW2 1938   1.749   2.211   0.058 -0.1542 -0.2301 -0.0476
  647SOL     OW 1939   1.572   2.667   0.878 -0.0490  0.0191  0.0211
  647SOL    HW1 1940   1.609   2.706   0.798 -1.0332 -1.0585 -0.4273
  647SOL    HW2 1941   1.532   2.581   0.863  1.3017  1.7281  1.5835
  648SOL     OW 1942   0.016   2.524   1.518  0.2243  0.0358  0.2383
  648SOL    HW1 1943   0.032   2.591   1.440  2.2114  3.1030 -0.5758
  648SOL    HW2 1944   2.999   2.530   1.553 -0.0935  1.8629 -0.7748
  649SOL     OW 1945   1.169   2.571   2.918  0.0319  0.3433 -0.0945
  649SOL    HW1 1946   1.169   2.479   2.964 -0.8771  1.2874 -0.5557
  649SOL    HW2 1947   1.241   2.582   2.846  0.1101  1.9676  0.3553
  650SOL     OW 1948   2.650   1.561   0.079  0.3341  0.6182  0.0083
  650SOL    HW1 1949   2.617   1.487   0.145 -0.5017  1.4236  2.1048
  650SOL    HW2 1950   2.681   1.638   0.132 -1.9073 -3.9470  0.4775
  651SOL     OW 1951   2.341   2.195   2.418  0.1575 -0.1105 -0.0865
  651SOL    HW1 1952   2.422   2.187   2.355 -0.4532 -1.5439 -0.7404
  651SOL    HW2 1953   2.275   2.119   2.410  2.0654  0.5517  2.2033
  652SOL     OW 1954   2.575   2.370   0.516  0.0939  0.3964 -0.0658
  652SOL    HW1 1955   2.521   2.453   0.488 -1.4527  1.1746 -0.4425
  652SOL    HW2 1956   2.628   2.328   0.434  0.3095 -1.9387 -1.1607
  653SOL     OW 1957   2.681   1.734   1.386  0.2152 -0.0514 -0.0438
  653SOL    HW1 1958   2.687   1.815   1.324  1.5367  1.8861 -0.8299
  653SOL    HW2 1959   2.776   1.692   1.395 -1.1656  1.1640  0.6342
  654SOL     OW 1960   0.604   1.114   0.006 -0.3400 -0.5640  0.0881
  654SOL    HW1 1961   0.683   1.173   3.052  2.6202 -1.9068  1.3955
  654SOL    HW2 1962   0.586   1.035   3.018 -0.5410  1.1415 -3.1880
  655SOL     OW 1963   1.158   1.256   0.869 -0.6033 -0.3705  0.1880
  655SOL    HW1 1964   1.254   1.221   0.858  1.2697  0.6418  1.1204
  655SOL    HW2 1965   1.157   1.353   0.839  0.1607 -0.3201 -0.1087
  656SOL     OW 1966   1.486   2.626   2.158 -0.0269  0.6603 -0.1502
  656SOL    HW1 1967   1.417   2.661   2.224  1.1812  1.9546 -0.4230
  656SOL    HW2 1968   1.493   2.523   2.173  0.4813 -1.5825  0.9709
  657SOL     OW 1969   1.760   1.468   0.431  0.0441  0.2389 -0.4173
  657SOL    HW1 1970   1.784   1.371   0.452 -0.6196  1.7141  2.0546
  657SOL    HW2 1971   1.734   1.478   0.334  0.1857 -0.4489  0.2408
  658SOL     OW 1972   1.859   0.027   1.820  0.1681  0.8788  0.0341
  658SOL    HW1 1973   1.867   3.017   1.873  1.3414  1.2174 -0.7855
  658SOL    HW2 1974   1.915   0.023   1.735 -0.3541  1.0004 -1.8179
  659SOL     OW 1975   2.778   1.745   0.243 -0.3160 -0.3726  0.8746
  659SOL    HW1 1976   2.863   1.687   0.248 -2.9289 -3.5239  0.6005
  659SOL    HW2 1977   2.728   1.747   0.329  0.4169 -0.1792 -3.0846
  660SOL     OW 1978   1.102   0.230   0.904  0.1364 -0.3111  0.0537
  660SOL    HW1 1979   1.023   0.174   0.937 -2.1041 -0.3378  1.7926
  660SOL    HW2 1980   1.156   0.179   0.836  1.6425  1.4368  1.4497
  661SOL     OW 1981   1.666   0.322   0.117  0.1197  0.4865 -0.3412
  661SOL    HW1 1982   1.763   0.330   0.152 -1.6535  2.4094 -0.3752
  661SOL    HW2 1983   1.656   0.253   0.041 -2.3983 -0.7150  2.4608
  662SOL     OW 1984   0.483   0.004   0.496  0.4742 -0.1513 -0.1985
  662SOL    HW1 1985   0.448   3.026   0.580  0.4436 -1.9880  0.5518
  662SOL    HW2 1986   0.521   3.022   0.416 -0.9770 -3.2191 -0.9735
  663SOL     OW 1987   1.372   2.565   2.715  0.1442  0.0323  0.1596
  663SOL    HW1 1988   1.314   2.594   2.638  1.1522 -3.7399  4.7930
  663SOL    HW2 1989   1.396   2.464   2.714  0.4659 -1.4057  0.4813
  664SOL     OW 1990   0.461   2.468   1.371  0.3810 -0.0140 -0.0362
  664SOL    HW1 1991   0.452   2.365   1.371 -0.6050 -0.6672  2.4191
  664SOL    HW2 1992   0.440   2.509   1.277  1.8611 -1.0473 -1.6063
  665SOL     OW 1993   1.513   2.859   1.229 -0.2402 -0.2119  0.1843
  665SOL    HW1 1994   1.467   2.828   1.143  1.4213  1.8074 -0.1809
  665SOL    HW2 1995   1.556   2.954   1.213 -0.2474  1.2507 -0.4466
  666SOL     OW 1996   0.829   2.174   2.694  0.1980 -0.3748 -0.0231
  666SOL    HW1 1997   0.812   2.274   2.688 -1.7862  2.3710 -4.3682
  666SOL    HW2 1998   0.813   2.140   2.789 -0.5978 -4.2051 -0.9624
  667SOL     OW 1999   2.900   0.747   1.502  0.0228  0.2435  0.1834
  667SOL    HW1 2000   2.834   0.746   1.577  0.0346  1.6563  0.3309
  667SOL    HW2 2001   2.965   0.666   1.513  1.4233 -0.7459  2.6015
  668SOL     OW 2002   1.019   0.202   1.623  0.3995  0.6741  0.1940
  668SOL    HW1 2003   1.061   0.201   1.529  1.0991  3.1228 -2.5025
  668SOL    HW2 2004   0.929   0.248   1.623 -2.6094 -3.7187  0.2854
  669SOL     OW 2005   1.796   2.781   1.277  0.0117 -0.2924 -0.2282
  669SOL    HW1 2006   1.698   2.805   1.278  1.3311 -0.9794 -0.5864
  669SOL    HW2 2007   1.847   2.862   1.307  2.6594  0.1645  0.2750
  670SOL     OW 2008   1.764   2.268   2.809 -0.1680  0.4331  0.2519
  670SOL    HW1 2009   1.662   2.255   2.812 -0.8587 -1.2661 -1.3032
  670SOL    HW2 2010   1.784   2.346   2.745 -0.7915  0.8337  2.1980
  671SOL     OW 2011   0.142   1.219   2.922 -0.3081  0.1403  0.0759
  671SOL    HW1 2012   0.069   1.253   2.863  0.0145  0.7792 -0.6263
  671SOL    HW2 2013   0.228   1.229   2.871  0.6790 -0.6148 -0.7480
  672SOL     OW 2014   2.654   0.494   2.771 -0.1844 -1.0297 -0.1030
  672SOL    HW1 2015   2.686   0.555   2.849  1.2945  0.5580 -1.9117
  672SOL    HW2 2016   2.699   0.519   2.683 -0.1103 -0.5356  2.3733
  673SOL     OW 2017   0.122   2.046   1.259 -0.3115 -0.3392  0.2422
  673SOL    HW1 2018   0.030   2.006   1.265  1.9067 -1.6303 -1.2926
  673SOL    HW2 2019   0.127   2.124   1.320  1.3711 -2.5070  0.2216
  674SOL     OW 2020   1.469   2.056   1.469  0.1091 -0.2334  0.3698
  674SOL    HW1 2021   1.431   2.016   1.553  0.9326  3.1857  2.1283
  674SOL    HW2 2022   1.439   2.005   1.392 -3.1377 -0.1044  3.7493
  675SOL     OW 2023   1.224   1.416   1.154  0.4613 -0.4385 -0.3218
  675SOL    HW1 2024   1.296   1.450   1.093 -1.1685 -2.0595 -0.2841
  675SOL    HW2 2025   1.137   1.405   1.100 -2.0826  1.4321  1.1333
  676SOL     OW 2026   2.510   0.683   0.950 -0.1616 -0.3816 -0.4833
  676SOL    HW1 2027   2.413   0.676   0.928 -0.1648 -0.1731 -0.9499
  676SOL    HW2 2028   2.520   0.698   1.051 -1.3797 -1.5519  0.4808
  677SOL     OW 2029   2.582   0.299   0.475  0.2597 -0.3711  0.1171
  677SOL    HW1 2030   2.616   0.203   0.494 -0.5146 -2.3027  0.0554
  677SOL    HW2 2031   2.636   0.339   0.397 -0.3189  0.8961  1.5278
  678SOL     OW 2032   2.592   1.247   1.092 -0.2327 -0.3096  0.7334
  678SOL    HW1 2033   2.598   1.349   1.077 -0.2495 -0.4042  1.7696
  678SOL    HW2 2034   2.578   1.222   1.190  0.8110 -2.8704  0.1383
  679SOL     OW 2035   2.718   0.379   0.236  0.2662 -0.3656 -0.4391
  679SOL    HW1 2036   2.619   0.361   0.206 -3.5233 -0.2090 -0.2649
  679SOL    HW2 2037   2.784   0.319   0.184 -0.1688  0.0243  0.4153
  680SOL     OW 2038   0.558   1.622   2.173 -0.0162  0.7008 -0.3099
  680SOL    HW1 2039   0.633   1.683   2.154 -3.0219 -2.1901  2.0581
  680SOL    HW2 2040   0.502   1.650   2.253 -1.0495  1.6711  0.4370
  681SOL     OW 2041   2.702   2.065   1.683 -0.1845  0.0526 -0.1753
  681SOL    HW1 2042   2.765   2.143   1.696 -2.2489 -0.8047 -0.0499
  681SOL    HW2 2043   2.642   2.048   1.764 -0.0388 -0.0662  1.7969
  682SOL     OW 2044   0.547   1.797   2.468 -0.1877 -0.8375  0.0787
  682SOL    HW1 2045   0.484   1.770   2.545  0.8037  1.4850 -3.4970
  682SOL    HW2 2046   0.584   1.892   2.490  2.0439  3.2839 -0.2197
  683SOL     OW 2047   2.709   1.968   1.235 -0.2078 -0.0471 -0.1434
  683SOL    HW1 2048   2.665   1.971   1.141 -1.3021  0.2036  2.3320
  683SOL    HW2 2049   2.684   2.051   1.287 -2.1539 -1.2002  0.4523
  684SOL     OW 2050   2.572   1.494   1.985 -0.6158  0.1357  0.2808
  684SOL    HW1 2051   2.514   1.513   2.065  0.5361  1.5554 -0.3521
  684SOL    HW2 2052   2.557   1.398   1.944  0.4532 -0.0696  1.5515
  685SOL     OW 2053   0.865   1.047   0.958  0.1807 -0.1969  0.3322
  685SOL    HW1 2054   0.867   1.146   0.937  1.4957 -0.8547 -0.6957
  685SOL    HW2 2055   0.858   1.033   1.060 -1.6137 -0.3388 -0.6120
  686SOL     OW 2056   1.029   0.022   2.742 -0.4895 -0.1766 -0.6149
  686SOL    HW1 2057   0.983   3.016   2.773  0.2698 -1.2549 -0.5109
  686SOL    HW2 2058   0.970   0.101   2.762  0.4618 -0.6643  2.1208
  687SOL     OW 2059   0.590   2.059   1.963 -0.5842 -0.0452  0.5265
  687SOL    HW1 2060   0.553   2.037   1.869 -1.3049  1.9420 -3.4554
  687SOL    HW2 2061   0.647   2.144   1.953  0.3596  3.7065  0.6746
  688SOL     OW 2062   1.981   0.365   1.609  0.3881  0.0173  0.1071
  688SOL    HW1 2063   1.887   0.347   1.574  1.2784 -1.8402  0.3806
  688SOL    HW2 2064   2.018   0.457   1.583  1.4004  0.3864 -1.1884
  689SOL     OW 2065   2.095   0.906   0.664  0.2752 -0.8657  0.7222
  689SOL    HW1 2066   2.010   0.882   0.710 -0.4093  1.6645  1.0563
  689SOL    HW2 2067   2.164   0.919   0.742 -0.7519 -0.5214  0.3077
  690SOL     OW 2068   2.810   1.019   1.254 -0.3440 -0.0044  0.0035
  690SOL    HW1 2069   2.882   1.057   1.193  0.2784 -2.6843  1.3122
  690SOL    HW2 2070   2.786   0.921   1.242  1.0853 -1.6466 -0.0711
  691SOL     OW 2071   0.259   1.101   2.013  0.2114  0.1669  0.6178
  691SOL    HW1 2072   0.249   1.165   1.929  1.1232  2.0812 -2.4449
  691SOL    HW2 2073   0.349   1.059   2.013 -1.9796  1.3798  1.5081
  692SOL     OW 2074   0.727   0.884   1.815 -0.4947  0.1565  0.6106
  692SOL    HW1 2075   0.814   0.844   1.849  0.8090  2.0579  0.5996
  692SOL    HW2 2076   0.725   0.895   1.713 -0.8403  2.2171  0.1445
  693SOL     OW 2077   0.539   1.272   1.919 -0.3956 -0.7934 -0.0698
  693SOL    HW1 2078   0.537   1.172   1.939 -1.6669 -0.5948 -0.3847
  693SOL    HW2 2079   0.482   1.322   1.994 -3.0992 -0.0149  0.7931
  694SOL     OW 2080   1.330   1.835   0.606 -0.1819  0.0933 -0.1177
  694SOL    HW1 2081   1.403   1.881   0.553 -1.0447  1.4529 -1.5800
  694SOL    HW2 2082   1.278   1.773   0.541 -2.7756 -1.1223  0.2426
  695SOL     OW 2083   0.160   1.026   0.927  0.5022 -0.1158  0.1756
  695SOL    HW1 2084   0.100   1.104   0.897  1.0238  1.0124 -1.0810
  695SOL    HW2 2085   0.147   0.956   0.857 -0.6828 -2.0471 -1.6930
  696SOL     OW 2086   0.810   2.468   0.596  0.5540  0.0387  0.3537
  696SOL    HW1 2087   0.754   2.390   0.627 -1.3878 -0.2335 -1.0642
  696SOL    HW2 2088   0.910   2.465   0.620 -0.5445  1.7881 -2.4471
  697SOL     OW 2089   1.201   0.592   1.532  0.4520  0.5807  0.5753
  697SOL    HW1 2090   1.247   0.665   1.482 -0.0031  0.2739 -0.3919
  697SOL    HW2 2091   1.116   0.558   1.482 -2.4315  1.7354 -1.1536
  698SOL     OW 2092   1.725   1.475   1.567 -0.3749 -0.3091 -0.2785
  698SOL    HW1 2093   1.707   1.557   1.624 -1.8593  0.1351  0.5014
  698SOL    HW2 2094   1.770   1.498   1.480  1.1852 -0.5366 -0.5085
  699SOL     OW 2095   0.241   0.717   2.498 -0.0400  0.0313  0.3923
  699SOL    HW1 2096   0.158   0.728   2.435  0.0268  1.4961 -1.2229
  699SOL    HW2 2097   0.279   0.624   2.486 -1.0264 -2.0360 -0.0776
  700SOL     OW 2098   1.555   2.290   0.439  0.2305 -0.2870 -0.0953
  700SOL    HW1 2099   1.634   2.332   0.393 -2.8985  1.6581 -0.3684
  700SOL    HW2 2100   1.465   2.318   0.398 -1.9186  3.5806 -1.4419
  701SOL     OW 2101   0.058   1.575   2.321  0.0204 -0.1926 -0.4302
  701SOL    HW1 2102   3.043   1.553   2.351  0.1536  0.5220  0.0122
  701SOL    HW2 2103   0.114   1.543   2.399  0.4642 -0.8642  1.0781
  702SOL     OW 2104   0.695   0.057   2.933  0.1196 -0.3000 -0.4888
  702SOL    HW1 2105   0.765   0.108   2.879  0.5362 -0.7743  0.7546
  702SOL    HW2 2106   0.611   0.112   2.955 -2.2957 -1.0250 -0.8125
  703SOL     OW 2107   1.467   0.622   2.892  0.8118 -0.5361 -0.0313
  703SOL    HW1 2108   1.547   0.561   2.918 -0.6618 -0.0433 -0.3548
  703SOL    HW2 2109   1.457   0.617   2.790  3.1983  3.0540  2.4247
  704SOL     OW 2110   2.748   1.609   0.798 -0.4531  0.6603 -0.2122
  704SOL    HW1 2111   2.747   1.624   0.897 -2.0124 -2.4297 -1.4565
  704SOL    HW2 2112   2.762   1.700   0.756 -0.0456 -0.9479  2.0411
  705SOL     OW 2113   2.466   2.009   2.172  0.1878  0.0535 -0.2215
  705SOL    HW1 2114   2.517   2.086   2.219  0.0062  0.2016  2.0129
  705SOL    HW2 2115   2.512   1.988   2.083  2.1864  2.0444  0.7426
  706SOL     OW 2116   3.051   2.752   0.952  0.2155 -0.4046  0.0858
  706SOL    HW1 2117   0.055   2.692   0.954 -0.5884  2.9853 -0.6754
  706SOL    HW2 2118   2.991   2.729   0.874  2.7568 -1.6442 -0.6725
  707SOL     OW 2119   1.028   2.937   0.082 -0.0878 -0.1054  0.1039
  707SOL    HW1 2120   1.019   2.866   0.152  2.4993  1.3677 -0.4560
  707SOL    HW2 2121   1.019   3.034   0.122  0.3241  0.0595  1.0695
  708SOL     OW 2122   0.921   2.229   1.493  0.2249  0.2297 -0.5155
  708SOL    HW1 2123   0.997   2.220   1.561 -1.5432  1.9307  0.4966
  708SOL    HW2 2124   0.863   2.310   1.512 -1.3672 -0.8355  0.6916
  709SOL     OW 2125   1.953   0.389   2.568 -0.0324  0.3801 -0.2378
  709SOL    HW1 2126   1.873   0.419   2.621  1.0352 -1.9800 -2.1635
  709SOL    HW2 2127   1.983   0.469   2.512  0.0154  1.4981 -0.7254
  710SOL     OW 2128   1.237   2.731   2.541 -0.6582 -0.2732  0.5393
  710SOL    HW1 2129   1.287   2.821   2.552  0.3826  0.8697  0.3017
  710SOL    HW2 2130   1.147   2.743   2.589  1.2329 -1.3060 -1.9297
  711SOL     OW 2131   1.131   2.291   2.554 -0.3657  0.0315  0.0833
  711SOL    HW1 2132   1.134   2.385   2.520  1.5984 -2.6376 -0.2433
  711SOL    HW2 2133   1.077   2.233   2.495  0.3838 -2.0477  0.8467
  712SOL     OW 2134   1.088   1.936   2.813  0.3079 -0.7276 -0.4039
  712SOL    HW1 2135   1.006   1.938   2.752 -1.4473 -0.2328 -1.8736
  712SOL    HW2 2136   1.108   1.841   2.850  0.5115 -1.0475 -0.8138
  713SOL     OW 2137   0.989   0.862   1.812  0.0666 -0.1652 -0.3004
  713SOL    HW1 2138   0.992   0.918   1.731  0.1067  0.5424  1.6101
  713SOL    HW2 2139   1.071   0.799   1.817 -1.8703  0.9392  0.2622
  714SOL     OW 2140   1.544   1.869   0.983  0.4804 -0.1002  0.1201
  714SOL    HW1 2141   1.611   1.887   0.908 -0.1147  2.1229  0.3251
  714SOL    HW2 2142   1.578   1.907   1.076 -0.5026  1.8759  1.3209
  715SOL     OW 2143   0.099   0.336   0.662  0.2468 -0.0620  0.3515
  715SOL    HW1 2144   0.031   0.331   0.736 -0.6619  2.3963 -1.6956
  715SOL    HW2 2145   0.052   0.309   0.576 -2.8102 -0.4963 -1.1553
  716SOL     OW 2146   0.741   2.697   0.397  0.1421 -0.0844 -0.1334
  716SOL    HW1 2147   0.826   2.727   0.353 -1.6911  1.1594 -0.3709
  716SOL    HW2 2148   0.759   2.619   0.462  0.5948 -2.5123  0.3670
  717SOL     OW 2149   3.059   0.299   0.406 -0.1127  0.7032  0.2056
  717SOL    HW1 2150   2.973   0.245   0.394 -0.2398 -0.7183  1.0726
  717SOL    HW2 2151   0.056   0.251   0.350 -1.4327  1.0547 -1.5898
  718SOL     OW 2152   1.779   2.212   1.113 -0.0363  0.2827 -0.1580
  718SOL    HW1 2153   1.726   2.127   1.124  0.8349  2.9552 -1.8888
  718SOL    HW2 2154   1.832   2.236   1.196  0.6145 -1.8980 -0.0606
  719SOL     OW 2155   2.829   2.437   0.963 -0.2130 -0.4424 -0.3570
  719SOL    HW1 2156   2.767   2.361   0.922 -0.5001 -1.8549  0.9266
  719SOL    HW2 2157   2.851   2.506   0.895 -2.5184 -0.5521 -0.7803
  720SOL     OW 2158   1.118   1.148   1.135 -0.2164  0.7083 -0.4602
  720SOL    HW1 2159   1.122   1.180   1.038 -0.9685  1.0460 -0.1688
  720SOL    HW2 2160   1.204   1.103   1.158 -0.0978 -1.7610  0.3433
  721SOL     OW 2161   1.304   0.561   1.146 -0.2508  0.4670 -0.5686
  721SOL    HW1 2162   1.208   0.522   1.148 -0.6184 -2.3693 -1.1129
  721SOL    HW2 2163   1.364   0.511   1.079 -0.6115 -1.8568  0.4951
  722SOL     OW 2164   1.267   1.040   1.540  0.6834 -0.4748  0.0806
  722SOL    HW1 2165   1.296   0.944   1.505  0.1780 -1.1986  0.4506
  722SOL    HW2 2166   1.281   1.110   1.465  0.6583 -0.7514 -1.8343
  723SOL     OW 2167   0.885   2.761   1.521 -0.4148 -0.3684 -0.1877
  723SOL    HW1 2168   0.805   2.734   1.464 -1.7905  0.7281 -0.4291
  723SOL    HW2 2169   0.959   2.697   1.508  0.9850  3.7880 -2.0076
  724SOL     OW 2170   2.012   2.150   1.700 -0.0593  0.3768  0.1605
  724SOL    HW1 2171   2.069   2.081   1.748 -0.1465 -1.4213 -0.2823
  724SOL    HW2 2172   1.940   2.092   1.655  0.0236  1.0191 -0.0295
  725SOL     OW 2173   0.916   2.738   1.198  0.1946 -0.4025 -0.4072
  725SOL    HW1 2174   0.891   2.640   1.191  0.3545 -1.2869  0.9493
  725SOL    HW2 2175   0.985   2.747   1.275  2.2852 -1.4099  3.1233
  726SOL     OW 2176   1.557   0.245   0.337 -0.2206  0.2125  0.0732
  726SOL    HW1 2177   1.610   0.158   0.358 -1.7167 -2.2546  0.5461
  726SOL    HW2 2178   1.588   0.281   0.250 -2.1204 -0.0919  3.1281
  727SOL     OW 2179   1.316   2.102   0.672  0.2125 -0.0110  0.7655
  727SOL    HW1 2180   1.405   2.146   0.702  3.0251  2.3649  0.2086
  727SOL    HW2 2181   1.326   2.002   0.648 -1.0919  2.4909  0.2177
  728SOL     OW 2182   1.709   0.335   2.265  0.3107  0.3091  0.0847
  728SOL    HW1 2183   1.708   0.435   2.268 -0.9083 -4.0958  1.3084
  728SOL    HW2 2184   1.810   0.306   2.272 -0.1363  0.7765 -0.7369
  729SOL     OW 2185   2.398   1.434   1.287 -0.1622  0.3049  0.0455
  729SOL    HW1 2186   2.306   1.480   1.262  0.8214  0.7666  0.2723
  729SOL    HW2 2187   2.465   1.458   1.216 -0.3711  0.4052 -1.6058
  730SOL     OW 2188   1.983   0.849   2.427 -0.2760  0.1571  0.1824
  730SOL    HW1 2189   2.031   0.886   2.507 -0.3176  1.2572 -1.9443
  730SOL    HW2 2190   1.892   0.890   2.417  0.9393 -0.1785  0.5728
  731SOL     OW 2191   0.467   0.195   1.664 -0.3867 -0.4331 -0.4009
  731SOL    HW1 2192   0.416   0.257   1.602  1.9825 -0.0424 -0.0081
  731SOL    HW2 2193   0.411   0.133   1.720 -2.2688  1.9528  1.6250
  732SOL     OW 2194   1.714   0.415   1.057 -0.0535 -0.8247 -0.0023
  732SOL    HW1 2195   1.737   0.451   1.151 -1.6588  0.2126 -2.0563
  732SOL    HW2 2196   1.787   0.361   1.014 -1.7036 -1.9412  0.3354
  733SOL     OW 2197   0.900   1.247   1.689 -0.4325  0.3478  0.9702
  733SOL    HW1 2198   0.804   1.262   1.690  1.9504 -0.2091 -0.9785
  733SOL    HW2 2199   0.927   1.159   1.645 -0.7355  0.3731  0.9928
  734SOL     OW 2200   2.412   1.561   0.424 -0.4183 -0.3441  0.1113
  734SOL    HW1 2201   2.343   1.610   0.364 -1.3288 -0.3711  0.8532
  734SOL    HW2 2202   2.482   1.624   0.463 -0.2581 -0.4412  0.4470
  735SOL     OW 2203   0.654   0.850   0.238  0.1981 -0.1494 -0.0158
  735SOL    HW1 2204   0.661   0.848   0.136 -0.6546 -1.9300 -0.5544
  735SOL    HW2 2205   0.691   0.763   0.279  1.2342  0.4600  0.4116
  736SOL     OW 2206   1.868   2.691   2.871 -0.2196  0.2139 -0.0036
  736SOL    HW1 2207   1.931   2.646   2.937 -1.3655  0.5382 -0.1612
  736SOL    HW2 2208   1.770   2.666   2.895 -1.7249 -1.1064  0.2412
  737SOL     OW 2209   1.200   2.048   0.910  0.6339  0.2485 -0.1834
  737SOL    HW1 2210   1.211   1.947   0.930 -0.9487 -2.5336  0.0309
  737SOL    HW2 2211   1.244   2.071   0.821 -0.7902 -2.9384  2.4166
  738SOL     OW 2212   2.217   0.364   2.637 -0.5877 -0.4558  0.6268
  738SOL    HW1 2213   2.260   0.451   2.669  1.8446 -0.9242 -3.1937
  738SOL    HW2 2214   2.124   0.376   2.600  3.0409 -1.8774 -2.2244
  739SOL     OW 2215   1.636   2.236   2.502  0.2749 -0.1851  0.6368
  739SOL    HW1 2216   1.636   2.153   2.440  1.0455  0.3833 -0.3940
  739SOL    HW2 2217   1.720   2.294   2.478  3.1993 -2.0712  4.1052
  740SOL     OW 2218   1.826   2.246   1.886 -0.2181 -0.7615  0.1274
  740SOL    HW1 2219   1.753   2.286   1.828 -0.3024 -1.0685  0.5482
  740SOL    HW2 2220   1.919   2.231   1.841  3.5213  0.0376  0.2354
  741SOL     OW 2221   2.337   1.833   2.538 -0.1059 -0.4540 -0.0422
  741SOL    HW1 2222   2.275   1.861   2.458 -1.3507  0.4074 -0.2918
  741SOL    HW2 2223   2.322   1.899   2.609  1.0783 -1.2372 -0.2597
  742SOL     OW 2224   1.010   1.514   2.816 -0.5376  0.0324 -0.0162
  742SOL    HW1 2225   1.051   1.424   2.845 -1.1720  0.6991  2.1566
  742SOL    HW2 2226   0.988   1.507   2.716 -0.8743  0.0583 -0.0532
  743SOL     OW 2227   1.465   1.187   2.680  0.0815  0.0821 -0.7825
  743SOL    HW1 2228   1.421   1.101   2.700  0.9484  1.3819 -3.9662
  743SOL    HW2 2229   1.457   1.260   2.754 -0.9687  0.4907  1.1111
  744SOL     OW 2230   2.184   2.898   1.277  0.3093  0.4061  0.1114
  744SOL    HW1 2231   2.151   2.844   1.358 -1.0708 -0.9333 -1.8114
  744SOL    HW2 2232   2.108   2.899   1.207 -0.5142  1.2477  2.0836
  745SOL     OW 2233   2.458   1.109   0.898  0.4693  0.3130  0.4046
  745SOL    HW1 2234   2.511   1.165   0.960 -0.2989  0.6954 -1.6102
  745SOL    HW2 2235   2.387   1.160   0.844 -1.7372  1.0289 -0.5737
  746SOL     OW 2236   2.390   1.725   1.080  0.2126 -0.7780  0.5063
  746SOL    HW1 2237   2.460   1.648   1.097  0.7955 -1.5281  0.2459
  746SOL    HW2 2238   2.390   1.793   1.160 -0.2982  2.5422 -1.6034
  747SOL     OW 2239   1.859   0.044   0.239 -0.1135  0.0616 -0.4594
  747SOL    HW1 2240   1.803   0.003   0.314  1.1104  0.9422 -1.3644
  747SOL    HW2 2241   1.947   0.005   0.213 -3.4071 -0.9822  0.9323
  748SOL     OW 2242   0.652   1.598   0.257  0.3619  0.9219  0.0406
  748SOL    HW1 2243   0.668   1.680   0.311  0.1637  1.1501  1.9709
  748SOL    HW2 2244   0.739   1.551   0.234  0.5086  1.0426 -0.7741
  749SOL     OW 2245   2.886   0.411   2.209  0.7134  0.3651 -0.3767
  749SOL    HW1 2246   2.817   0.481   2.242  0.8835 -3.1357  0.1356
  749SOL    HW2 2247   2.982   0.444   2.223  1.9052 -1.3875  0.8848
  750SOL     OW 2248   1.162   0.644   1.795 -0.1748  0.0250  0.4801
  750SOL    HW1 2249   1.200   0.600   1.878  1.1668  0.9576  0.8617
  750SOL    HW2 2250   1.200   0.612   1.705  1.3757 -1.1697 -0.7895
  751SOL     OW 2251   2.250   2.481   2.065 -0.7305  0.0007  0.2911
  751SOL    HW1 2252   2.304   2.415   2.008 -0.0354  0.7164  4.4912
  751SOL    HW2 2253   2.278   2.577   2.032  0.3985 -1.0101  0.1042
  752SOL     OW 2254   1.941   1.345   1.163  0.6975  0.4613  0.0374
  752SOL    HW1 2255   1.893   1.257   1.193 -0.1378 -0.5782 -2.7173
  752SOL    HW2 2256   2.043   1.333   1.147  0.6725  2.3986 -0.6697
  753SOL     OW 2257   1.032   0.917   2.092  0.1308 -0.0082  0.2583
  753SOL    HW1 2258   1.013   0.919   1.992  0.5505  2.1006  1.0427
  753SOL    HW2 2259   1.107   0.851   2.121  0.2159 -0.6502  0.9941
  754SOL     OW 2260   0.293   2.373   0.879 -0.1470  0.2060 -0.0011
  754SOL    HW1 2261   0.315   2.470   0.856 -2.5075 -0.3112 -1.0628
  754SOL    HW2 2262   0.193   2.362   0.910 -1.4605  0.3509  5.0853
  755SOL     OW 2263   2.574   0.097   1.081 -0.0724 -0.2057 -0.5247
  755SOL    HW1 2264   2.646   0.062   1.146 -0.8438  1.3105  0.6688
  755SOL    HW2 2265   2.486   0.049   1.101 -1.1924 -0.9268  0.6451
  756SOL     OW 2266   1.974   2.052   2.179  0.2870  0.3334 -0.1401
  756SOL    HW1 2267   1.968   2.091   2.271  0.6468  0.5860 -0.9777
  756SOL    HW2 2268   2.063   2.079   2.135 -0.6929 -2.3746  1.0587
  757SOL     OW 2269   2.872   3.000   1.773  0.1769  0.9006 -0.1324
  757SOL    HW1 2270   2.867   3.058   1.689 -0.4748  1.9297 -2.2351
  757SOL    HW2 2271   2.955   3.026   1.825 -1.3929 -0.4768  1.3401
  758SOL     OW 2272   0.443   2.614   1.140 -0.4672 -0.5723  0.7201
  758SOL    HW1 2273   0.504   2.568   1.074 -0.0442 -1.1245  2.7737
  758SOL    HW2 2274   0.416   2.710   1.113 -2.9175 -0.7591 -0.3668
  759SOL     OW 2275   2.014   1.053   0.992 -0.3273 -0.3141  0.0864
  759SOL    HW1 2276   1.934   1.096   0.944 -0.9917  1.2788  2.0488
  759SOL    HW2 2277   2.066   1.134   1.034  2.3429  1.4553  0.3651
  760SOL     OW 2278   1.349   0.371   1.617 -0.4388  0.0082  0.1246
  760SOL    HW1 2279   1.301   0.329   1.690 -0.6614  1.2177  0.1494
  760SOL    HW2 2280   1.310   0.463   1.604  3.0544 -2.6276  0.9909
  761SOL     OW 2281   2.140   0.244   1.104 -0.2811  0.0616  0.5776
  761SOL    HW1 2282   2.228   0.287   1.073 -1.5774  0.3435 -0.1362
  761SOL    HW2 2283   2.061   0.275   1.054  0.2644  0.5906 -1.9530
  762SOL     OW 2284   1.674   3.070   0.410  0.1813 -0.1686 -0.3438
  762SOL    HW1 2285   1.695   0.003   0.507  1.4761 -2.2547  0.5056
  762SOL    HW2 2286   1.600   3.000   0.410  1.2791 -0.4629  0.0682
  763SOL     OW 2287   0.770   0.352   1.416  0.0693 -0.3597 -0.1458
  763SOL    HW1 2288   0.746   0.359   1.515  1.8420  0.8806  1.2874
  763SOL    HW2 2289   0.724   0.424   1.362 -0.0513  3.6492  0.2379
  764SOL     OW 2290   2.266   2.438   2.325 -0.1975 -0.2789 -0.1761
  764SOL    HW1 2291   2.298   2.352   2.365 -3.7089 -0.5983  0.1791
  764SOL    HW2 2292   2.255   2.438   2.220 -0.8759 -0.4050  0.3813
  765SOL     OW 2293   3.006   1.232   2.363 -0.2381 -0.5396  0.4415
  765SOL    HW1 2294   3.034   1.160   2.425  1.4807  0.7043 -0.3631
  765SOL    HW2 2295   2.954   1.305   2.411  4.2887 -1.0630  1.5238
  766SOL     OW 2296   2.901   0.883   2.456 -0.4596 -0.2451 -0.2166
  766SOL    HW1 2297   2.961   0.814   2.405  0.2662 -1.3406  1.9727
  766SOL    HW2 2298   2.819   0.901   2.397  2.0404 -0.5020 -3.0064
  767SOL     OW 2299   0.450   2.018   1.731  0.1141 -0.4323  0.4505
  767SOL    HW1 2300   0.456   1.956   1.653 -2.7109  1.0599 -2.3857
  767SOL    HW2 2301   0.367   2.081   1.723 -1.5764  0.0864 -0.1028
  768SOL     OW 2302   0.757   0.841   3.048  0.6765 -0.0398 -0.2736
  768SOL    HW1 2303   0.803   0.752   3.027  1.2868  2.4549  0.3432
  768SOL    HW2 2304   0.832   0.907   3.076 -0.5119 -0.6695 -0.9328
  769SOL     OW 2305   1.541   2.509   0.058  0.5410  0.3944 -0.0253
  769SOL    HW1 2306   1.451   2.504   0.108  0.2759 -2.1761  0.4674
  769SOL    HW2 2307   1.578   2.417   0.047  1.6276  2.3152 -1.3081
  770SOL     OW 2308   1.121   3.031   2.327  0.1281  0.3791 -0.3446
  770SOL    HW1 2309   1.216   3.035   2.292 -2.9316  3.3263  1.4563
  770SOL    HW2 2310   1.078   2.949   2.277 -4.3783 -0.3418  0.3269
  771SOL     OW 2311   0.774   2.823   0.765 -0.1957  0.1347  0.1238
  771SOL    HW1 2312   0.694   2.769   0.730  0.2826  1.9133  0.3154
  771SOL    HW2 2313   0.772   2.838   0.865  0.7880  1.6389 -1.0012
  772SOL     OW 2314   2.600   1.213   0.115  0.4492 -0.2582  0.3468
  772SOL    HW1 2315   2.581   1.281   0.189  0.5997  1.9512  0.7413
  772SOL    HW2 2316   2.688   1.171   0.146  1.2227  2.2737  0.7995
  773SOL     OW 2317   1.990   0.735   1.797  0.6363  0.0763 -0.3514
  773SOL    HW1 2318   2.043   0.747   1.886  2.4412 -2.9346  2.4813
  773SOL    HW2 2319   1.955   0.825   1.756 -0.1096 -1.1550 -0.8425
  774SOL     OW 2320   0.580   0.250   0.589  0.0496 -0.1672 -0.3817
  774SOL    HW1 2321   0.505   0.313   0.557 -1.0574  4.0143 -1.9913
  774SOL    HW2 2322   0.571   0.156   0.557 -1.4783  2.3014  1.5192
  775SOL     OW 2323   1.607   0.285   0.749  0.3236  0.0481 -0.7598
  775SOL    HW1 2324   1.676   0.327   0.807 -3.3776  0.8461  0.6576
  775SOL    HW2 2325   1.581   0.335   0.663 -1.1114  2.1762  1.0304
  776SOL     OW 2326   2.453   0.365   2.298  0.3974 -0.3720  0.1633
  776SOL    HW1 2327   2.521   0.323   2.240 -3.8537  0.2427  1.6282
  776SOL    HW2 2328   2.417   0.303   2.372 -1.0304 -0.6073  0.6701
  777SOL     OW 2329   1.396   1.378   0.258 -0.7059  0.2127 -0.6156
  777SOL    HW1 2330   1.332   1.418   0.190 -0.1455  0.7010 -0.9982
  777SOL    HW2 2331   1.339   1.330   0.329  0.0451 -1.8694  0.4036
  778SOL     OW 2332   0.237   2.546   0.294  0.0769 -0.9968 -0.4087
  778SOL    HW1 2333   0.151   2.502   0.323  0.4409 -1.5925  1.4800
  778SOL    HW2 2334   0.226   2.649   0.280 -2.4603  0.4019 -0.4349
  779SOL     OW 2335   2.993   1.593   0.223 -0.1489 -0.1728  0.0332
  779SOL    HW1 2336   3.012   1.518   0.154  2.6201  0.4378  0.2828
  779SOL    HW2 2337   3.047   1.579   0.309  0.9950 -1.4057  1.3354
  780SOL     OW 2338   1.469   0.478   2.248 -0.3022  0.2685 -0.3919
  780SOL    HW1 2339   1.477   0.566   2.199 -1.0768 -0.0139 -2.2615
  780SOL    HW2 2340   1.544   0.412   2.228 -0.1593 -2.9852 -3.2087
  781SOL     OW 2341   1.767   1.521   1.296  0.0484 -0.1084  0.0963
  781SOL    HW1 2342   1.669   1.527   1.261  1.2816 -0.0923  0.4498
  781SOL    HW2 2343   1.829   1.466   1.236  0.2262  1.2414 -1.3866
  782SOL     OW 2344   1.974   2.384   2.130  0.0994  0.7182  0.5399
  782SOL    HW1 2345   1.951   2.307   2.074  0.7524  3.9443  3.0438
  782SOL    HW2 2346   2.064   2.429   2.114  3.5969  3.5384 -0.9798
  783SOL     OW 2347   1.214   0.457   2.002 -0.1018  0.2562  0.6648
  783SOL    HW1 2348   1.287   0.443   2.067 -0.6778  1.8304 -1.2099
  783SOL    HW2 2349   1.208   0.382   1.935 -0.7591  2.1356  4.8747
  784SOL     OW 2350   1.627   0.959   1.981 -0.1176 -0.2426  0.4051
  784SOL    HW1 2351   1.567   1.042   1.963  3.0218 -0.6698  0.8010
  784SOL    HW2 2352   1.722   0.985   1.953  0.6614  1.8261  0.7110
  785SOL     OW 2353   2.047   0.658   0.477 -0.0790 -0.4768 -0.2192
  785SOL    HW1 2354   2.107   0.741   0.475  0.5819 -2.4452 -1.2611
  785SOL    HW2 2355   1.955   0.686   0.442 -0.9488 -0.3733  0.7606
  786SOL     OW 2356   2.910   1.380   0.776  0.0323 -0.2358  0.7670
  786SOL    HW1 2357   2.829   1.326   0.741  0.2439  2.9070  0.4769
  786SOL    HW2 2358   2.884   1.467   0.821 -0.8589  2.9944 -0.1569
  787SOL     OW 2359   1.574   1.869   0.177  0.2629  0.4519  0.3034
  787SOL    HW1 2360   1.630   1.787   0.157  1.4714  2.8340 -0.2769
  787SOL    HW2 2361   1.523   1.896   0.090  2.3150 -0.4998 -2.9872
  788SOL     OW 2362   2.362   1.015   1.203  0.0701  0.5292 -0.2695
  788SOL    HW1 2363   2.399   0.949   1.131  0.9391  0.0504 -0.5130
  788SOL    HW2 2364   2.439   1.054   1.253  1.7964 -0.2642  0.3025
  789SOL     OW 2365   2.730   1.721   2.117 -0.3344  0.1018  0.5410
  789SOL    HW1 2366   2.629   1.723   2.129 -0.1325 -0.9958  1.8607
  789SOL    HW2 2367   2.773   1.663   2.044  1.8461 -0.8697 -1.3805
  790SOL     OW 2368   0.568   2.798   2.663  0.0835 -0.0440  0.1622
  790SOL    HW1 2369   0.628   2.764   2.737 -0.7687 -1.4435  0.4520
  790SOL    HW2 2370   0.581   2.735   2.579  1.8417  2.0677 -2.3766
  791SOL     OW 2371   0.432   2.472   2.724 -0.3036  0.4653 -0.4365
  791SOL    HW1 2372   0.443   2.569   2.719  0.2809 -1.2542 -0.2557
  791SOL    HW2 2373   0.363   2.456   2.797  0.3455  0.3797  0.7476
  792SOL     OW 2374   1.302   0.262   2.357 -0.1170 -0.2868  0.4088
  792SOL    HW1 2375   1.381   0.325   2.341  2.1150  0.5094 -1.1469
  792SOL    HW2 2376   1.330   0.163   2.357 -0.8072  1.4643 -1.5601
  793SOL     OW 2377   2.603   0.128   2.445  0.4267 -0.2278  0.1538
  793SOL    HW1 2378   2.501   0.140   2.448  1.5304 -1.0570  3.9247
  793SOL    HW2 2379   2.634   0.157   2.351 -0.0311  1.6789  3.3715
  794SOL     OW 2380   0.436   0.425   2.031 -0.4414 -0.0995  0.2887
  794SOL    HW1 2381   0.335   0.396   2.034 -2.2983 -3.0347 -0.3742
  794SOL    HW2 2382   0.488   0.342   2.000  1.6878  0.2960 -1.0530
  795SOL     OW 2383   2.712   1.243   0.669 -0.1283 -0.7670 -0.1608
  795SOL    HW1 2384   2.716   1.261   0.569 -0.3268 -1.0306 -0.8641
  795SOL    HW2 2385   2.685   1.145   0.687  1.7694 -0.1701 -1.8002
  796SOL     OW 2386   2.575   2.228   2.280  0.7075  0.0528 -0.4335
  796SOL    HW1 2387   2.672   2.202   2.268 -1.3049 -0.9457 -1.6556
  796SOL    HW2 2388   2.572   2.282   2.363 -2.4112  0.1456 -0.0669
  797SOL     OW 2389   2.829   2.072   0.007  0.3622  0.3514  0.2213
  797SOL    HW1 2390   2.817   2.007   3.002 -0.3336  1.4838 -1.3445
  797SOL    HW2 2391   2.762   2.041   0.080  1.0968  0.3551 -1.8397
  798SOL     OW 2392   0.324   0.796   1.806 -0.5442 -0.2933  0.1250
  798SOL    HW1 2393   0.333   0.732   1.887 -2.2084 -2.6895 -1.0117
  798SOL    HW2 2394   0.234   0.793   1.757 -0.3354  2.0076 -1.7036
  799SOL     OW 2395   2.677   0.879   2.304 -0.3290  0.1998  0.1866
  799SOL    HW1 2396   2.610   0.848   2.372  2.1614  2.0374 -1.4109
  799SOL    HW2 2397   2.633   0.953   2.253 -2.7807  0.7195  2.7290
  800SOL     OW 2398   2.821   2.290   0.587  0.1770 -0.1230  0.1123
  800SOL    HW1 2399   2.896   2.354   0.557  1.0950 -0.3869  0.2413
  800SOL    HW2 2400   2.732   2.334   0.573  0.2850 -0.9626 -0.1530
  801SOL     OW 2401   1.270   0.897   0.743 -0.4536 -0.4553 -0.4059
  801SOL    HW1 2402   1.224   0.880   0.832 -1.3892  0.4883 -0.5512
  801SOL    HW2 2403   1.288   0.999   0.730  0.0030  2.1576 -1.5481
  802SOL     OW 2404   1.789   2.177   0.841 -0.1132  0.0302 -0.1912
  802SOL    HW1 2405   1.808   2.202   0.938 -1.0647 -0.4478 -0.2920
  802SOL    HW2 2406   1.769   2.079   0.828 -0.3873  2.5797 -1.5642
  803SOL     OW 2407   0.072   1.625   0.445 -0.0193 -0.4594 -0.5149
  803SOL    HW1 2408   0.153   1.571   0.412  2.2370 -0.6046 -2.5672
  803SOL    HW2 2409   0.100   1.717   0.486  0.7418  0.7757 -0.0063
  804SOL     OW 2410   1.326   2.336   0.296 -0.5245 -0.5533  0.3325
  804SOL    HW1 2411   1.254   2.314   0.365  0.8627 -0.8254 -1.8526
  804SOL    HW2 2412   1.311   2.428   0.258  1.6144 -3.2480  2.5003
  805SOL     OW 2413   1.369   1.994   2.438  0.1365  0.1629 -0.1261
  805SOL    HW1 2414   1.375   2.037   2.527  0.4633 -1.0715  1.6049
  805SOL    HW2 2415   1.461   1.986   2.393  0.7505 -1.0216 -0.4425
  806SOL     OW 2416   1.847   0.102   1.346 -0.1512  0.0071 -0.1434
  806SOL    HW1 2417   1.896   0.070   1.429 -0.6572  0.5266 -2.3375
  806SOL    HW2 2418   1.829   0.202   1.359 -0.5561  3.3651  0.6934
  807SOL     OW 2419   2.108   3.050   0.174 -0.1115  0.4060  0.2204
  807SOL    HW1 2420   2.052   2.964   0.163  1.6755  0.6613  0.2161
  807SOL    HW2 2421   2.159   3.077   0.090 -1.5481  3.0500  0.3167
  808SOL     OW 2422   0.529   1.748   2.961 -0.0312  0.8237 -0.6166
  808SOL    HW1 2423   0.493   1.754   2.866  0.5627 -1.1895  1.9781
  808SOL    HW2 2424   0.514   1.656   3.015  2.3113 -1.5527  1.0854
  809SOL     OW 2425   3.071   1.052   2.572  0.7563 -0.1694  0.1350
  809SOL    HW1 2426   0.079   1.011   2.611 -0.1388 -0.5728 -1.1155
  809SOL    HW2 2427   3.005   0.977   2.544  0.7655 -1.6262  1.6854
  810SOL     OW 2428   3.049   0.608   2.624 -0.2681 -0.1915 -0.2731
  810SOL    HW1 2429   3.062   0.688   2.683 -0.6782 -0.4675 -0.7335
  810SOL    HW2 2430   0.044   0.537   2.639 -0.0368  0.3240 -1.8706
  811SOL     OW 2431   1.987   2.505   1.702 -0.1500 -0.1291 -0.1244
  811SOL    HW1 2432   1.891   2.530   1.684  1.8523 -0.0568 -2.1306
  811SOL    HW2 2433   1.993   2.402   1.714  0.8701 -1.5688  3.3856
  812SOL     OW 2434   1.312   0.530   0.238 -0.2144  0.1178  0.6637
  812SOL    HW1 2435   1.326   0.501   0.139  0.6261  4.6176 -1.4935
  812SOL    HW2 2436   1.377   0.488   0.303  0.6674  2.0095  0.4750
  813SOL     OW 2437   1.846   0.563   1.977 -0.1131  0.7551  0.2856
  813SOL    HW1 2438   1.892   0.622   1.908 -2.1400 -1.2609  1.6573
  813SOL    HW2 2439   1.850   0.462   1.948  0.7293 -1.7047  0.6463
  814SOL     OW 2440   1.901   0.875   1.163  0.1723  0.2241  0.1563
  814SOL    HW1 2441   1.980   0.860   1.224 -2.2032  1.8181  0.1266
  814SOL    HW2 2442   1.931   0.937   1.090 -0.0374 -0.0505 -1.4206
  815SOL     OW 2443   0.542   1.043   0.777  0.3611 -0.1319  0.3869
  815SOL    HW1 2444   0.625   0.989   0.754 -0.0140  2.9112  0.7386
  815SOL    HW2 2445   0.475   1.046   0.702  0.7006  2.4422  2.1835
  816SOL     OW 2446   2.103   2.149   0.047  0.4309  0.2531 -0.6664
  816SOL    HW1 2447   2.050   2.149   3.038  0.2315 -0.6733  0.2463
  816SOL    HW2 2448   2.170   2.072   0.057  1.8316 -0.4270 -0.1813
  817SOL     OW 2449   2.747   2.578   1.196 -0.0991  0.3913 -0.2206
  817SOL    HW1 2450   2.765   2.523   1.110 -0.4269  0.1480  0.3918
  817SOL    HW2 2451   2.816   2.651   1.198  0.3151 -1.8942  0.4905
  818SOL     OW 2452   1.572   0.683   0.118  0.1974 -0.2475  0.2853
  818SOL    HW1 2453   1.648   0.621   0.146 -1.1619  0.7181 -2.3372
  818SOL    HW2 2454   1.554   0.684   0.019  0.6378  0.9037  0.5163
  819SOL     OW 2455   0.609   0.659   0.877 -0.7019 -0.2855 -0.4243
  819SOL    HW1 2456   0.585   0.684   0.975 -1.2893 -0.8165  3.5297
  819SOL    HW2 2457   0.537   0.591   0.851  1.8280 -0.3191  0.5655
  820SOL     OW 2458   2.097   0.593   1.350 -0.6684  0.3869  0.5139
  820SOL    HW1 2459   2.183   0.649   1.346 -0.5803 -2.1795 -0.7379
  820SOL    HW2 2460   2.037   0.630   1.425  0.6464 -0.0020  3.1845
  821SOL     OW 2461   2.953   0.265   0.798 -0.4630  0.5775  0.3819
  821SOL    HW1 2462   2.902   0.339   0.854 -0.6931 -1.0137  1.5341
  821SOL    HW2 2463   2.993   0.188   0.851 -0.0602 -1.6701  1.6331
  822SOL     OW 2464   0.702   2.253   2.342 -0.7458 -0.1767 -0.7666
  822SOL    HW1 2465   0.751   2.338   2.365 -2.8449 -3.4286 -0.1395
  822SOL    HW2 2466   0.623   2.272   2.284  2.6913 -1.4505  0.4068
  823SOL     OW 2467   2.836   1.150   1.738  0.4193  0.2353 -0.2962
  823SOL    HW1 2468   2.883   1.089   1.673  0.4496 -0.2194 -0.0137
  823SOL    HW2 2469   2.904   1.201   1.793 -0.9349  0.7167  2.5227
  824SOL     OW 2470   0.855   2.780   2.368 -0.4023 -0.1515 -1.2003
  824SOL    HW1 2471   0.884   2.716   2.439 -1.5944  1.3455 -3.5174
  824SOL    HW2 2472   0.764   2.754   2.341  2.1636  0.5242  2.7219
  825SOL     OW 2473   1.433   1.649   2.792 -0.6253  0.5254 -0.5360
  825SOL    HW1 2474   1.429   1.664   2.692  0.5697 -0.6256 -0.9653
  825SOL    HW2 2475   1.501   1.714   2.833  0.6300  0.1196  1.1751
  826SOL     OW 2476   1.245   2.280   2.982  0.0971  0.0208  0.2160
  826SOL    HW1 2477   1.268   2.216   3.060 -0.0739  0.9141 -0.4180
  826SOL    HW2 2478   1.266   2.249   2.890  0.9579  1.1706 -0.9736
  827SOL     OW 2479   0.400   1.605   1.590 -0.2834  0.4766  0.5645
  827SOL    HW1 2480   0.324   1.542   1.576 -1.3843 -0.4362 -1.2398
  827SOL    HW2 2481   0.438   1.590   1.686 -1.6762 -1.5458  0.1745
  828SOL     OW 2482   0.295   1.757   1.240  0.4272 -0.1116 -0.4958
  828SOL    HW1 2483   0.394   1.761   1.257 -0.4104 -1.0689  0.1353
  828SOL    HW2 2484   0.268   1.825   1.172 -0.4665 -1.6090  3.1336
  829SOL     OW 2485   2.996   2.518   0.023 -0.1408 -0.1342 -0.0852
  829SOL    HW1 2486   3.076   2.460   0.037 -3.6096 -1.5442  0.6339
  829SOL    HW2 2487   2.927   2.453   3.075 -1.6961 -0.0865  2.8982
  830SOL     OW 2488   1.088   0.815   0.560 -0.5524 -0.5173 -0.2029
  830SOL    HW1 2489   1.127   0.779   0.472  0.2923 -0.3246 -1.0098
  830SOL    HW2 2490   1.171   0.830   0.625 -1.3922  1.0931 -0.4531
  831SOL     OW 2491   2.835   2.332   2.990 -0.3113 -0.3336 -0.2695
  831SOL    HW1 2492   2.816   2.235   3.007 -1.6739  2.4797 -2.7386
  831SOL    HW2 2493   2.744   2.375   2.988 -0.9618 -0.9723  1.9230
  832SOL     OW 2494   1.754   2.433   0.285  0.0615  0.4585  0.2133
  832SOL    HW1 2495   1.737   2.429   0.185 -0.9567  1.0421  1.6457
  832SOL    HW2 2496   1.729   2.523   0.321  3.0469 -0.5134 -1.8450
  833SOL     OW 2497   0.611   1.366   2.331  0.4308  0.3984  0.1046
  833SOL    HW1 2498   0.610   1.428   2.253  2.0588  2.6941  1.4636
  833SOL    HW2 2499   0.514   1.344   2.355 -1.2001  3.5845 -2.6777
  834SOL     OW 2500   2.550   0.485   0.659  0.0244 -0.2272  0.0388
  834SOL    HW1 2501   2.477   0.460   0.725  0.7714  0.9993 -2.2373
  834SOL    HW2 2502   2.557   0.416   0.582  0.5987 -1.9479 -1.2307
  835SOL     OW 2503   2.122   0.746   2.057 -0.1251  0.2568  0.4290
  835SOL    HW1 2504   2.206   0.796   2.082 -0.1440  1.7145 -1.0084
  835SOL    HW2 2505   2.043   0.806   2.078  0.3726 -0.7476  0.3794
  836SOL     OW 2506   0.685   2.189   0.678  0.3919  0.3858  0.4793
  836SOL    HW1 2507   0.698   2.226   0.772  0.5925  0.3740  1.4487
  836SOL    HW2 2508   0.762   2.131   0.643  1.2741 -2.8617 -0.7884
  837SOL     OW 2509   2.190   1.251   1.760 -0.2349 -0.0600  0.2466
  837SOL    HW1 2510   2.207   1.211   1.669  1.7025  2.2935  0.1585
  837SOL    HW2 2511   2.226   1.345   1.772  0.0758 -0.2633  1.6588
  838SOL     OW 2512   0.183   1.259   2.221  0.1637 -0.0217 -0.1629
  838SOL    HW1 2513   0.196   1.180   2.157  1.5181  0.8250  0.4164
  838SOL    HW2 2514   0.088   1.264   2.260  1.7023  2.9266 -3.2823
  839SOL     OW 2515   0.380   2.711   2.941  0.7054 -0.1549 -0.2297
  839SOL    HW1 2516   0.312   2.644   2.902  1.6482  0.4777 -1.4090
  839SOL    HW2 2517   0.332   2.801   2.951  1.3525  0.8473  0.8911
  840SOL     OW 2518   3.013   1.256   2.735  0.5410 -0.6319  0.5106
  840SOL    HW1 2519   3.030   1.171   2.680 -1.8346 -0.8097  0.7246
  840SOL    HW2 2520   2.910   1.262   2.743  0.7871 -1.1743  0.0484
  841SOL     OW 2521   0.399   2.058   2.701 -0.6511  0.8833 -0.1501
  841SOL    HW1 2522   0.361   2.132   2.652  1.3237 -2.8174 -0.1934
  841SOL    HW2 2523   0.494   2.037   2.676 -3.1871  0.0062  1.1374
  842SOL     OW 2524   0.886   0.088   1.014 -0.0574  0.0824 -0.2594
  842SOL    HW1 2525   0.853   0.121   1.106 -2.0971  0.7791 -0.3597
  842SOL    HW2 2526   0.804   0.078   0.958  0.7423  2.0274  2.9971
  843SOL     OW 2527   0.039   1.464   2.040 -0.2438  0.0588 -0.0810
  843SOL    HW1 2528   0.099   1.534   1.989  0.2638 -0.0021 -1.8247
  843SOL    HW2 2529   0.073   1.454   2.139 -1.4756 -0.7224  1.4450
  844SOL     OW 2530   1.616   2.024   2.317 -0.1789 -0.3990  0.0528
  844SOL    HW1 2531   1.592   2.060   2.224 -1.6931 -1.6814  0.8880
  844SOL    HW2 2532   1.688   1.952   2.309  0.5702  0.6235  0.9905
  845SOL     OW 2533   1.745   0.036   2.558  0.2138 -0.5209 -0.2375
  845SOL    HW1 2534   1.645   0.026   2.585  0.1282 -0.6250 -0.0917
  845SOL    HW2 2535   1.792   0.086   2.633 -1.3149 -0.1367 -0.1680
  846SOL     OW 2536   2.341   1.597   0.063  0.1031  0.7076 -0.5757
  846SOL    HW1 2537   2.270   1.551   0.004 -1.4854  0.4556  0.9302
  846SOL    HW2 2538   2.431   1.564   0.032 -2.6469  0.3397 -1.6215
  847SOL     OW 2539   2.362   0.170   2.785  0.1536 -0.0659  0.2471
  847SOL    HW1 2540   2.304   0.249   2.763  6.5306 -1.1981  0.5129
  847SOL    HW2 2541   2.459   0.201   2.767  1.0205 -0.3544 -1.1884
  848SOL     OW 2542   2.165   0.527   0.279 -0.6220  0.2119  0.6588
  848SOL    HW1 2543   2.132   0.580   0.359 -0.4186 -0.0603 -1.7812
  848SOL    HW2 2544   2.234   0.453   0.303 -0.5161  0.0583 -0.2284
  849SOL     OW 2545   1.207   3.074   2.971  0.7735  1.0501 -0.2462
  849SOL    HW1 2546   1.149   0.015   2.889 -1.1084 -1.5999 -2.1351
  849SOL    HW2 2547   1.159   3.013   3.040  1.2838  0.4929  0.9163
  850SOL     OW 2548   0.050   0.560   0.391 -0.0926  0.1543 -0.2906
  850SOL    HW1 2549   0.014   0.463   0.390  0.1214  1.2174  2.3118
  850SOL    HW2 2550   3.052   0.617   0.427  3.7061 -0.8585 -1.5568
  851SOL     OW 2551   0.409   1.215   1.496  0.0130 -0.2441 -0.3194
  851SOL    HW1 2552   0.505   1.201   1.453  2.1106 -0.4593  2.1669
  851SOL    HW2 2553   0.353   1.285   1.455  0.5652 -1.7627 -0.1666
  852SOL     OW 2554   1.269   0.816   2.198  0.0235  0.2425 -0.0919
  852SOL    HW1 2555   1.364   0.782   2.197  1.2462  1.5467  1.2468
  852SOL    HW2 2556   1.221   0.768   2.277 -1.0447  1.1223  0.0421
  853SOL     OW 2557   2.213   1.443   2.974  0.5934  0.5070  0.5207
  853SOL    HW1 2558   2.225   1.342   2.959  0.3259  0.9563  1.9530
  853SOL    HW2 2559   2.132   1.477   2.926  1.7787  0.2842 -1.5288
  854SOL     OW 2560   1.237   1.123   1.796 -0.3344  0.4106 -0.1762
  854SOL    HW1 2561   1.245   1.090   1.701 -0.4902 -2.2758 -1.5207
  854SOL    HW2 2562   1.185   1.209   1.805 -1.4768 -0.9987 -2.7576
  855SOL     OW 2563   0.230   2.181   1.685 -0.5383 -0.3811 -0.4964
  855SOL    HW1 2564   0.225   2.284   1.690  0.3618  1.9621 -1.1126
  855SOL    HW2 2565   0.142   2.140   1.660 -0.0885  0.2460  2.5440
  856SOL     OW 2566   1.121   1.162   2.568  0.4518 -0.0524 -0.1972
  856SOL    HW1 2567   1.168   1.075   2.538 -0.6968 -2.4913  0.2803
  856SOL    HW2 2568   1.121   1.233   2.494 -0.9259 -1.6331  2.2475
  857SOL     OW 2569   0.952   0.970   2.675 -0.7044  0.1078  0.0254
  857SOL    HW1 2570   1.027   1.037   2.649  1.2993  0.9473 -0.3145
  857SOL    HW2 2571   0.931   0.898   2.606 -1.4002  0.3627  3.3609
  858SOL     OW 2572   0.252   0.147   2.070 -0.2106 -0.1506  0.3660
  858SOL    HW1 2573   0.262   0.086   1.985 -3.5112  0.1695  0.2827
  858SOL    HW2 2574   0.151   0.172   2.080 -0.0011 -0.3585  1.9348
  859SOL     OW 2575   2.358   0.366   0.799 -0.5778 -0.2861  0.2797
  859SOL    HW1 2576   2.301   0.427   0.735 -1.5409 -2.8656  0.6127
  859SOL    HW2 2577   2.339   0.396   0.894  1.5953  1.0580  0.2049
  860SOL     OW 2578   0.940   0.798   1.420  0.0645 -0.0960  0.0444
  860SOL    HW1 2579   0.869   0.758   1.482  1.3669  0.4787  1.2744
  860SOL    HW2 2580   1.011   0.730   1.401  0.2807  2.1231 -0.8950
  861SOL     OW 2581   1.668   0.788   1.256 -0.3792 -0.1361 -0.2031
  861SOL    HW1 2582   1.753   0.826   1.203  1.5728  1.5868  0.9415
  861SOL    HW2 2583   1.647   0.852   1.330  2.2322 -0.8130 -1.3655
  862SOL     OW 2584   0.786   0.009   2.409  0.2322 -0.2937  0.2061
  862SOL    HW1 2585   0.824   2.992   2.413  1.1208  1.3074  0.3196
  862SOL    HW2 2586   0.716   0.016   2.337 -1.8039  0.0124  2.3704
  863SOL     OW 2587   2.702   0.412   1.463  0.1892 -0.0734  0.4616
  863SOL    HW1 2588   2.617   0.432   1.407  0.2969  1.7365  1.3834
  863SOL    HW2 2589   2.781   0.415   1.399 -0.4398  0.1934 -0.3516
  864SOL     OW 2590   2.710   2.940   2.485  0.1062 -0.2939  0.1595
  864SOL    HW1 2591   2.766   2.896   2.406  0.4518  1.3338  2.5206
  864SOL    HW2 2592   2.688   3.038   2.470  1.1390 -1.2941 -1.6057
  865SOL     OW 2593   1.359   1.101   2.288  1.0404 -0.2510  0.0881
  865SOL    HW1 2594   1.336   1.018   2.346  3.0667 -1.4990 -0.7304
  865SOL    HW2 2595   1.290   1.111   2.206 -1.1210 -1.4608 -1.9712
  866SOL     OW 2596   2.487   2.529   0.965 -0.3852 -0.3617  0.6403
  866SOL    HW1 2597   2.474   2.547   1.066  0.8139 -0.0915 -0.8951
  866SOL    HW2 2598   2.539   2.445   0.948  1.4978  2.4153 -0.0855
  867SOL     OW 2599   2.475   2.601   1.233  0.0523 -0.0738 -0.6181
  867SOL    HW1 2600   2.440   2.701   1.239 -0.5421  1.2988 -1.9831
  867SOL    HW2 2601   2.573   2.600   1.211  1.3966 -1.8804  1.2920
  868SOL     OW 2602   2.965   1.298   1.431  0.5784 -0.0463  0.2745
  868SOL    HW1 2603   2.871   1.268   1.440  2.6470  1.0998 -1.6133
  868SOL    HW2 2604   3.003   1.256   1.344  1.1639  0.7908  0.6899
  869SOL     OW 2605   2.088   1.683   1.980  0.0743  0.7303  0.0122
  869SOL    HW1 2606   2.156   1.726   2.040 -3.0504 -4.4623 -0.8715
  869SOL    HW2 2607   2.074   1.585   2.009  0.1036 -1.6332 -0.3238
  870SOL     OW 2608   1.417   1.142   0.821  0.1997  0.1654  0.0559
  870SOL    HW1 2609   1.455   1.096   0.904  5.2317 -3.2213  0.7620
  870SOL    HW2 2610   1.483   1.203   0.774 -1.6151 -2.0379  3.2246
  871SOL     OW 2611   2.313   1.489   1.748 -0.1328  0.4886 -0.4520
  871SOL    HW1 2612   2.373   1.533   1.813  0.0408 -1.7207 -2.9653
  871SOL    HW2 2613   2.351   1.501   1.652  0.1079 -0.0832  1.3787
  872SOL     OW 2614   1.495   1.316   2.410 -0.0205 -0.8914 -0.4608
  872SOL    HW1 2615   1.485   1.306   2.508 -0.2527  1.2906 -0.8572
  872SOL    HW2 2616   1.437   1.258   2.357  1.7520  4.0177  2.3562
  873SOL     OW 2617   1.277   1.308   1.386  1.1670  0.1002  0.4855
  873SOL    HW1 2618   1.246   1.353   1.297  3.6357  1.4485  1.0037
  873SOL    HW2 2619   1.335   1.367   1.443 -1.4667  0.4072 -2.2904
  874SOL     OW 2620   1.517   1.265   1.245  0.0576  0.3629 -0.4239
  874SOL    HW1 2621   1.445   1.253   1.319 -0.1438  3.0725 -1.2367
  874SOL    HW2 2622   1.522   1.364   1.222 -0.5438 -2.9434 -0.9659
  875SOL     OW 2623   2.867   0.245   2.531  0.1855  0.2785  0.0432
  875SOL    HW1 2624   2.853   0.331   2.576  0.9873 -4.9845  0.9799
  875SOL    HW2 2625   2.783   0.185   2.526 -0.6896 -1.7588  1.5132
  876SOL     OW 2626   0.822   1.005   0.388  0.5237 -0.0556 -0.1200
  876SOL    HW1 2627   0.859   0.987   0.479  0.0896  0.9122 -0.6496
  876SOL    HW2 2628   0.754   0.935   0.349 -1.0235 -1.8899 -1.5534
  877SOL     OW 2629   1.954   2.957   0.668 -0.0857  0.7942  0.4989
  877SOL    HW1 2630   2.002   2.929   0.581  2.9013  0.2263 -1.0176
  877SOL    HW2 2631   1.902   2.877   0.708  2.4148 -0.7168  0.3606
  878SOL     OW 2632   2.697   2.034   0.264  0.3185 -0.2974 -0.2159
  878SOL    HW1 2633   2.712   1.933   0.259 -0.5606  1.0966 -0.7680
  878SOL    HW2 2634   2.595   2.046   0.260  1.5289 -0.0789  2.2558
  879SOL     OW 2635   2.868   2.274   1.790 -0.8386  0.2171  0.3065
  879SOL    HW1 2636   2.834   2.226   1.874 -1.7320  2.2352  1.3091
  879SOL    HW2 2637   2.927   2.214   1.732 -0.6072 -0.5073  2.3186
  880SOL     OW 2638   0.388   1.621   0.812  0.4994  0.1812  0.7361
  880SOL    HW1 2639   0.445   1.614   0.727 -2.7317 -0.0561 -2.1145
  880SOL    HW2 2640   0.439   1.670   0.887 -2.0674  0.8073  0.5086
  881SOL     OW 2641   1.448   0.387   2.731 -0.3176 -0.2661 -0.2692
  881SOL    HW1 2642   1.500   0.309   2.771  0.1769 -0.9105  0.1272
  881SOL    HW2 2643   1.351   0.363   2.735 -1.4102 -1.2549 -1.2980
  882SOL     OW 2644   2.599   0.988   0.705 -0.3783  0.0054  0.1138
  882SOL    HW1 2645   2.558   1.012   0.792  1.1525 -0.2973 -2.4500
  882SOL    HW2 2646   2.634   0.893   0.716 -0.2205  1.8401 -0.1675
  883SOL     OW 2647   1.683   0.769   2.639 -0.0616 -0.4158  0.7448
  883SOL    HW1 2648   1.596   0.729   2.607 -3.1502  1.0633  1.4458
  883SOL    HW2 2649   1.716   0.832   2.562  0.4712  0.0200 -1.4496
  884SOL     OW 2650   3.006   0.214   1.717  0.0977  1.0978 -0.2320
  884SOL    HW1 2651   2.977   0.166   1.634 -0.5052 -0.8867  2.3791
  884SOL    HW2 2652   3.069   0.157   1.771 -0.8314 -2.6156 -3.1894
  885SOL     OW 2653   1.893   0.885   2.077 -0.4466 -0.0192  0.2178
  885SOL    HW1 2654   1.882   0.941   1.994  1.2467  2.6451 -0.9842
  885SOL    HW2 2655   1.803   0.860   2.113  1.4609  2.5066 -1.9328
  886SOL     OW 2656   1.674   0.488   2.977 -0.1533  0.0064 -0.3814
  886SOL    HW1 2657   1.633   0.453   3.065  2.0260  0.9163  2.8605
  886SOL    HW2 2658   1.775   0.510   2.993  1.0315  2.2535 -0.8702
  887SOL     OW 2659   1.196   2.644   1.600  0.7603 -0.1868 -0.1858
  887SOL    HW1 2660   1.268   2.679   1.548 -4.1177  1.4434  4.6932
  887SOL    HW2 2661   1.123   2.608   1.537  0.2199 -0.8498 -0.8089
  888SOL     OW 2662   2.368   0.710   1.464  0.3467  0.4922 -0.2070
  888SOL    HW1 2663   2.347   0.645   1.541 -2.7168 -2.3180 -0.8521
  888SOL    HW2 2664   2.362   0.806   1.494  0.6173  0.5756 -1.6276
  889SOL     OW 2665   1.756   2.954   0.964  0.3928 -0.0146 -0.1335
  889SOL    HW1 2666   1.681   2.932   0.899 -1.5448 -0.8608 -1.4568
  889SOL    HW2 2667   1.719   2.999   1.049 -1.8643  0.2968 -0.0264
  890SOL     OW 2668   1.247   2.644   0.748 -0.3188  0.5774  0.2510
  890SOL    HW1 2669   1.302   2.579   0.806  0.9589  2.1705 -0.8474
  890SOL    HW2 2670   1.155   2.671   0.787  1.9452  1.5791 -1.0407
  891SOL     OW 2671   3.031   1.363   0.070  0.2323 -0.1649 -0.3020
  891SOL    HW1 2672   2.961   1.296   0.047 -2.1983  0.1881  3.2171
  891SOL    HW2 2673   0.045   1.325   0.053 -1.6919 -2.7282  0.7349
  892SOL     OW 2674   2.219   1.452   2.493  0.1458  0.3263  0.6585
  892SOL    HW1 2675   2.306   1.503   2.514  1.7997 -0.9091 -1.5312
  892SOL    HW2 2676   2.143   1.521   2.501 -2.9554 -0.8931  1.4011
  893SOL     OW 2677   2.271   2.424   1.221 -0.2248 -0.5778 -0.1732
  893SOL    HW1 2678   2.195   2.480   1.191  1.6256  2.4920  2.4040
  893SOL    HW2 2679   2.350   2.490   1.233  1.4416  1.0409  0.6266
  894SOL     OW 2680   0.198   0.583   0.759 -0.0534 -0.0996 -0.4171
  894SOL    HW1 2681   0.282   0.532   0.784 -0.6908  3.3975  0.7172
  894SOL    HW2 2682   0.135   0.521   0.705 -1.1252  0.0871  0.0642
  895SOL     OW 2683   2.839   2.169   2.243 -0.4227  0.2471 -0.3656
  895SOL    HW1 2684   2.899   2.240   2.282  1.2201  1.0577  1.8511
  895SOL    HW2 2685   2.873   2.079   2.265  1.4950 -2.4154 -2.6383
  896SOL     OW 2686   1.499   3.049   2.623  0.2775  0.4004  0.0815
  896SOL    HW1 2687   1.534   2.977   2.688  1.0706 -1.9022 -0.9428
  896SOL    HW2 2688   1.405   3.034   2.601  0.5349  1.1999 -0.2054
  897SOL     OW 2689   0.281   1.850   1.568 -0.4128  0.2838 -0.2306
  897SOL    HW1 2690   0.235   1.840   1.475  0.7319 -1.7639 -1.8603
  897SOL    HW2 2691   0.309   1.755   1.605  1.6895 -2.8857  0.1288
  898SOL     OW 2692   0.667   2.196   1.689  0.4937 -0.6147  0.0437
  898SOL    HW1 2693   0.594   2.121   1.690 -1.6324 -1.5450  1.1527
  898SOL    HW2 2694   0.637   2.265   1.620  0.2328  0.4504  0.2047
  899SOL     OW 2695   1.602   0.122   1.879 -0.4766  0.0339  0.5394
  899SOL    HW1 2696   1.694   0.093   1.843  1.9369 -2.0354  1.1768
  899SOL    HW2 2697   1.536   0.069   1.814 -1.6128 -2.3861 -1.3341
  900SOL     OW 2698   1.270   1.267   0.473  0.5435  0.2542  0.4256
  900SOL    HW1 2699   1.288   1.170   0.454  1.0030  1.6332 -1.2101
  900SOL    HW2 2700   1.178   1.280   0.509 -0.1209 -0.4261 -0.2400
  901SOL     OW 2701   1.273   0.950   2.502  0.4629 -0.4442  0.0104
  901SOL    HW1 2702   1.324   0.953   2.591  0.7266  0.0137 -1.1595
  901SOL    HW2 2703   1.225   0.865   2.498 -0.0526  1.8473  0.1032
  902SOL     OW 2704   0.026   2.342   0.968 -0.3494  0.0940 -0.0931
  902SOL    HW1 2705   3.001   2.345   0.946  0.3360  0.9907 -0.1987
  902SOL    HW2 2706   0.051   2.414   1.037  0.1676 -2.0097  0.6023
  903SOL     OW 2707   2.603   1.429   2.339  0.0814  0.2564 -0.1225
  903SOL    HW1 2708   2.699   1.409   2.316  1.1888 -0.5358  1.1017
  903SOL    HW2 2709   2.571   1.392   2.426 -2.8635  1.6765  0.1089
  904SOL     OW 2710   1.398   1.935   3.040  0.0230  0.2081  0.1325
  904SOL    HW1 2711   1.346   2.005   0.009  1.2242 -1.4039 -1.2164
  904SOL    HW2 2712   1.353   1.886   2.965  0.5414 -2.3158  2.6317
  905SOL     OW 2713   1.914   2.871   1.995  0.2118 -1.0386  0.1077
  905SOL    HW1 2714   1.842   2.814   2.038  0.3506  0.6435 -0.2497
  905SOL    HW2 2715   1.953   2.937   2.065  0.1269 -0.0343 -0.0071
  906SOL     OW 2716   1.619   2.771   0.161 -0.6511  0.3717 -0.2445
  906SOL    HW1 2717   1.606   2.844   0.096 -0.6584 -0.9589  3.4968
  906SOL    HW2 2718   1.608   2.679   0.123  2.1953  2.6047  1.6875
  907SOL     OW 2719   0.299   2.655   0.867 -0.5563 -0.2446 -0.4344
  907SOL    HW1 2720   0.312   2.730   0.939  0.5584  2.6948  1.8856
  907SOL    HW2 2721   0.276   2.703   0.780  0.6731 -0.3687  2.3990
  908SOL     OW 2722   0.680   2.592   1.789 -0.3061 -0.0564  0.0346
  908SOL    HW1 2723   0.663   2.689   1.759  1.0518 -0.9793  0.5109
  908SOL    HW2 2724   0.723   2.594   1.883  1.8966  1.2143  1.0265
  909SOL     OW 2725   1.768   0.537   1.292 -0.1579 -0.1552 -0.3444
  909SOL    HW1 2726   1.726   0.629   1.270  3.9555 -2.5571  0.4241
  909SOL    HW2 2727   1.843   0.552   1.352 -5.1287 -0.3183 -1.2893
  910SOL     OW 2728   0.536   0.466   0.255 -0.6053 -0.1012 -0.2639
  910SOL    HW1 2729   0.567   0.371   0.234  0.2631  0.0524 -0.2644
  910SOL    HW2 2730   0.613   0.527   0.280 -0.6233  1.4331  0.2035
  911SOL     OW 2731   0.253   2.970   2.968 -0.1579 -0.0516  0.2158
  911SOL    HW1 2732   0.328   2.989   2.899  1.7855 -1.8721 -1.4083
  911SOL    HW2 2733   0.284   2.990   3.059  1.7947  0.2760 -3.4418
  912SOL     OW 2734   2.979   2.022   2.542 -0.1239 -0.3500 -0.4965
  912SOL    HW1 2735   2.949   1.971   2.460  2.7440  0.8090 -0.3732
  912SOL    HW2 2736   3.046   2.094   2.516 -2.0010  1.4285  1.6460
  913SOL     OW 2737   2.448   2.760   0.239 -0.2260  0.4009  0.0903
  913SOL    HW1 2738   2.404   2.854   0.260 -0.5435  0.4470  0.2332
  913SOL    HW2 2739   2.537   2.782   0.190  1.9469  0.5520 -0.6785
  914SOL     OW 2740   1.455   1.575   1.780 -0.0793 -0.1566  0.1025
  914SOL    HW1 2741   1.486   1.539   1.870 -0.3919 -0.0080 -2.1606
  914SOL    HW2 2742   1.537   1.621   1.737 -0.7885  0.8014  0.8713
  915SOL     OW 2743   2.792   2.525   2.280 -0.0084 -0.3076 -0.1029
  915SOL    HW1 2744   2.881   2.471   2.292 -0.0354  0.1528 -1.0680
  915SOL    HW2 2745   2.730   2.492   2.353  1.0132 -2.3514  1.1972
  916SOL     OW 2746   0.016   0.745   2.322  0.1304 -0.6690 -1.0607
  916SOL    HW1 2747   0.041   0.649   2.328 -0.5345 -0.9013  0.5480
  916SOL    HW2 2748   0.073   0.781   2.248  1.0006  0.1222  1.8346
  917SOL     OW 2749   1.737   0.068   0.003 -0.6336  0.3133 -0.4918
  917SOL    HW1 2750   1.775   0.075   0.101  0.5057  3.9068  2.2080
  917SOL    HW2 2751   1.809   0.043   3.015  0.3208 -0.7501 -2.7326
  918SOL     OW 2752   1.729   2.991   2.300 -0.6372  0.0771  0.4744
  918SOL    HW1 2753   1.732   3.045   2.386  0.2890 -1.7337 -1.4543
  918SOL    HW2 2754   1.695   3.049   2.223 -0.2336 -2.5148 -3.0560
  919SOL     OW 2755   1.670   2.244   1.468 -0.7533 -0.1699 -0.1939
  919SOL    HW1 2756   1.651   2.283   1.560 -0.4722  0.1119 -0.5239
  919SOL    HW2 2757   1.592   2.174   1.448 -1.7372 -3.8910 -4.1444
  920SOL     OW 2758   0.013   0.790   0.058  0.2948 -0.4180  0.1609
  920SOL    HW1 2759   0.018   0.892   0.066 -1.7239  0.4679 -0.3906
  920SOL    HW2 2760   0.075   0.750   0.129 -3.9004  0.4152  1.9848
  921SOL     OW 2761   2.342   1.163   2.382 -0.8182 -0.1051  0.3859
  921SOL    HW1 2762   2.396   1.191   2.301  0.3290 -0.7321 -1.9681
  921SOL    HW2 2763   2.375   1.219   2.462 -1.3089 -1.8869  1.9073
  922SOL     OW 2764   1.072   1.759   2.441  0.1639  0.4965  0.0986
  922SOL    HW1 2765   1.076   1.826   2.520  1.3727  2.1560 -4.2963
  922SOL    HW2 2766   0.980   1.713   2.438  2.9908 -1.0163  1.0432
  923SOL     OW 2767   0.858   1.236   2.290  0.2120  0.2858  0.3572
  923SOL    HW1 2768   0.767   1.278   2.309  2.2647  0.1104 -2.8196
  923SOL    HW2 2769   0.926   1.303   2.316 -2.0676 -0.6788 -0.2799
  924SOL     OW 2770   0.342   2.272   2.548 -0.0092  0.2840  0.1966
  924SOL    HW1 2771   0.401   2.343   2.592 -0.2495  1.9119  1.2771
  924SOL    HW2 2772   0.381   2.252   2.456  0.2964 -0.8505 -0.7074
  925SOL     OW 2773   1.727   1.379   0.996 -0.1317  0.5304 -0.8501
  925SOL    HW1 2774   1.803   1.365   1.057 -0.7318  0.2650 -0.4748
  925SOL    HW2 2775   1.718   1.478   0.976 -1.9700 -0.1385 -0.4099
  926SOL     OW 2776   1.752   0.495   2.700  0.2471 -0.3930 -0.6551
  926SOL    HW1 2777   1.688   0.483   2.782 -2.7084 -1.6670 -0.8047
  926SOL    HW2 2778   1.726   0.583   2.652  2.1059 -0.9614 -2.5018
  927SOL     OW 2779   2.341   2.718   1.981  0.0101  0.4178  0.4106
  927SOL    HW1 2780   2.416   2.774   2.008 -0.2302 -0.5978 -0.2221
  927SOL    HW2 2781   2.257   2.768   1.952 -2.7676 -0.0222 -2.9506
  928SOL     OW 2782   0.732   1.091   2.755  0.4321  0.0992 -0.4512
  928SOL    HW1 2783   0.719   1.179   2.707 -1.9679 -1.3911 -0.0895
  928SOL    HW2 2784   0.820   1.044   2.722  1.5378 -2.2978  1.1028
  929SOL     OW 2785   0.152   0.250   1.020  0.1348  0.1189 -0.0614
  929SOL    HW1 2786   0.210   0.267   0.941 -3.1731  0.6840  0.4615
  929SOL    HW2 2787   0.092   0.172   0.994  0.6550  3.0168 -0.2854
  930SOL     OW 2788   2.583   0.288   1.876  0.7949 -0.0016 -0.2692
  930SOL    HW1 2789   2.508   0.225   1.847  0.2436 -0.1975  1.6444
  930SOL    HW2 2790   2.604   0.359   1.804  0.9127 -0.3329 -1.7381
  931SOL     OW 2791   2.240   1.193   2.892  0.3167  0.2214 -0.9183
  931SOL    HW1 2792   2.151   1.150   2.900  2.9111 -0.3130  0.7745
  931SOL    HW2 2793   2.308   1.139   2.944  0.1234 -1.4220 -2.5677
  932SOL     OW 2794   2.585   1.523   1.073  0.5851 -0.6856  0.0539
  932SOL    HW1 2795   2.679   1.565   1.079 -0.0732  0.3728  1.3577
  932SOL    HW2 2796   2.563   1.504   0.976 -0.5247 -1.8704  0.4132
  933SOL     OW 2797   2.851   2.512   1.638 -0.4411 -0.1547 -0.4638
  933SOL    HW1 2798   2.841   2.426   1.694 -0.9669  0.7002 -1.6841
  933SOL    HW2 2799   2.801   2.587   1.681  4.1495  1.3894 -0.0332
  934SOL     OW 2800   0.302   3.066   1.216  0.1300  0.4265 -0.4280
  934SOL    HW1 2801   0.339   2.998   1.281  2.1058  0.9325  1.8648
  934SOL    HW2 2802   0.374   0.046   1.183 -1.7743  0.4523  1.6331
  935SOL     OW 2803   2.530   0.610   2.072 -0.1365 -0.6043 -0.7001
  935SOL    HW1 2804   2.438   0.569   2.057  0.1684 -1.1851 -0.6339
  935SOL    HW2 2805   2.594   0.549   2.029 -0.8378  3.4506 -0.2141
  936SOL     OW 2806   2.598   0.867   2.008  0.0875 -0.5032  0.1085
  936SOL    HW1 2807   2.701   0.890   1.981  1.7099 -2.0100 -0.0517
  936SOL    HW2 2808   2.579   0.772   2.044 -1.1428  3.2722 -0.4824
  937SOL     OW 2809   1.710   1.337   1.806  0.1464 -0.3579 -0.1163
  937SOL    HW1 2810   1.733   1.420   1.754  0.3142  0.4443  0.7601
  937SOL    HW2 2811   1.792   1.305   1.860 -1.1020  1.6960 -2.2715
  938SOL     OW 2812   0.485   2.287   3.046  0.1570 -0.7496  0.0953
  938SOL    HW1 2813   0.440   2.376   3.076  0.7618 -1.0825  2.6546
  938SOL    HW2 2814   0.413   2.222   3.017  0.7218 -0.3554 -1.1640
  939SOL     OW 2815   2.206   0.493   2.947  0.4444  0.3659  0.4645
  939SOL    HW1 2816   2.282   0.505   3.011  1.1140 -1.8626 -1.8309
  939SOL    HW2 2817   2.143   0.412   2.969  0.6682 -0.7456  0.9894
  940SOL     OW 2818   1.421   2.432   0.842 -0.5585  0.2055  0.0066
  940SOL    HW1 2819   1.439   2.356   0.773  0.5028 -1.4936  0.3445
  940SOL    HW2 2820   1.468   2.401   0.927  0.1805 -0.6216  0.4028
  941SOL     OW 2821   1.112   1.978   1.772 -0.3023  0.2403 -0.1689
  941SOL    HW1 2822   1.110   2.070   1.730 -1.1900  0.6658 -1.0216
  941SOL    HW2 2823   1.050   1.914   1.720 -2.3428 -1.9815  2.4051
  942SOL     OW 2824   2.800   1.862   2.922  0.1732 -0.4668  0.1620
  942SOL    HW1 2825   2.884   1.810   2.949  0.7482 -2.3806 -1.4360
  942SOL    HW2 2826   2.768   1.834   2.828  0.9629  0.6470 -1.5312
  943SOL     OW 2827   2.091   2.744   1.800  0.2792 -0.1962 -0.7150
  943SOL    HW1 2828   2.057   2.656   1.762 -0.4286  0.2187 -0.0938
  943SOL    HW2 2829   2.027   2.775   1.871  0.8550 -1.0010  1.0948
  944SOL     OW 2830   1.825   2.014   2.655 -0.5787  0.8235 -0.5278
  944SOL    HW1 2831   1.754   1.942   2.638 -1.3692 -0.7284  0.4727
  944SOL    HW2 2832   1.786   2.090   2.709  1.7921  2.3938 -1.2634
  945SOL     OW 2833   2.573   1.950   0.983  0.3025  0.0808  0.4350
  945SOL    HW1 2834   2.517   1.864   0.971  0.2457  0.5934 -2.1146
  945SOL    HW2 2835   2.519   2.030   0.954 -1.2803 -2.1558  0.1103
  946SOL     OW 2836   1.155   1.285   2.809 -0.3389 -0.2667  0.6286
  946SOL    HW1 2837   1.142   1.227   2.726 -0.7208 -0.4656  2.6029
  946SOL    HW2 2838   1.254   1.302   2.828  0.2781  1.6890  1.6098
  947SOL     OW 2839   0.171   0.815   2.117 -0.3515  0.2717 -0.3793
  947SOL    HW1 2840   0.180   0.916   2.115  1.3955 -0.2045  0.3758
  947SOL    HW2 2841   0.267   0.779   2.107  1.5779  2.5296  1.4122
  948SOL     OW 2842   3.030   1.150   0.610 -0.7435 -0.3595  0.3946
  948SOL    HW1 2843   0.037   1.203   0.590 -1.1879  0.2300  1.9562
  948SOL    HW2 2844   2.958   1.210   0.654  2.0707 -0.1124  2.7824
  949SOL     OW 2845   0.806   0.390   2.634 -0.3261 -0.5517 -0.2522
  949SOL    HW1 2846   0.771   0.480   2.606  1.0689 -3.6446 -0.8255
  949SOL    HW2 2847   0.853   0.347   2.553  0.1118 -0.8511  1.3816
  950SOL     OW 2848   0.219   0.608   1.572 -0.0338 -0.2664  0.8012
  950SOL    HW1 2849   0.150   0.641   1.637 -1.9153  2.5526  0.1383
  950SOL    HW2 2850   0.252   0.685   1.513 -3.0807 -1.9396 -1.9128
  951SOL     OW 2851   0.373   1.291   2.435 -0.1654  0.0581 -0.0996
  951SOL    HW1 2852   0.311   1.280   2.350  1.2550  1.3723 -1.3555
  951SOL    HW2 2853   0.383   1.207   2.490 -1.2692 -1.4785  1.4303
  952SOL     OW 2854   1.899   2.290   1.339 -0.1555 -0.0442 -0.7314
  952SOL    HW1 2855   1.816   2.284   1.399  0.3173  1.8379  1.6108
  952SOL    HW2 2856   1.938   2.385   1.349  2.9103 -0.2153  0.1260
  953SOL     OW 2857   0.411   2.531   0.069  0.1558  0.2841 -0.1985
  953SOL    HW1 2858   0.341   2.513   0.141  0.3427 -1.1596  1.3236
  953SOL    HW2 2859   0.378   2.583   3.065 -1.2809 -0.7241 -1.2879
  954SOL     OW 2860   2.847   1.108   0.985 -0.3272 -0.2006 -0.1485
  954SOL    HW1 2861   2.922   1.176   1.000 -2.0807  2.3644  0.1101
  954SOL    HW2 2862   2.757   1.142   1.021 -0.6329 -1.6330 -0.0289
  955SOL     OW 2863   1.589   1.237   2.939  0.2367 -0.1872 -0.2529
  955SOL    HW1 2864   1.604   1.138   2.917  1.1146  1.9560  3.2426
  955SOL    HW2 2865   1.611   1.246   3.039  3.1255 -4.4887 -3.1947
  956SOL     OW 2866   1.139   0.708   2.430 -0.1484 -0.9441 -0.5697
  956SOL    HW1 2867   1.038   0.726   2.444 -1.8115 -0.0749  2.9697
  956SOL    HW2 2868   1.163   0.611   2.449  2.2645 -0.2020  0.0302
  957SOL     OW 2869   0.773   0.312   1.682  0.0613  0.1580  0.5539
  957SOL    HW1 2870   0.679   0.288   1.707  3.6167  0.9831 -2.2215
  957SOL    HW2 2871   0.807   0.405   1.707  0.1381 -1.4060  1.9591
  958SOL     OW 2872   0.444   1.787   0.462  0.2524  0.6092 -0.3842
  958SOL    HW1 2873   0.366   1.787   0.530  0.3193 -0.1829 -0.8695
  958SOL    HW2 2874   0.405   1.775   0.368  3.1513 -1.6138 -2.4577
  959SOL     OW 2875   2.343   0.517   1.653 -0.1208 -0.4128  0.3849
  959SOL    HW1 2876   2.362   0.430   1.609 -3.3472 -1.2079 -0.7445
  959SOL    HW2 2877   2.335   0.522   1.756  0.4199  2.6167  2.3840
  960SOL     OW 2878   0.233   1.504   2.520 -0.0827  0.2148  0.2749
  960SOL    HW1 2879   0.286   1.416   2.499 -0.4924 -0.7080  0.6072
  960SOL    HW2 2880   0.166   1.497   2.599 -1.8203  0.1447  2.1349
  961SOL     OW 2881   0.715   1.710   0.796 -0.1280 -0.2694  0.0846
  961SOL    HW1 2882   0.648   1.672   0.730 -1.3267 -0.6766  3.1164
  961SOL    HW2 2883   0.672   1.736   0.886 -0.8254  2.1246  4.4765
  962SOL     OW 2884   0.637   1.542   1.175 -0.0165  1.1617 -0.4088
  962SOL    HW1 2885   0.731   1.526   1.210 -1.2639 -0.2470 -1.8117
  962SOL    HW2 2886   0.592   1.449   1.177  0.2078 -4.3912  0.5338
  963SOL     OW 2887   1.484   2.324   2.708  0.8688 -0.1150  0.3278
  963SOL    HW1 2888   1.408   2.258   2.725  0.6628 -0.6674 -0.7110
  963SOL    HW2 2889   1.529   2.304   2.619 -0.5685  1.2339 -0.6437
  964SOL     OW 2890   0.129   2.688   2.468 -0.0292  0.1670 -0.1747
  964SOL    HW1 2891   0.188   2.735   2.538 -0.0395  1.3182 -1.3193
  964SOL    HW2 2892   0.074   2.761   2.419 -0.2777  2.6579  0.9712
  965SOL     OW 2893   2.666   2.117   2.631 -0.5180  0.1264 -0.2649
  965SOL    HW1 2894   2.630   2.148   2.544  2.0858 -1.9170 -0.3636
  965SOL    HW2 2895   2.766   2.102   2.610 -1.0494 -0.7130 -1.0464
  966SOL     OW 2896   2.683   1.523   2.670  0.2027  0.6773 -0.1858
  966SOL    HW1 2897   2.709   1.511   2.767 -1.1780 -0.9651 -0.4823
  966SOL    HW2 2898   2.651   1.428   2.643 -0.3561  0.6558  1.2794
  967SOL     OW 2899   1.912   0.263   0.487  0.7634 -0.6188 -0.1988
  967SOL    HW1 2900   1.945   0.216   0.571 -2.5920 -0.2801 -0.8520
  967SOL    HW2 2901   1.831   0.322   0.510  0.0632  0.2853 -2.0539
  968SOL     OW 2902   2.528   0.141   0.826  0.1396 -0.7310  0.4666
  968SOL    HW1 2903   2.558   0.129   0.925 -0.0426 -1.2456  2.1146
  968SOL    HW2 2904   2.461   0.219   0.822  0.0025  0.6497  0.9453
  969SOL     OW 2905   0.635   0.806   2.122 -0.8705 -0.6997 -0.6500
  969SOL    HW1 2906   0.613   0.873   2.048  1.9637  0.5968  2.8062
  969SOL    HW2 2907   0.693   0.871   2.184 -1.5637  2.7961  0.4307
  970SOL     OW 2908   1.940   1.453   2.887  0.0708  0.0582  0.6937
  970SOL    HW1 2909   1.841   1.462   2.916 -3.3783 -0.3957 -2.4738
  970SOL    HW2 2910   1.952   1.383   2.815  2.1323  2.0649  0.5837
  971SOL     OW 2911   2.361   0.102   1.819  0.9766  0.5845  0.1162
  971SOL    HW1 2912   2.306   0.127   1.902  3.6318 -0.4484  1.8153
  971SOL    HW2 2913   2.303   0.125   1.738  0.0749  0.3981 -0.3796
  972SOL     OW 2914   3.067   0.471   1.059  0.4236  0.7431  0.1321
  972SOL    HW1 2915   2.994   0.470   0.989  0.8141  0.2715  1.7901
  972SOL    HW2 2916   0.045   0.387   1.045 -0.1495 -1.4931  1.2296
  973SOL     OW 2917   0.008   0.114   2.403 -0.0744 -0.0137  0.5401
  973SOL    HW1 2918   0.079   0.112   2.476  1.0010  0.6542 -3.2377
  973SOL    HW2 2919   3.008   0.175   2.437 -0.8001  1.3932  4.1023
  974SOL     OW 2920   2.983   0.980   1.593  0.2678 -0.1363 -0.0198
  974SOL    HW1 2921   3.061   1.029   1.544  0.8580 -0.3185  0.6632
  974SOL    HW2 2922   2.947   0.906   1.537  1.8927  0.8244 -0.2709
  975SOL     OW 2923   1.410   0.009   2.322  0.1700  0.7154 -1.0864
  975SOL    HW1 2924   1.471   0.048   2.248 -0.0175  0.0150  0.1139
  975SOL    HW2 2925   1.473   3.033   2.389  1.8519 -2.8263  0.5675
  976SOL     OW 2926   2.087   1.416   1.487 -0.7609 -0.8586  0.6764
  976SOL    HW1 2927   2.093   1.461   1.397  0.8279  3.5393  0.6043
  976SOL    HW2 2928   2.025   1.461   1.547  1.2717  2.5545 -4.1202
  977SOL     OW 2929   3.047   2.784   0.109 -0.4549  0.1367 -0.2467
  977SOL    HW1 2930   3.039   2.684   0.097  1.7909  2.2679 -0.1127
  977SOL    HW2 2931   2.996   2.834   0.042 -0.1695  0.6586  3.5019
  978SOL     OW 2932   2.222   1.434   2.209 -0.0148 -0.0554  0.0661
  978SOL    HW1 2933   2.277   1.362   2.159  2.6719 -0.3308  0.8745
  978SOL    HW2 2934   2.218   1.416   2.306 -0.1462 -2.2324 -2.0675
  979SOL     OW 2935   0.813   0.976   2.224 -0.0457  0.4266 -0.2976
  979SOL    HW1 2936   0.899   0.948   2.178 -2.1702  1.4913  1.5819
  979SOL    HW2 2937   0.813   1.079   2.229 -1.0241 -1.8572  0.8816
  980SOL     OW 2938   1.649   1.833   2.598 -0.4426  0.5894 -0.0464
  980SOL    HW1 2939   1.553   1.827   2.564  1.2662  0.8562 -1.9485
  980SOL    HW2 2940   1.707   1.781   2.529  0.6382 -1.4400 -2.7292
  981SOL     OW 2941   1.520   0.792   1.750  0.3725 -0.7352 -0.5434
  981SOL    HW1 2942   1.554   0.841   1.829 -0.5798 -1.0050 -1.9754
  981SOL    HW2 2943   1.419   0.775   1.753  0.0085 -2.5016  1.3305
  982SOL     OW 2944   0.558   0.192   0.263  0.1735 -0.0679 -0.1619
  982SOL    HW1 2945   0.520   0.146   0.344 -2.8351  0.9864 -3.7537
  982SOL    HW2 2946   0.538   0.142   0.174 -1.1516  1.1435 -0.8234
  983SOL     OW 2947   2.099   0.714   0.078 -0.3721  0.0885  0.7321
  983SOL    HW1 2948   2.110   0.639   0.144 -0.6999  0.7209 -0.8989
  983SOL    HW2 2949   2.163   0.791   0.103 -0.2797 -0.0853  0.3792
  984SOL     OW 2950   1.055   0.325   3.068 -0.0447 -0.2596  0.5530
  984SOL    HW1 2951   1.151   0.362   3.050  1.2745  0.6945 -0.7020
  984SOL    HW2 2952   1.058   0.254   0.057 -3.1544  0.9140  0.2134
  985SOL     OW 2953   1.373   2.459   1.778 -0.3613 -0.0194 -0.1416
  985SOL    HW1 2954   1.291   2.466   1.846 -2.8045 -0.5304  0.4120
  985SOL    HW2 2955   1.351   2.440   1.680 -0.6043 -3.3257 -1.7044
  986SOL     OW 2956   2.676   0.054   1.980 -0.3181  0.2649  0.0627
  986SOL    HW1 2957   2.634   0.147   1.951 -3.6340  0.8767  1.3831
  986SOL    HW2 2958   2.730   0.019   1.904  2.2511  2.8074  0.6214
  987SOL     OW 2959   2.190   1.251   1.083 -0.9596 -0.3113  0.8426
  987SOL    HW1 2960   2.221   1.294   1.000 -1.2486  0.0313  2.5770
  987SOL    HW2 2961   2.261   1.190   1.114 -1.0484  1.9303 -1.6266
  988SOL     OW 2962   2.304   0.952   1.600  0.1364 -0.3998  0.0863
  988SOL    HW1 2963   2.301   0.961   1.702 -0.2669 -0.4548 -2.1349
  988SOL    HW2 2964   2.290   1.045   1.556  0.6866  1.1685 -1.1519
  989SOL     OW 2965   1.850   1.893   2.995  0.0528 -0.0391 -0.0109
  989SOL    HW1 2966   1.888   1.980   2.956  0.7654  1.7431 -1.0479
  989SOL    HW2 2967   1.921   1.821   3.003 -0.1600  2.2821 -0.9917
  990SOL     OW 2968   1.551   0.707   2.134  0.4097  0.4255  0.3941
  990SOL    HW1 2969   1.646   0.682   2.156  0.5706 -0.7878  0.7593
  990SOL    HW2 2970   1.553   0.802   2.094  1.0504  0.5855  0.0054
  991SOL     OW 2971   1.060   1.101   0.614 -0.7301  0.1877 -0.6731
  991SOL    HW1 2972   1.072   1.001   0.616  1.0352 -2.2926 -0.6141
  991SOL    HW2 2973   1.080   1.143   0.702  0.6887  1.2507 -3.4634
  992SOL     OW 2974   0.230   1.039   1.197  0.6243 -0.4441  0.3965
  992SOL    HW1 2975   0.317   1.090   1.203 -0.2686  3.6130  0.7278
  992SOL    HW2 2976   0.210   1.020   1.099  1.3560  0.0052  0.8178
  993SOL     OW 2977   2.293   0.538   1.925  0.1537  0.1103  0.1496
  993SOL    HW1 2978   2.222   0.608   1.905 -1.6887  0.3664  0.1125
  993SOL    HW2 2979   2.247   0.455   1.969  0.1979 -2.4490 -0.7471
  994SOL     OW 2980   1.380   1.939   1.712  0.3358  0.0010 -0.4762
  994SOL    HW1 2981   1.401   2.025   1.767 -0.1503  0.7114  1.9471
  994SOL    HW2 2982   1.292   1.897   1.741 -0.8836  0.0475 -1.7012
  995SOL     OW 2983   2.214   1.880   2.983 -0.0295  0.4850 -0.5466
  995SOL    HW1 2984   2.310   1.840   2.987 -0.6553 -0.4874  0.1620
  995SOL    HW2 2985   2.145   1.807   3.001  1.0477  1.0010  1.4299
  996SOL     OW 2986   1.976   1.625   0.244 -0.0883 -0.2033 -0.5410
  996SOL    HW1 2987   2.008   1.676   0.324  2.3203 -0.1109 -1.3563
  996SOL    HW2 2988   2.005   1.529   0.241 -1.2208  2.1875  2.8300
  997SOL     OW 2989   1.773   0.607   2.230 -0.4607 -0.4350 -0.2118
  997SOL    HW1 2990   1.816   0.598   2.137  1.8351 -0.1553  2.0031
  997SOL    HW2 2991   1.843   0.616   2.303  1.4993  0.7992 -1.2828
  998SOL     OW 2992   2.681   0.717   0.738 -0.0939  0.1375 -0.0308
  998SOL    HW1 2993   2.630   0.715   0.828 -2.6164  0.0791  1.1721
  998SOL    HW2 2994   2.635   0.654   0.672  2.6008 -0.8718  1.4262
  999SOL     OW 2995   2.386   1.057   0.555 -0.2600 -0.0129 -0.2984
  999SOL    HW1 2996   2.469   1.019   0.593 -0.6441 -1.2804 -2.0582
  999SOL    HW2 2997   2.336   1.107   0.626  2.2885 -2.2995 -0.7254
 1000SOL     OW 2998   0.636   1.283   1.669 -0.0458 -0.1168  0.1412
 1000SOL    HW1 2999   0.596   1.272   1.763 -0.6181  0.4657  2.9334
 1000SOL    HW2 3000   0.562   1.259   1.603  0.6217  0.2224  0.4316
   3.07766   3.07766   3.07766
