1000 SPC/Fw water molecules t= 395.00000 step= 395000
 3000
    1SOL     OW    1   2.801   2.965   1.840 -0.0925  0.0102  0.3552
    1SOL    HW1    2   2.710   2.957   1.887  1.5039 -3.5651 -0.0330
    1SOL    HW2    3   2.816   2.886   1.776  1.3018 -0.6496 -1.3224
    2SOL     OW    4   2.478   2.529   0.347 -0.5883  0.0523  0.2658
    2SOL    HW1    5   2.506   2.534   0.250  0.3539 -0.7169  2.2536
    2SOL    HW2    6   2.477   2.619   0.396 -1.5514 -1.3791  1.0470
    3SOL     OW    7   1.336   2.924   0.294  0.4726  0.1403 -0.2553
    3SOL    HW1    8   1.411   2.989   0.297 -2.3368  1.2688 -0.9939
    3SOL    HW2    9   1.245   2.967   0.278 -1.0552  2.5025  1.9616
    4SOL     OW   10   1.072   2.864   2.411  0.0636 -0.0022 -0.0695
    4SOL    HW1   11   1.172   2.853   2.425 -1.5003  2.3555  0.8491
    4SOL    HW2   12   1.059   2.918   2.324 -2.1373  1.5050  1.8998
    5SOL     OW   13   2.254   3.059   1.553  0.4599  0.1721  0.4438
    5SOL    HW1   14   2.162   3.086   1.525  2.6236  0.1131  2.1768
    5SOL    HW2   15   2.324   3.079   1.485 -1.7044 -0.1780 -2.2566
    6SOL     OW   16   2.168   2.004   0.520 -0.0243  0.3802 -0.1600
    6SOL    HW1   17   2.158   1.946   0.436  0.4525 -1.3811  0.9130
    6SOL    HW2   18   2.088   2.069   0.536 -0.6776  3.2856 -1.1069
    7SOL     OW   19   2.160   1.295   0.647 -0.1230  0.6213 -0.3056
    7SOL    HW1   20   2.255   1.329   0.661  0.4169  2.5219  0.2801
    7SOL    HW2   21   2.131   1.340   0.561  2.4815 -0.3456  0.9437
    8SOL     OW   22   0.545   1.308   0.967  0.0180 -0.4247 -0.1512
    8SOL    HW1   23   0.628   1.289   1.023 -0.7415  0.7192  0.0605
    8SOL    HW2   24   0.568   1.324   0.871  0.1275 -0.0339  1.2774
    9SOL     OW   25   0.275   2.787   1.889 -0.4913  0.1444  0.4788
    9SOL    HW1   26   0.275   2.808   1.788  1.0395 -0.7999 -0.5012
    9SOL    HW2   27   0.323   2.695   1.898 -2.0678 -1.6977 -0.2818
   10SOL     OW   28   1.103   2.466   0.607 -0.1601 -0.1428 -0.1366
   10SOL    HW1   29   1.049   2.414   0.680  2.0102  1.2592  0.2093
   10SOL    HW2   30   1.189   2.414   0.578 -0.5675  0.4457  2.7885
   11SOL     OW   31   1.658   2.157   0.928 -0.0136  0.3994  0.5084
   11SOL    HW1   32   1.660   2.249   0.881  0.7525 -1.9253 -2.4222
   11SOL    HW2   33   1.664   2.167   1.029  2.1899  0.3001 -0.4030
   12SOL     OW   34   2.799   0.487   2.025  0.1140  0.2223  0.1819
   12SOL    HW1   35   2.788   0.573   1.975  2.0499  1.0862  0.0294
   12SOL    HW2   36   2.894   0.463   2.053  0.1100 -1.4760  0.1361
   13SOL     OW   37   2.693   2.920   0.352 -0.0833 -0.1465  0.1838
   13SOL    HW1   38   2.774   2.955   0.402 -0.3073  0.4977  0.8040
   13SOL    HW2   39   2.646   3.000   0.307 -0.5495  0.2622 -1.9485
   14SOL     OW   40   1.805   1.445   3.053  0.2790  0.5248  0.4704
   14SOL    HW1   41   1.729   1.378   3.039 -2.2156 -2.1159  0.3818
   14SOL    HW2   42   1.771   1.529   3.105 -0.3887  0.4992 -0.0414
   15SOL     OW   43   2.716   2.380   1.889  0.1878 -0.4383 -0.2157
   15SOL    HW1   44   2.640   2.357   1.956  1.0520  3.6149  3.6640
   15SOL    HW2   45   2.805   2.351   1.930  1.0570 -1.2491  2.5992
   16SOL     OW   46   2.802   2.982   0.816  0.1609 -0.8054 -0.6660
   16SOL    HW1   47   2.777   3.035   0.905 -1.5996  1.9886  1.1432
   16SOL    HW2   48   2.730   2.916   0.786  2.2133 -2.1701 -0.7966
   17SOL     OW   49   1.190   0.290   1.379  0.1354 -0.2510 -0.1687
   17SOL    HW1   50   1.107   0.249   1.343  0.1015  1.0787  2.8520
   17SOL    HW2   51   1.181   0.293   1.481 -0.4416  0.9012  1.4496
   18SOL     OW   52   1.709   0.100   1.031  0.3603  0.0879  0.0229
   18SOL    HW1   53   1.780   0.051   1.082  0.1010 -0.9475  0.7952
   18SOL    HW2   54   1.740   0.194   1.002 -0.2985  1.7062  0.1744
   19SOL     OW   55   2.220   1.357   0.134 -0.1626 -0.5696 -0.2532
   19SOL    HW1   56   2.183   1.407   0.051  1.7840  1.1750 -1.0198
   19SOL    HW2   57   2.290   1.411   0.184 -1.2078  0.5107 -0.4912
   20SOL     OW   58   2.445   1.529   2.288 -0.0510  0.0291 -0.2589
   20SOL    HW1   59   2.440   1.482   2.381  1.4772 -1.6281  1.2351
   20SOL    HW2   60   2.481   1.628   2.302  0.9991 -1.6785  1.1031
   21SOL     OW   61   1.335   0.025   0.535  0.2852 -0.3602 -0.5574
   21SOL    HW1   62   1.295   0.120   0.518 -2.3760  1.0189 -1.6775
   21SOL    HW2   63   1.272   3.091   0.596  2.0318  2.2551 -1.5147
   22SOL     OW   64   2.851   0.981   0.944  0.0201  0.0642  0.9088
   22SOL    HW1   65   2.863   1.002   1.046  0.3250  1.9417  1.1842
   22SOL    HW2   66   2.752   0.977   0.924 -1.1235 -0.2158  0.3112
   23SOL     OW   67   0.533   0.114   1.850 -0.6881 -0.5970  0.3804
   23SOL    HW1   68   0.478   0.186   1.895  1.0184 -1.9170 -1.0398
   23SOL    HW2   69   0.512   0.019   1.879  2.4176  0.5637 -1.8512
   24SOL     OW   70   2.273   2.649   0.621  0.6225  0.7958 -0.1013
   24SOL    HW1   71   2.338   2.688   0.556 -0.4679 -1.2532  0.3952
   24SOL    HW2   72   2.181   2.635   0.585 -2.5933 -1.3633 -0.6062
   25SOL     OW   73   2.008   2.940   2.618  0.2603  0.7881 -0.4667
   25SOL    HW1   74   2.107   2.915   2.610 -0.5894  1.7162  0.1620
   25SOL    HW2   75   1.984   2.981   2.708 -1.5047 -2.1343  0.9771
   26SOL     OW   76   1.386   2.609   3.074  0.3961  0.0168 -0.3906
   26SOL    HW1   77   1.374   2.707   3.070  2.9617 -1.2619  1.1113
   26SOL    HW2   78   1.305   2.570   0.008 -0.3617 -0.5414  1.5899
   27SOL     OW   79   1.348   0.576   1.058 -0.4823 -0.4478  0.1769
   27SOL    HW1   80   1.252   0.611   1.051 -0.4398 -0.5810  1.2433
   27SOL    HW2   81   1.383   0.576   1.152 -0.4141 -0.3405 -0.2691
   28SOL     OW   82   0.923   1.393   0.459 -0.0163 -0.3164  0.2354
   28SOL    HW1   83   0.888   1.318   0.399 -0.2416  3.1944  1.1099
   28SOL    HW2   84   0.975   1.350   0.536  3.0219  1.7500  1.2925
   29SOL     OW   85   2.627   0.448   1.562  0.1058 -0.2412 -0.2708
   29SOL    HW1   86   2.637   0.382   1.639  1.2108 -1.7038 -1.1437
   29SOL    HW2   87   2.605   0.539   1.599  2.0991  1.1161 -1.6565
   30SOL     OW   88   1.284   2.713   1.373  0.5854 -0.4430  0.4286
   30SOL    HW1   89   1.258   2.779   1.447 -0.3832 -0.9369 -0.7148
   30SOL    HW2   90   1.289   2.623   1.420 -0.9605  0.8190 -0.0736
   31SOL     OW   91   1.798   3.000   1.602 -0.3768  0.4036 -0.4162
   31SOL    HW1   92   1.788   2.949   1.687 -0.9215 -0.1917 -1.9531
   31SOL    HW2   93   1.836   2.939   1.528  0.8972 -1.1497  1.9293
   32SOL     OW   94   1.505   1.839   2.750  0.3300  0.0035  0.0455
   32SOL    HW1   95   1.601   1.807   2.766  1.9212  2.8009  0.6492
   32SOL    HW2   96   1.467   1.812   2.656 -3.6756 -1.1437 -2.0055
   33SOL     OW   97   2.763   0.677   2.691  0.2859  0.6636 -0.3615
   33SOL    HW1   98   2.764   0.651   2.595  0.7458  3.0899  2.4223
   33SOL    HW2   99   2.665   0.681   2.726 -1.6469 -1.0855  0.9233
   34SOL     OW  100   1.983   0.427   0.474 -0.0439  0.0191  0.3899
   34SOL    HW1  101   1.941   0.467   0.557 -0.8677  0.4217 -0.0072
   34SOL    HW2  102   1.952   0.472   0.387 -0.8099 -1.7278 -1.6131
   35SOL     OW  103   3.011   2.159   2.297  0.3299 -0.5285  0.4796
   35SOL    HW1  104   2.975   2.066   2.327 -1.1878 -0.1699  1.9820
   35SOL    HW2  105   3.038   2.219   2.375  0.9363  2.0882  0.4800
   36SOL     OW  106   2.289   1.834   2.990  0.0745 -0.3099 -0.0154
   36SOL    HW1  107   2.290   1.794   2.895  4.6971 -1.1514 -2.0126
   36SOL    HW2  108   2.304   1.935   2.985 -0.7402 -2.5994 -1.8461
   37SOL     OW  109   1.837   0.340   1.478 -0.1483 -0.2889  0.5212
   37SOL    HW1  110   1.867   0.387   1.387  0.5753  1.0860  0.1044
   37SOL    HW2  111   1.919   0.328   1.541 -0.4499  1.7546  1.0490
   38SOL     OW  112   0.265   0.308   2.780 -0.1165  0.1820 -0.5821
   38SOL    HW1  113   0.314   0.385   2.729  0.3035  0.1161  2.8413
   38SOL    HW2  114   0.326   0.254   2.836  1.5252 -0.8467 -1.7742
   39SOL     OW  115   1.654   1.206   1.573 -0.0557 -0.0114 -0.0098
   39SOL    HW1  116   1.585   1.205   1.494  1.1517  0.1521  0.5867
   39SOL    HW2  117   1.725   1.273   1.553  0.0223 -1.9280 -0.0202
   40SOL     OW  118   1.097   1.900   0.955  0.0509 -0.2560  0.3736
   40SOL    HW1  119   1.049   1.825   1.000 -1.3080  0.2278 -3.6169
   40SOL    HW2  120   1.189   1.863   0.939 -2.7004  1.5879 -1.3602
   41SOL     OW  121   1.982   1.848   0.866 -0.1325  0.0744 -0.0365
   41SOL    HW1  122   1.961   1.856   0.965  0.6500 -0.3091  1.9574
   41SOL    HW2  123   1.978   1.750   0.840 -1.3017 -0.1356 -0.2358
   42SOL     OW  124   2.745   0.682   1.214  0.1141 -0.4389  0.3864
   42SOL    HW1  125   2.837   0.642   1.226 -0.4587 -0.6265 -0.5545
   42SOL    HW2  126   2.747   0.787   1.229  0.3693  1.8374 -1.9996
   43SOL     OW  127   0.622   1.867   2.967  0.4760  0.3777 -0.2556
   43SOL    HW1  128   0.605   1.903   3.063  3.1222 -0.0360  2.0516
   43SOL    HW2  129   0.655   1.770   2.973  0.6763 -1.3167  1.7171
   44SOL     OW  130   1.578   2.468   1.418 -0.0113 -0.1752  0.4620
   44SOL    HW1  131   1.531   2.500   1.498  2.1883  1.3565  1.5842
   44SOL    HW2  132   1.591   2.553   1.356 -2.7068  3.0061 -0.7555
   45SOL     OW  133   0.995   3.043   2.583  0.3613 -0.2172 -0.4813
   45SOL    HW1  134   1.013   2.991   2.500  1.4788  0.9914  0.5871
   45SOL    HW2  135   0.919   3.110   2.565 -0.3728  0.0023 -0.1161
   46SOL     OW  136   0.823   2.440   2.248  0.2555 -0.0184  0.1270
   46SOL    HW1  137   0.851   2.420   2.152  2.0775 -0.5541  0.1960
   46SOL    HW2  138   0.805   2.538   2.265 -0.8349  0.3364  1.0043
   47SOL     OW  139   0.862   2.213   1.036 -0.0035  0.5521 -0.3537
   47SOL    HW1  140   0.805   2.292   1.068 -0.5141 -0.8878 -0.2602
   47SOL    HW2  141   0.813   2.134   1.072  0.0958  2.2633 -0.4261
   48SOL     OW  142   0.771   2.286   1.369 -0.3107  0.2543  0.7655
   48SOL    HW1  143   0.753   2.321   1.268  0.6358  0.3975 -1.4075
   48SOL    HW2  144   0.725   2.197   1.398 -1.5554  0.9307  1.9795
   49SOL     OW  145   2.468   0.020   0.156  0.2108 -0.1609 -0.0426
   49SOL    HW1  146   2.443   0.085   0.232 -0.6830  0.3409 -0.1517
   49SOL    HW2  147   2.556   0.059   0.115  0.2261 -0.5529 -3.8948
   50SOL     OW  148   1.864   0.568   0.229 -0.1261  0.3741  0.4119
   50SOL    HW1  149   1.912   0.627   0.163 -3.1158  1.0000 -0.1328
   50SOL    HW2  150   1.794   0.626   0.269  1.8723 -3.0626 -0.5837
   51SOL     OW  151   1.877   0.899   0.982  0.8222 -0.6366  0.9273
   51SOL    HW1  152   1.959   0.852   0.947 -1.1029 -1.9397 -1.2178
   51SOL    HW2  153   1.847   0.863   1.073 -1.5011 -2.0502 -1.8265
   52SOL     OW  154   0.567   1.589   0.185  0.5443  0.1445  0.1356
   52SOL    HW1  155   0.626   1.611   0.105 -2.5914  0.9852  2.0190
   52SOL    HW2  156   0.594   1.500   0.226 -0.5526 -0.4960  4.3794
   53SOL     OW  157   0.216   1.545   3.005  0.1619 -0.0050  0.3353
   53SOL    HW1  158   0.244   1.443   3.016  0.7496 -2.8531 -0.9317
   53SOL    HW2  159   0.279   1.588   2.938  0.0034 -1.1200 -3.2375
   54SOL     OW  160   2.522   1.333   2.102 -0.7856 -0.7719  0.5207
   54SOL    HW1  161   2.494   1.418   2.154 -1.3561 -1.2637  2.6136
   54SOL    HW2  162   2.500   1.344   2.004  0.9116  0.0159  0.6522
   55SOL     OW  163   2.600   2.053   0.713 -0.4848  0.2855 -0.2152
   55SOL    HW1  164   2.522   2.082   0.649  0.1543  1.1570 -2.0695
   55SOL    HW2  165   2.560   2.033   0.806 -1.5099  0.1051  0.8512
   56SOL     OW  166   1.911   3.111   1.165  0.3575  0.7617  0.1006
   56SOL    HW1  167   1.983   0.064   1.182  1.4106  1.8020  0.8188
   56SOL    HW2  168   1.963   3.027   1.133 -1.2481 -0.7040 -1.2317
   57SOL     OW  169   1.526   1.283   0.184 -0.1894  0.4378 -0.6271
   57SOL    HW1  170   1.513   1.229   0.103  0.0654  0.4018  3.6437
   57SOL    HW2  171   1.518   1.223   0.264 -0.4543 -2.3833  0.8561
   58SOL     OW  172   2.102   0.351   1.531  0.7740  0.2649 -0.3718
   58SOL    HW1  173   2.196   0.329   1.500 -1.5347  0.6371 -2.7262
   58SOL    HW2  174   2.103   0.430   1.594 -0.6085 -2.0024 -1.0265
   59SOL     OW  175   1.300   2.746   2.705 -0.1919  0.2408  0.2529
   59SOL    HW1  176   1.299   2.803   2.619 -0.3237 -0.9490 -2.4377
   59SOL    HW2  177   1.250   2.657   2.688 -0.9923 -4.7952  0.0515
   60SOL     OW  178   3.001   2.598   2.695 -0.6863 -0.0656 -0.2387
   60SOL    HW1  179   2.984   2.578   2.794  0.7606  1.0069 -1.5149
   60SOL    HW2  180   2.927   2.559   2.635  0.3121  1.7206 -0.7573
   61SOL     OW  181   0.717   2.432   1.127 -0.2315 -0.6384 -0.2762
   61SOL    HW1  182   0.778   2.510   1.140 -0.7890 -2.4953  1.8134
   61SOL    HW2  183   0.638   2.453   1.073  3.2885  1.9006  0.1575
   62SOL     OW  184   1.670   1.883   2.164  0.6323 -0.0787  0.1176
   62SOL    HW1  185   1.699   1.891   2.068  0.9310  2.8395  0.8168
   62SOL    HW2  186   1.740   1.828   2.215  0.8540  1.7839  0.0956
   63SOL     OW  187   1.655   1.710   0.076 -0.3168  0.5184  0.2309
   63SOL    HW1  188   1.622   1.803   0.101  0.4929  0.6588 -1.5604
   63SOL    HW2  189   1.654   1.650   0.162 -0.9148 -0.5000  0.4555
   64SOL     OW  190   1.890   1.137   0.112  0.2543  0.0692  0.0591
   64SOL    HW1  191   1.821   1.177   0.050 -0.9934  0.1503 -1.6370
   64SOL    HW2  192   1.851   1.126   0.208 -1.2207 -4.7850  0.9045
   65SOL     OW  193   2.271   2.271   1.924  0.1638 -0.1016  0.0034
   65SOL    HW1  194   2.215   2.240   2.005 -0.4222 -1.4344 -0.4523
   65SOL    HW2  195   2.220   2.276   1.839  2.1854  1.3267  0.8079
   66SOL     OW  196   0.396   0.934   1.622  0.0586 -0.3220  0.4331
   66SOL    HW1  197   0.424   0.865   1.551 -2.8937  2.2382  1.0343
   66SOL    HW2  198   0.416   1.032   1.588 -1.2850 -0.2027 -2.3256
   67SOL     OW  199   2.335   2.904   0.160 -0.3170 -0.3632  0.0544
   67SOL    HW1  200   2.269   2.906   0.083  0.2465  0.9375 -0.1215
   67SOL    HW2  201   2.373   2.999   0.179  1.7364 -0.8219  0.4859
   68SOL     OW  202   1.866   2.330   1.140  0.3583  0.2718 -0.3486
   68SOL    HW1  203   1.898   2.317   1.043  0.0693 -1.2551 -0.4592
   68SOL    HW2  204   1.775   2.371   1.137  0.8114 -4.7651 -0.3918
   69SOL     OW  205   2.896   1.970   0.026 -0.8158  0.3710 -0.0803
   69SOL    HW1  206   2.805   1.922   0.019  0.8772 -2.3899 -0.2795
   69SOL    HW2  207   2.930   1.985   0.123  0.0436 -2.0604 -1.3615
   70SOL     OW  208   3.110   1.083   1.971 -0.4247  0.0694  0.4292
   70SOL    HW1  209   0.066   1.127   1.911  0.8158 -1.3548 -0.1322
   70SOL    HW2  210   3.103   1.136   2.062 -0.1776  4.2380  1.0158
   71SOL     OW  211   0.925   1.087   2.414 -0.5804  0.0666 -0.2625
   71SOL    HW1  212   0.844   1.132   2.377  1.6675 -1.9965  0.3755
   71SOL    HW2  213   0.903   0.988   2.437 -2.4202  0.6273 -2.9386
   72SOL     OW  214   2.803   1.476   2.193  0.7409  0.3950  0.8875
   72SOL    HW1  215   2.789   1.580   2.194 -0.5532  0.8033 -2.2462
   72SOL    HW2  216   2.764   1.433   2.106 -0.8941 -0.9749  2.9898
   73SOL     OW  217   1.191   1.970   3.023  0.1627 -0.1861  0.0578
   73SOL    HW1  218   1.248   2.046   2.987 -1.7640 -1.2002  1.3372
   73SOL    HW2  219   1.175   1.996   3.118 -1.4196  0.5404 -1.2725
   74SOL     OW  220   1.965   3.040   2.367  0.2678  0.5126  0.0255
   74SOL    HW1  221   1.951   2.997   2.457  2.1953  3.7492 -1.6424
   74SOL    HW2  222   2.027   3.117   2.381 -0.7962 -2.4580  3.3577
   75SOL     OW  223   1.502   2.444   0.739  0.1361  0.3357  0.1856
   75SOL    HW1  224   1.484   2.491   0.829 -2.1074  0.8693  2.4009
   75SOL    HW2  225   1.597   2.402   0.725  0.9175 -1.3134 -1.8405
   76SOL     OW  226   2.864   1.628   2.644  0.4946  0.3467 -0.4231
   76SOL    HW1  227   2.770   1.590   2.647  0.1036 -1.2946  1.3940
   76SOL    HW2  228   2.924   1.575   2.707 -1.1611  3.5933  0.8007
   77SOL     OW  229   3.009   2.530   1.767 -0.0713  0.4687  0.4214
   77SOL    HW1  230   2.959   2.566   1.848  1.8503 -1.9360  0.6677
   77SOL    HW2  231   2.945   2.492   1.695  1.1987 -1.4418  0.1203
   78SOL     OW  232   2.533   0.968   0.123 -0.2716  0.0866 -0.0416
   78SOL    HW1  233   2.454   1.027   0.104 -1.1276  1.2106 -0.0005
   78SOL    HW2  234   2.529   0.883   0.060  0.8891 -2.0147 -0.0724
   79SOL     OW  235   0.424   1.559   2.648  0.2207 -0.4875 -0.5922
   79SOL    HW1  236   0.454   1.566   2.553 -0.2306 -1.9816  1.8686
   79SOL    HW2  237   0.326   1.532   2.654 -2.1126 -1.4087  0.6831
   80SOL     OW  238   1.948   1.619   2.133  0.6870 -0.1610 -0.2552
   80SOL    HW1  239   1.917   1.704   2.183 -1.8806 -0.7496 -0.3803
   80SOL    HW2  240   2.022   1.576   2.182  1.7987 -2.0570  1.4176
   81SOL     OW  241   2.172   1.452   2.184  0.1053  0.2666 -0.1213
   81SOL    HW1  242   2.195   1.355   2.178 -1.4268  0.6149 -0.6815
   81SOL    HW2  243   2.258   1.506   2.173  1.2461 -2.4913 -2.1255
   82SOL     OW  244   1.574   1.496   1.848 -0.3620 -0.4917  0.1372
   82SOL    HW1  245   1.498   1.545   1.797 -0.2519 -1.3063 -1.3219
   82SOL    HW2  246   1.556   1.393   1.847  0.4061 -0.3052 -0.7326
   83SOL     OW  247   3.064   0.288   0.113 -0.0753 -0.3151 -0.5069
   83SOL    HW1  248   3.099   0.207   0.163  0.6238 -0.2305 -0.6958
   83SOL    HW2  249   2.964   0.298   0.119  0.3377 -0.3767 -2.1521
   84SOL     OW  250   0.075   0.633   0.326  0.4908 -0.2508 -0.2079
   84SOL    HW1  251   3.112   0.676   0.281  3.3399 -0.4165 -1.3338
   84SOL    HW2  252   0.119   0.701   0.385 -0.8492 -2.5922  2.3709
   85SOL     OW  253   2.222   2.076   1.278  0.0603 -0.2311 -0.4142
   85SOL    HW1  254   2.136   2.104   1.230 -0.7461  0.6343  1.3704
   85SOL    HW2  255   2.249   2.151   1.341  0.1624 -1.5411 -0.5870
   86SOL     OW  256   0.374   0.410   1.316  0.1211  0.2810  0.0021
   86SOL    HW1  257   0.377   0.502   1.279  1.3819  2.2391  1.4926
   86SOL    HW2  258   0.462   0.390   1.366 -2.9302  1.5218 -2.0843
   87SOL     OW  259   3.094   2.063   2.057  0.0463  0.3862 -0.5049
   87SOL    HW1  260   3.064   2.074   2.157 -1.5961 -0.5487  2.9741
   87SOL    HW2  261   0.060   2.116   2.037 -2.5029  0.2526 -0.7005
   88SOL     OW  262   0.361   2.109   3.076 -0.2831  0.0953  0.0935
   88SOL    HW1  263   0.389   2.159   2.993 -0.6935 -1.0509  0.2793
   88SOL    HW2  264   0.314   2.027   3.052 -1.0679  0.6194  1.2723
   89SOL     OW  265   1.122   0.823   0.290  0.2397  0.3093  0.2893
   89SOL    HW1  266   1.068   0.745   0.325  1.3203 -0.6586  1.9218
   89SOL    HW2  267   1.087   0.861   0.199  0.2217 -0.7034 -2.7065
   90SOL     OW  268   0.144   1.475   2.384  0.5114 -0.0877  0.1216
   90SOL    HW1  269   0.175   1.571   2.399  1.7948 -0.0183  1.2895
   90SOL    HW2  270   0.037   1.474   2.383  0.8474  0.5378  2.6306
   91SOL     OW  271   2.076   0.213   1.265 -0.1052 -0.1236  0.2102
   91SOL    HW1  272   2.082   0.244   1.361 -0.8515  0.7478 -0.8783
   91SOL    HW2  273   2.169   0.224   1.221  0.2626 -1.0285  0.5304
   92SOL     OW  274   2.331   1.317   1.257 -0.1793 -0.0780 -0.4889
   92SOL    HW1  275   2.331   1.385   1.180  0.9859 -0.2237  1.4258
   92SOL    HW2  276   2.388   1.351   1.332 -0.8530  0.4946 -1.6910
   93SOL     OW  277   0.295   1.291   2.983  0.0617 -0.2058  0.0150
   93SOL    HW1  278   0.343   1.275   3.068 -0.0688 -0.8965 -2.2205
   93SOL    HW2  279   0.355   1.282   2.901  0.1109 -0.0919  0.1201
   94SOL     OW  280   1.542   2.411   2.156  0.2959  0.9233  0.0228
   94SOL    HW1  281   1.506   2.323   2.192 -2.1196  0.3280  0.6811
   94SOL    HW2  282   1.536   2.419   2.055  2.2056  0.3951 -2.8200
   95SOL     OW  283   0.428   0.662   1.202 -0.0765 -0.2923 -0.1002
   95SOL    HW1  284   0.494   0.677   1.126 -0.8102 -0.0706 -0.7869
   95SOL    HW2  285   0.330   0.667   1.169 -1.5956 -0.5689  2.4067
   96SOL     OW  286   2.674   2.979   1.481  0.4978  0.0389 -0.0146
   96SOL    HW1  287   2.716   2.890   1.449 -0.1198 -0.8563  1.8534
   96SOL    HW2  288   2.743   3.042   1.511 -0.2106 -3.7630 -0.7831
   97SOL     OW  289   2.585   0.714   1.683  0.2890  0.3082 -0.4869
   97SOL    HW1  290   2.502   0.773   1.673  0.1713 -1.5474 -1.3146
   97SOL    HW2  291   2.603   0.684   1.780  2.1245 -1.7738  0.1770
   98SOL     OW  292   2.223   2.706   1.226 -0.1143 -0.2036  0.1055
   98SOL    HW1  293   2.250   2.633   1.293  2.1418  2.9665  0.1864
   98SOL    HW2  294   2.308   2.715   1.168  2.1062  0.1739  2.1082
   99SOL     OW  295   0.570   3.033   1.448 -0.1991  0.6612 -0.2355
   99SOL    HW1  296   0.528   3.112   1.497 -0.0307 -0.7560  0.1689
   99SOL    HW2  297   0.572   3.044   1.349 -2.7043 -0.1944  1.7517
  100SOL     OW  298   2.148   0.216   2.150  0.2334 -0.2618  0.3477
  100SOL    HW1  299   2.094   0.302   2.156 -0.4708 -3.7822 -0.0769
  100SOL    HW2  300   2.238   0.227   2.102 -0.0668 -0.7068  0.0219
  101SOL     OW  301   2.992   0.095   2.349 -0.6739  0.0880  0.4052
  101SOL    HW1  302   3.010   0.010   2.401 -0.5828 -0.1487  0.3347
  101SOL    HW2  303   3.069   0.157   2.361 -1.0570 -3.1607 -1.5255
  102SOL     OW  304   0.661   0.480   1.848  0.4936  0.0083  0.1263
  102SOL    HW1  305   0.711   0.406   1.802 -1.6129 -0.0619 -1.2071
  102SOL    HW2  306   0.667   0.467   1.948 -2.2178 -0.2025  1.1546
  103SOL     OW  307   0.851   0.745   2.773 -0.2284  0.0405 -0.0807
  103SOL    HW1  308   0.951   0.731   2.779 -1.0569 -1.9171 -1.8875
  103SOL    HW2  309   0.821   0.842   2.780 -3.3655  0.9149 -3.1781
  104SOL     OW  310   0.002   0.638   2.161 -0.0884  0.1979 -0.1018
  104SOL    HW1  311   0.101   0.630   2.178  1.5206  0.4051  1.5164
  104SOL    HW2  312   3.095   0.700   2.087  0.1570 -2.1216  1.6119
  105SOL     OW  313   2.653   2.078   1.403 -0.9889  0.0666 -0.0212
  105SOL    HW1  314   2.601   2.042   1.482 -0.3679  0.0681 -0.2997
  105SOL    HW2  315   2.595   2.081   1.321 -0.5473 -0.6801  0.5317
  106SOL     OW  316   1.886   0.172   0.353  0.0608  0.2606  0.4442
  106SOL    HW1  317   1.933   0.233   0.420 -2.8816 -0.5294  1.3526
  106SOL    HW2  318   1.821   0.223   0.290 -0.1994  2.0095  0.4550
  107SOL     OW  319   1.762   2.371   0.723  0.4529 -0.0420  0.3058
  107SOL    HW1  320   1.795   2.468   0.709  1.2227 -1.1245  0.8334
  107SOL    HW2  321   1.825   2.296   0.690 -0.3659 -0.4193  2.2731
  108SOL     OW  322   0.159   2.286   1.253  0.0050  1.0168  0.2990
  108SOL    HW1  323   0.066   2.275   1.215 -0.1487  2.5558 -0.1757
  108SOL    HW2  324   0.216   2.344   1.192 -0.4236  1.0605  2.2829
  109SOL     OW  325   1.843   2.666   0.672 -0.7156 -0.0154 -0.3171
  109SOL    HW1  326   1.780   2.704   0.602  1.5872 -0.8745 -0.2557
  109SOL    HW2  327   1.816   2.709   0.767  0.3629  0.7681  0.9625
  110SOL     OW  328   1.411   1.645   1.680  0.9246 -0.2047  0.2911
  110SOL    HW1  329   1.399   1.719   1.753  1.8833 -2.4265  1.2856
  110SOL    HW2  330   1.327   1.629   1.627 -2.3003  1.4444  0.1271
  111SOL     OW  331   1.891   2.296   1.768  0.1293 -0.4724 -0.0233
  111SOL    HW1  332   1.845   2.266   1.680  0.3914 -0.2027 -0.3666
  111SOL    HW2  333   1.869   2.393   1.795 -0.4403  0.0352  1.9865
  112SOL     OW  334   1.799   2.050   2.970  0.5540 -0.0219 -0.4589
  112SOL    HW1  335   1.698   2.040   2.950  0.1410  0.9468 -0.0479
  112SOL    HW2  336   1.834   2.142   2.936  2.2187  1.8091  0.6739
  113SOL     OW  337   2.134   1.929   1.613 -0.1264 -0.0627 -0.0025
  113SOL    HW1  338   2.066   1.895   1.548  1.3580  1.7540  2.1225
  113SOL    HW2  339   2.129   1.883   1.706  0.2221 -0.6944  0.0200
  114SOL     OW  340   0.002   1.460   1.651  0.5165  0.4546  0.1727
  114SOL    HW1  341   0.057   1.530   1.611 -0.7899 -1.4239  2.4219
  114SOL    HW2  342   3.104   1.389   1.578 -0.2353 -0.6999  1.3300
  115SOL     OW  343   0.241   0.789   0.471  0.6717 -0.2765  0.1839
  115SOL    HW1  344   0.171   0.856   0.508 -1.0125  2.1693  1.5139
  115SOL    HW2  345   0.296   0.754   0.548 -0.9090  3.4352 -2.2749
  116SOL     OW  346   2.745   1.205   2.637 -0.0442  0.0796  0.1232
  116SOL    HW1  347   2.740   1.271   2.558 -0.2362  0.6886 -0.1814
  116SOL    HW2  348   2.717   1.250   2.727 -3.4439  0.0817  0.5819
  117SOL     OW  349   2.877   2.417   0.368  0.7826 -0.3084 -0.4235
  117SOL    HW1  350   2.846   2.491   0.310  2.0406 -0.6888 -0.1135
  117SOL    HW2  351   2.911   2.453   0.458 -2.0507  0.6846 -2.2919
  118SOL     OW  352   0.650   2.132   2.896  0.0651 -0.1689 -0.5125
  118SOL    HW1  353   0.562   2.168   2.847 -1.9484  2.4402 -0.0547
  118SOL    HW2  354   0.654   2.030   2.894  2.7446 -0.4433  1.1740
  119SOL     OW  355   0.591   2.256   0.667 -0.0605 -0.0590 -0.5925
  119SOL    HW1  356   0.662   2.203   0.614  4.4657 -3.7336 -0.9243
  119SOL    HW2  357   0.528   2.187   0.708 -1.5065  1.4806  0.2179
  120SOL     OW  358   1.521   0.296   0.389 -1.2600 -0.4632 -0.0886
  120SOL    HW1  359   1.465   0.366   0.344  1.1782 -1.0043 -0.8341
  120SOL    HW2  360   1.471   0.236   0.450  0.9500 -1.4174 -0.3523
  121SOL     OW  361   1.383   2.546   0.969 -0.3776  0.1637 -0.1825
  121SOL    HW1  362   1.381   2.647   0.952 -0.5643 -2.1914  2.1814
  121SOL    HW2  363   1.290   2.508   0.955 -0.7549  0.7625  1.7495
  122SOL     OW  364   2.611   2.081   2.042 -0.8566 -0.4484 -0.3087
  122SOL    HW1  365   2.604   2.116   2.138  0.6998  1.1483 -0.3035
  122SOL    HW2  366   2.709   2.072   2.020 -1.1298 -0.4940  0.8789
  123SOL     OW  367   0.829   1.546   0.833  0.4779 -0.8756  0.0992
  123SOL    HW1  368   0.744   1.594   0.862 -0.1712  1.1678  1.1336
  123SOL    HW2  369   0.879   1.593   0.761 -1.4656 -2.7389  2.1356
  124SOL     OW  370   0.120   0.430   3.094  0.5325  0.1462  0.0752
  124SOL    HW1  371   0.052   0.376   0.033 -0.2901 -1.1128  0.2378
  124SOL    HW2  372   0.097   0.429   2.996  1.0767  1.8213 -1.7289
  125SOL     OW  373   0.263   0.203   0.073 -0.3188  0.0953 -0.2105
  125SOL    HW1  374   0.238   0.304   0.049 -1.9437  3.6005 -0.8118
  125SOL    HW2  375   0.307   0.163   3.110 -1.9872  0.8253  0.5956
  126SOL     OW  376   3.075   1.593   0.544  0.2702  0.1678 -0.2181
  126SOL    HW1  377   0.020   1.560   0.472  0.0408  0.6339  0.3479
  126SOL    HW2  378   3.061   1.693   0.527  3.6177  1.2207  0.4275
  127SOL     OW  379   1.099   2.560   1.559  0.0163  0.2471  0.3784
  127SOL    HW1  380   1.028   2.637   1.561 -0.3200  2.2608  0.4450
  127SOL    HW2  381   1.086   2.481   1.492  0.8873  0.5059 -1.1909
  128SOL     OW  382   1.257   1.677   0.003  0.2330  0.0273 -0.1481
  128SOL    HW1  383   1.346   1.660   3.071 -1.3581 -1.0481 -0.9494
  128SOL    HW2  384   1.177   1.643   3.065 -2.7276  0.3465 -3.5059
  129SOL     OW  385   1.931   2.079   1.228 -0.7769  0.2197  0.3980
  129SOL    HW1  386   1.923   2.172   1.188  0.2403 -3.1521  0.0214
  129SOL    HW2  387   1.838   2.032   1.236 -2.3772 -1.1681 -0.8993
  130SOL     OW  388   2.155   2.201   1.678  0.2603 -0.4062 -0.2652
  130SOL    HW1  389   2.143   2.103   1.648  0.3969 -3.0568  1.5626
  130SOL    HW2  390   2.067   2.244   1.701  1.3013  0.6503 -0.4798
  131SOL     OW  391   2.718   2.226   2.556  0.2158 -0.2550 -0.1236
  131SOL    HW1  392   2.695   2.323   2.579  0.3250  2.2028  0.7137
  131SOL    HW2  393   2.802   2.202   2.605 -1.2992 -0.3282 -0.6456
  132SOL     OW  394   3.070   2.255   0.762  0.8671 -0.3082  0.1915
  132SOL    HW1  395   3.117   2.302   0.838  1.2906  0.0706 -1.5046
  132SOL    HW2  396   2.987   2.211   0.797  0.7543 -0.8573 -1.1693
  133SOL     OW  397   0.696   0.364   2.115  0.0879 -0.0713  0.0944
  133SOL    HW1  398   0.775   0.357   2.178 -0.9225  1.1983  1.4794
  133SOL    HW2  399   0.611   0.374   2.175  1.3576 -0.3717 -0.3699
  134SOL     OW  400   2.868   1.739   0.242 -0.1954  0.1017 -0.0251
  134SOL    HW1  401   2.949   1.775   0.290  2.0088 -0.8644 -0.2166
  134SOL    HW2  402   2.804   1.811   0.208  0.7235 -1.0722 -2.6939
  135SOL     OW  403   1.765   1.200   2.580 -0.1683  0.1293  0.0307
  135SOL    HW1  404   1.801   1.159   2.667  1.0060  1.0799  1.3115
  135SOL    HW2  405   1.665   1.223   2.577  0.8492  0.5876  1.6465
  136SOL     OW  406   2.655   1.836   1.100  0.7298  0.0911  0.3264
  136SOL    HW1  407   2.716   1.873   1.169 -1.3867  0.8436 -0.0652
  136SOL    HW2  408   2.706   1.790   1.024  1.1103  0.7571 -1.6138
  137SOL     OW  409   2.762   1.734   0.877 -0.2242 -0.5480 -0.1325
  137SOL    HW1  410   2.820   1.665   0.919 -0.4414  1.5002  2.2194
  137SOL    HW2  411   2.727   1.708   0.786 -0.0920 -1.4989 -0.0010
  138SOL     OW  412   2.894   0.434   0.836 -0.0286 -1.2164 -0.3042
  138SOL    HW1  413   2.915   0.343   0.878 -1.7510  1.6235 -1.4525
  138SOL    HW2  414   2.824   0.489   0.889 -3.2877  0.7896  0.3706
  139SOL     OW  415   0.023   2.896   0.131  0.0654 -0.3130  0.4274
  139SOL    HW1  416   3.106   2.941   0.046 -0.9500  0.1967 -0.1800
  139SOL    HW2  417   0.060   2.967   0.196 -0.2166 -0.7590 -1.8454
  140SOL     OW  418   0.662   1.719   1.674 -0.4544 -0.1993 -0.4224
  140SOL    HW1  419   0.702   1.633   1.705 -0.3584  1.2107 -1.5192
  140SOL    HW2  420   0.720   1.774   1.614 -0.5256  1.0422 -2.7710
  141SOL     OW  421   1.343   1.793   0.870  0.2020  0.8777 -0.1567
  141SOL    HW1  422   1.365   1.707   0.924 -0.0650 -0.3986 -1.3396
  141SOL    HW2  423   1.424   1.849   0.848 -2.3249 -0.4594  2.1678
  142SOL     OW  424   1.080   0.572   1.040  0.3181 -0.2540  0.1744
  142SOL    HW1  425   1.049   0.488   0.992  0.4961  1.4379  0.4359
  142SOL    HW2  426   1.108   0.557   1.137  1.7447  0.7674  0.1614
  143SOL     OW  427   0.722   1.446   2.609 -0.4714 -0.4318 -0.5527
  143SOL    HW1  428   0.812   1.411   2.580 -1.5419 -0.3317 -1.7613
  143SOL    HW2  429   0.667   1.459   2.524  0.0143  2.9588 -1.5982
  144SOL     OW  430   2.346   2.981   0.759 -0.1355 -0.0811  0.2886
  144SOL    HW1  431   2.339   3.059   0.826 -1.9276  0.3874 -1.9948
  144SOL    HW2  432   2.255   2.957   0.728  3.2128 -1.5797  1.4027
  145SOL     OW  433   2.418   0.412   2.724 -0.4227 -0.2647  0.0544
  145SOL    HW1  434   2.365   0.341   2.771  1.9384  0.1994 -1.9692
  145SOL    HW2  435   2.516   0.388   2.745  0.0889 -0.8960  0.6492
  146SOL     OW  436   3.102   2.696   0.624 -0.1696 -0.0097  0.1415
  146SOL    HW1  437   3.035   2.619   0.637  0.7297 -4.4286 -0.0271
  146SOL    HW2  438   3.110   2.765   0.701 -0.1060  1.4095  0.6320
  147SOL     OW  439   0.962   1.314   2.561  0.4557  0.1385 -0.3489
  147SOL    HW1  440   0.951   1.220   2.523 -0.1454  4.3038 -0.2656
  147SOL    HW2  441   1.061   1.335   2.546 -0.9544 -1.0037  0.1521
  148SOL     OW  442   1.477   0.236   2.738  0.1255  0.2219  0.1856
  148SOL    HW1  443   1.474   0.149   2.784  2.0872  0.8477  0.2527
  148SOL    HW2  444   1.485   0.218   2.640 -2.0029 -1.0058  1.9964
  149SOL     OW  445   1.933   0.070   2.025 -0.0008  0.1185 -0.2999
  149SOL    HW1  446   1.944   3.088   2.008  2.6488 -2.3769 -4.1580
  149SOL    HW2  447   2.016   0.112   2.065 -0.1239 -1.6593 -1.2810
  150SOL     OW  448   2.462   2.686   0.115 -0.7045  0.5950 -0.0506
  150SOL    HW1  449   2.380   2.653   0.060 -0.6007 -1.1365 -0.5269
  150SOL    HW2  450   2.443   2.774   0.160  0.5430  2.2676  1.9030
  151SOL     OW  451   0.738   1.656   3.082 -0.3422 -0.3552  0.2144
  151SOL    HW1  452   0.802   1.731   3.057 -4.2634 -1.2932 -0.2182
  151SOL    HW2  453   0.729   1.591   3.009 -1.2760  0.5001  0.8272
  152SOL     OW  454   0.217   0.026   1.565  0.0092 -0.1206  0.1572
  152SOL    HW1  455   0.292   0.093   1.556 -0.1617 -1.4514 -0.4741
  152SOL    HW2  456   0.187   0.016   1.664 -1.0439  3.8173  1.6478
  153SOL     OW  457   2.497   2.918   1.696  0.3636 -0.0533  0.4359
  153SOL    HW1  458   2.575   2.905   1.637 -0.5866  3.0446  1.7875
  153SOL    HW2  459   2.406   2.945   1.643 -1.0732  1.8295 -1.6656
  154SOL     OW  460   2.519   0.135   2.555  0.3301 -0.5191  0.0221
  154SOL    HW1  461   2.561   0.201   2.620 -1.3321  0.0744 -0.1120
  154SOL    HW2  462   2.588   0.069   2.519 -1.7026  1.8625  0.2884
  155SOL     OW  463   3.116   1.233   0.525  0.3162 -0.2937 -0.4842
  155SOL    HW1  464   0.066   1.198   0.595  0.8822 -1.0100  2.7146
  155SOL    HW2  465   3.037   1.274   0.570  0.6313  1.9663  0.4449
  156SOL     OW  466   0.152   1.504   0.387 -0.1336  0.0668 -0.4917
  156SOL    HW1  467   0.210   1.522   0.306 -0.5187  0.4310  0.0600
  156SOL    HW2  468   0.119   1.412   0.372  1.5171  1.3668  0.9784
  157SOL     OW  469   0.589   3.085   0.805 -0.1742 -0.6385  0.3783
  157SOL    HW1  470   0.517   3.054   0.739 -0.8062  2.9517  0.2492
  157SOL    HW2  471   0.675   3.034   0.801 -1.4335 -1.0937 -1.0730
  158SOL     OW  472   1.820   1.151   1.051 -0.2108 -0.1360  0.5550
  158SOL    HW1  473   1.843   1.061   1.007 -0.8922  0.9721 -1.7988
  158SOL    HW2  474   1.810   1.135   1.151  0.0703 -1.2452 -4.3527
  159SOL     OW  475   3.094   0.353   0.483  0.5376 -0.1213 -0.2220
  159SOL    HW1  476   3.102   0.447   0.454  0.7214 -1.4859  2.9733
  159SOL    HW2  477   0.070   0.319   0.505  1.5858 -1.2600  0.7783
  160SOL     OW  478   2.316   2.286   1.473 -0.3621 -0.3946 -0.2681
  160SOL    HW1  479   2.288   2.232   1.554 -2.1283 -0.9391 -1.2737
  160SOL    HW2  480   2.312   2.386   1.493 -0.2767  4.1321  2.2776
  161SOL     OW  481   0.284   0.869   2.901  0.3690 -0.7589 -0.0655
  161SOL    HW1  482   0.279   0.821   2.990  1.0414 -1.5544 -0.6198
  161SOL    HW2  483   0.230   0.955   2.904  2.7190 -0.2877 -0.5871
  162SOL     OW  484   0.789   0.043   1.797  0.3351 -0.2500  0.0860
  162SOL    HW1  485   0.863   0.090   1.845 -0.4554 -0.4587  0.0434
  162SOL    HW2  486   0.695   0.075   1.831 -2.2485 -0.4285 -2.1421
  163SOL     OW  487   2.745   0.016   2.450  0.1116  0.3351 -0.2000
  163SOL    HW1  488   2.745   3.033   2.464  0.7719  2.6064  0.3992
  163SOL    HW2  489   2.826   0.045   2.405 -0.7496 -1.9146  2.5994
  164SOL     OW  490   1.878   1.914   0.430  0.2942 -0.2014 -0.3252
  164SOL    HW1  491   1.825   1.983   0.373 -0.9907 -1.8330  0.6557
  164SOL    HW2  492   1.951   1.879   0.372 -0.2710  0.5356  1.2176
  165SOL     OW  493   0.166   0.383   1.520  1.0011  0.4486 -0.0375
  165SOL    HW1  494   0.251   0.385   1.470 -2.1194  1.7692 -0.8760
  165SOL    HW2  495   0.109   0.304   1.500  2.6354  0.4447  0.1935
  166SOL     OW  496   1.911   0.977   0.469  0.4326 -0.7514  0.5299
  166SOL    HW1  497   1.831   1.038   0.442 -2.3583 -1.2096  0.8983
  166SOL    HW2  498   1.876   0.887   0.509  0.2335  0.5675  2.6224
  167SOL     OW  499   2.426   0.748   3.100 -0.1176 -0.6468 -1.1878
  167SOL    HW1  500   2.481   0.713   0.062 -0.3579 -0.1721  0.1462
  167SOL    HW2  501   2.329   0.762   0.009  0.1307 -0.8291  1.8018
  168SOL     OW  502   1.581   3.001   2.504  0.1644 -0.7737 -0.0560
  168SOL    HW1  503   1.580   2.900   2.512 -2.4631 -0.1118  0.7029
  168SOL    HW2  504   1.676   3.030   2.494  1.1091  0.1725  1.8573
  169SOL     OW  505   0.587   1.659   0.915  0.1720  0.9418 -0.4308
  169SOL    HW1  506   0.543   1.699   0.831 -3.3371  1.9119 -0.7492
  169SOL    HW2  507   0.506   1.627   0.967 -1.8843  0.8732 -2.4858
  170SOL     OW  508   3.048   0.999   1.214  0.1788  0.0186 -0.0718
  170SOL    HW1  509   3.108   1.067   1.168  0.2151  0.9036 -1.4049
  170SOL    HW2  510   3.101   0.935   1.270 -0.4912  0.5071  0.1967
  171SOL     OW  511   2.703   1.739   2.221  0.1522 -0.0051 -0.4743
  171SOL    HW1  512   2.673   1.742   2.126  0.3900  0.5338  1.3008
  171SOL    HW2  513   2.623   1.761   2.287 -2.4285  0.0766  0.2641
  172SOL     OW  514   0.502   1.662   1.375 -0.1431  0.8421 -0.2881
  172SOL    HW1  515   0.487   1.731   1.448 -0.0771 -0.3993 -0.3577
  172SOL    HW2  516   0.431   1.586   1.382  0.5037  0.1355  1.3237
  173SOL     OW  517   1.995   1.653   2.787  0.3990  0.2231  0.4020
  173SOL    HW1  518   1.936   1.611   2.711  0.2768 -2.5048 -0.6632
  173SOL    HW2  519   1.951   1.656   2.876  0.3775  0.1581 -1.8561
  174SOL     OW  520   1.342   0.850   2.816  0.0350  0.1622  0.4598
  174SOL    HW1  521   1.446   0.844   2.829  5.4469  2.1421  0.9698
  174SOL    HW2  522   1.330   0.862   2.714 -0.4894  0.6896 -1.0627
  175SOL     OW  523   1.070   1.440   1.230 -0.3097  0.2047  0.3436
  175SOL    HW1  524   1.145   1.456   1.296  0.7831 -0.2213 -1.3333
  175SOL    HW2  525   1.047   1.340   1.224 -0.7526  2.1465 -0.1255
  176SOL     OW  526   1.186   0.238   0.405  0.0204  0.3443  0.7413
  176SOL    HW1  527   1.117   0.160   0.415 -1.4542  0.7818 -1.2658
  176SOL    HW2  528   1.235   0.222   0.320  0.0113 -0.0116 -2.8085
  177SOL     OW  529   0.369   0.932   0.271  1.1451 -0.4285  0.7587
  177SOL    HW1  530   0.315   0.866   0.331 -0.1806 -0.3499  2.4620
  177SOL    HW2  531   0.429   0.983   0.335 -2.1368 -1.6278 -2.0657
  178SOL     OW  532   2.999   2.260   2.725  0.0857  0.4479  0.2721
  178SOL    HW1  533   3.001   2.208   2.813 -0.0087  2.9812 -0.1810
  178SOL    HW2  534   3.028   2.353   2.737 -1.2754 -2.8034 -2.6349
  179SOL     OW  535   2.641   2.845   2.483 -0.5081  0.2894 -0.1113
  179SOL    HW1  536   2.635   2.787   2.564 -0.3044  2.0463 -0.9109
  179SOL    HW2  537   2.727   2.823   2.429 -1.2694  0.5844 -0.9015
  180SOL     OW  538   2.096   0.774   0.920 -0.6692  0.1450 -0.0350
  180SOL    HW1  539   2.143   0.812   1.002 -0.5731 -0.3639 -0.9078
  180SOL    HW2  540   2.143   0.806   0.835 -2.9027  1.5316 -1.2356
  181SOL     OW  541   2.299   0.596   2.536 -0.3554 -0.4464 -0.5046
  181SOL    HW1  542   2.356   0.546   2.601 -2.8601  0.4592  1.1457
  181SOL    HW2  543   2.312   0.585   2.432  2.0129  0.1863 -0.5002
  182SOL     OW  544   2.927   2.350   2.057 -0.2014  0.1418 -0.3346
  182SOL    HW1  545   2.987   2.425   2.021 -1.4541 -1.0767  2.6509
  182SOL    HW2  546   2.989   2.292   2.111  1.4755  1.1547 -1.5791
  183SOL     OW  547   2.114   0.893   2.161  0.3388  0.3015 -0.5459
  183SOL    HW1  548   2.198   0.876   2.112 -1.0408  1.1341  1.2267
  183SOL    HW2  549   2.072   0.988   2.145 -4.9674  0.6433 -0.9597
  184SOL     OW  550   0.115   1.560   1.212  0.5508 -0.1828 -0.6640
  184SOL    HW1  551   0.016   1.577   1.235  0.1667 -0.7770  2.3475
  184SOL    HW2  552   0.161   1.510   1.290  1.2172 -0.7815 -0.0771
  185SOL     OW  553   2.933   0.179   0.910  0.3089 -0.4440  0.1296
  185SOL    HW1  554   2.869   0.105   0.943  0.4710 -1.0428 -1.5044
  185SOL    HW2  555   2.973   0.231   0.991 -1.7056  0.4823  1.9740
  186SOL     OW  556   2.351   2.499   2.607 -0.0081 -0.4420 -0.0165
  186SOL    HW1  557   2.340   2.411   2.658  0.3724  1.4613  0.1062
  186SOL    HW2  558   2.258   2.541   2.602 -2.0773  3.4116  1.8799
  187SOL     OW  559   0.461   1.310   0.551  0.0953 -0.0705 -0.3568
  187SOL    HW1  560   0.459   1.211   0.522 -0.8552 -2.2031  1.3636
  187SOL    HW2  561   0.546   1.323   0.606 -3.6029  0.5706 -1.6547
  188SOL     OW  562   2.030   1.326   0.874 -0.1865  0.3108  0.0576
  188SOL    HW1  563   2.079   1.287   0.792  0.1097  0.2496 -1.1495
  188SOL    HW2  564   1.972   1.252   0.916 -1.0856 -0.0483  0.2507
  189SOL     OW  565   0.088   1.140   2.662 -0.4290 -0.0056  0.2185
  189SOL    HW1  566   0.053   1.090   2.741  0.7027  0.2541 -2.2308
  189SOL    HW2  567   0.013   1.178   2.602 -0.0396  1.4484 -0.8151
  190SOL     OW  568   2.335   0.538   2.282  0.4986  0.3234 -0.0416
  190SOL    HW1  569   2.253   0.518   2.230  1.1550 -0.5242 -0.1293
  190SOL    HW2  570   2.387   0.449   2.301  0.1270 -3.5402 -1.3875
  191SOL     OW  571   1.157   0.153   2.250  0.6855 -0.6828 -0.0057
  191SOL    HW1  572   1.241   0.192   2.202  2.0954  2.0289 -1.2646
  191SOL    HW2  573   1.142   0.051   2.234  0.3872  0.7541 -0.4237
  192SOL     OW  574   0.874   1.929   1.611 -0.3590  0.1483  0.4547
  192SOL    HW1  575   0.969   1.904   1.616 -2.9899  0.8794  1.1992
  192SOL    HW2  576   0.853   1.964   1.701 -0.4849 -2.2086  1.7849
  193SOL     OW  577   1.251   3.090   0.950  0.3030 -0.5024 -0.4759
  193SOL    HW1  578   1.178   3.091   1.024 -0.1762  0.2441  0.8301
  193SOL    HW2  579   1.216   3.040   0.865  0.1868 -3.1202 -0.5311
  194SOL     OW  580   0.811   2.070   1.824  0.4494 -0.3538 -0.3187
  194SOL    HW1  581   0.718   2.113   1.820  2.1445 -0.6012 -0.0025
  194SOL    HW2  582   0.874   2.145   1.817 -3.3811 -2.1326 -0.1524
  195SOL     OW  583   1.494   0.333   1.003  0.1627  0.2658  0.0138
  195SOL    HW1  584   1.575   0.303   0.956 -2.0119  0.3204  2.0658
  195SOL    HW2  585   1.489   0.435   1.019 -0.5210  0.9850 -0.4613
  196SOL     OW  586   1.151   1.595   1.905  0.3687 -0.2592 -0.0611
  196SOL    HW1  587   1.143   1.596   2.004 -0.0036  1.0697 -1.6730
  196SOL    HW2  588   1.219   1.664   1.874  0.5231  3.7605  0.6047
  197SOL     OW  589   0.401   0.545   1.852 -0.4519 -0.1611  0.1715
  197SOL    HW1  590   0.503   0.538   1.829 -0.6632 -0.7977  0.0479
  197SOL    HW2  591   0.387   0.632   1.903 -0.9240 -0.0400  0.9733
  198SOL     OW  592   0.805   0.602   0.841  0.3905 -0.2535  0.9064
  198SOL    HW1  593   0.857   0.600   0.927 -1.4794  1.0030 -1.6929
  198SOL    HW2  594   0.861   0.556   0.768  1.0376 -2.4403 -0.2582
  199SOL     OW  595   0.160   2.425   1.784  0.5967  0.7113  0.1782
  199SOL    HW1  596   0.129   2.365   1.707 -0.8589 -2.9548  3.0475
  199SOL    HW2  597   0.084   2.488   1.806  2.3305 -0.6317  2.2294
  200SOL     OW  598   1.784   1.450   2.428  0.1451 -0.2278 -0.8140
  200SOL    HW1  599   1.876   1.481   2.406  1.5365 -0.7431  1.4006
  200SOL    HW2  600   1.790   1.377   2.496  0.0872  0.8984  4.7094
  201SOL     OW  601   0.622   2.490   1.710  0.0864 -0.1705 -0.4201
  201SOL    HW1  602   0.657   2.558   1.638  0.7784  2.4247 -0.8353
  201SOL    HW2  603   0.665   2.397   1.689  0.2160 -2.8575  1.3861
  202SOL     OW  604   1.221   2.892   2.933 -0.2915 -0.4288  0.4348
  202SOL    HW1  605   1.256   2.834   2.852  1.4214 -0.7085  1.9757
  202SOL    HW2  606   1.123   2.909   2.919  0.9396  2.4186 -0.9149
  203SOL     OW  607   1.648   0.389   2.378  0.6203 -0.1084 -0.1544
  203SOL    HW1  608   1.748   0.380   2.398  2.6996 -2.0647  0.3881
  203SOL    HW2  609   1.601   0.302   2.382  0.4150  0.2258  3.1828
  204SOL     OW  610   0.746   1.469   1.770  0.1009  0.6305 -0.7615
  204SOL    HW1  611   0.740   1.504   1.866 -0.7903  1.4850  2.7684
  204SOL    HW2  612   0.693   1.385   1.755  1.2404  1.5690  2.5099
  205SOL     OW  613   2.054   0.952   2.799  0.0167  0.4903  0.0178
  205SOL    HW1  614   2.067   0.864   2.755 -0.9266  0.4708  0.4797
  205SOL    HW2  615   2.134   1.016   2.787  1.2171  0.1242  0.6234
  206SOL     OW  616   0.404   1.693   2.902  0.0874 -0.6139 -0.1806
  206SOL    HW1  617   0.435   1.646   2.818 -0.7927 -1.8997  0.1179
  206SOL    HW2  618   0.458   1.771   2.931 -1.0682 -0.6386 -2.4963
  207SOL     OW  619   0.935   2.857   1.861 -0.5233  0.0500  0.3454
  207SOL    HW1  620   0.913   2.794   1.942  1.5859 -1.7826  0.7317
  207SOL    HW2  621   0.868   2.855   1.778  0.8376 -1.4069 -2.8380
  208SOL     OW  622   0.700   2.601   1.477  0.4209 -0.1090  0.2228
  208SOL    HW1  623   0.606   2.635   1.455 -2.1930 -0.7338 -0.8228
  208SOL    HW2  624   0.712   2.507   1.442 -1.4874 -0.6101 -0.6457
  209SOL     OW  625   1.084   2.989   0.232 -0.0353  0.3293 -0.0383
  209SOL    HW1  626   1.040   3.058   0.291 -1.0270 -2.1861 -0.5230
  209SOL    HW2  627   1.070   3.011   0.132 -0.1134 -0.3251 -0.6512
  210SOL     OW  628   2.947   1.655   1.724 -0.0275 -0.0501  0.0702
  210SOL    HW1  629   2.873   1.627   1.658 -0.9217 -0.4144 -1.2075
  210SOL    HW2  630   3.019   1.583   1.716 -1.1268 -1.4927 -0.1306
  211SOL     OW  631   0.973   0.438   1.905 -0.6231  0.0291  0.1857
  211SOL    HW1  632   0.993   0.500   1.981  0.9210 -1.1568 -1.1209
  211SOL    HW2  633   0.997   0.477   1.815  0.9329 -1.2909  1.5070
  212SOL     OW  634   1.390   2.201   1.559 -0.2176  0.4245  0.1892
  212SOL    HW1  635   1.405   2.230   1.464  1.4122  2.8651  1.9150
  212SOL    HW2  636   1.398   2.100   1.566 -0.4875  1.6604  3.0850
  213SOL     OW  637   2.375   0.276   1.512 -0.0508 -0.7726  0.2041
  213SOL    HW1  638   2.414   0.262   1.417 -0.6243  0.0684 -1.0338
  213SOL    HW2  639   2.447   0.251   1.580  1.3055 -0.7665 -2.8251
  214SOL     OW  640   0.990   2.311   1.808  0.1132  0.8925  0.1044
  214SOL    HW1  641   1.050   2.316   1.890  0.6928 -3.2135 -1.7144
  214SOL    HW2  642   1.043   2.252   1.737  1.4756 -1.8302 -1.5080
  215SOL     OW  643   2.850   1.921   1.313 -0.3261 -0.1022 -0.1615
  215SOL    HW1  644   2.783   1.985   1.363 -0.7392 -1.5617  0.5069
  215SOL    HW2  645   2.943   1.958   1.308  1.2053  0.4395 -1.8102
  216SOL     OW  646   0.149   0.831   1.637  0.4448  0.0699  0.3621
  216SOL    HW1  647   0.249   0.851   1.648 -2.1841 -0.6638 -1.1333
  216SOL    HW2  648   0.131   0.738   1.658  1.6246  3.0151 -3.5500
  217SOL     OW  649   2.593   0.263   1.185  0.4503  0.1629  0.2065
  217SOL    HW1  650   2.684   0.229   1.221  0.5974  2.2876  3.1913
  217SOL    HW2  651   2.577   0.361   1.221 -1.4676  0.6647 -1.1402
  218SOL     OW  652   1.070   2.081   1.164  0.1467 -0.0882  0.2523
  218SOL    HW1  653   1.091   2.020   1.087 -1.5046 -2.8250  0.8914
  218SOL    HW2  654   0.998   2.140   1.135  3.2111 -2.6710  0.5246
  219SOL     OW  655   1.418   2.387   0.307  0.3139 -0.1142  0.1775
  219SOL    HW1  656   1.381   2.481   0.312  0.2303 -1.7142 -0.2013
  219SOL    HW2  657   1.394   2.340   0.397 -0.3988  1.5525  2.0754
  220SOL     OW  658   1.660   2.413   0.228 -0.2017 -0.4369 -0.9614
  220SOL    HW1  659   1.572   2.422   0.276  1.1720 -0.4784 -0.6694
  220SOL    HW2  660   1.681   2.317   0.238 -1.2587 -2.6412 -1.0342
  221SOL     OW  661   2.903   1.995   1.025 -0.1527 -0.1815  0.1219
  221SOL    HW1  662   2.877   2.054   0.949 -0.0321 -0.4549  0.9988
  221SOL    HW2  663   2.834   1.929   1.049  0.8545 -0.4000 -1.2261
  222SOL     OW  664   1.007   2.268   0.800  0.2323 -0.8343 -0.0274
  222SOL    HW1  665   1.006   2.181   0.743  0.9374 -1.0864 -1.5116
  222SOL    HW2  666   0.935   2.261   0.873 -1.0047  1.3718  0.4411
  223SOL     OW  667   1.073   2.566   2.375 -0.1700  0.3772  0.2846
  223SOL    HW1  668   1.137   2.569   2.296  2.6902 -1.5798 -0.4074
  223SOL    HW2  669   0.992   2.622   2.360 -0.9666 -0.0362  0.0887
  224SOL     OW  670   2.690   1.351   1.118  0.0651 -0.2234  0.4473
  224SOL    HW1  671   2.621   1.282   1.095  2.4298 -0.4531  0.6346
  224SOL    HW2  672   2.722   1.333   1.213  1.9692 -0.2534  0.8554
  225SOL     OW  673   2.394   1.629   0.783  0.0779  0.2363 -0.1772
  225SOL    HW1  674   2.329   1.704   0.763 -0.2655  3.2567  1.3838
  225SOL    HW2  675   2.435   1.590   0.696 -1.1879 -0.5637 -0.4706
  226SOL     OW  676   1.223   2.688   0.677 -0.5566  0.3470  0.5751
  226SOL    HW1  677   1.324   2.681   0.663 -2.0405 -2.1829 -3.6648
  226SOL    HW2  678   1.173   2.603   0.656  2.1619  0.8211 -0.3222
  227SOL     OW  679   1.021   1.172   1.268 -0.5322  0.0534  0.4610
  227SOL    HW1  680   0.985   1.137   1.356  0.3434  1.2926  0.8691
  227SOL    HW2  681   1.113   1.132   1.249 -0.9191 -1.1163  1.4986
  228SOL     OW  682   1.299   0.456   2.335  0.3299  0.0740  0.4741
  228SOL    HW1  683   1.395   0.463   2.359  0.7035 -1.0963 -0.8904
  228SOL    HW2  684   1.300   0.414   2.243  0.9476 -1.4498 -2.9544
  229SOL     OW  685   2.451   0.976   2.935  0.1883 -0.4400  0.4980
  229SOL    HW1  686   2.517   0.948   2.859  3.2317 -1.7458 -1.2359
  229SOL    HW2  687   2.416   0.890   2.980  0.8782  0.0235 -0.7988
  230SOL     OW  688   1.038   1.251   0.657 -0.2267  0.7092  0.9367
  230SOL    HW1  689   1.138   1.240   0.635 -1.0931 -0.0519  2.0498
  230SOL    HW2  690   1.026   1.269   0.756 -3.5470  1.0669 -0.0765
  231SOL     OW  691   2.400   2.931   2.385  0.2396 -0.2223  0.0605
  231SOL    HW1  692   2.496   2.908   2.404  0.7675  3.3101  0.7378
  231SOL    HW2  693   2.381   3.033   2.384  0.6276 -1.0158 -1.5438
  232SOL     OW  694   0.521   1.937   0.110  0.1568 -0.0848 -0.3597
  232SOL    HW1  695   0.451   1.875   0.137  1.7709  4.2725  0.6228
  232SOL    HW2  696   0.475   2.025   0.068 -0.2390  2.7331 -1.7661
  233SOL     OW  697   1.616   2.493   2.407 -0.2924 -0.9336  0.5716
  233SOL    HW1  698   1.574   2.462   2.317 -2.6852  0.3330 -2.9186
  233SOL    HW2  699   1.616   2.407   2.462 -2.3972 -0.8469  0.5566
  234SOL     OW  700   1.226   1.309   1.875  0.0097 -0.2298 -0.0948
  234SOL    HW1  701   1.198   1.404   1.881  1.6890 -2.6920  0.4559
  234SOL    HW2  702   1.147   1.250   1.914 -1.1529 -2.5331 -1.4846
  235SOL     OW  703   0.577   2.223   1.799 -0.1204  0.2512 -0.0793
  235SOL    HW1  704   0.518   2.254   1.876  0.9223 -0.5937 -1.9379
  235SOL    HW2  705   0.516   2.194   1.722  0.8157  1.0833 -0.8421
  236SOL     OW  706   2.067   2.585   2.594  0.9293  0.0909 -0.2583
  236SOL    HW1  707   2.025   2.537   2.512 -0.1020 -1.3940 -2.4402
  236SOL    HW2  708   2.011   2.665   2.624  0.5718  0.7499 -0.5635
  237SOL     OW  709   1.512   3.096   0.846  0.2143 -0.1984  0.1726
  237SOL    HW1  710   1.417   3.100   0.885 -0.4997  1.9860 -2.4634
  237SOL    HW2  711   1.578   0.004   0.919  2.4075  0.4554  0.2097
  238SOL     OW  712   1.109   0.663   2.864 -1.2146  0.0362  0.2755
  238SOL    HW1  713   1.135   0.664   2.968 -0.6351 -0.3759  1.4675
  238SOL    HW2  714   1.187   0.704   2.812 -1.7056 -1.4793  1.8117
  239SOL     OW  715   0.790   3.079   2.121 -0.4341  0.0520  0.1177
  239SOL    HW1  716   0.785   0.054   2.081 -2.0423  1.4006  0.7250
  239SOL    HW2  717   0.756   3.014   2.052  1.1406 -0.3223 -2.1740
  240SOL     OW  718   2.020   2.563   0.486 -0.0466 -0.0836 -0.7332
  240SOL    HW1  719   1.968   2.611   0.557  2.5717 -1.7063  2.3753
  240SOL    HW2  720   1.973   2.559   0.393 -2.3637  0.4563 -1.3495
  241SOL     OW  721   1.191   1.649   1.506 -0.1600 -0.0044 -0.1651
  241SOL    HW1  722   1.104   1.613   1.546 -0.0421  0.9670 -1.3814
  241SOL    HW2  723   1.158   1.718   1.441  0.3730 -0.0994 -0.2322
  242SOL     OW  724   0.176   0.602   1.113 -0.0972  0.0325  0.3520
  242SOL    HW1  725   0.140   0.622   1.020  0.4904  3.2447  1.0071
  242SOL    HW2  726   0.117   0.537   1.169 -1.5335 -1.4477  1.5275
  243SOL     OW  727   0.712   0.639   1.615 -0.0588 -0.0912 -0.2640
  243SOL    HW1  728   0.640   0.669   1.553 -0.3462 -1.0645  1.1906
  243SOL    HW2  729   0.684   0.561   1.669  0.5329  3.6164 -1.9322
  244SOL     OW  730   1.420   0.479   0.207 -0.6253 -0.1742  0.3346
  244SOL    HW1  731   1.396   0.552   0.267 -0.5696 -3.3137 -0.3732
  244SOL    HW2  732   1.450   0.510   0.114 -0.6911 -0.8898 -0.9632
  245SOL     OW  733   2.127   0.302   0.059  0.0208 -0.0610  0.1372
  245SOL    HW1  734   2.147   0.210   0.098  1.9573  4.1435  0.3529
  245SOL    HW2  735   2.162   0.370   0.125 -2.3162 -2.8047  0.2721
  246SOL     OW  736   0.639   0.871   1.993  0.0670 -0.6414  0.6765
  246SOL    HW1  737   0.544   0.894   1.966 -1.1209 -0.9154 -0.9524
  246SOL    HW2  738   0.702   0.851   1.915 -0.6491  1.9287 -0.9109
  247SOL     OW  739   0.372   0.051   2.211  0.2787 -0.5614 -0.1530
  247SOL    HW1  740   0.310   0.125   2.240  0.3824 -3.2192 -1.2410
  247SOL    HW2  741   0.466   0.066   2.247  1.5330 -1.2106  1.8089
  248SOL     OW  742   3.081   1.507   2.082  0.0712  0.4425  0.2826
  248SOL    HW1  743   3.055   1.597   2.047  2.0830  0.5486  3.0846
  248SOL    HW2  744   0.066   1.496   2.089  0.8397  0.2438  0.0409
  249SOL     OW  745   0.123   0.090   2.662  0.0843 -0.3745 -0.0868
  249SOL    HW1  746   0.159   0.168   2.709 -0.9497 -2.3417 -4.0822
  249SOL    HW2  747   0.187   0.012   2.660 -0.5642  1.5970  0.2445
  250SOL     OW  748   3.037   2.973   3.017  0.0668 -0.4062 -0.4161
  250SOL    HW1  749   3.068   3.068   3.003 -2.1252  2.6950 -2.2204
  250SOL    HW2  750   3.102   2.908   2.974 -0.8173  0.7935  1.0787
  251SOL     OW  751   0.409   1.315   1.221 -0.0259  0.6170 -0.9321
  251SOL    HW1  752   0.334   1.242   1.210 -2.2368 -0.5934 -0.1983
  251SOL    HW2  753   0.462   1.314   1.135 -0.6194  0.3440  1.9150
  252SOL     OW  754   1.579   2.815   2.026  0.3224 -0.1107  0.1188
  252SOL    HW1  755   1.547   2.888   2.089 -1.6228  0.7647  1.0726
  252SOL    HW2  756   1.635   2.751   2.084 -0.6416  0.0218 -2.5190
  253SOL     OW  757   2.025   1.971   2.500  0.2970  0.6270  0.3963
  253SOL    HW1  758   2.058   2.063   2.523  1.3181 -0.5584 -0.0509
  253SOL    HW2  759   1.969   1.945   2.581  0.3981 -0.5579 -1.5420
  254SOL     OW  760   0.462   1.573   2.050  0.0787  1.4217 -0.1814
  254SOL    HW1  761   0.561   1.573   2.034 -0.7182 -1.0719  1.5227
  254SOL    HW2  762   0.439   1.613   2.140 -2.1533 -3.5134 -0.0298
  255SOL     OW  763   1.192   0.277   1.657 -1.2287 -0.0027 -0.4907
  255SOL    HW1  764   1.273   0.254   1.709  2.2054  1.0387 -0.7956
  255SOL    HW2  765   1.146   0.365   1.680 -0.0501 -0.4243 -2.3497
  256SOL     OW  766   2.865   2.447   1.187 -0.3551 -0.3649 -0.0378
  256SOL    HW1  767   2.809   2.490   1.261 -0.3279 -0.8752  0.5222
  256SOL    HW2  768   2.822   2.443   1.097  2.8662 -2.2701  1.3767
  257SOL     OW  769   0.419   2.534   0.030 -0.1751  0.6822  0.0896
  257SOL    HW1  770   0.507   2.584   0.012  0.7090 -0.6901 -0.6060
  257SOL    HW2  771   0.433   2.459   0.103 -0.2899 -0.4842  1.2955
  258SOL     OW  772   1.105   2.317   2.272 -0.2290 -0.6427 -0.1469
  258SOL    HW1  773   1.008   2.308   2.251  2.1299 -0.0159  1.2140
  258SOL    HW2  774   1.112   2.399   2.335 -1.3505 -0.0178  0.0993
  259SOL     OW  775   0.915   1.939   2.660  0.0460  0.3034 -0.4145
  259SOL    HW1  776   0.895   2.039   2.653  1.5005  0.3739  0.7213
  259SOL    HW2  777   0.881   1.908   2.748 -0.3220  1.9092  3.5601
  260SOL     OW  778   2.506   0.754   2.327 -0.0533 -0.2335 -0.1321
  260SOL    HW1  779   2.488   0.852   2.356 -0.2401  0.9964  0.9288
  260SOL    HW2  780   2.423   0.701   2.301 -1.4831 -0.5222 -0.8865
  261SOL     OW  781   1.208   0.721   0.828  0.0648  0.2518  0.4859
  261SOL    HW1  782   1.150   0.658   0.888 -0.0506  0.2408  1.0669
  261SOL    HW2  783   1.202   0.819   0.854  0.0805 -0.1226 -0.5320
  262SOL     OW  784   1.961   2.408   2.416 -0.2773  0.1517 -0.6214
  262SOL    HW1  785   1.867   2.389   2.447 -0.6216  2.1245  0.4681
  262SOL    HW2  786   1.951   2.486   2.346 -0.9326  0.4589 -1.3295
  263SOL     OW  787   0.266   1.990   0.421 -0.4224  0.4175 -0.6278
  263SOL    HW1  788   0.247   1.931   0.345 -0.2577 -0.3361  0.1400
  263SOL    HW2  789   0.366   2.011   0.427  2.4036  0.7759 -1.3870
  264SOL     OW  790   0.235   2.160   0.869 -0.2329 -0.0474 -0.2072
  264SOL    HW1  791   0.319   2.113   0.848 -0.7775 -0.6209 -0.1948
  264SOL    HW2  792   0.159   2.099   0.905  1.0583 -0.8503 -1.9530
  265SOL     OW  793   0.583   1.298   0.271  0.3008  0.3136  0.6362
  265SOL    HW1  794   0.525   1.286   0.354  1.4234 -0.0278 -1.7896
  265SOL    HW2  795   0.679   1.265   0.288  2.3887 -0.5304  0.2540
  266SOL     OW  796   0.723   2.080   2.348  0.0428 -0.1540  0.4116
  266SOL    HW1  797   0.646   2.148   2.357 -1.1667  0.8968 -1.2570
  266SOL    HW2  798   0.804   2.120   2.298 -0.9472 -3.0738  0.9778
  267SOL     OW  799   1.086   0.601   2.478  0.3461 -0.0858 -0.3235
  267SOL    HW1  800   1.066   0.558   2.566  1.7730 -1.2070 -0.1535
  267SOL    HW2  801   1.132   0.544   2.411 -0.0835  2.3921 -0.5262
  268SOL     OW  802   0.571   0.913   2.936 -0.4409  0.1970 -0.1670
  268SOL    HW1  803   0.467   0.909   2.916 -1.8079 -1.6320 -0.2104
  268SOL    HW2  804   0.591   0.948   3.028 -0.7986  1.1312 -3.1468
  269SOL     OW  805   2.269   2.479   2.340 -0.2440 -0.0192 -0.4292
  269SOL    HW1  806   2.169   2.501   2.330  0.9930  1.0024  0.8171
  269SOL    HW2  807   2.298   2.491   2.435 -0.4374 -2.3174 -0.0939
  270SOL     OW  808   1.545   1.499   2.782  0.1969  0.5028  0.2417
  270SOL    HW1  809   1.503   1.540   2.701 -0.4885  0.2612 -0.1804
  270SOL    HW2  810   1.554   1.395   2.771  0.6974 -2.4765 -0.7518
  271SOL     OW  811   0.324   0.097   2.965  0.5345 -0.2965  0.3285
  271SOL    HW1  812   0.333   3.111   2.981 -0.4001  0.3414  1.1317
  271SOL    HW2  813   0.223   0.108   2.960  0.3216  1.6450 -1.7079
  272SOL     OW  814   2.844   0.612   0.434  0.2684 -0.3392  0.1660
  272SOL    HW1  815   2.906   0.616   0.509 -3.8031 -0.5175 -1.0003
  272SOL    HW2  816   2.771   0.679   0.459 -1.4959  0.3319  0.7426
  273SOL     OW  817   0.453   3.002   2.006 -0.8742 -0.4875  0.5011
  273SOL    HW1  818   0.412   3.068   2.070 -0.2170 -3.3204 -1.5429
  273SOL    HW2  819   0.381   2.933   1.977 -0.8624 -0.1043  0.0549
  274SOL     OW  820   0.203   0.735   1.932  0.2932  0.0596 -0.2226
  274SOL    HW1  821   0.110   0.776   1.938  2.0962  0.6573  1.0721
  274SOL    HW2  822   0.201   0.649   1.887 -0.0091  1.8158  0.3287
  275SOL     OW  823   0.978   1.616   0.614 -0.0442 -0.0627 -0.0441
  275SOL    HW1  824   0.961   1.554   0.537  2.0912 -1.4531  2.0831
  275SOL    HW2  825   1.069   1.661   0.606 -0.4914  1.0638  2.3739
  276SOL     OW  826   1.027   0.546   2.182  0.1378  0.6971 -0.2404
  276SOL    HW1  827   0.949   0.584   2.238 -2.7374 -2.5817  0.3601
  276SOL    HW2  828   1.027   0.443   2.181 -0.0276 -2.7902 -0.3554
  277SOL     OW  829   1.248   2.488   1.787 -0.1702  0.1053  0.4919
  277SOL    HW1  830   1.169   2.513   1.722 -1.1446  1.8020 -0.8798
  277SOL    HW2  831   1.210   2.425   1.853  3.8792  2.9647 -0.6125
  278SOL     OW  832   1.762   2.831   1.811  0.0088  0.2029  0.1162
  278SOL    HW1  833   1.677   2.834   1.869  0.7652  0.2667  0.2777
  278SOL    HW2  834   1.840   2.869   1.864 -0.0002  2.1354 -1.2947
  279SOL     OW  835   1.311   1.488   0.217 -0.0345  0.1956 -0.2938
  279SOL    HW1  836   1.289   1.558   0.151  1.8262 -2.3500  1.2134
  279SOL    HW2  837   1.382   1.422   0.179 -1.3103  0.2717  0.9524
  280SOL     OW  838   0.955   1.428   0.064  0.3494 -0.4128  0.0435
  280SOL    HW1  839   0.991   1.475   0.149 -1.1362 -0.7370 -0.1250
  280SOL    HW2  840   0.937   1.490   3.102 -1.2288 -0.1935  2.3272
  281SOL     OW  841   0.512   0.157   1.582  0.1599 -0.5364  0.2770
  281SOL    HW1  842   0.506   0.149   1.680 -0.8095  1.7778 -1.3987
  281SOL    HW2  843   0.557   0.239   1.548 -1.9788  2.2629 -0.3718
  282SOL     OW  844   0.205   2.521   0.599 -0.1209  0.0513 -0.2780
  282SOL    HW1  845   0.126   2.585   0.595 -2.1635 -0.6242 -1.1016
  282SOL    HW2  846   0.177   2.425   0.589 -0.1264  1.1692 -0.7749
  283SOL     OW  847   1.711   2.138   2.280 -0.2820 -0.1489 -0.1358
  283SOL    HW1  848   1.773   2.156   2.199  0.7043 -0.3999  0.6974
  283SOL    HW2  849   1.683   2.037   2.273 -0.8459 -1.9468 -1.1438
  284SOL     OW  850   2.056   2.948   0.703  0.2142 -0.1637  0.6572
  284SOL    HW1  851   2.060   3.045   0.738  1.5157 -1.2507  3.1969
  284SOL    HW2  852   1.988   2.898   0.758 -0.8635  3.2939  2.6525
  285SOL     OW  853   0.485   2.351   2.551 -0.2512 -0.0532  0.4357
  285SOL    HW1  854   0.535   2.328   2.463  0.3900  0.2815 -1.2646
  285SOL    HW2  855   0.480   2.452   2.555  0.3248 -0.8559  0.1492
  286SOL     OW  856   3.037   2.862   0.833 -0.1371 -0.3277  0.3755
  286SOL    HW1  857   2.962   2.932   0.816 -1.9477  1.9510  1.1816
  286SOL    HW2  858   3.008   2.776   0.875  0.4095  0.9037 -2.1536
  287SOL     OW  859   0.698   1.318   0.711  0.3995 -0.6069  0.4743
  287SOL    HW1  860   0.741   1.400   0.764 -0.1507  2.9522  0.7855
  287SOL    HW2  861   0.767   1.238   0.696  0.1398 -0.8860 -1.6471
  288SOL     OW  862   2.354   2.235   2.682  0.4105  0.3140 -0.0546
  288SOL    HW1  863   2.426   2.168   2.652 -5.8456  0.7268  1.4446
  288SOL    HW2  864   2.264   2.210   2.647  0.9015 -0.1855  1.5964
  289SOL     OW  865   3.094   2.105   2.941  0.2240 -0.1040 -0.6171
  289SOL    HW1  866   0.031   2.163   3.008 -0.5551  4.6203  2.0644
  289SOL    HW2  867   3.038   2.034   2.994 -0.4275 -1.0077  3.9853
  290SOL     OW  868   1.393   1.788   1.316 -0.2191 -0.2000  0.0091
  290SOL    HW1  869   1.443   1.763   1.231 -0.6117 -0.5769 -0.0113
  290SOL    HW2  870   1.294   1.776   1.310  1.7464 -0.3737 -0.8188
  291SOL     OW  871   1.418   1.168   3.070  0.0198  0.1945 -0.2136
  291SOL    HW1  872   1.371   1.203   2.984  0.2340  0.2964  0.6340
  291SOL    HW2  873   1.388   1.076   3.101 -1.1645  1.2059  0.1049
  292SOL     OW  874   1.080   1.576   0.315  0.1712 -0.0219 -0.0390
  292SOL    HW1  875   1.047   1.503   0.378 -0.0365  2.3274  1.8546
  292SOL    HW2  876   1.179   1.571   0.296  0.7226  4.7140  0.4526
  293SOL     OW  877   1.412   2.815   0.948  0.4636  0.4976  0.2211
  293SOL    HW1  878   1.418   2.846   1.045  0.9247 -0.6610  3.2297
  293SOL    HW2  879   1.423   2.892   0.882  1.2104 -2.8694  0.9770
  294SOL     OW  880   2.246   1.439   2.857  0.5505 -0.7546  0.0386
  294SOL    HW1  881   2.343   1.437   2.888  2.9515 -0.3443  0.1601
  294SOL    HW2  882   2.176   1.466   2.930 -1.7595  0.5817  0.5195
  295SOL     OW  883   1.859   1.783   3.034  0.4650 -0.6814 -0.3061
  295SOL    HW1  884   1.774   1.754   3.092 -1.4372  0.7518  0.0763
  295SOL    HW2  885   1.853   1.885   3.020  1.9717  0.6113 -2.2910
  296SOL     OW  886   1.758   0.621   2.020 -0.0080 -0.0420  0.9500
  296SOL    HW1  887   1.768   0.672   1.929 -0.0665  2.4586 -1.0453
  296SOL    HW2  888   1.815   0.676   2.088  0.6856  0.0163  0.8814
  297SOL     OW  889   3.046   0.832   1.969 -0.3526  0.3880 -0.1566
  297SOL    HW1  890   2.973   0.811   1.899  1.7501  0.8447 -0.4776
  297SOL    HW2  891   3.046   0.931   1.993  3.1415  0.1374  1.5796
  298SOL     OW  892   1.068   1.946   2.102 -0.2722  0.2224  0.3421
  298SOL    HW1  893   1.151   1.994   2.057  2.0647 -2.1546 -1.7638
  298SOL    HW2  894   1.087   1.913   2.198  0.3021  0.3153  0.0270
  299SOL     OW  895   1.204   0.068   2.723  0.2812 -0.5007  0.0011
  299SOL    HW1  896   1.254   0.125   2.654 -1.3359  0.0886  1.7257
  299SOL    HW2  897   1.145   0.004   2.673 -1.9564 -0.3327  0.3018
  300SOL     OW  898   0.103   1.079   2.966  0.3962 -0.3872 -0.2175
  300SOL    HW1  899   0.100   1.055   3.066  2.5169  1.3945 -1.2595
  300SOL    HW2  900   0.151   1.165   2.947 -1.9234  0.1841 -1.0489
  301SOL     OW  901   1.871   0.644   2.553  0.0974 -0.5917  0.3780
  301SOL    HW1  902   1.771   0.638   2.581 -1.4144  0.4756 -2.3288
  301SOL    HW2  903   1.891   0.737   2.513  2.4684  0.3393 -1.7999
  302SOL     OW  904   2.571   1.543   2.686  0.2582 -0.0869 -0.0555
  302SOL    HW1  905   2.526   1.501   2.606 -2.5954 -1.0560  1.9661
  302SOL    HW2  906   2.540   1.642   2.697  0.8549  1.1339 -0.3807
  303SOL     OW  907   0.394   2.243   2.807  0.0698 -0.3234  0.4041
  303SOL    HW1  908   0.442   2.278   2.724  1.1742  1.8261  1.3371
  303SOL    HW2  909   0.298   2.216   2.786  2.3912 -0.8215 -0.6965
  304SOL     OW  910   0.014   1.290   1.408 -0.2448  0.6528 -0.5885
  304SOL    HW1  911   0.061   1.261   1.321  0.3209 -3.7185 -1.0968
  304SOL    HW2  912   0.020   1.215   1.479  2.4690  1.1837  0.5771
  305SOL     OW  913   2.389   0.607   1.957 -0.4247 -0.3271  0.6177
  305SOL    HW1  914   2.359   0.538   1.888 -0.6874 -0.5751 -0.5145
  305SOL    HW2  915   2.469   0.560   2.010 -2.2031 -0.9358 -0.6260
  306SOL     OW  916   2.217   1.218   1.742 -0.9195  0.2415  0.3084
  306SOL    HW1  917   2.156   1.289   1.698 -1.2850  2.3430 -1.9781
  306SOL    HW2  918   2.302   1.267   1.770 -1.3105 -0.8322 -0.3659
  307SOL     OW  919   2.744   0.016   1.032 -0.1333 -0.4266  0.2835
  307SOL    HW1  920   2.644   3.104   1.043 -0.6057  3.3452  1.2086
  307SOL    HW2  921   2.773   0.056   1.122  1.4857  0.7053 -0.5761
  308SOL     OW  922   0.240   1.900   1.783  0.4314  0.1706 -0.2687
  308SOL    HW1  923   0.219   1.893   1.885  1.8158 -1.1017  1.8346
  308SOL    HW2  924   0.316   1.833   1.766 -0.4294  0.6207 -1.8255
  309SOL     OW  925   2.595   2.313   1.495  0.3562 -0.0196  0.0297
  309SOL    HW1  926   2.639   2.236   1.456 -2.4095  2.9262  1.2722
  309SOL    HW2  927   2.494   2.308   1.485  2.7754 -3.5411  1.2462
  310SOL     OW  928   2.227   1.575   2.613  0.4899  0.3151  0.0254
  310SOL    HW1  929   2.240   1.677   2.615 -2.1433 -0.0925 -1.9855
  310SOL    HW2  930   2.215   1.541   2.708  2.1917  1.2645 -0.4810
  311SOL     OW  931   1.699   1.202   3.009 -0.1122 -0.0427 -0.1337
  311SOL    HW1  932   1.599   1.174   3.028 -3.6435  1.8306 -0.4754
  311SOL    HW2  933   1.743   1.140   2.940 -1.3245 -1.6590  0.2460
  312SOL     OW  934   1.382   2.239   2.297 -0.8353 -0.2316 -0.1058
  312SOL    HW1  935   1.400   2.141   2.317  0.5281 -0.5670 -0.6787
  312SOL    HW2  936   1.282   2.258   2.291 -2.2154  0.1461 -2.4237
  313SOL     OW  937   0.297   0.294   0.947  0.2286 -0.2265  0.0119
  313SOL    HW1  938   0.226   0.237   0.902  1.6265 -2.1078  1.1904
  313SOL    HW2  939   0.276   0.302   1.047 -1.3312  0.4658 -2.3365
  314SOL     OW  940   0.512   1.930   1.062  0.3966 -0.1864  0.0969
  314SOL    HW1  941   0.431   1.959   1.121  1.4642  0.5828  1.8337
  314SOL    HW2  942   0.501   1.827   1.045 -0.4222 -4.1748  0.1050
  315SOL     OW  943   0.457   2.225   2.082 -0.6148 -0.1359  0.2909
  315SOL    HW1  944   0.509   2.135   2.091  1.9712 -3.5518  0.1893
  315SOL    HW2  945   0.357   2.219   2.064  2.4817  3.0278  1.0494
  316SOL     OW  946   0.291   2.424   0.849 -0.1270 -0.2108 -0.1114
  316SOL    HW1  947   0.276   2.324   0.846 -2.9481 -1.2179  0.8077
  316SOL    HW2  948   0.242   2.467   0.770 -4.0274  0.7082  1.2943
  317SOL     OW  949   2.243   0.041   0.964  0.4597  0.7272  0.0994
  317SOL    HW1  950   2.181   0.078   0.894  3.5594 -0.1492  1.7744
  317SOL    HW2  951   2.273   0.106   1.032  2.0711 -2.0416  1.1805
  318SOL     OW  952   2.303   2.322   0.292  0.3610 -0.2008  0.1767
  318SOL    HW1  953   2.352   2.241   0.256 -0.6899  0.3886  2.7228
  318SOL    HW2  954   2.371   2.398   0.313  0.9815 -0.8389  1.1954
  319SOL     OW  955   1.259   1.798   2.823 -0.2133 -0.0232  0.1601
  319SOL    HW1  956   1.227   1.830   2.918 -1.3238 -2.1165  1.2642
  319SOL    HW2  957   1.362   1.814   2.808  1.0674 -0.6857 -0.8222
  320SOL     OW  958   0.484   2.628   2.414  0.2471 -0.6252  0.3751
  320SOL    HW1  959   0.559   2.680   2.365  2.5196  0.2223 -2.3463
  320SOL    HW2  960   0.424   2.575   2.350 -0.1029 -1.6485  1.5068
  321SOL     OW  961   1.097   2.518   2.898  0.3195  0.1312  0.5737
  321SOL    HW1  962   1.121   2.531   2.797  3.6236 -0.0035 -4.6260
  321SOL    HW2  963   1.062   2.422   2.917  0.4962  0.6432  1.3757
  322SOL     OW  964   2.479   0.312   2.342 -0.1374 -0.4232 -0.5067
  322SOL    HW1  965   2.486   0.247   2.421 -0.8789  0.8989  0.8320
  322SOL    HW2  966   2.576   0.336   2.315 -2.9595 -0.6011  1.8207
  323SOL     OW  967   2.860   1.340   0.904  0.3037 -0.1499  0.3693
  323SOL    HW1  968   2.796   1.345   0.982  1.7742  1.3176  0.7241
  323SOL    HW2  969   2.911   1.251   0.898 -0.2180 -1.5710 -1.4092
  324SOL     OW  970   0.353   0.958   1.890  0.1516 -0.1396  0.5931
  324SOL    HW1  971   0.287   0.884   1.919 -2.6395 -1.2699  2.2634
  324SOL    HW2  972   0.372   0.939   1.789  0.3973 -2.4547 -1.9098
  325SOL     OW  973   0.354   0.299   1.993  0.3015 -0.0640  0.3467
  325SOL    HW1  974   0.379   0.396   1.971 -1.1224 -0.5875 -0.9637
  325SOL    HW2  975   0.309   0.294   2.083 -1.1701 -0.9941  0.1922
  326SOL     OW  976   2.109   2.379   0.090  0.0757 -0.3948 -0.1398
  326SOL    HW1  977   2.023   2.423   0.129 -0.1886 -0.5870  1.8619
  326SOL    HW2  978   2.162   2.343   0.171 -1.5506  0.6457  0.6392
  327SOL     OW  979   2.083   1.417   0.404 -0.3820 -0.2233 -0.8463
  327SOL    HW1  980   2.131   1.502   0.369  2.9573  1.0783  0.5485
  327SOL    HW2  981   2.084   1.345   0.331  3.0587  1.8823  0.9844
  328SOL     OW  982   3.023   1.804   2.548 -0.1304  0.0261 -0.1638
  328SOL    HW1  983   2.953   1.734   2.577  1.0395 -0.5173 -0.2496
  328SOL    HW2  984   3.114   1.769   2.577 -2.8142 -0.4997 -0.5407
  329SOL     OW  985   0.441   1.912   1.447 -0.7554 -0.0535  0.0908
  329SOL    HW1  986   0.403   1.950   1.362 -0.2122  0.5656  0.6421
  329SOL    HW2  987   0.413   1.958   1.531  0.4849  0.0805  0.0185
  330SOL     OW  988   2.417   1.379   2.516  0.2213 -0.3930 -0.1010
  330SOL    HW1  989   2.336   1.420   2.563 -1.8112 -1.9741  0.6792
  330SOL    HW2  990   2.452   1.292   2.557 -0.8589  3.0132  2.4170
  331SOL     OW  991   2.203   2.678   0.879 -0.5823 -0.3025  0.3450
  331SOL    HW1  992   2.119   2.734   0.871  1.6823  2.0795  2.4128
  331SOL    HW2  993   2.237   2.662   0.784 -0.1797 -2.7566  1.1927
  332SOL     OW  994   0.349   2.809   0.797  0.0736  0.5711 -0.1895
  332SOL    HW1  995   0.311   2.896   0.835 -2.1164 -0.7837  0.4160
  332SOL    HW2  996   0.410   2.762   0.860 -1.0295  0.7395 -1.1962
  333SOL     OW  997   2.072   2.219   2.574 -1.1444 -0.3472 -0.0065
  333SOL    HW1  998   2.050   2.297   2.508 -2.0768  1.5683  0.7288
  333SOL    HW2  999   2.004   2.217   2.650  2.0097  2.7021 -0.4780
  334SOL     OW 1000   0.566   1.044   0.487  0.4668 -0.1979 -0.2390
  334SOL    HW1 1001   0.502   1.000   0.555 -1.4814 -0.8475 -2.5649
  334SOL    HW2 1002   0.662   1.028   0.517 -2.6450  0.5140 -0.9446
  335SOL     OW 1003   2.881   1.906   2.323  0.0714 -0.0953  0.2771
  335SOL    HW1 1004   2.925   1.880   2.408  2.2620 -1.6823 -1.7153
  335SOL    HW2 1005   2.820   1.824   2.297 -1.2573 -3.8221  0.3539
  336SOL     OW 1006   2.462   2.691   2.092  0.1463  0.2626 -0.0259
  336SOL    HW1 1007   2.382   2.710   2.024 -0.0576  3.8743 -1.3802
  336SOL    HW2 1008   2.424   2.660   2.181 -0.2233  1.2765 -0.2054
  337SOL     OW 1009   0.901   1.075   0.923  0.2835  0.2152 -0.3545
  337SOL    HW1 1010   0.998   1.040   0.921  0.0938 -1.1296  0.1646
  337SOL    HW2 1011   0.904   1.178   0.922  0.3016 -1.4899  0.2618
  338SOL     OW 1012   1.036   1.662   1.095  0.5253  0.4945 -0.2420
  338SOL    HW1 1013   1.047   1.576   1.148 -1.0420 -1.7763  1.5928
  338SOL    HW2 1014   0.939   1.672   1.065  1.8633  0.3208 -0.3302
  339SOL     OW 1015   0.160   1.672   1.557 -0.6342  0.7929  0.0475
  339SOL    HW1 1016   0.218   1.714   1.632  1.3584  1.1353  0.1935
  339SOL    HW2 1017   0.218   1.647   1.476  1.7162 -1.3055  0.7536
  340SOL     OW 1018   1.169   2.895   1.542  0.8698 -0.4789 -0.0479
  340SOL    HW1 1019   1.180   2.997   1.538 -0.2327  3.3425  2.8592
  340SOL    HW2 1020   1.070   2.881   1.530 -1.5465  0.9444 -1.2637
  341SOL     OW 1021   1.639   1.788   1.109 -0.1456  0.2719 -0.4573
  341SOL    HW1 1022   1.624   1.828   1.015 -0.0349  0.1694  0.0374
  341SOL    HW2 1023   1.644   1.862   1.176  0.5023  0.6199 -1.8578
  342SOL     OW 1024   2.417   1.511   1.033  0.3481  0.0765  0.0001
  342SOL    HW1 1025   2.489   1.452   1.058 -2.9787  2.3888 -1.8300
  342SOL    HW2 1026   2.420   1.534   0.936  2.3356 -0.8227  4.4958
  343SOL     OW 1027   2.534   0.494   1.320 -0.1430 -0.0018 -0.1563
  343SOL    HW1 1028   2.552   0.475   1.416 -0.9960  1.8311 -0.4362
  343SOL    HW2 1029   2.560   0.589   1.295  2.3600 -0.9322 -0.2666
  344SOL     OW 1030   2.064   0.099   0.758 -0.1148  0.0306 -0.1995
  344SOL    HW1 1031   1.971   0.125   0.724 -1.1037  0.8525  1.2831
  344SOL    HW2 1032   2.129   0.168   0.726 -1.9739  0.0654 -0.1488
  345SOL     OW 1033   0.680   2.938   2.367  0.0861  0.2062 -0.0816
  345SOL    HW1 1034   0.659   2.943   2.462 -1.0022  1.0674 -2.0221
  345SOL    HW2 1035   0.693   3.032   2.331  1.2673 -0.5283 -1.3330
  346SOL     OW 1036   2.818   2.192   0.847 -0.2010  0.2730 -0.8865
  346SOL    HW1 1037   2.765   2.263   0.900 -1.3448 -3.1267  1.6054
  346SOL    HW2 1038   2.751   2.156   0.781 -1.1891 -1.0988  0.4554
  347SOL     OW 1039   2.009   0.055   1.532 -0.2391  0.1334 -0.5265
  347SOL    HW1 1040   1.981   0.143   1.491  0.2226 -1.1480 -3.1655
  347SOL    HW2 1041   1.930   3.113   1.549  0.1542  0.9693 -2.1042
  348SOL     OW 1042   0.927   1.116   1.542 -0.1549 -0.0424 -0.0927
  348SOL    HW1 1043   0.923   1.102   1.646  0.0518  2.1611  1.7892
  348SOL    HW2 1044   0.921   1.216   1.526 -0.6166 -2.2206 -0.4656
  349SOL     OW 1045   2.126   0.558   1.714 -0.3397  0.1722  0.1478
  349SOL    HW1 1046   2.053   0.527   1.776  2.0180  0.1324 -3.1135
  349SOL    HW2 1047   2.212   0.507   1.743 -0.5093 -0.4849  2.5336
  350SOL     OW 1048   2.074   2.315   0.459 -0.1595  0.0332  0.1206
  350SOL    HW1 1049   2.064   2.410   0.489 -0.6412 -1.2921 -0.5861
  350SOL    HW2 1050   2.166   2.315   0.410 -0.3233  0.7330  0.5125
  351SOL     OW 1051   1.049   0.472   2.717 -0.1885  0.4456  0.3215
  351SOL    HW1 1052   1.072   0.386   2.764  1.9229  0.7967 -0.7703
  351SOL    HW2 1053   1.078   0.553   2.769 -0.2024 -0.7746  2.0432
  352SOL     OW 1054   2.083   2.563   1.977  0.0184  0.1619  0.2106
  352SOL    HW1 1055   2.081   2.468   2.016 -1.1693  2.7155  2.1357
  352SOL    HW2 1056   1.997   2.587   1.926 -0.0355 -0.2619  3.9056
  353SOL     OW 1057   0.476   0.870   2.299  0.0263 -0.2382  0.3161
  353SOL    HW1 1058   0.459   0.936   2.222  1.9016 -0.0226 -0.4232
  353SOL    HW2 1059   0.526   0.791   2.257  1.6151 -0.7726 -2.3099
  354SOL     OW 1060   0.443   2.668   2.681 -0.2154 -0.4074 -0.5567
  354SOL    HW1 1061   0.468   2.684   2.582 -0.2864  1.4888  1.3455
  354SOL    HW2 1062   0.353   2.617   2.686 -0.6658 -0.8587  0.3168
  355SOL     OW 1063   1.935   2.821   0.919 -0.1711 -0.2906  0.4249
  355SOL    HW1 1064   1.983   2.844   1.008  0.1413  1.1981  1.3577
  355SOL    HW2 1065   1.836   2.789   0.934  0.5889  2.0131  0.6489
  356SOL     OW 1066   2.634   0.768   0.460 -0.2641  0.0938 -0.4979
  356SOL    HW1 1067   2.571   0.841   0.429  0.2016 -0.7457  0.1878
  356SOL    HW2 1068   2.581   0.702   0.520 -1.4591  1.5632 -1.1324
  357SOL     OW 1069   0.088   0.035   1.799  0.0213 -0.1355 -0.3545
  357SOL    HW1 1070   0.112   0.126   1.840  1.0948  0.7794  2.0239
  357SOL    HW2 1071   0.043   3.104   1.874  0.6037 -2.2317  1.8824
  358SOL     OW 1072   2.956   1.654   1.237  0.1843 -0.0350  0.1160
  358SOL    HW1 1073   2.949   1.634   1.135  2.1006 -2.7385 -0.8894
  358SOL    HW2 1074   2.904   1.742   1.265 -0.3865  4.0182 -1.1346
  359SOL     OW 1075   2.753   0.070   2.869 -0.4663  0.6953 -0.3676
  359SOL    HW1 1076   2.832   0.019   2.834 -0.8979  3.5875  1.3427
  359SOL    HW2 1077   2.737   0.064   2.969 -2.0134 -0.4542 -1.8822
  360SOL     OW 1078   1.260   0.984   1.193 -0.0746  0.5636 -0.3519
  360SOL    HW1 1079   1.357   0.967   1.177 -0.9557 -2.8781 -0.1326
  360SOL    HW2 1080   1.225   0.930   1.272  0.9266  1.7422  3.3362
  361SOL     OW 1081   2.741   2.754   1.357  0.4298  0.1683 -0.2421
  361SOL    HW1 1082   2.810   2.753   1.432 -1.7258  0.6528  1.1699
  361SOL    HW2 1083   2.669   2.681   1.373  0.4664  0.9340  0.8422
  362SOL     OW 1084   1.231   0.256   0.894 -0.1777  0.2703  0.3856
  362SOL    HW1 1085   1.310   0.305   0.931 -0.5602  0.8804 -0.3618
  362SOL    HW2 1086   1.239   0.154   0.913  1.8484  0.9369 -1.3585
  363SOL     OW 1087   1.924   1.580   0.787 -0.4908 -0.1132  0.4171
  363SOL    HW1 1088   1.977   1.520   0.855  3.7750 -0.6229  0.8115
  363SOL    HW2 1089   1.869   1.522   0.728  1.6447  0.6363  0.4796
  364SOL     OW 1090   0.828   0.813   1.797  0.0266  0.0255 -0.3665
  364SOL    HW1 1091   0.928   0.787   1.783  3.3664  0.0232  0.4650
  364SOL    HW2 1092   0.767   0.753   1.737  0.0349 -1.2703 -1.3853
  365SOL     OW 1093   3.028   0.309   1.122 -0.6554 -0.1342  0.3311
  365SOL    HW1 1094   0.004   0.286   1.158  3.7047  1.2173  0.6925
  365SOL    HW2 1095   2.997   0.395   1.169  0.2221  0.1452 -0.4190
  366SOL     OW 1096   2.974   1.033   0.428 -0.5832  0.3552  0.7517
  366SOL    HW1 1097   2.878   1.047   0.385 -2.6395  3.4400  1.6562
  366SOL    HW2 1098   3.017   1.124   0.452  0.6773  1.0075 -0.1156
  367SOL     OW 1099   2.241   1.985   2.308 -0.0764  0.1889  0.5642
  367SOL    HW1 1100   2.142   1.969   2.324  1.5872 -0.5629 -3.8244
  367SOL    HW2 1101   2.259   2.081   2.288 -1.7538 -0.7067  0.0739
  368SOL     OW 1102   2.460   1.942   0.920  0.3958 -0.0604 -0.5396
  368SOL    HW1 1103   2.499   1.864   0.975 -1.0546 -0.7655  1.1115
  368SOL    HW2 1104   2.387   1.914   0.858 -1.9437  1.3853  0.9980
  369SOL     OW 1105   2.251   0.247   2.870 -0.3255  0.2933  0.0300
  369SOL    HW1 1106   2.168   0.304   2.894 -1.3832  1.2449 -2.7703
  369SOL    HW2 1107   2.301   0.195   2.942  2.3085 -0.3322  1.0372
  370SOL     OW 1108   0.727   0.509   1.226 -0.2036 -0.5960 -0.5609
  370SOL    HW1 1109   0.779   0.434   1.181 -2.3625  2.9536  0.8510
  370SOL    HW2 1110   0.675   0.560   1.157  1.6788  0.0387  2.4107
  371SOL     OW 1111   0.287   1.593   0.157 -0.0082  0.1993 -0.3238
  371SOL    HW1 1112   0.273   1.555   0.062 -0.3259  1.7135  1.5211
  371SOL    HW2 1113   0.386   1.584   0.179 -0.3352 -1.7067  0.3108
  372SOL     OW 1114   0.775   0.586   2.352 -0.2349 -0.3192  0.4362
  372SOL    HW1 1115   0.798   0.518   2.420  1.1543  2.4081 -0.5816
  372SOL    HW2 1116   0.814   0.672   2.381 -0.5792  0.9451 -0.5592
  373SOL     OW 1117   0.961   2.939   2.853 -0.3159  0.1861 -0.9323
  373SOL    HW1 1118   0.956   2.984   2.944 -3.3549 -1.2955  2.1478
  373SOL    HW2 1119   0.961   3.004   2.774  0.5449  0.7150 -0.2875
  374SOL     OW 1120   0.963   1.825   0.232  0.3077  0.3503 -0.2544
  374SOL    HW1 1121   0.989   1.857   0.323 -0.2536 -0.2985 -0.7448
  374SOL    HW2 1122   0.959   1.725   0.244  2.6001  1.0485 -1.6144
  375SOL     OW 1123   1.219   0.675   2.035  0.8105  0.1633 -0.1523
  375SOL    HW1 1124   1.153   0.637   2.100  0.6527 -0.8874  1.8790
  375SOL    HW2 1125   1.299   0.701   2.094 -2.9633  0.5367 -0.0006
  376SOL     OW 1126   2.907   2.693   1.957  0.3048 -0.0360  0.9720
  376SOL    HW1 1127   2.825   2.713   2.020 -3.8296  0.6823  2.1897
  376SOL    HW2 1128   2.992   2.731   1.994 -0.5690 -1.2981  1.4455
  377SOL     OW 1129   2.528   1.538   2.962  0.2861 -0.2132  0.0410
  377SOL    HW1 1130   2.559   1.548   2.869 -0.3001 -1.6502 -0.0625
  377SOL    HW2 1131   2.581   1.463   3.011  3.4904 -2.1204  0.9750
  378SOL     OW 1132   2.381   0.006   3.002  0.5676 -0.6609 -0.8186
  378SOL    HW1 1133   2.312   3.050   3.001 -0.4171 -0.5704  1.3782
  378SOL    HW2 1134   2.418   0.008   3.098  3.1686 -1.1878  2.4786
  379SOL     OW 1135   1.770   0.763   0.548 -0.1582 -0.2395 -0.2833
  379SOL    HW1 1136   1.714   0.805   0.619  1.1339 -1.7397 -2.3128
  379SOL    HW2 1137   1.793   0.666   0.569  2.0963  0.9116 -0.6589
  380SOL     OW 1138   2.526   1.940   1.627 -0.0767  0.9405  0.3794
  380SOL    HW1 1139   2.485   1.978   1.716  1.4831  1.5987  0.7891
  380SOL    HW2 1140   2.516   1.840   1.609 -1.6125  1.9988  1.1596
  381SOL     OW 1141   2.696   1.341   2.403 -0.0403 -0.0568  0.1645
  381SOL    HW1 1142   2.729   1.383   2.317  2.7536 -2.6491  0.4477
  381SOL    HW2 1143   2.597   1.367   2.412 -0.6718 -0.4715  0.4670
  382SOL     OW 1144   2.882   2.537   2.454  0.3299 -0.2827 -0.0519
  382SOL    HW1 1145   2.860   2.639   2.444  0.7917  1.2946 -1.2326
  382SOL    HW2 1146   2.826   2.480   2.387 -0.9622 -2.2208 -3.0594
  383SOL     OW 1147   1.074   1.613   2.917  0.1595 -0.0413  0.0114
  383SOL    HW1 1148   1.146   1.649   2.847  1.3612  0.2425 -2.1670
  383SOL    HW2 1149   1.013   1.686   2.950  0.4208  1.1049  1.8712
  384SOL     OW 1150   1.620   2.009   1.699  0.0515  0.0458  0.4245
  384SOL    HW1 1151   1.664   1.963   1.781  1.0892 -0.1211  1.3042
  384SOL    HW2 1152   1.602   2.109   1.707  2.9776  0.2673  0.2747
  385SOL     OW 1153   1.666   2.836   0.498  0.3325  0.1598  0.2809
  385SOL    HW1 1154   1.634   2.921   0.546  2.8599  0.8030 -0.0007
  385SOL    HW2 1155   1.705   2.861   0.405 -0.0432 -0.3025 -0.1294
  386SOL     OW 1156   1.795   1.411   0.439  0.4158  0.2306 -0.0588
  386SOL    HW1 1157   1.892   1.434   0.415 -0.9288 -0.8844 -2.5844
  386SOL    HW2 1158   1.787   1.381   0.535 -0.9811  0.7440 -0.3965
  387SOL     OW 1159   3.003   2.229   1.557 -0.4139  0.1418  0.2027
  387SOL    HW1 1160   2.971   2.144   1.606 -1.9639 -2.1895 -0.5866
  387SOL    HW2 1161   2.933   2.303   1.564  1.1812 -2.9723  1.4923
  388SOL     OW 1162   0.056   1.102   1.599 -0.2820 -0.2473 -0.1238
  388SOL    HW1 1163   0.068   1.158   1.684  1.9685  0.3417 -0.0114
  388SOL    HW2 1164   0.093   1.009   1.615  0.4271 -1.1869  2.2860
  389SOL     OW 1165   1.706   0.224   3.020 -0.4415 -0.4706 -0.0628
  389SOL    HW1 1166   1.652   0.139   3.003  0.5602 -0.2522 -1.1376
  389SOL    HW2 1167   1.717   0.234   0.004 -1.6229  0.9045  0.1798
  390SOL     OW 1168   0.946   1.856   2.994  0.4019  0.4330  0.3300
  390SOL    HW1 1169   0.898   1.912   3.063  1.6667 -0.7105 -0.6346
  390SOL    HW2 1170   1.039   1.900   2.987  0.0305  4.0366  2.4330
  391SOL     OW 1171   1.233   2.314   0.113 -0.1533 -0.5068  0.0422
  391SOL    HW1 1172   1.315   2.315   0.172 -1.1894  1.8436  0.5270
  391SOL    HW2 1173   1.185   2.405   0.123 -1.9934 -0.8431  0.0655
  392SOL     OW 1174   0.103   2.431   2.165  0.0161 -0.0511 -0.3796
  392SOL    HW1 1175   0.143   2.526   2.154  0.8231  2.3011 -1.7635
  392SOL    HW2 1176   0.052   2.433   2.257 -2.1275  0.9007  0.9368
  393SOL     OW 1177   1.374   2.075   0.433  0.1602 -0.3183 -0.7182
  393SOL    HW1 1178   1.452   2.078   0.497  0.8420  1.9901  1.0698
  393SOL    HW2 1179   1.387   2.002   0.362 -0.9923  1.0570  0.4861
  394SOL     OW 1180   0.500   0.412   2.419 -0.0681 -0.5537  0.0860
  394SOL    HW1 1181   0.541   0.499   2.374  0.3472  0.6092 -1.5389
  394SOL    HW2 1182   0.453   0.433   2.509 -0.7614 -1.1551  0.4743
  395SOL     OW 1183   0.680   1.245   1.362 -0.2623  0.1309  0.0421
  395SOL    HW1 1184   0.765   1.302   1.377  2.7212  0.6624  1.0627
  395SOL    HW2 1185   0.661   1.256   1.263  2.0699 -2.7832  3.0217
  396SOL     OW 1186   2.023   1.129   2.496  0.2841 -0.0939 -0.2205
  396SOL    HW1 1187   1.944   1.181   2.532 -3.3600  1.5526 -1.6572
  396SOL    HW2 1188   2.098   1.147   2.563 -0.6408  2.1145 -0.9449
  397SOL     OW 1189   0.570   0.328   0.083 -0.2835 -0.2956 -0.6362
  397SOL    HW1 1190   0.524   0.400   0.025  1.1802 -0.5598 -1.4770
  397SOL    HW2 1191   0.536   0.335   0.179  0.9686 -1.9540  0.8231
  398SOL     OW 1192   1.134   2.563   0.052  0.0875  0.2376 -0.4278
  398SOL    HW1 1193   1.101   2.554   3.076 -1.2608 -0.1877 -2.2275
  398SOL    HW2 1194   1.083   2.628   0.107  0.1226 -3.6932 -2.7165
  399SOL     OW 1195   1.842   2.141   2.009 -0.1259 -0.0091  0.6777
  399SOL    HW1 1196   1.776   2.065   1.996  2.3456 -1.7698  0.7984
  399SOL    HW2 1197   1.869   2.186   1.923  0.9636 -0.6379  3.4028
  400SOL     OW 1198   2.144   1.128   1.262 -0.6774  0.0652  0.2112
  400SOL    HW1 1199   2.056   1.157   1.224 -0.0717  0.6840 -0.5890
  400SOL    HW2 1200   2.211   1.209   1.259  2.8299  1.0878 -1.1506
  401SOL     OW 1201   1.402   1.173   0.903  0.2215 -0.6921 -0.0800
  401SOL    HW1 1202   1.358   1.264   0.930 -1.2301  2.8180  1.8072
  401SOL    HW2 1203   1.434   1.113   0.980  1.3463 -0.0135 -2.4893
  402SOL     OW 1204   0.002   2.990   2.454 -0.7685  0.0353  0.0415
  402SOL    HW1 1205   3.117   2.934   2.543 -2.7415 -1.3821 -2.5510
  402SOL    HW2 1206   0.097   3.009   2.426 -0.2330 -1.0821 -0.1557
  403SOL     OW 1207   2.547   1.706   1.492 -0.1214 -0.2882  0.2906
  403SOL    HW1 1208   2.640   1.669   1.497  1.0406  2.0904  1.2541
  403SOL    HW2 1209   2.514   1.723   1.395  1.6603 -0.3182 -0.7984
  404SOL     OW 1210   2.059   1.654   1.478  0.5301 -0.3207  0.0027
  404SOL    HW1 1211   2.132   1.687   1.420 -1.5584 -0.5810  1.3944
  404SOL    HW2 1212   1.963   1.657   1.434 -0.4176  2.2397 -1.0958
  405SOL     OW 1213   2.649   0.299   2.793 -0.0783  0.3346 -0.3889
  405SOL    HW1 1214   2.678   0.205   2.821  0.5506 -1.5351 -1.3517
  405SOL    HW2 1215   2.698   0.362   2.858  1.3489 -0.6779  2.0265
  406SOL     OW 1216   0.972   1.601   2.387 -0.1545 -0.2570  0.5280
  406SOL    HW1 1217   0.951   1.693   2.354 -1.3955 -3.2056  0.0598
  406SOL    HW2 1218   0.989   1.604   2.485  0.5632  0.1413  1.0041
  407SOL     OW 1219   1.916   2.559   0.203 -0.0853  0.2940  0.0478
  407SOL    HW1 1220   1.906   2.664   0.201 -0.7331  2.5847  0.2963
  407SOL    HW2 1221   1.824   2.522   0.230 -0.6463 -0.1759  0.8293
  408SOL     OW 1222   0.143   3.013   0.866 -0.4471 -0.1780  0.4364
  408SOL    HW1 1223   0.129   3.109   0.838 -1.0208 -2.0948 -1.9129
  408SOL    HW2 1224   0.058   2.959   0.841 -1.0258 -0.9227 -1.0610
  409SOL     OW 1225   2.240   1.839   0.770 -0.0844 -0.0089 -0.1531
  409SOL    HW1 1226   2.162   1.836   0.833  1.0368 -0.9660  2.3801
  409SOL    HW2 1227   2.214   1.907   0.697 -1.9965  2.7011 -2.7187
  410SOL     OW 1228   2.381   2.098   2.948  0.6953 -0.4568  0.5405
  410SOL    HW1 1229   2.472   2.096   2.990  2.6443 -0.5700 -1.5551
  410SOL    HW2 1230   2.375   2.147   2.859  0.6540 -0.9088 -1.0169
  411SOL     OW 1231   0.194   0.195   0.548  0.3765 -0.6722 -0.5782
  411SOL    HW1 1232   0.254   0.173   0.466 -0.7494 -0.2622  0.5299
  411SOL    HW2 1233   0.254   0.257   0.603 -1.9331  0.4497 -1.1520
  412SOL     OW 1234   1.305   2.643   0.368 -0.3552  0.4637  0.1839
  412SOL    HW1 1235   1.307   2.744   0.344 -0.0503 -2.1714  1.1110
  412SOL    HW2 1236   1.354   2.635   0.460  1.7689  1.1537  0.2211
  413SOL     OW 1237   2.057   0.476   2.230 -0.3412 -0.6153  0.3995
  413SOL    HW1 1238   2.011   0.550   2.180  3.1198  2.3411  0.0439
  413SOL    HW2 1239   1.993   0.435   2.299 -2.2834  1.9907  0.3954
  414SOL     OW 1240   0.179   0.529   0.658 -0.0290  0.0786 -0.4227
  414SOL    HW1 1241   0.259   0.538   0.721 -0.3911 -1.4541 -0.9747
  414SOL    HW2 1242   0.218   0.519   0.569 -3.1986 -0.4768  3.8654
  415SOL     OW 1243   0.296   1.468   1.402  0.3445 -0.3406 -0.0691
  415SOL    HW1 1244   0.338   1.410   1.333 -2.7864  0.2102  0.6600
  415SOL    HW2 1245   0.294   1.418   1.488  0.0142 -0.7415 -3.1117
  416SOL     OW 1246   0.069   3.077   0.325  0.5633  0.2146  0.2707
  416SOL    HW1 1247   0.131   0.036   0.340  0.1229 -2.9087 -1.8379
  416SOL    HW2 1248   0.049   3.022   0.413 -0.5423 -1.2736  1.1836
  417SOL     OW 1249   1.946   0.305   1.042  0.3307 -1.0012  0.4115
  417SOL    HW1 1250   1.973   0.265   1.131  0.3543 -1.7278 -0.3947
  417SOL    HW2 1251   2.024   0.356   0.995  3.6557 -1.3509 -1.7258
  418SOL     OW 1252   0.409   0.513   2.667  0.1964 -0.1314  0.2362
  418SOL    HW1 1253   0.499   0.521   2.716 -1.6828 -1.9067  1.5111
  418SOL    HW2 1254   0.359   0.605   2.659  0.2077  2.1251 -0.8806
  419SOL     OW 1255   0.404   0.972   0.708  0.6503  0.1149 -0.0948
  419SOL    HW1 1256   0.417   0.873   0.695  0.3786  0.0501  1.0533
  419SOL    HW2 1257   0.412   0.991   0.812  0.3092 -0.5822  3.6920
  420SOL     OW 1258   1.937   2.142   0.761 -0.0565 -0.0666 -0.6155
  420SOL    HW1 1259   1.896   2.131   0.669  2.9431 -0.0823 -0.6291
  420SOL    HW2 1260   1.939   2.058   0.816 -0.0190  1.5318 -1.0254
  421SOL     OW 1261   1.875   1.917   2.709 -0.3943 -0.3635 -0.4746
  421SOL    HW1 1262   1.874   1.955   2.806  0.7162 -0.8063 -1.0263
  421SOL    HW2 1263   1.846   1.819   2.717 -1.5322  0.0318 -1.5857
  422SOL     OW 1264   2.793   0.381   0.071  0.3400 -0.0543  0.2980
  422SOL    HW1 1265   2.813   0.475   0.037 -1.1276  0.2402  1.1302
  422SOL    HW2 1266   2.787   0.379   0.170 -2.6711 -1.5850 -2.3085
  423SOL     OW 1267   1.613   1.891   0.860  0.3330  0.1718  0.6958
  423SOL    HW1 1268   1.640   1.986   0.887  0.6836 -2.2509 -2.0232
  423SOL    HW2 1269   1.687   1.844   0.809  1.7348  0.6210 -1.5366
  424SOL     OW 1270   0.347   1.414   1.683 -0.4731 -0.9174  0.3119
  424SOL    HW1 1271   0.384   1.494   1.726  1.5744 -0.7055  0.3122
  424SOL    HW2 1272   0.271   1.377   1.742 -0.2895 -3.5695 -0.9737
  425SOL     OW 1273   2.550   2.617   1.747 -0.1394 -0.3510  0.0447
  425SOL    HW1 1274   2.577   2.529   1.792  1.9768  1.0513  0.6182
  425SOL    HW2 1275   2.469   2.660   1.783  1.6099 -1.8705 -0.3225
  426SOL     OW 1276   1.920   2.829   0.217 -0.0451 -0.4000  0.1838
  426SOL    HW1 1277   1.967   2.846   0.306  1.7149 -1.7475  1.5987
  426SOL    HW2 1278   1.981   2.860   0.138  0.6697  2.2724  0.1826
  427SOL     OW 1279   0.349   0.773   2.634 -0.0165  0.2246 -0.7878
  427SOL    HW1 1280   0.382   0.863   2.592 -1.1567  0.8766  1.7317
  427SOL    HW2 1281   0.339   0.788   2.736 -1.8689 -1.6644  0.2770
  428SOL     OW 1282   2.061   1.001   3.077  0.0903 -0.2918  1.1010
  428SOL    HW1 1283   1.992   1.065   3.112  0.0968  0.4306  1.3562
  428SOL    HW2 1284   2.048   0.980   2.977  0.1864  1.2211 -2.8446
  429SOL     OW 1285   2.956   0.146   0.415 -0.4322  0.0627  0.0273
  429SOL    HW1 1286   2.953   0.075   0.486 -1.2617  2.8900  0.3054
  429SOL    HW2 1287   3.032   0.215   0.433  0.0911  0.4717  0.0867
  430SOL     OW 1288   1.178   2.937   1.957 -0.9622 -0.0039  0.9441
  430SOL    HW1 1289   1.098   2.909   1.900 -0.2504  1.5736 -0.6664
  430SOL    HW2 1290   1.243   2.860   1.955 -0.7019  1.6684 -1.7304
  431SOL     OW 1291   0.138   1.832   1.192 -0.1478 -0.5139  0.3268
  431SOL    HW1 1292   0.076   1.874   1.266 -1.7747  0.6662  1.6015
  431SOL    HW2 1293   0.130   1.730   1.191  2.2541 -0.4335 -1.1942
  432SOL     OW 1294   2.188   2.951   1.809  0.4229 -0.4083 -0.1873
  432SOL    HW1 1295   2.252   3.020   1.844  0.8487 -0.5914 -1.0829
  432SOL    HW2 1296   2.173   2.968   1.708  1.0485 -1.0008  0.2443
  433SOL     OW 1297   1.164   2.068   0.162 -0.1176  0.3832  0.4187
  433SOL    HW1 1298   1.143   2.065   0.264 -2.0744 -0.3697  1.4992
  433SOL    HW2 1299   1.191   2.161   0.131  0.2369  2.5055  1.2869
  434SOL     OW 1300   3.107   2.393   2.408 -0.2668 -0.8553  0.6501
  434SOL    HW1 1301   0.040   2.349   2.482  0.8407 -1.4398  0.4907
  434SOL    HW2 1302   3.033   2.460   2.432 -0.9930  0.1436 -2.3733
  435SOL     OW 1303   0.423   0.716   0.650 -0.7045  0.2052 -0.2734
  435SOL    HW1 1304   0.440   0.648   0.729 -0.8636 -0.0088  2.7379
  435SOL    HW2 1305   0.477   0.678   0.565  0.6554 -1.4312  0.2442
  436SOL     OW 1306   0.408   2.541   1.872  0.0498 -0.1665  0.1337
  436SOL    HW1 1307   0.327   2.495   1.831  0.4496 -0.1368  5.7957
  436SOL    HW2 1308   0.489   2.533   1.808  1.5168 -2.0160  2.0887
  437SOL     OW 1309   1.148   1.917   1.614 -0.6494  0.1332 -0.5123
  437SOL    HW1 1310   1.113   2.009   1.629  1.3969 -2.6215 -0.0394
  437SOL    HW2 1311   1.240   1.911   1.571 -1.7578 -0.4019  2.7219
  438SOL     OW 1312   0.144   2.259   0.536 -0.2563 -0.2628 -0.2482
  438SOL    HW1 1313   0.184   2.172   0.505  0.9428  0.3428 -0.4313
  438SOL    HW2 1314   0.084   2.243   0.615 -0.6076  3.0020  1.2929
  439SOL     OW 1315   0.180   0.262   1.195 -0.2742 -0.4269 -0.5221
  439SOL    HW1 1316   0.169   0.169   1.226  3.4926 -0.4693  0.6022
  439SOL    HW2 1317   0.249   0.310   1.258  1.5013  0.8176  1.8056
  440SOL     OW 1318   2.731   2.692   2.162 -0.6946  0.0723 -0.5593
  440SOL    HW1 1319   2.765   2.598   2.192  4.1001  2.7928 -3.4022
  440SOL    HW2 1320   2.648   2.682   2.103  0.4879 -0.2746 -1.3187
  441SOL     OW 1321   2.971   0.582   1.683 -0.2143  0.1676  0.3058
  441SOL    HW1 1322   2.924   0.600   1.597 -0.9971 -0.8064  1.5686
  441SOL    HW2 1323   2.918   0.618   1.758 -0.2445 -2.1564  0.3381
  442SOL     OW 1324   1.610   2.443   3.069  0.2997  0.5245 -0.3618
  442SOL    HW1 1325   1.626   2.419   0.048 -0.0829  2.7048 -0.1699
  442SOL    HW2 1326   1.534   2.516   3.063 -0.4995  0.6299  1.2936
  443SOL     OW 1327   0.580   0.974   0.074  0.1252  0.4703  0.7046
  443SOL    HW1 1328   0.513   0.930   0.134  0.2575 -1.2682  0.2389
  443SOL    HW2 1329   0.567   1.073   0.079  0.9968 -0.6392 -0.4888
  444SOL     OW 1330   1.569   1.552   2.348  0.2136 -0.4170  0.0263
  444SOL    HW1 1331   1.650   1.501   2.384 -1.9312 -0.2971 -1.4928
  444SOL    HW2 1332   1.577   1.554   2.241 -2.1391 -2.7768 -3.4983
  445SOL     OW 1333   0.285   2.497   1.131  0.2231  0.2409  0.2047
  445SOL    HW1 1334   0.324   2.578   1.172  0.7585 -2.4257 -1.3742
  445SOL    HW2 1335   0.292   2.492   1.030 -1.0124 -4.0980  1.3994
  446SOL     OW 1336   2.468   1.368   1.499 -0.2659 -0.4231 -0.9230
  446SOL    HW1 1337   2.393   1.378   1.568  1.1412 -0.9236  3.1709
  446SOL    HW2 1338   2.516   1.458   1.489  0.7818 -2.0332 -2.7501
  447SOL     OW 1339   0.253   0.681   3.111  0.3963  0.2097  0.3786
  447SOL    HW1 1340   0.191   0.752   0.037 -1.3433  0.6749  0.5600
  447SOL    HW2 1341   0.218   0.588   0.009 -1.0728  1.4994 -0.5221
  448SOL     OW 1342   1.438   2.221   1.828  0.0355 -0.1039 -0.2732
  448SOL    HW1 1343   1.402   2.236   1.734  0.0785 -0.3642  0.7757
  448SOL    HW2 1344   1.480   2.301   1.869 -0.9187 -0.5508 -0.7633
  449SOL     OW 1345   1.255   1.320   0.459  0.4304  0.4661 -0.2020
  449SOL    HW1 1346   1.243   1.238   0.401  0.5634 -0.5653  0.0889
  449SOL    HW2 1347   1.257   1.402   0.407  0.0496 -2.0865  1.7261
  450SOL     OW 1348   2.942   2.089   1.790 -0.4835  0.0155  0.0547
  450SOL    HW1 1349   2.997   2.013   1.742 -1.5422  0.8232 -1.5436
  450SOL    HW2 1350   2.968   2.098   1.887  0.1603  1.5169  0.2642
  451SOL     OW 1351   2.839   1.293   2.882  0.3310  0.2722  0.4600
  451SOL    HW1 1352   2.903   1.367   2.883 -1.3452 -3.2592 -1.2511
  451SOL    HW2 1353   2.880   1.220   2.947 -0.7219  0.7490  0.4064
  452SOL     OW 1354   1.527   0.774   0.968 -0.8611 -0.1611 -0.5265
  452SOL    HW1 1355   1.452   0.708   0.963  1.8750  0.8924 -1.2191
  452SOL    HW2 1356   1.586   0.755   1.050  2.6682  0.3020 -0.0442
  453SOL     OW 1357   1.807   1.065   1.316 -0.1121 -0.0935 -0.0647
  453SOL    HW1 1358   1.887   1.057   1.384  0.3379 -1.9044 -0.6819
  453SOL    HW2 1359   1.717   1.027   1.350  0.6136 -1.2843  1.2757
  454SOL     OW 1360   0.016   0.867   0.592  0.1449  0.2496 -0.9167
  454SOL    HW1 1361   3.078   0.805   0.654 -1.3197  1.5355 -1.1638
  454SOL    HW2 1362   3.072   0.927   0.537 -1.0422  0.0646  0.4743
  455SOL     OW 1363   2.410   2.744   1.043  0.2195  0.1205  0.2021
  455SOL    HW1 1364   2.510   2.720   1.038  0.9223 -0.0794  2.1754
  455SOL    HW2 1365   2.357   2.711   0.962  0.5648  1.7689 -0.1156
  456SOL     OW 1366   0.410   2.762   1.167 -0.0510  0.3227 -0.3443
  456SOL    HW1 1367   0.447   2.760   1.263  1.3856 -1.1180  0.9733
  456SOL    HW2 1368   0.326   2.823   1.159  2.2749 -2.6587 -2.7769
  457SOL     OW 1369   1.826   0.111   0.637  0.4643 -0.0407  0.2457
  457SOL    HW1 1370   1.734   0.063   0.641  0.8995 -1.9990 -1.0376
  457SOL    HW2 1371   1.851   0.118   0.537 -1.5865 -2.3524  0.7411
  458SOL     OW 1372   2.612   0.290   0.912 -0.2028 -0.3335 -0.2620
  458SOL    HW1 1373   2.652   0.235   0.835 -3.9026  1.4956  1.3704
  458SOL    HW2 1374   2.587   0.242   0.994  0.0062  0.5540 -2.4673
  459SOL     OW 1375   2.099   0.605   2.945 -0.2706  0.8462  0.0489
  459SOL    HW1 1376   2.136   0.651   2.865 -2.3439 -1.5130  0.5151
  459SOL    HW2 1377   2.050   0.521   2.924  2.2192  1.1223  1.9513
  460SOL     OW 1378   2.686   2.381   2.918 -0.2675  0.0723 -0.5993
  460SOL    HW1 1379   2.638   2.413   2.835  1.3887 -0.6751  0.3566
  460SOL    HW2 1380   2.764   2.441   2.943 -0.6295 -1.1331  0.0225
  461SOL     OW 1381   0.565   1.710   0.427  0.4366  0.2726  0.0013
  461SOL    HW1 1382   0.637   1.779   0.420  0.7114 -0.1210 -0.4113
  461SOL    HW2 1383   0.561   1.658   0.340  1.2048 -3.2590  1.0677
  462SOL     OW 1384   2.363   2.381   0.630  0.4168 -0.0500 -0.5215
  462SOL    HW1 1385   2.287   2.350   0.696 -0.5618 -0.6143  1.0818
  462SOL    HW2 1386   2.328   2.449   0.560 -0.4577  2.6121 -0.6827
  463SOL     OW 1387   3.021   0.592   0.646  0.6253 -0.1370 -0.2824
  463SOL    HW1 1388   2.969   0.539   0.718 -1.3014 -0.4513 -0.4020
  463SOL    HW2 1389   0.005   0.576   0.648  0.5842  0.3762  0.9010
  464SOL     OW 1390   1.203   2.947   0.707 -0.0783 -0.0364  0.0370
  464SOL    HW1 1391   1.104   2.958   0.707  0.2482 -0.0020  1.7327
  464SOL    HW2 1392   1.225   2.848   0.691  0.5276  0.7683 -1.4287
  465SOL     OW 1393   2.401   0.944   0.454  0.1417 -0.8865 -0.0970
  465SOL    HW1 1394   2.322   0.911   0.511 -0.6084  1.9863  2.3955
  465SOL    HW2 1395   2.365   0.971   0.363 -0.5416  0.3383 -0.9723
  466SOL     OW 1396   2.633   2.885   0.021  0.4156  0.2470  0.4797
  466SOL    HW1 1397   2.596   2.974   0.054 -0.5161  1.1856 -0.0985
  466SOL    HW2 1398   2.573   2.806   0.054  0.6741 -0.8729  0.2563
  467SOL     OW 1399   0.961   0.891   1.423  0.1491 -0.9806 -0.0944
  467SOL    HW1 1400   0.955   0.966   1.494 -1.7683  0.7694  0.2131
  467SOL    HW2 1401   1.058   0.864   1.417  0.0265 -0.7691 -0.8162
  468SOL     OW 1402   0.285   0.579   2.235  0.2696  0.5510 -0.7700
  468SOL    HW1 1403   0.346   0.628   2.172 -1.7124  1.3534 -1.7925
  468SOL    HW2 1404   0.283   0.630   2.325  0.9253  0.6591 -0.5170
  469SOL     OW 1405   0.676   2.941   2.637  0.4054 -0.1538  0.1641
  469SOL    HW1 1406   0.641   2.898   2.724  1.4065 -1.6979  0.4444
  469SOL    HW2 1407   0.776   2.926   2.637 -1.5216  2.2901 -2.2441
  470SOL     OW 1408   2.159   1.220   2.711  0.1250  0.7468 -0.3992
  470SOL    HW1 1409   2.164   1.302   2.766 -0.1773 -0.8590 -2.1586
  470SOL    HW2 1410   2.249   1.184   2.686 -1.5053  0.8969 -1.1186
  471SOL     OW 1411   2.991   1.187   2.496  0.0117 -0.2236  0.1326
  471SOL    HW1 1412   2.985   1.291   2.476  0.7709  4.0861  1.4679
  471SOL    HW2 1413   2.918   1.157   2.555  0.2996 -0.8744  0.3468
  472SOL     OW 1414   0.483   2.382   0.231  0.1350  0.1984  0.9528
  472SOL    HW1 1415   0.476   2.409   0.326 -0.0092 -0.9493 -1.1117
  472SOL    HW2 1416   0.578   2.362   0.206 -0.3121  2.5738  0.3730
  473SOL     OW 1417   0.602   0.129   3.005 -0.2914 -0.3294  0.5339
  473SOL    HW1 1418   0.508   0.080   3.003 -0.0689 -0.3722  0.5630
  473SOL    HW2 1419   0.604   0.205   3.071  2.3868  0.9368 -0.7706
  474SOL     OW 1420   1.500   0.624   2.417  0.7072  0.4596  0.5100
  474SOL    HW1 1421   1.477   0.679   2.330 -0.1537  2.0195 -2.1648
  474SOL    HW2 1422   1.566   0.550   2.381 -0.3014 -0.9529  1.6682
  475SOL     OW 1423   0.762   2.683   0.236  0.1375 -0.0010 -0.0248
  475SOL    HW1 1424   0.752   2.582   0.220  0.4752 -1.3969  2.0539
  475SOL    HW2 1425   0.855   2.707   0.273 -2.1123  1.7713 -0.7287
  476SOL     OW 1426   0.461   1.033   0.955 -0.2791  0.3378 -0.2917
  476SOL    HW1 1427   0.552   0.990   0.978  1.2167 -2.5595 -0.8081
  476SOL    HW2 1428   0.476   1.131   0.969  0.6293 -0.6528  2.5763
  477SOL     OW 1429   1.636   2.037   1.234 -0.1426 -0.4144  0.0961
  477SOL    HW1 1430   1.557   2.102   1.245 -0.2233  0.1235  0.3633
  477SOL    HW2 1431   1.673   2.022   1.325  1.0125 -1.3101 -3.8048
  478SOL     OW 1432   0.838   1.428   2.243  0.0352  0.7305  0.3991
  478SOL    HW1 1433   0.809   1.331   2.262  3.0948  1.6414  1.0651
  478SOL    HW2 1434   0.900   1.466   2.311 -2.4553 -1.8592  0.1397
  479SOL     OW 1435   0.202   2.940   1.127 -0.3610  0.1934 -0.8580
  479SOL    HW1 1436   0.191   3.028   1.179  1.6822 -1.7499 -1.5375
  479SOL    HW2 1437   0.158   2.950   1.037 -0.9170 -2.7594  2.9128
  480SOL     OW 1438   2.764   2.646   0.245 -0.5408 -0.5885 -0.0170
  480SOL    HW1 1439   2.771   2.734   0.294  2.5535 -2.6218 -1.2913
  480SOL    HW2 1440   2.697   2.654   0.169 -0.1403 -0.9861  0.6641
  481SOL     OW 1441   2.828   0.152   1.255 -0.2260 -0.1820  0.4583
  481SOL    HW1 1442   2.895   0.225   1.255 -4.6744 -0.6163 -0.1819
  481SOL    HW2 1443   2.873   0.063   1.282  1.0412 -1.0482 -1.3688
  482SOL     OW 1444   1.594   2.445   1.894 -0.2248  0.3100 -0.3884
  482SOL    HW1 1445   1.681   2.477   1.938 -0.4914 -0.3797 -0.3848
  482SOL    HW2 1446   1.572   2.502   1.813 -1.0392  1.3345  1.9003
  483SOL     OW 1447   0.693   1.499   2.868 -0.1248 -0.8839  0.2652
  483SOL    HW1 1448   0.695   1.460   2.776 -1.9736  0.7403  2.7558
  483SOL    HW2 1449   0.677   1.431   2.942  1.0936  1.0792 -1.4757
  484SOL     OW 1450   1.168   1.546   2.179 -0.1060  0.4677 -0.6306
  484SOL    HW1 1451   1.237   1.496   2.231  0.7012  0.3670  0.7353
  484SOL    HW2 1452   1.075   1.530   2.223 -0.8646 -0.9823 -1.1301
  485SOL     OW 1453   2.712   0.108   0.070 -0.5166 -0.6920 -0.3013
  485SOL    HW1 1454   2.724   0.211   0.069 -1.9636  1.7828  1.2122
  485SOL    HW2 1455   2.797   0.065   0.106 -0.3358  0.6536 -0.9609
  486SOL     OW 1456   1.593   3.062   0.596 -0.5142  0.0653  0.0737
  486SOL    HW1 1457   1.507   3.069   0.545 -0.5435 -0.4501  3.0285
  486SOL    HW2 1458   1.568   3.077   0.693  0.1799  0.9426  1.0127
  487SOL     OW 1459   1.115   2.465   0.963 -0.0358 -0.7955  0.1624
  487SOL    HW1 1460   1.076   2.389   0.905  0.2119  1.3083  1.6678
  487SOL    HW2 1461   1.064   2.550   0.946  0.3734 -0.1490 -1.0852
  488SOL     OW 1462   2.257   1.071   0.129 -0.4120 -0.3514  0.9823
  488SOL    HW1 1463   2.249   1.173   0.135 -0.8654  1.8508  0.1373
  488SOL    HW2 1464   2.190   1.039   0.057 -0.4344  3.0011  2.9024
  489SOL     OW 1465   1.464   2.845   1.202 -0.2834 -0.8351  0.2658
  489SOL    HW1 1466   1.393   2.804   1.260  2.0016  0.8343 -2.1911
  489SOL    HW2 1467   1.502   2.928   1.248  0.3639 -0.3888  1.7011
  490SOL     OW 1468   0.803   0.929   0.241  0.5235  0.9568 -0.3999
  490SOL    HW1 1469   0.745   0.896   0.165  1.2076 -0.7271  1.1219
  490SOL    HW2 1470   0.776   0.875   0.322 -1.5857  0.2989 -2.2950
  491SOL     OW 1471   0.865   3.054   0.940 -0.6970  0.0874 -0.3224
  491SOL    HW1 1472   0.944   3.083   0.997 -1.2445  0.9306  1.2383
  491SOL    HW2 1473   0.802   2.994   0.993  0.9071  1.1665  2.7395
  492SOL     OW 1474   1.366   1.380   2.271 -0.0127  0.5852 -0.4243
  492SOL    HW1 1475   1.440   1.440   2.318  3.5762  2.2240 -0.2022
  492SOL    HW2 1476   1.404   1.338   2.180 -1.0463 -2.0787 -2.4094
  493SOL     OW 1477   0.152   2.565   0.236 -0.0145 -0.0687 -0.2166
  493SOL    HW1 1478   0.114   2.473   0.259  1.2126  0.1196 -1.2122
  493SOL    HW2 1479   0.253   2.563   0.221 -0.9004  2.6601  0.4676
  494SOL     OW 1480   2.110   1.799   0.307  0.0901 -0.3079  0.3059
  494SOL    HW1 1481   2.185   1.739   0.346  1.9296 -1.9422  1.7462
  494SOL    HW2 1482   2.095   1.783   0.206  0.9570 -1.3366  0.7522
  495SOL     OW 1483   2.951   1.101   3.011 -0.5349 -0.4230  0.0919
  495SOL    HW1 1484   3.047   1.088   2.970  1.3991 -0.3985 -0.5257
  495SOL    HW2 1485   2.910   1.013   3.041 -1.9606  0.4560  0.1819
  496SOL     OW 1486   2.540   2.943   1.963  0.2493 -0.0746 -0.5336
  496SOL    HW1 1487   2.506   2.855   2.010 -0.5335 -1.1795  0.8742
  496SOL    HW2 1488   2.476   2.958   1.887 -0.2525 -1.1113 -0.5522
  497SOL     OW 1489   2.617   0.958   0.816 -0.2223 -0.1020  0.1724
  497SOL    HW1 1490   2.590   0.860   0.805  1.5487 -1.3255  0.6603
  497SOL    HW2 1491   2.643   0.989   0.717 -1.5124  0.1763 -2.4164
  498SOL     OW 1492   0.156   2.089   2.744 -0.3570 -0.2636  0.2310
  498SOL    HW1 1493   0.076   2.076   2.804  1.5155 -0.3839  0.5262
  498SOL    HW2 1494   0.149   2.172   2.685 -0.5380  0.2767  1.1666
  499SOL     OW 1495   0.788   2.133   0.514 -0.1919 -0.2191 -0.0668
  499SOL    HW1 1496   0.839   2.215   0.483  2.0130  1.1350  0.3879
  499SOL    HW2 1497   0.846   2.066   0.562  0.1926  1.8485  0.0050
  500SOL     OW 1498   0.802   0.130   2.552 -0.7997 -0.0340  0.5072
  500SOL    HW1 1499   0.745   0.137   2.635  0.0131  1.1995  1.6916
  500SOL    HW2 1500   0.735   0.147   2.474 -1.1423 -0.5912 -1.1471
  501SOL     OW 1501   1.163   0.024   1.648 -0.1022  0.5658 -0.3138
  501SOL    HW1 1502   1.110   0.004   1.731 -1.5390  0.1401 -3.0929
  501SOL    HW2 1503   1.166   0.126   1.639  0.1636  1.4787 -1.2855
  502SOL     OW 1504   3.047   0.389   2.081 -0.6901  0.2209  0.5046
  502SOL    HW1 1505   3.107   0.372   1.999  1.1719  2.5371 -1.4010
  502SOL    HW2 1506   3.076   0.471   2.130 -1.6905  3.1943 -0.5256
  503SOL     OW 1507   2.476   1.779   2.374  0.0491  0.1787  0.5477
  503SOL    HW1 1508   2.393   1.831   2.341 -1.0063 -1.6118 -0.6541
  503SOL    HW2 1509   2.466   1.768   2.472 -2.4987  1.6719  1.6487
  504SOL     OW 1510   1.730   0.757   1.792  0.2046 -0.5071  0.4020
  504SOL    HW1 1511   1.662   0.716   1.728  1.4836  0.2312  1.0398
  504SOL    HW2 1512   1.774   0.834   1.741 -0.5839 -0.8930  0.2925
  505SOL     OW 1513   2.938   0.907   1.709  0.3734  0.5154  0.3332
  505SOL    HW1 1514   3.037   0.919   1.676  0.4833 -1.1940 -1.3214
  505SOL    HW2 1515   2.877   0.875   1.637 -1.1193 -0.0412  1.6026
  506SOL     OW 1516   0.487   1.355   2.392  0.4349  0.5814  0.1129
  506SOL    HW1 1517   0.399   1.320   2.348 -0.5842 -0.9323 -0.9909
  506SOL    HW2 1518   0.513   1.447   2.366 -0.3014 -2.6283  0.6473
  507SOL     OW 1519   0.282   2.947   2.383 -0.1714  0.5389  0.8151
  507SOL    HW1 1520   0.311   3.028   2.325  0.6064  3.8663 -0.3615
  507SOL    HW2 1521   0.237   2.875   2.327 -0.9296  0.5873  1.7914
  508SOL     OW 1522   1.224   0.805   1.396 -0.4441 -0.6110  0.0704
  508SOL    HW1 1523   1.304   0.769   1.449  1.7581 -1.6597  1.9249
  508SOL    HW2 1524   1.189   0.728   1.333  2.0366  1.2478  0.5917
  509SOL     OW 1525   0.746   1.565   1.279  0.5186 -0.0183 -0.4521
  509SOL    HW1 1526   0.663   1.582   1.340  0.2224 -0.1997  0.0425
  509SOL    HW2 1527   0.765   1.638   1.211  0.6703 -2.2249  1.1765
  510SOL     OW 1528   2.655   0.960   2.745  0.6454  0.1090 -0.1476
  510SOL    HW1 1529   2.695   0.872   2.710  0.5281  0.0879  0.6063
  510SOL    HW2 1530   2.704   1.046   2.723  1.5336  0.7047 -1.0130
  511SOL     OW 1531   0.363   1.641   1.087  0.0719 -0.0190  0.1387
  511SOL    HW1 1532   0.271   1.600   1.112 -0.9610 -0.4547  0.5440
  511SOL    HW2 1533   0.415   1.664   1.170 -1.0000 -1.2201 -0.2861
  512SOL     OW 1534   2.674   2.392   0.981 -0.2957 -0.0813  0.5631
  512SOL    HW1 1535   2.657   2.436   0.891  0.8033  1.1447 -1.3204
  512SOL    HW2 1536   2.591   2.395   1.042 -1.9312  1.2071  1.2786
  513SOL     OW 1537   3.089   1.540   3.102  0.1154  0.2617 -0.7449
  513SOL    HW1 1538   3.086   1.452   0.034  2.2252 -0.1280  1.4820
  513SOL    HW2 1539   0.070   1.553   3.074 -0.5934 -0.0039 -2.0663
  514SOL     OW 1540   0.230   2.415   2.954  0.1311 -0.4043 -0.9463
  514SOL    HW1 1541   0.265   2.326   2.935 -1.4806  2.5552 -0.9239
  514SOL    HW2 1542   0.307   2.471   2.992  1.3870 -1.3192  0.7568
  515SOL     OW 1543   1.874   1.187   2.244  0.4350  1.1393 -0.6774
  515SOL    HW1 1544   1.915   1.248   2.177 -0.9247 -2.2531  0.5308
  515SOL    HW2 1545   1.912   1.186   2.343 -0.0164 -2.1662  2.1533
  516SOL     OW 1546   2.253   2.001   0.128 -0.0741 -0.2413 -0.2790
  516SOL    HW1 1547   2.281   1.905   0.137  1.1865 -2.2287  1.6455
  516SOL    HW2 1548   2.335   2.060   0.113  1.5552 -1.1589 -0.0811
  517SOL     OW 1549   1.482   1.110   0.409 -0.0358 -0.5429  0.0625
  517SOL    HW1 1550   1.498   1.091   0.509 -0.1910  2.5954  0.2678
  517SOL    HW2 1551   1.382   1.107   0.388  2.2967  1.2618 -3.7961
  518SOL     OW 1552   2.313   2.714   1.866  0.1921  0.1175  0.2288
  518SOL    HW1 1553   2.247   2.646   1.899 -0.9096  1.7949 -0.9463
  518SOL    HW2 1554   2.278   2.806   1.849  0.9650 -0.5827 -1.2627
  519SOL     OW 1555   1.764   2.297   1.518  0.1629  0.1312  0.2541
  519SOL    HW1 1556   1.802   2.237   1.448 -1.7815  3.5677  2.4603
  519SOL    HW2 1557   1.685   2.353   1.478 -3.7024 -0.1067  0.3808
  520SOL     OW 1558   2.604   2.524   2.690  0.4915  0.0768 -0.0589
  520SOL    HW1 1559   2.600   2.619   2.726 -0.9822  1.0589  0.2052
  520SOL    HW2 1560   2.510   2.497   2.651 -3.7003 -1.0991 -1.5776
  521SOL     OW 1561   0.227   1.414   2.025 -0.4066  1.3195 -0.2494
  521SOL    HW1 1562   0.235   1.353   2.109  1.2755  0.2268  0.4933
  521SOL    HW2 1563   0.320   1.458   2.016  1.0322 -2.3466 -0.2226
  522SOL     OW 1564   0.993   0.171   1.930  0.8323  0.3635 -0.0844
  522SOL    HW1 1565   1.035   0.155   2.021 -1.5891 -0.7344 -0.3499
  522SOL    HW2 1566   0.990   0.271   1.916  0.6409 -2.0244  1.2610
  523SOL     OW 1567   0.558   2.405   0.895 -0.1915  0.6461 -0.3386
  523SOL    HW1 1568   0.590   2.340   0.827 -1.6893 -2.1768  2.2644
  523SOL    HW2 1569   0.461   2.422   0.876 -0.0843  1.0030  0.1244
  524SOL     OW 1570   1.470   2.655   0.588  0.1641  0.0827 -0.1285
  524SOL    HW1 1571   1.547   2.709   0.550 -1.3622 -3.7073 -1.7880
  524SOL    HW2 1572   1.505   2.571   0.637 -0.8912 -0.5725  3.1615
  525SOL     OW 1573   2.197   0.854   1.157 -0.1206  0.3368 -0.3128
  525SOL    HW1 1574   2.293   0.826   1.167  0.7811  0.5921  0.7744
  525SOL    HW2 1575   2.186   0.951   1.192  1.0466  0.6017 -1.0832
  526SOL     OW 1576   0.980   2.667   0.867 -0.2662 -0.7599 -0.5430
  526SOL    HW1 1577   0.908   2.695   0.801 -1.5542 -0.0348  0.8056
  526SOL    HW2 1578   1.071   2.712   0.843  1.2973  0.3545  2.8012
  527SOL     OW 1579   2.427   2.143   0.517  0.0803  0.2689 -0.0797
  527SOL    HW1 1580   2.410   2.238   0.538  0.2251 -0.5679  0.4682
  527SOL    HW2 1581   2.343   2.091   0.482 -1.0710 -0.1427  0.8603
  528SOL     OW 1582   2.162   0.627   0.393  0.6244  0.5269  0.3076
  528SOL    HW1 1583   2.134   0.721   0.360  1.0952 -1.5470 -0.6547
  528SOL    HW2 1584   2.089   0.571   0.446 -1.5474 -1.6162  0.3604
  529SOL     OW 1585   1.228   1.373   2.527 -0.7649  0.1018  0.5913
  529SOL    HW1 1586   1.280   1.360   2.613  1.8298 -1.9111  0.7835
  529SOL    HW2 1587   1.290   1.381   2.443 -0.0499  0.3507 -2.5721
  530SOL     OW 1588   2.582   0.647   0.172 -0.8487  0.0358 -0.1270
  530SOL    HW1 1589   2.653   0.657   0.095  1.7434 -2.2702 -2.6117
  530SOL    HW2 1590   2.625   0.679   0.261  1.6764  2.3158  1.5437
  531SOL     OW 1591   1.023   1.018   0.101  0.6628  0.0002 -0.0966
  531SOL    HW1 1592   0.940   0.985   0.151 -0.3034  0.1350  0.1624
  531SOL    HW2 1593   0.997   1.064   0.009 -0.2118 -2.3680 -1.3729
  532SOL     OW 1594   1.904   0.546   0.701 -0.3177 -0.1786  0.4879
  532SOL    HW1 1595   1.980   0.592   0.748  0.4310 -0.0138  0.2744
  532SOL    HW2 1596   1.854   0.479   0.759  2.2869  1.1997  3.7515
  533SOL     OW 1597   1.350   1.023   2.199  0.2868 -0.9370 -0.3266
  533SOL    HW1 1598   1.252   1.053   2.210  2.1761  0.3546 -3.5000
  533SOL    HW2 1599   1.409   1.098   2.148  4.9153  1.8928 -0.8932
  534SOL     OW 1600   2.106   0.266   2.598  0.3459  0.9175  0.8667
  534SOL    HW1 1601   2.157   0.349   2.559  1.4558  2.4912 -0.4235
  534SOL    HW2 1602   2.151   0.227   2.679 -0.2932 -1.6550  2.4447
  535SOL     OW 1603   0.336   0.127   0.314  0.0314  0.2659  0.0174
  535SOL    HW1 1604   0.284   0.154   0.234  2.3288  3.0055  2.0503
  535SOL    HW2 1605   0.426   0.085   0.299 -1.3610 -1.3005  2.5556
  536SOL     OW 1606   0.719   2.889   1.068  0.4873  0.0747 -0.1815
  536SOL    HW1 1607   0.648   2.843   1.010  1.4122 -1.1910  0.8212
  536SOL    HW2 1608   0.789   2.820   1.096  1.4067 -2.3670 -0.3354
  537SOL     OW 1609   1.529   1.014   1.095  0.3307 -0.2397 -0.5254
  537SOL    HW1 1610   1.556   0.934   1.032 -1.9277 -0.5441 -0.3497
  537SOL    HW2 1611   1.604   1.039   1.156  0.4352  0.6710 -0.0824
  538SOL     OW 1612   2.843   2.167   0.309  0.1101  0.2895  0.6587
  538SOL    HW1 1613   2.941   2.138   0.283  0.2488  0.9474 -1.0982
  538SOL    HW2 1614   2.844   2.264   0.343 -0.5449  1.6144 -1.7652
  539SOL     OW 1615   2.639   1.870   0.134  0.1173  0.6571 -0.0831
  539SOL    HW1 1616   2.564   1.810   0.097 -3.1016 -1.1239  1.0899
  539SOL    HW2 1617   2.610   1.941   0.198 -1.5831 -0.1365 -2.1343
  540SOL     OW 1618   0.227   2.865   1.595  0.3240 -0.3441 -0.2738
  540SOL    HW1 1619   0.132   2.834   1.567 -2.9627  1.5911 -1.5088
  540SOL    HW2 1620   0.233   2.962   1.581  1.2289 -2.6033 -2.6003
  541SOL     OW 1621   2.349   0.070   1.871  0.1432  0.0526  0.1822
  541SOL    HW1 1622   2.395   0.117   1.946  1.1371  0.3993 -1.0186
  541SOL    HW2 1623   2.264   0.120   1.843 -1.9651 -0.6455  0.0764
  542SOL     OW 1624   2.759   0.353   2.362  0.1576  0.6413  0.2461
  542SOL    HW1 1625   2.800   0.313   2.450  1.8946 -1.8294  1.4009
  542SOL    HW2 1626   2.807   0.313   2.280  1.9844  1.8721 -1.4031
  543SOL     OW 1627   0.944   0.431   0.669  0.1466 -0.3424 -0.2108
  543SOL    HW1 1628   1.034   0.445   0.629 -0.2605 -1.1627 -0.3853
  543SOL    HW2 1629   0.878   0.388   0.607 -1.6987  0.1210 -2.1407
  544SOL     OW 1630   2.909   2.626   0.921 -0.2446  0.2307  0.2903
  544SOL    HW1 1631   2.860   2.616   0.831 -1.1148 -2.6000  0.1991
  544SOL    HW2 1632   2.990   2.565   0.929  0.5167 -1.9651 -0.1011
  545SOL     OW 1633   1.001   2.014   0.728 -0.6097  0.9945  0.0072
  545SOL    HW1 1634   0.972   1.933   0.671  0.0170 -0.0530 -3.1988
  545SOL    HW2 1635   1.051   1.981   0.815  2.4134 -0.4598 -0.5148
  546SOL     OW 1636   2.121   0.174   1.788  0.5666  0.3203 -0.3017
  546SOL    HW1 1637   2.030   0.140   1.827  0.4392  3.1015  1.4247
  546SOL    HW2 1638   2.111   0.190   1.690  1.0580  0.7818 -0.4523
  547SOL     OW 1639   0.241   0.310   2.246 -0.7343  0.2795  0.2186
  547SOL    HW1 1640   0.283   0.398   2.273  0.6618 -2.0831 -1.5312
  547SOL    HW2 1641   0.156   0.284   2.299 -3.8045  2.0732 -1.3635
  548SOL     OW 1642   2.198   1.847   2.700 -0.4910  0.4055 -0.2965
  548SOL    HW1 1643   2.135   1.789   2.749  2.1064  0.6700  0.9071
  548SOL    HW2 1644   2.159   1.884   2.612  0.3347  0.0022 -0.7120
  549SOL     OW 1645   0.087   0.813   0.899  0.6551  0.2070 -0.0106
  549SOL    HW1 1646   0.104   0.830   0.800  3.4741 -0.9642  0.3926
  549SOL    HW2 1647   3.104   0.808   0.926 -1.0349 -1.1760  0.6362
  550SOL     OW 1648   1.533   1.600   0.681  0.0969  0.0392 -0.2307
  550SOL    HW1 1649   1.494   1.598   0.588 -0.1759 -1.3053  0.9372
  550SOL    HW2 1650   1.599   1.683   0.679 -2.0274  1.3670  0.6154
  551SOL     OW 1651   0.967   0.156   1.316 -0.3939 -0.7783 -0.0455
  551SOL    HW1 1652   0.904   0.148   1.394 -1.5027  1.1766 -0.9937
  551SOL    HW2 1653   0.910   0.199   1.241  1.3815 -2.7809 -0.9821
  552SOL     OW 1654   2.492   2.381   2.037 -0.5761  0.6173 -0.1620
  552SOL    HW1 1655   2.407   2.328   2.005  1.1616  0.4922  0.6890
  552SOL    HW2 1656   2.478   2.479   2.044  2.0902 -1.4037 -0.6225
  553SOL     OW 1657   2.979   0.011   2.702  0.3059  0.0669  0.0475
  553SOL    HW1 1658   2.996   3.031   2.693  0.2769  2.5853 -0.8315
  553SOL    HW2 1659   3.067   0.060   2.696 -2.9413  1.8194  0.8789
  554SOL     OW 1660   1.045   2.827   1.278  0.1028 -0.0530 -0.1242
  554SOL    HW1 1661   0.992   2.826   1.366  0.9745 -1.3765 -1.9517
  554SOL    HW2 1662   1.138   2.786   1.296  1.6860 -0.6181 -0.5351
  555SOL     OW 1663   2.284   2.553   1.524  0.3493  0.5707  0.5035
  555SOL    HW1 1664   2.229   2.556   1.610  0.0900 -1.0488 -1.1532
  555SOL    HW2 1665   2.374   2.594   1.533 -1.8715 -2.5730 -0.2359
  556SOL     OW 1666   1.021   0.241   2.878  0.0205 -1.0718  0.3856
  556SOL    HW1 1667   1.083   0.185   2.823 -1.5956 -1.0651 -3.0182
  556SOL    HW2 1668   1.021   0.226   2.979  0.4819 -0.1018  0.5101
  557SOL     OW 1669   0.250   1.722   2.427  0.0973 -0.4129 -0.9464
  557SOL    HW1 1670   0.285   1.788   2.353 -1.2420  1.0829 -4.2686
  557SOL    HW2 1671   0.240   1.774   2.512  0.4392 -1.2464  1.1070
  558SOL     OW 1672   2.411   1.113   2.606 -0.0346 -0.4762 -0.0403
  558SOL    HW1 1673   2.387   1.071   2.512  1.4506 -0.2308 -2.9905
  558SOL    HW2 1674   2.475   1.058   2.654 -2.0539  3.7385 -2.5672
  559SOL     OW 1675   2.443   2.054   1.853 -0.0927 -0.1511 -0.0158
  559SOL    HW1 1676   2.517   2.073   1.920 -2.2921  1.2714  0.2269
  559SOL    HW2 1677   2.376   2.124   1.869  2.7542 -2.4820  0.2327
  560SOL     OW 1678   3.015   0.669   2.415  0.0065  0.0747  0.5073
  560SOL    HW1 1679   2.914   0.663   2.414 -0.3579 -0.9089  0.4133
  560SOL    HW2 1680   3.050   0.681   2.317 -0.8355  2.3276 -3.3193
  561SOL     OW 1681   0.524   0.315   0.431  0.5370  0.5236 -0.3545
  561SOL    HW1 1682   0.528   0.291   0.529  3.3209 -1.9202 -1.0752
  561SOL    HW2 1683   0.428   0.299   0.398  0.5189 -0.5717  1.4687
  562SOL     OW 1684   0.977   1.563   1.673  0.1370  0.2481  0.2297
  562SOL    HW1 1685   0.884   1.534   1.708  1.6015  1.1118  2.0333
  562SOL    HW2 1686   1.031   1.590   1.752  1.2985 -0.5672 -0.5425
  563SOL     OW 1687   1.412   2.893   0.028 -0.9446  0.1433 -0.0307
  563SOL    HW1 1688   1.397   2.886   0.132  1.3738  2.8332  1.0909
  563SOL    HW2 1689   1.329   2.890   3.080  1.3644 -1.4643 -0.9616
  564SOL     OW 1690   0.093   1.907   0.629  0.4144 -0.1410 -0.0857
  564SOL    HW1 1691   0.127   1.869   0.714 -1.0418  2.3731 -1.9897
  564SOL    HW2 1692   0.165   1.939   0.567 -2.6629 -0.0970  0.7557
  565SOL     OW 1693   0.581   2.315   2.298 -0.3067  0.3353  0.4729
  565SOL    HW1 1694   0.527   2.306   2.210  1.2299  0.1532 -2.5481
  565SOL    HW2 1695   0.687   2.332   2.281  3.0246  0.7946  0.5074
  566SOL     OW 1696   1.280   2.597   2.212 -0.3230 -0.3336  0.3413
  566SOL    HW1 1697   1.360   2.531   2.218  0.8992 -0.3059 -0.0420
  566SOL    HW2 1698   1.291   2.660   2.135 -0.6740 -2.5545 -2.1433
  567SOL     OW 1699   2.177   2.262   0.782 -0.3505 -0.1878 -0.2527
  567SOL    HW1 1700   2.079   2.224   0.770 -0.0491  2.0682  0.1864
  567SOL    HW2 1701   2.230   2.189   0.830 -0.0844 -1.0997  0.0150
  568SOL     OW 1702   2.088   0.880   0.296 -0.2562 -0.5837 -0.2751
  568SOL    HW1 1703   2.098   0.935   0.211 -0.5424 -0.5621  0.3773
  568SOL    HW2 1704   2.010   0.921   0.343 -0.1674 -0.7350 -0.2393
  569SOL     OW 1705   0.131   1.453   2.658  0.1097 -0.5887 -1.0228
  569SOL    HW1 1706   0.096   1.488   2.572  1.2203 -2.4696  0.1308
  569SOL    HW2 1707   0.126   1.355   2.663 -0.2172  4.7311 -1.5963
  570SOL     OW 1708   2.978   3.054   1.347 -0.4322  0.8885 -0.1190
  570SOL    HW1 1709   2.975   3.052   1.450 -1.5638 -0.1061 -0.8852
  570SOL    HW2 1710   2.993   2.962   1.317 -1.9154  3.3626  3.1038
  571SOL     OW 1711   0.104   0.556   1.716 -0.3253  0.0231 -0.0862
  571SOL    HW1 1712   0.147   0.488   1.649  2.2648 -2.5328  0.2057
  571SOL    HW2 1713   0.005   0.567   1.691  0.6477 -0.6952 -0.4959
  572SOL     OW 1714   3.117   2.468   0.999  0.3684 -0.1144 -0.0644
  572SOL    HW1 1715   0.087   2.513   1.025 -0.1533  0.9242 -2.3006
  572SOL    HW2 1716   3.088   2.401   1.072 -2.3301 -0.6081  0.8933
  573SOL     OW 1717   0.894   0.774   3.061 -0.5763  0.2488 -0.2960
  573SOL    HW1 1718   0.800   0.801   3.050  3.1369  0.2628 -0.8810
  573SOL    HW2 1719   0.936   0.775   2.967 -1.1361 -2.6480  0.0938
  574SOL     OW 1720   2.892   2.559   2.956  0.4162 -0.0160  0.1685
  574SOL    HW1 1721   2.860   2.656   2.967 -1.3230  3.0783 -1.1401
  574SOL    HW2 1722   2.984   2.542   2.996 -4.7229 -0.1931  0.2045
  575SOL     OW 1723   1.134   1.853   1.305  0.0382 -0.0249  0.4072
  575SOL    HW1 1724   1.091   1.797   1.229  0.5000 -0.6206 -2.6170
  575SOL    HW2 1725   1.094   1.947   1.309  3.9075  0.8917  0.9983
  576SOL     OW 1726   0.109   0.019   1.317 -0.1893  0.1876 -0.6480
  576SOL    HW1 1727   0.153   0.007   1.410 -0.0728 -1.0038 -0.4979
  576SOL    HW2 1728   0.006   0.001   1.319 -1.8248 -0.2504  1.0806
  577SOL     OW 1729   2.128   1.518   1.069 -0.3656 -0.7441 -0.2139
  577SOL    HW1 1730   2.084   1.435   1.043 -0.0490  2.4900  2.3949
  577SOL    HW2 1731   2.224   1.526   1.031 -2.0071 -1.5953 -1.3642
  578SOL     OW 1732   1.527   0.060   0.141  0.5934  0.3774  0.2316
  578SOL    HW1 1733   1.496   0.019   0.054 -0.4213 -1.3197  1.9365
  578SOL    HW2 1734   1.620   0.026   0.167  2.0781 -0.1375  0.6241
  579SOL     OW 1735   2.984   1.478   2.409  0.0084 -0.4777 -0.3587
  579SOL    HW1 1736   2.936   1.539   2.475 -2.3397  0.6242  1.8560
  579SOL    HW2 1737   2.925   1.471   2.326  1.7786 -1.2371 -1.9734
  580SOL     OW 1738   1.435   0.772   1.564 -0.4307  0.3220  0.4978
  580SOL    HW1 1739   1.406   0.831   1.642 -2.7279 -0.9156  0.3448
  580SOL    HW2 1740   1.442   0.671   1.592  1.9806 -4.1465 -0.3075
  581SOL     OW 1741   0.903   1.382   1.467  0.1556  0.3562 -0.1544
  581SOL    HW1 1742   0.910   1.434   1.382  0.1081 -1.0750  1.7102
  581SOL    HW2 1743   0.929   1.444   1.540  3.0571  1.0181 -0.3404
  582SOL     OW 1744   3.020   3.067   1.980 -0.0277  0.0335  0.6885
  582SOL    HW1 1745   2.970   0.030   2.022 -0.5914  0.6298  0.1057
  582SOL    HW2 1746   2.957   3.019   1.914 -0.9333  0.0487  0.6676
  583SOL     OW 1747   2.133   0.781   1.552  0.1195 -0.0984 -0.2899
  583SOL    HW1 1748   2.121   0.689   1.594 -0.6668 -2.1445 -0.1984
  583SOL    HW2 1749   2.181   0.844   1.616 -1.6949 -0.5957  1.1769
  584SOL     OW 1750   1.512   2.024   2.963 -0.4438  0.6243 -0.3158
  584SOL    HW1 1751   1.504   1.942   2.900  0.5452  3.4270 -2.7767
  584SOL    HW2 1752   1.466   2.104   2.921 -1.0986  1.1763 -2.8935
  585SOL     OW 1753   0.376   2.920   0.296  0.0145 -0.0903 -0.2307
  585SOL    HW1 1754   0.321   2.902   0.382  2.3945  0.5607  2.8540
  585SOL    HW2 1755   0.351   2.848   0.224 -0.1444 -0.9233 -0.7513
  586SOL     OW 1756   1.723   2.256   2.520 -0.9367  0.2294  0.1821
  586SOL    HW1 1757   1.695   2.190   2.594 -0.5491  0.3262  1.8216
  586SOL    HW2 1758   1.718   2.208   2.426 -0.1929 -0.8599 -0.2527
  587SOL     OW 1759   2.766   1.910   0.552 -0.1713 -0.3612  0.2730
  587SOL    HW1 1760   2.691   1.948   0.490 -3.2371  0.9449 -1.6326
  587SOL    HW2 1761   2.745   1.953   0.645 -1.8001  1.0799 -0.4638
  588SOL     OW 1762   2.324   0.246   1.140  0.3515 -0.5759 -0.4273
  588SOL    HW1 1763   2.415   0.250   1.185  0.9552  1.2904 -0.0690
  588SOL    HW2 1764   2.283   0.343   1.136 -1.2744  1.6268 -0.8739
  589SOL     OW 1765   0.970   0.613   0.385  0.0952 -0.1332 -0.5801
  589SOL    HW1 1766   1.034   0.567   0.454  1.2942 -1.8721  5.6712
  589SOL    HW2 1767   0.987   0.573   0.290 -3.6632 -1.0295 -1.2477
  590SOL     OW 1768   2.322   1.576   0.310 -0.1608 -0.4640  0.5461
  590SOL    HW1 1769   2.369   1.630   0.237 -0.9282 -2.1874 -0.7626
  590SOL    HW2 1770   2.387   1.564   0.388  0.3188  3.7445 -2.0208
  591SOL     OW 1771   3.021   2.558   1.407  0.4464 -0.0882 -0.4034
  591SOL    HW1 1772   2.990   2.551   1.311  1.5120  2.5870  0.4558
  591SOL    HW2 1773   3.094   2.493   1.416 -0.8863  0.1302 -3.1106
  592SOL     OW 1774   0.708   0.947   1.353 -0.1907  0.2622  0.1768
  592SOL    HW1 1775   0.694   1.045   1.378  2.3524  0.2505 -1.7770
  592SOL    HW2 1776   0.808   0.921   1.358  0.2958  2.0539  0.0648
  593SOL     OW 1777   0.791   1.329   1.088 -0.7256  0.1921 -0.0159
  593SOL    HW1 1778   0.891   1.342   1.066 -0.1328 -0.6320  2.1957
  593SOL    HW2 1779   0.755   1.417   1.122  0.0416  0.3620  1.8478
  594SOL     OW 1780   0.797   1.966   0.091  0.1039  0.1809 -0.4409
  594SOL    HW1 1781   0.695   1.967   0.110 -3.4439 -0.7370 -0.9738
  594SOL    HW2 1782   0.859   1.902   0.148  0.6597 -0.0261  1.9346
  595SOL     OW 1783   1.453   0.229   1.244 -0.1870 -0.3058  0.0402
  595SOL    HW1 1784   1.364   0.265   1.284 -0.9227  3.6352  2.3625
  595SOL    HW2 1785   1.464   0.245   1.143  0.1361 -0.1614 -2.8289
  596SOL     OW 1786   2.958   1.589   0.987  0.2110 -0.1931 -0.0285
  596SOL    HW1 1787   3.046   1.604   0.938  1.2433  0.9746 -2.3587
  596SOL    HW2 1788   2.918   1.495   0.968 -4.3584  1.1077 -0.1668
  597SOL     OW 1789   0.211   2.537   2.694  0.0616  0.0196  0.3437
  597SOL    HW1 1790   0.140   2.610   2.678 -1.8101 -0.8356  0.3319
  597SOL    HW2 1791   0.213   2.505   2.788 -0.5309 -0.0511 -2.6918
  598SOL     OW 1792   2.649   2.129   2.298  0.1449 -0.6506 -0.1438
  598SOL    HW1 1793   2.737   2.083   2.281 -0.2549 -1.9075  1.4895
  598SOL    HW2 1794   2.656   2.180   2.389 -2.5584 -0.7066  1.8085
  599SOL     OW 1795   0.867   0.356   0.130  0.4365  0.1014  0.0099
  599SOL    HW1 1796   0.772   0.365   0.090  1.4286  2.0320 -1.3661
  599SOL    HW2 1797   0.909   0.448   0.131 -0.0720  0.5903 -1.0900
  600SOL     OW 1798   0.714   2.599   0.491 -0.4882 -0.1552 -0.0093
  600SOL    HW1 1799   0.715   2.655   0.405  0.4849 -0.8502  0.0030
  600SOL    HW2 1800   0.625   2.551   0.503  0.4044  0.2451 -0.3486
  601SOL     OW 1801   0.529   0.766   1.454 -0.2603  0.5140  0.3739
  601SOL    HW1 1802   0.600   0.833   1.413  0.5660 -0.1571 -2.2778
  601SOL    HW2 1803   0.471   0.735   1.377  2.1755 -0.2185 -1.3386
  602SOL     OW 1804   0.551   2.708   0.946 -0.3657  0.3117  0.1679
  602SOL    HW1 1805   0.555   2.611   0.926 -0.2157  1.3880  0.7758
  602SOL    HW2 1806   0.490   2.727   1.029 -0.8116  1.4968 -1.0840
  603SOL     OW 1807   1.050   3.015   2.183 -0.1991  0.5515  0.0665
  603SOL    HW1 1808   1.100   2.976   2.102 -1.3941  1.1183  2.1343
  603SOL    HW2 1809   0.956   3.040   2.160 -1.1802 -1.3843 -0.9239
  604SOL     OW 1810   0.790   2.689   2.030 -0.3165 -0.0606  0.2174
  604SOL    HW1 1811   0.785   2.590   2.004  1.1337 -2.4700 -0.2303
  604SOL    HW2 1812   0.709   2.715   2.082 -0.1659 -1.5282 -0.5416
  605SOL     OW 1813   1.911   0.731   2.228  0.1944 -0.2369 -0.0778
  605SOL    HW1 1814   1.999   0.766   2.185  0.4939 -1.0421 -0.6296
  605SOL    HW2 1815   1.891   0.786   2.311  0.9839  0.9578 -2.9217
  606SOL     OW 1816   2.465   3.037   2.757  0.4323 -0.4871  0.4279
  606SOL    HW1 1817   2.461   3.072   2.854  0.4156 -1.0851  1.3942
  606SOL    HW2 1818   2.485   3.109   2.693 -1.4615  2.5760  0.8709
  607SOL     OW 1819   0.901   0.584   1.401  0.0511  0.5404 -0.1645
  607SOL    HW1 1820   0.842   0.574   1.316  2.5829 -0.5728 -3.0355
  607SOL    HW2 1821   0.846   0.611   1.483  1.1379  1.5092 -0.5345
  608SOL     OW 1822   0.218   1.831   2.667  0.1060  0.2748  0.1366
  608SOL    HW1 1823   0.195   1.926   2.708  0.1656  0.6668  0.4931
  608SOL    HW2 1824   0.298   1.798   2.718 -0.9866  1.5439  0.5027
  609SOL     OW 1825   1.559   0.951   0.152 -0.1236 -0.2409  0.0229
  609SOL    HW1 1826   1.582   0.872   0.212 -0.7463 -1.1457  0.3710
  609SOL    HW2 1827   1.532   1.030   0.207 -1.0922  0.7423  0.8504
  610SOL     OW 1828   0.620   0.382   1.456  0.3262  0.1043 -0.2454
  610SOL    HW1 1829   0.696   0.377   1.524  0.1365 -2.8919  2.1291
  610SOL    HW2 1830   0.650   0.425   1.366 -0.0625 -0.8868  2.9394
  611SOL     OW 1831   1.589   0.475   0.655 -0.3803  0.2019 -0.6781
  611SOL    HW1 1832   1.602   0.415   0.739  1.6681  0.9368 -0.0766
  611SOL    HW2 1833   1.595   0.423   0.570 -1.8493  2.4044  0.2926
  612SOL     OW 1834   1.692   0.800   3.073 -0.1776  0.0278 -0.3818
  612SOL    HW1 1835   1.660   0.877   0.011  0.8427 -2.8446  3.0879
  612SOL    HW2 1836   1.777   0.765   3.110 -2.2096  1.8280 -0.8478
  613SOL     OW 1837   2.420   0.596   0.534  0.2408  0.0636  0.1321
  613SOL    HW1 1838   2.341   0.627   0.483  1.6154 -0.2146  1.0089
  613SOL    HW2 1839   2.417   0.493   0.546 -2.8589 -1.0830  0.1698
  614SOL     OW 1840   2.648   0.104   2.040 -0.1208  0.0002 -0.5907
  614SOL    HW1 1841   2.644   0.005   2.004  1.5318  0.0270  1.7091
  614SOL    HW2 1842   2.745   0.134   2.051  2.1510 -0.8849  1.8825
  615SOL     OW 1843   0.725   2.026   1.170  0.0587 -0.3443  0.0013
  615SOL    HW1 1844   0.716   2.022   1.275 -1.1595  0.2687 -0.5535
  615SOL    HW2 1845   0.635   2.002   1.124 -1.4173 -1.7167  0.6399
  616SOL     OW 1846   1.744   1.651   2.655 -0.2888  0.3286 -0.3918
  616SOL    HW1 1847   1.741   1.608   2.565  2.1539  2.3199 -1.3351
  616SOL    HW2 1848   1.684   1.601   2.720 -3.4116  1.0204  1.7344
  617SOL     OW 1849   1.668   3.077   2.906  0.0190 -0.7604  0.3361
  617SOL    HW1 1850   1.677   3.009   2.986 -0.5534 -1.5666 -0.1853
  617SOL    HW2 1851   1.573   3.095   2.884  0.6408  2.0750 -0.8425
  618SOL     OW 1852   1.365   2.221   2.871 -0.4475  0.4515 -0.0321
  618SOL    HW1 1853   1.305   2.211   2.789 -0.5433  0.4799  1.4927
  618SOL    HW2 1854   1.430   2.302   2.856  1.8075  2.8163 -3.3124
  619SOL     OW 1855   2.505   1.545   0.547  0.3900 -0.3435  0.2319
  619SOL    HW1 1856   2.592   1.597   0.534  1.2461 -0.5286  0.7296
  619SOL    HW2 1857   2.516   1.443   0.565  0.0156 -0.9655  0.9379
  620SOL     OW 1858   2.158   2.842   2.298 -0.1391  0.4276  0.0779
  620SOL    HW1 1859   2.087   2.904   2.335 -1.8644 -1.7062 -2.0214
  620SOL    HW2 1860   2.254   2.870   2.316  1.4313  1.4741  0.9141
  621SOL     OW 1861   2.919   1.375   0.627  0.1262 -0.0891  0.5064
  621SOL    HW1 1862   2.886   1.395   0.721  3.3462 -0.1091  1.4198
  621SOL    HW2 1863   2.990   1.446   0.608  0.6535  2.2268 -0.7057
  622SOL     OW 1864   1.397   1.952   2.224  0.4335 -0.3103  0.0714
  622SOL    HW1 1865   1.321   1.889   2.252  1.4208 -2.5302 -1.8565
  622SOL    HW2 1866   1.492   1.907   2.235  4.7850 -1.0017  0.2636
  623SOL     OW 1867   0.792   2.675   2.405  0.6212  0.2354 -0.0535
  623SOL    HW1 1868   0.758   2.775   2.392 -2.1737  3.9184 -1.3900
  623SOL    HW2 1869   0.825   2.649   2.499  0.5684  0.2802  1.1195
  624SOL     OW 1870   0.874   2.674   2.913 -0.4953 -0.2707  0.3030
  624SOL    HW1 1871   0.954   2.613   2.937 -0.3699 -1.1843  0.8174
  624SOL    HW2 1872   0.913   2.764   2.888 -0.5756  1.1833  1.1425
  625SOL     OW 1873   0.217   2.081   2.335  0.4564 -0.0957  0.0356
  625SOL    HW1 1874   0.159   2.046   2.412  2.6776 -0.6606  0.0445
  625SOL    HW2 1875   0.163   2.142   2.271  1.8350 -1.7774  0.3034
  626SOL     OW 1876   0.024   0.123   2.994 -0.0842 -0.1877 -0.4473
  626SOL    HW1 1877   0.035   0.130   3.097  4.6550  0.9419 -1.1518
  626SOL    HW2 1878   3.116   0.216   2.958  0.1763  2.3431  1.1003
  627SOL     OW 1879   2.096   1.743   0.050 -0.0456  0.6356  0.0843
  627SOL    HW1 1880   2.170   1.760   3.102 -2.6788 -0.1704 -5.4884
  627SOL    HW2 1881   2.003   1.760   0.011  1.0423 -1.7276 -1.4567
  628SOL     OW 1882   1.487   1.630   3.014  0.2027 -0.3933  0.7856
  628SOL    HW1 1883   1.545   1.565   2.962  2.3054  0.3700 -0.1982
  628SOL    HW2 1884   1.548   1.660   3.091 -2.8386 -0.8222 -0.2556
  629SOL     OW 1885   0.088   0.318   1.880 -0.6711 -0.2163 -0.0843
  629SOL    HW1 1886   0.176   0.319   1.927 -1.8169 -0.0856 -0.4347
  629SOL    HW2 1887   0.091   0.393   1.812 -0.6901  1.8268  2.5329
  630SOL     OW 1888   2.312   0.954   1.765 -0.0594 -0.2309  0.3674
  630SOL    HW1 1889   2.257   1.040   1.757 -2.0557  1.6467 -0.2508
  630SOL    HW2 1890   2.326   0.936   1.865  1.0587  0.5208  1.5544
  631SOL     OW 1891   1.786   0.335   0.827  0.1685  0.5985 -0.4410
  631SOL    HW1 1892   1.842   0.353   0.916 -1.2861  0.6236  2.4921
  631SOL    HW2 1893   1.809   0.247   0.785  0.2988  2.2017  0.7282
  632SOL     OW 1894   2.778   0.715   1.880  0.1149  0.2914 -0.4987
  632SOL    HW1 1895   2.761   0.763   1.791  0.6495 -0.2929 -0.5679
  632SOL    HW2 1896   2.734   0.770   1.954 -0.2694  1.7846 -0.2262
  633SOL     OW 1897   0.643   0.495   2.806  0.5416  0.4965 -0.5216
  633SOL    HW1 1898   0.673   0.398   2.810 -0.8420  1.4317 -0.2596
  633SOL    HW2 1899   0.722   0.559   2.787  0.5466  0.9685 -0.1575
  634SOL     OW 1900   0.562   2.812   2.863  0.4064  0.0370  0.2293
  634SOL    HW1 1901   0.585   2.779   2.957 -1.4185 -0.7935  2.4581
  634SOL    HW2 1902   0.528   2.739   2.801  1.3197  1.2687  2.0737
  635SOL     OW 1903   0.158   1.192   1.174  0.6100  0.0269 -0.3589
  635SOL    HW1 1904   0.158   1.234   1.084  1.1376 -0.1547  1.5386
  635SOL    HW2 1905   0.185   1.094   1.169 -0.9128  0.0173  1.0012
  636SOL     OW 1906   2.978   1.284   0.135 -0.2036 -0.0617 -0.2944
  636SOL    HW1 1907   2.909   1.338   0.183 -0.0562 -0.6894  1.4885
  636SOL    HW2 1908   2.939   1.198   0.105 -0.5543  2.8361 -0.3053
  637SOL     OW 1909   0.286   2.768   0.077  0.2038  0.0886  0.0969
  637SOL    HW1 1910   0.332   2.679   0.053 -0.4190 -2.1312  0.4307
  637SOL    HW2 1911   0.191   2.750   0.104 -0.6072  1.1438 -0.6351
  638SOL     OW 1912   2.905   2.463   0.644  0.6793  0.1888  0.8671
  638SOL    HW1 1913   2.965   2.388   0.679  0.6163 -0.6177  0.3084
  638SOL    HW2 1914   2.806   2.440   0.651  0.4030  2.2792 -0.1159
  639SOL     OW 1915   1.233   1.100   0.287 -0.4175  0.1091  0.0150
  639SOL    HW1 1916   1.215   1.004   0.313  0.4831 -1.5494 -1.3514
  639SOL    HW2 1917   1.164   1.135   0.226  2.1963 -0.1068  0.6887
  640SOL     OW 1918   1.905   2.545   1.532 -0.3387  0.1996  0.1060
  640SOL    HW1 1919   1.850   2.461   1.510 -0.9801 -2.1465  0.0915
  640SOL    HW2 1920   1.992   2.534   1.485 -2.1644  0.7549  2.9583
  641SOL     OW 1921   0.076   0.147   0.803  0.2476 -0.2669  0.2401
  641SOL    HW1 1922   0.103   0.175   0.709  0.7670  0.1959 -0.8669
  641SOL    HW2 1923   3.094   0.162   0.828 -1.5688  2.0152 -0.2919
  642SOL     OW 1924   1.371   0.937   1.765  0.4405  0.5469 -0.5094
  642SOL    HW1 1925   1.439   0.942   1.844  2.0128  0.8691  1.2562
  642SOL    HW2 1926   1.357   1.028   1.725  2.4891  1.4960 -2.3876
  643SOL     OW 1927   0.876   2.397   2.533  0.2320  0.4430 -0.2333
  643SOL    HW1 1928   0.879   2.480   2.582  2.0790  0.2910  0.2498
  643SOL    HW2 1929   0.865   2.420   2.435  0.6357  0.4604 -0.1714
  644SOL     OW 1930   1.442   2.479   2.819 -0.1631  0.6863  0.0161
  644SOL    HW1 1931   1.432   2.535   2.904  0.0277  2.0910 -0.3481
  644SOL    HW2 1932   1.411   2.526   2.733 -0.4513  0.0658 -1.1930
  645SOL     OW 1933   1.600   1.199   1.833 -0.5330  0.0808 -0.8291
  645SOL    HW1 1934   1.683   1.163   1.880 -0.3451  0.8161 -0.4732
  645SOL    HW2 1935   1.612   1.211   1.730 -3.6882  0.7372 -1.3564
  646SOL     OW 1936   0.698   3.029   3.103  0.6777  0.1575 -0.4540
  646SOL    HW1 1937   0.607   2.980   3.103 -1.7049 -0.7087  0.0461
  646SOL    HW2 1938   0.680   3.117   3.056  1.7407 -1.0645  1.3919
  647SOL     OW 1939   0.906   2.983   0.686  0.2615  0.0541  0.1450
  647SOL    HW1 1940   0.850   2.898   0.701  0.3886  0.4602  2.5009
  647SOL    HW2 1941   0.882   3.045   0.765 -2.2669  1.3324  1.0677
  648SOL     OW 1942   2.681   2.718   1.073 -0.3211 -0.0979  0.4144
  648SOL    HW1 1943   2.763   2.691   1.017 -0.8188  0.2614  1.1716
  648SOL    HW2 1944   2.707   2.735   1.168 -0.3995 -0.9326 -0.8232
  649SOL     OW 1945   0.802   2.231   3.116  0.0715 -0.5096  0.1437
  649SOL    HW1 1946   0.746   2.219   3.031  0.5535  0.5498 -2.0829
  649SOL    HW2 1947   0.808   2.139   0.045  0.6866  1.0434 -0.5239
  650SOL     OW 1948   2.304   1.895   2.057  0.4788  0.1764  0.0278
  650SOL    HW1 1949   2.310   1.944   2.147  1.9171 -0.9905  2.6772
  650SOL    HW2 1950   2.359   1.944   1.986  1.0367  2.7156 -0.8278
  651SOL     OW 1951   2.893   2.817   2.372 -0.1166 -0.3712 -0.1782
  651SOL    HW1 1952   2.985   2.856   2.370 -1.9138 -3.0727 -2.1374
  651SOL    HW2 1953   2.858   2.804   2.277  0.5202 -0.9939 -1.9972
  652SOL     OW 1954   3.022   1.851   0.446 -0.4870  0.2592  0.3914
  652SOL    HW1 1955   3.079   1.874   0.526  1.8640 -0.1608 -0.8230
  652SOL    HW2 1956   2.923   1.875   0.468  1.1941 -1.6394 -2.3925
  653SOL     OW 1957   2.493   0.842   1.063  0.2043 -0.1929  0.6832
  653SOL    HW1 1958   2.448   0.813   0.976  1.8445  1.0024  0.5483
  653SOL    HW2 1959   2.595   0.825   1.050  1.1511  1.7464  0.8264
  654SOL     OW 1960   0.750   0.237   2.803 -0.1828 -0.4993 -0.3357
  654SOL    HW1 1961   0.850   0.250   2.820  1.0449  0.6914  0.4347
  654SOL    HW2 1962   0.699   0.198   2.881 -2.1554 -0.3637  0.0109
  655SOL     OW 1963   0.818   0.343   1.639 -0.1073 -0.2685  0.0348
  655SOL    HW1 1964   0.897   0.401   1.658 -4.0362  1.9370 -1.4053
  655SOL    HW2 1965   0.853   0.254   1.606  1.1959  1.2041 -0.4735
  656SOL     OW 1966   0.156   2.747   2.235 -0.1424 -0.1650  0.0424
  656SOL    HW1 1967   0.241   2.704   2.198 -1.1161 -2.2396  0.3306
  656SOL    HW2 1968   0.086   2.768   2.162 -0.5530  1.1535 -1.1173
  657SOL     OW 1969   2.322   0.476   0.231 -0.3239  0.1483  0.7651
  657SOL    HW1 1970   2.246   0.525   0.275 -0.8120 -2.1210  0.7342
  657SOL    HW2 1971   2.393   0.537   0.201  0.8753 -1.8661  3.0160
  658SOL     OW 1972   2.007   1.742   1.115 -0.0724  0.8297  0.2382
  658SOL    HW1 1973   2.064   1.775   1.193 -0.9194 -0.1179  2.6081
  658SOL    HW2 1974   2.048   1.652   1.087 -0.4060  0.8104 -0.3777
  659SOL     OW 1975   2.735   2.120   2.958 -0.7765  0.5640 -0.2825
  659SOL    HW1 1976   2.717   2.220   2.939 -1.8072 -1.1067  2.3655
  659SOL    HW2 1977   2.812   2.105   3.019 -1.6740  0.1613 -1.9880
  660SOL     OW 1978   1.055   0.186   0.044 -0.1848  0.1366  0.2194
  660SOL    HW1 1979   1.150   0.183   0.075  2.0016 -2.3016 -2.1228
  660SOL    HW2 1980   1.000   0.263   0.076  0.1834  0.0636 -1.2953
  661SOL     OW 1981   2.245   0.152   0.394 -0.2191 -0.1647  0.6698
  661SOL    HW1 1982   2.185   0.101   0.327  1.1615 -0.9433  0.6570
  661SOL    HW2 1983   2.297   0.224   0.351 -3.0855  2.4368  0.7951
  662SOL     OW 1984   0.580   0.169   0.985 -0.2070  0.2303 -0.8112
  662SOL    HW1 1985   0.580   0.090   0.922  0.6286  2.5688 -0.0194
  662SOL    HW2 1986   0.523   0.244   0.942 -2.1615  1.2434  1.9159
  663SOL     OW 1987   1.250   0.243   2.503  0.0831  0.0396  0.4288
  663SOL    HW1 1988   1.215   0.198   2.416 -1.9186 -0.3368 -2.8309
  663SOL    HW2 1989   1.252   0.343   2.488 -1.4418 -1.0725 -0.2607
  664SOL     OW 1990   0.901   2.783   1.517 -0.5114 -0.2141 -0.7660
  664SOL    HW1 1991   0.834   2.716   1.494  2.9004  3.2653  1.8614
  664SOL    HW2 1992   0.857   2.847   1.584  1.2111  1.6794 -3.2179
  665SOL     OW 1993   0.778   2.411   1.963 -0.2579 -0.3487 -0.3731
  665SOL    HW1 1994   0.705   2.445   1.902 -0.1308  1.7975  1.1719
  665SOL    HW2 1995   0.859   2.385   1.908 -1.3676 -2.3690  1.9029
  666SOL     OW 1996   0.305   2.987   2.654  0.3325 -0.1586 -0.0821
  666SOL    HW1 1997   0.290   2.957   2.556  0.5240  0.5988 -3.9962
  666SOL    HW2 1998   0.361   2.919   2.708  2.2975 -0.1984 -1.3829
  667SOL     OW 1999   1.645   1.707   1.511 -0.2118  0.3411  0.2417
  667SOL    HW1 2000   1.560   1.678   1.560  4.1241 -0.8676 -0.2193
  667SOL    HW2 2001   1.674   1.633   1.444  0.5835 -0.9130 -1.7328
  668SOL     OW 2002   1.466   0.499   1.586  0.2472 -0.2077 -0.3255
  668SOL    HW1 2003   1.507   0.407   1.569  0.2036 -1.0706  0.3213
  668SOL    HW2 2004   1.455   0.508   1.687 -1.2975  1.3169  0.6973
  669SOL     OW 2005   2.574   2.552   1.339  0.1895  0.5256 -0.0392
  669SOL    HW1 2006   2.530   2.528   1.249 -2.4774 -0.3521 -0.5907
  669SOL    HW2 2007   2.573   2.469   1.406 -0.0617 -2.4461  4.2584
  670SOL     OW 2008   1.755   2.471   2.852 -0.9023 -0.3824  0.0503
  670SOL    HW1 2009   1.692   2.435   2.923 -0.5439 -4.1104 -0.4919
  670SOL    HW2 2010   1.704   2.495   2.768 -0.1148 -1.0230  3.3093
  671SOL     OW 2011   1.012   0.943   0.502  0.0480 -0.2604  0.5143
  671SOL    HW1 2012   1.087   0.974   0.562  0.0330 -0.3610  1.6822
  671SOL    HW2 2013   1.049   0.904   0.409  1.2790 -2.2394 -1.0484
  672SOL     OW 2014   0.177   1.053   2.419  0.0470  0.2890  0.2796
  672SOL    HW1 2015   0.125   1.063   2.508  0.7963  1.5327  0.7044
  672SOL    HW2 2016   0.175   0.952   2.398 -0.7496 -0.7851  0.9485
  673SOL     OW 2017   3.110   1.948   1.388 -0.4994  0.3332  0.0835
  673SOL    HW1 2018   0.058   2.025   1.401 -0.3629  0.0532 -2.0355
  673SOL    HW2 2019   3.076   1.921   1.481  0.5120 -0.1100  1.7446
  674SOL     OW 2020   0.359   2.606   2.151 -0.0357 -0.5219  0.3092
  674SOL    HW1 2021   0.453   2.647   2.167  1.5126  1.3526 -1.2012
  674SOL    HW2 2022   0.352   2.551   2.066 -0.5494 -0.3384  0.2948
  675SOL     OW 2023   0.910   1.057   1.797 -0.3913 -0.3153 -0.2841
  675SOL    HW1 2024   0.874   0.959   1.806 -0.9313 -0.6455 -1.5714
  675SOL    HW2 2025   0.954   1.087   1.886 -0.4189 -0.3849  0.4591
  676SOL     OW 2026   2.250   0.479   1.260  0.3231  0.3593  0.0518
  676SOL    HW1 2027   2.186   0.541   1.307  1.4059 -0.0214 -3.5796
  676SOL    HW2 2028   2.344   0.492   1.292 -1.3760  0.0289  1.0654
  677SOL     OW 2029   2.659   1.340   3.070 -0.0155 -0.1022  0.1458
  677SOL    HW1 2030   2.566   1.294   3.073 -0.5285  2.4725  0.9938
  677SOL    HW2 2031   2.712   1.309   2.992 -1.8232  0.3323 -0.2543
  678SOL     OW 2032   2.786   0.940   1.292 -0.3406 -0.3905  0.2497
  678SOL    HW1 2033   2.881   0.975   1.277  2.8281  1.3022 -0.2863
  678SOL    HW2 2034   2.728   1.019   1.332 -0.9044  2.1038  1.1517
  679SOL     OW 2035   2.487   0.267   0.279  0.0309 -0.0156  0.2123
  679SOL    HW1 2036   2.585   0.290   0.275  2.9202 -1.1555 -2.6825
  679SOL    HW2 2037   2.430   0.353   0.258 -0.4958 -0.5321 -0.1733
  680SOL     OW 2038   0.177   1.828   2.046  0.1457  0.0083 -0.7952
  680SOL    HW1 2039   0.218   1.817   2.141  2.2876  0.0560  5.4070
  680SOL    HW2 2040   0.079   1.837   2.058  0.1893 -0.0401 -1.0590
  681SOL     OW 2041   2.463   2.124   1.138  0.3095  0.5251 -0.5493
  681SOL    HW1 2042   2.390   2.093   1.203 -0.9192 -0.7342  0.4869
  681SOL    HW2 2043   2.480   2.061   1.061  2.3182  2.6202 -1.1328
  682SOL     OW 2044   0.250   1.886   2.993  0.4420 -0.0209  0.4113
  682SOL    HW1 2045   0.148   1.908   2.991  0.0753  1.2676  3.3769
  682SOL    HW2 2046   0.275   1.794   2.960  3.0941 -0.3427 -2.1953
  683SOL     OW 2047   0.152   2.170   1.494  0.5113  0.5027  0.3696
  683SOL    HW1 2048   0.170   2.219   1.408 -2.3688 -3.1289  0.4360
  683SOL    HW2 2049   0.061   2.194   1.525 -0.6056 -3.2164 -0.9606
  684SOL     OW 2050   3.005   1.235   2.177 -0.1316 -0.0816  0.3386
  684SOL    HW1 2051   2.986   1.334   2.158  1.4567 -1.4413  1.0076
  684SOL    HW2 2052   3.000   1.204   2.277  0.6887 -1.8070  3.9668
  685SOL     OW 2053   1.507   1.062   0.666  0.0238 -0.4852 -0.2552
  685SOL    HW1 2054   1.484   1.125   0.742  1.7104  0.9257  0.9740
  685SOL    HW2 2055   1.577   0.995   0.703  1.4105 -0.4897  0.3494
  686SOL     OW 2056   0.436   0.246   0.702 -0.0549  0.2920 -0.2799
  686SOL    HW1 2057   0.411   0.288   0.794 -0.9654  0.5092  0.5927
  686SOL    HW2 2058   0.435   0.141   0.710  2.8255 -2.9518  1.6331
  687SOL     OW 2059   1.126   2.231   2.738 -0.4158 -0.0716 -0.0548
  687SOL    HW1 2060   1.128   2.233   2.840 -0.1426  1.2467 -0.0246
  687SOL    HW2 2061   1.034   2.226   2.699  2.3290  1.2145  4.2018
  688SOL     OW 2062   1.407   1.220   1.429  0.5660 -0.2391  0.1542
  688SOL    HW1 2063   1.375   1.313   1.393  1.1100 -1.3747  1.7079
  688SOL    HW2 2064   1.353   1.200   1.514 -2.9511  0.5126 -0.1441
  689SOL     OW 2065   2.182   0.305   0.604  0.0496  0.1984  0.0062
  689SOL    HW1 2066   2.223   0.232   0.546 -1.7839 -0.4873  0.3919
  689SOL    HW2 2067   2.106   0.355   0.554 -1.9108  1.4373 -0.4132
  690SOL     OW 2068   0.135   1.316   0.914 -0.6748  0.9296  0.0988
  690SOL    HW1 2069   0.055   1.262   0.892  1.3678 -0.4671  0.8342
  690SOL    HW2 2070   0.127   1.418   0.903  0.1119 -0.1652 -3.4412
  691SOL     OW 2071   0.313   2.041   1.223 -0.3454  0.1336  0.4511
  691SOL    HW1 2072   0.236   1.980   1.195 -0.8976 -0.8434 -2.4884
  691SOL    HW2 2073   0.283   2.128   1.261  0.1118  0.1321  0.2959
  692SOL     OW 2074   2.064   0.681   1.311  0.0066 -0.7155 -0.0546
  692SOL    HW1 2075   2.117   0.716   1.230 -0.5680 -1.4543 -2.2324
  692SOL    HW2 2076   2.101   0.728   1.391 -0.9540 -1.3524 -1.2943
  693SOL     OW 2077   0.589   1.978   2.120 -0.5985 -0.4036 -0.5282
  693SOL    HW1 2078   0.637   1.921   2.052 -0.1066 -1.4498  1.3810
  693SOL    HW2 2079   0.651   1.985   2.205 -2.7522 -1.4142  0.3202
  694SOL     OW 2080   1.583   1.544   1.200 -0.3202 -0.3244 -0.1193
  694SOL    HW1 2081   1.590   1.626   1.138 -1.9066 -0.8388  0.1716
  694SOL    HW2 2082   1.632   1.462   1.167 -0.6545 -0.8841  2.0926
  695SOL     OW 2083   1.266   0.951   0.650 -0.7643 -0.0062 -0.3348
  695SOL    HW1 2084   1.363   0.993   0.666  1.9206  2.7773  1.0057
  695SOL    HW2 2085   1.278   0.849   0.644 -0.2646 -1.2574  0.6747
  696SOL     OW 2086   0.568   3.090   0.278 -0.1619  0.1624  0.5453
  696SOL    HW1 2087   0.503   3.014   0.283 -0.9518 -1.7643 -1.3725
  696SOL    HW2 2088   0.627   3.078   0.194  3.8395 -1.6630  0.4898
  697SOL     OW 2089   1.647   0.768   1.242  0.2075  0.4849 -0.7397
  697SOL    HW1 2090   1.671   0.676   1.278  0.2894  0.3699  2.9426
  697SOL    HW2 2091   1.601   0.826   1.312 -0.3249 -0.6917  0.3252
  698SOL     OW 2092   1.642   1.531   2.095 -0.4494 -0.2934 -0.3308
  698SOL    HW1 2093   1.621   1.519   1.994  1.1867  0.2680  0.2047
  698SOL    HW2 2094   1.742   1.532   2.111 -1.2889  2.7197 -0.1889
  699SOL     OW 2095   2.616   0.351   1.853 -0.5672  0.3039  0.0378
  699SOL    HW1 2096   2.668   0.399   1.928 -0.9785 -0.0382  0.5845
  699SOL    HW2 2097   2.595   0.256   1.886 -1.4863 -3.0011 -1.8809
  700SOL     OW 2098   1.311   2.331   0.572 -0.1180  0.0934 -0.1687
  700SOL    HW1 2099   1.375   2.388   0.628 -1.1864 -1.7049 -2.2781
  700SOL    HW2 2100   1.329   2.233   0.577 -0.0201 -0.8677 -0.9206
  701SOL     OW 2101   2.342   2.232   2.267  0.2651  0.0927 -0.3986
  701SOL    HW1 2102   2.436   2.238   2.232  0.9376 -0.9300  0.0275
  701SOL    HW2 2103   2.311   2.322   2.300 -0.2790 -2.2219 -0.0954
  702SOL     OW 2104   0.459   3.058   0.566 -0.3251  0.2253  0.1898
  702SOL    HW1 2105   0.381   2.990   0.544 -2.3386  0.0963 -0.5761
  702SOL    HW2 2106   0.526   3.058   0.489  1.5097 -2.4826  1.0632
  703SOL     OW 2107   1.968   2.921   1.946  0.3690 -0.0270 -0.0419
  703SOL    HW1 2108   2.052   2.937   1.887 -0.1446  2.1303  1.6204
  703SOL    HW2 2109   1.982   2.864   2.028  0.8539 -1.6417  0.8606
  704SOL     OW 2110   2.616   2.029   0.355 -0.0974 -0.1156  0.5748
  704SOL    HW1 2111   2.550   2.077   0.417  0.7455  0.8109 -1.9780
  704SOL    HW2 2112   2.701   2.078   0.347 -2.2608  1.0624  2.3105
  705SOL     OW 2113   2.727   2.430   2.246  0.3071  0.0330  0.2727
  705SOL    HW1 2114   2.788   2.373   2.190  0.7567  1.4834  0.5837
  705SOL    HW2 2115   2.628   2.398   2.247 -3.6434 -0.5433  0.8579
  706SOL     OW 2116   2.746   0.255   0.652 -0.0572  0.6356 -0.0537
  706SOL    HW1 2117   2.803   0.331   0.676  1.8607 -3.5605 -0.5536
  706SOL    HW2 2118   2.794   0.166   0.635 -0.0764  3.1013 -0.9906
  707SOL     OW 2119   0.886   0.380   2.517 -0.6184  0.5715  0.1311
  707SOL    HW1 2120   0.886   0.276   2.523 -0.9013 -1.1122 -0.0981
  707SOL    HW2 2121   0.955   0.411   2.585 -0.9892  2.1435  1.2240
  708SOL     OW 2122   0.363   2.113   1.663  0.2492  0.4174  0.1521
  708SOL    HW1 2123   0.309   2.156   1.590  3.3982  3.8700 -1.7557
  708SOL    HW2 2124   0.317   2.030   1.707  0.1017  0.0582 -0.7372
  709SOL     OW 2125   1.431   0.223   1.788 -0.9017 -0.2118  0.0965
  709SOL    HW1 2126   1.512   0.196   1.730  1.3233  0.6293  0.3416
  709SOL    HW2 2127   1.410   0.154   1.860 -1.2150  1.7758 -1.8307
  710SOL     OW 2128   1.587   2.728   2.540  0.3928 -0.4446  0.0011
  710SOL    HW1 2129   1.625   2.639   2.501  0.3655  0.5034  1.0307
  710SOL    HW2 2130   1.607   2.739   2.636 -0.1264 -0.0811 -3.7926
  711SOL     OW 2131   0.830   2.179   2.689  0.4673 -0.4154  0.0204
  711SOL    HW1 2132   0.750   2.197   2.755 -3.6172  1.0011 -0.3502
  711SOL    HW2 2133   0.826   2.257   2.627 -2.6702 -1.0555  1.0554
  712SOL     OW 2134   1.079   2.261   3.020  0.0941  0.0837  0.2273
  712SOL    HW1 2135   0.981   2.252   3.051  0.6579  1.4724 -1.2687
  712SOL    HW2 2136   1.145   2.272   3.095 -0.5297  2.4076 -2.1539
  713SOL     OW 2137   2.111   1.130   1.988  0.3034 -0.0859  0.5848
  713SOL    HW1 2138   2.131   1.175   1.896 -2.1310  5.2958 -0.4701
  713SOL    HW2 2139   2.011   1.130   1.996 -0.5929  2.3160 -2.8208
  714SOL     OW 2140   1.030   1.162   2.015  0.4980 -0.1927  0.6091
  714SOL    HW1 2141   0.931   1.173   2.035  0.1172  0.5958 -0.0478
  714SOL    HW2 2142   1.073   1.155   2.108  1.6023 -2.0971 -1.7093
  715SOL     OW 2143   2.773   0.344   0.324  0.5209  0.5199  0.7358
  715SOL    HW1 2144   2.830   0.272   0.367  0.3240 -0.1172 -0.8585
  715SOL    HW2 2145   2.792   0.432   0.370 -1.5989 -1.6090  1.7315
  716SOL     OW 2146   3.089   2.799   1.535 -0.2747  0.5024  0.0475
  716SOL    HW1 2147   3.047   2.825   1.622 -0.0133  1.3108  0.2251
  716SOL    HW2 2148   3.052   2.713   1.500 -0.4716  0.3431  0.5320
  717SOL     OW 2149   2.340   0.974   0.828  0.7294 -0.1069  0.1457
  717SOL    HW1 2150   2.297   1.007   0.743  0.5932  1.1230 -0.3595
  717SOL    HW2 2151   2.433   0.939   0.807  0.7260 -3.1144 -0.5359
  718SOL     OW 2152   1.309   1.463   1.350 -0.0120  0.3631  0.0124
  718SOL    HW1 2153   1.281   1.530   1.421 -2.7690 -0.1320  0.6771
  718SOL    HW2 2154   1.390   1.495   1.297 -0.3728 -0.9459 -0.1714
  719SOL     OW 2155   2.594   2.797   2.744 -0.2488  0.1469  0.4697
  719SOL    HW1 2156   2.680   2.814   2.789 -2.2968  1.8351  0.8470
  719SOL    HW2 2157   2.551   2.889   2.736 -1.6771  0.2075 -0.5997
  720SOL     OW 2158   0.984   0.342   0.930  0.1271  0.0236 -0.1618
  720SOL    HW1 2159   0.926   0.373   0.851 -1.7966  0.6010  3.9711
  720SOL    HW2 2160   1.072   0.297   0.903  0.5236 -2.6774  1.5532
  721SOL     OW 2161   2.489   0.698   0.799 -0.5464 -0.0837 -1.0159
  721SOL    HW1 2162   2.549   0.640   0.860  0.8422 -0.1375 -2.2619
  721SOL    HW2 2163   2.478   0.659   0.712 -2.3295  1.3016  3.1145
  722SOL     OW 2164   0.881   2.156   2.149 -0.3217  0.0281 -0.0379
  722SOL    HW1 2165   0.947   2.081   2.133  3.7668  0.9873 -2.4091
  722SOL    HW2 2166   0.829   2.181   2.065  0.0386  1.4077 -2.3731
  723SOL     OW 2167   1.568   3.105   1.271 -0.5935  0.4190 -0.0852
  723SOL    HW1 2168   1.501   0.065   1.286 -1.9808  0.7211  3.2332
  723SOL    HW2 2169   1.629   0.016   1.195 -2.0646  1.4576 -1.5773
  724SOL     OW 2170   1.779   1.948   1.483  0.5883 -0.3309 -0.3394
  724SOL    HW1 2171   1.720   1.982   1.564 -1.0628  1.0531  2.7290
  724SOL    HW2 2172   1.758   1.849   1.463 -0.1712 -5.1477 -0.0926
  725SOL     OW 2173   1.190   2.342   1.174 -0.5130  0.4301 -0.5772
  725SOL    HW1 2174   1.160   2.399   1.096  1.3771 -0.2413  1.4540
  725SOL    HW2 2175   1.170   2.244   1.160 -2.5153  0.4700  1.3110
  726SOL     OW 2176   1.963   2.992   3.095  0.4228  0.5809  0.2889
  726SOL    HW1 2177   1.948   3.044   3.008  0.0672 -2.0288 -0.4996
  726SOL    HW2 2178   1.900   2.914   3.096  1.8692 -0.9840 -1.1303
  727SOL     OW 2179   1.450   1.673   0.420  0.0854  0.0009  0.0122
  727SOL    HW1 2180   1.394   1.710   0.345  3.4539 -0.4812 -0.4221
  727SOL    HW2 2181   1.523   1.620   0.379 -0.5226  1.0027 -0.4514
  728SOL     OW 2182   1.845   2.570   1.802 -0.1574  0.4298 -0.0092
  728SOL    HW1 2183   1.865   2.543   1.707 -1.1337  0.3270  3.6858
  728SOL    HW2 2184   1.814   2.668   1.801  0.8447 -2.1740  0.8919
  729SOL     OW 2185   2.045   2.491   1.288 -0.5354  0.0047 -0.1455
  729SOL    HW1 2186   1.993   2.426   1.232  0.2158  0.4058  0.7164
  729SOL    HW2 2187   2.064   2.567   1.223  0.1777  0.7624  0.6688
  730SOL     OW 2188   1.473   1.236   2.644  0.3690  0.7576  0.3867
  730SOL    HW1 2189   1.460   1.157   2.573 -0.5532 -3.0069 -2.0461
  730SOL    HW2 2190   1.407   1.226   2.726 -3.0756  0.3105 -0.7660
  731SOL     OW 2191   0.789   0.099   1.514  0.3531  0.1000  0.1823
  731SOL    HW1 2192   0.715   0.073   1.453  1.3501 -0.6552 -0.6204
  731SOL    HW2 2193   0.788   0.060   1.608  1.3659  2.4389 -0.4313
  732SOL     OW 2194   1.049   3.063   1.147 -0.3429  0.1485 -0.2304
  732SOL    HW1 2195   1.008   2.981   1.192  0.0861  2.3999  1.0557
  732SOL    HW2 2196   1.052   0.025   1.210  1.5791 -0.0214  0.9598
  733SOL     OW 2197   1.153   0.969   0.935  0.1975  0.4248  0.4726
  733SOL    HW1 2198   1.221   0.999   0.862  0.9381 -0.8204 -2.2549
  733SOL    HW2 2199   1.186   0.982   1.030  0.6601 -0.5664 -0.2889
  734SOL     OW 2200   2.482   2.154   0.143 -0.6412  0.0751  0.8349
  734SOL    HW1 2201   2.494   2.229   0.075  0.6289 -0.6849 -1.4738
  734SOL    HW2 2202   2.567   2.134   0.193 -1.4151  0.6415 -1.8182
  735SOL     OW 2203   0.813   0.273   1.110 -0.7026  0.5297 -0.3339
  735SOL    HW1 2204   0.736   0.218   1.067 -0.3147 -0.6175 -1.5710
  735SOL    HW2 2205   0.881   0.298   1.037  0.2891  2.3351  2.2052
  736SOL     OW 2206   1.915   2.252   2.797  0.3765 -0.0423  0.7333
  736SOL    HW1 2207   1.986   2.247   2.872 -1.4841  1.0343  0.6529
  736SOL    HW2 2208   1.845   2.326   2.813  2.0210  0.2370 -2.6054
  737SOL     OW 2209   0.879   2.640   1.126 -0.0931 -0.1918 -0.8142
  737SOL    HW1 2210   0.907   2.620   1.031 -2.6565  1.2262  0.7730
  737SOL    HW2 2211   0.946   2.700   1.169 -2.6373 -0.3801 -0.8127
  738SOL     OW 2212   1.728   3.110   2.233 -0.2345  0.2482 -0.3881
  738SOL    HW1 2213   1.770   0.028   2.148 -0.3362  0.4935 -0.1042
  738SOL    HW2 2214   1.811   3.093   2.290 -0.1730 -0.3390 -0.5467
  739SOL     OW 2215   1.174   2.314   2.001  0.1567  0.5991  0.0279
  739SOL    HW1 2216   1.129   2.334   2.095 -2.3119  2.6992  4.5529
  739SOL    HW2 2217   1.249   2.245   2.010 -0.2957 -1.8158  1.3814
  740SOL     OW 2218   1.447   2.231   1.286 -0.0851  0.2413 -0.2991
  740SOL    HW1 2219   1.352   2.253   1.251 -0.8570 -0.9089 -0.0252
  740SOL    HW2 2220   1.487   2.314   1.326  0.8625 -0.4444  1.1534
  741SOL     OW 2221   2.753   1.084   0.296 -0.0663 -0.4880  0.2011
  741SOL    HW1 2222   2.731   1.176   0.336 -0.6930  0.9165  2.5735
  741SOL    HW2 2223   2.678   1.054   0.234 -2.6232  1.1407  1.3564
  742SOL     OW 2224   0.614   1.605   2.352  0.5894 -0.2763  0.6751
  742SOL    HW1 2225   0.629   1.678   2.421 -2.2196 -0.4013 -0.8793
  742SOL    HW2 2226   0.702   1.569   2.316 -1.6847 -1.6592  1.6379
  743SOL     OW 2227   0.146   0.766   2.433  0.6415  0.2543 -0.2168
  743SOL    HW1 2228   0.201   0.755   2.516 -0.0963 -2.4952 -0.6129
  743SOL    HW2 2229   0.049   0.741   2.450  1.3948 -1.1934 -2.9927
  744SOL     OW 2230   2.412   2.404   1.146  0.0515 -0.2626 -0.7331
  744SOL    HW1 2231   2.431   2.308   1.155  0.3314  1.1089  2.5028
  744SOL    HW2 2232   2.311   2.421   1.127 -0.8215  0.8399 -0.2185
  745SOL     OW 2233   2.231   1.812   1.312  0.2434 -0.4758  0.6186
  745SOL    HW1 2234   2.335   1.785   1.300  0.0266 -3.4433 -1.2768
  745SOL    HW2 2235   2.218   1.908   1.288 -1.2415 -3.2594 -0.1639
  746SOL     OW 2236   2.130   1.043   0.617  0.0440 -0.4575 -0.0576
  746SOL    HW1 2237   2.049   1.006   0.562 -1.1968 -3.8023  0.3470
  746SOL    HW2 2238   2.131   1.146   0.634 -2.4646  0.1341 -1.0956
  747SOL     OW 2239   1.574   2.111   0.624  0.2786 -0.5443 -0.3497
  747SOL    HW1 2240   1.665   2.152   0.593 -2.1809  2.3829 -2.5107
  747SOL    HW2 2241   1.592   2.058   0.710  0.7432  0.6797  0.1635
  748SOL     OW 2242   0.801   1.820   0.551 -0.5247  0.2716  0.3249
  748SOL    HW1 2243   0.834   1.727   0.553  1.0124  0.9479  0.2362
  748SOL    HW2 2244   0.758   1.851   0.638 -0.5109  0.0618  0.8266
  749SOL     OW 2245   2.907   0.161   2.103  0.5380  0.5168 -0.1319
  749SOL    HW1 2246   2.946   0.255   2.088  0.2459  1.0519 -0.8739
  749SOL    HW2 2247   2.946   0.129   2.193  0.0794 -1.7937 -1.5589
  750SOL     OW 2248   1.589   0.271   1.507 -0.1505 -0.1835  0.0241
  750SOL    HW1 2249   1.683   0.307   1.493  0.9438  0.0276  1.1501
  750SOL    HW2 2250   1.537   0.241   1.423 -1.6649  1.7061 -0.9441
  751SOL     OW 2251   1.673   2.895   3.100  0.3339  0.3482  0.4806
  751SOL    HW1 2252   1.571   2.881   3.109 -2.9528 -1.7430  1.9618
  751SOL    HW2 2253   1.709   2.807   3.068 -2.2470 -0.4049 -0.6207
  752SOL     OW 2254   1.763   2.122   0.249  0.1149 -0.0807  0.3417
  752SOL    HW1 2255   1.698   2.059   0.197 -2.7049 -0.8900 -2.3562
  752SOL    HW2 2256   1.857   2.107   0.210  3.7463 -1.8024  2.0239
  753SOL     OW 2257   1.863   0.908   2.437 -0.1757  0.3516 -0.6502
  753SOL    HW1 2258   1.794   0.955   2.490  0.8487  1.8510 -2.8418
  753SOL    HW2 2259   1.947   0.968   2.432  2.0993  2.0515 -0.1217
  754SOL     OW 2260   0.235   2.852   0.531  0.5134  0.2264  0.0288
  754SOL    HW1 2261   0.150   2.801   0.540  4.2200 -0.2682  0.8137
  754SOL    HW2 2262   0.291   2.841   0.617  2.7631 -1.3585  3.5164
  755SOL     OW 2263   2.128   0.476   0.943 -0.9187 -0.2846  0.3222
  755SOL    HW1 2264   2.144   0.576   0.952  0.7111  1.0261  0.6628
  755SOL    HW2 2265   2.212   0.437   0.900 -1.2715  0.0530  0.9258
  756SOL     OW 2266   1.132   1.811   2.576  0.0420 -0.8423 -0.2228
  756SOL    HW1 2267   1.059   1.869   2.611  2.3113  0.1687  1.6085
  756SOL    HW2 2268   1.197   1.789   2.654 -1.3099 -0.9412  0.9704
  757SOL     OW 2269   2.471   3.011   1.065  0.2549  0.1650 -0.4025
  757SOL    HW1 2270   2.457   2.911   1.052  1.7870  0.3369  0.8472
  757SOL    HW2 2271   2.385   3.072   1.062  0.4953 -1.4694 -1.4457
  758SOL     OW 2272   0.735   2.927   1.676 -0.1109  0.0142 -0.0346
  758SOL    HW1 2273   0.681   2.949   1.589 -4.2204 -0.7338 -2.0611
  758SOL    HW2 2274   0.747   3.007   1.738 -0.8520  0.1233  0.2084
  759SOL     OW 2275   2.431   1.302   0.716  0.1265 -0.4002 -0.7732
  759SOL    HW1 2276   2.490   1.223   0.686  1.8380  1.4853 -1.8281
  759SOL    HW2 2277   2.436   1.306   0.816 -1.0164  2.3499 -0.3298
  760SOL     OW 2278   2.019   1.023   1.488 -0.2524  0.4483  0.2310
  760SOL    HW1 2279   2.048   0.923   1.494 -2.6847 -1.3220 -0.3075
  760SOL    HW2 2280   2.081   1.081   1.427  2.1720  2.2323 -0.1358
  761SOL     OW 2281   2.083   0.069   0.187  0.7502  0.0937 -0.3844
  761SOL    HW1 2282   2.007   0.100   0.247  0.5192 -1.3663  0.4103
  761SOL    HW2 2283   2.055   0.002   0.111 -3.1571 -2.1035 -1.8275
  762SOL     OW 2284   1.987   2.049   0.121 -0.5587 -0.0438 -0.0938
  762SOL    HW1 2285   2.074   2.023   0.173  0.2246  1.0690  0.4003
  762SOL    HW2 2286   2.004   2.097   0.030 -0.8256  2.0786 -1.8110
  763SOL     OW 2287   0.711   0.952   1.073  0.5678 -0.0045 -0.4639
  763SOL    HW1 2288   0.771   1.001   1.005  1.0197 -0.2600 -0.2729
  763SOL    HW2 2289   0.733   0.969   1.173  0.4403 -1.8379 -1.1756
  764SOL     OW 2290   2.510   2.382   3.108  0.6573 -0.2360  0.3304
  764SOL    HW1 2291   2.573   2.379   3.027 -0.5804 -0.2384 -1.1805
  764SOL    HW2 2292   2.434   2.453   3.107 -2.2489  0.4209  1.4663
  765SOL     OW 2293   0.913   0.299   2.255  0.2802 -0.6287 -0.4863
  765SOL    HW1 2294   0.891   0.341   2.344  1.1378 -0.9212  0.1511
  765SOL    HW2 2295   0.998   0.243   2.265  2.9537 -0.0162 -0.9114
  766SOL     OW 2296   0.255   1.263   2.260 -0.2374  0.2241 -0.0754
  766SOL    HW1 2297   0.197   1.184   2.285  0.8315  0.9299 -2.8049
  766SOL    HW2 2298   0.209   1.344   2.303  1.1576 -0.5298  1.1457
  767SOL     OW 2299   2.975   1.733   1.985  0.3164 -0.0775 -0.3362
  767SOL    HW1 2300   2.926   1.804   2.037 -0.6530  1.1668 -0.4947
  767SOL    HW2 2301   2.933   1.712   1.890 -0.4716  1.3830 -0.7539
  768SOL     OW 2302   0.955   1.114   2.983  0.2730 -0.2631  0.2649
  768SOL    HW1 2303   0.897   1.057   2.922 -0.2911  0.1510  0.2880
  768SOL    HW2 2304   0.953   1.215   2.959 -0.4177  1.9834  0.0381
  769SOL     OW 2305   2.213   2.918   3.031  0.3053 -0.1251  0.2293
  769SOL    HW1 2306   2.219   2.836   2.969  2.0898 -2.4486 -0.1408
  769SOL    HW2 2307   2.115   2.958   3.030 -2.4946  1.5932 -0.0986
  770SOL     OW 2308   3.026   0.476   2.594 -0.1557 -0.1510  0.2301
  770SOL    HW1 2309   3.035   0.564   2.549 -1.8690 -0.7403  1.8725
  770SOL    HW2 2310   2.940   0.424   2.563 -0.2718 -0.1371  0.5495
  771SOL     OW 2311   1.122   2.203   1.596 -0.5966 -0.2890 -0.5414
  771SOL    HW1 2312   1.226   2.209   1.589 -0.2815 -0.7637  0.4471
  771SOL    HW2 2313   1.075   2.239   1.512  0.2918  2.1133  0.0090
  772SOL     OW 2314   0.487   0.537   3.060 -0.8223 -0.1684 -0.1107
  772SOL    HW1 2315   0.529   0.549   2.968 -1.2335  0.3395  2.1915
  772SOL    HW2 2316   0.408   0.604   3.070 -0.0951  1.5718  0.3862
  773SOL     OW 2317   2.735   1.058   1.819  0.2101  0.0400  0.6605
  773SOL    HW1 2318   2.721   1.050   1.919 -1.5794  0.4973  1.7015
  773SOL    HW2 2319   2.815   1.007   1.787 -1.7284 -1.3952 -1.5343
  774SOL     OW 2320   1.372   0.691   0.340 -0.5229 -0.2164 -0.3208
  774SOL    HW1 2321   1.375   0.690   0.444 -1.0568  0.4717  1.5903
  774SOL    HW2 2322   1.291   0.748   0.314  0.4325 -0.8063  1.3239
  775SOL     OW 2323   2.288   2.551   3.063  0.2492 -0.5125  0.2434
  775SOL    HW1 2324   2.250   2.597   2.981  0.1233 -4.0863 -0.2750
  775SOL    HW2 2325   2.218   2.490   3.105 -1.4914 -0.2648  0.4532
  776SOL     OW 2326   2.289   0.397   1.832  0.3697 -0.1487 -0.2131
  776SOL    HW1 2327   2.236   0.315   1.858  1.5564 -0.4428  0.3055
  776SOL    HW2 2328   2.378   0.360   1.792  1.5787 -0.4707 -0.2182
  777SOL     OW 2329   0.477   1.299   2.776 -0.0036  0.0953  0.6763
  777SOL    HW1 2330   0.477   1.383   2.716  1.4346  0.2035  0.9966
  777SOL    HW2 2331   0.553   1.241   2.739  1.6271 -0.2780  0.6854
  778SOL     OW 2332   1.001   0.044   0.444 -0.4252  0.0987  0.0048
  778SOL    HW1 2333   0.922   0.113   0.430 -1.3540  2.6077 -0.2141
  778SOL    HW2 2334   0.973   3.078   0.496 -1.0139 -2.4357 -1.3534
  779SOL     OW 2335   0.433   1.011   2.515 -0.3146 -0.1963 -0.3642
  779SOL    HW1 2336   0.344   1.056   2.506  0.4301 -0.3520  0.5553
  779SOL    HW2 2337   0.459   0.963   2.427 -0.0059 -1.5973 -0.8895
  780SOL     OW 2338   2.105   0.731   2.671 -0.2891  0.9569  0.3588
  780SOL    HW1 2339   2.183   0.678   2.625 -2.0567 -1.5607  0.1958
  780SOL    HW2 2340   2.019   0.693   2.637  2.1381  2.3982 -0.8725
  781SOL     OW 2341   2.445   1.383   1.835 -0.6808  0.2916 -0.2382
  781SOL    HW1 2342   2.539   1.368   1.801 -1.7072 -1.1680 -1.0411
  781SOL    HW2 2343   2.414   1.481   1.857 -3.2732  2.7883 -2.4144
  782SOL     OW 2344   1.183   1.811   2.307 -0.4583 -0.4720 -0.1686
  782SOL    HW1 2345   1.177   1.720   2.264 -2.8992  3.5594  1.6167
  782SOL    HW2 2346   1.142   1.806   2.401  0.5191  0.4671 -1.8314
  783SOL     OW 2347   0.484   2.771   1.445  0.5846  0.6049  0.0472
  783SOL    HW1 2348   0.546   2.851   1.448 -2.8461 -1.2396  2.3282
  783SOL    HW2 2349   0.400   2.794   1.491  3.5565 -2.1904 -0.5213
  784SOL     OW 2350   1.522   0.584   3.062 -0.2832 -0.2910  0.4361
  784SOL    HW1 2351   1.540   0.544   2.969 -0.1035 -0.1998 -0.7013
  784SOL    HW2 2352   1.574   0.668   3.080 -0.6802  0.9682  2.1891
  785SOL     OW 2353   1.310   0.231   0.157  0.3484  0.2227  0.2233
  785SOL    HW1 2354   1.346   0.332   0.170  1.7988  3.6497  0.3012
  785SOL    HW2 2355   1.390   0.165   0.149  2.0909  1.0875 -1.8139
  786SOL     OW 2356   0.305   1.549   0.617  0.1079 -0.5337  0.3328
  786SOL    HW1 2357   0.361   1.469   0.593  1.3642  3.5727 -1.9048
  786SOL    HW2 2358   0.256   1.581   0.532 -0.7764  2.6938  0.4775
  787SOL     OW 2359   1.633   1.513   0.264  0.7510  0.0523  0.1075
  787SOL    HW1 2360   1.707   1.481   0.325  2.8160 -2.5583 -0.2966
  787SOL    HW2 2361   1.580   1.433   0.227  2.0493 -0.9709 -1.1222
  788SOL     OW 2362   1.845   1.620   1.292  0.7583  0.1479 -0.6943
  788SOL    HW1 2363   1.751   1.630   1.258 -0.9269 -1.9219 -0.6371
  788SOL    HW2 2364   1.905   1.648   1.215 -2.0199  1.1542 -0.6904
  789SOL     OW 2365   2.923   1.350   1.914  0.0145  0.0964  0.2376
  789SOL    HW1 2366   2.964   1.426   1.960 -1.3178  0.8860 -3.9496
  789SOL    HW2 2367   2.980   1.269   1.919 -1.5780  0.8912 -1.6628
  790SOL     OW 2368   0.403   2.949   3.035  0.0393 -0.0002  0.1773
  790SOL    HW1 2369   0.366   2.894   3.109  1.2777  1.4017 -2.3644
  790SOL    HW2 2370   0.450   2.891   2.965  1.7894 -0.3848 -2.5279
  791SOL     OW 2371   0.594   0.158   2.367 -0.1748  0.3639 -0.1601
  791SOL    HW1 2372   0.582   0.252   2.386  0.9691 -0.6481  0.3484
  791SOL    HW2 2373   0.579   0.097   2.450 -1.5127  1.0717 -0.8605
  792SOL     OW 2374   1.928   0.393   2.452  0.1670  0.4111 -0.3061
  792SOL    HW1 2375   1.973   0.321   2.513  1.6903 -0.1567 -1.9324
  792SOL    HW2 2376   1.914   0.476   2.508  0.2139 -1.1541 -0.8645
  793SOL     OW 2377   2.985   0.573   1.274 -0.5694  0.4457 -0.0895
  793SOL    HW1 2378   2.972   0.504   1.351 -4.3577  1.3892  0.5775
  793SOL    HW2 2379   3.041   0.655   1.297  0.7595  0.5170  1.4997
  794SOL     OW 2380   0.578   0.645   2.158  0.1498 -0.0507 -0.6163
  794SOL    HW1 2381   0.642   0.587   2.207  1.1616  0.1766 -3.2548
  794SOL    HW2 2382   0.617   0.722   2.103 -1.5853  0.2446 -1.3017
  795SOL     OW 2383   0.108   1.230   0.267 -0.3453  0.0851 -0.3689
  795SOL    HW1 2384   0.013   1.254   0.230 -2.6512  0.8351  0.3932
  795SOL    HW2 2385   0.102   1.197   0.363 -0.2889  0.9168 -2.4507
  796SOL     OW 2386   3.007   2.854   0.404 -0.4273 -0.5904  0.0398
  796SOL    HW1 2387   3.039   2.788   0.476 -1.1387 -1.0721  0.0816
  796SOL    HW2 2388   3.053   2.842   0.313  2.8429  0.4678  1.4050
  797SOL     OW 2389   2.016   2.631   2.255  0.0959  0.1947 -0.1729
  797SOL    HW1 2390   2.004   2.601   2.162 -2.2689 -0.4074  0.5785
  797SOL    HW2 2391   2.079   2.713   2.269  2.1525  0.9642 -0.1086
  798SOL     OW 2392   3.061   1.141   0.868 -0.1521 -0.6421  0.1261
  798SOL    HW1 2393   0.020   1.096   0.818 -0.8554 -1.9844  2.2489
  798SOL    HW2 2394   2.982   1.076   0.882 -2.0622  1.0554 -3.0964
  799SOL     OW 2395   2.864   0.492   2.883 -0.3271  0.1564 -0.7502
  799SOL    HW1 2396   2.961   0.479   2.883 -3.5039  0.3015 -2.7982
  799SOL    HW2 2397   2.828   0.559   2.812 -1.7500  1.9814  0.7116
  800SOL     OW 2398   3.105   2.042   0.282  0.0117  0.0603 -0.0227
  800SOL    HW1 2399   0.070   2.016   0.227  1.4329 -0.7308 -1.5419
  800SOL    HW2 2400   3.080   1.972   0.354  0.6311  0.4271  0.8077
  801SOL     OW 2401   1.279   1.397   0.996 -0.2864  0.4282  0.6514
  801SOL    HW1 2402   1.340   1.466   0.948 -0.8919  1.1435 -4.5119
  801SOL    HW2 2403   1.265   1.410   1.097  0.4649  0.1489  0.9611
  802SOL     OW 2404   1.279   1.840   1.842  0.4464 -0.4995  0.1567
  802SOL    HW1 2405   1.289   1.913   1.918  1.0910  1.3395  0.9653
  802SOL    HW2 2406   1.206   1.872   1.777  0.7507 -0.3513 -0.4535
  803SOL     OW 2407   0.078   1.597   0.806  0.2714  1.0831 -0.6414
  803SOL    HW1 2408   0.006   1.616   0.738  1.2749  0.8358  2.0948
  803SOL    HW2 2409   0.170   1.591   0.764 -1.4606 -0.8557 -0.1435
  804SOL     OW 2410   1.039   2.360   1.387 -0.2276 -0.1099  0.4642
  804SOL    HW1 2411   1.094   2.356   1.299 -0.6299  1.8939 -0.2999
  804SOL    HW2 2412   0.943   2.327   1.378  0.4783 -1.9588 -3.2683
  805SOL     OW 2413   2.072   1.486   3.051  0.6716 -0.0397  0.4239
  805SOL    HW1 2414   2.070   1.581   3.089 -3.8787 -1.0595  1.9658
  805SOL    HW2 2415   1.975   1.456   3.046 -0.6425 -1.3213 -1.4189
  806SOL     OW 2416   1.666   2.669   1.250  0.5256  0.3515 -0.1703
  806SOL    HW1 2417   1.743   2.731   1.280 -2.2119 -0.7314  1.9632
  806SOL    HW2 2418   1.583   2.725   1.224 -1.1509  0.5803 -0.5275
  807SOL     OW 2419   2.761   0.643   3.096 -0.1254  0.2549 -0.2743
  807SOL    HW1 2420   2.805   0.731   3.099  1.0590 -1.6771  0.9339
  807SOL    HW2 2421   2.788   0.588   3.015 -0.2850  1.4119  2.1252
  808SOL     OW 2422   0.173   1.131   0.701  0.1854 -0.0021  0.0130
  808SOL    HW1 2423   0.265   1.087   0.680  1.4876  1.9796 -1.5158
  808SOL    HW2 2424   0.188   1.220   0.750  0.0500  1.2152 -0.5058
  809SOL     OW 2425   2.730   0.629   2.411 -0.2301  0.2998  0.3211
  809SOL    HW1 2426   2.645   0.674   2.374 -0.4452 -3.3881 -0.2231
  809SOL    HW2 2427   2.724   0.528   2.401  1.4308  1.5055 -1.3708
  810SOL     OW 2428   1.481   0.536   1.319 -0.1282  0.0865  0.3175
  810SOL    HW1 2429   1.438   0.563   1.405 -0.7473  0.2967 -3.5457
  810SOL    HW2 2430   1.540   0.450   1.330 -0.2923 -0.7256 -0.2067
  811SOL     OW 2431   1.878   2.781   1.396 -0.0839  0.5599  0.0430
  811SOL    HW1 2432   1.870   2.700   1.452  2.0736  2.0617 -0.4256
  811SOL    HW2 2433   1.963   2.776   1.339  0.8887  0.3149  0.3920
  812SOL     OW 2434   1.849   2.665   3.038  0.0020  0.1609 -0.8802
  812SOL    HW1 2435   1.833   2.589   2.973  1.9717 -0.0422  0.9253
  812SOL    HW2 2436   1.878   2.627   0.009 -0.2094  0.7810  0.8993
  813SOL     OW 2437   1.749   0.960   2.152 -0.0627  0.4012 -0.1341
  813SOL    HW1 2438   1.774   1.053   2.187 -0.6795  1.8638  0.5625
  813SOL    HW2 2439   1.759   0.894   2.225 -0.6340  0.8528 -4.0994
  814SOL     OW 2440   1.403   0.577   1.841  0.3621 -0.3875 -0.3617
  814SOL    HW1 2441   1.457   0.526   1.910 -0.2208 -0.7321  0.2798
  814SOL    HW2 2442   1.350   0.650   1.890 -1.6562 -3.0058  1.2032
  815SOL     OW 2443   0.538   0.587   0.442  0.0430  0.0095 -0.1889
  815SOL    HW1 2444   0.626   0.633   0.412 -0.5017  1.2067 -0.4251
  815SOL    HW2 2445   0.541   0.486   0.430  0.7107 -0.6398 -0.3507
  816SOL     OW 2446   2.464   1.797   2.676  0.1347 -0.0609  0.6748
  816SOL    HW1 2447   2.368   1.831   2.690 -0.9789 -1.6226 -0.0511
  816SOL    HW2 2448   2.529   1.877   2.679 -2.1428  0.6652 -0.7323
  817SOL     OW 2449   0.475   2.475   0.495 -0.2681 -0.1560 -0.1307
  817SOL    HW1 2450   0.508   2.416   0.567 -1.0217  1.0105 -0.6977
  817SOL    HW2 2451   0.370   2.480   0.501 -1.2850  0.6700 -1.6273
  818SOL     OW 2452   1.930   0.012   2.843 -0.0075 -0.1348 -0.1874
  818SOL    HW1 2453   1.943   0.112   2.830 -1.5911  0.4190 -0.1263
  818SOL    HW2 2454   1.835   3.111   2.874 -0.7213 -1.0847 -1.6846
  819SOL     OW 2455   1.729   0.332   0.186 -0.6681  0.2716  0.1505
  819SOL    HW1 2456   1.652   0.319   0.252  0.5983  0.4964 -0.6488
  819SOL    HW2 2457   1.774   0.424   0.189  0.4526 -0.3563  3.0597
  820SOL     OW 2458   1.639   0.729   0.299  0.4553  0.3312  0.0107
  820SOL    HW1 2459   1.534   0.737   0.308  1.6799 -1.0551  0.2235
  820SOL    HW2 2460   1.682   0.744   0.394  2.4985  0.9577  1.8057
  821SOL     OW 2461   2.457   2.778   0.439  0.5802  0.2410  0.2618
  821SOL    HW1 2462   2.411   2.870   0.429 -0.1325  2.6856 -2.3228
  821SOL    HW2 2463   2.548   2.793   0.394 -0.7006  0.7971 -1.4678
  822SOL     OW 2464   0.054   2.846   2.017  0.2369  0.0490 -0.0042
  822SOL    HW1 2465   0.014   2.941   2.012  2.6899  2.3449 -0.7067
  822SOL    HW2 2466   0.136   2.830   1.955  1.3101  0.6014 -0.1884
  823SOL     OW 2467   2.741   1.913   1.777  0.0240  0.3404 -0.0981
  823SOL    HW1 2468   2.808   1.985   1.786 -0.5936  1.0511 -1.1479
  823SOL    HW2 2469   2.662   1.943   1.720 -1.6438  0.6992 -1.0010
  824SOL     OW 2470   1.351   2.798   2.417  0.4542 -0.0895  0.0436
  824SOL    HW1 2471   1.344   2.735   2.337 -0.0218 -0.2890  2.5821
  824SOL    HW2 2472   1.426   2.769   2.475  0.8872  1.0271 -0.5808
  825SOL     OW 2473   1.719   1.405   0.724  0.1388  0.1540  0.0685
  825SOL    HW1 2474   1.704   1.340   0.802  2.3565 -1.8362 -1.5560
  825SOL    HW2 2475   1.641   1.473   0.718 -2.6380 -0.8162 -1.4295
  826SOL     OW 2476   1.978   0.750   0.034 -0.6319 -0.4973  0.4243
  826SOL    HW1 2477   2.004   0.849   0.017  3.0807  0.6495 -2.8260
  826SOL    HW2 2478   2.022   0.690   3.077  0.4887 -0.9993 -2.4127
  827SOL     OW 2479   0.431   1.207   1.531  0.4439 -0.3879  0.2255
  827SOL    HW1 2480   0.418   1.279   1.601  1.0721  1.4100  1.0338
  827SOL    HW2 2481   0.498   1.229   1.458 -0.0434  0.2821  0.3757
  828SOL     OW 2482   1.978   1.553   1.882  0.0467 -0.2026 -0.3013
  828SOL    HW1 2483   1.891   1.592   1.843 -1.1829 -0.9472 -1.2799
  828SOL    HW2 2484   1.985   1.558   1.985  2.6935  1.1366 -0.1786
  829SOL     OW 2485   0.221   1.852   0.153  0.4402  0.1699 -0.0591
  829SOL    HW1 2486   0.208   1.879   0.054  1.8187 -1.8088 -5.8025
  829SOL    HW2 2487   0.244   1.753   0.158 -1.3304  1.1661 -0.1920
  830SOL     OW 2488   1.373   0.659   0.608  0.6089  0.0253  0.1791
  830SOL    HW1 2489   1.446   0.589   0.630  1.3115  2.6823  2.4861
  830SOL    HW2 2490   1.320   0.665   0.695  0.1162  0.2795 -1.3773
  831SOL     OW 2491   2.778   1.485   0.198  0.4503 -0.0382 -0.1547
  831SOL    HW1 2492   2.740   1.486   0.105  3.3037 -1.2199  0.0082
  831SOL    HW2 2493   2.807   1.583   0.213  0.4624  1.6170  0.0458
  832SOL     OW 2494   0.965   3.051   3.104 -0.1196  0.4054  0.1124
  832SOL    HW1 2495   0.865   3.042   0.003  1.2393 -1.8240  3.3869
  832SOL    HW2 2496   1.000   0.027   3.107 -0.7387 -4.0717  0.1130
  833SOL     OW 2497   1.434   0.759   2.190 -0.2144 -0.1529  0.2856
  833SOL    HW1 2498   1.485   0.785   2.103 -2.1922 -2.6176  0.4239
  833SOL    HW2 2499   1.378   0.846   2.210  1.2155 -0.1884 -1.6692
  834SOL     OW 2500   0.052   0.777   1.361  0.5045  0.2531 -0.0415
  834SOL    HW1 2501   0.119   0.752   1.282  0.7212 -2.9403 -0.2809
  834SOL    HW2 2502   0.096   0.785   1.450  1.8202 -1.8513  0.0503
  835SOL     OW 2503   2.887   0.396   1.453 -0.4242 -0.1785 -0.3909
  835SOL    HW1 2504   2.788   0.421   1.458  1.7830  0.0605 -1.1171
  835SOL    HW2 2505   2.915   0.324   1.519 -1.8518  1.2099 -5.1811
  836SOL     OW 2506   0.524   2.048   0.424  0.6475 -0.3975  0.0086
  836SOL    HW1 2507   0.616   2.014   0.457  1.8432  3.7780  1.5800
  836SOL    HW2 2508   0.542   2.125   0.361  0.9318 -0.4724 -1.8911
  837SOL     OW 2509   1.889   1.800   2.319 -0.5990  0.3231 -0.0641
  837SOL    HW1 2510   1.947   1.873   2.370  2.4095  0.0503  1.4737
  837SOL    HW2 2511   1.877   1.718   2.382  0.5818 -1.8814 -0.7461
  838SOL     OW 2512   0.098   1.272   1.821  0.0738 -0.1626  0.2940
  838SOL    HW1 2513   0.106   1.310   1.915 -0.8762  0.0627  0.4010
  838SOL    HW2 2514   0.062   1.336   1.756 -0.0139 -1.8963  0.0394
  839SOL     OW 2515   0.440   0.545   0.847 -0.0362 -0.1241  0.5113
  839SOL    HW1 2516   0.371   0.484   0.891 -0.6580 -0.9248 -1.3832
  839SOL    HW2 2517   0.503   0.582   0.918  1.3816 -2.9940  4.2075
  840SOL     OW 2518   2.834   0.275   2.585  0.3475  0.2769  0.1446
  840SOL    HW1 2519   2.865   0.179   2.603 -1.5970  2.2515 -2.1514
  840SOL    HW2 2520   2.771   0.312   2.661 -0.3992 -1.9837 -0.3831
  841SOL     OW 2521   0.649   2.698   3.109 -0.2029  0.2532 -0.4509
  841SOL    HW1 2522   0.728   2.667   3.052 -1.1231 -0.1735  0.1424
  841SOL    HW2 2523   0.688   2.720   0.085 -0.4889  1.0617  3.9370
  842SOL     OW 2524   0.590   3.087   1.187  0.4954  0.3359  0.2556
  842SOL    HW1 2525   0.572   0.036   1.115 -0.7840 -0.3559  2.6984
  842SOL    HW2 2526   0.622   3.003   1.143 -1.0342 -0.2818  0.1860
  843SOL     OW 2527   0.149   0.950   0.106 -0.6282  0.3203  0.0902
  843SOL    HW1 2528   0.080   0.901   0.164 -1.7052  1.9161 -0.0759
  843SOL    HW2 2529   0.235   0.961   0.151 -2.0880 -0.0462 -2.5404
  844SOL     OW 2530   1.187   2.510   2.631  0.0674 -0.0066  0.0697
  844SOL    HW1 2531   1.198   2.409   2.643  0.2450  0.1233  1.3823
  844SOL    HW2 2532   1.150   2.531   2.541  2.6314 -1.4306  0.7483
  845SOL     OW 2533   2.292   2.869   2.652 -0.1159  0.4850  0.5088
  845SOL    HW1 2534   2.350   2.937   2.698  1.7450  0.8224 -1.7087
  845SOL    HW2 2535   2.340   2.865   2.560  0.9324 -1.0012 -0.9824
  846SOL     OW 2536   2.040   1.529   2.384  0.4727 -0.8617 -0.1539
  846SOL    HW1 2537   2.089   1.487   2.304 -1.6564 -0.6025 -1.9535
  846SOL    HW2 2538   2.113   1.542   2.457  2.9604 -0.0451  2.2624
  847SOL     OW 2539   2.821   2.834   2.942 -0.1999  0.8256  0.1761
  847SOL    HW1 2540   2.750   2.853   3.017 -1.1949  1.6321  1.0861
  847SOL    HW2 2541   2.900   2.896   2.957  1.4307  0.4508 -1.2387
  848SOL     OW 2542   0.290   0.461   0.384  0.0085  0.3010 -0.0379
  848SOL    HW1 2543   0.213   0.505   0.338 -0.1373 -0.3251  1.1383
  848SOL    HW2 2544   0.365   0.525   0.411 -0.7656 -2.6077 -0.3607
  849SOL     OW 2545   1.479   3.037   2.190 -0.6795  0.2305 -0.0423
  849SOL    HW1 2546   1.572   3.076   2.205  1.2041 -1.0197 -1.5118
  849SOL    HW2 2547   1.427   3.019   2.273  1.5642 -0.6173 -4.2277
  850SOL     OW 2548   0.800   1.040   0.644 -0.2944  0.2406  0.3710
  850SOL    HW1 2549   0.855   1.000   0.568 -1.6001  0.3484  2.8491
  850SOL    HW2 2550   0.844   1.023   0.737 -0.1416 -1.8692 -0.7658
  851SOL     OW 2551   0.364   1.256   0.113 -0.0107  0.1152  0.3002
  851SOL    HW1 2552   0.434   1.286   0.182 -2.4083  0.5046  2.4523
  851SOL    HW2 2553   0.283   1.211   0.154 -1.1109  1.7288  0.4684
  852SOL     OW 2554   1.359   0.282   2.110  0.8701 -0.1707  0.2806
  852SOL    HW1 2555   1.330   0.227   2.033  0.5012  1.4971  0.7293
  852SOL    HW2 2556   1.433   0.347   2.080 -2.1031 -1.8565  2.5272
  853SOL     OW 2557   2.741   1.319   0.413 -0.4858 -0.1656  0.2255
  853SOL    HW1 2558   2.804   1.337   0.493  1.5235  0.5338  3.2206
  853SOL    HW2 2559   2.742   1.392   0.341  2.1806  0.7629 -0.1681
  854SOL     OW 2560   1.140   1.167   2.254  0.1085 -0.7234 -0.4292
  854SOL    HW1 2561   1.080   1.141   2.326 -1.1945  0.7423 -2.1895
  854SOL    HW2 2562   1.199   1.239   2.290 -0.8977  0.1988  0.3834
  855SOL     OW 2563   0.103   2.787   2.940  0.0667  0.1416  0.4733
  855SOL    HW1 2564   0.184   2.830   2.986  0.4210  0.3893 -2.6530
  855SOL    HW2 2565   0.076   2.702   2.995  1.5816 -0.2777  2.1837
  856SOL     OW 2566   1.378   1.045   2.470  0.4947  0.3620  0.1627
  856SOL    HW1 2567   1.388   1.058   2.369 -1.0021  0.0239 -0.7225
  856SOL    HW2 2568   1.334   0.956   2.490 -1.5942  1.2895  0.2121
  857SOL     OW 2569   1.294   0.786   2.535 -0.4048  0.3111  0.5905
  857SOL    HW1 2570   1.379   0.758   2.478  1.5122  0.4645  2.4089
  857SOL    HW2 2571   1.222   0.714   2.528  2.1267  1.6753 -0.3232
  858SOL     OW 2572   2.727   1.125   2.119  0.1406  0.5510  0.1674
  858SOL    HW1 2573   2.649   1.188   2.126  1.2846 -0.7125  1.5151
  858SOL    HW2 2574   2.807   1.175   2.151 -2.8616 -1.1284 -3.0935
  859SOL     OW 2575   2.344   0.367   0.839 -0.6569  0.0090 -0.4327
  859SOL    HW1 2576   2.441   0.359   0.865 -2.2489  3.0540  0.4950
  859SOL    HW2 2577   2.328   0.332   0.747 -2.7557 -0.8789 -0.1735
  860SOL     OW 2578   1.753   3.083   0.253 -0.1725  0.0720 -0.3324
  860SOL    HW1 2579   1.810   0.037   0.299  1.7879  0.4026 -0.8726
  860SOL    HW2 2580   1.816   3.015   0.210  0.3189 -0.8890  0.5047
  861SOL     OW 2581   1.140   0.547   1.296  0.0604  0.1208 -0.5835
  861SOL    HW1 2582   1.169   0.451   1.309 -1.3609  1.1189 -0.4274
  861SOL    HW2 2583   1.052   0.553   1.342  2.2608 -0.7253 -0.3361
  862SOL     OW 2584   1.530   0.148   2.480  0.6214  0.3395 -0.5688
  862SOL    HW1 2585   1.551   0.047   2.503  0.0292 -0.5760  1.1945
  862SOL    HW2 2586   1.430   0.164   2.456 -0.7504  1.2080 -0.4522
  863SOL     OW 2587   2.625   2.424   0.685 -0.2543  0.1251  0.0340
  863SOL    HW1 2588   2.527   2.394   0.700 -1.2265 -1.7228  0.9646
  863SOL    HW2 2589   2.634   2.426   0.583 -2.5523 -2.4314 -0.6791
  864SOL     OW 2590   2.430   0.241   2.079 -0.6661 -0.0136  0.3897
  864SOL    HW1 2591   2.433   0.265   2.179 -1.5613  0.6222 -1.4855
  864SOL    HW2 2592   2.513   0.181   2.063  0.0880 -0.1508 -1.1082
  865SOL     OW 2593   1.429   1.245   2.029  0.6647  0.2965 -0.4374
  865SOL    HW1 2594   1.344   1.270   1.983  0.6533  0.5696  0.4155
  865SOL    HW2 2595   1.501   1.221   1.961  0.2239 -0.1843 -0.1334
  866SOL     OW 2596   1.670   2.721   0.903  0.1640 -0.2911 -0.1801
  866SOL    HW1 2597   1.664   2.627   0.919 -0.3446  2.3539 -1.8033
  866SOL    HW2 2598   1.591   2.769   0.950  0.4901 -1.9436 -0.2400
  867SOL     OW 2599   2.340   3.023   0.489 -0.1289  0.5029  0.3711
  867SOL    HW1 2600   2.350   3.031   0.589 -1.1726 -0.1945 -3.1549
  867SOL    HW2 2601   2.318   3.111   0.446  3.5043  0.8637  1.6270
  868SOL     OW 2602   0.177   2.239   1.999 -0.2498  0.1574 -0.0790
  868SOL    HW1 2603   0.184   2.275   1.905  1.3931 -0.9508  0.9038
  868SOL    HW2 2604   0.158   2.312   2.063  0.7583  0.8880 -0.2656
  869SOL     OW 2605   2.061   2.315   2.124  0.3538 -0.2139 -0.3973
  869SOL    HW1 2606   1.978   2.262   2.109  3.9520 -1.4451 -2.1802
  869SOL    HW2 2607   2.104   2.286   2.209 -0.8599  1.0938 -3.7703
  870SOL     OW 2608   1.504   1.551   0.930 -0.2844 -0.0438 -0.2067
  870SOL    HW1 2609   1.511   1.568   0.827 -0.9395 -1.3445 -4.7095
  870SOL    HW2 2610   1.562   1.467   0.955  0.5992 -2.3412  1.6465
  871SOL     OW 2611   3.085   1.883   1.678  0.0889 -0.0351 -0.4043
  871SOL    HW1 2612   0.062   1.880   1.719  0.9845 -1.7717 -0.8515
  871SOL    HW2 2613   3.025   1.805   1.708 -2.1036 -1.0218  2.1055
  872SOL     OW 2614   0.723   1.829   2.475  0.3075 -0.2096 -0.1969
  872SOL    HW1 2615   0.796   1.834   2.547 -0.1094 -0.6278  0.1623
  872SOL    HW2 2616   0.727   1.922   2.432 -0.0955  0.0785  2.0723
  873SOL     OW 2617   0.749   1.566   2.029  0.2927 -0.0446  0.3369
  873SOL    HW1 2618   0.790   1.661   2.034  1.4778 -0.6788 -1.2589
  873SOL    HW2 2619   0.786   1.506   2.104 -1.0829 -2.2138  1.4815
  874SOL     OW 2620   1.554   0.845   1.976 -0.0846  0.0169 -0.8731
  874SOL    HW1 2621   1.617   0.791   1.914 -2.8936  1.5648 -0.9601
  874SOL    HW2 2622   1.609   0.907   2.037  2.6845  0.2597  1.1800
  875SOL     OW 2623   2.936   0.011   0.170  0.4047 -0.6318 -0.1992
  875SOL    HW1 2624   3.006   3.057   0.176 -0.7475 -0.4374  0.3847
  875SOL    HW2 2625   2.918   0.063   0.260 -0.7649  0.9524  2.7065
  876SOL     OW 2626   0.841   1.227   0.257  0.1770 -0.2648 -0.2610
  876SOL    HW1 2627   0.830   1.129   0.271 -2.1144 -0.1958 -1.3946
  876SOL    HW2 2628   0.869   1.256   0.165  0.7101  0.7489 -1.9032
  877SOL     OW 2629   2.583   2.841   0.722 -0.0521 -0.1260  0.1743
  877SOL    HW1 2630   2.563   2.785   0.643  0.7359  3.2153  0.5732
  877SOL    HW2 2631   2.502   2.899   0.753 -1.7475  4.3181 -0.6315
  878SOL     OW 2632   1.759   1.759   0.669 -0.6158 -0.3811  0.5316
  878SOL    HW1 2633   1.802   1.825   0.609  0.3470  0.3441  0.8207
  878SOL    HW2 2634   1.818   1.698   0.722 -3.0181  0.3846  0.3214
  879SOL     OW 2635   2.467   1.712   1.226  0.4961 -0.0318  0.3438
  879SOL    HW1 2636   2.416   1.637   1.185 -0.5713  0.4239  2.1335
  879SOL    HW2 2637   2.543   1.748   1.172 -1.9746 -0.0625 -0.8956
  880SOL     OW 2638   0.459   2.046   0.810 -0.1695 -0.5825 -0.5435
  880SOL    HW1 2639   0.483   2.015   0.902  1.4144 -0.9339  0.6681
  880SOL    HW2 2640   0.471   1.974   0.744  1.7735 -0.3625  1.0603
  881SOL     OW 2641   0.620   0.680   1.008  0.5279  0.0845 -0.5070
  881SOL    HW1 2642   0.645   0.778   1.037  1.2435  0.3326  1.1426
  881SOL    HW2 2643   0.677   0.650   0.928 -1.6060 -0.7197  1.0809
  882SOL     OW 2644   2.532   1.184   0.973  0.0745  0.3106  0.0639
  882SOL    HW1 2645   2.453   1.132   1.015  1.7134  0.8852  1.6773
  882SOL    HW2 2646   2.573   1.123   0.901  3.1281  2.0439  1.0652
  883SOL     OW 2647   1.736   0.267   1.932  0.0427 -0.6499 -0.1027
  883SOL    HW1 2648   1.784   0.193   1.980 -1.3761 -2.1783 -1.9545
  883SOL    HW2 2649   1.704   0.219   1.845  0.6696  0.1045 -0.5850
  884SOL     OW 2650   2.956   0.245   1.675  0.7708  0.5960  0.6085
  884SOL    HW1 2651   3.039   0.258   1.734  1.8440 -2.8263  0.0172
  884SOL    HW2 2652   2.871   0.276   1.728 -2.3729  0.4637  2.3817
  885SOL     OW 2653   1.284   1.279   2.854  0.0760 -0.2337  0.2363
  885SOL    HW1 2654   1.182   1.282   2.843 -0.2857 -0.4550  2.2152
  885SOL    HW2 2655   1.321   1.369   2.884  0.5761  0.1527  0.0326
  886SOL     OW 2656   1.963   0.304   2.964 -0.5389  0.3242  0.2020
  886SOL    HW1 2657   1.872   0.273   2.981  1.7786  3.1689 -0.1306
  886SOL    HW2 2658   2.014   0.325   3.047 -0.4500  0.9845 -2.1404
  887SOL     OW 2659   1.690   0.118   1.703 -0.9063 -0.1957 -0.2495
  887SOL    HW1 2660   1.654   0.181   1.635 -0.1192  0.1080  4.0360
  887SOL    HW2 2661   1.724   0.029   1.664  2.3696  1.2226  0.6350
  888SOL     OW 2662   2.088   1.801   1.879 -0.0612 -0.1250 -0.1093
  888SOL    HW1 2663   2.066   1.705   1.894  2.1454 -2.3689 -0.3520
  888SOL    HW2 2664   2.150   1.832   1.956  1.0483  1.8505  2.3288
  889SOL     OW 2665   1.847   2.193   0.501  0.8568  0.1235 -0.1109
  889SOL    HW1 2666   1.804   2.184   0.412  0.7828 -1.9477  0.6937
  889SOL    HW2 2667   1.945   2.221   0.490 -2.9084 -2.9735  0.9846
  890SOL     OW 2668   1.117   1.951   0.437  0.2902  1.1587 -0.2204
  890SOL    HW1 2669   1.116   1.884   0.513  3.4542 -0.4184 -1.0545
  890SOL    HW2 2670   1.205   1.999   0.436  0.6719 -1.9856 -1.0850
  891SOL     OW 2671   2.834   0.923   0.046  0.1159  0.2510  0.3164
  891SOL    HW1 2672   2.883   0.874   0.121 -1.6415  1.1982  1.6994
  891SOL    HW2 2673   2.763   0.985   0.085 -1.0665  0.7152 -0.9676
  892SOL     OW 2674   1.627   0.613   2.650 -0.4517 -0.0661 -0.5371
  892SOL    HW1 2675   1.626   0.525   2.704 -1.7588 -2.7888 -3.4421
  892SOL    HW2 2676   1.554   0.609   2.583  2.0754 -0.2165  3.6065
  893SOL     OW 2677   1.395   2.829   1.663  0.3697  0.5751 -0.2972
  893SOL    HW1 2678   1.299   2.843   1.638  0.9961 -1.8917 -0.6004
  893SOL    HW2 2679   1.445   2.913   1.685 -3.3714 -3.2637  1.5977
  894SOL     OW 2680   2.876   3.046   0.529 -0.7182 -0.1775  1.1375
  894SOL    HW1 2681   2.932   2.972   0.482  1.8996 -2.4780 -2.2248
  894SOL    HW2 2682   2.864   3.039   0.628 -0.5490 -2.0176  0.7797
  895SOL     OW 2683   2.090   2.183   3.011 -0.2072  0.3519 -0.1846
  895SOL    HW1 2684   2.100   2.259   3.079 -0.8469  0.4566 -3.2933
  895SOL    HW2 2685   2.185   2.146   2.984  2.1914  4.0969  0.0249
  896SOL     OW 2686   2.186   0.069   2.379 -0.5221 -0.2474 -0.9078
  896SOL    HW1 2687   2.178   0.127   2.464  0.3925  4.5535  0.3638
  896SOL    HW2 2688   2.167   0.118   2.292 -0.1854  2.0755  1.1230
  897SOL     OW 2689   0.402   1.667   1.797  0.3296 -0.0434  0.1950
  897SOL    HW1 2690   0.422   1.643   1.897  0.5052 -0.5066  1.1840
  897SOL    HW2 2691   0.489   1.678   1.742  0.0287 -0.0725  1.7594
  898SOL     OW 2692   2.273   1.675   1.648 -0.6381 -0.7208  0.1014
  898SOL    HW1 2693   2.183   1.713   1.613 -1.4917 -0.1304 -0.3814
  898SOL    HW2 2694   2.348   1.703   1.585  2.5642  3.6484 -1.6875
  899SOL     OW 2695   1.604   2.449   1.078  0.2484 -0.4251  0.0164
  899SOL    HW1 2696   1.514   2.474   1.038  1.1156 -2.4468  2.2830
  899SOL    HW2 2697   1.618   2.507   1.162 -0.4242 -0.6920  2.0474
  900SOL     OW 2698   1.246   0.644   0.000  0.0299 -0.0093  0.3366
  900SOL    HW1 2699   1.336   0.609   3.080  0.9296  2.6875 -0.8258
  900SOL    HW2 2700   1.258   0.747   0.002  0.6049  0.9761 -0.8055
  901SOL     OW 2701   1.405   1.676   2.548  0.0812  0.4653  0.1869
  901SOL    HW1 2702   1.456   1.651   2.463  1.8791  0.4408  1.9079
  901SOL    HW2 2703   1.306   1.669   2.530 -1.9530  0.0270  0.4160
  902SOL     OW 2704   0.010   2.540   3.075 -0.4798  0.0339  0.1035
  902SOL    HW1 2705   0.013   2.554   0.059 -2.1547 -2.9107  0.1744
  902SOL    HW2 2706   0.071   2.459   3.049  1.1498 -2.8941  0.6408
  903SOL     OW 2707   2.382   0.881   2.028 -0.0855  0.0132  0.1817
  903SOL    HW1 2708   2.360   0.785   2.011 -0.4694  2.7021  0.8561
  903SOL    HW2 2709   2.482   0.904   2.043  0.7947 -0.3710  1.5124
  904SOL     OW 2710   1.608   0.418   2.848 -0.4710 -0.3963  0.0525
  904SOL    HW1 2711   1.554   0.338   2.808 -3.0613  0.7937 -2.9436
  904SOL    HW2 2712   1.694   0.382   2.892  3.2461  1.6315  0.6271
  905SOL     OW 2713   2.126   2.440   0.975 -0.2508 -0.6177 -0.3111
  905SOL    HW1 2714   2.168   2.527   0.939 -0.2836 -2.3281 -0.9954
  905SOL    HW2 2715   2.141   2.370   0.903 -0.0772  3.2907  0.4931
  906SOL     OW 2716   1.544   1.946   0.121  0.4098 -0.2485 -0.1448
  906SOL    HW1 2717   1.458   1.918   0.171 -2.0483 -0.4447 -0.2775
  906SOL    HW2 2718   1.525   2.009   0.041  1.0538  2.0408 -1.0300
  907SOL     OW 2719   0.769   2.742   0.721 -0.0620 -0.1731 -0.0585
  907SOL    HW1 2720   0.681   2.747   0.775 -2.6630 -0.1596  0.8070
  907SOL    HW2 2721   0.761   2.681   0.638  2.9309  0.7252 -2.0458
  908SOL     OW 2722   1.332   2.722   1.964 -0.0219  0.3693  0.2051
  908SOL    HW1 2723   1.309   2.638   1.911  0.5218 -0.2612 -1.4067
  908SOL    HW2 2724   1.428   2.754   1.960 -1.0384  3.4249  1.2640
  909SOL     OW 2725   1.843   0.493   1.242 -0.0624 -0.4656 -0.1407
  909SOL    HW1 2726   1.901   0.572   1.272  0.3752 -1.6238 -0.3447
  909SOL    HW2 2727   1.891   0.438   1.174 -1.3226  2.0758  2.0107
  910SOL     OW 2728   1.252   0.912   3.069 -0.4931 -0.8889 -0.2229
  910SOL    HW1 2729   1.176   0.974   3.100 -0.1170 -0.7008 -0.4221
  910SOL    HW2 2730   1.269   0.906   2.967  0.0448  0.8070 -2.8961
  911SOL     OW 2731   2.970   0.822   0.248 -0.5747 -0.1888 -0.2201
  911SOL    HW1 2732   2.941   0.735   0.289  0.7324  2.5141 -0.1559
  911SOL    HW2 2733   2.980   0.891   0.327 -2.0093  1.9455 -0.6220
  912SOL     OW 2734   0.115   2.190   0.050  0.1955 -0.2096 -0.7315
  912SOL    HW1 2735   0.217   2.190   0.043  0.7433 -1.9844 -1.3395
  912SOL    HW2 2736   0.094   2.214   0.142  1.3389  0.1150 -0.5513
  913SOL     OW 2737   2.616   2.020   2.724  0.9116  0.4113  0.5266
  913SOL    HW1 2738   2.673   2.030   2.805 -0.0793  1.3603 -1.5037
  913SOL    HW2 2739   2.649   2.091   2.659  2.4015  4.3095  0.6043
  914SOL     OW 2740   1.424   1.935   1.532  0.2482 -0.0505 -0.2587
  914SOL    HW1 2741   1.419   1.873   1.455  0.0008 -0.2033  1.5136
  914SOL    HW2 2742   1.506   1.929   1.592  2.1166  1.6170  3.0523
  915SOL     OW 2743   0.568   2.773   2.169 -0.1506 -0.3747 -0.0256
  915SOL    HW1 2744   0.544   2.838   2.097  0.5119 -0.0794  1.1298
  915SOL    HW2 2745   0.585   2.819   2.258  0.2409 -4.3252 -1.7638
  916SOL     OW 2746   0.675   1.196   1.772  0.2510 -0.1818 -0.6769
  916SOL    HW1 2747   0.755   1.134   1.782 -2.2288 -1.4076  0.5587
  916SOL    HW2 2748   0.604   1.150   1.716  0.4381 -0.8114 -0.3387
  917SOL     OW 2749   2.486   0.295   0.568 -0.2636 -0.0197  0.0133
  917SOL    HW1 2750   2.484   0.257   0.475 -0.6031 -1.0329 -0.1835
  917SOL    HW2 2751   2.581   0.299   0.612 -2.1515 -2.1115  0.8979
  918SOL     OW 2752   1.725   2.637   2.155 -0.1042  0.0903  0.2182
  918SOL    HW1 2753   1.653   2.590   2.205 -1.1888 -1.7622 -2.3554
  918SOL    HW2 2754   1.803   2.659   2.214 -4.0000 -0.0271 -0.1377
  919SOL     OW 2755   1.472   2.557   1.657  0.3782 -0.0581  0.1602
  919SOL    HW1 2756   1.463   2.651   1.623 -0.2874 -1.9488  0.4507
  919SOL    HW2 2757   1.390   2.543   1.712 -0.3978 -0.9744 -1.9110
  920SOL     OW 2758   0.778   1.016   2.791 -0.1704 -0.3314 -0.4388
  920SOL    HW1 2759   0.732   1.073   2.714  1.5991  1.6130 -2.1376
  920SOL    HW2 2760   0.696   0.979   2.846 -1.6946  0.9653  0.4428
  921SOL     OW 2761   0.011   0.397   2.832 -0.1218 -0.0148  0.1252
  921SOL    HW1 2762   3.072   0.438   2.756 -2.0362 -1.7574 -1.1045
  921SOL    HW2 2763   0.102   0.369   2.800  0.2179  0.8428  0.3312
  922SOL     OW 2764   0.771   1.757   1.088  0.3836  0.1931 -0.2370
  922SOL    HW1 2765   0.696   1.736   1.025  0.6010 -1.8003  1.1060
  922SOL    HW2 2766   0.765   1.860   1.105 -0.5221  1.4150  0.4432
  923SOL     OW 2767   0.742   1.172   2.067 -0.2668  0.0918  0.0547
  923SOL    HW1 2768   0.732   1.077   2.041  0.2497  3.6447 -1.0127
  923SOL    HW2 2769   0.698   1.235   1.999 -0.4101  1.6554 -0.5537
  924SOL     OW 2770   1.398   0.016   2.918  0.0391  0.6965 -0.1042
  924SOL    HW1 2771   1.362   3.039   2.916  2.2606 -0.8218 -4.2688
  924SOL    HW2 2772   1.331   0.067   2.868  1.3059  0.2566  3.1694
  925SOL     OW 2773   2.751   1.538   1.580  0.0325 -0.1353  0.0750
  925SOL    HW1 2774   2.722   1.474   1.654 -0.1583 -1.1845  2.3885
  925SOL    HW2 2775   2.807   1.487   1.516 -1.9174  0.3039 -0.9200
  926SOL     OW 2776   1.818   0.977   1.664  0.2584 -0.4283 -0.5968
  926SOL    HW1 2777   1.729   1.016   1.624 -4.4125 -1.6158 -2.4637
  926SOL    HW2 2778   1.896   0.980   1.601 -1.6070  1.2608  2.6499
  927SOL     OW 2779   2.088   2.919   1.121  0.8542  0.2876 -0.1955
  927SOL    HW1 2780   2.130   2.862   1.193  1.0079  1.1726  0.3464
  927SOL    HW2 2781   2.150   2.965   1.055 -4.0733  0.6068  1.3604
  928SOL     OW 2782   0.418   1.076   2.123 -0.4912  0.3908 -0.2856
  928SOL    HW1 2783   0.374   1.153   2.174  0.8954  1.6191  0.1924
  928SOL    HW2 2784   0.369   1.047   2.037  0.8329  0.3328 -2.2115
  929SOL     OW 2785   2.668   0.550   0.967  0.6430 -0.5283  0.1262
  929SOL    HW1 2786   2.624   0.459   0.963  1.6668  1.7457 -0.8289
  929SOL    HW2 2787   2.662   0.584   1.065 -3.2038  1.7311  0.1556
  930SOL     OW 2788   2.800   2.748   1.665 -0.6137  0.1611 -0.2793
  930SOL    HW1 2789   2.711   2.697   1.688 -0.5655  0.3702 -1.4360
  930SOL    HW2 2790   2.882   2.704   1.707  0.4035 -2.0379 -1.9988
  931SOL     OW 2791   1.674   0.873   0.774  0.0195  0.7000  0.0072
  931SOL    HW1 2792   1.626   0.810   0.841 -0.2403 -3.0028 -0.1817
  931SOL    HW2 2793   1.753   0.907   0.821  0.0472 -1.1758 -0.2606
  932SOL     OW 2794   2.703   1.317   1.764  0.7183 -0.3284  0.0106
  932SOL    HW1 2795   2.695   1.214   1.780 -0.5380 -0.6802 -0.7969
  932SOL    HW2 2796   2.783   1.353   1.821  0.4566  2.3982  0.1108
  933SOL     OW 2797   2.797   2.408   1.630  0.7976 -0.2180  0.0998
  933SOL    HW1 2798   2.768   2.381   1.725  2.7833  0.7247  2.0219
  933SOL    HW2 2799   2.726   2.383   1.565  2.9714  0.2894  0.5057
  934SOL     OW 2800   0.688   2.036   1.449 -0.5034  0.8324 -0.0014
  934SOL    HW1 2801   0.761   1.992   1.506  0.3844  0.1566 -2.6105
  934SOL    HW2 2802   0.598   1.984   1.454  1.9368 -2.2552  3.0410
  935SOL     OW 2803   2.634   1.707   1.960  0.5654 -0.5022 -0.0067
  935SOL    HW1 2804   2.541   1.677   1.921 -3.4539  1.8336 -1.0807
  935SOL    HW2 2805   2.672   1.777   1.892 -0.0156 -0.8162 -0.2726
  936SOL     OW 2806   2.356   1.629   1.901  0.7687 -0.1477  0.0182
  936SOL    HW1 2807   2.308   1.644   1.808  0.1240 -1.0783 -0.8695
  936SOL    HW2 2808   2.346   1.712   1.963  0.6590  3.1958  3.5909
  937SOL     OW 2809   1.813   1.075   1.909  0.2026  0.2624  0.0059
  937SOL    HW1 2810   1.788   1.005   1.982 -0.1817  3.8609  1.8032
  937SOL    HW2 2811   1.809   1.035   1.817  1.2496  0.2586  3.7575
  938SOL     OW 2812   0.895   2.643   2.644  0.6149 -0.0810 -0.3478
  938SOL    HW1 2813   0.972   2.705   2.642 -3.3446 -0.6073  0.1918
  938SOL    HW2 2814   0.865   2.640   2.745 -0.4868 -0.0757  3.8127
  939SOL     OW 2815   2.427   1.230   3.040 -0.2218  0.2265  0.1939
  939SOL    HW1 2816   2.338   1.238   3.086 -0.4714 -0.9308 -1.6361
  939SOL    HW2 2817   2.431   1.140   2.996  0.1203  0.2723 -3.6809
  940SOL     OW 2818   1.227   1.753   0.608  0.0910  0.8489  0.1934
  940SOL    HW1 2819   1.304   1.720   0.554  1.3493  1.8564 -0.2563
  940SOL    HW2 2820   1.263   1.801   0.695  2.9040  1.0857  0.8562
  941SOL     OW 2821   1.672   2.773   2.799 -0.1734 -0.4706 -0.2874
  941SOL    HW1 2822   1.672   2.875   2.819 -2.9719  1.0218 -2.1448
  941SOL    HW2 2823   1.710   2.712   2.877 -0.1741  0.2057  1.4005
  942SOL     OW 2824   0.895   2.381   0.450 -0.0788 -0.4436  0.0138
  942SOL    HW1 2825   0.803   2.431   0.448  0.4885 -0.8159  0.6736
  942SOL    HW2 2826   0.964   2.417   0.516 -1.1470  2.0503  1.8464
  943SOL     OW 2827   1.936   0.468   1.871  0.4188 -0.3232  0.1384
  943SOL    HW1 2828   1.899   0.377   1.844  0.8695 -1.7839  4.1919
  943SOL    HW2 2829   1.869   0.510   1.933 -1.8234 -1.9419 -0.1065
  944SOL     OW 2830   1.016   1.349   2.838  0.2276  0.5386 -0.0885
  944SOL    HW1 2831   1.004   1.445   2.860  1.3089  0.0757 -0.8590
  944SOL    HW2 2832   0.980   1.337   2.743  0.6751 -0.6363 -0.0282
  945SOL     OW 2833   3.022   2.238   1.106  0.3766  0.0551 -0.2712
  945SOL    HW1 2834   2.958   2.308   1.144  1.2070  1.9509 -1.6016
  945SOL    HW2 2835   2.986   2.150   1.081  2.6452 -0.5324 -1.8246
  946SOL     OW 2836   0.629   1.155   2.610 -0.1021 -0.0955  0.2645
  946SOL    HW1 2837   0.677   1.203   2.532  1.0622  2.9635  0.5717
  946SOL    HW2 2838   0.547   1.106   2.576  1.1746  1.2870  0.0845
  947SOL     OW 2839   2.559   0.140   1.691 -0.0165  0.2158  0.5220
  947SOL    HW1 2840   2.472   0.093   1.710  1.6503  1.6062  1.7203
  947SOL    HW2 2841   2.625   0.071   1.662  0.5425  0.5030  1.4257
  948SOL     OW 2842   0.063   1.951   0.957 -0.6460  0.0980  0.3099
  948SOL    HW1 2843   0.084   1.905   1.046 -0.8271  1.7379  0.0749
  948SOL    HW2 2844   3.083   1.943   0.940  2.0294  0.0703  0.0135
  949SOL     OW 2845   1.267   1.174   1.650 -0.2846  0.1534  0.2428
  949SOL    HW1 2846   1.174   1.131   1.643  0.3893 -1.1412  0.8423
  949SOL    HW2 2847   1.273   1.230   1.733  0.5315 -1.6208  0.3925
  950SOL     OW 2848   0.216   0.929   1.110  0.0374 -0.0357  0.1635
  950SOL    HW1 2849   0.182   0.858   1.042 -1.2341 -0.8644 -1.4774
  950SOL    HW2 2850   0.302   0.964   1.063 -1.3872 -0.6952 -1.8060
  951SOL     OW 2851   0.368   1.884   2.244  0.0059  0.7301  0.4848
  951SOL    HW1 2852   0.314   1.969   2.267 -1.6288  0.2227  2.1008
  951SOL    HW2 2853   0.450   1.905   2.189 -4.1930 -4.9246 -0.1896
  952SOL     OW 2854   1.319   1.829   0.236 -1.5183  0.0130  0.0825
  952SOL    HW1 2855   1.239   1.870   0.277  0.6182 -3.1130 -0.6377
  952SOL    HW2 2856   1.295   1.786   0.147 -2.4175 -0.0222  0.9340
  953SOL     OW 2857   1.006   0.589   0.110 -0.4822 -0.5864 -0.4265
  953SOL    HW1 2858   1.103   0.587   0.076  0.7378  0.0903 -1.5630
  953SOL    HW2 2859   0.955   0.659   0.057  0.5445 -4.0651  0.6391
  954SOL     OW 2860   1.746   1.160   0.357 -0.1467 -0.2288  0.1721
  954SOL    HW1 2861   1.771   1.252   0.391 -0.5175 -1.1398 -1.9212
  954SOL    HW2 2862   1.653   1.137   0.382  1.4368  2.6383  1.1539
  955SOL     OW 2863   2.454   1.702   0.070 -0.2012 -0.4765  0.3100
  955SOL    HW1 2864   2.486   1.618   0.021  0.5192 -2.6222 -1.4812
  955SOL    HW2 2865   2.398   1.755   0.006 -1.7101 -0.1555 -2.6487
  956SOL     OW 2866   1.093   0.758   1.826 -0.1065 -0.1936 -0.2400
  956SOL    HW1 2867   1.137   0.842   1.798 -1.2456 -1.0676 -1.1931
  956SOL    HW2 2868   1.128   0.729   1.914  0.6531  1.5322  2.6868
  957SOL     OW 2869   1.561   0.988   1.412 -0.0233  0.1330  0.3816
  957SOL    HW1 2870   1.493   1.064   1.405 -2.3659  1.8916  1.0586
  957SOL    HW2 2871   1.514   0.919   1.470 -0.7283 -0.2999  1.0935
  958SOL     OW 2872   0.483   1.746   0.688 -0.6429 -0.3889 -0.0926
  958SOL    HW1 2873   0.407   1.677   0.691 -1.1115 -2.1005 -0.8449
  958SOL    HW2 2874   0.535   1.738   0.600  5.4491 -0.3653 -1.4420
  959SOL     OW 2875   1.805   1.405   1.471 -0.0609 -0.0756 -0.2374
  959SOL    HW1 2876   1.888   1.386   1.534  2.8118  0.6199  3.3533
  959SOL    HW2 2877   1.824   1.468   1.395  0.1943  2.7899  2.9217
  960SOL     OW 2878   3.028   1.523   2.836  0.3177  0.0595  0.1001
  960SOL    HW1 2879   3.030   1.532   2.938  1.6328 -2.5215 -1.8044
  960SOL    HW2 2880   0.000   1.532   2.794  1.5000 -1.2218  1.0783
  961SOL     OW 2881   1.014   1.377   0.928 -0.3752  0.4432  0.1969
  961SOL    HW1 2882   0.956   1.452   0.893 -1.4667  2.0609  0.4489
  961SOL    HW2 2883   1.104   1.408   0.962 -2.3956  0.6852  1.0936
  962SOL     OW 2884   0.767   0.760   0.451 -0.1150  0.5771 -0.7076
  962SOL    HW1 2885   0.848   0.698   0.444  2.0282 -1.6750 -0.9614
  962SOL    HW2 2886   0.772   0.798   0.547  1.6321  1.5241  1.4226
  963SOL     OW 2887   1.306   2.076   2.005  0.1110 -0.4351 -0.0564
  963SOL    HW1 2888   1.359   2.127   1.934 -3.0120  3.5907  1.3262
  963SOL    HW2 2889   1.366   2.026   2.069  2.7423  2.2072 -2.0617
  964SOL     OW 2890   3.098   2.861   2.698  0.2372 -0.2217  0.0616
  964SOL    HW1 2891   0.045   2.876   2.773  1.5283  2.1039  1.5539
  964SOL    HW2 2892   3.046   2.773   2.701  1.2802  0.0088  0.6093
  965SOL     OW 2893   0.781   2.412   0.218 -0.3253  0.1274  0.2633
  965SOL    HW1 2894   0.807   2.358   0.133 -0.7747  0.5296 -0.6771
  965SOL    HW2 2895   0.843   2.400   0.299  0.2669  0.9412  1.4780
  966SOL     OW 2896   3.099   1.803   3.052 -0.1023  0.0626 -0.0601
  966SOL    HW1 2897   3.016   1.842   3.094  0.0888  0.3223 -2.7433
  966SOL    HW2 2898   3.094   1.704   3.050  1.8392  2.0061 -0.9340
  967SOL     OW 2899   2.194   2.705   2.845 -0.4798 -0.6755  0.1041
  967SOL    HW1 2900   2.242   2.762   2.777  0.2710 -1.6445 -1.7503
  967SOL    HW2 2901   2.160   2.618   2.800 -0.5638  2.1295 -0.6252
  968SOL     OW 2902   2.070   2.866   0.430  0.3071 -0.2455 -0.1164
  968SOL    HW1 2903   2.168   2.884   0.423  0.3159 -1.7242 -0.0154
  968SOL    HW2 2904   2.038   2.897   0.524 -1.1128  2.7436  2.3043
  969SOL     OW 2905   0.701   1.197   2.330 -0.5050 -0.2576 -0.4227
  969SOL    HW1 2906   0.613   1.236   2.356  4.4238 -3.1370 -0.7698
  969SOL    HW2 2907   0.687   1.170   2.234  0.2474  0.6817 -0.2904
  970SOL     OW 2908   1.638   1.328   0.999  0.1924 -0.0433  0.4247
  970SOL    HW1 2909   1.712   1.265   1.022 -1.7696  1.0740 -0.5184
  970SOL    HW2 2910   1.551   1.280   0.977  1.1502 -0.8681 -0.6817
  971SOL     OW 2911   2.434   3.038   1.351 -0.5522  0.1956 -0.0746
  971SOL    HW1 2912   2.520   3.014   1.409  2.7933 -0.5306  2.1598
  971SOL    HW2 2913   2.457   3.021   1.255  0.2059  0.3625  0.2501
  972SOL     OW 2914   2.910   3.082   1.616 -0.0928  0.2370  0.4426
  972SOL    HW1 2915   2.858   3.042   1.695  2.9935 -0.2496 -0.4763
  972SOL    HW2 2916   2.952   0.055   1.647 -1.1691 -0.1356  3.8325
  973SOL     OW 2917   0.064   0.284   2.460 -0.7027 -0.1534  0.2764
  973SOL    HW1 2918   0.049   0.378   2.502  0.2041  2.5623 -2.1658
  973SOL    HW2 2919   0.060   0.209   2.533 -1.1299  1.9208  3.4457
  974SOL     OW 2920   2.287   1.201   2.162  0.2237 -0.1727  0.5187
  974SOL    HW1 2921   2.238   1.147   2.090 -0.8722  1.2649  2.6359
  974SOL    HW2 2922   2.376   1.238   2.129 -1.9026  3.7292 -0.1069
  975SOL     OW 2923   1.051   0.514   1.672  0.2040 -1.0310  0.1584
  975SOL    HW1 2924   1.107   0.593   1.708  1.0225 -0.9025 -0.5911
  975SOL    HW2 2925   1.010   0.535   1.583 -0.3166 -0.1162  0.2592
  976SOL     OW 2926   0.816   1.851   2.015 -0.2984  0.0524  0.1049
  976SOL    HW1 2927   0.798   1.906   1.930  2.7621  2.1879 -2.5950
  976SOL    HW2 2928   0.912   1.868   2.046 -3.2420 -0.5940 -1.1321
  977SOL     OW 2929   0.814   0.247   0.402  0.0983  0.1160 -0.3524
  977SOL    HW1 2930   0.842   0.262   0.308  1.5902 -1.9697  1.2104
  977SOL    HW2 2931   0.716   0.243   0.422 -0.2060 -0.4907 -0.7285
  978SOL     OW 2932   2.656   0.863   2.097  0.0177  0.0901 -0.3620
  978SOL    HW1 2933   2.608   0.818   2.174 -0.1411 -1.9809  0.8689
  978SOL    HW2 2934   2.709   0.949   2.116  1.5888  1.5295 -3.4350
  979SOL     OW 2935   1.565   0.433   2.032  0.2913 -0.1458  0.2681
  979SOL    HW1 2936   1.623   0.357   1.996 -1.4422 -2.6287  3.6019
  979SOL    HW2 2937   1.627   0.512   2.058 -0.1916 -0.4799  2.0531
  980SOL     OW 2938   1.760   1.679   1.758  0.1083  0.0017  1.0027
  980SOL    HW1 2939   1.705   1.612   1.804  0.3848  1.1855 -2.5568
  980SOL    HW2 2940   1.754   1.675   1.658 -0.3340 -1.4657  4.6924
  981SOL     OW 2941   2.482   0.961   1.546  0.0704 -0.1093 -0.0523
  981SOL    HW1 2942   2.544   1.042   1.544  2.5951  2.5305  1.7145
  981SOL    HW2 2943   2.414   0.967   1.620  0.5351  0.4925  1.2974
  982SOL     OW 2944   0.535   0.043   2.610  0.0931 -0.2369  0.3136
  982SOL    HW1 2945   0.437   0.024   2.593 -1.6644  1.1996 -0.7144
  982SOL    HW2 2946   0.586   3.083   2.649  2.4461  1.5876 -1.4809
  983SOL     OW 2947   2.554   0.656   2.837 -0.0916  0.2914 -0.2764
  983SOL    HW1 2948   2.522   0.691   2.927 -1.7851  3.8392  2.6281
  983SOL    HW2 2949   2.479   0.608   2.789 -0.3074  1.0045 -2.5074
  984SOL     OW 2950   1.374   0.028   1.968  0.0746  0.1074  0.4774
  984SOL    HW1 2951   1.407   0.009   2.064 -1.4806 -0.8567  1.4427
  984SOL    HW2 2952   1.315   3.070   1.932 -1.7693 -0.4106 -2.0248
  985SOL     OW 2953   1.787   1.906   1.897  0.4173  0.1533  0.2208
  985SOL    HW1 2954   1.888   1.923   1.886  2.0536 -1.9943  0.2180
  985SOL    HW2 2955   1.755   1.834   1.832  1.3815  0.0145 -1.2286
  986SOL     OW 2956   2.438   0.776   1.313  0.0718  0.3519 -0.8939
  986SOL    HW1 2957   2.450   0.832   1.396  1.4082 -0.7815 -1.1826
  986SOL    HW2 2958   2.474   0.820   1.230 -1.0380  0.4913  1.7893
  987SOL     OW 2959   2.676   1.183   1.481  0.5561 -0.2764 -0.1615
  987SOL    HW1 2960   2.580   1.230   1.489 -2.2432  1.6754 -1.4569
  987SOL    HW2 2961   2.732   1.218   1.558 -1.4387 -0.9712 -0.5978
  988SOL     OW 2962   2.024   1.418   1.663 -0.2716 -0.6955 -0.2615
  988SOL    HW1 2963   2.005   1.461   1.752  0.0228 -1.5987 -2.4252
  988SOL    HW2 2964   2.056   1.492   1.596 -1.7082  0.9923 -4.3206
  989SOL     OW 2965   1.043   2.726   0.278 -0.4600  0.0453 -0.3790
  989SOL    HW1 2966   1.057   2.828   0.282  1.3385  0.8265 -0.5738
  989SOL    HW2 2967   1.121   2.683   0.323  0.2154  0.3680 -3.5100
  990SOL     OW 2968   1.628   0.808   2.818  0.2738  0.0650  0.2802
  990SOL    HW1 2969   1.627   0.724   2.757  0.3509  3.1631  0.8738
  990SOL    HW2 2970   1.680   0.784   2.903  1.2769  0.3477  0.8295
  991SOL     OW 2971   1.148   0.482   0.540  0.4624  0.3411 -0.4389
  991SOL    HW1 2972   1.231   0.539   0.529 -2.1165  0.2884 -3.7263
  991SOL    HW2 2973   1.164   0.382   0.513 -0.4209  0.3834 -2.6346
  992SOL     OW 2974   2.894   1.423   1.390 -0.0949 -0.5146  0.0372
  992SOL    HW1 2975   2.920   1.509   1.340  0.6972  2.6514  0.2627
  992SOL    HW2 2976   2.969   1.352   1.395 -0.8599  0.2589 -0.2833
  993SOL     OW 2977   2.811   0.789   1.511  0.4668  0.2154 -0.2731
  993SOL    HW1 2978   2.719   0.757   1.542 -0.7904 -0.9004  1.5110
  993SOL    HW2 2979   2.804   0.847   1.428  3.4972  0.2586  0.1441
  994SOL     OW 2980   0.186   2.295   2.576  0.2061  0.7821  0.0941
  994SOL    HW1 2981   0.260   2.281   2.504  1.2925  1.9577 -0.8136
  994SOL    HW2 2982   0.176   2.388   2.609 -0.8886 -2.7779 -1.6221
  995SOL     OW 2983   1.800   1.036   2.815 -0.0850 -0.4843 -0.0772
  995SOL    HW1 2984   1.894   1.003   2.795 -3.1219 -2.4167 -0.3769
  995SOL    HW2 2985   1.739   0.954   2.811  0.5216  0.0262 -0.0828
  996SOL     OW 2986   2.760   1.639   0.581  0.0249  0.1835  0.6977
  996SOL    HW1 2987   2.748   1.739   0.565  1.2012 -2.6351 -1.4908
  996SOL    HW2 2988   2.852   1.607   0.551 -0.7432  2.2072 -2.6326
  997SOL     OW 2989   2.329   1.016   2.363 -0.0430 -0.8607  0.1555
  997SOL    HW1 2990   2.320   1.103   2.307  0.2471  2.9482  0.6336
  997SOL    HW2 2991   2.277   0.937   2.326  3.3464  1.5965  1.4552
  998SOL     OW 2992   2.594   1.118   0.585 -0.2128 -0.6601  0.1108
  998SOL    HW1 2993   2.517   1.071   0.535 -1.2965 -0.5210  1.7687
  998SOL    HW2 2994   2.651   1.166   0.518 -2.8214 -1.0013  0.1645
  999SOL     OW 2995   0.012   2.344   0.301 -0.4236 -0.6283 -0.2311
  999SOL    HW1 2996   0.054   2.318   0.394  2.9496 -1.1586 -0.5162
  999SOL    HW2 2997   3.033   2.372   0.308  0.2820 -1.0506 -0.2269
 1000SOL     OW 2998   0.896   0.816   2.460 -0.4468 -0.3809 -0.3547
 1000SOL    HW1 2999   0.834   0.787   2.532  0.2726  1.0680 -3.5498
 1000SOL    HW2 3000   0.981   0.760   2.460 -0.9859  0.2360  0.2235
   3.11824   3.11824   3.11824
