1000 SPC/Fw water molecules t= 413.00000 step= 413000
 3000
    1SOL     OW    1   0.125   3.029   1.403 -0.1681 -0.6299  0.3864
    1SOL    HW1    2   0.081   0.038   1.454 -0.2009 -0.3050 -0.8108
    1SOL    HW2    3   0.064   3.004   1.322  0.6933  0.8541 -1.4361
    2SOL     OW    4   2.580   2.982   0.195 -0.1547  0.2362  0.8894
    2SOL    HW1    5   2.579   2.883   0.212  0.8116  0.6430  0.7903
    2SOL    HW2    6   2.626   2.999   0.103  0.8766  1.8382  1.3533
    3SOL     OW    7   1.473   2.424   3.021 -0.0382 -0.7834  0.2948
    3SOL    HW1    8   1.525   2.513   3.034 -0.2759 -0.2347  0.1274
    3SOL    HW2    9   1.374   2.439   3.018  1.9742 -0.3391 -2.7506
    4SOL     OW   10   0.897   0.005   2.158  0.2739 -0.1169  0.4424
    4SOL    HW1   11   0.860   3.065   2.253  0.2053  2.0668 -0.4197
    4SOL    HW2   12   0.948   2.985   2.133  0.2102  0.1892 -1.8654
    5SOL     OW   13   2.244   3.041   1.880  0.7110  0.1110  0.3887
    5SOL    HW1   14   2.214   2.994   1.793 -0.7065 -0.9280  1.5583
    5SOL    HW2   15   2.328   2.999   1.927  2.4855 -0.4324  1.1607
    6SOL     OW   16   2.486   1.753   1.191  0.2738 -0.3954 -0.0571
    6SOL    HW1   17   2.482   1.808   1.105 -1.0977 -0.8159  1.9708
    6SOL    HW2   18   2.496   1.652   1.169  1.5106 -1.9151 -2.8994
    7SOL     OW   19   2.271   1.207   0.933 -0.4648  0.6067 -0.0285
    7SOL    HW1   20   2.213   1.285   0.969 -3.7957  0.1203  0.8594
    7SOL    HW2   21   2.345   1.235   0.863  2.3148 -0.9141 -2.7302
    8SOL     OW   22   0.511   1.581   0.927 -0.1543  0.2926 -0.2800
    8SOL    HW1   23   0.511   1.558   1.026 -1.0030  0.2696 -0.6928
    8SOL    HW2   24   0.596   1.632   0.908 -0.4432 -1.5164 -2.3882
    9SOL     OW   25   0.108   2.771   1.505 -0.2050  1.0113 -0.2954
    9SOL    HW1   26   0.102   2.862   1.464 -0.1427  0.2277  0.9588
    9SOL    HW2   27   0.086   2.703   1.433  0.2006  0.3115 -0.4764
   10SOL     OW   28   1.125   2.469   0.540  0.6362  0.6252  0.3769
   10SOL    HW1   29   1.216   2.492   0.584 -1.7867  2.7295 -0.1391
   10SOL    HW2   30   1.077   2.547   0.498  2.0908  0.7926 -0.1127
   11SOL     OW   31   1.521   1.953   1.164 -0.4355  0.2335 -0.0385
   11SOL    HW1   32   1.550   1.893   1.085  0.4774  0.0339  1.8412
   11SOL    HW2   33   1.605   1.976   1.217  1.4744  2.4220 -1.9435
   12SOL     OW   34   2.724   0.674   2.353 -0.5063  0.2833  0.6834
   12SOL    HW1   35   2.819   0.633   2.356  0.0017 -0.7403 -2.9030
   12SOL    HW2   36   2.661   0.636   2.418 -0.0634  2.7946 -0.4357
   13SOL     OW   37   2.538   2.709   0.133 -0.0136  0.3173  0.2895
   13SOL    HW1   38   2.524   2.721   0.032 -0.5918  0.0917  1.7723
   13SOL    HW2   39   2.463   2.659   0.178  1.4790  0.4561 -0.6843
   14SOL     OW   40   1.486   1.592   3.008 -1.0596  0.1326  0.3545
   14SOL    HW1   41   1.428   1.528   3.066 -0.6452 -0.1970 -1.2484
   14SOL    HW2   42   1.575   1.617   3.055  1.3468  0.6947  0.1026
   15SOL     OW   43   2.717   2.597   1.801 -0.5446  0.7340 -0.2124
   15SOL    HW1   44   2.767   2.510   1.776 -0.4579 -0.4508  3.1104
   15SOL    HW2   45   2.771   2.683   1.785  0.6174  2.3446 -1.1087
   16SOL     OW   46   2.912   0.265   0.812  0.6251  0.8297  0.2270
   16SOL    HW1   47   2.971   0.349   0.792  2.3559  0.2638 -1.0346
   16SOL    HW2   48   2.886   0.218   0.722  1.2842 -1.4815  1.0681
   17SOL     OW   49   1.371   0.108   0.737  0.2149 -0.1299  0.6739
   17SOL    HW1   50   1.278   0.102   0.696 -1.6253  0.0892 -2.1317
   17SOL    HW2   51   1.365   0.109   0.842 -2.1826  2.0229  2.9788
   18SOL     OW   52   1.380   0.123   1.012  0.4087 -0.2835  0.1734
   18SOL    HW1   53   1.446   0.188   1.055 -1.0346 -2.3965 -2.6381
   18SOL    HW2   54   1.288   0.148   1.041  2.3641  2.6570  0.3077
   19SOL     OW   55   2.289   1.118   0.505 -0.2200 -0.3891 -0.0996
   19SOL    HW1   56   2.361   1.181   0.537 -3.0477  0.8206  1.0534
   19SOL    HW2   57   2.319   1.075   0.416  0.5025 -0.5394 -0.4066
   20SOL     OW   58   2.438   1.554   2.726  0.0405 -0.4144  0.7102
   20SOL    HW1   59   2.464   1.581   2.633  2.6078 -0.3381  1.2912
   20SOL    HW2   60   2.344   1.519   2.728 -0.6521 -1.6055  0.2695
   21SOL     OW   61   1.349   2.974   3.038 -0.1666  0.4470  0.0962
   21SOL    HW1   62   1.364   3.034   0.052  0.8046 -1.0035  0.7921
   21SOL    HW2   63   1.259   2.998   2.992  0.1000  1.5228 -1.6387
   22SOL     OW   64   2.984   1.077   0.793  0.1091 -0.4825 -0.4095
   22SOL    HW1   65   3.033   1.061   0.880 -0.3897  0.0134 -0.3875
   22SOL    HW2   66   2.881   1.076   0.806 -1.9941 -1.1900 -0.9829
   23SOL     OW   67   0.513   0.053   1.834  0.0420  0.3139  0.0737
   23SOL    HW1   68   0.609   0.070   1.864 -1.2464 -2.7943 -3.2660
   23SOL    HW2   69   0.484   0.143   1.799  2.2171  2.2119  2.2520
   24SOL     OW   70   2.439   2.205   0.749  0.3099  0.6621 -0.5578
   24SOL    HW1   71   2.428   2.307   0.778  0.4663  0.9590  0.3609
   24SOL    HW2   72   2.357   2.152   0.774  1.4301  0.4889 -0.1815
   25SOL     OW   73   1.725   0.083   2.575  0.2416 -0.1701 -0.6834
   25SOL    HW1   74   1.793   0.094   2.653 -1.6913  1.9351  0.8576
   25SOL    HW2   75   1.668   3.065   2.584 -1.1106  0.9728 -0.6895
   26SOL     OW   76   1.446   2.260   0.153  0.3297 -0.2066 -0.3406
   26SOL    HW1   77   1.528   2.268   0.213  3.1876 -0.2678  0.3955
   26SOL    HW2   78   1.462   2.317   0.069 -2.0943  0.3783  1.6692
   27SOL     OW   79   1.626   0.457   1.355  0.0190 -0.5974  0.6321
   27SOL    HW1   80   1.550   0.484   1.292 -0.0515 -0.0098  0.6276
   27SOL    HW2   81   1.709   0.515   1.337 -1.0471 -0.2016  1.3596
   28SOL     OW   82   1.060   1.437   0.469  0.1808  0.4460 -0.5230
   28SOL    HW1   83   1.008   1.352   0.462  0.3282  2.6575 -1.1999
   28SOL    HW2   84   1.163   1.426   0.473 -2.6294  0.8736  1.2600
   29SOL     OW   85   2.493   0.400   1.562  0.3882  0.4825  0.0535
   29SOL    HW1   86   2.526   0.325   1.497  1.2712 -1.0255  1.5626
   29SOL    HW2   87   2.419   0.458   1.520  0.5966  0.1436  0.9734
   30SOL     OW   88   1.190   2.428   1.444  0.0891 -0.1088  0.3711
   30SOL    HW1   89   1.200   2.518   1.494  2.0717  2.9066 -0.9927
   30SOL    HW2   90   1.274   2.425   1.385  0.0774  0.3957 -1.2567
   31SOL     OW   91   1.850   2.657   1.269  0.0385  0.1053  0.0672
   31SOL    HW1   92   1.902   2.646   1.357  0.3672  2.2019 -1.3608
   31SOL    HW2   93   1.918   2.700   1.201  1.1131 -1.2418 -0.9644
   32SOL     OW   94   1.838   1.400   2.621  0.5200  0.2006 -0.5468
   32SOL    HW1   95   1.794   1.373   2.534 -0.4051  0.1934 -0.9085
   32SOL    HW2   96   1.894   1.484   2.600 -0.6015  0.3561  0.1344
   33SOL     OW   97   2.459   0.677   2.766  0.2099  0.1706  0.5879
   33SOL    HW1   98   2.513   0.685   2.851 -0.6449 -0.2895 -1.3267
   33SOL    HW2   99   2.361   0.652   2.782  0.0459 -0.2173  0.6619
   34SOL     OW  100   1.913   0.213   0.280 -0.4269  0.5244  0.2840
   34SOL    HW1  101   1.828   0.272   0.289  0.5546  1.7257  1.0983
   34SOL    HW2  102   1.930   0.146   0.358  0.5902 -1.1582  0.2610
   35SOL     OW  103   0.046   2.040   1.890 -0.2307  0.6340  0.5805
   35SOL    HW1  104   0.005   2.034   1.799 -2.7328  0.6674 -0.5820
   35SOL    HW2  105   3.047   2.007   1.956  0.6553 -0.6305 -1.2247
   36SOL     OW  106   2.377   1.862   2.947  0.3732 -0.2138  0.1195
   36SOL    HW1  107   2.416   1.865   2.852 -1.9252 -0.8819  0.8184
   36SOL    HW2  108   2.415   1.941   2.997 -2.3905 -0.9351  2.5559
   37SOL     OW  109   1.646   0.081   1.780 -0.7673 -0.1306  0.3414
   37SOL    HW1  110   1.745   0.098   1.761  0.0308  0.1629 -0.0211
   37SOL    HW2  111   1.634   0.065   1.880 -0.3454  0.9437 -1.9505
   38SOL     OW  112   0.180   0.514   2.310  0.0138  0.3716 -0.3349
   38SOL    HW1  113   0.195   0.615   2.285 -1.2090  1.6814 -0.7076
   38SOL    HW2  114   0.273   0.475   2.320  0.1941  0.7538  0.2314
   39SOL     OW  115   2.212   0.913   1.319  0.2582  0.5475  0.6026
   39SOL    HW1  116   2.136   0.844   1.338 -1.2399 -0.1782  0.2002
   39SOL    HW2  117   2.184   0.966   1.232 -1.4723  0.5655 -3.2155
   40SOL     OW  118   1.277   2.214   0.835 -0.7378 -0.2209  0.1710
   40SOL    HW1  119   1.201   2.186   0.777  0.4261  0.8754 -0.4356
   40SOL    HW2  120   1.360   2.164   0.811 -2.2496  3.1858  2.8413
   41SOL     OW  121   1.906   2.127   0.878 -0.5065  0.3398  0.5495
   41SOL    HW1  122   1.862   2.058   0.818 -0.3783  1.0149 -0.7844
   41SOL    HW2  123   1.839   2.158   0.950 -1.3299  0.5195 -0.2696
   42SOL     OW  124   2.616   0.508   0.885 -0.2644 -0.0782 -0.0849
   42SOL    HW1  125   2.700   0.515   0.934  0.2414  0.0797 -5.0440
   42SOL    HW2  126   2.602   0.582   0.813 -0.9827  0.4069 -1.5140
   43SOL     OW  127   0.593   1.338   2.513  0.2198 -0.5111  0.0872
   43SOL    HW1  128   0.678   1.313   2.469 -1.9710 -0.5898 -0.5604
   43SOL    HW2  129   0.541   1.396   2.448  1.6679 -1.7806 -1.0981
   44SOL     OW  130   1.610   2.775   1.307  0.0432  0.0648  0.1505
   44SOL    HW1  131   1.582   2.733   1.392  1.7297  2.1739 -1.8782
   44SOL    HW2  132   1.698   2.739   1.272  0.0804  0.4741 -1.1721
   45SOL     OW  133   0.833   2.906   2.586  0.2296  0.1659 -0.5905
   45SOL    HW1  134   0.888   2.883   2.505 -3.5767  0.9783  1.5180
   45SOL    HW2  135   0.782   2.821   2.600 -1.5558  1.4540 -0.4412
   46SOL     OW  136   0.677   2.425   2.020  0.0338 -0.0966  0.2470
   46SOL    HW1  137   0.693   2.325   2.039  0.0183 -2.0665  0.1512
   46SOL    HW2  138   0.748   2.451   1.950 -1.9846 -1.2240  0.4938
   47SOL     OW  139   1.045   2.127   0.717  0.3367 -0.3915 -0.4820
   47SOL    HW1  140   1.039   2.142   0.616 -0.6924 -1.5770 -1.4643
   47SOL    HW2  141   1.002   2.037   0.738  1.4438  4.0913  0.8301
   48SOL     OW  142   0.714   2.459   1.324  0.5424  0.0016 -0.3256
   48SOL    HW1  143   0.679   2.428   1.233 -0.8156  2.9159 -1.5886
   48SOL    HW2  144   0.811   2.490   1.318 -0.7195 -1.2001  0.0266
   49SOL     OW  145   2.446   0.039   2.999 -0.0545  0.5419 -0.7318
   49SOL    HW1  146   2.430   0.079   0.022  0.2097  1.4236 -1.4476
   49SOL    HW2  147   2.547   0.033   2.983  0.7503  2.5754 -2.8378
   50SOL     OW  148   1.785   0.928   0.429 -0.5810  0.1710  0.1731
   50SOL    HW1  149   1.861   0.864   0.423 -2.1901  0.4833  0.4358
   50SOL    HW2  150   1.715   0.884   0.486  2.1686  0.2592 -3.8370
   51SOL     OW  151   2.205   0.286   0.833 -0.4100 -0.0221 -0.3195
   51SOL    HW1  152   2.257   0.374   0.811  0.3844  0.8527 -1.0665
   51SOL    HW2  153   2.130   0.273   0.760  0.7532 -1.0008  0.2139
   52SOL     OW  154   0.841   1.574   0.099 -0.3776  0.2036 -0.2209
   52SOL    HW1  155   0.867   1.548   0.005  0.3621  3.4233  1.2563
   52SOL    HW2  156   0.755   1.625   0.091 -0.0543 -1.1856  0.1662
   53SOL     OW  157   0.402   1.248   3.023 -0.2157  0.6744  0.0903
   53SOL    HW1  158   0.377   1.154   2.990 -0.9629  2.4119 -0.4697
   53SOL    HW2  159   0.473   1.238   0.029  1.1747 -0.4085 -1.4956
   54SOL     OW  160   1.979   1.631   2.588 -0.7957  0.2498  0.1219
   54SOL    HW1  161   1.973   1.653   2.490  0.6543 -0.0941 -0.6896
   54SOL    HW2  162   1.982   1.716   2.648 -0.3736  1.2928  0.2195
   55SOL     OW  163   2.236   2.159   1.225 -0.2373 -0.0327  0.2350
   55SOL    HW1  164   2.301   2.085   1.252 -1.0347  0.1536 -0.5651
   55SOL    HW2  165   2.187   2.136   1.138  1.5742  2.2641  2.1452
   56SOL     OW  166   1.934   0.010   1.122  0.0023  0.2801 -0.2532
   56SOL    HW1  167   1.985   2.989   1.093  1.3959  0.1529  1.6697
   56SOL    HW2  168   1.841   3.067   1.088  2.7760 -0.7844 -0.5061
   57SOL     OW  169   1.669   1.283   0.816  0.3719  0.7300  0.6409
   57SOL    HW1  170   1.735   1.359   0.835  1.5625  0.5765 -0.0447
   57SOL    HW2  171   1.686   1.224   0.729  0.2389  1.2236 -0.1731
   58SOL     OW  172   2.284   0.031   1.462  0.6872 -0.0421  0.7866
   58SOL    HW1  173   2.362   0.092   1.448 -1.2125  2.5486  1.0996
   58SOL    HW2  174   2.218   0.060   1.386 -0.2852  1.9457 -1.6456
   59SOL     OW  175   1.022   2.888   2.377 -0.1682 -0.3108  0.2763
   59SOL    HW1  176   1.117   2.883   2.414  1.9013  0.8916  0.1032
   59SOL    HW2  177   1.015   2.858   2.281 -2.1056  1.4810  1.3149
   60SOL     OW  178   0.023   2.819   2.873 -0.3073  0.0603 -0.5946
   60SOL    HW1  179   0.009   2.752   2.946  0.6821  1.0255  0.0080
   60SOL    HW2  180   3.005   2.855   2.835 -2.4613 -0.1386  0.3050
   61SOL     OW  181   0.781   2.372   0.777  0.4887  0.1167  0.2759
   61SOL    HW1  182   0.842   2.305   0.729 -2.9079 -0.9744  0.0338
   61SOL    HW2  183   0.701   2.323   0.817  1.2559 -0.1226 -0.8223
   62SOL     OW  184   1.083   1.858   2.115 -0.9867 -0.4772  0.8516
   62SOL    HW1  185   1.182   1.837   2.116 -0.9035  0.7610 -1.3508
   62SOL    HW2  186   1.048   1.820   2.025  0.6251  0.4775 -0.8950
   63SOL     OW  187   1.668   1.791   0.510  0.2127 -0.4981  0.2828
   63SOL    HW1  188   1.767   1.807   0.485  3.1830 -1.5858 -1.5840
   63SOL    HW2  189   1.649   1.728   0.593 -1.9908 -0.7602  1.4443
   64SOL     OW  190   1.758   1.434   0.511 -0.1643 -0.0094 -0.3641
   64SOL    HW1  191   1.695   1.480   0.446 -1.5927 -0.8328 -3.4342
   64SOL    HW2  192   1.750   1.334   0.506 -1.4517  1.3798  2.1528
   65SOL     OW  193   1.575   2.251   2.360  0.4180 -0.5717 -0.3967
   65SOL    HW1  194   1.642   2.186   2.322  2.1656  0.0384  0.0056
   65SOL    HW2  195   1.528   2.210   2.444 -0.0978  0.2209 -0.8220
   66SOL     OW  196   0.369   0.907   1.195 -0.4460  0.0457  0.5705
   66SOL    HW1  197   0.433   0.884   1.273  1.5923 -1.0557 -0.9098
   66SOL    HW2  198   0.417   0.971   1.132 -1.1512  3.0001  1.7894
   67SOL     OW  199   2.207   2.579   0.335 -0.3627 -0.2197  0.3554
   67SOL    HW1  200   2.239   2.675   0.339  1.5437  0.7239 -0.6953
   67SOL    HW2  201   2.284   2.515   0.345 -0.8356  1.4821 -0.3594
   68SOL     OW  202   2.042   2.276   1.426  0.4515 -0.2361  0.4531
   68SOL    HW1  203   2.067   2.252   1.329 -0.4499 -1.7044 -0.2329
   68SOL    HW2  204   2.068   2.196   1.482 -2.3056 -0.0996  0.6549
   69SOL     OW  205   2.487   2.093   3.038  0.1558  0.3964 -0.7107
   69SOL    HW1  206   2.488   2.196   3.041  1.7920  2.0352 -0.7943
   69SOL    HW2  207   2.574   2.054   0.018  2.5074 -0.3913 -0.8251
   70SOL     OW  208   0.232   1.031   2.581 -0.1655 -0.1173  0.2494
   70SOL    HW1  209   0.134   1.065   2.585  0.9013  0.2376 -2.8453
   70SOL    HW2  210   0.236   0.931   2.602 -2.4847 -0.0798 -0.2787
   71SOL     OW  211   0.619   1.048   2.340 -0.7348 -0.3293  0.3753
   71SOL    HW1  212   0.666   1.138   2.346 -1.5246  2.2482  1.5646
   71SOL    HW2  213   0.679   0.969   2.356  0.5206  1.1778  3.6516
   72SOL     OW  214   2.352   1.472   1.885 -0.0040  0.0912  0.1233
   72SOL    HW1  215   2.361   1.448   1.789 -1.0579  1.6388 -2.4592
   72SOL    HW2  216   2.412   1.549   1.908 -1.7360  0.1166  0.8284
   73SOL     OW  217   0.996   1.842   2.821 -0.5898 -0.6640  0.4475
   73SOL    HW1  218   0.940   1.840   2.734 -0.7462  1.2890  0.4512
   73SOL    HW2  219   1.091   1.864   2.795  0.3243 -2.2197  2.1881
   74SOL     OW  220   1.883   3.055   2.378  0.2386  0.0889 -0.4048
   74SOL    HW1  221   1.792   0.011   2.428 -1.2468  1.1075  1.6621
   74SOL    HW2  222   1.894   0.038   2.292  0.4294 -1.2908 -0.7461
   75SOL     OW  223   1.244   2.918   0.569 -0.0576  0.3843  0.1154
   75SOL    HW1  224   1.256   2.840   0.503  0.5347 -1.5178  0.3185
   75SOL    HW2  225   1.321   2.982   0.558  2.8857 -0.6824  0.6841
   76SOL     OW  226   2.798   1.886   2.923  0.6632  1.4271 -0.2133
   76SOL    HW1  227   2.733   1.805   2.924 -2.1644 -0.4487  2.1399
   76SOL    HW2  228   2.801   1.926   3.017 -0.6772 -2.5126  2.9204
   77SOL     OW  229   3.047   2.539   1.344 -0.2288 -0.4457  0.0874
   77SOL    HW1  230   0.009   2.484   1.265 -0.8371  1.2412  0.8084
   77SOL    HW2  231   0.030   2.527   1.431 -2.3587  2.3349 -0.4206
   78SOL     OW  232   2.758   1.031   0.032 -0.1830  0.2502 -0.9272
   78SOL    HW1  233   2.750   1.133   0.032 -0.0793  2.4734 -2.0161
   78SOL    HW2  234   2.673   0.980   0.008  1.5302 -2.2749  3.4910
   79SOL     OW  235   0.222   1.756   2.630  0.2758  0.1949  0.4418
   79SOL    HW1  236   0.287   1.680   2.649  0.2444 -0.9469 -0.8967
   79SOL    HW2  237   0.129   1.734   2.666  1.4455 -0.4674 -0.4112
   80SOL     OW  238   1.692   1.490   1.698  0.3129  0.1020 -0.4985
   80SOL    HW1  239   1.757   1.479   1.778 -1.0018 -0.0512 -1.0331
   80SOL    HW2  240   1.712   1.563   1.625 -2.1620  1.6199 -1.3545
   81SOL     OW  241   2.038   1.213   2.312 -0.3029 -0.7569  0.3201
   81SOL    HW1  242   1.939   1.190   2.337  2.0397 -0.1415  0.9353
   81SOL    HW2  243   2.084   1.262   2.391 -1.1740  1.9249  2.4309
   82SOL     OW  244   1.313   1.284   1.777  0.2139  0.1552  0.3726
   82SOL    HW1  245   1.402   1.271   1.827 -0.4686  2.6448  1.4185
   82SOL    HW2  246   1.252   1.203   1.798  0.8834  0.1736  3.5702
   83SOL     OW  247   2.969   0.218   0.018  0.2768 -0.2430 -0.7203
   83SOL    HW1  248   2.874   0.182   0.019  1.1714 -0.9852 -0.6960
   83SOL    HW2  249   3.008   0.206   2.994 -1.0320  0.0211  0.0672
   84SOL     OW  250   3.002   1.081   0.371  0.3444 -0.0736 -0.1235
   84SOL    HW1  251   2.994   1.051   0.272 -0.4185 -2.8358 -0.6567
   84SOL    HW2  252   3.021   1.180   0.390 -1.5191  0.5811 -0.1614
   85SOL     OW  253   2.096   1.524   2.006  0.0671 -0.1985  0.4068
   85SOL    HW1  254   2.194   1.509   1.988  1.1239  2.1705 -0.1294
   85SOL    HW2  255   2.069   1.503   2.103  0.7806  0.9896  0.5032
   86SOL     OW  256   0.623   0.658   1.159 -0.1349  0.6259 -0.3947
   86SOL    HW1  257   0.698   0.715   1.124 -0.2776 -3.2828 -1.5559
   86SOL    HW2  258   0.581   0.611   1.080  0.0756  2.7536 -1.2549
   87SOL     OW  259   2.684   2.125   2.083  0.1086 -0.0829 -0.6500
   87SOL    HW1  260   2.644   2.138   1.993  3.0027  1.9559  1.9488
   87SOL    HW2  261   2.755   2.194   2.100 -0.4726 -1.6149  1.5415
   88SOL     OW  262   0.582   2.028   3.064  0.3091 -0.4688  0.4899
   88SOL    HW1  263   0.509   2.033   0.071  1.9702 -1.1482 -0.9201
   88SOL    HW2  264   0.559   1.979   2.978  1.8519  0.2241  0.2051
   89SOL     OW  265   1.670   0.635   0.230  0.2396  0.0325 -0.0018
   89SOL    HW1  266   1.621   0.628   0.143 -1.0069  0.0577  1.4885
   89SOL    HW2  267   1.751   0.700   0.207  0.1786  2.2708 -2.2663
   90SOL     OW  268   2.977   1.529   2.326 -0.1061 -0.2633  0.0641
   90SOL    HW1  269   2.919   1.556   2.245 -2.0450 -1.6783 -4.3525
   90SOL    HW2  270   3.042   1.602   2.362  1.2364  1.0895  0.3942
   91SOL     OW  271   2.331   3.063   1.157  0.4700  0.1260 -0.6737
   91SOL    HW1  272   2.255   0.044   1.210 -1.4123  0.2864  0.1788
   91SOL    HW2  273   2.334   0.044   1.069 -2.2101 -2.1342  0.5027
   92SOL     OW  274   2.326   1.299   1.217 -0.8169  0.0209  0.6733
   92SOL    HW1  275   2.229   1.324   1.185 -1.3090 -1.5606 -1.2734
   92SOL    HW2  276   2.353   1.204   1.203 -2.2026  0.8215  0.4021
   93SOL     OW  277   3.065   1.342   0.304 -0.4600 -0.0525  0.1409
   93SOL    HW1  278   2.973   1.382   0.288  0.0616  1.1596  0.7751
   93SOL    HW2  279   0.065   1.379   0.235  0.8727 -1.4488 -0.1880
   94SOL     OW  280   1.226   2.364   1.989 -0.0642  0.0422 -0.4749
   94SOL    HW1  281   1.275   2.283   2.019 -0.3893  3.8949  2.6238
   94SOL    HW2  282   1.282   2.425   1.939  0.2161 -3.4385  0.8002
   95SOL     OW  283   0.053   0.552   1.035 -0.1158 -0.2125  0.5965
   95SOL    HW1  284   0.086   0.647   1.052  1.4270  0.5570  0.1339
   95SOL    HW2  285   0.041   0.494   1.120  0.2553  0.5923 -0.0983
   96SOL     OW  286   2.970   2.739   1.791 -0.1147  0.0443 -0.2857
   96SOL    HW1  287   2.978   2.821   1.728  0.3587 -2.5489  0.5160
   96SOL    HW2  288   3.046   2.678   1.789 -0.9431  1.7989 -0.4594
   97SOL     OW  289   2.342   0.612   1.424 -0.0734  0.4924  0.2236
   97SOL    HW1  290   2.368   0.640   1.329  1.4443  0.6391  0.9943
   97SOL    HW2  291   2.258   0.560   1.430  0.0023  2.2785 -0.6515
   98SOL     OW  292   2.415   2.373   1.365 -0.1965 -0.9551  0.3501
   98SOL    HW1  293   2.508   2.395   1.329 -1.4541 -1.1740  1.6732
   98SOL    HW2  294   2.365   2.305   1.308  0.2486  0.2312  0.4579
   99SOL     OW  295   0.193   0.163   1.584 -0.0849 -0.2616  0.2447
   99SOL    HW1  296   0.145   0.242   1.625 -2.0081 -0.5320  1.8177
   99SOL    HW2  297   0.274   0.193   1.533 -1.2406 -1.0601  2.4756
  100SOL     OW  298   2.186   0.263   2.319 -0.0802 -0.4874  0.0785
  100SOL    HW1  299   2.112   0.326   2.356 -1.3643  2.1965  0.3744
  100SOL    HW2  300   2.161   0.163   2.339 -1.6775  0.7432 -1.6143
  101SOL     OW  301   0.098   0.193   2.353 -0.2149 -0.3912  0.0492
  101SOL    HW1  302   0.190   0.159   2.316  0.6728 -0.0342  1.5938
  101SOL    HW2  303   0.060   0.268   2.294  1.2199  0.0557  0.4651
  102SOL     OW  304   0.469   0.330   1.695 -0.4903  0.2890  0.1368
  102SOL    HW1  305   0.428   0.314   1.604 -0.1111  0.6841  0.2583
  102SOL    HW2  306   0.558   0.378   1.681 -1.0390 -0.9949 -1.4337
  103SOL     OW  307   0.929   0.703   2.582  0.2481  0.3757 -0.3813
  103SOL    HW1  308   0.947   0.772   2.653  2.7267  1.9621 -0.6553
  103SOL    HW2  309   1.009   0.638   2.573 -0.8007 -0.5103 -1.9443
  104SOL     OW  310   0.102   0.582   1.961 -0.2056  0.2980  0.0032
  104SOL    HW1  311   0.108   0.671   1.911  0.2320 -1.5836 -0.7381
  104SOL    HW2  312   0.178   0.573   2.026  1.0444  1.1087 -3.0694
  105SOL     OW  313   2.407   1.866   1.621  0.0625  0.1723  0.0594
  105SOL    HW1  314   2.395   1.909   1.713 -1.3199 -1.6704  0.6631
  105SOL    HW2  315   2.390   1.766   1.627 -0.9500  0.0630  1.0304
  106SOL     OW  316   1.717   0.066   0.516  0.3864 -0.4713 -0.3342
  106SOL    HW1  317   1.657   0.148   0.532 -1.2044  1.8332 -2.3800
  106SOL    HW2  318   1.807   0.082   0.558 -2.3377 -1.4423  0.8031
  107SOL     OW  319   2.124   2.068   1.018  0.6993  0.4475 -0.1732
  107SOL    HW1  320   2.051   2.111   0.958 -0.0013  0.1364 -0.5893
  107SOL    HW2  321   2.193   2.018   0.954  1.5243  1.8683 -0.9943
  108SOL     OW  322   0.011   2.421   1.105 -0.5274  0.4851 -0.0723
  108SOL    HW1  323   3.066   2.501   1.043 -1.4571 -0.6993 -1.9379
  108SOL    HW2  324   2.997   2.366   1.099  1.0236 -1.7963  2.7230
  109SOL     OW  325   1.722   2.532   0.947 -0.0262  0.0398 -0.4864
  109SOL    HW1  326   1.675   2.623   0.932 -0.8615 -1.1305 -0.5268
  109SOL    HW2  327   1.771   2.519   1.036 -0.4967 -1.5999  0.9098
  110SOL     OW  328   1.820   1.599   1.226  0.1550 -0.5574  0.3866
  110SOL    HW1  329   1.910   1.642   1.238  1.5958 -0.8293  2.2831
  110SOL    HW2  330   1.829   1.494   1.217 -0.1495 -1.7076  0.6460
  111SOL     OW  331   1.513   2.209   1.858 -0.7705  0.5463 -0.3410
  111SOL    HW1  332   1.528   2.177   1.761  0.3182  1.6940 -0.1339
  111SOL    HW2  333   1.540   2.309   1.860 -0.7799  0.4903 -0.3404
  112SOL     OW  334   2.072   2.133   3.018  0.2124  0.1816  0.2883
  112SOL    HW1  335   2.032   2.043   3.039  0.5983  2.6049 -0.9699
  112SOL    HW2  336   2.136   2.130   2.938  2.2535 -1.6583 -1.0395
  113SOL     OW  337   1.929   1.756   1.895 -0.4087  0.0236 -0.4300
  113SOL    HW1  338   1.982   1.842   1.904  0.6916  0.9409 -0.8451
  113SOL    HW2  339   1.969   1.681   1.951  0.1372 -2.2584 -1.7253
  114SOL     OW  340   0.000   1.286   1.685  0.3188 -0.2329 -0.0139
  114SOL    HW1  341   3.002   1.354   1.719  0.5143  2.4836  0.4003
  114SOL    HW2  342   3.018   1.202   1.653 -0.0234 -2.1668 -0.6907
  115SOL     OW  343   3.018   0.989   0.094 -0.6066 -0.1594  0.1006
  115SOL    HW1  344   2.923   0.999   0.055  3.1378  3.5781  1.2098
  115SOL    HW2  345   3.031   0.886   0.114 -1.5228 -1.4382 -0.6258
  116SOL     OW  346   2.507   0.928   3.011 -0.0331  0.1492  0.1477
  116SOL    HW1  347   2.424   0.982   2.979 -0.7439  2.9018  1.3084
  116SOL    HW2  348   2.495   0.828   3.022 -0.9589  0.5307 -0.4039
  117SOL     OW  349   2.595   2.370   0.043  0.6720 -0.5338  0.1430
  117SOL    HW1  350   2.677   2.430   0.031  1.0404 -1.8027 -0.5228
  117SOL    HW2  351   2.534   2.381   3.027 -1.6954  0.6662 -1.6389
  118SOL     OW  352   0.661   2.252   2.716  0.0796 -0.4937 -0.5331
  118SOL    HW1  353   0.761   2.238   2.692  1.3506 -0.8691  0.4977
  118SOL    HW2  354   0.634   2.171   2.769 -0.0368 -1.1785 -2.3048
  119SOL     OW  355   0.525   2.556   0.524 -0.0079 -0.2922  0.4557
  119SOL    HW1  356   0.521   2.621   0.604 -0.2440 -3.2205 -0.7240
  119SOL    HW2  357   0.432   2.530   0.490 -1.4137  0.4683  0.1326
  120SOL     OW  358   1.248   0.829   0.261 -0.2328  0.8034 -0.6746
  120SOL    HW1  359   1.168   0.775   0.241  2.3611  3.0745  0.6643
  120SOL    HW2  360   1.231   0.887   0.346 -1.9089  1.5459  0.4498
  121SOL     OW  361   1.480   2.680   0.827  0.6663  0.6332 -0.0552
  121SOL    HW1  362   1.420   2.762   0.827 -1.7351  0.7212 -1.5524
  121SOL    HW2  363   1.432   2.603   0.781  0.7081 -1.5990 -0.4915
  122SOL     OW  364   2.575   1.589   2.442  0.0355  0.0017  0.0705
  122SOL    HW1  365   2.602   1.683   2.461 -1.0763 -0.7232  1.6433
  122SOL    HW2  366   2.651   1.522   2.459  1.3343 -1.5112 -0.9428
  123SOL     OW  367   1.291   1.428   1.017  0.0105 -0.3298 -0.1889
  123SOL    HW1  368   1.319   1.478   1.099 -2.6473  3.7174  0.2319
  123SOL    HW2  369   1.193   1.406   1.030  1.8441 -3.9506  0.7312
  124SOL     OW  370   0.387   0.490   3.019  0.5454  0.1832  0.0927
  124SOL    HW1  371   0.366   0.400   3.052 -0.3510  2.3304 -2.1286
  124SOL    HW2  372   0.488   0.501   3.011 -0.7789 -2.6563 -1.6636
  125SOL     OW  373   0.623   0.438   0.216 -0.2383  0.2606 -0.3810
  125SOL    HW1  374   0.624   0.454   0.116 -3.3960 -0.4774  0.6525
  125SOL    HW2  375   0.550   0.383   0.253  4.2552  1.3229 -2.6724
  126SOL     OW  376   0.408   1.627   0.355 -0.0740  0.3616 -0.6071
  126SOL    HW1  377   0.498   1.582   0.368 -0.1786  1.3371 -1.1893
  126SOL    HW2  378   0.347   1.608   0.436  0.8013  1.0802 -3.1737
  127SOL     OW  379   0.901   2.575   1.770 -0.6272 -0.2430 -0.3494
  127SOL    HW1  380   0.840   2.650   1.733 -2.5450  1.1053  0.3234
  127SOL    HW2  381   1.002   2.602   1.760  3.3931  0.8557 -1.4300
  128SOL     OW  382   1.303   1.477   0.152 -0.6665  0.1811  0.4704
  128SOL    HW1  383   1.238   1.509   0.223  0.5965 -0.9325  1.3860
  128SOL    HW2  384   1.286   1.381   0.133  0.4427  1.3534  1.6923
  129SOL     OW  385   1.666   1.739   1.976  0.7961 -0.0427  0.6050
  129SOL    HW1  386   1.590   1.695   1.918 -4.1159  0.7069 -1.1277
  129SOL    HW2  387   1.751   1.744   1.926 -3.1770 -1.0034 -1.9856
  130SOL     OW  388   1.673   2.179   1.617  0.0573 -0.1899 -0.1180
  130SOL    HW1  389   1.635   2.086   1.599  0.3422 -0.0390 -0.3243
  130SOL    HW2  390   1.648   2.246   1.544 -2.3979  1.5215 -0.9098
  131SOL     OW  391   0.073   2.303   1.951  0.7575 -0.2711  0.1603
  131SOL    HW1  392   0.072   2.206   1.923  2.5800 -0.4830  2.6961
  131SOL    HW2  393   3.048   2.328   1.984 -3.9242 -1.8434 -0.2288
  132SOL     OW  394   2.920   1.756   0.959 -0.1514  0.0691 -0.6257
  132SOL    HW1  395   3.008   1.802   0.931  2.3837  0.3689  0.4996
  132SOL    HW2  396   2.874   1.807   1.032 -0.0205  0.3208 -0.0207
  133SOL     OW  397   0.333   0.622   1.615 -0.2324  0.1528  0.7401
  133SOL    HW1  398   0.392   0.582   1.546  3.8063 -0.5465  0.0852
  133SOL    HW2  399   0.378   0.611   1.706 -0.2539 -0.4320  0.3723
  134SOL     OW  400   2.478   1.704   0.192 -0.2530 -0.4544  0.0205
  134SOL    HW1  401   2.385   1.709   0.230  0.1226 -0.1080 -1.2211
  134SOL    HW2  402   2.487   1.766   0.111  1.5483 -1.8646 -0.0708
  135SOL     OW  403   1.675   0.930   2.607  0.0029 -0.1966  0.3269
  135SOL    HW1  404   1.749   0.882   2.662  4.5055  1.9368  2.1170
  135SOL    HW2  405   1.595   0.872   2.582  1.9091 -1.2839  1.2188
  136SOL     OW  406   2.710   1.784   1.364  0.3684  0.0223  0.3205
  136SOL    HW1  407   2.623   1.767   1.315  3.8295 -1.4844 -1.4980
  136SOL    HW2  408   2.700   1.806   1.465  1.5302 -0.9665  0.0605
  137SOL     OW  409   2.322   1.816   0.636  0.2539 -0.0981 -0.1199
  137SOL    HW1  410   2.355   1.728   0.680 -1.7103 -2.2415 -3.8203
  137SOL    HW2  411   2.395   1.876   0.602 -1.5800 -1.3861 -2.0827
  138SOL     OW  412   2.850   0.762   0.852 -0.2553 -0.7186  0.5284
  138SOL    HW1  413   2.818   0.695   0.918  0.5563 -0.4458  0.7626
  138SOL    HW2  414   2.884   0.710   0.772 -0.1720  0.0279  1.8163
  139SOL     OW  415   2.841   2.703   0.195  0.2536  0.4607  0.2762
  139SOL    HW1  416   2.743   2.717   0.199  0.4883  2.6635 -2.6194
  139SOL    HW2  417   2.890   2.795   0.203  1.2946  1.5167 -1.0962
  140SOL     OW  418   0.942   1.405   1.345  0.1941 -0.3013  0.1758
  140SOL    HW1  419   0.960   1.308   1.370  0.0510  1.5305 -1.6006
  140SOL    HW2  420   0.890   1.457   1.418  0.2022 -0.5304  0.9054
  141SOL     OW  421   1.402   1.613   0.844 -0.2392 -0.2224  0.0862
  141SOL    HW1  422   1.359   1.701   0.857  2.0261 -2.0434  2.4632
  141SOL    HW2  423   1.348   1.546   0.903  0.8117 -1.1103  2.3091
  142SOL     OW  424   1.038   0.481   1.027  0.3895 -0.4488  0.1208
  142SOL    HW1  425   0.971   0.484   1.106 -1.4308  1.3512  1.4272
  142SOL    HW2  426   1.108   0.413   1.040 -0.5019  1.5443 -0.6232
  143SOL     OW  427   0.349   1.010   2.342 -0.2084 -0.2608 -0.0443
  143SOL    HW1  428   0.297   1.038   2.427 -1.2333  0.4900  0.0453
  143SOL    HW2  429   0.446   1.046   2.354  1.3037 -1.8760  1.9272
  144SOL     OW  430   2.284   3.038   0.498 -0.3298 -0.4171  0.1834
  144SOL    HW1  431   2.373   2.984   0.520 -0.6964 -4.2960 -0.4602
  144SOL    HW2  432   2.302   0.066   0.528 -0.8220 -2.2795  0.9172
  145SOL     OW  433   2.146   0.121   2.720  0.0635 -0.5017 -0.2267
  145SOL    HW1  434   2.249   0.124   2.728 -0.5902 -1.0074  1.4799
  145SOL    HW2  435   2.111   0.210   2.680  3.1246  1.8709 -1.7212
  146SOL     OW  436   2.809   2.898   0.560 -0.0377  0.1141  0.3695
  146SOL    HW1  437   2.786   2.799   0.536 -0.8183 -0.9389 -2.4117
  146SOL    HW2  438   2.856   2.910   0.652  2.3869 -0.1794  0.8594
  147SOL     OW  439   0.941   1.096   2.527  0.0834 -0.3572 -0.1167
  147SOL    HW1  440   0.867   1.140   2.483  5.0220 -2.9337  3.2894
  147SOL    HW2  441   1.010   1.061   2.460  1.0842 -2.3326  0.3594
  148SOL     OW  442   1.549   3.012   2.867  0.0313 -0.2926  0.1346
  148SOL    HW1  443   1.637   3.022   2.919  2.7702 -0.3092  0.8554
  148SOL    HW2  444   1.466   2.997   2.928 -1.3347 -1.5245  1.4384
  149SOL     OW  445   1.239   0.150   2.000 -0.0582  0.3709 -0.0115
  149SOL    HW1  446   1.192   0.164   2.090  1.6739  1.4651 -1.4063
  149SOL    HW2  447   1.304   0.228   1.984  0.5917  0.6612 -1.9329
  150SOL     OW  448   2.267   2.726   2.933 -0.0197 -0.5229 -0.3344
  150SOL    HW1  449   2.202   2.734   2.854 -1.6566 -1.9500  0.8471
  150SOL    HW2  450   2.278   2.630   2.965  0.0347 -0.2453 -2.3034
  151SOL     OW  451   0.664   1.643   2.783 -0.4113 -0.3993 -0.4075
  151SOL    HW1  452   0.592   1.576   2.797  3.7196 -0.2864  1.4225
  151SOL    HW2  453   0.761   1.622   2.808 -1.8292 -0.2437 -1.2565
  152SOL     OW  454   0.393   0.022   1.420 -0.0184 -0.0321 -0.6276
  152SOL    HW1  455   0.294   3.065   1.431 -1.8428 -1.3200  2.5081
  152SOL    HW2  456   0.445   3.030   1.486  0.0143 -2.1978  3.0826
  153SOL     OW  457   2.495   2.733   1.707 -0.0822  0.4276 -0.2815
  153SOL    HW1  458   2.583   2.684   1.737  2.3893 -0.7327  3.4018
  153SOL    HW2  459   2.470   2.814   1.768 -0.2317 -0.8991  0.5783
  154SOL     OW  460   2.410   3.000   2.383 -0.2687 -0.1088 -0.3671
  154SOL    HW1  461   2.322   3.053   2.393  2.4965  2.8340  1.8581
  154SOL    HW2  462   2.483   0.003   2.374 -1.7992 -0.5079  3.4067
  155SOL     OW  463   0.246   1.156   0.394 -0.2957 -0.1330  0.1092
  155SOL    HW1  464   0.152   1.189   0.368  1.5371  1.6553 -0.4128
  155SOL    HW2  465   0.314   1.230   0.370 -1.1612  2.2639 -0.6321
  156SOL     OW  466   2.704   1.666   0.787  0.1234 -0.1572 -0.0289
  156SOL    HW1  467   2.787   1.667   0.841 -0.6547  1.9835 -3.2631
  156SOL    HW2  468   2.727   1.687   0.689 -2.0483  1.5218 -1.8036
  157SOL     OW  469   0.731   0.584   0.568  0.0119 -0.3177 -0.7580
  157SOL    HW1  470   0.706   0.483   0.579 -0.6543 -3.0167  0.7746
  157SOL    HW2  471   0.779   0.614   0.656 -0.1581 -4.1791  0.9893
  158SOL     OW  472   1.836   0.968   1.086 -0.4125 -0.1533  0.0587
  158SOL    HW1  473   1.843   0.930   0.991 -0.0072 -5.7864 -2.8687
  158SOL    HW2  474   1.749   1.022   1.088  0.5649  1.6740 -2.0117
  159SOL     OW  475   3.065   0.499   0.214 -0.2684  0.4314  0.1320
  159SOL    HW1  476   0.021   0.598   0.190  0.4241 -1.4780  3.0716
  159SOL    HW2  477   0.064   0.428   0.187  0.5987 -1.3973 -0.5211
  160SOL     OW  478   2.092   1.957   1.965 -0.0445 -0.1133 -0.3025
  160SOL    HW1  479   2.095   1.954   2.066 -1.8118  1.6305  2.4527
  160SOL    HW2  480   2.022   2.027   1.937  2.1751  0.8160  1.0412
  161SOL     OW  481   0.380   1.033   2.886 -0.5283  0.3936  0.1197
  161SOL    HW1  482   0.428   1.044   2.794  1.1660 -0.5363 -0.6138
  161SOL    HW2  483   0.299   0.981   2.865  2.4955  2.5554  0.4986
  162SOL     OW  484   0.641   0.266   2.087 -0.3277  0.0024 -0.5727
  162SOL    HW1  485   0.679   0.174   2.078 -1.0428  0.2233 -0.2581
  162SOL    HW2  486   0.552   0.272   2.039  2.7880  1.7860 -1.3313
  163SOL     OW  487   2.837   2.905   2.493 -0.0094  0.0024 -1.0565
  163SOL    HW1  488   2.748   2.945   2.496  0.1636 -0.8687  1.5282
  163SOL    HW2  489   2.848   2.843   2.412 -0.5438  0.4834  1.3943
  164SOL     OW  490   2.099   2.035   0.407  0.0224 -0.1695 -0.6377
  164SOL    HW1  491   2.164   2.034   0.333 -1.4525 -3.0754  0.9013
  164SOL    HW2  492   2.116   2.113   0.476 -0.2416  0.5029  2.4918
  165SOL     OW  493   0.420   0.101   1.157 -0.4591  0.3073 -0.5603
  165SOL    HW1  494   0.471   0.045   1.087  1.2867  0.7433 -2.5061
  165SOL    HW2  495   0.389   0.043   1.233  3.1948  2.3336 -2.4963
  166SOL     OW  496   2.545   0.504   0.433  0.1429  0.1356  0.0853
  166SOL    HW1  497   2.636   0.478   0.468  2.6381 -0.6314  2.1779
  166SOL    HW2  498   2.495   0.422   0.394  0.0365 -2.1724 -0.2300
  167SOL     OW  499   2.407   0.988   0.285  0.3668  0.2106  0.0783
  167SOL    HW1  500   2.433   0.900   0.329 -0.1582 -0.0559  0.5601
  167SOL    HW2  501   2.358   0.965   0.200 -1.5699  2.7706  2.3415
  168SOL     OW  502   1.410   2.891   2.441  0.2047  0.3862  0.3412
  168SOL    HW1  503   1.349   2.810   2.451 -0.2543  4.2352 -1.5976
  168SOL    HW2  504   1.499   2.882   2.480 -1.1347  0.7515 -0.3256
  169SOL     OW  505   0.705   1.823   0.594 -0.3479 -0.4037  0.3397
  169SOL    HW1  506   0.623   1.851   0.651  0.6996  2.2561 -0.4940
  169SOL    HW2  507   0.788   1.846   0.649  0.8898 -0.8047 -0.0146
  170SOL     OW  508   2.999   1.035   1.372  0.3167  0.4398  0.0255
  170SOL    HW1  509   0.033   1.020   1.401  4.5066  0.9535  0.1131
  170SOL    HW2  510   2.959   0.945   1.353  1.9665  1.2829  0.4362
  171SOL     OW  511   2.787   1.431   2.503 -0.1094  0.0664  0.3084
  171SOL    HW1  512   2.756   1.333   2.481 -1.7862 -1.7939  0.0883
  171SOL    HW2  513   2.857   1.464   2.438 -2.2555 -0.4714  0.0757
  172SOL     OW  514   0.981   1.727   1.241 -0.5192  0.0350 -0.1351
  172SOL    HW1  515   0.888   1.695   1.228  1.6097  1.5320 -0.2216
  172SOL    HW2  516   1.045   1.646   1.231 -1.0107  0.1114  2.4674
  173SOL     OW  517   1.972   1.866   3.059  0.3437 -0.1394  0.0795
  173SOL    HW1  518   1.878   1.898   0.008  0.9469  0.4914 -0.9101
  173SOL    HW2  519   2.003   1.801   0.061 -2.2018 -0.9511 -1.9184
  174SOL     OW  520   1.874   0.789   2.705 -0.0633 -0.1588 -0.2038
  174SOL    HW1  521   1.913   0.755   2.616  0.6143 -1.5745 -0.9838
  174SOL    HW2  522   1.902   0.720   2.775  0.1638 -0.2281  1.2684
  175SOL     OW  523   1.182   1.528   1.287 -0.4764 -0.3745 -0.0278
  175SOL    HW1  524   1.123   1.485   1.354  3.1611 -1.2085 -1.1193
  175SOL    HW2  525   1.267   1.572   1.334  1.0477 -0.8303  0.6552
  176SOL     OW  526   1.172   0.178   0.089 -0.3447 -0.2721  0.2491
  176SOL    HW1  527   1.132   0.270   0.108 -0.8718  0.0987 -0.2280
  176SOL    HW2  528   1.223   0.180   3.067 -0.1621  0.2293 -2.6207
  177SOL     OW  529   0.206   1.430   0.154 -0.3447 -0.3037  0.0968
  177SOL    HW1  530   0.300   1.405   0.188  2.8932  3.1875 -2.0312
  177SOL    HW2  531   0.199   1.520   0.112  0.8338 -2.2288  0.7789
  178SOL     OW  532   2.964   2.461   2.582  0.0866 -0.4561  0.2821
  178SOL    HW1  533   2.970   2.405   2.666 -0.0712  0.2492 -0.8572
  178SOL    HW2  534   3.050   2.469   2.534 -3.0719 -0.7354  0.8041
  179SOL     OW  535   2.746   2.619   2.599  0.4796  0.0402 -0.4640
  179SOL    HW1  536   2.704   2.638   2.510  1.6335 -3.2262 -0.2645
  179SOL    HW2  537   2.829   2.566   2.584 -2.2380  1.7009 -0.3488
  180SOL     OW  538   2.420   0.512   1.087 -0.5357 -0.1048 -0.3247
  180SOL    HW1  539   2.404   0.608   1.116 -0.3188 -1.7164 -0.9053
  180SOL    HW2  540   2.506   0.512   1.035  0.2846  2.9261  0.1478
  181SOL     OW  541   2.375   0.358   2.487  0.3456 -0.0790 -0.8924
  181SOL    HW1  542   2.406   0.283   2.550 -1.6605 -1.3090 -0.2442
  181SOL    HW2  543   2.309   0.321   2.415  0.9538  0.1909 -0.0616
  182SOL     OW  544   2.473   2.446   2.360 -0.2109  0.5257 -0.4329
  182SOL    HW1  545   2.422   2.471   2.445  0.1521  0.6221  0.0473
  182SOL    HW2  546   2.540   2.524   2.341 -2.3462  1.7739  1.9341
  183SOL     OW  547   2.167   0.802   2.039 -0.3636  0.6569  0.0519
  183SOL    HW1  548   2.267   0.788   2.013  2.0716  0.5621  1.1558
  183SOL    HW2  549   2.153   0.904   2.045  0.9325 -1.6008 -0.1386
  184SOL     OW  550   0.314   1.435   0.802  0.2790  0.3209  0.1139
  184SOL    HW1  551   0.387   1.494   0.848  2.1057  0.9322  1.3661
  184SOL    HW2  552   0.253   1.398   0.873  1.3232 -0.1001 -0.1991
  185SOL     OW  553   2.834   0.133   0.583  0.3094  0.6170  0.4688
  185SOL    HW1  554   2.760   0.141   0.515 -2.2835  0.7960  2.2941
  185SOL    HW2  555   2.924   0.121   0.538  0.1324  2.1393  2.1801
  186SOL     OW  556   2.291   2.541   2.551  0.1307 -0.0684 -0.5368
  186SOL    HW1  557   2.225   2.477   2.595 -2.0768 -1.1489 -0.1684
  186SOL    HW2  558   2.243   2.620   2.510  0.1000  0.7429 -0.6879
  187SOL     OW  559   0.795   1.585   0.528 -0.1457  0.3592 -0.1555
  187SOL    HW1  560   0.897   1.579   0.543  1.4700 -0.6489  0.0981
  187SOL    HW2  561   0.769   1.684   0.521  1.0662 -0.8832  1.8380
  188SOL     OW  562   2.145   1.432   0.761  0.0016  0.1610  0.4528
  188SOL    HW1  563   2.244   1.421   0.772 -0.8236 -1.4072  2.6187
  188SOL    HW2  564   2.122   1.501   0.689  0.9835  1.4600 -3.0594
  189SOL     OW  565   0.045   1.541   2.854 -0.0798 -0.1822  0.3679
  189SOL    HW1  566   0.099   1.580   2.930  1.5101  1.4364 -0.7372
  189SOL    HW2  567   0.083   1.451   2.815  2.6352 -3.1797  2.2589
  190SOL     OW  568   2.382   0.524   2.221  0.2346 -0.5129  0.0734
  190SOL    HW1  569   2.432   0.494   2.301  1.3746  1.3171 -1.0437
  190SOL    HW2  570   2.296   0.561   2.259  2.6216  1.1566  2.1585
  191SOL     OW  571   1.102   0.421   2.200  0.3013  0.1044  0.4814
  191SOL    HW1  572   1.108   0.325   2.206 -0.5823  2.5587 -2.6411
  191SOL    HW2  573   1.042   0.461   2.266  0.4596 -0.1668 -1.6505
  192SOL     OW  574   1.161   1.511   1.817  0.1074 -0.3214  0.6036
  192SOL    HW1  575   1.208   1.422   1.792 -0.7231  1.3289 -0.5652
  192SOL    HW2  576   1.195   1.591   1.763  1.5783 -0.0823 -1.9493
  193SOL     OW  577   1.053   2.886   0.743  0.0902  0.6105 -0.4269
  193SOL    HW1  578   1.133   2.884   0.678 -0.4774  1.4060  1.1177
  193SOL    HW2  579   1.015   2.791   0.773 -2.7251 -1.6390  0.6535
  194SOL     OW  580   0.774   1.865   2.120  0.2389 -0.2292 -0.7722
  194SOL    HW1  581   0.872   1.845   2.140  1.6781 -1.1495 -0.6585
  194SOL    HW2  582   0.771   1.929   2.043  2.7969  0.4450  0.3413
  195SOL     OW  583   2.239   0.437   0.521 -0.5152 -0.7570  0.1082
  195SOL    HW1  584   2.224   0.499   0.438 -0.5361 -0.4416 -1.8071
  195SOL    HW2  585   2.222   0.482   0.615 -0.1648  1.1195 -0.1803
  196SOL     OW  586   0.967   1.273   2.105  0.2739  0.2680 -0.7694
  196SOL    HW1  587   1.021   1.357   2.118  3.3676 -2.3493 -0.8670
  196SOL    HW2  588   0.907   1.293   2.025  1.0028  1.5882 -1.8297
  197SOL     OW  589   0.097   0.360   1.780  0.0425  0.6885 -0.1758
  197SOL    HW1  590   0.050   0.298   1.848 -0.7161 -0.1040 -0.0929
  197SOL    HW2  591   0.125   0.446   1.829 -0.4693  1.1282 -1.0695
  198SOL     OW  592   0.502   1.049   1.016  0.3080  0.3450  0.8298
  198SOL    HW1  593   0.583   0.998   0.983 -0.2474  2.0341  0.0488
  198SOL    HW2  594   0.445   1.082   0.940  0.1878  2.1942  3.9934
  199SOL     OW  595   0.223   2.311   0.953  0.3180 -0.2964 -0.2917
  199SOL    HW1  596   0.260   2.383   0.896 -0.2018  1.4056  0.0723
  199SOL    HW2  597   0.159   2.348   1.021  0.1751 -1.1297 -1.8793
  200SOL     OW  598   1.632   1.533   2.711  0.2614 -0.3443 -0.9292
  200SOL    HW1  599   1.703   1.461   2.689  2.0299  2.1552 -1.2419
  200SOL    HW2  600   1.661   1.593   2.789  1.4430 -0.6243  0.7932
  201SOL     OW  601   0.387   2.445   1.706 -0.4110 -0.3125 -0.4280
  201SOL    HW1  602   0.445   2.487   1.631  2.3240  0.9152 -0.1715
  201SOL    HW2  603   0.390   2.345   1.700 -2.2044  1.6082  2.6277
  202SOL     OW  604   1.113   3.021   2.895 -0.0588  0.0044 -0.1447
  202SOL    HW1  605   1.020   2.976   2.883  0.1859 -1.2242 -1.8544
  202SOL    HW2  606   1.107   0.058   2.879 -0.3812  3.9134 -0.3085
  203SOL     OW  607   1.447   0.379   2.304  0.3928 -0.1567 -0.3199
  203SOL    HW1  608   1.432   0.362   2.202 -0.3824  0.2067  0.3094
  203SOL    HW2  609   1.546   0.392   2.320 -1.6319  1.3050 -0.5164
  204SOL     OW  610   0.566   0.877   1.381 -0.0542  0.4402  0.1227
  204SOL    HW1  611   0.615   0.920   1.461  2.4407  1.8810  0.3578
  204SOL    HW2  612   0.566   0.775   1.377 -0.0340 -0.1776  0.1271
  205SOL     OW  613   2.050   1.017   2.739 -0.0624 -0.0239  0.1763
  205SOL    HW1  614   1.980   0.940   2.750  1.1147 -0.6011  0.0804
  205SOL    HW2  615   2.065   1.035   2.640  2.5060 -0.5011  1.9005
  206SOL     OW  616   0.582   1.922   2.789 -0.3343  0.2981  0.5805
  206SOL    HW1  617   0.609   1.823   2.803 -2.5434 -2.4704  0.3685
  206SOL    HW2  618   0.593   1.946   2.688  1.2026  0.9141 -1.9162
  207SOL     OW  619   0.368   0.335   1.989  0.5184  0.6973 -0.3848
  207SOL    HW1  620   0.355   0.426   2.036 -1.6980 -0.6871 -1.1828
  207SOL    HW2  621   0.390   0.343   1.891  3.2259  0.0173  2.6239
  208SOL     OW  622   0.545   2.548   1.505 -0.1555 -0.2903 -0.1090
  208SOL    HW1  623   0.463   2.555   1.445  0.0815  1.4588  1.1816
  208SOL    HW2  624   0.619   2.502   1.445 -1.5585 -1.8486 -0.2695
  209SOL     OW  625   1.232   2.568   3.043  0.6711 -0.2450 -0.0544
  209SOL    HW1  626   1.157   2.561   0.042  0.5768  1.9513  0.1885
  209SOL    HW2  627   1.200   2.642   2.981 -0.4283 -0.9325 -2.5801
  210SOL     OW  628   2.872   1.476   1.741  0.4572 -0.9253 -0.3450
  210SOL    HW1  629   2.905   1.563   1.779 -2.1660  1.7276  0.8678
  210SOL    HW2  630   2.774   1.480   1.723 -0.5286  0.4082 -0.7700
  211SOL     OW  631   1.129   0.168   1.756 -0.1338  0.2858  0.1915
  211SOL    HW1  632   1.090   0.258   1.751 -0.5045 -2.1812 -0.0016
  211SOL    HW2  633   1.166   0.147   1.852 -2.0288  0.8512 -1.3615
  212SOL     OW  634   1.039   2.070   1.574 -0.1416 -0.0205  0.5397
  212SOL    HW1  635   0.956   2.116   1.536  3.6172 -1.3371  1.4249
  212SOL    HW2  636   1.123   2.125   1.585 -0.2043 -0.3609  1.9564
  213SOL     OW  637   2.356   0.458   1.955 -0.2402 -0.2468  0.0658
  213SOL    HW1  638   2.316   0.527   1.894  0.6632  0.7661  1.2112
  213SOL    HW2  639   2.355   0.480   2.054  3.0743 -2.2036 -0.6349
  214SOL     OW  640   0.780   1.894   1.787  0.5041 -0.2324 -0.3402
  214SOL    HW1  641   0.877   1.893   1.815 -1.1373  0.9891 -0.1282
  214SOL    HW2  642   0.749   1.977   1.740  1.9151 -0.9715 -0.3593
  215SOL     OW  643   2.819   1.916   1.158  0.1922  0.2024 -0.7681
  215SOL    HW1  644   2.778   1.857   1.240 -0.7236 -3.2937  0.8880
  215SOL    HW2  645   2.772   2.008   1.150 -2.0678  0.4200 -2.5297
  216SOL     OW  646   0.013   0.697   1.295  0.0921  0.4356  0.0881
  216SOL    HW1  647   0.081   0.768   1.269 -0.1105  0.8165 -1.4667
  216SOL    HW2  648   0.047   0.636   1.369 -0.4328 -0.4305  0.3795
  217SOL     OW  649   2.542   0.168   1.405  0.1628  0.4009  0.2089
  217SOL    HW1  650   2.564   0.150   1.309 -1.1582  2.2260  1.7845
  217SOL    HW2  651   2.585   0.089   1.459  1.6420 -4.2823  0.4070
  218SOL     OW  652   1.334   2.174   1.095 -0.9696 -0.0978 -0.3182
  218SOL    HW1  653   1.411   2.108   1.100  0.6431 -1.2744 -2.7159
  218SOL    HW2  654   1.290   2.174   1.001  0.5965 -4.6691  1.2961
  219SOL     OW  655   1.673   2.308   0.283 -0.3688 -0.1958  0.3249
  219SOL    HW1  656   1.657   2.343   0.376  2.1405 -0.7679 -3.3689
  219SOL    HW2  657   1.731   2.372   0.231 -1.1133  1.4064  1.8775
  220SOL     OW  658   1.807   2.487   0.140  0.4318 -0.2879  0.3894
  220SOL    HW1  659   1.740   2.549   0.184  1.0515 -2.1902 -1.3115
  220SOL    HW2  660   1.895   2.537   0.126  3.6806  0.2001  1.0510
  221SOL     OW  661   0.078   2.049   1.120  0.3304  0.4889 -0.0293
  221SOL    HW1  662   0.174   2.035   1.094 -1.0141 -0.4715  1.4168
  221SOL    HW2  663   0.059   1.985   1.196  1.3573  1.7079  0.3091
  222SOL     OW  664   1.573   2.327   0.783 -0.0836  0.0504 -0.2202
  222SOL    HW1  665   1.617   2.387   0.851 -1.5852 -1.3357 -1.8681
  222SOL    HW2  666   1.587   2.229   0.804  0.2015  0.9651  1.0773
  223SOL     OW  667   0.581   2.723   2.478  0.3025 -0.9504 -0.4722
  223SOL    HW1  668   0.582   2.802   2.410 -2.2301  2.9179  1.9348
  223SOL    HW2  669   0.594   2.643   2.417 -0.6801 -0.3480 -0.0278
  224SOL     OW  670   0.055   1.896   1.355 -0.2198 -1.1781 -0.3415
  224SOL    HW1  671   3.041   1.858   1.395  3.2932  3.4692 -0.0033
  224SOL    HW2  672   0.124   1.915   1.427 -1.3931 -1.5785  0.0677
  225SOL     OW  673   2.266   1.583   1.041 -0.2382  0.4389 -0.3744
  225SOL    HW1  674   2.356   1.542   1.063 -4.7192  2.8241 -1.3271
  225SOL    HW2  675   2.278   1.634   0.954 -0.9405 -2.2031  0.9507
  226SOL     OW  676   1.287   2.778   0.320  0.0265 -0.1000  0.5027
  226SOL    HW1  677   1.343   2.756   0.237 -1.4334 -2.1327 -1.2885
  226SOL    HW2  678   1.222   2.853   0.292 -0.1303  0.9122 -1.4450
  227SOL     OW  679   1.616   0.896   1.397 -0.4873  0.0096 -0.4322
  227SOL    HW1  680   1.553   0.966   1.358 -0.4583  0.0456  1.4099
  227SOL    HW2  681   1.717   0.922   1.402  2.6332 -3.0482  0.4077
  228SOL     OW  682   1.433   0.663   2.013  0.3096 -0.2059  0.4935
  228SOL    HW1  683   1.499   0.736   2.034 -2.7997 -1.6363 -0.1111
  228SOL    HW2  684   1.411   0.657   1.913  1.2959  1.8998 -0.3226
  229SOL     OW  685   2.869   0.719   2.729  0.3284 -0.4259  0.0374
  229SOL    HW1  686   2.905   0.711   2.826 -0.8880 -0.4241  1.9507
  229SOL    HW2  687   2.823   0.812   2.711  1.4499 -0.8106  0.8086
  230SOL     OW  688   1.024   1.154   0.913 -0.2216 -0.2719  0.2628
  230SOL    HW1  689   1.067   1.069   0.951 -0.1391 -1.6552  2.3583
  230SOL    HW2  690   1.052   1.228   0.979 -1.0300  2.7678  0.7059
  231SOL     OW  691   2.506   2.912   1.947 -0.0741  0.9672  0.2965
  231SOL    HW1  692   2.549   2.992   1.897 -0.6297 -3.5503  0.2068
  231SOL    HW2  693   2.562   2.869   2.015 -1.0352 -0.9526 -1.3063
  232SOL     OW  694   0.556   2.019   0.363 -0.4508 -0.3825  0.5947
  232SOL    HW1  695   0.627   1.955   0.344 -1.0283  2.9941  2.8411
  232SOL    HW2  696   0.599   2.101   0.403  1.9057  0.7425 -1.9023
  233SOL     OW  697   1.197   2.275   2.529  0.2891  0.2143 -0.0403
  233SOL    HW1  698   1.292   2.250   2.496  1.5052  2.9340  2.8190
  233SOL    HW2  699   1.204   2.341   2.606  0.9385  0.0653 -1.2740
  234SOL     OW  700   0.806   1.233   1.646  0.2048 -0.5827  0.1712
  234SOL    HW1  701   0.775   1.254   1.743  0.4047  3.7336 -0.4791
  234SOL    HW2  702   0.813   1.313   1.584  0.7277  1.7943 -0.8787
  235SOL     OW  703   0.661   1.660   1.696  0.2154 -0.3375  1.1910
  235SOL    HW1  704   0.639   1.618   1.784 -0.3892  0.9799 -1.9316
  235SOL    HW2  705   0.702   1.752   1.708 -1.7715  1.5066  1.3370
  236SOL     OW  706   1.636   2.627   2.429  0.1396  0.3704 -0.5159
  236SOL    HW1  707   1.544   2.615   2.389  0.1488  0.4344  0.3019
  236SOL    HW2  708   1.696   2.669   2.361 -0.2293 -1.5284  0.3423
  237SOL     OW  709   1.391   0.070   0.203 -0.0279 -0.6636 -0.3194
  237SOL    HW1  710   1.451   0.149   0.200 -0.6971  0.2300 -0.4347
  237SOL    HW2  711   1.298   0.103   0.206  1.7228  0.3051 -1.2956
  238SOL     OW  712   1.538   0.618   2.731  0.5162 -0.7907 -0.0895
  238SOL    HW1  713   1.559   0.518   2.734 -2.1112  1.2279 -0.3924
  238SOL    HW2  714   1.601   0.675   2.785 -0.7773  0.6199  0.7812
  239SOL     OW  715   0.369   0.599   2.094 -0.2382  0.3596  0.8039
  239SOL    HW1  716   0.455   0.628   2.044  3.2944  1.5405  2.0399
  239SOL    HW2  717   0.340   0.677   2.152  2.3045  0.1496 -1.2297
  240SOL     OW  718   2.271   2.637   0.639  0.2042  0.1631 -0.0749
  240SOL    HW1  719   2.177   2.653   0.614  2.6133 -0.2920  0.9546
  240SOL    HW2  720   2.298   2.707   0.709 -1.2793 -0.7165 -0.5351
  241SOL     OW  721   1.286   1.326   1.500 -0.2079 -0.3670  0.1407
  241SOL    HW1  722   1.196   1.282   1.501 -0.5191 -1.8979 -1.0772
  241SOL    HW2  723   1.323   1.306   1.590 -1.5747 -0.5929 -1.5287
  242SOL     OW  724   0.091   0.746   0.637 -0.2927  0.8381  0.0217
  242SOL    HW1  725   3.066   0.783   0.615 -3.4968 -1.0194  0.8857
  242SOL    HW2  726   0.160   0.798   0.583  0.1402  2.0109  3.2135
  243SOL     OW  727   0.307   0.548   1.243 -0.3764  0.1993  0.0115
  243SOL    HW1  728   0.232   0.482   1.266 -0.4452  0.7049  1.0122
  243SOL    HW2  729   0.380   0.510   1.186 -3.0714  2.4906  1.7392
  244SOL     OW  730   1.252   0.475   3.057  0.8210  0.1872 -0.1011
  244SOL    HW1  731   1.302   0.556   0.003 -3.2172  0.7520 -1.1397
  244SOL    HW2  732   1.162   0.483   0.038  1.3421 -1.3176 -0.6066
  245SOL     OW  733   2.099   0.986   0.104 -0.1384 -0.1490  0.0926
  245SOL    HW1  734   2.166   1.060   0.126 -1.7165  2.5514 -0.6408
  245SOL    HW2  735   2.013   1.014   0.154 -0.2844 -0.9878 -1.3004
  246SOL     OW  736   3.035   0.891   2.170 -0.5862  0.4412  0.1106
  246SOL    HW1  737   2.980   0.863   2.091  0.0070 -2.2756  1.4441
  246SOL    HW2  738   0.004   0.978   2.145 -1.7091 -3.6233 -2.8886
  247SOL     OW  739   0.404   3.003   2.072  0.1467  0.3424 -0.3239
  247SOL    HW1  740   0.307   2.966   2.039 -2.9947  1.6301 -3.4184
  247SOL    HW2  741   0.460   3.041   1.998 -1.4631 -0.1583  0.9708
  248SOL     OW  742   0.456   1.484   2.287 -0.3893 -0.0281  0.9506
  248SOL    HW1  743   0.491   1.573   2.258 -1.7858 -1.9349  0.6812
  248SOL    HW2  744   0.455   1.427   2.203 -0.3921 -1.0173  0.1142
  249SOL     OW  745   0.407   0.201   2.783  0.2181 -0.3983 -0.2649
  249SOL    HW1  746   0.333   0.137   2.766 -0.0077  0.5554 -0.2309
  249SOL    HW2  747   0.395   0.283   2.724  2.2325  2.1714  1.0506
  250SOL     OW  748   0.240   2.971   2.899 -0.5025  0.8506 -0.1523
  250SOL    HW1  749   0.154   2.917   2.885 -1.2037  0.4169  1.8853
  250SOL    HW2  750   0.264   3.025   2.816 -1.8762 -0.0532 -1.1782
  251SOL     OW  751   0.265   1.596   0.597  0.4405  0.1650 -0.1486
  251SOL    HW1  752   0.169   1.590   0.569  0.1668  0.6028 -0.4969
  251SOL    HW2  753   0.280   1.547   0.687 -0.6386  0.9617  3.0095
  252SOL     OW  754   1.513   2.671   2.102  0.1874 -0.0337  0.1799
  252SOL    HW1  755   1.612   2.677   2.096  0.8334 -1.6864 -2.7890
  252SOL    HW2  756   1.490   2.591   2.162 -0.2901 -2.5340 -0.8416
  253SOL     OW  757   1.570   1.884   2.613  0.5370 -0.0304 -0.6637
  253SOL    HW1  758   1.581   1.817   2.535 -3.4939  0.5476 -2.4663
  253SOL    HW2  759   1.518   1.851   2.696  0.1226 -1.1388 -0.8147
  254SOL     OW  760   0.329   1.660   1.664 -0.0520  0.0510 -0.2696
  254SOL    HW1  761   0.270   1.578   1.655  0.9514 -0.7505  0.9902
  254SOL    HW2  762   0.388   1.655   1.584 -2.1206 -0.0593 -0.9439
  255SOL     OW  763   0.988   0.036   1.574 -0.1688  0.3524 -0.8617
  255SOL    HW1  764   1.061   0.050   1.643  2.3808  0.7602  1.7099
  255SOL    HW2  765   0.909   0.099   1.599 -1.8566  0.3307 -0.7413
  256SOL     OW  766   2.931   2.193   1.015  0.7214  0.7945  0.3687
  256SOL    HW1  767   2.843   2.166   1.063 -0.4966  0.5885  1.0089
  256SOL    HW2  768   2.995   2.118   1.012  1.8508 -2.2070 -0.8074
  257SOL     OW  769   0.036   2.592   3.042  0.1388  0.1506  0.3584
  257SOL    HW1  770   0.081   2.644   0.048 -0.3205  2.0518 -0.6455
  257SOL    HW2  771   3.014   2.554   3.062  2.7110  0.9768  1.0160
  258SOL     OW  772   0.994   2.195   2.091 -0.3548  0.2284 -0.1854
  258SOL    HW1  773   1.038   2.119   2.145  1.9107 -3.3660  2.3824
  258SOL    HW2  774   1.054   2.246   2.037 -4.8494  1.0654  0.0208
  259SOL     OW  775   1.010   1.716   2.473 -0.0450  0.2290  0.5402
  259SOL    HW1  776   1.088   1.740   2.534  0.3215 -0.8408 -2.2616
  259SOL    HW2  777   0.921   1.738   2.522  0.0371  0.0459  0.7573
  260SOL     OW  778   2.340   0.813   2.415 -0.0148 -0.3142 -0.5370
  260SOL    HW1  779   2.309   0.736   2.475 -0.4056  1.6932 -0.8985
  260SOL    HW2  780   2.311   0.797   2.321  0.0580  0.5206 -1.9298
  261SOL     OW  781   1.444   0.715   1.018 -0.0543  0.0389 -0.1864
  261SOL    HW1  782   1.452   0.698   0.921 -0.2796  3.2112  1.8309
  261SOL    HW2  783   1.437   0.812   1.040  1.1955  2.1269  1.4376
  262SOL     OW  784   2.152   2.344   2.666  0.3620  0.1548  0.0484
  262SOL    HW1  785   2.215   2.292   2.728  0.5502  2.2187 -2.1853
  262SOL    HW2  786   2.093   2.270   2.624 -1.0030  0.9658  1.0012
  263SOL     OW  787   0.430   2.276   0.644 -0.0415 -0.0668 -0.1043
  263SOL    HW1  788   0.399   2.371   0.656  1.0908  0.5598  0.8216
  263SOL    HW2  789   0.510   2.275   0.575  0.8881  1.0222 -1.1296
  264SOL     OW  790   3.038   2.124   0.589 -0.0281  0.2258  0.1053
  264SOL    HW1  791   0.017   2.034   0.590  0.0928  1.2880  2.5306
  264SOL    HW2  792   3.005   2.149   0.495 -1.4122  2.3110 -0.6003
  265SOL     OW  793   0.570   1.174   0.139 -0.3069  0.5063 -0.6189
  265SOL    HW1  794   0.566   1.080   0.172 -0.6820 -1.1131 -2.0055
  265SOL    HW2  795   0.666   1.211   0.163  1.4675 -0.1984 -1.9678
  266SOL     OW  796   0.837   2.191   2.433 -0.3042  0.0463 -1.0382
  266SOL    HW1  797   0.885   2.115   2.392 -2.2681  0.4421  3.3731
  266SOL    HW2  798   0.864   2.203   2.531  0.6141  0.0161  1.0675
  267SOL     OW  799   1.708   0.693   2.357  0.5392  0.3321 -0.5352
  267SOL    HW1  800   1.636   0.720   2.430  2.2221  0.2002 -1.2188
  267SOL    HW2  801   1.800   0.729   2.379  0.1364 -2.1755 -0.5219
  268SOL     OW  802   0.812   0.940   0.134  0.4620 -0.0316  0.0260
  268SOL    HW1  803   0.856   1.027   0.164  2.3795 -0.5096 -0.4581
  268SOL    HW2  804   0.735   0.922   0.199  2.4157 -3.8579  3.3228
  269SOL     OW  805   2.410   1.890   2.291  0.5560 -0.1784 -0.0539
  269SOL    HW1  806   2.474   1.841   2.230  0.1444  0.0958 -0.0808
  269SOL    HW2  807   2.446   1.986   2.313  0.0251  2.0833 -1.9244
  270SOL     OW  808   1.419   1.812   2.856 -0.4107 -0.5226  0.1404
  270SOL    HW1  809   1.414   1.884   2.930 -0.2658  1.9448  2.9878
  270SOL    HW2  810   1.434   1.722   2.900  1.2877  1.1735 -0.3704
  271SOL     OW  811   0.126   0.248   0.156  0.0520  0.9822  0.0931
  271SOL    HW1  812   0.209   0.239   0.093  0.4352 -1.6637 -0.8297
  271SOL    HW2  813   0.044   0.262   0.102  2.3457  2.0654  0.5828
  272SOL     OW  814   2.778   0.419   0.532  0.7903  0.4012 -0.1986
  272SOL    HW1  815   2.867   0.383   0.494 -0.5470 -1.4131 -0.4938
  272SOL    HW2  816   2.797   0.510   0.571 -3.1191 -2.5723  1.0783
  273SOL     OW  817   0.505   2.946   1.625 -0.5312 -0.8021 -0.2791
  273SOL    HW1  818   0.509   3.008   1.706 -1.5733 -2.5493  0.0000
  273SOL    HW2  819   0.426   2.875   1.633  1.0849 -0.0915  3.0519
  274SOL     OW  820   2.588   0.743   1.467 -0.1581  0.3886 -0.3940
  274SOL    HW1  821   2.574   0.807   1.543  0.1986  2.3477 -0.0379
  274SOL    HW2  822   2.505   0.684   1.454 -0.7840  0.0881 -2.5364
  275SOL     OW  823   1.099   1.654   0.754 -0.3876  0.0282  0.2993
  275SOL    HW1  824   1.095   1.589   0.673  1.6468 -0.5593 -0.2629
  275SOL    HW2  825   1.184   1.710   0.746 -1.4210  0.2585  1.0131
  276SOL     OW  826   0.556   0.860   2.005  0.2495  0.0283  0.6629
  276SOL    HW1  827   0.470   0.916   2.019  4.0461 -2.5427 -0.8336
  276SOL    HW2  828   0.562   0.790   2.079 -1.0284 -0.3513 -1.4407
  277SOL     OW  829   0.967   2.589   2.042  0.4909  0.1017  0.3091
  277SOL    HW1  830   1.063   2.561   2.057 -0.2158  1.2779  1.1079
  277SOL    HW2  831   0.945   2.588   1.943  3.6078  1.9770 -2.1093
  278SOL     OW  832   1.791   2.817   1.898  0.2428 -0.2884 -0.2090
  278SOL    HW1  833   1.812   2.814   1.799  0.8936  2.3988  1.1526
  278SOL    HW2  834   1.853   2.882   1.948 -1.7477  2.3518 -0.7402
  279SOL     OW  835   1.552   1.538   0.321  0.3636  0.5905  0.1391
  279SOL    HW1  836   1.602   1.592   0.255  0.6907 -2.6039  3.6323
  279SOL    HW2  837   1.455   1.529   0.292 -2.0399 -0.2001 -0.0287
  280SOL     OW  838   1.415   1.156   0.243 -0.7047  0.2302  0.3715
  280SOL    HW1  839   1.367   1.097   0.311 -0.2280 -2.4295 -0.8258
  280SOL    HW2  840   1.466   1.232   0.288  0.7748  0.4807  1.5758
  281SOL     OW  841   0.418   0.308   1.448 -0.5268 -0.3784 -0.5204
  281SOL    HW1  842   0.473   0.371   1.392 -1.2969 -0.3564 -0.4066
  281SOL    HW2  843   0.428   0.212   1.408 -2.1849  0.0804 -0.0416
  282SOL     OW  844   0.025   2.600   0.653  0.6133  0.0855 -0.0208
  282SOL    HW1  845   0.017   2.630   0.552  0.8629  1.8934  0.7037
  282SOL    HW2  846   0.034   2.498   0.658 -1.3960 -0.1956  1.9436
  283SOL     OW  847   1.286   2.087   1.961 -0.4627  0.5290 -0.1080
  283SOL    HW1  848   1.302   1.998   2.008  2.6892  0.9500 -1.2373
  283SOL    HW2  849   1.374   2.134   1.938  0.5592  1.4536  0.0409
  284SOL     OW  850   2.800   2.693   1.069 -0.1215 -0.2784  0.2834
  284SOL    HW1  851   2.752   2.776   1.036  1.4049 -1.3041 -1.5318
  284SOL    HW2  852   2.845   2.709   1.162  0.5830 -2.0405  3.3055
  285SOL     OW  853   0.339   2.064   2.788 -0.3796  0.5596  0.0272
  285SOL    HW1  854   0.407   1.985   2.778  1.4545  0.0370  1.3554
  285SOL    HW2  855   0.324   2.114   2.700 -2.1588  0.1472  2.9149
  286SOL     OW  856   0.158   2.776   1.107  0.3041 -0.3392 -0.4051
  286SOL    HW1  857   0.108   2.856   1.151 -0.9735  1.6515  0.1916
  286SOL    HW2  858   0.090   2.717   1.058  0.7926  1.7590 -1.3261
  287SOL     OW  859   0.602   1.022   0.553 -0.1385 -0.0467 -0.2243
  287SOL    HW1  860   0.697   1.020   0.594  1.3240 -1.7083 -0.7334
  287SOL    HW2  861   0.539   1.095   0.588 -1.2935  0.6923 -0.5862
  288SOL     OW  862   1.988   1.869   2.755  0.4081 -0.0357 -0.1057
  288SOL    HW1  863   1.960   1.856   2.852 -1.7879  0.3137  1.1845
  288SOL    HW2  864   2.050   1.951   2.759 -0.1335 -2.4059 -2.2553
  289SOL     OW  865   0.146   1.923   2.948 -0.2628 -0.3955  0.3499
  289SOL    HW1  866   0.217   1.962   2.882 -1.6056  0.1155 -1.8476
  289SOL    HW2  867   0.179   1.839   2.996 -1.5793  1.2707 -1.4773
  290SOL     OW  868   1.371   1.684   1.398 -0.2921  0.3382 -0.1277
  290SOL    HW1  869   1.327   1.768   1.368  0.3685  0.6314  3.1084
  290SOL    HW2  870   1.452   1.656   1.341 -0.4695 -0.5525  3.1869
  291SOL     OW  871   1.218   1.126   2.859  0.1104  0.2127 -0.0521
  291SOL    HW1  872   1.131   1.074   2.845 -1.8548  0.3054  0.6159
  291SOL    HW2  873   1.266   1.091   2.943  0.7394  0.7252  1.9195
  292SOL     OW  874   1.058   1.601   0.259 -0.4182  0.0443  0.0935
  292SOL    HW1  875   1.063   1.542   0.343  1.1247  0.5765 -2.7804
  292SOL    HW2  876   0.973   1.591   0.203  1.5894  1.3486  2.3145
  293SOL     OW  877   1.591   3.015   0.788 -0.3241 -0.8818  0.3159
  293SOL    HW1  878   1.598   2.934   0.727 -0.8252  1.3815 -0.3060
  293SOL    HW2  879   1.508   3.065   0.765 -1.1993 -2.8478  2.8302
  294SOL     OW  880   1.773   1.127   2.370 -0.1489 -0.7406  0.5490
  294SOL    HW1  881   1.736   1.082   2.452 -0.5404 -1.3623 -2.4291
  294SOL    HW2  882   1.720   1.212   2.355 -1.8382  0.0091  1.4708
  295SOL     OW  883   1.728   1.940   0.082 -0.1326  0.1731 -0.2985
  295SOL    HW1  884   1.635   1.969   0.039 -3.5244  2.0014 -1.8496
  295SOL    HW2  885   1.758   2.025   0.134 -0.1353  2.0740 -0.4895
  296SOL     OW  886   1.335   0.685   1.749  0.4605 -0.2811  0.4668
  296SOL    HW1  887   1.404   0.708   1.678 -2.7518 -0.0598  1.2565
  296SOL    HW2  888   1.275   0.765   1.750 -1.7665 -2.1565  0.1578
  297SOL     OW  889   2.960   0.899   1.792 -0.2242 -0.5025 -0.2199
  297SOL    HW1  890   2.897   0.953   1.857 -1.6375  0.5699 -1.7549
  297SOL    HW2  891   3.059   0.902   1.823 -1.6787  0.7800  2.2739
  298SOL     OW  892   0.981   1.798   1.506  0.3498  0.1261 -0.9785
  298SOL    HW1  893   1.001   1.895   1.516 -0.5950 -0.0186 -0.4533
  298SOL    HW2  894   0.981   1.770   1.401  1.2014  0.4534 -3.8581
  299SOL     OW  895   1.007   0.081   2.582  0.0651  0.3890  0.1675
  299SOL    HW1  896   1.091   0.074   2.522  2.1042 -0.3779  1.3902
  299SOL    HW2  897   0.970   3.054   2.595  0.3741 -1.0478  0.0188
  300SOL     OW  898   2.947   1.321   2.970 -0.1518  0.1005  0.3383
  300SOL    HW1  899   2.980   1.415   2.953  0.2410  2.9861  2.0604
  300SOL    HW2  900   3.026   1.257   2.992  0.6041 -0.3264 -0.6250
  301SOL     OW  901   1.973   0.752   2.427 -0.1453  0.2845  0.0307
  301SOL    HW1  902   2.036   0.688   2.370  1.2716 -2.9974 -2.9115
  301SOL    HW2  903   2.006   0.849   2.431 -0.2888 -1.5380 -2.0376
  302SOL     OW  904   2.492   1.946   2.719  0.0400 -0.0034  0.1431
  302SOL    HW1  905   2.420   1.952   2.643 -1.2644 -0.3150  1.9029
  302SOL    HW2  906   2.572   2.008   2.702 -2.2017 -2.7189  1.6097
  303SOL     OW  907   0.151   2.347   2.805 -0.1737 -0.0264  0.6383
  303SOL    HW1  908   0.219   2.403   2.860 -0.7175 -1.7275  0.9379
  303SOL    HW2  909   0.107   2.273   2.858  0.8090 -0.9832  2.3204
  304SOL     OW  910   0.441   1.927   1.352 -0.2361 -0.2056 -0.3755
  304SOL    HW1  911   0.370   1.950   1.421 -0.7145  2.0105 -0.2686
  304SOL    HW2  912   0.535   1.909   1.396  0.1491 -1.8930  0.1752
  305SOL     OW  913   2.423   0.827   1.917  0.1688 -0.0889  0.5552
  305SOL    HW1  914   2.483   0.793   1.995 -1.6328  0.8396  1.7510
  305SOL    HW2  915   2.489   0.839   1.845 -0.6513 -2.1618  3.9890
  306SOL     OW  916   1.840   1.330   1.182  0.0189  0.5418 -0.0981
  306SOL    HW1  917   1.765   1.277   1.133 -0.0696 -0.9462 -0.2090
  306SOL    HW2  918   1.875   1.284   1.265  0.2626  1.3821  1.1755
  307SOL     OW  919   3.041   0.510   0.772 -0.2463 -0.1004 -0.2919
  307SOL    HW1  920   0.031   0.556   0.704 -2.8345 -0.4320  1.8838
  307SOL    HW2  921   0.021   0.518   0.865  2.2668 -5.1565 -0.7606
  308SOL     OW  922   0.203   1.426   1.574  0.7370 -0.4044 -0.2844
  308SOL    HW1  923   0.212   1.384   1.487  3.2247 -0.3246  0.3034
  308SOL    HW2  924   0.125   1.387   1.621  1.5206  1.8285  2.8155
  309SOL     OW  925   2.488   2.198   1.809 -0.0079 -0.3247  0.1383
  309SOL    HW1  926   2.486   2.274   1.741 -0.2719  2.0940  2.2478
  309SOL    HW2  927   2.443   2.226   1.896  0.0747  0.0227 -0.1444
  310SOL     OW  928   2.204   1.293   2.524 -0.0417  0.4914 -0.0487
  310SOL    HW1  929   2.181   1.370   2.587  0.1803 -0.2275  0.8167
  310SOL    HW2  930   2.269   1.233   2.570 -1.5700  3.3223  0.1592
  311SOL     OW  931   1.505   1.286   2.921  0.5069 -0.3108 -0.2444
  311SOL    HW1  932   1.444   1.364   2.891 -2.4183  3.9023 -2.8852
  311SOL    HW2  933   1.457   1.213   2.971  1.9689  0.1902  1.0797
  312SOL     OW  934   1.264   1.987   2.455 -0.3141 -0.1937 -0.2795
  312SOL    HW1  935   1.323   2.069   2.478  1.0898  1.0229  2.3448
  312SOL    HW2  936   1.164   2.017   2.443 -1.5367  0.2240  0.1213
  313SOL     OW  937   0.305   0.356   0.889  0.6258 -0.0545 -0.2589
  313SOL    HW1  938   0.291   0.458   0.887 -1.2814  0.6059 -1.8379
  313SOL    HW2  939   0.254   0.311   0.966  1.3113  1.1814 -2.2778
  314SOL     OW  940   0.824   1.861   0.991  0.1351  0.3967 -0.1835
  314SOL    HW1  941   0.844   1.961   1.015 -0.1459  0.7009  3.9960
  314SOL    HW2  942   0.785   1.819   1.075 -0.0445 -1.8987 -0.1237
  315SOL     OW  943   0.494   2.114   2.179 -0.2041 -0.2560  0.5801
  315SOL    HW1  944   0.451   2.165   2.102 -0.2582 -1.6445 -0.0740
  315SOL    HW2  945   0.436   2.040   2.212 -0.2327 -0.0074 -0.4318
  316SOL     OW  946   0.309   2.516   0.741 -0.1432 -0.4436 -0.2489
  316SOL    HW1  947   0.245   2.558   0.678  0.2507  1.7897  2.3416
  316SOL    HW2  948   0.327   2.576   0.824 -0.4012 -0.9099 -0.3162
  317SOL     OW  949   2.748   3.035   1.221 -0.5549 -0.6051 -0.0702
  317SOL    HW1  950   2.760   0.036   1.147 -1.0624 -0.2564  0.2179
  317SOL    HW2  951   2.658   2.990   1.225  1.5071  0.2002 -0.4525
  318SOL     OW  952   2.059   2.630   0.123 -0.1314  0.0791  0.2460
  318SOL    HW1  953   2.109   2.590   0.043  2.1640 -0.6279  0.2419
  318SOL    HW2  954   2.114   2.621   0.207 -0.4862 -1.6497 -0.6458
  319SOL     OW  955   1.414   1.017   2.422 -0.1834  0.3611 -0.2568
  319SOL    HW1  956   1.398   1.077   2.501  1.7765  0.5628 -0.1966
  319SOL    HW2  957   1.453   0.927   2.446 -1.1313  1.3924  0.1540
  320SOL     OW  958   0.173   2.128   2.228  0.1331 -0.3129  0.7247
  320SOL    HW1  959   0.234   2.202   2.190  2.5825  0.4030  1.1202
  320SOL    HW2  960   0.080   2.155   2.262 -0.4263 -0.7160  1.5439
  321SOL     OW  961   0.624   2.426   0.133 -0.7086  0.3117 -0.4528
  321SOL    HW1  962   0.665   2.518   0.157  1.8037 -1.8515 -2.0142
  321SOL    HW2  963   0.521   2.417   0.134  0.2205 -1.2163 -0.7255
  322SOL     OW  964   2.569   0.549   2.548  0.1891  0.3557  0.1162
  322SOL    HW1  965   2.527   0.626   2.610 -2.0687  2.0833  1.7802
  322SOL    HW2  966   2.498   0.486   2.511 -2.0498  2.2862  1.8269
  323SOL     OW  967   2.642   1.301   0.880 -0.3958 -0.3357 -0.8178
  323SOL    HW1  968   2.716   1.347   0.938  0.7174  1.6164 -0.2402
  323SOL    HW2  969   2.659   1.202   0.874 -2.3465 -1.1351  1.1970
  324SOL     OW  970   0.069   0.353   1.280  0.2840  0.0362  0.4447
  324SOL    HW1  971   0.054   0.398   1.369 -2.0686 -0.4054 -2.1156
  324SOL    HW2  972   3.059   0.292   1.265 -2.1557  0.6639 -1.3949
  325SOL     OW  973   2.978   2.980   1.680 -0.4249  0.0789  0.3061
  325SOL    HW1  974   2.976   3.012   1.583 -0.4159 -0.9671 -0.3133
  325SOL    HW2  975   0.003   2.995   1.713 -2.8748  0.3464 -1.7799
  326SOL     OW  976   1.980   2.866   0.322  0.4900 -0.7791  0.2120
  326SOL    HW1  977   2.078   2.848   0.298  1.8224  2.0433 -0.7392
  326SOL    HW2  978   1.919   2.872   0.238 -0.3813 -0.3937 -0.1677
  327SOL     OW  979   1.998   1.577   0.577 -0.6914 -0.5266 -0.0507
  327SOL    HW1  980   1.968   1.674   0.560 -1.0053 -0.5354 -1.8520
  327SOL    HW2  981   1.926   1.511   0.580  1.7660  0.2256 -1.2703
  328SOL     OW  982   0.009   2.001   2.540  0.1576  0.0243  0.0434
  328SOL    HW1  983   0.005   1.954   2.632  0.8129  2.9373  1.2160
  328SOL    HW2  984   0.085   2.066   2.536 -1.2478  1.2652  1.4544
  329SOL     OW  985   0.308   2.229   1.506  0.1083  0.1162 -0.2093
  329SOL    HW1  986   0.372   2.273   1.436 -0.0701  2.0518  0.3155
  329SOL    HW2  987   0.367   2.182   1.573 -0.3394 -1.2425 -0.7478
  330SOL     OW  988   2.372   1.122   2.668 -0.0426 -0.1924  0.3528
  330SOL    HW1  989   2.442   1.062   2.631  0.4649  1.6864 -1.2021
  330SOL    HW2  990   2.343   1.087   2.758 -1.6895  1.6625  0.0105
  331SOL     OW  991   2.667   2.095   0.876 -0.4754  0.0364  0.5651
  331SOL    HW1  992   2.668   2.110   0.977  0.2733 -0.7776  1.0171
  331SOL    HW2  993   2.607   2.166   0.828 -0.0454  0.9153 -2.8111
  332SOL     OW  994   0.553   2.755   0.723  0.1824  0.5322  0.0330
  332SOL    HW1  995   0.475   2.820   0.726 -1.1264  3.0118  2.3752
  332SOL    HW2  996   0.607   2.757   0.812 -0.6590 -2.0685  1.2834
  333SOL     OW  997   2.275   1.962   2.539 -0.1288 -0.5390  0.0366
  333SOL    HW1  998   2.190   2.020   2.512 -1.8335 -1.2116 -1.9760
  333SOL    HW2  999   2.313   1.934   2.449 -0.2607  0.5707 -1.1432
  334SOL     OW 1000   0.694   1.325   0.701  0.0743 -0.1763  0.1745
  334SOL    HW1 1001   0.605   1.306   0.659 -1.3301  0.7505 -0.2885
  334SOL    HW2 1002   0.694   1.418   0.747 -2.7788  2.5314  0.3293
  335SOL     OW 1003   2.855   1.999   2.385 -0.1573 -0.2526  0.0751
  335SOL    HW1 1004   2.926   2.005   2.458  2.8377 -1.8981  0.7002
  335SOL    HW2 1005   2.784   1.931   2.409  0.7504 -0.2317 -2.3532
  336SOL     OW 1006   2.390   2.767   2.235  0.4004 -0.2159  0.4027
  336SOL    HW1 1007   2.394   2.856   2.285  0.6017 -0.3605 -2.0305
  336SOL    HW2 1008   2.307   2.751   2.181 -1.6070  0.7352  1.9683
  337SOL     OW 1009   0.811   0.701   0.799  0.6818 -0.1531 -0.0553
  337SOL    HW1 1010   0.906   0.719   0.799 -0.9966  0.1848  1.5578
  337SOL    HW2 1011   0.759   0.785   0.832 -1.5499  0.3460 -2.0550
  338SOL     OW 1012   1.275   1.854   0.882  0.1895  0.4859 -0.2268
  338SOL    HW1 1013   1.209   1.887   0.952  2.2671  1.2633 -0.1338
  338SOL    HW2 1014   1.298   1.937   0.826 -0.5196  0.7207  0.7021
  339SOL     OW 1015   0.277   1.913   1.571  0.1353  0.2272  0.2143
  339SOL    HW1 1016   0.295   1.970   1.652 -3.7357 -2.2543 -0.6676
  339SOL    HW2 1017   0.295   1.815   1.590  0.7547  1.6784 -0.9382
  340SOL     OW 1018   1.157   2.681   1.791  0.1803 -0.1301 -0.1239
  340SOL    HW1 1019   1.134   2.777   1.828 -0.3725  1.4207 -0.4969
  340SOL    HW2 1020   1.252   2.654   1.817 -0.1089  0.0360  1.2187
  341SOL     OW 1021   1.550   1.610   1.220 -0.0814  0.4429 -0.6365
  341SOL    HW1 1022   1.532   1.677   1.146  0.4981  0.6820  0.8337
  341SOL    HW2 1023   1.650   1.592   1.215 -1.0263  3.1746 -0.6375
  342SOL     OW 1024   2.516   1.504   1.086 -0.0701  0.7167 -0.5906
  342SOL    HW1 1025   2.606   1.500   1.051  1.6027 -1.7407 -1.0400
  342SOL    HW2 1026   2.489   1.412   1.120  2.1560  1.8286  1.0911
  343SOL     OW 1027   2.184   0.397   1.072  0.4018 -0.3081  0.4018
  343SOL    HW1 1028   2.278   0.441   1.089  2.7287  2.6082  2.1488
  343SOL    HW2 1029   2.187   0.337   0.990  0.1767 -0.8328 -0.2314
  344SOL     OW 1030   2.392   0.225   0.566  0.2230  0.1373 -0.1512
  344SOL    HW1 1031   2.328   0.299   0.537 -1.1971 -0.0087 -0.2052
  344SOL    HW2 1032   2.452   0.265   0.639  2.7012  0.4049 -1.6092
  345SOL     OW 1033   0.802   2.867   1.863 -0.0065 -0.1745 -0.3409
  345SOL    HW1 1034   0.792   2.841   1.963  1.6172  1.6129 -1.6575
  345SOL    HW2 1035   0.752   2.797   1.807 -0.0321 -3.0796 -1.0693
  346SOL     OW 1036   2.519   2.002   0.577 -0.3829 -0.1432 -0.4626
  346SOL    HW1 1037   2.619   1.995   0.584  1.6339  0.1787 -1.9428
  346SOL    HW2 1038   2.495   2.082   0.638  4.0886 -1.4880  1.1381
  347SOL     OW 1039   2.518   2.888   1.232  0.0974  0.0015  0.0530
  347SOL    HW1 1040   2.478   2.801   1.269 -1.7548  0.3985 -0.1092
  347SOL    HW2 1041   2.440   2.957   1.211  0.8426  1.5892 -2.2862
  348SOL     OW 1042   1.204   0.935   1.421 -0.4190  0.7072 -0.0821
  348SOL    HW1 1043   1.294   0.972   1.388  0.9014 -4.5108 -3.1264
  348SOL    HW2 1044   1.194   0.837   1.399  0.9553 -0.1796 -1.2927
  349SOL     OW 1045   2.257   0.598   2.530  0.4440 -0.1073  0.2544
  349SOL    HW1 1046   2.305   0.511   2.504 -1.3298 -2.9736 -0.8726
  349SOL    HW2 1047   2.234   0.596   2.630  3.1044  0.4832  0.9262
  350SOL     OW 1048   1.900   2.502   0.471  0.5123  0.5997  0.5728
  350SOL    HW1 1049   1.934   2.523   0.564  0.9952 -0.9123  1.1821
  350SOL    HW2 1050   1.982   2.494   0.409  1.2901  0.8730 -1.6414
  351SOL     OW 1051   1.478   0.352   0.153 -0.1386 -0.1464 -0.3046
  351SOL    HW1 1052   1.554   0.378   0.087  3.4555 -0.6617 -2.1183
  351SOL    HW2 1053   1.383   0.364   0.114  1.8673  0.9437 -0.9450
  352SOL     OW 1054   1.986   2.553   2.244  0.5459  0.2753 -0.0090
  352SOL    HW1 1055   1.928   2.530   2.318  1.0317 -0.3369 -3.2948
  352SOL    HW2 1056   1.927   2.558   2.156  3.4733 -0.4037  0.2774
  353SOL     OW 1057   0.477   1.153   2.677  0.6199 -0.3224 -0.2737
  353SOL    HW1 1058   0.389   1.131   2.632 -4.5337  3.5809  2.9809
  353SOL    HW2 1059   0.517   1.236   2.633  0.8936  1.0399  0.1573
  354SOL     OW 1060   0.430   2.889   2.616 -0.1962  0.7621  0.2468
  354SOL    HW1 1061   0.492   2.836   2.559  0.7892  1.4907  0.6275
  354SOL    HW2 1062   0.470   2.906   2.710 -0.5212  1.8686  2.5067
  355SOL     OW 1063   2.356   2.635   1.318  0.1435 -0.6279  0.3728
  355SOL    HW1 1064   2.328   2.687   1.400  0.5460 -0.6217 -3.0153
  355SOL    HW2 1065   2.362   2.537   1.332  1.0571  2.4698  1.6177
  356SOL     OW 1066   2.822   0.682   0.563  0.0098 -0.1159 -0.2541
  356SOL    HW1 1067   2.866   0.774   0.565  0.1163 -0.9963 -0.4587
  356SOL    HW2 1068   2.730   0.697   0.606  0.1346  0.2789 -1.6226
  357SOL     OW 1069   2.944   0.095   1.467 -0.1556  0.3795 -0.2392
  357SOL    HW1 1070   2.940   0.173   1.534  1.8608  0.1664  0.1727
  357SOL    HW2 1071   2.922   0.132   1.374 -2.1953  0.8593 -1.8834
  358SOL     OW 1072   3.002   1.632   1.366 -0.4315 -0.1675  0.2793
  358SOL    HW1 1073   2.923   1.570   1.382  0.1173 -1.9626 -1.4176
  358SOL    HW2 1074   2.977   1.697   1.291 -0.4856 -1.9097 -1.2805
  359SOL     OW 1075   2.163   2.777   2.690  0.2432 -0.1722 -0.1418
  359SOL    HW1 1076   2.260   2.786   2.660  0.8896  1.2302  1.4875
  359SOL    HW2 1077   2.103   2.779   2.608  1.6945 -0.3337 -0.7478
  360SOL     OW 1078   1.247   0.654   1.390  0.1941  0.2144 -0.0156
  360SOL    HW1 1079   1.186   0.594   1.448  0.2402  1.1060  2.8377
  360SOL    HW2 1080   1.338   0.672   1.438  0.6205  0.1290  1.1941
  361SOL     OW 1081   2.670   2.370   1.252 -0.2886 -0.2323 -0.4553
  361SOL    HW1 1082   2.752   2.343   1.303  0.1539 -0.7260  0.7034
  361SOL    HW2 1083   2.690   2.420   1.167 -0.2306  1.8604  0.8124
  362SOL     OW 1084   1.532   0.294   0.554 -0.3184 -0.1466 -0.4718
  362SOL    HW1 1085   1.465   0.354   0.507  0.9580 -0.4755  0.7284
  362SOL    HW2 1086   1.493   0.259   0.642  0.5491 -1.0030  1.7522
  363SOL     OW 1087   1.653   1.143   1.045 -0.0673  0.6667 -0.2470
  363SOL    HW1 1088   1.561   1.151   1.086  2.9723  0.5562  0.0977
  363SOL    HW2 1089   1.657   1.179   0.951  0.6059  0.4579 -0.4690
  364SOL     OW 1090   0.271   0.905   1.634  0.2966  0.5207 -0.3143
  364SOL    HW1 1091   0.308   0.813   1.597 -0.0779 -1.7036 -1.1861
  364SOL    HW2 1092   0.246   0.965   1.556  0.5398  2.7744 -1.3958
  365SOL     OW 1093   2.827   0.561   1.038 -0.8212 -0.2710  0.0667
  365SOL    HW1 1094   2.927   0.553   1.004  1.3815  3.4290  1.1642
  365SOL    HW2 1095   2.817   0.525   1.133  1.7620 -1.9544 -0.2782
  366SOL     OW 1096   2.769   1.412   0.561  0.2577 -0.0655  0.4053
  366SOL    HW1 1097   2.705   1.456   0.628 -1.1802  3.1108 -2.1031
  366SOL    HW2 1098   2.860   1.382   0.597 -1.9260 -0.3546 -1.5791
  367SOL     OW 1099   2.133   1.934   2.249  0.4819 -0.3510 -0.0578
  367SOL    HW1 1100   2.107   2.033   2.259 -0.6526  1.3367  0.6398
  367SOL    HW2 1101   2.233   1.920   2.223  0.0704 -1.0693 -2.5865
  368SOL     OW 1102   2.442   1.993   1.308 -0.1545 -0.3742  0.3913
  368SOL    HW1 1103   2.470   1.986   1.406  0.3150 -0.4256  1.5065
  368SOL    HW2 1104   2.417   1.900   1.276  0.4659 -2.0568  0.2365
  369SOL     OW 1105   2.020   2.953   2.821 -0.1786  0.2875 -0.2025
  369SOL    HW1 1106   2.076   3.035   2.856 -0.4112  2.4117  0.2780
  369SOL    HW2 1107   2.075   2.893   2.766  0.4112  0.2600 -0.1783
  370SOL     OW 1108   0.790   0.296   1.041 -0.4223 -0.0680  0.4827
  370SOL    HW1 1109   0.832   0.330   0.953  0.7759 -0.9190 -2.0620
  370SOL    HW2 1110   0.809   0.197   1.051 -0.3979 -1.8513  2.8905
  371SOL     OW 1111   0.647   1.418   0.378 -0.2902 -0.0454 -0.6622
  371SOL    HW1 1112   0.701   1.360   0.313  1.3842 -0.2244  2.8098
  371SOL    HW2 1113   0.706   1.487   0.432 -0.7016  0.5740  3.1819
  372SOL     OW 1114   0.587   0.892   2.621  0.0439  0.4627  0.3905
  372SOL    HW1 1115   0.537   0.833   2.560  0.5036  1.6811  0.9212
  372SOL    HW2 1116   0.544   0.980   2.633 -2.4501  0.5939 -1.8973
  373SOL     OW 1117   1.173   2.766   2.838 -0.6532  0.5915  0.1209
  373SOL    HW1 1118   1.157   2.856   2.879  3.2684  0.5103 -0.0924
  373SOL    HW2 1119   1.261   2.768   2.775  3.4168  1.0771 -1.1111
  374SOL     OW 1120   1.168   1.794   0.454 -0.6451  0.0417  0.3913
  374SOL    HW1 1121   1.256   1.763   0.493 -0.4338  1.3647  0.5108
  374SOL    HW2 1122   1.147   1.745   0.367  3.6909 -0.3005  0.8056
  375SOL     OW 1123   0.512   0.651   1.828 -0.5038 -0.3184 -0.3698
  375SOL    HW1 1124   0.558   0.739   1.853  1.4439 -1.7640 -0.0866
  375SOL    HW2 1125   0.583   0.578   1.827  1.4566 -0.4306  1.7439
  376SOL     OW 1126   0.063   2.452   1.580 -0.2557 -0.3149 -0.1874
  376SOL    HW1 1127   0.149   2.398   1.564  0.1327 -0.6157  2.1987
  376SOL    HW2 1128   0.085   2.533   1.639  0.7598 -0.1841 -2.5888
  377SOL     OW 1129   2.671   1.622   2.900  0.0816  0.7765  0.1330
  377SOL    HW1 1130   2.574   1.642   2.873  1.3797 -0.3406 -0.0983
  377SOL    HW2 1131   2.729   1.617   2.819 -1.7916  1.8777 -1.4005
  378SOL     OW 1132   1.820   3.003   2.986 -0.1640  0.0937  0.2436
  378SOL    HW1 1133   1.810   2.936   3.066 -1.7616 -1.2150 -0.9268
  378SOL    HW2 1134   1.891   2.982   2.915  0.8155  0.3313 -2.8388
  379SOL     OW 1135   1.948   0.518   0.681 -0.7168 -0.0249 -0.1554
  379SOL    HW1 1136   1.983   0.425   0.650  0.9596 -3.6507 -2.1269
  379SOL    HW2 1137   1.992   0.547   0.769 -0.0829  1.3504 -0.1054
  380SOL     OW 1138   2.792   1.885   1.866  0.6470 -0.1998  0.3028
  380SOL    HW1 1139   2.874   1.830   1.858 -0.2918 -1.0877 -0.3448
  380SOL    HW2 1140   2.748   1.883   1.958 -0.6670  0.9179 -0.8129
  381SOL     OW 1141   2.170   1.524   2.333 -0.3095 -0.0970  0.3625
  381SOL    HW1 1142   2.252   1.577   2.320 -2.8667  0.6411 -0.7108
  381SOL    HW2 1143   2.189   1.434   2.379  0.5688 -1.5568 -2.4037
  382SOL     OW 1144   2.849   2.915   2.795  0.7887  0.2314 -0.4361
  382SOL    HW1 1145   2.813   2.821   2.817 -1.4100 -0.8375 -1.0296
  382SOL    HW2 1146   2.844   2.934   2.694  0.1105 -1.9990 -1.2259
  383SOL     OW 1147   0.961   1.297   0.011 -0.0557 -0.4248 -0.2926
  383SOL    HW1 1148   0.903   1.249   3.015  2.4462  2.7296 -0.4351
  383SOL    HW2 1149   1.047   1.336   3.038  0.3413 -0.7389  0.5343
  384SOL     OW 1150   1.384   2.003   1.553 -0.2967  0.5691  0.7314
  384SOL    HW1 1151   1.346   2.080   1.604  2.2132 -0.4667 -1.7109
  384SOL    HW2 1152   1.336   1.978   1.468 -2.3274 -1.0889 -0.4925
  385SOL     OW 1153   1.950   2.554   0.714 -0.5544 -0.2354 -0.3225
  385SOL    HW1 1154   1.986   2.638   0.672 -1.2967 -2.4326 -0.8195
  385SOL    HW2 1155   1.870   2.578   0.770  0.0337  0.4341 -0.7692
  386SOL     OW 1156   1.863   1.501   0.884  0.1972  0.1415 -0.1161
  386SOL    HW1 1157   1.874   1.593   0.929  1.7381 -0.8563 -1.9727
  386SOL    HW2 1158   1.951   1.478   0.842  0.9737  1.8681  0.3139
  387SOL     OW 1159   2.642   2.112   1.150  0.0911 -0.2017 -0.1484
  387SOL    HW1 1160   2.642   2.211   1.166 -0.4935  0.0455  0.1338
  387SOL    HW2 1161   2.569   2.066   1.205  1.2283 -0.2994  0.5644
  388SOL     OW 1162   2.888   1.081   1.611 -0.2376 -0.4381 -0.3512
  388SOL    HW1 1163   2.906   1.050   1.515 -0.5766 -2.7602  0.0586
  388SOL    HW2 1164   2.917   1.006   1.679 -0.3212  0.6437 -0.2538
  389SOL     OW 1165   2.232   0.556   0.121  0.2806 -0.3095 -0.0999
  389SOL    HW1 1166   2.148   0.537   0.172 -2.4268  0.8005 -2.3721
  389SOL    HW2 1167   2.305   0.498   0.164 -0.0389  0.4110 -0.0706
  390SOL     OW 1168   1.148   1.554   2.716 -0.1487 -0.3684  0.2992
  390SOL    HW1 1169   1.157   1.653   2.729  1.0056  1.9011  0.7514
  390SOL    HW2 1170   1.213   1.512   2.646  1.5841 -1.2187 -0.7031
  391SOL     OW 1171   1.186   2.154   2.959 -0.4576  0.1314  0.5044
  391SOL    HW1 1172   1.139   2.109   3.035  0.8510  1.8331  0.9561
  391SOL    HW2 1173   1.140   2.239   2.927 -0.7166 -0.4250  1.8296
  392SOL     OW 1174   0.145   2.583   1.815 -0.1768 -0.3791 -0.2219
  392SOL    HW1 1175   0.159   2.615   1.907  1.7978 -4.4241 -2.0306
  392SOL    HW2 1176   0.197   2.493   1.805  2.5649 -2.9066 -1.2461
  393SOL     OW 1177   1.187   2.324   0.209 -0.1971  0.1856  0.6142
  393SOL    HW1 1178   1.128   2.257   0.157  0.2416  2.2729 -0.0064
  393SOL    HW2 1179   1.288   2.297   0.200  3.7775  0.7720 -0.0685
  394SOL     OW 1180   0.481   0.605   2.478 -0.4927 -0.0419 -0.0929
  394SOL    HW1 1181   0.549   0.587   2.550  0.7142 -1.0723 -1.6982
  394SOL    HW2 1182   0.433   0.520   2.460  0.5971  2.3171  0.0564
  395SOL     OW 1183   0.432   1.277   1.140  0.1530  0.1608  0.0416
  395SOL    HW1 1184   0.485   1.196   1.105  1.1352 -2.4622 -0.0658
  395SOL    HW2 1185   0.345   1.287   1.079 -0.9057 -0.3687 -1.5776
  396SOL     OW 1186   1.671   1.077   2.105  0.3314  0.2936 -0.6126
  396SOL    HW1 1187   1.567   1.087   2.109 -0.4968 -2.7212 -1.3232
  396SOL    HW2 1188   1.703   1.101   2.200  1.6767  0.4250  3.1085
  397SOL     OW 1189   0.866   0.475   0.351 -0.0926 -0.0178  0.1106
  397SOL    HW1 1190   0.788   0.440   0.292  1.0910 -1.4650  0.1541
  397SOL    HW2 1191   0.823   0.502   0.440 -1.1845 -0.9179  2.2240
  398SOL     OW 1192   0.968   2.333   2.940  0.1983  0.0606  0.1254
  398SOL    HW1 1193   0.975   2.436   2.924 -0.8353 -2.9399  0.7861
  398SOL    HW2 1194   0.892   2.307   3.004  1.0630 -0.0602  0.1140
  399SOL     OW 1195   1.465   1.865   2.301 -0.1386  0.1290  0.0239
  399SOL    HW1 1196   1.384   1.905   2.350 -0.0011  3.1350 -3.6771
  399SOL    HW2 1197   1.504   1.787   2.350 -0.9278  0.0702  0.7587
  400SOL     OW 1198   2.104   1.624   1.490 -0.1580  0.2560  0.0141
  400SOL    HW1 1199   2.104   1.656   1.390 -1.3143  1.8815  0.5194
  400SOL    HW2 1200   2.096   1.522   1.500  1.2589 -1.1577 -1.4735
  401SOL     OW 1201   1.345   1.032   1.038 -0.3145 -0.6051  0.8566
  401SOL    HW1 1202   1.363   1.086   0.954  1.4346  1.2280  0.4677
  401SOL    HW2 1203   1.263   0.976   1.026  0.6544  2.7608 -2.3306
  402SOL     OW 1204   2.938   2.613   2.049  0.2821 -0.1299  0.0379
  402SOL    HW1 1205   2.941   2.667   1.964 -0.2484  1.1330 -0.2144
  402SOL    HW2 1206   3.025   2.616   2.100 -0.1704 -0.2459  2.6397
  403SOL     OW 1207   3.053   1.738   1.625  0.1250 -0.6902 -0.3213
  403SOL    HW1 1208   3.010   1.832   1.616  0.4659 -0.1836 -0.1127
  403SOL    HW2 1209   3.066   1.688   1.535  0.6615 -1.2128 -1.0611
  404SOL     OW 1210   1.928   1.916   1.139  0.1490  0.1976 -0.1886
  404SOL    HW1 1211   1.855   1.961   1.201 -2.2249  1.7031  1.2723
  404SOL    HW2 1212   1.991   1.987   1.102  0.1851 -0.4749  1.6107
  405SOL     OW 1213   2.598   0.319   2.912  0.2867  0.4990  0.2021
  405SOL    HW1 1214   2.609   0.381   2.984 -0.6916 -3.1279 -1.1182
  405SOL    HW2 1215   2.661   0.346   2.834 -0.5596  2.2129  1.5050
  406SOL     OW 1216   0.984   1.433   2.488  0.1198  0.8996  0.2555
  406SOL    HW1 1217   1.027   1.526   2.499  0.9949  1.4341 -0.3741
  406SOL    HW2 1218   0.949   1.400   2.578  0.6479 -2.9539  1.4546
  407SOL     OW 1219   1.834   2.795   0.097  0.2228  0.2243  0.4157
  407SOL    HW1 1220   1.920   2.744   0.084 -0.3636  1.2967 -0.4445
  407SOL    HW2 1221   1.775   2.755   0.166  4.1742 -1.0156  0.2348
  408SOL     OW 1222   0.357   2.939   0.760 -0.3249  0.2948  0.1328
  408SOL    HW1 1223   0.399   2.978   0.672 -1.1428  0.3590  1.6378
  408SOL    HW2 1224   0.262   2.904   0.743 -1.7853  0.7117  1.4818
  409SOL     OW 1225   2.306   1.941   0.872  0.0218 -0.1980 -0.1542
  409SOL    HW1 1226   2.302   1.906   0.779 -2.0903  0.0760 -0.0514
  409SOL    HW2 1227   2.391   1.914   0.920  1.5627  0.5928  0.3881
  410SOL     OW 1228   2.266   2.127   2.815 -0.2630 -0.6793  0.3874
  410SOL    HW1 1229   2.343   2.102   2.879  3.1198  0.7063  0.2113
  410SOL    HW2 1230   2.254   2.070   2.731 -0.2498  0.5899  1.1708
  411SOL     OW 1231   0.215   0.446   0.551  0.3618 -0.3967 -0.9471
  411SOL    HW1 1232   0.233   0.539   0.522 -0.3306 -1.4165  0.2997
  411SOL    HW2 1233   0.256   0.434   0.644  0.0766  2.0628  2.6970
  412SOL     OW 1234   1.649   2.679   0.255 -0.4266 -0.1929  0.3141
  412SOL    HW1 1235   1.622   2.653   0.350  2.1938  1.1373  3.4034
  412SOL    HW2 1236   1.568   2.694   0.203  4.1164 -2.2024  0.2491
  413SOL     OW 1237   1.955   0.384   2.142  0.2039  0.3699  0.2099
  413SOL    HW1 1238   1.966   0.439   2.057  0.4292  1.0183 -1.5712
  413SOL    HW2 1239   1.934   0.286   2.117 -1.3815 -1.9128 -0.1565
  414SOL     OW 1240   0.114   0.106   0.486  0.2836 -0.2477 -0.3554
  414SOL    HW1 1241   0.049   0.181   0.460  0.7685  0.2840 -0.5033
  414SOL    HW2 1242   0.173   0.135   0.562  0.0541 -0.0353  0.6155
  415SOL     OW 1243   0.691   1.744   1.186  0.4181  0.1314 -0.4871
  415SOL    HW1 1244   0.693   1.799   1.278  0.8795 -1.6069  3.0092
  415SOL    HW2 1245   0.627   1.660   1.194  3.0644 -2.3143  0.5567
  416SOL     OW 1246   0.162   2.738   0.154  0.8338 -0.0137  0.5244
  416SOL    HW1 1247   0.169   2.837   0.132  1.3544  0.1409 -1.0816
  416SOL    HW2 1248   0.118   2.724   0.248  0.6471 -2.0073  2.3641
  417SOL     OW 1249   2.650   2.909   0.956  0.2510 -0.6727 -0.2627
  417SOL    HW1 1250   2.596   2.911   1.046 -1.3834 -1.2308  1.2079
  417SOL    HW2 1251   2.604   2.964   0.881 -0.0070 -0.2890  1.9931
  418SOL     OW 1252   0.645   0.244   2.650  0.2696  0.4577 -0.3327
  418SOL    HW1 1253   0.573   0.213   2.716 -1.3539 -0.5730  0.5780
  418SOL    HW2 1254   0.711   0.304   2.694 -1.5564 -0.7039 -1.9567
  419SOL     OW 1255   0.449   1.291   0.610 -0.5638 -0.4105  0.0151
  419SOL    HW1 1256   0.410   1.297   0.516 -1.9553  0.6629 -1.7824
  419SOL    HW2 1257   0.390   1.334   0.682 -3.0625  0.2084  2.6722
  420SOL     OW 1258   1.633   1.819   0.943 -0.1395 -0.1507  0.0401
  420SOL    HW1 1259   1.734   1.824   0.965 -1.1251 -3.1142  0.1340
  420SOL    HW2 1260   1.609   1.745   0.881 -0.5781  4.0794  3.0114
  421SOL     OW 1261   1.704   2.046   2.281  0.1979  0.5630 -0.0410
  421SOL    HW1 1262   1.628   1.980   2.257 -2.2020 -2.2639  0.4677
  421SOL    HW2 1263   1.741   2.028   2.377 -0.0877  1.1939 -1.5149
  422SOL     OW 1264   2.992   0.709   2.967 -0.0267  0.4939 -0.5777
  422SOL    HW1 1265   0.015   0.667   2.952 -0.1489  2.7166  0.4216
  422SOL    HW2 1266   2.977   0.716   3.066  0.0575 -1.4023  1.7738
  423SOL     OW 1267   1.492   2.049   0.836 -0.0013  0.2729 -0.1666
  423SOL    HW1 1268   1.510   2.022   0.737  0.6623  0.3919  0.3607
  423SOL    HW2 1269   1.525   1.969   0.899  2.8989 -1.8462  3.2334
  424SOL     OW 1270   0.498   1.531   1.493  0.3161 -0.2682 -0.2119
  424SOL    HW1 1271   0.457   1.446   1.532  1.9901 -0.7692  0.1756
  424SOL    HW2 1272   0.553   1.578   1.565 -0.2661 -2.0397  2.0335
  425SOL     OW 1273   2.617   2.468   2.011  0.2070 -0.1021  0.1413
  425SOL    HW1 1274   2.644   2.534   1.937  0.4299 -0.6069  2.1596
  425SOL    HW2 1275   2.697   2.416   2.047  0.9622 -2.7535  2.3368
  426SOL     OW 1276   2.032   2.767   0.576  0.0669 -0.0334 -0.2490
  426SOL    HW1 1277   2.003   2.792   0.481  0.3574 -1.9029  2.4557
  426SOL    HW2 1278   2.050   2.849   0.635  1.4453 -1.3106  2.2433
  427SOL     OW 1279   0.627   0.758   2.884 -0.1339 -0.0495 -0.1524
  427SOL    HW1 1280   0.627   0.818   2.800 -0.1498  0.1801  0.0717
  427SOL    HW2 1281   0.581   0.809   2.960  1.1499  1.6992  1.1132
  428SOL     OW 1282   2.015   1.303   0.226  0.4704 -0.4726  0.7030
  428SOL    HW1 1283   1.949   1.223   0.227 -0.4721  0.4788 -0.5700
  428SOL    HW2 1284   1.959   1.384   0.204  1.9842  1.9432 -1.9495
  429SOL     OW 1285   3.028   2.962   0.402  0.4257 -0.8548  0.2984
  429SOL    HW1 1286   0.023   3.029   0.447 -3.2807  1.0070 -0.5159
  429SOL    HW2 1287   2.948   2.929   0.460  1.1636 -0.0240 -1.4437
  430SOL     OW 1288   0.552   2.921   2.288 -0.3681  0.0690  0.1809
  430SOL    HW1 1289   0.580   3.017   2.311 -2.2619  0.3617 -0.9832
  430SOL    HW2 1290   0.488   2.921   2.210 -1.0463 -0.1937  0.9115
  431SOL     OW 1291   2.871   1.290   1.295  0.2939  0.6494  0.2735
  431SOL    HW1 1292   2.830   1.348   1.370  2.1659  0.5719  0.1975
  431SOL    HW2 1293   2.941   1.218   1.323  5.0545 -0.0674 -2.6202
  432SOL     OW 1294   1.896   2.420   1.782  0.9254  0.5871  0.0180
  432SOL    HW1 1295   1.969   2.443   1.716 -1.3502 -1.7017  2.0714
  432SOL    HW2 1296   1.871   2.320   1.786 -2.0677 -2.1960 -1.9357
  433SOL     OW 1297   1.067   1.823   0.026  0.3275 -0.1464 -0.0448
  433SOL    HW1 1298   1.021   1.755   0.084  1.9811  0.6182  1.5031
  433SOL    HW2 1299   1.025   1.818   3.002 -2.4557 -0.3895  0.0821
  434SOL     OW 1300   0.176   2.224   2.567  0.0811  0.3188  0.3878
  434SOL    HW1 1301   0.195   2.277   2.479  0.6757  0.5415 -2.4254
  434SOL    HW2 1302   0.153   2.285   2.642 -1.9116 -2.6011 -3.5885
  435SOL     OW 1303   0.405   0.629   0.486 -0.0935 -0.6504  0.2305
  435SOL    HW1 1304   0.491   0.603   0.437  0.5561 -0.0684  1.1712
  435SOL    HW2 1305   0.425   0.699   0.555 -0.9346 -1.3984 -1.0387
  436SOL     OW 1306   0.314   2.784   1.661 -0.5346  0.0263 -0.3366
  436SOL    HW1 1307   0.317   2.731   1.751 -0.0550 -0.0051 -0.5202
  436SOL    HW2 1308   0.217   2.779   1.626 -1.5416  1.2079 -0.4739
  437SOL     OW 1309   0.839   2.147   1.387  0.0815 -0.4004 -0.0859
  437SOL    HW1 1310   0.806   2.226   1.442  1.2539  1.1157 -1.0426
  437SOL    HW2 1311   0.926   2.167   1.339  1.7138  2.8648 -0.3782
  438SOL     OW 1312   0.068   1.870   0.839  0.5369 -0.2578 -0.1825
  438SOL    HW1 1313   0.124   1.958   0.859 -0.5092  1.2148  0.8788
  438SOL    HW2 1314   0.055   1.868   0.739  2.6267  3.4924  0.4351
  439SOL     OW 1315   0.186   0.193   1.086 -0.3429  0.0241 -0.7177
  439SOL    HW1 1316   0.165   0.257   1.162  2.1795 -0.2618 -0.0536
  439SOL    HW2 1317   0.269   0.138   1.118  1.4985 -1.2316  0.9756
  440SOL     OW 1318   2.813   2.790   2.238 -0.2662 -0.4409  0.2962
  440SOL    HW1 1319   2.781   2.885   2.210  0.6645 -1.1716 -0.9580
  440SOL    HW2 1320   2.840   2.742   2.151 -2.4775 -0.4056 -0.4741
  441SOL     OW 1321   2.946   0.655   1.663  0.0882 -0.3155 -0.0624
  441SOL    HW1 1322   2.938   0.744   1.718 -0.4989 -0.7283  0.1334
  441SOL    HW2 1323   2.852   0.616   1.651 -3.5355  0.2715 -0.7320
  442SOL     OW 1324   1.853   2.319   2.956 -0.3663  0.7085 -0.4382
  442SOL    HW1 1325   1.928   2.261   2.994  2.9259 -0.5817 -1.8621
  442SOL    HW2 1326   1.792   2.362   3.024  0.8859  0.2224 -2.3892
  443SOL     OW 1327   0.519   0.837   0.050  0.0895  0.0753  0.4830
  443SOL    HW1 1328   0.421   0.824   0.026  3.8773 -0.2705  0.4483
  443SOL    HW2 1329   0.524   0.888   0.134 -0.4101 -2.9442 -2.6190
  444SOL     OW 1330   1.367   1.486   2.037  0.0497  0.1332  0.0404
  444SOL    HW1 1331   1.403   1.547   1.965 -2.1225  1.3080  0.7719
  444SOL    HW2 1332   1.266   1.485   2.044  0.6935  1.3201  3.5891
  445SOL     OW 1333   3.028   2.980   1.193  0.1547  0.1953 -0.1776
  445SOL    HW1 1334   3.039   3.037   1.110  1.3820 -1.8512  1.0524
  445SOL    HW2 1335   2.932   2.994   1.226 -1.7737  2.3122 -2.3540
  446SOL     OW 1336   2.392   0.752   1.187  0.0661 -0.2690 -0.1093
  446SOL    HW1 1337   2.465   0.816   1.152 -1.8187 -2.1255 -1.3779
  446SOL    HW2 1338   2.321   0.807   1.230  1.5178  1.1152 -0.6261
  447SOL     OW 1339   0.270   0.738   3.056 -0.6248  0.0361 -0.6486
  447SOL    HW1 1340   0.307   0.649   3.047 -2.0110  0.8872  3.1588
  447SOL    HW2 1341   0.237   0.773   2.966 -0.8927  3.6764  2.1779
  448SOL     OW 1342   1.253   2.214   1.659  0.6389  0.4699 -0.4009
  448SOL    HW1 1343   1.298   2.228   1.748 -0.2404 -0.7920 -1.9434
  448SOL    HW2 1344   1.236   2.302   1.605  2.3577  3.0991 -2.3528
  449SOL     OW 1345   1.208   1.109   0.697  0.5476 -0.0488  0.1041
  449SOL    HW1 1346   1.291   1.146   0.747 -1.6635  0.3617  0.9797
  449SOL    HW2 1347   1.128   1.154   0.742  1.1912  2.0725 -1.1365
  450SOL     OW 1348   2.490   1.724   1.949 -0.0873  0.1110 -0.1989
  450SOL    HW1 1349   2.561   1.744   2.022 -0.5604  2.0679  0.7726
  450SOL    HW2 1350   2.433   1.809   1.937  1.5988  0.8524  1.8430
  451SOL     OW 1351   2.789   1.203   2.766  0.7051  0.2273  0.6029
  451SOL    HW1 1352   2.695   1.248   2.753  1.2520 -1.6498  0.3265
  451SOL    HW2 1353   2.843   1.249   2.839 -2.5947  0.2976 -0.9205
  452SOL     OW 1354   1.676   0.712   1.191 -0.0352 -0.4132  0.1947
  452SOL    HW1 1355   1.591   0.701   1.139  1.6019  0.3545 -0.5967
  452SOL    HW2 1356   1.671   0.800   1.247 -0.6209 -0.4186  4.8095
  453SOL     OW 1357   2.133   1.046   1.104  0.5900 -0.0258  0.3230
  453SOL    HW1 1358   2.033   1.041   1.110  3.3473 -2.3039 -0.3610
  453SOL    HW2 1359   2.165   1.117   1.036 -0.1473  0.8440  2.3112
  454SOL     OW 1360   2.782   0.905   0.312  0.4225 -0.1263 -0.0974
  454SOL    HW1 1361   2.828   0.951   0.389 -0.4686  1.1579  1.7366
  454SOL    HW2 1362   2.759   0.976   0.240  2.8996  2.0631  1.1463
  455SOL     OW 1363   2.540   1.855   0.943  0.3652 -0.1700  0.0296
  455SOL    HW1 1364   2.592   1.771   0.920 -1.4219 -0.7787 -0.9179
  455SOL    HW2 1365   2.597   1.938   0.919  0.6228 -0.8394 -0.6950
  456SOL     OW 1366   0.927   3.031   1.281 -0.0935 -0.4301  1.0587
  456SOL    HW1 1367   0.854   3.003   1.343  1.8032 -0.4652 -1.9756
  456SOL    HW2 1368   0.991   0.032   1.323  0.1533 -0.2773  1.2966
  457SOL     OW 1369   1.807   2.802   0.877 -0.0239 -0.1084 -0.0528
  457SOL    HW1 1370   1.771   2.790   0.786  1.3821 -0.2505  0.0148
  457SOL    HW2 1371   1.764   2.879   0.929  1.0321 -0.6316  0.2475
  458SOL     OW 1372   2.606   0.304   0.697 -0.2389 -0.1300  0.3207
  458SOL    HW1 1373   2.628   0.365   0.776  0.1169 -0.7587  0.1510
  458SOL    HW2 1374   2.679   0.326   0.627  1.2065 -1.2545 -2.3834
  459SOL     OW 1375   2.098   0.766   3.016 -0.4169 -0.2849 -0.4099
  459SOL    HW1 1376   2.102   0.851   0.002  0.9610  0.8347 -0.5590
  459SOL    HW2 1377   2.153   0.692   3.054 -0.9881 -0.9678 -1.0277
  460SOL     OW 1378   2.887   2.302   2.846  0.2144 -0.1793 -0.4571
  460SOL    HW1 1379   2.875   2.379   2.911 -2.9123  2.1739  2.3902
  460SOL    HW2 1380   2.945   2.232   2.883 -0.8613  0.9019 -1.4053
  461SOL     OW 1381   0.680   1.798   0.105 -0.2457  0.1552  0.0641
  461SOL    HW1 1382   0.732   1.812   0.194  1.1719 -0.0845  0.5603
  461SOL    HW2 1383   0.663   1.890   0.071 -0.5337 -0.9624  1.1096
  462SOL     OW 1384   2.394   2.462   0.821 -0.4960 -0.4238  0.2615
  462SOL    HW1 1385   2.340   2.521   0.763  1.2493 -1.0399  1.0972
  462SOL    HW2 1386   2.341   2.430   0.906 -0.4898 -0.9223 -0.2862
  463SOL     OW 1387   3.030   0.344   0.426 -0.3013 -0.1963  0.1776
  463SOL    HW1 1388   0.049   0.364   0.478 -1.1309 -0.2857 -1.3774
  463SOL    HW2 1389   3.021   0.401   0.344  0.4967 -3.2253 -0.8375
  464SOL     OW 1390   0.990   2.680   0.400 -0.2801 -0.0125  0.3473
  464SOL    HW1 1391   0.912   2.684   0.464  2.3865  1.4789 -1.0571
  464SOL    HW2 1392   1.017   2.769   0.361  1.6318  0.4937 -0.6419
  465SOL     OW 1393   2.364   0.860   0.653 -0.1228  0.1513 -0.1784
  465SOL    HW1 1394   2.323   0.855   0.745  0.6698 -1.3480  0.7209
  465SOL    HW2 1395   2.350   0.952   0.618  0.7168 -4.1168  0.4617
  466SOL     OW 1396   2.248   2.966   0.049 -0.0946 -0.0985  1.1050
  466SOL    HW1 1397   2.300   3.034   3.062  0.6448  2.2429  0.3229
  466SOL    HW2 1398   2.216   2.888   3.061  2.1977  1.4773  2.4112
  467SOL     OW 1399   1.108   0.448   1.771 -0.1495  0.2152  0.4562
  467SOL    HW1 1400   1.038   0.439   1.842 -1.9639 -1.8761 -0.7776
  467SOL    HW2 1401   1.179   0.519   1.784 -1.5257  2.2602 -1.4126
  468SOL     OW 1402   3.062   0.412   2.143 -0.2090 -0.0314  0.3566
  468SOL    HW1 1403   0.070   0.455   2.203 -0.7724  0.0468  0.6256
  468SOL    HW2 1404   3.040   0.463   2.057 -3.3107 -0.6898 -1.6370
  469SOL     OW 1405   0.868   2.928   2.862 -0.0500  0.0471  0.1399
  469SOL    HW1 1406   0.808   2.859   2.908  0.5016  1.1993  0.8578
  469SOL    HW2 1407   0.844   2.925   2.767  1.1901 -0.2341  2.9127
  470SOL     OW 1408   1.702   1.385   2.339  1.1349  0.3774  0.0022
  470SOL    HW1 1409   1.598   1.385   2.335  1.9792  0.5986  1.3121
  470SOL    HW2 1410   1.735   1.465   2.286 -1.0957  0.8225  1.9378
  471SOL     OW 1411   2.707   0.931   2.728  0.4939  0.4260  0.0965
  471SOL    HW1 1412   2.731   1.026   2.730  0.6975 -1.0994  1.1224
  471SOL    HW2 1413   2.614   0.920   2.775 -1.3356 -0.6169 -2.4181
  472SOL     OW 1414   0.284   2.539   0.357 -0.0988 -0.2881  0.3450
  472SOL    HW1 1415   0.276   2.638   0.398 -1.1871  4.1939  0.8399
  472SOL    HW2 1416   0.202   2.476   0.368  2.4028  3.0622 -2.2687
  473SOL     OW 1417   0.760   0.076   2.982  0.4227  0.5935  0.1069
  473SOL    HW1 1418   0.808   3.061   2.937 -0.9764  0.7062 -0.3430
  473SOL    HW2 1419   0.663   0.053   2.973 -0.9270  1.1582  1.2059
  474SOL     OW 1420   1.614   0.094   2.052  0.4950  0.5426 -0.9331
  474SOL    HW1 1421   1.548   0.174   2.051 -2.9611  0.9175 -1.2951
  474SOL    HW2 1422   1.577   0.012   2.103  0.2648  0.4174  0.4730
  475SOL     OW 1423   0.619   2.689   0.295  0.1561 -0.2056 -0.0037
  475SOL    HW1 1424   0.635   2.779   0.350 -0.8161  0.3373  0.7995
  475SOL    HW2 1425   0.606   2.609   0.356  2.7148  1.1624  0.7691
  476SOL     OW 1426   0.284   0.632   0.821  0.1508 -0.1258 -0.0280
  476SOL    HW1 1427   0.231   0.669   0.740  1.1776 -1.0667 -2.1148
  476SOL    HW2 1428   0.383   0.649   0.804 -0.1855 -1.3625 -2.2979
  477SOL     OW 1429   1.739   2.052   1.288  0.0476  0.3172 -0.3479
  477SOL    HW1 1430   1.726   1.971   1.350 -0.2825  3.7106 -0.4494
  477SOL    HW2 1431   1.801   2.115   1.342 -0.0848  0.6352 -1.2649
  478SOL     OW 1432   0.464   1.363   2.056  0.4063 -0.2979 -0.1421
  478SOL    HW1 1433   0.528   1.282   2.063  2.6938 -0.8847  0.6031
  478SOL    HW2 1434   0.396   1.356   1.978  2.5035  1.7166  1.6040
  479SOL     OW 1435   0.547   3.035   0.983  0.5361  0.3555 -0.2537
  479SOL    HW1 1436   0.579   3.060   0.890  1.6964  1.6699 -0.2562
  479SOL    HW2 1437   0.484   2.957   0.973 -1.9217 -1.1237 -1.7133
  480SOL     OW 1438   2.236   2.473   3.062 -0.3127 -1.0376  0.1753
  480SOL    HW1 1439   2.185   2.413   0.050 -0.2140  1.2459 -0.9762
  480SOL    HW2 1440   2.292   2.427   2.995 -0.1629  2.7732  1.7954
  481SOL     OW 1441   2.817   0.501   1.312  0.7752 -0.1077 -0.2241
  481SOL    HW1 1442   2.721   0.505   1.349 -0.1025 -1.9537  1.5839
  481SOL    HW2 1443   2.886   0.533   1.379  0.3538  0.7013 -1.6360
  482SOL     OW 1444   1.388   2.563   1.885  1.1300 -0.1525  0.3528
  482SOL    HW1 1445   1.464   2.521   1.829  0.0225  1.3006  0.4073
  482SOL    HW2 1446   1.429   2.626   1.955 -0.9220 -0.3837 -0.1202
  483SOL     OW 1447   0.285   1.490   2.657  0.5148 -0.4048 -0.2038
  483SOL    HW1 1448   0.249   1.489   2.561 -1.3373  1.8384 -2.8342
  483SOL    HW2 1449   0.238   1.417   2.709  1.5399  0.7800  2.0802
  484SOL     OW 1450   0.941   1.636   1.913  0.0480 -0.0131 -0.3534
  484SOL    HW1 1451   1.020   1.578   1.883 -1.3990  0.5896  0.4820
  484SOL    HW2 1452   0.849   1.618   1.873 -0.5671  0.0849 -2.1086
  485SOL     OW 1453   3.058   0.205   2.821  0.3407  0.0661  0.0925
  485SOL    HW1 1454   3.058   0.302   2.786  0.7968  0.2102 -1.1216
  485SOL    HW2 1455   0.032   0.145   2.754 -0.1493  0.7585  1.7218
  486SOL     OW 1456   1.493   2.972   0.491  0.4000  0.1051  0.1322
  486SOL    HW1 1457   1.582   3.015   0.513  0.1975 -0.2450  0.3290
  486SOL    HW2 1458   1.483   2.971   0.391 -2.5412 -0.3444 -1.6601
  487SOL     OW 1459   1.367   2.604   1.076  0.0723  0.2330  0.4177
  487SOL    HW1 1460   1.415   2.643   0.991 -0.3986  4.5205 -2.1355
  487SOL    HW2 1461   1.324   2.677   1.128  2.3477  3.7565  2.9209
  488SOL     OW 1462   2.044   1.197   0.618  0.3389 -0.4836 -0.0828
  488SOL    HW1 1463   2.121   1.189   0.549  2.8164 -1.0262 -1.0940
  488SOL    HW2 1464   2.063   1.268   0.690  0.0896 -0.8104 -0.2322
  489SOL     OW 1465   1.184   2.694   1.264  0.1483 -0.4733  0.3108
  489SOL    HW1 1466   1.109   2.622   1.270  0.0626 -0.9546  1.4267
  489SOL    HW2 1467   1.232   2.706   1.349 -0.8572 -0.1674 -0.6092
  490SOL     OW 1468   0.944   0.934   0.391  0.3211 -0.5100 -0.2333
  490SOL    HW1 1469   0.989   0.892   0.473 -0.7063  2.0099 -2.6466
  490SOL    HW2 1470   0.954   0.868   0.314 -2.0631 -2.6296 -3.0098
  491SOL     OW 1471   1.439   2.743   0.074 -0.1976 -0.3742  0.3068
  491SOL    HW1 1472   1.419   2.828   0.021  3.0104 -1.0209 -0.0731
  491SOL    HW2 1473   1.377   2.669   0.044  0.1431  0.4489  1.2725
  492SOL     OW 1474   1.132   1.055   2.094  0.7732  0.0955  0.6928
  492SOL    HW1 1475   1.068   1.137   2.104 -0.7975  0.5053 -0.9917
  492SOL    HW2 1476   1.081   0.964   2.105 -0.6389 -0.5106  1.1495
  493SOL     OW 1477   0.211   1.748   0.227  0.2074 -0.1022 -0.0649
  493SOL    HW1 1478   0.128   1.732   0.284 -1.1784 -0.3475 -2.1634
  493SOL    HW2 1479   0.292   1.698   0.262 -2.8932  0.7290 -1.1330
  494SOL     OW 1480   2.164   1.428   0.415  0.2413  0.0061 -0.0421
  494SOL    HW1 1481   2.116   1.482   0.486 -1.0213 -0.3412  2.1225
  494SOL    HW2 1482   2.101   1.386   0.348  0.6557  2.3407  1.4042
  495SOL     OW 1483   0.172   0.840   2.813 -0.4198  0.4407 -0.1457
  495SOL    HW1 1484   0.199   0.763   2.746  1.2161 -3.4459 -2.9329
  495SOL    HW2 1485   0.076   0.832   2.828  0.6706 -0.0774  1.0382
  496SOL     OW 1486   2.741   3.029   2.138 -0.1252 -0.3914 -0.5777
  496SOL    HW1 1487   2.796   3.032   2.057 -0.3657  1.7352  1.4810
  496SOL    HW2 1488   2.694   0.051   2.142  0.0344 -0.3451  1.0594
  497SOL     OW 1489   2.695   0.995   0.797 -0.0345 -0.2651 -0.1741
  497SOL    HW1 1490   2.746   0.909   0.770  2.2708 -0.4771 -4.3286
  497SOL    HW2 1491   2.654   1.040   0.717  0.1778 -0.7830  1.7948
  498SOL     OW 1492   0.169   2.226   0.126 -0.3640 -0.4928  0.1094
  498SOL    HW1 1493   0.214   2.133   0.140  2.8477  0.5984  2.8529
  498SOL    HW2 1494   0.241   2.301   0.128  2.0757  2.0332 -0.2227
  499SOL     OW 1495   1.219   2.480   0.887 -0.4984 -0.3403 -0.3110
  499SOL    HW1 1496   1.259   2.522   0.966  1.2637  1.1177 -0.6165
  499SOL    HW2 1497   1.251   2.384   0.874  0.2002  1.7003 -0.4793
  500SOL     OW 1498   0.808   0.351   2.440  0.6030 -0.1191 -0.3117
  500SOL    HW1 1499   0.769   0.260   2.408 -0.0951 -2.6299  0.6578
  500SOL    HW2 1500   0.836   0.345   2.534 -0.0926  1.3822 -1.8198
  501SOL     OW 1501   1.085   0.201   1.364  0.2023  0.4487  0.1084
  501SOL    HW1 1502   1.170   0.144   1.373  1.0007 -3.8086  0.3541
  501SOL    HW2 1503   1.031   0.204   1.447  2.4910  1.7365  0.8979
  502SOL     OW 1504   3.021   0.221   1.946 -0.1349  0.4917  0.0976
  502SOL    HW1 1505   2.966   0.139   1.964 -0.2927 -0.9447 -1.2651
  502SOL    HW2 1506   3.060   0.262   2.032  2.8993 -0.4778 -1.0512
  503SOL     OW 1507   1.871   2.208   2.096 -0.0030 -0.3691 -0.2041
  503SOL    HW1 1508   1.829   2.298   2.078  2.6971 -1.5575  1.2210
  503SOL    HW2 1509   1.816   2.156   2.161  0.1705 -0.4019 -1.4427
  504SOL     OW 1510   1.897   0.133   1.706 -0.7794 -0.2647 -0.2743
  504SOL    HW1 1511   1.978   0.174   1.751 -1.6858  3.1036  0.9367
  504SOL    HW2 1512   1.917   0.122   1.608 -2.3774  1.4742  2.8762
  505SOL     OW 1513   2.663   1.181   1.727  0.0318 -0.3003 -0.1401
  505SOL    HW1 1514   2.762   1.171   1.703  1.5177 -0.4434 -3.2921
  505SOL    HW2 1515   2.606   1.180   1.644 -0.2543  1.0782  1.2028
  506SOL     OW 1516   0.201   1.481   2.401  0.0990  0.0570 -0.5069
  506SOL    HW1 1517   0.154   1.395   2.378  0.7334  0.2660  0.7968
  506SOL    HW2 1518   0.287   1.489   2.348  0.9790  1.8046 -0.9422
  507SOL     OW 1519   0.167   3.016   1.739  0.3871  0.3262 -0.2012
  507SOL    HW1 1520   0.171   0.040   1.693 -2.3073 -3.5489 -0.8021
  507SOL    HW2 1521   0.229   2.949   1.697 -0.4827  0.9627  2.0261
  508SOL     OW 1522   1.500   0.699   1.526  0.1163  0.0226 -0.0034
  508SOL    HW1 1523   1.525   0.784   1.473 -0.1562  1.7602  2.0760
  508SOL    HW2 1524   1.586   0.648   1.547  0.4734 -1.5696 -1.6942
  509SOL     OW 1525   1.110   1.909   1.076  0.2945 -0.4545 -0.2507
  509SOL    HW1 1526   1.087   2.008   1.088 -0.8404  0.3519 -1.0940
  509SOL    HW2 1527   1.052   1.848   1.133  1.1882 -3.2540  0.8148
  510SOL     OW 1528   2.534   0.985   2.480  0.3076 -0.0211  0.1659
  510SOL    HW1 1529   2.455   0.926   2.447  1.5863  1.6743 -0.3203
  510SOL    HW2 1530   2.612   0.923   2.507  1.8119 -0.9918  0.3087
  511SOL     OW 1531   0.527   1.517   1.217  0.2182  0.4135  0.1132
  511SOL    HW1 1532   0.517   1.543   1.316  0.0835 -0.2276 -0.6945
  511SOL    HW2 1533   0.517   1.418   1.204  0.8086  2.6012 -1.5526
  512SOL     OW 1534   2.670   2.401   0.592  0.1198  0.3441  0.0008
  512SOL    HW1 1535   2.731   2.376   0.666 -1.4788 -0.7257 -1.9114
  512SOL    HW2 1536   2.690   2.343   0.506  0.3268 -2.3397 -0.5913
  513SOL     OW 1537   0.471   1.458   2.857 -0.3407 -0.1935  0.1303
  513SOL    HW1 1538   0.447   1.382   2.921  0.5897  0.8872  0.6038
  513SOL    HW2 1539   0.389   1.471   2.796 -0.6939  0.6595  1.0074
  514SOL     OW 1540   0.296   2.536   2.943  0.2165 -0.6093 -0.6610
  514SOL    HW1 1541   0.318   2.552   2.846  1.4329 -1.8372  2.9014
  514SOL    HW2 1542   0.197   2.565   2.963 -2.5597  0.3106  0.3604
  515SOL     OW 1543   1.403   1.110   2.160 -0.4263 -0.6365  0.0709
  515SOL    HW1 1544   1.307   1.104   2.134  1.2178 -2.1547  1.8497
  515SOL    HW2 1545   1.412   1.088   2.257  0.2198  0.1069 -1.8639
  516SOL     OW 1546   2.189   2.212   0.584  0.1247 -0.0541 -0.4386
  516SOL    HW1 1547   2.161   2.275   0.661 -0.7536  2.8420  1.9229
  516SOL    HW2 1548   2.273   2.249   0.538 -1.9479 -1.1403  1.7498
  517SOL     OW 1549   1.318   1.439   0.477  0.0906 -0.2872  0.5833
  517SOL    HW1 1550   1.329   1.540   0.498  0.4896 -0.5393 -0.2250
  517SOL    HW2 1551   1.384   1.380   0.527  0.9126  0.8741  1.4202
  518SOL     OW 1552   2.229   2.436   2.214  0.6004  0.5528  0.0129
  518SOL    HW1 1553   2.152   2.496   2.240 -2.4241  1.3695  2.6721
  518SOL    HW2 1554   2.311   2.459   2.266 -2.6992  0.3335 -2.5041
  519SOL     OW 1555   1.745   2.217   1.076 -0.0104 -0.4744  0.3464
  519SOL    HW1 1556   1.698   2.149   1.140  0.8855 -0.5806  2.3087
  519SOL    HW2 1557   1.758   2.298   1.130  0.6638 -4.4463 -1.4502
  520SOL     OW 1558   2.708   2.285   2.425 -0.5685 -0.2902 -0.5422
  520SOL    HW1 1559   2.688   2.200   2.371 -1.9206  0.2349 -2.1838
  520SOL    HW2 1560   2.642   2.358   2.409  1.6139  0.4694  0.3602
  521SOL     OW 1561   0.226   1.233   1.921  0.3318 -0.3667 -0.2246
  521SOL    HW1 1562   0.207   1.282   1.832 -0.0848 -0.2305  0.3542
  521SOL    HW2 1563   0.137   1.200   1.955 -1.0053  2.6761 -0.0125
  522SOL     OW 1564   0.746   0.483   2.186  0.2715  0.1575 -0.1795
  522SOL    HW1 1565   0.703   0.407   2.134 -1.4314 -1.2279 -2.3896
  522SOL    HW2 1566   0.760   0.449   2.284 -0.0177 -0.2466  1.0881
  523SOL     OW 1567   0.560   2.241   0.881 -0.5114 -0.9693  0.1825
  523SOL    HW1 1568   0.542   2.146   0.913 -0.8627  0.4622 -1.8801
  523SOL    HW2 1569   0.510   2.257   0.790 -0.9727 -0.0848 -4.1008
  524SOL     OW 1570   1.699   2.836   0.612 -0.6678 -0.4781 -0.2100
  524SOL    HW1 1571   1.781   2.890   0.569  2.1286  1.8173  0.1186
  524SOL    HW2 1572   1.625   2.844   0.546  0.4394 -3.5843 -0.4637
  525SOL     OW 1573   2.316   1.019   1.547  0.0108 -0.0777  0.0414
  525SOL    HW1 1574   2.279   0.980   1.454 -2.2040 -1.3434 -3.4023
  525SOL    HW2 1575   2.239   1.014   1.616  0.5457  1.5963  0.0246
  526SOL     OW 1576   0.980   2.645   0.820 -0.0431 -0.1577  0.2560
  526SOL    HW1 1577   1.062   2.586   0.829  1.5233  1.6531  0.7142
  526SOL    HW2 1578   0.920   2.618   0.742 -1.1121  1.7493  0.1656
  527SOL     OW 1579   2.689   2.270   0.344 -0.2017 -0.2371  0.1705
  527SOL    HW1 1580   2.639   2.184   0.327  2.0327  0.4964  2.2695
  527SOL    HW2 1581   2.666   2.340   0.277 -2.0514 -2.2232  1.9540
  528SOL     OW 1582   2.386   0.116   0.231 -0.6728  0.4758 -0.0934
  528SOL    HW1 1583   2.303   0.098   0.282  1.5692  0.9397 -4.5544
  528SOL    HW2 1584   2.447   0.035   0.227 -0.6297  1.2923 -0.1585
  529SOL     OW 1585   1.440   1.450   2.296 -0.7169  0.1626  0.2411
  529SOL    HW1 1586   1.365   1.388   2.321 -0.3350  1.3570  1.6183
  529SOL    HW2 1587   1.419   1.481   2.196 -2.8071  2.2997 -3.8967
  530SOL     OW 1588   2.452   0.676   3.064 -0.0760  0.0575  0.7326
  530SOL    HW1 1589   2.365   0.629   0.018  0.7054 -1.9004 -2.2331
  530SOL    HW2 1590   2.536   0.620   0.009  4.5118 -1.2358 -2.4945
  531SOL     OW 1591   1.404   1.081   3.051  0.1071 -0.0941  0.6501
  531SOL    HW1 1592   1.388   1.091   0.081  0.5038 -1.3045  0.5540
  531SOL    HW2 1593   1.462   1.000   3.034 -0.7879  1.6459 -1.2486
  532SOL     OW 1594   1.666   0.476   0.712  0.3060  0.6394  0.2024
  532SOL    HW1 1595   1.767   0.488   0.691 -0.7859  0.1927 -0.8592
  532SOL    HW2 1596   1.616   0.411   0.653 -1.3418 -1.7818  0.6137
  533SOL     OW 1597   0.867   0.702   1.898  0.4378  0.0836 -0.5257
  533SOL    HW1 1598   0.909   0.744   1.983  2.7617 -1.9739  1.1190
  533SOL    HW2 1599   0.853   0.771   1.825 -4.1484  0.6061 -0.0004
  534SOL     OW 1600   1.564   0.344   2.714  0.0104 -0.0223 -0.0089
  534SOL    HW1 1601   1.600   0.323   2.809  1.4907  2.1361 -1.4145
  534SOL    HW2 1602   1.644   0.340   2.648  0.5940  1.8265 -0.8522
  535SOL     OW 1603   0.406   0.351   0.363 -0.4327  0.1430 -0.0107
  535SOL    HW1 1604   0.355   0.263   0.348 -1.3538  1.6259  2.2737
  535SOL    HW2 1605   0.335   0.421   0.393  0.0724  0.8331  0.1819
  536SOL     OW 1606   0.843   0.187   0.630  0.0716 -0.5679 -0.3535
  536SOL    HW1 1607   0.780   0.248   0.576  0.5598  0.0461  1.2286
  536SOL    HW2 1608   0.903   0.243   0.690 -0.0941  2.3394  1.1392
  537SOL     OW 1609   2.040   0.934   0.702 -0.2092  0.8150  0.1406
  537SOL    HW1 1610   2.075   1.025   0.680 -1.4983  1.0227 -1.7489
  537SOL    HW2 1611   2.024   0.877   0.619  2.7844  0.7249  0.3863
  538SOL     OW 1612   2.980   1.967   0.156  0.5056 -0.6065  0.1767
  538SOL    HW1 1613   3.013   1.896   0.227 -0.9037  0.8707  1.6244
  538SOL    HW2 1614   3.019   1.949   0.063  0.5368 -0.4966 -0.9912
  539SOL     OW 1615   2.112   1.716   0.177 -0.0503 -0.2687 -0.8195
  539SOL    HW1 1616   2.175   1.694   0.100  2.7373  1.1169 -2.1743
  539SOL    HW2 1617   2.162   1.697   0.269 -0.5027  0.8781  1.1548
  540SOL     OW 1618   0.333   2.507   1.348 -0.6253 -0.0541  0.6087
  540SOL    HW1 1619   0.367   2.422   1.308  0.9526  1.1080  0.1265
  540SOL    HW2 1620   0.272   2.561   1.283 -0.0059  1.5938 -4.3961
  541SOL     OW 1621   1.865   0.125   2.128  0.1388 -0.3041 -0.2513
  541SOL    HW1 1622   1.918   0.040   2.094 -0.2902 -0.4203  1.1407
  541SOL    HW2 1623   1.769   0.125   2.099  1.2236  3.6833  0.3305
  542SOL     OW 1624   2.755   0.476   2.716  0.1412  0.1836  0.4086
  542SOL    HW1 1625   2.801   0.561   2.756  3.0797  0.2710  0.5670
  542SOL    HW2 1626   2.690   0.491   2.639  1.4390 -2.3539 -0.9451
  543SOL     OW 1627   0.194   0.998   0.694  0.1802 -0.1709  0.4595
  543SOL    HW1 1628   0.176   1.085   0.643  1.1933  0.6472 -2.2082
  543SOL    HW2 1629   0.115   0.971   0.752 -0.2743  0.1610 -0.3645
  544SOL     OW 1630   2.771   0.161   1.032  0.1682 -0.0496  1.1369
  544SOL    HW1 1631   2.681   0.203   1.048  2.1034  1.0561 -1.3788
  544SOL    HW2 1632   2.820   0.201   0.946  2.9334 -0.0964 -0.4535
  545SOL     OW 1633   1.385   2.475   0.634  0.1690  0.5480  1.0344
  545SOL    HW1 1634   1.458   2.508   0.567  0.5942 -0.8671 -2.7679
  545SOL    HW2 1635   1.419   2.405   0.697 -3.0845 -2.3655  0.5842
  546SOL     OW 1636   2.048   2.692   1.489  0.1653 -0.3347 -0.3697
  546SOL    HW1 1637   2.090   2.641   1.561 -2.2973  0.4191 -0.6485
  546SOL    HW2 1638   2.123   2.738   1.436  1.3397 -1.0892 -0.0615
  547SOL     OW 1639   0.323   0.159   2.202 -0.2658  0.6651 -0.6094
  547SOL    HW1 1640   0.347   0.071   2.167  3.1356  3.7157 -0.3748
  547SOL    HW2 1641   0.330   0.235   2.133 -1.8427  0.1502  0.2744
  548SOL     OW 1642   1.761   1.435   2.963  0.4684 -0.1782 -0.4172
  548SOL    HW1 1643   1.667   1.420   2.930 -1.3466  0.5718  3.3381
  548SOL    HW2 1644   1.823   1.365   2.923  1.2740  0.7773  1.4874
  549SOL     OW 1645   2.952   0.910   0.570 -0.0463  0.2453 -0.1212
  549SOL    HW1 1646   2.960   0.964   0.655 -2.3582 -0.2498 -1.3614
  549SOL    HW2 1647   2.992   0.969   0.498 -3.1615  0.3742  1.1977
  550SOL     OW 1648   1.795   2.013   0.672 -0.1122 -0.2740  0.7008
  550SOL    HW1 1649   1.707   1.977   0.635  1.5313  1.7979  1.2032
  550SOL    HW2 1650   1.815   2.107   0.632 -1.6838 -0.2606 -0.1151
  551SOL     OW 1651   1.445   0.649   0.756  0.2842 -0.0639 -0.2010
  551SOL    HW1 1652   1.366   0.609   0.703 -0.8294 -1.4077 -1.4418
  551SOL    HW2 1653   1.531   0.599   0.744  2.8617  1.0897 -2.4623
  552SOL     OW 1654   2.610   2.661   2.379 -0.0084  0.2843  0.1102
  552SOL    HW1 1655   2.689   2.681   2.320 -1.2085 -0.6005  0.1232
  552SOL    HW2 1656   2.519   2.701   2.348 -0.2075 -2.0511  0.8352
  553SOL     OW 1657   0.010   0.017   2.545  0.3436  0.4855  0.0583
  553SOL    HW1 1658   0.041   0.073   2.465  1.1487  3.0879 -0.0162
  553SOL    HW2 1659   2.993   3.034   2.523  1.8725 -0.5660 -2.2005
  554SOL     OW 1660   1.106   2.917   1.117 -0.0920  0.0570 -0.2762
  554SOL    HW1 1661   1.040   2.964   1.178 -2.1111  2.4517  2.0353
  554SOL    HW2 1662   1.129   2.830   1.158 -1.9842 -0.3124 -0.9031
  555SOL     OW 1663   2.385   2.360   2.014 -0.3824  0.3208  0.0244
  555SOL    HW1 1664   2.478   2.404   2.021  1.5634 -0.2205  2.2203
  555SOL    HW2 1665   2.329   2.384   2.093  4.1704 -0.7685  0.9671
  556SOL     OW 1666   0.942   0.308   2.699  0.0363  0.0594  0.0426
  556SOL    HW1 1667   1.002   0.380   2.661 -2.3871 -0.8147 -0.0418
  556SOL    HW2 1668   0.966   0.211   2.669 -1.5614 -3.8543  0.2112
  557SOL     OW 1669   0.070   1.757   2.375  0.0803  0.3902  0.0081
  557SOL    HW1 1670   0.061   1.848   2.422  1.3750  0.6270  1.5365
  557SOL    HW2 1671   0.124   1.696   2.439  1.8094 -2.2968 -1.5762
  558SOL     OW 1672   2.124   0.983   2.464  0.0371 -0.2728  0.3630
  558SOL    HW1 1673   2.213   0.930   2.448  2.0761 -0.8366 -3.2610
  558SOL    HW2 1674   2.118   1.058   2.396 -1.0943 -0.1772 -4.8302
  559SOL     OW 1675   2.515   2.151   2.291  0.5914 -0.2389  0.2051
  559SOL    HW1 1676   2.483   2.246   2.292 -0.3482 -0.0571 -2.3678
  559SOL    HW2 1677   2.551   2.125   2.197  0.9028  0.8455  0.1751
  560SOL     OW 1678   2.568   0.996   2.124 -0.1674 -0.5233  0.2334
  560SOL    HW1 1679   2.548   0.905   2.161 -2.0010  0.8840  0.5024
  560SOL    HW2 1680   2.484   1.057   2.129 -0.1570 -2.9019  0.8846
  561SOL     OW 1681   0.648   0.699   0.341 -0.0698 -0.3361  0.2931
  561SOL    HW1 1682   0.685   0.660   0.425 -3.3978  2.0363 -1.5247
  561SOL    HW2 1683   0.658   0.643   0.259  0.7867  2.9222 -0.3000
  562SOL     OW 1684   1.050   1.164   1.470  0.1561  0.7489  0.1131
  562SOL    HW1 1685   0.977   1.161   1.543 -2.4576  0.3478  2.1584
  562SOL    HW2 1686   1.107   1.079   1.465 -0.3589 -0.3487  1.2001
  563SOL     OW 1687   1.662   2.862   2.573  0.3690 -0.2698  0.5369
  563SOL    HW1 1688   1.655   2.769   2.528 -1.3604 -0.0283  1.2322
  563SOL    HW2 1689   1.705   2.857   2.662  0.0064  0.9176  0.5310
  564SOL     OW 1690   0.238   2.086   0.819  0.3269 -0.1933  0.1337
  564SOL    HW1 1691   0.245   2.165   0.888  1.1789 -0.5225 -3.0180
  564SOL    HW2 1692   0.280   2.116   0.728  1.3396 -0.7848 -2.2778
  565SOL     OW 1693   0.636   2.530   2.279 -0.1490  0.6323 -0.5206
  565SOL    HW1 1694   0.631   2.521   2.177  0.5332 -0.2555 -0.3848
  565SOL    HW2 1695   0.614   2.443   2.327  2.9209  1.4146 -0.1311
  566SOL     OW 1696   1.148   2.460   2.321  0.2739 -0.5073  0.2027
  566SOL    HW1 1697   1.142   2.385   2.389 -2.1097  1.2737  1.5184
  566SOL    HW2 1698   1.070   2.521   2.337 -0.4096 -0.6291 -0.7276
  567SOL     OW 1699   2.228   2.400   1.027 -0.0893  0.3353 -0.2355
  567SOL    HW1 1700   2.171   2.357   0.953  1.1514 -0.4426 -1.8480
  567SOL    HW2 1701   2.217   2.352   1.112 -1.1544  0.1054 -3.7210
  568SOL     OW 1702   1.983   0.747   0.487  0.0824  0.2831 -0.3346
  568SOL    HW1 1703   2.082   0.756   0.471 -1.7734 -2.0752 -1.1118
  568SOL    HW2 1704   1.973   0.665   0.552  0.6720 -1.7387  2.3436
  569SOL     OW 1705   2.884   1.589   2.720  0.0680  0.0697 -0.0016
  569SOL    HW1 1706   2.864   1.509   2.661 -0.7854  2.7365  0.4668
  569SOL    HW2 1707   2.966   1.575   2.782  2.7197  1.7657  3.6379
  570SOL     OW 1708   3.048   0.071   0.938  0.2486  0.6709  0.3354
  570SOL    HW1 1709   0.056   0.109   0.993 -4.3381 -1.3333 -0.7310
  570SOL    HW2 1710   3.001   0.143   0.881  0.6428 -0.3191 -0.1640
  571SOL     OW 1711   2.715   0.513   1.682 -0.3892  0.0231  0.4054
  571SOL    HW1 1712   2.702   0.546   1.777 -1.2906  1.4342 -0.0787
  571SOL    HW2 1713   2.627   0.489   1.640 -1.4031 -0.1893 -0.6029
  572SOL     OW 1714   2.846   2.329   0.775  0.0180  0.0282  0.3986
  572SOL    HW1 1715   2.829   2.242   0.822  0.2165 -1.9882  0.6714
  572SOL    HW2 1716   2.947   2.335   0.743  1.5196 -0.7503 -2.7796
  573SOL     OW 1717   0.875   0.744   3.024 -0.3578 -0.1519  0.4391
  573SOL    HW1 1718   0.810   0.732   2.947  0.1207 -0.4838 -3.1354
  573SOL    HW2 1719   0.837   0.812   0.024 -1.0579 -0.0578  0.0146
  574SOL     OW 1720   2.807   2.513   3.042  0.0740  0.0700  0.0775
  574SOL    HW1 1721   2.761   2.569   2.970 -1.7220 -3.4406  2.8350
  574SOL    HW2 1722   2.815   2.572   0.057 -0.7561  0.3792 -0.2933
  575SOL     OW 1723   1.088   2.184   1.230 -0.6910 -0.0418  0.0075
  575SOL    HW1 1724   1.043   2.239   1.160 -0.4712 -3.2032  0.5759
  575SOL    HW2 1725   1.186   2.201   1.211 -1.1303 -0.8062 -1.6806
  576SOL     OW 1726   0.606   2.650   1.097  0.3642 -0.2315 -0.0093
  576SOL    HW1 1727   0.593   2.701   1.182  0.1771  0.3501 -0.8662
  576SOL    HW2 1728   0.684   2.689   1.042  1.8321 -2.6403 -0.3274
  577SOL     OW 1729   2.071   1.707   1.234  0.5653 -1.5353  0.2809
  577SOL    HW1 1730   2.012   1.790   1.207 -1.3025 -1.3316 -0.4245
  577SOL    HW2 1731   2.146   1.704   1.166  1.6050 -1.7372 -0.9250
  578SOL     OW 1732   1.730   0.400   0.359  0.0668 -0.0414  0.3506
  578SOL    HW1 1733   1.715   0.489   0.315  0.5196 -1.2414  0.1089
  578SOL    HW2 1734   1.652   0.378   0.420  1.5477  0.6034 -1.3832
  579SOL     OW 1735   2.539   1.311   2.788  0.5149  0.1024 -0.0758
  579SOL    HW1 1736   2.516   1.414   2.776  1.4897  2.4282 -0.1238
  579SOL    HW2 1737   2.472   1.247   2.740 -0.3153  0.8609 -0.7497
  580SOL     OW 1738   1.853   0.642   1.603  0.2442 -0.3146  0.0504
  580SOL    HW1 1739   1.795   0.719   1.644 -0.0128 -1.6847  0.5447
  580SOL    HW2 1740   1.833   0.557   1.654 -3.8525 -2.0245  1.0655
  581SOL     OW 1741   0.801   0.926   1.192  0.5581 -0.5122 -0.4705
  581SOL    HW1 1742   0.725   0.935   1.254 -0.5941 -0.5843 -0.0007
  581SOL    HW2 1743   0.877   0.889   1.246 -1.6194  1.6542 -0.0992
  582SOL     OW 1744   2.649   0.222   2.190  0.1968 -0.1065 -0.0807
  582SOL    HW1 1745   2.550   0.245   2.176 -0.9662  1.7220 -0.1709
  582SOL    HW2 1746   2.697   0.269   2.113 -0.6117 -0.5644  0.0075
  583SOL     OW 1747   2.556   0.711   2.129  0.6405 -0.6451 -0.2551
  583SOL    HW1 1748   2.483   0.640   2.147 -0.2890  0.1633 -0.2878
  583SOL    HW2 1749   2.613   0.720   2.214 -1.7421  1.4877 -0.7290
  584SOL     OW 1750   1.222   1.816   2.661 -0.3919  0.0484 -0.4331
  584SOL    HW1 1751   1.295   1.805   2.733  2.3285  1.8476  0.3366
  584SOL    HW2 1752   1.251   1.885   2.595  0.4870  1.4511 -1.5274
  585SOL     OW 1753   0.317   0.063   0.314 -0.2371  0.3435 -0.1095
  585SOL    HW1 1754   0.316   0.024   0.221 -0.7656  2.1152  3.5547
  585SOL    HW2 1755   0.229   0.059   0.364  0.3240  1.5797  1.7727
  586SOL     OW 1756   1.806   2.055   2.586  0.1573  0.7061  0.5339
  586SOL    HW1 1757   1.759   2.130   2.638 -0.4478 -0.8342  0.0840
  586SOL    HW2 1758   1.797   1.967   2.630 -3.0597  2.0182 -0.8216
  587SOL     OW 1759   2.374   2.441   0.487 -0.3160  0.7758  0.8533
  587SOL    HW1 1760   2.329   2.498   0.555  2.1700  0.9629 -2.0036
  587SOL    HW2 1761   2.469   2.426   0.513 -4.1406 -0.8046  0.4645
  588SOL     OW 1762   2.520   0.258   1.127  0.1631 -0.0253 -0.2158
  588SOL    HW1 1763   2.464   0.194   1.068 -2.6841  1.8303  0.0304
  588SOL    HW2 1764   2.480   0.354   1.125 -2.1474  0.8538  2.2733
  589SOL     OW 1765   0.556   0.584   0.871  0.1133  0.2715  0.3345
  589SOL    HW1 1766   0.628   0.632   0.821  1.2544 -0.3299 -0.5377
  589SOL    HW2 1767   0.570   0.483   0.866  1.3789  2.0449 -0.3501
  590SOL     OW 1768   2.038   1.869   0.723  0.1537  0.1227 -0.0617
  590SOL    HW1 1769   2.127   1.898   0.668  3.6801  1.3091 -5.0098
  590SOL    HW2 1770   1.957   1.918   0.689 -1.7916  0.7226 -0.8020
  591SOL     OW 1771   0.627   2.370   1.103  0.3493 -0.0035  0.0674
  591SOL    HW1 1772   0.606   2.343   1.006  1.5162  2.6321 -1.3339
  591SOL    HW2 1773   0.602   2.465   1.110  1.6081 -3.8246  1.6320
  592SOL     OW 1774   1.004   0.735   1.228 -0.2555 -0.3043  0.4904
  592SOL    HW1 1775   1.085   0.705   1.279  1.2410  0.2460  0.4883
  592SOL    HW2 1776   0.930   0.666   1.245 -2.6849  1.6853  1.7522
  593SOL     OW 1777   1.031   1.399   1.072  0.0736 -0.2446 -0.1413
  593SOL    HW1 1778   0.975   1.470   1.022 -0.7998  0.7526  0.5411
  593SOL    HW2 1779   1.007   1.406   1.173 -1.9295 -0.8477  2.4791
  594SOL     OW 1780   1.018   2.026   0.366  0.7807  0.2748  0.1548
  594SOL    HW1 1781   1.050   2.059   0.274  0.0470 -2.3750 -1.1166
  594SOL    HW2 1782   1.077   1.947   0.399  0.2050 -1.6878 -1.9182
  595SOL     OW 1783   1.560   0.303   1.126  0.6368  0.0471  0.0089
  595SOL    HW1 1784   1.630   0.309   1.051  0.5500  0.4086 -0.7513
  595SOL    HW2 1785   1.512   0.387   1.140  0.7328 -3.1590  0.6500
  596SOL     OW 1786   0.192   1.675   1.037  0.7129 -0.1641 -0.3575
  596SOL    HW1 1787   0.229   1.694   1.128  0.4313  1.2012  1.2689
  596SOL    HW2 1788   0.166   1.757   0.988  2.8576 -0.0885 -1.5477
  597SOL     OW 1789   0.157   2.552   2.488 -0.4472 -0.3088 -0.4278
  597SOL    HW1 1790   0.222   2.489   2.449  1.1205  0.6293  0.0723
  597SOL    HW2 1791   0.190   2.595   2.574 -2.8230  1.5964 -0.1436
  598SOL     OW 1792   2.873   2.394   1.725 -0.0230 -0.4779  0.1914
  598SOL    HW1 1793   2.944   2.401   1.651 -3.0527 -0.7086 -2.1369
  598SOL    HW2 1794   2.844   2.302   1.745 -0.4499  2.8987  1.7411
  599SOL     OW 1795   1.006   0.403   0.121  0.2662  0.1538 -0.1324
  599SOL    HW1 1796   0.956   0.441   0.199  1.0233 -2.0422  1.0230
  599SOL    HW2 1797   0.946   0.380   0.045  0.2322 -0.5625  2.4960
  600SOL     OW 1798   0.365   2.431   0.119 -0.4730 -0.1243  0.0299
  600SOL    HW1 1799   0.332   2.468   0.208  0.5659 -1.2972  0.0853
  600SOL    HW2 1800   0.347   2.485   0.034  0.6197 -2.4579  0.4422
  601SOL     OW 1801   0.521   0.580   1.389 -0.3329  0.3812  0.5849
  601SOL    HW1 1802   0.589   0.611   1.315  0.4349  0.4142  3.1510
  601SOL    HW2 1803   0.423   0.576   1.351 -1.4826 -2.8394 -3.4472
  602SOL     OW 1804   0.795   2.779   0.963  0.1912 -0.2627 -0.5776
  602SOL    HW1 1805   0.869   2.733   0.920 -0.7716  1.8302  0.6868
  602SOL    HW2 1806   0.827   2.867   1.008  0.4706 -0.0960  1.9416
  603SOL     OW 1807   0.419   0.347   2.402 -0.6047  0.2596  0.6552
  603SOL    HW1 1808   0.518   0.366   2.398  0.0534 -1.8461 -1.4221
  603SOL    HW2 1809   0.400   0.257   2.357  0.1677  0.8584  1.5819
  604SOL     OW 1810   0.667   2.696   1.714  0.0288  0.0244 -0.4414
  604SOL    HW1 1811   0.609   2.776   1.685 -0.0346 -1.8628 -1.0019
  604SOL    HW2 1812   0.657   2.621   1.650 -1.1196  3.6556  2.3188
  605SOL     OW 1813   1.672   0.792   1.756 -0.1119  0.1382 -0.6128
  605SOL    HW1 1814   1.636   0.886   1.750 -0.6237  0.2372  1.6131
  605SOL    HW2 1815   1.673   0.761   1.854  0.8771  0.6322 -1.3464
  606SOL     OW 1816   2.512   2.837   2.918 -0.1211 -0.0104 -0.3637
  606SOL    HW1 1817   2.427   2.791   2.893  0.0397  0.6502  1.4198
  606SOL    HW2 1818   2.488   2.934   2.932 -1.8039 -0.5632 -0.9654
  607SOL     OW 1819   0.874   0.491   1.254 -0.2088  0.3952  0.1183
  607SOL    HW1 1820   0.799   0.445   1.204  0.2431 -0.0824  1.3990
  607SOL    HW2 1821   0.842   0.501   1.351  0.5716 -0.9153 -0.1266
  608SOL     OW 1822   0.323   1.969   2.485 -0.3451  0.0165 -0.2718
  608SOL    HW1 1823   0.261   2.047   2.480 -2.0289 -2.0162 -1.4299
  608SOL    HW2 1824   0.270   1.895   2.532  0.9976  0.9555  1.4326
  609SOL     OW 1825   1.229   1.055   0.434 -0.2402 -0.0783 -0.1397
  609SOL    HW1 1826   1.260   1.082   0.529  0.8537  0.4521  2.7062
  609SOL    HW2 1827   1.154   1.110   0.395 -0.9486 -0.1812 -0.0607
  610SOL     OW 1828   0.520   0.361   1.143 -0.1587  0.3101  0.1019
  610SOL    HW1 1829   0.479   0.270   1.147  0.8496  4.1947 -0.7657
  610SOL    HW2 1830   0.614   0.355   1.114 -3.2312  0.6671 -0.0014
  611SOL     OW 1831   1.789   0.910   0.811  0.1104  0.1808 -0.4956
  611SOL    HW1 1832   1.711   0.913   0.746  0.2302 -1.6172 -0.8935
  611SOL    HW2 1833   1.877   0.928   0.760 -0.2627 -1.4611  0.1909
  612SOL     OW 1834   1.844   1.087   0.230  0.3808  0.4482  0.1980
  612SOL    HW1 1835   1.801   1.032   0.308 -0.4403 -2.6780  1.0283
  612SOL    HW2 1836   1.782   1.155   0.192  0.6591 -1.2628  1.3079
  613SOL     OW 1837   2.015   0.463   0.289 -0.2216  0.0251 -0.2741
  613SOL    HW1 1838   1.990   0.362   0.295 -1.0453 -1.2889  1.6083
  613SOL    HW2 1839   1.935   0.518   0.322  0.6686 -0.9335 -0.8006
  614SOL     OW 1840   2.705   0.071   2.439  0.1921 -0.2106  0.0336
  614SOL    HW1 1841   2.733   0.057   2.345  1.6332  0.5669  3.4479
  614SOL    HW2 1842   2.772   0.138   2.477 -0.1010 -2.0177  0.7626
  615SOL     OW 1843   0.936   1.884   0.754  0.8515  0.0628  0.2224
  615SOL    HW1 1844   1.015   1.823   0.747 -1.1796  0.0994  0.0281
  615SOL    HW2 1845   0.882   1.866   0.837 -0.2360  1.2106 -0.9330
  616SOL     OW 1846   1.373   1.158   2.643 -0.6390 -0.9424  0.4642
  616SOL    HW1 1847   1.370   1.258   2.634 -0.8636  1.3293  1.3469
  616SOL    HW2 1848   1.316   1.131   2.725  0.6739  1.6781 -0.0103
  617SOL     OW 1849   1.623   0.440   3.015 -0.1285 -0.0781 -0.7961
  617SOL    HW1 1850   1.615   0.538   3.000  1.4975 -0.6539  0.2882
  617SOL    HW2 1851   1.721   0.410   3.020  3.8043 -2.0512 -1.4887
  618SOL     OW 1852   1.444   2.148   2.573  0.1254  0.2613  0.0044
  618SOL    HW1 1853   1.491   2.056   2.571  0.7319 -4.2935  1.3819
  618SOL    HW2 1854   1.418   2.151   2.670 -2.2212 -2.9367 -2.9041
  619SOL     OW 1855   2.434   1.619   0.761  0.4112 -0.1701 -0.3179
  619SOL    HW1 1856   2.531   1.641   0.755 -3.5620 -1.2409  1.2070
  619SOL    HW2 1857   2.432   1.518   0.768  0.5557 -1.0233  1.3266
  620SOL     OW 1858   2.121   2.738   2.075 -0.0550 -0.2864 -0.4623
  620SOL    HW1 1859   2.191   2.689   2.021 -4.5184 -0.6941  1.9474
  620SOL    HW2 1860   2.078   2.669   2.135  1.3855 -2.5796 -1.0091
  621SOL     OW 1861   3.011   1.356   0.675  0.6023  0.0401  0.9611
  621SOL    HW1 1862   3.008   1.259   0.710  1.1295 -1.5024 -1.3075
  621SOL    HW2 1863   3.008   1.419   0.753 -0.6362 -0.9320  0.8773
  622SOL     OW 1864   1.377   1.457   2.625 -0.4500  0.0659  0.1364
  622SOL    HW1 1865   1.384   1.458   2.524  2.3662 -0.3586 -0.5238
  622SOL    HW2 1866   1.465   1.500   2.663  2.1211  0.2750  0.2295
  623SOL     OW 1867   0.052   2.688   2.290  0.6427 -0.6919  0.3106
  623SOL    HW1 1868   0.102   2.636   2.364 -1.5014 -1.0410 -1.4477
  623SOL    HW2 1869   3.031   2.717   2.331 -1.6672  1.0183  1.3331
  624SOL     OW 1870   0.649   2.759   2.982 -0.1337  0.2639  0.1226
  624SOL    HW1 1871   0.646   2.661   2.953 -1.8475 -0.1573  2.2846
  624SOL    HW2 1872   0.581   2.780   3.058  1.6582  0.8227 -2.2733
  625SOL     OW 1873   0.294   2.329   2.094  0.4413  0.2788  1.1947
  625SOL    HW1 1874   0.348   2.410   2.054  2.6931  2.2979  0.5828
  625SOL    HW2 1875   0.208   2.305   2.039 -1.8397  1.8479 -0.1364
  626SOL     OW 1876   0.165   3.004   0.100 -0.2671  0.5088  0.0600
  626SOL    HW1 1877   0.114   0.020   0.114 -0.1620 -1.3503 -1.9117
  626SOL    HW2 1878   0.197   2.997   0.000  0.5721  0.6269 -2.0468
  627SOL     OW 1879   1.910   1.532   0.132  0.3585 -0.6716 -0.5442
  627SOL    HW1 1880   1.982   1.594   0.173 -0.6845  0.6146  1.0529
  627SOL    HW2 1881   1.936   1.501   0.039  0.8567  0.2045  2.2606
  628SOL     OW 1882   1.328   1.810   0.108 -0.3136  0.4536 -0.3727
  628SOL    HW1 1883   1.349   1.716   0.083 -3.5166  1.4900 -0.6978
  628SOL    HW2 1884   1.233   1.829   0.083  0.1836  0.0916  0.2520
  629SOL     OW 1885   2.915   0.308   1.633  0.2447 -0.1577  0.8051
  629SOL    HW1 1886   2.997   0.338   1.685  3.0611 -0.9388 -1.9470
  629SOL    HW2 1887   2.846   0.381   1.642  0.4359  1.1674  1.7245
  630SOL     OW 1888   1.923   0.858   1.880  0.5560 -0.8126  0.0093
  630SOL    HW1 1889   1.864   0.826   1.806  5.1598  0.2213 -0.3583
  630SOL    HW2 1890   1.958   0.788   1.944 -1.3264  0.7656  0.5550
  631SOL     OW 1891   1.811   0.117   0.773 -0.1923  0.1025  0.3429
  631SOL    HW1 1892   1.731   0.059   0.753 -1.4221  0.1279  1.3472
  631SOL    HW2 1893   1.794   0.169   0.858 -0.1105 -1.4798  0.6274
  632SOL     OW 1894   2.763   1.021   1.923 -0.2067  0.2230  0.5078
  632SOL    HW1 1895   2.699   1.084   1.871 -0.1250  0.7095 -0.0501
  632SOL    HW2 1896   2.714   0.988   2.008  0.0710  1.5358  0.1399
  633SOL     OW 1897   0.684   0.582   2.661  0.0611  0.4235 -0.7483
  633SOL    HW1 1898   0.781   0.598   2.632  0.4323 -0.4021 -0.7467
  633SOL    HW2 1899   0.657   0.631   2.748 -2.7542  3.4020  4.4880
  634SOL     OW 1900   0.517   2.960   2.871 -0.2308 -0.5796 -0.0305
  634SOL    HW1 1901   0.582   2.887   2.906  0.0361  0.9367  1.9075
  634SOL    HW2 1902   0.435   2.969   2.925  0.2266 -0.7084  0.1567
  635SOL     OW 1903   0.069   1.471   1.185  0.1082  0.6815 -0.0240
  635SOL    HW1 1904   0.100   1.530   1.108  1.4440 -3.1710 -0.2739
  635SOL    HW2 1905   0.021   1.532   1.253  2.4042 -1.2665  1.7413
  636SOL     OW 1906   0.196   1.660   3.046 -0.6619  0.4333  0.4373
  636SOL    HW1 1907   0.188   1.703   0.071 -0.4343  0.0734 -1.4056
  636SOL    HW2 1908   0.297   1.656   3.026 -0.1686  0.7837 -0.3137
  637SOL     OW 1909   0.076   2.351   0.341  0.3371  0.3914 -0.1664
  637SOL    HW1 1910   0.120   2.302   0.260 -0.4899  0.8611  1.5398
  637SOL    HW2 1911   3.056   2.305   0.366 -2.3315  0.9630  1.0206
  638SOL     OW 1912   2.783   2.645   0.503  0.1442  0.5331 -0.2233
  638SOL    HW1 1913   2.874   2.598   0.497  1.5569  0.3537  0.0363
  638SOL    HW2 1914   2.707   2.579   0.530 -1.2360  1.2505  0.5726
  639SOL     OW 1915   1.329   0.739   0.023  0.2202  0.2562  0.1495
  639SOL    HW1 1916   1.257   0.747   3.021  1.5190  0.9235  2.4024
  639SOL    HW2 1917   1.304   0.781   0.111 -0.2188  0.8816 -0.4430
  640SOL     OW 1918   1.857   2.125   1.824 -0.8355  0.3114  0.3414
  640SOL    HW1 1919   1.772   2.118   1.774 -0.6837  0.9364 -0.7359
  640SOL    HW2 1920   1.859   2.164   1.921  2.2450 -0.1720  2.4082
  641SOL     OW 1921   2.933   2.930   0.815  0.5357 -0.2365 -0.0934
  641SOL    HW1 1922   2.966   3.008   0.873 -0.7982  0.6205 -0.9995
  641SOL    HW2 1923   2.861   2.883   0.868  2.8462 -0.6135  0.3210
  642SOL     OW 1924   1.108   0.918   1.679  0.0968  0.0039  0.1831
  642SOL    HW1 1925   1.160   0.957   1.760 -0.5450 -1.8289  1.5852
  642SOL    HW2 1926   1.152   0.929   1.588  1.6539 -0.6121  0.9985
  643SOL     OW 1927   0.796   1.789   2.596  0.5395  0.2302  0.0460
  643SOL    HW1 1928   0.747   1.738   2.667 -1.1590  1.4033 -1.5678
  643SOL    HW2 1929   0.735   1.858   2.549 -0.7065 -1.2572  0.6840
  644SOL     OW 1930   1.255   2.426   2.742  0.5490 -0.0865  0.0769
  644SOL    HW1 1931   1.351   2.435   2.709  2.7302  2.3144 -0.9148
  644SOL    HW2 1932   1.242   2.473   2.829 -0.1856 -1.3002 -1.8195
  645SOL     OW 1933   1.524   1.075   1.762 -0.3758 -0.0390 -0.1961
  645SOL    HW1 1934   1.568   1.119   1.846  1.8020  0.2221  2.1482
  645SOL    HW2 1935   1.537   1.130   1.676 -0.9457 -1.0148 -0.6167
  646SOL     OW 1936   0.977   2.586   2.870  0.2865 -0.2512 -0.6415
  646SOL    HW1 1937   0.891   2.613   2.821  1.9021  0.9680 -0.1831
  646SOL    HW2 1938   1.048   2.659   2.860  1.5731  0.8068 -3.2002
  647SOL     OW 1939   0.948   3.034   0.539  0.1372  0.2967 -0.3034
  647SOL    HW1 1940   0.986   2.964   0.600  0.3207  2.3452 -2.6573
  647SOL    HW2 1941   0.919   0.051   0.581  0.3639  1.9014 -2.0760
  648SOL     OW 1942   2.663   2.831   1.486 -0.2115  0.2642  0.0836
  648SOL    HW1 1943   2.638   2.852   1.392  0.2847  0.7245  1.6941
  648SOL    HW2 1944   2.599   2.781   1.539  0.1506  1.2867 -1.9044
  649SOL     OW 1945   0.593   2.459   2.896 -0.0399 -0.0550 -0.5214
  649SOL    HW1 1946   0.616   2.364   2.862 -1.9379 -3.1735 -0.5835
  649SOL    HW2 1947   0.526   2.450   2.974  0.5035 -1.2251 -0.6176
  650SOL     OW 1948   2.666   1.851   2.130  0.1793 -0.1850  0.2367
  650SOL    HW1 1949   2.740   1.810   2.183  1.1456  0.3926 -3.7808
  650SOL    HW2 1950   2.687   1.951   2.113  1.2096 -3.0486 -1.9135
  651SOL     OW 1951   2.876   2.345   2.079 -0.9993 -0.4902  0.4083
  651SOL    HW1 1952   2.918   2.439   2.075 -0.9960 -0.0235 -0.4850
  651SOL    HW2 1953   2.912   2.303   2.164 -5.2916 -1.0285 -0.9180
  652SOL     OW 1954   2.547   2.033   0.301 -0.6219 -0.2903 -0.1514
  652SOL    HW1 1955   2.539   1.992   0.395 -2.9784  0.3201  1.8712
  652SOL    HW2 1956   2.467   2.098   0.299 -0.2180 -1.8904  0.3624
  653SOL     OW 1957   2.902   0.924   1.081 -0.1997 -0.3152 -0.5921
  653SOL    HW1 1958   2.892   0.849   1.013 -0.1949 -1.4500 -0.1257
  653SOL    HW2 1959   2.873   0.886   1.170 -1.8117  1.4598 -2.9922
  654SOL     OW 1960   0.844   0.326   2.954  0.5073 -0.1411 -0.2657
  654SOL    HW1 1961   0.894   0.326   2.864 -1.8098  3.8684 -1.1841
  654SOL    HW2 1962   0.813   0.227   2.978 -2.8631 -0.9538 -0.3867
  655SOL     OW 1963   1.118   0.224   1.105  0.0289 -0.0282  0.2379
  655SOL    HW1 1964   1.103   0.212   1.207  0.0537  0.9966  2.1118
  655SOL    HW2 1965   1.059   0.157   1.059  0.6445 -1.2119  2.0796
  656SOL     OW 1966   0.430   2.547   1.980  0.3088 -0.2704 -0.2590
  656SOL    HW1 1967   0.409   2.544   1.881 -4.1418 -0.5788 -1.8767
  656SOL    HW2 1968   0.520   2.505   2.001 -3.9561 -0.2282 -2.7564
  657SOL     OW 1969   2.535   0.769   0.341 -0.6487  0.3365  0.0648
  657SOL    HW1 1970   2.547   0.670   0.351 -1.4622  1.5651  1.0374
  657SOL    HW2 1971   2.621   0.821   0.328 -0.4756  2.1853  0.2540
  658SOL     OW 1972   1.912   1.750   0.935 -0.0149  0.1784  0.3715
  658SOL    HW1 1973   1.915   1.807   1.022  1.0593  1.0860  2.3269
  658SOL    HW2 1974   1.977   1.785   0.861 -0.4232  2.2038 -1.1028
  659SOL     OW 1975   2.659   2.294   2.700  0.4587  0.6570 -0.1758
  659SOL    HW1 1976   2.690   2.317   2.605  0.9456  0.3351 -2.2553
  659SOL    HW2 1977   2.740   2.300   2.759 -0.3143 -2.4374 -2.5385
  660SOL     OW 1978   1.404   0.482   0.431  0.7582 -0.7432  0.1001
  660SOL    HW1 1979   1.446   0.579   0.418  1.2811  1.1813  1.3990
  660SOL    HW2 1980   1.403   0.437   0.338  1.9489 -3.5447 -0.9329
  661SOL     OW 1981   2.088   0.177   0.051  0.1133 -0.2769  0.0453
  661SOL    HW1 1982   2.019   0.188   0.126 -0.4512  0.0454  2.1508
  661SOL    HW2 1983   2.124   0.080   0.051 -3.6131  0.1213 -0.3996
  662SOL     OW 1984   0.626   0.057   0.743  0.1907 -0.1845 -0.6151
  662SOL    HW1 1985   0.711   0.098   0.704 -1.9738  0.1511 -0.4393
  662SOL    HW2 1986   0.569   0.018   0.667  2.2038 -0.2226 -0.0525
  663SOL     OW 1987   1.365   0.288   2.553  0.4258  0.4645 -0.5269
  663SOL    HW1 1988   1.395   0.318   2.461 -1.6871 -0.2965 -0.4055
  663SOL    HW2 1989   1.437   0.296   2.627  1.3980 -1.1634 -1.4969
  664SOL     OW 1990   0.615   2.787   1.328 -0.0293  0.5420 -0.2657
  664SOL    HW1 1991   0.669   2.862   1.374  2.5521 -0.3671  0.6726
  664SOL    HW2 1992   0.585   2.721   1.393 -0.4639  1.4830  1.8742
  665SOL     OW 1993   0.857   2.361   1.589  0.3591 -0.1921 -0.1921
  665SOL    HW1 1994   0.838   2.431   1.516  0.9879  2.1151 -1.9463
  665SOL    HW2 1995   0.875   2.408   1.681 -0.9024  0.3940  0.7591
  666SOL     OW 1996   0.246   0.031   2.662  0.1907 -0.4244 -0.0383
  666SOL    HW1 1997   0.313   3.051   2.608  0.4570 -1.7104  1.3475
  666SOL    HW2 1998   0.154   0.016   2.619 -1.2194  2.3329 -1.8895
  667SOL     OW 1999   1.756   1.655   1.495  0.0822  0.1024  0.0098
  667SOL    HW1 2000   1.755   1.662   1.395 -1.7115 -1.6881  1.5708
  667SOL    HW2 2001   1.844   1.680   1.540 -0.0626  1.1120  2.5702
  668SOL     OW 2002   1.519   0.332   1.745 -0.2611 -0.0606  0.2658
  668SOL    HW1 2003   1.546   0.240   1.768 -0.8346 -2.2225  0.9001
  668SOL    HW2 2004   1.504   0.341   1.644  0.7595 -1.9737  0.0124
  669SOL     OW 2005   2.725   2.440   1.000  0.3972 -0.1540 -0.6377
  669SOL    HW1 2006   2.747   2.537   1.014  0.5795 -1.8374 -0.5532
  669SOL    HW2 2007   2.786   2.406   0.927 -0.3152  0.9986 -0.1226
  670SOL     OW 2008   1.435   2.213   2.853  0.3528 -0.1128  0.5987
  670SOL    HW1 2009   1.341   2.179   2.882 -1.6396 -1.7077  1.0707
  670SOL    HW2 2010   1.463   2.296   2.909 -4.0506  1.5931 -0.0653
  671SOL     OW 2011   0.934   1.186   0.463  0.3362 -0.2017  0.2143
  671SOL    HW1 2012   0.912   1.183   0.564  1.2410  1.7833  3.9761
  671SOL    HW2 2013   0.940   1.086   0.431  0.9252 -0.1758 -0.1202
  672SOL     OW 2014   3.038   1.130   2.616 -0.0765  1.0738  0.6055
  672SOL    HW1 2015   2.948   1.136   2.669 -1.9658  0.5889  1.6788
  672SOL    HW2 2016   3.022   1.058   2.546 -3.2129  2.5845 -1.7726
  673SOL     OW 2017   2.689   1.842   1.610 -0.5980 -0.4721  0.3560
  673SOL    HW1 2018   2.737   1.844   1.699 -3.2561  2.3954 -0.9236
  673SOL    HW2 2019   2.590   1.868   1.620 -2.4931 -0.4975 -0.4808
  674SOL     OW 2020   0.319   2.375   2.373  0.4601 -0.0528 -0.3669
  674SOL    HW1 2021   0.414   2.362   2.408  0.2633 -0.7696 -1.7629
  674SOL    HW2 2022   0.320   2.364   2.269  0.1860 -1.7459 -0.1633
  675SOL     OW 2023   0.865   0.583   1.526  0.4221  0.6182 -0.5963
  675SOL    HW1 2024   0.874   0.681   1.547 -0.5395  2.0694 -2.1282
  675SOL    HW2 2025   0.955   0.542   1.514  1.7338  1.6363 -1.2350
  676SOL     OW 2026   2.122   0.138   1.273 -0.4353  0.0888  0.2555
  676SOL    HW1 2027   2.046   0.089   1.222 -1.3317 -0.9533  0.7312
  676SOL    HW2 2028   2.115   0.239   1.253  0.3750 -0.0031 -1.6952
  677SOL     OW 2029   2.260   1.622   3.001  0.7514 -0.2266 -0.2735
  677SOL    HW1 2030   2.300   1.713   2.990  1.0824 -1.6461 -2.3694
  677SOL    HW2 2031   2.243   1.581   2.907  1.0728 -0.1910  0.4731
  678SOL     OW 2032   2.837   1.397   1.032 -0.2943 -0.0617  0.0545
  678SOL    HW1 2033   2.844   1.357   1.125  1.7571 -2.5673 -0.0773
  678SOL    HW2 2034   2.927   1.432   1.001 -0.6528 -1.2462 -2.3698
  679SOL     OW 2035   2.663   0.474   0.078 -0.0308 -0.1750 -0.0974
  679SOL    HW1 2036   2.692   0.403   0.144 -1.8039 -0.3186  0.2789
  679SOL    HW2 2037   2.737   0.543   0.079 -1.0551 -0.6499 -0.7860
  680SOL     OW 2038   0.307   1.981   1.865 -0.1193  0.1012 -0.0508
  680SOL    HW1 2039   0.212   2.028   1.871 -2.2660  1.5442  0.0417
  680SOL    HW2 2040   0.315   1.891   1.912 -0.5307  0.1600 -1.2254
  681SOL     OW 2041   1.900   2.041   1.526 -0.2463 -0.3765  0.0020
  681SOL    HW1 2042   1.907   1.948   1.563 -2.4024  2.7603 -1.3279
  681SOL    HW2 2043   1.845   2.108   1.585  0.1846  4.5646 -0.8635
  682SOL     OW 2044   0.464   1.679   3.038  0.7589 -0.1974  0.1991
  682SOL    HW1 2045   0.546   1.708   0.021  0.0904  0.6053  0.9299
  682SOL    HW2 2046   0.475   1.602   2.970 -0.0727  0.6003  0.2290
  683SOL     OW 2047   0.045   2.163   1.414 -0.3840  0.2177  0.5530
  683SOL    HW1 2048   0.140   2.177   1.446  1.0441 -1.1865 -0.1028
  683SOL    HW2 2049   0.042   2.156   1.311  0.2858 -0.3788 -2.7261
  684SOL     OW 2050   2.886   1.289   2.041  0.0392  0.1658 -0.1353
  684SOL    HW1 2051   2.896   1.386   2.054  0.5549 -0.7308 -0.5746
  684SOL    HW2 2052   2.828   1.265   1.959  0.2453  0.2177 -1.0574
  685SOL     OW 2053   1.562   0.869   0.631 -0.2387 -1.0236 -0.1362
  685SOL    HW1 2054   1.525   0.804   0.702 -3.1425 -0.7509  0.5897
  685SOL    HW2 2055   1.512   0.860   0.540 -1.3132 -1.2572  0.2742
  686SOL     OW 2056   0.559   0.309   0.822  0.1011  0.5119 -0.2294
  686SOL    HW1 2057   0.465   0.326   0.858 -0.2292 -2.4762 -0.0573
  686SOL    HW2 2058   0.569   0.212   0.809  0.8299  4.3881  1.0421
  687SOL     OW 2059   0.966   2.248   2.666 -0.3732  0.1263 -0.2286
  687SOL    HW1 2060   0.983   2.297   2.752  0.4523 -0.9045 -0.9757
  687SOL    HW2 2061   1.040   2.270   2.599 -2.4717  1.8267 -0.3593
  688SOL     OW 2062   2.003   0.726   1.396  0.1896 -0.0939 -0.1642
  688SOL    HW1 2063   2.004   0.666   1.315  1.5372  1.1643  1.7300
  688SOL    HW2 2064   1.964   0.682   1.478  0.8530 -0.0349 -2.2201
  689SOL     OW 2065   1.736   0.342   0.946 -0.6104  0.0491 -0.6039
  689SOL    HW1 2066   1.804   0.383   1.010  0.6871  2.6280 -0.6519
  689SOL    HW2 2067   1.707   0.416   0.886 -0.4804 -2.1704  0.0713
  690SOL     OW 2068   3.040   1.514   0.891  0.3030  0.3245  0.1438
  690SOL    HW1 2069   0.065   1.550   0.885  0.0389  1.1125  1.0874
  690SOL    HW2 2070   2.981   1.588   0.936 -2.2296 -2.0372  0.5126
  691SOL     OW 2071   0.449   2.265   1.281  0.1082 -0.0391  0.1422
  691SOL    HW1 2072   0.533   2.293   1.225  1.3009  1.2109  1.0318
  691SOL    HW2 2073   0.402   2.195   1.227  0.6452 -0.6178  0.2160
  692SOL     OW 2074   1.565   3.044   1.541 -0.7457 -0.1139  0.2247
  692SOL    HW1 2075   1.604   0.020   1.623 -0.1151 -0.3210  1.0467
  692SOL    HW2 2076   1.588   0.022   1.452  0.3742  0.5932 -0.5362
  693SOL     OW 2077   0.538   1.729   2.143 -0.4202  0.0760 -0.5414
  693SOL    HW1 2078   0.629   1.781   2.155  3.5584  1.9145  0.8436
  693SOL    HW2 2079   0.459   1.790   2.169 -1.0594  0.8758 -0.7487
  694SOL     OW 2080   2.095   1.362   1.084 -0.5428 -0.5560 -0.5909
  694SOL    HW1 2081   2.126   1.455   1.053 -0.5524 -0.2922 -0.0083
  694SOL    HW2 2082   2.007   1.360   1.123  1.4224 -2.3900 -3.4459
  695SOL     OW 2083   1.105   0.907   1.020  0.8881 -0.3058  0.4773
  695SOL    HW1 2084   1.133   0.827   0.965 -0.4915  1.1889  0.1938
  695SOL    HW2 2085   1.070   0.871   1.112 -0.5326 -1.9180  2.5007
  696SOL     OW 2086   0.498   3.029   0.517 -0.0357  0.3962 -0.0485
  696SOL    HW1 2087   0.465   0.008   0.432 -0.7459 -1.3310 -0.2709
  696SOL    HW2 2088   0.568   2.964   0.490 -0.4238  0.0912  0.7223
  697SOL     OW 2089   2.085   0.674   0.889  0.2536 -0.0138  0.2311
  697SOL    HW1 2090   2.118   0.769   0.869 -0.3544  1.7353  2.0022
  697SOL    HW2 2091   1.985   0.665   0.917 -0.7036 -2.6885  2.2698
  698SOL     OW 2092   1.579   1.295   1.929  0.1945  0.4550 -0.6855
  698SOL    HW1 2093   1.520   1.352   1.987  3.6677 -2.2482  0.0004
  698SOL    HW2 2094   1.675   1.326   1.928 -2.4678 -0.8250  0.7689
  699SOL     OW 2095   2.710   0.620   1.929  0.4978  0.2976  0.0595
  699SOL    HW1 2096   2.655   0.658   2.005  0.7243  0.6399  1.4315
  699SOL    HW2 2097   2.750   0.533   1.962  2.5237  2.5018  1.2733
  700SOL     OW 2098   1.622   2.562   0.504 -0.4189  0.2791 -0.1787
  700SOL    HW1 2099   1.608   2.613   0.589  0.3076  2.0439  1.8719
  700SOL    HW2 2100   1.722   2.558   0.486  0.3991 -0.2636 -2.7094
  701SOL     OW 2101   2.725   1.793   2.510  0.2981 -0.4973 -0.5832
  701SOL    HW1 2102   2.780   1.719   2.554 -1.4759  2.9998  0.2903
  701SOL    HW2 2103   2.734   1.874   2.575  0.0545 -0.5155  1.7553
  702SOL     OW 2104   0.740   2.868   0.460  0.2430  0.2559  0.0890
  702SOL    HW1 2105   0.749   2.821   0.547 -2.4999  0.1983  0.5452
  702SOL    HW2 2106   0.808   2.946   0.454 -2.4256 -0.0471 -3.2108
  703SOL     OW 2107   1.775   2.810   2.296  0.0025  0.4725  0.2624
  703SOL    HW1 2108   1.797   2.905   2.321 -2.2531 -1.2993 -0.2310
  703SOL    HW2 2109   1.771   2.803   2.197 -1.7779  1.5798 -0.8927
  704SOL     OW 2110   2.717   1.987   0.099  0.3568 -0.7494 -0.5126
  704SOL    HW1 2111   2.810   1.964   0.131 -1.6834 -0.7358  0.0348
  704SOL    HW2 2112   2.656   2.005   0.183 -1.4378 -0.3982  0.0433
  705SOL     OW 2113   2.967   2.254   2.322  0.1438  0.4798  0.0270
  705SOL    HW1 2114   2.923   2.160   2.343 -2.2397 -0.3030  3.2657
  705SOL    HW2 2115   2.939   2.316   2.391 -2.1433 -1.9369 -3.8186
  706SOL     OW 2116   2.617   0.121   0.424  0.3206 -0.2632  0.4727
  706SOL    HW1 2117   2.597   0.028   0.381  3.7108  0.1164  0.1501
  706SOL    HW2 2118   2.535   0.158   0.466 -2.0263 -2.0434 -1.3487
  707SOL     OW 2119   1.292   0.231   2.903 -0.4166  0.1783  0.2969
  707SOL    HW1 2120   1.285   0.325   2.946 -1.9865 -0.2232 -0.0544
  707SOL    HW2 2121   1.320   0.242   2.807 -2.3807 -1.4806  1.9217
  708SOL     OW 2122   0.458   2.148   1.709 -0.8279 -0.0887 -0.0695
  708SOL    HW1 2123   0.409   2.083   1.767  2.4542  0.3665 -1.0909
  708SOL    HW2 2124   0.561   2.152   1.728  0.6503 -1.0725 -0.3984
  709SOL     OW 2125   1.252   2.923   1.961 -0.3569  0.4578 -0.1471
  709SOL    HW1 2126   1.245   3.024   1.943 -0.5250  1.7604  1.7600
  709SOL    HW2 2127   1.332   2.895   2.015 -1.3538 -1.2687  0.8057
  710SOL     OW 2128   1.496   2.449   2.626  0.2861  0.1116 -0.1474
  710SOL    HW1 2129   1.556   2.517   2.571  2.6428  1.3135 -0.1188
  710SOL    HW2 2130   1.549   2.385   2.689  3.8086 -0.2007  0.2654
  711SOL     OW 2131   0.705   2.633   2.699 -0.0984  0.2090  0.6570
  711SOL    HW1 2132   0.627   2.675   2.650  0.2826 -0.9801 -1.2458
  711SOL    HW2 2133   0.679   2.564   2.771  5.1463  1.8347  1.8844
  712SOL     OW 2134   1.021   2.091   0.098 -0.2902  0.8703 -0.0160
  712SOL    HW1 2135   1.010   1.988   0.091  1.4545  2.4654 -2.3405
  712SOL    HW2 2136   0.944   2.138   0.053  1.6632  0.6158  2.8812
  713SOL     OW 2137   1.876   1.202   1.427  0.4412  0.8389 -0.2233
  713SOL    HW1 2138   1.886   1.105   1.392 -0.8838 -1.0144 -2.7366
  713SOL    HW2 2139   1.788   1.221   1.480  1.0224  0.5077  1.2085
  714SOL     OW 2140   0.641   1.126   2.067  0.0341 -0.3504  0.2009
  714SOL    HW1 2141   0.640   1.101   2.162  0.5874  1.5086 -0.7677
  714SOL    HW2 2142   0.630   1.044   2.007  1.9779 -1.6243  1.8676
  715SOL     OW 2143   2.765   0.258   0.220  0.1639 -0.1036 -0.8681
  715SOL    HW1 2144   2.710   0.206   0.289  0.2359 -1.9828  1.3504
  715SOL    HW2 2145   2.862   0.231   0.215  0.1317  1.0407 -0.4176
  716SOL     OW 2146   0.344   2.650   0.972 -0.2124  0.0472  0.5034
  716SOL    HW1 2147   0.437   2.654   1.010  2.6137  1.2892 -0.5202
  716SOL    HW2 2148   0.264   2.688   1.032 -4.7633 -0.1139  1.7123
  717SOL     OW 2149   2.550   0.670   0.660  0.3087  0.0117 -0.0134
  717SOL    HW1 2150   2.517   0.609   0.588  1.0723 -0.3094  1.5131
  717SOL    HW2 2151   2.494   0.758   0.647 -2.9591  2.2890  1.3558
  718SOL     OW 2152   1.632   1.260   1.526 -1.0004  0.1314 -0.4931
  718SOL    HW1 2153   1.634   1.325   1.601  2.4585 -0.6018 -0.2833
  718SOL    HW2 2154   1.595   1.305   1.443  1.1197 -0.5394 -0.1425
  719SOL     OW 2155   2.732   2.680   2.847 -0.0977 -0.4805 -0.0591
  719SOL    HW1 2156   2.640   2.726   2.852 -1.5086  2.2642  2.8517
  719SOL    HW2 2157   2.753   2.643   2.755  0.0370 -0.2987 -0.3787
  720SOL     OW 2158   1.008   0.336   0.777  0.4371  0.4053  0.0856
  720SOL    HW1 2159   1.014   0.416   0.842 -1.4967  0.8357  2.0078
  720SOL    HW2 2160   1.046   0.252   0.819 -0.1267  1.5607 -1.0844
  721SOL     OW 2161   1.922   0.476   1.112  0.1343 -0.2860 -0.0834
  721SOL    HW1 2162   2.012   0.434   1.100  0.1854  1.2017 -1.4700
  721SOL    HW2 2163   1.923   0.566   1.063  0.5329  0.8215 -0.6955
  722SOL     OW 2164   0.723   2.179   1.753  0.2661  0.1201  0.2615
  722SOL    HW1 2165   0.746   2.184   1.854 -1.3730 -0.7158  2.2000
  722SOL    HW2 2166   0.769   2.249   1.693  2.0238 -2.9471 -0.6281
  723SOL     OW 2167   1.323   0.069   1.378  0.1167  0.2472 -0.1533
  723SOL    HW1 2168   1.342   0.002   1.303 -0.4614 -0.6863 -0.9880
  723SOL    HW2 2169   1.390   0.066   1.456 -0.1454  2.6463 -0.2362
  724SOL     OW 2170   1.618   1.898   1.505 -0.4940  0.9330 -0.4298
  724SOL    HW1 2171   1.518   1.924   1.529 -1.3078  0.6708  1.0818
  724SOL    HW2 2172   1.634   1.801   1.529  1.1218  0.7205 -0.7584
  725SOL     OW 2173   1.421   2.388   1.259  0.0180  0.0004 -0.4115
  725SOL    HW1 2174   1.411   2.300   1.207  1.8936  0.5305 -0.7860
  725SOL    HW2 2175   1.403   2.466   1.196  1.8094 -2.4099  0.4968
  726SOL     OW 2176   1.905   0.369   3.007  0.1167  0.3290  0.1111
  726SOL    HW1 2177   1.952   0.322   0.015 -1.9605  0.8581 -2.5088
  726SOL    HW2 2178   1.883   0.304   2.931 -1.2138 -0.6511  4.3299
  727SOL     OW 2179   1.496   1.933   0.318  0.2763 -0.0330 -0.4407
  727SOL    HW1 2180   1.446   1.885   0.244 -0.3395  2.0151  1.5365
  727SOL    HW2 2181   1.597   1.932   0.307 -0.8365 -1.2627 -0.9342
  728SOL     OW 2182   1.835   2.579   2.018  0.6060 -0.4243 -0.1509
  728SOL    HW1 2183   1.890   2.532   1.945 -1.0443  0.9226  1.0843
  728SOL    HW2 2184   1.794   2.664   1.984 -0.2858 -0.5071 -0.2003
  729SOL     OW 2185   2.119   2.459   1.631  0.3880 -0.0585 -0.2672
  729SOL    HW1 2186   2.085   2.392   1.560 -2.2453 -1.1825 -2.7115
  729SOL    HW2 2187   2.213   2.435   1.654  0.1528  3.3843  0.6991
  730SOL     OW 2188   1.485   0.754   2.506 -0.0325 -0.1251 -0.4762
  730SOL    HW1 2189   1.520   0.692   2.585  0.5562 -3.3314  3.2588
  730SOL    HW2 2190   1.399   0.712   2.479  4.2725  2.3978 -1.1620
  731SOL     OW 2191   0.798   0.037   1.077 -0.6439  0.4162 -0.6286
  731SOL    HW1 2192   0.707   3.064   1.074  1.2387  2.8884  1.2812
  731SOL    HW2 2193   0.840   0.009   1.171  1.2244 -0.7542  0.7301
  732SOL     OW 2194   1.468   2.948   1.190  0.0323  0.0239 -0.7046
  732SOL    HW1 2195   1.517   2.864   1.229  1.4128 -0.0197  1.7633
  732SOL    HW2 2196   1.408   2.921   1.111 -2.0340 -0.8289  0.8987
  733SOL     OW 2197   1.447   1.074   1.271 -0.1752 -0.1728 -0.0012
  733SOL    HW1 2198   1.418   1.064   1.171  0.3508  1.5070  0.2946
  733SOL    HW2 2199   1.464   1.174   1.295 -2.4070  1.3261  1.3529
  734SOL     OW 2200   2.313   2.220   0.318  0.4034 -1.0473 -0.5332
  734SOL    HW1 2201   2.227   2.236   0.261  1.5797 -0.6579  0.5856
  734SOL    HW2 2202   2.347   2.308   0.363 -0.3893  0.7752 -2.7054
  735SOL     OW 2203   0.611   0.341   0.540 -0.0403  0.0275 -0.7392
  735SOL    HW1 2204   0.600   0.285   0.626 -0.7817  0.2032 -0.2933
  735SOL    HW2 2205   0.528   0.358   0.484 -0.3139  2.6078  0.0549
  736SOL     OW 2206   2.042   2.151   2.523 -0.0213 -0.3728  0.5480
  736SOL    HW1 2207   1.944   2.128   2.549  2.9848 -1.1937  2.4395
  736SOL    HW2 2208   2.055   2.191   2.429  1.7777 -0.0326 -0.6203
  737SOL     OW 2209   1.005   2.364   1.040 -0.3427 -0.2091  0.5421
  737SOL    HW1 2210   1.090   2.388   0.983  0.1735  0.3512 -3.7386
  737SOL    HW2 2211   0.929   2.375   0.973 -0.1191  1.7888  0.4186
  738SOL     OW 2212   1.460   2.923   2.162 -0.0453  0.2422  0.0454
  738SOL    HW1 2213   1.429   2.918   2.258 -0.9084  0.3145  2.3825
  738SOL    HW2 2214   1.473   2.830   2.126  0.1211  2.4271  0.0094
  739SOL     OW 2215   0.726   2.163   2.036  0.3377 -0.7215  0.6696
  739SOL    HW1 2216   0.820   2.195   2.062 -1.3215  0.5815 -0.7241
  739SOL    HW2 2217   0.655   2.161   2.112 -0.3279  0.8211 -2.9110
  740SOL     OW 2218   1.586   2.417   1.480 -0.0863  0.0062  0.3690
  740SOL    HW1 2219   1.674   2.416   1.431 -2.6900  0.4142 -1.2118
  740SOL    HW2 2220   1.511   2.429   1.411 -1.1128 -0.5482  0.6885
  741SOL     OW 2221   2.411   1.393   3.043 -0.0373 -0.7171  0.2559
  741SOL    HW1 2222   2.455   1.371   2.954 -2.0077 -0.5667 -1.1022
  741SOL    HW2 2223   2.354   1.475   3.028 -0.1277 -0.2023 -0.6922
  742SOL     OW 2224   0.658   1.528   1.971  0.0585  0.6034 -0.5070
  742SOL    HW1 2225   0.668   1.611   2.026  2.8507 -0.0522 -0.9723
  742SOL    HW2 2226   0.585   1.470   2.006  3.6394  2.6383  0.1223
  743SOL     OW 2227   3.020   0.918   2.445 -0.1310  0.1428 -0.5876
  743SOL    HW1 2228   2.999   0.907   2.344 -0.4723 -0.4534 -1.6943
  743SOL    HW2 2229   3.028   0.827   2.491 -0.8026 -0.1825  1.5047
  744SOL     OW 2230   2.170   2.078   1.584  0.1186  0.0583  0.3099
  744SOL    HW1 2231   2.242   2.006   1.599 -0.8579  1.7181 -2.9258
  744SOL    HW2 2232   2.077   2.037   1.602  0.1718 -1.5775  0.8465
  745SOL     OW 2233   2.375   1.582   1.569  0.2670  0.0359 -0.0812
  745SOL    HW1 2234   2.280   1.610   1.542  2.0206  0.7046 -1.3065
  745SOL    HW2 2235   2.401   1.499   1.521 -0.8100  3.6153  0.8394
  746SOL     OW 2236   2.643   1.162   0.561  1.0218 -0.3243  0.1329
  746SOL    HW1 2237   2.611   1.164   0.467 -0.6239  1.1744  0.0355
  746SOL    HW2 2238   2.691   1.248   0.590  2.3540  0.0610  4.2818
  747SOL     OW 2239   1.806   2.261   0.569 -0.2236 -0.0654  0.4534
  747SOL    HW1 2240   1.854   2.350   0.543 -0.9736  0.5410 -0.4563
  747SOL    HW2 2241   1.737   2.277   0.642 -2.1493 -1.5051 -2.8259
  748SOL     OW 2242   0.904   2.258   0.509 -0.0731 -0.4648  0.0047
  748SOL    HW1 2243   0.936   2.182   0.452  0.2521  1.4264  0.7090
  748SOL    HW2 2244   0.980   2.332   0.498  3.9974  1.7611  0.2502
  749SOL     OW 2245   2.927   0.471   2.399  0.0662 -1.0313 -0.3721
  749SOL    HW1 2246   2.906   0.396   2.462 -1.2438 -0.9776 -0.1860
  749SOL    HW2 2247   2.932   0.444   2.297 -0.4490  0.7188 -0.5963
  750SOL     OW 2248   1.636   0.082   1.299  0.5519 -0.0057  0.4545
  750SOL    HW1 2249   1.600   0.172   1.275  0.8222  0.0930 -0.9225
  750SOL    HW2 2250   1.576   0.007   1.258 -1.6578 -1.3993  0.1082
  751SOL     OW 2251   1.707   2.240   2.745 -0.3448 -0.3203  0.3667
  751SOL    HW1 2252   1.624   2.207   2.794  0.7384 -0.8792  0.5709
  751SOL    HW2 2253   1.784   2.251   2.811  1.6376  0.9621  1.2208
  752SOL     OW 2254   1.852   2.129   0.221 -0.6407  0.3396 -0.1635
  752SOL    HW1 2255   1.776   2.189   0.257 -1.9198 -2.0956 -2.1728
  752SOL    HW2 2256   1.905   2.084   0.299 -0.6094 -0.7558  1.3372
  753SOL     OW 2257   1.665   0.814   2.038 -0.0213  0.3969 -0.1605
  753SOL    HW1 2258   1.693   0.748   2.107  0.5653  0.9988  1.8753
  753SOL    HW2 2259   1.692   0.910   2.067  0.0767  0.5467  0.1976
  754SOL     OW 2260   0.081   2.872   0.684 -0.2498  0.3785 -0.2228
  754SOL    HW1 2261   0.050   2.776   0.674 -0.9451 -2.7168 -0.2723
  754SOL    HW2 2262   0.007   2.921   0.734  0.0317 -0.6092 -2.0212
  755SOL     OW 2263   1.885   0.062   1.439 -0.7448 -0.1790 -0.0868
  755SOL    HW1 2264   1.961   0.032   1.383 -1.3063 -0.6573  2.2384
  755SOL    HW2 2265   1.794   0.063   1.390 -2.3415 -0.1870  1.0713
  756SOL     OW 2266   1.156   1.027   2.366 -0.1610  0.0445  0.1413
  756SOL    HW1 2267   1.253   1.002   2.391 -0.9423 -0.6570 -0.4002
  756SOL    HW2 2268   1.149   1.039   2.264 -0.8536 -0.2377  0.5835
  757SOL     OW 2269   2.872   2.751   1.328  0.0172 -0.1524  0.0436
  757SOL    HW1 2270   2.935   2.673   1.352 -1.4940 -1.4086  0.7764
  757SOL    HW2 2271   2.809   2.772   1.404 -0.2238 -1.3405  0.0095
  758SOL     OW 2272   0.735   2.987   1.470  0.7443 -0.4146  0.5161
  758SOL    HW1 2273   0.645   2.996   1.518 -1.4658 -0.6818 -2.2604
  758SOL    HW2 2274   0.817   3.010   1.526 -1.8602 -1.8311  0.5935
  759SOL     OW 2275   2.411   1.347   0.748 -0.5728  0.1894 -0.2239
  759SOL    HW1 2276   2.430   1.370   0.651 -0.6115  1.2652  1.1220
  759SOL    HW2 2277   2.501   1.334   0.799  1.4281  1.2133  1.0280
  760SOL     OW 2278   2.166   0.412   1.542  0.0849  0.1249  0.8219
  760SOL    HW1 2279   2.076   0.427   1.490 -0.5208 -1.6933 -2.0399
  760SOL    HW2 2280   2.159   0.312   1.563  0.4311  1.1931 -2.2479
  761SOL     OW 2281   1.994   0.040   0.484  0.7946 -0.3858 -0.3757
  761SOL    HW1 2282   2.048   0.007   0.563  0.4091  0.1005 -0.7854
  761SOL    HW2 2283   1.960   3.027   0.425  1.4365 -2.3099 -2.9605
  762SOL     OW 2284   2.076   2.275   0.168 -0.0121 -0.0878  0.4936
  762SOL    HW1 2285   2.082   2.205   0.093  0.4422  0.4766  0.4044
  762SOL    HW2 2286   1.977   2.300   0.190 -1.2314  1.3483  0.1309
  763SOL     OW 2287   0.735   0.934   0.918  0.2888  1.0024  0.2810
  763SOL    HW1 2288   0.779   0.988   0.844 -3.4587  2.1129 -0.9096
  763SOL    HW2 2289   0.785   0.937   1.010  1.3837  0.5393 -1.0821
  764SOL     OW 2290   2.455   2.402   2.877 -0.7166  0.4158  0.4629
  764SOL    HW1 2291   2.515   2.336   2.830 -1.3304 -1.8038  1.4546
  764SOL    HW2 2292   2.453   2.487   2.825 -2.0030  0.9298  1.6971
  765SOL     OW 2293   0.602   0.708   2.258 -0.0978  0.1443  0.8496
  765SOL    HW1 2294   0.544   0.671   2.333  2.1073  0.3946  1.3239
  765SOL    HW2 2295   0.661   0.636   2.215 -1.5628  2.1588  0.4158
  766SOL     OW 2296   0.019   1.271   2.388  0.7747  0.0587 -0.2585
  766SOL    HW1 2297   3.051   1.224   2.476 -2.7271 -2.4775  4.2497
  766SOL    HW2 2298   3.036   1.360   2.377 -2.6249 -1.8474  0.1016
  767SOL     OW 2299   0.108   1.727   2.101 -0.0187  0.3800  0.3241
  767SOL    HW1 2300   0.194   1.712   2.050 -0.1373 -0.4750  0.4158
  767SOL    HW2 2301   0.123   1.747   2.199 -1.4502 -0.2197 -0.1609
  768SOL     OW 2302   0.981   0.934   2.754  0.2428 -0.3498 -0.5837
  768SOL    HW1 2303   0.925   0.976   2.827 -0.4596  1.8740  0.0623
  768SOL    HW2 2304   0.959   0.976   2.664 -1.5429 -1.0498  3.4740
  769SOL     OW 2305   1.619   2.688   2.917  0.2684  0.1214  0.0154
  769SOL    HW1 2306   1.717   2.709   2.891 -2.7579 -0.6760  0.0180
  769SOL    HW2 2307   1.586   2.749   2.991  0.9131 -3.1783 -2.2880
  770SOL     OW 2308   3.059   0.657   2.534 -0.3923 -0.9245  0.1550
  770SOL    HW1 2309   3.032   0.581   2.473  0.2445  2.9257 -0.6970
  770SOL    HW2 2310   2.986   0.670   2.599 -0.3111 -1.6140 -0.3579
  771SOL     OW 2311   0.792   2.127   1.115 -0.5628  0.1999  0.7262
  771SOL    HW1 2312   0.780   2.128   1.219 -0.6130  0.3432  2.5502
  771SOL    HW2 2313   0.754   2.209   1.069 -0.0817 -2.4022 -1.0386
  772SOL     OW 2314   0.660   0.522   3.026 -0.2056  0.3539  0.1439
  772SOL    HW1 2315   0.754   0.487   3.009 -0.5704 -1.1773  0.0455
  772SOL    HW2 2316   0.641   0.610   2.976  4.5798  1.4702  1.1161
  773SOL     OW 2317   2.115   0.997   1.734 -0.4980 -0.2246 -0.0645
  773SOL    HW1 2318   2.189   1.037   1.795 -0.5074 -2.7075  0.3299
  773SOL    HW2 2319   2.050   0.940   1.787 -0.5400  0.8774 -1.3521
  774SOL     OW 2320   1.108   0.844   0.629 -0.8352  0.5930  0.1940
  774SOL    HW1 2321   1.135   0.789   0.710  0.5976 -0.5621  0.5670
  774SOL    HW2 2322   1.147   0.937   0.634 -0.5615 -1.7299  1.3183
  775SOL     OW 2323   1.845   2.735   2.807 -0.6514  0.3198  0.2115
  775SOL    HW1 2324   1.903   2.815   2.833  1.6229  1.3530  2.0901
  775SOL    HW2 2325   1.901   2.661   2.766 -2.0399  2.3942 -0.0607
  776SOL     OW 2326   1.985   2.975   2.027 -0.3522 -0.0177 -0.1492
  776SOL    HW1 2327   2.037   3.010   1.943  3.1130  5.5267 -0.8866
  776SOL    HW2 2328   2.037   2.905   2.077 -0.2866  0.1139  0.7252
  777SOL     OW 2329   0.687   1.262   2.877 -0.7250  0.0949 -0.0998
  777SOL    HW1 2330   0.622   1.215   2.816  0.6129  1.0302  0.7777
  777SOL    HW2 2331   0.647   1.351   2.903  0.6811 -0.7296 -1.2263
  778SOL     OW 2332   0.674   0.031   0.282  0.0453 -0.8592  0.0290
  778SOL    HW1 2333   0.759   0.045   0.230 -0.3368  0.3465  2.1581
  778SOL    HW2 2334   0.693   0.073   0.376  2.0558  0.2250  3.0695
  779SOL     OW 2335   0.116   1.173   3.023 -0.1993 -0.2463  0.2065
  779SOL    HW1 2336   0.071   1.112   0.022 -2.7052  0.1443  0.1541
  779SOL    HW2 2337   0.186   1.232   3.066 -1.6030 -0.9488  0.1475
  780SOL     OW 2338   2.036   0.355   2.624 -0.0165 -0.1440  0.1386
  780SOL    HW1 2339   2.067   0.452   2.620 -0.6565 -0.0855 -0.2718
  780SOL    HW2 2340   1.937   0.352   2.597 -0.9456  2.5220  0.5032
  781SOL     OW 2341   2.092   1.083   2.090 -0.6814 -0.0395 -0.6851
  781SOL    HW1 2342   2.083   1.143   2.173  2.8527 -2.0374 -1.8219
  781SOL    HW2 2343   2.017   1.103   2.022  1.7407 -0.9937  1.5924
  782SOL     OW 2344   1.057   1.523   2.116  0.3245  0.2697  0.1181
  782SOL    HW1 2345   1.010   1.573   2.036 -0.0405 -1.8294  0.1847
  782SOL    HW2 2346   1.068   1.573   2.200  0.5618  1.1600  0.8453
  783SOL     OW 2347   1.331   2.884   0.964 -0.1348 -0.0547 -1.0079
  783SOL    HW1 2348   1.373   2.967   0.926  1.0067  2.5060 -1.0610
  783SOL    HW2 2349   1.244   2.916   1.008  0.2343  0.2848 -0.5752
  784SOL     OW 2350   1.600   0.705   3.037  0.2218  0.5004  0.0283
  784SOL    HW1 2351   1.657   0.788   3.032 -0.2211 -1.8231  1.3367
  784SOL    HW2 2352   1.498   0.722   3.038  2.1751  0.6860  0.0135
  785SOL     OW 2353   1.965   0.605   2.875  0.3121  0.6386  0.2969
  785SOL    HW1 2354   1.996   0.676   2.936 -1.4977 -2.1484 -0.6283
  785SOL    HW2 2355   1.936   0.512   2.909 -2.1587  2.7488 -0.9810
  786SOL     OW 2356   3.061   1.593   0.512 -0.2209  0.2925 -0.7451
  786SOL    HW1 2357   2.973   1.633   0.544  1.2824 -0.7020  0.1570
  786SOL    HW2 2358   0.002   1.496   0.527 -0.3510 -0.3619 -0.5330
  787SOL     OW 2359   1.684   1.685   0.153  0.2253 -0.4503  0.2039
  787SOL    HW1 2360   1.704   1.785   0.142 -1.2973 -1.1495  2.1769
  787SOL    HW2 2361   1.773   1.638   0.153  2.0289 -1.8650 -0.3859
  788SOL     OW 2362   1.286   1.950   1.320  0.3012 -0.1807  0.2341
  788SOL    HW1 2363   1.364   1.962   1.256  0.9577 -2.6271 -2.1772
  788SOL    HW2 2364   1.201   1.999   1.286 -0.8217 -2.2569 -0.7567
  789SOL     OW 2365   0.047   1.147   2.124  0.2832 -0.5179  0.2817
  789SOL    HW1 2366   0.087   1.194   2.206 -1.0523  3.7246  2.8162
  789SOL    HW2 2367   3.027   1.189   2.095 -0.4225 -1.7589 -1.1748
  790SOL     OW 2368   0.493   0.003   0.061 -0.3455 -0.4434  0.0368
  790SOL    HW1 2369   0.484   2.971   0.083  0.0645  0.6829 -0.4514
  790SOL    HW2 2370   0.553   0.042   0.131  0.8527 -0.9245 -2.1205
  791SOL     OW 2371   0.716   0.080   2.448 -0.7951 -0.2844 -0.1233
  791SOL    HW1 2372   0.693   0.149   2.520  1.1962  2.1664  0.6864
  791SOL    HW2 2373   0.759   3.064   2.490 -0.1341 -1.4524 -0.3459
  792SOL     OW 2374   1.735   0.414   2.281 -0.0511  0.1596  0.3416
  792SOL    HW1 2375   1.731   0.515   2.274 -1.6331 -2.0182 -0.9065
  792SOL    HW2 2376   1.825   0.380   2.242  0.6040  0.3743  0.4287
  793SOL     OW 2377   2.820   0.815   1.322  0.1134 -0.0049  0.8005
  793SOL    HW1 2378   2.752   0.775   1.379  0.0824  2.4310 -2.3419
  793SOL    HW2 2379   2.891   0.749   1.310 -1.2417  0.3619 -0.8402
  794SOL     OW 2380   0.084   0.541   1.524 -0.3771  0.3561  0.6757
  794SOL    HW1 2381   0.012   0.582   1.587  1.0521 -0.7875 -2.3916
  794SOL    HW2 2382   0.173   0.535   1.570 -2.1836 -0.1304  0.9182
  795SOL     OW 2383   2.833   1.476   0.288  0.2927  0.3266  0.4440
  795SOL    HW1 2384   2.777   1.525   0.222 -0.3399 -0.5604  0.8312
  795SOL    HW2 2385   2.787   1.469   0.380  0.0317  0.1983  0.5011
  796SOL     OW 2386   3.049   2.619   0.383 -0.3775 -0.3582  0.2391
  796SOL    HW1 2387   2.965   2.668   0.348  0.0044  1.4417 -0.6102
  796SOL    HW2 2388   0.006   2.535   0.330 -0.4575 -0.2318 -0.3699
  797SOL     OW 2389   1.869   2.483   2.497  0.0585 -0.6950  0.4062
  797SOL    HW1 2390   1.889   2.477   2.594 -0.2634  2.0211  0.2610
  797SOL    HW2 2391   1.775   2.517   2.489  0.6202  0.2756 -3.2577
  798SOL     OW 2392   0.185   1.285   1.018 -0.0482 -0.4299 -0.1954
  798SOL    HW1 2393   0.131   1.197   1.019  0.4360 -0.6239 -1.4151
  798SOL    HW2 2394   0.136   1.354   1.073  0.5061 -0.9679  0.5823
  799SOL     OW 2395   0.170   0.549   2.804 -0.1971 -0.1061 -0.3748
  799SOL    HW1 2396   0.128   0.492   2.736  0.3367  1.2157  0.4945
  799SOL    HW2 2397   0.242   0.502   2.859  0.2876 -2.5063  0.3077
  800SOL     OW 2398   2.833   1.725   0.501 -0.7302  0.2907 -0.1845
  800SOL    HW1 2399   2.831   1.815   0.536  1.3084 -3.4736 -2.5265
  800SOL    HW2 2400   2.745   1.716   0.456  3.3534  0.8040 -0.0407
  801SOL     OW 2401   1.447   1.342   1.294 -0.2494  0.0249 -0.0927
  801SOL    HW1 2402   1.475   1.436   1.269  0.3259  1.6262 -0.3943
  801SOL    HW2 2403   1.374   1.334   1.364  1.0387 -1.0992 -0.9924
  802SOL     OW 2404   1.076   1.938   1.813 -0.3457 -0.2771  0.1358
  802SOL    HW1 2405   1.119   2.002   1.876  3.6967 -2.2074 -1.7350
  802SOL    HW2 2406   1.074   1.968   1.719  3.8141 -0.9973  0.6326
  803SOL     OW 2407   0.433   1.806   0.701 -0.1167 -0.3598  0.2259
  803SOL    HW1 2408   0.413   1.710   0.670 -0.7512  0.4063  0.0021
  803SOL    HW2 2409   0.360   1.865   0.666 -1.5891  0.6551 -2.1323
  804SOL     OW 2410   1.002   2.494   1.268 -0.4276  0.2586 -0.0555
  804SOL    HW1 2411   0.997   2.441   1.176  0.0335 -4.7938 -0.2131
  804SOL    HW2 2412   1.060   2.439   1.335  5.0940  0.2989  0.3459
  805SOL     OW 2413   1.675   1.280   0.121  0.5639  0.5895  0.8733
  805SOL    HW1 2414   1.590   1.250   0.072 -0.0593 -1.4003  1.1401
  805SOL    HW2 2415   1.700   1.374   0.095 -2.7933  0.3795  1.6226
  806SOL     OW 2416   1.686   2.979   1.041 -0.3057  0.1189  0.2564
  806SOL    HW1 2417   1.658   3.025   0.953  3.7353 -3.7939  1.2577
  806SOL    HW2 2418   1.610   2.978   1.107  1.3384  2.4840  0.0731
  807SOL     OW 2419   2.400   0.217   2.722  0.4111  0.1491  0.3735
  807SOL    HW1 2420   2.334   0.259   2.787  0.5303  0.9714 -0.1305
  807SOL    HW2 2421   2.485   0.198   2.773 -2.3955  0.0607  1.3127
  808SOL     OW 2422   0.210   0.861   0.403 -0.8920 -0.0328 -0.3122
  808SOL    HW1 2423   0.296   0.831   0.356  1.3935 -0.7022 -0.0217
  808SOL    HW2 2424   0.203   0.963   0.385  0.2485  2.4812 -0.8355
  809SOL     OW 2425   2.697   1.202   2.367 -0.2141 -0.4423 -0.4997
  809SOL    HW1 2426   2.624   1.144   2.410 -0.8183 -1.4383  2.0554
  809SOL    HW2 2427   2.719   1.158   2.278  0.8142 -0.1557  0.0246
  810SOL     OW 2428   1.786   0.402   1.731  0.3014 -0.0595 -0.1514
  810SOL    HW1 2429   1.819   0.310   1.702 -2.4664 -1.4969 -1.6477
  810SOL    HW2 2430   1.684   0.399   1.759 -1.3870  0.1985 -2.0931
  811SOL     OW 2431   2.302   2.605   1.922  0.0207  0.0781  0.3771
  811SOL    HW1 2432   2.378   2.639   1.863  0.4454 -1.8004 -0.2277
  811SOL    HW2 2433   2.321   2.512   1.959 -0.6294 -0.6149  2.4388
  812SOL     OW 2434   1.851   0.168   2.821  0.3213 -0.1033  0.0750
  812SOL    HW1 2435   1.948   0.162   2.798 -1.5868  2.2714 -0.2267
  812SOL    HW2 2436   1.824   0.101   2.895  1.8130  0.6617  1.1938
  813SOL     OW 2437   2.033   0.500   1.904 -0.2026 -0.2064  0.1325
  813SOL    HW1 2438   1.973   0.491   1.822 -1.3559  1.1494  1.3195
  813SOL    HW2 2439   2.120   0.551   1.877  1.0545 -0.0111 -1.2489
  814SOL     OW 2440   1.874   1.121   1.925  0.1022 -0.2046  0.4476
  814SOL    HW1 2441   1.807   1.111   2.003 -3.2038 -1.3026  1.5773
  814SOL    HW2 2442   1.882   1.031   1.888 -0.9944  0.5046  0.2026
  815SOL     OW 2443   0.587   0.945   0.299  0.3101  0.2408  0.3745
  815SOL    HW1 2444   0.574   1.001   0.385 -0.7664  1.3000  0.0776
  815SOL    HW2 2445   0.614   0.847   0.314  3.7446 -1.8051  1.6614
  816SOL     OW 2446   2.154   1.490   2.764 -0.1506  0.3149 -0.4233
  816SOL    HW1 2447   2.101   1.405   2.795  0.8702  0.0267 -0.3892
  816SOL    HW2 2448   2.091   1.560   2.724  1.2442 -0.5498  0.4405
  817SOL     OW 2449   0.266   2.801   0.451 -0.0423  0.4192  0.9340
  817SOL    HW1 2450   0.267   2.861   0.367 -1.0987  2.7102 -2.1343
  817SOL    HW2 2451   0.218   2.850   0.525 -1.1503 -0.5088 -0.5241
  818SOL     OW 2452   1.799   0.339   2.521 -0.3143 -0.0084 -0.0085
  818SOL    HW1 2453   1.781   0.373   2.424  0.1464  0.2974 -1.2612
  818SOL    HW2 2454   1.767   0.244   2.536  2.6769 -0.4528  0.1382
  819SOL     OW 2455   1.505   0.779   0.376  0.0224  0.1604  0.3638
  819SOL    HW1 2456   1.428   0.807   0.314 -0.9904 -1.0637  2.1708
  819SOL    HW2 2457   1.577   0.734   0.321  0.7040 -1.0089  1.4548
  820SOL     OW 2458   2.294   0.530   0.782 -0.1424 -0.0020  0.0709
  820SOL    HW1 2459   2.389   0.567   0.773  0.1327  0.4044 -1.0010
  820SOL    HW2 2460   2.237   0.598   0.830 -1.4614 -0.4451  0.8218
  821SOL     OW 2461   2.264   2.848   0.294  0.2568  0.4783  0.1616
  821SOL    HW1 2462   2.256   2.922   0.365  2.0723 -0.1093 -0.4353
  821SOL    HW2 2463   2.281   2.892   0.202  1.8537 -0.0223  2.7603
  822SOL     OW 2464   2.922   3.027   1.963  0.0502 -0.1098  0.3243
  822SOL    HW1 2465   3.013   3.003   2.002 -0.7019  2.0406  0.1858
  822SOL    HW2 2466   2.928   3.006   1.863  0.1360  0.2824  0.0104
  823SOL     OW 2467   2.731   2.120   1.720  0.7007 -0.1693  0.1117
  823SOL    HW1 2468   2.636   2.152   1.726  0.3029 -1.3616  1.9008
  823SOL    HW2 2469   2.731   2.037   1.776 -1.1588 -0.1924 -2.1631
  824SOL     OW 2470   0.720   2.744   2.095 -0.1801  0.1063 -0.0668
  824SOL    HW1 2471   0.760   2.656   2.122 -1.4474  2.4791 -1.9195
  824SOL    HW2 2472   0.684   2.805   2.170  2.1139  1.0468  0.6469
  825SOL     OW 2473   1.652   1.627   0.736  0.1429 -0.0434 -0.2877
  825SOL    HW1 2474   1.746   1.593   0.758 -0.2647 -1.9806 -1.0710
  825SOL    HW2 2475   1.583   1.571   0.783  3.2315  0.7415 -1.4591
  826SOL     OW 2476   1.876   0.759   0.126 -0.8640  0.0745 -0.2637
  826SOL    HW1 2477   1.973   0.761   0.155 -2.6549  0.0041  0.4238
  826SOL    HW2 2478   1.855   0.849   0.084 -0.5915  0.5354 -0.3007
  827SOL     OW 2479   0.225   1.299   1.321 -0.0302 -0.3382  0.4975
  827SOL    HW1 2480   0.160   1.365   1.270 -0.1350  0.0970 -0.6176
  827SOL    HW2 2481   0.316   1.299   1.276  0.3934  3.2473 -0.4593
  828SOL     OW 2482   2.101   1.368   1.519 -0.0278 -0.2875 -0.6342
  828SOL    HW1 2483   2.032   1.301   1.486  1.4436 -0.8466  0.3966
  828SOL    HW2 2484   2.171   1.320   1.578 -3.2705  0.6591  0.2883
  829SOL     OW 2485   0.377   2.006   0.169  0.1516 -0.2626 -0.3878
  829SOL    HW1 2486   0.326   1.920   0.169 -0.9291  0.1948 -1.0488
  829SOL    HW2 2487   0.429   2.007   0.257 -0.3434 -1.5258 -0.1911
  830SOL     OW 2488   1.099   0.689   0.852 -1.0716 -0.3380 -0.1940
  830SOL    HW1 2489   1.157   0.629   0.793 -0.1595 -0.0034 -0.2291
  830SOL    HW2 2490   1.072   0.639   0.937 -1.7775  1.9584  1.4661
  831SOL     OW 2491   2.761   1.665   0.101 -0.0415 -0.2373  0.1800
  831SOL    HW1 2492   2.766   1.666   3.066  0.0919 -0.0219 -2.8834
  831SOL    HW2 2493   2.667   1.686   0.132 -1.7518 -0.4952 -0.8022
  832SOL     OW 2494   1.063   2.945   0.285  0.0715  0.3161 -0.0826
  832SOL    HW1 2495   1.028   3.001   0.209 -0.8319 -4.2089 -0.6391
  832SOL    HW2 2496   1.043   2.975   0.378  0.4264 -2.4104 -1.6010
  833SOL     OW 2497   0.917   0.452   1.951 -0.4712  0.4900 -0.7865
  833SOL    HW1 2498   0.894   0.425   2.045 -1.3559 -1.8774 -0.1181
  833SOL    HW2 2499   0.893   0.553   1.935 -0.6087 -1.5388  0.0491
  834SOL     OW 2500   0.175   0.803   1.004 -0.5653  0.3745 -0.0348
  834SOL    HW1 2501   0.214   0.747   0.925 -0.4478 -0.5577  0.8485
  834SOL    HW2 2502   0.248   0.822   1.073  0.1496 -0.3282  2.0079
  835SOL     OW 2503   2.538   0.310   1.822  0.8693 -0.0194  0.7437
  835SOL    HW1 2504   2.468   0.371   1.865  0.7457  1.1796  0.6815
  835SOL    HW2 2505   2.522   0.318   1.721  0.7110  1.8332  1.3808
  836SOL     OW 2506   0.349   1.999   0.530  0.3850 -0.4836  0.0777
  836SOL    HW1 2507   0.364   2.097   0.553  0.3005 -0.9237 -1.1603
  836SOL    HW2 2508   0.441   1.978   0.486 -1.0155 -0.0804 -0.2929
  837SOL     OW 2509   1.993   1.716   2.334  0.0410 -0.1520 -0.3291
  837SOL    HW1 2510   2.055   1.640   2.324 -2.2415  0.0262  1.2887
  837SOL    HW2 2511   2.029   1.800   2.295 -1.4462  1.2289  5.0342
  838SOL     OW 2512   0.211   1.036   1.412  0.1026  0.1133  0.0690
  838SOL    HW1 2513   0.273   0.992   1.343 -1.8741 -1.1511  0.5506
  838SOL    HW2 2514   0.223   1.135   1.420  0.7689 -3.3240  0.9741
  839SOL     OW 2515   0.252   0.130   0.742 -0.0605  0.3130  0.6352
  839SOL    HW1 2516   0.284   0.196   0.812  0.4399 -2.6543 -2.2478
  839SOL    HW2 2517   0.272   0.032   0.769 -0.9547 -2.2392  1.2988
  840SOL     OW 2518   2.866   0.250   2.557 -0.1533  0.4820 -0.2020
  840SOL    HW1 2519   2.939   0.192   2.598 -3.1211  0.6221 -0.8601
  840SOL    HW2 2520   2.827   0.310   2.629 -0.9389 -0.3083  2.3023
  841SOL     OW 2521   0.463   2.801   0.100 -0.5739  0.6063 -0.4066
  841SOL    HW1 2522   0.369   2.759   0.116 -0.3972 -2.2671  0.5813
  841SOL    HW2 2523   0.532   2.759   0.166  2.1431 -1.5789 -0.5554
  842SOL     OW 2524   0.999   0.076   0.878  0.3752  0.1135 -0.5072
  842SOL    HW1 2525   0.927   0.051   0.948 -0.6843  0.9597 -0.2411
  842SOL    HW2 2526   1.006   0.001   0.814 -2.4299  2.8543  2.6242
  843SOL     OW 2527   0.140   1.284   2.773 -0.2782  0.4763  0.4208
  843SOL    HW1 2528   0.135   1.230   2.860 -0.4984 -0.3489  0.8924
  843SOL    HW2 2529   0.109   1.224   2.696 -1.4724  2.6237  1.4117
  844SOL     OW 2530   0.904   2.560   2.465 -0.0666 -0.7004 -0.4989
  844SOL    HW1 2531   0.888   2.593   2.562 -0.7391  1.4676  0.3137
  844SOL    HW2 2532   0.810   2.546   2.420 -2.0737 -1.6271  2.4442
  845SOL     OW 2533   2.028   2.803   2.465 -0.6694  0.0876  0.3656
  845SOL    HW1 2534   1.980   2.889   2.437  1.8872  3.1994 -0.7338
  845SOL    HW2 2535   2.012   2.725   2.398 -0.5786 -0.3513 -2.8730
  846SOL     OW 2536   1.573   1.670   2.461 -0.1794 -0.2644 -0.0003
  846SOL    HW1 2537   1.600   1.645   2.559  0.1133 -0.2787 -1.9101
  846SOL    HW2 2538   1.614   1.600   2.399  0.1643 -0.6829  1.4106
  847SOL     OW 2539   2.761   3.026   3.039  0.3813  0.3694  0.0271
  847SOL    HW1 2540   2.789   3.001   2.944  4.5987  1.9254 -2.2039
  847SOL    HW2 2541   2.836   3.008   0.037 -0.3354  0.0226  0.9635
  848SOL     OW 2542   0.071   0.768   0.179 -0.5280  0.4633 -0.7004
  848SOL    HW1 2543   0.117   0.783   0.274  1.7547  0.9242 -0.4991
  848SOL    HW2 2544   0.153   0.763   0.121 -0.6242  0.1004  5.4434
  849SOL     OW 2545   1.107   0.154   2.237 -0.0440 -0.1342  0.9386
  849SOL    HW1 2546   1.024   0.098   2.211 -2.0506 -2.3054 -1.2671
  849SOL    HW2 2547   1.150   0.101   2.313 -0.4556  1.1226 -1.0717
  850SOL     OW 2548   0.412   0.834   0.659 -0.1282 -0.3836 -0.6493
  850SOL    HW1 2549   0.491   0.893   0.632 -1.3916  1.3716 -2.0168
  850SOL    HW2 2550   0.330   0.890   0.669 -0.2206 -1.7889  0.8991
  851SOL     OW 2551   0.423   1.327   0.294  0.0254 -0.2730 -0.5065
  851SOL    HW1 2552   0.504   1.375   0.336 -2.4604  1.5566  0.3733
  851SOL    HW2 2553   0.458   1.257   0.222  0.3432 -1.4843 -1.2567
  852SOL     OW 2554   1.269   1.018   1.853 -0.4179  0.4876  0.7117
  852SOL    HW1 2555   1.376   1.014   1.849 -0.7043 -1.9005  0.8501
  852SOL    HW2 2556   1.229   1.015   1.946  0.9642  2.2407 -1.4635
  853SOL     OW 2557   2.590   1.642   0.436  0.0654  0.2170  0.9170
  853SOL    HW1 2558   2.582   1.543   0.457 -0.2456  0.0824 -0.8543
  853SOL    HW2 2559   2.532   1.672   0.359 -1.1250  1.0612  1.4505
  854SOL     OW 2560   0.968   0.831   2.127 -0.4475 -0.1916 -0.4785
  854SOL    HW1 2561   0.921   0.868   2.211 -0.9675  0.1366  0.8198
  854SOL    HW2 2562   1.040   0.759   2.141 -2.5700  0.4300  0.7271
  855SOL     OW 2563   0.240   2.695   2.711 -0.2033  0.3278 -0.2908
  855SOL    HW1 2564   0.311   2.764   2.683 -1.4868  0.0818  0.9088
  855SOL    HW2 2565   0.161   2.743   2.753  1.4630 -0.6629 -2.7879
  856SOL     OW 2566   1.185   0.683   2.128  0.1965  0.0004 -0.4455
  856SOL    HW1 2567   1.268   0.667   2.067  1.9604 -1.3660  1.6132
  856SOL    HW2 2568   1.133   0.594   2.135 -1.5534  1.7638 -0.5615
  857SOL     OW 2569   1.294   0.600   2.389 -0.5294 -0.4945 -0.0240
  857SOL    HW1 2570   1.339   0.510   2.364 -2.0304  0.3388 -0.6383
  857SOL    HW2 2571   1.270   0.638   2.302  1.7574 -0.7017  2.4757
  858SOL     OW 2572   0.145   0.900   1.871 -0.9648  0.3552  0.0880
  858SOL    HW1 2573   0.206   0.931   1.948 -0.8622 -1.7421 -0.0742
  858SOL    HW2 2574   0.198   0.890   1.785 -1.3504  0.8548  0.3950
  859SOL     OW 2575   2.566   0.022   0.757  0.3806 -0.7226  0.6894
  859SOL    HW1 2576   2.611   0.109   0.730  0.7685 -2.9346  0.6611
  859SOL    HW2 2577   2.576   3.016   0.687  0.9934 -0.7439 -1.8694
  860SOL     OW 2578   2.000   0.254   0.658 -0.0768  0.0089  0.0717
  860SOL    HW1 2579   1.908   0.211   0.683 -3.1403  1.7317  0.6472
  860SOL    HW2 2580   2.054   0.201   0.590  2.3931 -0.0454  2.4795
  861SOL     OW 2581   1.393   0.508   1.199  0.3440  0.3514 -1.0709
  861SOL    HW1 2582   1.318   0.541   1.265  0.6084  3.7021 -0.1952
  861SOL    HW2 2583   1.406   0.576   1.126 -2.7687 -1.6542 -2.0915
  862SOL     OW 2584   1.271   0.065   2.442 -0.2984  0.9221 -0.2799
  862SOL    HW1 2585   1.321   3.045   2.459  1.2261 -2.0445 -1.4963
  862SOL    HW2 2586   1.316   0.149   2.486  1.4798  4.8549  2.0062
  863SOL     OW 2587   0.001   2.644   0.945  0.2877  0.4332 -0.1233
  863SOL    HW1 2588   2.975   2.688   0.965 -1.2077  1.3934  3.5200
  863SOL    HW2 2589   0.024   2.641   0.844 -0.7427 -3.5631  3.2570
  864SOL     OW 2590   2.378   0.236   2.098  0.1549 -0.7261  0.3104
  864SOL    HW1 2591   2.308   0.249   2.174 -1.4204  1.6024  2.9363
  864SOL    HW2 2592   2.375   0.311   2.028  1.0177 -1.2418  1.7914
  865SOL     OW 2593   0.763   1.291   1.898  0.6208 -0.0166 -0.1165
  865SOL    HW1 2594   0.712   1.221   1.953 -2.3419 -2.8200 -1.5906
  865SOL    HW2 2595   0.721   1.383   1.914  1.1551  1.1859  1.5424
  866SOL     OW 2596   2.024   2.824   1.054 -0.2823  0.2087  0.5792
  866SOL    HW1 2597   1.961   2.795   0.980 -0.5265  1.5047 -2.6386
  866SOL    HW2 2598   2.113   2.775   1.048  1.6503 -0.1459 -1.1229
  867SOL     OW 2599   2.066   2.988   0.732  0.3351 -0.6173  0.1869
  867SOL    HW1 2600   2.164   2.988   0.755 -0.4476  1.4771  0.6821
  867SOL    HW2 2601   2.009   3.062   0.771 -0.6924  2.3566 -1.8822
  868SOL     OW 2602   2.984   2.023   1.634  0.2601 -0.2782  0.5548
  868SOL    HW1 2603   3.030   2.078   1.558  1.4532  2.6652  2.1422
  868SOL    HW2 2604   2.888   2.046   1.630  0.7006 -1.0372 -0.5957
  869SOL     OW 2605   2.075   2.188   2.248 -0.2211 -0.4489 -0.2548
  869SOL    HW1 2606   1.987   2.209   2.205 -0.3528  0.1703 -0.5959
  869SOL    HW2 2607   2.138   2.268   2.236  0.9216 -0.5611 -0.0601
  870SOL     OW 2608   1.391   1.225   0.826  0.3821  0.4529  1.0472
  870SOL    HW1 2609   1.486   1.250   0.803  1.6347  1.9659 -0.4145
  870SOL    HW2 2610   1.350   1.301   0.885 -0.3306 -1.4711 -2.1448
  871SOL     OW 2611   2.990   1.958   2.119 -0.1087 -0.1274  0.6396
  871SOL    HW1 2612   2.912   1.950   2.179 -1.8253 -1.8077 -1.1766
  871SOL    HW2 2613   3.062   1.918   2.180 -0.4081  0.0502 -0.0492
  872SOL     OW 2614   1.208   1.308   2.375  0.0197  0.1799 -0.1920
  872SOL    HW1 2615   1.126   1.359   2.410 -0.1836  1.5869 -0.6669
  872SOL    HW2 2616   1.200   1.210   2.402 -2.5708 -1.3280 -0.3135
  873SOL     OW 2617   0.650   1.014   1.591  0.3110 -0.4185 -0.1602
  873SOL    HW1 2618   0.716   1.093   1.581  0.0495  0.8018  0.1203
  873SOL    HW2 2619   0.582   1.028   1.665  2.2826  1.1009 -0.8287
  874SOL     OW 2620   1.869   0.943   1.343 -0.1388  0.3559 -0.5630
  874SOL    HW1 2621   1.861   0.958   1.243  1.6483 -1.5645 -0.4548
  874SOL    HW2 2622   1.932   0.865   1.364 -2.0711  0.2096  2.8371
  875SOL     OW 2623   2.961   2.977   0.146  0.6177 -0.2715  0.6124
  875SOL    HW1 2624   2.980   2.964   0.246 -2.0210 -2.0278 -0.2061
  875SOL    HW2 2625   3.034   2.940   0.088  1.7874 -0.8472 -1.4605
  876SOL     OW 2626   0.802   1.265   0.222 -0.7050  0.2851 -0.0451
  876SOL    HW1 2627   0.871   1.247   0.293  2.0889 -2.5449  1.1427
  876SOL    HW2 2628   0.851   1.301   0.141 -0.0804  1.9434  1.5977
  877SOL     OW 2629   2.577   2.678   0.750 -0.1942  0.1650  0.0549
  877SOL    HW1 2630   2.655   2.704   0.812  2.5732 -0.5390  1.2347
  877SOL    HW2 2631   2.566   2.576   0.746  0.7974  0.2429 -0.9824
  878SOL     OW 2632   1.956   1.797   0.394  0.0754  0.2025 -0.1381
  878SOL    HW1 2633   1.995   1.884   0.420  0.7389 -2.3773 -1.7599
  878SOL    HW2 2634   2.014   1.756   0.323 -0.1768 -0.7534 -0.7335
  879SOL     OW 2635   2.990   1.668   1.884  0.2861  0.3031 -0.0110
  879SOL    HW1 2636   3.041   1.678   1.798  2.6065  0.5949  0.1299
  879SOL    HW2 2637   3.055   1.681   1.962 -0.0031 -2.4614 -0.5482
  880SOL     OW 2638   0.540   1.959   0.921 -0.6387 -0.5130 -0.2141
  880SOL    HW1 2639   0.579   1.875   0.964 -0.1369  0.7955  2.4189
  880SOL    HW2 2640   0.486   1.936   0.834 -0.8587  1.0090 -1.3791
  881SOL     OW 2641   0.806   0.203   1.688  0.2312 -0.0331 -0.0854
  881SOL    HW1 2642   0.808   0.159   1.778  1.0911 -0.0490  0.0302
  881SOL    HW2 2643   0.747   0.282   1.686  1.5620  1.0908 -0.5839
  882SOL     OW 2644   2.540   0.926   1.021 -0.0375 -0.1938  0.1492
  882SOL    HW1 2645   2.595   0.941   0.936  1.6399 -2.6833 -0.4750
  882SOL    HW2 2646   2.566   0.999   1.085  0.8126 -0.4467 -1.2663
  883SOL     OW 2647   1.441   0.298   1.501  0.3922  0.1056 -0.0394
  883SOL    HW1 2648   1.377   0.239   1.450 -0.4986  2.3243  0.4281
  883SOL    HW2 2649   1.500   0.349   1.435 -0.2462  1.3670 -1.7725
  884SOL     OW 2650   2.779   0.346   1.942  0.2650 -0.0429 -0.2067
  884SOL    HW1 2651   2.696   0.325   1.887 -3.0983 -2.7057  1.5033
  884SOL    HW2 2652   2.863   0.300   1.910  3.6630  1.5332  1.9407
  885SOL     OW 2653   1.207   1.390   2.926  0.1573 -0.1428 -0.4458
  885SOL    HW1 2654   1.186   1.463   2.858 -0.5818  2.3444  0.9523
  885SOL    HW2 2655   1.207   1.294   2.887 -0.1792 -2.6479  0.1175
  886SOL     OW 2656   2.250   0.333   2.939 -0.0561  0.6722 -0.8824
  886SOL    HW1 2657   2.194   0.278   3.006 -0.0244  0.4578  3.3203
  886SOL    HW2 2658   2.349   0.339   2.972  2.5704 -0.6599 -1.6182
  887SOL     OW 2659   1.270   2.665   1.536 -0.2603  0.5489 -0.4375
  887SOL    HW1 2660   1.364   2.699   1.529 -1.1566  2.1206 -0.3219
  887SOL    HW2 2661   1.223   2.687   1.622  2.5977  0.6577 -0.6878
  888SOL     OW 2662   1.777   1.608   2.209  0.5466  0.1101 -0.4211
  888SOL    HW1 2663   1.749   1.675   2.133  0.7655  2.8855 -1.4076
  888SOL    HW2 2664   1.847   1.656   2.263  1.3800  0.1754  0.2630
  889SOL     OW 2665   2.091   2.339   0.793  0.7521 -0.4311  0.1873
  889SOL    HW1 2666   2.022   2.269   0.813 -1.5594 -2.4560 -1.4489
  889SOL    HW2 2667   2.048   2.426   0.763  0.8587 -2.5290  1.7015
  890SOL     OW 2668   1.479   1.990   0.594 -0.2996 -0.9541  0.3634
  890SOL    HW1 2669   1.406   2.058   0.575  1.5850  0.0969 -0.7869
  890SOL    HW2 2670   1.505   1.933   0.508  0.6050 -3.3344  1.2232
  891SOL     OW 2671   2.675   1.301   0.049 -0.0206  0.0460 -0.4395
  891SOL    HW1 2672   2.739   1.340   3.050 -2.0308  1.5782  2.2244
  891SOL    HW2 2673   2.587   1.358   0.053  1.0332 -0.0839  0.6942
  892SOL     OW 2674   2.261   1.221   0.141 -0.1858  0.2443  0.2092
  892SOL    HW1 2675   2.172   1.265   0.166  0.8839  0.7752  1.6717
  892SOL    HW2 2676   2.318   1.279   0.087 -0.8002 -0.0891  1.1547
  893SOL     OW 2677   1.822   2.374   1.312  0.0408 -0.1272 -0.2884
  893SOL    HW1 2678   1.849   2.473   1.293  0.5217  1.7698  1.0590
  893SOL    HW2 2679   1.889   2.336   1.380  1.7664  0.1746 -1.2189
  894SOL     OW 2680   2.526   2.892   0.572 -0.0676 -0.3194  0.0784
  894SOL    HW1 2681   2.620   2.919   0.564 -1.0544  0.2120 -1.7936
  894SOL    HW2 2682   2.524   2.794   0.600 -0.1325  1.6949  0.8550
  895SOL     OW 2683   2.476   2.632   2.720  0.2785 -0.1810  0.3634
  895SOL    HW1 2684   2.566   2.648   2.679  0.0518  0.7114 -0.6136
  895SOL    HW2 2685   2.404   2.601   2.651 -6.4932  1.1778 -2.4647
  896SOL     OW 2686   2.129   0.043   2.453 -0.0114 -0.4143 -0.2896
  896SOL    HW1 2687   2.128   0.054   2.553 -0.7699  0.8136  0.2897
  896SOL    HW2 2688   2.042   3.068   2.428 -0.3164  2.3604 -0.1430
  897SOL     OW 2689   0.339   1.715   1.948 -0.5383 -0.3363  0.0651
  897SOL    HW1 2690   0.354   1.695   1.849  0.8814  0.0265 -1.4886
  897SOL    HW2 2691   0.433   1.730   1.990  0.8602  1.4884 -1.6141
  898SOL     OW 2692   2.585   1.530   1.735 -0.0089 -0.4738  0.2960
  898SOL    HW1 2693   2.567   1.591   1.814 -1.2854 -0.2281 -1.5419
  898SOL    HW2 2694   2.510   1.539   1.662  0.1561 -2.8746 -3.4875
  899SOL     OW 2695   1.557   2.771   1.570  0.3201 -0.4029  0.2667
  899SOL    HW1 2696   1.639   2.727   1.622  3.8165 -1.8711  1.9418
  899SOL    HW2 2697   1.561   2.874   1.581  0.5691 -0.0119  1.8672
  900SOL     OW 2698   1.122   0.760   2.942 -0.9035 -0.1319 -0.4178
  900SOL    HW1 2699   1.121   0.827   2.869 -0.8720  1.7174  2.7420
  900SOL    HW2 2700   1.032   0.741   2.984  2.3182 -3.8693  1.2331
  901SOL     OW 2701   0.805   1.271   2.345  0.3409  0.5654  0.7674
  901SOL    HW1 2702   0.842   1.268   2.251  0.1208 -0.7562  0.4058
  901SOL    HW2 2703   0.865   1.338   2.397 -0.6928  0.2404  3.6132
  902SOL     OW 2704   2.934   2.167   0.350 -0.0105  0.2266 -0.5739
  902SOL    HW1 2705   2.952   2.104   0.273  0.2922 -0.3303  0.1452
  902SOL    HW2 2706   2.839   2.209   0.343 -1.7155  0.8524 -1.1343
  903SOL     OW 2707   2.344   1.112   1.863  0.3977 -0.4367  0.4842
  903SOL    HW1 2708   2.403   1.034   1.868 -0.0867  2.1248 -0.5043
  903SOL    HW2 2709   2.351   1.174   1.940 -1.2383 -0.3175 -2.9972
  904SOL     OW 2710   1.747   0.970   3.038  0.0856  0.3110  0.3806
  904SOL    HW1 2711   1.754   1.013   2.949  0.5795 -0.3024  1.1273
  904SOL    HW2 2712   1.781   1.028   0.049 -0.4717  1.8565  2.0089
  905SOL     OW 2713   2.246   2.662   1.064 -0.2740 -0.7293 -0.0073
  905SOL    HW1 2714   2.296   2.672   1.151 -1.2055 -0.4819  0.1879
  905SOL    HW2 2715   2.240   2.564   1.046 -0.7000 -0.5376 -0.3036
  906SOL     OW 2716   1.475   2.003   0.005 -0.0397  0.7552 -0.3451
  906SOL    HW1 2717   1.456   2.101   0.024  1.4278 -0.1936  1.1586
  906SOL    HW2 2718   1.404   1.942   0.054 -1.2814 -0.1907  0.4134
  907SOL     OW 2719   0.814   2.583   0.601  0.1476  0.0851 -0.0288
  907SOL    HW1 2720   0.747   2.560   0.532 -1.3667  2.3188  2.0900
  907SOL    HW2 2721   0.810   2.508   0.670  0.9867  0.8188  0.2741
  908SOL     OW 2722   1.042   2.846   2.110  0.0090 -0.1790 -0.8520
  908SOL    HW1 2723   1.021   2.749   2.093 -1.2491  3.7915  0.3075
  908SOL    HW2 2724   1.113   2.876   2.045 -1.5107 -0.2489  1.0793
  909SOL     OW 2725   1.947   0.410   1.367 -0.4680  0.5512  0.1072
  909SOL    HW1 2726   1.943   0.447   1.272 -0.0135  1.6669 -0.4822
  909SOL    HW2 2727   1.858   0.368   1.387  1.9552  1.2441 -1.2241
  910SOL     OW 2728   1.158   0.478   2.637  0.0686  0.3978  0.1587
  910SOL    HW1 2729   1.217   0.410   2.592  1.1933 -0.9643 -1.1869
  910SOL    HW2 2730   1.208   0.564   2.654 -1.0108  0.4767 -2.0933
  911SOL     OW 2731   2.843   0.687   0.161 -0.2846  0.1105 -0.3131
  911SOL    HW1 2732   2.812   0.767   0.215  1.6713  0.5850 -1.4818
  911SOL    HW2 2733   2.901   0.625   0.215 -2.9953  1.8621 -0.8309
  912SOL     OW 2734   0.018   2.181   2.978  0.3405  0.1306  0.9560
  912SOL    HW1 2735   0.047   2.086   2.951  0.0758 -1.7720 -2.0682
  912SOL    HW2 2736   0.065   2.211   3.066  0.8362  1.4366  0.7561
  913SOL     OW 2737   2.762   2.015   2.669  0.3013 -0.7813  0.2429
  913SOL    HW1 2738   2.781   2.112   2.651  0.6337  0.2173  1.0363
  913SOL    HW2 2739   2.782   1.993   2.767 -1.0797  0.7882 -0.7301
  914SOL     OW 2740   1.260   1.692   1.666  0.4781 -0.1497 -0.2120
  914SOL    HW1 2741   1.306   1.686   1.574  1.5608  0.7207 -0.0616
  914SOL    HW2 2742   1.195   1.769   1.685 -0.7252  1.7935  0.2038
  915SOL     OW 2743   0.195   2.694   2.058  0.2063 -0.7126 -0.1100
  915SOL    HW1 2744   0.164   2.709   2.157 -1.6771  1.3823  4.2086
  915SOL    HW2 2745   0.278   2.642   2.060 -5.2171 -0.8220 -0.3220
  916SOL     OW 2746   0.444   1.337   1.669  0.2597 -0.3717 -0.3360
  916SOL    HW1 2747   0.440   1.239   1.695  3.4333  0.8231  1.5514
  916SOL    HW2 2748   0.350   1.370   1.635  0.1547 -0.3235 -0.0780
  917SOL     OW 2749   2.408   0.375   0.199 -0.2447 -0.5392  0.1509
  917SOL    HW1 2750   2.384   0.278   0.220 -2.4784 -1.9941  0.1610
  917SOL    HW2 2751   2.493   0.382   0.142 -2.0387  0.7595  0.2527
  918SOL     OW 2752   1.432   2.491   2.296  0.6268 -0.4908 -0.7269
  918SOL    HW1 2753   1.477   2.404   2.326  1.1014 -2.1427 -1.6121
  918SOL    HW2 2754   1.329   2.481   2.286 -3.8205 -1.6280 -0.5690
  919SOL     OW 2755   1.611   2.461   1.743  0.6735 -0.0797  0.0058
  919SOL    HW1 2756   1.611   2.451   1.642  1.6548  1.6602 -0.5202
  919SOL    HW2 2757   1.705   2.454   1.776  0.9789 -1.6396  0.0947
  920SOL     OW 2758   0.857   1.058   2.950 -0.4048  0.2392 -0.5361
  920SOL    HW1 2759   0.784   1.122   2.918 -0.3573  2.0383  1.7014
  920SOL    HW2 2760   0.833   1.018   3.038  2.5332  5.0247  0.2079
  921SOL     OW 2761   0.244   0.758   2.571  0.1274  0.1604 -0.5608
  921SOL    HW1 2762   0.159   0.709   2.541  0.2927  1.5754  0.6390
  921SOL    HW2 2763   0.326   0.703   2.541  0.2982 -0.3687 -0.7969
  922SOL     OW 2764   0.794   1.897   0.329  0.4545 -0.2162 -0.0639
  922SOL    HW1 2765   0.884   1.944   0.324 -0.1155 -0.7207 -2.1582
  922SOL    HW2 2766   0.775   1.883   0.428  0.1858 -0.0911  1.8536
  923SOL     OW 2767   0.450   1.080   1.763  0.1215  0.2335  0.6216
  923SOL    HW1 2768   0.396   0.997   1.736 -2.3332 -0.2096  1.1092
  923SOL    HW2 2769   0.485   1.065   1.855  1.2751 -1.2560  1.8130
  924SOL     OW 2770   1.437   2.760   2.738 -0.6651  0.1553  0.0787
  924SOL    HW1 2771   1.503   2.710   2.796  1.1894 -1.1458  0.2688
  924SOL    HW2 2772   1.475   2.853   2.727 -1.3850 -0.5944 -2.5229
  925SOL     OW 2773   2.725   1.498   1.421 -0.2490 -0.1355  0.3077
  925SOL    HW1 2774   2.645   1.441   1.446  0.3109 -0.2932 -0.2995
  925SOL    HW2 2775   2.699   1.592   1.398  2.6437 -0.0153  0.7170
  926SOL     OW 2776   2.256   0.644   1.807 -0.3774  0.0534  0.2782
  926SOL    HW1 2777   2.323   0.720   1.834  0.7114  3.1665 -1.0172
  926SOL    HW2 2778   2.228   0.642   1.711  0.6737  0.5367  1.9076
  927SOL     OW 2779   2.442   2.427   1.650 -0.3299 -0.2091  0.0954
  927SOL    HW1 2780   2.463   2.524   1.667 -0.1729  0.3116 -1.5360
  927SOL    HW2 2781   2.460   2.398   1.552  0.9254 -1.2040 -0.9829
  928SOL     OW 2782   0.222   0.781   2.257 -0.3115  0.4303  0.1310
  928SOL    HW1 2783   0.128   0.808   2.233  1.6367 -1.9355 -0.6227
  928SOL    HW2 2784   0.269   0.869   2.283  1.0805  2.3877 -2.5687
  929SOL     OW 2785   2.377   0.104   0.926 -0.1048 -0.1864 -0.6330
  929SOL    HW1 2786   2.434   0.068   0.848  0.0522 -1.1849  1.4978
  929SOL    HW2 2787   2.311   0.183   0.899 -3.3430  1.3156  3.3575
  930SOL     OW 2788   2.698   0.009   1.565 -0.1056 -0.3441  0.3201
  930SOL    HW1 2789   2.704   2.977   1.552 -0.0796  1.9584  3.2811
  930SOL    HW2 2790   2.774   0.062   1.522 -0.3751 -2.5067 -1.1270
  931SOL     OW 2791   2.253   0.770   0.434  0.0410 -0.2881 -0.3187
  931SOL    HW1 2792   2.302   0.795   0.519  0.5290 -0.7471  0.0213
  931SOL    HW2 2793   2.330   0.735   0.375 -3.1924 -0.4607  0.6179
  932SOL     OW 2794   2.322   1.288   1.656  0.0419  0.1750 -0.0191
  932SOL    HW1 2795   2.320   1.233   1.743  2.4605 -2.1547 -0.6196
  932SOL    HW2 2796   2.340   1.225   1.579 -0.5824  2.2579  2.1660
  933SOL     OW 2797   2.879   2.326   1.411 -0.4110 -0.3119 -0.7572
  933SOL    HW1 2798   2.935   2.407   1.438 -0.1433 -0.0131  1.4291
  933SOL    HW2 2799   2.943   2.246   1.406  1.5107  0.3754  0.7607
  934SOL     OW 2800   0.728   1.904   1.411  0.1836 -0.5664 -0.5677
  934SOL    HW1 2801   0.748   2.005   1.403 -1.4102  0.8008  2.7959
  934SOL    HW2 2802   0.794   1.856   1.467 -2.2122  0.9391 -0.8823
  935SOL     OW 2803   2.834   1.585   2.093  0.3109  0.2439 -0.6213
  935SOL    HW1 2804   2.905   1.589   2.022 -1.5059 -0.2201  1.2608
  935SOL    HW2 2805   2.756   1.524   2.074 -3.0336 -0.6193 -0.3055
  936SOL     OW 2806   2.622   1.446   2.049  0.4023 -0.1473  0.2881
  936SOL    HW1 2807   2.566   1.422   2.131  1.4413  0.2684  0.3347
  936SOL    HW2 2808   2.567   1.428   1.964  1.1951 -0.6762 -1.2758
  937SOL     OW 2809   1.874   1.386   1.908 -0.0719 -0.1050 -0.5212
  937SOL    HW1 2810   1.891   1.285   1.906  0.4353 -2.2525 -0.8683
  937SOL    HW2 2811   1.954   1.440   1.933 -0.8921  1.4230  0.4484
  938SOL     OW 2812   0.600   2.288   2.424 -0.3536 -0.2247 -0.1571
  938SOL    HW1 2813   0.582   2.263   2.518 -0.2550 -2.6954 -1.0906
  938SOL    HW2 2814   0.689   2.250   2.387  2.1327  1.8233 -1.6096
  939SOL     OW 2815   2.258   1.020   2.918 -0.0829 -0.3798  0.0368
  939SOL    HW1 2816   2.175   1.009   2.858  1.7234 -2.7530 -1.9451
  939SOL    HW2 2817   2.222   1.043   3.009 -0.2458 -0.1749  1.9129
  940SOL     OW 2818   1.411   1.678   0.556 -0.7288 -0.3012 -0.3471
  940SOL    HW1 2819   1.496   1.690   0.500  1.4034  0.4345 -1.9575
  940SOL    HW2 2820   1.422   1.659   0.657 -1.4827 -1.2138 -1.1338
  941SOL     OW 2821   1.269   2.676   2.518 -0.6181 -0.8551  0.3440
  941SOL    HW1 2822   1.314   2.668   2.610 -0.3922 -0.9170  2.1573
  941SOL    HW2 2823   1.255   2.590   2.469 -0.3196  1.2681  1.8702
  942SOL     OW 2824   0.638   2.272   0.460  0.3638 -0.1267  0.2589
  942SOL    HW1 2825   0.600   2.303   0.367 -0.9652  0.8959 -3.6618
  942SOL    HW2 2826   0.742   2.274   0.468  1.1896  2.5466 -1.1622
  943SOL     OW 2827   1.856   2.818   1.643 -0.3410  0.2214 -0.3595
  943SOL    HW1 2828   1.912   2.769   1.578  1.0390 -0.5162  0.6566
  943SOL    HW2 2829   1.831   2.911   1.609  2.4405  1.3520 -1.2094
  944SOL     OW 2830   0.908   1.583   2.887 -0.6106 -0.4844 -0.3859
  944SOL    HW1 2831   0.937   1.682   2.864 -0.5956  1.6028 -1.8477
  944SOL    HW2 2832   0.955   1.521   2.825 -1.4433  0.2116 -0.8100
  945SOL     OW 2833   0.068   2.339   0.723 -0.3261  0.0798 -0.1322
  945SOL    HW1 2834   0.119   2.312   0.808  0.4669 -0.6476 -0.9421
  945SOL    HW2 2835   0.053   2.255   0.666 -0.5094  1.9886 -1.0698
  946SOL     OW 2836   0.926   1.297   2.710 -0.8050 -0.0623 -0.2056
  946SOL    HW1 2837   0.846   1.278   2.769 -1.2638  2.6876  0.5256
  946SOL    HW2 2838   0.941   1.218   2.651  1.0530 -0.7869 -2.0040
  947SOL     OW 2839   2.598   0.035   1.811 -0.3412 -0.0244  0.8408
  947SOL    HW1 2840   2.651   0.025   1.719  1.0568 -1.4040 -2.5069
  947SOL    HW2 2841   2.575   0.131   1.840 -0.4898 -2.5899  1.2089
  948SOL     OW 2842   0.338   2.023   1.121 -0.3496  0.3878  0.3461
  948SOL    HW1 2843   0.401   2.039   1.043  1.3850  1.3779 -0.6875
  948SOL    HW2 2844   0.380   1.969   1.196  0.0454  1.0184  1.2183
  949SOL     OW 2845   0.865   0.839   1.639 -0.2043 -0.8093  0.0416
  949SOL    HW1 2846   0.961   0.877   1.657  1.3295 -0.7877 -0.0934
  949SOL    HW2 2847   0.788   0.910   1.640 -2.1523 -2.0609  0.4411
  950SOL     OW 2848   0.056   1.049   1.012 -0.2316  0.1470 -0.0053
  950SOL    HW1 2849   0.102   0.961   1.001  1.2272 -3.0205 -2.5306
  950SOL    HW2 2850   3.038   1.028   1.056  1.4375 -1.1351 -0.7877
  951SOL     OW 2851   0.334   1.891   2.235 -0.3884 -0.6471 -0.2266
  951SOL    HW1 2852   0.253   1.950   2.217 -2.3764  1.8186  1.2566
  951SOL    HW2 2853   0.361   1.896   2.336  0.8530  1.6622  1.6768
  952SOL     OW 2854   1.280   2.159   0.496 -0.5173 -0.0397  0.1523
  952SOL    HW1 2855   1.240   2.252   0.504 -1.0684 -0.3135  3.1491
  952SOL    HW2 2856   1.307   2.136   0.401  0.7047 -1.0397  1.8818
  953SOL     OW 2857   1.018   0.698   0.199 -0.0892  0.3578 -0.5608
  953SOL    HW1 2858   0.959   0.650   0.265 -0.1814  0.6813 -2.5432
  953SOL    HW2 2859   0.981   0.678   0.103  0.0677  2.0370 -3.5891
  954SOL     OW 2860   2.294   0.889   0.919 -0.3609 -0.0733 -0.6893
  954SOL    HW1 2861   2.393   0.893   0.960  4.0021  1.0057  1.4235
  954SOL    HW2 2862   2.234   0.963   0.964 -2.7340 -2.1863  2.6914
  955SOL     OW 2863   2.418   1.379   0.492  0.1292 -0.6897  0.3805
  955SOL    HW1 2864   2.319   1.389   0.476  1.6072  0.1811  0.3208
  955SOL    HW2 2865   2.459   1.336   0.410 -0.6079 -0.3216 -0.3682
  956SOL     OW 2866   0.733   0.468   1.727 -0.2602  0.3165 -0.2663
  956SOL    HW1 2867   0.801   0.453   1.800 -2.7396 -1.5381 -2.2174
  956SOL    HW2 2868   0.780   0.522   1.652  0.9969  1.9779 -1.2291
  957SOL     OW 2869   1.818   0.691   0.956 -0.3251  0.4310 -0.2654
  957SOL    HW1 2870   1.767   0.707   1.040 -0.3465 -1.3001 -2.8296
  957SOL    HW2 2871   1.804   0.771   0.893 -2.7824  2.3701 -1.2844
  958SOL     OW 2872   0.086   1.883   0.562  0.1402  0.1308  0.4520
  958SOL    HW1 2873   0.061   1.793   0.513  0.1126 -2.3271 -1.1713
  958SOL    HW2 2874   0.183   1.904   0.535  0.0646 -2.1469  0.4881
  959SOL     OW 2875   1.954   1.788   1.626 -0.2581 -0.1345 -0.1948
  959SOL    HW1 2876   1.961   1.764   1.725  0.3262 -0.7970 -1.7044
  959SOL    HW2 2877   2.021   1.745   1.565 -0.1274  0.3434 -1.3020
  960SOL     OW 2878   3.040   1.845   2.746  0.1644 -0.6414  0.0506
  960SOL    HW1 2879   0.031   1.869   2.827  3.3195 -3.5886  0.8569
  960SOL    HW2 2880   2.962   1.794   2.783  0.9598 -0.0082  1.3426
  961SOL     OW 2881   0.898   1.591   0.954 -0.2600 -0.0837  0.1127
  961SOL    HW1 2882   0.866   1.685   0.973 -1.4484 -1.3839 -0.5556
  961SOL    HW2 2883   0.964   1.600   0.880 -1.0881  0.4478  1.0223
  962SOL     OW 2884   0.827   1.103   0.722  0.3533 -0.1334  0.1238
  962SOL    HW1 2885   0.770   1.190   0.710 -0.1378 -0.0653  0.2289
  962SOL    HW2 2886   0.889   1.107   0.807 -0.8955 -1.8372  0.4518
  963SOL     OW 2887   0.979   1.971   2.355 -0.3439  0.1920  0.0712
  963SOL    HW1 2888   0.954   1.888   2.413  1.6818 -1.4643 -0.8428
  963SOL    HW2 2889   1.019   1.943   2.270  1.4618 -2.1485  1.6385
  964SOL     OW 2890   0.115   2.940   1.997  0.3539  0.1865  0.0180
  964SOL    HW1 2891   0.139   2.974   1.901  0.7058 -0.6427 -1.4721
  964SOL    HW2 2892   0.146   2.845   2.017  1.9874 -1.1377 -0.4663
  965SOL     OW 2893   0.765   2.240   0.019  0.3330  0.3679  0.3507
  965SOL    HW1 2894   0.723   2.316   0.068  2.1514  1.1921  1.2227
  965SOL    HW2 2895   0.692   2.166   3.061 -2.6939 -2.5933 -1.8977
  966SOL     OW 2896   3.009   1.716   0.264 -0.0339  0.4868 -0.5883
  966SOL    HW1 2897   3.011   1.647   0.340 -1.4071 -0.3986  0.0178
  966SOL    HW2 2898   2.940   1.685   0.196 -0.5087  1.8959 -2.1041
  967SOL     OW 2899   1.933   2.478   2.761 -0.1984 -0.1903 -0.3112
  967SOL    HW1 2900   2.026   2.441   2.736 -0.3383 -2.3801  0.6916
  967SOL    HW2 2901   1.881   2.426   2.832 -1.6723  1.8778 -0.2923
  968SOL     OW 2902   2.345   2.780   0.833  0.3817 -0.4112  0.1906
  968SOL    HW1 2903   2.440   2.776   0.806 -1.8421 -2.5720  0.2663
  968SOL    HW2 2904   2.327   2.739   0.925  0.6952  0.5994 -1.8837
  969SOL     OW 2905   0.337   1.015   2.042 -0.1112  0.5181 -0.3454
  969SOL    HW1 2906   0.338   1.016   2.146 -0.7465 -0.9347  2.4342
  969SOL    HW2 2907   0.289   1.097   2.006  3.6916  0.8023  0.1272
  970SOL     OW 2908   1.779   1.157   0.585  0.8511 -0.1028  0.3392
  970SOL    HW1 2909   1.870   1.174   0.621 -2.9166 -0.5470  0.6530
  970SOL    HW2 2910   1.772   1.069   0.541  5.4768  3.9304  2.8116
  971SOL     OW 2911   2.332   2.830   1.492  1.1623 -0.1653  0.3526
  971SOL    HW1 2912   2.374   2.795   1.575 -1.1924 -0.0310  0.8731
  971SOL    HW2 2913   2.333   2.932   1.487 -1.8397  0.4075  0.1635
  972SOL     OW 2914   2.899   0.241   1.250 -0.4516 -0.3018 -0.4383
  972SOL    HW1 2915   2.853   0.207   1.171  0.6747  0.8779  2.0810
  972SOL    HW2 2916   2.867   0.331   1.277  2.2484 -1.5746 -0.0295
  973SOL     OW 2917   0.120   0.379   2.593 -0.7121 -0.0699  0.2681
  973SOL    HW1 2918   0.129   0.313   2.518  1.3786  1.3326 -2.2595
  973SOL    HW2 2919   0.110   0.474   2.559 -0.6583  3.0916  1.4345
  974SOL     OW 2920   2.363   1.167   2.137  0.1014 -0.4925 -0.0480
  974SOL    HW1 2921   2.268   1.128   2.140  2.1064  0.5313 -2.8295
  974SOL    HW2 2922   2.357   1.267   2.163  0.8967  1.2841  1.0613
  975SOL     OW 2923   1.106   0.442   1.500 -0.2932  0.3132  0.1333
  975SOL    HW1 2924   1.102   0.354   1.454  1.1914  0.1402 -1.0796
  975SOL    HW2 2925   1.103   0.436   1.602  0.9814 -0.5681 -0.1063
  976SOL     OW 2926   0.836   1.533   1.546 -0.2225  0.0832 -0.3395
  976SOL    HW1 2927   0.921   1.585   1.538 -1.3151 -0.3874  0.0511
  976SOL    HW2 2928   0.771   1.578   1.604  0.7398 -0.7460 -1.0450
  977SOL     OW 2929   0.937   0.076   0.150 -0.0844 -0.4092 -0.1672
  977SOL    HW1 2930   0.889   0.073   0.061  0.9022 -1.2868  1.4758
  977SOL    HW2 2931   1.030   0.122   0.137  0.9813 -0.1442 -1.9573
  978SOL     OW 2932   2.478   1.381   2.282 -0.3436 -0.5150 -0.1322
  978SOL    HW1 2933   2.510   1.465   2.331  0.3460 -1.9072 -2.4913
  978SOL    HW2 2934   2.548   1.309   2.297  0.9506  1.6034 -1.1521
  979SOL     OW 2935   1.465   0.355   2.015  0.2661  0.2382  0.0382
  979SOL    HW1 2936   1.432   0.447   2.040  0.6545 -0.6220 -2.4288
  979SOL    HW2 2937   1.475   0.352   1.912  0.8531 -0.0452  0.8432
  980SOL     OW 2938   1.479   1.610   1.801  0.6571  0.3540  0.6385
  980SOL    HW1 2939   1.388   1.625   1.753  0.5847  1.9029  3.0991
  980SOL    HW2 2940   1.544   1.550   1.752  1.7476 -0.2924  1.0089
  981SOL     OW 2941   2.542   1.133   1.501 -0.3279 -0.2050  0.4050
  981SOL    HW1 2942   2.590   1.104   1.419  0.8070 -1.4197  0.7582
  981SOL    HW2 2943   2.464   1.069   1.505  0.6430  1.7134 -1.0551
  982SOL     OW 2944   0.360   0.215   3.060 -0.4968 -0.7151 -0.4059
  982SOL    HW1 2945   0.359   0.207   2.962 -1.6878 -1.5932  2.5715
  982SOL    HW2 2946   0.430   0.147   0.020  1.1235  1.2954  0.4667
  983SOL     OW 2947   2.214   0.556   2.787  0.3865  0.5670  0.3214
  983SOL    HW1 2948   2.240   0.463   2.830  0.8694 -2.9617 -2.1773
  983SOL    HW2 2949   2.125   0.590   2.819 -0.3736 -1.1562 -1.2152
  984SOL     OW 2950   0.771   0.055   1.937  0.2803  0.3159  0.4563
  984SOL    HW1 2951   0.827   0.065   2.021 -3.2332  1.0882  0.1370
  984SOL    HW2 2952   0.757   3.027   1.897 -0.3680 -2.9719 -2.7570
  985SOL     OW 2953   1.380   1.857   2.048 -0.0474  0.1570  0.0815
  985SOL    HW1 2954   1.450   1.846   1.973  1.0089  1.9712  1.4013
  985SOL    HW2 2955   1.425   1.860   2.139 -1.6691 -0.2705 -0.2206
  986SOL     OW 2956   2.128   0.214   1.810  0.3135 -0.3163  0.1108
  986SOL    HW1 2957   2.143   0.290   1.875 -1.3194  1.0862 -0.6638
  986SOL    HW2 2958   2.185   0.133   1.830  0.8541  2.6432 -0.0271
  987SOL     OW 2959   2.481   1.377   1.427  0.0903  0.2524  0.0374
  987SOL    HW1 2960   2.399   1.359   1.364 -1.2196 -1.1281 -0.7497
  987SOL    HW2 2961   2.510   1.293   1.475  0.0345  3.3677 -2.4048
  988SOL     OW 2962   2.368   1.970   1.878  0.8721 -0.1687 -0.2011
  988SOL    HW1 2963   2.401   2.061   1.839 -2.1098  2.3607 -4.1454
  988SOL    HW2 2964   2.279   1.970   1.932 -1.3742 -1.3584  0.2572
  989SOL     OW 2965   1.052   2.548   0.165 -0.3924  0.3568 -0.0768
  989SOL    HW1 2966   1.027   2.603   0.249  1.1971  1.3991 -1.5671
  989SOL    HW2 2967   1.095   2.459   0.192 -0.5104 -0.1184  1.5181
  990SOL     OW 2968   1.725   1.119   2.801  0.4166  0.0905  0.0227
  990SOL    HW1 2969   1.640   1.154   2.841 -1.1874 -2.8961 -1.4022
  990SOL    HW2 2970   1.701   1.062   2.715 -1.4293 -2.3484  0.8010
  991SOL     OW 2971   1.230   0.504   0.661 -0.3985 -0.0502 -0.4310
  991SOL    HW1 2972   1.158   0.436   0.641  1.3082  1.5669 -2.7883
  991SOL    HW2 2973   1.293   0.506   0.580  1.7946 -1.1172  0.3581
  992SOL     OW 2974   2.683   1.051   1.283 -0.2508  0.6614 -0.7603
  992SOL    HW1 2975   2.719   0.956   1.283 -1.7218  3.4507 -1.7230
  992SOL    HW2 2976   2.759   1.116   1.285  0.2328 -2.3282 -2.9831
  993SOL     OW 2977   2.537   0.906   1.678 -0.2636  0.0013  0.1503
  993SOL    HW1 2978   2.447   0.925   1.633 -1.9966  0.0914 -1.8640
  993SOL    HW2 2979   2.602   0.983   1.678 -1.3310 -0.0800  0.8092
  994SOL     OW 2980   0.595   1.977   2.516 -0.3694  0.1326  0.3278
  994SOL    HW1 2981   0.643   2.052   2.468 -1.8905 -0.4484 -0.1662
  994SOL    HW2 2982   0.497   1.971   2.486 -3.6485  0.0180 -0.2116
  995SOL     OW 2983   1.977   1.283   2.822 -0.7530  0.2510 -0.3576
  995SOL    HW1 2984   1.924   1.294   2.731 -0.9137 -1.1280 -0.7194
  995SOL    HW2 2985   2.011   1.186   2.823 -0.8077 -0.3582 -0.3259
  996SOL     OW 2986   2.278   1.697   0.382 -0.1202 -0.1765  0.3462
  996SOL    HW1 2987   2.256   1.599   0.399  0.2919  3.0087  0.9696
  996SOL    HW2 2988   2.305   1.744   0.468 -1.1657  0.7280  0.1183
  997SOL     OW 2989   2.127   0.607   2.239 -0.0419  0.0057  0.2513
  997SOL    HW1 2990   2.123   0.670   2.158 -1.0340 -0.9792 -1.9275
  997SOL    HW2 2991   2.079   0.516   2.227 -1.6048  0.1965 -0.5453
  998SOL     OW 2992   2.551   1.246   0.297 -0.6132  0.6809  0.4712
  998SOL    HW1 2993   2.644   1.257   0.262 -2.6970 -0.5179  1.1498
  998SOL    HW2 2994   2.507   1.172   0.243  2.1806  0.4661  0.3599
  999SOL     OW 2995   2.780   1.998   0.639 -0.3507 -0.4579  0.2753
  999SOL    HW1 2996   2.758   2.018   0.738 -1.5661 -2.5626 -0.4397
  999SOL    HW2 2997   2.865   2.048   0.608  0.4700 -2.1307 -0.3155
 1000SOL     OW 2998   0.800   0.848   2.382  0.6835 -0.3359  0.1979
 1000SOL    HW1 2999   0.844   0.817   2.469  0.0368  1.6369  2.4519
 1000SOL    HW2 3000   0.723   0.788   2.346 -3.0367 -1.6494 -3.9083
   3.06790   3.06790   3.06790
