1000 SPC/Fw water molecules t= 170.00000 step= 170000
 3000
    1SOL     OW    1   2.630   2.692   0.611  0.5287  0.4209  0.1117
    1SOL    HW1    2   2.686   2.719   0.532  0.0562  2.5559  0.2463
    1SOL    HW2    3   2.555   2.629   0.579  0.2333 -4.6420  1.4493
    2SOL     OW    4   1.333   1.911   2.226  0.6081  0.2366 -0.1978
    2SOL    HW1    5   1.282   1.888   2.143 -0.2207  1.4111  0.0767
    2SOL    HW2    6   1.269   1.943   2.298  0.1183  0.1550 -0.4161
    3SOL     OW    7   1.740   2.450   2.206 -0.5739  0.6196 -0.0602
    3SOL    HW1    8   1.748   2.472   2.106 -1.7203 -0.7416 -1.1414
    3SOL    HW2    9   1.671   2.510   2.245  2.6203 -1.2655 -0.5144
    4SOL     OW   10   1.872   1.935   1.980 -0.2184 -0.3449 -0.1883
    4SOL    HW1   11   1.946   1.961   2.045 -0.1073  0.0748  1.6713
    4SOL    HW2   12   1.801   2.011   1.995 -2.8990 -1.1732  0.6021
    5SOL     OW   13   1.005   0.487   1.730  0.3879  0.4876  0.0189
    5SOL    HW1   14   1.039   0.524   1.646 -2.2333 -1.9413  0.7826
    5SOL    HW2   15   0.971   0.560   1.796  0.1407  1.5226  0.1630
    6SOL     OW   16   2.439   0.979   2.880  0.0603 -0.3753 -0.1868
    6SOL    HW1   17   2.471   0.987   2.784 -1.6144 -1.2883  1.5132
    6SOL    HW2   18   2.360   1.045   2.903  2.1050  0.8100  2.5899
    7SOL     OW   19   1.051   0.612   1.237 -0.0176  0.6317 -0.2009
    7SOL    HW1   20   1.137   0.551   1.239 -0.2972 -2.3410  0.8721
    7SOL    HW2   21   1.017   0.629   1.141 -1.1955 -1.1738  0.0905
    8SOL     OW   22   0.943   2.521   1.450  0.2310 -0.2556  0.0575
    8SOL    HW1   23   0.864   2.576   1.410  0.7962  2.6875 -2.0980
    8SOL    HW2   24   1.013   2.588   1.487  0.8941 -0.3312  3.4028
    9SOL     OW   25   0.956   1.049   3.061 -0.2837 -0.1857 -0.1235
    9SOL    HW1   26   0.857   1.063   3.063 -2.4231  2.3226  0.5670
    9SOL    HW2   27   1.004   1.098   0.042 -1.6177 -1.2384 -0.2904
   10SOL     OW   28   0.479   2.911   0.113 -0.1768 -0.4561 -0.3653
   10SOL    HW1   29   0.467   2.841   0.185 -1.0881 -1.7081 -2.8196
   10SOL    HW2   30   0.571   2.900   0.068  1.1208 -0.4042 -0.2414
   11SOL     OW   31   0.121   1.398   2.724  0.0915 -0.4922  0.6078
   11SOL    HW1   32   0.224   1.408   2.719 -1.4373  0.3031 -0.4162
   11SOL    HW2   33   0.083   1.422   2.816  0.2619 -2.0609 -0.6185
   12SOL     OW   34   0.685   3.000   1.273  0.2821 -0.6731  0.0557
   12SOL    HW1   35   0.662   3.026   1.177 -1.1108  0.9689 -2.6294
   12SOL    HW2   36   0.606   2.951   1.318  2.1495  0.3021 -0.3653
   13SOL     OW   37   0.719   2.777   0.432  0.6510 -0.0743  0.5898
   13SOL    HW1   38   0.629   2.784   0.385  1.5885  1.3934  2.3097
   13SOL    HW2   39   0.785   2.756   0.359  1.1151 -0.2098  1.6764
   14SOL     OW   40   1.195   2.144   1.084 -0.5202 -0.4611  0.1422
   14SOL    HW1   41   1.112   2.183   1.135 -1.1973  0.1303  0.2133
   14SOL    HW2   42   1.240   2.073   1.134 -0.8391  1.5932  0.8236
   15SOL     OW   43   2.659   0.913   2.354  0.3813 -0.5673  0.1558
   15SOL    HW1   44   2.663   1.011   2.361 -0.6951 -1.9723 -1.5057
   15SOL    HW2   45   2.565   0.879   2.333 -2.5669  2.5787 -1.1674
   16SOL     OW   46   1.096   2.853   2.880  0.3820  0.2451 -0.1554
   16SOL    HW1   47   1.137   2.834   2.786 -0.4843  0.8072  1.1501
   16SOL    HW2   48   1.169   2.839   2.951  0.4216 -1.9862 -0.7059
   17SOL     OW   49   0.687   2.998   1.615 -0.2272  0.0726 -0.2009
   17SOL    HW1   50   0.723   2.983   1.713 -0.7857  1.4796 -0.4968
   17SOL    HW2   51   0.729   2.932   1.550  1.0179  1.1341 -1.0525
   18SOL     OW   52   1.509   0.704   0.128  0.2650 -0.4109 -0.5180
   18SOL    HW1   53   1.528   0.770   0.046 -2.3651  1.0104 -1.7717
   18SOL    HW2   54   1.581   0.627   0.129 -0.1587 -0.7915 -0.1596
   19SOL     OW   55   2.005   1.733   2.736 -0.4591 -0.3436 -0.0062
   19SOL    HW1   56   2.107   1.742   2.746 -0.2601  0.8571  2.8208
   19SOL    HW2   57   1.962   1.806   2.677  0.9643  0.5654  0.8987
   20SOL     OW   58   2.102   1.853   1.851  0.9923 -0.0671 -0.4128
   20SOL    HW1   59   2.113   1.758   1.886  1.1160 -3.4127 -3.0355
   20SOL    HW2   60   2.009   1.891   1.865  0.4993  0.4632 -1.8628
   21SOL     OW   61   0.386   1.431   2.750  0.1226 -0.2691 -0.5488
   21SOL    HW1   62   0.440   1.423   2.840  2.1749 -1.8250  1.1110
   21SOL    HW2   63   0.434   1.501   2.692  3.0577  1.2888 -0.2068
   22SOL     OW   64   2.674   0.080   1.383  0.0215 -0.2839  0.3096
   22SOL    HW1   65   2.723   0.087   1.293  1.4771  1.7168  0.7751
   22SOL    HW2   66   2.590   0.139   1.392  0.4476  0.5835  0.5848
   23SOL     OW   67   2.837   0.776   1.737  0.5444 -0.8494 -0.6843
   23SOL    HW1   68   2.768   0.790   1.658 -0.9886 -1.4495  0.0157
   23SOL    HW2   69   2.910   0.724   1.693 -2.3314  0.0210 -0.0743
   24SOL     OW   70   2.659   2.005   1.328  1.1632 -0.4543  0.3217
   24SOL    HW1   71   2.613   2.097   1.329 -0.2744  1.8912 -0.6501
   24SOL    HW2   72   2.643   1.947   1.409  1.4307  0.4635  1.8557
   25SOL     OW   73   1.780   3.030   2.625 -0.7858  0.2435 -0.2643
   25SOL    HW1   74   1.819   3.019   2.534  0.8330 -0.9346  2.8168
   25SOL    HW2   75   1.802   2.949   2.683 -1.4893  0.9629  1.2848
   26SOL     OW   76   1.196   3.094   0.199  0.3283 -0.1685 -0.2741
   26SOL    HW1   77   1.228   3.022   0.258  0.3106 -0.5690 -4.6050
   26SOL    HW2   78   1.246   0.005   0.111 -2.5747  0.0681 -1.4097
   27SOL     OW   79   0.711   2.138   0.067 -0.0861 -0.1237 -0.1004
   27SOL    HW1   80   0.722   2.041   0.042 -2.6640  0.4742  1.8293
   27SOL    HW2   81   0.804   2.186   0.080 -0.5952  1.8651  3.1322
   28SOL     OW   82   2.869   1.416   1.270 -0.3825 -0.1472 -0.2943
   28SOL    HW1   83   2.899   1.517   1.269  2.0579  0.9614 -1.2110
   28SOL    HW2   84   2.954   1.353   1.275  1.4319  2.2123 -1.0271
   29SOL     OW   85   2.382   2.015   2.066  0.4441  0.0860 -0.1591
   29SOL    HW1   86   2.382   1.971   2.158 -0.6725 -0.0831  0.0867
   29SOL    HW2   87   2.465   2.080   2.049 -1.2788 -1.9996 -0.0495
   30SOL     OW   88   1.083   2.940   0.836  0.4161  0.2147  0.3280
   30SOL    HW1   89   1.097   2.994   0.748  1.9011 -0.0431 -1.7887
   30SOL    HW2   90   1.008   2.976   0.894 -0.8986  0.4621 -1.3184
   31SOL     OW   91   3.050   2.367   1.920 -0.4361  0.0264  0.1354
   31SOL    HW1   92   3.009   2.437   1.857 -2.3852  0.0839 -1.4060
   31SOL    HW2   93   0.044   2.345   1.877  1.5224 -1.6607 -2.1146
   32SOL     OW   94   1.361   0.915   1.726  0.0984 -0.1282 -0.5559
   32SOL    HW1   95   1.376   1.010   1.734 -0.5578 -2.3668 -0.0420
   32SOL    HW2   96   1.392   0.872   1.815  2.2585  2.3338  0.4353
   33SOL     OW   97   0.488   2.806   2.568  0.3130 -0.3775 -0.5816
   33SOL    HW1   98   0.474   2.843   2.473  0.2546 -0.0249  0.3962
   33SOL    HW2   99   0.565   2.862   2.606 -2.7323  0.5742 -2.4630
   34SOL     OW  100   1.790   0.089   1.160 -0.3374 -0.5306 -0.6353
   34SOL    HW1  101   1.795   0.003   1.105 -1.0330 -0.1806  1.4356
   34SOL    HW2  102   1.699   0.125   1.151  1.0045 -1.4411 -1.2919
   35SOL     OW  103   2.260   0.804   1.295  0.2754  0.2718  0.3413
   35SOL    HW1  104   2.183   0.819   1.360  1.2130 -2.6833  0.0313
   35SOL    HW2  105   2.333   0.874   1.310  1.7242 -0.7769  2.1745
   36SOL     OW  106   2.391   2.506   2.030 -0.1201 -0.0414 -0.3188
   36SOL    HW1  107   2.409   2.448   2.110  1.1435 -0.7819 -3.2602
   36SOL    HW2  108   2.291   2.500   2.008 -3.3879  1.1746 -1.1671
   37SOL     OW  109   1.040   2.445   2.350 -0.1750 -0.1082 -0.6486
   37SOL    HW1  110   1.121   2.472   2.410  1.8578  1.6365  3.7778
   37SOL    HW2  111   0.954   2.497   2.375  0.0435 -1.0562  0.4567
   38SOL     OW  112   2.426   0.268   0.040 -0.2471  0.3897 -0.2172
   38SOL    HW1  113   2.507   0.220   3.091 -0.7409 -1.3135 -0.5180
   38SOL    HW2  114   2.363   0.299   3.063  0.9623 -0.4193  3.2306
   39SOL     OW  115   2.117   1.655   2.455 -0.3738 -0.0511 -0.0102
   39SOL    HW1  116   2.032   1.708   2.434  0.7674 -1.4668 -1.0842
   39SOL    HW2  117   2.102   1.594   2.536  0.3868 -1.0609 -0.1747
   40SOL     OW  118   0.153   3.011   2.615 -0.4792 -0.3710  0.0890
   40SOL    HW1  119   0.052   3.025   2.614 -2.4718  2.1341  0.4295
   40SOL    HW2  120   0.170   2.912   2.606 -2.4580  1.0523 -0.8023
   41SOL     OW  121   1.872   0.389   1.434 -0.0174  0.3585 -0.2200
   41SOL    HW1  122   1.813   0.304   1.435 -0.3710 -1.1720 -1.1578
   41SOL    HW2  123   1.960   0.365   1.388 -2.1179 -0.5633 -0.3896
   42SOL     OW  124   1.028   0.127   1.590  0.1545 -0.1063 -0.7774
   42SOL    HW1  125   1.097   0.202   1.567  0.7442  1.9304  1.1933
   42SOL    HW2  126   0.943   0.141   1.537 -0.3824 -1.1405 -1.8101
   43SOL     OW  127   1.844   0.558   1.927 -0.3559 -0.3173 -0.2708
   43SOL    HW1  128   1.851   0.461   1.965 -2.0186  0.1750  2.2594
   43SOL    HW2  129   1.834   0.555   1.825  1.3760  0.8791 -2.1059
   44SOL     OW  130   0.128   2.796   2.894  0.0892 -0.2245  0.2609
   44SOL    HW1  131   0.165   2.781   2.800  2.8309  2.2024  1.1249
   44SOL    HW2  132   0.039   2.850   2.888 -1.2307  0.5686 -2.7233
   45SOL     OW  133   0.147   2.421   1.516  0.2331 -0.3549 -0.4277
   45SOL    HW1  134   0.061   2.477   1.525 -0.9128  2.1894 -0.0271
   45SOL    HW2  135   0.170   2.389   1.609  1.4128  1.2653  2.1611
   46SOL     OW  136   2.093   2.191   2.414  0.3235  0.1327  0.0305
   46SOL    HW1  137   2.095   2.142   2.503 -0.6233  1.7871  0.5041
   46SOL    HW2  138   2.183   2.228   2.391 -2.5771  0.1343 -3.6367
   47SOL     OW  139   1.737   2.001   1.631  0.2565  0.3189 -0.0059
   47SOL    HW1  140   1.812   2.060   1.659 -0.3718 -0.4929 -2.2702
   47SOL    HW2  141   1.693   2.038   1.545 -0.7050 -3.1379 -2.5924
   48SOL     OW  142   0.386   1.542   0.309 -0.3058 -0.4058  0.6446
   48SOL    HW1  143   0.481   1.554   0.274  0.4587  0.7436  0.2713
   48SOL    HW2  144   0.379   1.599   0.391 -0.9791 -0.3576 -0.0019
   49SOL     OW  145   2.675   0.443   2.567 -0.2090 -0.4164 -0.3516
   49SOL    HW1  146   2.710   0.512   2.636 -1.8372 -2.0690 -0.1682
   49SOL    HW2  147   2.633   0.487   2.486 -0.5225 -0.3093 -0.2573
   50SOL     OW  148   1.942   0.659   0.830 -0.2949 -0.0484 -0.2393
   50SOL    HW1  149   1.940   0.755   0.864  1.1445  0.7504  1.7464
   50SOL    HW2  150   1.925   0.653   0.728 -0.4608  0.8940 -0.8513
   51SOL     OW  151   1.382   0.571   0.889  0.3503 -0.1417 -0.0582
   51SOL    HW1  152   1.287   0.547   0.869  0.3974 -0.2828 -1.0052
   51SOL    HW2  153   1.397   0.673   0.880  0.2518 -0.4748 -0.5380
   52SOL     OW  154   1.355   1.254   3.057  0.1380 -0.1475 -0.2874
   52SOL    HW1  155   1.337   1.189   0.040  0.9072 -0.1582 -1.7169
   52SOL    HW2  156   1.399   1.343   3.087  2.5276  2.6263  0.4450
   53SOL     OW  157   1.206   2.048   2.786 -0.5719  0.2782  0.1101
   53SOL    HW1  158   1.131   2.106   2.823  0.5399 -2.2145 -0.4271
   53SOL    HW2  159   1.300   2.095   2.784  0.5134 -3.1102  0.1113
   54SOL     OW  160   2.114   0.277   1.313 -0.0664 -0.6689  0.0035
   54SOL    HW1  161   2.165   0.193   1.327 -2.0694 -0.2372  2.2550
   54SOL    HW2  162   2.171   0.359   1.335  0.8629  0.2235  0.1936
   55SOL     OW  163   2.177   2.578   0.640  0.0452 -0.2995 -0.0447
   55SOL    HW1  164   2.235   2.641   0.586 -2.0081  1.5467 -0.7003
   55SOL    HW2  165   2.079   2.592   0.619 -0.7201 -0.8930  0.4654
   56SOL     OW  166   0.735   2.612   1.338 -0.4004  0.0001  0.4160
   56SOL    HW1  167   0.685   2.573   1.416 -0.2244 -1.1883 -0.7412
   56SOL    HW2  168   0.673   2.684   1.304 -1.5248 -1.8977 -0.1657
   57SOL     OW  169   1.642   1.228   0.412 -0.5125  0.6791  0.4414
   57SOL    HW1  170   1.614   1.177   0.328 -1.1234  0.3803 -1.2370
   57SOL    HW2  171   1.739   1.264   0.400  0.7899 -2.6097  0.8847
   58SOL     OW  172   0.306   1.051   2.160 -0.3905 -0.0403  0.3988
   58SOL    HW1  173   0.274   1.143   2.165  2.7413 -0.7503 -1.6580
   58SOL    HW2  174   0.235   0.984   2.185  2.2073  2.1452 -1.6827
   59SOL     OW  175   0.833   2.777   2.651  0.1615  0.1697  0.0038
   59SOL    HW1  176   0.869   2.723   2.731  1.7769 -2.4441  0.7844
   59SOL    HW2  177   0.765   2.849   2.685 -2.1352  2.2824  0.4962
   60SOL     OW  178   2.491   2.526   1.018  0.5474 -0.4461 -0.6659
   60SOL    HW1  179   2.414   2.510   0.954  1.4924  1.9535  0.5769
   60SOL    HW2  180   2.464   2.526   1.119  1.3426 -0.9967 -1.3084
   61SOL     OW  181   1.208   1.981   0.762  0.0225 -0.0034  0.3519
   61SOL    HW1  182   1.123   2.007   0.813  2.1340 -1.6422 -3.2403
   61SOL    HW2  183   1.250   2.062   0.718  0.5534 -2.1370 -1.8294
   62SOL     OW  184   2.119   2.742   2.792 -0.0229  0.2588 -0.2306
   62SOL    HW1  185   2.128   2.661   2.854  1.5071 -2.7786  5.5519
   62SOL    HW2  186   2.111   2.837   2.834 -3.6866  1.5113 -0.5728
   63SOL     OW  187   2.302   0.651   0.067 -0.1215  0.3789 -0.9780
   63SOL    HW1  188   2.205   0.639   0.094  0.3475  3.3556 -0.1578
   63SOL    HW2  189   2.360   0.609   0.134 -0.5376 -1.6738 -1.7141
   64SOL     OW  190   1.065   1.036   2.802 -0.2545  0.1124  0.2925
   64SOL    HW1  191   1.125   1.107   2.759  0.2742  1.0800 -2.1340
   64SOL    HW2  192   1.046   1.038   2.906 -0.7866  1.0538  0.3360
   65SOL     OW  193   1.227   2.368   0.311  0.3007 -0.2700 -0.0319
   65SOL    HW1  194   1.309   2.414   0.352  0.1769 -1.8343  2.2645
   65SOL    HW2  195   1.164   2.347   0.387 -0.3231 -2.7351  1.7275
   66SOL     OW  196   0.761   1.118   1.706 -0.1562  0.5221  0.2254
   66SOL    HW1  197   0.821   1.110   1.789  1.7830 -0.0021  0.0304
   66SOL    HW2  198   0.680   1.175   1.726  0.4558 -0.9239  2.2965
   67SOL     OW  199   2.263   0.062   2.496  0.1633 -0.2035 -0.2476
   67SOL    HW1  200   2.219   0.075   2.404 -2.0161 -0.5141  1.7826
   67SOL    HW2  201   2.352   0.106   2.495 -0.8561  1.7449  0.2608
   68SOL     OW  202   0.749   1.381   1.127  0.0869  0.6872 -0.1057
   68SOL    HW1  203   0.814   1.327   1.181 -4.7267 -0.6133  0.0146
   68SOL    HW2  204   0.785   1.474   1.101  0.6816  2.6802 -1.1759
   69SOL     OW  205   1.596   2.328   0.282  0.1034 -0.3685  0.3642
   69SOL    HW1  206   1.548   2.412   0.318  0.5220  4.0090  0.5374
   69SOL    HW2  207   1.692   2.349   0.295 -1.2961 -0.8596 -0.8263
   70SOL     OW  208   3.013   1.123   2.383 -0.5542  0.1132  0.0140
   70SOL    HW1  209   3.008   1.155   2.479  1.7329 -3.3851 -0.5269
   70SOL    HW2  210   2.975   1.028   2.371  2.7442 -2.6740  0.8043
   71SOL     OW  211   2.864   1.632   2.900 -0.1986  0.0153 -0.6681
   71SOL    HW1  212   2.889   1.589   2.813  0.2806  0.1251 -0.5409
   71SOL    HW2  213   2.927   1.595   2.970  1.7288  0.5320  1.4552
   72SOL     OW  214   2.697   2.369   0.403  0.0864  0.5662 -0.4477
   72SOL    HW1  215   2.604   2.365   0.445 -0.1835  0.5112  0.2125
   72SOL    HW2  216   2.705   2.309   0.320  0.6749  0.2307 -1.3085
   73SOL     OW  217   0.687   1.571   0.581  0.5083  0.3769  0.0872
   73SOL    HW1  218   0.692   1.545   0.483  1.3143 -1.3819 -2.3782
   73SOL    HW2  219   0.674   1.671   0.592  3.3221 -1.2428  2.3575
   74SOL     OW  220   0.052   1.624   2.554  0.3542  0.1677  0.6461
   74SOL    HW1  221   0.098   1.714   2.574  0.4889  1.4402 -0.3357
   74SOL    HW2  222   0.063   1.554   2.629 -0.5345  0.5102 -0.7501
   75SOL     OW  223   1.580   1.412   1.584 -0.6788 -0.2832 -0.2594
   75SOL    HW1  224   1.651   1.439   1.647  0.7676  1.0263 -1.6793
   75SOL    HW2  225   1.505   1.479   1.577  1.4239  0.6499  1.8541
   76SOL     OW  226   1.890   2.647   1.492 -0.8970  0.4758 -0.1203
   76SOL    HW1  227   1.946   2.697   1.426  0.0649 -1.3168  1.2659
   76SOL    HW2  228   1.873   2.694   1.582  0.7544  1.6024 -0.1007
   77SOL     OW  229   2.677   0.856   1.199 -0.2996 -0.6074 -0.1206
   77SOL    HW1  230   2.761   0.816   1.239 -2.3389 -0.6923 -0.5000
   77SOL    HW2  231   2.633   0.798   1.131 -0.3289 -0.2426 -1.4758
   78SOL     OW  232   1.391   0.889   0.651 -0.0250  0.0898 -0.3229
   78SOL    HW1  233   1.460   0.963   0.655  0.3969 -1.3510  0.2327
   78SOL    HW2  234   1.423   0.818   0.588 -0.6826  1.3331 -2.5630
   79SOL     OW  235   3.061   1.554   1.798 -0.1676  0.4949  0.2178
   79SOL    HW1  236   0.001   1.577   1.702 -0.4022  0.4325 -0.6897
   79SOL    HW2  237   3.019   1.461   1.795  3.2733  0.2350  0.2269
   80SOL     OW  238   1.370   0.908   1.354  0.2291 -0.2720  0.3048
   80SOL    HW1  239   1.326   0.860   1.431 -1.6842  0.3875 -1.3467
   80SOL    HW2  240   1.386   0.843   1.278 -0.5319 -0.2290 -2.0692
   81SOL     OW  241   0.710   0.163   0.958 -0.4059  0.2386 -0.6853
   81SOL    HW1  242   0.746   0.166   0.861  1.6001 -1.7989 -1.0767
   81SOL    HW2  243   0.632   0.098   0.970 -0.7369  0.0233  1.9512
   82SOL     OW  244   1.454   2.817   1.452  0.0112  0.2161  0.3906
   82SOL    HW1  245   1.373   2.825   1.389  0.6481  0.0695  0.4121
   82SOL    HW2  246   1.539   2.825   1.399 -1.8170 -1.0929 -0.0921
   83SOL     OW  247   1.005   2.122   0.870 -0.4067 -0.1879  0.0382
   83SOL    HW1  248   0.911   2.100   0.891  3.9166 -0.5037 -1.1608
   83SOL    HW2  249   1.062   2.125   0.957 -1.6781  0.5887 -0.9727
   84SOL     OW  250   0.550   1.600   2.613 -0.6225  0.0248 -0.1001
   84SOL    HW1  251   0.481   1.630   2.544  0.2179  0.8071  0.3182
   84SOL    HW2  252   0.610   1.527   2.575 -0.8171  1.1435  4.1565
   85SOL     OW  253   0.134   2.149   1.433  0.0930 -0.2859 -0.1960
   85SOL    HW1  254   0.038   2.116   1.437  0.0176  1.7607  0.0926
   85SOL    HW2  255   0.134   2.254   1.438 -1.1538  0.7169 -0.5604
   86SOL     OW  256   2.459   2.223   1.352  0.0681  0.6315  0.0424
   86SOL    HW1  257   2.405   2.144   1.390  1.0758  0.8462  0.1477
   86SOL    HW2  258   2.460   2.297   1.418  0.8815 -2.9982 -0.2862
   87SOL     OW  259   2.678   2.229   0.165  0.2036  0.3450  0.2834
   87SOL    HW1  260   2.626   2.140   0.154 -0.0838  1.3071 -0.2791
   87SOL    HW2  261   2.753   2.217   0.099  3.6866 -2.3621 -0.5266
   88SOL     OW  262   0.468   1.449   1.148  0.4655  0.6027 -0.1248
   88SOL    HW1  263   0.445   1.546   1.127  0.7912 -0.3365 -0.0921
   88SOL    HW2  264   0.568   1.433   1.139 -0.4366  0.3096  1.0923
   89SOL     OW  265   1.133   3.057   2.038 -0.7922 -0.0674  0.3624
   89SOL    HW1  266   1.165   2.970   2.000  0.9688  3.3576 -0.9779
   89SOL    HW2  267   1.096   0.027   1.965 -3.0434  1.1737 -0.3218
   90SOL     OW  268   0.019   1.784   1.246 -0.7848 -0.1353  0.2525
   90SOL    HW1  269   3.041   1.734   1.301  0.9883 -0.7216  0.0311
   90SOL    HW2  270   0.058   1.720   1.175  1.2551 -2.9305  0.9602
   91SOL     OW  271   1.468   2.090   1.229  0.4715 -0.6125  0.0257
   91SOL    HW1  272   1.386   2.028   1.256 -0.3382 -1.3506  0.1095
   91SOL    HW2  273   1.547   2.039   1.191  0.1296 -0.3191 -0.3801
   92SOL     OW  274   2.479   2.438   1.505  0.0072 -0.4047 -1.1713
   92SOL    HW1  275   2.488   2.539   1.520  0.1450  0.6478  1.8115
   92SOL    HW2  276   2.550   2.393   1.567  2.4691  0.2721  0.7642
   93SOL     OW  277   2.614   1.559   2.544 -0.7050 -0.0985  0.4285
   93SOL    HW1  278   2.579   1.490   2.479  0.6230  0.2346  0.1947
   93SOL    HW2  279   2.696   1.527   2.597 -2.2880 -0.9270 -1.3887
   94SOL     OW  280   2.828   2.654   2.078 -0.8693  0.0994 -0.1383
   94SOL    HW1  281   2.789   2.706   2.156 -0.9967 -0.0158  0.7907
   94SOL    HW2  282   2.927   2.667   2.067  0.3283  2.1992  0.8766
   95SOL     OW  283   1.759   0.223   1.760 -0.2062  0.1946 -0.3695
   95SOL    HW1  284   1.791   0.281   1.840 -0.7949 -3.0963 -0.9100
   95SOL    HW2  285   1.720   0.132   1.787  3.1283  1.7381  0.9078
   96SOL     OW  286   0.018   2.925   1.506 -0.2888 -0.0633  0.0819
   96SOL    HW1  287   3.026   2.970   1.516  3.3054 -0.7477 -1.4600
   96SOL    HW2  288   0.026   2.863   1.425  0.8674  1.0046  2.0571
   97SOL     OW  289   2.348   0.363   1.561 -0.1831  0.4254  0.4857
   97SOL    HW1  290   2.265   0.365   1.620  3.1042  1.5802 -1.4009
   97SOL    HW2  291   2.436   0.377   1.617 -1.3320  1.8437 -3.4211
   98SOL     OW  292   1.618   2.651   1.682  0.5671  0.6085 -0.0825
   98SOL    HW1  293   1.556   2.724   1.646 -3.2889 -0.5669 -0.7109
   98SOL    HW2  294   1.586   2.626   1.774  1.5854  0.3260 -1.4575
   99SOL     OW  295   0.031   2.914   1.896  0.2715  0.1377  0.0945
   99SOL    HW1  296   0.087   2.926   1.809 -1.0377 -0.1102  0.8751
   99SOL    HW2  297   0.024   3.006   1.938  0.6965 -0.0444 -1.3114
  100SOL     OW  298   3.023   1.154   2.069 -0.5428  0.1441 -0.3001
  100SOL    HW1  299   3.018   1.254   2.073  0.2773  0.4037 -2.1767
  100SOL    HW2  300   3.034   1.121   2.166 -1.0401 -0.0126  1.0110
  101SOL     OW  301   1.741   0.451   0.485 -0.3795  0.4456  0.4020
  101SOL    HW1  302   1.643   0.468   0.470  1.9424 -0.0025  0.7829
  101SOL    HW2  303   1.784   0.538   0.521 -3.9299 -0.9569 -1.0896
  102SOL     OW  304   0.218   0.619   1.602  0.3016 -0.4590  0.2856
  102SOL    HW1  305   0.237   0.519   1.623 -0.3538  2.0368 -1.6912
  102SOL    HW2  306   0.265   0.676   1.673  1.2067  1.1235 -2.7055
  103SOL     OW  307   2.267   0.700   2.906  0.6401 -0.2920  0.1784
  103SOL    HW1  308   2.292   0.683   3.007  2.0057 -1.4522  2.5848
  103SOL    HW2  309   2.217   0.787   2.891  0.0089 -1.3622 -2.0609
  104SOL     OW  310   3.075   0.262   2.187  0.3841  0.0606 -0.3253
  104SOL    HW1  311   0.019   0.355   2.171 -0.0372  0.2460  0.1508
  104SOL    HW2  312   3.067   0.239   2.289  2.8329 -0.1844  2.2767
  105SOL     OW  313   2.047   0.897   1.576  0.1676  0.2993  0.1464
  105SOL    HW1  314   1.948   0.924   1.595  0.3207 -0.5555  2.2974
  105SOL    HW2  315   2.084   0.957   1.499  1.3011  3.0237 -1.7678
  106SOL     OW  316   1.410   3.088   0.898 -0.1389 -0.1812  0.2108
  106SOL    HW1  317   1.326   0.050   0.885 -1.5008 -0.9547 -1.0668
  106SOL    HW2  318   1.382   2.996   0.931  0.0292  0.0797 -1.1928
  107SOL     OW  319   0.198   1.189   0.728 -0.2875  0.3765  0.2654
  107SOL    HW1  320   0.172   1.195   0.629  1.1672 -1.3038 -0.6838
  107SOL    HW2  321   0.123   1.223   0.786 -1.2783 -0.1933 -1.9378
  108SOL     OW  322   0.005   0.299   2.485 -0.2277  0.0541 -0.1506
  108SOL    HW1  323   3.011   0.299   2.544 -1.6625  2.8669  0.0012
  108SOL    HW2  324   0.087   0.306   2.540 -0.4860  1.3679  3.3961
  109SOL     OW  325   2.623   0.203   0.387 -0.1126 -0.1934 -0.3731
  109SOL    HW1  326   2.539   0.264   0.367 -2.6295  1.8134  1.2408
  109SOL    HW2  327   2.701   0.243   0.336 -2.7468  2.2965  0.4177
  110SOL     OW  328   0.261   2.378   2.901  0.1814  0.0421 -0.3956
  110SOL    HW1  329   0.170   2.346   2.876 -1.8107  0.7374 -2.0459
  110SOL    HW2  330   0.292   2.451   2.837  1.7470 -0.2096 -1.4684
  111SOL     OW  331   1.744   2.967   1.998 -0.3005 -0.2734  0.2746
  111SOL    HW1  332   1.779   2.960   1.901 -1.5534 -1.5823 -2.3168
  111SOL    HW2  333   1.793   3.041   2.057  0.6300  1.5568  0.2525
  112SOL     OW  334   2.170   2.528   2.956 -0.4777 -0.1396 -0.0827
  112SOL    HW1  335   2.128   2.454   3.018  1.0507 -0.8275  1.4967
  112SOL    HW2  336   2.176   2.616   3.008  2.9367 -1.3680 -1.0738
  113SOL     OW  337   2.800   2.019   1.929 -0.2435  0.7433  0.4034
  113SOL    HW1  338   2.890   2.043   1.970 -0.4353  2.5117 -0.0461
  113SOL    HW2  339   2.814   2.020   1.828  0.5695 -0.2162 -1.0168
  114SOL     OW  340   2.519   0.694   1.058  0.5547 -0.1751 -0.8223
  114SOL    HW1  341   2.432   0.753   1.055 -3.0048 -1.6526  0.8820
  114SOL    HW2  342   2.524   0.622   0.989 -0.3664  0.8748  1.3826
  115SOL     OW  343   0.012   1.619   3.013 -0.6663 -0.0129  0.1095
  115SOL    HW1  344   0.073   1.682   2.964 -1.5841 -0.9710 -1.0333
  115SOL    HW2  345   3.082   1.674   0.002  0.8054  1.9450 -1.9707
  116SOL     OW  346   0.138   1.364   1.966  0.1790  0.9102 -0.2365
  116SOL    HW1  347   0.223   1.404   1.921  0.0919  0.5707  0.1003
  116SOL    HW2  348   0.069   1.433   1.993  0.7154 -0.1110  1.8815
  117SOL     OW  349   2.581   2.983   0.781  0.7282 -0.5139 -0.5527
  117SOL    HW1  350   2.501   2.916   0.785 -1.3842 -0.0799  0.0693
  117SOL    HW2  351   2.574   3.046   0.700 -2.0857  0.1783  1.5454
  118SOL     OW  352   0.499   2.102   1.568  0.5558 -0.1237 -0.3872
  118SOL    HW1  353   0.484   2.085   1.473  1.6105  1.6621  2.0871
  118SOL    HW2  354   0.570   2.034   1.601  3.1928 -0.5215 -0.5590
  119SOL     OW  355   1.594   2.178   0.547 -0.2944  0.1081  0.4255
  119SOL    HW1  356   1.637   2.087   0.528 -3.3800  2.4703  1.8427
  119SOL    HW2  357   1.574   2.231   0.461  1.8274  1.9449 -1.4589
  120SOL     OW  358   0.165   1.869   2.591 -0.5237 -0.3325 -0.3969
  120SOL    HW1  359   0.203   1.950   2.644 -3.4631  1.5295 -3.1200
  120SOL    HW2  360   0.135   1.901   2.500  0.1910  1.5399 -1.8525
  121SOL     OW  361   2.247   2.063   1.402 -0.2122  0.1466 -0.5800
  121SOL    HW1  362   2.174   1.990   1.391 -0.4972 -0.5099 -0.1541
  121SOL    HW2  363   2.203   2.156   1.396  1.4256  1.6262  0.2199
  122SOL     OW  364   2.311   1.787   2.326  0.1393 -0.0525  0.3456
  122SOL    HW1  365   2.401   1.748   2.308 -0.9795 -0.0528 -0.8047
  122SOL    HW2  366   2.241   1.717   2.351  0.9610 -1.4860  1.0922
  123SOL     OW  367   0.102   2.930   0.703  0.4024 -0.4956  0.3525
  123SOL    HW1  368   0.023   2.993   0.695 -2.3968 -2.5667  1.5659
  123SOL    HW2  369   0.063   2.838   0.689  1.1537 -0.9201 -0.9749
  124SOL     OW  370   1.693   0.761   2.470 -0.3277  0.3342 -0.0722
  124SOL    HW1  371   1.709   0.848   2.411  1.4564  0.5155  0.2097
  124SOL    HW2  372   1.598   0.760   2.503  3.3581 -1.2160  1.6244
  125SOL     OW  373   0.500   1.411   3.011  0.1075  0.0834 -0.4497
  125SOL    HW1  374   0.593   1.405   2.978 -4.8436 -0.0189 -2.2931
  125SOL    HW2  375   0.471   1.337   3.079 -0.4829  1.2604 -0.8486
  126SOL     OW  376   2.626   1.905   0.317  0.0641 -0.0645  0.3166
  126SOL    HW1  377   2.586   1.957   0.238  0.4336  0.9697 -0.1612
  126SOL    HW2  378   2.612   1.967   0.396 -0.2496 -1.2647  0.3332
  127SOL     OW  379   0.449   1.724   1.190 -0.0552  0.0403 -0.0917
  127SOL    HW1  380   0.376   1.774   1.137  0.3419  0.5923  2.0298
  127SOL    HW2  381   0.426   1.746   1.290 -1.0021  0.0401  3.8325
  128SOL     OW  382   0.730   0.725   0.112 -0.2020 -0.7086  0.1409
  128SOL    HW1  383   0.735   0.723   0.010 -0.7444  2.1823 -0.5472
  128SOL    HW2  384   0.797   0.797   0.147  2.3009  1.6223  0.4061
  129SOL     OW  385   2.288   1.442   0.761  0.5091  0.3702  0.6518
  129SOL    HW1  386   2.194   1.486   0.750 -3.0523  1.4960 -2.0256
  129SOL    HW2  387   2.288   1.381   0.839  2.1839 -1.7956  0.1941
  130SOL     OW  388   2.050   1.744   1.122  0.2860 -0.0865  0.3395
  130SOL    HW1  389   2.129   1.794   1.075  0.8240  0.0909 -2.6255
  130SOL    HW2  390   1.983   1.700   1.051 -0.5705  1.1001 -3.6817
  131SOL     OW  391   2.833   1.215   2.723  0.1652  0.2723  0.0376
  131SOL    HW1  392   2.795   1.169   2.808  0.0434 -2.1980  0.1998
  131SOL    HW2  393   2.935   1.184   2.713  0.1247 -0.6532 -1.0858
  132SOL     OW  394   2.800   1.635   1.653  0.0286  0.1989  0.9366
  132SOL    HW1  395   2.817   1.658   1.750  1.1118 -0.0701  0.4484
  132SOL    HW2  396   2.828   1.539   1.632 -1.1064  2.0456 -1.0778
  133SOL     OW  397   2.939   0.718   0.439 -0.1765 -0.1359 -0.2702
  133SOL    HW1  398   3.011   0.651   0.435 -2.5030  0.7111 -1.7040
  133SOL    HW2  399   2.859   0.682   0.489 -0.1741  1.5573 -1.2439
  134SOL     OW  400   0.148   1.114   0.072  0.5877  0.1963  0.7796
  134SOL    HW1  401   0.100   1.044   0.129  0.9357 -1.4432  1.7455
  134SOL    HW2  402   0.172   1.074   3.074 -0.5158  2.8517  0.1977
  135SOL     OW  403   2.019   1.493   0.721  0.4793 -0.1749 -0.4599
  135SOL    HW1  404   2.028   1.392   0.738  0.9216 -0.8792  1.9428
  135SOL    HW2  405   1.960   1.506   0.641 -0.6848 -1.1761  1.4715
  136SOL     OW  406   1.911   1.359   1.121 -0.0275  0.4177 -0.0497
  136SOL    HW1  407   1.921   1.401   1.214  1.5221 -0.4618 -1.6809
  136SOL    HW2  408   1.906   1.432   1.048 -3.7960  0.4042 -0.6850
  137SOL     OW  409   2.545   1.551   0.752 -0.0249  0.2772  0.1132
  137SOL    HW1  410   2.451   1.514   0.775 -2.7035 -0.5263  0.3841
  137SOL    HW2  411   2.566   1.634   0.808 -0.0794  0.5951 -1.2266
  138SOL     OW  412   1.406   0.445   1.877  0.3289  0.0935 -0.0860
  138SOL    HW1  413   1.451   0.478   1.959 -1.1293 -1.6643 -0.3841
  138SOL    HW2  414   1.435   0.493   1.793  1.3208 -2.1251 -0.3694
  139SOL     OW  415   1.940   0.124   0.027 -0.3603 -0.3404  0.2557
  139SOL    HW1  416   2.005   0.194   3.082 -0.0110 -3.6743 -0.7023
  139SOL    HW2  417   1.975   0.098   0.117 -0.2783  0.2293 -2.7985
  140SOL     OW  418   1.349   2.246   2.421 -0.0490 -0.4008 -0.6533
  140SOL    HW1  419   1.291   2.165   2.395 -0.1613  0.7210 -0.9254
  140SOL    HW2  420   1.427   2.260   2.349  1.5047 -0.4386 -0.8212
  141SOL     OW  421   1.188   1.250   1.573 -0.2948  0.1181 -0.4978
  141SOL    HW1  422   1.176   1.180   1.501  1.2306 -1.2365  1.1155
  141SOL    HW2  423   1.143   1.336   1.556  1.2830 -3.4216  0.8068
  142SOL     OW  424   2.651   0.172   3.029  0.1622 -0.4649  0.7712
  142SOL    HW1  425   2.634   0.082   3.077  1.4660 -0.8439 -3.5116
  142SOL    HW2  426   2.723   0.151   2.958 -3.4807 -1.4775  0.0695
  143SOL     OW  427   0.709   2.565   2.871 -0.3314 -0.5920 -0.6452
  143SOL    HW1  428   0.685   2.502   2.945  0.0626 -0.9130 -0.5233
  143SOL    HW2  429   0.810   2.570   2.871  0.2081 -0.7503 -1.8547
  144SOL     OW  430   1.065   2.847   2.503  0.2269  0.4644  0.3740
  144SOL    HW1  431   0.972   2.857   2.544  2.6669  0.4239  1.0305
  144SOL    HW2  432   1.135   2.824   2.576  1.7741  0.1964  0.0077
  145SOL     OW  433   2.562   1.468   0.395  0.1446  0.5140  0.5969
  145SOL    HW1  434   2.605   1.387   0.349 -0.4820  0.0002  0.4163
  145SOL    HW2  435   2.618   1.513   0.467  2.9728 -0.3558  2.6406
  146SOL     OW  436   2.524   3.019   2.785 -0.5888  0.4028  0.0989
  146SOL    HW1  437   2.500   0.023   2.791 -0.8134 -0.7586  1.7543
  146SOL    HW2  438   2.474   2.968   2.860 -0.5978  1.3257  2.8907
  147SOL     OW  439   2.441   2.245   1.093  1.0949 -0.1056  0.0114
  147SOL    HW1  440   2.419   2.336   1.054  0.6054 -0.4830 -1.0713
  147SOL    HW2  441   2.447   2.240   1.199  1.9628 -1.2867 -0.4234
  148SOL     OW  442   1.681   0.184   3.093 -0.2989 -0.3723 -0.1229
  148SOL    HW1  443   1.645   0.176   0.097 -1.3477 -1.0293  0.8362
  148SOL    HW2  444   1.783   0.185   0.010  0.5443  0.0699  0.2403
  149SOL     OW  445   0.963   1.469   2.715  0.3438  0.2398 -0.2980
  149SOL    HW1  446   1.036   1.420   2.767  0.4442  0.9607  2.5512
  149SOL    HW2  447   0.976   1.461   2.612 -1.9364  1.0515 -2.1939
  150SOL     OW  448   0.851   2.846   0.628  0.0568 -0.7324 -0.6014
  150SOL    HW1  449   0.782   2.814   0.566  4.1894  4.1198  1.5013
  150SOL    HW2  450   0.937   2.799   0.611  0.3216  0.6716  2.1627
  151SOL     OW  451   0.446   1.820   0.066 -0.2230  0.1032  0.0796
  151SOL    HW1  452   0.407   1.735   0.021 -0.1673 -0.4509  0.9199
  151SOL    HW2  453   0.552   1.824   0.066  2.5955  2.1220  2.2912
  152SOL     OW  454   3.002   0.977   0.453 -0.5228 -0.5367  0.4532
  152SOL    HW1  455   3.027   0.995   0.550 -0.2758  0.3071 -0.4029
  152SOL    HW2  456   2.975   0.880   0.441 -2.5700  1.4196  0.3276
  153SOL     OW  457   2.497   2.390   3.062 -0.0064  0.2446 -0.4802
  153SOL    HW1  458   2.554   2.373   0.050 -0.6260 -4.0580  0.6966
  153SOL    HW2  459   2.487   2.490   3.047 -0.0686 -0.4583 -0.3455
  154SOL     OW  460   0.595   3.023   1.035  0.1923 -0.1820 -0.5754
  154SOL    HW1  461   0.589   2.968   0.949  0.7489 -4.4446 -1.1931
  154SOL    HW2  462   0.508   3.017   1.082  1.0635  1.8942  2.9559
  155SOL     OW  463   0.305   1.900   1.048  0.1133 -0.1188  0.2280
  155SOL    HW1  464   0.316   1.886   0.950 -2.1219  2.4312 -0.3945
  155SOL    HW2  465   0.224   1.958   1.068  1.5026  1.3230  2.6011
  156SOL     OW  466   2.455   2.179   2.890 -0.4145 -0.6220  0.1566
  156SOL    HW1  467   2.518   2.105   2.888 -0.6925  2.6796  0.0143
  156SOL    HW2  468   2.478   2.252   2.953 -0.7680  0.9833  1.8338
  157SOL     OW  469   1.018   2.501   1.012  0.1549 -0.3578 -0.1974
  157SOL    HW1  470   0.930   2.449   1.028 -0.4378  0.9409  2.3957
  157SOL    HW2  471   1.075   2.490   1.095 -0.1670  1.5742 -0.5316
  158SOL     OW  472   1.849   0.915   2.711 -0.2043 -0.4802 -0.5473
  158SOL    HW1  473   1.827   0.816   2.718  2.9272 -0.3303  2.2797
  158SOL    HW2  474   1.765   0.978   2.723  0.9074  0.3512  1.2148
  159SOL     OW  475   1.008   0.414   2.382 -0.1161  0.1128  0.0957
  159SOL    HW1  476   0.988   0.514   2.393 -2.3299 -1.6479 -0.2609
  159SOL    HW2  477   1.073   0.403   2.305 -0.7832 -0.9108  0.4005
  160SOL     OW  478   1.123   1.766   0.599 -0.0375  0.3258  0.2714
  160SOL    HW1  479   1.159   1.848   0.649  0.6246 -1.9599  0.2404
  160SOL    HW2  480   1.095   1.688   0.658  0.7857  0.2005 -0.0057
  161SOL     OW  481   3.047   2.058   0.073 -0.3807  0.1983  0.2827
  161SOL    HW1  482   3.051   1.958   0.083  1.3352  0.2112 -0.8082
  161SOL    HW2  483   0.034   2.101   0.112 -1.0662 -1.7205  1.6710
  162SOL     OW  484   0.641   2.547   0.907  0.1104  0.3281  0.5977
  162SOL    HW1  485   0.695   2.633   0.900  1.2538  1.6308  1.3533
  162SOL    HW2  486   0.673   2.495   0.989 -0.4840 -3.2445  0.1404
  163SOL     OW  487   2.411   0.919   0.056  0.1552 -0.2867 -0.4513
  163SOL    HW1  488   2.441   0.949   3.054 -2.2780  1.0192  0.0455
  163SOL    HW2  489   2.357   0.831   0.060 -0.0281  2.5475 -0.2001
  164SOL     OW  490   0.076   2.794   0.238 -0.2822 -0.0820 -0.2218
  164SOL    HW1  491   0.077   2.700   0.276  1.2081  2.8655 -1.8624
  164SOL    HW2  492   0.149   2.804   0.169 -1.3485 -0.2960  0.3128
  165SOL     OW  493   2.332   0.467   1.324 -0.3260 -0.1883  0.5018
  165SOL    HW1  494   2.348   0.435   1.422  0.7231  1.2366  0.6086
  165SOL    HW2  495   2.286   0.559   1.325 -2.7010  3.3661 -1.9833
  166SOL     OW  496   1.963   0.267   1.088  0.4905  0.4159 -0.2201
  166SOL    HW1  497   2.037   0.259   1.159  3.9638  0.9498 -2.0856
  166SOL    HW2  498   1.909   0.187   1.097  3.1168  2.2167 -3.4246
  167SOL     OW  499   0.417   0.731   1.393 -1.1200 -0.1134 -0.2353
  167SOL    HW1  500   0.345   0.762   1.456 -2.2323  1.0092 -0.8401
  167SOL    HW2  501   0.392   0.751   1.297 -0.1717  1.2219  0.8335
  168SOL     OW  502   2.850   3.010   2.182 -0.4015 -0.0089 -0.4075
  168SOL    HW1  503   2.789   3.051   2.255 -0.9724  0.1936  1.1956
  168SOL    HW2  504   2.798   2.971   2.106 -0.4373  0.4187 -0.6413
  169SOL     OW  505   3.069   1.433   0.500 -0.7970  0.2884 -0.0714
  169SOL    HW1  506   0.060   1.375   0.489  2.5167  0.9413  1.2576
  169SOL    HW2  507   3.085   1.501   0.574  2.0171  2.0518 -0.1150
  170SOL     OW  508   3.049   0.619   1.651 -0.0689  0.8238 -0.8874
  170SOL    HW1  509   0.057   0.623   1.653  0.2139  0.3228  0.0806
  170SOL    HW2  510   3.024   0.536   1.597 -0.4766 -0.8158 -0.1000
  171SOL     OW  511   1.122   2.012   1.790  0.4947  0.3079 -0.0807
  171SOL    HW1  512   1.137   2.078   1.867  0.1318 -2.9772  0.6512
  171SOL    HW2  513   1.030   2.020   1.750 -1.2295  0.7490 -0.6589
  172SOL     OW  514   0.591   2.245   1.152  0.0675 -0.7079  0.4846
  172SOL    HW1  515   0.550   2.190   1.228 -1.0660 -0.1669 -2.5283
  172SOL    HW2  516   0.551   2.219   1.065  2.1778  0.6876  1.6517
  173SOL     OW  517   1.074   0.221   0.229  0.4400 -0.0460  0.4993
  173SOL    HW1  518   0.980   0.193   0.196  2.0150 -1.7914 -0.5986
  173SOL    HW2  519   1.119   0.133   0.246 -1.9539 -0.5341 -0.4666
  174SOL     OW  520   0.652   3.005   3.007  0.1147  0.5033 -0.4055
  174SOL    HW1  521   0.585   3.079   2.985  3.9109 -0.4498 -0.7717
  174SOL    HW2  522   0.744   3.039   3.016  1.8139 -1.4501  0.2810
  175SOL     OW  523   1.088   0.820   0.013  0.4692  0.1287 -0.1169
  175SOL    HW1  524   1.174   0.818   0.072  1.1100  1.4109  0.8759
  175SOL    HW2  525   1.032   0.902   0.030  0.7381  1.6858 -0.6934
  176SOL     OW  526   1.471   0.488   0.443 -0.2596  0.6198 -0.0487
  176SOL    HW1  527   1.440   0.423   0.369 -0.7405  2.1534 -1.8552
  176SOL    HW2  528   1.387   0.522   0.487 -0.4452  0.5732 -1.6117
  177SOL     OW  529   1.378   0.850   0.922 -0.0770  0.6809  0.8406
  177SOL    HW1  530   1.377   0.844   0.820 -0.6776 -1.0732 -1.4915
  177SOL    HW2  531   1.319   0.926   0.946 -0.6842 -1.8922 -2.1062
  178SOL     OW  532   2.629   1.838   2.504  0.4017  0.2662 -0.2377
  178SOL    HW1  533   2.633   1.739   2.523  1.5228  3.4105  1.6684
  178SOL    HW2  534   2.535   1.881   2.535  0.0612  0.1730  0.2158
  179SOL     OW  535   0.653   2.975   2.740 -0.5606 -0.0982  0.1108
  179SOL    HW1  536   0.649   2.993   2.842 -0.0866  1.3777  2.6587
  179SOL    HW2  537   0.675   3.058   2.686 -1.1018 -0.6797 -1.4474
  180SOL     OW  538   1.968   1.553   1.599  0.3554 -0.0572  0.3446
  180SOL    HW1  539   1.940   1.475   1.532 -1.5812 -0.4463 -1.6641
  180SOL    HW2  540   1.923   1.637   1.565 -1.5745 -1.1266 -1.4774
  181SOL     OW  541   1.315   1.422   2.220 -0.4574 -0.1281  0.6341
  181SOL    HW1  542   1.360   1.494   2.161 -1.1452 -1.1377  0.8660
  181SOL    HW2  543   1.322   1.451   2.319  1.5637  2.0908  1.5302
  182SOL     OW  544   2.936   0.725   2.592  0.0076  0.3712 -0.0366
  182SOL    HW1  545   2.889   0.696   2.675  5.0388  3.0835 -1.4077
  182SOL    HW2  546   2.956   0.646   2.531  0.7230 -1.0209  0.9126
  183SOL     OW  547   1.623   3.090   2.899  0.0125 -0.2650 -0.3583
  183SOL    HW1  548   1.679   0.002   2.814  1.3201 -1.1447  1.6671
  183SOL    HW2  549   1.656   0.063   2.972 -0.8892  2.5541  0.8869
  184SOL     OW  550   0.728   0.430   1.693  0.1870 -0.6228 -0.1837
  184SOL    HW1  551   0.824   0.428   1.732 -0.8337 -0.7038  1.2251
  184SOL    HW2  552   0.689   0.334   1.689 -1.0781 -2.1322  0.4779
  185SOL     OW  553   2.611   1.159   0.877  0.2481  0.0988  0.1909
  185SOL    HW1  554   2.660   1.240   0.835  0.4464 -1.9700 -0.2805
  185SOL    HW2  555   2.642   1.139   0.974  0.1815 -0.6080  1.5165
  186SOL     OW  556   0.396   1.931   2.878 -0.0385  0.3286  1.2455
  186SOL    HW1  557   0.414   1.945   2.976 -0.0724  0.7815 -0.7357
  186SOL    HW2  558   0.348   2.010   2.833 -1.2541  0.1186  1.1373
  187SOL     OW  559   2.627   1.233   0.252  0.6622  0.7122 -0.0858
  187SOL    HW1  560   2.727   1.212   0.244 -0.8807 -3.2972 -1.6937
  187SOL    HW2  561   2.578   1.231   0.163  2.4814  0.5497  0.1081
  188SOL     OW  562   0.317   2.082   0.597  0.4582  0.7527  0.1695
  188SOL    HW1  563   0.381   2.158   0.579 -2.4457  1.0464 -1.1358
  188SOL    HW2  564   0.240   2.076   0.527 -3.1923 -2.1243  0.7682
  189SOL     OW  565   2.571   0.877   0.279  0.2508  0.0871 -0.1712
  189SOL    HW1  566   2.537   0.926   0.201  0.5361 -0.8220  2.6885
  189SOL    HW2  567   2.566   0.929   0.368  1.2613  0.7290 -0.6386
  190SOL     OW  568   1.049   1.494   2.115  0.1190  0.1108 -0.1150
  190SOL    HW1  569   1.144   1.469   2.141  0.9094  0.1134  0.4441
  190SOL    HW2  570   1.031   1.590   2.145 -0.6653  2.1967  1.3951
  191SOL     OW  571   2.655   0.474   1.514 -0.1185 -0.0514 -0.6457
  191SOL    HW1  572   2.696   0.382   1.518  2.8408  0.4257 -0.6650
  191SOL    HW2  573   2.629   0.495   1.417 -1.4088 -3.3207 -1.0130
  192SOL     OW  574   2.155   0.275   2.032  0.5985 -0.2918 -0.5383
  192SOL    HW1  575   2.209   0.189   2.016  0.4226 -0.9608  0.8597
  192SOL    HW2  576   2.176   0.301   2.126  0.2370  1.6030  0.2790
  193SOL     OW  577   0.646   0.887   0.399  0.4576  0.2251 -0.2365
  193SOL    HW1  578   0.645   0.878   0.503  0.2033  1.2221  3.3342
  193SOL    HW2  579   0.557   0.926   0.371  1.1244  4.1294  1.9981
  194SOL     OW  580   1.356   2.525   1.494  0.1871  0.2875  0.5525
  194SOL    HW1  581   1.291   2.443   1.504 -2.5488 -0.3498 -0.0252
  194SOL    HW2  582   1.445   2.498   1.453 -0.7070 -0.9658  0.7590
  195SOL     OW  583   2.178   0.551   0.969 -0.0050  0.4472 -0.4514
  195SOL    HW1  584   2.213   0.646   0.967  0.4999 -0.2607  0.6900
  195SOL    HW2  585   2.075   0.556   0.949 -1.1902  1.0045 -1.6432
  196SOL     OW  586   1.677   2.128   1.961  0.2185 -0.0459  0.5308
  196SOL    HW1  587   1.628   2.061   2.018 -2.0564  0.9492 -1.7179
  196SOL    HW2  588   1.622   2.142   1.879 -0.2524  2.7946  1.0703
  197SOL     OW  589   0.212   0.243   3.090  0.2481 -0.0939  0.6643
  197SOL    HW1  590   0.222   0.171   0.068  1.8685 -1.2015 -0.3934
  197SOL    HW2  591   0.189   0.203   3.001  1.5784 -0.9972 -0.7339
  198SOL     OW  592   1.368   1.244   0.729  0.1003 -0.0503  0.5232
  198SOL    HW1  593   1.415   1.328   0.698 -1.2338 -0.8095 -0.3015
  198SOL    HW2  594   1.286   1.263   0.787  2.2328 -0.4747  0.4568
  199SOL     OW  595   2.649   1.037   1.983 -0.0920 -0.3579  0.2657
  199SOL    HW1  596   2.665   0.940   1.996  2.0861  3.5082  2.1279
  199SOL    HW2  597   2.709   1.079   1.911 -0.6339  0.0870 -0.9944
  200SOL     OW  598   2.784   2.337   2.556  0.6229  0.1456  0.1449
  200SOL    HW1  599   2.746   2.377   2.470 -1.9292  0.6715  0.2617
  200SOL    HW2  600   2.748   2.391   2.635 -0.6159  0.6461 -0.0396
  201SOL     OW  601   2.805   0.073   1.150 -0.0959  0.4004  0.0416
  201SOL    HW1  602   2.895   0.093   1.106  0.5001 -0.6412  1.1488
  201SOL    HW2  603   2.731   0.070   1.077  1.3370  0.9615 -0.0649
  202SOL     OW  604   1.956   0.253   0.823  0.5797 -0.0409  0.0889
  202SOL    HW1  605   1.859   0.269   0.795 -0.7090  2.4492  0.6301
  202SOL    HW2  606   1.964   0.255   0.929 -0.0809 -1.1676 -0.1604
  203SOL     OW  607   1.587   1.954   2.145  0.4708  0.3051  0.1878
  203SOL    HW1  608   1.485   1.956   2.158 -1.9086 -0.3570 -1.1636
  203SOL    HW2  609   1.627   1.875   2.194  0.5641  0.2134  0.7533
  204SOL     OW  610   0.690   1.602   2.027  0.1973  0.6322 -0.2392
  204SOL    HW1  611   0.712   1.541   1.946 -2.5463  1.1278  2.7600
  204SOL    HW2  612   0.740   1.688   2.017 -1.0071  0.2366  0.2137
  205SOL     OW  613   0.833   1.616   1.461  0.6291  0.3391  0.2372
  205SOL    HW1  614   0.737   1.595   1.441 -0.8834 -0.8413 -0.4972
  205SOL    HW2  615   0.827   1.666   1.555 -1.1717  1.9654 -1.8579
  206SOL     OW  616   3.019   0.417   2.981  0.5021 -0.1934  0.4533
  206SOL    HW1  617   3.056   0.413   3.076  0.8420  0.3628 -1.1226
  206SOL    HW2  618   2.917   0.420   2.983  0.5833  2.0107 -0.2819
  207SOL     OW  619   1.752   2.695   2.054  0.0563  0.0490  0.1759
  207SOL    HW1  620   1.748   2.798   2.031 -0.8822  2.0017  0.1315
  207SOL    HW2  621   1.842   2.656   2.073  0.5233 -1.5792 -2.5941
  208SOL     OW  622   0.460   2.072   1.305  0.4752  0.1917  0.6242
  208SOL    HW1  623   0.528   2.008   1.261  1.9663  2.6472  1.1946
  208SOL    HW2  624   0.367   2.060   1.259 -0.1019 -0.8801 -1.1053
  209SOL     OW  625   1.434   1.181   2.182  0.1539 -0.0474 -0.3430
  209SOL    HW1  626   1.368   1.119   2.134 -0.5023  1.2160 -3.5296
  209SOL    HW2  627   1.380   1.264   2.209  0.3953 -0.9429 -1.4601
  210SOL     OW  628   1.885   0.931   1.189 -0.0978 -0.1195  0.1140
  210SOL    HW1  629   1.908   0.935   1.091  0.4768 -0.8605  0.1457
  210SOL    HW2  630   1.896   0.834   1.222  2.2196 -2.3061  3.5442
  211SOL     OW  631   0.465   0.260   0.573  0.1609  0.0723 -0.1542
  211SOL    HW1  632   0.503   0.276   0.483 -3.0282 -0.2819  1.2130
  211SOL    HW2  633   0.465   0.343   0.636 -0.4866 -0.4517  0.6509
  212SOL     OW  634   1.936   1.422   0.117  0.5439  0.7321 -0.3607
  212SOL    HW1  635   1.949   1.337   0.061  0.0931 -0.9353 -1.0751
  212SOL    HW2  636   1.931   1.397   0.218 -0.7556 -0.7840  2.2139
  213SOL     OW  637   1.511   0.286   2.751 -0.4860 -0.0163  0.3338
  213SOL    HW1  638   1.559   0.220   2.691  1.0128 -2.1329 -2.1440
  213SOL    HW2  639   1.579   0.324   2.817  2.0066  1.1451  2.0681
  214SOL     OW  640   1.495   1.624   2.120 -0.0644 -0.2542 -0.1808
  214SOL    HW1  641   1.522   1.662   2.212  0.3239 -2.0483 -0.3734
  214SOL    HW2  642   1.574   1.629   2.050  2.3380 -0.7189 -3.5432
  215SOL     OW  643   0.523   1.970   0.375  0.4534 -0.4324 -0.4977
  215SOL    HW1  644   0.429   2.005   0.352  0.4282  0.5590 -0.7655
  215SOL    HW2  645   0.583   2.053   0.373 -2.7879 -0.8001 -1.2727
  216SOL     OW  646   0.440   2.878   2.307  0.8856  0.0446 -0.7231
  216SOL    HW1  647   0.530   2.924   2.296  0.2790 -0.7482  0.8891
  216SOL    HW2  648   0.363   2.929   2.260 -0.7323 -2.5990 -0.3378
  217SOL     OW  649   2.232   0.971   0.807  0.7561  0.2699 -0.2871
  217SOL    HW1  650   2.326   0.948   0.779  0.4674  0.5089 -0.4890
  217SOL    HW2  651   2.170   0.981   0.727  1.9508  1.2050  1.8099
  218SOL     OW  652   1.706   1.702   1.950 -0.2120  0.0216  0.1788
  218SOL    HW1  653   1.763   1.783   1.975  0.4453 -0.2798 -1.0071
  218SOL    HW2  654   1.764   1.634   1.896 -1.9611 -0.4377  0.2166
  219SOL     OW  655   1.917   1.243   2.962 -0.2686 -0.2183 -0.2783
  219SOL    HW1  656   1.956   1.251   2.873 -3.7599 -0.9426  1.9782
  219SOL    HW2  657   1.829   1.289   2.956  3.8172 -2.9812 -0.0227
  220SOL     OW  658   1.383   1.509   0.972 -0.8061  0.4640 -0.1731
  220SOL    HW1  659   1.373   1.503   1.072  0.8167  2.5818 -1.2106
  220SOL    HW2  660   1.457   1.445   0.936  0.7391 -1.0335  0.2784
  221SOL     OW  661   0.734   0.701   2.930  0.2575  0.0159  0.3969
  221SOL    HW1  662   0.729   0.744   2.840 -1.6390  2.4731 -0.8491
  221SOL    HW2  663   0.683   0.610   2.926 -1.9367 -1.5618  4.7330
  222SOL     OW  664   0.798   1.607   0.982 -0.4252 -0.7556  0.1962
  222SOL    HW1  665   0.708   1.590   0.931 -0.2697 -0.0775  1.8479
  222SOL    HW2  666   0.786   1.682   1.055 -0.4943  3.0163  2.7558
  223SOL     OW  667   1.335   3.038   3.011  0.2978 -0.3454  0.6452
  223SOL    HW1  668   1.409   3.023   2.941 -0.8575 -2.4063 -0.1446
  223SOL    HW2  669   1.281   0.028   2.988  1.9758  2.6740  0.7984
  224SOL     OW  670   2.584   0.529   1.268 -0.2030 -0.0027  0.1561
  224SOL    HW1  671   2.493   0.511   1.308  1.5663  3.0665 -1.2385
  224SOL    HW2  672   2.581   0.607   1.211 -0.5248 -3.0366  1.7777
  225SOL     OW  673   0.870   0.411   1.272 -0.0896  0.9016  0.5483
  225SOL    HW1  674   0.969   0.436   1.273  1.2117  0.2847  0.6416
  225SOL    HW2  675   0.814   0.488   1.242 -0.2288  0.3238  1.6052
  226SOL     OW  676   1.607   1.766   2.867  0.6279  0.0635  0.4026
  226SOL    HW1  677   1.531   1.803   2.812  1.3081 -1.0159  3.0498
  226SOL    HW2  678   1.610   1.800   2.959  0.6990  0.5940 -3.4796
  227SOL     OW  679   1.290   1.896   1.300 -0.5445 -0.5865  0.1232
  227SOL    HW1  680   1.320   1.847   1.387  0.5001 -0.9771  1.4723
  227SOL    HW2  681   1.251   1.830   1.235  0.7384 -0.9582  2.1011
  228SOL     OW  682   0.350   1.677   0.551 -0.2501 -0.4965 -0.1754
  228SOL    HW1  683   0.427   1.746   0.559 -0.8484  1.2734 -0.7172
  228SOL    HW2  684   0.311   1.653   0.643 -1.7135  0.4653 -0.2820
  229SOL     OW  685   1.401   0.434   0.015 -0.2382  0.4112 -0.5149
  229SOL    HW1  686   1.456   0.489   0.079  0.8589 -0.4122 -0.2143
  229SOL    HW2  687   1.455   0.407   3.027  0.3900 -1.3064 -0.0954
  230SOL     OW  688   1.337   0.491   2.333 -0.0219 -0.0943  0.3724
  230SOL    HW1  689   1.276   0.444   2.263  1.6682  0.9727 -1.4734
  230SOL    HW2  690   1.329   0.463   2.429  1.2837  1.3107 -2.3248
  231SOL     OW  691   1.017   1.740   2.221  0.5211 -0.2779  0.1598
  231SOL    HW1  692   1.069   1.732   2.310 -1.5232  0.0496  0.1601
  231SOL    HW2  693   0.998   1.836   2.198  3.4222 -0.1925  0.7044
  232SOL     OW  694   2.228   1.902   0.967 -0.5058  0.3136 -0.0296
  232SOL    HW1  695   2.210   1.839   0.883  1.2288  1.2868 -0.9908
  232SOL    HW2  696   2.324   1.929   0.970  0.4803  0.7376 -1.4980
  233SOL     OW  697   2.148   2.735   0.015  0.0494  0.4640 -0.1578
  233SOL    HW1  698   2.141   2.738   0.116 -1.6460  2.2784  2.0821
  233SOL    HW2  699   2.175   2.819   3.066 -1.9032 -1.3480  1.8000
  234SOL     OW  700   0.889   0.285   2.780 -0.5092  0.5239  0.0603
  234SOL    HW1  701   0.882   0.289   2.882  0.3988 -0.9567 -0.9055
  234SOL    HW2  702   0.919   0.192   2.757 -1.2077  0.5810  1.8992
  235SOL     OW  703   2.186   0.099   2.752  0.7522 -0.0190 -0.1389
  235SOL    HW1  704   2.275   0.138   2.778 -0.0060  0.3730 -0.4059
  235SOL    HW2  705   2.196   0.071   2.655 -1.1430  0.6201 -0.1089
  236SOL     OW  706   2.526   2.325   2.251  0.3758  0.2140  0.1380
  236SOL    HW1  707   2.591   2.392   2.293 -1.0718  3.4375 -0.1343
  236SOL    HW2  708   2.580   2.271   2.183  0.1907 -0.4726 -1.7314
  237SOL     OW  709   0.919   1.347   1.929  0.1893  0.7434  0.1965
  237SOL    HW1  710   0.853   1.400   1.870  1.0951  0.1637  0.5291
  237SOL    HW2  711   0.980   1.407   1.985 -0.4495  0.7778 -1.1549
  238SOL     OW  712   1.796   0.206   2.579  0.3257  0.3371  1.2808
  238SOL    HW1  713   1.808   0.107   2.601  1.2249 -1.0091  1.9077
  238SOL    HW2  714   1.858   0.264   2.637 -1.4822  2.1116  1.8817
  239SOL     OW  715   0.291   1.928   1.976  0.3455 -0.2672 -0.0974
  239SOL    HW1  716   0.346   1.839   1.981 -1.3839  1.3730  2.6224
  239SOL    HW2  717   0.191   1.904   1.958  1.1837  1.0883 -0.1314
  240SOL     OW  718   2.796   2.745   0.412 -0.3380  0.6070 -0.2349
  240SOL    HW1  719   2.839   2.654   0.422 -2.6723  1.6617  1.1657
  240SOL    HW2  720   2.855   2.818   0.371  1.3622 -0.3081 -2.7466
  241SOL     OW  721   1.926   1.572   0.475 -0.6148 -0.0050  0.1268
  241SOL    HW1  722   2.012   1.622   0.458 -1.6324 -1.8193  2.1628
  241SOL    HW2  723   1.846   1.602   0.418 -2.0614  1.5026  1.2400
  242SOL     OW  724   1.360   1.829   2.697 -0.1202 -0.3272  0.0787
  242SOL    HW1  725   1.400   1.839   2.603  1.3352 -2.7608 -1.0890
  242SOL    HW2  726   1.291   1.895   2.721  0.7024 -0.3400 -0.4710
  243SOL     OW  727   0.809   2.591   2.421  0.1984 -0.0946  0.2355
  243SOL    HW1  728   0.764   2.531   2.490 -1.1139  0.0270  1.3757
  243SOL    HW2  729   0.815   2.686   2.453  0.4644 -1.7988  0.6121
  244SOL     OW  730   1.982   0.282   2.754 -0.5043 -0.7389 -0.3137
  244SOL    HW1  731   1.980   0.306   2.856 -1.3207  0.2280  1.2740
  244SOL    HW2  732   2.041   0.201   2.743 -3.1655  0.8443 -0.1646
  245SOL     OW  733   1.417   2.891   0.696 -0.3763  0.4535  0.4175
  245SOL    HW1  734   1.415   2.979   0.737  0.0027  0.9458 -2.2863
  245SOL    HW2  735   1.326   2.874   0.648 -2.2222  1.1378 -0.4400
  246SOL     OW  736   1.470   2.519   0.420 -0.1416  0.1271  0.0175
  246SOL    HW1  737   1.485   2.606   0.368  0.7656 -0.5633 -0.4983
  246SOL    HW2  738   1.462   2.528   0.521 -3.6008  0.3701 -0.4011
  247SOL     OW  739   0.875   0.709   2.340  0.2418 -0.1899  0.8359
  247SOL    HW1  740   0.911   0.691   2.247  0.5075  2.0314 -1.9908
  247SOL    HW2  741   0.777   0.739   2.333 -0.1791 -0.3781  0.2632
  248SOL     OW  742   0.572   1.380   2.140 -0.8868  0.3604  0.3858
  248SOL    HW1  743   0.636   1.300   2.116  4.0091  0.6322  3.0403
  248SOL    HW2  744   0.618   1.467   2.116  1.4509  1.8819  1.1516
  249SOL     OW  745   2.161   0.291   0.377 -0.2959  0.3534 -0.3010
  249SOL    HW1  746   2.263   0.299   0.366 -0.6537 -1.5401  2.6515
  249SOL    HW2  747   2.142   0.319   0.474  0.1532  0.0216  0.8100
  250SOL     OW  748   0.779   0.221   0.696  1.2101 -0.0797 -0.6192
  250SOL    HW1  749   0.764   0.152   0.623 -1.0334  1.0298  0.4983
  250SOL    HW2  750   0.762   0.316   0.654  0.3520  2.7496  0.8428
  251SOL     OW  751   1.842   0.581   2.967 -0.4585 -0.0048 -0.3644
  251SOL    HW1  752   1.812   0.629   2.880  0.3783  1.4501  1.5534
  251SOL    HW2  753   1.942   0.606   2.983 -0.3913  0.3591  1.8480
  252SOL     OW  754   1.977   1.489   2.042 -0.5053  0.2919 -0.3974
  252SOL    HW1  755   1.955   1.418   2.115  0.1504  1.0465  0.5886
  252SOL    HW2  756   2.031   1.566   2.076 -1.0399 -4.3796  1.0142
  253SOL     OW  757   2.638   2.322   1.695 -0.1863 -0.2128  0.4118
  253SOL    HW1  758   2.628   2.346   1.799 -0.6382  0.7792  2.1320
  253SOL    HW2  759   2.721   2.371   1.662  1.6824  2.4296  3.0323
  254SOL     OW  760   0.233   1.347   1.239  0.6820  0.6280  0.0424
  254SOL    HW1  761   0.243   1.271   1.302 -0.3774  2.1536 -1.8471
  254SOL    HW2  762   0.320   1.371   1.196 -1.9024 -0.8408  1.3016
  255SOL     OW  763   0.743   0.637   1.179 -0.4438 -0.1004  0.5200
  255SOL    HW1  764   0.646   0.645   1.164  1.8987  2.3414  1.2012
  255SOL    HW2  765   0.797   0.642   1.093 -2.8939  1.8102 -0.0004
  256SOL     OW  766   1.996   2.674   1.817 -0.1158  0.4639 -0.6377
  256SOL    HW1  767   2.017   2.658   1.913  0.2779 -0.3539 -0.4715
  256SOL    HW2  768   2.079   2.661   1.765 -1.2483  1.6629  1.8165
  257SOL     OW  769   0.270   2.755   0.024  0.8986 -0.2154  0.2166
  257SOL    HW1  770   0.348   2.823   0.025  2.0217  2.8740 -1.7744
  257SOL    HW2  771   0.214   2.770   3.033  2.7233  0.7295 -1.5093
  258SOL     OW  772   0.697   2.754   3.069 -0.4200 -0.0702 -0.6477
  258SOL    HW1  773   0.720   2.686   2.998  0.9154  1.0841 -1.0287
  258SOL    HW2  774   0.660   2.839   3.029 -0.5668  2.2473  1.4910
  259SOL     OW  775   1.170   0.093   2.292 -0.2174 -0.0403  0.2434
  259SOL    HW1  776   1.133   0.040   2.210 -1.2520  3.7867  1.1227
  259SOL    HW2  777   1.270   0.084   2.310 -0.0568 -1.4789  1.1932
  260SOL     OW  778   1.847   0.520   1.040 -0.2389 -0.3910  0.1988
  260SOL    HW1  779   1.889   0.428   1.063  1.1097  1.2029  0.6743
  260SOL    HW2  780   1.868   0.554   0.943  0.5820  1.3708 -3.7498
  261SOL     OW  781   0.526   0.495   2.466 -0.3573  0.0236  0.3954
  261SOL    HW1  782   0.447   0.505   2.532 -2.1908  2.4876 -1.5592
  261SOL    HW2  783   0.619   0.507   2.508  4.1073 -1.5404  0.6447
  262SOL     OW  784   3.014   2.461   2.202  0.5064  0.5052 -0.4230
  262SOL    HW1  785   3.053   2.546   2.234  1.4645 -0.4167 -0.7191
  262SOL    HW2  786   3.024   2.456   2.100  0.3415 -1.6729  0.0090
  263SOL     OW  787   0.014   1.532   2.312  0.8932  0.0794  0.4534
  263SOL    HW1  788   3.056   1.607   2.269  2.3045 -2.2979  1.3454
  263SOL    HW2  789   0.044   1.564   2.406  1.3695 -0.0795  0.8777
  264SOL     OW  790   0.312   0.984   0.889  0.5027  0.1056  0.0738
  264SOL    HW1  791   0.278   1.060   0.829  1.9039  3.4800  0.4993
  264SOL    HW2  792   0.283   1.007   0.986  2.4451  0.1005  3.4124
  265SOL     OW  793   1.144   2.254   0.528  0.2981 -0.0106  0.4216
  265SOL    HW1  794   1.206   2.218   0.599  1.5055  0.0623  0.0785
  265SOL    HW2  795   1.074   2.316   0.570  0.0179  1.7706  0.3267
  266SOL     OW  796   1.583   0.471   1.065 -0.6132 -0.2358 -0.1424
  266SOL    HW1  797   1.684   0.482   1.055 -2.3471 -2.2075 -0.4312
  266SOL    HW2  798   1.541   0.556   1.027 -0.9262 -0.9182 -1.8206
  267SOL     OW  799   2.674   1.102   2.929 -0.0095 -0.9603  0.1279
  267SOL    HW1  800   2.735   1.084   3.007 -0.0084  0.3643  0.9307
  267SOL    HW2  801   2.609   1.027   2.916  2.5256  1.4499  0.1648
  268SOL     OW  802   1.938   0.417   0.288 -0.6448  0.4875  0.3468
  268SOL    HW1  803   2.022   0.368   0.294 -1.2091  0.1808 -2.6839
  268SOL    HW2  804   1.883   0.409   0.373  0.7215  2.6406 -0.8510
  269SOL     OW  805   2.086   0.904   2.899  0.2526  0.1390 -0.0706
  269SOL    HW1  806   2.011   0.909   2.834  1.8596  0.8091  1.5991
  269SOL    HW2  807   2.091   0.980   2.966 -1.1185  0.1993 -1.8585
  270SOL     OW  808   3.011   0.900   2.939 -0.0356 -0.6544  0.4103
  270SOL    HW1  809   3.065   0.895   2.855 -1.0778  0.0836 -0.0633
  270SOL    HW2  810   3.039   0.829   3.008  0.6066 -1.4606 -1.2444
  271SOL     OW  811   2.814   0.782   0.198  0.0938  0.1503 -0.6229
  271SOL    HW1  812   2.722   0.815   0.226  1.7343  2.1766  0.7643
  271SOL    HW2  813   2.872   0.778   0.280  0.9885  0.4498 -2.1597
  272SOL     OW  814   0.024   2.115   2.886  0.1615 -0.1114 -0.0302
  272SOL    HW1  815   3.057   2.065   2.826 -1.0940  1.1933  0.8942
  272SOL    HW2  816   3.070   2.128   2.977 -0.0352 -0.0300 -1.1440
  273SOL     OW  817   2.496   3.035   0.305 -0.5500 -0.5433  0.3926
  273SOL    HW1  818   2.552   0.011   0.354 -0.0248  1.9561 -1.3714
  273SOL    HW2  819   2.400   3.039   0.349 -1.5025 -1.0601  1.5474
  274SOL     OW  820   0.488   2.203   0.884 -0.0309 -0.3177 -0.3208
  274SOL    HW1  821   0.416   2.267   0.852 -2.8553  0.0178  0.8983
  274SOL    HW2  822   0.528   2.145   0.808 -0.2250 -1.3367 -0.9678
  275SOL     OW  823   2.825   1.591   0.552 -0.3370  0.1590 -0.0310
  275SOL    HW1  824   2.838   1.677   0.614  0.2784  1.8311 -0.2302
  275SOL    HW2  825   2.893   1.518   0.578  3.5991 -0.0580 -0.5946
  276SOL     OW  826   3.026   0.944   1.902  0.1909 -0.3178 -0.4119
  276SOL    HW1  827   3.006   1.025   1.964 -0.9298  1.0666 -0.9286
  276SOL    HW2  828   2.938   0.891   1.893 -0.6517 -2.9686 -4.1179
  277SOL     OW  829   2.084   2.870   1.392  0.2523  0.1571  0.1277
  277SOL    HW1  830   2.046   2.815   1.314  0.6932  2.6890  1.0232
  277SOL    HW2  831   2.041   2.966   1.389  0.5346  0.6586 -1.2474
  278SOL     OW  832   1.298   2.570   2.244 -0.1605 -0.2297 -0.4266
  278SOL    HW1  833   1.266   2.478   2.262  0.1993  2.4777 -0.4125
  278SOL    HW2  834   1.221   2.633   2.231  0.4100 -1.6998  2.6588
  279SOL     OW  835   1.607   1.884   0.393 -0.1036 -0.2319 -0.3002
  279SOL    HW1  836   1.679   1.820   0.364 -0.9087  0.7340  2.8315
  279SOL    HW2  837   1.539   1.894   0.318  0.9471 -0.6210 -2.4056
  280SOL     OW  838   0.134   1.628   1.035  0.5988  0.2663  0.0097
  280SOL    HW1  839   0.093   1.690   0.960 -1.4554  1.5354 -1.2684
  280SOL    HW2  840   0.096   1.534   1.034 -0.8338  2.0661 -0.2507
  281SOL     OW  841   2.937   0.874   2.333 -0.0091 -0.4567 -0.1184
  281SOL    HW1  842   2.833   0.882   2.323  1.5767  1.2980  1.0046
  281SOL    HW2  843   2.960   0.851   2.433 -0.2116 -0.7342 -1.1171
  282SOL     OW  844   0.570   1.563   0.824  0.0436  0.3867 -0.5019
  282SOL    HW1  845   0.476   1.523   0.820  1.6478  2.7676  1.3682
  282SOL    HW2  846   0.611   1.559   0.729 -0.0924  0.2904 -1.9485
  283SOL     OW  847   1.915   2.141   0.196  0.2347 -0.4864 -0.3816
  283SOL    HW1  848   1.876   2.224   0.233  0.1203 -2.2229 -1.1736
  283SOL    HW2  849   1.988   2.099   0.253  1.1994 -1.9932 -1.5180
  284SOL     OW  850   0.930   0.582   0.303 -0.0438  0.2438 -0.3086
  284SOL    HW1  851   0.851   0.593   0.239 -0.8925 -0.4385  0.1409
  284SOL    HW2  852   1.003   0.539   0.242 -0.5796  0.1207 -1.8216
  285SOL     OW  853   2.231   1.157   2.927 -0.1783 -0.2472 -0.5294
  285SOL    HW1  854   2.164   1.175   2.849 -0.4619 -1.2411 -0.4453
  285SOL    HW2  855   2.245   1.241   2.986  1.2634  1.4366 -0.6249
  286SOL     OW  856   1.777   2.315   1.291  0.2145  0.4015  0.4204
  286SOL    HW1  857   1.723   2.307   1.376 -0.6411 -1.0454  1.7109
  286SOL    HW2  858   1.794   2.411   1.270  3.0451 -5.9690 -2.2190
  287SOL     OW  859   0.951   1.086   0.713 -0.4477  0.0344 -0.2520
  287SOL    HW1  860   0.912   1.148   0.781 -0.0096 -1.4994 -0.5494
  287SOL    HW2  861   0.920   1.108   0.623  4.9792 -3.5157  1.8903
  288SOL     OW  862   1.150   2.457   0.070 -0.4786  0.0010 -0.2628
  288SOL    HW1  863   1.131   2.553   0.054  3.1244 -1.5338  0.6363
  288SOL    HW2  864   1.176   2.442   0.167  0.4067 -2.7701  2.9264
  289SOL     OW  865   0.121   1.642   1.580  0.9986 -0.1575  0.5438
  289SOL    HW1  866   0.128   1.742   1.573 -0.7563 -3.8169  1.5504
  289SOL    HW2  867   0.213   1.603   1.589  0.2936  3.6555 -2.5061
  290SOL     OW  868   1.595   2.263   0.864 -0.3035  0.5636 -0.0105
  290SOL    HW1  869   1.516   2.303   0.917  0.7337  1.2886 -0.0573
  290SOL    HW2  870   1.594   2.157   0.873  0.2071 -1.6759 -1.3699
  291SOL     OW  871   1.879   2.978   3.037 -0.7245  0.7608 -0.3115
  291SOL    HW1  872   1.896   3.072   3.067 -1.4445 -3.9893 -1.5827
  291SOL    HW2  873   1.827   2.913   0.005  1.0115 -0.5354 -0.5993
  292SOL     OW  874   0.948   0.589   2.093  0.3029  0.1395 -0.1641
  292SOL    HW1  875   0.919   0.621   2.001  0.9527  0.2778 -4.2055
  292SOL    HW2  876   0.911   0.498   2.116  0.7895 -0.2830 -3.2764
  293SOL     OW  877   2.080   2.310   0.950  0.6668  0.0018 -0.3890
  293SOL    HW1  878   2.020   2.272   0.880 -0.8817  5.3882 -0.8708
  293SOL    HW2  879   2.078   2.248   1.031 -1.1512  0.8237  1.5851
  294SOL     OW  880   0.632   0.790   2.402 -0.2438  0.1889 -0.0349
  294SOL    HW1  881   0.567   0.719   2.366 -1.1232  2.0791  0.4096
  294SOL    HW2  882   0.588   0.881   2.406 -0.8707 -3.7855 -0.6688
  295SOL     OW  883   1.609   1.427   0.877 -0.3045 -0.3051 -0.0484
  295SOL    HW1  884   1.643   1.368   0.953 -1.1089 -0.2888  1.8681
  295SOL    HW2  885   1.655   1.519   0.877 -0.5804  0.1241  0.0762
  296SOL     OW  886   2.828   1.721   0.274  0.3973  0.0807 -0.0483
  296SOL    HW1  887   2.754   1.793   0.278  1.6622 -2.0175  0.2797
  296SOL    HW2  888   2.838   1.672   0.364  0.0413 -0.8560  1.3113
  297SOL     OW  889   2.152   2.760   0.287  0.0657 -0.0813 -0.0279
  297SOL    HW1  890   2.185   2.845   0.333  1.6824  0.6257 -1.6829
  297SOL    HW2  891   2.227   2.694   0.299 -2.2077 -1.9828 -2.5909
  298SOL     OW  892   0.972   2.600   2.894 -0.4301 -0.1729 -0.1397
  298SOL    HW1  893   1.040   2.534   2.853 -0.2397 -0.0981  2.3990
  298SOL    HW2  894   1.014   2.691   2.909 -1.4422 -2.5287 -1.2314
  299SOL     OW  895   1.149   2.215   1.995 -0.5154  0.5228  0.2314
  299SOL    HW1  896   1.246   2.223   2.025  0.9535 -0.4998  2.1610
  299SOL    HW2  897   1.107   2.306   1.974 -1.9480  0.6537  0.7074
  300SOL     OW  898   2.446   0.193   2.784  0.5489 -0.8505  0.0492
  300SOL    HW1  899   2.508   0.185   2.862 -0.2101 -0.2414 -3.1595
  300SOL    HW2  900   2.464   0.283   2.734  1.1460  0.1968  0.2585
  301SOL     OW  901   1.281   1.017   2.032  0.3580 -0.2653 -0.2558
  301SOL    HW1  902   1.237   1.076   1.957 -0.3894 -0.5936  0.2228
  301SOL    HW2  903   1.368   0.970   2.003 -1.9061  0.2417 -1.2680
  302SOL     OW  904   2.790   2.901   0.067  0.0518  0.1887  0.2354
  302SOL    HW1  905   2.712   2.961   0.066  3.9010 -1.6589  0.6936
  302SOL    HW2  906   2.839   2.913   0.150 -2.0596  0.3585 -2.1683
  303SOL     OW  907   2.660   2.446   1.937 -0.3286  0.3758 -0.1980
  303SOL    HW1  908   2.565   2.486   1.948 -0.7516  0.3049 -0.9529
  303SOL    HW2  909   2.730   2.499   1.989 -1.0014 -0.1919  1.2396
  304SOL     OW  910   2.760   0.768   1.989 -0.2023 -0.5955 -0.2182
  304SOL    HW1  911   2.789   0.749   1.897 -1.5948 -1.2885  2.8035
  304SOL    HW2  912   2.779   0.692   2.054 -1.3723  0.1796  0.2716
  305SOL     OW  913   0.581   1.547   1.374 -0.1171  0.1328  0.4511
  305SOL    HW1  914   0.550   1.491   1.297 -0.6740 -1.7578 -1.2402
  305SOL    HW2  915   0.549   1.641   1.361  0.3469 -0.5072 -1.2446
  306SOL     OW  916   0.103   1.155   1.796 -0.0299 -0.1180 -0.0201
  306SOL    HW1  917   0.135   1.224   1.863 -0.2278 -1.6379  1.0077
  306SOL    HW2  918   0.054   1.084   1.851  0.7692  3.1142  0.1869
  307SOL     OW  919   1.076   0.632   1.513  0.6876  0.4967 -0.2709
  307SOL    HW1  920   1.054   0.620   1.418  1.5926  0.9632  0.2437
  307SOL    HW2  921   1.165   0.679   1.524 -0.2341  2.1632 -0.5907
  308SOL     OW  922   3.011   1.171   1.228  0.8630  0.0354  0.6770
  308SOL    HW1  923   2.921   1.137   1.193 -1.6842 -0.6731  0.4474
  308SOL    HW2  924   3.044   1.094   1.285 -2.7459  1.8307 -1.9516
  309SOL     OW  925   2.382   1.214   1.245  0.1524 -0.3062  0.3497
  309SOL    HW1  926   2.472   1.260   1.223 -0.2461  1.7530  0.0093
  309SOL    HW2  927   2.397   1.116   1.272 -1.0444  2.9881 -0.4799
  310SOL     OW  928   2.959   2.142   2.639  0.2780  0.0163  0.1405
  310SOL    HW1  929   2.897   2.062   2.649  0.6670 -0.7277  2.8841
  310SOL    HW2  930   2.902   2.225   2.620  0.4194 -1.6794  1.8885
  311SOL     OW  931   2.782   2.980   2.696 -0.3058 -0.2190 -0.5792
  311SOL    HW1  932   2.678   2.986   2.713 -0.5883  0.6585 -2.2690
  311SOL    HW2  933   2.807   2.905   2.635  2.0378  0.7982  1.2932
  312SOL     OW  934   2.183   1.929   0.079 -0.0424  0.4892 -0.1140
  312SOL    HW1  935   2.263   1.918   0.019 -1.7363 -0.2721 -0.9315
  312SOL    HW2  936   2.102   1.899   0.024  0.6810  4.6603 -2.4330
  313SOL     OW  937   2.548   2.781   0.269  0.9319  0.1077 -0.6391
  313SOL    HW1  938   2.646   2.775   0.303  1.7456 -0.4525  0.0873
  313SOL    HW2  939   2.517   2.878   0.263  0.1657 -1.1476  1.4681
  314SOL     OW  940   1.608   1.138   0.171  0.2269  0.2841  0.1106
  314SOL    HW1  941   1.510   1.140   0.189 -0.5210  1.4115 -2.1575
  314SOL    HW2  942   1.625   1.146   0.071 -2.8243 -0.5394 -3.1345
  315SOL     OW  943   1.306   2.818   2.018  0.0365  0.9070  0.6854
  315SOL    HW1  944   1.237   2.798   2.093  1.1497  0.6831  0.2442
  315SOL    HW2  945   1.381   2.866   2.064 -0.9845 -2.4462 -0.1759
  316SOL     OW  946   2.835   0.979   0.018  0.4399  0.3601 -0.0478
  316SOL    HW1  947   2.903   0.950   3.044 -0.7871  0.0046  0.9346
  316SOL    HW2  948   2.815   0.895   0.075 -0.6342 -1.3954  2.1768
  317SOL     OW  949   0.273   0.013   0.155  0.0889 -0.5625  0.3931
  317SOL    HW1  950   0.237   3.077   0.245  0.0523  0.7518 -0.1055
  317SOL    HW2  951   0.349   3.044   0.124  1.6828  0.4739  0.5275
  318SOL     OW  952   2.265   2.511   0.877  0.0410  0.3458 -0.1447
  318SOL    HW1  953   2.200   2.439   0.915  1.2279 -0.6513 -1.7466
  318SOL    HW2  954   2.242   2.517   0.779 -2.0077  1.5733  0.0324
  319SOL     OW  955   1.055   1.780   3.070  0.2709 -0.1183  0.3131
  319SOL    HW1  956   1.050   1.867   0.030  0.2552  2.3531 -1.6148
  319SOL    HW2  957   1.000   1.798   2.987  1.3117  1.8218  1.7632
  320SOL     OW  958   0.188   2.329   1.764 -0.0655  0.0786 -0.5207
  320SOL    HW1  959   0.261   2.383   1.812 -2.1651  0.7852 -0.9964
  320SOL    HW2  960   0.216   2.233   1.746 -0.6931  1.1968  2.6488
  321SOL     OW  961   1.508   2.854   2.884 -0.0553  0.4493  0.0221
  321SOL    HW1  962   1.563   2.941   2.889  2.2348  1.1521  3.0169
  321SOL    HW2  963   1.567   2.775   2.858  0.2217 -0.9371  1.0183
  322SOL     OW  964   2.966   1.414   2.109 -0.3169  0.1016 -0.4724
  322SOL    HW1  965   3.019   1.439   2.193  1.8443 -1.6482  0.3994
  322SOL    HW2  966   2.868   1.423   2.130 -1.2550  1.5821  0.5063
  323SOL     OW  967   2.076   1.130   1.045  0.0318  0.1605 -0.6714
  323SOL    HW1  968   2.166   1.164   1.029  1.4305 -1.7771  1.6674
  323SOL    HW2  969   2.020   1.200   1.092 -1.0056 -3.4172 -1.7799
  324SOL     OW  970   2.997   3.089   2.568  0.3602  0.0990  0.1760
  324SOL    HW1  971   2.996   0.096   2.579  2.8457 -1.2124 -0.0719
  324SOL    HW2  972   2.916   3.040   2.608 -0.1657  3.5320 -0.4288
  325SOL     OW  973   1.358   0.734   2.601  0.5489 -0.2532 -0.7236
  325SOL    HW1  974   1.373   0.637   2.574 -2.4123 -2.0321 -1.5024
  325SOL    HW2  975   1.258   0.741   2.621  1.7616 -0.9382  1.7212
  326SOL     OW  976   2.033   2.634   2.104  0.6154 -0.0208 -0.1894
  326SOL    HW1  977   2.108   2.701   2.079  1.7357  2.6056 -0.2330
  326SOL    HW2  978   2.073   2.543   2.131 -0.1347 -1.2173  0.1479
  327SOL     OW  979   2.024   0.056   0.272 -0.0622 -0.2815 -0.1469
  327SOL    HW1  980   1.950   0.026   0.336 -2.7657 -0.8185 -0.2804
  327SOL    HW2  981   2.075   0.136   0.308 -1.9669  0.1602  2.7511
  328SOL     OW  982   0.185   1.242   2.401  0.4967  0.1960 -0.0098
  328SOL    HW1  983   0.229   1.285   2.320  0.8630 -0.4759  0.6849
  328SOL    HW2  984   0.087   1.212   2.383 -3.0430  0.7054  2.1479
  329SOL     OW  985   2.258   0.008   2.057 -0.1044  0.1981  0.1371
  329SOL    HW1  986   2.234   3.042   1.978 -2.4277 -0.8545  2.5739
  329SOL    HW2  987   2.362   0.013   2.070 -1.7187  0.7068 -2.1195
  330SOL     OW  988   3.033   1.271   0.818  0.2926  0.6717  0.2617
  330SOL    HW1  989   2.949   1.311   0.776  0.8165  0.9218 -0.1144
  330SOL    HW2  990   3.054   1.318   0.906  0.1560  0.8691  1.2723
  331SOL     OW  991   0.428   1.719   2.397 -0.1309  0.0012 -0.0152
  331SOL    HW1  992   0.380   1.809   2.399  0.6485  1.6546 -0.5361
  331SOL    HW2  993   0.528   1.733   2.365 -2.0894 -0.4777  0.5080
  332SOL     OW  994   0.205   2.984   1.672  0.6630  0.0236 -0.6062
  332SOL    HW1  995   0.292   2.941   1.648 -0.4786  0.5827  1.1903
  332SOL    HW2  996   0.129   2.963   1.602 -0.3183 -1.3595 -0.3378
  333SOL     OW  997   2.232   2.943   1.024  0.0455  0.6222  0.1003
  333SOL    HW1  998   2.139   2.923   1.065 -1.3904 -1.6875  2.2892
  333SOL    HW2  999   2.274   3.022   1.068 -4.2164 -3.0981 -2.7745
  334SOL     OW 1000   0.593   1.828   0.607  0.2199 -0.6189 -0.1474
  334SOL    HW1 1001   0.576   1.871   0.519 -2.0210 -1.9355  2.6674
  334SOL    HW2 1002   0.677   1.865   0.651 -2.2362  2.3600  1.1576
  335SOL     OW 1003   0.351   2.504   0.012  0.3146  0.0844 -0.3431
  335SOL    HW1 1004   0.299   2.458   3.036  0.3297  2.3437  3.1618
  335SOL    HW2 1005   0.326   2.603   0.020  0.2999 -0.7068 -0.9766
  336SOL     OW 1006   0.370   0.068   2.443  0.5255  0.0948  0.0555
  336SOL    HW1 1007   0.371   0.007   2.521  0.5624  3.3196 -2.7394
  336SOL    HW2 1008   0.298   0.043   2.374  0.1053  1.1309 -0.4921
  337SOL     OW 1009   2.499   2.176   2.595 -0.0830  0.1533 -0.5924
  337SOL    HW1 1010   2.596   2.190   2.587 -2.8457 -1.5246 -0.7927
  337SOL    HW2 1011   2.468   2.168   2.691 -1.2662  0.6245 -0.7927
  338SOL     OW 1012   0.911   0.959   1.057 -0.2135  0.4322  0.0848
  338SOL    HW1 1013   0.885   1.032   0.997 -1.4947  0.0947  3.7276
  338SOL    HW2 1014   0.876   0.989   1.152 -0.8208  0.7920  2.1626
  339SOL     OW 1015   0.131   0.781   2.010  0.2805  0.0440 -0.4810
  339SOL    HW1 1016   0.138   0.812   2.110  1.5476 -1.6258  2.3663
  339SOL    HW2 1017   0.054   0.827   1.961 -0.1685 -1.5423  0.4078
  340SOL     OW 1018   1.534   2.743   0.321 -0.0059 -0.6956  0.6734
  340SOL    HW1 1019   1.568   2.810   0.392 -0.1010  1.8810  1.5529
  340SOL    HW2 1020   1.573   2.772   0.233 -1.0499 -0.8319  1.2043
  341SOL     OW 1021   1.912   0.914   0.922 -0.1136 -0.0834  0.1080
  341SOL    HW1 1022   1.842   0.970   0.872 -0.5206 -2.9659 -2.8557
  341SOL    HW2 1023   2.003   0.956   0.923  1.1406 -0.3268 -0.9156
  342SOL     OW 1024   2.381   2.930   2.999  0.3536  0.5087 -0.4003
  342SOL    HW1 1025   2.281   2.955   2.973 -2.1140  3.1832  1.5163
  342SOL    HW2 1026   2.383   2.836   3.038 -2.4128 -0.7202  1.8346
  343SOL     OW 1027   1.413   2.125   1.666  0.2223 -0.0412 -0.2219
  343SOL    HW1 1028   1.444   2.197   1.731  0.2546  1.2519 -1.3412
  343SOL    HW2 1029   1.330   2.081   1.696  1.6039 -0.1334  1.4264
  344SOL     OW 1030   2.101   2.530   1.238 -0.0282  0.0803 -0.0288
  344SOL    HW1 1031   2.048   2.530   1.150 -0.9526  1.3914  0.9426
  344SOL    HW2 1032   2.196   2.571   1.224  0.9428  3.4178 -1.4035
  345SOL     OW 1033   2.641   2.531   0.153  0.5666  0.3247  0.3397
  345SOL    HW1 1034   2.611   2.469   0.225 -2.1899 -0.1715  0.3214
  345SOL    HW2 1035   2.605   2.625   0.170 -1.2697  0.2907  2.1001
  346SOL     OW 1036   2.770   1.343   0.731 -0.2596 -0.1760  0.0439
  346SOL    HW1 1037   2.777   1.270   0.661  0.9670  0.5492  0.3040
  346SOL    HW2 1038   2.711   1.418   0.706  1.2283 -1.8591  0.7090
  347SOL     OW 1039   1.951   2.389   1.571  0.4355  0.1484  0.8472
  347SOL    HW1 1040   1.935   2.482   1.531  1.4080 -0.1882  1.0785
  347SOL    HW2 1041   1.994   2.328   1.499 -0.8982  1.3122  2.1082
  348SOL     OW 1042   0.744   1.878   0.012  0.4179 -0.3097 -0.0329
  348SOL    HW1 1043   0.787   1.831   3.032 -1.0151  0.8458 -0.9843
  348SOL    HW2 1044   0.757   1.837   0.103  0.4278  1.5322 -2.0197
  349SOL     OW 1045   2.565   1.449   1.631  0.3886 -0.3076  0.1058
  349SOL    HW1 1046   2.528   1.530   1.576  0.7039  1.3868 -0.2968
  349SOL    HW2 1047   2.660   1.419   1.609  0.2239 -0.7567 -3.1357
  350SOL     OW 1048   2.841   2.640   1.095  0.1557  0.1477 -0.7815
  350SOL    HW1 1049   2.840   2.740   1.114 -1.7389  0.5471 -1.2712
  350SOL    HW2 1050   2.796   2.632   1.001  1.1939  1.5427 -1.9335
  351SOL     OW 1051   0.448   0.622   2.236 -0.1453  0.1881 -0.4759
  351SOL    HW1 1052   0.502   0.603   2.151  2.3708  0.9904 -1.6353
  351SOL    HW2 1053   0.471   0.559   2.315 -0.4282 -2.7854  2.9274
  352SOL     OW 1054   0.657   1.918   1.175 -0.4478 -0.0739  0.4155
  352SOL    HW1 1055   0.740   1.860   1.189 -0.4139  1.2591 -0.2495
  352SOL    HW2 1056   0.568   1.862   1.178 -0.9836  1.7177  0.4553
  353SOL     OW 1057   1.505   1.867   2.441 -0.0966  0.6082 -0.1428
  353SOL    HW1 1058   1.435   1.874   2.368 -1.5605 -0.9262  2.3810
  353SOL    HW2 1059   1.579   1.806   2.411  0.3686  1.6953 -0.7218
  354SOL     OW 1060   1.097   0.459   0.823  0.1613  0.5146 -0.0913
  354SOL    HW1 1061   1.053   0.415   0.903  2.4812 -1.3694 -2.0567
  354SOL    HW2 1062   1.122   0.384   0.760 -3.0752  0.9226  0.5090
  355SOL     OW 1063   2.491   0.708   0.627 -0.3841 -0.5714  0.4669
  355SOL    HW1 1064   2.494   0.804   0.656 -1.9048  0.6673 -0.6670
  355SOL    HW2 1065   2.397   0.683   0.590  0.3975  1.7128  2.6927
  356SOL     OW 1066   2.563   1.688   2.254 -0.3481  0.4417  0.4816
  356SOL    HW1 1067   2.610   1.759   2.314 -0.1855 -4.3520 -0.6288
  356SOL    HW2 1068   2.634   1.618   2.227 -0.8881 -1.9897 -0.2771
  357SOL     OW 1069   0.775   2.436   1.114  0.3047  0.0252  0.0549
  357SOL    HW1 1070   0.787   2.498   1.191 -3.0865 -1.8670 -0.6750
  357SOL    HW2 1071   0.705   2.364   1.140 -0.8120 -0.5956 -0.5608
  358SOL     OW 1072   2.441   0.788   1.700  0.2144  0.3075 -0.1178
  358SOL    HW1 1073   2.522   0.776   1.640 -0.6268  0.4370  1.1418
  358SOL    HW2 1074   2.415   0.881   1.728 -3.3220 -0.0967  0.0692
  359SOL     OW 1075   2.403   2.542   2.719 -0.0514 -0.1522 -0.6358
  359SOL    HW1 1076   2.355   2.618   2.669  1.1023  1.1638 -0.2852
  359SOL    HW2 1077   2.356   2.453   2.713  2.0092  1.8288  1.3491
  360SOL     OW 1078   1.725   0.274   0.704  0.2676 -0.6326  0.5608
  360SOL    HW1 1079   1.730   0.319   0.614  1.8513  1.2861 -1.5939
  360SOL    HW2 1080   1.633   0.292   0.744 -1.4190  0.3606 -1.7039
  361SOL     OW 1081   2.316   0.112   1.425 -0.7880  0.4472  0.2122
  361SOL    HW1 1082   2.327   0.192   1.484  0.5278 -0.9168  0.9870
  361SOL    HW2 1083   2.309   0.024   1.477 -0.1355 -0.5067 -0.7453
  362SOL     OW 1084   1.230   1.209   0.430  0.1393 -0.1597  0.0632
  362SOL    HW1 1085   1.289   1.167   0.496 -1.0747  1.7230 -3.3955
  362SOL    HW2 1086   1.204   1.304   0.454  1.0177 -2.9889  0.4406
  363SOL     OW 1087   2.446   1.521   2.788 -0.0462  0.6039  0.2606
  363SOL    HW1 1088   2.501   1.479   2.862 -3.5941  0.4858 -3.4099
  363SOL    HW2 1089   2.496   1.518   2.698 -1.0996  2.5371  1.5800
  364SOL     OW 1090   0.832   0.192   1.411  0.2684 -0.5290  0.0109
  364SOL    HW1 1091   0.839   0.285   1.369 -0.3283  1.1668 -2.1869
  364SOL    HW2 1092   0.743   0.150   1.403  3.0896 -1.0914 -0.4968
  365SOL     OW 1093   0.195   3.004   0.399  0.8889 -0.1644 -0.8437
  365SOL    HW1 1094   0.127   2.936   0.366  1.8088 -0.4475  1.2429
  365SOL    HW2 1095   0.263   2.953   0.458 -0.4025  0.4286 -0.0149
  366SOL     OW 1096   2.787   1.449   0.070  0.5622 -0.5335  0.3643
  366SOL    HW1 1097   2.804   1.533   0.127 -1.0239 -1.3363  2.4861
  366SOL    HW2 1098   2.840   1.372   0.108 -0.3680  4.3478  3.1460
  367SOL     OW 1099   2.803   2.738   2.549  0.3424 -0.1280 -1.0280
  367SOL    HW1 1100   2.767   2.738   2.458  3.1920 -2.5718  2.3815
  367SOL    HW2 1101   2.788   2.649   2.598  2.1955 -0.6187  0.6991
  368SOL     OW 1102   0.134   1.824   0.818  0.4843  0.6152  0.1369
  368SOL    HW1 1103   0.073   1.905   0.808  2.6050  2.2005 -1.1340
  368SOL    HW2 1104   0.218   1.844   0.769 -2.1300 -1.3640  1.2057
  369SOL     OW 1105   0.708   0.068   0.268 -0.1175  0.2037 -0.4502
  369SOL    HW1 1106   0.777   0.076   0.190  0.6047 -2.4037  2.6566
  369SOL    HW2 1107   0.621   0.108   0.234 -1.7563  0.5544 -2.6714
  370SOL     OW 1108   0.126   0.772   0.682  0.2359 -0.1246 -0.4280
  370SOL    HW1 1109   0.145   0.754   0.782  0.0977 -0.1405  0.6630
  370SOL    HW2 1110   0.063   0.856   0.682 -3.4516 -0.3101 -2.0323
  371SOL     OW 1111   1.850   2.859   0.653 -0.2030  0.0495  0.6695
  371SOL    HW1 1112   1.918   2.932   0.664 -0.4750  0.3262  0.7585
  371SOL    HW2 1113   1.877   2.788   0.580 -2.9312 -1.4394 -0.5407
  372SOL     OW 1114   0.173   0.976   2.549 -0.1862 -0.6198 -0.0247
  372SOL    HW1 1115   0.253   1.033   2.570 -1.1188 -1.5114  0.0451
  372SOL    HW2 1116   0.169   0.963   2.450  0.0615 -1.8168  0.4399
  373SOL     OW 1117   2.807   1.794   0.794  0.1777 -0.2163 -0.4465
  373SOL    HW1 1118   2.874   1.871   0.786 -2.1015 -2.2549  0.7276
  373SOL    HW2 1119   2.839   1.721   0.855  0.9405 -1.1911 -0.3574
  374SOL     OW 1120   0.371   2.471   0.293 -0.0822 -0.2758  0.3511
  374SOL    HW1 1121   0.373   2.436   0.194  3.0462  0.4116 -1.9173
  374SOL    HW2 1122   0.451   2.437   0.345  2.0640  0.5931  2.0611
  375SOL     OW 1123   0.267   0.666   0.078 -0.2135 -0.4169  0.4075
  375SOL    HW1 1124   0.333   0.745   0.091 -0.9372  2.8641 -0.0057
  375SOL    HW2 1125   0.293   0.595   0.010 -1.0395 -2.4810 -1.5855
  376SOL     OW 1126   0.467   2.487   2.111 -0.3304  0.2599  0.1763
  376SOL    HW1 1127   0.428   2.505   2.020 -1.2914 -2.7006 -1.1943
  376SOL    HW2 1128   0.436   2.548   2.184  1.9839  0.8118 -0.6935
  377SOL     OW 1129   1.247   2.468   2.539 -0.2362  0.1931  0.0788
  377SOL    HW1 1130   1.324   2.533   2.543 -2.4465 -0.5941  1.8484
  377SOL    HW2 1131   1.276   2.377   2.505 -0.5005  1.2444  0.1100
  378SOL     OW 1132   1.119   0.872   0.622 -0.1586 -0.2131 -0.2881
  378SOL    HW1 1133   1.064   0.954   0.652  1.1689  0.5891  0.1043
  378SOL    HW2 1134   1.218   0.898   0.649  0.8544  3.0030  0.8460
  379SOL     OW 1135   0.996   1.789   0.338  0.5676  0.5675  0.5569
  379SOL    HW1 1136   1.061   1.776   0.419  1.9960 -0.0017  0.8752
  379SOL    HW2 1137   0.998   1.705   0.277 -1.2887 -0.9977  0.9115
  380SOL     OW 1138   0.204   1.890   1.436  0.0723 -0.6024  0.3169
  380SOL    HW1 1139   0.148   1.850   1.360 -0.5619  0.6891 -1.6011
  380SOL    HW2 1140   0.200   1.994   1.445 -1.4531  0.9353  0.9141
  381SOL     OW 1141   0.311   1.218   1.611 -0.1653 -0.2668 -0.2407
  381SOL    HW1 1142   0.237   1.197   1.675  1.4044  1.5208 -0.1232
  381SOL    HW2 1143   0.403   1.218   1.662  1.1271 -1.9194  1.5840
  382SOL     OW 1144   2.577   2.057   0.532  0.6542  0.2066 -0.3119
  382SOL    HW1 1145   2.478   2.073   0.535  1.5830 -2.0610  1.2706
  382SOL    HW2 1146   2.599   1.983   0.599 -0.3457 -1.9971  0.4795
  383SOL     OW 1147   2.437   1.740   2.023  0.2096 -0.2634  0.2216
  383SOL    HW1 1148   2.471   1.724   2.118  0.5107  1.1726 -1.1742
  383SOL    HW2 1149   2.426   1.840   2.008  0.7022 -1.1553  1.6835
  384SOL     OW 1150   0.296   1.968   2.300  0.0622  1.0780 -0.3923
  384SOL    HW1 1151   0.381   2.024   2.316 -1.6684  0.1206 -0.1546
  384SOL    HW2 1152   0.307   1.907   2.216  1.9798 -1.4647  0.6080
  385SOL     OW 1153   2.859   2.407   0.835  0.2997 -0.1744  0.4795
  385SOL    HW1 1154   2.793   2.485   0.824 -0.7308 -1.8847  0.5559
  385SOL    HW2 1155   2.956   2.433   0.817  0.4458 -0.2768  0.6702
  386SOL     OW 1156   1.867   0.695   0.558  0.2303 -0.4845  0.1075
  386SOL    HW1 1157   1.811   0.780   0.571 -2.4623 -1.2536 -1.3969
  386SOL    HW2 1158   1.935   0.711   0.488 -2.2704 -0.2420  1.2374
  387SOL     OW 1159   0.337   0.732   1.826 -0.2671  0.2189  0.2265
  387SOL    HW1 1160   0.260   0.763   1.883  3.0459  0.2142 -1.4337
  387SOL    HW2 1161   0.421   0.765   1.876  2.4369 -0.6645 -0.3534
  388SOL     OW 1162   2.232   1.022   2.316  0.2868 -0.3483  0.3002
  388SOL    HW1 1163   2.241   1.112   2.359 -0.5947 -3.4569  0.2193
  388SOL    HW2 1164   2.145   0.979   2.351  0.7085 -2.4935  1.1491
  389SOL     OW 1165   1.667   1.205   1.861 -1.0725  0.3026  0.2303
  389SOL    HW1 1166   1.588   1.173   1.811  0.9429 -2.5132  1.4596
  389SOL    HW2 1167   1.724   1.278   1.819  1.4444  0.3397  3.2967
  390SOL     OW 1168   1.898   2.656   0.239 -0.2788 -0.9176 -0.2353
  390SOL    HW1 1169   1.975   2.725   0.238  0.7873  1.9481  1.2250
  390SOL    HW2 1170   1.827   2.691   0.175 -2.6862  0.7102  0.4554
  391SOL     OW 1171   2.070   2.290   1.331  0.3342 -0.4115 -0.0451
  391SOL    HW1 1172   2.086   2.391   1.313 -0.5607  1.7025  0.3644
  391SOL    HW2 1173   2.016   2.248   1.256 -1.5356 -0.7439 -1.6113
  392SOL     OW 1174   3.075   2.489   1.087  0.2817 -0.2843 -0.0585
  392SOL    HW1 1175   2.982   2.534   1.088 -0.7365 -2.4335  1.2322
  392SOL    HW2 1176   3.059   2.385   1.076  0.8517 -0.7576  2.7129
  393SOL     OW 1177   2.003   1.780   2.995 -0.2842 -0.3478  0.1177
  393SOL    HW1 1178   2.055   1.703   3.038  1.8422  0.3615 -0.0444
  393SOL    HW2 1179   1.994   1.763   2.892 -0.9670 -0.6378 -2.3630
  394SOL     OW 1180   3.072   0.096   0.038 -0.6566 -0.0344 -0.5366
  394SOL    HW1 1181   0.036   0.011   0.055  1.9779 -0.1821  1.3443
  394SOL    HW2 1182   3.081   0.124   3.037  0.3404 -2.0092 -0.2888
  395SOL     OW 1183   1.344   1.152   1.184  0.2372 -0.5088 -0.2301
  395SOL    HW1 1184   1.429   1.094   1.181 -0.4200  0.1827 -1.0502
  395SOL    HW2 1185   1.288   1.135   1.101  0.9526 -0.7767 -1.3760
  396SOL     OW 1186   1.632   0.891   3.038  0.4519 -0.2277 -0.1038
  396SOL    HW1 1187   1.621   0.991   3.033 -0.6542  0.7902 -1.9574
  396SOL    HW2 1188   1.563   0.844   2.977  2.3006  0.4503 -0.0283
  397SOL     OW 1189   0.063   0.816   2.726 -0.0470  0.3479  0.2725
  397SOL    HW1 1190   3.071   0.790   2.674 -2.9066  0.0178  1.8608
  397SOL    HW2 1191   0.121   0.871   2.664 -1.7923  0.1147 -2.0380
  398SOL     OW 1192   0.886   0.373   3.039  0.1297  0.2731  0.2421
  398SOL    HW1 1193   0.808   0.423   3.079  1.9725 -2.3826  0.0338
  398SOL    HW2 1194   0.974   0.420   3.048 -1.6967 -1.0009 -0.9108
  399SOL     OW 1195   2.710   2.924   1.969 -0.1787 -0.0961  0.4914
  399SOL    HW1 1196   2.717   2.964   1.875 -3.2188  0.0909 -1.8849
  399SOL    HW2 1197   2.713   2.824   1.967 -0.8261  1.2215  0.8078
  400SOL     OW 1198   0.257   1.644   2.208 -0.4224 -0.3659  0.1378
  400SOL    HW1 1199   0.326   1.655   2.280  1.0079  0.6431 -0.1493
  400SOL    HW2 1200   0.168   1.606   2.241 -0.4091  4.5177  0.7104
  401SOL     OW 1201   0.683   0.454   2.698 -0.1544 -0.0857 -0.0878
  401SOL    HW1 1202   0.614   0.457   2.774 -2.3080 -0.9989 -0.4762
  401SOL    HW2 1203   0.759   0.394   2.733  1.6659 -2.3813 -1.4339
  402SOL     OW 1204   0.273   2.080   1.728  0.5358  0.1059 -0.5928
  402SOL    HW1 1205   0.281   2.008   1.801 -0.2758 -0.5496  0.6716
  402SOL    HW2 1206   0.344   2.065   1.659  1.2062 -1.0666  0.1892
  403SOL     OW 1207   0.685   1.088   1.437 -0.6655 -0.5607  0.7346
  403SOL    HW1 1208   0.660   0.989   1.438  1.2852  2.9276 -0.0445
  403SOL    HW2 1209   0.730   1.102   1.529 -0.8172  1.3182 -1.1391
  404SOL     OW 1210   2.785   2.498   1.530 -0.2254 -0.3037 -0.0760
  404SOL    HW1 1211   2.781   2.598   1.511 -2.2234  2.1603  0.8100
  404SOL    HW2 1212   2.789   2.452   1.440 -2.4130  0.4603  0.1378
  405SOL     OW 1213   0.040   0.263   1.755 -0.2595 -0.4860  0.2175
  405SOL    HW1 1214   0.049   0.313   1.844  0.9300  0.7004 -1.2374
  405SOL    HW2 1215   0.117   0.198   1.747 -0.7385  1.4134 -0.3553
  406SOL     OW 1216   1.659   2.555   2.967 -0.1382  0.3206  0.2686
  406SOL    HW1 1217   1.712   2.478   3.006 -0.8579  2.0891 -2.9325
  406SOL    HW2 1218   1.638   2.550   2.864  0.1972  1.4883 -2.3241
  407SOL     OW 1219   1.436   1.188   1.682  0.3536  0.2134 -0.5506
  407SOL    HW1 1220   1.496   1.263   1.652  1.4372 -0.3473  1.0426
  407SOL    HW2 1221   1.343   1.194   1.642 -0.7268  2.4110 -2.4547
  408SOL     OW 1222   0.713   0.077   2.581 -0.2232  0.2050  0.1074
  408SOL    HW1 1223   0.648   0.132   2.527 -0.2629  1.3799  2.2585
  408SOL    HW2 1224   0.805   0.106   2.556 -0.7829  2.4690 -0.2280
  409SOL     OW 1225   2.917   2.510   0.484 -0.1219  0.0716 -0.0925
  409SOL    HW1 1226   2.824   2.481   0.455 -0.8275 -1.0654 -0.1686
  409SOL    HW2 1227   2.982   2.437   0.459  1.2544 -0.0843  0.8374
  410SOL     OW 1228   2.423   1.745   0.462 -0.6877 -0.5144 -0.1623
  410SOL    HW1 1229   2.483   1.713   0.542  1.7971  0.0529  2.6671
  410SOL    HW2 1230   2.476   1.794   0.385 -0.0444  1.2184 -2.8448
  411SOL     OW 1231   3.050   0.541   1.008  0.1729 -0.0366  0.1784
  411SOL    HW1 1232   3.090   0.452   0.970  1.0613  0.7854  1.5876
  411SOL    HW2 1233   0.014   0.620   0.981 -2.5772 -1.8019  2.7874
  412SOL     OW 1234   1.486   0.291   0.819 -0.3513 -0.4696  0.2270
  412SOL    HW1 1235   1.474   0.224   0.898  0.3988 -2.0681  1.0287
  412SOL    HW2 1236   1.472   0.391   0.846  1.2927  1.4937 -3.7816
  413SOL     OW 1237   0.927   0.335   1.012  1.0136  0.4962 -0.4753
  413SOL    HW1 1238   0.840   0.281   0.988 -1.2044  1.6361 -0.1945
  413SOL    HW2 1239   0.922   0.365   1.110  0.2524 -0.1894 -0.6476
  414SOL     OW 1240   0.303   1.615   3.022 -0.5614  0.3438 -0.1085
  414SOL    HW1 1241   0.264   1.628   2.928 -1.6475 -2.5207 -0.0438
  414SOL    HW2 1242   0.343   1.521   3.028 -2.3374  0.5189  0.5855
  415SOL     OW 1243   0.404   2.217   0.094  0.3495 -0.2909  0.4733
  415SOL    HW1 1244   0.507   2.206   0.086  0.8779 -0.2710  2.5790
  415SOL    HW2 1245   0.371   2.279   0.019 -2.0857  1.7948 -1.6881
  416SOL     OW 1246   1.550   0.747   0.428 -0.3083  0.6937  0.0805
  416SOL    HW1 1247   1.540   0.653   0.469 -0.0388 -5.0148  0.8896
  416SOL    HW2 1248   1.586   0.743   0.333  2.2181 -4.9811 -0.9765
  417SOL     OW 1249   0.195   0.911   0.446 -0.8615  0.5456  0.0627
  417SOL    HW1 1250   0.110   0.884   0.401  2.1535  0.9333  0.0156
  417SOL    HW2 1251   0.205   0.860   0.534 -0.2801 -0.3720 -0.6963
  418SOL     OW 1252   2.480   1.348   2.387  0.1247 -0.0714 -0.4653
  418SOL    HW1 1253   2.487   1.308   2.292  2.2042 -0.8074 -0.0650
  418SOL    HW2 1254   2.385   1.331   2.429 -0.1592 -2.4972  0.0624
  419SOL     OW 1255   0.299   0.459   2.995  0.5725 -0.7069 -0.3110
  419SOL    HW1 1256   0.265   0.375   3.039 -1.1179 -2.2506 -0.7031
  419SOL    HW2 1257   0.238   0.489   2.919  0.6634 -0.3589 -1.7020
  420SOL     OW 1258   0.273   1.502   0.775 -0.7223 -0.5337  0.1643
  420SOL    HW1 1259   0.267   1.565   0.859  1.8807  1.4030  1.1227
  420SOL    HW2 1260   0.181   1.477   0.749  1.4924  1.7032  2.2090
  421SOL     OW 1261   0.660   2.138   0.668  0.3103  0.8305  0.2835
  421SOL    HW1 1262   0.684   2.233   0.693  0.3057  0.2394  1.9881
  421SOL    HW2 1263   0.674   2.122   0.571  3.5596  1.6915  1.4484
  422SOL     OW 1264   2.877   0.794   1.386 -0.4967 -0.2180 -0.3256
  422SOL    HW1 1265   2.963   0.843   1.400 -0.6912  1.0739  0.9206
  422SOL    HW2 1266   2.890   0.715   1.324 -0.1110  2.7586 -0.1577
  423SOL     OW 1267   1.570   1.429   1.290 -0.5907  0.7407  0.2823
  423SOL    HW1 1268   1.578   1.368   1.204  0.9163 -2.5837 -2.8304
  423SOL    HW2 1269   1.575   1.386   1.383 -1.5101  1.2245 -0.6126
  424SOL     OW 1270   1.740   0.908   0.291 -0.2165  0.3100 -0.6797
  424SOL    HW1 1271   1.695   0.995   0.258 -4.3485  2.4487 -0.2820
  424SOL    HW2 1272   1.793   0.862   0.218 -1.8856 -0.5426  1.4246
  425SOL     OW 1273   3.022   0.046   2.027 -0.4320  0.3791 -0.5269
  425SOL    HW1 1274   3.050   0.133   2.075  2.4939  2.6709  0.3466
  425SOL    HW2 1275   2.958   3.088   2.082 -0.5624 -0.1175 -0.4834
  426SOL     OW 1276   2.394   2.911   2.550 -0.0235 -0.2985 -0.4562
  426SOL    HW1 1277   2.442   2.942   2.638 -0.4922  3.3746  0.1558
  426SOL    HW2 1278   2.354   2.993   2.508 -0.2569  2.7222 -0.6182
  427SOL     OW 1279   1.114   0.772   2.417 -0.1002 -0.1047  0.6750
  427SOL    HW1 1280   1.015   0.745   2.398 -0.7885  1.0265  0.4835
  427SOL    HW2 1281   1.129   0.769   2.521  3.7849 -1.1856  4.2774
  428SOL     OW 1282   2.130   1.112   2.080 -0.4356  0.1929  0.7495
  428SOL    HW1 1283   2.170   1.085   2.165 -1.6275  1.5009 -1.2941
  428SOL    HW2 1284   2.125   1.040   2.009  0.4297 -0.3685  0.6927
  429SOL     OW 1285   2.603   0.137   0.653  0.2410  0.7995  0.2374
  429SOL    HW1 1286   2.615   0.152   0.555  1.6725  2.0106 -0.2136
  429SOL    HW2 1287   2.686   0.176   0.705  0.9148  1.2745 -2.1919
  430SOL     OW 1288   1.957   1.249   2.254  0.1989 -0.6407  0.2516
  430SOL    HW1 1289   2.020   1.222   2.184 -1.5939  3.5689  0.7427
  430SOL    HW2 1290   1.863   1.235   2.219 -2.2452 -0.9103  0.5479
  431SOL     OW 1291   3.087   1.985   1.043 -0.1828 -0.2128  0.4916
  431SOL    HW1 1292   3.073   2.075   1.084 -0.7352 -4.9717 -1.4936
  431SOL    HW2 1293   0.006   1.910   1.108 -3.3156  2.4863 -1.9392
  432SOL     OW 1294   1.522   2.891   2.166  0.1323  0.4033 -0.0349
  432SOL    HW1 1295   1.481   2.976   2.199  2.9261 -2.2492 -1.6001
  432SOL    HW2 1296   1.609   2.922   2.123 -3.7009  1.9942 -0.9120
  433SOL     OW 1297   1.583   0.015   1.823 -0.3934  0.5537  0.1787
  433SOL    HW1 1298   1.502   3.069   1.782  1.5797  0.2767  0.7062
  433SOL    HW2 1299   1.628   3.037   1.882  2.5571 -0.8667  2.4090
  434SOL     OW 1300   0.340   2.614   2.321 -0.4895 -0.0689 -0.4007
  434SOL    HW1 1301   0.387   2.702   2.322 -0.6937 -0.8838  0.9340
  434SOL    HW2 1302   0.237   2.628   2.326  0.9312 -0.7083  0.8063
  435SOL     OW 1303   0.124   2.124   0.391 -0.0799  0.6399 -0.1637
  435SOL    HW1 1304   0.171   2.069   0.317 -0.0858  1.7456  0.0864
  435SOL    HW2 1305   0.046   2.070   0.416  1.1715  3.3285 -0.0263
  436SOL     OW 1306   0.873   0.801   1.611  0.1192 -0.1614 -0.2199
  436SOL    HW1 1307   0.955   0.740   1.592  1.3171 -1.2389  0.7474
  436SOL    HW2 1308   0.813   0.816   1.529 -0.3539  0.7935 -2.4505
  437SOL     OW 1309   0.777   0.378   2.220  0.0206  0.6097  0.5176
  437SOL    HW1 1310   0.850   0.377   2.291 -1.7947 -0.2959 -0.2979
  437SOL    HW2 1311   0.695   0.331   2.258  0.0139  0.4591 -1.6470
  438SOL     OW 1312   0.476   1.767   1.727 -0.2031 -0.1661  0.3191
  438SOL    HW1 1313   0.542   1.845   1.745  1.9754  0.6308 -0.1224
  438SOL    HW2 1314   0.450   1.722   1.818  0.8738 -0.1664  3.4308
  439SOL     OW 1315   1.863   0.819   0.076  0.3663  0.0633  0.5327
  439SOL    HW1 1316   1.777   0.827   0.025  1.8803 -0.2169  0.0530
  439SOL    HW2 1317   1.920   0.904   0.082 -1.0626  1.2506  0.6198
  440SOL     OW 1318   0.915   0.916   0.360  0.1679 -0.0586 -0.1637
  440SOL    HW1 1319   0.967   0.828   0.378 -1.1283 -1.9767  1.0583
  440SOL    HW2 1320   0.812   0.897   0.373 -2.8790 -1.7841 -0.3434
  441SOL     OW 1321   0.596   2.348   1.741 -0.0192  0.2537 -0.1552
  441SOL    HW1 1322   0.668   2.339   1.810 -0.2193 -0.3576 -1.2339
  441SOL    HW2 1323   0.567   2.259   1.701  0.4868 -3.5887  0.9249
  442SOL     OW 1324   2.814   2.158   0.716  0.0538 -0.5352 -0.2168
  442SOL    HW1 1325   2.844   2.244   0.756  0.6499 -0.3887  0.9699
  442SOL    HW2 1326   2.772   2.166   0.622 -1.1631 -1.6597 -1.5407
  443SOL     OW 1327   2.808   1.898   2.689 -0.0080  0.6570  0.2847
  443SOL    HW1 1328   2.733   1.885   2.619 -0.8105 -2.4204 -0.0054
  443SOL    HW2 1329   2.866   1.813   2.715  3.5221 -1.1743 -1.2825
  444SOL     OW 1330   1.342   1.102   0.203 -0.2418 -0.4548 -0.6369
  444SOL    HW1 1331   1.354   0.999   0.222 -1.4855 -2.7678 -1.5646
  444SOL    HW2 1332   1.294   1.144   0.286 -0.4754 -0.0521  2.4193
  445SOL     OW 1333   2.690   2.680   1.755 -0.0923  0.6598  0.2054
  445SOL    HW1 1334   2.788   2.704   1.765 -0.4420  0.8049  0.3627
  445SOL    HW2 1335   2.678   2.578   1.766 -1.2521 -0.5017 -0.3360
  446SOL     OW 1336   2.793   1.152   0.556 -0.0692  0.6075  0.1570
  446SOL    HW1 1337   2.696   1.155   0.519 -0.2454  4.0377  0.2472
  446SOL    HW2 1338   2.852   1.080   0.510 -1.7163  0.4059  0.5967
  447SOL     OW 1339   0.817   2.260   1.468  0.4255  0.0859 -0.4359
  447SOL    HW1 1340   0.719   2.238   1.493  3.6724  1.0910 -1.2367
  447SOL    HW2 1341   0.839   2.356   1.484  2.5617  0.3053 -0.7146
  448SOL     OW 1342   1.346   1.542   1.647  0.2635  0.2473  0.2693
  448SOL    HW1 1343   1.377   1.505   1.735  0.9359  0.4378  0.4901
  448SOL    HW2 1344   1.242   1.533   1.641 -1.6653 -2.1028 -0.1189
  449SOL     OW 1345   3.075   2.260   2.405  0.1436 -0.6717  0.3465
  449SOL    HW1 1346   2.989   2.224   2.449 -3.5026 -0.5983  2.3655
  449SOL    HW2 1347   3.057   2.322   2.330  1.0951 -0.2051 -0.5480
  450SOL     OW 1348   3.060   1.771   2.171  0.3223  0.1621 -0.2863
  450SOL    HW1 1349   3.059   1.863   2.217 -0.1779 -2.2021 -1.1502
  450SOL    HW2 1350   3.093   1.783   2.076  0.0802 -3.1717  0.4032
  451SOL     OW 1351   2.185   0.671   1.669  0.3488  0.6490  0.5661
  451SOL    HW1 1352   2.129   0.752   1.632 -0.6416 -0.7697  1.6522
  451SOL    HW2 1353   2.284   0.697   1.662 -0.0847 -1.3295 -0.0695
  452SOL     OW 1354   0.813   1.215   0.907  0.1983 -0.7460  0.9717
  452SOL    HW1 1355   0.825   1.288   0.976 -1.8474 -2.4522 -1.0080
  452SOL    HW2 1356   0.715   1.202   0.900  4.3175  3.2949  0.7346
  453SOL     OW 1357   1.355   2.223   0.692 -0.0774  0.0686 -0.1625
  453SOL    HW1 1358   1.388   2.284   0.770 -2.1184  0.4699  0.2593
  453SOL    HW2 1359   1.428   2.181   0.630  3.0593 -2.0526 -0.6273
  454SOL     OW 1360   0.157   1.589   0.177 -0.0101 -0.3076  0.3915
  454SOL    HW1 1361   0.240   1.562   0.230 -1.9037  1.6679  1.5108
  454SOL    HW2 1362   0.186   1.620   0.087 -0.8655 -1.8898 -0.7861
  455SOL     OW 1363   0.967   1.164   0.277  0.1512 -0.6948  0.3707
  455SOL    HW1 1364   0.951   1.064   0.297  0.4291 -1.4491  1.6862
  455SOL    HW2 1365   1.040   1.201   0.336  1.6715  0.4046  1.8712
  456SOL     OW 1366   1.753   2.657   0.830 -0.5149 -0.5493 -0.3280
  456SOL    HW1 1367   1.815   2.713   0.765  0.9998 -0.2654 -0.4642
  456SOL    HW2 1368   1.693   2.590   0.786 -0.7006  1.3098 -0.2387
  457SOL     OW 1369   1.504   3.013   0.135  0.3013 -0.2628  0.0610
  457SOL    HW1 1370   1.560   0.000   0.164  2.5900 -2.1105 -2.9608
  457SOL    HW2 1371   1.444   3.038   0.051 -1.1605  0.5736 -3.2802
  458SOL     OW 1372   2.468   0.616   0.324 -0.1877  0.3969 -1.0530
  458SOL    HW1 1373   2.418   0.623   0.413 -0.1429  0.4089  0.8751
  458SOL    HW2 1374   2.502   0.709   0.298  0.7267 -0.9831 -0.3022
  459SOL     OW 1375   2.387   0.449   2.387 -0.0476  0.1093 -0.1817
  459SOL    HW1 1376   2.345   0.510   2.453 -1.6072 -1.9062 -0.1720
  459SOL    HW2 1377   2.474   0.486   2.348 -1.4507  1.3476 -2.1096
  460SOL     OW 1378   2.784   0.607   2.776 -0.4197 -0.6850 -0.0933
  460SOL    HW1 1379   2.804   0.576   2.873 -0.7353 -2.3114  0.8734
  460SOL    HW2 1380   2.695   0.662   2.777 -0.3048  2.6382 -0.2126
  461SOL     OW 1381   0.079   2.454   0.758 -0.5686  0.0877 -0.3412
  461SOL    HW1 1382   0.094   2.376   0.828  1.1513 -0.2375  0.8507
  461SOL    HW2 1383   0.119   2.427   0.666  0.8450  1.6723  0.8016
  462SOL     OW 1384   2.817   2.723   1.409 -0.2317  0.2548 -0.2687
  462SOL    HW1 1385   2.742   2.772   1.352 -1.0668  0.8471 -2.4208
  462SOL    HW2 1386   2.911   2.734   1.378  1.1005 -0.8348  2.1775
  463SOL     OW 1387   2.290   1.789   2.784  0.0040  0.0350  0.2189
  463SOL    HW1 1388   2.310   1.858   2.711  0.9283  0.7483 -0.2152
  463SOL    HW2 1389   2.335   1.699   2.770 -0.6802  0.5321 -1.2078
  464SOL     OW 1390   0.611   2.558   1.569 -0.2783 -0.1697  0.2191
  464SOL    HW1 1391   0.608   2.467   1.623 -2.3472 -0.3415  2.4103
  464SOL    HW2 1392   0.548   2.624   1.617 -0.3790  2.2415  1.6227
  465SOL     OW 1393   1.000   2.942   1.587 -0.2770 -0.1429  0.0494
  465SOL    HW1 1394   1.061   2.908   1.659 -0.1241 -1.9659  2.8536
  465SOL    HW2 1395   1.015   3.042   1.563  0.8689 -0.0787  1.2393
  466SOL     OW 1396   1.494   2.585   1.944 -0.3924 -0.9059 -0.3173
  466SOL    HW1 1397   1.580   2.620   1.990 -0.0554  2.0101 -1.1208
  466SOL    HW2 1398   1.418   2.636   1.989 -0.1345 -1.5345  3.6658
  467SOL     OW 1399   0.965   2.128   1.254 -0.6447  0.5364  0.2487
  467SOL    HW1 1400   0.909   2.057   1.218  2.3494  2.6754  1.3790
  467SOL    HW2 1401   0.916   2.174   1.332 -1.4742 -0.1873 -2.0272
  468SOL     OW 1402   2.700   1.469   2.145 -0.1255 -0.4311 -0.3236
  468SOL    HW1 1403   2.657   1.506   2.066  0.5956 -2.5101  0.4374
  468SOL    HW2 1404   2.682   1.373   2.156 -2.2730  3.0318 -3.9757
  469SOL     OW 1405   0.854   1.897   0.727 -0.0425  0.5347  0.6213
  469SOL    HW1 1406   0.813   1.924   0.817  0.6588  0.7651 -1.1785
  469SOL    HW2 1407   0.908   1.809   0.732  2.7380 -2.8442  0.2138
  470SOL     OW 1408   1.810   1.450   1.774 -0.1224  0.0500 -0.0087
  470SOL    HW1 1409   1.871   1.486   1.702 -2.7262  0.1129  1.7240
  470SOL    HW2 1410   1.856   1.444   1.864 -2.0141  2.3130 -0.3880
  471SOL     OW 1411   0.650   2.417   0.011  0.4738 -0.4851  0.0406
  471SOL    HW1 1412   0.569   2.478   0.032 -1.7825 -1.3155  0.6769
  471SOL    HW2 1413   0.718   2.420   0.088 -1.0387 -1.8653  0.4051
  472SOL     OW 1414   3.081   2.724   2.076  0.1210  0.0618  0.4142
  472SOL    HW1 1415   0.074   2.726   2.126 -0.9999  0.5867 -0.2075
  472SOL    HW2 1416   3.084   2.794   2.003  2.4940 -0.6221 -1.1313
  473SOL     OW 1417   0.824   2.692   0.194  0.1763 -0.2584 -0.2153
  473SOL    HW1 1418   0.822   2.591   0.197 -1.1197 -0.0489  0.3550
  473SOL    HW2 1419   0.776   2.723   0.113 -2.2007 -0.1387 -1.1111
  474SOL     OW 1420   2.703   2.606   0.863  0.2293 -0.3079 -0.0025
  474SOL    HW1 1421   2.622   2.578   0.915  1.8865 -1.5808  0.9178
  474SOL    HW2 1422   2.671   2.641   0.771 -0.1266  1.8346 -0.8379
  475SOL     OW 1423   2.205   2.965   1.825  0.2393  0.0369 -0.0188
  475SOL    HW1 1424   2.235   2.932   1.732 -1.4673 -1.7137 -1.3178
  475SOL    HW2 1425   2.105   2.992   1.823  0.0970  1.4802  0.0954
  476SOL     OW 1426   0.496   1.291   0.634  0.3259  0.0622  0.1785
  476SOL    HW1 1427   0.433   1.321   0.706 -2.2118 -0.2273 -3.2386
  476SOL    HW2 1428   0.543   1.203   0.668  3.6157 -1.0613 -1.1440
  477SOL     OW 1429   0.386   1.883   0.763 -0.5445  0.5695  0.3926
  477SOL    HW1 1430   0.351   1.955   0.702  0.1729 -0.6025  0.8055
  477SOL    HW2 1431   0.478   1.857   0.730 -1.1221  1.4194  2.5674
  478SOL     OW 1432   0.089   2.686   2.343  0.2998  0.7740 -0.3828
  478SOL    HW1 1433   0.055   2.779   2.335  2.4816  0.6286  1.3271
  478SOL    HW2 1434   0.041   2.632   2.415 -0.3942  3.0840  1.9769
  479SOL     OW 1435   0.247   0.209   1.430 -0.3512  0.2645 -0.2744
  479SOL    HW1 1436   0.273   0.253   1.518  2.6334  0.4598  0.4598
  479SOL    HW2 1437   0.174   0.261   1.382  0.6889 -0.7284  0.2673
  480SOL     OW 1438   2.860   2.470   0.006  0.4054  0.4283 -1.0463
  480SOL    HW1 1439   2.839   2.378   3.059 -1.0661  0.8611 -0.7409
  480SOL    HW2 1440   2.793   2.489   0.082  1.1244  2.1693  2.2971
  481SOL     OW 1441   2.316   2.007   1.674 -0.2999  0.0472  0.6911
  481SOL    HW1 1442   2.293   1.907   1.675  0.8897  2.4091 -2.9964
  481SOL    HW2 1443   2.294   2.037   1.579  0.3797  1.4821 -3.0547
  482SOL     OW 1444   1.714   2.265   2.631 -0.0339  0.4544 -0.3804
  482SOL    HW1 1445   1.673   2.171   2.621 -1.8708  3.1676 -0.0277
  482SOL    HW2 1446   1.777   2.287   2.552 -1.1020 -2.3667 -2.6253
  483SOL     OW 1447   0.700   1.750   2.350  0.1262  0.3052  0.2473
  483SOL    HW1 1448   0.721   1.654   2.372  0.0715 -1.4377  0.4609
  483SOL    HW2 1449   0.721   1.767   2.250 -0.8867  2.3210  0.7658
  484SOL     OW 1450   0.041   0.309   1.289  0.3107 -0.0787  0.1314
  484SOL    HW1 1451   0.016   0.223   1.236  2.3679 -0.5662 -0.3780
  484SOL    HW2 1452   3.078   0.329   1.372 -2.2699  0.6487 -1.8261
  485SOL     OW 1453   2.047   1.010   0.542 -0.0001  0.1550 -0.3614
  485SOL    HW1 1454   2.089   1.089   0.496 -2.5102  0.9345  1.6854
  485SOL    HW2 1455   1.943   1.013   0.542 -3.1468  1.0861 -0.6895
  486SOL     OW 1456   1.446   0.056   2.246  0.1325 -0.1312  0.1934
  486SOL    HW1 1457   1.427   0.110   2.159  3.6362  1.1282 -1.8515
  486SOL    HW2 1458   1.502   0.113   2.313 -0.5102 -0.4794  2.1218
  487SOL     OW 1459   0.857   1.757   1.215 -0.0822 -0.3098 -0.5492
  487SOL    HW1 1460   0.847   1.699   1.299  0.0050  1.7220  0.6203
  487SOL    HW2 1461   0.950   1.763   1.175 -3.3400 -0.3047  0.8871
  488SOL     OW 1462   2.390   1.348   0.031  0.2426 -0.3298 -0.1710
  488SOL    HW1 1463   2.472   1.388   3.077 -2.6811  2.0807  1.4437
  488SOL    HW2 1464   2.353   1.405   0.108 -0.7797  3.6483  1.6789
  489SOL     OW 1465   2.233   3.022   0.388 -0.7442 -0.0256  0.2985
  489SOL    HW1 1466   2.196   3.018   0.486  1.5114  0.5253 -0.4503
  489SOL    HW2 1467   2.162   3.058   0.327  2.8317 -1.0455  2.3792
  490SOL     OW 1468   1.283   2.776   0.195 -0.1025 -0.3588  0.2346
  490SOL    HW1 1469   1.303   2.771   0.094  1.4321 -2.7030 -1.7921
  490SOL    HW2 1470   1.375   2.772   0.240 -0.6338 -4.1472 -0.5425
  491SOL     OW 1471   1.182   1.058   1.000 -0.5666  0.3212 -0.5354
  491SOL    HW1 1472   1.101   1.014   1.040  2.6588  1.8106 -1.2270
  491SOL    HW2 1473   1.169   1.153   0.963 -1.8832  0.7161  2.1055
  492SOL     OW 1474   1.284   0.227   2.911  0.1688  0.0420 -0.0815
  492SOL    HW1 1475   1.380   0.238   2.872  0.3407  0.8010 -1.1591
  492SOL    HW2 1476   1.253   0.315   2.958  0.9839  1.0307  0.8898
  493SOL     OW 1477   1.874   2.038   3.026 -0.2125  0.0641  0.0570
  493SOL    HW1 1478   1.896   2.059   0.026  0.1899 -1.3224 -0.7947
  493SOL    HW2 1479   1.903   1.944   3.000  1.5525  0.4253 -2.4579
  494SOL     OW 1480   0.438   1.270   0.382  0.2259  0.0875  0.5482
  494SOL    HW1 1481   0.409   1.362   0.342  1.6952  0.4191 -1.3540
  494SOL    HW2 1482   0.477   1.281   0.479  0.8019 -0.5612  1.2538
  495SOL     OW 1483   0.001   2.689   0.642  0.9712  0.1670 -0.2400
  495SOL    HW1 1484   0.013   2.603   0.696  0.1651 -2.8447  2.2339
  495SOL    HW2 1485   3.028   2.672   0.569 -1.9928  2.0494 -0.0851
  496SOL     OW 1486   2.768   0.220   1.576  0.3223 -0.0144 -0.5480
  496SOL    HW1 1487   2.724   0.165   1.499 -0.9835 -1.4922 -4.2726
  496SOL    HW2 1488   2.776   0.173   1.663  2.0788 -1.5599  0.9629
  497SOL     OW 1489   2.242   1.255   2.483 -0.5108  0.0246 -0.4766
  497SOL    HW1 1490   2.285   1.243   2.573  0.2299 -0.6600 -2.0432
  497SOL    HW2 1491   2.154   1.311   2.495 -4.3188  1.2215 -0.6213
  498SOL     OW 1492   0.755   2.037   0.937 -0.0567 -0.2637 -0.5204
  498SOL    HW1 1493   0.687   2.071   0.871 -2.2416  0.2063  3.3417
  498SOL    HW2 1494   0.710   1.996   1.019  0.2200  0.4806  1.0078
  499SOL     OW 1495   0.888   2.146   1.714 -0.3103  0.1382  0.0835
  499SOL    HW1 1496   0.853   2.220   1.777  0.2021 -0.5229  0.9303
  499SOL    HW2 1497   0.874   2.170   1.616 -1.1960  0.1334  1.4682
  500SOL     OW 1498   1.024   1.996   0.170 -0.4404  0.0868 -0.4093
  500SOL    HW1 1499   1.000   1.929   0.246  0.7822  0.2812  1.2385
  500SOL    HW2 1500   1.121   2.034   0.187  0.0870  0.2398 -1.1093
  501SOL     OW 1501   2.584   2.844   1.312 -0.0548  0.6655 -0.2672
  501SOL    HW1 1502   2.482   2.849   1.291  0.3799 -0.1630 -1.4016
  501SOL    HW2 1503   2.630   2.889   1.231 -0.6896  0.1151  0.2066
  502SOL     OW 1504   2.988   0.377   1.548 -0.5527 -0.0129 -0.0909
  502SOL    HW1 1505   3.044   0.348   1.628  0.6057  4.0160 -0.1979
  502SOL    HW2 1506   2.908   0.307   1.533  1.0487 -3.2863 -1.7569
  503SOL     OW 1507   2.424   1.040   1.795  0.1042  0.0787 -0.2152
  503SOL    HW1 1508   2.494   1.051   1.864  0.7129 -0.2512 -0.5475
  503SOL    HW2 1509   2.383   1.128   1.758  0.7995 -0.8283  3.4911
  504SOL     OW 1510   1.327   0.724   1.560 -0.7290  0.3313 -1.0361
  504SOL    HW1 1511   1.390   0.646   1.575  0.0146 -1.5379  1.3741
  504SOL    HW2 1512   1.336   0.797   1.629 -0.5602  1.7294  1.8054
  505SOL     OW 1513   0.687   2.974   2.276  0.0101 -0.0731  0.4126
  505SOL    HW1 1514   0.753   2.900   2.246 -1.5329  1.2835  3.1907
  505SOL    HW2 1515   0.729   3.061   2.293 -1.8359 -3.0120  1.5789
  506SOL     OW 1516   0.113   0.349   0.896 -0.1366 -0.8337  0.1124
  506SOL    HW1 1517   0.076   0.328   0.801 -1.7119  0.5902 -1.3875
  506SOL    HW2 1518   0.211   0.332   0.900  0.5281  1.5645 -3.7910
  507SOL     OW 1519   1.626   0.426   2.960 -0.3969 -0.5602 -0.1089
  507SOL    HW1 1520   1.712   0.487   2.947  1.3286 -0.6136  2.2853
  507SOL    HW2 1521   1.634   0.339   3.016 -1.2394 -2.7447  1.1270
  508SOL     OW 1522   1.630   0.231   2.363  0.7405  0.2152  0.2143
  508SOL    HW1 1523   1.623   0.326   2.324  2.1046 -0.3996 -0.9606
  508SOL    HW2 1524   1.688   0.234   2.449  0.0869 -2.2143 -1.3788
  509SOL     OW 1525   0.728   1.166   2.005  0.1540 -0.0804 -0.6845
  509SOL    HW1 1526   0.810   1.211   1.979 -3.0302 -0.0960  0.2865
  509SOL    HW2 1527   0.746   1.098   2.076 -1.2687  2.9501  0.4876
  510SOL     OW 1528   3.055   0.998   0.720 -0.2703 -0.3990  0.0498
  510SOL    HW1 1529   2.984   0.952   0.776  0.4087  1.3795 -1.1017
  510SOL    HW2 1530   3.072   1.090   0.766  3.4618 -1.5185 -1.6200
  511SOL     OW 1531   1.771   2.097   1.121 -0.5153  0.2894  0.1915
  511SOL    HW1 1532   1.763   2.178   1.182  2.3868 -0.0240  0.3496
  511SOL    HW2 1533   1.810   2.132   1.035 -0.8202  0.2176  1.4570
  512SOL     OW 1534   0.117   1.758   0.381  0.3952  0.3304  0.0464
  512SOL    HW1 1535   0.097   1.684   0.313 -1.8046  1.9622  0.2452
  512SOL    HW2 1536   0.188   1.729   0.447  1.0422  0.1166 -1.0668
  513SOL     OW 1537   0.138   2.361   0.503  0.2426 -0.1308  0.4644
  513SOL    HW1 1538   0.139   2.267   0.456 -1.3269 -2.0600  1.3245
  513SOL    HW2 1539   0.114   2.427   0.430 -0.1372 -0.7399 -2.6254
  514SOL     OW 1540   2.368   1.923   2.552  0.3284  0.3176  0.5276
  514SOL    HW1 1541   2.378   2.025   2.555 -0.1476  2.0261  0.3812
  514SOL    HW2 1542   2.331   1.886   2.464  0.0249  0.1844 -0.9612
  515SOL     OW 1543   2.162   1.207   0.397  0.1234 -0.3551  0.6899
  515SOL    HW1 1544   2.202   1.176   0.311 -1.3586 -2.6779  1.4261
  515SOL    HW2 1545   2.231   1.246   0.465  1.8807 -0.6595  1.9628
  516SOL     OW 1546   1.965   0.075   0.641 -0.1063 -0.6706  0.1825
  516SOL    HW1 1547   1.952   0.146   0.711 -0.3843 -2.7126 -0.3405
  516SOL    HW2 1548   2.042   0.010   0.660  0.7285  0.4440 -2.7696
  517SOL     OW 1549   0.948   2.200   2.823 -0.0612 -0.0620  0.4755
  517SOL    HW1 1550   0.897   2.189   2.909 -1.7073 -1.9440  1.2825
  517SOL    HW2 1551   0.880   2.217   2.743 -3.5284  3.5233 -2.4741
  518SOL     OW 1552   0.623   0.518   2.020  0.2692 -0.3824  0.6092
  518SOL    HW1 1553   0.707   0.498   2.071  0.7108  0.7043  0.8793
  518SOL    HW2 1554   0.644   0.507   1.919 -1.2749  2.6483  2.0271
  519SOL     OW 1555   2.882   1.172   0.193 -0.1356  0.5003 -0.1255
  519SOL    HW1 1556   2.968   1.225   0.206  0.6339  0.0675 -1.8740
  519SOL    HW2 1557   2.890   1.096   0.124 -3.2554 -0.6967 -0.7452
  520SOL     OW 1558   2.569   2.060   1.681  0.4659  0.2692  0.1079
  520SOL    HW1 1559   2.470   2.047   1.675 -0.1069 -2.4547 -0.0907
  520SOL    HW2 1560   2.591   2.155   1.689 -0.2230 -1.0632 -1.2840
  521SOL     OW 1561   0.759   2.571   2.165 -0.1969 -0.0715 -0.3035
  521SOL    HW1 1562   0.758   2.563   2.266 -0.7807  2.0979 -1.9551
  521SOL    HW2 1563   0.665   2.554   2.124  0.7501  0.7449 -2.0839
  522SOL     OW 1564   1.789   0.088   2.176  0.3228 -0.5711 -0.1242
  522SOL    HW1 1565   1.831   0.028   2.250  1.1255 -2.2386 -1.0644
  522SOL    HW2 1566   1.720   0.148   2.215  0.9247 -0.1041  1.8288
  523SOL     OW 1567   1.711   1.849   1.095  0.1399  0.4120  0.4186
  523SOL    HW1 1568   1.751   1.939   1.128 -0.1202  1.1164 -0.2327
  523SOL    HW2 1569   1.674   1.795   1.175  1.0538  0.4659 -1.2122
  524SOL     OW 1570   0.940   2.493   0.494 -0.1762 -0.0414  0.0841
  524SOL    HW1 1571   0.967   2.590   0.473  1.0221 -2.1406 -2.4621
  524SOL    HW2 1572   0.959   2.455   0.589  2.0750  3.2127 -0.3609
  525SOL     OW 1573   2.852   0.315   0.266  0.0356  0.3224  0.1825
  525SOL    HW1 1574   2.783   0.391   0.252  1.5381  1.1149 -0.9959
  525SOL    HW2 1575   2.930   0.331   0.198  1.0001  1.4700 -2.3461
  526SOL     OW 1576   0.781   0.021   0.519 -0.1022 -0.0015  0.2863
  526SOL    HW1 1577   0.760   3.022   0.553  0.1960 -0.3059 -0.0214
  526SOL    HW2 1578   0.758   0.027   0.420 -0.0809 -0.2524  0.5857
  527SOL     OW 1579   2.546   1.848   0.744 -0.1159 -0.1550 -0.5072
  527SOL    HW1 1580   2.650   1.858   0.763  2.7668 -1.6661  1.1547
  527SOL    HW2 1581   2.501   1.902   0.819  0.8713  1.1469 -0.9048
  528SOL     OW 1582   2.815   0.575   2.178  0.0132  0.4937  0.1069
  528SOL    HW1 1583   2.883   0.579   2.258 -0.5764 -1.2677 -0.9812
  528SOL    HW2 1584   2.839   0.493   2.119  0.4983  0.6377  1.4393
  529SOL     OW 1585   1.165   1.703   2.454 -0.2613 -0.4984  0.1459
  529SOL    HW1 1586   1.241   1.635   2.469 -0.4440 -0.4646  0.2648
  529SOL    HW2 1587   1.125   1.728   2.549 -0.7614 -3.8260  2.9834
  530SOL     OW 1588   1.654   1.027   2.321  0.2876 -0.2785  0.4462
  530SOL    HW1 1589   1.590   1.073   2.260  1.9407 -1.8480  1.6558
  530SOL    HW2 1590   1.710   0.960   2.266 -2.2737  3.1097 -0.2783
  531SOL     OW 1591   0.652   1.958   2.527  0.3564  0.0455  0.5632
  531SOL    HW1 1592   0.683   1.875   2.482  1.6963  3.1540  1.2260
  531SOL    HW2 1593   0.616   1.925   2.617  0.5615  0.9441 -2.2599
  532SOL     OW 1594   1.902   1.328   0.377  0.0176  0.2297 -0.1647
  532SOL    HW1 1595   1.989   1.270   0.392  2.3531 -0.2588  2.1412
  532SOL    HW2 1596   1.907   1.418   0.418 -1.1459  0.7361 -0.9539
  533SOL     OW 1597   0.337   0.110   1.795  0.3535 -0.4286  0.3232
  533SOL    HW1 1598   0.416   0.110   1.736 -0.3753  0.4738 -0.0551
  533SOL    HW2 1599   0.285   0.024   1.785 -2.2072 -0.2975  0.2980
  534SOL     OW 1600   0.468   0.100   2.994 -0.1373  0.6538  0.2413
  534SOL    HW1 1601   0.372   0.082   2.968  1.7487 -0.1914  0.2874
  534SOL    HW2 1602   0.473   0.147   3.083 -0.4793  0.5449 -1.2849
  535SOL     OW 1603   0.211   0.150   0.537 -0.3553 -0.2054  0.0953
  535SOL    HW1 1604   0.313   0.174   0.547  3.1001  0.6145  2.6696
  535SOL    HW2 1605   0.191   0.055   0.508  0.0928 -0.4007  0.4361
  536SOL     OW 1606   0.375   1.489   1.565  0.7742 -0.8227  0.0191
  536SOL    HW1 1607   0.363   1.386   1.556  0.4199 -3.0988  1.7951
  536SOL    HW2 1608   0.435   1.526   1.493 -0.4575  1.3370 -0.5788
  537SOL     OW 1609   1.138   2.674   1.570 -0.0371 -0.0835 -0.4273
  537SOL    HW1 1610   1.151   2.735   1.651 -0.7441 -2.0421 -3.2678
  537SOL    HW2 1611   1.228   2.626   1.543 -0.5602 -2.5706  0.6320
  538SOL     OW 1612   3.051   1.958   0.496  0.1391  0.3747  0.0919
  538SOL    HW1 1613   0.005   1.875   0.465  0.3257  0.9426  1.8686
  538SOL    HW2 1614   3.009   1.949   0.591  1.3818 -1.7692  0.1032
  539SOL     OW 1615   2.663   1.188   2.484  0.0427  0.2959  0.0008
  539SOL    HW1 1616   2.733   1.193   2.560  3.7813  0.8201  0.1305
  539SOL    HW2 1617   2.601   1.269   2.472 -1.4727  1.9571 -2.1631
  540SOL     OW 1618   1.820   0.976   1.943 -0.1356 -0.0387 -0.5691
  540SOL    HW1 1619   1.881   0.922   1.883 -2.3763  1.6585 -1.8012
  540SOL    HW2 1620   1.764   1.039   1.883  0.6084  2.3274 -2.8544
  541SOL     OW 1621   0.825   0.662   1.856 -0.5831  0.3763  0.1984
  541SOL    HW1 1622   0.780   0.721   1.928 -0.5823  1.1102 -0.2564
  541SOL    HW2 1623   0.825   0.708   1.766 -2.1956  3.2064 -0.3462
  542SOL     OW 1624   2.054   0.355   3.016 -0.4566 -0.3381 -0.7868
  542SOL    HW1 1625   2.007   0.423   3.073  2.1668 -1.8225 -0.0825
  542SOL    HW2 1626   2.147   0.388   2.990 -0.5250 -1.9946  0.7496
  543SOL     OW 1627   0.861   0.118   0.066  0.0497  0.3000  0.5442
  543SOL    HW1 1628   0.857   0.210   0.036 -0.9358 -2.7616  0.4117
  543SOL    HW2 1629   0.913   0.060   3.092 -1.4346 -3.0760 -1.1291
  544SOL     OW 1630   2.829   1.386   1.847  0.2502  0.0696  0.3507
  544SOL    HW1 1631   2.877   1.396   1.927 -3.3276  0.5496 -4.0358
  544SOL    HW2 1632   2.744   1.444   1.848 -2.8274 -1.0673  0.3405
  545SOL     OW 1633   1.852   2.403   1.949  0.0803 -0.0890 -0.1317
  545SOL    HW1 1634   1.788   2.323   1.961  0.7843  0.1210  0.5348
  545SOL    HW2 1635   1.840   2.444   1.857  1.6518 -0.4753 -0.3666
  546SOL     OW 1636   0.196   0.200   2.666 -0.5143 -0.5084  0.5894
  546SOL    HW1 1637   0.193   0.109   2.619 -2.3781  2.3334 -0.8141
  546SOL    HW2 1638   0.294   0.229   2.680 -0.9414  0.6075 -1.4974
  547SOL     OW 1639   1.776   1.144   0.850  0.1260  0.0596 -0.0895
  547SOL    HW1 1640   1.703   1.145   0.781 -1.9294 -0.1574  1.3055
  547SOL    HW2 1641   1.741   1.178   0.937  0.1734  2.9818  1.1799
  548SOL     OW 1642   1.923   1.815   2.353 -0.1648 -0.1190 -0.0063
  548SOL    HW1 1643   1.926   1.871   2.438 -0.2436  1.1591 -2.1306
  548SOL    HW2 1644   1.934   1.870   2.268 -1.3924  0.1566  1.8943
  549SOL     OW 1645   2.130   0.359   0.649 -0.2441  0.4593  0.0128
  549SOL    HW1 1646   2.053   0.328   0.710  1.0229 -0.5088 -0.2753
  549SOL    HW2 1647   2.217   0.320   0.690  1.0662 -0.1540  0.1692
  550SOL     OW 1648   2.237   1.795   0.719 -0.0838  0.0666 -0.1777
  550SOL    HW1 1649   2.336   1.800   0.698 -1.8294  0.9404  1.3757
  550SOL    HW2 1650   2.199   1.707   0.682 -0.1461 -0.7330  1.2391
  551SOL     OW 1651   1.122   2.766   2.231  0.1711  0.1812 -0.1537
  551SOL    HW1 1652   1.045   2.773   2.164  0.4499 -2.3989  2.3280
  551SOL    HW2 1653   1.104   2.803   2.327  0.6092  0.3047 -0.8644
  552SOL     OW 1654   0.019   2.386   2.729  0.2784  0.0945  0.7832
  552SOL    HW1 1655   3.059   2.305   2.759  1.6240  0.2004 -1.2755
  552SOL    HW2 1656   0.094   2.354   2.671  2.2063  0.7085 -1.8057
  553SOL     OW 1657   0.318   0.117   0.953  0.0779  0.1408 -0.2777
  553SOL    HW1 1658   0.373   0.100   0.870  0.1288 -0.0402  1.9598
  553SOL    HW2 1659   0.229   0.070   0.948  3.4956  0.5212  0.5500
  554SOL     OW 1660   2.172   2.131   1.923  0.0293 -0.2122 -0.2286
  554SOL    HW1 1661   2.238   2.082   1.983  1.6800  1.5240 -0.2246
  554SOL    HW2 1662   2.189   2.102   1.830  2.0619  0.1796  3.1385
  555SOL     OW 1663   1.500   2.338   1.814  0.1505 -0.2664  0.5710
  555SOL    HW1 1664   1.566   2.355   1.740  0.1255 -3.3799 -1.5654
  555SOL    HW2 1665   1.452   2.423   1.844 -1.1781  0.6217 -1.3669
  556SOL     OW 1666   1.399   1.778   1.525 -0.5309 -0.1281 -0.1387
  556SOL    HW1 1667   1.468   1.800   1.592 -0.9909 -0.9595 -1.2803
  556SOL    HW2 1668   1.357   1.689   1.554  0.0961 -3.2885 -0.6620
  557SOL     OW 1669   1.879   2.360   2.418  0.3700  0.4330  0.4254
  557SOL    HW1 1670   1.962   2.299   2.408  0.4265 -0.0270 -0.1265
  557SOL    HW2 1671   1.856   2.389   2.321 -0.8438  0.3607  0.3203
  558SOL     OW 1672   0.363   2.753   1.830 -0.0792  0.3347 -0.7934
  558SOL    HW1 1673   0.393   2.792   1.741  0.6310  0.1987  3.3489
  558SOL    HW2 1674   0.284   2.807   1.868 -4.4088  2.9828  0.7983
  559SOL     OW 1675   2.335   2.837   0.792 -0.6949  0.4440 -0.0520
  559SOL    HW1 1676   2.306   2.743   0.781  0.2847  2.8204  0.9156
  559SOL    HW2 1677   2.306   2.863   0.883 -0.1558 -1.1929 -2.0027
  560SOL     OW 1678   1.831   2.379   0.593  0.3998  0.3568 -0.3657
  560SOL    HW1 1679   1.755   2.442   0.618  0.0974  1.0746  0.4854
  560SOL    HW2 1680   1.832   2.294   0.652  1.5250 -0.3446 -0.9764
  561SOL     OW 1681   1.142   0.216   0.668 -0.0599 -0.2397 -0.6205
  561SOL    HW1 1682   1.104   0.285   0.599  1.2863 -0.4110 -0.2595
  561SOL    HW2 1683   1.079   0.132   0.661  1.9144  1.2087 -1.8148
  562SOL     OW 1684   0.798   0.694   2.627 -0.0900 -0.2969  0.1865
  562SOL    HW1 1685   0.770   0.601   2.656 -0.5243 -1.9259 -1.3195
  562SOL    HW2 1686   0.812   0.702   2.526 -1.8498  0.0956  2.9402
  563SOL     OW 1687   1.776   1.588   2.748  0.3568 -0.0673 -0.5482
  563SOL    HW1 1688   1.702   1.655   2.773  0.2444 -0.2234 -0.9325
  563SOL    HW2 1689   1.868   1.629   2.742 -4.4651 -0.6324  0.2009
  564SOL     OW 1690   2.474   0.962   1.347 -0.3234  0.1210 -0.2905
  564SOL    HW1 1691   2.505   0.992   1.435  1.2816 -1.5907  0.8005
  564SOL    HW2 1692   2.545   0.907   1.298 -3.2391  2.4569  2.4594
  565SOL     OW 1693   1.005   0.647   2.915  0.5001 -0.2479 -0.5941
  565SOL    HW1 1694   1.057   0.706   2.982  0.8928 -0.2993  0.1581
  565SOL    HW2 1695   0.906   0.664   2.936 -1.2122 -2.0630 -1.8915
  566SOL     OW 1696   2.007   0.507   2.582  0.4427  0.0700  0.3917
  566SOL    HW1 1697   1.970   0.497   2.486 -3.3370  0.5302  0.6304
  566SOL    HW2 1698   2.005   0.418   2.636 -0.8031 -3.6391  1.0875
  567SOL     OW 1699   2.164   1.705   0.406  0.2488  0.5478  0.7673
  567SOL    HW1 1700   2.263   1.728   0.424  0.5820  0.9647 -1.4669
  567SOL    HW2 1701   2.105   1.780   0.381 -0.0131 -2.8215 -0.7242
  568SOL     OW 1702   1.762   1.724   0.046 -0.4166  0.0689 -0.2016
  568SOL    HW1 1703   1.854   1.741   0.004  0.5052  0.2789  1.7715
  568SOL    HW2 1704   1.700   1.808   0.049  0.7990  1.7054  1.3223
  569SOL     OW 1705   2.020   1.061   0.062  0.5103  0.1609 -0.1203
  569SOL    HW1 1706   1.979   1.121   3.085  0.2839  1.2900  0.7141
  569SOL    HW2 1707   2.112   1.085   0.093  0.1204 -1.9003  0.9031
  570SOL     OW 1708   0.377   2.475   1.869 -0.5890  0.1028 -0.1199
  570SOL    HW1 1709   0.363   2.566   1.835  2.2999 -4.5848  1.8410
  570SOL    HW2 1710   0.464   2.436   1.841 -0.2190  0.1073 -0.4991
  571SOL     OW 1711   0.502   0.907   1.945 -0.2537 -0.0216 -0.1168
  571SOL    HW1 1712   0.512   0.950   1.851  1.8444 -1.3775 -0.8914
  571SOL    HW2 1713   0.446   0.961   2.011  0.1560  0.6368  1.8867
  572SOL     OW 1714   1.079   1.402   0.661 -0.8343  0.5262  0.5891
  572SOL    HW1 1715   0.997   1.338   0.648 -1.2675 -2.5403  0.0152
  572SOL    HW2 1716   1.103   1.448   0.573 -2.7228 -0.0597 -0.2985
  573SOL     OW 1717   1.618   2.107   2.938  0.0564  0.3829  0.1649
  573SOL    HW1 1718   1.568   2.147   3.019  1.2658  1.4636  0.1402
  573SOL    HW2 1719   1.705   2.068   2.962 -0.2824 -0.3835 -1.2530
  574SOL     OW 1720   0.941   0.007   1.026 -0.0943 -0.1086  0.2044
  574SOL    HW1 1721   0.931   3.073   1.123  0.3404  1.5491  1.1592
  574SOL    HW2 1722   0.869   0.076   1.002 -2.2628 -3.2357  0.1821
  575SOL     OW 1723   0.257   1.077   1.396 -0.3438  0.6012  0.6704
  575SOL    HW1 1724   0.290   1.117   1.488  0.8054  1.2141  0.4043
  575SOL    HW2 1725   0.328   1.035   1.337 -3.4013 -0.3361 -0.0021
  576SOL     OW 1726   2.313   2.808   1.265 -0.3076  0.4678  0.1698
  576SOL    HW1 1727   2.231   2.834   1.322 -1.3897  3.7403  1.9382
  576SOL    HW2 1728   2.298   2.853   1.175 -1.6202  1.7344 -0.4457
  577SOL     OW 1729   1.090   0.959   2.224  0.0305 -0.0872  0.1830
  577SOL    HW1 1730   1.162   0.978   2.157 -0.4945 -0.7032  0.4343
  577SOL    HW2 1731   1.118   0.890   2.294  1.0067  0.8939 -0.4320
  578SOL     OW 1732   2.036   1.004   2.531 -0.1210 -0.0116 -0.2549
  578SOL    HW1 1733   1.996   1.066   2.461 -1.9092  3.9759  2.8894
  578SOL    HW2 1734   1.963   0.962   2.589  1.4590 -0.3230 -3.2654
  579SOL     OW 1735   2.234   2.509   1.710 -0.0811 -0.1618  0.6933
  579SOL    HW1 1736   2.155   2.482   1.653 -0.1038 -0.5443 -2.1302
  579SOL    HW2 1737   2.321   2.481   1.664 -1.6973 -0.7175 -1.3163
  580SOL     OW 1738   1.681   1.693   2.328 -0.3866  0.0530  0.4468
  580SOL    HW1 1739   1.771   1.742   2.322  0.1747 -0.8073  2.8178
  580SOL    HW2 1740   1.682   1.615   2.394 -1.0673  0.2421  1.8253
  581SOL     OW 1741   1.357   1.509   2.484  0.2267 -0.1536 -0.0377
  581SOL    HW1 1742   1.456   1.494   2.468 -0.2002 -1.3386 -2.9738
  581SOL    HW2 1743   1.322   1.448   2.560 -2.6346 -2.4112  2.7441
  582SOL     OW 1744   0.732   1.471   1.784  0.5034  0.3663 -0.2061
  582SOL    HW1 1745   0.675   1.407   1.722 -2.2091 -3.0508 -0.2059
  582SOL    HW2 1746   0.767   1.564   1.744 -0.1090  2.9109 -1.4193
  583SOL     OW 1747   1.576   1.046   1.496  0.1259 -0.0194  0.0813
  583SOL    HW1 1748   1.498   0.999   1.451 -1.9720 -0.2160  2.8177
  583SOL    HW2 1749   1.535   1.115   1.564 -0.5951 -0.7476  1.1360
  584SOL     OW 1750   1.932   2.614   0.527  0.2676 -0.2228  0.1652
  584SOL    HW1 1751   1.907   2.519   0.558  0.5010 -1.6622  2.3033
  584SOL    HW2 1752   1.911   2.637   0.429  2.2730  0.2574 -1.5179
  585SOL     OW 1753   1.812   2.819   2.822 -0.0783 -0.1059  0.0158
  585SOL    HW1 1754   1.882   2.755   2.793  0.7868  3.7667 -2.1712
  585SOL    HW2 1755   1.838   2.874   2.904  1.7581 -1.3080 -1.2041
  586SOL     OW 1756   2.988   2.203   1.150  0.6524 -0.1350  0.4099
  586SOL    HW1 1757   3.011   2.232   1.247  1.4776 -3.3533  3.7074
  586SOL    HW2 1758   2.891   2.211   1.126  2.1089 -0.1363  1.8974
  587SOL     OW 1759   1.502   1.906   0.073 -0.4702  0.6072 -0.3883
  587SOL    HW1 1760   1.508   2.004   0.073 -2.2043 -2.0856 -1.2214
  587SOL    HW2 1761   1.432   1.873   0.013  2.0652 -1.1793 -1.4183
  588SOL     OW 1762   0.459   0.295   1.094  0.4969 -0.0061  0.0271
  588SOL    HW1 1763   0.523   0.275   1.169  1.6170 -1.2518 -3.5321
  588SOL    HW2 1764   0.416   0.209   1.064  1.5363  1.2518  0.2726
  589SOL     OW 1765   1.046   0.396   0.467 -0.2803  0.3938 -0.1402
  589SOL    HW1 1766   1.001   0.480   0.427 -4.1134  1.6508 -2.6036
  589SOL    HW2 1767   1.064   0.330   0.394  1.9895  1.7439  1.3308
  590SOL     OW 1768   1.435   0.779   2.900 -0.1912  0.2939 -0.4272
  590SOL    HW1 1769   1.450   0.756   2.802  0.6242  0.1836  0.1907
  590SOL    HW2 1770   1.353   0.723   2.936  2.1442 -3.3953  0.2309
  591SOL     OW 1771   2.620   2.187   2.032  0.9863 -0.1878 -0.3731
  591SOL    HW1 1772   2.684   2.119   1.987 -0.4624  0.7121 -0.5144
  591SOL    HW2 1773   2.638   2.274   1.989  0.3711 -0.8123  0.4207
  592SOL     OW 1774   2.570   1.529   1.921  0.0519  0.5351  0.1026
  592SOL    HW1 1775   2.516   1.609   1.958 -2.7832  0.4869  4.1116
  592SOL    HW2 1776   2.527   1.503   1.832 -0.4496 -2.8439 -0.1183
  593SOL     OW 1777   1.143   1.077   1.375 -0.2255  0.2920  0.0104
  593SOL    HW1 1778   1.219   1.095   1.309 -3.2232  0.4681  0.4758
  593SOL    HW2 1779   1.148   0.980   1.392  0.5324  4.3329  1.7764
  594SOL     OW 1780   2.610   1.373   2.951  0.4962  0.2619 -0.1395
  594SOL    HW1 1781   2.683   1.410   3.010 -2.2667 -0.4363 -0.7040
  594SOL    HW2 1782   2.639   1.282   2.915 -0.5442 -1.4653 -1.0052
  595SOL     OW 1783   0.407   0.756   0.662  0.3221  0.3610  0.2888
  595SOL    HW1 1784   0.315   0.796   0.675 -0.0370  1.3840 -2.5095
  595SOL    HW2 1785   0.458   0.731   0.751  0.6284  0.1357  0.0508
  596SOL     OW 1786   0.043   1.378   1.044  0.3114 -0.2382 -0.1417
  596SOL    HW1 1787   3.053   1.355   1.095 -1.6960  1.7101 -2.7962
  596SOL    HW2 1788   0.127   1.349   1.091 -1.3798  1.8496  1.1482
  597SOL     OW 1789   1.390   1.739   0.805 -0.0421  0.5363  0.0459
  597SOL    HW1 1790   1.394   1.670   0.882  2.1612  0.8093  1.9067
  597SOL    HW2 1791   1.306   1.792   0.809  1.9405  2.3811  2.1454
  598SOL     OW 1792   0.441   2.871   1.591 -0.0396  0.9453  0.2184
  598SOL    HW1 1793   0.516   2.928   1.625 -1.2437  1.5424  1.7477
  598SOL    HW2 1794   0.462   2.827   1.499 -2.4250 -1.0655 -2.2285
  599SOL     OW 1795   0.179   1.774   2.839 -0.3853 -0.6520  0.4882
  599SOL    HW1 1796   0.172   1.785   2.738 -0.0899 -0.3536 -0.8962
  599SOL    HW2 1797   0.241   1.843   2.876  1.9910 -1.4105  1.7975
  600SOL     OW 1798   0.260   1.151   2.883 -0.3553  0.4262 -0.0560
  600SOL    HW1 1799   0.316   1.200   2.811  0.6758  2.4904 -0.0152
  600SOL    HW2 1800   0.191   1.214   2.929  1.2851  1.5956  2.2945
  601SOL     OW 1801   0.504   0.779   1.092  0.0541  0.1941 -0.3482
  601SOL    HW1 1802   0.515   0.876   1.100 -1.2964 -0.2822  0.1250
  601SOL    HW2 1803   0.413   0.740   1.069  0.7900 -1.1950  0.5860
  602SOL     OW 1804   1.033   3.084   0.594 -0.2882  0.0071 -0.3209
  602SOL    HW1 1805   1.084   3.014   0.542 -0.3812 -0.9220 -1.1252
  602SOL    HW2 1806   0.935   3.088   0.566 -0.7952  0.8678  1.0181
  603SOL     OW 1807   1.588   2.211   2.276  0.2565 -0.0665  0.4130
  603SOL    HW1 1808   1.623   2.119   2.270 -1.0428 -2.0580 -0.8787
  603SOL    HW2 1809   1.664   2.276   2.250 -0.8636  0.0066 -0.0919
  604SOL     OW 1810   0.222   3.069   2.888  0.1654  0.1578  0.3892
  604SOL    HW1 1811   0.240   2.971   2.896 -1.1578  0.7290 -0.3755
  604SOL    HW2 1812   0.148   0.001   2.820  1.6607 -0.9339  1.2565
  605SOL     OW 1813   2.620   1.088   1.561 -0.0306 -0.0454 -0.0111
  605SOL    HW1 1814   2.671   1.094   1.650  1.1611  1.2731 -0.5764
  605SOL    HW2 1815   2.558   1.174   1.551 -1.1279  3.0953  0.3426
  606SOL     OW 1816   0.881   1.759   2.844 -0.0613  0.3703 -0.2830
  606SOL    HW1 1817   0.923   1.668   2.834 -2.6607 -1.6042 -1.2154
  606SOL    HW2 1818   0.782   1.762   2.808 -0.9076 -0.3229 -0.1061
  607SOL     OW 1819   0.746   0.463   0.573  0.3593  0.1242  0.1456
  607SOL    HW1 1820   0.653   0.504   0.554 -1.2072 -0.8041  0.5090
  607SOL    HW2 1821   0.808   0.537   0.587  1.3488 -3.4295 -1.9471
  608SOL     OW 1822   2.905   1.669   1.376  0.1199  0.4823 -0.3437
  608SOL    HW1 1823   2.869   1.669   1.472 -0.6350  1.2529 -0.9117
  608SOL    HW2 1824   2.840   1.714   1.311 -0.5526 -3.9680  1.8700
  609SOL     OW 1825   2.651   0.341   0.924  0.3776 -0.4247  0.3549
  609SOL    HW1 1826   2.626   0.243   0.948 -0.6974  2.5953 -0.6561
  609SOL    HW2 1827   2.568   0.400   0.901 -3.0841  0.8414 -0.8552
  610SOL     OW 1828   0.239   2.599   1.339  0.0776 -0.0630  0.3451
  610SOL    HW1 1829   0.224   2.520   1.399  0.9459 -0.0515 -0.1944
  610SOL    HW2 1830   0.253   2.557   1.244 -0.5051  0.2179 -0.8095
  611SOL     OW 1831   1.354   1.641   0.280  0.3749 -0.2957  0.1086
  611SOL    HW1 1832   1.432   1.586   0.314 -0.2127 -1.3918 -1.2697
  611SOL    HW2 1833   1.366   1.738   0.313 -0.9687 -1.2102 -1.0787
  612SOL     OW 1834   0.915   2.785   2.078 -0.6763  0.3732 -0.0286
  612SOL    HW1 1835   0.862   2.704   2.108  2.8318  1.3260  0.0855
  612SOL    HW2 1836   0.898   2.808   1.983  0.5065 -1.0562  0.9751
  613SOL     OW 1837   0.375   2.538   0.892  0.0133  0.6290  0.3048
  613SOL    HW1 1838   0.349   2.476   0.817 -0.5831 -0.3043 -1.6734
  613SOL    HW2 1839   0.472   2.522   0.916  0.2168 -0.3268 -0.2795
  614SOL     OW 1840   2.114   0.039   2.269 -0.3252 -0.4662  0.1982
  614SOL    HW1 1841   2.080   0.132   2.260  0.2020  0.0290 -1.7687
  614SOL    HW2 1842   2.175   0.014   2.187 -3.2312  1.8623 -0.0576
  615SOL     OW 1843   1.158   1.496   0.412  0.2842 -0.7024 -0.2754
  615SOL    HW1 1844   1.097   1.490   0.328 -0.5108 -1.2328 -0.5898
  615SOL    HW2 1845   1.240   1.551   0.378 -0.5090  0.7645  2.2934
  616SOL     OW 1846   1.541   1.487   0.401  0.1656 -0.3631  0.6280
  616SOL    HW1 1847   1.563   1.391   0.386  1.3271  1.2064  0.3204
  616SOL    HW2 1848   1.519   1.511   0.497 -0.8581 -0.1054  1.2193
  617SOL     OW 1849   1.245   1.220   2.602 -0.8349 -0.0244  0.5798
  617SOL    HW1 1850   1.191   1.215   2.515  1.3383  2.6338 -1.5775
  617SOL    HW2 1851   1.333   1.173   2.586 -0.5595 -1.0747 -0.1283
  618SOL     OW 1852   0.827   0.105   2.055 -0.6192  0.1273  0.1781
  618SOL    HW1 1853   0.890   0.108   1.977 -1.4419  2.6793 -0.5770
  618SOL    HW2 1854   0.825   0.193   2.102 -0.4076 -3.0811 -0.7575
  619SOL     OW 1855   0.033   1.438   1.414  0.2021 -0.0896 -0.3538
  619SOL    HW1 1856   0.037   1.516   1.477 -1.8444  0.1209 -2.2501
  619SOL    HW2 1857   0.119   1.428   1.358  1.5977  1.7393 -1.3279
  620SOL     OW 1858   2.419   0.433   2.681  0.2857 -0.1534 -0.2453
  620SOL    HW1 1859   2.507   0.466   2.647 -3.7347 -1.0613 -0.1837
  620SOL    HW2 1860   2.345   0.496   2.656 -2.5022  0.4052  2.4154
  621SOL     OW 1861   2.028   2.147   2.708  0.0034 -0.4445 -0.5891
  621SOL    HW1 1862   2.121   2.171   2.741 -4.5442 -1.1503 -0.7060
  621SOL    HW2 1863   1.951   2.180   2.763  1.6758 -0.6728 -3.3841
  622SOL     OW 1864   1.099   0.794   2.687 -0.1394  0.3093  0.3514
  622SOL    HW1 1865   1.049   0.723   2.739  1.8773  0.1330 -0.3559
  622SOL    HW2 1866   1.077   0.883   2.721 -1.2444 -3.5604 -2.1073
  623SOL     OW 1867   0.809   1.006   2.225 -0.4704 -0.5458 -0.6632
  623SOL    HW1 1868   0.899   0.961   2.246 -3.1171  2.3765  0.6180
  623SOL    HW2 1869   0.775   1.053   2.304 -1.6700  0.4519 -1.4103
  624SOL     OW 1870   2.874   0.358   0.546 -0.4937 -0.0493 -0.2159
  624SOL    HW1 1871   2.875   0.337   0.444 -0.2861 -1.6127  0.5039
  624SOL    HW2 1872   2.813   0.437   0.568  1.1065  0.3194 -0.3262
  625SOL     OW 1873   0.695   2.407   0.687 -0.0742 -0.0033  0.6604
  625SOL    HW1 1874   0.646   2.450   0.766 -1.7654 -0.0591 -0.4846
  625SOL    HW2 1875   0.795   2.426   0.682 -1.2451 -0.3780 -0.3657
  626SOL     OW 1876   2.238   0.905   2.665 -0.2599 -0.1909 -0.2362
  626SOL    HW1 1877   2.208   0.929   2.758  0.1889 -1.1093 -0.5784
  626SOL    HW2 1878   2.165   0.938   2.599  0.8224  0.6217  0.3899
  627SOL     OW 1879   1.450   2.255   2.730  0.2588  0.6167  0.3283
  627SOL    HW1 1880   1.459   2.247   2.631  2.1110  0.5068 -0.2858
  627SOL    HW2 1881   1.541   2.279   2.774 -0.9305  1.4951 -0.1007
  628SOL     OW 1882   2.688   2.765   2.293 -0.0587  0.6038 -0.0780
  628SOL    HW1 1883   2.713   2.864   2.279 -1.5510 -1.7520 -2.8006
  628SOL    HW2 1884   2.594   2.751   2.332 -1.9636 -1.4276  0.5743
  629SOL     OW 1885   1.288   2.796   2.689 -0.6070  0.3848 -0.1107
  629SOL    HW1 1886   1.326   2.725   2.628 -1.1575  0.9183  0.6705
  629SOL    HW2 1887   1.353   2.847   2.745 -1.1750  0.2456  0.0727
  630SOL     OW 1888   0.998   0.165   2.480 -0.1441  0.4467 -0.0033
  630SOL    HW1 1889   1.005   0.264   2.457  2.1362 -2.9154 -0.6964
  630SOL    HW2 1890   1.053   0.100   2.423 -1.1440 -1.2328  0.8138
  631SOL     OW 1891   2.011   1.209   0.728 -0.1850  0.4109  0.1152
  631SOL    HW1 1892   2.025   1.135   0.659  0.0102  1.3805 -1.2666
  631SOL    HW2 1893   1.925   1.192   0.780  0.1475 -0.6536  0.0645
  632SOL     OW 1894   2.640   0.209   1.940 -0.2013  0.1823  0.1232
  632SOL    HW1 1895   2.597   0.279   1.882  0.6478  1.3840  2.6773
  632SOL    HW2 1896   2.709   0.261   1.996 -0.2508  0.3671 -0.4411
  633SOL     OW 1897   1.013   1.569   0.197  0.2037  0.5813  0.6844
  633SOL    HW1 1898   1.060   1.601   0.111  2.0449  2.7730 -4.1619
  633SOL    HW2 1899   0.951   1.490   0.171  0.5982 -4.7103 -1.3917
  634SOL     OW 1900   2.877   3.030   1.548  0.7482 -0.6969  0.0448
  634SOL    HW1 1901   2.851   3.073   1.637  0.3775  0.6816  0.1729
  634SOL    HW2 1902   2.814   3.070   1.477 -1.8361  1.4748 -0.6851
  635SOL     OW 1903   1.521   0.220   1.106  0.2118 -0.2648  0.4304
  635SOL    HW1 1904   1.545   0.316   1.091  0.0528  0.5888 -1.1616
  635SOL    HW2 1905   1.423   0.212   1.130  0.6430 -2.5240  0.7151
  636SOL     OW 1906   0.694   1.122   3.087  0.4602  0.5917 -0.5357
  636SOL    HW1 1907   0.601   1.141   0.026 -0.5564 -0.7844 -1.7261
  636SOL    HW2 1908   0.694   1.140   2.984 -2.1377  1.7049 -1.2637
  637SOL     OW 1909   2.835   2.211   3.065 -0.6989  0.2508  0.5294
  637SOL    HW1 1910   2.799   2.149   2.988  0.6945 -0.6877  0.2191
  637SOL    HW2 1911   2.915   2.164   0.017 -2.6244 -2.6309  0.7095
  638SOL     OW 1912   1.461   2.648   2.542  0.6389  0.2998  0.3886
  638SOL    HW1 1913   1.486   2.675   2.444 -0.1868 -1.3670 -6.0703
  638SOL    HW2 1914   1.544   2.622   2.601  1.8214  0.7662 -0.2715
  639SOL     OW 1915   1.584   1.867   0.667  0.5342 -0.3832  0.6220
  639SOL    HW1 1916   1.503   1.839   0.719  1.0836 -0.9788  1.1764
  639SOL    HW2 1917   1.576   1.875   0.565  3.2146  0.7889 -3.0429
  640SOL     OW 1918   2.353   2.588   0.336  1.3481 -0.5197  0.1721
  640SOL    HW1 1919   2.321   2.551   0.244 -1.7403  0.3419  1.9611
  640SOL    HW2 1920   2.427   2.659   0.326 -1.9155  1.1443  1.4043
  641SOL     OW 1921   2.756   0.420   3.060  0.6212 -0.1107 -0.6663
  641SOL    HW1 1922   2.745   0.454   0.057 -1.1319 -2.1735  1.7191
  641SOL    HW2 1923   2.713   0.330   3.045  1.1082  0.0717 -0.0329
  642SOL     OW 1924   0.331   0.538   1.100  0.7494  0.2072  0.6124
  642SOL    HW1 1925   0.286   0.555   1.194  1.5122  1.6491 -0.2883
  642SOL    HW2 1926   0.365   0.440   1.094  0.7399 -1.3949 -1.1189
  643SOL     OW 1927   0.717   1.461   2.430 -0.5340  0.0605  0.2154
  643SOL    HW1 1928   0.817   1.452   2.452 -0.4088 -1.9349  0.4596
  643SOL    HW2 1929   0.700   1.414   2.342 -1.2276  1.0970  0.1221
  644SOL     OW 1930   1.925   2.162   0.769  0.2644 -0.0936  0.1027
  644SOL    HW1 1931   1.981   2.106   0.714  0.6564  3.4762  2.5357
  644SOL    HW2 1932   1.845   2.108   0.804 -0.9015 -1.8804 -0.7598
  645SOL     OW 1933   1.602   2.475   0.704  0.4304 -0.4560 -0.8220
  645SOL    HW1 1934   1.618   2.391   0.757  0.7277 -0.0590 -0.7632
  645SOL    HW2 1935   1.508   2.506   0.732 -0.1094 -2.4162  0.1228
  646SOL     OW 1936   0.559   2.243   2.886 -0.8688 -0.3815  0.4307
  646SOL    HW1 1937   0.522   2.333   2.856 -0.4936  1.6463 -0.3521
  646SOL    HW2 1938   0.607   2.264   2.977  1.1207  0.0258  0.1183
  647SOL     OW 1939   1.225   2.827   1.324 -0.7146  0.1231  0.0770
  647SOL    HW1 1940   1.162   2.799   1.395 -0.1885  4.0608 -0.7249
  647SOL    HW2 1941   1.179   2.831   1.237  3.2854 -1.2765  1.7987
  648SOL     OW 1942   1.270   0.216   1.158 -0.5040  0.6595 -0.5141
  648SOL    HW1 1943   1.197   0.173   1.213 -1.6603 -1.6582 -2.5378
  648SOL    HW2 1944   1.244   0.211   1.060  2.4884  2.4985  0.2897
  649SOL     OW 1945   1.267   2.113   0.192 -0.4162  0.4198  0.2718
  649SOL    HW1 1946   1.252   2.197   0.249  2.1384 -1.9561 -1.6363
  649SOL    HW2 1947   1.356   2.122   0.140 -2.1066 -1.0283  0.6286
  650SOL     OW 1948   2.452   1.676   1.516 -0.1964  0.0973 -0.2718
  650SOL    HW1 1949   2.508   1.758   1.498 -0.4328 -1.7139  0.8118
  650SOL    HW2 1950   2.357   1.711   1.537  0.2385  1.6979 -3.1770
  651SOL     OW 1951   1.693   2.791   0.029 -0.0400 -0.0769  0.0304
  651SOL    HW1 1952   1.623   2.853   3.085 -3.6018 -1.4380 -0.8514
  651SOL    HW2 1953   1.701   2.702   3.073 -2.0857  1.1529 -0.4565
  652SOL     OW 1954   3.061   1.793   0.127 -0.0506  0.7000 -0.3642
  652SOL    HW1 1955   2.978   1.750   0.163  0.8590  1.8970 -0.3494
  652SOL    HW2 1956   0.028   1.816   0.199 -0.1870 -0.1855 -0.8631
  653SOL     OW 1957   2.827   2.886   0.836  0.1030  0.1406  0.5135
  653SOL    HW1 1958   2.892   2.932   0.772 -2.7594 -0.1874  1.9127
  653SOL    HW2 1959   2.730   2.894   0.797  4.9861  0.2933  0.4576
  654SOL     OW 1960   2.948   2.781   1.734  0.1852 -0.2385 -0.9303
  654SOL    HW1 1961   3.019   2.823   1.795 -2.0671  1.8288  0.6707
  654SOL    HW2 1962   2.911   2.856   1.677 -1.0934  0.4614  3.4207
  655SOL     OW 1963   0.167   2.230   0.918 -0.4476  0.1356 -0.5378
  655SOL    HW1 1964   0.179   2.221   1.019  3.1675  0.8849 -0.2343
  655SOL    HW2 1965   0.248   2.187   0.873  1.4809 -2.0287 -3.8574
  656SOL     OW 1966   3.067   2.925   2.349  0.3115  0.2930  0.2961
  656SOL    HW1 1967   2.984   2.950   2.292 -0.8306  0.1147 -3.1865
  656SOL    HW2 1968   3.062   2.962   2.442  0.3784 -2.3373 -1.4652
  657SOL     OW 1969   2.857   1.487   2.659 -0.1231  0.7439  0.1792
  657SOL    HW1 1970   2.926   1.497   2.582  1.5660  0.1330  0.7786
  657SOL    HW2 1971   2.832   1.390   2.684 -2.2345 -2.4413 -0.6311
  658SOL     OW 1972   2.735   1.667   1.116 -0.4899 -0.3337  0.6991
  658SOL    HW1 1973   2.717   1.765   1.092  2.4098 -0.2107  0.3731
  658SOL    HW2 1974   2.653   1.621   1.160 -0.5939 -1.7617  1.8161
  659SOL     OW 1975   1.373   3.014   0.411  0.3214 -0.7647  0.5569
  659SOL    HW1 1976   1.424   3.000   0.325 -1.0567 -1.2733  1.7821
  659SOL    HW2 1977   1.425   3.077   0.474 -0.8190  0.5741  0.1242
  660SOL     OW 1978   1.695   1.396   2.926 -0.1332 -0.4712  0.3100
  660SOL    HW1 1979   1.628   1.436   2.987  0.4769 -1.2481 -1.8684
  660SOL    HW2 1980   1.747   1.467   2.872 -1.6010 -1.5027 -0.6387
  661SOL     OW 1981   0.237   2.173   1.176  0.1281 -0.2125  0.3588
  661SOL    HW1 1982   0.285   2.263   1.185 -0.1121 -0.2157  0.8982
  661SOL    HW2 1983   0.183   2.149   1.257  2.0397 -0.4721 -3.3566
  662SOL     OW 1984   0.000   0.732   0.033  0.4195 -0.2752 -0.6485
  662SOL    HW1 1985   3.049   0.642   0.051 -1.4808  0.3036 -0.6357
  662SOL    HW2 1986   0.100   0.717   0.030 -1.1750 -3.8383 -0.7563
  663SOL     OW 1987   1.902   1.582   0.947 -0.2155  0.1558  0.1923
  663SOL    HW1 1988   1.956   1.538   0.873 -0.1526  1.8815  1.5272
  663SOL    HW2 1989   1.831   1.654   0.920 -0.0553 -0.1250 -2.2201
  664SOL     OW 1990   1.180   1.678   1.136 -0.3334 -0.2377  0.1316
  664SOL    HW1 1991   1.201   1.608   1.205  1.7174  0.4831  0.2670
  664SOL    HW2 1992   1.198   1.626   1.054 -0.0113 -0.3520  1.3571
  665SOL     OW 1993   1.862   2.734   2.322  0.0679  0.0129  0.9840
  665SOL    HW1 1994   1.765   2.714   2.297  0.2932 -1.1455 -0.6313
  665SOL    HW2 1995   1.924   2.685   2.255 -1.0662 -1.8634 -1.9916
  666SOL     OW 1996   2.960   2.944   2.929 -1.0259  0.1116  0.2905
  666SOL    HW1 1997   2.906   2.965   3.013  4.5742  1.8088 -1.4015
  666SOL    HW2 1998   2.900   2.898   2.860 -0.5813  0.2031 -0.8155
  667SOL     OW 1999   2.300   1.312   2.028  0.8130 -0.4518 -0.0157
  667SOL    HW1 2000   2.232   1.237   2.046 -1.3773 -0.1560 -0.0615
  667SOL    HW2 2001   2.251   1.375   1.967 -0.0514  3.2829  0.1803
  668SOL     OW 2002   0.524   1.040   2.360  0.1726  0.0510 -0.1056
  668SOL    HW1 2003   0.454   1.083   2.422  0.3745  1.4666 -1.1035
  668SOL    HW2 2004   0.485   1.036   2.266  0.5391  0.7075  0.9172
  669SOL     OW 2005   2.332   2.297   2.431 -0.0372  0.0953  0.4537
  669SOL    HW1 2006   2.387   2.309   2.343 -1.1378  1.2186  0.9583
  669SOL    HW2 2007   2.391   2.252   2.503 -0.9313 -1.7560  0.4056
  670SOL     OW 2008   2.336   1.282   1.672  0.0571  0.5503  0.1604
  670SOL    HW1 2009   2.421   1.341   1.664 -1.4396  1.2921  2.0064
  670SOL    HW2 2010   2.260   1.331   1.725 -2.4401  2.0544  0.0509
  671SOL     OW 2011   2.524   1.098   0.462 -0.2430 -0.3195  0.7367
  671SOL    HW1 2012   2.565   1.142   0.378  1.4147  1.9371 -0.1994
  671SOL    HW2 2013   2.446   1.159   0.485 -2.8020 -0.1895 -0.7458
  672SOL     OW 2014   2.430   0.822   2.267  0.3664  0.3590  0.0056
  672SOL    HW1 2015   2.417   0.803   2.167 -1.8516 -0.1330 -1.3927
  672SOL    HW2 2016   2.354   0.875   2.304  1.3590 -2.8558 -0.8835
  673SOL     OW 2017   2.818   0.046   1.798 -0.1487  0.3304  0.1026
  673SOL    HW1 2018   2.902   0.024   1.843 -3.5354  0.2024  0.9057
  673SOL    HW2 2019   2.751   0.083   1.866  0.3553  1.4502  1.7586
  674SOL     OW 2020   1.838   1.760   1.502  0.4354  0.0873 -0.2279
  674SOL    HW1 2021   1.769   1.732   1.430  1.0778 -0.7007 -0.2441
  674SOL    HW2 2022   1.793   1.818   1.571  0.3292 -1.6836 -1.5913
  675SOL     OW 2023   0.719   0.817   0.674 -0.4767  0.1342  0.1074
  675SOL    HW1 2024   0.661   0.767   0.736  2.6327  1.7127 -1.1932
  675SOL    HW2 2025   0.800   0.754   0.657  2.5976  2.2707  0.3401
  676SOL     OW 2026   1.575   1.006   1.098  0.3662 -0.4305 -0.2877
  676SOL    HW1 2027   1.537   0.932   1.036 -0.1805  2.2268  1.5556
  676SOL    HW2 2028   1.662   0.971   1.142  0.7757 -1.2685  0.2633
  677SOL     OW 2029   2.566   1.236   2.158  0.1592  0.2077  0.2226
  677SOL    HW1 2030   2.611   1.158   2.116 -0.7893  1.5798 -1.6955
  677SOL    HW2 2031   2.484   1.263   2.104 -2.0734  0.1931 -1.2538
  678SOL     OW 2032   2.907   1.559   0.922  0.1974 -0.2832 -0.6253
  678SOL    HW1 2033   2.863   1.470   0.898  0.6951 -2.0718 -2.2510
  678SOL    HW2 2034   2.854   1.595   1.005 -1.2024  1.9552  0.8687
  679SOL     OW 2035   2.294   2.422   0.136  0.1759  0.1756  0.0557
  679SOL    HW1 2036   2.195   2.410   0.107  0.8146 -1.3977 -0.9097
  679SOL    HW2 2037   2.363   2.415   0.060  1.3855 -0.5364  1.3783
  680SOL     OW 2038   3.063   2.097   1.976  0.1384  0.2596  0.4094
  680SOL    HW1 2039   0.018   2.050   2.050  0.1671 -1.3305 -0.4804
  680SOL    HW2 2040   3.057   2.198   1.982  0.0417 -0.0723 -1.9922
  681SOL     OW 2041   0.498   1.066   1.249 -0.3730  0.0196 -0.8851
  681SOL    HW1 2042   0.514   1.092   1.149 -1.7667  1.5602 -3.0067
  681SOL    HW2 2043   0.547   1.129   1.311 -1.4672  0.4671  3.5459
  682SOL     OW 2044   1.365   2.600   0.734 -0.6545 -0.1608  0.8213
  682SOL    HW1 2045   1.404   2.695   0.737  2.4585 -1.0375 -1.3318
  682SOL    HW2 2046   1.267   2.612   0.710  0.9331  0.7118  1.1651
  683SOL     OW 2047   2.378   1.306   0.538  0.3660 -0.1542  0.0698
  683SOL    HW1 2048   2.346   1.344   0.629 -0.8819 -0.2824  0.1559
  683SOL    HW2 2049   2.449   1.368   0.496 -1.1036 -1.1305  3.3746
  684SOL     OW 2050   0.536   2.096   1.925  0.1372 -0.3735  0.0622
  684SOL    HW1 2051   0.554   2.170   1.991 -0.1909  0.9625 -0.9250
  684SOL    HW2 2052   0.453   2.041   1.946 -0.2725 -2.8495  0.5385
  685SOL     OW 2053   2.139   1.574   0.016  0.2741  0.2429  0.2374
  685SOL    HW1 2054   2.219   1.578   0.083  1.7127  3.4484  1.3430
  685SOL    HW2 2055   2.061   1.525   0.057  0.4862 -0.2100  1.0410
  686SOL     OW 2056   0.147   0.707   0.948 -0.6233  0.2154  0.1404
  686SOL    HW1 2057   0.152   0.794   0.998 -0.7155  1.0516 -0.7757
  686SOL    HW2 2058   0.222   0.646   0.986  1.3741 -3.2481  2.0975
  687SOL     OW 2059   1.114   2.414   2.782 -0.1554 -0.0482 -0.4370
  687SOL    HW1 2060   1.057   2.332   2.795 -2.3012  0.7699  0.5268
  687SOL    HW2 2061   1.176   2.403   2.700 -1.4364  1.7800  1.8592
  688SOL     OW 2062   2.655   1.853   1.547 -0.0945 -0.4231  0.3435
  688SOL    HW1 2063   2.695   1.778   1.603 -1.3267 -1.0256  0.9934
  688SOL    HW2 2064   2.642   1.939   1.598  0.5594 -0.5930 -0.6425
  689SOL     OW 2065   2.315   0.762   2.017 -0.0160  0.0545  0.3450
  689SOL    HW1 2066   2.393   0.713   1.976  0.3488 -1.6992  0.5610
  689SOL    HW2 2067   2.257   0.805   1.945  1.2075 -1.6828  1.1045
  690SOL     OW 2068   2.120   1.059   1.353  0.7592 -0.6816 -0.3295
  690SOL    HW1 2069   2.081   1.056   1.260  3.2014  0.2098 -0.2121
  690SOL    HW2 2070   2.142   1.158   1.376 -0.2053 -1.4940 -1.4856
  691SOL     OW 2071   0.683   1.972   1.738  0.2037 -0.4317 -0.3609
  691SOL    HW1 2072   0.626   2.022   1.807  1.1840  1.0102 -0.5257
  691SOL    HW2 2073   0.774   2.012   1.724  3.5693 -1.1388  2.7829
  692SOL     OW 2074   1.934   0.006   1.416 -0.1064 -0.0304 -0.2817
  692SOL    HW1 2075   1.978   0.079   1.479  0.2869  0.7769 -0.3682
  692SOL    HW2 2076   1.886   0.040   1.334 -0.5551 -0.2313  0.1005
  693SOL     OW 2077   0.751   1.136   2.458 -0.5498  0.1341  0.4612
  693SOL    HW1 2078   0.798   1.075   2.532 -1.0101 -0.5230 -1.1569
  693SOL    HW2 2079   0.655   1.109   2.436 -0.3983 -1.0589 -0.4867
  694SOL     OW 2080   2.012   2.809   1.151  0.3735 -0.2937 -0.2769
  694SOL    HW1 2081   2.009   2.720   1.102 -0.5012  1.0234 -4.1502
  694SOL    HW2 2082   1.935   2.869   1.119  0.5278  2.3963 -0.7284
  695SOL     OW 2083   1.448   1.457   1.877  0.0909  0.1158 -0.6099
  695SOL    HW1 2084   1.459   1.359   1.906  1.5334 -3.1052 -0.2868
  695SOL    HW2 2085   1.469   1.516   1.957 -0.6955 -1.2187 -1.5876
  696SOL     OW 2086   1.686   0.007   0.843 -0.1730  0.3685 -0.0543
  696SOL    HW1 2087   1.595   0.009   0.878  1.4923  1.0946 -0.6671
  696SOL    HW2 2088   1.703   0.081   0.777 -0.8610 -2.8668  4.1051
  697SOL     OW 2089   1.163   0.127   0.927 -0.0577 -0.5531 -0.1308
  697SOL    HW1 2090   1.083   0.070   0.957 -1.3009  1.9218 -2.6400
  697SOL    HW2 2091   1.157   0.173   0.835  0.1508  0.5127 -4.4676
  698SOL     OW 2092   1.710   1.260   2.138 -0.3389 -0.0168  0.3941
  698SOL    HW1 2093   1.710   1.236   2.039 -1.5528  0.1800 -0.3348
  698SOL    HW2 2094   1.614   1.276   2.172 -4.8221 -2.7078 -1.4595
  699SOL     OW 2095   1.301   1.415   1.224 -0.0411 -0.3971  0.1806
  699SOL    HW1 2096   1.304   1.317   1.224  0.6782 -0.6313  1.1059
  699SOL    HW2 2097   1.387   1.450   1.268 -0.1925 -0.0967 -0.4560
  700SOL     OW 2098   1.391   0.225   0.346 -0.4467  0.2163 -0.6853
  700SOL    HW1 2099   1.328   0.181   0.281 -1.2676 -0.8887  0.9867
  700SOL    HW2 2100   1.373   0.185   0.436  2.1518  1.4291 -1.1523
  701SOL     OW 2101   0.588   0.168   1.631  0.5985  0.2308  0.0548
  701SOL    HW1 2102   0.557   0.193   1.540  1.7442 -3.9301  0.5831
  701SOL    HW2 2103   0.642   0.083   1.637  1.7245  1.0051 -1.5154
  702SOL     OW 2104   1.194   2.852   0.546 -0.0516 -0.2008  0.1165
  702SOL    HW1 2105   1.254   2.926   0.507  2.6678 -0.8199  0.9129
  702SOL    HW2 2106   1.153   2.797   0.474  0.0247 -3.3156  2.9151
  703SOL     OW 2107   2.643   3.094   2.333  0.3501 -0.3043  0.7033
  703SOL    HW1 2108   2.619   0.069   2.405 -0.7578  0.8069 -0.9422
  703SOL    HW2 2109   2.570   3.083   2.261 -4.7365 -0.8680 -1.0007
  704SOL     OW 2110   0.990   2.368   0.722 -0.1640 -0.3849 -0.3469
  704SOL    HW1 2111   0.988   2.269   0.747 -1.1421  2.1005 -0.0746
  704SOL    HW2 2112   1.018   2.418   0.806  0.3163  3.1071  1.4718
  705SOL     OW 2113   0.124   0.888   2.266 -0.1711  0.7956 -0.4026
  705SOL    HW1 2114   0.152   0.803   2.323  1.6411 -2.4547  1.9103
  705SOL    HW2 2115   0.018   0.897   2.271 -2.0612  1.8249  1.3937
  706SOL     OW 2116   1.616   0.119   0.255  0.1579  0.6852  0.2205
  706SOL    HW1 2117   1.682   0.078   0.324  3.6896 -1.2111 -0.9623
  706SOL    HW2 2118   1.544   0.181   0.300 -0.7506 -1.0707  1.0269
  707SOL     OW 2119   1.158   2.023   2.414 -0.4135 -0.0354  0.7317
  707SOL    HW1 2120   1.130   1.960   2.488 -1.1092 -0.2291 -0.9566
  707SOL    HW2 2121   1.075   2.075   2.387  0.7858  1.3473  0.1306
  708SOL     OW 2122   2.977   2.053   1.383  0.2131 -0.2954  0.1816
  708SOL    HW1 2123   2.908   2.032   1.457 -4.2917  0.8646  1.9678
  708SOL    HW2 2124   2.983   1.973   1.319  0.2282  0.3213  0.6371
  709SOL     OW 2125   2.133   0.407   1.776 -0.1181 -0.0942 -0.0284
  709SOL    HW1 2126   2.142   0.396   1.877  2.2163  0.1450  1.1901
  709SOL    HW2 2127   2.148   0.498   1.742 -1.0700 -1.7192 -2.3914
  710SOL     OW 2128   2.803   2.899   1.125 -0.4943 -0.0332  0.1757
  710SOL    HW1 2129   2.833   2.994   1.146 -1.4805  1.5880  0.4777
  710SOL    HW2 2130   2.805   2.886   1.024  1.1251 -1.3361 -0.8259
  711SOL     OW 2131   0.374   2.362   0.667  0.3691 -0.5276 -0.2962
  711SOL    HW1 2132   0.466   2.382   0.618 -3.2492  0.4011  0.3836
  711SOL    HW2 2133   0.301   2.353   0.600 -2.3371  1.0638  2.7816
  712SOL     OW 2134   0.495   2.143   2.371  0.3781 -0.0276  0.2159
  712SOL    HW1 2135   0.463   2.240   2.386 -2.8404  1.7405 -2.7128
  712SOL    HW2 2136   0.569   2.109   2.438  0.5970 -1.4280 -0.5320
  713SOL     OW 2137   2.029   0.610   0.101 -0.4497 -0.2575 -0.6655
  713SOL    HW1 2138   1.992   0.535   0.164 -0.7306 -1.9034 -0.0594
  713SOL    HW2 2139   1.957   0.676   0.076 -0.0581 -2.0134  1.9400
  714SOL     OW 2140   1.306   1.875   0.401  0.3873 -0.1326 -0.8795
  714SOL    HW1 2141   1.237   1.821   0.456 -0.4705 -2.1484 -1.1650
  714SOL    HW2 2142   1.262   1.945   0.342 -1.2451  1.8561 -5.0549
  715SOL     OW 2143   2.204   3.050   0.694  0.5712 -0.7309 -0.5200
  715SOL    HW1 2144   2.230   0.048   0.731 -0.9216  1.5684  2.1593
  715SOL    HW2 2145   2.271   2.983   0.734 -1.7648  0.8552 -1.1899
  716SOL     OW 2146   0.717   0.801   2.057  0.0289 -0.4474  0.3054
  716SOL    HW1 2147   0.758   0.857   2.127 -0.5900  0.0533 -1.5921
  716SOL    HW2 2148   0.630   0.846   2.021 -1.5946  0.8811  0.3438
  717SOL     OW 2149   0.132   0.558   2.818 -0.3333  0.1533  0.6277
  717SOL    HW1 2150   0.102   0.652   2.792 -2.1777  1.0277 -0.2483
  717SOL    HW2 2151   0.054   0.506   2.850 -0.9786  1.2122 -0.6359
  718SOL     OW 2152   1.282   0.806   0.206 -0.4602  0.1738 -0.3110
  718SOL    HW1 2153   1.379   0.786   0.163  0.6195 -0.8108 -2.7164
  718SOL    HW2 2154   1.293   0.768   0.298  1.2522 -2.5416  0.6463
  719SOL     OW 2155   2.709   2.020   2.925 -0.8651  0.0489 -0.2296
  719SOL    HW1 2156   2.663   1.964   2.999 -2.6542 -2.2798  1.6190
  719SOL    HW2 2157   2.741   1.967   2.843  0.4939 -0.2140  0.1243
  720SOL     OW 2158   1.385   0.703   1.174 -0.5629 -0.2000 -0.1727
  720SOL    HW1 2159   1.325   0.747   1.105 -2.3386 -0.9136  0.7141
  720SOL    HW2 2160   1.327   0.637   1.229 -2.6602 -0.0757  1.5983
  721SOL     OW 2161   2.742   0.582   0.615  0.1089 -0.0383 -0.1242
  721SOL    HW1 2162   2.646   0.625   0.627 -1.2816  2.3681 -0.6609
  721SOL    HW2 2163   2.785   0.579   0.707 -2.5860 -1.2337 -0.8102
  722SOL     OW 2164   1.038   1.868   2.639  0.0853 -0.2570  0.5729
  722SOL    HW1 2165   1.087   1.935   2.698  3.0375 -0.3770  0.8411
  722SOL    HW2 2166   0.957   1.826   2.686  1.1856 -0.8079 -0.5416
  723SOL     OW 2167   0.407   1.006   0.332  0.4460 -0.3401 -0.5019
  723SOL    HW1 2168   0.428   1.103   0.355  0.2988  2.5066 -0.2593
  723SOL    HW2 2169   0.313   0.981   0.356  1.3451  0.6430 -0.3099
  724SOL     OW 2170   0.806   1.723   1.703 -0.1504 -0.4446  0.1747
  724SOL    HW1 2171   0.885   1.708   1.766 -1.2680 -1.5025  1.2382
  724SOL    HW2 2172   0.758   1.813   1.710  0.6316 -1.1218 -2.6065
  725SOL     OW 2173   0.008   0.998   1.436  0.0796 -0.3827 -0.5141
  725SOL    HW1 2174   0.101   1.040   1.434 -0.7537  0.1407  1.1974
  725SOL    HW2 2175   3.047   1.047   1.507 -0.6083 -0.0574  0.6793
  726SOL     OW 2176   1.793   0.014   0.423 -0.1092 -0.4134  0.3545
  726SOL    HW1 2177   1.724   3.037   0.454 -3.6339 -2.2585  3.9140
  726SOL    HW2 2178   1.831   0.057   0.509  0.4888  0.9657  1.2615
  727SOL     OW 2179   1.425   0.780   2.308  0.0911 -0.5750 -0.5583
  727SOL    HW1 2180   1.375   0.708   2.359  0.5792  0.5390  0.3379
  727SOL    HW2 2181   1.359   0.835   2.248 -0.9612  1.0284 -0.0915
  728SOL     OW 2182   1.477   2.393   1.230 -0.2168 -0.3902  0.6101
  728SOL    HW1 2183   1.490   2.298   1.254  1.3037  0.6640  2.4885
  728SOL    HW2 2184   1.557   2.449   1.231 -4.7609 -3.0827  2.5137
  729SOL     OW 2185   1.522   0.437   1.360 -0.7988  0.8873 -0.1568
  729SOL    HW1 2186   1.568   0.350   1.391 -0.0594 -3.2580  1.5742
  729SOL    HW2 2187   1.567   0.469   1.272  1.2771 -1.1381 -3.1585
  730SOL     OW 2188   0.762   1.876   2.028 -0.0440 -0.3445  0.4459
  730SOL    HW1 2189   0.856   1.912   2.051  0.6972  1.8944  0.4143
  730SOL    HW2 2190   0.691   1.948   2.003 -2.6011 -0.9739 -0.0322
  731SOL     OW 2191   0.448   0.419   0.312 -0.7128 -0.4251  0.4528
  731SOL    HW1 2192   0.488   0.494   0.370  0.4656  0.5919 -2.8026
  731SOL    HW2 2193   0.357   0.445   0.277 -1.9226  1.4812  2.6864
  732SOL     OW 2194   0.571   0.495   2.948  0.3619  0.4743  0.3881
  732SOL    HW1 2195   0.612   0.467   3.035 -1.5463  0.8376  1.1391
  732SOL    HW2 2196   0.467   0.480   2.946  0.3658 -0.4684 -1.6272
  733SOL     OW 2197   1.586   2.143   1.456 -0.5171  0.0944  0.2616
  733SOL    HW1 2198   1.536   2.120   1.375  2.4089  0.9587 -1.6091
  733SOL    HW2 2199   1.521   2.153   1.536 -0.6550 -0.9032  1.4672
  734SOL     OW 2200   3.072   2.588   2.573 -0.2527 -0.6569 -0.0648
  734SOL    HW1 2201   3.089   2.524   2.647  1.1617  0.7791 -1.4142
  734SOL    HW2 2202   2.968   2.601   2.570 -4.2443 -1.1206  0.4460
  735SOL     OW 2203   0.801   2.759   0.890  0.3210  0.0193  0.2083
  735SOL    HW1 2204   0.862   2.766   0.971  0.1024  0.8138  2.5742
  735SOL    HW2 2205   0.847   2.801   0.808  0.4424 -1.4513 -1.2501
  736SOL     OW 2206   1.600   1.047   2.731  0.2472  0.5234 -0.1684
  736SOL    HW1 2207   1.529   1.041   2.661 -0.0557  1.1261 -1.2599
  736SOL    HW2 2208   1.558   1.073   2.819  0.9713  1.1587  0.8855
  737SOL     OW 2209   0.029   0.316   0.648 -0.2826 -0.3902  0.0239
  737SOL    HW1 2210   0.093   0.263   0.589 -0.9753 -1.6811 -0.1332
  737SOL    HW2 2211   3.029   0.320   0.605 -1.4029  1.2185  2.6674
  738SOL     OW 2212   2.801   2.429   1.257  0.5684 -0.3022 -0.6148
  738SOL    HW1 2213   2.774   2.355   1.191  0.1193 -0.1103 -0.6225
  738SOL    HW2 2214   2.807   2.514   1.201 -0.7351 -0.5348  0.9764
  739SOL     OW 2215   1.629   2.905   0.511 -0.5324 -0.2723  0.2190
  739SOL    HW1 2216   1.551   2.911   0.576  1.7128 -0.5184 -0.0146
  739SOL    HW2 2217   1.712   2.914   0.570  0.3059  2.1034  0.9624
  740SOL     OW 2218   1.504   3.019   1.180  0.7285 -0.0457  0.1935
  740SOL    HW1 2219   1.426   2.969   1.134  1.0191  0.8144  4.1352
  740SOL    HW2 2220   1.511   0.024   1.153  2.0158  2.8360 -1.6978
  741SOL     OW 2221   2.335   0.196   0.759  0.1088 -0.2004  0.1177
  741SOL    HW1 2222   2.434   0.188   0.723  0.9302 -0.4214  0.7601
  741SOL    HW2 2223   2.323   0.260   0.836 -2.0998 -0.7008  1.2220
  742SOL     OW 2224   1.415   2.232   2.057 -0.6969  0.0049  0.2502
  742SOL    HW1 2225   1.477   2.243   2.139 -1.5336  0.8148  0.2034
  742SOL    HW2 2226   1.460   2.262   1.969  1.8160  0.8208 -1.0909
  743SOL     OW 2227   2.550   0.413   1.763  0.3037 -0.2581 -0.7541
  743SOL    HW1 2228   2.535   0.495   1.822  0.0376  0.6202 -1.8907
  743SOL    HW2 2229   2.597   0.438   1.678 -1.2215  0.4368  4.2642
  744SOL     OW 2230   2.321   0.353   1.061  0.4644 -0.7556  0.0276
  744SOL    HW1 2231   2.252   0.423   1.023 -0.9701 -1.4488  0.0328
  744SOL    HW2 2232   2.345   0.384   1.155 -3.2208  1.1489  0.2668
  745SOL     OW 2233   2.128   1.443   1.820 -0.3560 -0.1500 -0.4897
  745SOL    HW1 2234   2.069   1.457   1.906  0.7391 -0.0987  0.7098
  745SOL    HW2 2235   2.083   1.493   1.743  1.1739 -4.7363 -0.7908
  746SOL     OW 2236   1.176   1.323   0.907 -0.1049  0.0011 -0.3756
  746SOL    HW1 2237   1.235   1.394   0.949 -0.7111 -0.4158 -2.5479
  746SOL    HW2 2238   1.133   1.352   0.817  2.3830 -1.2161  0.5158
  747SOL     OW 2239   1.669   1.251   1.088 -0.1401  0.0326 -0.3495
  747SOL    HW1 2240   1.618   1.160   1.084 -2.1562  1.3912  2.8422
  747SOL    HW2 2241   1.760   1.243   1.140  0.7362  4.4182 -0.1841
  748SOL     OW 2242   3.037   0.071   0.387 -0.2412  0.6227 -0.1355
  748SOL    HW1 2243   3.009   0.145   0.323 -2.9350  0.9988 -0.3557
  748SOL    HW2 2244   0.039   0.055   0.386 -1.2469 -2.2007  0.2608
  749SOL     OW 2245   0.146   0.489   2.040 -0.2825 -0.2222 -0.6050
  749SOL    HW1 2246   0.231   0.431   2.029  3.0408 -0.4240 -2.0247
  749SOL    HW2 2247   0.169   0.588   2.043  0.1856  1.9350  0.7630
  750SOL     OW 2248   1.971   3.042   1.772  0.0478  0.0215 -0.3235
  750SOL    HW1 2249   1.967   0.038   1.726 -2.2695  1.2114 -2.3343
  750SOL    HW2 2250   1.904   2.976   1.741 -1.0178  1.5960  0.7852
  751SOL     OW 2251   2.836   0.202   0.775 -0.0593  0.0583 -0.1668
  751SOL    HW1 2252   2.859   0.271   0.704  1.1558  0.8483 -1.0554
  751SOL    HW2 2253   2.782   0.245   0.848  1.3073 -1.9555  0.5966
  752SOL     OW 2254   0.320   2.810   0.882  0.0354 -0.3092  0.1158
  752SOL    HW1 2255   0.331   2.710   0.874  1.3006  0.3885 -1.2230
  752SOL    HW2 2256   0.222   2.829   0.867 -0.2358 -0.7426 -1.2397
  753SOL     OW 2257   1.158   0.333   1.892 -0.1823  0.1016 -0.7475
  753SOL    HW1 2258   1.108   0.381   1.819 -0.1823 -0.2593  1.3170
  753SOL    HW2 2259   1.252   0.372   1.891  0.3298  0.5704 -1.4525
  754SOL     OW 2260   1.203   2.853   1.778  0.1875  0.2213  0.0339
  754SOL    HW1 2261   1.273   2.913   1.732  0.1220 -0.1207 -0.9013
  754SOL    HW2 2262   1.244   2.815   1.863  0.5896  0.0042 -0.3320
  755SOL     OW 2263   2.487   0.975   0.700 -0.1116 -0.3028 -0.0831
  755SOL    HW1 2264   2.533   1.045   0.755  0.7870  0.2131 -0.8807
  755SOL    HW2 2265   2.470   1.016   0.607  0.5180  2.1920 -2.9713
  756SOL     OW 2266   1.903   1.955   2.587 -0.1344  0.2273 -0.9033
  756SOL    HW1 2267   1.813   1.963   2.626 -0.9394 -1.7874 -0.9363
  756SOL    HW2 2268   1.955   2.041   2.609 -0.7698  0.4614 -0.3989
  757SOL     OW 2269   1.795   2.938   1.038  0.3790 -0.6466 -0.0901
  757SOL    HW1 2270   1.777   2.981   0.945 -0.8516 -2.8252 -0.4335
  757SOL    HW2 2271   1.729   2.855   1.041 -0.1305 -2.0442  0.2546
  758SOL     OW 2272   1.087   2.669   0.795 -0.0369 -0.4774  0.3029
  758SOL    HW1 2273   1.049   2.628   0.880  0.6356 -0.5873  2.6714
  758SOL    HW2 2274   1.097   2.769   0.805  0.1351 -0.0523  0.4675
  759SOL     OW 2275   2.885   0.592   1.220 -0.1568 -0.4056 -0.2556
  759SOL    HW1 2276   2.956   0.549   1.157  2.8565 -0.3406  1.8333
  759SOL    HW2 2277   2.799   0.538   1.221 -1.9399 -0.8779  0.0351
  760SOL     OW 2278   2.214   1.323   1.434 -0.5064 -0.0658 -0.4885
  760SOL    HW1 2279   2.271   1.293   1.355 -0.1958 -0.2726 -1.7682
  760SOL    HW2 2280   2.257   1.297   1.525 -0.1207 -2.0633  1.1256
  761SOL     OW 2281   0.572   1.030   0.725 -0.2807 -0.2962  0.1457
  761SOL    HW1 2282   0.479   0.994   0.733  2.4103 -1.5645  2.5383
  761SOL    HW2 2283   0.636   0.953   0.707 -1.7568 -1.8852  1.2485
  762SOL     OW 2284   2.062   1.862   1.387 -0.4277  0.2122 -0.2776
  762SOL    HW1 2285   2.062   1.813   1.294  1.8328 -2.5203  0.4725
  762SOL    HW2 2286   1.974   1.840   1.439 -1.8722  1.6467  0.0564
  763SOL     OW 2287   1.060   1.608   1.843 -0.4423 -0.6687 -0.0761
  763SOL    HW1 2288   1.045   1.572   1.937  1.0211  2.1288 -0.2429
  763SOL    HW2 2289   1.136   1.680   1.837  1.1190 -0.0800  2.2937
  764SOL     OW 2290   0.030   2.027   2.259 -0.1484  0.2837 -0.0748
  764SOL    HW1 2291   0.007   2.117   2.300  2.9516  1.8396 -0.8348
  764SOL    HW2 2292   0.123   1.998   2.276 -1.0824  0.1263  1.1534
  765SOL     OW 2293   1.185   2.519   1.218  0.0613 -0.1382  0.1802
  765SOL    HW1 2294   1.205   2.589   1.292  2.1252  0.2728  0.1061
  765SOL    HW2 2295   1.221   2.429   1.238 -0.1337 -1.8250  1.2893
  766SOL     OW 2296   0.667   2.421   2.568 -0.2999 -0.1838 -0.4404
  766SOL    HW1 2297   0.701   2.330   2.595  0.4783  2.3704  0.6369
  766SOL    HW2 2298   0.635   2.459   2.659 -1.0908  0.4562  4.0475
  767SOL     OW 2299   1.434   0.996   2.524 -0.3562  0.0080 -0.7465
  767SOL    HW1 2300   1.391   0.902   2.541  3.0244  1.1264 -1.8215
  767SOL    HW2 2301   1.499   0.990   2.442  0.7333 -0.6175 -0.3520
  768SOL     OW 2302   1.342   2.708   3.028  0.0449  0.1941  0.2992
  768SOL    HW1 2303   1.396   2.766   2.963 -0.4392 -0.9582 -2.4006
  768SOL    HW2 2304   1.346   2.604   3.004 -2.0194 -1.1711 -2.8059
  769SOL     OW 2305   0.022   2.755   1.303  0.2626 -0.5670  0.1942
  769SOL    HW1 2306   3.094   2.717   1.213  1.8115  1.8362 -0.6777
  769SOL    HW2 2307   0.096   2.701   1.341  0.2259 -1.1446  2.8453
  770SOL     OW 2308   1.087   0.461   2.725  0.1329  0.0442 -0.2650
  770SOL    HW1 2309   1.026   0.377   2.722  0.7922 -0.6002 -0.4935
  770SOL    HW2 2310   1.051   0.521   2.805 -2.0963 -0.2647  1.1351
  771SOL     OW 2311   0.579   0.241   2.388 -0.4596  0.2192  0.1178
  771SOL    HW1 2312   0.505   0.175   2.383  1.3459 -1.6754 -1.8356
  771SOL    HW2 2313   0.547   0.339   2.407 -0.4425  2.3639 -1.0198
  772SOL     OW 2314   2.516   3.090   2.068  0.1040 -0.0034 -0.3976
  772SOL    HW1 2315   2.553   0.073   2.018  1.4155 -0.6630  1.2238
  772SOL    HW2 2316   2.570   3.008   2.041  0.7453  2.0210 -1.7498
  773SOL     OW 2317   0.798   2.306   1.932 -0.4722 -0.1838  0.0597
  773SOL    HW1 2318   0.872   2.360   1.987  2.8278  1.7989  2.4861
  773SOL    HW2 2319   0.732   2.268   2.002  2.0013  1.1651 -2.6724
  774SOL     OW 2320   1.177   0.336   2.174  0.6034 -0.0864 -0.4271
  774SOL    HW1 2321   1.165   0.246   2.217 -0.3288 -0.1160 -1.5484
  774SOL    HW2 2322   1.154   0.329   2.075  1.4634 -0.8775 -1.3689
  775SOL     OW 2323   2.115   2.979   2.921 -0.1052  0.2027 -0.7422
  775SOL    HW1 2324   2.020   2.977   2.959  1.5280  0.3721 -0.4311
  775SOL    HW2 2325   2.134   3.063   2.867  1.6784  0.4029 -0.3601
  776SOL     OW 2326   1.910   0.487   2.304  0.4643 -0.3756 -0.7326
  776SOL    HW1 2327   1.947   0.556   2.239  0.2683  1.1461 -0.7536
  776SOL    HW2 2328   1.811   0.482   2.290  0.0297 -0.0062 -1.1798
  777SOL     OW 2329   2.530   0.994   2.618 -0.4883 -0.4900  0.1267
  777SOL    HW1 2330   2.581   1.050   2.554 -0.0803  2.5621 -1.0534
  777SOL    HW2 2331   2.449   0.961   2.566 -1.5062 -1.1130  0.2560
  778SOL     OW 2332   2.009   0.668   2.112 -0.5829  0.6588 -0.3256
  778SOL    HW1 2333   2.106   0.692   2.091 -0.5504 -0.1942 -0.1394
  778SOL    HW2 2334   1.959   0.639   2.027 -1.2581 -1.9525  0.1181
  779SOL     OW 2335   3.077   0.367   0.136 -0.0138 -0.1420  0.4122
  779SOL    HW1 2336   0.054   0.407   0.200 -2.3558  0.3414 -0.6589
  779SOL    HW2 2337   0.011   0.279   0.093  0.2740 -1.0800  0.1024
  780SOL     OW 2338   2.300   0.417   2.932 -0.3219  0.0645 -0.2223
  780SOL    HW1 2339   2.355   0.399   2.848 -0.1730 -1.0967  1.5283
  780SOL    HW2 2340   2.290   0.515   2.950  0.5603  0.8692  0.9665
  781SOL     OW 2341   0.463   2.766   1.326  0.1980 -0.7362 -0.3913
  781SOL    HW1 2342   0.431   2.826   1.247  1.9497  2.6457 -1.7158
  781SOL    HW2 2343   0.403   2.687   1.345 -0.9412  0.7390  0.1140
  782SOL     OW 2344   1.864   2.377   0.317  0.2281 -1.0467  0.4758
  782SOL    HW1 2345   1.849   2.363   0.418  0.5721  0.3626 -1.0878
  782SOL    HW2 2346   1.886   2.472   0.293  0.4948 -1.5961  1.0031
  783SOL     OW 2347   0.648   1.336   1.541  0.0941  0.0477 -0.1103
  783SOL    HW1 2348   0.640   1.407   1.466  1.3639 -1.3747 -1.4641
  783SOL    HW2 2349   0.654   1.240   1.504  0.9901  0.5375 -1.3982
  784SOL     OW 2350   1.501   0.875   1.987  0.2543  0.6385  0.1387
  784SOL    HW1 2351   1.599   0.895   1.992  2.6315  1.2643 -2.4651
  784SOL    HW2 2352   1.487   0.778   1.992 -1.5966  2.0935  0.8806
  785SOL     OW 2353   2.592   0.068   0.985  0.0434 -0.0347 -0.5162
  785SOL    HW1 2354   2.496   0.094   1.012  0.4838  1.5291 -1.5141
  785SOL    HW2 2355   2.595   0.006   0.905 -0.6384  0.1221  2.2969
  786SOL     OW 2356   1.712   2.859   1.328 -0.2452 -0.3209 -0.4407
  786SOL    HW1 2357   1.786   2.915   1.373 -0.3438  0.2253  3.1193
  786SOL    HW2 2358   1.667   2.921   1.263 -0.3743  0.1946  1.2885
  787SOL     OW 2359   1.360   0.039   1.394 -0.2142 -0.6284 -0.4753
  787SOL    HW1 2360   1.269   0.058   1.351 -0.0409  1.0420 -1.2389
  787SOL    HW2 2361   1.408   3.054   1.344 -0.3749 -2.2992 -1.6566
  788SOL     OW 2362   0.032   0.918   0.213  0.0388 -0.5025  0.7163
  788SOL    HW1 2363   0.022   0.842   0.146  1.7410 -0.7393  1.8911
  788SOL    HW2 2364   3.041   0.949   0.249 -0.8323  2.9869  0.4430
  789SOL     OW 2365   0.504   1.208   1.857  0.1507  0.5477  0.0829
  789SOL    HW1 2366   0.589   1.182   1.903 -1.7415  0.1214  0.1575
  789SOL    HW2 2367   0.458   1.292   1.891  1.5549  1.0998  0.0116
  790SOL     OW 2368   0.308   0.581   2.599  0.2855 -0.9997 -0.2479
  790SOL    HW1 2369   0.378   0.654   2.615 -1.9832  0.6289 -0.8981
  790SOL    HW2 2370   0.249   0.573   2.681 -0.2859  1.5277  0.1941
  791SOL     OW 2371   2.270   0.582   0.543 -0.1849 -0.0309  0.2202
  791SOL    HW1 2372   2.202   0.637   0.497  2.2100 -0.0351  4.7004
  791SOL    HW2 2373   2.227   0.499   0.587  0.7143 -0.4153  2.0329
  792SOL     OW 2374   0.941   2.942   1.314  0.5858 -0.6142  0.5699
  792SOL    HW1 2375   0.840   2.943   1.305 -3.7913 -3.3578  0.0956
  792SOL    HW2 2376   0.964   2.917   1.408 -2.0323 -2.3546  0.1689
  793SOL     OW 2377   0.372   2.922   1.129  0.4402 -0.3111 -0.0739
  793SOL    HW1 2378   0.335   2.882   1.049 -0.3206  0.7373  2.8933
  793SOL    HW2 2379   0.304   2.985   1.164  0.7900  1.2125 -0.6810
  794SOL     OW 2380   0.200   0.656   2.360  0.0012  0.9296 -0.0223
  794SOL    HW1 2381   0.239   0.639   2.452 -0.8314  0.6284 -0.5062
  794SOL    HW2 2382   0.275   0.644   2.293  1.8608 -2.8756  0.4807
  795SOL     OW 2383   0.440   2.557   2.727 -0.1018  0.1690 -0.0297
  795SOL    HW1 2384   0.512   2.575   2.798 -1.0373  0.4876  0.6123
  795SOL    HW2 2385   0.441   2.632   2.659 -1.1040 -0.7614  0.0426
  796SOL     OW 2386   2.240   0.621   2.584  0.4148  0.6570 -0.2084
  796SOL    HW1 2387   2.241   0.724   2.601  1.1331  2.0862  1.2961
  796SOL    HW2 2388   2.148   0.573   2.587  2.1094  0.5609  2.0467
  797SOL     OW 2389   2.684   2.502   2.737  0.5207 -0.6682  0.0533
  797SOL    HW1 2390   2.712   2.557   2.816 -3.4544  0.5709  0.5418
  797SOL    HW2 2391   2.582   2.507   2.723 -0.7781 -1.4899  0.0070
  798SOL     OW 2392   0.338   0.380   1.642  0.3605 -0.7173  0.0269
  798SOL    HW1 2393   0.335   0.386   1.747 -1.2561  0.8406  2.1157
  798SOL    HW2 2394   0.432   0.390   1.610  2.4357 -0.4214 -2.1579
  799SOL     OW 2395   0.723   2.970   1.905 -0.1190  0.6518 -0.1679
  799SOL    HW1 2396   0.753   3.055   1.953  0.4829  2.5825  1.7558
  799SOL    HW2 2397   0.654   2.918   1.965 -0.2026 -0.0666  0.9575
  800SOL     OW 2398   0.106   2.525   0.285  0.2457  0.1251 -0.6792
  800SOL    HW1 2399   0.084   2.500   0.191 -0.5582  5.4318 -0.0474
  800SOL    HW2 2400   0.206   2.508   0.299 -0.2920  0.5028 -1.7875
  801SOL     OW 2401   1.665   1.687   0.872 -0.3264 -0.2511 -0.2319
  801SOL    HW1 2402   1.623   1.745   0.800 -0.7741  2.1684  1.5162
  801SOL    HW2 2403   1.672   1.741   0.959 -0.1039 -1.4627 -1.6216
  802SOL     OW 2404   0.523   0.643   0.450 -0.5210 -0.1330  0.2635
  802SOL    HW1 2405   0.456   0.671   0.523 -2.4856 -1.9998  0.6084
  802SOL    HW2 2406   0.575   0.724   0.421  1.3079 -0.8261 -0.4147
  803SOL     OW 2407   1.140   1.204   1.836  0.3377 -0.3222 -0.0047
  803SOL    HW1 2408   1.056   1.241   1.880 -0.7351 -0.9750  0.7862
  803SOL    HW2 2409   1.144   1.221   1.732 -1.3459  1.1188  0.8094
  804SOL     OW 2410   1.701   2.012   0.850  0.2995  0.3933  0.4136
  804SOL    HW1 2411   1.704   1.940   0.920 -1.1502 -2.7412 -2.1858
  804SOL    HW2 2412   1.660   1.967   0.769 -0.2402  1.9130 -0.2924
  805SOL     OW 2413   0.231   2.088   2.738 -0.0449 -0.0003  0.4668
  805SOL    HW1 2414   0.147   2.088   2.794  0.3029 -0.9198 -2.9345
  805SOL    HW2 2415   0.247   2.175   2.681  1.0423  2.2948 -1.1725
  806SOL     OW 2416   0.570   2.365   0.461  0.0501  0.1115 -0.4184
  806SOL    HW1 2417   0.631   2.401   0.532 -2.1593 -3.0697 -1.9529
  806SOL    HW2 2418   0.629   2.298   0.410  1.7219 -1.7722  0.0846
  807SOL     OW 2419   2.401   1.238   2.692  0.7137  0.4937 -0.2976
  807SOL    HW1 2420   2.379   1.292   2.777  1.4515 -1.1738 -0.3686
  807SOL    HW2 2421   2.469   1.165   2.705 -1.5964  1.9439 -2.0441
  808SOL     OW 2422   1.357   2.349   0.986  0.2465  0.0679 -0.5364
  808SOL    HW1 2423   1.292   2.274   0.999 -2.0839  1.5035  2.3907
  808SOL    HW2 2424   1.397   2.380   1.070 -0.8520 -0.5724 -0.9305
  809SOL     OW 2425   0.111   0.567   0.521 -0.4508 -0.2164  0.2489
  809SOL    HW1 2426   0.146   0.635   0.585  0.7358  0.8452 -1.4014
  809SOL    HW2 2427   0.091   0.480   0.574 -0.5987 -2.1012  1.4370
  810SOL     OW 2428   1.499   1.509   3.083 -0.1108 -0.8631  0.1846
  810SOL    HW1 2429   1.463   1.596   3.043 -0.7992  0.6568 -0.3204
  810SOL    HW2 2430   1.537   1.519   0.083  0.9568 -0.3375 -0.8391
  811SOL     OW 2431   1.701   2.567   1.281 -0.2617 -0.2560 -0.3985
  811SOL    HW1 2432   1.703   2.607   1.185 -0.3473  0.1107 -2.9448
  811SOL    HW2 2433   1.729   2.631   1.352  2.6701  1.2291  2.3980
  812SOL     OW 2434   1.285   2.891   1.030  0.4332 -0.3325  0.1956
  812SOL    HW1 2435   1.318   2.795   1.033 -0.2066 -0.4597  0.1480
  812SOL    HW2 2436   1.202   2.896   0.972  1.2789 -1.8351 -1.8354
  813SOL     OW 2437   1.003   0.130   1.859  0.4802 -0.3497  0.0339
  813SOL    HW1 2438   1.074   0.205   1.867  3.7899 -2.5525  1.0307
  813SOL    HW2 2439   0.988   0.113   1.760  0.5374 -1.3363 -2.3590
  814SOL     OW 2440   0.985   2.424   2.087  0.2911 -0.1769 -0.2071
  814SOL    HW1 2441   0.892   2.456   2.115 -0.0687  0.7257 -1.3903
  814SOL    HW2 2442   1.042   2.424   2.170 -2.1415 -2.3425  1.0177
  815SOL     OW 2443   0.443   0.277   2.731 -0.3537 -0.1940 -0.1928
  815SOL    HW1 2444   0.447   0.238   2.824  1.1408  0.3990  3.5319
  815SOL    HW2 2445   0.535   0.286   2.691  1.3147 -0.7947  2.0745
  816SOL     OW 2446   2.269   1.119   0.148  0.3494 -0.4601  0.1564
  816SOL    HW1 2447   2.295   1.189   0.078 -2.6960  4.0855 -0.9138
  816SOL    HW2 2448   2.315   1.031   0.125 -2.2785  0.2228 -0.4973
  817SOL     OW 2449   2.756   2.482   2.321 -0.1814  0.2479  0.0950
  817SOL    HW1 2450   2.722   2.576   2.307 -2.5658 -0.6266  1.4979
  817SOL    HW2 2451   2.852   2.470   2.281  1.6297  3.7707  1.2191
  818SOL     OW 2452   0.848   1.315   0.541 -0.2238 -0.0474  0.4528
  818SOL    HW1 2453   0.785   1.381   0.589  0.5083 -1.1454 -1.1335
  818SOL    HW2 2454   0.815   1.289   0.447  1.0404 -0.6249  0.5033
  819SOL     OW 2455   1.689   1.202   2.537  0.1676  0.2682 -0.3196
  819SOL    HW1 2456   1.700   1.146   2.455  1.0094 -0.9494  1.8109
  819SOL    HW2 2457   1.674   1.136   2.615 -1.5291 -1.1484 -0.7727
  820SOL     OW 2458   0.414   1.231   0.101 -0.2331  0.2623 -0.0310
  820SOL    HW1 2459   0.429   1.235   0.200  0.3225 -3.7866 -1.8371
  820SOL    HW2 2460   0.315   1.197   0.086 -2.2537 -3.8759 -1.5591
  821SOL     OW 2461   0.561   2.875   0.780 -0.3016 -0.2583  0.1907
  821SOL    HW1 2462   0.645   2.821   0.815  0.6826 -2.8176  3.8602
  821SOL    HW2 2463   0.471   2.859   0.827 -0.0681  1.9018 -0.6291
  822SOL     OW 2464   2.248   2.309   2.780 -0.4370  0.4150 -0.0308
  822SOL    HW1 2465   2.329   2.268   2.833  1.0916  1.9703  0.6710
  822SOL    HW2 2466   2.212   2.391   2.826 -0.0905 -0.6027 -1.6075
  823SOL     OW 2467   1.323   0.449   2.592  0.1509  0.3317  0.1984
  823SOL    HW1 2468   1.385   0.387   2.645 -0.5020  0.5355 -1.0516
  823SOL    HW2 2469   1.227   0.452   2.629  2.3165  0.1729 -1.1936
  824SOL     OW 2470   2.510   2.710   1.546  0.0627  0.5396 -0.6295
  824SOL    HW1 2471   2.587   2.702   1.614 -1.2074 -0.0987  0.5262
  824SOL    HW2 2472   2.551   2.755   1.462  0.5798 -2.1746  0.4916
  825SOL     OW 2473   0.221   2.278   2.561  0.1429 -0.0379  0.2954
  825SOL    HW1 2474   0.169   2.244   2.478  1.1170 -4.4095 -1.9227
  825SOL    HW2 2475   0.295   2.341   2.539 -1.1581 -2.6237  1.2943
  826SOL     OW 2476   1.717   0.539   0.137  0.0847 -0.3246 -0.1774
  826SOL    HW1 2477   1.787   0.488   0.189 -0.6293 -1.6540  1.0219
  826SOL    HW2 2478   1.751   0.544   0.039 -1.2334 -1.9908 -0.9190
  827SOL     OW 2479   0.060   1.781   1.911 -0.0938  0.4039  0.1991
  827SOL    HW1 2480   0.033   1.686   1.885 -0.7164  1.7489 -2.5737
  827SOL    HW2 2481   0.025   1.836   1.831 -0.8452 -0.4801  1.3021
  828SOL     OW 2482   0.176   3.050   1.302  0.0476  0.0149  0.1912
  828SOL    HW1 2483   0.197   0.053   1.326 -1.2508 -1.6336 -1.9093
  828SOL    HW2 2484   0.144   2.999   1.382  1.0954 -2.0586  3.8663
  829SOL     OW 2485   0.939   2.171   2.362  0.2088 -0.6221  0.1951
  829SOL    HW1 2486   0.909   2.157   2.455  0.5523  0.7694  1.9816
  829SOL    HW2 2487   0.961   2.268   2.343  1.4359 -2.8434  2.4342
  830SOL     OW 2488   0.710   0.804   1.382  0.6783  0.2541 -0.5777
  830SOL    HW1 2489   0.742   0.744   1.303 -0.9483  2.2324  0.3853
  830SOL    HW2 2490   0.608   0.800   1.391  1.0390  0.1927 -1.6325
  831SOL     OW 2491   2.717   1.781   3.094  0.0457  0.1289  0.0235
  831SOL    HW1 2492   2.747   1.732   3.016 -2.6628  1.1479  1.6646
  831SOL    HW2 2493   2.781   1.785   0.080 -1.3217  0.8066  0.5853
  832SOL     OW 2494   1.348   2.371   3.010  0.0008  0.1688 -0.5967
  832SOL    HW1 2495   1.273   2.427   3.060 -3.4892  1.6113  3.7254
  832SOL    HW2 2496   1.325   2.348   2.915 -0.6644  1.0002  0.9575
  833SOL     OW 2497   0.386   0.376   1.918 -0.3915  0.1513 -0.6711
  833SOL    HW1 2498   0.469   0.409   1.958 -2.7506  0.0347 -1.7840
  833SOL    HW2 2499   0.378   0.277   1.896 -0.7695  2.6865  1.0250
  834SOL     OW 2500   0.130   0.807   1.228 -0.4863 -0.7050  0.6151
  834SOL    HW1 2501   0.150   0.717   1.271 -0.1947  1.2298  0.5168
  834SOL    HW2 2502   0.059   0.853   1.279  0.0217 -1.4616  0.0294
  835SOL     OW 2503   2.419   0.354   0.317 -0.0823 -0.5269  0.0250
  835SOL    HW1 2504   2.426   0.319   0.222 -0.0832  1.0311  1.5047
  835SOL    HW2 2505   2.430   0.459   0.324 -1.1438  2.1526 -0.7095
  836SOL     OW 2506   0.903   2.081   0.482 -0.0927  0.1898 -0.0707
  836SOL    HW1 2507   0.888   2.031   0.574 -0.9942 -1.8655  5.8193
  836SOL    HW2 2508   0.992   2.133   0.490 -0.2430  1.7657  1.6328
  837SOL     OW 2509   1.729   1.656   0.312  0.2478 -0.4272 -0.1359
  837SOL    HW1 2510   1.747   1.636   0.212  0.0086 -0.3282  0.6018
  837SOL    HW2 2511   1.660   1.592   0.346  0.4291  3.1561  0.1274
  838SOL     OW 2512   1.850   0.873   2.193  0.0847  0.1900 -0.4444
  838SOL    HW1 2513   1.923   0.804   2.203 -2.4795  0.3150 -0.8904
  838SOL    HW2 2514   1.838   0.913   2.098 -0.5216  1.2920  0.9001
  839SOL     OW 2515   1.011   1.457   2.458 -0.2123  0.1796  0.2588
  839SOL    HW1 2516   1.029   1.361   2.419 -0.7092 -2.4832 -1.4238
  839SOL    HW2 2517   1.048   1.525   2.393  1.9516 -1.2446  3.0318
  840SOL     OW 2518   0.826   1.358   0.137 -0.3413 -0.0597 -0.6034
  840SOL    HW1 2519   0.868   1.278   0.185  2.3497  1.1314  0.5188
  840SOL    HW2 2520   0.822   1.347   0.034  1.2832  1.4049 -1.3520
  841SOL     OW 2521   1.515   2.191   0.067  0.1518  0.3520 -0.9585
  841SOL    HW1 2522   1.542   2.234   0.155 -1.5395 -1.1780 -2.4847
  841SOL    HW2 2523   1.453   2.254   0.018  1.0667 -1.4250  1.3472
  842SOL     OW 2524   0.189   0.474   0.267 -0.6606  0.2020  0.4202
  842SOL    HW1 2525   0.196   0.558   0.210 -2.3478  0.4469 -0.7404
  842SOL    HW2 2526   0.178   0.499   0.367 -1.7876 -0.5757  2.6995
  843SOL     OW 2527   0.517   0.384   0.815 -0.8226 -0.9205 -0.1270
  843SOL    HW1 2528   0.585   0.310   0.794  1.5010 -0.1818  1.1426
  843SOL    HW2 2529   0.478   0.356   0.903 -0.9402  0.5009 -2.9496
  844SOL     OW 2530   2.205   2.522   2.446  0.0448  0.0104  0.0862
  844SOL    HW1 2531   2.244   2.430   2.447  0.9330  2.2672  0.3886
  844SOL    HW2 2532   2.110   2.507   2.471  3.9537  0.7113  0.1350
  845SOL     OW 2533   3.032   2.538   1.653  0.4230 -0.4050  0.7521
  845SOL    HW1 2534   3.012   2.637   1.654 -1.4115  1.4724 -0.9807
  845SOL    HW2 2535   2.947   2.496   1.613 -0.7721  1.5698  0.9386
  846SOL     OW 2536   1.924   1.347   2.511  0.0497 -0.2266  0.5261
  846SOL    HW1 2537   1.838   1.304   2.549 -0.3044  1.6781  2.5016
  846SOL    HW2 2538   1.934   1.328   2.414 -0.7279  2.5997  0.7316
  847SOL     OW 2539   3.010   0.520   1.905  0.2647 -0.3469  0.4288
  847SOL    HW1 2540   3.008   0.558   1.812  0.4116 -0.1541  0.5676
  847SOL    HW2 2541   3.088   0.551   1.963 -0.7157 -2.7453 -1.8640
  848SOL     OW 2542   2.469   2.647   2.975 -0.1231  0.0762  0.1108
  848SOL    HW1 2543   2.570   2.662   2.979 -1.2308 -1.7740 -0.2191
  848SOL    HW2 2544   2.441   2.627   2.880  3.9005 -0.0925 -1.8358
  849SOL     OW 2545   0.359   2.896   0.587  0.5154 -0.4873  0.0809
  849SOL    HW1 2546   0.434   2.865   0.642  1.1843  0.7616 -2.5245
  849SOL    HW2 2547   0.279   2.920   0.655  0.8839 -0.9782  2.6666
  850SOL     OW 2548   0.836   2.427   0.225 -0.9278  0.1457 -0.0808
  850SOL    HW1 2549   0.875   2.351   0.163 -0.0529 -1.3009 -2.2176
  850SOL    HW2 2550   0.875   2.433   0.320 -0.7886  0.1015 -2.7968
  851SOL     OW 2551   1.792   0.644   2.707 -0.7665  0.4482 -0.6176
  851SOL    HW1 2552   1.740   0.665   2.624  0.0803  1.1794 -0.2179
  851SOL    HW2 2553   1.885   0.607   2.675 -0.1154  2.0718  1.8535
  852SOL     OW 2554   1.695   2.539   2.670  0.3729  0.2461 -0.0775
  852SOL    HW1 2555   1.716   2.439   2.665 -0.2694  1.5383  0.6856
  852SOL    HW2 2556   1.766   2.597   2.623  1.2140  0.9316  0.9039
  853SOL     OW 2557   0.039   2.516   0.034 -0.3623  0.3748  0.1233
  853SOL    HW1 2558   0.062   2.583   3.055 -2.3582 -2.0062  1.1661
  853SOL    HW2 2559   3.035   2.499   0.033 -1.4569 -0.2901 -0.1270
  854SOL     OW 2560   1.629   0.508   2.295  1.1289  0.0415  0.4210
  854SOL    HW1 2561   1.527   0.500   2.298  1.5823 -1.6929  1.6508
  854SOL    HW2 2562   1.660   0.597   2.331  1.4340  2.5253  0.0592
  855SOL     OW 2563   0.431   2.763   0.337  0.3793 -0.1928 -0.0871
  855SOL    HW1 2564   0.394   2.667   0.321  0.7514  1.2839 -0.6195
  855SOL    HW2 2565   0.407   2.794   0.430 -1.2354  0.5587 -0.9159
  856SOL     OW 2566   0.197   2.739   2.626  0.1220  0.1822 -0.0855
  856SOL    HW1 2567   0.279   2.735   2.565 -0.5132  0.4109  0.5626
  856SOL    HW2 2568   0.126   2.671   2.595  2.1315  1.4968  0.1125
  857SOL     OW 2569   1.411   2.996   1.649  0.1670 -0.2334  0.2214
  857SOL    HW1 2570   1.372   3.073   1.599  2.0258 -0.9908 -0.1896
  857SOL    HW2 2571   1.446   2.927   1.579  1.5149 -0.4597  0.2627
  858SOL     OW 2572   3.078   1.972   1.731 -0.1247  1.1761  0.7188
  858SOL    HW1 2573   3.062   2.018   1.819 -2.5717 -1.0249  0.9615
  858SOL    HW2 2574   0.070   1.999   1.684  1.1652 -3.1077 -0.4928
  859SOL     OW 2575   2.112   2.353   2.089  0.4273  0.2267  0.1229
  859SOL    HW1 2576   2.014   2.367   2.057  0.7859 -2.0390 -0.4412
  859SOL    HW2 2577   2.145   2.277   2.036 -0.4978  0.0995  0.1437
  860SOL     OW 2578   1.416   0.113   0.599  0.9120 -0.2593  0.6393
  860SOL    HW1 2579   1.480   0.141   0.675 -0.7795 -0.8768  1.5396
  860SOL    HW2 2580   1.319   0.132   0.629 -2.5502  2.8521  2.1278
  861SOL     OW 2581   2.806   0.568   0.885 -0.0492 -0.4812  0.4744
  861SOL    HW1 2582   2.760   0.480   0.899 -0.1373 -0.5187 -2.5450
  861SOL    HW2 2583   2.894   0.569   0.934  1.4773  1.7105  2.1486
  862SOL     OW 2584   1.582   0.609   2.031  0.0352  0.0015 -0.2582
  862SOL    HW1 2585   1.586   0.570   2.126  1.3489 -3.7862  0.3834
  862SOL    HW2 2586   1.669   0.597   1.985  0.8110  0.8289  1.0127
  863SOL     OW 2587   0.555   0.654   0.853  0.1347  0.1808 -0.1670
  863SOL    HW1 2588   0.550   0.551   0.865  0.7773 -1.3586 -1.2061
  863SOL    HW2 2589   0.552   0.695   0.944 -0.3119  0.3711 -0.2303
  864SOL     OW 2590   0.213   3.009   2.238 -0.2672  0.0647 -0.4058
  864SOL    HW1 2591   0.128   2.970   2.285 -2.6722 -0.2797  3.1970
  864SOL    HW2 2592   0.189   3.083   2.177 -1.0261 -0.5518 -0.1013
  865SOL     OW 2593   1.036   1.205   2.377 -0.6658 -0.4285  0.1416
  865SOL    HW1 2594   1.065   1.132   2.315  0.3683  1.3989  0.0933
  865SOL    HW2 2595   0.943   1.192   2.405  1.2362  1.0532 -0.0287
  866SOL     OW 2596   2.952   2.929   0.292  0.1162 -0.1208  0.4356
  866SOL    HW1 2597   2.980   3.016   0.333 -1.2283 -0.3085 -0.5102
  866SOL    HW2 2598   3.032   2.873   0.263 -0.8376  1.2028  1.7525
  867SOL     OW 2599   2.754   2.693   2.974 -0.6583  0.2624  0.2476
  867SOL    HW1 2600   2.819   2.621   3.001 -0.2434 -0.0742  2.4409
  867SOL    HW2 2601   2.766   2.772   3.033  1.4554  0.2188  0.3736
  868SOL     OW 2602   1.597   1.155   2.995 -0.2442 -0.7459 -0.7412
  868SOL    HW1 2603   1.655   1.231   2.959  1.5995  0.4581 -1.7582
  868SOL    HW2 2604   1.503   1.186   3.011  2.7071 -0.5998  1.6568
  869SOL     OW 2605   3.000   1.984   0.797  0.2247  0.1516 -0.1098
  869SOL    HW1 2606   2.929   2.048   0.759 -2.0440  2.0866 -3.1593
  869SOL    HW2 2607   3.025   2.018   0.895  0.2027 -0.5946  1.9196
  870SOL     OW 2608   2.125   2.024   0.590 -0.5394  0.7196 -0.0640
  870SOL    HW1 2609   2.168   1.941   0.630  1.3510  1.0111  0.2930
  870SOL    HW2 2610   2.115   2.010   0.488 -1.4686 -5.1290  0.2757
  871SOL     OW 2611   0.523   1.168   0.998 -0.0659  0.4277 -0.4123
  871SOL    HW1 2612   0.507   1.111   0.913 -0.2619  1.4726 -2.8503
  871SOL    HW2 2613   0.490   1.261   0.986  2.7233 -4.8295  2.5192
  872SOL     OW 2614   1.283   1.796   1.840  0.3029  0.7119 -0.0808
  872SOL    HW1 2615   1.217   1.870   1.814 -0.5062 -1.0863 -1.3219
  872SOL    HW2 2616   1.379   1.820   1.812 -0.3860 -3.2210  4.1129
  873SOL     OW 2617   0.602   2.251   2.124 -0.3996  0.0965  0.3836
  873SOL    HW1 2618   0.575   2.215   2.213  2.8035  1.7615  0.0866
  873SOL    HW2 2619   0.554   2.337   2.124  2.5279 -1.1852 -1.0427
  874SOL     OW 2620   1.001   2.774   1.087  0.4833 -0.4940  0.0911
  874SOL    HW1 2621   0.973   2.823   1.171 -0.2498 -0.1287 -0.7995
  874SOL    HW2 2622   0.998   2.674   1.102  0.5211  0.4820  0.0108
  875SOL     OW 2623   3.052   0.144   1.065  0.4688  0.3243  0.4164
  875SOL    HW1 2624   0.011   0.066   1.020  0.4328 -1.2806 -3.3000
  875SOL    HW2 2625   0.009   0.231   1.052 -1.3707 -2.5845 -2.2088
  876SOL     OW 2626   0.472   0.856   0.095 -0.0901  0.3497  0.1123
  876SOL    HW1 2627   0.433   0.916   0.170  0.5305  1.6454  2.4939
  876SOL    HW2 2628   0.570   0.826   0.107 -1.3631  0.6822 -0.2932
  877SOL     OW 2629   0.172   0.555   1.330  0.2736  1.1864 -0.3861
  877SOL    HW1 2630   0.108   0.476   1.308 -0.7530 -1.8554  1.0094
  877SOL    HW2 2631   0.206   0.551   1.428  0.6633  2.2178  3.0783
  878SOL     OW 2632   2.432   2.390   0.525  0.0064 -0.5938  0.4701
  878SOL    HW1 2633   2.369   2.374   0.605  0.5371  1.8333  1.9789
  878SOL    HW2 2634   2.405   2.458   0.454  3.1655  0.4084 -1.4643
  879SOL     OW 2635   2.609   1.342   1.228 -0.0736  0.0583  0.5410
  879SOL    HW1 2636   2.700   1.351   1.265 -2.6652  2.4983 -3.0917
  879SOL    HW2 2637   2.555   1.426   1.238 -1.1631 -0.8913 -2.1063
  880SOL     OW 2638   1.623   2.731   1.042 -0.8497  0.4230 -0.3692
  880SOL    HW1 2639   1.676   2.718   0.956  0.4065  0.1057 -1.3554
  880SOL    HW2 2640   1.527   2.687   1.042 -2.5842  1.9641  1.3952
  881SOL     OW 2641   0.958   2.239   0.063 -0.2512  0.0688 -0.7383
  881SOL    HW1 2642   1.024   2.291   0.008  1.4315 -1.3138  1.2276
  881SOL    HW2 2643   0.988   2.141   0.081  0.2968 -4.0223  0.3198
  882SOL     OW 2644   1.909   0.665   1.294  0.1740  0.1670 -0.2411
  882SOL    HW1 2645   1.882   0.627   1.206  2.2936  0.8713  2.9727
  882SOL    HW2 2646   1.865   0.618   1.375  0.5707 -2.0659  0.9698
  883SOL     OW 2647   1.542   0.543   1.601 -0.5318 -0.0581 -0.1896
  883SOL    HW1 2648   1.534   0.489   1.516 -2.2550 -0.6228 -0.5276
  883SOL    HW2 2649   1.640   0.561   1.629 -3.1489 -2.0805  2.6656
  884SOL     OW 2650   2.699   0.535   0.238  0.3448  0.1071 -0.1101
  884SOL    HW1 2651   2.603   0.550   0.268  3.1033 -5.7670 -0.8296
  884SOL    HW2 2652   2.747   0.623   0.233 -0.6158  3.2542  0.7423
  885SOL     OW 2653   1.308   1.744   2.965 -0.1050 -0.5746  0.2418
  885SOL    HW1 2654   1.214   1.759   3.005 -2.3795  0.0320  4.2004
  885SOL    HW2 2655   1.309   1.758   2.865  2.7862 -0.5663  2.2765
  886SOL     OW 2656   1.650   1.491   2.515  0.4188  0.3815 -0.3402
  886SOL    HW1 2657   1.694   1.528   2.601  0.9341  1.7573 -0.9539
  886SOL    HW2 2658   1.663   1.386   2.509 -0.4923 -3.2495  1.1472
  887SOL     OW 2659   1.643   0.200   1.441 -0.5335 -0.0963  1.1935
  887SOL    HW1 2660   1.565   0.154   1.394 -0.7237 -3.0956 -1.0931
  887SOL    HW2 2661   1.665   0.156   1.530 -1.6434 -0.1914  0.6013
  888SOL     OW 2662   2.534   0.647   1.900 -0.0030  0.3657  0.3987
  888SOL    HW1 2663   2.620   0.684   1.943  3.2003  3.2803  0.0718
  888SOL    HW2 2664   2.524   0.694   1.812  0.3538 -0.0862  1.5403
  889SOL     OW 2665   0.257   2.455   1.111 -0.1405  0.4553  0.2692
  889SOL    HW1 2666   0.160   2.429   1.105 -0.0766  1.4429 -1.2757
  889SOL    HW2 2667   0.305   2.489   1.030  0.9262 -1.3607  0.1538
  890SOL     OW 2668   2.331   2.212   0.311 -0.6292 -1.0765 -0.4014
  890SOL    HW1 2669   2.299   2.278   0.237  0.8414 -0.1742 -2.3199
  890SOL    HW2 2670   2.385   2.265   0.378  0.5672 -0.5083  3.3661
  891SOL     OW 2671   0.759   1.391   2.900  0.0020  0.4684  0.1562
  891SOL    HW1 2672   0.848   1.417   2.850 -0.7827  2.5444 -1.6580
  891SOL    HW2 2673   0.716   1.308   2.852 -1.8577 -1.8426  1.2847
  892SOL     OW 2674   0.101   3.015   1.043 -0.2643 -0.1885 -0.7570
  892SOL    HW1 2675   0.109   3.011   1.146  0.0806  0.2593  2.0513
  892SOL    HW2 2676   0.088   2.921   1.007  2.1168 -2.3091  3.1449
  893SOL     OW 2677   1.092   0.079   1.311 -0.0189 -0.8269  0.0739
  893SOL    HW1 2678   1.015   0.146   1.337  0.2361  1.9394  3.0786
  893SOL    HW2 2679   1.054   3.080   1.297 -2.9463  0.4477 -1.0107
  894SOL     OW 2680   2.451   0.493   0.826  0.3698  0.4710  0.4251
  894SOL    HW1 2681   2.357   0.487   0.864 -0.7634  2.1785 -1.4648
  894SOL    HW2 2682   2.463   0.556   0.741  0.3901  2.4358 -1.8135
  895SOL     OW 2683   2.051   2.023   2.156 -0.4042  0.1371  0.0445
  895SOL    HW1 2684   2.070   2.092   2.231 -1.7743  0.0270 -0.6275
  895SOL    HW2 2685   2.077   2.071   2.072  0.3388 -0.4969 -1.6130
  896SOL     OW 2686   1.471   0.192   2.023 -0.1309 -0.0700 -0.0561
  896SOL    HW1 2687   1.445   0.277   1.973  0.3303  0.8624 -0.0789
  896SOL    HW2 2688   1.512   0.118   1.967 -2.3032  0.1494  0.8283
  897SOL     OW 2689   0.422   1.686   2.008  0.6182 -0.3129  0.0871
  897SOL    HW1 2690   0.353   1.669   2.083 -1.0420 -0.1097  0.5571
  897SOL    HW2 2691   0.515   1.662   2.045 -0.9890  1.1093  0.4608
  898SOL     OW 2692   2.246   2.762   2.014 -0.2976 -0.0725  0.0783
  898SOL    HW1 2693   2.239   2.836   1.944 -0.2889 -0.6274  1.0448
  898SOL    HW2 2694   2.321   2.693   1.991  2.8467  3.1215 -0.2917
  899SOL     OW 2695   0.955   0.697   0.996 -0.1161  0.0257  0.0067
  899SOL    HW1 2696   0.918   0.787   1.031  0.3475  0.6287 -0.2804
  899SOL    HW2 2697   0.969   0.711   0.894 -2.5180  2.2863 -1.4926
  900SOL     OW 2698   1.813   2.321   2.962 -0.9166  0.5458 -0.2342
  900SOL    HW1 2699   1.826   2.220   2.978  1.3401 -0.5125  1.4204
  900SOL    HW2 2700   1.773   2.342   2.873  1.3546  0.6610  2.6194
  901SOL     OW 2701   0.728   2.183   2.659  0.2729  0.7609 -0.0088
  901SOL    HW1 2702   0.671   2.167   2.741 -2.4203  1.9768 -3.4401
  901SOL    HW2 2703   0.725   2.097   2.604 -1.0415  1.3630 -2.0824
  902SOL     OW 2704   2.342   1.545   0.232 -0.5475 -0.2418 -0.0969
  902SOL    HW1 2705   2.430   1.532   0.281  3.9450 -0.0117 -0.2673
  902SOL    HW2 2706   2.275   1.578   0.297 -0.6881 -1.1610 -1.3394
  903SOL     OW 2707   2.123   0.771   0.432  0.1879 -0.6838 -0.0004
  903SOL    HW1 2708   2.116   0.860   0.484  0.5357 -0.2378  0.6288
  903SOL    HW2 2709   2.113   0.787   0.332 -0.1938 -0.9806 -1.6081
  904SOL     OW 2710   0.456   0.952   2.901  0.5861  0.0106 -0.2359
  904SOL    HW1 2711   0.472   0.927   2.998 -1.2208 -1.3464 -1.1279
  904SOL    HW2 2712   0.378   1.021   2.897  2.3981  0.6310 -1.4350
  905SOL     OW 2713   2.327   0.093   1.142 -0.3747 -0.1309 -0.1796
  905SOL    HW1 2714   2.331   0.086   1.243  2.0530  1.9705  1.8088
  905SOL    HW2 2715   2.305   0.188   1.120  1.0759  0.6139  0.1517
  906SOL     OW 2716   2.740   2.268   1.045  0.5461 -0.2140  0.1608
  906SOL    HW1 2717   2.641   2.286   1.071  2.6112  0.4568  0.2237
  906SOL    HW2 2718   2.760   2.322   0.959 -1.0013  2.9656 -0.7774
  907SOL     OW 2719   1.232   0.619   0.526 -0.5007 -0.0400  0.2918
  907SOL    HW1 2720   1.179   0.537   0.520  0.3328  0.9804  2.6403
  907SOL    HW2 2721   1.171   0.694   0.565  1.7414  1.8868  2.6208
  908SOL     OW 2722   2.308   2.916   1.560 -0.4419 -0.4209 -0.9518
  908SOL    HW1 2723   2.376   2.846   1.548 -3.5074  3.7902 -0.1062
  908SOL    HW2 2724   2.217   2.894   1.513 -0.9793 -1.0076  2.4358
  909SOL     OW 2725   2.658   0.822   1.543  0.3027  0.0398 -0.1043
  909SOL    HW1 2726   2.736   0.807   1.479 -1.7138  1.0267  1.1968
  909SOL    HW2 2727   2.652   0.928   1.544  4.4979  0.5929  0.6967
  910SOL     OW 2728   1.556   2.639   2.275 -0.3656  0.0063 -0.4262
  910SOL    HW1 2729   1.458   2.610   2.259  1.5926  0.9179 -1.6331
  910SOL    HW2 2730   1.564   2.739   2.243  1.3811  1.6973 -0.4431
  911SOL     OW 2731   2.155   0.362   2.282 -0.8497 -0.0382  0.3898
  911SOL    HW1 2732   2.062   0.396   2.304  2.4380 -1.9125 -0.1741
  911SOL    HW2 2733   2.232   0.408   2.335  0.2795  3.2423  0.0874
  912SOL     OW 2734   2.818   1.384   1.533  0.3724  0.0383 -0.2154
  912SOL    HW1 2735   2.868   1.306   1.571 -0.7852  3.1770 -0.6937
  912SOL    HW2 2736   2.840   1.405   1.439  0.7948 -1.9881  3.2653
  913SOL     OW 2737   2.709   1.949   1.082 -0.3827 -0.4091 -0.0196
  913SOL    HW1 2738   2.676   1.968   1.178 -0.8964 -0.5031 -0.1017
  913SOL    HW2 2739   2.766   2.020   1.038  0.6454 -0.9326  0.4033
  914SOL     OW 2740   1.941   1.371   1.393 -0.0501 -0.3690  0.3534
  914SOL    HW1 2741   2.043   1.366   1.400  0.9499  1.8276 -0.5988
  914SOL    HW2 2742   1.896   1.281   1.403  1.8033  0.3100 -1.8473
  915SOL     OW 2743   0.899   1.169   1.277  0.1432  0.7582 -0.2372
  915SOL    HW1 2744   0.832   1.126   1.340 -2.0609 -0.6249  1.4428
  915SOL    HW2 2745   0.996   1.179   1.307  0.6670  0.4675 -1.1965
  916SOL     OW 2746   2.389   2.564   1.266  0.1807 -0.4411 -0.1557
  916SOL    HW1 2747   2.401   2.527   1.359 -0.2516 -4.6078 -2.3423
  916SOL    HW2 2748   2.362   2.666   1.264  3.2129  3.0109  2.0375
  917SOL     OW 2749   2.516   2.040   0.126  0.2081  0.2130 -0.0779
  917SOL    HW1 2750   2.498   1.967   0.063  0.4394 -0.4464 -0.2134
  917SOL    HW2 2751   2.429   2.068   0.174  0.7457 -1.1262  1.2932
  918SOL     OW 2752   1.942   2.660   2.595  0.0685  0.0602  0.1717
  918SOL    HW1 2753   1.955   2.665   2.496  0.4067 -0.7559 -1.2812
  918SOL    HW2 2754   2.020   2.691   2.647 -1.8345 -1.7257  0.5189
  919SOL     OW 2755   1.547   1.841   1.775  0.2559 -0.1523 -0.1069
  919SOL    HW1 2756   1.573   1.787   1.856  1.9437  0.4105  1.9588
  919SOL    HW2 2757   1.628   1.880   1.728  0.3658  2.5466  0.9404
  920SOL     OW 2758   2.883   0.273   2.618 -0.3575  0.1570  0.0800
  920SOL    HW1 2759   2.843   0.229   2.700 -0.6449  0.7924  2.4136
  920SOL    HW2 2760   2.825   0.351   2.594 -0.2600  2.2980 -0.6806
  921SOL     OW 2761   2.849   0.349   2.029  0.8051  0.2769 -0.3609
  921SOL    HW1 2762   2.906   0.313   2.106 -0.1333 -1.9659  1.1560
  921SOL    HW2 2763   2.899   0.397   1.958 -1.7393 -1.3777  4.6861
  922SOL     OW 2764   2.136   2.006   0.318 -0.0142  0.0760 -0.0479
  922SOL    HW1 2765   2.190   2.086   0.333 -2.7500  0.4615  1.7804
  922SOL    HW2 2766   2.154   1.975   0.224  0.2666  1.9652 -0.6763
  923SOL     OW 2767   0.285   1.999   0.198  1.2072 -0.1436 -0.2983
  923SOL    HW1 2768   0.332   1.917   0.156  1.4999 -0.7618 -0.6912
  923SOL    HW2 2769   0.324   2.088   0.168 -0.3841 -2.2889  0.7953
  924SOL     OW 2770   0.690   0.462   0.089  0.1289  0.2909  0.2377
  924SOL    HW1 2771   0.623   0.408   0.140  1.0073 -0.6663  0.5954
  924SOL    HW2 2772   0.696   0.558   0.126 -1.4626  0.8344  2.2179
  925SOL     OW 2773   2.268   0.786   1.024  0.3917  0.4563  0.2004
  925SOL    HW1 2774   2.246   0.868   0.968  0.0248  1.4677  0.0168
  925SOL    HW2 2775   2.240   0.796   1.120  0.1484 -0.7749  0.9982
  926SOL     OW 2776   2.864   0.873   0.883  0.1962 -0.8124  0.4391
  926SOL    HW1 2777   2.788   0.930   0.923  0.9211 -1.7953  0.9932
  926SOL    HW2 2778   2.853   0.779   0.910  3.2981  2.1997 -0.7793
  927SOL     OW 2779   3.093   1.166   2.662  0.0779  0.4676  0.1823
  927SOL    HW1 2780   0.059   1.087   2.636  0.6321  1.1087 -2.0931
  927SOL    HW2 2781   0.053   1.250   2.691  1.9676  2.1445  1.2734
  928SOL     OW 2782   3.038   0.557   2.400 -0.0516  0.0795  0.1112
  928SOL    HW1 2783   0.037   0.595   2.377  2.2343 -0.7422  0.9190
  928SOL    HW2 2784   3.047   0.459   2.422  0.6665  0.4823  0.2162
  929SOL     OW 2785   0.057   2.761   0.959  0.3033 -0.3654  0.1433
  929SOL    HW1 2786   3.058   2.783   0.927  0.8165 -1.3061 -0.2837
  929SOL    HW2 2787   0.074   2.664   0.933 -2.0123  1.0490 -1.9403
  930SOL     OW 2788   2.199   1.743   1.631  0.1073 -1.2536  0.4185
  930SOL    HW1 2789   2.161   1.792   1.708  0.9160 -5.3303 -3.3583
  930SOL    HW2 2790   2.142   1.665   1.602 -1.0382  2.6360  0.5470
  931SOL     OW 2791   1.470   1.493   0.648  0.0810 -0.0875  0.4061
  931SOL    HW1 2792   1.545   1.463   0.707 -3.5002  0.4926 -1.7893
  931SOL    HW2 2793   1.422   1.571   0.691  2.5371  1.5779  1.9882
  932SOL     OW 2794   2.722   1.125   1.117  0.3466  0.0740 -0.2619
  932SOL    HW1 2795   2.698   1.032   1.157  1.6930  0.5838  0.1651
  932SOL    HW2 2796   2.672   1.196   1.168 -1.6550  1.2764  0.0215
  933SOL     OW 2797   2.500   1.593   1.266  0.4578 -0.3292  0.0346
  933SOL    HW1 2798   2.438   1.640   1.203  1.6911  1.3657  0.3022
  933SOL    HW2 2799   2.476   1.597   1.363  2.5873 -1.5934 -0.1283
  934SOL     OW 2800   1.796   2.848   1.747 -0.4720 -0.2700  0.1241
  934SOL    HW1 2801   1.872   2.793   1.790 -1.3574  0.8484  0.0976
  934SOL    HW2 2802   1.716   2.784   1.727 -0.7989 -1.0409  0.2708
  935SOL     OW 2803   3.078   1.586   0.720  0.2038  0.4525  0.1748
  935SOL    HW1 2804   3.020   1.590   0.804  0.5142 -0.2713  1.9069
  935SOL    HW2 2805   0.028   1.672   0.712 -4.0328 -1.6685 -1.2571
  936SOL     OW 2806   0.162   1.210   0.457 -0.2065 -0.1505 -0.0022
  936SOL    HW1 2807   0.110   1.126   0.423 -3.4139 -1.1972 -1.5012
  936SOL    HW2 2808   0.261   1.204   0.432  1.8599  0.9749  1.1526
  937SOL     OW 2809   1.963   2.585   0.992 -0.4590  0.2212  0.2535
  937SOL    HW1 2810   1.885   2.622   0.940 -0.0153 -1.4601  1.0731
  937SOL    HW2 2811   1.993   2.498   0.950 -1.8364  1.8810 -0.0440
  938SOL     OW 2812   2.472   1.994   0.974  0.3446  0.4058  0.3264
  938SOL    HW1 2813   2.556   1.975   1.023 -2.8975  0.4088 -3.5955
  938SOL    HW2 2814   2.434   2.084   0.996  1.9939  0.3388 -1.3742
  939SOL     OW 2815   0.692   2.163   0.335 -0.0690 -0.0282 -0.2881
  939SOL    HW1 2816   0.774   2.129   0.381 -2.8518 -0.9270 -1.2182
  939SOL    HW2 2817   0.699   2.160   0.233 -1.5458  0.7581  1.9774
  940SOL     OW 2818   2.843   0.117   2.842  0.3391  0.0691  0.7058
  940SOL    HW1 2819   2.935   0.142   2.875  4.3531 -0.4662  3.4971
  940SOL    HW2 2820   2.843   0.025   2.801 -0.6917  1.3974 -4.1962
  941SOL     OW 2821   1.135   0.455   0.113 -0.0467 -1.0383  0.1328
  941SOL    HW1 2822   1.115   0.365   0.148  0.8916  2.3786 -1.4815
  941SOL    HW2 2823   1.231   0.456   0.086 -2.3244 -1.5336  2.5536
  942SOL     OW 2824   1.045   1.504   1.576 -0.1009 -0.0838 -0.1217
  942SOL    HW1 2825   1.039   1.532   1.675  0.7789  2.4592 -0.5223
  942SOL    HW2 2826   0.968   1.535   1.515  1.3459  1.1510 -1.9776
  943SOL     OW 2827   1.797   1.132   1.368  0.0611 -0.5029  0.0966
  943SOL    HW1 2828   1.713   1.101   1.416  0.8836  0.4966  0.0840
  943SOL    HW2 2829   1.830   1.054   1.310 -1.2149  1.4763  1.7508
  944SOL     OW 2830   1.870   0.568   1.633  0.3096 -0.9292  0.6782
  944SOL    HW1 2831   1.875   0.503   1.554 -0.4165  1.1040  1.1353
  944SOL    HW2 2832   1.961   0.577   1.673 -1.0424  0.9708 -1.9786
  945SOL     OW 2833   2.977   3.057   0.667  0.1819 -0.3833 -0.3369
  945SOL    HW1 2834   2.939   0.045   0.718  1.1628 -1.3712  0.1404
  945SOL    HW2 2835   2.975   3.078   0.570 -0.0530  0.3357 -1.3850
  946SOL     OW 2836   0.564   0.472   1.469  0.3958 -0.0958  0.1249
  946SOL    HW1 2837   0.653   0.483   1.522  5.2416 -0.4443 -0.6611
  946SOL    HW2 2838   0.518   0.564   1.468 -1.8938 -1.1087 -0.5082
  947SOL     OW 2839   0.487   0.202   0.181  0.2618  0.2063  0.6188
  947SOL    HW1 2840   0.412   0.133   0.208 -0.7176 -3.1815 -0.9284
  947SOL    HW2 2841   0.479   0.291   0.227  2.6746 -1.3445 -1.7468
  948SOL     OW 2842   2.779   1.133   1.779 -0.2256  0.3832  0.3139
  948SOL    HW1 2843   2.784   1.232   1.796  0.4368 -1.5790 -1.9780
  948SOL    HW2 2844   2.874   1.086   1.770  0.8109 -0.3616  0.7518
  949SOL     OW 2845   0.662   1.146   2.822  0.5779  0.3797  0.1941
  949SOL    HW1 2846   0.586   1.079   2.846  2.1773  2.2046  0.1430
  949SOL    HW2 2847   0.711   1.110   2.742  1.5021  1.2607  0.8334
  950SOL     OW 2848   0.955   0.670   0.708  0.1271  0.0602 -0.4238
  950SOL    HW1 2849   1.002   0.589   0.748  0.6929  2.8187  0.2742
  950SOL    HW2 2850   1.022   0.740   0.669 -0.1324  2.3598  1.0214
  951SOL     OW 2851   0.967   2.004   2.135  0.7129  0.0607 -0.4389
  951SOL    HW1 2852   1.047   2.057   2.097 -0.0742  0.1538  1.3422
  951SOL    HW2 2853   0.916   2.061   2.206 -2.3085  0.6795  1.7390
  952SOL     OW 2854   0.726   1.788   0.278  0.1237 -0.1008 -0.2462
  952SOL    HW1 2855   0.814   1.801   0.327 -1.6179  1.1832 -0.0101
  952SOL    HW2 2856   0.661   1.853   0.317 -0.9323 -0.1622  0.2539
  953SOL     OW 2857   1.899   3.009   2.371 -0.1829 -0.2212 -0.2058
  953SOL    HW1 2858   1.908   2.903   2.376  1.4708 -1.8716 -2.6515
  953SOL    HW2 2859   1.986   3.061   2.350  2.5386  0.6934 -3.0613
  954SOL     OW 2860   1.595   1.124   0.654  0.9683  0.1515  0.7136
  954SOL    HW1 2861   1.608   1.171   0.561 -0.2549  4.1984  1.2873
  954SOL    HW2 2862   1.515   1.166   0.700  2.0930  0.5054 -0.8551
  955SOL     OW 2863   0.429   2.396   2.445  0.1887  0.0404 -0.0982
  955SOL    HW1 2864   0.402   2.484   2.403  0.4423 -0.7673  1.0489
  955SOL    HW2 2865   0.517   2.405   2.496  2.2439  0.6335 -0.1747
  956SOL     OW 2866   1.985   0.203   1.626 -0.6085 -0.2417  0.7588
  956SOL    HW1 2867   2.040   0.273   1.675 -0.5908 -0.3870 -0.4312
  956SOL    HW2 2868   1.886   0.212   1.649 -2.1234  1.9504  2.5220
  957SOL     OW 2869   1.629   2.021   2.672 -0.1378 -0.3831 -0.1504
  957SOL    HW1 2870   1.548   1.968   2.636 -0.0602  1.6863 -2.7731
  957SOL    HW2 2871   1.614   2.063   2.764 -1.1962  1.3181  1.3457
  958SOL     OW 2872   1.162   2.332   1.468  0.1956  0.3203 -0.1460
  958SOL    HW1 2873   1.141   2.250   1.413 -0.2535 -0.0457  0.6492
  958SOL    HW2 2874   1.084   2.398   1.469  3.4980 -1.3522 -0.5877
  959SOL     OW 2875   2.033   2.353   0.046  0.2182 -0.1581 -0.3349
  959SOL    HW1 2876   1.985   2.304   0.125 -0.6444 -2.4412  3.1350
  959SOL    HW2 2877   1.963   2.359   3.066 -1.6981  0.0169 -1.1164
  960SOL     OW 2878   0.018   0.197   2.871 -0.1157 -0.0409  0.0667
  960SOL    HW1 2879   0.078   0.205   2.784  1.7871  1.1449 -0.8442
  960SOL    HW2 2880   3.076   0.286   2.902  0.8815  0.3230  0.1109
  961SOL     OW 2881   0.824   0.975   2.667  0.4904  0.5472  0.0683
  961SOL    HW1 2882   0.911   0.993   2.722  1.0024  1.5657  0.3665
  961SOL    HW2 2883   0.816   0.874   2.649 -1.2903 -1.7208 -2.0621
  962SOL     OW 2884   1.165   1.319   2.842  0.6321 -0.3563 -0.2986
  962SOL    HW1 2885   1.216   1.291   2.762 -1.6132 -0.3703  0.2792
  962SOL    HW2 2886   1.218   1.292   2.922 -1.7395  0.8127  0.1714
  963SOL     OW 2887   2.425   1.862   3.031  0.5664  0.3485 -0.3616
  963SOL    HW1 2888   2.494   1.791   3.047 -1.5126  3.8653  1.7645
  963SOL    HW2 2889   2.371   1.839   2.945  0.1249  1.5191  3.2362
  964SOL     OW 2890   1.353   2.625   1.012 -0.4328 -0.0567 -0.3425
  964SOL    HW1 2891   1.354   2.579   0.922  0.6197  2.7313  2.1819
  964SOL    HW2 2892   1.312   2.565   1.075 -0.9779  0.5752 -0.6030
  965SOL     OW 2893   0.969   1.639   0.774  0.5510 -0.3479 -0.0281
  965SOL    HW1 2894   0.912   1.643   0.859  1.2143 -0.6770  1.7582
  965SOL    HW2 2895   0.994   1.543   0.755 -0.7029  0.1805  1.5474
  966SOL     OW 2896   0.119   1.353   3.018 -0.3680 -0.5782 -0.0387
  966SOL    HW1 2897   0.103   1.454   3.045  1.0680  1.0077 -0.1899
  966SOL    HW2 2898   0.096   1.286   3.089 -2.6175 -0.7733 -2.6607
  967SOL     OW 2899   1.882   0.305   2.004 -0.5968  0.0405  0.7962
  967SOL    HW1 2900   1.837   0.232   2.057 -1.5600  0.3032  0.0934
  967SOL    HW2 2901   1.983   0.301   2.015 -1.1241 -1.7864  2.2469
  968SOL     OW 2902   1.768   0.948   0.551 -0.3954  0.3178  0.1111
  968SOL    HW1 2903   1.686   0.984   0.602 -2.5156 -1.5011  1.2507
  968SOL    HW2 2904   1.748   0.926   0.451  1.8351  0.9670  0.5425
  969SOL     OW 2905   0.312   1.329   2.174 -0.2242 -0.0333  0.2092
  969SOL    HW1 2906   0.257   1.361   2.092  0.3957 -0.3367 -1.9854
  969SOL    HW2 2907   0.414   1.341   2.153  1.1595 -0.7655 -0.3172
  970SOL     OW 2908   2.323   1.208   0.940 -0.0424  0.0976  0.2832
  970SOL    HW1 2909   2.423   1.201   0.917 -0.9272  0.5966 -0.3121
  970SOL    HW2 2910   2.274   1.136   0.888  0.4126 -2.1103  2.5298
  971SOL     OW 2911   0.533   0.227   1.367 -0.5973  0.0492  0.1528
  971SOL    HW1 2912   0.542   0.322   1.402 -2.6027  0.9922  0.5135
  971SOL    HW2 2913   0.437   0.188   1.372  0.7036  0.6658 -0.7280
  972SOL     OW 2914   0.501   0.754   2.691  0.0353 -0.4977 -0.2980
  972SOL    HW1 2915   0.504   0.825   2.761  2.0992 -1.7256 -1.2527
  972SOL    HW2 2916   0.576   0.761   2.624  1.0606 -0.9515  0.0034
  973SOL     OW 2917   0.182   1.068   1.105 -0.0325  0.1074  0.3483
  973SOL    HW1 2918   0.118   1.141   1.126  1.2978 -1.6792  0.3660
  973SOL    HW2 2919   0.192   1.008   1.184  0.4101  0.3936 -2.6162
  974SOL     OW 2920   2.166   0.963   1.830  1.0284  0.3438  0.2314
  974SOL    HW1 2921   2.134   0.946   1.734 -1.2299 -1.9325  0.0924
  974SOL    HW2 2922   2.269   0.972   1.827 -0.4269  1.9192  0.2703
  975SOL     OW 2923   2.579   3.052   0.063 -0.6477  0.4023 -0.4823
  975SOL    HW1 2924   2.510   3.016   3.093 -0.1630  0.0474  1.3184
  975SOL    HW2 2925   2.534   3.054   0.155 -0.2660  0.7032 -3.9851
  976SOL     OW 2926   3.047   1.228   1.577 -0.3092 -0.2976  0.7409
  976SOL    HW1 2927   3.090   1.303   1.515  0.7529 -0.1855 -0.5265
  976SOL    HW2 2928   3.092   1.211   1.665 -1.5150  1.2265 -0.6761
  977SOL     OW 2929   1.052   2.721   0.333 -0.1349  0.1104  0.0694
  977SOL    HW1 2930   1.139   2.720   0.282 -1.9940 -3.6653 -0.8056
  977SOL    HW2 2931   0.970   2.716   0.267 -2.7306  1.7870  0.6744
  978SOL     OW 2932   0.664   1.512   0.307  0.0961 -0.3173  0.0779
  978SOL    HW1 2933   0.681   1.615   0.294 -0.0990 -2.5307 -0.7863
  978SOL    HW2 2934   0.721   1.453   0.249 -1.0637 -1.5423  1.4024
  979SOL     OW 2935   1.594   1.708   1.321  0.6056 -0.1138  0.3650
  979SOL    HW1 2936   1.522   1.723   1.389 -0.4173 -2.3417  1.8956
  979SOL    HW2 2937   1.602   1.612   1.287  2.2084 -2.2899 -1.3560
  980SOL     OW 2938   0.357   1.478   1.846 -0.4986 -0.5428 -0.3246
  980SOL    HW1 2939   0.373   1.568   1.892  1.3734  1.3052  0.7256
  980SOL    HW2 2940   0.374   1.484   1.747 -0.6662  2.7092  2.3101
  981SOL     OW 2941   3.053   1.407   0.211 -0.0198 -0.1264  0.1685
  981SOL    HW1 2942   3.053   1.403   0.317  1.5174 -1.6801 -0.3362
  981SOL    HW2 2943   0.014   1.490   0.186  0.3752  0.5340 -0.1958
  982SOL     OW 2944   2.453   2.703   2.404  0.0199 -0.1949  0.5634
  982SOL    HW1 2945   2.392   2.621   2.401  0.1014  0.6406  0.0189
  982SOL    HW2 2946   2.420   2.780   2.460  2.1597  1.2387  0.8830
  983SOL     OW 2947   1.268   0.451   1.276  0.0425 -0.0015 -0.0265
  983SOL    HW1 2948   1.366   0.463   1.317  0.6507  0.8849  2.8183
  983SOL    HW2 2949   1.261   0.358   1.233  0.5074  1.0039  0.4088
  984SOL     OW 2950   1.096   0.102   2.731  0.7286  0.2472 -0.1389
  984SOL    HW1 2951   1.172   0.162   2.761 -0.6018  0.5100 -1.9197
  984SOL    HW2 2952   1.077   0.106   2.632 -0.7147 -1.7515 -0.3847
  985SOL     OW 2953   1.679   2.392   1.627  0.1823 -0.1734 -0.6903
  985SOL    HW1 2954   1.669   2.491   1.605  2.0778  1.8983 -2.0488
  985SOL    HW2 2955   1.779   2.372   1.607 -0.4780 -0.0840  1.6866
  986SOL     OW 2956   2.507   0.207   2.467  0.2079 -0.4235 -0.2266
  986SOL    HW1 2957   2.435   0.277   2.445  1.9597  1.0776  2.0469
  986SOL    HW2 2958   2.575   0.253   2.527  0.0490 -2.1817 -0.2479
  987SOL     OW 2959   2.593   0.608   2.347 -0.2745  0.3815  0.3042
  987SOL    HW1 2960   2.660   0.597   2.271  1.1303 -3.6449  3.0780
  987SOL    HW2 2961   2.534   0.688   2.329 -0.0813 -3.0144 -1.2218
  988SOL     OW 2962   2.538   0.704   2.774  0.0695 -0.1728  0.5135
  988SOL    HW1 2963   2.449   0.663   2.804 -1.0243 -0.8119  1.0770
  988SOL    HW2 2964   2.526   0.799   2.733 -1.2430  2.1628 -1.3321
  989SOL     OW 2965   2.170   1.689   2.085 -0.7517 -0.0568 -0.6726
  989SOL    HW1 2966   2.156   1.756   2.164 -1.1611  2.0683  1.2330
  989SOL    HW2 2967   2.270   1.688   2.063  1.6449 -2.6687 -2.3615
  990SOL     OW 2968   0.355   1.199   2.587  0.2053  0.4584  0.2737
  990SOL    HW1 2969   0.283   1.219   2.515  0.7701  0.0283  1.8856
  990SOL    HW2 2970   0.376   1.287   2.638 -0.5231  0.9668  0.0094
  991SOL     OW 2971   0.608   1.814   2.769 -0.0767 -0.1777 -0.1806
  991SOL    HW1 2972   0.574   1.735   2.713  2.0090 -0.4983 -1.2067
  991SOL    HW2 2973   0.530   1.851   2.826 -2.2563 -3.5558 -0.4129
  992SOL     OW 2974   2.796   1.719   1.926  0.0975 -0.0885 -0.5783
  992SOL    HW1 2975   2.800   1.818   1.940  1.6935 -0.3029 -2.0163
  992SOL    HW2 2976   2.807   1.667   2.006 -0.2953  3.4022 -3.6265
  993SOL     OW 2977   0.502   0.071   0.757 -0.4356 -0.5196 -0.0203
  993SOL    HW1 2978   0.553   3.082   0.721  1.7235  0.5958 -0.6777
  993SOL    HW2 2979   0.511   0.147   0.690  3.4297 -0.1298 -2.4956
  994SOL     OW 2980   0.452   1.772   1.457 -0.1714 -0.1991 -0.2636
  994SOL    HW1 2981   0.466   1.760   1.561 -0.5279 -0.2271  1.7652
  994SOL    HW2 2982   0.363   1.822   1.438  1.3877 -0.2544  0.3204
  995SOL     OW 2983   2.195   1.510   2.853 -0.4506 -0.5198  0.3642
  995SOL    HW1 2984   2.179   1.553   2.942  2.0913  0.2701 -0.0243
  995SOL    HW2 2985   2.293   1.521   2.821  1.2524 -1.6042  0.2651
  996SOL     OW 2986   2.054   1.305   2.737 -0.3780  0.0580  0.5421
  996SOL    HW1 2987   2.088   1.387   2.781  0.4688 -1.1935  0.3585
  996SOL    HW2 2988   2.010   1.324   2.646 -0.5485  0.1565 -1.3523
  997SOL     OW 2989   1.777   0.881   1.639 -0.0159 -0.8419 -0.2140
  997SOL    HW1 2990   1.807   0.787   1.617 -1.5970 -1.4556 -0.0509
  997SOL    HW2 2991   1.694   0.904   1.580 -0.2335 -0.5225  0.4697
  998SOL     OW 2992   2.061   2.099   1.094 -0.3073  0.6554 -0.5910
  998SOL    HW1 2993   2.126   2.034   1.051  1.2731  0.2679  0.5204
  998SOL    HW2 2994   2.012   2.047   1.167  0.1261  2.5420 -1.8494
  999SOL     OW 2995   2.250   2.258   0.690 -0.1900  0.0364  0.3126
  999SOL    HW1 2996   2.239   2.280   0.787  0.0646  2.7533 -2.2765
  999SOL    HW2 2997   2.212   2.166   0.661 -0.5850  0.6811 -0.3421
 1000SOL     OW 2998   0.928   3.073   2.935  0.5484  0.2024 -0.0569
 1000SOL    HW1 2999   0.991   0.032   2.873 -1.9691 -0.4142 -0.4020
 1000SOL    HW2 3000   0.955   2.976   2.918  0.4094  0.9036  1.0011
   3.09471   3.09471   3.09471
