1000 SPC/Fw water molecules t= 161.00000 step= 161000
 3000
    1SOL     OW    1   2.522   2.737   0.622 -0.0576 -0.9719  0.1497
    1SOL    HW1    2   2.537   2.659   0.685  0.1214  0.4715  1.3262
    1SOL    HW2    3   2.452   2.802   0.653  3.7596 -1.4968  1.8879
    2SOL     OW    4   1.268   1.881   2.314 -0.5705 -0.1544  0.5030
    2SOL    HW1    5   1.267   1.945   2.234 -1.1446 -1.1349 -0.6172
    2SOL    HW2    6   1.364   1.878   2.350  1.1112 -0.1443 -1.4524
    3SOL     OW    7   1.804   2.387   1.993  0.7806 -0.1450 -0.5503
    3SOL    HW1    8   1.814   2.296   1.955  0.4449 -0.2061  1.0475
    3SOL    HW2    9   1.847   2.387   2.084  0.2233  1.3216 -0.9320
    4SOL     OW   10   1.932   2.296   2.231  0.0118 -0.3295 -0.8439
    4SOL    HW1   11   2.021   2.342   2.244 -2.6980 -0.4175 -0.3125
    4SOL    HW2   12   1.866   2.345   2.293 -0.3388  0.2248 -0.1718
    5SOL     OW   13   0.773   0.871   1.755 -0.0350  0.0906 -0.0648
    5SOL    HW1   14   0.790   0.973   1.749 -0.1759  0.9192 -0.4314
    5SOL    HW2   15   0.854   0.823   1.783 -3.0161  1.7400  0.0525
    6SOL     OW   16   2.291   0.894   2.803 -0.6843 -0.0364 -0.2978
    6SOL    HW1   17   2.273   0.815   2.864 -2.8289 -0.8787 -1.0183
    6SOL    HW2   18   2.361   0.873   2.729  3.1901  0.5144  1.7660
    7SOL     OW   19   0.802   0.581   1.313  0.4092 -0.4843  0.5906
    7SOL    HW1   20   0.797   0.587   1.212 -0.7926  2.6970  0.4566
    7SOL    HW2   21   0.761   0.664   1.355  0.5546 -3.4364 -1.0885
    8SOL     OW   22   1.184   2.403   1.484 -0.2729  0.1955 -0.0436
    8SOL    HW1   23   1.257   2.373   1.550  2.9656 -2.4445  3.6720
    8SOL    HW2   24   1.103   2.434   1.532 -1.7813  1.6853  0.2345
    9SOL     OW   25   0.601   1.153   0.263  0.0937  0.3909  0.1041
    9SOL    HW1   26   0.552   1.118   0.180 -1.6100  1.7955  0.6246
    9SOL    HW2   27   0.690   1.109   0.268  1.0821 -0.1650 -1.9471
   10SOL     OW   28   0.418   2.829   2.889 -0.2539  1.0263  0.0335
   10SOL    HW1   29   0.326   2.796   2.917  0.3293  1.2686 -0.3046
   10SOL    HW2   30   0.470   2.744   2.862  1.0718 -1.9313 -2.5964
   11SOL     OW   31   0.118   1.315   2.878  0.3774  0.0838  0.0854
   11SOL    HW1   32   0.070   1.388   2.821 -0.6445  0.1131 -1.8388
   11SOL    HW2   33   0.163   1.355   2.961 -0.2578 -1.6480 -2.7056
   12SOL     OW   34   0.630   0.000   1.358 -0.1204 -0.6411  0.0049
   12SOL    HW1   35   0.656   3.014   1.276  0.2446  2.4886  0.8207
   12SOL    HW2   36   0.541   3.037   1.391  1.2272  0.8500 -1.2378
   13SOL     OW   37   0.648   2.818   0.602 -0.5873 -0.4607 -0.1259
   13SOL    HW1   38   0.677   2.723   0.592 -2.2211 -0.8698  0.8344
   13SOL    HW2   39   0.702   2.881   0.543 -0.0436 -1.0242  4.5383
   14SOL     OW   40   1.390   1.813   0.861 -0.4308  0.1593  0.1162
   14SOL    HW1   41   1.306   1.869   0.858  5.4241  1.1556 -0.9770
   14SOL    HW2   42   1.419   1.799   0.954  1.8869 -0.2375 -2.7307
   15SOL     OW   43   2.563   0.863   2.288 -0.2692 -0.1457  0.0015
   15SOL    HW1   44   2.483   0.862   2.354  0.5741 -1.1785 -1.1410
   15SOL    HW2   45   2.530   0.895   2.196  0.0977 -0.5489 -0.7407
   16SOL     OW   46   1.317   3.011   2.774  0.1063 -0.1497  0.3103
   16SOL    HW1   47   1.380   2.935   2.759  0.0917  0.8679  2.4898
   16SOL    HW2   48   1.339   0.028   2.722 -1.9160 -3.1247 -1.6686
   17SOL     OW   49   0.675   2.449   1.663 -0.3814  0.0225 -0.0630
   17SOL    HW1   50   0.704   2.449   1.761  1.9807 -1.9290 -1.8967
   17SOL    HW2   51   0.676   2.544   1.625  1.6525  0.5859 -1.2792
   18SOL     OW   52   1.248   0.752   0.150 -0.1575  0.6362 -0.1038
   18SOL    HW1   53   1.350   0.742   0.146 -2.9783  0.0016  1.1602
   18SOL    HW2   54   1.209   0.659   0.164 -1.8799 -1.3401  0.0350
   19SOL     OW   55   2.138   1.768   2.959  0.2099  0.0478 -0.1348
   19SOL    HW1   56   2.105   1.850   3.013  1.6174  2.0217  1.6249
   19SOL    HW2   57   2.182   1.800   2.873  2.6470 -0.3469  1.7291
   20SOL     OW   58   2.154   1.803   1.939  0.1876  0.2261  0.3084
   20SOL    HW1   59   2.226   1.776   2.009 -2.2515 -3.2025 -0.2346
   20SOL    HW2   60   2.065   1.753   1.955 -1.7736  0.3536 -1.7520
   21SOL     OW   61   0.349   1.642   2.919 -0.4139 -0.3760  0.1543
   21SOL    HW1   62   0.406   1.665   3.001 -2.3050 -0.6774 -1.0904
   21SOL    HW2   63   0.412   1.610   2.844  2.5087  0.9049 -2.0545
   22SOL     OW   64   2.496   3.024   1.416 -0.3484  0.0298  0.0147
   22SOL    HW1   65   2.565   2.949   1.394  2.5409 -4.8688  0.1234
   22SOL    HW2   66   2.441   3.033   1.335  1.2345  0.0984  4.0733
   23SOL     OW   67   0.017   1.014   1.820  0.0698  0.2001 -1.1836
   23SOL    HW1   68   3.012   0.975   1.761  0.5856  1.3298  0.0279
   23SOL    HW2   69   0.109   0.978   1.786  0.1427 -0.4343 -1.6658
   24SOL     OW   70   2.546   1.740   1.319 -0.1653 -0.2759 -0.8372
   24SOL    HW1   71   2.602   1.703   1.243 -0.3424  0.0778  0.3404
   24SOL    HW2   72   2.563   1.674   1.400  1.1886  0.4545 -2.9150
   25SOL     OW   73   1.974   3.013   2.528  0.2807 -0.6139 -0.5110
   25SOL    HW1   74   2.021   2.947   2.466 -2.0704 -2.0631  0.8429
   25SOL    HW2   75   1.909   2.961   2.588 -1.5343 -3.2968  1.6849
   26SOL     OW   76   1.426   2.877   0.443 -0.1871  0.2659  0.5277
   26SOL    HW1   77   1.451   2.970   0.409  0.1447 -1.0808 -0.2982
   26SOL    HW2   78   1.510   2.826   0.470 -0.0509 -1.2954  2.0649
   27SOL     OW   79   0.757   2.041   2.994 -0.4177 -0.1191 -0.0409
   27SOL    HW1   80   0.784   2.060   0.024 -0.6647  0.2504  0.5345
   27SOL    HW2   81   0.664   2.002   3.001  0.2254 -0.0921  0.4396
   28SOL     OW   82   2.851   1.485   1.126  0.2025  0.2378 -0.0490
   28SOL    HW1   83   2.759   1.523   1.111  0.1240  3.2004 -0.0355
   28SOL    HW2   84   2.887   1.435   1.046 -1.3792 -3.3040  2.0866
   29SOL     OW   85   2.648   2.143   2.319  0.0485  0.0272 -0.5856
   29SOL    HW1   86   2.564   2.189   2.308  2.3027 -1.6160 -0.3748
   29SOL    HW2   87   2.709   2.162   2.242  1.0605  0.6620  2.2891
   30SOL     OW   88   1.149   2.776   1.008 -0.4323 -0.0287 -0.0415
   30SOL    HW1   89   1.198   2.835   1.075  0.7220 -1.0222 -0.3281
   30SOL    HW2   90   1.081   2.834   0.959 -0.1274  2.1255  0.5436
   31SOL     OW   91   3.001   2.131   1.901 -0.2718 -0.1663 -0.2420
   31SOL    HW1   92   2.994   2.186   1.812  0.0958 -2.1687 -2.6740
   31SOL    HW2   93   0.009   2.163   1.963 -0.3123  0.2518 -1.6185
   32SOL     OW   94   1.302   1.115   1.944  0.6268 -0.2875  0.5165
   32SOL    HW1   95   1.365   1.107   1.865  1.4762 -1.4552  0.4420
   32SOL    HW2   96   1.353   1.099   2.035 -0.0687  0.8519  2.5482
   33SOL     OW   97   0.596   2.882   2.500 -0.6341 -0.3670  0.0016
   33SOL    HW1   98   0.671   2.878   2.430 -0.1892 -0.9314  1.1304
   33SOL    HW2   99   0.637   2.892   2.591 -0.2136 -0.0760 -0.9000
   34SOL     OW  100   1.806   2.970   1.334 -0.0897  0.0198  0.5986
   34SOL    HW1  101   1.819   3.018   1.422 -0.7539  0.7506 -1.3761
   34SOL    HW2  102   1.885   2.913   1.309 -0.0521 -1.5529 -2.7285
   35SOL     OW  103   2.031   0.488   1.248  0.3719  0.2602 -0.0193
   35SOL    HW1  104   1.998   0.539   1.166  0.0605  1.1492  1.7306
   35SOL    HW2  105   2.127   0.516   1.261 -0.6760 -3.4842 -0.4340
   36SOL     OW  106   2.098   2.660   2.190  0.1566  0.1464  0.2660
   36SOL    HW1  107   2.124   2.576   2.246  2.7657 -3.1014  1.1725
   36SOL    HW2  108   2.139   2.660   2.100 -0.1537  2.1543  1.2906
   37SOL     OW  109   1.024   2.390   2.240 -0.3285 -0.2737 -0.0041
   37SOL    HW1  110   1.098   2.349   2.296  1.6498  1.3761  1.8431
   37SOL    HW2  111   0.936   2.359   2.270 -0.2913  2.1255  2.5222
   38SOL     OW  112   2.230   0.342   0.134  0.4336  0.3612  0.1525
   38SOL    HW1  113   2.288   0.263   0.148 -2.1094  1.5183 -0.6014
   38SOL    HW2  114   2.234   0.366   0.035 -1.1712 -1.1726 -1.7071
   39SOL     OW  115   1.997   1.659   2.314 -0.2585 -0.2360  0.4545
   39SOL    HW1  116   2.000   1.760   2.301  0.2088  0.5930 -1.2604
   39SOL    HW2  117   1.906   1.624   2.304 -0.7985  1.9786  0.5980
   40SOL     OW  118   0.267   0.026   2.781 -0.2374  0.1823 -0.0159
   40SOL    HW1  119   0.228   0.051   2.873 -0.3875  0.9599  0.9803
   40SOL    HW2  120   0.289   2.995   2.771 -1.2255  0.8323 -0.4706
   41SOL     OW  121   1.548   0.556   1.423 -0.3660 -0.5038  0.1313
   41SOL    HW1  122   1.507   0.487   1.483  1.8247  0.8501 -0.9356
   41SOL    HW2  123   1.652   0.552   1.422 -1.6696  3.4227 -0.1129
   42SOL     OW  124   0.532   0.165   1.648  0.1798 -0.6169 -0.0372
   42SOL    HW1  125   0.530   0.267   1.632 -0.7907  2.8487  1.2899
   42SOL    HW2  126   0.629   0.136   1.682  2.3412 -0.4264  1.3911
   43SOL     OW  127   1.663   0.185   1.977  0.1613  0.2714 -0.3444
   43SOL    HW1  128   1.626   0.220   2.069 -0.1793  1.7662  2.8838
   43SOL    HW2  129   1.753   0.136   1.980  0.2170  1.3401 -0.0325
   44SOL     OW  130   0.176   2.671   2.581 -0.5078  0.5772  0.0729
   44SOL    HW1  131   0.231   2.748   2.544  0.5614  0.0383  3.0235
   44SOL    HW2  132   0.080   2.706   2.586  0.7992 -3.1119 -1.6908
   45SOL     OW  133   0.210   2.358   1.529 -0.2311 -0.1683  1.1107
   45SOL    HW1  134   0.187   2.387   1.625 -1.7856 -0.8618 -0.1405
   45SOL    HW2  135   0.305   2.329   1.526 -2.4778  3.9019 -1.2057
   46SOL     OW  136   2.106   2.051   2.341 -0.2359  0.3260  0.7854
   46SOL    HW1  137   2.152   2.057   2.427 -0.1304 -0.7646 -0.5260
   46SOL    HW2  138   2.006   2.030   2.357 -0.3676 -1.1076 -2.1154
   47SOL     OW  139   1.696   1.954   1.659  0.3495 -0.1303  0.0022
   47SOL    HW1  140   1.724   2.025   1.727  2.1431  1.4288 -1.1848
   47SOL    HW2  141   1.746   1.864   1.667 -0.9468 -0.9288  2.5853
   48SOL     OW  142   0.402   1.771   0.377 -0.3266 -0.3740  0.2592
   48SOL    HW1  143   0.444   1.755   0.467 -1.4674  0.3509 -0.3027
   48SOL    HW2  144   0.367   1.684   0.339  2.6691  0.8643 -1.3133
   49SOL     OW  145   2.669   0.545   2.316  0.5757  0.1795 -0.0853
   49SOL    HW1  146   2.624   0.596   2.390  1.8701 -0.6569  0.9615
   49SOL    HW2  147   2.690   0.609   2.244 -0.5112 -2.2920  2.0363
   50SOL     OW  148   1.940   0.642   1.041 -0.1157 -0.1462 -0.3699
   50SOL    HW1  149   1.965   0.743   1.029 -0.2107 -0.1025 -0.7451
   50SOL    HW2  150   1.839   0.631   1.039  1.0276 -0.5652  0.6260
   51SOL     OW  151   1.212   0.669   0.989  0.2134 -0.1897  0.2280
   51SOL    HW1  152   1.132   0.704   1.044  2.4553  1.7025 -1.0180
   51SOL    HW2  153   1.277   0.745   0.964 -2.4253  0.8737  1.5157
   52SOL     OW  154   1.376   1.207   0.014 -0.2469  0.0431 -0.4819
   52SOL    HW1  155   1.376   1.160   0.102 -1.6473  1.9822 -2.2581
   52SOL    HW2  156   1.300   1.274   0.009 -0.3043 -3.9655  0.3293
   53SOL     OW  157   1.213   2.012   2.807 -0.2584 -0.0888 -0.6708
   53SOL    HW1  158   1.120   1.999   2.844  1.6632 -1.8818  0.4451
   53SOL    HW2  159   1.220   2.108   2.773 -0.5621 -3.1362 -1.6602
   54SOL     OW  160   1.828   0.537   1.410 -0.1625  0.0960  0.2832
   54SOL    HW1  161   1.883   0.494   1.338 -0.8585 -1.9527  2.3922
   54SOL    HW2  162   1.869   0.515   1.500 -0.3930 -1.7892  0.5949
   55SOL     OW  163   2.034   2.829   0.709  0.6525 -0.0393  0.0939
   55SOL    HW1  164   2.067   2.830   0.611 -3.2226 -2.7375  0.5241
   55SOL    HW2  165   1.968   2.750   0.727 -1.6194 -0.5412  1.6222
   56SOL     OW  166   0.860   2.578   1.263 -0.0674 -0.0094  0.3495
   56SOL    HW1  167   0.951   2.553   1.227 -0.0894 -1.1221  0.1108
   56SOL    HW2  168   0.862   2.632   1.349 -2.6841 -2.0258 -0.6812
   57SOL     OW  169   1.878   1.308   0.370 -0.3195  0.2550  1.0169
   57SOL    HW1  170   1.799   1.252   0.341  0.2334  1.0350  0.4054
   57SOL    HW2  171   1.960   1.253   0.337  1.1912  0.7426 -0.5764
   58SOL     OW  172   0.331   1.090   2.153  0.1991 -0.1208 -0.1642
   58SOL    HW1  173   0.355   1.114   2.248 -0.0534  1.0974  1.4575
   58SOL    HW2  174   0.237   1.048   2.152 -0.4150  2.9825 -1.4345
   59SOL     OW  175   0.617   2.474   2.454 -0.3424 -0.3166 -0.3984
   59SOL    HW1  176   0.683   2.509   2.525 -1.3001 -2.4486 -0.4742
   59SOL    HW2  177   0.566   2.550   2.407 -0.2158  1.2739 -1.2367
   60SOL     OW  178   2.647   2.686   1.027  0.4883  0.6517 -0.0214
   60SOL    HW1  179   2.607   2.605   1.074 -2.0983 -2.7945  2.7810
   60SOL    HW2  180   2.656   2.770   1.086  0.3394 -0.1832 -1.4657
   61SOL     OW  181   1.211   2.075   0.599  0.3561  0.3759  0.5865
   61SOL    HW1  182   1.153   2.026   0.669  1.1990 -2.5721 -0.6796
   61SOL    HW2  183   1.303   2.094   0.637  2.0274  1.2961  0.1009
   62SOL     OW  184   2.141   2.656   2.735 -0.0839 -0.7734 -0.8715
   62SOL    HW1  185   2.133   2.561   2.767 -0.8720 -0.3308  3.5137
   62SOL    HW2  186   2.123   2.724   2.813 -0.2413  1.2996 -2.0323
   63SOL     OW  187   1.913   0.386   3.046  0.1393  0.3787  0.1245
   63SOL    HW1  188   1.918   0.359   0.079  1.9575  1.3821 -0.3691
   63SOL    HW2  189   1.999   0.419   3.006  1.8630 -0.6877 -0.4381
   64SOL     OW  190   1.002   1.086   2.880 -0.3871 -0.0078  0.1467
   64SOL    HW1  191   1.077   1.143   2.844 -0.5365  0.4577 -1.4338
   64SOL    HW2  192   0.922   1.141   2.910 -0.0191 -1.2082 -0.7290
   65SOL     OW  193   1.423   2.402   0.617 -0.3168  0.0425  0.3792
   65SOL    HW1  194   1.403   2.431   0.523 -2.2435 -1.5536  2.3054
   65SOL    HW2  195   1.417   2.301   0.618 -1.9783 -2.7770 -0.7897
   66SOL     OW  196   0.579   1.299   1.816  0.5187 -0.6570 -0.0469
   66SOL    HW1  197   0.625   1.330   1.898  0.1439  0.9313  1.0754
   66SOL    HW2  198   0.482   1.278   1.832  0.6191  0.9701  0.1451
   67SOL     OW  199   2.414   0.087   2.393  0.6853 -0.2768 -0.3911
   67SOL    HW1  200   2.334   0.083   2.327  0.1389 -2.4660  0.0214
   67SOL    HW2  201   2.464   0.176   2.396  0.1929  2.0462  1.2487
   68SOL     OW  202   0.902   1.161   1.312  0.3064 -0.4343  0.4649
   68SOL    HW1  203   0.908   1.064   1.342 -1.6209 -1.1422  0.3573
   68SOL    HW2  204   0.861   1.167   1.215 -2.1088 -0.2543  1.1328
   69SOL     OW  205   1.840   2.604   0.400 -0.1675  0.2414 -0.2398
   69SOL    HW1  206   1.777   2.683   0.416  1.4020 -1.8848 -0.5819
   69SOL    HW2  207   1.853   2.546   0.477 -0.5452  1.2396 -3.3217
   70SOL     OW  208   2.770   1.021   2.377  0.1044 -0.4263  0.1728
   70SOL    HW1  209   2.868   0.989   2.384  1.3525  2.1114 -0.3758
   70SOL    HW2  210   2.696   0.949   2.371  1.8124  0.6381  0.2848
   71SOL     OW  211   3.000   1.489   0.035  0.3415  0.1357  0.0220
   71SOL    HW1  212   2.939   1.446   3.029 -1.4933 -1.2299 -0.4599
   71SOL    HW2  213   0.029   1.458   0.036  0.9822 -0.8295  3.0788
   72SOL     OW  214   2.950   2.141   0.469  0.4999 -0.0093  0.4998
   72SOL    HW1  215   2.856   2.108   0.472  0.9721 -0.4565  0.3437
   72SOL    HW2  216   3.010   2.085   0.526 -3.0695  0.7142 -1.7736
   73SOL     OW  217   0.881   1.481   0.411 -0.0710  1.0981  0.1852
   73SOL    HW1  218   0.842   1.408   0.465  1.6559  0.2313  2.4826
   73SOL    HW2  219   0.917   1.557   0.470 -1.6685  0.0985 -1.6289
   74SOL     OW  220   0.419   1.960   2.130 -0.1693  0.1819 -0.6714
   74SOL    HW1  221   0.330   1.911   2.131 -0.3563  2.0111 -3.1156
   74SOL    HW2  222   0.476   1.953   2.217  1.2137 -1.3406  3.8902
   75SOL     OW  223   1.589   1.457   1.669  0.0485  0.3086  0.5005
   75SOL    HW1  224   1.578   1.431   1.576  1.5856  2.0851  2.7029
   75SOL    HW2  225   1.645   1.539   1.668  0.6146 -1.8404 -0.7069
   76SOL     OW  226   2.051   2.831   1.315  0.4989 -0.1037 -0.0791
   76SOL    HW1  227   2.081   2.734   1.325 -1.7235 -0.2906  1.9340
   76SOL    HW2  228   2.125   2.892   1.349 -0.8575 -0.1332 -0.4524
   77SOL     OW  229   2.681   0.975   1.203 -0.5129 -0.4120  0.2733
   77SOL    HW1  230   2.764   0.970   1.258  0.2079 -0.4045 -3.2106
   77SOL    HW2  231   2.701   0.946   1.104  0.2031 -1.3690 -3.2155
   78SOL     OW  232   1.307   1.002   0.535 -0.0726 -0.3307 -0.4641
   78SOL    HW1  233   1.319   1.078   0.468  0.9821  1.3197 -1.5683
   78SOL    HW2  234   1.364   0.922   0.502  0.5397  0.8000  1.2525
   79SOL     OW  235   2.936   1.244   1.701 -0.2568  0.0964 -0.0223
   79SOL    HW1  236   2.896   1.244   1.610  2.7689 -0.2681  1.3774
   79SOL    HW2  237   3.030   1.204   1.706 -0.2853 -1.9840  1.5113
   80SOL     OW  238   1.110   0.757   1.549  0.2812  0.6661 -0.6049
   80SOL    HW1  239   1.092   0.759   1.651  2.8079  0.7623  0.0088
   80SOL    HW2  240   1.150   0.666   1.514 -3.3550 -3.1353 -2.3887
   81SOL     OW  241   1.002   2.947   0.830 -0.2526  0.0114  0.0276
   81SOL    HW1  242   1.046   2.961   0.738  0.7098 -0.3473  0.5181
   81SOL    HW2  243   0.907   2.982   0.835  2.2204 -1.1524 -0.8623
   82SOL     OW  244   1.384   0.053   1.548 -0.0282 -0.0271 -0.0678
   82SOL    HW1  245   1.291   0.030   1.583  0.9253  1.1209 -0.5010
   82SOL    HW2  246   1.393   0.068   1.447 -2.0097 -1.5069 -1.5795
   83SOL     OW  247   1.130   1.948   0.881 -0.1787  0.2028 -0.0032
   83SOL    HW1  248   1.168   2.028   0.928 -2.1202  0.3366  2.4285
   83SOL    HW2  249   1.098   1.884   0.959  0.3341  0.4996 -0.9504
   84SOL     OW  250   0.494   1.530   2.696 -0.5600 -0.1970 -0.3373
   84SOL    HW1  251   0.414   1.516   2.639  2.4558  0.3041  0.2409
   84SOL    HW2  252   0.552   1.603   2.656 -1.0597  0.0711 -0.5312
   85SOL     OW  253   0.092   2.317   1.279  0.0206  0.1367 -0.4798
   85SOL    HW1  254   0.036   2.230   1.288 -0.5777  0.7038 -0.9795
   85SOL    HW2  255   0.141   2.333   1.372  1.0329  1.9347  1.8912
   86SOL     OW  256   2.248   2.340   1.376 -0.4302 -0.0566  0.6403
   86SOL    HW1  257   2.232   2.424   1.328  0.6207 -2.4800  3.9421
   86SOL    HW2  258   2.273   2.366   1.472  1.4550 -2.5776 -2.8894
   87SOL     OW  259   0.079   2.049   0.612 -0.2583  0.4622  0.5383
   87SOL    HW1  260   0.119   2.004   0.698  0.6875  0.9469  0.6888
   87SOL    HW2  261   0.147   2.121   0.580 -0.5939  0.3842 -2.2193
   88SOL     OW  262   0.869   1.401   1.474  0.1815  0.1911  0.5508
   88SOL    HW1  263   0.835   1.322   1.421  1.7677 -2.5860  1.9721
   88SOL    HW2  264   0.952   1.435   1.435 -0.7342 -0.7065  2.7937
   89SOL     OW  265   1.128   3.028   1.902  0.4643 -0.9067 -0.1454
   89SOL    HW1  266   1.061   2.975   1.959 -0.0658  1.1836  2.0663
   89SOL    HW2  267   1.145   2.983   1.810  1.2678 -0.6258 -1.3760
   90SOL     OW  268   2.879   1.744   1.228  0.0332  0.0924  0.1944
   90SOL    HW1  269   2.876   1.748   1.330  1.7263 -2.0369 -0.9606
   90SOL    HW2  270   2.884   1.648   1.193 -0.3626  1.1960  0.3862
   91SOL     OW  271   1.442   1.784   1.130  0.2151 -0.6835 -0.2187
   91SOL    HW1  272   1.356   1.784   1.178  1.9070  1.1682  0.8695
   91SOL    HW2  273   1.501   1.857   1.168 -0.0546 -0.5079 -1.0412
   92SOL     OW  274   2.327   2.402   1.630 -0.2099  0.2488 -0.4655
   92SOL    HW1  275   2.263   2.424   1.709 -0.5142 -0.5025 -0.3059
   92SOL    HW2  276   2.417   2.368   1.665 -1.0281 -1.6677  2.3136
   93SOL     OW  277   2.797   1.509   2.729  0.0521  0.0093 -0.4435
   93SOL    HW1  278   2.734   1.483   2.652 -0.7973  0.9994 -1.2942
   93SOL    HW2  279   2.823   1.431   2.790  3.4514 -3.4168 -0.3964
   94SOL     OW  280   2.863   2.932   2.203  0.6147 -0.2755 -0.4102
   94SOL    HW1  281   2.813   3.003   2.256 -1.7038  2.1098  0.2763
   94SOL    HW2  282   2.937   2.982   2.150  2.4440  2.4819  0.7230
   95SOL     OW  283   1.524   0.378   1.808  0.1938 -0.8511 -0.7476
   95SOL    HW1  284   1.570   0.312   1.875 -2.5122 -0.8756  1.9850
   95SOL    HW2  285   1.556   0.474   1.825  0.3936  0.5077 -0.8108
   96SOL     OW  286   2.928   0.330   1.580 -0.3033 -0.4387  0.2344
   96SOL    HW1  287   2.850   0.332   1.514  2.8506 -0.1780  0.3975
   96SOL    HW2  288   3.010   0.364   1.532  1.0208  1.5199  1.9627
   97SOL     OW  289   2.040   0.212   1.387 -0.2218  0.0498  0.0137
   97SOL    HW1  290   2.030   0.306   1.352  0.3469  0.2589 -2.3105
   97SOL    HW2  291   2.116   0.206   1.456  0.6156  0.3538  1.6539
   98SOL     OW  292   1.645   2.666   1.583 -0.3040  0.0804  0.4015
   98SOL    HW1  293   1.725   2.675   1.518  1.5667 -0.3066 -3.9820
   98SOL    HW2  294   1.632   2.568   1.607 -1.9259  0.7162 -0.8911
   99SOL     OW  295   2.978   0.128   1.765 -0.2040 -0.5303  0.5589
   99SOL    HW1  296   2.974   0.225   1.730  0.5409  1.9192  0.7762
   99SOL    HW2  297   0.007   0.092   1.751  1.9433 -0.1340 -1.3865
  100SOL     OW  298   2.715   1.155   2.140 -0.1153 -0.3866  0.2333
  100SOL    HW1  299   2.716   1.254   2.176  1.3278  1.7023  0.5843
  100SOL    HW2  300   2.752   1.098   2.215  0.8234 -0.7066 -1.0396
  101SOL     OW  301   1.370   0.680   0.690 -0.0002 -0.2013 -0.1501
  101SOL    HW1  302   1.429   0.599   0.707 -2.3450  0.2761  0.1691
  101SOL    HW2  303   1.390   0.747   0.767 -0.7413  0.1546 -1.8340
  102SOL     OW  304   0.358   0.719   1.474 -0.4926  0.0117  0.0960
  102SOL    HW1  305   0.287   0.671   1.537  0.7003  0.9219 -0.2256
  102SOL    HW2  306   0.441   0.715   1.533  1.7510 -1.1562  4.1317
  103SOL     OW  307   2.318   0.671   2.967 -0.0745  0.4109 -0.1981
  103SOL    HW1  308   2.248   0.660   3.038  0.6107  0.2862 -1.5633
  103SOL    HW2  309   2.409   0.668   3.010 -2.1783 -0.6323  1.9563
  104SOL     OW  310   3.065   0.055   2.095  0.1713  0.1960  0.0874
  104SOL    HW1  311   0.007   0.061   1.995 -2.4783 -1.2602  0.7181
  104SOL    HW2  312   2.984   0.106   2.126  2.3292 -0.0541 -0.5547
  105SOL     OW  313   1.941   0.711   1.719  0.4993 -0.0379 -0.5509
  105SOL    HW1  314   1.879   0.778   1.673  1.6984 -4.4859 -0.2911
  105SOL    HW2  315   2.038   0.733   1.705 -3.2368  0.1780 -1.4343
  106SOL     OW  316   1.674   3.054   0.925 -0.2873  0.1352 -0.4147
  106SOL    HW1  317   1.577   3.025   0.953 -0.1303  0.0130  0.2725
  106SOL    HW2  318   1.728   3.057   1.011 -1.6132 -1.0796 -1.0337
  107SOL     OW  319   0.348   1.220   0.765 -1.0029  0.1836 -0.5695
  107SOL    HW1  320   0.365   1.236   0.666 -0.6486 -0.3526  1.0962
  107SOL    HW2  321   0.251   1.233   0.778  1.5418  2.5983 -0.8242
  108SOL     OW  322   2.858   0.194   2.188  0.0644 -0.1528 -0.0097
  108SOL    HW1  323   2.833   0.225   2.095  0.9433  1.4862  2.2729
  108SOL    HW2  324   2.775   0.156   2.233  0.6573  2.5428  1.7015
  109SOL     OW  325   2.246   0.426   0.616 -0.2625 -0.1738  0.0860
  109SOL    HW1  326   2.339   0.445   0.589 -0.8650 -0.6564  1.8758
  109SOL    HW2  327   2.229   0.334   0.655  0.1118 -0.3116 -1.4241
  110SOL     OW  328   0.245   2.472   2.788 -0.0917  0.3611 -0.3932
  110SOL    HW1  329   0.179   2.527   2.729 -2.4287 -1.2845 -3.9988
  110SOL    HW2  330   0.320   2.425   2.732  0.5750  1.0590  1.6433
  111SOL     OW  331   1.764   2.928   2.084  0.4590  0.1358  0.5230
  111SOL    HW1  332   1.812   3.016   2.066  1.7568 -0.3225  0.4530
  111SOL    HW2  333   1.761   2.876   1.997  1.0427  0.3604 -0.2275
  112SOL     OW  334   2.037   2.578   3.063  0.8049  0.3624  0.2332
  112SOL    HW1  335   2.000   2.658   0.044  3.7796  1.1034  1.3500
  112SOL    HW2  336   2.124   2.595   3.011  1.6204 -0.3626 -0.3241
  113SOL     OW  337   2.568   2.047   1.723  0.3975 -0.0786  0.1409
  113SOL    HW1  338   2.654   2.020   1.674 -0.0443 -1.7188 -0.9350
  113SOL    HW2  339   2.567   2.150   1.732 -0.6520  0.6157 -2.4526
  114SOL     OW  340   2.683   0.929   0.935  0.0433 -0.3130 -0.0401
  114SOL    HW1  341   2.580   0.920   0.933 -1.4703  0.7728 -3.1873
  114SOL    HW2  342   2.737   0.843   0.915 -1.8284  1.4570  0.8955
  115SOL     OW  343   3.032   1.778   0.042  0.2764 -0.2790 -0.3043
  115SOL    HW1  344   0.049   1.826   0.071 -1.1737  2.0615  1.3691
  115SOL    HW2  345   3.025   1.684   0.082  1.7095  3.1236 -0.3595
  116SOL     OW  346   0.037   1.317   2.152 -0.6639  0.6935  0.1124
  116SOL    HW1  347   3.045   1.246   2.119 -0.1823 -2.4504  2.4043
  116SOL    HW2  348   0.041   1.410   2.104  0.2353  0.8923  0.8214
  117SOL     OW  349   2.648   3.044   0.839  0.1649 -0.1875 -0.0899
  117SOL    HW1  350   2.563   3.022   0.785  2.1136  0.3370  0.9089
  117SOL    HW2  351   2.726   3.049   0.773 -0.6043 -1.3517  2.7448
  118SOL     OW  352   0.459   2.061   1.580 -0.7050  0.1961  0.3579
  118SOL    HW1  353   0.466   2.056   1.681  0.9548  0.3414 -1.8214
  118SOL    HW2  354   0.475   2.157   1.552 -0.4610 -0.6475  1.4614
  119SOL     OW  355   1.670   2.065   0.525 -0.4555 -0.1927  0.0645
  119SOL    HW1  356   1.695   1.964   0.507  0.6532 -1.4882  0.4144
  119SOL    HW2  357   1.757   2.115   0.528 -0.3515 -1.4635 -1.1114
  120SOL     OW  358   2.983   1.963   2.373  0.6947 -0.0119 -0.0908
  120SOL    HW1  359   0.015   1.983   2.368 -1.9649  1.6870 -1.4175
  120SOL    HW2  360   2.932   2.051   2.387  0.7018 -1.5124  1.5394
  121SOL     OW  361   2.269   2.078   1.358  0.0722  0.0200  0.0017
  121SOL    HW1  362   2.185   2.025   1.354  0.0901  0.0801  1.6946
  121SOL    HW2  363   2.259   2.176   1.379  0.2267 -2.0811  0.0119
  122SOL     OW  364   2.082   1.392   2.163  0.2145  0.6632  0.3150
  122SOL    HW1  365   2.170   1.444   2.155  0.9055  1.8021 -1.0534
  122SOL    HW2  366   2.050   1.386   2.260  1.8971 -0.8128 -0.9154
  123SOL     OW  367   0.173   2.954   0.671 -0.7369  0.0777  0.2492
  123SOL    HW1  368   0.094   3.000   0.620 -1.8762  3.0763  0.4119
  123SOL    HW2  369   0.137   2.904   0.750  0.5795  2.2142  0.0493
  124SOL     OW  370   1.717   0.722   2.507 -0.0275 -0.1295  0.9838
  124SOL    HW1  371   1.804   0.762   2.481 -2.5936 -4.5162 -1.0985
  124SOL    HW2  372   1.676   0.783   2.578  3.1059  0.3234  1.0132
  125SOL     OW  373   0.543   1.327   2.917 -0.0197 -0.1382 -0.4538
  125SOL    HW1  374   0.528   1.418   2.866 -0.4824  3.8903 -2.3104
  125SOL    HW2  375   0.524   1.349   3.017  1.3484  2.4008  0.5658
  126SOL     OW  376   2.731   1.941   0.118  0.1882 -0.7620  0.1758
  126SOL    HW1  377   2.674   2.014   0.167  2.5268 -1.6405 -0.1435
  126SOL    HW2  378   2.829   1.956   0.122 -3.1523  0.1472  0.3751
  127SOL     OW  379   0.524   1.697   1.152 -0.0377  0.1006  0.3693
  127SOL    HW1  380   0.493   1.792   1.144 -2.1676  1.7068  1.8361
  127SOL    HW2  381   0.445   1.634   1.162  0.9181  3.2644 -0.8099
  128SOL     OW  382   0.964   0.571   0.116 -0.5082 -0.5838  0.8933
  128SOL    HW1  383   0.902   0.587   0.035 -1.8218 -0.5095 -0.5940
  128SOL    HW2  384   0.976   0.662   0.166 -0.2699  2.0263  2.3860
  129SOL     OW  385   2.284   1.493   0.884  0.3528  0.3038 -0.5325
  129SOL    HW1  386   2.308   1.576   0.823  4.0052  2.7885 -2.1422
  129SOL    HW2  387   2.307   1.411   0.835 -1.4059  2.4099  0.3131
  130SOL     OW  388   2.290   1.775   0.825  0.3039  0.0615 -0.1865
  130SOL    HW1  389   2.340   1.840   0.886 -0.0670  0.1882 -0.1807
  130SOL    HW2  390   2.200   1.753   0.871 -0.8899 -0.1998 -2.5989
  131SOL     OW  391   2.774   1.060   2.766 -0.5464  0.1903  0.6597
  131SOL    HW1  392   2.735   1.083   2.853  2.5738  0.3494 -0.8714
  131SOL    HW2  393   2.858   1.106   2.744 -0.5403  4.0903  2.0296
  132SOL     OW  394   2.567   1.574   1.827 -0.1955  0.3653 -0.6356
  132SOL    HW1  395   2.567   1.663   1.873  1.9985 -1.7524 -0.3430
  132SOL    HW2  396   2.664   1.533   1.828  3.3498 -0.5310  0.5661
  133SOL     OW  397   2.920   0.740   0.130  0.4709  0.3296  0.2002
  133SOL    HW1  398   2.987   0.693   0.195  1.7134 -1.6029  2.3482
  133SOL    HW2  399   2.969   0.809   0.076 -0.5735 -1.5705 -0.0282
  134SOL     OW  400   0.331   1.142   0.159  0.3491  0.2368 -0.2685
  134SOL    HW1  401   0.347   1.242   0.166 -0.6099  1.7533  0.9346
  134SOL    HW2  402   0.329   1.112   0.062  1.4689 -1.2458  0.5776
  135SOL     OW  403   2.153   1.769   0.589 -0.2829  0.8942 -0.1555
  135SOL    HW1  404   2.214   1.775   0.669  1.2003  0.0455 -0.2967
  135SOL    HW2  405   2.110   1.674   0.585  0.3744  0.8537 -0.2860
  136SOL     OW  406   1.974   1.384   1.257 -0.1783  0.6563 -0.1997
  136SOL    HW1  407   1.947   1.298   1.310 -0.1709 -0.4058  0.6814
  136SOL    HW2  408   2.025   1.364   1.169  2.1734 -0.0982 -1.8142
  137SOL     OW  409   2.519   1.578   0.649  0.0563 -0.6467  0.6277
  137SOL    HW1  410   2.548   1.646   0.716 -1.6546 -3.0469  0.1610
  137SOL    HW2  411   2.491   1.624   0.561 -1.3068  0.4642 -3.6749
  138SOL     OW  412   1.030   0.324   1.502 -0.3881 -0.4193 -0.4038
  138SOL    HW1  413   1.089   0.396   1.465  2.2437 -2.8621  1.1998
  138SOL    HW2  414   1.042   0.234   1.460  1.3458  1.3734 -0.8781
  139SOL     OW  415   2.106   3.068   0.069  0.5367 -0.4473  0.0067
  139SOL    HW1  416   2.063   0.053   3.058  2.5917  1.8950 -1.4397
  139SOL    HW2  417   2.063   0.024   0.158 -0.7625  0.6813 -0.1507
  140SOL     OW  418   1.495   2.150   2.608 -0.7059  0.4349  0.1832
  140SOL    HW1  419   1.407   2.107   2.574 -1.4278 -0.1752 -0.3429
  140SOL    HW2  420   1.549   2.163   2.522 -1.2801 -1.5471 -2.8618
  141SOL     OW  421   0.914   1.121   1.637  0.6004 -0.1218  0.2682
  141SOL    HW1  422   0.982   1.187   1.672  0.6610  1.5564 -1.2852
  141SOL    HW2  423   0.962   1.047   1.585  0.2311 -2.5482  1.4617
  142SOL     OW  424   2.590   0.204   0.065  0.1540 -0.0620 -0.2368
  142SOL    HW1  425   2.504   0.152   0.076  1.0072 -1.6148 -1.1958
  142SOL    HW2  426   2.664   0.145   0.099 -0.1463  0.1124 -1.5006
  143SOL     OW  427   0.805   2.436   3.050 -0.0742 -0.1135  0.8175
  143SOL    HW1  428   0.733   2.454   0.057 -2.8991 -2.3355  0.4116
  143SOL    HW2  429   0.869   2.512   3.037  1.2263 -0.8398 -0.2790
  144SOL     OW  430   0.995   2.701   2.460 -0.2938 -0.2754  0.7571
  144SOL    HW1  431   0.991   2.601   2.483 -2.1702  0.5534  1.1495
  144SOL    HW2  432   1.033   2.756   2.534 -0.2478 -3.4210  0.9534
  145SOL     OW  433   2.390   1.363   0.028 -0.1793  0.1769  0.2167
  145SOL    HW1  434   2.482   1.399   0.055 -3.3417  2.2388  0.5512
  145SOL    HW2  435   2.320   1.431   0.055  0.1455 -2.2666  1.9686
  146SOL     OW  436   2.629   2.883   3.059 -0.0655 -0.2396 -0.2671
  146SOL    HW1  437   2.581   2.854   0.076 -1.1274 -2.2096  0.7098
  146SOL    HW2  438   2.693   2.957   0.005  0.7117 -0.2870  0.5724
  147SOL     OW  439   2.490   2.350   1.126  0.3430 -0.3308  0.1582
  147SOL    HW1  440   2.481   2.442   1.171 -0.4673  2.0700 -0.9872
  147SOL    HW2  441   2.428   2.283   1.169 -1.1464 -0.3240 -0.0272
  148SOL     OW  442   1.702   0.147   0.159  0.0137  0.1016  0.3638
  148SOL    HW1  443   1.635   0.197   0.220 -2.9651  1.0840 -1.4067
  148SOL    HW2  444   1.700   0.202   0.075 -3.1474  2.4152 -1.4439
  149SOL     OW  445   1.026   1.502   2.803 -0.0993 -0.1304  0.2610
  149SOL    HW1  446   0.951   1.452   2.757  0.0363 -0.6633 -1.9335
  149SOL    HW2  447   1.086   1.553   2.737  0.6371  3.1637 -0.4437
  150SOL     OW  448   0.718   2.554   0.591  0.0371  0.6168  0.2736
  150SOL    HW1  449   0.716   2.524   0.496  1.5400  2.2944 -1.0344
  150SOL    HW2  450   0.741   2.484   0.659  0.6120  3.2531  1.3826
  151SOL     OW  451   0.517   1.888   2.964  0.4744 -0.5834 -0.4055
  151SOL    HW1  452   0.499   1.941   2.878  1.2072  0.3032  1.5007
  151SOL    HW2  453   0.560   1.799   2.941  2.0346  1.1151  0.6966
  152SOL     OW  454   2.953   1.101   0.449  0.2895 -0.3169  0.8326
  152SOL    HW1  455   3.002   1.029   0.504  1.3460 -2.7013 -0.2419
  152SOL    HW2  456   2.852   1.097   0.470 -0.2237  1.2365  1.5743
  153SOL     OW  457   2.442   2.398   0.041 -0.0487 -0.2621 -0.7923
  153SOL    HW1  458   2.451   2.411   0.147  0.5377 -2.3121  1.0014
  153SOL    HW2  459   2.534   2.376   0.006  0.9604 -2.3046 -0.7849
  154SOL     OW  460   0.808   2.884   1.191  0.4471  0.2152  0.3081
  154SOL    HW1  461   0.840   2.817   1.260  0.4906  0.7495  0.7955
  154SOL    HW2  462   0.713   2.865   1.158  0.5357 -2.2628 -1.6172
  155SOL     OW  463   0.449   1.959   1.166  0.7566  0.2044 -0.1808
  155SOL    HW1  464   0.404   2.017   1.092 -0.4575 -0.1946  0.0831
  155SOL    HW2  465   0.382   1.945   1.245  1.1056 -1.6791  1.5094
  156SOL     OW  466   2.352   2.283   2.873 -0.1866  0.0611 -0.1739
  156SOL    HW1  467   2.411   2.201   2.878  3.1432  0.2668  0.7710
  156SOL    HW2  468   2.364   2.335   2.962  1.8428  0.3678  1.5379
  157SOL     OW  469   1.039   2.292   1.164  0.3555  0.1826 -0.1098
  157SOL    HW1  470   0.957   2.246   1.196  1.5260 -0.0451  1.9026
  157SOL    HW2  471   1.049   2.377   1.217  1.7630  1.6174 -5.0405
  158SOL     OW  472   1.647   0.632   2.844 -0.0673  0.0021  0.1359
  158SOL    HW1  473   1.659   0.557   2.778 -0.2394 -0.2380 -0.5492
  158SOL    HW2  474   1.615   0.709   2.792  1.6348 -4.7917  1.0630
  159SOL     OW  475   1.061   0.485   2.397 -0.4856 -0.3925  0.2082
  159SOL    HW1  476   1.018   0.499   2.303 -0.8181 -1.0956  1.1765
  159SOL    HW2  477   1.082   0.387   2.417  0.9942 -0.3131 -0.4942
  160SOL     OW  478   1.225   1.846   0.472 -0.2888  0.2138  0.1249
  160SOL    HW1  479   1.245   1.940   0.507  1.9921  1.8881 -0.8800
  160SOL    HW2  480   1.182   1.854   0.378 -0.5296  1.5562 -0.5498
  161SOL     OW  481   3.025   2.105   3.052 -0.6261  0.3745 -0.0972
  161SOL    HW1  482   3.063   2.020   0.012 -0.6377  4.1301 -2.3294
  161SOL    HW2  483   3.037   2.177   0.053  1.2784  2.0507  1.5687
  162SOL     OW  484   0.689   2.637   1.015 -0.6044 -0.7922  0.1234
  162SOL    HW1  485   0.738   2.675   0.934 -0.1536  0.5817 -0.3045
  162SOL    HW2  486   0.742   2.632   1.107  1.9946  2.8062  1.4454
  163SOL     OW  487   2.511   0.998   2.973 -0.0274 -0.8581  0.3417
  163SOL    HW1  488   2.434   0.993   2.906 -2.8169 -0.9201  1.0693
  163SOL    HW2  489   2.566   0.917   2.971 -3.2763  1.2852 -0.0382
  164SOL     OW  490   0.188   2.681   2.965  0.4773  0.6079  0.0035
  164SOL    HW1  491   0.190   2.669   3.064  1.1270 -1.9274  1.1679
  164SOL    HW2  492   0.222   2.596   2.918  0.0180  0.6071 -0.9062
  165SOL     OW  493   2.228   0.323   1.522 -0.0363 -0.8663  0.2179
  165SOL    HW1  494   2.201   0.320   1.623 -1.0631  0.4385  2.0578
  165SOL    HW2  495   2.242   0.421   1.497 -3.3714 -1.4606 -0.0059
  166SOL     OW  496   1.949   0.199   0.943  0.2350 -0.3905 -0.3984
  166SOL    HW1  497   1.978   0.293   0.911 -0.5366 -0.5828  1.8436
  166SOL    HW2  498   1.974   0.130   0.870  1.3401 -1.7953  1.0099
  167SOL     OW  499   0.438   0.591   1.855 -0.0653  0.3775 -0.5235
  167SOL    HW1  500   0.425   0.500   1.898  1.0934 -2.3738 -0.6759
  167SOL    HW2  501   0.462   0.657   1.929 -0.9442  1.1021  0.2636
  168SOL     OW  502   2.806   0.275   1.936  0.1708  0.2279  0.5642
  168SOL    HW1  503   2.707   0.286   1.935  0.5620  0.7371 -0.8493
  168SOL    HW2  504   2.842   0.192   1.896 -1.3406  3.6910  2.9320
  169SOL     OW  505   0.208   1.393   0.481  0.7644  0.3927 -0.0353
  169SOL    HW1  506   0.277   1.319   0.485 -1.4216  2.3966  2.8333
  169SOL    HW2  507   0.115   1.360   0.506 -1.8401 -1.4053  1.4203
  170SOL     OW  508   0.278   0.956   1.713  0.1509 -0.4328  0.1225
  170SOL    HW1  509   0.306   0.987   1.621  0.0422 -1.0910 -2.0827
  170SOL    HW2  510   0.292   0.853   1.729 -0.5085 -2.3993  0.6404
  171SOL     OW  511   1.159   1.870   1.886 -0.6638  0.1578 -0.2720
  171SOL    HW1  512   1.109   1.912   1.966 -2.2100 -1.0934 -0.4253
  171SOL    HW2  513   1.104   1.869   1.800 -0.1296 -0.6162  1.1862
  172SOL     OW  514   0.482   2.343   1.517  0.9468  0.1415 -0.0763
  172SOL    HW1  515   0.555   2.382   1.577  0.2613 -1.6950 -1.7838
  172SOL    HW2  516   0.502   2.371   1.419 -0.0520 -1.1859 -2.9805
  173SOL     OW  517   1.187   2.934   0.614 -0.1610  0.4263 -0.4766
  173SOL    HW1  518   1.149   2.894   0.532  0.4278 -1.2769  0.0787
  173SOL    HW2  519   1.285   2.912   0.619  1.6263  0.7694 -0.9342
  174SOL     OW  520   0.761   2.756   0.144  0.4381  0.0500  0.0400
  174SOL    HW1  521   0.741   2.852   0.144  0.1578 -0.7715  1.0528
  174SOL    HW2  522   0.837   2.725   0.082 -0.3905 -0.7602 -2.3769
  175SOL     OW  523   1.202   0.931   2.969 -0.5061 -0.0447 -0.0911
  175SOL    HW1  524   1.197   0.883   3.056  0.9657 -0.7751 -1.8163
  175SOL    HW2  525   1.115   0.984   2.950  0.5393 -0.7324 -1.5393
  176SOL     OW  526   1.418   0.501   0.164  0.5902 -0.0760  0.6605
  176SOL    HW1  527   1.408   0.498   0.063  0.2357  0.2622  0.5971
  176SOL    HW2  528   1.332   0.487   0.221  0.8911 -1.3152  1.1675
  177SOL     OW  529   1.427   1.104   0.764  0.2368 -0.5468  0.0276
  177SOL    HW1  530   1.369   1.088   0.684 -1.4860  0.8582  0.5113
  177SOL    HW2  531   1.512   1.150   0.727  0.6884  1.6075 -0.8736
  178SOL     OW  532   2.716   1.768   2.586  0.0429  0.0129 -0.4274
  178SOL    HW1  533   2.759   1.686   2.625 -1.7293  3.6906  2.5139
  178SOL    HW2  534   2.720   1.775   2.487 -0.4687  2.2155  1.2925
  179SOL     OW  535   0.580   3.033   2.797  0.0808  0.4428  0.2961
  179SOL    HW1  536   0.518   2.958   2.830 -1.8235  0.6839  1.9433
  179SOL    HW2  537   0.672   3.028   2.831 -2.1643  1.7120  0.3804
  180SOL     OW  538   1.723   1.526   1.258 -0.3987 -0.2806  0.7321
  180SOL    HW1  539   1.821   1.494   1.257  0.4899 -1.4431 -0.8344
  180SOL    HW2  540   1.678   1.534   1.167 -0.6771  2.0999 -2.2335
  181SOL     OW  541   1.088   1.342   2.239 -0.0083  0.1531 -0.1048
  181SOL    HW1  542   1.020   1.270   2.260  1.3232  2.7482 -0.4814
  181SOL    HW2  543   1.181   1.323   2.276 -0.7713 -0.6824 -0.8025
  182SOL     OW  544   2.730   0.793   2.742  0.1581  0.3318 -0.3240
  182SOL    HW1  545   2.760   0.889   2.744 -2.7157  0.6568  2.0376
  182SOL    HW2  546   2.692   0.759   2.833 -1.0426 -1.1208  2.3859
  183SOL     OW  547   1.638   0.067   2.605  0.5164 -0.1359 -0.0777
  183SOL    HW1  548   1.670   3.047   2.649 -0.5315 -1.4041  1.1512
  183SOL    HW2  549   1.646   0.058   2.504  3.6959 -5.2045 -0.7870
  184SOL     OW  550   0.521   0.432   1.645 -0.2850 -0.2112 -0.2464
  184SOL    HW1  551   0.473   0.498   1.705 -1.5049 -2.6033 -1.2347
  184SOL    HW2  552   0.613   0.458   1.605  0.7862  0.9448 -3.0247
  185SOL     OW  553   2.477   1.326   0.719  0.2401  0.3261  0.0025
  185SOL    HW1  554   2.495   1.415   0.685 -1.9885 -3.2585  1.3885
  185SOL    HW2  555   2.557   1.282   0.757 -1.7200  1.9600  1.3901
  186SOL     OW  556   0.133   2.086   2.838  0.2881  0.0325  0.1044
  186SOL    HW1  557   0.081   2.095   2.931 -1.3552  1.4552  2.4675
  186SOL    HW2  558   0.089   2.021   2.775 -0.3748 -0.8369 -0.8493
  187SOL     OW  559   2.667   1.359   0.178  0.5908 -0.3514  0.9874
  187SOL    HW1  560   2.753   1.394   0.226 -0.3501  1.9880 -1.9631
  187SOL    HW2  561   2.682   1.290   0.108 -0.0461  3.2055 -0.1783
  188SOL     OW  562   0.579   2.153   0.474  0.3728  0.7232 -0.0227
  188SOL    HW1  563   0.675   2.113   0.467  1.8858  1.4161  2.5787
  188SOL    HW2  564   0.510   2.091   0.426  2.1166  1.8765  0.7168
  189SOL     OW  565   2.428   0.951   0.269 -0.3981  0.0666  0.1864
  189SOL    HW1  566   2.509   0.910   0.230 -1.8886  2.3386  0.8655
  189SOL    HW2  567   2.447   1.038   0.317 -0.3618  1.0856  0.1586
  190SOL     OW  568   1.118   1.658   2.092 -0.3317  0.0245 -0.5366
  190SOL    HW1  569   1.110   1.757   2.117  0.0774  1.0982  1.0035
  190SOL    HW2  570   1.068   1.644   2.005  0.7031  0.9145 -0.6998
  191SOL     OW  571   2.783   0.430   1.355  0.7067 -0.3339  0.1116
  191SOL    HW1  572   2.708   0.424   1.283 -4.0423 -0.2810 -0.6635
  191SOL    HW2  573   2.766   0.502   1.423  0.2578 -2.4640 -1.8537
  192SOL     OW  574   2.147   0.322   1.783 -0.1441 -0.4555  0.0028
  192SOL    HW1  575   2.170   0.229   1.817 -1.4434  0.1875  3.1254
  192SOL    HW2  576   2.158   0.391   1.856  1.7734  1.7039  0.7441
  193SOL     OW  577   0.440   0.636   0.448 -0.0320  0.1437 -0.5966
  193SOL    HW1  578   0.404   0.625   0.548 -5.6528 -0.2353  4.3831
  193SOL    HW2  579   0.472   0.733   0.427  1.5259  1.7796  0.7645
  194SOL     OW  580   1.529   2.456   1.679 -0.0604 -0.5178 -0.4362
  194SOL    HW1  581   1.569   2.486   1.767 -0.1113  2.0169 -2.3359
  194SOL    HW2  582   1.491   2.364   1.686  0.2715  0.2787  0.5464
  195SOL     OW  583   2.363   0.647   0.816 -0.1951  0.4447 -0.2218
  195SOL    HW1  584   2.393   0.563   0.767 -2.0929 -0.7358 -0.1738
  195SOL    HW2  585   2.305   0.702   0.758  1.5374 -1.7556  2.3237
  196SOL     OW  586   1.884   2.116   2.045  0.4548  0.7003  0.0451
  196SOL    HW1  587   1.853   2.027   2.075 -3.1268 -0.6512  0.7278
  196SOL    HW2  588   1.915   2.174   2.125  0.6986  1.1853 -1.9002
  197SOL     OW  589   0.429   0.167   3.046 -0.1524  1.2647 -0.3963
  197SOL    HW1  590   0.457   0.075   0.005  0.0677 -0.0957  0.0230
  197SOL    HW2  591   0.349   0.171   2.986  1.2840  0.7082  0.7236
  198SOL     OW  592   1.059   1.198   0.775 -0.0140  0.2991  0.2360
  198SOL    HW1  593   1.082   1.277   0.714 -3.6800 -2.0196  1.0891
  198SOL    HW2  594   0.976   1.165   0.729  1.3355 -1.4607  2.2500
  199SOL     OW  595   2.496   0.812   1.696  0.0386 -0.2742 -0.8271
  199SOL    HW1  596   2.542   0.780   1.783  0.6504 -0.6244 -0.1843
  199SOL    HW2  597   2.538   0.904   1.677 -0.3857  1.0056 -0.1977
  200SOL     OW  598   2.690   2.555   2.260 -0.3655  0.2167  0.0562
  200SOL    HW1  599   2.674   2.652   2.256  2.8217 -0.4998 -1.7728
  200SOL    HW2  600   2.672   2.525   2.352  0.4918 -1.7837 -2.8061
  201SOL     OW  601   2.790   0.070   1.217  0.3453 -0.7732  0.0192
  201SOL    HW1  602   2.755   0.122   1.140  1.2745 -0.6988  2.8583
  201SOL    HW2  603   2.741   3.051   1.220 -0.7172 -2.1043 -0.0733
  202SOL     OW  604   2.032   0.642   0.681  0.0105 -0.0406  0.0527
  202SOL    HW1  605   1.929   0.625   0.677 -3.8451 -1.6083 -1.2228
  202SOL    HW2  606   2.085   0.567   0.727  0.6513 -3.4622 -0.1077
  203SOL     OW  607   1.782   1.855   2.146  0.5324 -0.7266 -0.5760
  203SOL    HW1  608   1.688   1.890   2.157  0.9767  0.5869  0.0320
  203SOL    HW2  609   1.824   1.867   2.237  0.1946 -3.0447 -1.7723
  204SOL     OW  610   0.780   1.667   2.370  0.1967 -0.6590  0.1937
  204SOL    HW1  611   0.860   1.605   2.395 -1.7467 -1.1085  2.2115
  204SOL    HW2  612   0.816   1.754   2.331 -1.8777  2.3200  2.0634
  205SOL     OW  613   0.808   1.823   1.290  0.2982  0.0264 -0.8743
  205SOL    HW1  614   0.782   1.735   1.243  0.8425  1.9383  0.0968
  205SOL    HW2  615   0.751   1.839   1.372  2.5670  1.7790 -2.3291
  206SOL     OW  616   2.903   0.391   3.065 -0.5304 -0.1676 -0.3669
  206SOL    HW1  617   2.903   0.448   2.983  0.6325  0.0364  1.4523
  206SOL    HW2  618   2.825   0.420   0.059 -2.2836 -0.5473  0.5082
  207SOL     OW  619   1.624   2.566   1.910  0.2636  0.1529  0.8418
  207SOL    HW1  620   1.680   2.651   1.895  1.8894 -1.4778 -0.6167
  207SOL    HW2  621   1.695   2.500   1.951  0.2771 -0.2747  1.8517
  208SOL     OW  622   0.594   2.459   1.289  0.6701  0.2936 -0.4803
  208SOL    HW1  623   0.687   2.493   1.308 -0.5955  1.1776 -1.4433
  208SOL    HW2  624   0.587   2.434   1.192 -1.1115  0.5150  1.8453
  209SOL     OW  625   1.462   1.141   2.167  0.3178 -0.0361  0.2535
  209SOL    HW1  626   1.481   1.209   2.095 -0.8980 -0.7987 -1.3247
  209SOL    HW2  627   1.417   1.191   2.248 -3.6177  1.4374 -0.7674
  210SOL     OW  628   1.824   0.800   1.316  0.2054 -0.3408  0.2676
  210SOL    HW1  629   1.839   0.804   1.213 -1.3471  1.1036  0.3107
  210SOL    HW2  630   1.790   0.707   1.343  0.9950 -1.5460  0.4851
  211SOL     OW  631   0.803   2.992   0.445 -0.2043  0.3236  1.0345
  211SOL    HW1  632   0.755   2.992   0.353 -2.1945 -1.8197 -2.6673
  211SOL    HW2  633   0.798   0.019   0.479 -1.1784 -0.7665  2.6634
  212SOL     OW  634   1.797   1.537   0.066  0.0067  0.1887 -0.0390
  212SOL    HW1  635   1.768   1.576   3.044  0.2004  0.0412 -1.5002
  212SOL    HW2  636   1.854   1.460   0.054 -3.9075  0.1470  1.0764
  213SOL     OW  637   1.316   0.082   2.385  0.0333  0.9728 -0.1621
  213SOL    HW1  638   1.390   0.121   2.324  2.7272  1.2930  0.7440
  213SOL    HW2  639   1.347   0.094   2.483  0.6356 -0.6453  0.0827
  214SOL     OW  640   1.425   1.610   2.056 -0.5173  0.0913  0.2434
  214SOL    HW1  641   1.498   1.629   2.125  3.3787  1.1369  1.1973
  214SOL    HW2  642   1.329   1.590   2.095 -1.9333  0.9218 -0.0833
  215SOL     OW  643   0.693   1.796   0.200 -0.3933  0.1301 -0.5900
  215SOL    HW1  644   0.743   1.880   0.168  1.7498 -1.5081 -3.3571
  215SOL    HW2  645   0.694   1.783   0.304 -1.5303  0.8360  0.9613
  216SOL     OW  646   0.401   2.872   2.171  0.0114  0.1091  0.0727
  216SOL    HW1  647   0.472   2.944   2.164 -0.8230 -1.4073 -2.6234
  216SOL    HW2  648   0.313   2.920   2.184  2.9034  0.4898 -0.1564
  217SOL     OW  649   2.338   1.078   0.769 -0.2529  0.5021  0.0821
  217SOL    HW1  650   2.408   1.153   0.755  2.1144 -1.8048  1.3673
  217SOL    HW2  651   2.259   1.093   0.709 -0.4290  0.3954 -0.6747
  218SOL     OW  652   1.810   1.708   1.689 -0.0886 -0.0463 -0.2300
  218SOL    HW1  653   1.833   1.720   1.787 -0.4329 -1.8679  3.2108
  218SOL    HW2  654   1.882   1.660   1.637 -0.2280 -4.7196  1.7689
  219SOL     OW  655   1.773   1.161   2.852 -0.5689  0.1350 -0.4374
  219SOL    HW1  656   1.754   1.134   2.759 -0.3076  0.5110  3.6513
  219SOL    HW2  657   1.699   1.225   2.877  1.5860 -1.6831  0.5655
  220SOL     OW  658   1.573   1.551   1.035 -0.2111 -0.3015 -0.0568
  220SOL    HW1  659   1.535   1.638   1.063  1.0115 -4.0769 -4.1549
  220SOL    HW2  660   1.615   1.548   0.942 -2.6486  0.5985  2.3603
  221SOL     OW  661   0.828   0.622   2.967 -0.1318  0.3847  0.1795
  221SOL    HW1  662   0.857   0.699   2.910  0.5894 -0.8359 -0.7902
  221SOL    HW2  663   0.730   0.610   2.958  1.6801  2.4176 -1.6885
  222SOL     OW  664   0.806   1.381   0.855 -0.3369 -0.2049  0.1891
  222SOL    HW1  665   0.839   1.362   0.759  2.6533 -1.0842 -0.0666
  222SOL    HW2  666   0.711   1.359   0.868  6.1630  4.4758 -0.5415
  223SOL     OW  667   0.939   2.790   2.817 -0.9218 -0.5795 -0.3231
  223SOL    HW1  668   1.019   2.825   2.761  1.3863  0.9573 -1.5266
  223SOL    HW2  669   0.896   2.863   2.869  1.6627 -1.1517  1.0448
  224SOL     OW  670   2.368   0.251   1.297 -0.3322 -0.0991  0.2409
  224SOL    HW1  671   2.294   0.257   1.367  1.1191 -1.0886 -1.3820
  224SOL    HW2  672   2.364   0.154   1.262  0.0433 -0.7869  0.5306
  225SOL     OW  673   0.767   0.460   1.545  0.2420  0.1915 -0.1844
  225SOL    HW1  674   0.770   0.524   1.466  1.9526  0.1083 -1.8084
  225SOL    HW2  675   0.860   0.440   1.572 -1.4050 -1.6006 -1.6529
  226SOL     OW  676   1.506   1.539   2.788  0.1555  0.1898  0.4082
  226SOL    HW1  677   1.511   1.484   2.703  0.7661  0.7898 -0.2998
  226SOL    HW2  678   1.435   1.612   2.784 -2.6184  2.8774  0.7218
  227SOL     OW  679   1.209   1.767   1.276 -0.0214 -0.2500  0.4695
  227SOL    HW1  680   1.240   1.689   1.333 -0.7097 -2.1893  1.4954
  227SOL    HW2  681   1.133   1.819   1.324  0.4914  0.8104 -0.8505
  228SOL     OW  682   0.450   1.663   0.655  0.1699 -0.4587 -0.0078
  228SOL    HW1  683   0.348   1.653   0.652 -1.2270  0.4290 -0.2361
  228SOL    HW2  684   0.486   1.661   0.747 -1.6710  0.5239 -1.1026
  229SOL     OW  685   1.161   0.261   0.050  0.1793  0.1425 -0.1046
  229SOL    HW1  686   1.137   0.354   0.009  2.2452  3.5422 -1.2706
  229SOL    HW2  687   1.251   0.230   0.008  2.8516  0.0285 -0.9456
  230SOL     OW  688   1.104   0.754   2.181  0.9834  0.9806  0.1877
  230SOL    HW1  689   1.043   0.675   2.170  2.8716 -0.9075  0.2732
  230SOL    HW2  690   1.201   0.726   2.183  3.6084  0.7422  0.6423
  231SOL     OW  691   0.881   1.940   2.327 -0.6299 -0.7978 -0.1200
  231SOL    HW1  692   0.932   1.936   2.417  1.0073 -1.6465 -2.8742
  231SOL    HW2  693   0.940   1.980   2.252 -0.2803  2.8136 -2.7189
  232SOL     OW  694   2.457   1.959   0.992 -0.2398 -0.0423 -0.3439
  232SOL    HW1  695   2.535   1.946   0.927  0.9690  1.4350 -0.2385
  232SOL    HW2  696   2.487   1.967   1.091  1.8399  0.5476  1.5341
  233SOL     OW  697   2.227   2.818   0.135  0.0556 -0.5100  0.0429
  233SOL    HW1  698   2.203   2.913   0.108  0.5404  0.4955 -0.3044
  233SOL    HW2  699   2.254   2.767   0.054  0.2043  2.2140  2.5378
  234SOL     OW  700   0.893   0.180   2.764 -0.3374  0.0644  0.1769
  234SOL    HW1  701   0.824   0.247   2.791 -0.1933  2.1872  0.2775
  234SOL    HW2  702   0.867   0.084   2.787 -2.2409  4.2282 -1.2080
  235SOL     OW  703   2.373   2.961   2.898  0.4102  0.3187 -0.5605
  235SOL    HW1  704   2.441   3.027   2.929  0.2594 -1.5680 -2.2776
  235SOL    HW2  705   2.427   2.877   2.872  1.4237  1.7242  0.3513
  236SOL     OW  706   2.146   2.420   2.349 -0.1538  0.2340  0.0096
  236SOL    HW1  707   2.229   2.460   2.399  1.0478 -1.0035  3.9722
  236SOL    HW2  708   2.097   2.355   2.410  0.6887 -1.9786 -1.5506
  237SOL     OW  709   0.912   1.428   2.067 -0.4890  0.2834 -0.3624
  237SOL    HW1  710   0.947   1.469   1.982  4.2893 -1.9171  1.1736
  237SOL    HW2  711   0.986   1.428   2.134  0.5353  3.4173 -1.8833
  238SOL     OW  712   1.920   0.209   2.450 -0.1312  0.2685  0.2927
  238SOL    HW1  713   1.937   0.114   2.484 -0.0299  0.5831 -0.7982
  238SOL    HW2  714   1.902   0.272   2.524  0.4562 -2.2510 -1.4915
  239SOL     OW  715   0.103   1.847   1.711  0.4782 -0.5086 -0.6055
  239SOL    HW1  716   0.199   1.835   1.727 -0.2842 -2.2743  1.7180
  239SOL    HW2  717   0.051   1.772   1.760 -0.1861 -0.0801  3.9259
  240SOL     OW  718   2.930   2.635   0.614  0.0283 -0.3337 -0.3293
  240SOL    HW1  719   2.956   2.535   0.624  0.5730  0.1020 -0.1709
  240SOL    HW2  720   2.916   2.659   0.512 -0.1184  3.0592 -1.9305
  241SOL     OW  721   2.024   1.533   0.553  0.3389  0.2004  0.9235
  241SOL    HW1  722   2.051   1.534   0.452 -1.7518 -1.0016 -0.2444
  241SOL    HW2  723   2.025   1.439   0.582 -1.5623 -0.3657 -2.9230
  242SOL     OW  724   1.342   1.748   2.712 -0.1614 -0.0841  0.0505
  242SOL    HW1  725   1.269   1.675   2.706  1.1432  0.7927 -1.0127
  242SOL    HW2  726   1.312   1.836   2.755 -1.3546 -0.7811  0.7363
  243SOL     OW  727   0.571   2.562   2.116 -0.1679  0.6032 -0.5612
  243SOL    HW1  728   0.508   2.590   2.187 -1.3252 -1.8686 -0.0397
  243SOL    HW2  729   0.639   2.630   2.092 -0.8623 -1.4801  0.0910
  244SOL     OW  730   2.147   0.050   2.710 -0.6133 -0.0911 -0.2689
  244SOL    HW1  731   2.086   0.007   2.640 -1.4755  0.6015 -0.0702
  244SOL    HW2  732   2.217   3.055   2.746 -1.6702 -0.2608 -0.7163
  245SOL     OW  733   1.401   2.830   0.799  0.3284 -0.3056 -0.0286
  245SOL    HW1  734   1.343   2.907   0.839 -2.1972  4.0686  3.5381
  245SOL    HW2  735   1.338   2.753   0.773 -0.3539 -2.9833  1.6133
  246SOL     OW  736   1.587   2.575   0.204  0.2082 -0.3842  0.3866
  246SOL    HW1  737   1.666   2.573   0.271  2.2227  0.1471  1.6901
  246SOL    HW2  738   1.622   2.582   0.107 -0.7813  0.9894 -0.8123
  247SOL     OW  739   0.929   0.564   2.179 -0.0349  0.2778 -0.3235
  247SOL    HW1  740   0.847   0.625   2.201  0.7332  1.0343 -1.9131
  247SOL    HW2  741   0.894   0.503   2.102 -0.7416 -1.5226 -0.4733
  248SOL     OW  742   0.518   1.603   2.091  0.3367 -0.3304 -0.1217
  248SOL    HW1  743   0.571   1.520   2.111  0.6602  0.6966  0.1625
  248SOL    HW2  744   0.559   1.666   2.023 -2.6819 -1.1352  0.5469
  249SOL     OW  745   2.266   0.561   0.283  0.0842 -0.2057 -0.0733
  249SOL    HW1  746   2.248   0.489   0.215 -1.9501  0.3161 -2.5476
  249SOL    HW2  747   2.220   0.547   0.373  1.7469 -2.5767 -1.7960
  250SOL     OW  748   0.749   3.064   0.862  0.0489  0.3340  0.1964
  250SOL    HW1  749   0.706   2.970   0.862 -0.9395  2.7006  1.1291
  250SOL    HW2  750   0.715   0.046   0.777  1.0591 -0.2356 -1.7813
  251SOL     OW  751   1.588   0.302   2.724 -0.5586 -0.7512  0.0512
  251SOL    HW1  752   1.633   0.374   2.666 -3.2957 -0.7639 -2.6664
  251SOL    HW2  753   1.607   0.211   2.686  1.1423  2.4322 -3.2456
  252SOL     OW  754   1.892   1.707   1.955  0.1208  0.3332  0.3064
  252SOL    HW1  755   1.859   1.613   1.957  2.2073  0.4770  2.2808
  252SOL    HW2  756   1.846   1.767   2.023 -0.7606 -1.7589 -1.1758
  253SOL     OW  757   2.566   2.373   1.705  0.1332  0.1130 -0.2274
  253SOL    HW1  758   2.596   2.436   1.782 -2.4382 -0.3500  2.5453
  253SOL    HW2  759   2.630   2.376   1.623  1.9840 -2.0007 -3.1561
  254SOL     OW  760   0.099   1.352   1.209 -0.0610 -0.0868 -0.6478
  254SOL    HW1  761   0.056   1.264   1.176  1.0865 -0.4602  1.1926
  254SOL    HW2  762   0.037   1.415   1.264 -1.5850  2.5158  1.0158
  255SOL     OW  763   0.658   0.798   1.394  0.8800 -0.2138  0.1101
  255SOL    HW1  764   0.584   0.830   1.330  2.9491  1.2551  1.9254
  255SOL    HW2  765   0.625   0.771   1.488 -0.7421 -0.0792  1.6832
  256SOL     OW  766   2.045   2.474   1.669  0.1127  0.2193 -0.4093
  256SOL    HW1  767   2.029   2.560   1.723 -0.2646 -0.0800  1.0645
  256SOL    HW2  768   2.035   2.389   1.728  0.9781 -1.0306  0.6938
  257SOL     OW  769   0.562   2.573   2.844 -0.1262  0.4693 -0.2483
  257SOL    HW1  770   0.659   2.555   2.858 -0.6067 -0.5334  2.9458
  257SOL    HW2  771   0.525   2.510   2.776 -1.6728  0.1024  0.4405
  258SOL     OW  772   0.722   2.528   0.280  0.3888  0.1038 -0.1420
  258SOL    HW1  773   0.622   2.506   0.300  1.7375 -0.2878  1.8663
  258SOL    HW2  774   0.735   2.617   0.229 -0.3307 -0.3378 -0.6440
  259SOL     OW  775   1.032   0.211   2.202 -0.0178  0.3078  0.2393
  259SOL    HW1  776   1.037   0.215   2.303  0.7085 -1.1750 -0.8699
  259SOL    HW2  777   1.127   0.226   2.156  3.1809 -0.9759 -0.7201
  260SOL     OW  778   1.638   0.578   1.064  0.1639 -0.4386 -0.4468
  260SOL    HW1  779   1.671   0.485   1.090  1.8799  1.9416  0.7561
  260SOL    HW2  780   1.597   0.628   1.143  0.3244 -0.7051  3.3660
  261SOL     OW  781   0.608   0.521   2.582  0.5282  0.2688 -0.0878
  261SOL    HW1  782   0.541   0.465   2.632  2.6232  0.5660 -2.5437
  261SOL    HW2  783   0.703   0.497   2.604  1.0897 -3.0483 -2.2213
  262SOL     OW  784   0.070   2.371   2.029 -0.1541  0.3254  0.0046
  262SOL    HW1  785   0.041   2.450   2.086  0.5323 -3.6089  0.9317
  262SOL    HW2  786   0.091   2.288   2.086  3.1867  0.9302  1.1706
  263SOL     OW  787   3.023   1.574   2.299  0.4472 -0.2388  0.3023
  263SOL    HW1  788   3.054   1.594   2.198  2.9100  0.5035 -1.9225
  263SOL    HW2  789   0.001   1.492   2.334  0.6067 -1.0372  0.1207
  264SOL     OW  790   0.391   0.959   0.870 -0.1203  0.2959  0.1707
  264SOL    HW1  791   0.377   1.040   0.815  2.6341 -3.6203  1.1866
  264SOL    HW2  792   0.332   0.961   0.955 -0.2181 -1.1303 -0.1764
  265SOL     OW  793   1.318   2.388   0.957  0.1259  0.1497 -0.7586
  265SOL    HW1  794   1.242   2.390   0.887  1.8238 -1.6480  1.1443
  265SOL    HW2  795   1.321   2.296   1.000 -0.2218 -1.9689 -1.2399
  266SOL     OW  796   1.625   0.912   1.049 -0.7047 -0.3979 -0.8365
  266SOL    HW1  797   1.585   0.876   1.135  0.7140  1.5434  0.1489
  266SOL    HW2  798   1.640   1.015   1.052  0.6586  1.7851  1.3546
  267SOL     OW  799   2.712   1.163   3.066  0.4530  0.6242 -0.3791
  267SOL    HW1  800   2.773   1.116   0.062 -0.7182  0.7671 -1.1512
  267SOL    HW2  801   2.632   1.107   3.042 -0.5579  1.3159  0.5734
  268SOL     OW  802   1.564   0.319   0.319  0.3581  0.4524 -0.1014
  268SOL    HW1  803   1.615   0.357   0.397 -0.3494  0.6820  3.2572
  268SOL    HW2  804   1.507   0.389   0.272  1.6823  1.4142 -1.1818
  269SOL     OW  805   1.980   0.697   2.826  0.1202  0.1166  0.1884
  269SOL    HW1  806   1.996   0.791   2.860 -2.4599  1.6433 -1.1265
  269SOL    HW2  807   1.894   0.666   2.868  1.9958  2.4648  0.5462
  270SOL     OW  808   0.010   0.931   3.043 -0.1703  0.5752 -0.4731
  270SOL    HW1  809   3.062   0.982   2.957  0.5068 -1.8559  0.2443
  270SOL    HW2  810   0.093   0.873   3.034  2.9213 -1.8214  0.2142
  271SOL     OW  811   2.677   0.848   0.239  0.2208 -0.2005 -1.0430
  271SOL    HW1  812   2.696   0.905   0.324  0.3691 -0.4500  0.2597
  271SOL    HW2  813   2.764   0.800   0.207  2.4511 -1.6886  2.3756
  272SOL     OW  814   3.021   2.516   0.110  0.1329 -0.0406  0.4384
  272SOL    HW1  815   2.955   2.542   0.039 -1.6688 -0.5793  5.0282
  272SOL    HW2  816   3.037   2.415   0.105 -1.0835 -0.3152 -2.1812
  273SOL     OW  817   2.502   2.837   0.222  0.0717  0.2243 -0.2579
  273SOL    HW1  818   2.529   2.875   0.310  0.1932  0.8697 -0.4749
  273SOL    HW2  819   2.407   2.794   0.222  1.0170  0.1465 -4.3075
  274SOL     OW  820   0.593   2.387   1.035 -0.3298 -0.0929  0.0202
  274SOL    HW1  821   0.642   2.474   1.012 -0.4955  1.4069  0.5746
  274SOL    HW2  822   0.594   2.329   0.952  1.0848  1.6689  0.2493
  275SOL     OW  823   2.740   1.607   0.351 -0.0546  0.0869 -0.1023
  275SOL    HW1  824   2.814   1.551   0.307  0.8142  0.6408  0.0476
  275SOL    HW2  825   2.678   1.639   0.279 -2.0483 -2.5372  3.0874
  276SOL     OW  826   2.964   1.135   2.020 -0.0444 -0.2915 -0.3230
  276SOL    HW1  827   2.864   1.145   2.026 -3.1337  0.2829  1.0389
  276SOL    HW2  828   2.995   1.106   1.926 -1.1072 -0.5833 -0.8487
  277SOL     OW  829   2.336   3.016   1.216  0.3190  0.1381 -0.1379
  277SOL    HW1  830   2.321   2.919   1.177  0.1832 -1.3239  1.8739
  277SOL    HW2  831   2.252   0.002   1.189 -1.0870  2.0240  2.1819
  278SOL     OW  832   1.348   2.413   2.129  0.0815 -0.0863  0.9062
  278SOL    HW1  833   1.329   2.491   2.069  1.8031 -0.8504 -1.2122
  278SOL    HW2  834   1.315   2.442   2.222  1.2940 -2.1709 -1.5478
  279SOL     OW  835   1.624   1.747   0.456 -0.1472 -0.3910  0.4521
  279SOL    HW1  836   1.667   1.664   0.416 -0.8528  0.5544  1.8712
  279SOL    HW2  837   1.550   1.782   0.398  1.0814  1.5505  1.0211
  280SOL     OW  838   0.289   1.559   1.191  0.0535  0.1023 -0.1913
  280SOL    HW1  839   0.247   1.616   1.119 -2.6420  0.8149  3.1972
  280SOL    HW2  840   0.253   1.466   1.189  1.1851 -0.0751  0.5395
  281SOL     OW  841   3.005   0.907   2.404  0.4389 -0.4963 -0.1808
  281SOL    HW1  842   3.018   0.809   2.388 -1.3581  1.2492  1.5226
  281SOL    HW2  843   0.002   0.940   2.475 -2.4767  0.4386  2.8555
  282SOL     OW  844   0.825   1.283   0.585  0.1324 -0.0646 -1.1811
  282SOL    HW1  845   0.730   1.312   0.616  1.6463 -0.8243  0.1356
  282SOL    HW2  846   0.834   1.181   0.583  1.0575 -1.9241 -3.1663
  283SOL     OW  847   2.084   2.137   0.222 -0.2226 -0.0437  0.2144
  283SOL    HW1  848   2.045   2.232   0.222  0.3368  0.3190 -3.2105
  283SOL    HW2  849   2.033   2.081   0.289  0.8764 -1.6787  0.2688
  284SOL     OW  850   1.012   0.164   0.290  0.4351  0.0407  0.0360
  284SOL    HW1  851   1.038   0.174   0.194  1.0249  2.1061  1.7721
  284SOL    HW2  852   0.912   0.184   0.300 -1.0889 -0.3532 -1.5244
  285SOL     OW  853   2.117   1.101   2.828 -0.1046 -0.3242  0.3173
  285SOL    HW1  854   2.183   1.022   2.832 -0.4727 -1.0620 -2.6826
  285SOL    HW2  855   2.167   1.191   2.839 -0.7623 -1.1038 -1.1826
  286SOL     OW  856   2.011   2.250   1.173 -0.2385  0.0922 -0.2010
  286SOL    HW1  857   1.922   2.241   1.126  0.6984 -0.9012  1.5468
  286SOL    HW2  858   2.003   2.218   1.272 -2.0602  0.5663  3.7966
  287SOL     OW  859   1.091   0.620   0.649 -0.5996  0.3547 -0.0994
  287SOL    HW1  860   1.100   0.529   0.607  0.6106  0.3892  0.3705
  287SOL    HW2  861   1.182   0.645   0.686  0.4242 -1.0760 -0.7143
  288SOL     OW  862   1.133   2.299   2.818 -0.0178  0.2523 -1.1162
  288SOL    HW1  863   1.047   2.255   2.851 -0.1800 -0.3528 -0.0210
  288SOL    HW2  864   1.212   2.310   2.886  1.0912  2.3063 -0.1534
  289SOL     OW  865   3.040   1.468   1.467 -0.2680 -0.3378  0.5884
  289SOL    HW1  866   0.029   1.548   1.460 -2.1121 -3.6753  2.0362
  289SOL    HW2  867   0.023   1.400   1.526 -2.0620  1.5546 -1.8446
  290SOL     OW  868   1.472   2.108   0.910 -0.1535 -0.1474 -0.3652
  290SOL    HW1  869   1.434   2.168   0.984 -3.1891  2.9112 -1.7084
  290SOL    HW2  870   1.557   2.054   0.927 -1.0492  0.2783  0.7377
  291SOL     OW  871   1.783   2.964   2.959  0.0268 -0.3927 -0.4320
  291SOL    HW1  872   1.822   3.058   2.978  1.4438 -0.6569  0.5610
  291SOL    HW2  873   1.820   2.905   3.032 -2.5461 -1.4636 -1.2066
  292SOL     OW  874   0.854   0.402   1.965  0.3367  0.6739 -0.3671
  292SOL    HW1  875   0.886   0.321   1.905  1.6376 -1.3008 -0.0197
  292SOL    HW2  876   0.757   0.389   1.997 -1.2145 -1.3741  1.0496
  293SOL     OW  877   2.295   2.474   0.768  0.1880  0.0560  0.0623
  293SOL    HW1  878   2.243   2.428   0.844 -1.8952 -0.7308 -2.7490
  293SOL    HW2  879   2.374   2.413   0.742 -0.3189 -1.9661 -0.6254
  294SOL     OW  880   0.438   0.847   2.334  0.1261 -0.5223 -0.0845
  294SOL    HW1  881   0.363   0.775   2.346 -0.9383 -2.8064  2.1533
  294SOL    HW2  882   0.425   0.878   2.239 -1.4807 -1.9990  0.2181
  295SOL     OW  883   1.666   1.429   0.792  0.4695  0.5432 -0.0918
  295SOL    HW1  884   1.727   1.357   0.839  1.1632 -0.2205 -0.0299
  295SOL    HW2  885   1.723   1.503   0.763  0.1559 -1.0599 -0.1780
  296SOL     OW  886   2.574   1.706   0.168 -0.5865  0.1523  0.3667
  296SOL    HW1  887   2.475   1.730   0.170 -1.9908 -1.9320  0.4643
  296SOL    HW2  888   2.633   1.781   0.133  2.3921  1.1613 -0.2722
  297SOL     OW  889   1.834   2.998   0.297  0.5178  0.4653  0.0753
  297SOL    HW1  890   1.786   3.059   0.235  1.7836 -3.0081  0.5374
  297SOL    HW2  891   1.923   3.037   0.325 -2.1299  1.3662 -0.4688
  298SOL     OW  892   0.835   2.559   2.688 -0.2777  0.2542 -0.1609
  298SOL    HW1  893   0.916   2.498   2.679  1.2647 -1.0092  2.5912
  298SOL    HW2  894   0.860   2.652   2.713 -2.4126 -0.4837 -0.2555
  299SOL     OW  895   1.235   2.167   2.116  0.4844 -0.6000 -0.7531
  299SOL    HW1  896   1.277   2.128   2.029 -1.0978  0.7845 -2.0857
  299SOL    HW2  897   1.274   2.263   2.136  1.7854  3.4369 -2.1430
  300SOL     OW  898   2.562   0.114   2.853  0.3418  0.1645 -0.6503
  300SOL    HW1  899   2.606   0.155   2.935  1.0444 -0.7480  0.2711
  300SOL    HW2  900   2.475   0.158   2.826  0.0059 -0.8066 -0.9284
  301SOL     OW  901   1.070   1.260   1.819  0.2234 -0.1354  0.2670
  301SOL    HW1  902   1.059   1.365   1.812 -2.0202  0.1384  1.2791
  301SOL    HW2  903   1.143   1.229   1.885 -1.5221  1.0685  2.4282
  302SOL     OW  904   2.661   2.542   0.408 -1.1029  0.3673  0.1944
  302SOL    HW1  905   2.628   2.615   0.474 -2.1891 -1.6707  2.7504
  302SOL    HW2  906   2.755   2.562   0.366  3.2325 -0.0481 -2.2777
  303SOL     OW  907   2.569   2.392   2.049  0.3700 -0.5915 -0.1712
  303SOL    HW1  908   2.588   2.432   2.142  2.5508  1.0124  1.4032
  303SOL    HW2  909   2.631   2.312   2.031 -2.1364  2.3389 -2.1677
  304SOL     OW  910   3.008   0.733   1.871 -0.0934 -0.1399  0.6189
  304SOL    HW1  911   2.985   0.634   1.879 -2.3837  1.7370 -1.9208
  304SOL    HW2  912   2.941   0.778   1.812 -1.2225 -2.1269 -1.9624
  305SOL     OW  913   0.509   1.626   1.423  0.2542  0.6340 -0.0486
  305SOL    HW1  914   0.506   1.530   1.385 -1.3331 -2.1264 -0.0751
  305SOL    HW2  915   0.491   1.692   1.344  0.5505  0.1431  1.9799
  306SOL     OW  916   0.117   1.349   1.853 -0.8292 -0.1332 -0.4898
  306SOL    HW1  917   0.178   1.429   1.879  1.0749  1.6209 -0.6479
  306SOL    HW2  918   0.118   1.270   1.919 -1.7931 -0.8049  2.0536
  307SOL     OW  919   0.843   1.118   1.936 -0.2991 -0.3565  0.1820
  307SOL    HW1  920   0.903   1.182   1.889 -2.7703 -0.4744  1.5414
  307SOL    HW2  921   0.904   1.043   1.970 -0.3620  1.8140 -2.1599
  308SOL     OW  922   3.031   1.131   1.139 -0.2103  0.2488  0.0839
  308SOL    HW1  923   3.040   1.049   1.077  0.2838  2.4880  2.1571
  308SOL    HW2  924   3.048   1.101   1.238 -0.5749  1.2119  2.0894
  309SOL     OW  925   2.446   1.110   1.141  0.1913 -0.0528 -0.0925
  309SOL    HW1  926   2.485   1.202   1.166  0.9826 -2.0660  0.2318
  309SOL    HW2  927   2.521   1.045   1.146  0.4418 -1.8155 -3.4039
  310SOL     OW  928   2.708   2.243   2.638  0.3580  0.3192  0.1926
  310SOL    HW1  929   2.749   2.149   2.640  0.3955  1.3713  0.3252
  310SOL    HW2  930   2.606   2.227   2.631 -2.3989  0.3361  1.2122
  311SOL     OW  931   2.665   2.776   2.628  0.6724 -0.1183 -0.0529
  311SOL    HW1  932   2.734   2.841   2.666 -0.7783 -1.7490 -1.4973
  311SOL    HW2  933   2.595   2.827   2.571  0.8925 -1.8232  0.4297
  312SOL     OW  934   2.311   1.783   0.172  0.1760  0.4918 -0.0439
  312SOL    HW1  935   2.339   1.882   0.163 -1.2000  0.1665  0.0397
  312SOL    HW2  936   2.234   1.754   0.116  0.3232 -0.9229  1.4320
  313SOL     OW  937   2.579   2.944   0.475  0.5745 -0.0134  0.2296
  313SOL    HW1  938   2.564   2.849   0.512  0.4622  1.3975 -0.4994
  313SOL    HW2  939   2.668   2.971   0.521  2.4920  0.0256  1.0655
  314SOL     OW  940   1.631   1.171   0.258 -0.0691 -0.2995  0.4607
  314SOL    HW1  941   1.566   1.099   0.241  1.3105 -0.6887 -0.1388
  314SOL    HW2  942   1.585   1.259   0.264  2.1967 -0.9416  0.6867
  315SOL     OW  943   1.360   2.952   2.018  0.2371  0.2201 -0.0562
  315SOL    HW1  944   1.262   2.973   2.003 -1.1032 -1.8172 -1.1825
  315SOL    HW2  945   1.418   3.009   1.958 -1.6094  1.3783 -0.3088
  316SOL     OW  946   2.651   0.682   2.979 -0.2099 -0.1472 -0.4732
  316SOL    HW1  947   2.747   0.644   2.981  3.3956  0.8297 -0.7037
  316SOL    HW2  948   2.592   0.628   3.037  1.7423  2.1222 -1.1211
  317SOL     OW  949   0.458   2.963   0.053  0.6828  0.1054 -0.5778
  317SOL    HW1  950   0.411   2.912   0.127  1.8015 -2.2262 -1.5887
  317SOL    HW2  951   0.441   2.938   3.023 -2.6735  0.0806  3.2623
  318SOL     OW  952   2.269   2.738   0.813  0.0494 -0.4413 -0.4107
  318SOL    HW1  953   2.283   2.638   0.798  0.0039 -0.8088  2.9688
  318SOL    HW2  954   2.195   2.775   0.754  2.5469 -2.7386  1.9138
  319SOL     OW  955   0.964   1.918   2.847 -0.6531  0.2545 -0.2912
  319SOL    HW1  956   0.909   1.987   2.895  0.2855 -3.5249 -2.5268
  319SOL    HW2  957   0.969   1.833   2.901  0.3898  2.5035  0.6127
  320SOL     OW  958   0.439   2.078   1.883  0.2123 -0.5077  0.2106
  320SOL    HW1  959   0.372   2.157   1.881 -1.9846 -0.6105 -2.3341
  320SOL    HW2  960   0.445   2.032   1.977 -0.5868  0.8095 -0.8469
  321SOL     OW  961   1.183   2.915   2.352  0.0919  0.5292  0.5445
  321SOL    HW1  962   1.239   3.002   2.352 -1.6483  2.8278  1.5607
  321SOL    HW2  963   1.163   2.880   2.446  0.2917  1.1130  2.4919
  322SOL     OW  964   2.783   1.450   2.156 -0.2571 -0.2659  0.1514
  322SOL    HW1  965   2.867   1.482   2.199 -1.8424  1.1118 -1.3029
  322SOL    HW2  966   2.698   1.492   2.191 -1.6023 -1.5320 -0.8403
  323SOL     OW  967   2.204   1.068   1.048  0.2101 -0.1829  0.2361
  323SOL    HW1  968   2.197   0.973   1.013 -1.7092  0.9992  4.3139
  323SOL    HW2  969   2.304   1.092   1.052 -1.2821 -0.0464 -1.8236
  324SOL     OW  970   2.705   0.046   2.345 -0.1167  0.0098  0.5395
  324SOL    HW1  971   2.605   0.037   2.342  3.4271  4.4989  0.7456
  324SOL    HW2  972   2.733   0.067   2.440  0.1609  1.5759  0.9922
  325SOL     OW  973   1.133   0.717   2.557  0.3627  0.0525  0.3191
  325SOL    HW1  974   1.129   0.629   2.497  1.9167 -2.2668 -2.5640
  325SOL    HW2  975   1.049   0.772   2.549 -1.6793  1.5650  1.3417
  326SOL     OW  976   1.783   2.784   1.853 -0.5542 -0.3362  0.2152
  326SOL    HW1  977   1.749   2.845   1.778  0.3298  1.2901  0.3401
  326SOL    HW2  978   1.873   2.746   1.827 -1.1239  1.9007 -0.8214
  327SOL     OW  979   1.990   0.353   0.251 -0.2001 -0.3027 -0.3663
  327SOL    HW1  980   2.000   0.422   0.328 -0.0638  0.1968  1.2142
  327SOL    HW2  981   2.079   0.338   0.201 -0.2956 -0.4199 -1.4029
  328SOL     OW  982   0.240   1.511   2.594 -0.4368  0.7072 -0.1060
  328SOL    HW1  983   0.226   1.452   2.510  0.3505  1.1524  0.2985
  328SOL    HW2  984   0.153   1.505   2.652 -1.2209  1.9181  1.9262
  329SOL     OW  985   2.142   0.042   1.866  0.0537  0.3119  0.0824
  329SOL    HW1  986   2.090   0.005   1.788 -0.6568  1.2198  0.2288
  329SOL    HW2  987   2.234   0.004   1.879 -1.3137  0.4719  0.3591
  330SOL     OW  988   0.086   1.264   0.759  0.0000  0.3456  0.2532
  330SOL    HW1  989   0.075   1.356   0.807  1.1543  0.8208  1.1810
  330SOL    HW2  990   0.027   1.248   0.681  0.7123 -1.4831 -0.5856
  331SOL     OW  991   0.328   1.780   2.531  0.1894  0.1671  0.1500
  331SOL    HW1  992   0.287   1.698   2.573 -2.9207  0.5404 -1.0357
  331SOL    HW2  993   0.404   1.744   2.472  2.8324 -0.7150  0.6311
  332SOL     OW  994   0.009   3.014   1.522  0.5481 -0.0556  0.5916
  332SOL    HW1  995   0.000   2.914   1.503 -1.7017 -1.4337  3.9371
  332SOL    HW2  996   2.983   3.057   1.520 -2.4645  0.2876  0.1115
  333SOL     OW  997   2.245   0.177   0.721  0.0715 -0.0846  0.7326
  333SOL    HW1  998   2.147   0.142   0.708 -0.6611 -0.2243 -0.6041
  333SOL    HW2  999   2.260   0.180   0.820 -3.4123 -0.7725 -0.3168
  334SOL     OW 1000   0.438   2.049   0.714 -0.1990  0.0337  0.3368
  334SOL    HW1 1001   0.517   1.990   0.739 -2.0134 -1.0561  1.5789
  334SOL    HW2 1002   0.452   2.090   0.619 -3.3935  1.3627  0.4362
  335SOL     OW 1003   0.173   2.648   0.170 -0.0984 -0.6305  0.1371
  335SOL    HW1 1004   0.086   2.601   0.154  3.1290 -2.7441 -0.8417
  335SOL    HW2 1005   0.241   2.579   0.189 -0.6543  0.7993  0.5452
  336SOL     OW 1006   0.172   2.986   2.257  0.0356 -0.2314  0.6174
  336SOL    HW1 1007   0.138   2.894   2.282 -1.9203  1.3618 -0.8600
  336SOL    HW2 1008   0.104   3.036   2.200  0.2017  1.7670  1.0748
  337SOL     OW 1009   2.415   2.235   2.619  0.1296 -0.2933 -0.3654
  337SOL    HW1 1010   2.390   2.305   2.553  0.7843  2.3512 -0.2469
  337SOL    HW2 1011   2.399   2.269   2.713 -0.9806 -3.7371 -2.4687
  338SOL     OW 1012   0.746   0.871   0.968  0.0769  0.0897 -0.1089
  338SOL    HW1 1013   0.755   0.789   0.913  1.5642  1.8353  2.5907
  338SOL    HW2 1014   0.669   0.868   1.032 -1.4993  3.7652  0.8722
  339SOL     OW 1015   0.185   0.819   1.976  0.0185  0.2053  0.9298
  339SOL    HW1 1016   0.155   0.877   2.054  1.1101 -0.8073  0.1637
  339SOL    HW2 1017   0.104   0.802   1.916  0.0168  2.8389  4.4163
  340SOL     OW 1018   1.685   2.830   0.499 -0.2297 -0.2338 -0.6691
  340SOL    HW1 1019   1.690   2.853   0.601 -0.5036  0.8690 -1.1998
  340SOL    HW2 1020   1.730   2.903   0.442 -3.8343  0.6503  2.2867
  341SOL     OW 1021   1.954   0.912   1.008 -1.3489  0.5757  0.0833
  341SOL    HW1 1022   1.882   0.944   0.946  2.0395 -0.4336  1.8240
  341SOL    HW2 1023   2.034   0.977   1.010  0.7710  1.0046 -2.0009
  342SOL     OW 1024   2.315   2.636   2.984 -0.0695 -0.0139  0.0939
  342SOL    HW1 1025   2.375   2.651   2.904 -1.8931  0.3627  0.4926
  342SOL    HW2 1026   2.356   2.563   3.046 -1.3741 -0.2250 -1.4210
  343SOL     OW 1027   1.388   2.041   1.896 -0.4153  0.3218 -0.1394
  343SOL    HW1 1028   1.412   2.090   1.815  0.3134  0.3037 -1.4120
  343SOL    HW2 1029   1.319   1.969   1.875  0.5005  2.1447  2.6097
  344SOL     OW 1030   2.474   2.604   1.242 -0.4418 -0.1877  0.4660
  344SOL    HW1 1031   2.408   2.666   1.190 -0.4541 -1.4020 -3.5234
  344SOL    HW2 1032   2.457   2.617   1.345 -3.5539 -1.1074  3.7338
  345SOL     OW 1033   2.697   2.335   3.048 -0.2982 -0.0329  0.0048
  345SOL    HW1 1034   2.721   2.258   2.984  1.7823 -2.0077 -1.3183
  345SOL    HW2 1035   2.713   2.313   0.080  0.7552  0.9069  1.4036
  346SOL     OW 1036   2.764   1.478   0.600  0.2969  0.2132  0.6291
  346SOL    HW1 1037   2.761   1.527   0.511 -1.4568  2.8313 -0.0200
  346SOL    HW2 1038   2.672   1.485   0.641  2.4253  1.3800 -3.3252
  347SOL     OW 1039   1.910   2.134   1.776 -0.0213  0.5123  0.0040
  347SOL    HW1 1040   1.930   2.119   1.877 -1.6807 -2.1866  0.5951
  347SOL    HW2 1041   1.980   2.079   1.726  0.0470 -0.4645 -0.5687
  348SOL     OW 1042   0.664   1.660   2.892  0.0018  0.6994 -0.2660
  348SOL    HW1 1043   0.681   1.678   2.791 -1.9413 -1.0520 -0.1096
  348SOL    HW2 1044   0.751   1.668   2.945  2.3864  1.3122 -0.3352
  349SOL     OW 1045   2.366   1.217   1.423 -0.1940 -0.0926 -0.0408
  349SOL    HW1 1046   2.353   1.318   1.442  1.6677  0.1902 -0.1297
  349SOL    HW2 1047   2.466   1.196   1.426 -0.8089  2.0337  0.4102
  350SOL     OW 1048   2.928   2.478   1.173  0.1802  0.2996 -0.3687
  350SOL    HW1 1049   3.015   2.450   1.215  0.4636  0.2611  0.6553
  350SOL    HW2 1050   2.854   2.407   1.194 -0.2351 -1.7995  0.9181
  351SOL     OW 1051   0.607   0.350   2.098 -0.2559 -0.5167 -0.6847
  351SOL    HW1 1052   0.557   0.406   2.170 -0.0569  0.2007  1.0476
  351SOL    HW2 1053   0.667   0.287   2.145 -1.2418  1.8197  1.2333
  352SOL     OW 1054   0.567   1.627   0.896 -0.1429 -0.3615 -0.1564
  352SOL    HW1 1055   0.573   1.656   0.997 -1.0016 -1.6778  4.4303
  352SOL    HW2 1056   0.576   1.527   0.890  0.7982  0.4431 -0.3048
  353SOL     OW 1057   1.248   1.607   2.326  0.0832  0.5350 -0.1180
  353SOL    HW1 1058   1.244   1.701   2.356  0.8685 -2.1942 -1.7840
  353SOL    HW2 1059   1.185   1.598   2.248  1.5078 -0.2369 -1.7225
  354SOL     OW 1060   1.089   0.261   0.933 -0.1061  0.0112 -0.0093
  354SOL    HW1 1061   1.125   0.182   0.987 -2.1436  0.1068  0.5619
  354SOL    HW2 1062   1.159   0.326   0.895  1.7594 -1.0996 -0.9254
  355SOL     OW 1063   2.695   0.827   0.589  0.6037 -0.3928 -0.0409
  355SOL    HW1 1064   2.708   0.924   0.572  0.2826  0.5926 -1.2119
  355SOL    HW2 1065   2.602   0.801   0.558  2.5512  0.5364  2.0450
  356SOL     OW 1066   2.408   1.793   2.356 -0.6141  0.3623 -0.1459
  356SOL    HW1 1067   2.344   1.750   2.424 -0.9811  0.5118  1.0920
  356SOL    HW2 1068   2.464   1.863   2.401  1.1963 -1.6396 -0.7596
  357SOL     OW 1069   0.620   2.739   1.589 -0.0825 -0.8207  0.2301
  357SOL    HW1 1070   0.529   2.788   1.573  1.5146  1.5221 -0.2967
  357SOL    HW2 1071   0.702   2.792   1.565  0.3527  0.9851 -0.1628
  358SOL     OW 1072   2.503   0.735   1.369 -0.6370 -0.1081  0.7571
  358SOL    HW1 1073   2.503   0.826   1.320  0.6161 -2.2963  0.7121
  358SOL    HW2 1074   2.564   0.732   1.453 -0.6758 -0.1529  0.8015
  359SOL     OW 1075   2.263   2.756   2.512  0.2757 -0.1574  0.2809
  359SOL    HW1 1076   2.197   2.811   2.453  0.2732  0.7380  2.5976
  359SOL    HW2 1077   2.221   2.730   2.601 -1.7622 -0.5579  0.7925
  360SOL     OW 1078   1.268   0.446   0.847 -0.0829 -0.0553  0.1871
  360SOL    HW1 1079   1.221   0.530   0.881 -0.2826  0.4197  0.8260
  360SOL    HW2 1080   1.367   0.464   0.855 -1.8291 -2.0186 -0.5795
  361SOL     OW 1081   2.123   0.111   1.130  0.6995  0.0267 -0.2508
  361SOL    HW1 1082   2.070   0.120   1.215  0.0238  0.4595 -0.4765
  361SOL    HW2 1083   2.061   0.141   1.052  0.4859  0.9041 -0.3419
  362SOL     OW 1084   1.292   1.245   0.416 -0.1834  0.0746 -0.3950
  362SOL    HW1 1085   1.300   1.282   0.511  0.3599 -1.4368 -1.2739
  362SOL    HW2 1086   1.366   1.289   0.365  0.2626  0.3435  0.4304
  363SOL     OW 1087   2.207   1.620   2.509 -0.4827  0.2542  0.1535
  363SOL    HW1 1088   2.183   1.543   2.564 -1.3684  1.1830 -2.4548
  363SOL    HW2 1089   2.142   1.620   2.429  0.0581  0.6216 -1.2904
  364SOL     OW 1090   0.602   0.287   1.383  0.7424  0.2214  0.2864
  364SOL    HW1 1091   0.688   0.319   1.426  0.5797 -1.0396 -3.5469
  364SOL    HW2 1092   0.592   0.184   1.387 -1.8665 -2.2593 -3.0962
  365SOL     OW 1093   0.322   2.862   0.255 -0.2915  0.0621  0.1732
  365SOL    HW1 1094   0.253   2.792   0.219 -1.9439  0.7867  3.0749
  365SOL    HW2 1095   0.346   2.837   0.351  0.8036 -0.3300  2.3469
  366SOL     OW 1096   2.704   1.789   2.942  0.3446 -0.0485  0.3093
  366SOL    HW1 1097   2.702   1.829   3.034  2.4610  0.1231 -0.2451
  366SOL    HW2 1098   2.802   1.773   2.915  1.6893 -1.6075  1.5748
  367SOL     OW 1099   2.641   2.502   2.524 -0.2999  0.5919 -0.1251
  367SOL    HW1 1100   2.661   2.582   2.583 -0.4059 -0.5594 -1.0847
  367SOL    HW2 1101   2.703   2.423   2.549  0.8542 -0.5318  1.0458
  368SOL     OW 1102   0.173   1.726   1.016  0.4551 -0.2185  0.6797
  368SOL    HW1 1103   0.123   1.769   1.098  1.6473  2.0727  1.6718
  368SOL    HW2 1104   0.197   1.801   0.946  0.0433  1.5027  0.3321
  369SOL     OW 1105   0.966   2.646   3.042  0.5461 -0.7082  0.9509
  369SOL    HW1 1106   0.948   2.670   2.942 -0.3196  0.0955  1.8327
  369SOL    HW2 1107   1.063   2.615   3.059  3.4434  2.4787  2.7680
  370SOL     OW 1108   0.264   0.845   0.624  0.4553 -0.0742 -0.2735
  370SOL    HW1 1109   0.329   0.859   0.704  0.6586 -0.6799  3.1273
  370SOL    HW2 1110   0.289   0.905   0.542 -2.2953  0.4713 -1.0491
  371SOL     OW 1111   1.842   2.643   0.875 -0.0939  0.5531 -0.5508
  371SOL    HW1 1112   1.798   2.733   0.857  0.1165  1.3036 -1.4419
  371SOL    HW2 1113   1.793   2.569   0.828 -1.1738 -0.5424  0.2650
  372SOL     OW 1114   0.114   0.977   2.578 -0.1519  0.1157 -0.0422
  372SOL    HW1 1115   0.197   1.015   2.536 -0.2745 -0.0414  2.3209
  372SOL    HW2 1116   0.136   0.908   2.653 -0.9354  4.0975 -1.4979
  373SOL     OW 1117   2.891   1.885   0.757 -0.7312 -0.1099  0.6126
  373SOL    HW1 1118   2.916   1.978   0.787 -2.1895 -0.1423 -0.1585
  373SOL    HW2 1119   2.923   1.871   0.665  0.2544 -1.1794  2.4920
  374SOL     OW 1120   0.074   2.445   0.391  0.8432  0.1618  0.0265
  374SOL    HW1 1121   0.021   2.429   0.476  1.1464 -0.8614  1.6261
  374SOL    HW2 1122   0.160   2.500   0.405  0.2971 -0.6240  0.9917
  375SOL     OW 1123   0.509   0.560   0.115 -0.4928 -0.3602 -0.0908
  375SOL    HW1 1124   0.582   0.609   0.171  1.3437 -2.0072  0.9163
  375SOL    HW2 1125   0.459   0.503   0.185 -1.9321  1.7451 -1.7299
  376SOL     OW 1126   0.539   2.276   2.190  0.0143 -0.1785 -0.6073
  376SOL    HW1 1127   0.488   2.253   2.108  0.0198  1.0025  0.2172
  376SOL    HW2 1128   0.557   2.375   2.196 -0.2446 -0.6462  0.0423
  377SOL     OW 1129   1.256   2.329   2.420 -0.1745 -0.1615  0.0170
  377SOL    HW1 1130   1.341   2.376   2.450 -0.9939 -0.2190  0.9116
  377SOL    HW2 1131   1.233   2.237   2.463 -0.8920 -1.3991  0.6536
  378SOL     OW 1132   1.053   0.878   0.522  0.0099  0.5846  0.4698
  378SOL    HW1 1133   1.146   0.914   0.539 -2.1640  0.5317 -1.7913
  378SOL    HW2 1134   1.038   0.790   0.569 -1.3455 -0.3490 -2.2265
  379SOL     OW 1135   0.727   1.767   0.450  0.0276  0.2672  0.1781
  379SOL    HW1 1136   0.678   1.714   0.520 -0.8195 -0.3044  0.6504
  379SOL    HW2 1137   0.825   1.774   0.484  1.9569  1.4862  1.7303
  380SOL     OW 1138   0.312   1.920   1.434  0.0164 -0.2623  0.0360
  380SOL    HW1 1139   0.210   1.944   1.427 -2.6793 -0.3984  1.2073
  380SOL    HW2 1140   0.362   1.995   1.487 -0.9106 -0.5530  1.3690
  381SOL     OW 1141   0.417   1.079   1.508  0.0537  0.3215  0.5048
  381SOL    HW1 1142   0.370   1.161   1.539  2.6898 -0.0697  1.9832
  381SOL    HW2 1143   0.518   1.097   1.518 -0.9195  0.6711  1.2384
  382SOL     OW 1144   2.356   2.156   0.503 -0.3068 -0.0372  0.1434
  382SOL    HW1 1145   2.306   2.246   0.497  2.0747  0.6848 -1.3635
  382SOL    HW2 1146   2.412   2.135   0.421 -0.9948 -0.8239 -1.0612
  383SOL     OW 1147   2.736   1.897   2.111 -0.6158  0.4717  0.7689
  383SOL    HW1 1148   2.741   1.987   2.152  1.1446 -2.0158  1.2081
  383SOL    HW2 1149   2.749   1.824   2.179  1.3179 -2.2985 -1.8243
  384SOL     OW 1150   0.141   2.133   2.112  0.0896  0.0963 -0.5162
  384SOL    HW1 1151   0.149   2.029   2.102 -0.4266 -0.6855  0.3893
  384SOL    HW2 1152   0.204   2.182   2.181  0.2444  2.7420  1.6661
  385SOL     OW 1153   2.908   2.266   0.885 -0.0875  0.1060  1.0521
  385SOL    HW1 1154   2.969   2.231   0.960  1.5149 -1.1734 -0.0499
  385SOL    HW2 1155   2.816   2.231   0.904 -0.6379 -1.8205 -0.7961
  386SOL     OW 1156   1.767   0.629   0.701  0.7540 -0.1596 -0.4616
  386SOL    HW1 1157   1.776   0.730   0.711  0.4420 -3.5914  0.2772
  386SOL    HW2 1158   1.676   0.600   0.732  1.6359  0.0192 -0.0863
  387SOL     OW 1159   0.484   0.801   2.039 -0.3168  0.2154  0.0019
  387SOL    HW1 1160   0.383   0.801   2.006 -1.0090 -0.0322  1.1046
  387SOL    HW2 1161   0.530   0.891   2.022  0.7240  0.0394 -0.5759
  388SOL     OW 1162   2.241   1.079   2.381 -0.2540 -0.1362 -0.2230
  388SOL    HW1 1163   2.163   1.104   2.444 -2.2037  0.2303  1.0902
  388SOL    HW2 1164   2.301   1.164   2.372 -1.1494 -2.0199  3.3376
  389SOL     OW 1165   1.835   1.284   1.738  0.0300  0.5878  0.2333
  389SOL    HW1 1166   1.749   1.301   1.684 -0.0327  1.3334 -2.9647
  389SOL    HW2 1167   1.913   1.322   1.686 -0.3859  1.3049  1.0814
  390SOL     OW 1168   1.895   2.809   0.089  0.1196  0.1725 -0.0685
  390SOL    HW1 1169   1.854   2.857   0.172 -3.3110 -1.1206 -1.8490
  390SOL    HW2 1170   1.837   2.728   0.064  2.1934 -0.2299  3.7839
  391SOL     OW 1171   2.123   2.558   1.311  0.0766 -0.1080  0.2574
  391SOL    HW1 1172   2.105   2.512   1.221 -0.5611 -0.6340 -1.8000
  391SOL    HW2 1173   2.085   2.508   1.391  1.4534 -2.0255  2.8186
  392SOL     OW 1174   0.013   2.527   0.932 -0.5202 -0.3635 -0.0365
  392SOL    HW1 1175   3.008   2.496   0.996 -0.6483 -0.1206  1.2410
  392SOL    HW2 1176   0.067   2.451   0.901  1.3597  1.5377  0.0653
  393SOL     OW 1177   2.183   1.533   0.003 -0.2937  0.0812  0.0609
  393SOL    HW1 1178   2.141   1.461   3.013  1.8926  1.1703  0.6366
  393SOL    HW2 1179   2.179   1.625   3.026 -3.3248  0.4401 -1.5003
  394SOL     OW 1180   2.955   0.144   2.966  0.1398 -0.0922  0.1767
  394SOL    HW1 1181   2.939   0.241   3.009 -1.7140 -0.9904 -1.1777
  394SOL    HW2 1182   2.954   0.148   2.866 -0.9831  0.0762  0.9236
  395SOL     OW 1183   1.283   1.208   0.973  0.1928  0.1663 -0.4347
  395SOL    HW1 1184   1.350   1.163   0.907  1.5348 -1.9635 -0.5248
  395SOL    HW2 1185   1.194   1.213   0.928 -0.6290 -0.2263 -0.3509
  396SOL     OW 1186   1.404   0.566   2.962 -0.5540 -0.1044  0.6747
  396SOL    HW1 1187   1.500   0.588   2.927  0.8742 -0.1823 -2.1822
  396SOL    HW2 1188   1.328   0.613   2.907 -2.0679 -1.4354  1.8217
  397SOL     OW 1189   2.999   0.353   2.605  0.2558 -0.3712  0.1191
  397SOL    HW1 1190   2.953   0.376   2.518 -0.6064  0.7068  2.4127
  397SOL    HW2 1191   2.950   0.282   2.651  2.4229  2.8693 -1.7917
  398SOL     OW 1192   0.769   0.167   0.019  0.7790 -0.0661 -0.0680
  398SOL    HW1 1193   0.793   0.247   0.082  1.7973  0.4644 -0.3645
  398SOL    HW2 1194   0.730   0.208   3.001  0.7414  1.2121  0.1443
  399SOL     OW 1195   2.505   2.821   2.001  0.1781 -0.0898 -0.1359
  399SOL    HW1 1196   2.539   2.762   1.926 -0.7388 -4.0207 -0.2741
  399SOL    HW2 1197   2.570   2.808   2.082  3.0110 -3.4248 -0.8038
  400SOL     OW 1198   0.513   1.663   2.355  0.0193  0.4731 -0.4322
  400SOL    HW1 1199   0.613   1.652   2.375  0.8261  2.4680  3.6856
  400SOL    HW2 1200   0.502   1.658   2.252  0.6924 -0.9433 -3.0918
  401SOL     OW 1201   0.865   0.468   2.628  0.2260  0.3106 -0.6484
  401SOL    HW1 1202   0.910   0.497   2.718  0.7656  0.0626  4.3664
  401SOL    HW2 1203   0.926   0.493   2.552 -0.7194  1.3381 -0.6085
  402SOL     OW 1204   0.070   2.064   1.542  0.4032 -0.6995 -0.0888
  402SOL    HW1 1205   0.031   2.141   1.606  1.9719  2.6186  1.6426
  402SOL    HW2 1206   0.086   1.982   1.598  0.3375  1.4286 -0.1765
  403SOL     OW 1207   0.668   1.183   1.557  0.2492 -0.1388 -0.2841
  403SOL    HW1 1208   0.768   1.162   1.557  3.7310  0.3835  0.9524
  403SOL    HW2 1209   0.640   1.172   1.651  1.4687 -1.7927  0.1096
  404SOL     OW 1210   2.754   2.396   1.501  0.1415  0.4116  0.4339
  404SOL    HW1 1211   2.702   2.479   1.496  1.5313 -1.1279 -0.2466
  404SOL    HW2 1212   2.772   2.368   1.404  0.2740  2.5231 -2.3569
  405SOL     OW 1213   0.141   0.332   1.766 -0.2115 -0.2554 -0.3122
  405SOL    HW1 1214   0.162   0.343   1.667  0.9799 -1.9735  2.6291
  405SOL    HW2 1215   0.212   0.278   1.809 -0.9891 -0.5144  1.6237
  406SOL     OW 1216   1.734   2.252   0.099 -0.5977  0.0963 -0.3958
  406SOL    HW1 1217   1.805   2.321   0.136  1.6699  1.0281 -0.7321
  406SOL    HW2 1218   1.734   2.246   3.068  0.0743 -1.7408  4.2203
  407SOL     OW 1219   1.741   0.940   1.685 -0.3469  0.1286 -0.1965
  407SOL    HW1 1220   1.646   0.912   1.664  0.4683  0.6194  0.0016
  407SOL    HW2 1221   1.741   1.017   1.759  2.9329  1.9859  2.9245
  408SOL     OW 1222   0.757   0.251   2.510  0.3106  0.2872 -0.0109
  408SOL    HW1 1223   0.669   0.215   2.550 -0.9586 -3.3303 -2.6191
  408SOL    HW2 1224   0.794   0.324   2.565  0.5675  0.7257  2.0526
  409SOL     OW 1225   2.991   2.366   0.608  0.6832 -0.0096  0.1841
  409SOL    HW1 1226   2.981   2.281   0.545 -1.6796 -1.9106 -0.8400
  409SOL    HW2 1227   2.958   2.346   0.703  0.8834 -0.7323 -0.9904
  410SOL     OW 1228   2.395   1.612   0.395 -0.9397 -0.2899 -0.0636
  410SOL    HW1 1229   2.339   1.684   0.354  3.5565 -1.4838 -0.8932
  410SOL    HW2 1230   2.451   1.568   0.321  2.6190 -0.3229  0.0289
  411SOL     OW 1231   0.095   0.624   0.752  0.5211  0.1212 -0.3499
  411SOL    HW1 1232   0.163   0.703   0.753  0.8381  6.2045  1.4647
  411SOL    HW2 1233   0.149   0.537   0.736  2.9394 -2.1083 -0.5875
  412SOL     OW 1234   1.387   0.853   0.889  0.3617  0.0192  0.1008
  412SOL    HW1 1235   1.459   0.849   0.962 -2.0718 -2.1402  2.4356
  412SOL    HW2 1236   1.379   0.948   0.852  3.0437  0.5560  1.7642
  413SOL     OW 1237   0.877   0.404   1.097  0.2267  0.2314  0.1131
  413SOL    HW1 1238   0.894   0.414   1.193  1.2790 -0.2466 -2.3614
  413SOL    HW2 1239   0.963   0.385   1.047 -1.3239  1.3244  1.0067
  414SOL     OW 1240   0.094   1.741   2.856  0.1008 -0.2692 -0.2522
  414SOL    HW1 1241   0.039   1.757   2.937  3.0500 -2.0601 -3.7505
  414SOL    HW2 1242   0.195   1.731   2.876 -1.6013  0.0568 -1.4256
  415SOL     OW 1243   0.415   2.315   2.965 -0.2033  0.1207  0.2031
  415SOL    HW1 1244   0.503   2.299   2.925  0.5827 -3.9392  3.7893
  415SOL    HW2 1245   0.360   2.383   2.910 -0.8036 -0.8926  1.1401
  416SOL     OW 1246   1.461   0.796   0.454 -0.1836  0.3318  0.0556
  416SOL    HW1 1247   1.408   0.744   0.524 -1.0970  3.4171 -0.4908
  416SOL    HW2 1248   1.526   0.741   0.395  0.1119  1.2323 -1.4415
  417SOL     OW 1249   0.251   0.981   0.367 -0.2034  0.1043 -0.2675
  417SOL    HW1 1250   0.255   1.047   0.287  0.7398 -1.1520 -0.0759
  417SOL    HW2 1251   0.230   0.888   0.333 -0.7643 -0.4590  1.4268
  418SOL     OW 1252   2.643   1.440   2.496 -0.1699  0.0236 -0.5462
  418SOL    HW1 1253   2.601   1.480   2.408 -1.6531 -1.1006 -0.7421
  418SOL    HW2 1254   2.641   1.337   2.507 -1.3327  1.3318  2.5255
  419SOL     OW 1255   0.070   0.553   2.858 -0.0772 -0.0282 -0.0323
  419SOL    HW1 1256   0.099   0.515   2.949  0.2638 -4.4471  0.1395
  419SOL    HW2 1257   0.113   0.496   2.786  1.5951  0.3550 -1.7629
  420SOL     OW 1258   0.529   1.349   0.926 -0.1384 -0.3461  0.4355
  420SOL    HW1 1259   0.525   1.290   1.008  0.1537  0.4767 -0.0486
  420SOL    HW2 1260   0.465   1.316   0.850 -0.9671  3.1790 -2.8072
  421SOL     OW 1261   0.614   2.268   0.796 -0.1858  0.0443 -0.3806
  421SOL    HW1 1262   0.713   2.292   0.781  1.9253  1.7424  1.6153
  421SOL    HW2 1263   0.574   2.195   0.737 -0.9001 -0.0297  0.6200
  422SOL     OW 1264   2.895   0.898   1.390  0.4496 -0.1427 -0.3401
  422SOL    HW1 1265   2.978   0.957   1.404 -1.0013 -0.8251  1.9948
  422SOL    HW2 1266   2.918   0.821   1.327  1.0948 -0.6514  0.5510
  423SOL     OW 1267   1.552   1.382   1.420  0.2108  0.1949 -0.1033
  423SOL    HW1 1268   1.606   1.421   1.344  0.3958  0.3049  2.2089
  423SOL    HW2 1269   1.497   1.307   1.385  2.5507  1.1862  0.7803
  424SOL     OW 1270   1.848   1.015   0.205 -0.4061  0.2063 -0.0425
  424SOL    HW1 1271   1.771   1.076   0.227  0.5929 -3.5840  1.9230
  424SOL    HW2 1272   1.871   1.010   0.103  1.2192 -0.3733 -1.5077
  425SOL     OW 1273   3.000   0.468   1.890 -0.0736 -0.3375  0.6751
  425SOL    HW1 1274   2.935   0.414   1.949  0.8531 -0.4032 -1.0577
  425SOL    HW2 1275   3.064   0.410   1.831  1.0230 -0.4650  3.6880
  426SOL     OW 1276   2.475   2.899   2.476  0.2178 -0.4842  0.3669
  426SOL    HW1 1277   2.390   2.837   2.492 -0.3355 -1.5496 -1.5769
  426SOL    HW2 1278   2.450   2.996   2.459  1.1383 -0.1416  1.9109
  427SOL     OW 1279   1.060   0.965   2.339  0.7215 -0.2497  0.3609
  427SOL    HW1 1280   1.083   0.887   2.283 -1.2331  0.5124 -0.1436
  427SOL    HW2 1281   0.994   1.024   2.285 -1.5755 -1.9703  0.1009
  428SOL     OW 1282   2.138   1.119   2.110  0.5830  0.2242  0.0777
  428SOL    HW1 1283   2.197   1.079   2.186 -1.9138 -0.3902  1.9862
  428SOL    HW2 1284   2.129   1.218   2.114  0.0906 -1.1988  0.4120
  429SOL     OW 1285   2.817   0.037   0.623  0.1338  0.8536  0.0554
  429SOL    HW1 1286   2.805   0.133   0.591  1.5518  0.8471  1.0370
  429SOL    HW2 1287   2.913   0.017   0.588  0.4852 -0.4757 -2.2548
  430SOL     OW 1288   1.849   1.430   2.012  0.5505 -0.3731  0.2206
  430SOL    HW1 1289   1.946   1.410   2.040 -1.5499 -0.8894 -0.4474
  430SOL    HW2 1290   1.831   1.404   1.919  2.2236 -0.1389 -0.8618
  431SOL     OW 1291   0.022   1.876   1.174 -0.7741  0.0430  0.1768
  431SOL    HW1 1292   0.011   1.963   1.218  2.2142 -0.0018 -0.6530
  431SOL    HW2 1293   3.002   1.818   1.180  0.0226  0.2360  2.0568
  432SOL     OW 1294   1.639   3.038   2.356  0.0000 -0.1310  0.0598
  432SOL    HW1 1295   1.563   2.991   2.308  3.7028  1.7086  0.9843
  432SOL    HW2 1296   1.737   3.017   2.323  2.8924  1.0925 -0.6873
  433SOL     OW 1297   1.496   0.026   1.838  0.3006  0.0147 -0.4458
  433SOL    HW1 1298   1.525   3.035   1.762 -3.3332  0.5924 -1.5432
  433SOL    HW2 1299   1.576   0.076   1.878 -1.7983  0.5255 -0.8216
  434SOL     OW 1300   0.415   2.623   2.314 -0.0323 -0.0329 -0.4465
  434SOL    HW1 1301   0.376   2.718   2.302 -1.8433 -0.2666 -0.6228
  434SOL    HW2 1302   0.346   2.560   2.358 -1.7540  0.7006 -0.0742
  435SOL     OW 1303   0.392   2.030   0.352  0.4111 -0.0878  0.3354
  435SOL    HW1 1304   0.380   2.049   0.255  2.0817  1.1873  0.9762
  435SOL    HW2 1305   0.386   1.928   0.371 -2.0461 -0.5734 -0.1510
  436SOL     OW 1306   0.605   1.028   1.994 -0.2630 -0.3609 -0.1379
  436SOL    HW1 1307   0.698   1.055   1.965 -3.1338 -0.0314 -1.5384
  436SOL    HW2 1308   0.540   1.074   1.931  0.3814  2.9055  0.1928
  437SOL     OW 1309   0.524   0.047   2.180  0.5439 -0.7826  0.1219
  437SOL    HW1 1310   0.605   0.092   2.217  2.4580 -1.6032 -0.2964
  437SOL    HW2 1311   0.440   0.052   2.238 -1.0758  0.1543 -2.9762
  438SOL     OW 1312   0.631   1.862   1.485  0.0470 -0.2249 -0.0898
  438SOL    HW1 1313   0.561   1.936   1.492  0.5999  0.0089 -0.7881
  438SOL    HW2 1314   0.589   1.769   1.483 -1.2483  0.1099 -0.8598
  439SOL     OW 1315   1.808   0.719   3.051 -0.0883  0.4534  0.2663
  439SOL    HW1 1316   1.826   0.819   3.035  2.3285  3.0857  1.8222
  439SOL    HW2 1317   1.744   0.675   2.983 -0.9126 -1.7400  0.1612
  440SOL     OW 1318   0.646   0.416   0.451 -0.6710 -0.3181  0.4434
  440SOL    HW1 1319   0.721   0.456   0.512  2.4071 -1.4802 -3.7420
  440SOL    HW2 1320   0.568   0.480   0.447  1.0478 -2.0537  0.1742
  441SOL     OW 1321   0.864   2.132   1.475 -0.4013  0.4224 -0.2069
  441SOL    HW1 1322   0.867   2.220   1.530  1.1228  2.2887 -0.6708
  441SOL    HW2 1323   0.817   2.147   1.384  0.1808 -0.6880  2.3969
  442SOL     OW 1324   2.876   1.834   0.469 -0.0919 -1.2531  0.5951
  442SOL    HW1 1325   2.832   1.745   0.449  2.6178 -3.5967 -1.8508
  442SOL    HW2 1326   2.804   1.902   0.489 -0.1498  1.4433 -0.4655
  443SOL     OW 1327   2.822   2.005   2.643  0.2025 -0.5767  0.2722
  443SOL    HW1 1328   2.765   1.919   2.640 -3.6691  1.0832 -0.8519
  443SOL    HW2 1329   2.922   1.989   2.644 -0.3682  1.0839  0.0900
  444SOL     OW 1330   1.361   1.022   0.220  0.7371 -0.0089  0.1630
  444SOL    HW1 1331   1.350   0.923   0.189 -0.8923  1.0023  1.0503
  444SOL    HW2 1332   1.272   1.068   0.248  1.5170  3.3099 -0.5098
  445SOL     OW 1333   2.690   2.564   1.869  0.6689  0.4121  0.1068
  445SOL    HW1 1334   2.769   2.616   1.903 -4.4870  0.4605 -1.5410
  445SOL    HW2 1335   2.633   2.530   1.942 -1.7088 -0.4686  1.2340
  446SOL     OW 1336   3.014   1.334   0.532 -0.0672  0.0584 -0.3846
  446SOL    HW1 1337   2.982   1.262   0.470 -1.0480  2.0206  0.2053
  446SOL    HW2 1338   2.937   1.371   0.585  0.9976  0.0377  2.4098
  447SOL     OW 1339   1.049   1.729   1.048  0.6518 -1.0434 -0.2172
  447SOL    HW1 1340   1.124   1.740   1.119  1.0133  0.7286  0.4768
  447SOL    HW2 1341   0.963   1.697   1.099 -0.5959  0.5752  1.2110
  448SOL     OW 1342   1.497   1.822   1.570 -0.2911  0.5290 -0.8921
  448SOL    HW1 1343   1.583   1.867   1.609  0.5488  1.2659 -0.6284
  448SOL    HW2 1344   1.443   1.763   1.639 -0.9917  0.1731  0.2242
  449SOL     OW 1345   2.909   2.224   2.444  0.2506 -0.3888 -0.3372
  449SOL    HW1 1346   2.813   2.229   2.473  1.6366  1.8071  1.2221
  449SOL    HW2 1347   2.967   2.249   2.522 -2.9904  0.6560  1.4868
  450SOL     OW 1348   0.032   1.607   2.046 -0.8995 -0.5195 -0.5635
  450SOL    HW1 1349   3.027   1.612   1.981  0.5907  0.9007  2.2485
  450SOL    HW2 1350   0.123   1.604   1.998  1.0632  0.0523 -0.7755
  451SOL     OW 1351   2.285   0.600   1.310 -0.1629  0.0401  0.5102
  451SOL    HW1 1352   2.219   0.670   1.335  1.1453 -3.1910  1.8076
  451SOL    HW2 1353   2.377   0.635   1.343 -1.4487  0.6589 -0.0015
  452SOL     OW 1354   0.824   1.195   1.053 -0.3614 -0.1046  0.0549
  452SOL    HW1 1355   0.892   1.116   1.027  2.0802  1.7158 -2.0239
  452SOL    HW2 1356   0.848   1.275   0.995 -0.1408 -1.0964 -0.6002
  453SOL     OW 1357   1.454   2.129   0.655 -0.1678  0.4113  0.0303
  453SOL    HW1 1358   1.459   2.118   0.758 -1.5044 -0.5943 -0.8550
  453SOL    HW2 1359   1.535   2.092   0.603 -2.9447 -0.1828 -0.9525
  454SOL     OW 1360   0.466   1.658   0.091 -0.7045  0.5132  0.1733
  454SOL    HW1 1361   0.546   1.707   0.127 -1.2490 -0.5212  0.1541
  454SOL    HW2 1362   0.381   1.679   0.142  1.0231 -0.2795 -1.5360
  455SOL     OW 1363   0.828   1.030   0.312  0.2485 -0.4770 -0.1836
  455SOL    HW1 1364   0.868   0.945   0.273 -1.0977 -2.5860 -1.2338
  455SOL    HW2 1365   0.898   1.101   0.341  1.0534  1.0483 -0.5935
  456SOL     OW 1366   2.082   2.604   1.026 -1.1003 -0.3061  0.4310
  456SOL    HW1 1367   2.023   2.650   0.954  0.0623 -1.0975 -2.5791
  456SOL    HW2 1368   2.108   2.505   1.011 -2.1062 -0.1203 -0.8122
  457SOL     OW 1369   1.540   2.856   3.025  0.7086 -0.0856 -0.5105
  457SOL    HW1 1370   1.619   2.912   2.992 -0.5804 -0.6983  2.6380
  457SOL    HW2 1371   1.493   2.898   0.035 -1.2811 -1.6251 -1.0727
  458SOL     OW 1372   2.423   0.800   0.508  0.3029 -0.1803  0.2498
  458SOL    HW1 1373   2.357   0.818   0.582 -1.4016  0.2607 -1.5357
  458SOL    HW2 1374   2.401   0.853   0.422  0.1446  1.7858 -3.3679
  459SOL     OW 1375   2.368   0.477   2.573 -0.2704  0.1030  0.6086
  459SOL    HW1 1376   2.285   0.474   2.513 -3.3734 -0.4888  3.5858
  459SOL    HW2 1377   2.429   0.557   2.554 -0.9865  0.5083  0.4340
  460SOL     OW 1378   2.582   0.671   2.538 -0.1159 -0.2529  0.0234
  460SOL    HW1 1379   2.659   0.688   2.606 -1.2916 -1.5129  0.2909
  460SOL    HW2 1380   2.521   0.751   2.532  3.3862  0.0101  0.7345
  461SOL     OW 1381   0.161   2.317   0.877 -0.1841 -0.3044  0.0818
  461SOL    HW1 1382   0.193   2.319   0.973  0.5590 -0.5192 -1.2048
  461SOL    HW2 1383   0.109   2.228   0.859 -3.0727 -1.5524  1.4202
  462SOL     OW 1384   2.997   2.657   1.688 -0.3004  0.4511 -0.1514
  462SOL    HW1 1385   2.923   2.701   1.743 -0.1165 -0.1557 -3.2083
  462SOL    HW2 1386   3.006   2.700   1.595  0.9653  0.8178  2.5796
  463SOL     OW 1387   2.222   1.816   2.718 -0.3338 -0.6986 -0.1096
  463SOL    HW1 1388   2.319   1.820   2.737 -1.5701  0.6345  0.0383
  463SOL    HW2 1389   2.201   1.750   2.645 -1.6587  1.0377  0.6714
  464SOL     OW 1390   0.877   2.748   1.472  0.0920 -0.1701  0.2277
  464SOL    HW1 1391   0.930   2.714   1.550 -4.1902  3.8870 -1.4250
  464SOL    HW2 1392   0.869   2.848   1.473 -1.8413 -1.9172  0.0575
  465SOL     OW 1393   0.828   3.006   1.519  0.2326 -0.0840  0.4240
  465SOL    HW1 1394   0.762   3.041   1.454 -1.1692 -0.2017 -1.8551
  465SOL    HW2 1395   0.821   3.052   1.611  1.7144  0.1576 -0.8135
  466SOL     OW 1396   1.346   2.638   1.965 -0.2775 -0.0746  0.1235
  466SOL    HW1 1397   1.444   2.614   1.959 -2.9550 -0.8326  1.1437
  466SOL    HW2 1398   1.320   2.712   2.032  0.1408 -0.6742  2.6225
  467SOL     OW 1399   0.716   1.965   1.061  0.0964  0.6544 -0.3194
  467SOL    HW1 1400   0.762   1.922   1.140  0.9519  1.5561  0.2362
  467SOL    HW2 1401   0.623   1.993   1.082  0.6743 -0.0569 -0.3777
  468SOL     OW 1402   2.822   1.750   2.319 -0.0657 -0.2042 -0.2342
  468SOL    HW1 1403   2.886   1.831   2.339  1.5195  1.2142  1.5457
  468SOL    HW2 1404   2.887   1.668   2.312  1.9467 -0.9748 -0.4797
  469SOL     OW 1405   0.911   1.927   0.716  0.1511 -0.2795 -0.1428
  469SOL    HW1 1406   0.977   1.896   0.787  2.1861 -1.8663 -0.9881
  469SOL    HW2 1407   0.815   1.897   0.742 -3.5359  0.0890  1.4387
  470SOL     OW 1408   2.247   1.216   1.665  0.0354 -0.0230  0.7502
  470SOL    HW1 1409   2.164   1.275   1.643 -1.9654  1.5995  0.1928
  470SOL    HW2 1410   2.298   1.195   1.578  0.7279  1.5724  1.2056
  471SOL     OW 1411   0.371   2.450   0.149 -0.0703 -0.0929 -0.7323
  471SOL    HW1 1412   0.431   2.411   0.228  0.5657 -2.1824  2.2779
  471SOL    HW2 1413   0.408   2.415   0.061 -1.3690  2.4364  0.4142
  472SOL     OW 1414   2.882   1.905   1.862 -0.1137  0.1324 -1.1508
  472SOL    HW1 1415   2.819   1.893   1.939  1.0347 -0.2690 -0.5475
  472SOL    HW2 1416   2.947   1.981   1.884 -2.0285 -2.6250 -1.4875
  473SOL     OW 1417   1.116   2.915   0.136 -0.0475 -0.2647  0.2295
  473SOL    HW1 1418   1.134   2.823   0.090  1.6285  0.1064 -2.6959
  473SOL    HW2 1419   1.057   2.972   0.068  0.3238  3.0366 -2.3198
  474SOL     OW 1420   2.695   2.568   0.800 -0.4531  0.2391  0.6521
  474SOL    HW1 1421   2.699   2.614   0.895  0.2010  1.0055  0.2638
  474SOL    HW2 1422   2.783   2.581   0.751  1.1449 -0.5166  2.2505
  475SOL     OW 1423   2.062   2.970   1.655  0.3043 -0.2861  0.2605
  475SOL    HW1 1424   2.131   2.940   1.583  0.7644 -1.5548 -0.5878
  475SOL    HW2 1425   1.975   3.008   1.610 -1.2535  0.1275 -0.3312
  476SOL     OW 1426   0.845   1.016   0.635 -0.3690 -0.1968 -0.2893
  476SOL    HW1 1427   0.884   0.969   0.546  1.8640 -3.8870 -0.0941
  476SOL    HW2 1428   0.769   0.957   0.662  1.7769  2.0140 -1.3042
  477SOL     OW 1429   0.316   2.098   0.970  0.3812 -0.0291 -0.3395
  477SOL    HW1 1430   0.331   2.191   1.016 -0.3966  0.0532  0.2031
  477SOL    HW2 1431   0.372   2.093   0.887 -3.5782 -0.2207 -0.7728
  478SOL     OW 1432   0.127   2.588   2.220  0.3456 -0.0455  0.2619
  478SOL    HW1 1433   0.050   2.639   2.249  4.1127 -5.1053 -2.9071
  478SOL    HW2 1434   0.178   2.642   2.143  0.6463  2.0967  0.1775
  479SOL     OW 1435   0.123   0.406   1.448 -0.6460  0.1374 -0.6193
  479SOL    HW1 1436   0.195   0.338   1.421 -2.5396  1.6259 -1.3037
  479SOL    HW2 1437   0.073   0.431   1.364 -1.6742 -1.3984  3.1229
  480SOL     OW 1438   2.834   2.563   2.989 -0.3377  0.0780 -0.5923
  480SOL    HW1 1439   2.848   2.538   2.891  0.5908  0.3188 -0.9546
  480SOL    HW2 1440   2.754   2.513   3.027 -0.7028 -0.4012  0.0175
  481SOL     OW 1441   2.182   1.982   1.731  0.0909  0.4541  0.3343
  481SOL    HW1 1442   2.159   1.906   1.798  1.5816  0.1551 -0.1411
  481SOL    HW2 1443   2.254   1.946   1.667 -2.2440 -1.7259 -0.3421
  482SOL     OW 1444   1.525   2.342   2.807  0.4656 -0.3582 -0.3294
  482SOL    HW1 1445   1.444   2.347   2.869 -0.2752  1.3287  0.8334
  482SOL    HW2 1446   1.504   2.264   2.747  0.6228 -2.1957  0.8808
  483SOL     OW 1447   0.629   2.040   2.340  0.1541  0.9942 -0.2646
  483SOL    HW1 1448   0.722   1.995   2.318  2.7749 -1.3087 -0.7290
  483SOL    HW2 1449   0.614   2.118   2.277  0.2503 -0.7284  0.4920
  484SOL     OW 1450   3.036   0.431   1.217 -0.0660 -0.1936  0.4060
  484SOL    HW1 1451   3.035   0.351   1.154  0.1743 -2.1303  0.1013
  484SOL    HW2 1452   2.943   0.449   1.263  1.6344 -1.2911  0.9656
  485SOL     OW 1453   2.126   1.093   0.610  0.5229  0.1210  0.1042
  485SOL    HW1 1454   2.122   1.102   0.510 -0.5333 -2.5816  3.3856
  485SOL    HW2 1455   2.062   1.157   0.657  1.8753 -1.4994  0.0568
  486SOL     OW 1456   1.516   0.201   2.243  0.4580  0.1008 -0.2280
  486SOL    HW1 1457   1.577   0.277   2.269 -0.9030 -0.9091 -2.5965
  486SOL    HW2 1458   1.555   0.106   2.262 -1.4646 -3.1150  0.0356
  487SOL     OW 1459   0.805   1.586   1.169 -0.7722 -0.2875 -0.0154
  487SOL    HW1 1460   0.707   1.598   1.149 -2.0866 -1.7688 -2.1336
  487SOL    HW2 1461   0.832   1.497   1.213  0.0842 -0.4736 -0.6007
  488SOL     OW 1462   2.266   1.342   2.845 -0.0287  1.0644  0.2217
  488SOL    HW1 1463   2.343   1.383   2.791  0.0733 -1.0646  0.4477
  488SOL    HW2 1464   2.293   1.341   2.943 -2.4995 -1.4769  2.7054
  489SOL     OW 1465   2.054   0.095   0.311 -0.4435  0.0948 -0.0740
  489SOL    HW1 1466   2.147   0.101   0.354  4.2456  0.8685  1.1929
  489SOL    HW2 1467   2.015   0.193   0.307  1.1712  1.4406  1.5665
  490SOL     OW 1468   1.415   2.380   0.290  0.1200  0.1773 -0.4026
  490SOL    HW1 1469   1.450   2.287   0.284 -1.8211 -0.7434 -0.6680
  490SOL    HW2 1470   1.482   2.448   0.249  1.1229  1.1528 -0.8393
  491SOL     OW 1471   0.970   1.006   0.942 -0.0628 -0.4950 -0.0008
  491SOL    HW1 1472   0.901   0.938   0.910 -2.0821 -0.0142  3.2450
  491SOL    HW2 1473   1.031   1.046   0.870  0.5447  0.9689 -0.5730
  492SOL     OW 1474   1.370   0.169   2.636  0.4227 -0.0842 -0.1723
  492SOL    HW1 1475   1.453   0.220   2.649  0.1210 -2.2343 -2.2471
  492SOL    HW2 1476   1.290   0.219   2.677 -0.7912 -1.4698 -1.5652
  493SOL     OW 1477   1.748   1.982   0.135  0.5246  0.2210 -0.3933
  493SOL    HW1 1478   1.828   1.930   0.170  3.2426  0.4852  0.8905
  493SOL    HW2 1479   1.754   2.084   0.137  2.5438  2.3855  1.2746
  494SOL     OW 1480   0.600   1.429   0.607  0.5933 -0.1973  0.1859
  494SOL    HW1 1481   0.553   1.516   0.633 -0.7264 -0.6380 -2.2951
  494SOL    HW2 1482   0.565   1.399   0.515 -0.3596  1.6718 -1.3399
  495SOL     OW 1483   3.066   2.766   0.797  0.0322 -0.4925  0.5002
  495SOL    HW1 1484   0.014   2.684   0.855 -0.7840 -0.9803 -2.4266
  495SOL    HW2 1485   3.017   2.732   0.714  2.2961  0.5319 -3.1545
  496SOL     OW 1486   2.519   0.071   1.696 -0.1717  0.7858 -0.1066
  496SOL    HW1 1487   2.501   0.017   1.612 -1.0525  0.7679 -1.3071
  496SOL    HW2 1488   2.527   0.169   1.678  0.8432 -2.3256 -0.1477
  497SOL     OW 1489   1.877   1.363   2.463 -0.6388 -0.3179 -0.4037
  497SOL    HW1 1490   1.929   1.432   2.516 -0.8448 -0.9927  0.2342
  497SOL    HW2 1491   1.828   1.411   2.385 -2.6287 -1.0519 -1.5277
  498SOL     OW 1492   0.654   1.865   0.803 -0.0734  0.2548 -0.1155
  498SOL    HW1 1493   0.685   1.908   0.888 -1.0546 -0.9936  0.4045
  498SOL    HW2 1494   0.646   1.764   0.817 -1.6141  0.3091  2.1803
  499SOL     OW 1495   0.780   2.185   1.242  0.2700  0.3611 -0.1864
  499SOL    HW1 1496   0.776   2.108   1.171 -0.1913 -0.8676 -0.8628
  499SOL    HW2 1497   0.700   2.244   1.224  1.9876 -2.9794  1.2579
  500SOL     OW 1498   0.807   2.100   0.183  0.1801  0.2930  0.3340
  500SOL    HW1 1499   0.783   2.072   0.274  1.2544  0.2054 -3.1782
  500SOL    HW2 1500   0.859   2.186   0.183 -0.2363 -0.0689 -0.6609
  501SOL     OW 1501   2.744   2.884   1.409 -0.0629  0.1012  0.5429
  501SOL    HW1 1502   2.792   2.851   1.329 -2.4092  0.4918  1.8335
  501SOL    HW2 1503   2.789   2.962   1.452 -1.6911  1.4088  0.4319
  502SOL     OW 1504   0.187   0.603   1.645  0.4800 -0.2916 -0.1124
  502SOL    HW1 1505   0.186   0.605   1.748 -1.3585 -1.4096 -0.8940
  502SOL    HW2 1506   0.134   0.526   1.610  2.2537 -0.5309  0.3270
  503SOL     OW 1507   2.201   0.792   1.744  0.0048 -0.3899 -0.4424
  503SOL    HW1 1508   2.286   0.797   1.685  1.4901  0.3275  0.3427
  503SOL    HW2 1509   2.186   0.880   1.793 -0.9868 -2.6660  2.0835
  504SOL     OW 1510   1.043   0.955   2.021  0.1522  0.4031 -0.4536
  504SOL    HW1 1511   1.082   0.883   2.081  0.2759 -0.4764  0.5093
  504SOL    HW2 1512   1.114   1.023   1.988  0.0858  2.4406 -2.7255
  505SOL     OW 1513   0.898   0.003   2.537 -0.5106  0.0410 -0.6731
  505SOL    HW1 1514   0.840   3.017   2.479  0.2877  0.6979  2.2657
  505SOL    HW2 1515   0.864   0.100   2.552 -1.8654  0.4417  1.8332
  506SOL     OW 1516   0.196   0.352   0.769  0.1474  0.4061  0.3345
  506SOL    HW1 1517   0.115   0.368   0.831  1.0033  1.4126  1.6976
  506SOL    HW2 1518   0.244   0.263   0.794  1.8920  1.0405 -0.7287
  507SOL     OW 1519   1.404   0.175   3.017  0.0743 -0.1855  0.1916
  507SOL    HW1 1520   1.474   0.224   3.068 -0.4164 -1.4421  0.3387
  507SOL    HW2 1521   1.425   0.167   2.920  2.4580 -1.8025  0.6755
  508SOL     OW 1522   1.718   0.383   2.286  0.5329 -0.1126 -0.1230
  508SOL    HW1 1523   1.762   0.462   2.241  0.9808 -1.4373  0.2797
  508SOL    HW2 1524   1.777   0.329   2.351  0.6538  0.0087 -0.8214
  509SOL     OW 1525   0.665   1.375   2.109  0.8255  0.2107 -0.3331
  509SOL    HW1 1526   0.765   1.395   2.087 -2.8575  0.7601 -1.1313
  509SOL    HW2 1527   0.645   1.285   2.153  0.6153 -1.0185  0.5095
  510SOL     OW 1528   0.019   0.964   0.641 -0.1357 -0.1345  0.4172
  510SOL    HW1 1529   3.060   0.993   0.732 -0.6886  0.4614 -0.1517
  510SOL    HW2 1530   0.113   0.927   0.635 -1.8946 -0.8892 -4.2131
  511SOL     OW 1531   1.986   2.007   0.958 -0.1773 -0.3572  0.3866
  511SOL    HW1 1532   2.053   2.070   1.001 -0.4287  1.1553 -0.9955
  511SOL    HW2 1533   2.021   1.913   0.956  0.2066  0.2191  0.9921
  512SOL     OW 1534   0.194   1.644   0.648  0.0988  0.6956 -0.6642
  512SOL    HW1 1535   0.142   1.594   0.724 -0.1823  4.0650  2.7249
  512SOL    HW2 1536   0.183   1.592   0.563 -1.3607  1.9991  3.2356
  513SOL     OW 1537   0.256   2.250   0.531 -0.0060 -0.4970 -0.3774
  513SOL    HW1 1538   0.317   2.203   0.465 -0.5238 -1.0303 -0.0985
  513SOL    HW2 1539   0.217   2.334   0.489  2.5680 -0.8092 -1.1845
  514SOL     OW 1540   2.516   1.975   2.517 -0.4251  0.3375  0.0087
  514SOL    HW1 1541   2.440   2.027   2.562  0.5431  1.1036  0.5178
  514SOL    HW2 1542   2.568   2.044   2.466  1.3965 -0.7359 -1.3395
  515SOL     OW 1543   2.221   0.933   0.094  0.2875  0.1316 -0.2866
  515SOL    HW1 1544   2.178   0.841   0.084 -1.8803  2.1992  0.1920
  515SOL    HW2 1545   2.283   0.943   0.175 -0.8622  0.0021 -1.1773
  516SOL     OW 1546   1.827   0.095   0.533 -0.0019  0.3918 -0.3812
  516SOL    HW1 1547   1.823   0.198   0.528  1.9259 -0.8323 -0.2310
  516SOL    HW2 1548   1.799   0.054   0.447 -1.4790  3.3574  1.1664
  517SOL     OW 1549   1.188   2.102   0.272  0.2461  0.1449  0.7129
  517SOL    HW1 1550   1.136   2.148   0.343 -2.9283  1.1529 -1.0244
  517SOL    HW2 1551   1.148   2.013   0.243 -0.0445 -1.3032 -1.3846
  518SOL     OW 1552   1.004   0.732   1.810  0.4615 -0.1877  0.0205
  518SOL    HW1 1553   1.029   0.801   1.878 -0.8495 -1.5491  2.2927
  518SOL    HW2 1554   1.015   0.640   1.844 -0.3220 -0.3919  0.8183
  519SOL     OW 1555   2.917   1.427   0.279 -0.8700  0.1270 -0.1692
  519SOL    HW1 1556   2.940   1.444   0.177 -3.4625  0.4714  0.3454
  519SOL    HW2 1557   3.005   1.408   0.327 -1.7326  0.5642  3.1693
  520SOL     OW 1558   2.380   1.933   1.559  0.2002 -0.3208 -0.9340
  520SOL    HW1 1559   2.334   1.978   1.482  0.2397  1.1876  0.8395
  520SOL    HW2 1560   2.462   1.981   1.590 -2.4205 -2.7343 -2.9480
  521SOL     OW 1561   0.807   2.890   2.360  0.2796  0.0109  0.1231
  521SOL    HW1 1562   0.854   2.936   2.283 -1.5073 -2.0426  1.7895
  521SOL    HW2 1563   0.870   2.815   2.385  0.0625 -1.8764  0.0541
  522SOL     OW 1564   2.033   0.287   2.178  0.2285 -0.0487 -0.2659
  522SOL    HW1 1565   1.999   0.290   2.276 -0.4775  0.6808  1.5137
  522SOL    HW2 1566   2.036   0.384   2.138  0.5929  0.9396  0.6050
  523SOL     OW 1567   1.897   1.812   1.177  0.3105 -0.5645  0.1615
  523SOL    HW1 1568   1.876   1.906   1.147  1.8708 -1.4494  1.7997
  523SOL    HW2 1569   1.810   1.767   1.212 -0.5298 -0.4833  3.4608
  524SOL     OW 1570   1.179   2.361   0.139 -0.4697 -0.0634 -0.2813
  524SOL    HW1 1571   1.089   2.349   0.180  0.9542 -0.2466 -0.5475
  524SOL    HW2 1572   1.252   2.363   0.209  0.4102 -0.2150 -1.6003
  525SOL     OW 1573   0.121   0.451   0.049 -0.2916 -0.5975  0.4591
  525SOL    HW1 1574   0.028   0.424   0.059  1.6647 -0.2939 -2.3068
  525SOL    HW2 1575   0.179   0.386   0.102  1.1200 -0.8870 -0.7850
  526SOL     OW 1576   1.036   2.827   0.382 -0.3758  0.5407  0.4322
  526SOL    HW1 1577   0.952   2.878   0.392  0.0916  0.0061  0.3371
  526SOL    HW2 1578   1.088   2.861   0.297  3.2910 -0.6067 -1.6371
  527SOL     OW 1579   2.687   2.017   0.516  0.1119 -0.1901  0.0335
  527SOL    HW1 1580   2.639   2.030   0.602  0.4288 -4.2800 -1.2031
  527SOL    HW2 1581   2.626   2.031   0.436  1.8016  0.0787  0.5991
  528SOL     OW 1582   3.025   0.653   2.308 -0.0014 -0.2727 -0.2955
  528SOL    HW1 1583   2.972   0.593   2.364 -0.5898  2.1220  0.5632
  528SOL    HW2 1584   0.018   0.602   2.251 -2.4147 -1.0503  2.1458
  529SOL     OW 1585   1.171   1.575   2.597 -0.5665 -0.0522 -0.5156
  529SOL    HW1 1586   1.265   1.582   2.549  1.6158 -0.5946 -0.3021
  529SOL    HW2 1587   1.102   1.542   2.531  1.9969 -1.3392  1.2845
  530SOL     OW 1588   1.739   1.124   2.526 -0.0851 -0.0757  0.1316
  530SOL    HW1 1589   1.771   1.069   2.446  0.1417  0.5882  0.1979
  530SOL    HW2 1590   1.768   1.215   2.502  0.2522 -0.9903 -0.3637
  531SOL     OW 1591   0.586   2.033   2.594  0.0264  0.2606  0.3843
  531SOL    HW1 1592   0.578   2.039   2.491 -2.7600  0.2074 -2.7023
  531SOL    HW2 1593   0.494   2.020   2.634  1.2229  1.9604 -0.0417
  532SOL     OW 1594   2.129   1.170   0.348  0.2094  0.2171  0.0384
  532SOL    HW1 1595   2.144   1.135   0.255 -0.5529 -3.0203 -1.7191
  532SOL    HW2 1596   2.184   1.247   0.381 -1.1344 -2.0255 -1.3387
  533SOL     OW 1597   0.119   3.016   1.784  0.2893 -0.2500 -0.1430
  533SOL    HW1 1598   0.222   3.020   1.778  2.4245  0.4925  2.9704
  533SOL    HW2 1599   0.070   3.025   1.696  1.1995 -3.4232  2.3491
  534SOL     OW 1600   0.644   0.280   2.876  0.5419 -0.3545 -0.5809
  534SOL    HW1 1601   0.593   0.329   2.803 -0.8080  0.3771  1.8769
  534SOL    HW2 1602   0.579   0.254   2.951  0.6905  0.8793 -0.9488
  535SOL     OW 1603   0.182   0.169   0.423  0.0333 -0.7224 -0.5052
  535SOL    HW1 1604   0.121   0.249   0.448 -1.4345  0.2708 -0.5606
  535SOL    HW2 1605   0.285   0.187   0.454  2.2790  2.8553 -0.7960
  536SOL     OW 1606   0.360   1.343   1.535 -0.2302 -0.2025  0.6866
  536SOL    HW1 1607   0.418   1.356   1.454  1.3464  1.4321 -2.1750
  536SOL    HW2 1608   0.389   1.414   1.602 -0.5089 -1.4988 -0.5836
  537SOL     OW 1609   1.300   2.588   1.678 -0.4524 -0.0596 -0.2756
  537SOL    HW1 1610   1.284   2.637   1.767 -0.1988  1.3890 -2.6397
  537SOL    HW2 1611   1.394   2.549   1.668 -3.0883 -1.4936 -0.7802
  538SOL     OW 1612   0.078   1.823   0.413 -0.2081 -0.5281 -0.3208
  538SOL    HW1 1613   0.105   1.888   0.488  0.5517  3.0507 -2.2350
  538SOL    HW2 1614   3.046   1.832   0.403  0.1574  0.7411  1.4702
  539SOL     OW 1615   2.635   1.174   2.548 -0.1483  0.4741 -0.0621
  539SOL    HW1 1616   2.684   1.130   2.633  3.0575 -0.7142 -2.5371
  539SOL    HW2 1617   2.665   1.124   2.462 -1.4619  0.7763 -1.5045
  540SOL     OW 1618   1.807   0.787   1.972 -0.1277 -0.1000 -0.1387
  540SOL    HW1 1619   1.891   0.803   1.917  1.0612  0.0633 -3.9463
  540SOL    HW2 1620   1.760   0.875   1.990 -0.5921 -0.2261 -1.4391
  541SOL     OW 1621   0.701   0.686   2.201 -0.3691  0.4533 -0.0104
  541SOL    HW1 1622   0.625   0.631   2.242 -1.7653  1.4458  0.2770
  541SOL    HW2 1623   0.664   0.745   2.128  0.8112  0.9053  0.8989
  542SOL     OW 1624   1.960   0.128   2.916 -0.2614  0.4903  0.0426
  542SOL    HW1 1625   1.937   0.227   2.922 -0.8334 -0.2705 -0.9468
  542SOL    HW2 1626   1.997   0.101   2.824 -1.2481 -0.0371  0.0688
  543SOL     OW 1627   1.389   3.025   0.127 -1.1524 -0.0322 -0.3242
  543SOL    HW1 1628   1.390   0.046   0.075 -1.9804  0.2964  0.4921
  543SOL    HW2 1629   1.293   2.994   0.131 -2.3797 -0.3609 -2.9637
  544SOL     OW 1630   2.849   1.459   1.885  0.3802 -0.1495  0.8692
  544SOL    HW1 1631   2.834   1.422   1.978 -0.0383  1.8033  1.4810
  544SOL    HW2 1632   2.876   1.387   1.820  2.4449  1.5907  1.3135
  545SOL     OW 1633   1.843   2.446   1.488 -0.0844  0.3030 -0.1760
  545SOL    HW1 1634   1.841   2.535   1.435 -0.9820  2.5831  0.1444
  545SOL    HW2 1635   1.905   2.452   1.572 -0.0300  1.6199  2.3927
  546SOL     OW 1636   2.997   0.025   2.421  0.0039  0.0494  1.0435
  546SOL    HW1 1637   3.022   2.998   2.389  0.9346 -0.7352 -0.3027
  546SOL    HW2 1638   3.061   0.104   2.392  1.8178  2.3619  1.5786
  547SOL     OW 1639   1.754   0.890   0.787  0.1017  0.5297  0.0525
  547SOL    HW1 1640   1.729   0.964   0.720 -1.5718 -0.7117  0.0887
  547SOL    HW2 1641   1.684   0.888   0.862 -0.7717 -0.9239  0.9284
  548SOL     OW 1642   1.849   1.967   2.396  0.6030  0.6117 -0.6065
  548SOL    HW1 1643   1.837   1.894   2.474  1.9269 -1.9990  1.2879
  548SOL    HW2 1644   1.776   2.037   2.399 -0.9947 -2.6004  0.3226
  549SOL     OW 1645   2.040   0.565   0.420  0.0815 -0.4801 -0.7544
  549SOL    HW1 1646   2.004   0.646   0.372  0.8598 -0.2442 -1.1937
  549SOL    HW2 1647   2.040   0.582   0.520 -0.8457 -3.8971 -1.1749
  550SOL     OW 1648   2.609   1.835   0.791 -0.3774 -0.3110 -0.4290
  550SOL    HW1 1649   2.710   1.862   0.790  1.7578  1.2263 -0.7436
  550SOL    HW2 1650   2.552   1.894   0.722 -2.5562  3.4250 -2.0094
  551SOL     OW 1651   1.103   2.653   2.177 -0.2798 -0.3328  0.2025
  551SOL    HW1 1652   1.097   2.703   2.266  2.4247  2.8856  1.9027
  551SOL    HW2 1653   1.075   2.557   2.184  0.0090  3.2751  1.1269
  552SOL     OW 1654   2.879   2.445   2.705  0.0341  0.0099 -0.1310
  552SOL    HW1 1655   2.811   2.366   2.701  1.0372 -5.7178 -1.6536
  552SOL    HW2 1656   2.976   2.409   2.696  0.1769 -1.5857  0.9745
  553SOL     OW 1657   0.287   0.136   0.895  0.0956  0.3360  0.4518
  553SOL    HW1 1658   0.328   0.077   0.824 -0.1625  2.7477  0.3287
  553SOL    HW2 1659   0.203   0.098   0.934 -1.8054 -0.2120 -0.7451
  554SOL     OW 1660   2.292   2.458   1.983  0.1377  0.5069 -0.1370
  554SOL    HW1 1661   2.264   2.369   1.938 -1.1845  0.6807  2.0331
  554SOL    HW2 1662   2.391   2.447   2.001 -0.5286 -0.5485  0.1533
  555SOL     OW 1663   1.600   2.261   2.151 -0.1962 -0.4491  0.1377
  555SOL    HW1 1664   1.517   2.311   2.153  3.3583 -2.4058  0.3072
  555SOL    HW2 1665   1.662   2.289   2.079  1.8149 -1.8688 -1.2856
  556SOL     OW 1666   1.328   1.546   1.406  0.4875 -0.2319  0.0323
  556SOL    HW1 1667   1.314   1.500   1.317  1.0219 -0.4426  3.0013
  556SOL    HW2 1668   1.417   1.520   1.453  0.5696 -0.0742  0.5819
  557SOL     OW 1669   1.815   2.421   2.447 -0.0140  0.2235 -0.4636
  557SOL    HW1 1670   1.892   2.388   2.501 -1.2247 -1.6311 -0.0651
  557SOL    HW2 1671   1.804   2.524   2.458 -0.1907  2.7585 -0.2733
  558SOL     OW 1672   0.288   2.687   2.020 -0.4773  0.0602 -0.2591
  558SOL    HW1 1673   0.344   2.679   1.932  1.0984  0.3362 -3.1552
  558SOL    HW2 1674   0.335   2.748   2.094  3.5397  0.8947  2.8244
  559SOL     OW 1675   2.398   2.956   0.738  0.0194  0.3398 -0.0708
  559SOL    HW1 1676   2.349   2.883   0.791  1.0507 -2.6476 -0.0924
  559SOL    HW2 1677   2.335   3.024   0.707  1.6644  0.6197  0.1174
  560SOL     OW 1678   1.863   2.424   0.590  0.3116  0.4257  0.2258
  560SOL    HW1 1679   1.789   2.438   0.658 -0.1113 -1.9119  0.5064
  560SOL    HW2 1680   1.901   2.328   0.598  1.2745 -0.3429 -0.3942
  561SOL     OW 1681   0.926   0.232   0.721 -0.4648 -0.2000  0.3048
  561SOL    HW1 1682   1.001   0.196   0.660 -0.6416 -0.0008 -1.5989
  561SOL    HW2 1683   0.951   0.235   0.820 -0.9592 -1.3484 -1.2818
  562SOL     OW 1684   0.613   0.807   2.528 -0.2926  0.0966  0.4679
  562SOL    HW1 1685   0.623   0.703   2.533 -1.1394  0.7661  0.0072
  562SOL    HW2 1686   0.547   0.833   2.451 -1.5989  1.2859  0.8250
  563SOL     OW 1687   1.496   1.828   2.498 -0.1380 -0.4325  0.0791
  563SOL    HW1 1688   1.440   1.798   2.580 -0.4019  1.8347  1.5427
  563SOL    HW2 1689   1.590   1.832   2.533  1.1802  1.7981 -1.2526
  564SOL     OW 1690   2.558   0.650   1.104 -0.7517 -0.0005 -0.4550
  564SOL    HW1 1691   2.554   0.704   1.190 -2.7812  0.5223  3.4264
  564SOL    HW2 1692   2.534   0.556   1.128 -1.8510 -1.1149 -0.6408
  565SOL     OW 1693   1.057   0.510   2.853  0.3749 -0.4829  0.4511
  565SOL    HW1 1694   1.132   0.582   2.832  0.5677  1.9982 -0.4573
  565SOL    HW2 1695   0.987   0.553   2.916 -3.2023 -1.2139  0.6874
  566SOL     OW 1696   1.998   0.425   2.608  0.4699 -0.7164 -0.4660
  566SOL    HW1 1697   2.069   0.441   2.539 -3.0298  0.1426  3.2790
  566SOL    HW2 1698   2.035   0.432   2.700 -2.5064  0.5722 -3.9571
  567SOL     OW 1699   2.082   1.518   0.270  0.2746 -0.0782  0.4192
  567SOL    HW1 1700   2.106   1.539   0.171  1.3453  1.6636 -1.2563
  567SOL    HW2 1701   2.020   1.437   0.280 -1.9425 -1.6199  2.2630
  568SOL     OW 1702   1.690   1.694   2.919  0.3527 -0.1842  0.1509
  568SOL    HW1 1703   1.626   1.626   2.880  0.4392 -0.1293 -0.0971
  568SOL    HW2 1704   1.643   1.781   2.954  1.5778  1.4322  0.7296
  569SOL     OW 1705   1.918   0.993   3.003  0.3580  0.5715 -0.2598
  569SOL    HW1 1706   1.856   1.057   2.953  0.6881  0.2891 -0.0955
  569SOL    HW2 1707   2.015   1.013   2.972 -1.3875  3.5008 -0.7857
  570SOL     OW 1708   0.354   2.371   2.028 -0.4126 -0.5686  0.1958
  570SOL    HW1 1709   0.390   2.466   2.031  0.4175 -0.9210 -0.0244
  570SOL    HW2 1710   0.253   2.359   2.006 -0.4284 -1.1933 -0.1061
  571SOL     OW 1711   0.361   1.147   1.871 -0.2408  0.0839  0.1947
  571SOL    HW1 1712   0.336   1.071   1.811 -1.8281  1.9987 -0.7295
  571SOL    HW2 1713   0.341   1.137   1.971  0.1169 -0.3417 -0.5746
  572SOL     OW 1714   0.985   1.684   0.546 -0.5168 -0.2504 -0.1312
  572SOL    HW1 1715   0.989   1.666   0.649 -1.3087 -1.1570  0.5282
  572SOL    HW2 1716   1.070   1.739   0.526 -0.8809  1.6114 -1.9499
  573SOL     OW 1717   1.576   1.928   2.984 -0.2275 -0.0656  0.1607
  573SOL    HW1 1718   1.483   1.946   3.017 -3.9655  1.8750  0.5564
  573SOL    HW2 1719   1.637   1.948   3.061  0.2987 -1.5588  1.8382
  574SOL     OW 1720   0.869   0.085   1.188  0.4364  0.2977 -0.0031
  574SOL    HW1 1721   0.840   3.060   1.215  0.4932  0.1039 -1.2891
  574SOL    HW2 1722   0.791   0.139   1.157 -0.2746 -1.6859  0.1851
  575SOL     OW 1723   0.267   0.929   1.340 -0.0204 -0.0162  0.3386
  575SOL    HW1 1724   0.333   0.990   1.389  1.2105  1.2711  0.0128
  575SOL    HW2 1725   0.280   0.833   1.374  0.3950  3.0617 -0.6926
  576SOL     OW 1726   2.593   2.959   1.093  0.2419  0.7856  0.1954
  576SOL    HW1 1727   2.498   2.985   1.118  1.9015 -0.1134  0.6314
  576SOL    HW2 1728   2.612   2.998   1.003 -1.7221  1.4435 -0.9025
  577SOL     OW 1729   0.910   1.140   2.215  0.6167 -0.0321 -0.5513
  577SOL    HW1 1730   0.934   1.139   2.118 -2.7954 -0.0831 -3.7604
  577SOL    HW2 1731   0.812   1.138   2.227  0.0119  1.8041 -2.2646
  578SOL     OW 1732   1.936   0.886   2.473  0.3990 -0.1424 -0.5406
  578SOL    HW1 1733   1.883   0.913   2.391  3.1545  0.8709  1.5611
  578SOL    HW2 1734   1.977   0.968   2.517 -1.4847 -0.9958 -0.4398
  579SOL     OW 1735   2.211   2.220   1.877  0.2663  0.3043 -0.3639
  579SOL    HW1 1736   2.226   2.163   1.962 -1.6303  1.2273 -0.8956
  579SOL    HW2 1737   2.195   2.158   1.799  0.7415  3.1922  1.6967
  580SOL     OW 1738   1.518   1.642   2.310 -0.7075  0.2976  0.3534
  580SOL    HW1 1739   1.524   1.720   2.376 -0.2561 -1.6061  1.0913
  580SOL    HW2 1740   1.421   1.606   2.312  3.1427 -1.2148  3.6992
  581SOL     OW 1741   1.312   1.284   2.358  0.3425  0.0880  0.3646
  581SOL    HW1 1742   1.283   1.219   2.432  0.5463 -1.1135 -0.3808
  581SOL    HW2 1743   1.360   1.365   2.400 -0.3513 -0.0406  0.6138
  582SOL     OW 1744   1.001   1.548   1.833 -0.0558 -0.2545 -0.5291
  582SOL    HW1 1745   0.914   1.541   1.779  0.2110  1.9239 -0.8094
  582SOL    HW2 1746   1.086   1.570   1.781 -0.7694 -1.7528 -0.3092
  583SOL     OW 1747   1.405   1.045   1.671 -0.3387 -0.3760  0.4522
  583SOL    HW1 1748   1.344   1.022   1.593 -0.2874 -1.3396  0.4122
  583SOL    HW2 1749   1.395   1.144   1.694 -0.4630  1.9106  2.6966
  584SOL     OW 1750   2.100   2.658   0.342 -0.5517 -0.2044 -0.1246
  584SOL    HW1 1751   1.995   2.652   0.360 -1.1859 -2.0152  0.3807
  584SOL    HW2 1752   2.121   2.705   0.257  0.6298 -1.5499  0.3198
  585SOL     OW 1753   1.767   2.884   2.692 -0.0006  0.2956  0.1807
  585SOL    HW1 1754   1.671   2.851   2.673  0.7794 -1.5502 -0.8593
  585SOL    HW2 1755   1.782   2.922   2.786 -0.5979  2.3739  0.5309
  586SOL     OW 1756   2.767   2.000   1.211  0.1095  0.5919  0.7089
  586SOL    HW1 1757   2.797   1.902   1.194  1.6107 -0.8749 -0.2517
  586SOL    HW2 1758   2.669   2.007   1.208  4.8825  0.9738 -2.2369
  587SOL     OW 1759   1.246   1.871   0.014 -0.6043  0.0010 -0.2684
  587SOL    HW1 1760   1.274   1.782   3.039  0.2270  1.3775 -2.9903
  587SOL    HW2 1761   1.241   1.944   3.014 -0.2694 -0.6046  1.7805
  588SOL     OW 1762   0.430   0.284   1.079  0.2483 -0.1400 -0.5610
  588SOL    HW1 1763   0.520   0.241   1.058  0.0483  0.9605 -2.7729
  588SOL    HW2 1764   0.351   0.244   1.026  0.3493 -0.4394  2.0591
  589SOL     OW 1765   1.135   0.114   0.541  0.3118  0.0299 -0.6450
  589SOL    HW1 1766   1.088   0.129   0.454 -0.9251 -2.8986  3.7461
  589SOL    HW2 1767   1.149   0.014   0.563 -0.7731  0.4735  2.6233
  590SOL     OW 1768   1.240   0.716   2.809  0.2765 -0.6346  0.0744
  590SOL    HW1 1769   1.218   0.727   2.709  2.4900 -0.1281 -5.0095
  590SOL    HW2 1770   1.204   0.799   2.852  1.1618 -1.0577  1.0677
  591SOL     OW 1771   2.812   2.197   2.114  0.4612  0.1304 -1.1801
  591SOL    HW1 1772   2.858   2.287   2.135  0.0104 -0.6114 -0.0246
  591SOL    HW2 1773   2.850   2.142   2.042  1.2531  1.6396  0.9324
  592SOL     OW 1774   2.400   1.368   1.856  0.0753 -0.4815  0.9046
  592SOL    HW1 1775   2.352   1.335   1.769  0.2054  1.2859 -1.3000
  592SOL    HW2 1776   2.470   1.443   1.843  0.7435  1.9701  1.1233
  593SOL     OW 1777   1.257   0.988   1.436  0.6201  0.2282 -0.3745
  593SOL    HW1 1778   1.224   0.992   1.339 -0.2951 -1.1046 -0.6598
  593SOL    HW2 1779   1.204   0.919   1.490 -0.4352 -1.7425  1.3943
  594SOL     OW 1780   2.452   1.495   2.708  0.1496 -0.7032 -0.0258
  594SOL    HW1 1781   2.490   1.526   2.795 -2.1967 -0.7439 -1.2172
  594SOL    HW2 1782   2.520   1.480   2.631 -0.4894  0.4958  0.6806
  595SOL     OW 1783   0.022   0.348   0.538 -0.3390 -0.4236 -0.6819
  595SOL    HW1 1784   0.096   0.360   0.613 -0.4073  0.1853  0.7550
  595SOL    HW2 1785   2.999   0.318   0.578  1.2009 -1.6126 -3.4723
  596SOL     OW 1786   2.930   1.265   0.921  0.4957 -0.7937  0.2977
  596SOL    HW1 1787   2.939   1.235   1.019  0.5643  2.2587  2.2121
  596SOL    HW2 1788   3.021   1.252   0.871 -1.0081 -0.1608 -0.1297
  597SOL     OW 1789   1.329   1.631   0.663  0.3019 -0.0174  0.0625
  597SOL    HW1 1790   1.363   1.661   0.755  0.6943 -2.3220 -1.9760
  597SOL    HW2 1791   1.320   1.706   0.599  0.7134 -1.2776  2.0744
  598SOL     OW 1792   0.453   2.660   1.820 -0.5308 -0.1563 -0.2255
  598SOL    HW1 1793   0.422   2.617   1.734 -0.9427  0.4012  0.8475
  598SOL    HW2 1794   0.550   2.696   1.809  0.8516 -0.4016  0.5184
  599SOL     OW 1795   0.013   1.517   2.735  0.1647 -0.3635  0.5904
  599SOL    HW1 1796   2.989   1.504   2.697  0.8473 -2.5967  1.1594
  599SOL    HW2 1797   0.033   1.614   2.764 -0.7749  0.3788  1.5688
  600SOL     OW 1798   0.331   0.988   2.971 -0.2778  0.1330  0.2936
  600SOL    HW1 1799   0.321   0.893   2.939 -0.8333 -0.8763  2.4534
  600SOL    HW2 1800   0.342   1.053   2.897 -1.9785  0.2574 -2.4104
  601SOL     OW 1801   0.512   0.837   1.137  0.6008  0.1902 -0.0523
  601SOL    HW1 1802   0.466   0.874   1.052 -2.2673  0.6417  0.1851
  601SOL    HW2 1803   0.476   0.749   1.162  0.2578 -2.3886  1.3167
  602SOL     OW 1804   1.127   2.568   0.453 -0.5166  0.2486 -0.0998
  602SOL    HW1 1805   1.215   2.581   0.399 -0.5866 -0.7577 -0.5712
  602SOL    HW2 1806   1.060   2.636   0.416  1.6698 -0.5316  2.0588
  603SOL     OW 1807   1.662   2.189   2.406 -0.1114  0.0372 -0.3555
  603SOL    HW1 1808   1.709   2.274   2.437 -2.2280  0.6728  0.3721
  603SOL    HW2 1809   1.633   2.209   2.311  3.2453 -0.2898  0.3905
  604SOL     OW 1810   0.442   0.368   2.715  0.1220 -0.7451 -0.0186
  604SOL    HW1 1811   0.341   0.358   2.727 -0.5728 -1.4819  1.1316
  604SOL    HW2 1812   0.481   0.287   2.673 -1.3248  0.5804 -0.8320
  605SOL     OW 1813   2.623   1.055   1.675  0.3963 -0.2897 -0.0151
  605SOL    HW1 1814   2.610   1.113   1.757 -0.2349  0.8289  0.0026
  605SOL    HW2 1815   2.633   1.101   1.586  0.3936 -0.8729  1.7598
  606SOL     OW 1816   0.663   1.764   2.628 -0.0994  0.5511  0.7225
  606SOL    HW1 1817   0.645   1.860   2.642 -1.3286 -1.7260  0.1152
  606SOL    HW2 1818   0.691   1.742   2.532  0.8741 -1.2891  0.5067
  607SOL     OW 1819   0.756   0.175   0.514 -0.1883  0.0121  0.1403
  607SOL    HW1 1820   0.692   0.250   0.492  0.1430 -0.2781  1.9770
  607SOL    HW2 1821   0.830   0.213   0.575  0.2673  1.7231 -1.4774
  608SOL     OW 1822   2.692   1.526   1.526  0.0472 -0.3254  0.1930
  608SOL    HW1 1823   2.664   1.496   1.618 -0.3863  1.7269 -0.5545
  608SOL    HW2 1824   2.733   1.454   1.470 -1.2868  1.8105 -1.2118
  609SOL     OW 1825   2.779   0.354   0.849  0.2220  0.1656  0.3792
  609SOL    HW1 1826   2.719   0.301   0.911  1.4504  0.6112 -1.1892
  609SOL    HW2 1827   2.739   0.449   0.851 -2.1930 -0.9183 -0.0687
  610SOL     OW 1828   0.210   2.627   1.378 -0.2697  0.5296 -0.1635
  610SOL    HW1 1829   0.203   2.557   1.454  2.7965  1.1775 -0.5428
  610SOL    HW2 1830   0.221   2.584   1.288  1.3780  2.3334  1.0856
  611SOL     OW 1831   1.527   1.607   0.109  0.1434  0.4391  0.2991
  611SOL    HW1 1832   1.624   1.589   0.082 -2.5080 -0.4630  0.7266
  611SOL    HW2 1833   1.521   1.690   0.164  2.3582 -0.9097 -2.5394
  612SOL     OW 1834   0.713   2.789   2.057 -0.6246 -0.6524 -0.1782
  612SOL    HW1 1835   0.756   2.825   2.140  0.2348 -0.1990 -3.0113
  612SOL    HW2 1836   0.684   2.868   1.999 -0.3722 -1.9155 -1.4943
  613SOL     OW 1837   0.414   2.623   0.926  0.2695  0.0266 -0.0856
  613SOL    HW1 1838   0.403   2.546   0.858 -1.2248  0.8949 -0.2224
  613SOL    HW2 1839   0.511   2.626   0.966  2.1299  0.6080  0.6816
  614SOL     OW 1840   2.252   0.091   2.176  0.5722  0.0648  0.0613
  614SOL    HW1 1841   2.193   0.175   2.182 -0.4460  0.6286 -0.2418
  614SOL    HW2 1842   2.284   0.066   2.083 -1.8799  0.0114  0.7184
  615SOL     OW 1843   1.463   1.397   0.287  0.0381 -0.0055 -0.3136
  615SOL    HW1 1844   1.462   1.456   0.203  1.1179  0.8366  0.7280
  615SOL    HW2 1845   1.475   1.455   0.369  2.2134  0.1402  0.5053
  616SOL     OW 1846   1.758   1.537   0.327 -0.5684  0.0425  0.3630
  616SOL    HW1 1847   1.765   1.536   0.226 -2.2544 -1.0640 -2.1898
  616SOL    HW2 1848   1.805   1.451   0.368 -2.0884 -2.9237  1.4366
  617SOL     OW 1849   1.232   1.102   2.515  0.5431 -0.1853 -0.0586
  617SOL    HW1 1850   1.165   1.068   2.448  5.2518  0.4709 -0.4169
  617SOL    HW2 1851   1.316   1.044   2.508  1.1794  0.3353  1.7915
  618SOL     OW 1852   0.575   2.983   1.926  0.1029  0.2038 -0.1414
  618SOL    HW1 1853   0.509   2.969   1.848 -2.6842  1.6164  0.3009
  618SOL    HW2 1854   0.532   3.007   2.014 -1.6030  3.8370 -1.4905
  619SOL     OW 1855   2.828   1.352   1.362  0.3134  0.5606 -0.2136
  619SOL    HW1 1856   2.917   1.388   1.401  1.3593  0.9116 -0.9203
  619SOL    HW2 1857   2.813   1.381   1.264 -0.4454 -0.2993 -1.0567
  620SOL     OW 1858   2.354   0.250   2.737  0.2060 -0.1510 -0.0686
  620SOL    HW1 1859   2.372   0.334   2.686  2.9573 -1.6358 -1.6426
  620SOL    HW2 1860   2.298   0.183   2.684 -0.3204  0.0797  0.3530
  621SOL     OW 1861   2.185   2.067   2.622 -0.0816  0.6337 -0.2572
  621SOL    HW1 1862   2.260   2.133   2.661  0.4415  1.9307  5.3933
  621SOL    HW2 1863   2.190   1.976   2.670 -2.3674 -0.2109 -1.1075
  622SOL     OW 1864   0.896   0.865   2.537 -0.0994  0.4359 -0.1493
  622SOL    HW1 1865   0.795   0.840   2.522 -2.9939 -1.9630  0.8129
  622SOL    HW2 1866   0.946   0.910   2.461  2.8965  1.5202 -0.7833
  623SOL     OW 1867   0.622   1.153   2.251 -0.5821  0.3934  0.1657
  623SOL    HW1 1868   0.594   1.128   2.347  0.7563 -0.7912 -0.6031
  623SOL    HW2 1869   0.589   1.092   2.177  1.2728 -0.4651 -1.1004
  624SOL     OW 1870   2.752   0.540   0.410  0.0221  0.0110 -0.2414
  624SOL    HW1 1871   2.743   0.489   0.322  0.7066 -0.1914  0.9673
  624SOL    HW2 1872   2.847   0.582   0.413 -0.2903 -0.8074  0.5749
  625SOL     OW 1873   1.027   2.452   0.879  0.0774  0.1478  0.0590
  625SOL    HW1 1874   1.044   2.547   0.854 -4.1473 -0.7745 -2.0202
  625SOL    HW2 1875   1.040   2.441   0.976  1.6180 -0.9645 -1.8936
  626SOL     OW 1876   2.136   0.717   2.585  0.3079 -0.5179 -0.5045
  626SOL    HW1 1877   2.104   0.699   2.686  0.5829 -1.2684  4.6742
  626SOL    HW2 1878   2.072   0.776   2.542  1.9419  0.2826  0.0842
  627SOL     OW 1879   1.352   2.707   2.916  0.1771  0.6725 -0.0182
  627SOL    HW1 1880   1.406   2.788   2.954  0.4019 -0.7704  1.9883
  627SOL    HW2 1881   1.283   2.668   2.987 -4.9801 -3.6825  1.2333
  628SOL     OW 1882   2.613   2.808   2.259  0.1113 -0.5373  0.0527
  628SOL    HW1 1883   2.705   2.847   2.245 -1.2607  0.2939 -0.2268
  628SOL    HW2 1884   2.569   2.834   2.348  2.7176  0.3584  0.4640
  629SOL     OW 1885   0.990   2.985   2.172  0.1616 -0.0545  0.4893
  629SOL    HW1 1886   1.074   2.968   2.221 -0.8729 -1.6011 -0.7090
  629SOL    HW2 1887   0.978   0.019   2.166 -1.4525 -4.0289  0.5416
  630SOL     OW 1888   0.763   0.190   2.243  0.1764  0.0111  0.8078
  630SOL    HW1 1889   0.767   0.207   2.342 -0.5299 -2.9443 -0.0361
  630SOL    HW2 1890   0.851   0.223   2.198 -0.8729 -0.8980  0.0814
  631SOL     OW 1891   1.938   1.270   0.698  0.3770 -0.0601 -0.0729
  631SOL    HW1 1892   1.860   1.242   0.648  2.4293  0.8725  2.1276
  631SOL    HW2 1893   1.926   1.264   0.799 -0.0517 -0.8841  1.3687
  632SOL     OW 1894   2.552   0.338   1.559 -0.2432  0.1617 -0.2192
  632SOL    HW1 1895   2.476   0.392   1.587 -1.3478 -3.8145 -0.7407
  632SOL    HW2 1896   2.570   0.351   1.459  1.0941 -2.6909 -3.2188
  633SOL     OW 1897   1.082   1.842   0.227  0.7913  0.0506  0.6234
  633SOL    HW1 1898   1.142   1.855   0.145  0.1296 -1.0294  1.7852
  633SOL    HW2 1899   1.030   1.755   0.218  1.2367  2.0001  0.1191
  634SOL     OW 1900   2.765   2.986   1.771  0.2783 -0.2797  0.2052
  634SOL    HW1 1901   2.668   3.018   1.764 -1.6545  1.6390  0.7623
  634SOL    HW2 1902   2.833   3.060   1.743  1.5363  0.7146  2.6786
  635SOL     OW 1903   1.538   0.503   0.825 -0.0368  0.1887  0.4279
  635SOL    HW1 1904   1.570   0.548   0.912  2.8643  0.6587 -1.4042
  635SOL    HW2 1905   1.561   0.407   0.824 -0.2357  3.0399 -1.5196
  636SOL     OW 1906   0.769   1.181   3.014 -0.2917 -0.2350 -0.1763
  636SOL    HW1 1907   0.740   1.094   3.058  3.3252  0.5502 -0.0289
  636SOL    HW2 1908   0.691   1.231   2.974  3.2446  0.4621 -0.3674
  637SOL     OW 1909   2.791   2.108   2.919 -0.4119 -0.0927  0.1221
  637SOL    HW1 1910   2.776   2.078   2.821 -1.8371 -4.0849  0.0913
  637SOL    HW2 1911   2.890   2.089   2.948 -1.6384 -1.5517  2.0962
  638SOL     OW 1912   1.480   2.459   2.536 -0.0827 -0.0423 -0.0490
  638SOL    HW1 1913   1.548   2.534   2.528  2.7658  0.8861  0.4528
  638SOL    HW2 1914   1.491   2.395   2.610 -0.2224 -0.1535  1.0461
  639SOL     OW 1915   1.618   1.797   0.724 -0.1758  0.0299  0.2073
  639SOL    HW1 1916   1.525   1.811   0.759 -0.6362 -0.5792  1.8588
  639SOL    HW2 1917   1.616   1.793   0.621 -2.3958 -2.5786 -1.4264
  640SOL     OW 1918   2.177   2.871   0.499  0.0855  0.2537 -0.2042
  640SOL    HW1 1919   2.200   2.794   0.435  1.1989  2.1772 -1.3690
  640SOL    HW2 1920   2.199   2.959   0.453 -0.8501 -0.2719 -0.1246
  641SOL     OW 1921   2.668   0.435   0.166 -0.4382 -0.3127  0.2644
  641SOL    HW1 1922   2.592   0.501   0.188 -1.7833  2.4300  0.8606
  641SOL    HW2 1923   2.630   0.357   0.112  2.8017  1.6718  2.4341
  642SOL     OW 1924   0.470   0.544   1.223 -0.8818 -0.2343 -0.3520
  642SOL    HW1 1925   0.477   0.591   1.314  4.1240  0.8271 -1.9207
  642SOL    HW2 1926   0.486   0.444   1.240  1.7677 -3.0822 -1.0907
  643SOL     OW 1927   0.435   1.406   2.310  0.3640 -0.0911 -0.0969
  643SOL    HW1 1928   0.524   1.373   2.279 -0.6228  0.0449 -0.9441
  643SOL    HW2 1929   0.449   1.505   2.327  2.4963  0.8863 -2.0865
  644SOL     OW 1930   1.886   2.171   0.687 -0.3199  0.1076  0.4406
  644SOL    HW1 1931   1.975   2.118   0.697  2.3390 -0.6885  0.3052
  644SOL    HW2 1932   1.852   2.196   0.781 -0.0154  1.4811  0.4243
  645SOL     OW 1933   2.188   2.353   0.993  0.4012  0.9048 -0.1211
  645SOL    HW1 1934   2.224   2.274   0.938 -0.3379  1.2101  1.2077
  645SOL    HW2 1935   2.128   2.320   1.072  0.0318  1.7156  2.8175
  646SOL     OW 1936   0.879   2.250   2.881  0.2616 -0.4377  0.4101
  646SOL    HW1 1937   0.820   2.174   2.923  3.9929  0.3251  0.1217
  646SOL    HW2 1938   0.884   2.324   2.952  0.4769 -1.5697 -0.6113
  647SOL     OW 1939   1.037   2.665   1.685  0.1374  0.0223 -0.8499
  647SOL    HW1 1940   1.137   2.645   1.676 -1.2720  1.1002 -2.1554
  647SOL    HW2 1941   1.014   2.693   1.784  1.5161  1.6997  0.7572
  648SOL     OW 1942   1.450   0.282   1.107 -0.4169  0.7233  0.3316
  648SOL    HW1 1943   1.483   0.228   1.185  0.3539  1.9227 -1.0462
  648SOL    HW2 1944   1.529   0.319   1.053 -0.0911  1.4335  0.2829
  649SOL     OW 1945   1.381   2.099   0.089 -0.4437  0.0156 -0.2591
  649SOL    HW1 1946   1.295   2.101   0.147  1.6511  1.2617  1.5993
  649SOL    HW2 1947   1.458   2.107   0.159  3.5383  2.3571  3.2062
  650SOL     OW 1948   2.340   1.476   1.457  0.2775 -0.2292 -0.3604
  650SOL    HW1 1949   2.358   1.522   1.544 -0.9066  0.2027 -0.6272
  650SOL    HW2 1950   2.287   1.533   1.394 -1.0290 -2.2144 -2.0544
  651SOL     OW 1951   1.721   2.629   3.034  1.1419  0.1377  0.4069
  651SOL    HW1 1952   1.649   2.692   3.002 -0.6693 -3.5870  3.3864
  651SOL    HW2 1953   1.749   2.564   2.962 -0.4389  0.2354  0.0708
  652SOL     OW 1954   0.177   1.910   0.114  0.5222  0.1880 -0.5438
  652SOL    HW1 1955   0.185   1.898   0.212  0.0896 -0.2496 -1.0004
  652SOL    HW2 1956   0.258   1.953   0.074 -2.2258 -3.5495  1.5530
  653SOL     OW 1957   2.925   2.918   0.987 -0.1871 -0.8500 -0.2292
  653SOL    HW1 1958   2.962   2.857   0.909  1.1392  0.1128 -0.5286
  653SOL    HW2 1959   2.837   2.962   0.967  1.6581  0.5729  1.8015
  654SOL     OW 1960   2.877   2.773   1.919 -0.0382  0.4203 -0.4900
  654SOL    HW1 1961   2.970   2.781   1.966 -3.1521  0.4543  2.6734
  654SOL    HW2 1962   2.849   2.868   1.888  0.6900  4.8433  2.1104
  655SOL     OW 1963   0.026   2.067   0.955 -0.5461 -0.1188  0.2853
  655SOL    HW1 1964   0.007   1.991   1.023 -0.2541 -0.9498  0.2621
  655SOL    HW2 1965   0.126   2.071   0.933  1.7967  0.7675 -1.7136
  656SOL     OW 1966   3.020   2.788   2.355  0.1309 -0.1954  0.1027
  656SOL    HW1 1967   2.959   2.834   2.284  0.3168  0.7976 -2.2420
  656SOL    HW2 1968   2.969   2.759   2.435  1.6652  2.1769  1.1834
  657SOL     OW 1969   2.887   1.330   2.908 -0.3691  0.8725 -0.6325
  657SOL    HW1 1970   2.973   1.271   2.900  2.9882 -1.2258 -1.7521
  657SOL    HW2 1971   2.815   1.284   2.961 -0.0545  0.0833 -0.1276
  658SOL     OW 1972   2.624   1.650   1.064 -0.5218  0.8536 -0.5412
  658SOL    HW1 1973   2.524   1.622   1.068 -1.6066  0.3734  1.1892
  658SOL    HW2 1974   2.641   1.724   0.998 -1.8198  0.0316  0.0782
  659SOL     OW 1975   1.621   0.236   0.774 -0.1006  0.1644 -0.3309
  659SOL    HW1 1976   1.673   0.169   0.828 -1.3067 -0.8182 -0.6441
  659SOL    HW2 1977   1.545   0.199   0.725 -0.1495  0.1652  1.9679
  660SOL     OW 1978   1.567   1.314   2.963 -0.2610 -0.3315  0.1663
  660SOL    HW1 1979   1.513   1.283   3.043  0.1329 -1.3857  0.8408
  660SOL    HW2 1980   1.524   1.403   2.928  0.2756 -0.8023 -0.8343
  661SOL     OW 1981   0.323   2.325   1.097 -0.3343  0.4228 -0.0126
  661SOL    HW1 1982   0.401   2.388   1.105 -1.2883 -1.5630  0.3269
  661SOL    HW2 1983   0.244   2.350   1.157  0.5258 -2.1244  0.2457
  662SOL     OW 1984   2.870   0.554   2.868 -0.5650  0.3147 -0.0392
  662SOL    HW1 1985   2.829   0.628   2.805 -1.0899  2.1786 -3.1745
  662SOL    HW2 1986   2.975   0.556   2.865 -0.2502 -2.2626 -1.5327
  663SOL     OW 1987   2.054   1.747   0.946 -0.2829  0.2593  0.2413
  663SOL    HW1 1988   1.992   1.700   0.879 -0.9955  2.5961 -0.3673
  663SOL    HW2 1989   2.008   1.753   1.037 -0.0614  2.4997 -0.0773
  664SOL     OW 1990   1.076   1.420   1.282  0.1813  0.0935 -0.0661
  664SOL    HW1 1991   1.043   1.328   1.266  0.4632 -0.2754 -0.4241
  664SOL    HW2 1992   1.167   1.437   1.237 -1.4063  2.2444 -1.7486
  665SOL     OW 1993   1.615   2.688   2.429 -0.3919  0.4035 -0.5886
  665SOL    HW1 1994   1.532   2.733   2.393  0.7435 -1.2134  0.8420
  665SOL    HW2 1995   1.690   2.696   2.360  2.0171 -2.4578 -1.6699
  666SOL     OW 1996   2.872   2.908   2.789  0.4713 -0.2879  0.5083
  666SOL    HW1 1997   2.916   2.875   2.876 -0.3285 -1.2342 -0.2430
  666SOL    HW2 1998   2.900   3.006   2.774 -0.0236 -0.2775 -3.2463
  667SOL     OW 1999   2.347   1.464   2.119  0.2524  0.0947  0.0657
  667SOL    HW1 2000   2.347   1.408   2.036  1.0736  2.2288  1.1310
  667SOL    HW2 2001   2.318   1.561   2.095 -1.5095  0.6880 -0.6864
  668SOL     OW 2002   0.333   1.155   2.508  0.3818  0.0867  0.3186
  668SOL    HW1 2003   0.338   1.165   2.614  0.3589  3.0005  1.3954
  668SOL    HW2 2004   0.260   1.211   2.465 -1.6378 -0.3420  1.5368
  669SOL     OW 2005   2.023   2.299   2.574 -0.1246  0.3551  0.0142
  669SOL    HW1 2006   2.070   2.206   2.564  0.3285 -0.5794 -0.6713
  669SOL    HW2 2007   2.018   2.325   2.671  0.2038  0.9614 -1.2331
  670SOL     OW 2008   2.186   1.027   1.865 -0.2863 -0.3000  0.2399
  670SOL    HW1 2009   2.144   1.054   1.954 -0.2150  2.5341 -1.5244
  670SOL    HW2 2010   2.219   1.110   1.810  2.8252  0.0652 -1.9736
  671SOL     OW 2011   2.506   1.197   0.352 -0.0304  0.2055  0.1990
  671SOL    HW1 2012   2.542   1.239   0.266  0.9830  0.6793 -2.0344
  671SOL    HW2 2013   2.445   1.260   0.397 -0.5473 -0.2414 -1.7796
  672SOL     OW 2014   2.458   0.931   1.997 -0.3937  0.5993 -0.2119
  672SOL    HW1 2015   2.368   0.963   1.970  0.0753  2.8864 -0.7697
  672SOL    HW2 2016   2.523   1.006   1.984 -3.4235 -0.4162  1.5154
  673SOL     OW 2017   2.761   0.661   1.513 -0.1806  0.2889 -0.5364
  673SOL    HW1 2018   2.804   0.752   1.490 -0.1483  1.0951 -0.4194
  673SOL    HW2 2019   2.751   0.652   1.611 -0.8782 -0.5644  0.3982
  674SOL     OW 2020   2.053   1.905   1.406 -0.2051 -0.5539 -0.3040
  674SOL    HW1 2021   1.990   1.877   1.332  1.4188 -0.5449 -0.8355
  674SOL    HW2 2022   2.012   1.980   1.468 -2.0519  3.6083  4.0402
  675SOL     OW 2023   0.739   0.657   0.833  0.6637  0.1549  0.5192
  675SOL    HW1 2024   0.655   0.624   0.880 -1.4712 -3.9447 -3.1262
  675SOL    HW2 2025   0.771   0.584   0.767 -2.3549  2.9666  0.0378
  676SOL     OW 2026   1.625   1.188   1.108 -0.0664 -0.2353 -0.1687
  676SOL    HW1 2027   1.571   1.245   1.044 -1.9249  0.0945 -2.5938
  676SOL    HW2 2028   1.565   1.163   1.186 -0.4295  1.2642 -0.3761
  677SOL     OW 2029   2.538   1.553   2.277  0.3032  0.2406 -0.6758
  677SOL    HW1 2030   2.473   1.503   2.216 -1.2580 -0.4612 -0.2469
  677SOL    HW2 2031   2.506   1.647   2.300 -1.2005  0.5242  2.0084
  678SOL     OW 2032   2.890   1.620   0.821  0.2936 -0.4685  0.0899
  678SOL    HW1 2033   2.865   1.579   0.731 -2.5743  1.0922 -1.8056
  678SOL    HW2 2034   2.892   1.718   0.817  2.4261 -1.8307  1.0512
  679SOL     OW 2035   2.443   2.451   0.297  0.0805  0.1528 -0.4567
  679SOL    HW1 2036   2.369   2.479   0.362 -1.7325 -1.2014 -2.5941
  679SOL    HW2 2037   2.538   2.477   0.335  1.5870  0.9637 -1.3123
  680SOL     OW 2038   2.787   1.988   1.604  0.5493  0.5417 -0.3051
  680SOL    HW1 2039   2.816   1.908   1.553  0.4098  0.3246  0.2302
  680SOL    HW2 2040   2.819   1.983   1.700 -0.1802  0.2652 -0.5529
  681SOL     OW 2041   0.568   1.360   1.347  0.1945 -0.3476  0.5057
  681SOL    HW1 2042   0.589   1.292   1.269  1.0049 -2.4861 -1.1986
  681SOL    HW2 2043   0.612   1.327   1.430 -0.0381  2.1985  0.0789
  682SOL     OW 2044   1.645   2.459   0.770  0.5300  0.1768 -0.0253
  682SOL    HW1 2045   1.603   2.500   0.854 -1.7255  0.8104  0.1826
  682SOL    HW2 2046   1.569   2.414   0.718 -1.4871 -0.7842  0.2070
  683SOL     OW 2047   2.329   1.354   0.469 -0.1327 -0.3777 -0.7087
  683SOL    HW1 2048   2.362   1.342   0.565  2.0247 -0.8240 -3.2781
  683SOL    HW2 2049   2.336   1.454   0.437  0.4087  0.7139 -2.0890
  684SOL     OW 2050   0.695   2.166   1.860 -0.2409  0.1925  0.3748
  684SOL    HW1 2051   0.679   2.263   1.862  1.8059 -2.8289  0.6216
  684SOL    HW2 2052   0.605   2.121   1.851 -1.8398 -0.9179 -1.0753
  685SOL     OW 2053   1.970   1.349   3.034  0.0374  0.1651 -0.3260
  685SOL    HW1 2054   2.045   1.282   3.048 -2.2538 -1.4602 -5.5053
  685SOL    HW2 2055   1.920   1.319   2.953 -0.9483 -0.7509  2.7152
  686SOL     OW 2056   0.377   0.537   0.736 -0.3588  0.4131  0.2900
  686SOL    HW1 2057   0.344   0.447   0.761  0.9429  3.0588 -0.6877
  686SOL    HW2 2058   0.427   0.579   0.821  1.3219  1.9072  0.5629
  687SOL     OW 2059   1.059   2.435   2.602  0.3634  0.8055 -0.5226
  687SOL    HW1 2060   1.086   2.390   2.691  2.0259  0.1194 -0.3132
  687SOL    HW2 2061   1.121   2.402   2.526  0.4028  0.6553 -1.5066
  688SOL     OW 2062   2.367   1.679   1.630 -0.3052 -0.1634 -0.1247
  688SOL    HW1 2063   2.463   1.663   1.669  4.0623 -0.4209  2.3264
  688SOL    HW2 2064   2.362   1.776   1.596  0.9198  0.2036  0.7209
  689SOL     OW 2065   2.435   0.643   1.998  0.1877 -0.1441 -0.1730
  689SOL    HW1 2066   2.519   0.586   1.982  2.4782  2.4666  1.0166
  689SOL    HW2 2067   2.462   0.740   2.000  1.6064  1.2136  1.1267
  690SOL     OW 2068   2.114   0.790   1.326  0.1979  0.5802 -0.1428
  690SOL    HW1 2069   2.011   0.768   1.331 -1.1284 -3.3784 -0.5468
  690SOL    HW2 2070   2.135   0.888   1.327  2.2844 -4.0927  0.3653
  691SOL     OW 2071   1.026   1.917   1.397  0.1471 -0.6658 -0.2928
  691SOL    HW1 2072   0.956   1.866   1.352 -0.8404  1.1674 -2.0927
  691SOL    HW2 2073   0.988   2.007   1.417  1.8203 -1.5584  1.2611
  692SOL     OW 2074   1.760   0.236   1.373  0.4502  0.6084 -0.0251
  692SOL    HW1 2075   1.738   0.252   1.474  2.4252  0.7840  3.1876
  692SOL    HW2 2076   1.845   0.184   1.366  1.1581 -0.0776  0.4332
  693SOL     OW 2077   0.612   1.101   2.517  0.0086 -0.5114  0.1353
  693SOL    HW1 2078   0.613   0.997   2.522 -0.4808 -0.2764  2.5714
  693SOL    HW2 2079   0.517   1.136   2.530 -0.0576 -0.3662  0.5676
  694SOL     OW 2080   1.818   2.680   1.368 -0.2189  0.1906 -0.0407
  694SOL    HW1 2081   1.786   2.658   1.273  3.1850  0.1520 -0.4034
  694SOL    HW2 2082   1.884   2.752   1.363 -2.5766 -0.5182 -1.1821
  695SOL     OW 2083   1.554   1.313   1.996  0.5184 -0.3287 -0.2392
  695SOL    HW1 2084   1.497   1.320   1.907  1.2681 -2.1735 -1.1347
  695SOL    HW2 2085   1.614   1.396   2.011 -0.6017 -2.4310  0.4449
  696SOL     OW 2086   1.736   0.318   1.076  0.4514  0.4635 -0.3424
  696SOL    HW1 2087   1.808   0.279   1.024 -2.5001  0.3515  0.2250
  696SOL    HW2 2088   1.734   0.295   1.173  0.9259  1.0634 -0.7557
  697SOL     OW 2089   1.238   0.115   1.098 -0.1520 -0.1412 -0.0001
  697SOL    HW1 2090   1.184   0.105   1.184  2.5761 -0.8538 -1.1226
  697SOL    HW2 2091   1.304   0.190   1.101 -1.2892  0.2279  1.1014
  698SOL     OW 2092   1.729   1.104   1.955 -0.5137 -0.0957  0.1989
  698SOL    HW1 2093   1.823   1.137   1.920  1.4788 -0.4406 -0.6287
  698SOL    HW2 2094   1.671   1.184   1.981 -0.3032 -1.4437  0.0464
  699SOL     OW 2095   1.484   1.128   1.317 -0.0838 -0.6615 -0.2781
  699SOL    HW1 2096   1.396   1.079   1.335  0.8605 -2.0513  1.0101
  699SOL    HW2 2097   1.560   1.085   1.363 -0.9316  0.9922 -0.6763
  700SOL     OW 2098   1.463   0.074   0.371  0.1930  0.2821  0.3204
  700SOL    HW1 2099   1.490   0.170   0.348  1.8975 -0.3182  2.0183
  700SOL    HW2 2100   1.402   0.035   0.302  0.9926 -1.0696  2.0048
  701SOL     OW 2101   0.384   3.029   1.718 -0.6353  0.4035  0.1587
  701SOL    HW1 2102   0.437   0.041   1.689 -0.7152 -1.8300 -0.8387
  701SOL    HW2 2103   0.359   2.961   1.644  0.7103  0.7018  0.3515
  702SOL     OW 2104   1.351   2.676   0.281  0.4970  0.3290  0.0414
  702SOL    HW1 2105   1.354   2.758   0.343  1.1109  0.0912  1.8784
  702SOL    HW2 2106   1.442   2.652   0.245  1.1451  0.2445 -0.0867
  703SOL     OW 2107   2.537   0.232   2.027  0.3138 -0.1777 -0.4083
  703SOL    HW1 2108   2.505   0.303   2.096  0.3882 -1.0375  0.3149
  703SOL    HW2 2109   2.498   0.137   2.032  1.6109  0.9147 -0.9660
  704SOL     OW 2110   1.232   2.118   1.070  0.5956 -0.0461  0.1618
  704SOL    HW1 2111   1.309   2.120   1.137  2.5034  0.2431  2.4954
  704SOL    HW2 2112   1.154   2.174   1.117 -3.0337  3.4363  1.6304
  705SOL     OW 2113   0.074   0.988   2.180 -0.2411  0.1359 -0.1550
  705SOL    HW1 2114   0.016   0.965   2.261  3.3596  2.1767 -1.6070
  705SOL    HW2 2115   0.022   1.038   2.104  2.1028  1.9011 -2.2287
  706SOL     OW 2116   1.381   0.156   0.649  0.3914 -0.3021 -0.5581
  706SOL    HW1 2117   1.281   0.152   0.661 -2.0520  1.6731  0.0218
  706SOL    HW2 2118   1.409   0.116   0.554 -1.0744 -0.3730 -1.2821
  707SOL     OW 2119   1.199   2.052   2.503 -0.0164  0.0599 -0.0277
  707SOL    HW1 2120   1.117   2.014   2.552 -0.1119 -0.7291  1.3058
  707SOL    HW2 2121   1.237   1.978   2.450 -0.3918 -2.9820  1.3563
  708SOL     OW 2122   3.007   2.106   1.313 -0.2670 -0.4141 -0.0599
  708SOL    HW1 2123   2.904   2.084   1.315  0.4330 -2.2248  3.1614
  708SOL    HW2 2124   3.053   2.077   1.403 -0.2552  0.3250  2.0126
  709SOL     OW 2125   1.925   0.444   1.672  0.7551  0.0994  0.0087
  709SOL    HW1 2126   2.008   0.402   1.712  0.1018 -1.4434  0.0506
  709SOL    HW2 2127   1.913   0.542   1.702  2.0850 -2.5970 -0.7480
  710SOL     OW 2128   2.825   0.066   1.497 -0.7946 -0.4058 -0.0994
  710SOL    HW1 2129   2.784   0.082   1.404 -1.9316  0.2474  3.4548
  710SOL    HW2 2130   2.799   0.140   1.570 -1.6889  2.5726 -0.5321
  711SOL     OW 2131   0.397   2.435   0.753  0.3475 -0.4332  0.1251
  711SOL    HW1 2132   0.473   2.369   0.764 -1.4905  5.3795 -2.3703
  711SOL    HW2 2133   0.314   2.390   0.780  2.6983  2.2048 -0.6129
  712SOL     OW 2134   0.195   1.973   2.406 -0.0058 -0.5609  0.6232
  712SOL    HW1 2135   0.244   2.055   2.367 -0.9697 -0.2642 -0.5902
  712SOL    HW2 2136   0.257   1.906   2.452 -1.9290  3.4284 -0.4138
  713SOL     OW 2137   1.629   0.644   0.261  0.1181 -0.4214  0.2529
  713SOL    HW1 2138   1.550   0.585   0.229  0.9823  2.1533  0.2278
  713SOL    HW2 2139   1.675   0.691   0.183  2.4008 -1.2452 -1.1567
  714SOL     OW 2140   1.476   1.841   0.237  0.5014  0.2015  0.2251
  714SOL    HW1 2141   1.539   1.922   0.243 -0.2958 -0.8244  0.0629
  714SOL    HW2 2142   1.413   1.853   0.156 -0.6313  3.6520 -0.0351
  715SOL     OW 2143   2.339   0.045   0.428 -0.4358 -0.2652 -1.3534
  715SOL    HW1 2144   2.425   3.062   0.423 -0.1964 -0.1721 -0.0864
  715SOL    HW2 2145   2.351   0.131   0.481 -0.8866  1.0284 -1.9874
  716SOL     OW 2146   0.521   0.528   2.317  0.3775 -0.7407  0.5159
  716SOL    HW1 2147   0.562   0.532   2.411  1.7192 -1.7830  1.2618
  716SOL    HW2 2148   0.429   0.572   2.310 -0.6529 -0.9311 -0.4569
  717SOL     OW 2149   0.180   0.303   2.729 -0.0444 -0.0888  0.2631
  717SOL    HW1 2150   0.207   0.204   2.741  1.5702 -0.1885  0.7559
  717SOL    HW2 2151   0.100   0.316   2.665 -3.1772 -2.8648 -0.4456
  718SOL     OW 2152   0.987   0.812   0.268  0.0898  0.0557 -0.1300
  718SOL    HW1 2153   1.082   0.788   0.231 -1.3502  0.9205 -2.0134
  718SOL    HW2 2154   0.995   0.827   0.369 -0.7899 -0.5389 -0.0519
  719SOL     OW 2155   2.503   2.061   2.914 -0.0791 -0.0269  0.8673
  719SOL    HW1 2156   2.479   1.984   2.850  1.2631 -2.0949 -0.2995
  719SOL    HW2 2157   2.604   2.062   2.937  1.4752 -1.7997  0.2438
  720SOL     OW 2158   1.249   0.983   1.139  0.2482 -0.3707 -0.3720
  720SOL    HW1 2159   1.274   1.030   1.052 -1.0833  0.6543 -0.0519
  720SOL    HW2 2160   1.156   0.930   1.140 -1.4799 -1.3310  2.1986
  721SOL     OW 2161   2.941   0.736   0.584 -0.2057  0.3801 -0.7166
  721SOL    HW1 2162   2.834   0.751   0.585 -0.7601  1.4378 -0.0095
  721SOL    HW2 2163   3.001   0.816   0.592 -1.3993 -0.5955  0.3427
  722SOL     OW 2164   0.960   1.951   2.574  0.0566 -0.3732 -0.5465
  722SOL    HW1 2165   0.963   1.896   2.660  0.2123 -2.2246  0.9656
  722SOL    HW2 2166   0.928   2.045   2.596  2.0026  2.1269  0.1252
  723SOL     OW 2167   0.530   0.882   0.419 -0.2529  0.0712  0.4260
  723SOL    HW1 2168   0.571   0.897   0.511  1.4393  0.5238  1.7308
  723SOL    HW2 2169   0.477   0.962   0.380 -1.1064  2.1226 -0.0255
  724SOL     OW 2170   1.013   1.957   1.671  0.2139  0.1178  0.6761
  724SOL    HW1 2171   0.996   1.916   1.578 -0.4151 -0.0395 -1.4420
  724SOL    HW2 2172   0.954   2.040   1.673  0.2624 -2.2819 -1.5959
  725SOL     OW 2173   0.043   1.049   1.415  0.1033  0.1006  0.5496
  725SOL    HW1 2174   0.129   1.012   1.368  2.1846  1.1006  0.1637
  725SOL    HW2 2175   0.072   1.118   1.483 -1.3901  1.8939 -0.3506
  726SOL     OW 2176   1.715   0.391   0.559  0.3228  0.2434  0.2475
  726SOL    HW1 2177   1.682   0.334   0.639  1.2911  0.3506  0.4629
  726SOL    HW2 2178   1.749   0.476   0.596 -0.5776 -0.0067  1.6089
  727SOL     OW 2179   1.567   0.898   2.231 -0.6126  0.1549 -0.4345
  727SOL    HW1 2180   1.536   0.991   2.203 -0.0083 -2.1947 -1.1272
  727SOL    HW2 2181   1.526   0.824   2.172 -2.9141 -0.6144 -1.3248
  728SOL     OW 2182   1.627   2.395   1.295  0.0660  0.0232  0.2237
  728SOL    HW1 2183   1.700   2.361   1.360  1.7804  0.8797 -0.5586
  728SOL    HW2 2184   1.658   2.483   1.258  1.0484  2.3199  0.7471
  729SOL     OW 2185   1.211   0.533   1.477 -0.1660 -0.4489  0.1765
  729SOL    HW1 2186   1.236   0.524   1.377  0.2487  2.1030  0.8402
  729SOL    HW2 2187   1.273   0.477   1.530  0.6798  2.0773 -1.6760
  730SOL     OW 2188   0.709   1.930   1.739 -0.0625 -0.0064  0.1049
  730SOL    HW1 2189   0.677   1.926   1.644  2.1398  3.9775  2.8089
  730SOL    HW2 2190   0.718   2.024   1.779 -0.6066  1.7113 -0.4544
  731SOL     OW 2191   0.302   0.308   0.198  0.1567  0.2877  0.3326
  731SOL    HW1 2192   0.331   0.263   0.286 -2.0103 -1.2666  1.3439
  731SOL    HW2 2193   0.358   0.264   0.121 -0.0215  0.5292 -1.8039
  732SOL     OW 2194   0.539   0.594   2.912 -0.1433  0.1773  0.9591
  732SOL    HW1 2195   0.486   0.521   2.859 -1.6197 -0.8594 -0.3202
  732SOL    HW2 2196   0.524   0.595   3.012 -1.2112  0.6874 -1.8745
  733SOL     OW 2197   1.411   2.009   1.396 -0.2188  0.0414 -0.3297
  733SOL    HW1 2198   1.318   1.969   1.400 -0.2812 -0.3551  0.5832
  733SOL    HW2 2199   1.469   1.946   1.452  1.2609  1.9169  0.0412
  734SOL     OW 2200   2.972   2.700   2.602  0.3358  0.0440  0.3811
  734SOL    HW1 2201   2.927   2.613   2.623  0.4833  2.2057 -0.9821
  734SOL    HW2 2202   2.953   2.761   2.682 -2.5644 -2.7683 -2.0200
  735SOL     OW 2203   0.852   2.713   0.812 -0.1847  0.5233 -0.4207
  735SOL    HW1 2204   0.926   2.775   0.844 -0.7927 -0.8633 -0.6351
  735SOL    HW2 2205   0.846   2.714   0.709  0.5329 -0.1124  0.5101
  736SOL     OW 2206   1.547   0.826   2.713  0.3094 -0.1721  0.6046
  736SOL    HW1 2207   1.465   0.799   2.654 -0.4084  1.2903  0.3288
  736SOL    HW2 2208   1.521   0.887   2.789  2.1194  0.2149 -0.7876
  737SOL     OW 2209   3.038   0.601   0.370 -0.1035  0.0620 -0.2451
  737SOL    HW1 2210   0.012   0.510   0.398 -1.5046  1.1941  0.1719
  737SOL    HW2 2211   3.016   0.656   0.450 -0.2121  0.5048  0.9567
  738SOL     OW 2212   3.004   2.257   1.672 -0.1273  0.0579 -0.6510
  738SOL    HW1 2213   2.905   2.275   1.651 -0.1053 -1.7699 -1.4098
  738SOL    HW2 2214   3.057   2.345   1.680 -0.8662 -0.9414  2.2988
  739SOL     OW 2215   1.669   2.826   0.786  0.3557 -0.4379  0.4733
  739SOL    HW1 2216   1.568   2.805   0.800 -1.6913  0.0295  0.0625
  739SOL    HW2 2217   1.685   2.916   0.818 -1.2171 -2.7186  1.4825
  740SOL     OW 2218   1.531   2.923   1.314 -0.2172 -0.0996  0.2541
  740SOL    HW1 2219   1.630   2.913   1.305  1.9431 -0.6289 -1.1048
  740SOL    HW2 2220   1.492   2.841   1.360  1.4759 -2.4084 -0.8277
  741SOL     OW 2221   2.059   0.445   0.893  0.5602 -0.2314 -0.0176
  741SOL    HW1 2222   2.012   0.535   0.908  1.6214 -2.1657  0.9740
  741SOL    HW2 2223   2.151   0.449   0.941 -1.0725 -1.3712  0.4865
  742SOL     OW 2224   1.552   1.986   2.122 -0.2950  0.2791 -0.5972
  742SOL    HW1 2225   1.557   2.089   2.144  0.0282  2.0570  1.3226
  742SOL    HW2 2226   1.483   1.964   2.052  1.1570 -0.2413  0.2263
  743SOL     OW 2227   2.381   0.557   1.650  0.0132 -0.1249 -0.1933
  743SOL    HW1 2228   2.333   0.527   1.738 -1.1858 -0.4659  0.3842
  743SOL    HW2 2229   2.416   0.656   1.648 -1.7199  1.5701 -1.1929
  744SOL     OW 2230   2.312   0.495   1.041 -0.6721  0.1208  0.6197
  744SOL    HW1 2231   2.317   0.575   0.983 -0.8770 -1.1746 -0.1594
  744SOL    HW2 2232   2.306   0.521   1.137 -0.4149 -1.0166 -1.1031
  745SOL     OW 2233   2.099   1.651   1.565  0.7327  0.0358  0.2031
  745SOL    HW1 2234   2.090   1.750   1.541  1.6463 -0.8293 -1.0835
  745SOL    HW2 2235   2.194   1.638   1.594 -2.3407  0.6503 -0.0117
  746SOL     OW 2236   0.979   1.621   0.819  0.2309  0.2102 -0.3138
  746SOL    HW1 2237   0.930   1.543   0.867 -2.6166 -1.3245 -0.8986
  746SOL    HW2 2238   1.029   1.684   0.886  0.5690  0.0562 -1.0911
  747SOL     OW 2239   1.827   1.258   0.947  0.4324  0.1465  0.3783
  747SOL    HW1 2240   1.761   1.233   1.021 -0.8962 -1.0551  1.4648
  747SOL    HW2 2241   1.905   1.317   0.988  0.2283  5.6378  2.8308
  748SOL     OW 2242   0.168   0.023   0.180 -0.0571 -0.8033  0.3059
  748SOL    HW1 2243   0.170   0.096   0.251 -0.1638 -2.7655  3.1579
  748SOL    HW2 2244   0.242   3.028   0.204  0.5820  0.8482 -0.7824
  749SOL     OW 2245   0.167   0.287   2.398 -0.1546 -0.2786 -0.1235
  749SOL    HW1 2246   0.138   0.303   2.300  0.6260 -2.2132 -0.1134
  749SOL    HW2 2247   0.207   0.373   2.440 -1.7931 -0.4101  0.5406
  750SOL     OW 2248   1.830   0.006   1.579 -0.1772  1.0569 -0.1917
  750SOL    HW1 2249   1.805   0.100   1.603  1.6081 -1.8148 -1.7365
  750SOL    HW2 2250   1.745   3.019   1.604 -0.3158 -0.7423  2.1174
  751SOL     OW 2251   2.803   0.319   0.577  0.0440  0.2797  0.3873
  751SOL    HW1 2252   2.771   0.391   0.514 -1.5405 -0.1840 -2.3462
  751SOL    HW2 2253   2.780   0.329   0.676  0.2265 -1.3458 -0.5094
  752SOL     OW 2254   0.265   2.904   1.185  0.0816  0.4227  0.4926
  752SOL    HW1 2255   0.257   2.802   1.178 -0.2102 -1.5597  1.1300
  752SOL    HW2 2256   0.194   2.952   1.132 -0.6520 -1.0858  0.5011
  753SOL     OW 2257   1.012   0.231   1.750 -0.2575 -0.3243 -0.0473
  753SOL    HW1 2258   1.105   0.228   1.797  1.3483  0.7708 -0.4157
  753SOL    HW2 2259   1.014   0.288   1.659  2.3791  1.2292 -1.4153
  754SOL     OW 2260   0.978   2.696   1.930 -0.6551  0.1124  0.2452
  754SOL    HW1 2261   1.047   2.696   2.011  2.5561  0.4268  1.7548
  754SOL    HW2 2262   0.885   2.684   1.968  1.6175  1.1782  0.4181
  755SOL     OW 2263   2.693   1.129   0.540 -0.5138  0.6004 -0.0833
  755SOL    HW1 2264   2.683   1.173   0.627  0.5247 -2.4155  0.0665
  755SOL    HW2 2265   2.614   1.157   0.476 -2.3949 -0.3387 -1.0442
  756SOL     OW 2266   1.773   1.793   2.612  0.0546  0.0354 -0.1551
  756SOL    HW1 2267   1.761   1.879   2.675  0.6022  2.4808  0.5933
  756SOL    HW2 2268   1.825   1.722   2.663 -0.0274 -1.4678  2.2044
  757SOL     OW 2269   2.028   0.035   0.720 -0.1639  0.1471 -0.3678
  757SOL    HW1 2270   2.041   3.006   0.731 -1.6428 -0.2582 -0.1649
  757SOL    HW2 2271   1.958   0.045   0.645 -0.3733  2.1214 -0.2518
  758SOL     OW 2272   1.250   2.609   0.712  0.3467 -0.3320 -0.0774
  758SOL    HW1 2273   1.184   2.586   0.638  3.5609 -1.2479 -2.0950
  758SOL    HW2 2274   1.328   2.544   0.697 -3.5231  2.0666  1.0285
  759SOL     OW 2275   2.583   0.391   1.189  0.2994  0.2720  0.0967
  759SOL    HW1 2276   2.598   0.331   1.107 -0.3135 -0.6280 -0.1666
  759SOL    HW2 2277   2.488   0.380   1.223 -0.2243 -0.4796 -0.9728
  760SOL     OW 2278   2.179   1.060   1.311  0.2264  0.0560 -0.0556
  760SOL    HW1 2279   2.191   1.061   1.213 -0.4758  1.3449  1.7510
  760SOL    HW2 2280   2.241   1.119   1.363 -1.6687  2.2522  0.9056
  761SOL     OW 2281   0.594   0.870   0.693 -0.2070  0.5876  0.4477
  761SOL    HW1 2282   0.540   0.895   0.775  2.1351 -1.6109  0.3707
  761SOL    HW2 2283   0.656   0.790   0.715  0.2591 -2.7341 -3.0871
  762SOL     OW 2284   2.206   1.689   1.282  0.6287  0.1680  0.0181
  762SOL    HW1 2285   2.113   1.656   1.277  0.9736 -0.7556 -3.0210
  762SOL    HW2 2286   2.207   1.794   1.292 -0.1076  0.6630 -2.3217
  763SOL     OW 2287   1.236   1.529   1.665  0.2424  0.1208  0.0831
  763SOL    HW1 2288   1.243   1.535   1.564 -0.6168  0.0590  2.4006
  763SOL    HW2 2289   1.289   1.600   1.714 -0.1184 -2.6225 -0.5056
  764SOL     OW 2290   0.160   1.846   2.136 -0.2925 -0.5058 -0.1034
  764SOL    HW1 2291   0.139   1.758   2.097  2.0052  1.6741 -4.8494
  764SOL    HW2 2292   0.141   1.859   2.235  2.3012 -2.3221  1.3741
  765SOL     OW 2293   1.347   2.496   1.293  0.2039 -0.3732  0.2369
  765SOL    HW1 2294   1.292   2.441   1.364  0.7438  0.9236  2.8227
  765SOL    HW2 2295   1.435   2.455   1.274 -2.9651 -1.4736  1.3441
  766SOL     OW 2296   0.180   2.443   2.432 -0.4001  0.0037 -0.7384
  766SOL    HW1 2297   0.193   2.517   2.502 -2.5997  1.9482  0.2079
  766SOL    HW2 2298   0.139   2.487   2.349  1.3595 -2.2120  3.6776
  767SOL     OW 2299   1.380   0.866   2.496  0.2363 -0.4004 -0.2397
  767SOL    HW1 2300   1.297   0.805   2.502  1.7547  0.0382 -1.7709
  767SOL    HW2 2301   1.442   0.845   2.421 -1.7947  0.1886 -0.5842
  768SOL     OW 2302   1.333   2.303   2.995  0.0330 -0.1836 -0.1211
  768SOL    HW1 2303   1.255   2.340   3.056 -1.0910 -0.2672  0.9201
  768SOL    HW2 2304   1.379   2.229   3.050 -0.6750  0.2429 -1.7744
  769SOL     OW 2305   3.036   2.761   1.447 -0.0523 -0.7290 -0.4049
  769SOL    HW1 2306   2.979   2.761   1.360 -1.4536 -0.5965 -1.7245
  769SOL    HW2 2307   0.061   2.725   1.424 -2.3033 -0.1302  0.6651
  770SOL     OW 2308   1.146   0.252   2.752 -0.1464  0.0072 -0.2953
  770SOL    HW1 2309   1.047   0.222   2.754 -0.1052  0.0777 -1.4025
  770SOL    HW2 2310   1.150   0.345   2.794 -0.9834  0.0481  1.0529
  771SOL     OW 2311   0.323   0.079   2.403 -0.4036  0.1866 -0.3169
  771SOL    HW1 2312   0.268   0.018   2.335 -2.4558 -1.8171  1.5204
  771SOL    HW2 2313   0.275   0.169   2.414  0.1861 -1.6304 -0.4472
  772SOL     OW 2314   2.406   0.008   1.952  0.0899  0.1076 -0.2689
  772SOL    HW1 2315   2.432   0.021   1.854  1.5448 -0.5109 -1.0593
  772SOL    HW2 2316   2.445   2.991   1.989  0.2313 -0.2360  1.6864
  773SOL     OW 2317   0.940   2.341   1.693  0.0543 -0.1465 -0.3646
  773SOL    HW1 2318   0.921   2.364   1.791  1.0642  0.9486  1.8675
  773SOL    HW2 2319   0.864   2.392   1.639 -1.3506  1.7522  0.1709
  774SOL     OW 2320   1.108   0.486   1.907 -0.2649 -0.2519 -0.3095
  774SOL    HW1 2321   1.015   0.458   1.939 -0.3965  0.7963  1.5252
  774SOL    HW2 2322   1.175   0.410   1.907 -0.5386 -0.9450 -0.9855
  775SOL     OW 2323   2.110   2.855   2.907 -0.0747 -0.0387 -0.3976
  775SOL    HW1 2324   2.058   2.884   2.990 -0.2100  2.7256  1.0611
  775SOL    HW2 2325   2.202   2.898   2.908 -0.8949 -0.0507  1.3100
  776SOL     OW 2326   2.047   0.563   2.145  0.1587 -0.0055 -0.3153
  776SOL    HW1 2327   1.958   0.610   2.152 -2.7955  1.9997  0.4042
  776SOL    HW2 2328   2.093   0.570   2.053 -0.2000  0.6053 -1.0401
  777SOL     OW 2329   2.403   1.289   2.398 -0.0500 -0.2043  0.0167
  777SOL    HW1 2330   2.461   1.239   2.467  0.7065 -1.5382  2.1151
  777SOL    HW2 2331   2.408   1.391   2.399 -0.2359  1.4163  0.2230
  778SOL     OW 2332   1.785   0.637   2.185 -0.4486 -0.4131 -0.0708
  778SOL    HW1 2333   1.795   0.680   2.097  1.2836  1.9624  0.4615
  778SOL    HW2 2334   1.702   0.674   2.233 -2.9376  2.3379  0.0268
  779SOL     OW 2335   0.138   0.075   2.998 -0.1653  0.4630 -0.3744
  779SOL    HW1 2336   0.149   0.055   0.031 -1.7643 -0.1862 -1.1622
  779SOL    HW2 2337   0.046   0.109   2.974  0.5761 -2.1556 -0.1054
  780SOL     OW 2338   2.152   0.416   2.909 -0.0931  0.4564 -0.0610
  780SOL    HW1 2339   2.206   0.336   2.878 -1.8117 -0.1113  0.1923
  780SOL    HW2 2340   2.202   0.503   2.910 -1.4048 -0.4191 -1.7073
  781SOL     OW 2341   0.383   2.848   1.533  0.4445 -0.5752  0.2806
  781SOL    HW1 2342   0.383   2.928   1.470  2.8877 -1.7665  1.5914
  781SOL    HW2 2343   0.309   2.778   1.502 -1.7475 -2.1286  0.9855
  782SOL     OW 2344   1.918   2.405   0.200 -0.0648  0.0259 -0.0349
  782SOL    HW1 2345   1.912   2.474   0.279 -0.4015 -0.4840  3.4877
  782SOL    HW2 2346   1.958   2.454   0.117 -0.6878 -2.9372  1.9771
  783SOL     OW 2347   0.755   1.506   1.698  0.4233  1.0107 -0.2799
  783SOL    HW1 2348   0.812   1.473   1.619  0.4538  0.1875 -1.1795
  783SOL    HW2 2349   0.683   1.436   1.714  0.2518  1.3818  1.8025
  784SOL     OW 2350   1.482   0.759   2.021  0.0951  0.3057 -0.0580
  784SOL    HW1 2351   1.535   0.712   1.949  0.5922 -1.2106 -0.5438
  784SOL    HW2 2352   1.415   0.698   2.054  2.6539  4.4067 -1.9632
  785SOL     OW 2353   2.588   0.199   0.993  0.0922  0.2263  0.0303
  785SOL    HW1 2354   2.486   0.221   0.977  1.1373  0.4377  1.4060
  785SOL    HW2 2355   2.618   0.114   0.944 -2.3074  0.7668  1.1005
  786SOL     OW 2356   1.415   2.729   1.435  0.0343  0.5689  0.7598
  786SOL    HW1 2357   1.448   2.691   1.521 -0.5342 -0.3803 -1.3161
  786SOL    HW2 2358   1.371   2.662   1.374  0.3766  1.3191 -1.7847
  787SOL     OW 2359   1.521   0.128   1.311  0.2725  0.7152 -0.0975
  787SOL    HW1 2360   1.529   0.030   1.301  1.6977  1.8585  2.7991
  787SOL    HW2 2361   1.609   0.163   1.351  0.0143  2.5145  0.5962
  788SOL     OW 2362   2.923   1.072   0.162 -0.1594 -0.6190 -0.6585
  788SOL    HW1 2363   3.000   1.027   0.114  0.3498 -0.5343  1.9807
  788SOL    HW2 2364   2.949   1.095   0.257 -1.0269  0.2348 -0.0875
  789SOL     OW 2365   0.262   1.564   1.940 -0.4772  0.2735 -0.2044
  789SOL    HW1 2366   0.333   1.554   2.008  0.5384 -0.2887 -0.1391
  789SOL    HW2 2367   0.310   1.584   1.851  1.0822  1.6942 -3.7222
  790SOL     OW 2368   0.115   0.554   2.545 -0.6463  0.0759 -0.1378
  790SOL    HW1 2369   0.112   0.639   2.607 -0.9779  4.0262  1.7130
  790SOL    HW2 2370   0.037   0.500   2.561 -0.8602 -0.2275  0.6039
  791SOL     OW 2371   2.210   0.841   0.665  0.5086  0.0832 -0.1365
  791SOL    HW1 2372   2.123   0.785   0.664 -0.0266  0.6012 -0.8253
  791SOL    HW2 2373   2.186   0.938   0.639 -0.3599  3.6844  0.5131
  792SOL     OW 2374   1.163   2.864   1.421  0.2362  0.1713  0.0777
  792SOL    HW1 2375   1.082   2.802   1.411  0.4911 -1.7926 -0.9800
  792SOL    HW2 2376   1.253   2.816   1.428  2.1770  3.4997 -2.2515
  793SOL     OW 2377   0.563   2.878   1.106 -0.0056 -0.1173 -0.1785
  793SOL    HW1 2378   0.476   2.911   1.144  2.0095 -1.4242  2.7440
  793SOL    HW2 2379   0.563   2.882   1.001  1.3244 -0.7740 -0.5806
  794SOL     OW 2380   0.275   0.643   2.344  0.0914 -0.0203 -0.4249
  794SOL    HW1 2381   0.219   0.615   2.428 -0.9526  0.8203  0.4152
  794SOL    HW2 2382   0.220   0.617   2.261 -0.1345 -0.5116  2.1921
  795SOL     OW 2383   0.442   2.359   2.648 -0.2099 -0.0688 -0.8008
  795SOL    HW1 2384   0.401   2.264   2.638 -1.0021 -1.9193  4.5880
  795SOL    HW2 2385   0.500   2.389   2.568  0.8163 -0.1685  0.6697
  796SOL     OW 2386   2.152   0.524   2.396  0.1077  0.1348 -0.0010
  796SOL    HW1 2387   2.143   0.600   2.465  0.5791  1.5318 -0.8040
  796SOL    HW2 2388   2.130   0.558   2.303  1.1316 -0.6783  1.5954
  797SOL     OW 2389   2.378   2.496   2.484 -0.5603 -0.5841 -0.3287
  797SOL    HW1 2390   2.480   2.493   2.500  1.1867 -3.0848  1.6545
  797SOL    HW2 2391   2.341   2.585   2.510 -1.6773 -1.0017  2.3986
  798SOL     OW 2392   0.199   0.265   2.117  0.1212 -0.3698 -0.6686
  798SOL    HW1 2393   0.288   0.289   2.072 -1.0331 -1.6379 -1.8989
  798SOL    HW2 2394   0.171   0.169   2.096  2.4777 -0.4624 -1.6877
  799SOL     OW 2395   0.717   2.448   1.919  0.0613 -0.2115  0.0333
  799SOL    HW1 2396   0.803   2.422   1.970  0.2551  0.9847  0.2849
  799SOL    HW2 2397   0.648   2.490   1.984 -1.1820  0.3201  1.7117
  800SOL     OW 2398   3.023   2.247   0.227  0.1828 -0.1894 -0.7010
  800SOL    HW1 2399   3.007   2.180   0.307 -0.5921 -1.8820  1.3128
  800SOL    HW2 2400   0.001   2.329   0.269  0.7205  0.1656 -3.0306
  801SOL     OW 2401   1.868   1.658   0.754  0.6275  0.1180  0.0040
  801SOL    HW1 2402   1.925   1.637   0.673  1.0717 -1.9931  0.1964
  801SOL    HW2 2403   1.780   1.700   0.724 -1.2356 -1.1114 -1.3700
  802SOL     OW 2404   0.448   0.143   0.488  0.2318 -0.0181  0.5247
  802SOL    HW1 2405   0.513   0.082   0.437  2.4457 -0.3543 -1.1758
  802SOL    HW2 2406   0.443   0.110   0.585  1.0063 -1.2948  0.3590
  803SOL     OW 2407   1.377   1.319   1.733 -0.7470  0.0816  0.6986
  803SOL    HW1 2408   1.465   1.372   1.711  2.8443  1.0277  1.0121
  803SOL    HW2 2409   1.300   1.383   1.703  0.7972  2.8919  1.6838
  804SOL     OW 2410   1.714   1.963   0.930  0.0504  0.5093 -0.0845
  804SOL    HW1 2411   1.813   1.980   0.926 -1.3097 -3.1157  3.2480
  804SOL    HW2 2412   1.687   1.897   0.859 -0.5573  0.2083  1.4178
  805SOL     OW 2413   0.008   1.947   2.642 -0.3787  0.6501  0.1934
  805SOL    HW1 2414   0.008   1.858   2.683  0.2197  0.1605 -0.2610
  805SOL    HW2 2415   0.057   1.951   2.551  0.4596  1.1368 -1.0263
  806SOL     OW 2416   0.510   2.403   0.368 -0.0023  0.4029  0.8639
  806SOL    HW1 2417   0.548   2.310   0.391 -0.0765  1.1214 -2.1192
  806SOL    HW2 2418   0.433   2.421   0.433 -1.2404 -0.3344  1.4744
  807SOL     OW 2419   2.067   1.431   2.661 -0.4637  0.1870  0.3832
  807SOL    HW1 2420   2.137   1.384   2.716  3.5860  1.5269  1.8263
  807SOL    HW2 2421   2.014   1.496   2.720 -1.8796 -2.2553 -1.6510
  808SOL     OW 2422   1.450   2.185   1.193 -0.0587 -0.1415 -0.3496
  808SOL    HW1 2423   1.441   2.117   1.270  0.3393  0.9767 -2.0812
  808SOL    HW2 2424   1.521   2.253   1.216 -1.1257  0.9952  1.7128
  809SOL     OW 2425   0.206   0.727   0.292  0.0726  0.1913 -0.5089
  809SOL    HW1 2426   0.272   0.667   0.336 -1.3383  2.4172  1.6885
  809SOL    HW2 2427   0.114   0.696   0.316 -0.2464  0.8064  0.6589
  810SOL     OW 2428   1.307   1.631   3.020  0.0021 -0.1432 -0.0329
  810SOL    HW1 2429   1.238   1.554   3.017  0.8561  1.5614  1.6829
  810SOL    HW2 2430   1.388   1.599   0.003 -3.6980  1.0269  1.6687
  811SOL     OW 2431   1.783   2.226   1.038 -0.5460  0.3014  0.4023
  811SOL    HW1 2432   1.768   2.135   1.003 -0.6357  3.1458  0.6956
  811SOL    HW2 2433   1.700   2.275   1.065 -0.4083 -2.2078  1.9409
  812SOL     OW 2434   1.426   3.001   1.047  0.0607 -0.3395 -0.2310
  812SOL    HW1 2435   1.459   2.959   1.135  0.8447 -1.8549  1.3586
  812SOL    HW2 2436   1.354   0.003   1.062 -1.5250  1.8126  1.9554
  813SOL     OW 2437   0.769   0.071   1.751 -0.6417 -0.1713 -0.2142
  813SOL    HW1 2438   0.853   0.128   1.769  1.2476  1.4811  0.6258
  813SOL    HW2 2439   0.721   0.035   1.837  1.1521 -1.0280  0.9948
  814SOL     OW 2440   0.989   2.416   1.948 -0.3065  0.3992  0.0926
  814SOL    HW1 2441   1.011   2.344   2.020  1.4859 -3.9216  1.6641
  814SOL    HW2 2442   1.056   2.490   1.930  0.1314 -1.0405 -1.8240
  815SOL     OW 2443   0.521   0.144   2.587 -0.0608 -0.0146  0.0436
  815SOL    HW1 2444   0.542   0.080   2.666 -0.3253  0.4090  0.1578
  815SOL    HW2 2445   0.467   0.102   2.512 -0.0046 -0.1559  1.3068
  816SOL     OW 2446   2.117   0.679   0.064 -0.6188 -0.4080 -0.2750
  816SOL    HW1 2447   2.157   0.675   0.159  0.7028 -0.2042 -1.7686
  816SOL    HW2 2448   2.016   0.682   0.067  1.6622 -2.0446 -2.6368
  817SOL     OW 2449   2.921   2.415   2.262  0.5172  0.5151  0.0676
  817SOL    HW1 2450   2.841   2.477   2.273 -0.3244  0.6625  2.1445
  817SOL    HW2 2451   2.937   2.367   2.354 -2.2955 -1.1950  0.8165
  818SOL     OW 2452   1.021   1.215   0.383 -0.5248  0.9810 -0.5077
  818SOL    HW1 2453   1.121   1.204   0.398 -2.8040 -4.0426 -0.5389
  818SOL    HW2 2454   0.990   1.299   0.427  1.9213  1.6716 -1.1519
  819SOL     OW 2455   1.499   1.195   2.642  0.0864 -0.4415 -0.1980
  819SOL    HW1 2456   1.559   1.161   2.569  1.3204  0.4421  0.5672
  819SOL    HW2 2457   1.496   1.129   2.716 -1.2450  1.5872  1.4521
  820SOL     OW 2458   0.441   1.395   0.133 -0.7164  0.4325 -0.4342
  820SOL    HW1 2459   0.445   1.493   0.111 -2.0350 -0.3226  3.6270
  820SOL    HW2 2460   0.511   1.379   0.208  0.8177 -0.0590  1.5891
  821SOL     OW 2461   0.546   2.858   0.847 -0.7968 -0.2537  0.2009
  821SOL    HW1 2462   0.575   2.849   0.751 -0.7681 -1.1799  0.1535
  821SOL    HW2 2463   0.496   2.778   0.877 -0.5940  3.6033  0.3228
  822SOL     OW 2464   2.071   2.396   2.823 -0.5256 -0.6563  0.0957
  822SOL    HW1 2465   2.166   2.364   2.844  1.1932  1.2839 -0.6115
  822SOL    HW2 2466   2.005   2.406   2.901 -1.4259  1.1669 -0.4990
  823SOL     OW 2467   1.113   0.233   2.465  0.7299 -0.3442  0.3485
  823SOL    HW1 2468   1.175   0.156   2.434 -2.7426  0.4562 -1.8932
  823SOL    HW2 2469   1.104   0.242   2.568  0.3086 -1.9189 -0.2803
  824SOL     OW 2470   2.666   2.649   1.607 -0.5884 -1.0077  1.2010
  824SOL    HW1 2471   2.684   2.610   1.700 -0.9339 -0.2947 -0.5092
  824SOL    HW2 2472   2.714   2.736   1.579  0.3684  1.4196  1.0234
  825SOL     OW 2473   0.039   2.280   2.613 -0.4695  0.3483  0.0353
  825SOL    HW1 2474   0.098   2.320   2.538 -1.9607 -1.3518  0.5864
  825SOL    HW2 2475   0.088   2.209   2.667 -2.1817 -0.4967 -0.3486
  826SOL     OW 2476   1.634   0.339   3.024  0.2767  0.0173  0.0303
  826SOL    HW1 2477   1.729   0.366   3.028  1.2509  2.2463 -0.7932
  826SOL    HW2 2478   1.601   0.335   2.930 -0.3162 -0.5505 -0.1118
  827SOL     OW 2479   2.994   1.661   1.801  0.8869 -0.1541 -0.3560
  827SOL    HW1 2480   2.962   1.754   1.827 -0.6835 -0.1504 -0.4175
  827SOL    HW2 2481   2.931   1.580   1.826  0.8294 -0.8539  1.2837
  828SOL     OW 2482   3.051   0.131   1.237 -0.1169  0.2907  0.4194
  828SOL    HW1 2483   0.024   0.109   1.326 -0.4378  1.7205 -1.7537
  828SOL    HW2 2484   2.951   0.128   1.242  0.0128 -1.5924 -1.2165
  829SOL     OW 2485   0.806   2.310   2.366 -0.1504 -0.0400  0.4147
  829SOL    HW1 2486   0.852   2.262   2.444  0.9283  0.6999 -2.3268
  829SOL    HW2 2487   0.731   2.371   2.402  1.1845 -0.5791  1.6573
  830SOL     OW 2488   0.578   0.741   1.641 -0.5862  0.1475  0.1127
  830SOL    HW1 2489   0.652   0.800   1.678  0.9017  0.3703 -2.2506
  830SOL    HW2 2490   0.541   0.683   1.715 -0.3833 -3.0958  4.1412
  831SOL     OW 2491   2.496   1.772   2.776  0.5853 -0.3700 -0.6778
  831SOL    HW1 2492   2.543   1.789   2.685  0.2366  2.5194  0.5137
  831SOL    HW2 2493   2.557   1.761   2.858 -0.7366  0.4336  4.2274
  832SOL     OW 2494   1.787   2.431   2.841  0.2321 -0.3902  0.0012
  832SOL    HW1 2495   1.698   2.392   2.806 -1.4829 -2.3257 -0.8280
  832SOL    HW2 2496   1.834   2.493   2.777  0.0718  0.2578  0.9775
  833SOL     OW 2497   0.408   0.296   1.930  0.2286 -0.1011  0.0668
  833SOL    HW1 2498   0.429   0.235   1.851 -1.8882 -1.3514 -2.1976
  833SOL    HW2 2499   0.485   0.313   1.999 -1.4476 -0.2239 -1.3907
  834SOL     OW 2500   0.210   0.610   1.166 -0.3619 -0.2529 -0.1192
  834SOL    HW1 2501   0.287   0.545   1.178  2.6064 -1.8394  1.0205
  834SOL    HW2 2502   0.120   0.562   1.173 -0.6115 -2.7592  1.0862
  835SOL     OW 2503   2.510   0.537   0.541  0.1523 -0.0152 -0.6112
  835SOL    HW1 2504   2.460   0.629   0.535 -0.2560  0.2207 -0.6082
  835SOL    HW2 2505   2.593   0.548   0.488 -1.4755  0.0829  2.3788
  836SOL     OW 2506   1.064   2.301   0.507 -0.5505  0.4080  0.1289
  836SOL    HW1 2507   1.141   2.237   0.531 -0.0454 -0.8243 -0.0527
  836SOL    HW2 2508   1.093   2.399   0.508  1.4830 -0.0518  1.9363
  837SOL     OW 2509   1.908   1.773   0.287  0.2170  0.0111 -0.1849
  837SOL    HW1 2510   1.968   1.724   0.220  1.1849 -1.4973  0.1015
  837SOL    HW2 2511   1.853   1.708   0.340 -0.4096  0.7131 -0.9649
  838SOL     OW 2512   1.796   1.013   2.268  0.1992 -0.0978 -0.2420
  838SOL    HW1 2513   1.822   1.080   2.195  0.1037 -0.1045 -1.2643
  838SOL    HW2 2514   1.709   0.967   2.247  2.5251  0.1625  1.3960
  839SOL     OW 2515   0.938   1.465   2.448  0.4814  0.9940 -0.2210
  839SOL    HW1 2516   0.858   1.408   2.485 -3.1713 -1.1905  2.5735
  839SOL    HW2 2517   0.985   1.423   2.370 -2.4031  2.1998  3.1966
  840SOL     OW 2518   0.970   1.287   0.087 -0.2772 -0.3050  0.4093
  840SOL    HW1 2519   0.954   1.252   0.180 -0.2230  0.7602 -1.8207
  840SOL    HW2 2520   0.894   1.270   0.021 -0.3899  2.9578 -1.0547
  841SOL     OW 2521   1.567   2.164   0.276  0.1262  0.6987 -0.7216
  841SOL    HW1 2522   1.628   2.121   0.349  0.7835 -0.4530  0.4564
  841SOL    HW2 2523   1.620   2.221   0.213 -0.9705 -0.5031  2.3379
  842SOL     OW 2524   0.195   0.715   0.014  0.2173  0.1857 -0.3995
  842SOL    HW1 2525   0.146   0.625   0.016 -0.1922  0.9800  1.4644
  842SOL    HW2 2526   0.230   0.738   0.105 -4.0306 -1.9290 -2.5746
  843SOL     OW 2527   0.674   0.225   0.999 -0.7853 -0.0255  0.1811
  843SOL    HW1 2528   0.705   0.137   0.953 -0.3222  0.9027  0.2453
  843SOL    HW2 2529   0.748   0.293   1.020 -1.3967  1.0830 -1.2708
  844SOL     OW 2530   1.845   2.744   2.259 -0.3142  0.1259  0.2128
  844SOL    HW1 2531   1.934   2.705   2.230 -0.7713 -0.2419  1.5529
  844SOL    HW2 2532   1.811   2.804   2.187  0.5331 -1.5616 -0.4448
  845SOL     OW 2533   0.121   2.465   1.751  0.5629  0.1809  0.1460
  845SOL    HW1 2534   0.054   2.537   1.734  1.2839 -0.8409 -0.7314
  845SOL    HW2 2535   0.111   2.434   1.846  0.7854 -1.0944  0.7054
  846SOL     OW 2536   1.774   1.517   2.277  0.1592 -0.2789  0.4234
  846SOL    HW1 2537   1.673   1.548   2.268 -1.3348  0.3639 -0.1980
  846SOL    HW2 2538   1.809   1.493   2.189 -0.7116  0.5207  4.0980
  847SOL     OW 2539   0.137   0.561   2.132 -0.2133 -0.0863  0.4870
  847SOL    HW1 2540   0.156   0.465   2.099 -1.2002 -1.6602 -0.8227
  847SOL    HW2 2541   0.131   0.627   2.051  0.2879  0.9975 -1.6304
  848SOL     OW 2542   2.525   2.721   2.842  0.3240 -0.1851 -0.1225
  848SOL    HW1 2543   2.579   2.758   2.918 -1.0813 -0.9598 -0.4469
  848SOL    HW2 2544   2.570   2.741   2.754  0.0242 -0.6927 -1.6021
  849SOL     OW 2545   0.367   2.786   0.517 -0.3887  0.0153  0.1641
  849SOL    HW1 2546   0.460   2.794   0.557  0.7710  1.6115 -0.5817
  849SOL    HW2 2547   0.300   2.835   0.571 -0.7702  0.1445  1.3152
  850SOL     OW 2548   0.853   2.315   0.726 -0.8266 -0.5272 -0.0161
  850SOL    HW1 2549   0.901   2.307   0.635  2.1460  0.0732 -1.1852
  850SOL    HW2 2550   0.911   2.365   0.792  1.9208 -2.0926  0.8328
  851SOL     OW 2551   1.726   0.478   2.606  0.4118  0.6998  0.3496
  851SOL    HW1 2552   1.733   0.571   2.561 -3.8682  1.3815 -0.2128
  851SOL    HW2 2553   1.823   0.443   2.619  2.1020 -1.0624 -1.5083
  852SOL     OW 2554   1.484   2.814   2.703 -0.0333 -0.1854  0.1196
  852SOL    HW1 2555   1.506   2.765   2.613  3.7085 -0.7953 -2.7949
  852SOL    HW2 2556   1.439   2.748   2.771  0.9768  0.0381  1.2727
  853SOL     OW 2557   2.939   2.698   0.335 -0.1201  0.0502 -0.3602
  853SOL    HW1 2558   2.986   2.618   0.289 -0.3980  0.8489 -4.3504
  853SOL    HW2 2559   2.951   2.784   0.281 -1.0004  1.4148 -0.9279
  854SOL     OW 2560   1.526   0.579   2.371 -0.0645 -0.1983  0.2877
  854SOL    HW1 2561   1.576   0.492   2.359 -0.9184 -0.5651  0.4971
  854SOL    HW2 2562   1.583   0.656   2.407 -1.7108 -2.4029  1.2177
  855SOL     OW 2563   0.313   2.533   0.515 -0.2760  0.1013 -0.1116
  855SOL    HW1 2564   0.345   2.505   0.606  2.0814  0.5883 -0.3482
  855SOL    HW2 2565   0.342   2.630   0.495 -0.0721 -0.2920  0.0697
  856SOL     OW 2566   0.323   2.894   2.508 -0.0488  0.0617 -0.3932
  856SOL    HW1 2567   0.423   2.869   2.524  0.6805 -0.1119  0.8322
  856SOL    HW2 2568   0.321   2.997   2.490  1.9183 -0.9481 -2.8628
  857SOL     OW 2569   1.135   3.027   1.625  0.3957  0.2498  0.0915
  857SOL    HW1 2570   1.149   2.956   1.548 -0.2080 -2.1790 -1.1760
  857SOL    HW2 2571   1.060   0.025   1.608  0.3503 -1.7780  1.3937
  858SOL     OW 2572   2.861   1.741   1.516  0.4052 -0.1221 -0.3021
  858SOL    HW1 2573   2.951   1.724   1.561  3.9391  0.3163 -0.0254
  858SOL    HW2 2574   2.788   1.675   1.540  0.1389  0.2036 -0.1571
  859SOL     OW 2575   2.201   2.049   2.095  0.3827  0.5831 -0.4164
  859SOL    HW1 2576   2.151   2.077   2.181 -1.7974 -1.8186 -1.3618
  859SOL    HW2 2577   2.148   1.974   2.046 -0.7468 -0.6072 -0.4708
  860SOL     OW 2578   1.197   0.384   0.581  0.1828 -0.2032  0.4584
  860SOL    HW1 2579   1.250   0.416   0.664  1.5447 -0.9518  1.8247
  860SOL    HW2 2580   1.194   0.280   0.568 -1.7341 -1.9428 -2.1378
  861SOL     OW 2581   2.907   0.684   0.901  0.4802 -0.3175 -0.5872
  861SOL    HW1 2582   2.815   0.648   0.872  1.0945 -1.2019  1.6987
  861SOL    HW2 2583   2.978   0.655   0.834 -0.2356 -0.9051 -1.0180
  862SOL     OW 2584   1.339   0.573   2.169 -0.4408 -0.0044  0.1321
  862SOL    HW1 2585   1.412   0.594   2.234 -2.4453 -0.1068  0.1263
  862SOL    HW2 2586   1.297   0.480   2.184 -2.3801  2.0931 -1.7781
  863SOL     OW 2587   0.546   0.540   0.948 -0.2597  0.8193 -0.0513
  863SOL    HW1 2588   0.545   0.437   0.935  0.0796  0.5054 -0.3282
  863SOL    HW2 2589   0.533   0.555   1.045 -0.9889  0.3550 -1.5069
  864SOL     OW 2590   0.052   2.833   1.986  0.4225 -0.7249  0.5384
  864SOL    HW1 2591   0.131   2.767   1.988 -0.8353  1.8411 -0.5539
  864SOL    HW2 2592   0.055   2.896   1.908 -0.6647 -0.9405 -0.6090
  865SOL     OW 2593   0.751   1.309   2.664 -0.5129 -0.0475  0.4257
  865SOL    HW1 2594   0.681   1.373   2.698  1.6307  0.3417  1.4322
  865SOL    HW2 2595   0.713   1.248   2.595 -1.7204  0.1054  2.4549
  866SOL     OW 2596   3.018   2.927   0.159 -0.7913  0.0892  0.2015
  866SOL    HW1 2597   0.036   2.984   0.147 -0.7274 -0.3217 -1.1774
  866SOL    HW2 2598   2.995   2.880   0.071 -1.1324  0.3945  0.7868
  867SOL     OW 2599   2.995   2.787   2.989  0.1435 -0.0242 -0.4986
  867SOL    HW1 2600   2.916   2.725   2.987  2.4737 -1.2480  0.0370
  867SOL    HW2 2601   0.015   2.738   2.984  0.5198  0.0276 -0.9559
  868SOL     OW 2602   1.469   1.035   2.869 -0.1756  0.1810 -0.1260
  868SOL    HW1 2603   1.504   1.113   2.926  0.9135  1.2913 -0.4929
  868SOL    HW2 2604   1.375   1.001   2.897 -1.7800 -3.8113  1.3834
  869SOL     OW 2605   0.216   1.876   0.786  0.4546  0.3357 -0.5831
  869SOL    HW1 2606   0.301   1.933   0.762  4.6881  0.6884 -2.9021
  869SOL    HW2 2607   0.211   1.786   0.733  0.5702 -2.0986 -3.5953
  870SOL     OW 2608   2.140   2.027   0.624 -0.2876 -0.3666  0.3582
  870SOL    HW1 2609   2.161   1.928   0.606  3.0271  0.0335 -0.8890
  870SOL    HW2 2610   2.182   2.086   0.554 -3.6522 -0.5973  2.1839
  871SOL     OW 2611   0.595   1.145   1.151 -0.5103  0.4423  0.4757
  871SOL    HW1 2612   0.588   1.057   1.198 -0.6800  1.3353  0.8931
  871SOL    HW2 2613   0.692   1.166   1.115  0.8790  1.1963  1.3261
  872SOL     OW 2614   1.358   1.714   1.785 -0.2755  0.0367 -0.0989
  872SOL    HW1 2615   1.288   1.783   1.811 -1.0725  1.4252 -1.6148
  872SOL    HW2 2616   1.401   1.676   1.874 -1.6073 -1.5927  1.8731
  873SOL     OW 2617   0.849   2.175   2.128 -0.0345  0.3101 -0.1447
  873SOL    HW1 2618   0.817   2.209   2.220 -0.9466 -1.4146  0.4935
  873SOL    HW2 2619   0.773   2.177   2.060 -1.5387  2.2378  0.5006
  874SOL     OW 2620   1.110   2.579   1.193  0.5415  0.0330  0.1146
  874SOL    HW1 2621   1.202   2.550   1.229  0.7653 -0.4338 -1.2003
  874SOL    HW2 2622   1.123   2.632   1.102  1.5591  0.6990 -1.9608
  875SOL     OW 2623   3.038   0.272   0.915  0.2824  0.1140 -0.8782
  875SOL    HW1 2624   3.037   0.168   0.936  1.0696 -2.2002  1.8226
  875SOL    HW2 2625   2.949   0.309   0.880 -1.6912  0.4214 -0.8812
  876SOL     OW 2626   0.704   0.733   0.235 -0.3039  0.0023 -0.0360
  876SOL    HW1 2627   0.660   0.769   0.320 -0.0911  1.1682 -0.7449
  876SOL    HW2 2628   0.787   0.781   0.204 -0.7544  0.4245 -1.7634
  877SOL     OW 2629   2.925   0.718   1.187  0.1172 -1.1276 -0.1818
  877SOL    HW1 2630   2.909   0.722   1.089  1.9064  0.1864  2.3830
  877SOL    HW2 2631   2.977   0.633   1.202 -0.7698 -0.3174 -1.6125
  878SOL     OW 2632   2.516   2.087   0.701 -0.5894  0.3104  0.3559
  878SOL    HW1 2633   2.438   2.108   0.638 -1.0577 -1.6992  0.6357
  878SOL    HW2 2634   2.537   2.164   0.759 -0.3798 -1.1628 -2.1687
  879SOL     OW 2635   2.523   1.360   1.245  0.0704  0.0656 -0.4759
  879SOL    HW1 2636   2.457   1.342   1.323  0.2460 -0.7827 -2.4990
  879SOL    HW2 2637   2.504   1.453   1.208 -2.9664  0.6561 -0.3586
  880SOL     OW 2638   1.721   2.594   1.121 -0.4768  1.2008 -0.4502
  880SOL    HW1 2639   1.790   2.590   1.044  0.1423  0.7529 -1.7384
  880SOL    HW2 2640   1.632   2.597   1.082 -0.2792 -1.1086  0.9468
  881SOL     OW 2641   0.922   2.362   0.269 -0.0765  0.0118 -0.2467
  881SOL    HW1 2642   0.970   2.351   0.360  1.2978  2.1694 -0.7196
  881SOL    HW2 2643   0.846   2.433   0.281 -2.3600  2.5258 -1.4696
  882SOL     OW 2644   1.493   0.756   1.243  0.2796 -0.0854 -0.2314
  882SOL    HW1 2645   1.396   0.786   1.243 -0.2798 -1.7978 -0.2338
  882SOL    HW2 2646   1.513   0.689   1.321  0.2803  0.0896  1.3208
  883SOL     OW 2647   1.289   0.311   2.134 -0.1244 -0.3385 -0.3962
  883SOL    HW1 2648   1.290   0.279   2.041  2.1533  1.6159  2.2096
  883SOL    HW2 2649   1.377   0.291   2.178 -1.5779  0.0743  0.4878
  884SOL     OW 2650   2.496   0.646   0.145  0.2088 -0.5666 -0.1993
  884SOL    HW1 2651   2.410   0.648   0.197  0.3128  0.3557 -4.1115
  884SOL    HW2 2652   2.555   0.726   0.174  1.4659  0.3719 -2.3096
  885SOL     OW 2653   1.185   1.380   3.004 -0.1847 -0.1503 -0.4295
  885SOL    HW1 2654   1.163   1.395   2.906 -3.2158 -1.7877 -0.0192
  885SOL    HW2 2655   1.110   1.325   3.048 -0.6147 -0.5295 -0.3238
  886SOL     OW 2656   1.459   1.459   2.525  0.1921 -0.1806  0.2384
  886SOL    HW1 2657   1.532   1.503   2.470 -3.0828 -1.6132 -0.9227
  886SOL    HW2 2658   1.473   1.362   2.552  0.5250 -3.0379 -1.6542
  887SOL     OW 2659   1.408   0.364   1.581  0.3068 -0.1106  0.0890
  887SOL    HW1 2660   1.396   0.266   1.553  0.1724 -1.7151  0.6823
  887SOL    HW2 2661   1.446   0.369   1.677 -0.5192  2.2817 -0.6732
  888SOL     OW 2662   2.692   0.712   1.883 -0.2954 -0.2061  0.8190
  888SOL    HW1 2663   2.716   0.612   1.854 -2.6603 -3.3583 -1.3826
  888SOL    HW2 2664   2.731   0.730   1.978 -0.0843  0.1342  1.8944
  889SOL     OW 2665   0.212   2.606   1.096  0.1993 -0.3359  0.2799
  889SOL    HW1 2666   0.132   2.586   1.038  2.8423  1.9134  3.2985
  889SOL    HW2 2667   0.299   2.607   1.042 -0.6148 -2.0291  0.2796
  890SOL     OW 2668   2.742   2.269   0.248 -0.2791  0.1302  0.4448
  890SOL    HW1 2669   2.730   2.334   0.323  1.9920 -0.7525 -0.7252
  890SOL    HW2 2670   2.845   2.257   0.234  3.1255 -3.9466  1.8331
  891SOL     OW 2671   0.951   1.682   2.987  0.5949 -0.2683  0.3698
  891SOL    HW1 2672   0.981   1.599   2.931  1.6109 -3.4754 -0.8980
  891SOL    HW2 2673   0.956   1.667   0.022  0.5549  1.8229  1.4643
  892SOL     OW 2674   0.105   0.003   1.021  0.3206 -0.3027  0.2556
  892SOL    HW1 2675   0.067   0.056   1.103  0.7221  4.1643  2.1328
  892SOL    HW2 2676   0.038   3.003   0.997  1.8349 -0.4706  0.7709
  893SOL     OW 2677   1.076   0.079   1.350  0.3711  0.2978  0.1247
  893SOL    HW1 2678   1.103   3.055   1.373 -1.1225  2.4398 -2.1366
  893SOL    HW2 2679   0.991   0.073   1.299  1.0192  0.7408 -0.9182
  894SOL     OW 2680   2.652   0.618   0.842 -0.4133 -0.3384 -0.3838
  894SOL    HW1 2681   2.605   0.606   0.935 -0.4743 -3.3557  2.0137
  894SOL    HW2 2682   2.585   0.653   0.774  1.1446 -2.8871 -1.2246
  895SOL     OW 2683   2.385   2.195   2.267 -0.0824  0.1251  0.3376
  895SOL    HW1 2684   2.350   2.109   2.225  1.2974 -0.8887 -0.0258
  895SOL    HW2 2685   2.342   2.281   2.240  0.5286 -1.5142  0.9770
  896SOL     OW 2686   1.291   0.268   1.871  0.0331  0.4018 -0.1638
  896SOL    HW1 2687   1.374   0.307   1.831  0.1076 -1.1746  1.2099
  896SOL    HW2 2688   1.303   0.167   1.874 -1.4130  1.7991 -1.7914
  897SOL     OW 2689   0.646   1.692   1.856 -0.1104  0.5738  0.1027
  897SOL    HW1 2690   0.688   1.789   1.841  0.6943  0.3273 -1.5258
  897SOL    HW2 2691   0.689   1.622   1.796 -1.0730 -2.7980  0.7370
  898SOL     OW 2692   2.056   2.732   1.820  0.0339 -0.5259  0.0898
  898SOL    HW1 2693   2.044   2.820   1.771  0.1765 -0.4168 -0.6755
  898SOL    HW2 2694   2.128   2.726   1.895  0.0628 -2.5082  0.2120
  899SOL     OW 2695   1.019   0.812   1.143 -0.3465  0.2360  0.3743
  899SOL    HW1 2696   0.968   0.809   1.228 -0.4817  4.0873 -4.8133
  899SOL    HW2 2697   0.980   0.881   1.081 -0.3805 -1.1474 -3.5754
  900SOL     OW 2698   1.859   2.151   2.900 -0.1283 -0.2072 -0.4427
  900SOL    HW1 2699   1.799   2.094   2.840  0.8377  0.1784  0.6055
  900SOL    HW2 2700   1.869   2.251   2.870  0.3171  1.9460 -0.2210
  901SOL     OW 2701   0.824   2.187   2.612 -0.3615  0.2144 -0.1012
  901SOL    HW1 2702   0.833   2.225   2.703 -0.5002  2.0262  0.5186
  901SOL    HW2 2703   0.737   2.140   2.600  0.9832  1.9746  0.4095
  902SOL     OW 2704   2.179   1.204   0.053 -0.0736 -0.2863 -0.1840
  902SOL    HW1 2705   2.270   1.244   0.071  0.5689 -0.8617 -0.2521
  902SOL    HW2 2706   2.182   1.102   0.040  1.7291  0.2928 -0.4348
  903SOL     OW 2707   1.904   0.762   0.295  0.3387  0.0208  0.4487
  903SOL    HW1 2708   1.901   0.859   0.262 -2.7338 -1.3907  0.7590
  903SOL    HW2 2709   1.814   0.720   0.285  1.3141  1.6598  1.0581
  904SOL     OW 2710   0.575   0.985   0.038 -0.1880  0.2924 -0.1340
  904SOL    HW1 2711   0.497   1.006   3.045  3.1239 -0.2315 -1.8494
  904SOL    HW2 2712   0.589   0.886   0.057  0.2834  1.8545 -0.9511
  905SOL     OW 2713   2.312   0.227   0.982  0.2339 -0.1191  0.6241
  905SOL    HW1 2714   2.243   0.175   1.032 -0.5054  2.6653 -2.0244
  905SOL    HW2 2715   2.315   0.326   1.017  0.0080  2.4855 -0.3590
  906SOL     OW 2716   2.751   2.284   1.239  0.3533 -0.5743  0.3620
  906SOL    HW1 2717   2.763   2.185   1.226 -1.9183  0.5305 -2.9735
  906SOL    HW2 2718   2.658   2.323   1.224 -1.7099  2.8383 -2.5767
  907SOL     OW 2719   1.194   0.501   0.311  0.1204  0.5659  0.4131
  907SOL    HW1 2720   1.109   0.451   0.265 -4.3447 -2.2032 -1.2753
  907SOL    HW2 2721   1.203   0.470   0.407  0.5210  1.1677  2.9917
  908SOL     OW 2722   2.268   2.897   1.476  0.5595  0.4075  0.6068
  908SOL    HW1 2723   2.311   2.810   1.496 -1.6169 -0.6131  1.3919
  908SOL    HW2 2724   2.349   2.957   1.467 -0.0833  0.3834  2.3801
  909SOL     OW 2725   2.867   0.908   1.701  0.3543  0.1971  0.2115
  909SOL    HW1 2726   2.868   0.925   1.603  1.8351  1.8138 -0.5688
  909SOL    HW2 2727   2.786   0.957   1.736 -0.8814  1.6276 -0.0017
  910SOL     OW 2728   1.425   2.834   2.248  0.1818 -0.5425 -0.0114
  910SOL    HW1 2729   1.407   2.880   2.156  0.2035  2.1569 -0.1624
  910SOL    HW2 2730   1.333   2.828   2.297 -1.6095 -1.1154  1.9695
  911SOL     OW 2731   2.336   0.401   2.175 -0.2310  0.1062 -0.1500
  911SOL    HW1 2732   2.349   0.479   2.111  1.8434  0.4081 -0.2331
  911SOL    HW2 2733   2.250   0.406   2.230  1.8042 -1.3836 -2.1343
  912SOL     OW 2734   2.634   1.144   1.403 -0.2880 -0.1672  0.1954
  912SOL    HW1 2735   2.711   1.205   1.371  0.7625 -5.3871 -0.3514
  912SOL    HW2 2736   2.633   1.060   1.347  1.7358 -1.8279  1.4534
  913SOL     OW 2737   2.494   2.001   1.252 -0.8970 -0.1320 -0.0025
  913SOL    HW1 2738   2.512   1.902   1.277  1.9939  0.9572 -2.0977
  913SOL    HW2 2739   2.406   2.030   1.284  6.7724 -1.2889  1.5693
  914SOL     OW 2740   1.968   1.172   1.424  0.0056  0.7901 -0.0543
  914SOL    HW1 2741   2.055   1.129   1.379  3.9436  0.2082 -1.2484
  914SOL    HW2 2742   1.889   1.109   1.425 -1.7167 -0.9690 -0.3243
  915SOL     OW 2743   0.918   0.894   1.432  0.1077  0.3318  0.2036
  915SOL    HW1 2744   0.996   0.841   1.471  0.4755 -1.4317 -0.6732
  915SOL    HW2 2745   0.822   0.859   1.438 -1.6719  1.7729 -0.2814
  916SOL     OW 2746   2.423   2.632   1.494  0.2499  0.1879 -0.2072
  916SOL    HW1 2747   2.377   2.560   1.547  0.9749  1.6295 -2.0259
  916SOL    HW2 2748   2.508   2.654   1.541 -2.2507 -1.8119  0.0946
  917SOL     OW 2749   2.551   2.077   0.281  0.0782  0.2486  0.0465
  917SOL    HW1 2750   2.465   2.075   0.229  0.6947  2.2000  0.5379
  917SOL    HW2 2751   2.600   2.164   0.273 -0.0764  1.5373 -0.5197
  918SOL     OW 2752   1.873   2.635   2.678  0.5207 -0.1140 -0.3203
  918SOL    HW1 2753   1.816   2.717   2.655  1.1154  1.5444 -3.4199
  918SOL    HW2 2754   1.971   2.648   2.687  1.1894  2.7826 -2.3593
  919SOL     OW 2755   1.445   2.196   1.665 -0.1361 -0.4709 -0.3321
  919SOL    HW1 2756   1.348   2.184   1.702 -0.5269 -2.5767  2.0287
  919SOL    HW2 2757   1.466   2.122   1.597 -0.7361  1.2656 -1.8890
  920SOL     OW 2758   2.689   0.126   2.618  0.2732  0.0017  0.2719
  920SOL    HW1 2759   2.645   0.197   2.560  0.1205  0.3068 -0.0710
  920SOL    HW2 2760   2.635   0.109   2.702  0.6848  0.4549 -2.1328
  921SOL     OW 2761   2.732   0.485   1.732 -0.5691  0.3550 -0.0134
  921SOL    HW1 2762   2.822   0.440   1.715 -0.4748  1.1341  2.6422
  921SOL    HW2 2763   2.657   0.432   1.686 -1.4772 -1.3411  0.6893
  922SOL     OW 2764   1.929   2.003   0.414  0.3302  1.0709 -0.2833
  922SOL    HW1 2765   1.983   1.985   0.499  2.5386  1.3281  1.5744
  922SOL    HW2 2766   1.908   1.916   0.365 -0.9104 -1.4325 -0.3923
  923SOL     OW 2767   0.384   2.057   0.062 -0.8155  0.5479 -0.0481
  923SOL    HW1 2768   0.433   1.991   0.002  1.4859  3.1344  1.5739
  923SOL    HW2 2769   0.386   2.151   0.021  2.0046 -0.2527 -1.4368
  924SOL     OW 2770   0.785   0.354   0.201 -0.3459  0.4445 -0.6762
  924SOL    HW1 2771   0.727   0.374   0.280 -0.9766 -0.8150 -3.1722
  924SOL    HW2 2772   0.827   0.441   0.167  1.7621  0.2078  0.4466
  925SOL     OW 2773   2.418   0.882   0.923 -0.2159 -0.4641 -0.1994
  925SOL    HW1 2774   2.375   0.955   0.871  1.5076  0.3575  1.5102
  925SOL    HW2 2775   2.403   0.793   0.875 -2.4330 -2.5048 -0.1798
  926SOL     OW 2776   3.054   0.933   0.943 -0.3705  0.6257 -0.0707
  926SOL    HW1 2777   2.999   0.848   0.917  0.6648 -1.4836  0.2062
  926SOL    HW2 2778   0.075   0.911   0.984 -2.1945  3.0480 -0.4538
  927SOL     OW 2779   3.024   1.165   2.714 -0.2663 -0.2784 -0.3784
  927SOL    HW1 2780   0.011   1.107   2.651 -2.5823  1.3643  0.4674
  927SOL    HW2 2781   0.019   1.226   2.764  0.5939 -0.4659 -1.5466
  928SOL     OW 2782   2.881   0.413   2.371  0.1279  0.0212 -0.2469
  928SOL    HW1 2783   2.891   0.340   2.297 -1.8772  0.7782 -0.9027
  928SOL    HW2 2784   2.793   0.464   2.354 -0.8534 -0.7032 -0.6522
  929SOL     OW 2785   2.893   2.751   1.220  0.0999  0.0847  0.6974
  929SOL    HW1 2786   2.921   2.808   1.137  1.4443  0.3729 -4.8673
  929SOL    HW2 2787   2.865   2.655   1.200 -0.4358 -0.1118 -0.1921
  930SOL     OW 2788   2.052   1.394   1.609 -0.3922  0.4834  0.0907
  930SOL    HW1 2789   2.056   1.492   1.591  1.7830 -2.7990 -0.6859
  930SOL    HW2 2790   2.016   1.344   1.528 -1.1392 -0.5131  1.4176
  931SOL     OW 2791   1.492   1.443   0.590  0.0353  0.2981 -0.8504
  931SOL    HW1 2792   1.561   1.441   0.667  1.1675 -1.0642  0.5449
  931SOL    HW2 2793   1.421   1.515   0.604 -1.1434  0.2485 -0.4281
  932SOL     OW 2794   2.698   1.185   0.826 -0.0867 -0.7160  0.2609
  932SOL    HW1 2795   2.690   1.091   0.868 -1.6215 -1.4936 -0.1975
  932SOL    HW2 2796   2.782   1.234   0.860 -2.2266 -1.9764  1.4979
  933SOL     OW 2797   2.374   1.567   1.114  0.4505 -0.0171  0.1904
  933SOL    HW1 2798   2.314   1.534   1.038 -0.8011 -1.1274  0.3867
  933SOL    HW2 2799   2.318   1.616   1.183  1.6945 -2.3485  0.2516
  934SOL     OW 2800   1.623   2.948   1.653  0.0117 -0.6470  0.9370
  934SOL    HW1 2801   1.641   2.851   1.618 -0.8051 -0.8747  3.0931
  934SOL    HW2 2802   1.553   2.995   1.595  2.4832 -0.6099  0.6573
  935SOL     OW 2803   0.073   1.517   0.851 -0.0639 -0.0202 -0.2590
  935SOL    HW1 2804   3.048   1.550   0.855  0.6460  1.7329  2.1716
  935SOL    HW2 2805   0.125   1.537   0.939 -0.5081  1.3591 -0.3535
  936SOL     OW 2806   0.389   1.201   0.483 -0.0292  0.4921  0.3603
  936SOL    HW1 2807   0.329   1.119   0.471  1.8423 -0.2632 -0.4518
  936SOL    HW2 2808   0.477   1.182   0.444 -1.6793  1.7456  0.8330
  937SOL     OW 2809   2.303   2.780   1.101 -0.3136 -0.3482  0.0420
  937SOL    HW1 2810   2.211   2.729   1.114 -1.1398 -0.9711  0.1138
  937SOL    HW2 2811   2.327   2.778   1.003  0.4869 -0.3442  0.8849
  938SOL     OW 2812   2.578   2.319   0.857 -0.1523 -0.0406  0.6340
  938SOL    HW1 2813   2.561   2.309   0.957 -2.8341 -0.8478  0.8121
  938SOL    HW2 2814   2.616   2.411   0.836 -1.4524 -0.3663 -0.0170
  939SOL     OW 2815   0.849   2.077   0.501  0.2530  0.3433 -0.4741
  939SOL    HW1 2816   0.868   2.028   0.590 -0.4188 -1.1302  1.9079
  939SOL    HW2 2817   0.914   2.158   0.498  0.6726  0.0466 -1.1768
  940SOL     OW 2818   2.799   0.002   0.065  0.3530  0.2568 -0.8425
  940SOL    HW1 2819   2.860   0.042   3.066 -1.1366 -1.3117  0.3807
  940SOL    HW2 2820   2.862   3.029   0.137  2.7027  0.0036  0.0200
  941SOL     OW 2821   1.123   0.002   2.965  0.1938  0.5322 -0.1787
  941SOL    HW1 2822   1.193   3.043   2.900 -1.2488  2.2002  2.5730
  941SOL    HW2 2823   1.124   0.103   2.973  1.7502 -1.3014  0.3421
  942SOL     OW 2824   1.340   1.423   1.165 -0.5788 -0.1656  0.7058
  942SOL    HW1 2825   1.415   1.482   1.129  2.8881  1.5769  1.9901
  942SOL    HW2 2826   1.323   1.344   1.098 -2.5129 -0.7659 -2.9041
  943SOL     OW 2827   1.734   1.035   1.431  0.3351 -0.4862 -0.0034
  943SOL    HW1 2828   1.744   1.003   1.531  1.7399 -0.7556  2.9829
  943SOL    HW2 2829   1.761   0.962   1.371 -2.7487  1.1123  1.7432
  944SOL     OW 2830   1.617   0.628   1.817  0.3307 -0.2675 -0.0224
  944SOL    HW1 2831   1.573   0.681   1.741 -0.2690 -1.8193  2.6835
  944SOL    HW2 2832   1.698   0.679   1.855 -1.8948 -0.0485 -2.4978
  945SOL     OW 2833   3.038   3.040   0.508  0.3670 -0.6465  0.5616
  945SOL    HW1 2834   0.034   0.045   0.479 -0.4270  0.5504 -0.5319
  945SOL    HW2 2835   3.021   2.974   0.435  3.1532  1.1005 -0.4157
  946SOL     OW 2836   0.329   0.266   1.341 -0.2131 -0.5843  0.2575
  946SOL    HW1 2837   0.421   0.286   1.384  1.8731  0.4598  0.8558
  946SOL    HW2 2838   0.338   0.266   1.241 -0.6312 -0.2651  0.1752
  947SOL     OW 2839   0.706   3.018   0.157  0.4583  0.0046 -0.3627
  947SOL    HW1 2840   0.614   2.982   0.132 -1.0633 -2.7450  0.5972
  947SOL    HW2 2841   0.723   0.039   0.113 -3.2201  0.8862 -0.0946
  948SOL     OW 2842   2.571   1.161   1.900  0.6527 -0.1975 -0.2479
  948SOL    HW1 2843   2.498   1.231   1.907 -0.6354 -0.0253  0.3340
  948SOL    HW2 2844   2.628   1.152   1.987  4.4038 -0.3953 -1.4147
  949SOL     OW 2845   0.455   0.810   2.755  0.6826  0.1069  0.0429
  949SOL    HW1 2846   0.497   0.740   2.818 -1.1828 -0.4925 -0.1228
  949SOL    HW2 2847   0.517   0.819   2.672 -0.5319 -0.5420 -1.2440
  950SOL     OW 2848   0.822   0.472   0.657  0.5534 -0.6354 -0.2396
  950SOL    HW1 2849   0.847   0.381   0.699 -1.1405  1.1935 -0.2613
  950SOL    HW2 2850   0.904   0.528   0.632  2.6693 -2.2737 -1.4447
  951SOL     OW 2851   1.048   2.003   2.091  0.3561  0.5294 -0.3144
  951SOL    HW1 2852   1.120   2.068   2.118 -3.2056  1.0567  2.4307
  951SOL    HW2 2853   0.957   2.048   2.087  0.1592 -3.9976  1.2733
  952SOL     OW 2854   0.925   1.633   0.195  0.1780  0.0769  0.4125
  952SOL    HW1 2855   0.929   1.543   0.243  0.9002  0.2006 -4.3529
  952SOL    HW2 2856   0.836   1.683   0.206  1.1422  0.6800  1.0838
  953SOL     OW 2857   2.128   2.914   2.333 -0.0640 -0.1952  0.7868
  953SOL    HW1 2858   2.108   2.831   2.286  0.3183  2.1663  1.2057
  953SOL    HW2 2859   2.167   2.986   2.270  1.7161  0.6682  0.2368
  954SOL     OW 2860   1.647   1.194   0.630 -0.2338 -0.4131  0.2175
  954SOL    HW1 2861   1.665   1.114   0.571 -1.8327  3.6137 -0.1052
  954SOL    HW2 2862   1.622   1.273   0.575  0.8404  0.9212  1.0122
  955SOL     OW 2863   0.317   2.207   2.338  0.0774  0.1266  0.2899
  955SOL    HW1 2864   0.410   2.241   2.309  2.8535  0.4325 -1.4472
  955SOL    HW2 2865   0.271   2.282   2.384  1.0748 -1.1761 -0.4354
  956SOL     OW 2866   1.701   0.269   1.640 -0.4574 -0.7994 -0.7140
  956SOL    HW1 2867   1.776   0.339   1.642 -2.0550  0.6988  0.3787
  956SOL    HW2 2868   1.624   0.307   1.690  0.2534  1.6416  0.3726
  957SOL     OW 2869   1.669   2.003   2.744 -0.4215 -0.4438 -0.1089
  957SOL    HW1 2870   1.603   2.065   2.696 -0.6984 -0.8160 -0.2053
  957SOL    HW2 2871   1.626   1.970   2.830 -1.0877 -0.2197  1.6217
  958SOL     OW 2872   1.175   2.181   1.743 -0.6026 -0.5120 -0.1142
  958SOL    HW1 2873   1.119   2.262   1.728  3.3418 -0.4465  0.9284
  958SOL    HW2 2874   1.120   2.097   1.742 -0.5237  2.0352 -2.3011
  959SOL     OW 2875   2.028   1.994   3.063 -0.0748  0.4642  0.1356
  959SOL    HW1 2876   2.062   2.054   0.068 -1.9886 -1.0018  1.0027
  959SOL    HW2 2877   1.970   2.045   2.995  0.2640  2.8822 -0.4228
  960SOL     OW 2878   2.930   0.099   2.705  0.4871  0.7517  0.2717
  960SOL    HW1 2879   2.969   0.048   2.628  0.1171  0.1502  0.7904
  960SOL    HW2 2880   2.829   0.122   2.684  0.7676  0.9858 -1.4295
  961SOL     OW 2881   0.886   0.851   2.830 -0.3456 -0.2875  0.2553
  961SOL    HW1 2882   0.917   0.950   2.848  1.8629  4.1678 -0.3123
  961SOL    HW2 2883   0.881   0.835   2.728 -1.5045  1.2845 -1.9322
  962SOL     OW 2884   1.203   1.231   2.756  0.2411  0.4130  0.0501
  962SOL    HW1 2885   1.208   1.199   2.657  0.6453  2.7802  1.3020
  962SOL    HW2 2886   1.296   1.247   2.787  2.0424 -2.0829 -0.5721
  963SOL     OW 2887   2.352   2.066   0.121  0.1397  0.5870  0.4485
  963SOL    HW1 2888   2.383   2.132   0.054 -1.0422 -3.2324  1.0996
  963SOL    HW2 2889   2.254   2.089   0.150 -0.7286 -0.4801  2.2278
  964SOL     OW 2890   1.482   2.599   0.963 -0.1729  0.8370  0.1614
  964SOL    HW1 2891   1.417   2.519   0.959 -1.7815  1.2228 -0.0577
  964SOL    HW2 2892   1.450   2.675   0.896 -1.1810  0.4512 -2.4713
  965SOL     OW 2893   1.132   1.421   0.636 -0.0481 -0.6351  0.1561
  965SOL    HW1 2894   1.207   1.490   0.633 -2.0712 -2.0128 -0.7539
  965SOL    HW2 2895   1.032   1.456   0.644 -3.5605  0.8300 -1.0667
  966SOL     OW 2896   0.202   1.481   0.011  0.0748 -0.2091  0.1934
  966SOL    HW1 2897   0.257   1.527   3.007 -1.1583  1.9365 -2.9368
  966SOL    HW2 2898   0.239   1.496   0.105 -0.6202 -2.2829  0.0710
  967SOL     OW 2899   1.924   0.093   2.008  0.0028  0.2694  0.5389
  967SOL    HW1 2900   1.961   0.147   2.085 -0.0872  1.7622  0.6830
  967SOL    HW2 2901   2.005   0.059   1.954 -0.2379 -2.2405  1.1340
  968SOL     OW 2902   1.702   0.959   0.514  0.4534 -0.3455  0.4373
  968SOL    HW1 2903   1.779   0.914   0.467  1.0789  0.6318 -0.3717
  968SOL    HW2 2904   1.612   0.913   0.504 -1.8592  1.3997  1.7383
  969SOL     OW 2905   0.196   1.334   2.376  0.2343  0.5271 -0.0394
  969SOL    HW1 2906   0.136   1.318   2.293 -0.0082  1.6538  0.1083
  969SOL    HW2 2907   0.298   1.347   2.354  2.5175  1.2327  0.6228
  970SOL     OW 2908   2.092   1.313   1.009 -0.2330  0.1290 -0.1007
  970SOL    HW1 2909   2.143   1.221   1.001 -0.1968  0.9772 -2.5088
  970SOL    HW2 2910   2.164   1.385   0.991  1.5716 -0.0471 -0.0695
  971SOL     OW 2911   0.371   3.060   1.392 -0.4688 -0.2481 -0.2984
  971SOL    HW1 2912   0.346   0.094   1.394 -0.8731  0.2968  1.0131
  971SOL    HW2 2913   0.319   3.018   1.317 -3.8585  1.5097  1.7761
  972SOL     OW 2914   0.193   0.769   2.725 -0.1864  0.6004 -0.5376
  972SOL    HW1 2915   0.152   0.710   2.799  0.2237  0.0246 -0.7831
  972SOL    HW2 2916   0.298   0.774   2.739  1.7346 -1.1291 -0.6926
  973SOL     OW 2917   0.210   0.862   1.077  0.2724  0.1446 -0.6485
  973SOL    HW1 2918   0.231   0.905   1.168 -2.1015 -0.6056 -1.8870
  973SOL    HW2 2919   0.205   0.761   1.097  0.9780 -0.8263  0.4800
  974SOL     OW 2920   2.197   0.558   1.915  0.4809 -0.3507 -0.8064
  974SOL    HW1 2921   2.175   0.635   1.852  0.4494 -2.1304  2.2727
  974SOL    HW2 2922   2.285   0.578   1.967 -1.3057  1.5743 -0.8308
  975SOL     OW 2923   2.351   0.108   0.177 -0.5120 -0.3547  0.5095
  975SOL    HW1 2924   2.284   0.059   0.118 -1.6739 -0.7444 -0.1465
  975SOL    HW2 2925   2.344   0.067   0.273 -0.5729 -1.7432  2.6166
  976SOL     OW 2926   0.117   1.258   1.567  0.1110 -0.1918  0.5972
  976SOL    HW1 2927   0.206   1.292   1.525  0.9066  0.8844 -1.0410
  976SOL    HW2 2928   0.119   1.273   1.669 -0.4464  0.2105 -0.7040
  977SOL     OW 2929   1.210   2.626   0.065  0.1141 -0.0481  0.2290
  977SOL    HW1 2930   1.271   2.662   0.139 -2.0534 -1.5522  0.2805
  977SOL    HW2 2931   1.191   2.530   0.098  1.4160 -3.2119  0.4321
  978SOL     OW 2932   0.607   1.419   0.341  0.0142  0.1482 -0.2934
  978SOL    HW1 2933   0.697   1.461   0.335 -2.2947 -0.2483 -0.7253
  978SOL    HW2 2934   0.608   1.324   0.311 -0.1419  2.2593 -0.7561
  979SOL     OW 2935   1.644   1.777   1.335  0.4822  0.1681 -0.4019
  979SOL    HW1 2936   1.575   1.795   1.411 -0.5177  0.1051  1.9891
  979SOL    HW2 2937   1.661   1.680   1.321 -1.5038  3.5002  3.3226
  980SOL     OW 2938   0.426   1.589   1.705 -0.2232 -0.0452 -0.0039
  980SOL    HW1 2939   0.502   1.628   1.762  1.8537 -0.1881 -2.5744
  980SOL    HW2 2940   0.442   1.626   1.610 -2.3117  2.3170 -1.3174
  981SOL     OW 2941   0.225   1.571   0.282  0.3933 -0.1316 -0.3390
  981SOL    HW1 2942   0.224   1.498   0.352 -1.1783  0.3856 -0.1839
  981SOL    HW2 2943   0.192   1.661   0.320  0.9851  1.3026  1.7878
  982SOL     OW 2944   2.259   2.720   1.983 -0.0047  0.0443  0.6780
  982SOL    HW1 2945   2.282   2.620   1.978  0.6151 -1.7834  1.5551
  982SOL    HW2 2946   2.348   2.771   1.989  1.7392 -0.1189 -2.5816
  983SOL     OW 2947   1.279   0.484   1.200 -0.5521  0.1370  0.3463
  983SOL    HW1 2948   1.242   0.533   1.122  0.5054  0.2863  1.3771
  983SOL    HW2 2949   1.359   0.424   1.168  2.4064 -0.6275 -0.4903
  984SOL     OW 2950   1.110   2.872   2.633  0.2136 -0.1408  0.5834
  984SOL    HW1 2951   1.204   2.884   2.669 -1.4445 -0.8580 -2.5923
  984SOL    HW2 2952   1.064   2.960   2.609  4.6656 -1.5180  0.8959
  985SOL     OW 2953   1.880   2.160   1.406 -0.7777  0.6478  0.9096
  985SOL    HW1 2954   1.798   2.133   1.460 -3.2975 -1.3312  0.7616
  985SOL    HW2 2955   1.889   2.263   1.414 -0.0362 -0.9447 -0.4280
  986SOL     OW 2956   2.579   0.316   2.482  0.0724  0.4805 -0.4235
  986SOL    HW1 2957   2.498   0.372   2.509 -2.8009 -0.7816  0.4533
  986SOL    HW2 2958   2.644   0.370   2.427 -1.5452 -0.9796  0.3319
  987SOL     OW 2959   2.781   0.730   2.148 -0.5875 -0.2925  0.1351
  987SOL    HW1 2960   2.876   0.740   2.190  0.3013  1.9365  0.0885
  987SOL    HW2 2961   2.711   0.792   2.189 -1.2473 -0.7301  0.3262
  988SOL     OW 2962   2.358   0.864   2.484 -0.0677 -0.3543 -0.2283
  988SOL    HW1 2963   2.287   0.796   2.514 -4.1100  0.3283 -3.9809
  988SOL    HW2 2964   2.312   0.945   2.448  2.6262 -0.6023  0.9087
  989SOL     OW 2965   2.370   1.744   2.092 -0.0249  0.6113  0.5644
  989SOL    HW1 2966   2.391   1.773   2.190 -0.7798 -1.3349  3.7430
  989SOL    HW2 2967   2.436   1.788   2.025 -0.7831  0.3113  2.8542
  990SOL     OW 2968   0.346   1.191   2.780 -0.0594 -0.0387 -0.6375
  990SOL    HW1 2969   0.263   1.228   2.824 -0.2074  1.8042  0.4671
  990SOL    HW2 2970   0.430   1.224   2.822  0.1437 -0.1985 -0.3040
  991SOL     OW 2971   0.360   2.010   2.746 -0.3374 -0.2808 -0.1295
  991SOL    HW1 2972   0.341   1.910   2.746 -2.9789  0.2977 -1.2925
  991SOL    HW2 2973   0.275   2.056   2.780  1.1317  1.1011 -0.6357
  992SOL     OW 2974   2.554   1.852   1.921  0.3662 -0.4550  0.0578
  992SOL    HW1 2975   2.541   1.927   1.853 -0.1839 -1.5032  3.4631
  992SOL    HW2 2976   2.628   1.870   1.985 -1.0696  1.8060 -1.2725
  993SOL     OW 2977   0.431   3.055   0.700  0.2143  0.0469 -0.1472
  993SOL    HW1 2978   0.461   2.977   0.761 -0.8384  1.7072 -0.7493
  993SOL    HW2 2979   0.348   3.032   0.648  1.3490  1.2856  2.1908
  994SOL     OW 2980   0.183   1.643   1.438 -0.3893  0.5423 -0.2727
  994SOL    HW1 2981   0.194   1.743   1.445 -0.1245  0.1613 -0.1347
  994SOL    HW2 2982   0.246   1.601   1.366  0.9586 -0.7121 -1.2205
  995SOL     OW 2983   1.923   1.607   2.816 -0.1543 -0.2175  0.2680
  995SOL    HW1 2984   1.835   1.646   2.849 -1.0725 -0.2151 -1.4154
  995SOL    HW2 2985   1.994   1.660   2.865 -0.8584 -1.9615 -3.1400
  996SOL     OW 2986   2.049   1.131   2.551 -0.0010  0.3041  0.1119
  996SOL    HW1 2987   2.031   1.136   2.655 -0.5526 -0.8720  1.4007
  996SOL    HW2 2988   2.003   1.212   2.505 -2.8772 -0.7626 -0.0188
  997SOL     OW 2989   1.488   0.791   1.634 -0.0355  0.3272  0.2606
  997SOL    HW1 2990   1.470   0.892   1.645 -1.5560 -0.5942  1.8405
  997SOL    HW2 2991   1.457   0.749   1.546 -2.6048  1.2407 -0.6960
  998SOL     OW 2992   2.243   2.117   0.876  0.5337 -0.6698 -0.5565
  998SOL    HW1 2993   2.211   2.072   0.791 -0.7287 -1.1474 -0.6543
  998SOL    HW2 2994   2.325   2.071   0.915  1.3662 -0.5405 -1.2630
  999SOL     OW 2995   2.224   2.418   0.453  0.0660  0.2712  0.4087
  999SOL    HW1 2996   2.250   2.484   0.522  0.4343 -0.1383 -0.5550
  999SOL    HW2 2997   2.160   2.456   0.384 -0.3503  1.0318  1.1341
 1000SOL     OW 2998   0.850   3.038   2.937  0.2081 -0.3818  0.6519
 1000SOL    HW1 2999   0.948   3.030   2.950  0.3271  0.4831 -0.4846
 1000SOL    HW2 3000   0.810   0.038   3.001  1.2686 -1.1368  2.6084
   3.06861   3.06861   3.06861
