1000 SPC/Fw water molecules t= 427.00000 step= 427000
 3000
    1SOL     OW    1   0.074   0.072   1.195 -0.0020 -0.0627 -0.0317
    1SOL    HW1    2   0.129   0.148   1.234  1.1423  1.6417  1.0526
    1SOL    HW2    3   0.081   3.088   1.259  1.9222 -2.0336  0.1066
    2SOL     OW    4   2.594   3.037   0.180  0.4593 -0.1521  0.5223
    2SOL    HW1    5   2.614   2.947   0.140  1.2211  0.4883 -1.1529
    2SOL    HW2    6   2.611   0.009   0.102 -0.8053  4.8370 -2.5312
    3SOL     OW    7   1.510   2.649   0.058  0.1847  0.3423 -0.7176
    3SOL    HW1    8   1.454   2.719   0.016  0.6128 -1.2115  0.7197
    3SOL    HW2    9   1.545   2.666   0.150 -0.0182  0.2903 -2.0828
    4SOL     OW   10   1.011   2.941   2.389 -0.0982  0.8206  0.2251
    4SOL    HW1   11   0.973   2.991   2.471 -1.2341  2.8159 -0.9654
    4SOL    HW2   12   0.962   2.955   2.305  3.1838  0.6050  1.0056
    5SOL     OW   13   2.230   0.096   2.253 -0.1386 -0.2266 -0.1673
    5SOL    HW1   14   2.145   0.063   2.209  1.1263  1.5523  0.0606
    5SOL    HW2   15   2.232   0.198   2.245  1.8654  1.2315  1.1633
    6SOL     OW   16   2.790   2.029   1.172 -0.0050 -0.1447 -0.3632
    6SOL    HW1   17   2.805   2.118   1.125  1.3026 -2.5179 -2.7288
    6SOL    HW2   18   2.701   1.983   1.141 -2.7169  1.9701 -2.3681
    7SOL     OW   19   1.753   1.556   0.662 -0.3288  0.2018 -0.6906
    7SOL    HW1   20   1.827   1.487   0.653 -0.8323  1.3697  0.5013
    7SOL    HW2   21   1.662   1.511   0.648 -2.3943 -1.3108  1.2867
    8SOL     OW   22   0.392   1.559   0.972 -0.0372 -0.1092  0.0500
    8SOL    HW1   23   0.400   1.524   1.068  1.4936  1.1671 -0.0402
    8SOL    HW2   24   0.314   1.620   0.959  3.6635 -0.7311  0.5985
    9SOL     OW   25   3.085   2.711   1.388 -0.0237 -0.3340  0.4367
    9SOL    HW1   26   2.996   2.667   1.377 -1.0229  1.9420 -2.3118
    9SOL    HW2   27   0.067   2.643   1.393  2.1553 -3.0373  0.8768
   10SOL     OW   28   1.176   2.425   0.508  0.0979 -0.2976  0.4187
   10SOL    HW1   29   1.235   2.481   0.451 -1.8495  0.1744  0.1673
   10SOL    HW2   30   1.078   2.451   0.505  0.8353 -0.0562  2.6343
   11SOL     OW   31   1.708   1.829   1.299  0.1700  0.1223 -0.0289
   11SOL    HW1   32   1.811   1.838   1.284  3.1320  0.7263  2.6112
   11SOL    HW2   33   1.657   1.807   1.210  0.6526  1.0217 -2.7446
   12SOL     OW   34   0.092   0.832   2.041  0.3285 -0.1683 -0.9677
   12SOL    HW1   35   0.108   0.817   1.938 -1.4226  4.2182 -0.2155
   12SOL    HW2   36   0.178   0.833   2.095 -2.6685 -1.3410  2.2301
   13SOL     OW   37   2.282   2.860   0.137 -0.2644  0.1000 -0.2569
   13SOL    HW1   38   2.246   2.766   0.136  0.2125  0.6896  0.8275
   13SOL    HW2   39   2.337   2.873   0.050 -2.8384 -0.0004  0.4734
   14SOL     OW   40   1.365   1.791   0.251  0.0956 -0.6912  0.0975
   14SOL    HW1   41   1.380   1.770   0.153  1.5123 -0.6262 -2.3241
   14SOL    HW2   42   1.445   1.833   0.299  0.4479 -0.9778  0.9516
   15SOL     OW   43   2.952   2.656   1.799  0.7164 -0.1137  0.4233
   15SOL    HW1   44   2.965   2.567   1.753  1.0883 -0.2375  0.2556
   15SOL    HW2   45   2.878   2.716   1.768  0.2260  0.7743 -1.3857
   16SOL     OW   46   2.778   0.534   0.825  0.2404  0.7519 -0.6080
   16SOL    HW1   47   2.855   0.505   0.892 -0.7003 -0.8816 -1.6111
   16SOL    HW2   48   2.754   0.451   0.769  1.3948  1.2185 -1.5396
   17SOL     OW   49   1.008   0.286   0.649  0.2128 -0.2334 -0.4098
   17SOL    HW1   50   0.915   0.273   0.692 -0.3427  4.7841  3.4189
   17SOL    HW2   51   1.038   0.383   0.650 -0.3779  1.7178 -1.3009
   18SOL     OW   52   1.094   0.219   0.977 -0.1115  0.8193  0.4254
   18SOL    HW1   53   1.127   0.203   0.884 -0.6749  2.7550 -2.4447
   18SOL    HW2   54   1.171   0.245   1.042  1.7477  1.6893  3.7647
   19SOL     OW   55   1.993   1.237   0.751  0.3787  0.1404 -0.5328
   19SOL    HW1   56   2.087   1.242   0.716 -3.6146  0.1283  1.8655
   19SOL    HW2   57   1.921   1.271   0.684 -2.5035  0.7636 -1.2654
   20SOL     OW   58   2.338   1.573   2.896  0.6868 -0.2039 -0.9745
   20SOL    HW1   59   2.257   1.519   2.860  0.6725 -0.4293  0.0701
   20SOL    HW2   60   2.384   1.633   2.830 -1.6313 -1.5500 -1.3259
   21SOL     OW   61   1.587   2.982   0.328  0.7987  0.2444 -0.2268
   21SOL    HW1   62   1.487   3.018   0.321 -2.2414  1.5643  0.6575
   21SOL    HW2   63   1.639   2.990   0.242 -1.4723  1.6529  2.8749
   22SOL     OW   64   3.062   0.949   0.705 -0.0067 -0.0760  0.1996
   22SOL    HW1   65   3.056   1.048   0.674 -2.9978 -1.7511 -0.5677
   22SOL    HW2   66   3.001   0.889   0.646  0.9525 -0.6441 -2.0087
   23SOL     OW   67   0.422   0.216   1.883 -0.5857  0.2761 -0.0701
   23SOL    HW1   68   0.518   0.233   1.913  1.2396  2.3552 -0.8470
   23SOL    HW2   69   0.423   0.153   1.802  2.1409  2.3509 -0.9892
   24SOL     OW   70   2.163   2.212   1.140 -0.1836 -0.3751 -0.1655
   24SOL    HW1   71   2.129   2.294   1.091  0.8712 -0.5193 -0.2323
   24SOL    HW2   72   2.171   2.137   1.070 -1.2997 -0.0121 -1.9786
   25SOL     OW   73   1.763   0.069   2.570  0.0122  0.3312  0.3000
   25SOL    HW1   74   1.783   3.094   2.644 -0.7619 -2.1208  0.5386
   25SOL    HW2   75   1.663   0.091   2.581 -0.4260  0.3959  2.2233
   26SOL     OW   76   1.557   2.394   3.090  0.4624  0.1294  0.4404
   26SOL    HW1   77   1.533   2.492   0.003 -0.9461  0.7726  1.5586
   26SOL    HW2   78   1.481   2.344   3.044 -1.4763  2.1641  2.8014
   27SOL     OW   79   1.343   0.359   1.289  0.0403 -0.1996 -0.7057
   27SOL    HW1   80   1.358   0.328   1.194  0.5217  1.2880 -1.1339
   27SOL    HW2   81   1.395   0.306   1.354 -4.5604  1.6241 -2.6308
   28SOL     OW   82   0.810   1.629   0.550 -0.0563  0.3611  0.1786
   28SOL    HW1   83   0.764   1.645   0.462  2.1936  0.5126  2.3393
   28SOL    HW2   84   0.909   1.599   0.534  1.1156 -1.2323  0.0254
   29SOL     OW   85   2.438   0.440   1.614 -0.0789  0.7691  0.0399
   29SOL    HW1   86   2.354   0.402   1.565 -2.1871 -2.8367 -0.6832
   29SOL    HW2   87   2.500   0.357   1.636  2.1430 -1.0034  2.4366
   30SOL     OW   88   1.548   2.369   1.543 -0.1594 -0.1182 -0.9345
   30SOL    HW1   89   1.650   2.359   1.555  3.2750  0.4186 -1.0061
   30SOL    HW2   90   1.510   2.323   1.460 -0.7119 -1.6365  0.6691
   31SOL     OW   91   1.941   2.835   1.526 -0.5493 -0.3543 -0.6430
   31SOL    HW1   92   1.918   2.873   1.618  0.5825 -1.8206 -0.9240
   31SOL    HW2   93   1.991   2.899   1.464  1.3590 -0.9153 -1.0865
   32SOL     OW   94   2.079   1.410   2.282 -0.2547  0.6113  0.6202
   32SOL    HW1   95   2.042   1.320   2.256  0.7386  0.4635 -0.7972
   32SOL    HW2   96   2.181   1.399   2.291  2.2771  0.2695 -0.2984
   33SOL     OW   97   2.634   0.676   2.783 -0.4408 -0.1501  0.4255
   33SOL    HW1   98   2.684   0.704   2.695  0.0048 -0.0093 -1.9288
   33SOL    HW2   99   2.538   0.696   2.768  3.7173 -1.4494 -0.8937
   34SOL     OW  100   1.727   0.343   0.318 -1.1482  0.7182  0.3192
   34SOL    HW1  101   1.627   0.322   0.329 -0.5174 -0.9590  2.6789
   34SOL    HW2  102   1.740   0.420   0.257 -3.3641 -0.3946 -0.9871
   35SOL     OW  103   0.216   1.986   2.166  0.1849  0.0343 -0.3669
   35SOL    HW1  104   0.145   2.055   2.181  0.1612  0.4810  0.7103
   35SOL    HW2  105   0.205   1.927   2.085  2.6661  0.7224  0.4103
   36SOL     OW  106   2.463   1.708   2.710 -0.5175  0.0621  0.1507
   36SOL    HW1  107   2.541   1.773   2.747  0.7356  2.5833 -1.2969
   36SOL    HW2  108   2.430   1.745   2.620  0.9739  0.3739 -1.1229
   37SOL     OW  109   1.324   2.951   1.692 -0.2683 -0.6312  0.1071
   37SOL    HW1  110   1.360   2.868   1.643  1.9785  0.3999 -2.4180
   37SOL    HW2  111   1.361   2.963   1.785 -0.2256  0.1203  3.0810
   38SOL     OW  112   0.519   0.667   2.687  0.1412  0.1163  0.1533
   38SOL    HW1  113   0.510   0.737   2.616 -1.0786  0.6263  1.7994
   38SOL    HW2  114   0.565   0.586   2.652 -1.0299 -1.3694  3.4427
   39SOL     OW  115   1.910   0.807   1.448 -0.2966 -0.5894 -0.2033
   39SOL    HW1  116   1.823   0.771   1.412 -0.1924 -2.0426  1.3051
   39SOL    HW2  117   1.947   0.880   1.390 -1.3511  1.7719 -0.5311
   40SOL     OW  118   1.180   2.455   0.783  0.1353 -0.2263  0.3703
   40SOL    HW1  119   1.190   2.367   0.835 -1.7444 -0.5756  0.4963
   40SOL    HW2  120   1.188   2.446   0.683  0.4959  2.2732  1.5919
   41SOL     OW  121   2.044   1.999   1.280 -0.0435 -0.5351 -0.3093
   41SOL    HW1  122   2.009   1.959   1.190 -0.8716 -1.8601 -1.2549
   41SOL    HW2  123   2.104   2.083   1.265  1.1783  1.5601  1.7073
   42SOL     OW  124   2.345   0.598   0.757 -0.2127 -0.2655  0.2324
   42SOL    HW1  125   2.412   0.646   0.821  1.6831 -1.0575 -0.0619
   42SOL    HW2  126   2.342   0.648   0.668  0.1137 -0.8418 -2.8222
   43SOL     OW  127   0.854   1.356   2.401  0.0909  0.8433 -0.3606
   43SOL    HW1  128   0.788   1.275   2.408  0.0416 -1.6540  0.5871
   43SOL    HW2  129   0.811   1.446   2.378 -0.8148 -0.1738 -1.2257
   44SOL     OW  130   1.665   2.639   1.244 -0.7572 -0.4476  0.6344
   44SOL    HW1  131   1.590   2.604   1.192  1.7429 -1.1779  2.3415
   44SOL    HW2  132   1.736   2.566   1.257 -1.1084 -0.6856  4.6408
   45SOL     OW  133   0.935   3.072   2.648  0.0453 -0.1395  0.6342
   45SOL    HW1  134   0.885   0.051   2.705  0.4860  2.8886 -0.5826
   45SOL    HW2  135   0.895   2.982   2.667 -3.6977  1.0646 -0.5249
   46SOL     OW  136   0.734   2.404   1.813  0.1662  0.3494 -0.3130
   46SOL    HW1  137   0.705   2.458   1.727 -1.6972  2.6826 -3.0088
   46SOL    HW2  138   0.747   2.463   1.892 -0.8370 -0.4557 -0.9516
   47SOL     OW  139   0.810   1.956   0.694 -0.5565  0.0307  0.3644
   47SOL    HW1  140   0.798   1.862   0.661  0.4037 -0.5745 -1.9937
   47SOL    HW2  141   0.756   1.969   0.780  1.2073  1.2511 -3.5065
   48SOL     OW  142   0.820   2.933   1.272  0.4496 -0.0778  0.0018
   48SOL    HW1  143   0.872   2.957   1.356  0.8633  0.7997 -0.8703
   48SOL    HW2  144   0.846   2.992   1.196 -0.4587  1.1877  1.0535
   49SOL     OW  145   2.872   3.087   2.919 -0.1791  0.2161  0.1762
   49SOL    HW1  146   2.861   0.086   2.955 -2.4668  1.4319 -0.3378
   49SOL    HW2  147   2.928   3.034   2.983  0.3806  1.2888 -0.7995
   50SOL     OW  148   1.577   1.134   0.527  0.2480 -0.5241 -0.2310
   50SOL    HW1  149   1.529   1.052   0.570  0.2207  3.4736 -3.4411
   50SOL    HW2  150   1.597   1.115   0.430 -2.0945  0.5989  2.7681
   51SOL     OW  151   2.042   0.085   0.642 -0.0149  0.0354  0.1010
   51SOL    HW1  152   1.973   0.143   0.587 -2.4739  1.5026 -1.1311
   51SOL    HW2  153   2.038   0.100   0.745 -0.2180  0.8102  2.7581
   52SOL     OW  154   1.029   1.552   0.322 -0.2727 -0.2867  0.2932
   52SOL    HW1  155   1.035   1.459   0.359  0.1256  1.5055  1.5972
   52SOL    HW2  156   0.971   1.563   0.239  2.8893  0.8823  1.3733
   53SOL     OW  157   0.272   0.987   2.652  0.5969 -0.4557 -0.1500
   53SOL    HW1  158   0.286   0.977   2.752 -3.2933 -0.4708 -1.5971
   53SOL    HW2  159   0.256   1.085   2.629 -2.7698  1.4740 -3.0994
   54SOL     OW  160   2.326   1.950   2.904  0.1655 -0.1608  0.3776
   54SOL    HW1  161   2.430   1.944   2.903  1.5824  0.3368  0.7941
   54SOL    HW2  162   2.285   1.871   2.954  1.8303  0.6248 -2.5267
   55SOL     OW  163   2.512   2.364   1.355 -0.2034 -0.2141 -0.2249
   55SOL    HW1  164   2.467   2.416   1.431 -1.2835 -1.5647 -1.4394
   55SOL    HW2  165   2.477   2.266   1.360 -0.8965  0.0646  0.9291
   56SOL     OW  166   1.583   3.081   1.411 -0.1374  0.1019 -0.0574
   56SOL    HW1  167   1.604   2.990   1.457 -0.2466 -2.9983  1.5708
   56SOL    HW2  168   1.591   3.081   1.310 -1.2634  0.7753 -4.9997
   57SOL     OW  169   1.622   1.736   0.821 -0.0303  0.3578 -0.2623
   57SOL    HW1  170   1.680   1.668   0.775  1.6438  0.9076  0.7777
   57SOL    HW2  171   1.530   1.716   0.785  1.8934 -0.7950 -0.8901
   58SOL     OW  172   2.481   0.041   1.768  0.3586  0.0473  0.1961
   58SOL    HW1  173   2.462   0.123   1.824  1.0229 -0.9902  0.0420
   58SOL    HW2  174   2.425   0.043   1.677 -0.5796  0.6036 -1.3769
   59SOL     OW  175   0.996   2.663   2.436  0.2046 -0.1103 -0.0193
   59SOL    HW1  176   1.008   2.765   2.427 -1.3286  0.7455 -0.7808
   59SOL    HW2  177   0.908   2.634   2.395  1.0534  2.4286  2.1052
   60SOL     OW  178   0.562   0.009   2.440 -0.1646 -0.2500  0.0170
   60SOL    HW1  179   0.484   0.037   2.379  0.9258 -0.8984 -1.2172
   60SOL    HW2  180   0.559   0.056   2.529  0.5342 -0.5417 -1.1282
   61SOL     OW  181   0.816   2.211   0.548  0.0830  0.3251 -0.7674
   61SOL    HW1  182   0.802   2.230   0.447  0.3767 -3.0170 -0.7651
   61SOL    HW2  183   0.867   2.123   0.568  1.4177 -1.8125  1.1890
   62SOL     OW  184   1.238   2.098   2.308 -0.1692 -0.0491 -0.5835
   62SOL    HW1  185   1.232   2.176   2.244  0.4648  1.0343  1.0647
   62SOL    HW2  186   1.160   2.093   2.374  1.0539 -2.1760  1.6210
   63SOL     OW  187   1.156   1.774   0.890  0.1566  0.2680  0.3533
   63SOL    HW1  188   1.061   1.741   0.871  2.9555 -1.4375 -0.6934
   63SOL    HW2  189   1.228   1.724   0.840  1.4122  0.9565 -0.8957
   64SOL     OW  190   1.468   1.410   0.044  0.4933  0.4705  0.4497
   64SOL    HW1  191   1.479   1.366   3.045 -0.3917 -0.8007 -0.7311
   64SOL    HW2  192   1.546   1.406   0.107 -0.9404 -0.3024 -1.5018
   65SOL     OW  193   1.693   2.214   2.253 -0.0167  0.2613 -0.2002
   65SOL    HW1  194   1.688   2.136   2.188 -1.7993 -0.5719 -1.3395
   65SOL    HW2  195   1.755   2.184   2.330 -1.0008 -0.4651 -0.2730
   66SOL     OW  196   0.346   1.053   1.017  0.3766  0.4754  0.3201
   66SOL    HW1  197   0.400   1.017   1.094  1.1115  1.5067 -0.1381
   66SOL    HW2  198   0.263   0.995   0.997  0.9061 -0.8651 -0.8102
   67SOL     OW  199   2.190   2.603   0.454  0.9858 -0.4949 -0.3472
   67SOL    HW1  200   2.159   2.534   0.523  0.9697  0.5553  2.6819
   67SOL    HW2  201   2.220   2.550   0.371 -0.7843  0.3003  0.2506
   68SOL     OW  202   2.348   2.543   1.537 -0.0787  0.2156 -0.5641
   68SOL    HW1  203   2.312   2.627   1.494  4.6928 -1.0861  2.4994
   68SOL    HW2  204   2.391   2.558   1.624 -1.7248 -1.9803 -0.8279
   69SOL     OW  205   2.383   2.395   2.575  0.4811  0.0555  0.3569
   69SOL    HW1  206   2.317   2.475   2.573  0.0067 -3.2934 -0.0032
   69SOL    HW2  207   2.366   2.329   2.502 -0.9617 -0.9289  0.9360
   70SOL     OW  208   0.299   1.279   2.624  0.2383  0.0143  0.0039
   70SOL    HW1  209   0.271   1.334   2.706  0.4220  2.1425  0.5202
   70SOL    HW2  210   0.220   1.248   2.567 -0.6639  0.4268  0.0802
   71SOL     OW  211   0.976   1.301   2.157 -0.6164 -0.3003  0.2357
   71SOL    HW1  212   0.926   1.303   2.245 -0.4399  1.3852 -1.4758
   71SOL    HW2  213   0.917   1.335   2.081  1.1277  1.3776  0.0920
   72SOL     OW  214   2.317   1.280   1.765  0.1846 -0.6857 -0.0269
   72SOL    HW1  215   2.315   1.189   1.712  0.2015  0.8332 -1.3508
   72SOL    HW2  216   2.405   1.280   1.819 -2.9327  0.8209  2.3694
   73SOL     OW  217   0.554   1.694   2.904  0.6143  0.0734 -0.1336
   73SOL    HW1  218   0.598   1.762   2.841  0.2285 -1.5593 -4.3179
   73SOL    HW2  219   0.472   1.739   2.943  0.5337 -1.3607  0.1493
   74SOL     OW  220   1.711   2.997   1.894 -0.3175  0.3716  0.1701
   74SOL    HW1  221   1.762   2.907   1.903 -1.4059 -0.8070 -1.3500
   74SOL    HW2  222   1.613   2.991   1.870 -0.4574 -0.3968  1.0282
   75SOL     OW  223   1.046   2.795   0.538  0.2896 -0.0832 -0.4741
   75SOL    HW1  224   1.138   2.829   0.517 -0.2943  1.9233  0.8125
   75SOL    HW2  225   0.978   2.869   0.558 -1.4465  0.8913 -0.2885
   76SOL     OW  226   3.011   1.896   2.659  0.5197 -0.3177  0.2703
   76SOL    HW1  227   3.017   1.997   2.651  0.5628 -0.2561 -0.7572
   76SOL    HW2  228   3.093   1.850   2.700 -0.9814 -1.5314  0.1132
   77SOL     OW  229   0.104   2.708   1.014  0.7968  0.3197  0.0462
   77SOL    HW1  230   0.013   2.704   1.055  1.5007 -0.7194 -3.2486
   77SOL    HW2  231   0.174   2.676   1.080  0.2351  0.2586 -2.0748
   78SOL     OW  232   2.639   1.110   0.370  0.0244 -0.3419  0.1557
   78SOL    HW1  233   2.719   1.124   0.311 -2.4800  0.7978 -0.6628
   78SOL    HW2  234   2.662   1.119   0.472  1.8160  1.8020 -0.1157
   79SOL     OW  235   0.318   1.776   3.041 -0.8620  0.4949  0.2807
   79SOL    HW1  236   0.305   1.697   0.011 -2.0935 -0.2155 -0.8602
   79SOL    HW2  237   0.317   1.864   3.092  1.0929  0.1779  2.8297
   80SOL     OW  238   1.666   1.529   1.427  0.0420  0.0952 -0.5470
   80SOL    HW1  239   1.684   1.607   1.489 -0.9328 -0.8807 -1.4181
   80SOL    HW2  240   1.572   1.543   1.389  1.7745  0.7019 -0.0665
   81SOL     OW  241   2.172   0.871   2.271  0.1576  0.0667  0.4237
   81SOL    HW1  242   2.229   0.790   2.277  0.1317  1.2858 -1.9415
   81SOL    HW2  243   2.072   0.848   2.271  1.2527 -0.0441  0.5465
   82SOL     OW  244   1.652   1.346   1.651  0.0216 -0.3218 -0.0019
   82SOL    HW1  245   1.648   1.430   1.592 -0.4650 -1.0660 -0.8234
   82SOL    HW2  246   1.611   1.362   1.743 -1.8338  3.0343 -2.4367
   83SOL     OW  247   0.105   0.241   0.021 -0.3095  0.1447  0.5471
   83SOL    HW1  248   0.020   0.288   0.048  4.1433 -1.7869 -0.9252
   83SOL    HW2  249   0.106   0.223   3.017 -0.2616  0.1019 -1.1067
   84SOL     OW  250   0.350   1.236   2.993 -0.6323 -0.1615 -0.8378
   84SOL    HW1  251   0.442   1.264   2.962  1.4860 -0.6179  0.6157
   84SOL    HW2  252   0.329   1.139   2.968  0.0148 -4.1576  1.5474
   85SOL     OW  253   2.146   1.582   1.970 -0.0481  0.4565  0.3063
   85SOL    HW1  254   2.248   1.585   1.960  0.7667  3.5850 -0.1467
   85SOL    HW2  255   2.113   1.601   2.062  3.3636 -1.1098 -2.2015
   86SOL     OW  256   0.722   1.051   1.134 -0.5268  0.3929  0.1529
   86SOL    HW1  257   0.821   1.075   1.119 -1.1593 -0.5818  1.6534
   86SOL    HW2  258   0.675   1.027   1.048  0.6745 -0.3412  0.8737
   87SOL     OW  259   2.461   2.040   2.380  0.9806  0.0671  0.2373
   87SOL    HW1  260   2.547   2.083   2.349  0.1781 -0.6928 -0.9061
   87SOL    HW2  261   2.379   2.100   2.384  1.9578 -0.8090 -1.8398
   88SOL     OW  262   0.212   2.853   0.288  0.1067 -0.4863  0.0380
   88SOL    HW1  263   0.242   2.838   0.383 -0.7000  2.0458 -1.5210
   88SOL    HW2  264   0.209   2.951   0.265  1.8969  0.5585 -1.7624
   89SOL     OW  265   1.704   0.525   0.129 -0.1853  0.1964 -0.0919
   89SOL    HW1  266   1.627   0.491   0.070 -2.8007  0.5970  1.6090
   89SOL    HW2  267   1.770   0.570   0.072 -2.6840 -1.2175  1.6619
   90SOL     OW  268   2.954   1.503   2.215 -0.5211  0.3020 -0.6219
   90SOL    HW1  269   2.865   1.466   2.240  0.2534 -1.8882 -3.4855
   90SOL    HW2  270   3.017   1.482   2.292 -1.3029 -2.1675  2.6053
   91SOL     OW  271   2.078   3.036   1.401  0.1599  0.4581 -0.0792
   91SOL    HW1  272   2.140   3.031   1.315  2.5969 -1.5952  1.9228
   91SOL    HW2  273   1.987   3.077   1.384 -1.0050 -0.5616  0.4648
   92SOL     OW  274   2.231   1.463   1.199 -0.0892 -0.0054  0.6045
   92SOL    HW1  275   2.273   1.436   1.107  1.5003 -1.8146  0.2228
   92SOL    HW2  276   2.284   1.537   1.244 -0.1247 -1.7578  0.5638
   93SOL     OW  277   0.234   1.236   0.174  0.2651  0.2411 -0.0324
   93SOL    HW1  278   0.264   1.260   0.082 -1.8631 -1.5156  0.0425
   93SOL    HW2  279   0.304   1.177   0.218 -2.2792  2.6643  1.3083
   94SOL     OW  280   1.108   2.581   1.674  0.1752  0.1930 -0.0900
   94SOL    HW1  281   1.084   2.577   1.773  0.7772 -1.9254  0.4345
   94SOL    HW2  282   1.208   2.555   1.664  0.6787 -0.2647  0.8276
   95SOL     OW  283   0.291   0.627   0.618  0.5024 -0.0851 -0.4169
   95SOL    HW1  284   0.373   0.673   0.576  3.7491 -1.6481  1.0538
   95SOL    HW2  285   0.289   0.648   0.717 -1.9654 -1.6174 -2.3011
   96SOL     OW  286   0.019   2.818   1.638  0.7023  0.3268  0.4001
   96SOL    HW1  287   3.027   2.850   1.677 -0.0833 -0.1462 -0.1390
   96SOL    HW2  288   3.095   2.774   1.548  0.5871 -1.7205 -0.3774
   97SOL     OW  289   2.321   0.458   1.264 -0.4694 -0.2478  0.3988
   97SOL    HW1  290   2.254   0.533   1.251  1.3816 -2.4873  0.0664
   97SOL    HW2  291   2.362   0.431   1.173 -0.7032  0.8353 -2.1221
   98SOL     OW  292   3.040   2.331   1.383 -0.2785 -0.0873  0.2411
   98SOL    HW1  293   2.959   2.271   1.388 -2.2386  1.8486 -1.2517
   98SOL    HW2  294   0.026   2.282   1.419  0.3620 -1.8767  1.7194
   99SOL     OW  295   0.051   0.442   1.189 -0.4422 -0.1206 -1.0574
   99SOL    HW1  296   0.135   0.386   1.167  0.6078 -0.3737 -2.3853
   99SOL    HW2  297   0.029   0.444   1.290 -0.4813 -2.0870  1.2459
  100SOL     OW  298   2.415   0.332   2.668  0.1042  0.0182 -0.3353
  100SOL    HW1  299   2.425   0.230   2.678 -2.3255  0.3597 -2.4250
  100SOL    HW2  300   2.408   0.368   2.761  0.9623  1.1438 -2.2811
  101SOL     OW  301   0.439   3.027   2.031  0.5921 -0.3916 -0.0849
  101SOL    HW1  302   0.466   2.986   1.942  0.4714  2.8080  0.5864
  101SOL    HW2  303   0.518   3.062   2.084 -1.1004 -0.1001 -3.9237
  102SOL     OW  304   0.595   0.388   1.485 -0.2719  0.4551  0.1249
  102SOL    HW1  305   0.504   0.415   1.453  2.0095 -1.0523  0.7851
  102SOL    HW2  306   0.599   0.375   1.589 -0.7366 -0.0166 -2.9995
  103SOL     OW  307   0.964   0.832   2.573 -0.0056 -0.3760  0.7045
  103SOL    HW1  308   1.007   0.766   2.512  0.2033 -0.7460  1.2260
  103SOL    HW2  309   0.894   0.882   2.526 -0.0843 -0.1048 -0.2055
  104SOL     OW  310   0.234   0.429   1.826  0.0609 -0.4730 -0.1844
  104SOL    HW1  311   0.136   0.427   1.846  2.5374  1.6772  2.5855
  104SOL    HW2  312   0.288   0.345   1.856 -0.1133 -0.4393  0.3541
  105SOL     OW  313   2.383   2.162   1.670  0.3657  0.2091 -0.1755
  105SOL    HW1  314   2.404   2.149   1.572  2.9804 -0.8835 -2.1622
  105SOL    HW2  315   2.282   2.171   1.685  0.9767  0.3027 -0.1117
  106SOL     OW  316   1.325   3.091   0.324 -0.3047  0.0319  0.3141
  106SOL    HW1  317   1.234   3.065   0.287  0.6014  0.7392 -0.2865
  106SOL    HW2  318   1.353   0.087   0.293  1.1641 -0.1046  0.4432
  107SOL     OW  319   2.441   2.106   1.415 -0.0856  0.0091  0.8908
  107SOL    HW1  320   2.528   2.052   1.443  3.2869 -3.4878  0.1131
  107SOL    HW2  321   2.374   2.035   1.393 -3.4350  0.7090  0.8595
  108SOL     OW  322   0.068   2.255   0.661  0.6516  0.4287  0.0852
  108SOL    HW1  323   3.086   2.286   0.606 -3.1250  0.9992  1.0617
  108SOL    HW2  324   0.104   2.333   0.718 -0.5362  2.0531  0.6642
  109SOL     OW  325   1.657   2.968   0.591 -0.2760  0.4423 -0.3459
  109SOL    HW1  326   1.649   2.980   0.487  2.6901 -3.0318 -3.7011
  109SOL    HW2  327   1.658   2.866   0.612 -0.7898 -2.6423  0.4882
  110SOL     OW  328   2.005   1.626   1.063  0.5035 -0.3351  0.2780
  110SOL    HW1  329   2.098   1.628   1.024  1.7356 -1.7913  0.2179
  110SOL    HW2  330   1.958   1.540   1.034  0.1315  0.5724  1.5047
  111SOL     OW  331   1.480   2.455   1.905  0.0693  0.6250  0.1643
  111SOL    HW1  332   1.578   2.447   1.884 -3.0802  1.5160  0.0314
  111SOL    HW2  333   1.458   2.425   2.001 -0.2583 -3.7911  1.1532
  112SOL     OW  334   1.897   2.072   0.003  0.4993  0.3127  0.3962
  112SOL    HW1  335   1.994   2.096   3.070  1.6316 -2.4806  2.4647
  112SOL    HW2  336   1.888   1.971   3.096  1.6603  0.1588  1.0354
  113SOL     OW  337   2.057   1.810   1.801 -0.0484 -0.3212 -0.5289
  113SOL    HW1  338   2.123   1.746   1.839 -2.9558  1.6233 -1.1752
  113SOL    HW2  339   2.060   1.808   1.697  3.2459  0.5123 -3.2568
  114SOL     OW  340   2.960   1.276   1.723 -0.2958  0.0794  0.0630
  114SOL    HW1  341   2.994   1.353   1.777  0.7596  0.6683 -1.5154
  114SOL    HW2  342   3.036   1.235   1.672  3.4265  0.6699  3.6164
  115SOL     OW  343   2.999   0.821   0.045  0.6270 -0.2323 -0.4002
  115SOL    HW1  344   3.062   0.898   0.050  2.8259  0.7168 -0.1255
  115SOL    HW2  345   2.927   0.823   0.120 -2.7791  0.1893  0.0293
  116SOL     OW  346   2.788   0.646   3.042 -0.3217 -0.1281  0.3969
  116SOL    HW1  347   2.861   0.715   3.055 -0.5807 -2.4915  0.0548
  116SOL    HW2  348   2.732   0.675   2.958  0.3196  0.4327  0.5175
  117SOL     OW  349   2.612   2.207   2.991  0.1893 -0.2271 -0.3010
  117SOL    HW1  350   2.648   2.296   3.015  0.5438 -0.9423 -0.2283
  117SOL    HW2  351   2.588   2.203   2.891 -1.4676  2.0977 -2.6146
  118SOL     OW  352   0.641   2.024   2.487 -0.1846 -0.5212  0.5005
  118SOL    HW1  353   0.699   2.104   2.455  0.0888 -1.5337 -0.1959
  118SOL    HW2  354   0.544   2.043   2.463 -2.1168 -1.2959  2.1809
  119SOL     OW  355   0.816   2.786   0.363 -0.2212 -0.5076 -0.1598
  119SOL    HW1  356   0.791   2.694   0.333  3.7330 -0.1325 -1.3352
  119SOL    HW2  357   0.796   2.808   0.464 -0.5285  1.5424  1.4359
  120SOL     OW  358   1.382   1.036   0.144 -0.0218 -0.1332  0.3700
  120SOL    HW1  359   1.336   0.978   0.216  0.9262  2.4547  0.3443
  120SOL    HW2  360   1.418   0.981   0.068 -0.8163 -0.5769  0.5802
  121SOL     OW  361   1.457   0.035   0.675  0.1784  0.2181 -0.4822
  121SOL    HW1  362   1.533   3.065   0.639  0.1150 -0.3140 -1.3529
  121SOL    HW2  363   1.457   0.125   0.625  0.2794 -0.1363 -0.7710
  122SOL     OW  364   2.350   1.470   2.280 -0.0662 -0.2883 -0.1678
  122SOL    HW1  365   2.416   1.411   2.234  1.3591 -1.8704 -0.1125
  122SOL    HW2  366   2.374   1.574   2.286 -1.5461 -0.2441  0.8067
  123SOL     OW  367   1.376   1.098   1.416 -0.2013 -0.4944 -0.3785
  123SOL    HW1  368   1.337   1.009   1.399 -0.3972  3.0727  1.5890
  123SOL    HW2  369   1.390   1.112   1.517  2.0524 -0.2315 -1.5023
  124SOL     OW  370   0.606   0.420   0.084 -0.3364  0.3816  0.3175
  124SOL    HW1  371   0.588   0.323   0.103 -0.1147 -2.8727 -1.6377
  124SOL    HW2  372   0.523   0.467   0.050 -2.0115 -0.9724 -1.8793
  125SOL     OW  373   0.721   0.358   0.370  0.0125 -0.0645 -0.4872
  125SOL    HW1  374   0.797   0.424   0.360 -0.4783 -1.8387  0.5951
  125SOL    HW2  375   0.740   0.295   0.448  4.1491  1.1493 -2.3884
  126SOL     OW  376   0.306   1.699   0.336  0.3925  0.5621 -0.2598
  126SOL    HW1  377   0.259   1.774   0.379  1.3017 -3.0560 -0.9560
  126SOL    HW2  378   0.407   1.711   0.348 -0.8551 -0.9593 -1.3332
  127SOL     OW  379   0.694   2.621   1.630 -0.3901  0.3559  1.2069
  127SOL    HW1  380   0.613   2.671   1.601  1.7317 -2.8025  0.3537
  127SOL    HW2  381   0.753   2.675   1.696 -0.0528  0.4063  1.7739
  128SOL     OW  382   1.111   1.836   0.302  0.0056 -0.4881 -0.1506
  128SOL    HW1  383   1.074   1.741   0.322 -1.6694 -0.8536  1.3845
  128SOL    HW2  384   1.210   1.828   0.285 -0.3516  1.6304  1.4890
  129SOL     OW  385   1.765   1.648   1.872  0.0272 -0.4121  0.3970
  129SOL    HW1  386   1.760   1.681   1.779 -1.3172  0.1191  2.4655
  129SOL    HW2  387   1.821   1.563   1.872  3.4840  2.1025 -0.4162
  130SOL     OW  388   1.832   2.188   1.337  0.6908 -0.0191 -0.4828
  130SOL    HW1  389   1.918   2.135   1.333  0.9066 -3.7270  0.9747
  130SOL    HW2  390   1.779   2.190   1.252 -0.1559 -1.2654  2.2309
  131SOL     OW  391   0.057   2.201   2.097  0.3452  0.0559  0.5999
  131SOL    HW1  392   0.010   2.185   2.008  0.8468 -1.7381 -0.9543
  131SOL    HW2  393   0.092   2.298   2.099  1.1813  4.3102 -1.6795
  132SOL     OW  394   2.634   1.816   0.861  0.5057 -0.2035 -0.0301
  132SOL    HW1  395   2.723   1.852   0.835 -1.3372 -0.0614 -0.0490
  132SOL    HW2  396   2.566   1.891   0.876 -1.4141  1.2045 -1.4527
  133SOL     OW  397   0.541   0.797   1.621  0.4555  0.1260  0.6500
  133SOL    HW1  398   0.566   0.764   1.532 -0.2233 -0.7781  1.0123
  133SOL    HW2  399   0.577   0.742   1.698  0.5947  0.1602 -2.1460
  134SOL     OW  400   2.488   1.710   0.180  0.1049  0.4256 -0.1337
  134SOL    HW1  401   2.461   1.758   0.266  0.5607  0.2682  1.2108
  134SOL    HW2  402   2.412   1.708   0.109 -2.2490  0.1863 -1.0391
  135SOL     OW  403   1.858   1.003   2.534 -0.0857  0.1411 -0.2093
  135SOL    HW1  404   1.817   0.942   2.462  0.0033 -2.3370  0.0648
  135SOL    HW2  405   1.899   0.948   2.609 -1.7373  0.9941  2.2009
  136SOL     OW  406   2.798   1.721   1.484  0.2502 -0.3537  0.3591
  136SOL    HW1  407   2.898   1.690   1.485  1.4491 -0.1502  1.2787
  136SOL    HW2  408   2.761   1.723   1.578 -1.0338  1.0686  1.2247
  137SOL     OW  409   2.670   1.889   0.542  0.2078  0.0640 -0.5669
  137SOL    HW1  410   2.761   1.852   0.576  2.4632  0.0979 -1.2001
  137SOL    HW2  411   2.649   1.979   0.582  0.8889  1.2315  0.4294
  138SOL     OW  412   2.903   0.739   0.638  0.1534 -0.3241  0.2490
  138SOL    HW1  413   2.828   0.703   0.574 -2.2148  1.2803  1.6726
  138SOL    HW2  414   2.915   0.673   0.712 -0.0417  0.4283 -0.7301
  139SOL     OW  415   3.052   3.003   3.096  0.0473  0.2391  0.5134
  139SOL    HW1  416   3.048   3.087   0.057 -0.5790 -0.6344  2.6151
  139SOL    HW2  417   0.041   2.998   3.041 -0.5772 -0.1544  0.6315
  140SOL     OW  418   0.742   1.047   1.609 -0.6969  0.0239 -0.2213
  140SOL    HW1  419   0.711   1.122   1.674 -2.3263  1.1563  1.5666
  140SOL    HW2  420   0.660   1.010   1.564  3.8734 -0.9194 -0.2415
  141SOL     OW  421   1.395   1.478   1.031  0.1248  0.0249 -0.0334
  141SOL    HW1  422   1.367   1.407   1.102  1.4479  1.1665  1.7974
  141SOL    HW2  423   1.379   1.569   1.070  0.8461 -1.8146  1.2787
  142SOL     OW  424   1.239   0.650   1.180  0.1439 -0.3769 -0.0393
  142SOL    HW1  425   1.252   0.562   1.134  1.0678 -1.1045  1.4373
  142SOL    HW2  426   1.165   0.647   1.248 -0.0946  1.2293 -1.4283
  143SOL     OW  427   0.670   1.096   2.502  0.1697 -0.2572  0.0549
  143SOL    HW1  428   0.615   1.180   2.509  1.9035 -0.0746  1.6500
  143SOL    HW2  429   0.675   1.071   2.401  0.0344 -1.5057 -2.5102
  144SOL     OW  430   2.366   3.000   0.351  0.0318  0.1602 -0.4544
  144SOL    HW1  431   2.460   3.013   0.311 -0.7149 -1.8071  1.4257
  144SOL    HW2  432   2.300   2.975   0.280 -0.3385  0.4024 -1.4878
  145SOL     OW  433   2.408   0.386   2.938 -0.0757  0.1423 -0.1077
  145SOL    HW1  434   2.335   0.444   2.980 -0.1485 -1.4100  1.6914
  145SOL    HW2  435   2.496   0.415   2.986 -0.0043  2.1760  2.2901
  146SOL     OW  436   2.890   2.896   0.426 -0.2174  0.0116 -0.8993
  146SOL    HW1  437   2.937   2.890   0.339  2.1003  1.5288  1.8093
  146SOL    HW2  438   2.819   2.823   0.433  1.8504 -0.2660 -1.6015
  147SOL     OW  439   1.229   1.124   2.836 -0.0004  0.3765 -0.4860
  147SOL    HW1  440   1.250   1.211   2.797 -2.8960 -3.4450  1.3109
  147SOL    HW2  441   1.224   1.050   2.769  0.2061  0.1231  2.4788
  148SOL     OW  442   1.367   0.179   0.014 -1.2537  0.3745  0.3782
  148SOL    HW1  443   1.414   0.092   3.094 -0.1617  1.2003  0.7034
  148SOL    HW2  444   1.274   0.177   3.062  0.0148  1.6428  0.1932
  149SOL     OW  445   1.639   0.187   1.915  0.0359  0.7041  0.4584
  149SOL    HW1  446   1.597   0.184   2.004 -0.7322  0.5180 -1.4582
  149SOL    HW2  447   1.677   0.093   1.898  2.7538 -0.0721  0.1721
  150SOL     OW  448   2.028   0.025   2.947  0.2557  0.2710  0.1303
  150SOL    HW1  449   2.040   3.062   3.031 -1.8495 -1.5253 -1.4921
  150SOL    HW2  450   2.112   0.018   2.889 -1.7599  1.5884  0.5945
  151SOL     OW  451   0.575   1.574   0.128  0.0783  0.3162  1.2875
  151SOL    HW1  452   0.476   1.568   0.113  1.3882 -0.4166 -2.7797
  151SOL    HW2  453   0.617   1.525   0.051  1.9382 -2.0715  0.3801
  152SOL     OW  454   0.268   0.280   1.213 -0.0988  0.0773 -0.4779
  152SOL    HW1  455   0.340   0.255   1.144 -1.5908  0.2545 -0.3916
  152SOL    HW2  456   0.310   0.302   1.305  2.8914 -0.7324  0.6170
  153SOL     OW  457   2.615   2.831   2.049  0.3102  0.0127 -0.7016
  153SOL    HW1  458   2.663   2.907   1.999  1.0085  1.9825  0.1122
  153SOL    HW2  459   2.597   2.849   2.148  0.2394  0.0284 -3.2883
  154SOL     OW  460   2.171   3.084   2.592  0.0132  0.8647  0.3025
  154SOL    HW1  461   2.130   3.018   2.523  0.4210 -1.0803 -1.3851
  154SOL    HW2  462   2.125   0.072   2.582  0.0398 -2.9915  3.6876
  155SOL     OW  463   0.428   1.089   0.596  0.5803 -0.6188  0.3054
  155SOL    HW1  464   0.360   1.166   0.595 -0.5259 -2.5554  1.1574
  155SOL    HW2  465   0.514   1.137   0.622  1.6708 -1.0969  0.5410
  156SOL     OW  466   2.469   1.598   0.803 -0.0700  0.0526 -0.3511
  156SOL    HW1  467   2.526   1.682   0.796 -1.7434  0.8950 -2.9761
  156SOL    HW2  468   2.475   1.549   0.715  1.2977 -0.4874  4.0079
  157SOL     OW  469   0.854   0.399   3.072  0.1391  0.0188 -0.6770
  157SOL    HW1  470   0.760   0.405   0.019 -2.6470  1.2493 -1.9940
  157SOL    HW2  471   0.931   0.386   0.046  3.4499 -2.0019  1.9937
  158SOL     OW  472   1.702   0.816   1.069 -0.3618 -0.0552  0.4176
  158SOL    HW1  473   1.663   0.909   1.051  0.3754  0.9832 -0.5118
  158SOL    HW2  474   1.630   0.754   1.104  2.9731  1.0449  0.4397
  159SOL     OW  475   0.037   0.493   0.271 -0.3965 -0.0705 -0.0478
  159SOL    HW1  476   0.021   0.525   0.366 -0.5382  0.2172 -0.2546
  159SOL    HW2  477   0.129   0.451   0.259  0.5684 -0.0989  0.5338
  160SOL     OW  478   2.280   2.144   2.016 -0.8985  0.2694  0.5366
  160SOL    HW1  479   2.189   2.171   2.045  0.9268  0.6826 -0.3742
  160SOL    HW2  480   2.324   2.227   1.976 -1.6970 -1.8464  2.9744
  161SOL     OW  481   0.310   0.935   2.970  0.1079  0.2519 -0.0454
  161SOL    HW1  482   0.398   0.893   2.940 -0.0914  2.4794 -0.2878
  161SOL    HW2  483   0.277   0.888   3.053  2.5391  1.3344 -0.3933
  162SOL     OW  484   0.379   0.654   1.943 -0.1176 -0.2260  0.2994
  162SOL    HW1  485   0.463   0.624   1.895 -0.1285 -1.8701  0.1915
  162SOL    HW2  486   0.311   0.579   1.942 -0.4400 -1.8312 -1.3286
  163SOL     OW  487   2.734   3.061   2.699  0.0138  0.6112 -0.2088
  163SOL    HW1  488   2.786   3.094   2.784  1.2422 -0.2288  1.1329
  163SOL    HW2  489   2.722   0.037   2.630 -1.4852  0.5374 -0.6465
  164SOL     OW  490   2.288   2.122   0.187 -0.0944 -0.1624 -0.0288
  164SOL    HW1  491   2.249   2.120   0.094  0.3585 -1.6424 -0.3921
  164SOL    HW2  492   2.390   2.102   0.181  3.4993  0.8415  0.2410
  165SOL     OW  493   0.467   0.198   1.030 -0.0819 -0.0547 -0.6807
  165SOL    HW1  494   0.533   0.199   0.953 -0.4471 -0.0727  1.3102
  165SOL    HW2  495   0.494   0.128   1.100  1.0688 -1.6779  0.0404
  166SOL     OW  496   2.369   0.460   0.338  0.5769 -0.2033 -0.2846
  166SOL    HW1  497   2.446   0.408   0.293  0.5890  1.2443  2.1838
  166SOL    HW2  498   2.410   0.516   0.411 -1.9113 -0.6792 -1.7104
  167SOL     OW  499   2.512   0.745   0.079 -1.1265  0.5351  0.1784
  167SOL    HW1  500   2.532   0.647   0.096  1.0178 -1.1288 -2.0757
  167SOL    HW2  501   2.446   0.759   0.003  0.8851  2.1337  0.5641
  168SOL     OW  502   1.273   2.924   2.333  0.2312  0.0805  0.0872
  168SOL    HW1  503   1.175   2.919   2.355  1.5463  1.5602  0.5561
  168SOL    HW2  504   1.300   2.988   2.259 -3.8973 -0.3324  2.6716
  169SOL     OW  505   0.334   2.120   0.570  0.0409  0.4330 -0.6004
  169SOL    HW1  506   0.307   2.114   0.670  0.6393 -0.8422  0.8726
  169SOL    HW2  507   0.409   2.186   0.557  2.7566 -0.5072 -2.8785
  170SOL     OW  508   3.078   0.754   1.196 -0.2775 -0.6898  0.3329
  170SOL    HW1  509   0.026   0.661   1.209  0.9512 -1.4735  4.8964
  170SOL    HW2  510   2.997   0.745   1.135 -0.2214 -0.7233  1.7103
  171SOL     OW  511   2.736   1.384   2.330 -0.0672 -0.0266 -0.1874
  171SOL    HW1  512   2.730   1.302   2.394 -0.1702  1.3742 -1.1362
  171SOL    HW2  513   2.669   1.377   2.254  0.2721  0.5913  1.2619
  172SOL     OW  514   0.896   1.729   1.221 -0.1935 -0.1714 -0.7151
  172SOL    HW1  515   0.953   1.794   1.173  0.4804  2.2352  0.3374
  172SOL    HW2  516   0.898   1.733   1.322  1.5520 -0.2334 -0.4847
  173SOL     OW  517   1.824   1.809   3.093  0.2414 -0.2057 -0.1079
  173SOL    HW1  518   1.847   1.771   0.087  0.1297 -0.9766  1.0340
  173SOL    HW2  519   1.723   1.793   3.068  0.2529  2.3949 -1.9339
  174SOL     OW  520   1.854   0.643   2.858  0.2406 -0.6645  0.3552
  174SOL    HW1  521   1.949   0.656   2.821  0.9544  0.2923 -1.2001
  174SOL    HW2  522   1.848   0.644   2.959 -0.0511  1.2609  1.3953
  175SOL     OW  523   0.501   1.648   1.485  0.3257  0.0735 -0.0276
  175SOL    HW1  524   0.490   1.747   1.497  0.9235  1.9155  3.0928
  175SOL    HW2  525   0.534   1.603   1.566  0.8642  2.1052 -0.9309
  176SOL     OW  526   0.772   0.080   0.434  0.0079  0.1372  0.0553
  176SOL    HW1  527   0.738   0.035   0.517  1.5266  1.8628 -0.8582
  176SOL    HW2  528   0.711   0.065   0.352 -0.1424  0.1544  1.0361
  177SOL     OW  529   0.178   1.450   0.397 -0.5026 -0.3265 -0.2008
  177SOL    HW1  530   0.224   1.536   0.378  0.5105 -1.4057  1.7432
  177SOL    HW2  531   0.182   1.383   0.321 -0.6178  1.1547 -0.3273
  178SOL     OW  532   2.920   2.210   2.530 -0.1565 -0.7157  0.2644
  178SOL    HW1  533   2.949   2.300   2.564  1.2516  2.6276 -3.8088
  178SOL    HW2  534   2.983   2.184   2.454  2.0517 -0.0589 -1.0700
  179SOL     OW  535   2.684   2.794   2.682 -0.2378 -0.6681  0.0234
  179SOL    HW1  536   2.701   2.758   2.588 -0.0857  0.8518  0.5990
  179SOL    HW2  537   2.711   2.896   2.679 -0.7833  1.1865  0.7720
  180SOL     OW  538   2.183   0.411   0.854 -0.5567 -0.1104  0.3240
  180SOL    HW1  539   2.086   0.414   0.818 -0.6570  1.0093  2.3295
  180SOL    HW2  540   2.237   0.493   0.822  0.3445  2.0131 -1.7759
  181SOL     OW  541   2.791   0.388   2.460  0.3057 -0.1194  0.3181
  181SOL    HW1  542   2.860   0.417   2.389 -1.0227  0.7719  0.0438
  181SOL    HW2  543   2.792   0.287   2.471  2.6726  1.3033 -0.5045
  182SOL     OW  544   2.259   2.186   2.434  0.2847  0.1455 -0.6062
  182SOL    HW1  545   2.236   2.135   2.521 -0.1589 -0.6674  2.5246
  182SOL    HW2  546   2.180   2.246   2.418  1.6803  0.3743 -1.3550
  183SOL     OW  547   2.492   0.595   1.848  0.6977  0.4346 -0.7792
  183SOL    HW1  548   2.418   0.625   1.910  2.8279  2.1386  1.1768
  183SOL    HW2  549   2.466   0.542   1.764  0.9617  0.0858 -2.2013
  184SOL     OW  550   2.901   1.545   0.714 -0.2474 -0.5475 -0.0630
  184SOL    HW1  551   2.906   1.534   0.816  0.0325  1.4428 -0.1411
  184SOL    HW2  552   2.903   1.643   0.676 -0.4617  1.6673 -0.7927
  185SOL     OW  553   2.737   0.321   0.656  0.3085  0.0128  0.0438
  185SOL    HW1  554   2.823   0.319   0.610 -1.9310 -1.2875  2.5592
  185SOL    HW2  555   2.699   0.229   0.679 -1.5969  0.4336 -2.2880
  186SOL     OW  556   2.054   2.525   2.809  0.1082 -0.1660  0.3460
  186SOL    HW1  557   1.957   2.501   2.821 -0.2081  2.8430  1.1802
  186SOL    HW2  558   2.077   2.608   2.865  1.0224  2.3628 -0.6727
  187SOL     OW  559   0.496   1.529   0.729 -0.0947 -0.3410  0.8158
  187SOL    HW1  560   0.454   1.533   0.820  0.2758 -1.8217  0.7214
  187SOL    HW2  561   0.511   1.624   0.696  1.9533 -0.9759 -1.0186
  188SOL     OW  562   2.089   1.629   0.741  0.0868 -0.1649 -0.4025
  188SOL    HW1  563   2.029   1.559   0.788 -2.0092 -1.4258 -1.6292
  188SOL    HW2  564   2.043   1.722   0.725 -0.3619  0.7040  0.7448
  189SOL     OW  565   3.024   1.464   2.898 -0.3291  0.3177  0.0081
  189SOL    HW1  566   3.023   1.379   2.843 -1.5263  0.0011 -0.2847
  189SOL    HW2  567   2.930   1.481   2.923  3.4777 -1.6196 -0.2799
  190SOL     OW  568   2.555   0.473   2.400 -0.0026 -0.0795  0.6557
  190SOL    HW1  569   2.645   0.428   2.442  2.0034 -1.5316  1.3059
  190SOL    HW2  570   2.480   0.477   2.466  0.4291 -0.8840  1.0507
  191SOL     OW  571   1.053   0.646   2.376  0.0382 -0.3443 -0.1973
  191SOL    HW1  572   1.057   0.578   2.450 -0.2985  2.2612 -3.9933
  191SOL    HW2  573   1.135   0.626   2.320  0.5163 -1.4807  0.3585
  192SOL     OW  574   1.260   1.892   2.121  0.5927 -0.5368  0.2989
  192SOL    HW1  575   1.195   1.850   2.053 -1.9861 -3.3468 -1.2273
  192SOL    HW2  576   1.215   1.950   2.192 -0.7918 -0.3740  1.9325
  193SOL     OW  577   1.184   2.583   1.107 -0.1648  0.3125 -0.0885
  193SOL    HW1  578   1.191   2.654   1.181 -1.2984 -4.0025  3.7702
  193SOL    HW2  579   1.213   2.616   1.018 -1.0322  0.8481  0.5373
  194SOL     OW  580   1.096   1.774   1.933  0.1177 -0.3336 -0.2172
  194SOL    HW1  581   1.138   1.682   1.946 -1.9892 -0.7559 -1.4080
  194SOL    HW2  582   1.086   1.794   1.834  1.0523 -1.2123  0.2734
  195SOL     OW  583   1.760   0.427   0.622 -0.2757  0.0178  0.6535
  195SOL    HW1  584   1.701   0.345   0.642  0.3016 -0.7970 -2.6537
  195SOL    HW2  585   1.833   0.399   0.553  1.0625  0.2342 -1.2614
  196SOL     OW  586   1.380   1.518   2.393 -0.2451  0.2709  0.4506
  196SOL    HW1  587   1.303   1.530   2.459 -1.7686 -2.6497  0.7779
  196SOL    HW2  588   1.475   1.517   2.437 -0.5555 -1.3625 -0.6520
  197SOL     OW  589   0.150   0.115   1.874  0.0083 -0.5696 -0.2979
  197SOL    HW1  590   0.088   0.116   1.954 -2.1345  1.5516  0.5454
  197SOL    HW2  591   0.239   0.154   1.902  0.4410 -1.0226  1.1220
  198SOL     OW  592   0.125   1.248   1.041  0.7412  0.1704  0.4317
  198SOL    HW1  593   0.217   1.214   1.067  2.5461 -1.4434  2.3811
  198SOL    HW2  594   0.107   1.224   0.942  0.6636 -3.6337 -2.2958
  199SOL     OW  595   0.423   2.498   0.750 -0.2633  0.5027 -0.1715
  199SOL    HW1  596   0.458   2.433   0.684 -3.0803  1.4692 -1.0425
  199SOL    HW2  597   0.452   2.478   0.847 -1.1193  0.9410  1.5100
  200SOL     OW  598   1.870   1.493   3.029  0.0924 -0.4994 -0.6144
  200SOL    HW1  599   1.866   1.559   0.013 -2.2539  0.3432  1.2142
  200SOL    HW2  600   1.884   1.398   3.067  1.5666  1.1656 -0.6030
  201SOL     OW  601   0.419   2.117   1.578  0.2463  0.0127 -0.2579
  201SOL    HW1  602   0.514   2.115   1.607 -1.3342  0.9584 -1.3808
  201SOL    HW2  603   0.358   2.128   1.658  0.0962  1.2630  0.1025
  202SOL     OW  604   1.280   2.562   2.838 -0.1960 -0.7159 -0.4891
  202SOL    HW1  605   1.289   2.536   2.935 -1.8546 -1.1626 -2.4541
  202SOL    HW2  606   1.236   2.657   2.844  0.0665  2.3444  1.0925
  203SOL     OW  607   1.550   0.493   2.158  0.2991 -0.0024 -0.4917
  203SOL    HW1  608   1.635   0.465   2.204  1.8141  0.8874 -0.2345
  203SOL    HW2  609   1.571   0.569   2.089  0.7666  1.7480 -0.8751
  204SOL     OW  610   0.498   1.192   1.377  0.2439 -0.4992  0.3404
  204SOL    HW1  611   0.571   1.138   1.327  3.2447  2.9375  0.8161
  204SOL    HW2  612   0.477   1.283   1.335 -0.3906  0.1357  0.4695
  205SOL     OW  613   2.455   1.116   2.414  0.1109  0.0021  0.2872
  205SOL    HW1  614   2.446   1.210   2.456  1.3777  1.1978  0.2828
  205SOL    HW2  615   2.400   1.108   2.327 -0.4494 -0.0178  2.0297
  206SOL     OW  616   0.229   1.969   2.666 -0.4179 -0.7457 -0.4990
  206SOL    HW1  617   0.220   2.065   2.683 -1.2715 -3.4952  0.4119
  206SOL    HW2  618   0.194   1.916   2.747  0.0797 -0.1977 -1.0502
  207SOL     OW  619   0.420   0.070   1.620  0.3676 -0.2796  0.0085
  207SOL    HW1  620   0.503   0.007   1.615  0.7828 -0.3541 -2.8992
  207SOL    HW2  621   0.340   0.009   1.617  0.5503  1.9058 -0.1866
  208SOL     OW  622   0.510   2.344   1.422 -0.2157  0.0585 -0.0040
  208SOL    HW1  623   0.487   2.303   1.330  0.3684 -0.3081 -1.3957
  208SOL    HW2  624   0.491   2.281   1.503  1.2280 -1.2544  1.9888
  209SOL     OW  625   1.542   2.500   2.771  0.1181  0.6885  0.5625
  209SOL    HW1  626   1.462   2.541   2.815 -1.2017 -1.8066 -3.0875
  209SOL    HW2  627   1.501   2.427   2.707 -1.0380 -1.1835 -2.5350
  210SOL     OW  628   2.745   1.511   1.786 -0.2010  0.3361 -0.0084
  210SOL    HW1  629   2.843   1.526   1.751  0.4220 -0.6283  0.5934
  210SOL    HW2  630   2.697   1.596   1.766  0.2101 -1.5695 -0.3558
  211SOL     OW  631   1.103   0.185   1.794 -0.2395 -0.2511 -0.6699
  211SOL    HW1  632   1.179   0.242   1.832  0.0076 -0.0830 -2.1058
  211SOL    HW2  633   1.131   0.159   1.701  3.2491 -1.6564 -1.3011
  212SOL     OW  634   1.028   2.285   1.644 -0.4712  0.2461 -0.3901
  212SOL    HW1  635   1.024   2.390   1.651 -0.9527  2.0174  2.3349
  212SOL    HW2  636   1.056   2.248   1.734  1.4491  1.0745 -1.6513
  213SOL     OW  637   2.701   0.490   2.015 -0.6398 -0.0159 -0.3215
  213SOL    HW1  638   2.773   0.555   2.044 -0.7026  1.8051  0.0155
  213SOL    HW2  639   2.630   0.538   1.959  0.1005  0.3264  0.0470
  214SOL     OW  640   1.043   1.900   1.691 -0.5445 -0.4038  0.2862
  214SOL    HW1  641   1.094   1.946   1.613  0.2001 -1.7246 -0.2592
  214SOL    HW2  642   1.017   1.966   1.763 -0.7950 -0.9861 -1.2178
  215SOL     OW  643   2.556   1.965   1.079  0.0019 -0.2601 -0.1961
  215SOL    HW1  644   2.521   2.059   1.091  1.5840 -0.1159 -1.2972
  215SOL    HW2  645   2.494   1.892   1.123  0.0586 -1.3544  0.7184
  216SOL     OW  646   2.887   0.767   0.979 -0.4736  0.3054  0.6576
  216SOL    HW1  647   2.824   0.711   0.923  1.1803 -0.1191  2.5967
  216SOL    HW2  648   2.958   0.814   0.922  1.6714  1.9208 -0.4693
  217SOL     OW  649   2.221   0.189   1.338 -0.4920 -1.0289  0.2942
  217SOL    HW1  650   2.228   0.278   1.290  0.3797 -1.6850 -0.7059
  217SOL    HW2  651   2.257   0.115   1.277 -0.7159 -1.5451  1.5593
  218SOL     OW  652   1.452   2.489   1.148 -0.2744  0.1481  0.0285
  218SOL    HW1  653   1.507   2.443   1.077  0.3141  0.9644 -0.6029
  218SOL    HW2  654   1.352   2.510   1.124 -0.8113  2.6145 -1.5069
  219SOL     OW  655   1.725   2.090   0.274  0.0969  0.4007  0.1397
  219SOL    HW1  656   1.768   2.165   0.323 -0.9968 -3.5242 -0.4140
  219SOL    HW2  657   1.756   2.080   0.177  1.4738  0.0292 -0.6120
  220SOL     OW  658   1.802   2.228   2.905 -0.3047 -0.0302 -0.4001
  220SOL    HW1  659   1.761   2.313   2.941 -0.9154 -0.7401 -0.0697
  220SOL    HW2  660   1.835   2.170   2.980 -0.6212 -1.4197 -3.9165
  221SOL     OW  661   2.991   2.464   0.902  0.5790  0.4425 -0.1033
  221SOL    HW1  662   3.076   2.509   0.864  2.2126 -0.4828 -0.0758
  221SOL    HW2  663   3.016   2.420   0.986  1.8697  2.1289 -5.2317
  222SOL     OW  664   2.015   2.575   0.779  0.0394  0.0022 -0.1043
  222SOL    HW1  665   1.941   2.647   0.772 -2.7286  0.4459 -0.8010
  222SOL    HW2  666   2.077   2.602   0.857  0.9000  2.5216  2.2814
  223SOL     OW  667   0.319   2.554   2.216  0.4367 -0.6929 -0.0945
  223SOL    HW1  668   0.395   2.626   2.206 -1.7073  0.4188 -0.9584
  223SOL    HW2  669   0.357   2.467   2.255  0.3542 -0.6712 -0.3277
  224SOL     OW  670   2.837   2.225   1.000  0.7416 -0.5000 -0.4229
  224SOL    HW1  671   2.930   2.248   1.041 -2.0151 -2.4170  0.3262
  224SOL    HW2  672   2.803   2.304   0.945  0.8948  1.8528  3.3718
  225SOL     OW  673   2.205   2.011   0.943  0.3459  0.0848  0.5235
  225SOL    HW1  674   2.232   1.918   0.951  1.5832  0.3413  0.4018
  225SOL    HW2  675   2.113   2.015   0.905  0.0426  2.4841 -1.6544
  226SOL     OW  676   1.344   2.515   0.329  0.1161  0.3871 -0.0667
  226SOL    HW1  677   1.426   2.566   0.364 -0.6304 -0.7985  0.6901
  226SOL    HW2  678   1.364   2.417   0.312  0.0376 -0.9604  2.2290
  227SOL     OW  679   1.948   0.488   0.796 -0.2845  0.1132  0.2692
  227SOL    HW1  680   1.883   0.468   0.717  0.2931 -0.8969 -2.1246
  227SOL    HW2  681   1.933   0.577   0.838  3.4963  0.3616 -0.1211
  228SOL     OW  682   1.208   0.782   2.087 -0.1805 -0.1644  0.1292
  228SOL    HW1  683   1.278   0.758   2.158 -1.4868  1.4928 -1.2840
  228SOL    HW2  684   1.181   0.882   2.093 -0.6107  0.0066  0.1905
  229SOL     OW  685   3.047   1.227   2.721 -0.1468  0.3271  0.1171
  229SOL    HW1  686   3.074   1.208   2.626 -1.8819 -0.2125 -1.3703
  229SOL    HW2  687   3.079   1.150   2.784  0.1131 -0.6184 -0.4247
  230SOL     OW  688   0.974   1.164   1.000 -0.2975  0.0056  0.0124
  230SOL    HW1  689   1.058   1.145   0.945  0.1246 -0.7645 -1.1871
  230SOL    HW2  690   0.990   1.204   1.091  0.2874 -0.4733 -1.2493
  231SOL     OW  691   2.570   2.877   2.310 -0.1057 -0.3005  0.7301
  231SOL    HW1  692   2.530   2.965   2.353  0.3724  2.5305 -3.2447
  231SOL    HW2  693   2.624   2.811   2.368 -1.5083 -1.1062 -0.2844
  232SOL     OW  694   0.594   2.033   0.118  0.5166 -0.4476 -0.2567
  232SOL    HW1  695   0.598   2.039   0.220 -0.3568  0.9382 -1.1159
  232SOL    HW2  696   0.597   2.127   0.075 -2.1086 -0.1080 -0.3447
  233SOL     OW  697   1.233   2.386   2.275  0.2979  0.2368 -0.1690
  233SOL    HW1  698   1.194   2.417   2.364 -0.8762  1.2293  3.3718
  233SOL    HW2  699   1.334   2.378   2.276 -2.3146  1.1197  3.6007
  234SOL     OW  700   1.018   1.455   1.781  0.4281 -0.5831 -0.3416
  234SOL    HW1  701   1.115   1.485   1.782 -1.1770  0.5999  0.4373
  234SOL    HW2  702   0.980   1.487   1.693 -0.3320 -0.6102  1.5678
  235SOL     OW  703   0.667   2.071   1.680  0.3043 -1.1372 -0.2111
  235SOL    HW1  704   0.724   2.080   1.596 -0.9654  0.3734  0.5716
  235SOL    HW2  705   0.725   2.075   1.766  1.1714  1.2993 -0.9816
  236SOL     OW  706   1.562   2.760   2.671 -0.3294 -0.3493  0.1955
  236SOL    HW1  707   1.571   2.674   2.731 -2.5278 -1.4303  1.4779
  236SOL    HW2  708   1.508   2.735   2.587 -0.5839  0.7536 -3.2717
  237SOL     OW  709   1.184   0.074   0.720  0.6162  0.1848  0.0238
  237SOL    HW1  710   1.147   0.153   0.669 -1.3565  1.1194  0.5152
  237SOL    HW2  711   1.278   0.050   0.695 -0.1622  2.8188 -1.6226
  238SOL     OW  712   1.279   0.644   2.767  0.0457  0.0848 -0.5726
  238SOL    HW1  713   1.365   0.634   2.823  3.6736  1.6563 -1.3646
  238SOL    HW2  714   1.217   0.718   2.813 -0.0556  0.8242  0.2834
  239SOL     OW  715   0.245   0.424   2.167  0.0216 -0.2653 -0.1556
  239SOL    HW1  716   0.261   0.513   2.219 -2.3747  1.7303  0.8921
  239SOL    HW2  717   0.332   0.375   2.157 -1.1345  0.9633  1.0493
  240SOL     OW  718   2.403   2.673   0.752 -0.1493  0.4427 -0.3999
  240SOL    HW1  719   2.368   2.585   0.712  0.0259 -1.9380  1.6670
  240SOL    HW2  720   2.401   2.751   0.686  0.2999 -0.3889 -0.6234
  241SOL     OW  721   1.635   1.053   1.331  0.4016 -0.6072 -0.0440
  241SOL    HW1  722   1.537   1.053   1.360  1.6504 -1.4126  0.8268
  241SOL    HW2  723   1.689   1.015   1.408  0.4282 -0.5098 -2.3494
  242SOL     OW  724   0.426   0.886   0.770 -0.6909  0.3613 -0.8754
  242SOL    HW1  725   0.345   0.894   0.830 -0.6111 -1.5632  0.8845
  242SOL    HW2  726   0.423   0.949   0.690  1.0081  0.6752 -2.4221
  243SOL     OW  727   0.381   0.912   1.232  0.1302  0.3600 -0.2911
  243SOL    HW1  728   0.284   0.927   1.258 -0.1733 -3.2994  0.9486
  243SOL    HW2  729   0.437   0.892   1.314 -2.4028  2.0144 -2.3038
  244SOL     OW  730   1.177   0.455   2.972  0.5866  0.1759 -0.1192
  244SOL    HW1  731   1.116   0.388   3.014 -2.6649  3.2672  0.0894
  244SOL    HW2  732   1.227   0.408   2.896 -0.9834 -0.5834  1.0234
  245SOL     OW  733   2.132   1.079   0.214  0.9606 -0.5183  0.2246
  245SOL    HW1  734   2.061   1.136   0.164 -0.1420  4.0775 -3.2422
  245SOL    HW2  735   2.219   1.138   0.228 -0.5056  1.3583  0.4763
  246SOL     OW  736   0.101   1.090   1.855  0.5978  0.4429 -0.0457
  246SOL    HW1  737   0.070   1.077   1.761 -3.6974  1.2734  1.2540
  246SOL    HW2  738   0.096   0.997   1.899 -3.0253 -2.4268 -0.3400
  247SOL     OW  739   0.378   2.640   1.850  0.1987  0.1433  0.4210
  247SOL    HW1  740   0.295   2.691   1.878  0.0959 -0.5446 -0.5107
  247SOL    HW2  741   0.444   2.621   1.927  1.9423 -0.5178 -3.0747
  248SOL     OW  742   0.644   1.331   2.172  0.0206  0.2415 -0.1472
  248SOL    HW1  743   0.679   1.411   2.222  0.4794 -1.5300 -0.6235
  248SOL    HW2  744   0.680   1.329   2.078 -1.6511 -0.2044  0.6059
  249SOL     OW  745   0.526   0.096   2.709 -0.6561  0.3336 -0.2770
  249SOL    HW1  746   0.497   0.003   2.740 -2.8793  0.9660 -1.6016
  249SOL    HW2  747   0.477   0.170   2.759 -1.5702  1.9954 -1.3760
  250SOL     OW  748   0.133   0.137   2.822 -0.2392 -0.0757 -0.9811
  250SOL    HW1  749   0.078   0.061   2.777 -0.0709 -0.5262 -0.6830
  250SOL    HW2  750   0.153   0.196   2.741 -1.1535  0.1794  0.3253
  251SOL     OW  751   3.032   1.723   1.053  1.0588  0.2213 -0.2303
  251SOL    HW1  752   2.948   1.669   1.025  2.5834 -0.6490 -0.6046
  251SOL    HW2  753   3.018   1.793   1.124 -1.3520 -0.9058 -1.3645
  252SOL     OW  754   1.775   2.748   2.215 -0.0037  0.7121 -0.2824
  252SOL    HW1  755   1.851   2.740   2.149 -2.9228 -0.4364  3.0650
  252SOL    HW2  756   1.771   2.846   2.243 -0.3235 -0.7958  2.5990
  253SOL     OW  757   1.693   1.644   2.812  0.0341  0.2039 -0.2656
  253SOL    HW1  758   1.642   1.658   2.902  0.2995 -0.0089 -3.8832
  253SOL    HW2  759   1.779   1.594   2.830  0.6238  0.3127  1.9026
  254SOL     OW  760   0.560   1.486   1.725  0.1326 -0.2539  0.0909
  254SOL    HW1  761   0.461   1.470   1.705  0.8960 -3.5219  0.0781
  254SOL    HW2  762   0.583   1.554   1.798 -0.1018 -0.8570  0.6101
  255SOL     OW  763   0.958   3.032   1.488  0.0885  0.1063  0.1876
  255SOL    HW1  764   1.024   0.013   1.471 -2.4053  1.6288  0.2161
  255SOL    HW2  765   0.997   2.950   1.537  1.6231  1.5754 -0.3829
  256SOL     OW  766   0.148   2.506   0.830  0.1034  0.2444 -0.5228
  256SOL    HW1  767   0.236   2.508   0.779 -1.5945  0.5359  0.2305
  256SOL    HW2  768   0.139   2.584   0.900 -0.9079  0.9380 -2.8546
  257SOL     OW  769   0.154   2.813   2.899  0.8620 -0.3117 -0.4257
  257SOL    HW1  770   0.209   2.883   2.948 -0.5493 -1.3857 -1.2771
  257SOL    HW2  771   0.095   2.851   2.829  2.3995  2.1531  3.3676
  258SOL     OW  772   1.319   2.242   1.833 -0.4292  0.3240 -0.1101
  258SOL    HW1  773   1.367   2.155   1.864 -0.4468 -0.1631  2.1336
  258SOL    HW2  774   1.380   2.323   1.837 -0.6802 -2.6300 -1.6400
  259SOL     OW  775   1.042   1.783   2.378  0.6114 -0.4051 -0.3591
  259SOL    HW1  776   1.086   1.720   2.448 -0.0646 -0.9018  0.2701
  259SOL    HW2  777   1.015   1.730   2.296  1.5217 -2.4766  1.8422
  260SOL     OW  778   2.472   0.890   2.048 -0.9116 -0.2637  0.4908
  260SOL    HW1  779   2.401   0.817   2.068  0.5767 -0.8948  2.0341
  260SOL    HW2  780   2.458   0.938   1.959  0.5988  1.2665 -0.4019
  261SOL     OW  781   1.226   0.902   1.034  0.6304  0.0426  0.3370
  261SOL    HW1  782   1.254   0.822   1.097  1.0584 -0.0878  1.1306
  261SOL    HW2  783   1.308   0.941   0.989 -1.0489  1.2537  2.0125
  262SOL     OW  784   2.222   2.054   2.659 -0.4741 -0.5254 -0.6673
  262SOL    HW1  785   2.261   2.018   2.748 -0.4672  0.3342 -1.9788
  262SOL    HW2  786   2.128   2.086   2.672  1.1508  0.4614 -0.4944
  263SOL     OW  787   0.790   2.298   0.904  0.1177 -0.2896 -0.3006
  263SOL    HW1  788   0.840   2.374   0.858 -1.0669  0.0826  0.6560
  263SOL    HW2  789   0.772   2.209   0.852  0.4385 -1.2242  0.7235
  264SOL     OW  790   0.241   2.493   0.316 -0.5156 -0.0803 -0.2696
  264SOL    HW1  791   0.176   2.563   0.344  0.6050 -0.6351 -1.5528
  264SOL    HW2  792   0.203   2.397   0.324  2.9988 -1.0231  1.1179
  265SOL     OW  793   0.745   1.383   3.059  0.3756  0.3172 -0.0499
  265SOL    HW1  794   0.706   1.331   2.974 -1.5018 -0.0262 -0.5809
  265SOL    HW2  795   0.829   1.334   3.089  2.6326 -1.8141 -0.8435
  266SOL     OW  796   0.871   2.195   2.400  0.0799 -0.1523  0.1620
  266SOL    HW1  797   0.938   2.130   2.447  1.7174 -0.9167  0.5624
  266SOL    HW2  798   0.839   2.268   2.461 -0.4968  0.8012 -2.5718
  267SOL     OW  799   1.914   0.761   2.287  0.1383  0.0027 -0.2282
  267SOL    HW1  800   1.832   0.760   2.354  0.0046 -1.9707  1.1652
  267SOL    HW2  801   1.882   0.811   2.205  2.1552  1.6554  1.7368
  268SOL     OW  802   0.737   0.998   0.141  0.3484  0.0024 -0.0982
  268SOL    HW1  803   0.818   0.974   0.085 -1.1580  3.0975  1.8785
  268SOL    HW2  804   0.737   1.097   0.170 -0.3637 -0.0936 -1.8939
  269SOL     OW  805   2.359   1.744   2.310  0.1200  0.3082  0.3335
  269SOL    HW1  806   2.435   1.755   2.377 -0.2058 -0.9669 -1.2109
  269SOL    HW2  807   2.384   1.788   2.224 -0.5121  2.5280  1.0236
  270SOL     OW  808   0.993   1.950   3.091 -0.8610 -0.4498  0.1533
  270SOL    HW1  809   0.900   1.919   0.025 -0.2391  2.1472  0.0672
  270SOL    HW2  810   1.018   1.914   2.998  0.7346 -1.2878 -0.9292
  271SOL     OW  811   0.274   0.353   0.198 -0.3079  0.4552  0.0390
  271SOL    HW1  812   0.317   0.429   0.146 -0.3177 -1.1873  0.5387
  271SOL    HW2  813   0.218   0.292   0.136  2.4897  0.0293 -1.1190
  272SOL     OW  814   2.874   0.312   0.352  0.5859 -0.1220  0.7447
  272SOL    HW1  815   2.836   0.217   0.363 -2.1094  1.9503 -2.3837
  272SOL    HW2  816   2.930   0.338   0.433 -1.2488 -0.3908  1.4401
  273SOL     OW  817   0.199   3.041   1.660 -0.5317  0.7607  0.3011
  273SOL    HW1  818   0.168   3.088   1.743 -0.8918 -1.7178 -0.0661
  273SOL    HW2  819   0.132   2.964   1.645  0.7489 -2.6286  1.0249
  274SOL     OW  820   2.808   0.480   1.370 -0.0268  0.1012  0.0052
  274SOL    HW1  821   2.909   0.488   1.389 -0.6637  3.4887 -0.9126
  274SOL    HW2  822   2.784   0.453   1.272 -0.6037 -1.4024 -2.1594
  275SOL     OW  823   0.688   1.586   0.954 -0.2407  0.5592 -0.3251
  275SOL    HW1  824   0.583   1.573   0.957 -1.0499 -0.8739 -0.2057
  275SOL    HW2  825   0.720   1.511   0.895  0.4587 -0.4137 -1.7917
  276SOL     OW  826   0.665   1.252   1.773  0.1130 -0.1432  0.3839
  276SOL    HW1  827   0.626   1.341   1.732  0.4993 -0.1400  1.4222
  276SOL    HW2  828   0.597   1.176   1.790 -2.6857 -1.0899  0.7081
  277SOL     OW  829   1.015   2.596   1.929 -0.1624  0.5908 -0.0077
  277SOL    HW1  830   1.099   2.615   1.987  1.0032 -1.2909 -1.3297
  277SOL    HW2  831   0.938   2.565   1.988  1.2012  0.8285 -3.2297
  278SOL     OW  832   2.127   2.762   2.209  0.1459  0.1887  0.5193
  278SOL    HW1  833   2.217   2.759   2.253 -1.5115 -3.2625 -1.2078
  278SOL    HW2  834   2.097   2.664   2.187 -1.8131 -3.3549 -2.2668
  279SOL     OW  835   1.291   1.753   0.001 -0.1791  0.0279 -0.2796
  279SOL    HW1  836   1.254   1.658   0.007  1.8712 -0.6366  0.5177
  279SOL    HW2  837   1.216   1.822   3.076 -0.9851 -0.4880 -1.1150
  280SOL     OW  838   1.469   0.855   3.043 -0.3040 -0.3273  0.1197
  280SOL    HW1  839   1.567   0.870   3.010  0.0724  0.5631 -1.0204
  280SOL    HW2  840   1.434   0.761   3.016  0.6382  0.2266 -1.6311
  281SOL     OW  841   0.400   0.557   1.372 -0.0607  0.1004 -0.5921
  281SOL    HW1  842   0.384   0.617   1.290 -0.0550 -1.0419 -0.2684
  281SOL    HW2  843   0.330   0.565   1.448  0.8257 -1.5783  1.7050
  282SOL     OW  844   3.052   2.638   0.644  0.2167 -0.1762  0.1836
  282SOL    HW1  845   0.049   2.630   0.678 -3.0457  2.7597 -0.5990
  282SOL    HW2  846   3.057   2.649   0.539  0.2808 -0.6516 -4.6265
  283SOL     OW  847   1.451   2.058   1.950 -0.4428 -0.2961 -0.2864
  283SOL    HW1  848   1.375   2.010   1.998  0.3435 -1.8236 -1.6066
  283SOL    HW2  849   1.535   2.030   1.995 -1.1396 -0.2123 -2.2155
  284SOL     OW  850   2.804   2.655   1.324 -0.6951  0.0191  0.6550
  284SOL    HW1  851   2.832   2.685   1.229  0.0126  2.5635 -3.0816
  284SOL    HW2  852   2.736   2.581   1.319  1.1039  0.5131 -1.7691
  285SOL     OW  853   0.179   2.382   0.029 -0.0052  0.2165 -0.2619
  285SOL    HW1  854   0.211   2.309   3.063  0.9812  0.8962 -0.5064
  285SOL    HW2  855   0.214   2.364   0.123 -1.3078 -1.7345  2.1644
  286SOL     OW  856   0.520   2.832   0.893  0.2769  0.1105  0.0817
  286SOL    HW1  857   0.570   2.909   0.936 -0.2327 -0.1609 -0.0951
  286SOL    HW2  858   0.418   2.855   0.879 -0.7791 -0.9719 -2.0904
  287SOL     OW  859   0.579   1.371   0.461  0.1966  0.1638  0.3113
  287SOL    HW1  860   0.574   1.469   0.479  0.4109 -2.5906 -1.6569
  287SOL    HW2  861   0.612   1.316   0.540 -0.5276 -0.9195 -2.3909
  288SOL     OW  862   1.977   1.847   2.850 -0.5579 -0.5103  0.8135
  288SOL    HW1  863   1.985   1.780   2.771 -0.4397  1.1178  0.3624
  288SOL    HW2  864   1.914   1.819   2.928  0.2800  0.0618 -2.8607
  289SOL     OW  865   2.952   1.846   0.325 -0.4623  0.3298 -0.2287
  289SOL    HW1  866   2.864   1.851   0.271 -1.0178 -2.2143  1.2629
  289SOL    HW2  867   3.019   1.793   0.262  0.0847 -1.8632 -0.3020
  290SOL     OW  868   1.394   1.525   1.375  0.1081 -0.1753 -0.1735
  290SOL    HW1  869   1.310   1.584   1.392 -0.2011  0.5868 -0.5791
  290SOL    HW2  870   1.358   1.435   1.343  0.5542 -0.8501 -1.3794
  291SOL     OW  871   1.239   1.329   0.176 -0.2918  0.0302  0.0944
  291SOL    HW1  872   1.185   1.265   0.113 -3.4335 -0.8694 -0.8173
  291SOL    HW2  873   1.335   1.342   0.147 -0.4017 -0.1761  2.2482
  292SOL     OW  874   1.062   1.278   0.384  0.0170 -0.1200 -0.1849
  292SOL    HW1  875   1.048   1.192   0.440 -2.6705 -0.6643  1.0111
  292SOL    HW2  876   1.153   1.273   0.335  2.2157 -1.5916  0.0655
  293SOL     OW  877   1.118   2.934   0.862 -0.0020  0.4897  0.5314
  293SOL    HW1  878   1.023   2.896   0.843 -0.9991 -1.0955 -1.6348
  293SOL    HW2  879   1.140   3.018   0.808  0.8748  0.9871  0.2269
  294SOL     OW  880   1.969   1.167   2.245 -0.0752  0.1880  0.6926
  294SOL    HW1  881   1.922   1.147   2.154  1.0910 -1.8077 -0.1203
  294SOL    HW2  882   1.935   1.115   2.326  0.9071 -0.8673 -0.1223
  295SOL     OW  883   1.549   1.760   3.031 -0.1887  0.1281 -0.4398
  295SOL    HW1  884   1.462   1.712   3.055 -1.2401 -0.7845 -1.4255
  295SOL    HW2  885   1.520   1.857   3.010  1.4555  2.5451  0.7644
  296SOL     OW  886   1.219   0.793   1.729  0.2190 -0.1280  0.5435
  296SOL    HW1  887   1.177   0.701   1.710 -0.8046 -0.4687  1.4465
  296SOL    HW2  888   1.145   0.853   1.771 -1.5637  0.6940 -3.2713
  297SOL     OW  889   0.061   0.825   1.776 -0.5903  0.2092  0.5402
  297SOL    HW1  890   3.081   0.763   1.750 -0.9410  0.0459 -0.1617
  297SOL    HW2  891   0.113   0.855   1.692 -0.2741 -1.4955 -0.9046
  298SOL     OW  892   1.477   1.975   1.368 -0.5102 -0.3700 -0.1398
  298SOL    HW1  893   1.548   1.904   1.351  1.3854 -3.2740  0.3498
  298SOL    HW2  894   1.512   2.072   1.375  2.8385  2.3017  0.7385
  299SOL     OW  895   1.187   0.045   2.718 -0.9674 -0.5736 -0.3135
  299SOL    HW1  896   1.258   0.013   2.650  0.6317 -0.9902  1.4644
  299SOL    HW2  897   1.092   0.022   2.685  2.5087 -0.7614  1.6419
  300SOL     OW  898   2.742   1.821   0.167 -0.1853  0.8124 -0.0625
  300SOL    HW1  899   2.783   1.743   0.110 -0.0735  0.8979  0.4530
  300SOL    HW2  900   2.645   1.799   0.190  1.4202 -0.3426  0.0333
  301SOL     OW  901   2.035   0.860   2.685 -0.5181 -0.2253  0.3321
  301SOL    HW1  902   2.122   0.902   2.648  1.8995  4.0914 -0.1113
  301SOL    HW2  903   2.004   0.906   2.773 -0.1928 -0.0716  1.6221
  302SOL     OW  904   2.491   2.149   2.727 -0.1439  0.4510  0.1849
  302SOL    HW1  905   2.424   2.164   2.798 -0.1865 -0.1360  0.6176
  302SOL    HW2  906   2.453   2.173   2.634 -2.2557  1.3487 -1.2582
  303SOL     OW  907   3.019   2.234   0.101  0.0936  0.3073  0.4596
  303SOL    HW1  908   3.090   2.305   0.081 -2.6063  0.4539  0.1532
  303SOL    HW2  909   2.971   2.202   0.013  0.1929  1.1612 -1.9163
  304SOL     OW  910   0.340   1.900   1.171  0.0628  0.2060 -0.6941
  304SOL    HW1  911   0.315   1.884   1.270  0.2567 -1.8476  0.8240
  304SOL    HW2  912   0.434   1.867   1.151 -0.7946  2.0659  0.4269
  305SOL     OW  913   2.919   0.658   1.675  0.0379 -0.1765 -0.1494
  305SOL    HW1  914   2.864   0.573   1.687 -1.6673  0.4982  1.0950
  305SOL    HW2  915   2.945   0.660   1.575  0.6390  0.7918 -1.6276
  306SOL     OW  916   1.630   1.349   1.028  0.3801 -0.4177 -0.5229
  306SOL    HW1  917   1.534   1.391   1.033 -1.4589  2.9196 -0.3766
  306SOL    HW2  918   1.667   1.356   1.120 -0.7091 -1.4302 -2.1523
  307SOL     OW  919   3.077   0.284   0.823  0.1163 -0.0337 -0.5215
  307SOL    HW1  920   0.080   0.276   0.844 -1.1154 -0.1399 -0.2632
  307SOL    HW2  921   3.035   0.191   0.847 -0.9333 -0.4729  0.8931
  308SOL     OW  922   0.265   1.317   1.867 -0.4385 -0.1484  0.1389
  308SOL    HW1  923   0.201   1.239   1.852 -1.2778 -0.5398 -3.1399
  308SOL    HW2  924   0.297   1.353   1.777 -0.0794 -0.3892 -2.5872
  309SOL     OW  925   2.830   1.901   2.301 -0.3869 -0.7368  0.1076
  309SOL    HW1  926   2.920   1.871   2.335 -1.7390 -2.0451 -0.6941
  309SOL    HW2  927   2.753   1.864   2.352 -1.1495  1.8644  2.5803
  310SOL     OW  928   2.596   1.238   2.861  0.2733  0.6689  0.1666
  310SOL    HW1  929   2.690   1.220   2.825 -2.0959 -1.0629 -3.2166
  310SOL    HW2  930   2.546   1.154   2.834 -0.0778 -0.6609 -2.1297
  311SOL     OW  931   1.724   1.134   3.061 -0.0013 -0.0389 -1.0822
  311SOL    HW1  932   1.645   1.187   3.020 -0.8251  2.6423  0.2494
  311SOL    HW2  933   1.737   1.043   3.014 -2.0381 -0.3518 -0.8997
  312SOL     OW  934   1.494   2.295   2.613  0.0148 -0.2447 -0.2801
  312SOL    HW1  935   1.548   2.221   2.653 -1.0137  0.1488  2.9885
  312SOL    HW2  936   1.469   2.276   2.515 -1.5337 -0.4023  0.2850
  313SOL     OW  937   0.343   0.337   0.579  0.4090 -0.1052 -0.0179
  313SOL    HW1  938   0.388   0.305   0.489  0.1730 -2.4320 -1.1110
  313SOL    HW2  939   0.297   0.428   0.578  1.2945  1.8028  0.7681
  314SOL     OW  940   0.603   1.838   1.120  0.1057 -0.3752  0.1506
  314SOL    HW1  941   0.659   1.899   1.181 -0.3500 -0.2320 -0.5869
  314SOL    HW2  942   0.639   1.745   1.122  0.5694 -1.5888 -0.8616
  315SOL     OW  943   0.787   1.990   2.194 -0.0712  0.2072  0.3946
  315SOL    HW1  944   0.688   1.960   2.201 -0.2104  1.0894  1.8095
  315SOL    HW2  945   0.818   2.038   2.276 -0.5856 -0.6264 -1.9563
  316SOL     OW  946   0.522   2.507   0.366 -0.4701 -0.6538 -0.3369
  316SOL    HW1  947   0.428   2.479   0.338 -0.0191 -0.3425  3.9785
  316SOL    HW2  948   0.510   2.591   0.428 -0.1668  1.3879 -0.5128
  317SOL     OW  949   2.581   0.014   1.200 -0.7880 -0.3839  0.0795
  317SOL    HW1  950   2.565   0.070   1.114 -3.5938  1.4466  0.3028
  317SOL    HW2  951   2.560   3.011   1.178  1.4684 -0.5284  0.3726
  318SOL     OW  952   2.014   2.805   0.341  0.3257 -0.5232 -0.2171
  318SOL    HW1  953   2.002   2.874   0.418 -1.6974  3.6936  0.3246
  318SOL    HW2  954   2.076   2.730   0.373  0.9243 -2.7308 -0.0284
  319SOL     OW  955   1.762   0.549   2.607  0.6703  0.1888 -0.2127
  319SOL    HW1  956   1.774   0.593   2.699  0.9583 -3.0014 -4.1225
  319SOL    HW2  957   1.685   0.485   2.607  0.5356 -0.3294 -1.3561
  320SOL     OW  958   2.842   2.111   2.041  0.5137 -0.2621 -0.4347
  320SOL    HW1  959   2.847   2.191   1.978 -0.3465 -2.9339  2.3037
  320SOL    HW2  960   2.802   2.137   2.135 -1.3886  0.3620  2.9245
  321SOL     OW  961   0.556   2.538   3.044 -0.4467  0.0687  0.0313
  321SOL    HW1  962   0.628   2.608   3.062  0.2289  0.4701  3.2175
  321SOL    HW2  963   0.475   2.550   0.009 -0.7261  1.1445  1.3392
  322SOL     OW  964   2.649   0.740   2.487  1.0966  0.4715 -0.3162
  322SOL    HW1  965   2.647   0.647   2.447  1.5479  2.1002  0.7580
  322SOL    HW2  966   2.562   0.750   2.547  0.7910 -0.5343  0.8549
  323SOL     OW  967   2.427   1.147   0.840  0.5323  0.2379 -0.3745
  323SOL    HW1  968   2.422   1.107   0.935 -1.9852 -0.4166  1.3315
  323SOL    HW2  969   2.476   1.080   0.780  1.3670 -0.6280 -0.2699
  324SOL     OW  970   2.687   0.406   1.147 -0.2500  0.1996  0.0666
  324SOL    HW1  971   2.759   0.415   1.074 -0.9806 -1.3116 -0.8861
  324SOL    HW2  972   2.594   0.400   1.113  1.5134 -2.6113  1.2552
  325SOL     OW  973   2.893   2.971   1.700 -0.0667 -0.1032  0.2009
  325SOL    HW1  974   2.849   2.990   1.792 -1.6466 -0.7254  0.8457
  325SOL    HW2  975   2.899   3.043   1.630 -0.5231  0.6100 -0.7126
  326SOL     OW  976   1.861   2.712   0.123 -0.2512 -0.0028  0.4245
  326SOL    HW1  977   1.791   2.648   0.154 -0.2578  0.9690 -1.8241
  326SOL    HW2  978   1.935   2.727   0.195  2.1660  2.3569 -1.7001
  327SOL     OW  979   1.743   1.710   0.429  0.1105  0.1910  0.4319
  327SOL    HW1  980   1.818   1.770   0.403 -2.0520  3.4157 -0.1191
  327SOL    HW2  981   1.767   1.666   0.519 -0.2031  0.2341 -1.3817
  328SOL     OW  982   0.016   2.129   2.363  0.1827  0.7622 -0.0692
  328SOL    HW1  983   0.010   2.167   2.269  1.1994  0.1132 -0.2863
  328SOL    HW2  984   0.019   2.025   2.360 -0.1722 -3.5600 -0.6464
  329SOL     OW  985   0.165   2.215   1.454 -0.1376  0.4529  0.4497
  329SOL    HW1  986   0.242   2.157   1.418 -2.3260  0.9098  0.2118
  329SOL    HW2  987   0.158   2.221   1.555  0.5969  0.1923  0.0422
  330SOL     OW  988   2.804   0.934   2.910 -0.3769 -0.8167  0.2692
  330SOL    HW1  989   2.790   0.993   2.830  0.0972  1.9277  1.1914
  330SOL    HW2  990   2.884   0.868   2.894  3.8536  0.8345  0.5609
  331SOL     OW  991   2.436   2.227   1.081  0.1404  0.6036 -0.3890
  331SOL    HW1  992   2.340   2.239   1.116  0.0189 -0.1588  1.6592
  331SOL    HW2  993   2.477   2.319   1.061 -1.9238 -0.2498 -1.0970
  332SOL     OW  994   0.531   2.696   0.565 -0.1698 -0.0245  0.7370
  332SOL    HW1  995   0.601   2.771   0.565 -1.5260 -0.8755  0.9833
  332SOL    HW2  996   0.531   2.648   0.653 -0.4185  0.2950 -2.9500
  333SOL     OW  997   2.185   1.803   2.514  0.4056  0.1512  0.1445
  333SOL    HW1  998   2.211   1.889   2.551  1.1193 -1.9587 -0.3254
  333SOL    HW2  999   2.230   1.793   2.424 -2.2264 -2.1584  2.2253
  334SOL     OW 1000   0.650   1.211   0.678 -0.0646  0.8926 -0.0673
  334SOL    HW1 1001   0.721   1.279   0.674  0.2088 -0.7206  2.2973
  334SOL    HW2 1002   0.603   1.215   0.768 -0.5455 -3.8025 -1.8133
  335SOL     OW 1003   3.092   1.861   2.317 -0.2271  0.2466  0.1611
  335SOL    HW1 1004   0.041   1.876   2.225  3.9372  2.2093  0.1762
  335SOL    HW2 1005   0.060   1.806   2.378 -2.8818 -0.8747 -0.5769
  336SOL     OW 1006   2.367   2.705   2.294  0.3781  0.4327  0.0410
  336SOL    HW1 1007   2.415   2.622   2.255  0.3126  2.4214 -0.0582
  336SOL    HW2 1008   2.432   2.781   2.289 -2.4909  0.4193 -0.1160
  337SOL     OW 1009   0.865   0.971   0.816  0.0323 -0.0868  0.5036
  337SOL    HW1 1010   0.769   0.960   0.853  0.1635  2.8120  0.7298
  337SOL    HW2 1011   0.911   1.047   0.870  2.9608  0.8489  3.1918
  338SOL     OW 1012   1.311   2.023   1.133 -0.3797  0.4898  1.2166
  338SOL    HW1 1013   1.373   1.970   1.197 -0.3949  0.7267  0.9781
  338SOL    HW2 1014   1.216   1.987   1.134  1.2560 -3.6986  2.0177
  339SOL     OW 1015   0.260   1.890   1.420  0.1076  0.4228  0.6568
  339SOL    HW1 1016   0.297   1.889   1.517  1.8983 -0.4298  3.7716
  339SOL    HW2 1017   0.158   1.877   1.426  0.7122 -0.6958  2.0314
  340SOL     OW 1018   0.972   3.056   1.879 -0.7990  0.1552 -0.8375
  340SOL    HW1 1019   1.018   0.048   1.845  1.5476  1.3602 -1.0070
  340SOL    HW2 1020   0.969   2.980   1.813  1.4455  1.9666  0.0203
  341SOL     OW 1021   1.923   1.632   1.330 -0.2262  0.8757 -0.7264
  341SOL    HW1 1022   1.956   1.614   1.235 -2.6443  1.0122  0.7285
  341SOL    HW2 1023   1.821   1.629   1.329 -3.2875  0.2959  1.7975
  342SOL     OW 1024   2.370   1.418   0.967 -0.6995  0.7848 -0.3423
  342SOL    HW1 1025   2.400   1.321   0.950  1.4503 -1.9139 -1.6086
  342SOL    HW2 1026   2.430   1.489   0.919 -2.7180  0.0377  0.9012
  343SOL     OW 1027   2.114   0.144   0.912 -0.0307 -0.1741 -0.0789
  343SOL    HW1 1028   2.153   0.233   0.882  0.0320  1.2345  3.6488
  343SOL    HW2 1029   2.182   0.068   0.907 -0.9832  1.6364  1.3086
  344SOL     OW 1030   2.182   0.296   0.410 -0.2712  0.0726  0.1287
  344SOL    HW1 1031   2.250   0.371   0.380 -2.4809  0.2938  1.1404
  344SOL    HW2 1032   2.228   0.240   0.485  1.6155  0.1289  4.0268
  345SOL     OW 1033   0.852   2.768   1.802 -0.0064  0.0057  0.2269
  345SOL    HW1 1034   0.924   2.810   1.745 -0.9070 -0.7709  2.4098
  345SOL    HW2 1035   0.888   2.678   1.842 -0.0101 -0.9316  0.9005
  346SOL     OW 1036   2.425   2.146   0.823 -0.3669 -0.1254  0.2179
  346SOL    HW1 1037   2.451   2.177   0.915  0.1983  0.6689  1.3133
  346SOL    HW2 1038   2.364   2.070   0.844 -1.5733  3.3324  0.5008
  347SOL     OW 1039   2.279   3.022   1.205  0.3772  0.0347 -0.1469
  347SOL    HW1 1040   2.364   2.996   1.262  1.0665  0.8163  1.5395
  347SOL    HW2 1041   2.288   3.006   1.107 -1.3760 -2.9130 -0.8276
  348SOL     OW 1042   0.867   0.773   1.702 -0.2331  0.3701 -0.1271
  348SOL    HW1 1043   0.811   0.843   1.653  2.2903 -1.4741  1.4690
  348SOL    HW2 1044   0.879   0.693   1.643 -1.5475 -0.5174 -3.9884
  349SOL     OW 1045   2.416   0.758   2.643 -0.3055  0.3228 -0.0283
  349SOL    HW1 1046   2.384   0.674   2.597 -1.0041  2.1980  1.3146
  349SOL    HW2 1047   2.353   0.835   2.625 -0.8840 -0.7597  0.2494
  350SOL     OW 1048   2.282   2.419   0.227  0.4255  0.4987 -0.1775
  350SOL    HW1 1049   2.272   2.467   0.140  0.8746 -2.8629 -1.1640
  350SOL    HW2 1050   2.232   2.331   0.226  0.0501  1.8267 -1.5945
  351SOL     OW 1051   1.322   0.503   0.201  0.1787  0.3117 -0.5813
  351SOL    HW1 1052   1.361   0.535   0.110  0.3375 -1.5280 -1.7696
  351SOL    HW2 1053   1.355   0.564   0.275 -0.0630 -3.2953 -3.4569
  352SOL     OW 1054   1.749   1.865   2.603  1.0354 -0.0090 -0.1226
  352SOL    HW1 1055   1.713   1.848   2.509 -0.7287  2.1391  0.5118
  352SOL    HW2 1056   1.819   1.799   2.627 -0.1486  0.7718  4.0652
  353SOL     OW 1057   0.564   1.339   2.576  0.6491 -0.3958 -0.1088
  353SOL    HW1 1058   0.461   1.339   2.577  0.2038  0.4855  0.0463
  353SOL    HW2 1059   0.603   1.422   2.617  1.0452 -0.2076  0.3659
  354SOL     OW 1060   0.659   2.621   2.807  0.1377 -0.0358 -0.5787
  354SOL    HW1 1061   0.655   2.636   2.911  1.9122  0.5628  4.4625
  354SOL    HW2 1062   0.756   2.611   2.781 -0.0100  1.9066 -0.0381
  355SOL     OW 1063   2.272   2.805   1.460 -0.6920  0.0963  0.0953
  355SOL    HW1 1064   2.373   2.809   1.472  0.8275 -1.1119  1.8516
  355SOL    HW2 1065   2.223   2.833   1.548 -2.5556  0.0306  1.1204
  356SOL     OW 1066   2.747   0.924   1.153  0.3394  0.7663  0.1550
  356SOL    HW1 1067   2.807   0.890   1.079 -1.6484  0.5767 -0.0432
  356SOL    HW2 1068   2.678   0.852   1.179  1.3560  0.7560  1.8651
  357SOL     OW 1069   2.920   0.052   1.482 -0.6371  0.2590  0.3793
  357SOL    HW1 1070   2.981   0.134   1.499 -0.2802 -1.1527 -1.1316
  357SOL    HW2 1071   2.845   0.090   1.422 -0.5471 -0.2451 -1.4848
  358SOL     OW 1072   3.035   1.551   1.789 -0.3831  0.2375 -0.6419
  358SOL    HW1 1073   3.086   1.561   1.879  0.8149  1.2951  1.1736
  358SOL    HW2 1074   3.034   1.639   1.743 -0.7489 -0.6781  1.9696
  359SOL     OW 1075   2.726   2.693   2.442  0.1000 -0.5298 -0.2956
  359SOL    HW1 1076   2.691   2.598   2.441 -0.8280 -3.7805 -0.0819
  359SOL    HW2 1077   2.804   2.695   2.381 -2.4960  0.0879  0.3764
  360SOL     OW 1078   1.078   0.439   1.328 -0.2512  0.2268  0.0196
  360SOL    HW1 1079   1.013   0.360   1.312  0.8250  0.3191 -2.2717
  360SOL    HW2 1080   1.175   0.402   1.320  1.8093 -2.5093 -1.9265
  361SOL     OW 1081   2.195   2.630   0.975 -0.1896 -0.1557 -0.5091
  361SOL    HW1 1082   2.295   2.641   0.969 -0.1363  0.4340  3.1976
  361SOL    HW2 1083   2.162   2.652   1.071 -1.9810  1.0797  1.2047
  362SOL     OW 1084   1.026   0.203   0.376 -0.1343 -0.0797  0.0449
  362SOL    HW1 1085   0.956   0.130   0.374 -2.4138 -1.6861 -1.2240
  362SOL    HW2 1086   1.034   0.235   0.472 -2.2396  0.8247  0.3732
  363SOL     OW 1087   1.309   1.441   0.759 -0.0634 -0.2991 -0.2093
  363SOL    HW1 1088   1.370   1.433   0.682 -1.5153 -0.5457  3.8680
  363SOL    HW2 1089   1.357   1.455   0.848 -0.1425 -1.9979 -0.5668
  364SOL     OW 1090   0.231   0.851   1.565 -0.3129 -0.3193  0.8483
  364SOL    HW1 1091   0.332   0.840   1.573  0.0769  1.0124  0.8039
  364SOL    HW2 1092   0.202   0.898   1.477  0.4965 -0.2667  0.3532
  365SOL     OW 1093   2.547   0.704   0.931  0.6567  0.1079  0.8040
  365SOL    HW1 1094   2.628   0.649   0.895  1.6736 -0.7274 -0.3539
  365SOL    HW2 1095   2.546   0.703   1.028  0.4471  2.4289  0.6825
  366SOL     OW 1096   2.786   1.603   0.997 -0.0234 -0.0556 -1.1447
  366SOL    HW1 1097   2.715   1.671   0.978 -1.0427  2.0561  0.7549
  366SOL    HW2 1098   2.759   1.514   0.958  1.6887  1.8169 -0.2619
  367SOL     OW 1099   1.988   2.065   2.269  0.0393  0.3097  0.2020
  367SOL    HW1 1100   1.944   1.977   2.254  0.2269  1.0279 -1.2472
  367SOL    HW2 1101   1.956   2.106   2.355 -0.4076  0.8702 -0.2588
  368SOL     OW 1102   2.719   1.994   1.441  0.7227  0.2907 -0.2862
  368SOL    HW1 1103   2.754   1.898   1.469  2.4311 -0.0751 -0.6900
  368SOL    HW2 1104   2.748   2.010   1.343 -0.7874 -1.4942 -0.8091
  369SOL     OW 1105   2.140   2.797   2.792  0.1223  0.0893  0.0952
  369SOL    HW1 1106   2.113   2.869   2.725  0.9271  0.9486 -2.1799
  369SOL    HW2 1107   2.194   2.840   2.868 -0.4525 -3.4297 -0.4709
  370SOL     OW 1108   0.698   0.572   0.940 -0.0576 -1.1459  0.0635
  370SOL    HW1 1109   0.713   0.606   0.846 -1.1923  3.2814  0.5692
  370SOL    HW2 1110   0.743   0.481   0.948 -2.3649  1.3815 -1.4916
  371SOL     OW 1111   0.638   1.730   0.330  0.0328  0.3554  0.5014
  371SOL    HW1 1112   0.629   1.675   0.244  2.9136  0.5517 -0.8128
  371SOL    HW2 1113   0.633   1.830   0.314 -1.3952 -2.6069  0.1946
  372SOL     OW 1114   0.785   1.012   2.903 -0.2376  0.6059  0.2126
  372SOL    HW1 1115   0.855   0.980   2.967 -0.8114  1.0090 -1.4954
  372SOL    HW2 1116   0.830   1.069   2.832 -1.3925  1.5237  0.9836
  373SOL     OW 1117   1.176   2.496   2.531  0.2771 -0.5384  0.0215
  373SOL    HW1 1118   1.101   2.563   2.502  0.6034  0.7563  1.5752
  373SOL    HW2 1119   1.156   2.473   2.629 -1.7491  1.3500  1.7708
  374SOL     OW 1120   0.593   1.977   0.407  0.1481  0.4061 -0.2076
  374SOL    HW1 1121   0.548   2.056   0.455 -0.2146  2.5369  2.0681
  374SOL    HW2 1122   0.622   1.903   0.477 -0.8129 -5.3690  1.5987
  375SOL     OW 1123   0.623   0.621   1.805 -0.2523 -0.4459 -0.5490
  375SOL    HW1 1124   0.643   0.529   1.773  0.0468 -1.7169  0.3728
  375SOL    HW2 1125   0.673   0.631   1.892 -2.9622 -0.0164 -2.0665
  376SOL     OW 1126   0.179   2.512   1.395  0.0479 -0.5860 -0.2977
  376SOL    HW1 1127   0.141   2.423   1.362  1.3048  1.5946  2.2223
  376SOL    HW2 1128   0.217   2.489   1.492  1.4772 -0.1522  0.8357
  377SOL     OW 1129   2.854   1.696   2.898 -0.0283 -0.0362 -0.2800
  377SOL    HW1 1130   2.811   1.634   2.968  0.4325  1.7067  0.9206
  377SOL    HW2 1131   2.867   1.655   2.807 -1.4744  1.5043 -2.3637
  378SOL     OW 1132   1.506   3.063   3.042  0.2638 -0.0523 -0.0967
  378SOL    HW1 1133   1.439   2.991   3.048  0.3479  1.1484  0.4756
  378SOL    HW2 1134   1.591   3.029   3.083  0.5020  1.6515  0.4720
  379SOL     OW 1135   1.638   0.662   0.702  0.4540  0.0826 -0.1255
  379SOL    HW1 1136   1.667   0.599   0.629 -1.1858 -0.4776 -2.3077
  379SOL    HW2 1137   1.719   0.675   0.767 -0.1366  0.7117  0.2451
  380SOL     OW 1138   0.293   1.842   1.691 -0.2143 -0.3015  0.1788
  380SOL    HW1 1139   0.238   1.791   1.761 -0.8833  1.9074  1.2602
  380SOL    HW2 1140   0.385   1.866   1.733 -0.9809  1.6910  1.2272
  381SOL     OW 1141   2.423   1.372   2.532 -0.6764  0.3100 -0.2348
  381SOL    HW1 1142   2.381   1.445   2.474  0.0228  0.9332  1.2130
  381SOL    HW2 1143   2.496   1.409   2.592  3.0459  1.1325 -0.8390
  382SOL     OW 1144   3.053   2.950   2.770 -0.2816 -0.1767  0.4300
  382SOL    HW1 1145   2.976   2.997   2.810  2.0421  0.5931 -1.1497
  382SOL    HW2 1146   3.043   2.969   2.666  0.0474  1.7527 -6.4852
  383SOL     OW 1147   1.531   1.247   2.908 -0.0752  0.2070  0.6945
  383SOL    HW1 1148   1.553   1.270   2.809 -0.3279 -2.2824 -1.6191
  383SOL    HW2 1149   1.473   1.165   2.903 -1.4817  1.8031 -2.8944
  384SOL     OW 1150   1.029   1.972   1.130 -0.9423 -0.3433  0.7622
  384SOL    HW1 1151   0.940   2.002   1.174 -1.0310 -1.1524  2.1362
  384SOL    HW2 1152   1.034   1.997   1.037 -0.4030  0.9918 -0.2124
  385SOL     OW 1153   1.829   2.801   0.856  0.7542  0.0585 -0.3439
  385SOL    HW1 1154   1.827   2.840   0.949 -0.8963  1.9965  0.7271
  385SOL    HW2 1155   1.740   2.814   0.806  0.6139 -2.3774  0.4282
  386SOL     OW 1156   1.549   1.850   1.087  0.0632  0.0861 -0.1797
  386SOL    HW1 1157   1.458   1.808   1.108  2.3893 -0.9562  0.0840
  386SOL    HW2 1158   1.583   1.822   0.996 -0.3309 -0.2437  0.1458
  387SOL     OW 1159   2.767   2.280   1.402  0.0373  0.0671  0.2799
  387SOL    HW1 1160   2.678   2.310   1.366  1.2321 -0.6648  0.0855
  387SOL    HW2 1161   2.757   2.193   1.447  0.0069 -1.1541 -0.9184
  388SOL     OW 1162   2.587   0.893   1.572  0.2425  0.3545 -0.3510
  388SOL    HW1 1163   2.627   0.801   1.558  0.6563 -1.7725  1.9081
  388SOL    HW2 1164   2.659   0.959   1.606  3.0257  0.0490  1.8541
  389SOL     OW 1165   2.103   0.842   0.108 -0.0921  0.2289  0.6178
  389SOL    HW1 1166   2.117   0.936   0.154  3.7066  2.1430  0.8279
  389SOL    HW2 1167   2.106   0.762   0.172 -1.4156 -0.2539 -1.4226
  390SOL     OW 1168   1.415   1.806   2.533  1.0293  0.2032  0.5479
  390SOL    HW1 1169   1.465   1.866   2.469  2.3991 -0.3640  0.5818
  390SOL    HW2 1170   1.475   1.735   2.575 -0.6574 -0.1929 -0.0891
  391SOL     OW 1171   1.225   2.108   0.124 -0.7505 -1.0678  0.4367
  391SOL    HW1 1172   1.155   2.095   0.200 -2.3386 -1.3576  2.4422
  391SOL    HW2 1173   1.203   2.051   0.044 -0.0842 -0.7393 -0.8379
  392SOL     OW 1174   0.219   2.441   1.684  0.0162  0.6275 -0.3176
  392SOL    HW1 1175   0.243   2.536   1.714 -0.7805 -1.6770 -0.0412
  392SOL    HW2 1176   0.285   2.374   1.714 -0.6917  0.1539  1.5163
  393SOL     OW 1177   1.427   2.242   0.254 -0.1984 -0.1736 -0.4402
  393SOL    HW1 1178   1.363   2.177   0.211  1.8134  0.4758 -1.1782
  393SOL    HW2 1179   1.467   2.298   0.182 -2.9469  0.2691  2.4364
  394SOL     OW 1180   0.375   0.645   2.345  0.0654  0.0973  0.1403
  394SOL    HW1 1181   0.403   0.722   2.410 -0.9185  2.4533  0.9202
  394SOL    HW2 1182   0.412   0.557   2.383 -1.3531 -4.2759  0.1109
  395SOL     OW 1183   0.492   1.279   0.900  0.1977 -0.6443 -0.4483
  395SOL    HW1 1184   0.426   1.342   0.850 -0.8401 -1.8218 -1.1006
  395SOL    HW2 1185   0.445   1.196   0.934  0.9290  1.2556 -3.1040
  396SOL     OW 1186   1.794   0.929   2.091 -0.5400  0.7867 -0.4972
  396SOL    HW1 1187   1.847   0.995   2.034  1.2961  0.1967 -1.2407
  396SOL    HW2 1188   1.707   0.973   2.121  0.2194  0.2016  1.1586
  397SOL     OW 1189   0.887   0.096   0.024 -0.0242  0.1650 -0.4317
  397SOL    HW1 1190   0.833   0.032   3.065  0.4685  0.8682  0.1673
  397SOL    HW2 1191   0.827   0.176   0.041 -1.5769  3.2792 -0.4193
  398SOL     OW 1192   0.667   2.349   2.639  0.4506 -0.4066 -0.5104
  398SOL    HW1 1193   0.759   2.332   2.683 -0.9605 -2.2933  1.4471
  398SOL    HW2 1194   0.597   2.358   2.714 -2.2015  1.1938  0.1011
  399SOL     OW 1195   1.966   1.442   2.531  0.5813  0.6833 -0.2059
  399SOL    HW1 1196   1.915   1.361   2.574 -0.9248 -0.7429 -3.2875
  399SOL    HW2 1197   1.991   1.416   2.438  1.6420 -1.3150  1.8768
  400SOL     OW 1198   2.020   1.458   1.605  0.2971 -0.1412 -0.3441
  400SOL    HW1 1199   1.998   1.408   1.519  1.3846  0.9696 -0.1053
  400SOL    HW2 1200   2.044   1.557   1.587 -0.6048 -0.3272 -1.1589
  401SOL     OW 1201   1.310   1.310   1.235 -0.0201 -0.1242  0.1095
  401SOL    HW1 1202   1.346   1.240   1.306  2.8217 -0.3656  1.1821
  401SOL    HW2 1203   1.213   1.302   1.210  1.5079  0.3237  3.7954
  402SOL     OW 1204   3.031   2.413   1.680  0.1457  0.2255 -0.1590
  402SOL    HW1 1205   2.993   2.394   1.587 -1.0537  0.1727 -0.5648
  402SOL    HW2 1206   0.034   2.418   1.676 -2.3297  0.8855  0.3173
  403SOL     OW 1207   0.226   1.340   2.130  0.1263 -0.0762 -0.2847
  403SOL    HW1 1208   0.133   1.296   2.136 -0.3322 -1.4231  2.2969
  403SOL    HW2 1209   0.253   1.331   2.032 -0.4065  1.4645  1.5203
  404SOL     OW 1210   2.202   1.948   1.500  0.2023 -0.5690  0.1014
  404SOL    HW1 1211   2.162   2.016   1.566 -1.0936  0.1111  1.0702
  404SOL    HW2 1212   2.145   1.954   1.415 -0.9063 -1.3891 -0.7605
  405SOL     OW 1213   2.787   0.440   2.763 -0.1339  0.0050  0.0437
  405SOL    HW1 1214   2.714   0.508   2.779  5.2689 -0.5360 -0.2385
  405SOL    HW2 1215   2.776   0.409   2.668  0.0463  0.9622 -0.4129
  406SOL     OW 1216   0.898   1.405   2.750 -0.2872  0.2470  0.5178
  406SOL    HW1 1217   0.876   1.315   2.714  1.1514  2.8525 -0.2014
  406SOL    HW2 1218   0.826   1.476   2.725 -1.7446 -1.2069  0.3252
  407SOL     OW 1219   1.743   2.440   0.201 -0.5475 -0.2293 -0.0879
  407SOL    HW1 1220   1.771   2.367   0.268 -1.9646 -0.6332 -1.9506
  407SOL    HW2 1221   1.678   2.413   0.124 -0.1857 -0.9785  1.2625
  408SOL     OW 1222   0.502   3.095   0.272  0.0345  0.1116 -0.0843
  408SOL    HW1 1223   0.405   3.070   0.252  2.0431 -1.2049  1.4319
  408SOL    HW2 1224   0.506   0.082   0.333 -0.3947 -1.0929 -1.7083
  409SOL     OW 1225   2.375   1.790   1.176  0.1289  0.1504  0.0603
  409SOL    HW1 1226   2.312   1.747   1.103  3.0468 -0.3265  1.3881
  409SOL    HW2 1227   2.383   1.730   1.253  1.3519  1.4461 -0.7559
  410SOL     OW 1228   2.187   2.180   3.045 -0.1953  0.4280  0.3676
  410SOL    HW1 1229   2.221   2.093   3.007 -0.2778  1.3852  1.9760
  410SOL    HW2 1230   2.206   2.254   2.980 -0.0977  0.2128  1.3235
  411SOL     OW 1231   0.160   0.894   0.545  0.3008  0.3315  0.5074
  411SOL    HW1 1232   0.250   0.902   0.581  0.1174 -1.2466 -2.4476
  411SOL    HW2 1233   0.089   0.906   0.621 -0.5642 -2.3538  0.8957
  412SOL     OW 1234   1.579   2.711   0.313 -0.5323  0.4737  0.1297
  412SOL    HW1 1235   1.639   2.675   0.387 -3.0068 -1.1489 -0.4234
  412SOL    HW2 1236   1.557   2.808   0.324  1.4849 -1.3317  1.3573
  413SOL     OW 1237   1.866   0.192   2.357  0.0950 -0.0441  0.0691
  413SOL    HW1 1238   1.885   0.131   2.277 -2.4923  3.1261 -0.0268
  413SOL    HW2 1239   1.829   0.134   2.431  0.9166 -0.1239 -0.2748
  414SOL     OW 1240   3.034   0.350   0.577 -0.0777  0.2873  0.4581
  414SOL    HW1 1241   3.088   0.438   0.578 -0.7466  3.1305  1.5166
  414SOL    HW2 1242   3.035   0.316   0.676  0.1556  0.5829  3.0281
  415SOL     OW 1243   0.939   1.735   1.490  0.3675  0.0550  0.4238
  415SOL    HW1 1244   0.969   1.792   1.566 -0.0256 -2.5184  0.8853
  415SOL    HW2 1245   0.899   1.645   1.522  0.6596 -1.9254 -0.6745
  416SOL     OW 1246   0.561   0.141   0.049 -0.1655  0.2201 -0.2004
  416SOL    HW1 1247   0.501   0.160   3.071  2.6085  0.5318  3.5819
  416SOL    HW2 1248   0.526   0.073   0.117 -1.8681  0.3712  0.3471
  417SOL     OW 1249   2.524   2.849   1.140 -0.3527 -0.1835  0.1781
  417SOL    HW1 1250   2.527   2.755   1.181  0.4676  0.0434 -1.9037
  417SOL    HW2 1251   2.562   2.849   1.048 -1.9736  0.6745  2.4570
  418SOL     OW 1252   0.701   0.511   2.538 -0.1199  0.0730 -0.3006
  418SOL    HW1 1253   0.737   0.545   2.451  0.7305  0.0812  0.4457
  418SOL    HW2 1254   0.778   0.493   2.600 -0.8555  0.8320 -0.0682
  419SOL     OW 1255   0.115   1.524   1.042  0.3568 -0.3172  0.3803
  419SOL    HW1 1256   0.090   1.441   0.996 -2.5302  4.0059  0.5239
  419SOL    HW2 1257   0.043   1.598   1.030 -3.8762 -0.6145 -0.8937
  420SOL     OW 1258   1.059   2.006   0.836 -0.6654  0.2192  0.1853
  420SOL    HW1 1259   0.965   1.992   0.805  0.6548  0.6720  1.7044
  420SOL    HW2 1260   1.105   1.917   0.861 -1.6823 -4.1963  1.5927
  421SOL     OW 1261   1.978   2.149   2.013  0.0977 -0.1544  0.3811
  421SOL    HW1 1262   1.942   2.090   1.940 -1.6211  1.8264  0.7749
  421SOL    HW2 1263   1.991   2.103   2.096  0.1297  5.6782 -4.0038
  422SOL     OW 1264   3.061   0.517   2.833  0.7193  0.4937 -0.7969
  422SOL    HW1 1265   2.964   0.481   2.817  1.9115 -0.9959 -0.8454
  422SOL    HW2 1266   0.006   0.483   2.919 -0.6091 -1.2453 -1.1898
  423SOL     OW 1267   1.208   2.220   0.923  0.6230 -0.5108  0.0649
  423SOL    HW1 1268   1.162   2.148   0.870 -1.9937 -0.2839  2.9466
  423SOL    HW2 1269   1.247   2.179   1.008  1.4016  2.7627  2.1035
  424SOL     OW 1270   0.806   1.507   1.586  0.0422  0.5654 -0.0470
  424SOL    HW1 1271   0.801   1.441   1.506  0.0981  0.9145  0.8103
  424SOL    HW2 1272   0.718   1.512   1.636 -2.9703  3.5385  0.4696
  425SOL     OW 1273   3.039   2.618   2.052 -0.7276  0.1458  0.1731
  425SOL    HW1 1274   0.033   2.562   2.059  0.5571 -2.4608 -0.9407
  425SOL    HW2 1275   2.992   2.611   1.963  2.2593  0.3942  1.2303
  426SOL     OW 1276   1.993   2.915   0.593  0.5659  0.0342  0.3020
  426SOL    HW1 1277   1.902   2.873   0.617 -1.1119 -2.1736 -1.0634
  426SOL    HW2 1278   2.000   3.010   0.626  0.7263 -0.9578 -1.7258
  427SOL     OW 1279   0.556   0.870   2.890  0.4147  0.0440  0.0550
  427SOL    HW1 1280   0.643   0.920   2.875  0.6946 -1.1815 -1.7415
  427SOL    HW2 1281   0.544   0.797   2.819 -0.4505 -2.2508 -0.0851
  428SOL     OW 1282   2.162   1.462   0.331  0.2259  0.5758 -0.0334
  428SOL    HW1 1283   2.075   1.421   0.299  0.8110 -0.5973 -1.9975
  428SOL    HW2 1284   2.237   1.442   0.263 -1.8863  1.0922  2.4905
  429SOL     OW 1285   3.024   0.072   0.211 -0.5768 -0.1582  0.3607
  429SOL    HW1 1286   3.078   0.099   0.294  0.4671 -1.1969 -3.4345
  429SOL    HW2 1287   2.927   0.095   0.220 -0.8576  1.5316 -0.3385
  430SOL     OW 1288   0.531   2.719   2.155 -0.3461 -0.0467 -0.5928
  430SOL    HW1 1289   0.549   2.790   2.084 -1.8540  0.4077 -2.4807
  430SOL    HW2 1290   0.610   2.713   2.222  2.4539  0.9634  0.6671
  431SOL     OW 1291   2.452   0.984   1.359  0.3061 -0.5504 -0.1405
  431SOL    HW1 1292   2.420   1.082   1.375 -0.0604  0.8554  0.1591
  431SOL    HW2 1293   2.502   0.941   1.440  1.6402 -0.1789 -0.8016
  432SOL     OW 1294   1.842   2.365   2.076  0.3138  0.2814  0.4984
  432SOL    HW1 1295   1.770   2.323   2.139 -0.6466 -1.9686  1.9371
  432SOL    HW2 1296   1.905   2.288   2.039  0.4189 -0.6555  0.8974
  433SOL     OW 1297   1.049   2.097   0.316  0.1116 -0.2265 -0.2554
  433SOL    HW1 1298   1.067   1.997   0.299  0.4944 -1.8536 -3.0413
  433SOL    HW2 1299   1.086   2.122   0.407 -0.3754  0.7413 -0.1751
  434SOL     OW 1300   0.379   2.047   2.403  0.6737  0.2961  0.1027
  434SOL    HW1 1301   0.335   2.025   2.490 -2.7829 -0.3709  0.0252
  434SOL    HW2 1302   0.327   2.007   2.326 -0.1965 -0.9657  1.4713
  435SOL     OW 1303   0.633   0.628   0.273 -0.2470  0.0115  0.5103
  435SOL    HW1 1304   0.651   0.527   0.256  0.8833  0.8521 -2.8168
  435SOL    HW2 1305   0.642   0.675   0.182  1.0330  0.1357  1.2139
  436SOL     OW 1306   0.319   2.910   1.379 -0.4069  0.0056 -0.1185
  436SOL    HW1 1307   0.308   2.839   1.307 -0.1466 -1.3940  0.0701
  436SOL    HW2 1308   0.226   2.954   1.382  1.7033 -0.7014  0.4394
  437SOL     OW 1309   1.752   2.003   1.562 -0.1544 -0.0617 -0.3898
  437SOL    HW1 1310   1.671   2.053   1.599 -1.9953 -0.0202  2.9031
  437SOL    HW2 1311   1.766   2.029   1.461 -0.7436  1.2820 -4.2817
  438SOL     OW 1312   0.016   1.969   0.743  0.3681  0.1185  0.4542
  438SOL    HW1 1313   0.095   1.922   0.787 -0.4613 -0.2639  0.5652
  438SOL    HW2 1314   0.032   2.067   0.721 -2.0486 -1.6823 -0.6613
  439SOL     OW 1315   0.252   0.615   0.876 -0.4873  0.3940 -0.3174
  439SOL    HW1 1316   0.323   0.623   0.950  0.0822 -0.2749 -2.4937
  439SOL    HW2 1317   0.235   0.517   0.857  0.3605  0.9989  0.3198
  440SOL     OW 1318   0.124   2.895   2.351 -0.3145  0.1415 -0.1368
  440SOL    HW1 1319   0.179   2.815   2.390  1.9934 -0.9365  0.3790
  440SOL    HW2 1320   0.179   2.939   2.277  0.5335 -1.6849  1.0047
  441SOL     OW 1321   2.938   0.386   1.018 -0.1574 -0.7938  0.1511
  441SOL    HW1 1322   3.006   0.403   1.092  0.7623 -0.8952 -0.1939
  441SOL    HW2 1323   2.992   0.349   0.937 -2.6558  0.0580  2.8767
  442SOL     OW 1324   1.635   2.088   2.753 -0.0422  0.0210  0.2927
  442SOL    HW1 1325   1.699   2.157   2.792 -1.7587 -1.5892  0.6471
  442SOL    HW2 1326   1.691   2.011   2.710  0.1833  1.0549  0.8345
  443SOL     OW 1327   0.586   1.252   2.858  0.7261  0.3186 -0.5115
  443SOL    HW1 1328   0.550   1.257   2.765 -0.2652  0.4009  1.1176
  443SOL    HW2 1329   0.659   1.181   2.876  0.5908  0.0636 -1.1212
  444SOL     OW 1330   1.450   1.704   2.216 -0.5039 -0.2573  0.2091
  444SOL    HW1 1331   1.370   1.768   2.199  1.4736 -2.6402 -0.3291
  444SOL    HW2 1332   1.417   1.622   2.270 -0.1965  1.1448 -1.2191
  445SOL     OW 1333   0.192   0.062   0.915  0.3921  0.2411 -0.4134
  445SOL    HW1 1334   0.268   0.134   0.905  3.0698 -1.0462  0.2102
  445SOL    HW2 1335   0.160   0.045   1.010 -1.2635 -2.8055  2.5396
  446SOL     OW 1336   2.146   0.692   1.216  0.0552 -0.2506 -0.5139
  446SOL    HW1 1337   2.101   0.783   1.204  2.6034 -1.7085 -1.3647
  446SOL    HW2 1338   2.093   0.624   1.158 -2.0118 -3.2366  1.5430
  447SOL     OW 1339   0.309   0.802   0.108 -0.3815 -0.2737 -0.1601
  447SOL    HW1 1340   0.386   0.863   0.133  2.8192  0.5479  0.2969
  447SOL    HW2 1341   0.235   0.802   0.178  0.6132 -0.0239 -1.6385
  448SOL     OW 1342   1.554   2.110   1.701 -0.0749  0.3631 -0.1682
  448SOL    HW1 1343   1.497   2.195   1.672  1.6677  2.2978 -0.1839
  448SOL    HW2 1344   1.533   2.081   1.796 -1.1923 -0.2711 -1.1870
  449SOL     OW 1345   1.061   1.460   0.630 -0.5453 -0.2457  0.2461
  449SOL    HW1 1346   1.136   1.448   0.700 -0.9610 -0.4039  0.7597
  449SOL    HW2 1347   1.079   1.395   0.552  2.5505 -1.1458 -2.0782
  450SOL     OW 1348   2.913   1.881   1.932  0.2731  0.1007  0.0752
  450SOL    HW1 1349   2.886   1.972   1.955  2.1703 -2.8781  0.2740
  450SOL    HW2 1350   2.867   1.811   1.993 -1.0443  0.6001 -0.9900
  451SOL     OW 1351   2.657   1.500   2.760 -0.1217 -0.0766  0.5240
  451SOL    HW1 1352   2.601   1.586   2.756 -2.4816  2.8422  2.6751
  451SOL    HW2 1353   2.616   1.435   2.831 -0.2902  0.0682 -3.1407
  452SOL     OW 1354   1.661   0.705   1.370  0.3437  0.3114  0.0005
  452SOL    HW1 1355   1.597   0.679   1.441  0.9463  0.0330 -1.0503
  452SOL    HW2 1356   1.622   0.664   1.283  0.0290 -2.9418 -2.9671
  453SOL     OW 1357   2.060   1.114   1.437  0.3363 -0.1892 -0.0141
  453SOL    HW1 1358   2.028   1.132   1.535  1.9148  3.7464  3.1310
  453SOL    HW2 1359   2.047   1.194   1.377  0.8091  0.5871 -1.9925
  454SOL     OW 1360   2.846   0.819   0.278 -0.0145 -0.3768  0.3480
  454SOL    HW1 1361   2.829   0.908   0.322 -0.6668 -0.1233  1.3447
  454SOL    HW2 1362   2.805   0.739   0.329 -0.4143 -0.6498  0.4287
  455SOL     OW 1363   2.696   1.573   1.270  0.1642  0.1044  0.0439
  455SOL    HW1 1364   2.734   1.578   1.177  1.1315 -1.9708  2.5514
  455SOL    HW2 1365   2.742   1.643   1.329  1.7178 -0.4606 -0.8262
  456SOL     OW 1366   0.677   0.150   1.413 -0.0919  0.3662 -0.7128
  456SOL    HW1 1367   0.632   0.241   1.436 -1.7303 -0.8018 -0.0447
  456SOL    HW2 1368   0.639   0.068   1.473  0.9749 -0.0888 -0.6959
  457SOL     OW 1369   1.687   3.030   1.119 -0.1208  0.1145  0.6374
  457SOL    HW1 1370   1.605   3.020   1.056 -1.3149 -1.1732 -1.2344
  457SOL    HW2 1371   1.748   0.015   1.090  1.7675  2.6675 -2.0938
  458SOL     OW 1372   2.532   0.487   0.569  0.1163 -0.5845  0.4874
  458SOL    HW1 1373   2.607   0.422   0.604  0.8392 -0.2678 -1.8920
  458SOL    HW2 1374   2.463   0.495   0.641  1.5532 -0.3381  0.6166
  459SOL     OW 1375   1.929   0.624   0.015 -0.3613 -0.7862  0.5723
  459SOL    HW1 1376   1.978   0.702   0.062  3.2577  0.7772  0.9258
  459SOL    HW2 1377   1.969   0.535   0.055 -1.4116 -1.2587  1.6753
  460SOL     OW 1378   3.034   2.461   2.546 -0.5513  0.1965  0.3690
  460SOL    HW1 1379   2.981   2.535   2.595  0.0357 -1.5018 -0.2819
  460SOL    HW2 1380   0.027   2.497   2.510 -1.5917  0.9974  1.0005
  461SOL     OW 1381   0.746   1.828   0.002  0.1017  0.4455 -0.0515
  461SOL    HW1 1382   0.692   1.906   0.046  0.9480 -0.7957  0.8792
  461SOL    HW2 1383   0.695   1.767   3.041 -0.9823  2.5017 -1.1485
  462SOL     OW 1384   2.122   2.408   0.615 -0.4291 -0.5264  0.2862
  462SOL    HW1 1385   2.212   2.392   0.659  1.8874 -1.3770 -1.3693
  462SOL    HW2 1386   2.053   2.448   0.679 -0.1573 -1.9461  1.3995
  463SOL     OW 1387   0.036   0.588   0.564 -0.2836 -0.0580  0.6917
  463SOL    HW1 1388   0.134   0.603   0.587 -1.1714 -0.0353 -2.0106
  463SOL    HW2 1389   3.081   0.674   0.581  2.5343 -0.4525 -3.7789
  464SOL     OW 1390   0.779   2.494   0.357  0.1039  0.5369  0.0078
  464SOL    HW1 1391   0.677   2.494   0.359  0.1399 -1.1942  1.2755
  464SOL    HW2 1392   0.823   2.437   0.289 -3.5246  0.5366  3.6541
  465SOL     OW 1393   2.386   0.792   0.575 -0.7459 -0.0093  0.0152
  465SOL    HW1 1394   2.291   0.824   0.581 -1.1934 -1.5992 -1.1379
  465SOL    HW2 1395   2.421   0.802   0.475  2.6880  0.9368  0.3760
  466SOL     OW 1396   2.137   0.170   0.160  0.4598  0.2625  0.0386
  466SOL    HW1 1397   2.147   0.198   0.254 -2.3206  0.9689 -2.2444
  466SOL    HW2 1398   2.116   0.068   0.154  2.1604 -2.6563 -0.5264
  467SOL     OW 1399   1.076   0.553   1.965  0.3217  0.3555 -0.3930
  467SOL    HW1 1400   1.114   0.493   1.894 -0.3586  2.5564  0.4141
  467SOL    HW2 1401   1.138   0.630   1.984 -0.0389  0.9690 -0.8045
  468SOL     OW 1402   2.896   0.659   2.098  0.1079  0.2681  0.1074
  468SOL    HW1 1403   2.990   0.680   2.094 -2.8117 -1.7098  0.3413
  468SOL    HW2 1404   2.847   0.752   2.103 -0.6082 -1.0542 -0.4549
  469SOL     OW 1405   0.743   2.645   2.335  0.6499  0.5966 -0.3759
  469SOL    HW1 1406   0.688   2.561   2.358  1.2127  1.2762 -1.0096
  469SOL    HW2 1407   0.712   2.727   2.391  0.5910 -0.4845  1.1457
  470SOL     OW 1408   1.784   1.294   2.042 -0.3813 -0.1708  0.1864
  470SOL    HW1 1409   1.746   1.385   2.060 -0.5263 -1.6621 -1.0782
  470SOL    HW2 1410   1.861   1.306   1.974  0.9457  0.5884  2.1985
  471SOL     OW 1411   2.874   1.133   0.184 -0.0567  0.4887 -0.0849
  471SOL    HW1 1412   2.824   1.091   0.106 -0.4551 -4.5929 -1.3269
  471SOL    HW2 1413   2.974   1.105   0.185 -1.5278  0.5118  1.6712
  472SOL     OW 1414   0.262   2.812   0.572  0.0296 -0.7053  0.1002
  472SOL    HW1 1415   0.246   2.828   0.670  0.1609  1.5559  4.2599
  472SOL    HW2 1416   0.341   2.752   0.562  0.7349  0.3503 -0.9907
  473SOL     OW 1417   0.842   2.833   2.689  0.2175 -0.3812 -0.6775
  473SOL    HW1 1418   0.772   2.856   2.615  1.3051 -1.7412 -0.1729
  473SOL    HW2 1419   0.871   2.737   2.678  0.4010 -1.9198  0.8755
  474SOL     OW 1420   1.604   3.063   2.152  0.5180 -0.0173 -0.0987
  474SOL    HW1 1421   1.648   3.019   2.070  1.4476 -1.0618  0.0615
  474SOL    HW2 1422   1.653   3.047   2.239 -2.0586 -1.1177  1.4192
  475SOL     OW 1423   1.025   2.594   3.059 -0.8074  0.2938 -0.1348
  475SOL    HW1 1424   1.060   2.649   0.044  1.3220  0.4551  0.9896
  475SOL    HW2 1425   1.066   2.502   3.069 -0.3532 -0.1368  1.5267
  476SOL     OW 1426   0.629   0.865   0.938 -0.4329 -0.0342  0.4591
  476SOL    HW1 1427   0.560   0.860   0.859  0.3529  2.1849  0.1510
  476SOL    HW2 1428   0.674   0.773   0.952 -2.0730 -1.6968 -0.5707
  477SOL     OW 1429   1.659   2.192   1.140  0.0884  0.4553 -0.1676
  477SOL    HW1 1430   1.574   2.225   1.182 -3.1150 -2.0866  1.1419
  477SOL    HW2 1431   1.639   2.110   1.076 -1.0499 -2.2157 -0.7886
  478SOL     OW 1432   0.703   1.077   2.243  0.4529  0.1459  0.6808
  478SOL    HW1 1433   0.641   1.148   2.204 -0.4956 -1.6942  1.3801
  478SOL    HW2 1434   0.693   0.984   2.196 -1.8758 -2.4774  1.1292
  479SOL     OW 1435   0.369   0.045   0.625  0.2310 -0.3471 -0.1160
  479SOL    HW1 1436   0.304   3.058   0.615 -2.0457 -3.1953  3.5908
  479SOL    HW2 1437   0.315   0.124   0.582  1.7401  0.5119 -0.5375
  480SOL     OW 1438   2.463   2.528   2.904 -0.4756 -0.3793  0.2025
  480SOL    HW1 1439   2.418   2.460   2.843  0.6394  0.6947  0.5763
  480SOL    HW2 1440   2.553   2.495   2.933  1.5634 -1.1513 -2.2299
  481SOL     OW 1441   2.542   0.765   1.218  0.7486  0.7054 -0.1681
  481SOL    HW1 1442   2.464   0.828   1.234 -0.1626 -0.1174 -2.6725
  481SOL    HW2 1443   2.557   0.697   1.294  2.1749  1.6256  0.8398
  482SOL     OW 1444   1.367   2.523   1.670 -0.4051  0.5856  0.0486
  482SOL    HW1 1445   1.423   2.466   1.605 -1.0992 -1.1221 -0.8309
  482SOL    HW2 1446   1.399   2.517   1.767 -2.9397 -3.2244 -2.0302
  483SOL     OW 1447   0.384   1.490   2.848  0.0752  0.3737 -0.7637
  483SOL    HW1 1448   0.463   1.548   2.870 -3.1798 -2.0830 -0.4625
  483SOL    HW2 1449   0.344   1.439   2.926 -0.3963 -3.0323 -0.2562
  484SOL     OW 1450   1.538   2.003   2.372 -0.1826 -0.4134  0.1928
  484SOL    HW1 1451   1.443   2.039   2.365  1.7095  0.8506 -1.9482
  484SOL    HW2 1452   1.612   2.070   2.370 -0.1512 -0.5979 -2.6547
  485SOL     OW 1453   0.148   0.149   2.419 -0.0402  0.3871 -0.5953
  485SOL    HW1 1454   0.088   0.195   2.353 -0.0112 -0.6747  3.0661
  485SOL    HW2 1455   0.088   0.097   2.479 -2.8928  1.2141 -1.2398
  486SOL     OW 1456   1.479   0.249   0.537  0.1923  0.2855 -0.1636
  486SOL    HW1 1457   1.454   0.218   0.447 -2.1295  1.2073  2.5734
  486SOL    HW2 1458   1.484   0.353   0.545 -0.2302  3.0944  2.9670
  487SOL     OW 1459   1.278   2.693   0.874  0.0481  0.2531 -0.1301
  487SOL    HW1 1460   1.235   2.609   0.836 -0.3797  2.3754  0.2900
  487SOL    HW2 1461   1.216   2.776   0.861 -3.5980  2.6654 -1.0904
  488SOL     OW 1462   1.849   0.726   0.851  0.2511 -0.0629  0.4869
  488SOL    HW1 1463   1.797   0.727   0.938 -0.5180 -0.7025  2.6393
  488SOL    HW2 1464   1.899   0.813   0.852  0.2046  1.7555  1.9011
  489SOL     OW 1465   1.196   2.771   1.323  0.1403  0.2374 -0.3548
  489SOL    HW1 1466   1.258   2.813   1.391  0.7440 -0.3890 -0.7560
  489SOL    HW2 1467   1.157   2.688   1.368  3.8396 -0.0133  0.5363
  490SOL     OW 1468   0.901   0.615   0.362 -0.4643  0.0745 -0.3250
  490SOL    HW1 1469   0.968   0.696   0.364 -3.3126  1.5692  1.6764
  490SOL    HW2 1470   0.804   0.653   0.364 -0.4807  2.0812 -0.8805
  491SOL     OW 1471   1.313   2.826   3.077 -0.6769 -0.5998  0.0041
  491SOL    HW1 1472   1.250   2.789   0.054  2.3851 -1.5548  2.2747
  491SOL    HW2 1473   1.267   2.845   2.989  0.6451  1.7050  0.8551
  492SOL     OW 1474   1.211   1.450   2.165  0.1090 -0.3830 -0.1052
  492SOL    HW1 1475   1.272   1.429   2.244  1.1442  0.2042  0.5537
  492SOL    HW2 1476   1.121   1.404   2.177  3.0357  2.0662  1.0306
  493SOL     OW 1477   0.015   1.745   0.147 -0.3514  0.8293  0.6647
  493SOL    HW1 1478   3.076   1.816   0.086  0.4915 -0.3917  0.2297
  493SOL    HW2 1479   0.029   1.661   0.088 -0.6059 -1.3528 -0.8803
  494SOL     OW 1480   2.261   1.555   0.547 -0.0603 -0.8372 -0.3519
  494SOL    HW1 1481   2.195   1.581   0.619  0.3435 -2.2904 -2.5990
  494SOL    HW2 1482   2.203   1.516   0.470  0.3806 -2.9619  1.7749
  495SOL     OW 1483   0.075   0.817   2.568  0.1074 -0.3290 -0.4042
  495SOL    HW1 1484   0.056   0.841   2.470  2.0570  1.4304 -1.6077
  495SOL    HW2 1485   0.150   0.878   2.604  1.9669  1.9015  0.9172
  496SOL     OW 1486   2.860   3.022   2.284 -0.3200  0.1591  0.4079
  496SOL    HW1 1487   2.822   3.029   2.191  0.2696 -0.9886  0.3364
  496SOL    HW2 1488   2.902   2.932   2.299 -1.5394 -1.4892 -0.2766
  497SOL     OW 1489   2.574   0.922   0.769 -0.1303 -0.0261  0.5227
  497SOL    HW1 1490   2.536   0.870   0.693  1.1729 -2.5796 -1.7459
  497SOL    HW2 1491   2.577   0.867   0.854  0.8536  1.4568 -0.7652
  498SOL     OW 1492   2.940   2.570   0.060  0.1337  0.6406 -0.0372
  498SOL    HW1 1493   2.919   2.669   0.075  0.6097 -0.9558  2.4180
  498SOL    HW2 1494   3.022   2.572   0.001  2.9114  3.5892  0.1036
  499SOL     OW 1495   1.498   2.668   0.660 -0.0069  0.1802  0.7948
  499SOL    HW1 1496   1.429   2.659   0.732 -2.6959  1.9734  0.5096
  499SOL    HW2 1497   1.584   2.610   0.677  2.3835  0.0724  0.6794
  500SOL     OW 1498   1.112   0.504   2.604  0.3582  0.8168  0.0152
  500SOL    HW1 1499   1.026   0.481   2.661  1.2900 -3.1381  2.2783
  500SOL    HW2 1500   1.165   0.585   2.645  0.1097  1.0117  0.3174
  501SOL     OW 1501   0.918   0.236   1.313 -0.3837  0.0263 -0.0863
  501SOL    HW1 1502   0.982   0.169   1.276 -2.4274  0.0847 -1.2174
  501SOL    HW2 1503   0.848   0.187   1.369  1.7269 -0.0026  2.8184
  502SOL     OW 1504   3.051   0.019   2.052  0.3422 -0.1326  0.7478
  502SOL    HW1 1505   0.037   3.052   2.040 -1.7750 -1.3846 -0.9389
  502SOL    HW2 1506   3.077   0.105   2.104 -1.3015 -1.2980 -1.9190
  503SOL     OW 1507   1.504   2.390   2.243 -0.5166  0.8359 -0.2495
  503SOL    HW1 1508   1.549   2.474   2.286 -2.3350  1.4517 -0.8890
  503SOL    HW2 1509   1.570   2.306   2.244 -0.4250 -1.4003 -0.2564
  504SOL     OW 1510   2.172   2.878   1.718 -0.4471  0.9708  0.5094
  504SOL    HW1 1511   2.261   2.911   1.747  1.0517  0.4313  1.8027
  504SOL    HW2 1512   2.108   2.958   1.705  0.5686  0.4823 -1.0066
  505SOL     OW 1513   2.327   0.832   1.679  0.0934  0.1754  0.3708
  505SOL    HW1 1514   2.422   0.851   1.656 -2.9383 -0.2704  1.3874
  505SOL    HW2 1515   2.283   0.766   1.613 -1.7230 -0.9780  0.0695
  506SOL     OW 1516   0.434   1.513   2.146  0.1634  0.1389 -0.0428
  506SOL    HW1 1517   0.339   1.468   2.142  0.3564  0.1574  2.9888
  506SOL    HW2 1518   0.508   1.447   2.155  0.1013  3.0694  1.2064
  507SOL     OW 1519   0.048   2.976   1.389  0.5795 -0.0375 -0.2196
  507SOL    HW1 1520   3.068   3.019   1.446 -0.8520  1.7972  2.4591
  507SOL    HW2 1521   0.033   2.874   1.386 -0.6892  1.1844 -0.7524
  508SOL     OW 1522   1.364   0.559   1.509  0.2947  0.3522  0.1144
  508SOL    HW1 1523   1.337   0.655   1.513  0.8076 -2.6875  1.6690
  508SOL    HW2 1524   1.380   0.524   1.412 -1.2663  1.3263 -1.1919
  509SOL     OW 1525   1.195   2.248   1.428  0.9337  0.2775  0.5662
  509SOL    HW1 1526   1.139   2.286   1.355  1.6263 -1.9970  0.6609
  509SOL    HW2 1527   1.158   2.279   1.515  1.3656 -3.0647 -1.1901
  510SOL     OW 1528   2.783   1.508   3.087  0.0880 -0.0097 -0.2227
  510SOL    HW1 1529   2.684   1.482   3.078 -0.5821 -0.9857 -1.5854
  510SOL    HW2 1530   2.830   1.474   0.077  2.1517 -2.4523  1.3587
  511SOL     OW 1531   0.870   1.468   1.196 -0.0623 -0.3226  0.0330
  511SOL    HW1 1532   0.779   1.446   1.163 -0.6952  1.1426 -0.2073
  511SOL    HW2 1533   0.891   1.570   1.197  1.8227  1.2453  3.0744
  512SOL     OW 1534   2.955   2.381   0.404  0.8633  0.7385  0.2108
  512SOL    HW1 1535   3.035   2.326   0.368  1.5976 -2.8580 -0.0067
  512SOL    HW2 1536   2.876   2.317   0.406  1.5825 -0.9682  0.7704
  513SOL     OW 1537   0.699   1.567   2.686  0.4806 -0.5972  0.2036
  513SOL    HW1 1538   0.680   1.653   2.627  1.3210  2.1205  0.0371
  513SOL    HW2 1539   0.657   1.573   2.778  2.8081  0.4677  0.0995
  514SOL     OW 1540   3.015   2.408   2.851  0.0745 -0.1319 -0.2505
  514SOL    HW1 1541   3.054   2.461   2.925  1.8231 -2.1250 -1.8478
  514SOL    HW2 1542   2.953   2.458   2.787 -0.6989  1.4829  1.5848
  515SOL     OW 1543   1.349   1.181   2.003 -0.4040 -0.6927 -0.6906
  515SOL    HW1 1544   1.310   1.100   1.960  1.0498 -1.7452  0.2418
  515SOL    HW2 1545   1.287   1.240   2.062 -3.0122  0.4137  1.4539
  516SOL     OW 1546   2.058   2.164   0.509  0.1988  0.0652 -0.5935
  516SOL    HW1 1547   2.119   2.097   0.464 -1.9631 -0.0021  0.9510
  516SOL    HW2 1548   2.098   2.255   0.523 -2.4802 -1.7178 -2.4306
  517SOL     OW 1549   1.383   1.748   0.710  0.6052  0.5253 -0.4141
  517SOL    HW1 1550   1.338   1.705   0.630 -0.4470  2.1094 -0.3132
  517SOL    HW2 1551   1.381   1.852   0.685 -0.9000  0.9190  0.9713
  518SOL     OW 1552   2.081   2.486   2.158  0.2725 -0.3661  0.0627
  518SOL    HW1 1553   2.082   2.463   2.259 -0.1913  0.0906  0.9226
  518SOL    HW2 1554   1.996   2.449   2.120  2.8081 -0.6862  2.0388
  519SOL     OW 1555   1.582   2.360   0.927 -0.1164 -0.3192 -0.0074
  519SOL    HW1 1556   1.676   2.375   0.969  1.4271  0.5472 -0.4126
  519SOL    HW2 1557   1.569   2.261   0.905  0.1813 -1.7428  1.0974
  520SOL     OW 1558   2.654   2.375   2.567 -0.6055 -0.7172  0.4344
  520SOL    HW1 1559   2.672   2.296   2.508  2.1451 -1.6708  1.8678
  520SOL    HW2 1560   2.553   2.389   2.573 -0.4533 -2.4487 -1.5110
  521SOL     OW 1561   3.085   1.235   2.061  0.4827 -0.1727 -0.5163
  521SOL    HW1 1562   2.996   1.198   2.089  2.7595  0.6882 -0.7382
  521SOL    HW2 1563   0.021   1.184   1.979 -0.8101  0.0864 -1.0738
  522SOL     OW 1564   0.646   0.383   2.184 -0.4028 -0.1927  0.4775
  522SOL    HW1 1565   0.572   0.387   2.252  1.7270 -0.8096 -2.6281
  522SOL    HW2 1566   0.728   0.443   2.202 -0.7180 -1.1568 -0.4714
  523SOL     OW 1567   0.620   1.979   0.871  0.4128 -0.5491 -0.1458
  523SOL    HW1 1568   0.636   1.916   0.949  0.9561  1.6192 -0.3766
  523SOL    HW2 1569   0.521   2.002   0.869  0.0811 -0.4249 -1.9315
  524SOL     OW 1570   1.780   2.657   0.544  0.6421 -0.0101 -0.0718
  524SOL    HW1 1571   1.766   2.567   0.594 -4.4863 -1.8409  3.0243
  524SOL    HW2 1572   1.876   2.658   0.509 -1.0201  0.1841 -1.8139
  525SOL     OW 1573   2.241   0.683   1.468  0.1332  0.3780  0.5249
  525SOL    HW1 1574   2.191   0.706   1.382 -1.4971  2.0851  2.0602
  525SOL    HW2 1575   2.322   0.630   1.443  0.5759  0.7931  0.1792
  526SOL     OW 1576   0.959   2.548   0.547  0.0206 -0.2048  1.0694
  526SOL    HW1 1577   0.989   2.647   0.536  0.9891  2.2136  1.4628
  526SOL    HW2 1578   0.885   2.527   0.478 -3.0436  0.5583 -2.4920
  527SOL     OW 1579   2.601   2.473   0.531  0.3130 -0.8182  0.0576
  527SOL    HW1 1580   2.641   2.562   0.510  1.0805 -0.9235 -2.1472
  527SOL    HW2 1581   2.633   2.407   0.465 -0.1202  0.2534  1.4321
  528SOL     OW 1582   2.063   0.425   0.101  0.1734  0.5670  0.1557
  528SOL    HW1 1583   2.102   0.489   0.175  1.3884  0.4949  0.7277
  528SOL    HW2 1584   2.067   0.324   0.123  1.2889 -1.4876  0.0076
  529SOL     OW 1585   1.617   1.562   2.541  0.2888 -0.5623  0.4569
  529SOL    HW1 1586   1.675   1.569   2.623 -1.7403 -2.7897 -0.6433
  529SOL    HW2 1587   1.666   1.603   2.462  2.4893 -0.3978 -0.4699
  530SOL     OW 1588   2.148   0.617   0.265  0.4875  0.1845 -0.3583
  530SOL    HW1 1589   2.095   0.630   0.352 -1.2758 -0.5476  0.9438
  530SOL    HW2 1590   2.242   0.581   0.292  0.4513  1.3913 -1.3086
  531SOL     OW 1591   1.676   0.908   2.889 -0.2566 -0.0946  0.1028
  531SOL    HW1 1592   1.745   0.839   2.864 -0.0083  0.3506  1.2606
  531SOL    HW2 1593   1.633   0.948   2.799 -0.3848 -0.0926 -2.3953
  532SOL     OW 1594   1.619   0.684   0.329  1.1081  0.5469  0.2520
  532SOL    HW1 1595   1.694   0.743   0.364 -1.3553  0.8646 -1.0314
  532SOL    HW2 1596   1.651   0.628   0.249 -1.5625 -1.3448 -0.3275
  533SOL     OW 1597   0.669   0.847   2.137 -0.5775 -0.2598  0.2535
  533SOL    HW1 1598   0.582   0.799   2.121  1.4262  0.9987  1.7960
  533SOL    HW2 1599   0.745   0.817   2.069  1.9025 -0.7745 -2.8989
  534SOL     OW 1600   1.396   0.215   2.448 -0.5215 -0.2913 -0.3856
  534SOL    HW1 1601   1.349   0.241   2.360  0.6731  0.7971 -0.0983
  534SOL    HW2 1602   1.451   0.295   2.472  1.8549 -1.9781 -0.5261
  535SOL     OW 1603   0.239   0.026   0.224  0.1374 -0.0193  0.5783
  535SOL    HW1 1604   0.203   0.093   0.289  1.6483 -1.9838 -1.7219
  535SOL    HW2 1605   0.189   0.030   0.135 -1.0135  0.4983 -3.0947
  536SOL     OW 1606   0.742   0.180   0.855 -0.5286  0.0938  0.2336
  536SOL    HW1 1607   0.676   0.244   0.812 -0.4220  0.2400 -1.2625
  536SOL    HW2 1608   0.803   0.235   0.917 -0.7222 -0.3564  2.7977
  537SOL     OW 1609   1.499   0.880   0.654 -0.2149 -0.0349  0.2723
  537SOL    HW1 1610   1.561   0.804   0.676 -1.0976 -0.1324 -1.2374
  537SOL    HW2 1611   1.434   0.861   0.577 -3.9082  3.1021 -1.8596
  538SOL     OW 1612   2.931   2.161   2.933 -0.0609 -0.2862 -0.3381
  538SOL    HW1 1613   2.979   2.248   2.910 -1.6331 -2.2688  1.1215
  538SOL    HW2 1614   2.861   2.136   2.866  0.4328  0.0476  2.2327
  539SOL     OW 1615   1.994   1.639   0.160 -0.2164  0.1768  0.3373
  539SOL    HW1 1616   1.991   1.719   0.227 -2.6056  1.9293  1.5913
  539SOL    HW2 1617   1.995   1.552   0.208  1.3125  0.0677 -1.0349
  540SOL     OW 1618   0.272   2.678   1.209  0.0289  0.0624 -0.1272
  540SOL    HW1 1619   0.262   2.610   1.283  2.2858 -0.7116 -0.8472
  540SOL    HW2 1620   0.358   2.668   1.158 -0.8023  2.3834  1.5972
  541SOL     OW 1621   1.794   3.003   2.326  0.3933  0.3630 -0.2498
  541SOL    HW1 1622   1.828   3.012   2.425  1.9788 -3.6198  3.4153
  541SOL    HW2 1623   1.868   3.040   2.267 -0.2905 -0.0869 -2.9700
  542SOL     OW 1624   0.159   0.579   2.671 -0.2360 -0.7159 -0.5526
  542SOL    HW1 1625   0.087   0.566   2.742  0.0087 -1.0435 -0.7232
  542SOL    HW2 1626   0.137   0.656   2.606  0.0241  0.4138 -0.4316
  543SOL     OW 1627   0.008   1.218   1.297  0.1019  0.8473  0.6364
  543SOL    HW1 1628   3.001   1.221   1.291 -2.3149 -0.4244  2.2197
  543SOL    HW2 1629   0.058   1.234   1.208  0.0220 -1.3752 -0.1159
  544SOL     OW 1630   2.432   0.396   1.019 -0.2257 -0.2746 -0.5497
  544SOL    HW1 1631   2.353   0.416   0.954 -2.3624 -3.6985  0.2012
  544SOL    HW2 1632   2.470   0.303   0.993  0.2945  0.1364  1.3577
  545SOL     OW 1633   1.483   2.252   0.517  0.3366 -0.3877  0.3069
  545SOL    HW1 1634   1.448   2.256   0.423  0.9277 -0.7424 -0.6572
  545SOL    HW2 1635   1.441   2.172   0.566 -0.9863 -2.2238  1.1741
  546SOL     OW 1636   2.067   2.676   1.841 -1.0187 -0.0093 -0.8086
  546SOL    HW1 1637   2.103   2.584   1.808  2.1166 -0.3154 -0.7722
  546SOL    HW2 1638   2.111   2.754   1.791  0.4338 -0.7106  2.3556
  547SOL     OW 1639   0.179   2.972   2.064  0.3287  0.3549 -0.0449
  547SOL    HW1 1640   0.275   3.002   2.054  0.6318  0.9630  1.0049
  547SOL    HW2 1641   0.179   2.883   2.006  2.0682 -3.9089 -2.4430
  548SOL     OW 1642   1.962   1.238   0.055 -0.4567 -0.1835  0.1566
  548SOL    HW1 1643   1.884   1.176   0.031 -1.8718  4.0296  0.0557
  548SOL    HW2 1644   2.039   1.237   3.080  1.4833  2.6071 -1.6018
  549SOL     OW 1645   2.997   1.186   0.606  0.1613  0.3257  0.3061
  549SOL    HW1 1646   2.905   1.142   0.620 -3.0110  0.4901 -0.8584
  549SOL    HW2 1647   2.990   1.276   0.557  1.8877  3.6603 -3.5199
  550SOL     OW 1648   2.009   1.934   0.709  0.3344 -0.5091  0.1543
  550SOL    HW1 1649   2.034   2.012   0.645  1.1948  1.2911 -2.4870
  550SOL    HW2 1650   1.916   1.950   0.748 -0.9898  0.9329  0.7412
  551SOL     OW 1651   1.313   0.492   0.623  0.3258  0.1575  0.1655
  551SOL    HW1 1652   1.354   0.450   0.707  0.9359  3.3113  2.2268
  551SOL    HW2 1653   1.213   0.513   0.645 -1.2446 -0.9671  1.0881
  552SOL     OW 1654   2.956   2.763   2.307  0.0493 -0.4657 -0.8015
  552SOL    HW1 1655   3.023   2.753   2.382  1.9417  0.1161  0.6961
  552SOL    HW2 1656   2.995   2.747   2.216 -0.5826  1.6679  1.9605
  553SOL     OW 1657   3.030   3.019   2.495 -0.2286  0.4224 -0.0290
  553SOL    HW1 1658   2.944   3.027   2.436 -2.7266 -0.6384  0.2258
  553SOL    HW2 1659   0.015   2.979   2.446 -0.5099 -2.8969 -1.8990
  554SOL     OW 1660   0.638   3.012   1.567 -0.9184  0.3766  0.9733
  554SOL    HW1 1661   0.586   2.925   1.556 -0.3484 -1.1648 -2.0035
  554SOL    HW2 1662   0.734   2.994   1.536 -0.0363 -1.3190 -1.1615
  555SOL     OW 1663   2.549   2.583   2.147  0.2726  0.4038  0.1284
  555SOL    HW1 1664   2.581   2.666   2.093  0.9189  1.4855 -1.5303
  555SOL    HW2 1665   2.599   2.499   2.122  1.9470  2.6227 -1.2918
  556SOL     OW 1666   1.258   0.328   2.748 -0.5934 -0.4255  0.2517
  556SOL    HW1 1667   1.197   0.391   2.698  2.3515  1.9727 -0.9899
  556SOL    HW2 1668   1.238   0.233   2.724  0.5033 -1.2148 -3.7967
  557SOL     OW 1669   0.391   1.715   2.342  0.3630 -0.0222  0.0420
  557SOL    HW1 1670   0.309   1.708   2.405  1.5673 -3.0088 -0.6406
  557SOL    HW2 1671   0.387   1.656   2.259  0.1087  1.0079  0.6204
  558SOL     OW 1672   2.265   0.946   2.528 -0.1027  0.2930 -0.2197
  558SOL    HW1 1673   2.343   1.008   2.521  0.2941 -0.7562 -0.1147
  558SOL    HW2 1674   2.204   0.950   2.446  1.4299  0.9482 -2.0346
  559SOL     OW 1675   2.408   1.929   2.133  0.4548  0.1264 -0.0894
  559SOL    HW1 1676   2.350   1.994   2.081 -3.2832 -2.5825 -0.5872
  559SOL    HW2 1677   2.437   1.977   2.218 -1.0689 -1.7693 -0.6020
  560SOL     OW 1678   2.748   0.876   2.085 -0.1201  0.2079  0.3228
  560SOL    HW1 1679   2.648   0.867   2.098  0.3923 -0.1133  1.5485
  560SOL    HW2 1680   2.770   0.855   1.987  3.0579  1.3611 -0.1047
  561SOL     OW 1681   0.375   0.227   2.943 -0.3166 -0.6271  0.6504
  561SOL    HW1 1682   0.286   0.209   2.893  2.6109 -0.4435  1.3013
  561SOL    HW2 1683   0.408   0.318   2.920  0.4015 -1.5924 -1.6197
  562SOL     OW 1684   0.948   1.114   1.447  0.2071  0.3608 -0.0125
  562SOL    HW1 1685   0.964   1.022   1.407 -0.9908  1.5748  0.9921
  562SOL    HW2 1686   0.862   1.116   1.502 -1.9400 -0.5933  0.9530
  563SOL     OW 1687   1.550   0.018   2.761  0.0888  0.6277  0.8616
  563SOL    HW1 1688   1.501   3.063   2.685  1.4715  0.5133 -0.1781
  563SOL    HW2 1689   1.506   3.095   2.851  0.7873 -1.9107 -0.4364
  564SOL     OW 1690   0.176   2.154   1.119 -0.1077 -0.2585  0.2840
  564SOL    HW1 1691   0.272   2.166   1.156 -0.3504 -0.5270 -1.6400
  564SOL    HW2 1692   0.121   2.076   1.160  1.0966 -0.5187 -0.3476
  565SOL     OW 1693   0.593   2.248   1.954 -0.1883 -0.4212  0.0164
  565SOL    HW1 1694   0.633   2.322   1.895 -0.0727 -0.4948  0.6416
  565SOL    HW2 1695   0.663   2.172   1.957 -0.4919 -1.3145  1.7387
  566SOL     OW 1696   1.230   2.644   2.085  0.4814  0.0761 -0.9249
  566SOL    HW1 1697   1.227   2.581   2.166 -0.0031 -0.5872  3.5987
  566SOL    HW2 1698   1.326   2.678   2.075  0.2026  0.0177  1.0788
  567SOL     OW 1699   1.842   2.437   0.978  0.0433 -0.1990 -0.0896
  567SOL    HW1 1700   1.880   2.442   1.074 -1.1893 -0.5028 -1.2627
  567SOL    HW2 1701   1.904   2.487   0.914  0.3486  1.3282 -1.9616
  568SOL     OW 1702   2.104   0.824   0.627 -0.0478 -0.4555  0.2474
  568SOL    HW1 1703   2.125   0.921   0.599 -0.9344 -1.0084 -0.3449
  568SOL    HW2 1704   2.091   0.821   0.732  2.5264 -1.3628  1.1742
  569SOL     OW 1705   2.805   1.747   2.569 -0.6310  0.1120 -0.3450
  569SOL    HW1 1706   2.876   1.817   2.590  0.2162 -0.7676 -0.7643
  569SOL    HW2 1707   2.844   1.657   2.554 -1.1411  0.0549 -0.7263
  570SOL     OW 1708   2.922   3.036   1.090  0.6376 -0.4957  0.2843
  570SOL    HW1 1709   3.001   3.087   1.113 -5.1633 -1.3766  0.3505
  570SOL    HW2 1710   2.840   3.064   1.144  0.5514 -0.2717  1.3204
  571SOL     OW 1711   3.090   0.481   1.470 -0.2927  0.9205  0.5800
  571SOL    HW1 1712   0.075   0.536   1.492 -0.6848 -0.7385 -0.6735
  571SOL    HW2 1713   0.000   0.393   1.522  1.9237 -3.8913  1.3530
  572SOL     OW 1714   2.745   2.492   0.834 -0.0753  0.3486 -0.4179
  572SOL    HW1 1715   2.724   2.448   0.745  2.2779  1.1798  0.1700
  572SOL    HW2 1716   2.848   2.486   0.854  0.6529 -1.2647  1.0069
  573SOL     OW 1717   0.849   0.650   2.977  0.7240 -0.4324 -1.0532
  573SOL    HW1 1718   0.841   0.554   3.015 -0.6853 -1.5886 -0.0644
  573SOL    HW2 1719   0.767   0.703   3.010 -0.0285 -0.3728  2.6399
  574SOL     OW 1720   2.891   2.824   0.150  0.1853  0.1957 -0.2752
  574SOL    HW1 1721   2.805   2.829   0.096  1.5006  0.1609 -1.3350
  574SOL    HW2 1722   2.971   2.870   0.104  0.4446  0.2822  1.1451
  575SOL     OW 1723   1.452   2.282   1.312  0.1067 -0.1811  0.3602
  575SOL    HW1 1724   1.359   2.253   1.349 -1.0944  0.5448  1.9787
  575SOL    HW2 1725   1.455   2.375   1.268 -0.6883  1.8324 -0.9835
  576SOL     OW 1726   0.726   2.677   1.211  0.1178 -0.6832  0.4734
  576SOL    HW1 1727   0.758   2.592   1.259 -2.4349  1.5450 -0.0626
  576SOL    HW2 1728   0.756   2.766   1.248  0.7120 -2.6707  0.6483
  577SOL     OW 1729   2.388   1.605   1.374  0.2291  0.0928  0.0403
  577SOL    HW1 1730   2.477   1.562   1.358 -0.9026 -0.0013 -0.9568
  577SOL    HW2 1731   2.359   1.600   1.472 -0.2446  0.6160  0.0763
  578SOL     OW 1732   1.449   0.267   0.263 -0.2044 -0.6428  0.0078
  578SOL    HW1 1733   1.421   0.362   0.250 -0.3956  0.0372  0.6503
  578SOL    HW2 1734   1.416   0.214   0.179 -0.3511  0.4633 -0.9766
  579SOL     OW 1735   2.381   1.037   2.996 -0.1564 -0.6402 -0.1014
  579SOL    HW1 1736   2.463   1.029   3.055  0.5770 -0.0982 -0.8031
  579SOL    HW2 1737   2.344   0.945   2.981  1.9440 -0.7705  1.1419
  580SOL     OW 1738   1.875   0.584   2.047 -0.0064 -0.1270  0.0150
  580SOL    HW1 1739   1.804   0.656   2.042 -1.1599  2.5980 -0.1715
  580SOL    HW2 1740   1.893   0.560   2.141 -0.4585  1.8653  1.7378
  581SOL     OW 1741   0.618   1.326   1.118 -0.9703  0.1517 -0.4627
  581SOL    HW1 1742   0.570   1.303   1.030 -2.8900 -1.2542 -3.3491
  581SOL    HW2 1743   0.697   1.265   1.144  2.7575 -0.0020  1.5480
  582SOL     OW 1744   2.623   0.114   2.107  0.2531 -0.1348 -0.4175
  582SOL    HW1 1745   2.570   0.081   2.185  0.0504  0.5388 -2.2343
  582SOL    HW2 1746   2.553   0.143   2.036 -0.7648  0.1883  1.0983
  583SOL     OW 1747   3.061   0.428   1.818  0.4613  0.0004  0.5780
  583SOL    HW1 1748   2.994   0.373   1.869 -0.8789 -0.7238  0.4875
  583SOL    HW2 1749   3.029   0.525   1.820 -1.4331 -2.2696 -1.9364
  584SOL     OW 1750   1.273   1.950   2.703 -0.1558  0.1710  0.4155
  584SOL    HW1 1751   1.321   1.974   2.788  1.2668 -2.4284 -2.0025
  584SOL    HW2 1752   1.328   1.889   2.647 -1.3271  3.2237  1.7617
  585SOL     OW 1753   0.246   3.032   3.025  0.6022  0.1127 -0.1157
  585SOL    HW1 1754   0.337   3.010   3.070  3.5107 -0.6662  0.5163
  585SOL    HW2 1755   0.257   0.012   2.958  1.7779 -2.3866  2.2809
  586SOL     OW 1756   1.954   1.707   2.604  0.2456 -0.3062 -0.4656
  586SOL    HW1 1757   2.037   1.742   2.562 -0.4233  2.4957  1.8139
  586SOL    HW2 1758   1.944   1.608   2.584 -1.7877  1.4858  0.4720
  587SOL     OW 1759   2.540   2.348   0.245 -0.1854 -0.1751  0.1787
  587SOL    HW1 1760   2.440   2.371   0.249  0.6009  0.4922 -1.3512
  587SOL    HW2 1761   2.551   2.249   0.222 -1.1138 -3.7988 -0.1538
  588SOL     OW 1762   2.494   0.133   0.974  0.6174 -0.4150 -0.4229
  588SOL    HW1 1763   2.406   0.109   0.928  0.3445 -0.1371 -2.4672
  588SOL    HW2 1764   2.564   0.127   0.898  1.3491 -1.4396  0.3462
  589SOL     OW 1765   0.704   0.603   0.657  0.4904 -0.6939 -0.6353
  589SOL    HW1 1766   0.775   0.618   0.590  0.1633 -1.3485  0.5355
  589SOL    HW2 1767   0.615   0.655   0.641 -2.1573 -2.8836 -1.2314
  590SOL     OW 1768   2.193   1.933   0.349 -0.0548  0.1378 -0.2593
  590SOL    HW1 1769   2.266   1.887   0.397 -0.4788 -1.7049 -1.7627
  590SOL    HW2 1770   2.231   1.996   0.276  1.3737 -0.6329  1.5317
  591SOL     OW 1771   0.534   2.329   1.013 -0.4779 -0.3447 -0.2719
  591SOL    HW1 1772   0.631   2.329   0.978 -1.7361  0.5307  0.8989
  591SOL    HW2 1773   0.514   2.425   1.047 -1.7763  0.3310  2.9155
  592SOL     OW 1774   0.899   0.640   1.464 -0.3511 -0.1270  0.2194
  592SOL    HW1 1775   0.960   0.561   1.446 -0.2422  1.8944  2.4196
  592SOL    HW2 1776   0.815   0.632   1.406  1.2026 -2.0388  2.5442
  593SOL     OW 1777   1.046   1.251   1.242 -0.1798  0.0443  0.0702
  593SOL    HW1 1778   1.030   1.207   1.332 -0.0798 -0.8902 -1.4693
  593SOL    HW2 1779   0.993   1.340   1.246  0.4252  0.2394  0.9313
  594SOL     OW 1780   0.918   2.288   0.173  0.3577  0.3039  0.4279
  594SOL    HW1 1781   0.922   2.245   0.081 -0.0445 -0.0721 -2.0757
  594SOL    HW2 1782   0.966   2.224   0.238  0.7538 -3.2615 -1.7738
  595SOL     OW 1783   1.717   0.444   1.434 -0.6658  0.3816 -0.4789
  595SOL    HW1 1784   1.734   0.545   1.439  2.8121  1.3798 -1.0637
  595SOL    HW2 1785   1.705   0.406   1.527 -0.8049 -0.2523 -4.4451
  596SOL     OW 1786   2.772   1.075   1.394  0.2205 -0.2215  0.0541
  596SOL    HW1 1787   2.777   1.006   1.317  0.0375 -2.5295 -3.0490
  596SOL    HW2 1788   2.727   1.164   1.365  2.2090  0.3959  3.0145
  597SOL     OW 1789   0.139   2.591   2.436 -0.2765 -0.1884  0.2429
  597SOL    HW1 1790   0.177   2.588   2.530 -3.0296 -3.1658 -1.0920
  597SOL    HW2 1791   0.202   2.548   2.364  1.0714  0.7160  1.1960
  598SOL     OW 1792   2.746   2.333   1.847 -0.3750  0.0284 -0.0238
  598SOL    HW1 1793   2.725   2.387   1.762  0.5929 -1.4914 -0.8609
  598SOL    HW2 1794   2.678   2.258   1.866  1.0607  3.0158  2.0716
  599SOL     OW 1795   0.975   2.882   2.921 -0.7811  0.4499 -0.5012
  599SOL    HW1 1796   0.909   2.912   2.989  0.3929 -0.7781  0.4991
  599SOL    HW2 1797   0.929   2.869   2.831  1.3480  1.4240  2.4151
  600SOL     OW 1798   0.194   2.296   2.790  0.8744 -0.0813  0.3384
  600SOL    HW1 1799   0.105   2.340   2.772  0.2037 -0.5199  0.6759
  600SOL    HW2 1800   0.201   2.250   2.882  2.6937  0.1936  1.2874
  601SOL     OW 1801   0.649   0.915   1.364  0.3241 -0.1036  0.4100
  601SOL    HW1 1802   0.692   0.826   1.355  0.9045 -0.9690 -0.2719
  601SOL    HW2 1803   0.667   0.964   1.273  1.0018  1.3411 -1.4253
  602SOL     OW 1804   0.859   2.799   0.850 -0.0927 -0.0087  0.3061
  602SOL    HW1 1805   0.857   2.696   0.836  0.2360  0.1681 -1.3146
  602SOL    HW2 1806   0.788   2.834   0.915  0.4916 -0.1949 -2.0290
  603SOL     OW 1807   0.482   0.400   2.406 -0.2375 -0.3133  0.5582
  603SOL    HW1 1808   0.560   0.435   2.457 -0.2031 -1.5320 -2.0050
  603SOL    HW2 1809   0.442   0.317   2.453 -3.0865  0.9448 -0.1708
  604SOL     OW 1810   0.467   2.794   1.603  0.7379  0.1425  0.2257
  604SOL    HW1 1811   0.418   2.743   1.671  0.6837  2.1293 -0.6429
  604SOL    HW2 1812   0.397   2.832   1.538  1.3923  0.4922  0.0938
  605SOL     OW 1813   1.604   0.713   2.006  0.0395  0.4429 -0.2437
  605SOL    HW1 1814   1.552   0.704   1.917 -0.6031 -1.7175 -2.0683
  605SOL    HW2 1815   1.650   0.801   2.005  1.4229 -1.9770 -0.8489
  606SOL     OW 1816   2.520   2.786   2.886 -0.3794  0.0373 -0.3117
  606SOL    HW1 1817   2.472   2.697   2.898  0.0845 -0.2440 -0.7339
  606SOL    HW2 1818   2.587   2.782   2.811 -1.6751  2.2474  2.3936
  607SOL     OW 1819   0.674   0.652   1.302 -0.1010 -0.1779 -0.2808
  607SOL    HW1 1820   0.653   0.655   1.200  0.7224  0.1843 -1.1084
  607SOL    HW2 1821   0.596   0.610   1.356  0.3442 -1.2096  1.0590
  608SOL     OW 1822   0.169   1.758   2.530 -0.4072 -0.3268  0.5440
  608SOL    HW1 1823   0.158   1.675   2.593 -0.9408  0.2050  3.4649
  608SOL    HW2 1824   0.194   1.843   2.579  0.7350 -1.1036 -0.5490
  609SOL     OW 1825   1.476   1.390   0.565 -0.0656  0.7351 -0.6141
  609SOL    HW1 1826   1.514   1.292   0.575 -1.5744  0.5553 -1.6669
  609SOL    HW2 1827   1.451   1.416   0.471  0.2353  0.0044  1.1567
  610SOL     OW 1828   0.467   0.669   1.055 -0.0563 -0.2921 -0.3632
  610SOL    HW1 1829   0.560   0.645   1.008  2.2599  0.6192 -0.3196
  610SOL    HW2 1830   0.461   0.761   1.094 -0.8359 -2.2871  2.4229
  611SOL     OW 1831   1.431   1.020   0.889  0.6646 -0.0594 -0.3040
  611SOL    HW1 1832   1.503   1.054   0.953  0.5688 -0.5481  2.2464
  611SOL    HW2 1833   1.460   0.961   0.812 -0.5435 -2.4090  0.0234
  612SOL     OW 1834   1.830   1.303   0.549 -0.4220 -0.1666 -0.5034
  612SOL    HW1 1835   1.729   1.280   0.554  0.6483  0.3549  0.5500
  612SOL    HW2 1836   1.870   1.292   0.457 -0.3879  2.9310  0.0793
  613SOL     OW 1837   1.879   0.808   0.465  0.1011  0.5736  0.3857
  613SOL    HW1 1838   1.962   0.789   0.518  0.0069  1.2020 -1.0048
  613SOL    HW2 1839   1.859   0.907   0.471 -0.4997 -1.2405 -3.4960
  614SOL     OW 1840   2.731   0.091   2.450  0.1653 -0.3102 -0.0920
  614SOL    HW1 1841   2.794   0.041   2.387 -2.4930 -2.1520  0.8988
  614SOL    HW2 1842   2.635   0.089   2.416  1.0282  0.1043  1.4537
  615SOL     OW 1843   0.574   1.791   0.655  0.1637  0.1421  0.4157
  615SOL    HW1 1844   0.642   1.725   0.628 -3.3851  2.4849  0.1999
  615SOL    HW2 1845   0.595   1.843   0.739  1.0767 -1.1208 -0.3336
  616SOL     OW 1846   1.544   0.989   2.649 -0.1840  0.8368  0.1234
  616SOL    HW1 1847   1.548   1.084   2.609 -2.1381  4.3193 -0.0628
  616SOL    HW2 1848   1.457   0.945   2.627 -0.2975 -1.4651  0.0477
  617SOL     OW 1849   1.386   0.592   3.011  0.5257 -0.1330  0.3987
  617SOL    HW1 1850   1.292   0.548   3.003 -1.0207  1.2485 -0.7652
  617SOL    HW2 1851   1.457   0.519   3.028  0.0361 -0.0900  0.6102
  618SOL     OW 1852   1.784   2.425   2.510  0.2563 -0.0092  0.0375
  618SOL    HW1 1853   1.701   2.464   2.463 -1.4827 -1.9248 -0.0699
  618SOL    HW2 1854   1.774   2.443   2.612  1.5048  0.2295 -0.2668
  619SOL     OW 1855   2.261   1.737   0.911  0.8687 -0.0361  0.3308
  619SOL    HW1 1856   2.344   1.698   0.873  1.1819  1.5055  2.2346
  619SOL    HW2 1857   2.182   1.716   0.850  0.4420 -2.3089 -0.9830
  620SOL     OW 1858   2.027   2.867   2.444  0.0434  0.6686 -0.3618
  620SOL    HW1 1859   2.038   2.841   2.347 -1.8360  1.9541  1.5347
  620SOL    HW2 1860   1.936   2.843   2.487 -3.2423  0.1758  0.6652
  621SOL     OW 1861   0.298   1.346   0.643 -0.2704  0.1294  0.5289
  621SOL    HW1 1862   0.239   1.377   0.561 -2.5498 -1.1864 -4.1696
  621SOL    HW2 1863   0.379   1.410   0.653  1.6922  0.3267 -0.5942
  622SOL     OW 1864   1.268   1.355   2.694 -0.7688  0.0851 -0.0468
  622SOL    HW1 1865   1.209   1.360   2.610 -0.7419 -1.7936  1.7989
  622SOL    HW2 1866   1.238   1.426   2.762  0.7139  0.5006 -1.3105
  623SOL     OW 1867   2.939   2.457   2.284 -0.1799  0.3004  0.4509
  623SOL    HW1 1868   2.985   2.437   2.376  2.0299 -0.2500  3.0804
  623SOL    HW2 1869   2.973   2.541   2.235  0.9072 -0.2596 -0.2050
  624SOL     OW 1870   0.760   2.706   3.078  0.0065 -0.3933  0.0842
  624SOL    HW1 1871   0.858   2.682   3.084 -0.6166  0.1961 -0.4593
  624SOL    HW2 1872   0.743   2.786   0.041  0.0641  0.1008  0.8094
  625SOL     OW 1873   0.534   1.889   2.176  0.1189  0.3976  0.6795
  625SOL    HW1 1874   0.480   1.816   2.223 -0.6465 -1.5128 -1.2647
  625SOL    HW2 1875   0.483   1.930   2.092 -5.1407  3.1776  1.1043
  626SOL     OW 1876   0.476   2.953   2.832 -0.0759  0.7564 -0.1888
  626SOL    HW1 1877   0.481   2.879   2.765 -1.6848  3.7353  1.2267
  626SOL    HW2 1878   0.445   2.918   2.923 -0.4336 -1.1739 -1.4155
  627SOL     OW 1879   1.902   1.390   0.281  0.2179  0.1566  0.0453
  627SOL    HW1 1880   1.909   1.332   0.195 -0.4780  0.3332  1.6900
  627SOL    HW2 1881   1.803   1.421   0.302 -3.8998 -0.0706  0.3300
  628SOL     OW 1882   1.172   2.155   0.574  0.3148 -0.7305 -0.5951
  628SOL    HW1 1883   1.114   2.155   0.662 -0.0672 -0.8206  0.1816
  628SOL    HW2 1884   1.198   2.250   0.550 -0.1313  1.7093 -2.3557
  629SOL     OW 1885   0.010   0.251   1.602  0.8544 -0.5578 -0.2162
  629SOL    HW1 1886   0.096   0.206   1.620 -0.4361  1.3100  0.2251
  629SOL    HW2 1887   3.063   0.294   1.685  1.6788  1.4036  3.2203
  630SOL     OW 1888   2.242   0.384   1.878  0.4510  0.6708 -0.0928
  630SOL    HW1 1889   2.236   0.485   1.887 -1.9490  0.4344  0.5013
  630SOL    HW2 1890   2.189   0.353   1.794 -0.6247  0.8206 -3.3107
  631SOL     OW 1891   1.365   0.280   1.040  0.1067  0.2929 -0.5067
  631SOL    HW1 1892   1.421   0.348   0.985 -0.0258  3.9584  4.0770
  631SOL    HW2 1893   1.383   0.183   1.013 -0.2895  1.3558 -0.5519
  632SOL     OW 1894   2.819   0.853   1.825  0.1546  0.1749  0.0717
  632SOL    HW1 1895   2.857   0.780   1.764 -0.6462 -0.7706  0.8887
  632SOL    HW2 1896   2.816   0.943   1.782 -1.9928 -0.7983 -0.0857
  633SOL     OW 1897   1.272   0.912   2.634 -0.4664 -0.5233 -0.0111
  633SOL    HW1 1898   1.206   0.949   2.565 -0.2521  2.6974  0.6267
  633SOL    HW2 1899   1.235   0.828   2.678 -0.6849 -1.5037  2.3710
  634SOL     OW 1900   0.488   2.875   3.079  0.2830  0.5052 -0.6903
  634SOL    HW1 1901   0.437   2.783   3.087 -0.4219 -1.7039 -2.1808
  634SOL    HW2 1902   0.559   2.886   0.054 -2.4197 -2.7657 -1.8195
  635SOL     OW 1903   3.069   1.626   1.492 -0.0521  0.0151  0.1848
  635SOL    HW1 1904   3.014   1.542   1.508  0.8110  0.3060  0.2947
  635SOL    HW2 1905   0.063   1.604   1.456 -3.2092  0.9937  4.6117
  636SOL     OW 1906   0.293   1.563   0.117 -0.5693 -0.4803  0.2487
  636SOL    HW1 1907   0.298   1.619   0.203 -0.0566 -0.5065  0.9029
  636SOL    HW2 1908   0.210   1.503   0.109 -0.0129 -1.1240 -2.5295
  637SOL     OW 1909   0.010   2.619   0.372  0.2507 -0.4335  0.3392
  637SOL    HW1 1910   0.011   2.681   0.295  1.9025  1.1359  0.5277
  637SOL    HW2 1911   3.037   2.544   0.365  1.1208 -2.2759 -1.0163
  638SOL     OW 1912   2.692   2.576   0.237 -0.3213  0.5476 -0.0970
  638SOL    HW1 1913   2.791   2.547   0.215  0.5721 -2.9523  0.5051
  638SOL    HW2 1914   2.634   2.493   0.219 -0.6334 -3.6742  2.3555
  639SOL     OW 1915   1.521   0.409   2.661 -0.1507 -0.7626  0.2228
  639SOL    HW1 1916   1.422   0.401   2.676  0.2323 -3.2616 -0.6617
  639SOL    HW2 1917   1.572   0.372   2.745  1.6246 -1.2501  4.1103
  640SOL     OW 1918   2.082   2.138   1.657 -0.2253 -0.0673  0.2311
  640SOL    HW1 1919   2.028   2.102   1.735  0.3899  0.7163 -0.3738
  640SOL    HW2 1920   2.062   2.236   1.646 -0.1162  0.1878 -0.9500
  641SOL     OW 1921   2.971   0.017   0.825  0.1364  0.3942  0.3158
  641SOL    HW1 1922   2.959   3.063   0.915 -2.1571 -1.6021  2.3369
  641SOL    HW2 1923   3.012   3.055   0.754 -0.2740  0.5384  0.8104
  642SOL     OW 1924   1.024   0.960   1.837  0.3818 -0.3256  0.3571
  642SOL    HW1 1925   1.044   1.047   1.782 -1.2618  1.2595 -1.4140
  642SOL    HW2 1926   0.964   0.897   1.783  1.0041 -0.1164  2.3461
  643SOL     OW 1927   0.643   1.915   2.742 -0.0407  0.4111 -0.2510
  643SOL    HW1 1928   0.725   1.933   2.682 -0.0666 -0.7459  1.2015
  643SOL    HW2 1929   0.560   1.918   2.681 -2.9048  2.0384  0.3466
  644SOL     OW 1930   1.384   2.705   2.466  0.5149  0.0913 -0.2049
  644SOL    HW1 1931   1.334   2.795   2.461 -2.0773  2.0530 -0.4480
  644SOL    HW2 1932   1.311   2.636   2.497 -2.4908 -3.5309 -0.8088
  645SOL     OW 1933   1.497   0.863   1.793 -0.5926  0.2625  0.1039
  645SOL    HW1 1934   1.492   0.954   1.741  2.6135 -0.0454  0.0488
  645SOL    HW2 1935   1.403   0.835   1.811 -1.2220 -1.3621  0.3668
  646SOL     OW 1936   1.181   2.252   2.724  0.8157  0.0423  0.6685
  646SOL    HW1 1937   1.265   2.299   2.695 -0.4676 -0.9875  0.2750
  646SOL    HW2 1938   1.185   2.150   2.716 -1.5548  1.5617 -0.6768
  647SOL     OW 1939   1.329   2.838   0.457  0.1521 -0.3037 -0.4350
  647SOL    HW1 1940   1.395   2.785   0.514 -1.3881 -2.0874 -0.4949
  647SOL    HW2 1941   1.360   2.932   0.446  1.6436 -2.3380  2.0928
  648SOL     OW 1942   2.537   2.571   1.202 -0.4339 -0.2064  0.0751
  648SOL    HW1 1943   2.523   2.554   1.101 -0.3886  1.5407 -2.2050
  648SOL    HW2 1944   2.535   2.486   1.260 -2.3295 -1.1679 -0.0503
  649SOL     OW 1945   0.623   2.406   2.372 -0.3605  0.0715  0.2738
  649SOL    HW1 1946   0.555   2.355   2.313  1.0502 -0.3625 -0.9282
  649SOL    HW2 1947   0.614   2.388   2.472 -0.1657 -0.5527 -0.8664
  650SOL     OW 1948   2.574   1.792   2.450  0.3433 -0.1645  0.8837
  650SOL    HW1 1949   2.667   1.780   2.492  2.0505 -1.7069 -1.4173
  650SOL    HW2 1950   2.534   1.885   2.457  0.7001 -1.9443  1.4582
  651SOL     OW 1951   2.722   2.362   2.136  0.3223  0.5523  0.0642
  651SOL    HW1 1952   2.742   2.369   2.034  1.6864  1.9263  0.8626
  651SOL    HW2 1953   2.798   2.386   2.197 -1.4211  3.4089  1.3808
  652SOL     OW 1954   2.394   2.397   0.683  0.1447  0.4284 -0.0325
  652SOL    HW1 1955   2.463   2.419   0.612 -0.3408 -0.5624 -0.2354
  652SOL    HW2 1956   2.419   2.318   0.745  0.2078  1.0337  2.2106
  653SOL     OW 1957   2.590   1.146   1.083  0.2065 -0.0789 -0.9066
  653SOL    HW1 1958   2.580   1.202   1.170 -0.0925 -0.4404  1.5404
  653SOL    HW2 1959   2.661   1.076   1.102  2.0148  2.3321  2.7379
  654SOL     OW 1960   0.889   0.455   2.728  0.0330  0.6455  0.7198
  654SOL    HW1 1961   0.894   0.360   2.766 -1.9087 -3.8175  0.2902
  654SOL    HW2 1962   0.888   0.526   2.801 -0.4821  0.7504 -1.3531
  655SOL     OW 1963   0.855   0.330   1.055  0.5159 -0.2648  0.3122
  655SOL    HW1 1964   0.947   0.295   1.036 -1.9945 -2.0680  1.4883
  655SOL    HW2 1965   0.827   0.319   1.152  1.6908  0.0502  2.8366
  656SOL     OW 1966   0.360   2.303   1.876  0.8217  0.0078  0.1630
  656SOL    HW1 1967   0.323   2.208   1.856 -0.4661 -3.9747 -0.0377
  656SOL    HW2 1968   0.461   2.299   1.894 -1.1777 -0.5371 -0.8220
  657SOL     OW 1969   2.519   0.831   0.341 -0.0264  0.7970  0.0976
  657SOL    HW1 1970   2.530   0.799   0.246  1.1162  0.3760 -0.7128
  657SOL    HW2 1971   2.554   0.924   0.358 -2.4021  0.1756 -0.5898
  658SOL     OW 1972   1.926   1.882   1.048 -0.0722 -0.2430  0.4599
  658SOL    HW1 1973   1.860   1.900   0.977 -1.5470  0.8169  1.3079
  658SOL    HW2 1974   1.953   1.787   1.054 -3.3575  1.8246  2.0344
  659SOL     OW 1975   2.645   1.840   2.831  0.1803 -0.5354  0.1429
  659SOL    HW1 1976   2.720   1.789   2.876 -0.7311  1.9140 -0.9895
  659SOL    HW2 1977   2.675   1.931   2.801  0.0566 -2.4633  1.7898
  660SOL     OW 1978   1.047   0.389   0.181 -0.2543  0.0336  0.3818
  660SOL    HW1 1979   1.035   0.314   0.245  2.3507  0.6570  1.8021
  660SOL    HW2 1980   1.136   0.431   0.203 -0.9742  0.9835  0.7821
  661SOL     OW 1981   1.747   2.969   0.082 -0.1866 -0.0562 -0.6036
  661SOL    HW1 1982   1.794   2.885   0.104 -2.4068 -0.5882 -0.7676
  661SOL    HW2 1983   1.795   3.048   0.126  0.3802  1.6784  0.7177
  662SOL     OW 1984   0.769   2.882   0.608  0.3812  0.3198  0.1638
  662SOL    HW1 1985   0.711   2.970   0.618 -2.9219  0.2082  0.2499
  662SOL    HW2 1986   0.804   2.852   0.704  1.4791 -3.6516  2.6067
  663SOL     OW 1987   1.387   0.102   2.074  0.3777  0.3491  0.0628
  663SOL    HW1 1988   1.467   0.048   2.109  1.5128  0.6967  0.0310
  663SOL    HW2 1989   1.348   0.168   2.144 -2.3599  1.1858 -1.0992
  664SOL     OW 1990   0.747   2.458   1.437  0.1151  0.6212  0.0163
  664SOL    HW1 1991   0.666   2.399   1.415 -0.9208  0.5117 -1.2027
  664SOL    HW2 1992   0.726   2.513   1.521  0.2619 -2.0535 -1.2680
  665SOL     OW 1993   0.853   2.168   1.485 -0.1256 -0.5260  0.4282
  665SOL    HW1 1994   0.910   2.234   1.546 -0.4836 -1.4981  3.2919
  665SOL    HW2 1995   0.806   2.214   1.409 -1.4554 -0.0563  1.8849
  666SOL     OW 1996   0.661   2.858   2.483 -0.3843  0.4855  0.0742
  666SOL    HW1 1997   0.643   2.953   2.456  1.8648 -0.5155  0.1173
  666SOL    HW2 1998   0.573   2.814   2.523 -1.7195 -1.1692  1.0012
  667SOL     OW 1999   1.940   1.443   1.849 -0.0962 -0.2068 -0.5615
  667SOL    HW1 2000   1.955   1.444   1.748  0.8066 -0.9201  1.1688
  667SOL    HW2 2001   2.026   1.483   1.892  1.9602  1.3789  0.2468
  668SOL     OW 2002   1.934   3.063   1.713  0.5722 -0.1821 -0.3522
  668SOL    HW1 2003   1.853   3.023   1.762 -1.1813  0.0448 -1.4406
  668SOL    HW2 2004   1.950   0.067   1.723 -0.2446 -0.3015 -3.0357
  669SOL     OW 2005   2.486   2.480   0.953  0.1350  0.0644 -0.0588
  669SOL    HW1 2006   2.439   2.503   0.864 -1.4784  0.2420  1.9585
  669SOL    HW2 2007   2.589   2.476   0.947 -1.8613  0.8421  1.5862
  670SOL     OW 2008   1.314   2.288   2.987  0.2098  0.1377 -0.0719
  670SOL    HW1 2009   1.262   2.318   3.068 -1.3710 -0.4742 -1.3723
  670SOL    HW2 2010   1.252   2.297   2.905 -2.9070  2.7158  0.2659
  671SOL     OW 2011   0.621   0.964   0.409 -0.1656 -0.4758  0.0020
  671SOL    HW1 2012   0.689   0.982   0.333  3.5498  1.8079  0.3530
  671SOL    HW2 2013   0.599   1.052   0.455 -0.0886  0.1118 -2.5606
  672SOL     OW 2014   2.801   1.141   2.718  0.1152  0.0691  0.1124
  672SOL    HW1 2015   2.893   1.192   2.726  0.0255 -0.0272 -2.0205
  672SOL    HW2 2016   2.764   1.151   2.620  0.5532  0.3459 -0.2847
  673SOL     OW 2017   2.889   1.981   1.695  0.2052  0.0979 -0.2421
  673SOL    HW1 2018   2.867   1.939   1.785 -0.8086 -0.4688  0.7954
  673SOL    HW2 2019   2.804   2.006   1.647  0.3704 -1.8243  1.5074
  674SOL     OW 2020   0.446   2.292   2.191  0.3914  0.2139  0.2806
  674SOL    HW1 2021   0.397   2.208   2.224 -1.6045 -1.2053  1.6633
  674SOL    HW2 2022   0.497   2.280   2.102 -1.4796  1.5286 -3.6644
  675SOL     OW 2023   1.135   0.529   1.693 -0.4078  0.4775 -0.0870
  675SOL    HW1 2024   1.046   0.478   1.684  1.9909 -0.5543  0.2720
  675SOL    HW2 2025   1.200   0.491   1.623  1.7096  1.6545 -2.3229
  676SOL     OW 2026   1.855   0.100   1.429  0.5188  0.3137 -0.7948
  676SOL    HW1 2027   1.765   0.064   1.449  1.2575 -0.8993 -3.4760
  676SOL    HW2 2028   1.911   0.113   1.516 -1.2422 -1.6899 -1.4916
  677SOL     OW 2029   2.531   1.437   3.025 -0.2663 -0.0991 -0.1113
  677SOL    HW1 2030   2.464   1.498   2.971 -0.8510 -0.2621 -1.9419
  677SOL    HW2 2031   2.549   1.344   2.978  0.6477 -2.7858  0.8125
  678SOL     OW 2032   2.623   1.325   1.354  0.3518 -0.0483  0.0260
  678SOL    HW1 2033   2.644   1.417   1.310  1.5072  1.1829 -1.0039
  678SOL    HW2 2034   2.527   1.317   1.390  1.8494  1.5215  0.1865
  679SOL     OW 2035   2.592   0.463   0.022  0.4763 -0.3128  0.5048
  679SOL    HW1 2036   2.617   0.428   0.117 -0.0500  1.2799 -0.8055
  679SOL    HW2 2037   2.661   0.536   3.086  0.9470  1.0291 -0.9344
  680SOL     OW 2038   0.541   1.884   1.831  0.0142 -0.3954 -0.1470
  680SOL    HW1 2039   0.588   1.815   1.888 -3.1688  2.3045 -1.7093
  680SOL    HW2 2040   0.600   1.943   1.772  2.7542  0.9880 -0.2026
  681SOL     OW 2041   2.570   2.144   1.878 -0.1347 -0.3272 -0.3440
  681SOL    HW1 2042   2.491   2.144   1.818  0.7726  1.4538  0.9998
  681SOL    HW2 2043   2.569   2.056   1.930 -0.4698 -3.0419  1.9031
  682SOL     OW 2044   0.152   2.117   3.021  0.3871  0.2780 -0.6789
  682SOL    HW1 2045   0.219   2.077   3.090  0.7497 -0.1542  0.5454
  682SOL    HW2 2046   0.057   2.109   3.052 -0.0379  2.2802  0.8456
  683SOL     OW 2047   3.043   1.958   1.219 -0.0301 -0.0228 -0.0444
  683SOL    HW1 2048   2.941   1.974   1.192 -0.7016 -1.3211  1.5791
  683SOL    HW2 2049   3.048   1.962   1.320 -2.8044 -2.0253 -0.5072
  684SOL     OW 2050   2.816   1.151   2.106  0.1450 -0.6184 -0.0253
  684SOL    HW1 2051   2.751   1.199   2.166 -0.3557  1.3569 -2.7478
  684SOL    HW2 2052   2.784   1.059   2.085 -0.6336  3.3069 -3.0861
  685SOL     OW 2053   1.396   0.717   0.463 -0.7621 -0.1183  0.2631
  685SOL    HW1 2054   1.490   0.704   0.420  0.9514  0.2815 -1.4251
  685SOL    HW2 2055   1.368   0.632   0.519  0.9777  0.7395  2.1711
  686SOL     OW 2056   0.571   0.364   0.731 -0.3662 -0.3381 -0.1255
  686SOL    HW1 2057   0.615   0.452   0.701 -2.1583  1.0845 -1.3863
  686SOL    HW2 2058   0.484   0.344   0.677  1.5609  0.3233 -3.0011
  687SOL     OW 2059   0.730   2.155   2.870  0.0546  0.3543  0.1875
  687SOL    HW1 2060   0.713   2.061   2.840 -0.8489  1.1954  1.0791
  687SOL    HW2 2061   0.642   2.209   2.867  0.4244  0.0958  0.2555
  688SOL     OW 2062   2.153   0.357   1.579  0.7197  0.8211 -0.2238
  688SOL    HW1 2063   2.167   0.294   1.495 -1.1518 -2.6937 -1.9127
  688SOL    HW2 2064   2.087   0.439   1.563 -2.5713  1.2239 -1.1931
  689SOL     OW 2065   1.524   0.484   0.925 -0.6479 -0.6463 -0.2815
  689SOL    HW1 2066   1.581   0.401   0.914  0.3722  2.6228  1.2749
  689SOL    HW2 2067   1.552   0.560   0.860 -0.1705 -0.9303  2.0048
  690SOL     OW 2068   2.887   1.428   1.520  0.7236  0.0179  0.2610
  690SOL    HW1 2069   2.793   1.418   1.476  0.8575  3.1536 -1.2687
  690SOL    HW2 2070   2.897   1.366   1.603 -0.3987 -0.1438  0.7745
  691SOL     OW 2071   0.454   2.175   1.216 -0.0104 -0.1682 -0.1059
  691SOL    HW1 2072   0.484   2.232   1.136 -3.0823 -1.1523  0.1737
  691SOL    HW2 2073   0.457   2.076   1.182  1.2110 -1.3829 -1.2740
  692SOL     OW 2074   1.246   0.091   1.554 -0.2320 -0.2331 -0.0756
  692SOL    HW1 2075   1.278   0.013   1.618 -0.1930  0.3476 -0.5236
  692SOL    HW2 2076   1.321   0.161   1.533  0.5329  0.6055  0.4472
  693SOL     OW 2077   0.890   1.730   2.120  0.3104  0.0808  0.1765
  693SOL    HW1 2078   0.842   1.818   2.146  2.0955  2.1972  3.3916
  693SOL    HW2 2079   0.931   1.740   2.029 -0.8442 -0.3579  0.7275
  694SOL     OW 2080   1.921   1.438   0.909  0.3970 -0.1342 -0.3942
  694SOL    HW1 2081   1.826   1.426   0.932 -0.1191  2.0963 -0.6590
  694SOL    HW2 2082   1.958   1.357   0.861  1.5654  0.5356  1.2160
  695SOL     OW 2083   0.987   0.874   1.352 -0.3199  0.1918  0.2542
  695SOL    HW1 2084   0.969   0.854   1.248  0.2163 -2.7352  0.6273
  695SOL    HW2 2085   0.949   0.798   1.412 -1.1528 -0.6280 -2.0600
  696SOL     OW 2086   0.103   0.114   0.465 -0.6253 -0.6817  0.3057
  696SOL    HW1 2087   0.095   0.199   0.520 -0.1387 -2.1999  1.4915
  696SOL    HW2 2088   0.072   0.030   0.515 -2.4271  1.0259 -1.3168
  697SOL     OW 2089   2.038   0.478   1.085  0.1339 -0.0953 -0.1730
  697SOL    HW1 2090   2.046   0.443   0.987 -1.4519 -0.8280 -2.0270
  697SOL    HW2 2091   1.991   0.417   1.149 -0.1213  0.6122 -2.9441
  698SOL     OW 2092   1.495   1.389   1.898  0.3741 -0.5101  0.0854
  698SOL    HW1 2093   1.544   1.438   1.972  1.0969 -1.8486 -0.6367
  698SOL    HW2 2094   1.451   1.305   1.933  0.1390  1.0776 -0.5034
  699SOL     OW 2095   0.044   0.246   2.194  0.0520 -0.0337  0.7600
  699SOL    HW1 2096   3.050   0.293   2.180 -1.5478 -0.8074  1.6581
  699SOL    HW2 2097   0.119   0.311   2.180 -0.9263 -1.9250 -2.2291
  700SOL     OW 2098   1.679   2.430   0.665 -0.4551  0.5736 -0.0046
  700SOL    HW1 2099   1.602   2.394   0.606 -3.7265 -0.3253 -1.1533
  700SOL    HW2 2100   1.659   2.414   0.764 -0.4949 -2.1079  0.5114
  701SOL     OW 2101   0.027   1.468   2.452  0.0881 -0.1139 -0.2231
  701SOL    HW1 2102   0.106   1.505   2.505  1.0373  1.1896  0.8243
  701SOL    HW2 2103   3.032   1.477   2.497 -1.1319 -1.9368 -1.0719
  702SOL     OW 2104   0.622   0.001   0.643 -0.8415 -0.6081 -0.4866
  702SOL    HW1 2105   0.661   0.052   0.723  0.8293  0.7601  3.0699
  702SOL    HW2 2106   0.521   0.015   0.641  2.0168 -1.9029 -0.1712
  703SOL     OW 2107   1.814   2.995   2.822  0.3865 -0.0577 -0.6944
  703SOL    HW1 2108   1.884   3.054   2.866 -1.3710 -0.8383 -1.1040
  703SOL    HW2 2109   1.718   3.034   2.831  0.2370 -1.0927 -0.2839
  704SOL     OW 2110   2.547   2.076   0.114 -0.1383  0.1098 -0.4135
  704SOL    HW1 2111   2.552   2.125   0.021  0.7953  0.2214 -2.8660
  704SOL    HW2 2112   2.629   2.022   0.129 -1.8090  1.0092 -0.1364
  705SOL     OW 2113   2.688   2.198   2.353  0.5014 -0.3218 -0.0585
  705SOL    HW1 2114   2.699   2.263   2.272 -0.6348 -2.7879 -3.0518
  705SOL    HW2 2115   2.776   2.179   2.399  0.5789 -0.1083  0.1206
  706SOL     OW 2116   2.768   0.067   0.362 -0.0704  0.3795 -0.1955
  706SOL    HW1 2117   2.696   0.039   0.292 -0.8869  1.0356 -2.1569
  706SOL    HW2 2118   2.805   3.085   0.417  1.0403 -1.7112  0.5531
  707SOL     OW 2119   1.123   0.156   2.978  0.3535 -0.3619  0.3160
  707SOL    HW1 2120   1.142   0.106   2.889 -1.4848 -1.0588 -2.5683
  707SOL    HW2 2121   1.035   0.123   3.019 -0.1528 -0.1953 -1.3045
  708SOL     OW 2122   0.193   2.125   1.730  0.0787 -0.5571 -0.1873
  708SOL    HW1 2123   0.108   2.155   1.773 -1.3012 -1.5475  1.4158
  708SOL    HW2 2124   0.190   2.028   1.717  0.9624  0.2758 -0.5827
  709SOL     OW 2125   1.428   2.959   1.944  0.0203 -0.4858 -0.5064
  709SOL    HW1 2126   1.391   3.050   1.985 -2.2728  5.1192  1.4904
  709SOL    HW2 2127   1.435   2.885   2.020 -0.1584 -2.1953  2.2681
  710SOL     OW 2128   1.799   2.500   2.904 -0.3520 -0.0707  0.5719
  710SOL    HW1 2129   1.812   2.597   2.942 -2.5431 -0.0854 -1.4950
  710SOL    HW2 2130   1.702   2.482   2.873  1.0511 -0.8074 -0.4378
  711SOL     OW 2131   0.931   2.581   2.767  0.3936  0.0839  0.6127
  711SOL    HW1 2132   0.973   2.588   2.860  1.1771 -2.4284 -0.5129
  711SOL    HW2 2133   0.935   2.483   2.736  1.0493 -0.3265 -2.1538
  712SOL     OW 2134   1.052   1.829   2.854  0.0594 -0.1162 -0.5129
  712SOL    HW1 2135   1.124   1.868   2.793  1.3676 -0.1878 -0.5754
  712SOL    HW2 2136   1.065   1.727   2.861  1.1217  0.6038  3.0727
  713SOL     OW 2137   1.738   0.991   1.587 -0.9312  0.1562  0.3566
  713SOL    HW1 2138   1.803   0.912   1.578 -2.3354  0.7440 -2.0455
  713SOL    HW2 2139   1.783   1.066   1.640 -1.1959 -1.7897  1.4948
  714SOL     OW 2140   1.245   1.549   1.920  0.1710 -0.5833  0.2537
  714SOL    HW1 2141   1.246   1.509   2.013 -1.5447  0.4461 -3.5004
  714SOL    HW2 2142   1.340   1.541   1.881 -3.4856 -2.7463  0.7758
  715SOL     OW 2143   2.588   0.312   0.249 -0.3708  0.2231  0.3587
  715SOL    HW1 2144   2.681   0.321   0.292  1.4677 -0.5353 -2.7661
  715SOL    HW2 2145   2.584   0.238   0.174  0.5635  1.7365 -3.4504
  716SOL     OW 2146   0.495   2.613   1.056 -0.2450 -0.1793 -0.1486
  716SOL    HW1 2147   0.581   2.627   1.115  3.6019 -0.4263 -0.0778
  716SOL    HW2 2148   0.477   2.701   1.007  2.1839  2.2350  2.4452
  717SOL     OW 2149   2.710   0.658   0.466 -0.3627  0.4829 -0.4234
  717SOL    HW1 2150   2.668   0.576   0.509 -0.7781 -0.8468  1.9167
  717SOL    HW2 2151   2.640   0.722   0.431  0.4949 -1.6638  1.5403
  718SOL     OW 2152   1.737   1.297   1.299  0.1981 -0.2072 -0.0572
  718SOL    HW1 2153   1.717   1.372   1.368 -1.1801  0.8415  1.7521
  718SOL    HW2 2154   1.681   1.217   1.321 -2.1310  0.2089 -0.9520
  719SOL     OW 2155   2.632   2.799   0.037  0.0681 -0.4685 -0.0725
  719SOL    HW1 2156   2.601   2.795   3.036 -0.1470  0.3365  1.0375
  719SOL    HW2 2157   2.638   2.706   0.074  2.7775 -1.2628 -1.1873
  720SOL     OW 2158   1.038   0.530   0.959  0.9334 -0.1764  0.2231
  720SOL    HW1 2159   1.034   0.609   1.021  2.2194  1.2779 -0.3808
  720SOL    HW2 2160   0.982   0.449   0.990 -0.7643  0.4151  1.6842
  721SOL     OW 2161   1.864   0.126   1.037 -0.3977 -0.1869 -0.0971
  721SOL    HW1 2162   1.960   0.119   0.993  1.1540 -0.3726 -2.0325
  721SOL    HW2 2163   1.865   0.208   1.097 -0.6911 -1.1881 -3.3522
  722SOL     OW 2164   0.824   2.075   1.901 -0.2898  0.6871  0.5559
  722SOL    HW1 2165   0.805   2.043   1.997 -2.5733 -0.1394  2.8330
  722SOL    HW2 2166   0.910   2.128   1.894  1.9357 -1.6437 -0.1549
  723SOL     OW 2167   1.146   0.075   1.298  0.7188 -0.2967 -0.5332
  723SOL    HW1 2168   1.189   0.010   1.234 -0.1668 -1.9233 -0.9854
  723SOL    HW2 2169   1.212   0.084   1.379  0.7561 -3.0054  0.9390
  724SOL     OW 2170   1.856   1.978   1.822 -0.3542 -0.3040 -0.2975
  724SOL    HW1 2171   1.817   1.994   1.730  1.8860  1.7399  5.1526
  724SOL    HW2 2172   1.928   1.901   1.826  2.4451 -1.3959 -0.4400
  725SOL     OW 2173   1.414   2.763   1.530 -0.2598  0.5816 -0.3242
  725SOL    HW1 2174   1.509   2.785   1.506 -1.8796 -1.0223  0.4389
  725SOL    HW2 2175   1.407   2.669   1.577  1.2094 -3.1988  2.3760
  726SOL     OW 2176   1.838   0.126   0.188  0.2861  0.1091 -0.2229
  726SOL    HW1 2177   1.936   0.155   0.166 -1.0632  0.3745 -1.6343
  726SOL    HW2 2178   1.794   0.201   0.247 -0.2035 -0.6025 -0.7680
  727SOL     OW 2179   1.393   1.988   0.599  0.5664  0.0213 -0.5852
  727SOL    HW1 2180   1.300   2.032   0.580 -2.4787  0.5223 -0.8054
  727SOL    HW2 2181   1.447   1.973   0.510  2.0843 -1.2501 -2.4217
  728SOL     OW 2182   1.811   2.828   2.597  0.3693 -0.4654  0.0615
  728SOL    HW1 2183   1.716   2.804   2.620  0.4977 -0.9351 -0.4733
  728SOL    HW2 2184   1.846   2.874   2.681  1.1195  2.2710 -1.5191
  729SOL     OW 2185   2.144   2.428   1.726 -0.1038 -0.0065  0.4747
  729SOL    HW1 2186   2.232   2.437   1.675 -0.1928  1.0791 -1.7697
  729SOL    HW2 2187   2.171   2.405   1.822 -0.8943 -2.3977  2.1642
  730SOL     OW 2188   1.752   0.453   2.336  0.2363 -0.1916 -0.0867
  730SOL    HW1 2189   1.772   0.503   2.421  1.2295  2.2859  1.4158
  730SOL    HW2 2190   1.770   0.352   2.345 -1.8567 -0.0366 -1.3519
  731SOL     OW 2191   0.560   0.018   1.220 -0.1355 -0.1237  0.4098
  731SOL    HW1 2192   0.515   3.040   1.273 -2.7101  0.6756 -1.9626
  731SOL    HW2 2193   0.611   0.081   1.283 -0.5777  1.7858 -1.8568
  732SOL     OW 2194   1.874   2.839   1.182  0.5773 -0.3173  0.2971
  732SOL    HW1 2195   1.807   2.766   1.205  2.5132  0.1692  0.9058
  732SOL    HW2 2196   1.827   2.930   1.171 -0.9103  2.7954 -1.1803
  733SOL     OW 2197   1.240   0.863   1.451 -0.1404  0.4861  0.0461
  733SOL    HW1 2198   1.148   0.883   1.414  3.2802 -0.2374  1.2448
  733SOL    HW2 2199   1.240   0.855   1.551 -1.1074  1.7949 -2.2480
  734SOL     OW 2200   2.751   2.190   0.427  0.0415 -0.2780  0.0736
  734SOL    HW1 2201   2.754   2.098   0.382 -1.0109  0.4794 -0.5438
  734SOL    HW2 2202   2.726   2.184   0.527 -1.3334  0.5096  1.5052
  735SOL     OW 2203   0.475   0.265   0.348  0.2288 -0.6431  0.6298
  735SOL    HW1 2204   0.405   0.307   0.284  1.1426  1.4595 -3.5158
  735SOL    HW2 2205   0.570   0.307   0.341  0.9698  0.8427 -2.5145
  736SOL     OW 2206   1.962   2.109   2.725  0.0210  0.0559  0.5227
  736SOL    HW1 2207   1.959   2.013   2.765 -0.8554 -2.5450  1.6916
  736SOL    HW2 2208   1.915   2.175   2.787 -0.8400 -0.3164 -0.5061
  737SOL     OW 2209   1.119   2.329   1.156  0.0382 -0.3543  0.3842
  737SOL    HW1 2210   1.136   2.425   1.174  0.3609 -2.2597 -0.7898
  737SOL    HW2 2211   1.162   2.299   1.069 -0.1426  0.1548  0.6409
  738SOL     OW 2212   1.490   2.779   2.148 -0.0565  0.4166  0.4381
  738SOL    HW1 2213   1.463   2.796   2.246  1.1750  0.5488 -0.5487
  738SOL    HW2 2214   1.592   2.761   2.150 -1.1798  1.1457  1.2713
  739SOL     OW 2215   1.065   2.189   1.910 -0.1031 -0.4293 -0.3422
  739SOL    HW1 2216   1.167   2.211   1.895 -0.8428 -0.0725  2.1308
  739SOL    HW2 2217   1.048   2.224   2.004  0.3067  0.4033 -2.5534
  740SOL     OW 2218   1.822   2.326   1.572 -0.0735  0.1364 -0.0048
  740SOL    HW1 2219   1.834   2.249   1.507 -2.9450 -0.9977  0.7542
  740SOL    HW2 2220   1.893   2.399   1.562  0.3560  3.1011  1.3528
  741SOL     OW 2221   2.237   1.729   0.019 -0.8363 -0.1342  0.5523
  741SOL    HW1 2222   2.153   1.722   0.076 -1.4918 -0.8534 -1.4227
  741SOL    HW2 2223   2.248   1.649   3.056 -1.6599  0.3722  2.4589
  742SOL     OW 2224   0.875   1.111   2.669  0.1409  0.3970  0.5111
  742SOL    HW1 2225   0.790   1.107   2.611  2.8096 -2.3583 -0.9614
  742SOL    HW2 2226   0.964   1.109   2.618  0.8672  0.1407 -0.0447
  743SOL     OW 2227   2.720   1.135   2.460 -0.3874 -0.5538 -0.2177
  743SOL    HW1 2228   2.763   1.054   2.415 -2.0642  1.1097  1.2170
  743SOL    HW2 2229   2.618   1.133   2.458 -1.1758 -2.0339  0.8693
  744SOL     OW 2230   2.279   2.428   1.966  0.3093  0.8052 -0.1523
  744SOL    HW1 2231   2.200   2.444   2.030 -0.1720  0.0724  1.1828
  744SOL    HW2 2232   2.330   2.516   1.951 -0.4744 -1.8008 -1.8105
  745SOL     OW 2233   2.405   1.792   1.607 -0.1110 -0.3071 -0.3966
  745SOL    HW1 2234   2.336   1.850   1.562 -0.4334 -1.0305 -1.8329
  745SOL    HW2 2235   2.356   1.710   1.640 -0.7050  0.4759  0.0906
  746SOL     OW 2236   2.691   1.339   0.936  0.7161  0.0591  0.3661
  746SOL    HW1 2237   2.671   1.334   0.840 -0.4587 -1.0613 -1.2478
  746SOL    HW2 2238   2.635   1.273   0.989  1.3193 -0.4649  0.4567
  747SOL     OW 2239   1.842   2.284   0.417  0.0252  0.3426  0.4570
  747SOL    HW1 2240   1.928   2.233   0.446  2.1035 -4.8454 -0.0867
  747SOL    HW2 2241   1.782   2.309   0.499 -3.2580  1.9625  0.7088
  748SOL     OW 2242   0.954   2.204   3.026 -0.2490  0.4441 -0.3842
  748SOL    HW1 2243   0.981   2.105   3.050 -1.2757  0.4526  0.8636
  748SOL    HW2 2244   0.875   2.205   2.962  0.6828 -0.0233 -0.5749
  749SOL     OW 2245   2.875   0.304   2.121 -0.7047 -0.0449 -0.0372
  749SOL    HW1 2246   2.809   0.380   2.095 -0.4518 -0.3638 -0.2991
  749SOL    HW2 2247   2.833   0.213   2.120  1.0422  2.3341  1.5372
  750SOL     OW 2248   1.471   0.214   1.466 -0.6001  0.5907 -0.1926
  750SOL    HW1 2249   1.533   0.263   1.529  0.8087  2.1777 -1.0888
  750SOL    HW2 2250   1.507   0.123   1.438  0.5031 -1.6005 -1.1250
  751SOL     OW 2251   2.036   2.383   2.432  0.2123  0.5842 -0.1248
  751SOL    HW1 2252   1.937   2.412   2.417 -0.9493  0.5988  0.4977
  751SOL    HW2 2253   2.091   2.448   2.483 -2.4992 -1.9638 -2.1163
  752SOL     OW 2254   1.765   1.965   0.831  0.1361 -0.2475  0.0920
  752SOL    HW1 2255   1.689   2.032   0.816  1.0237  0.2311 -0.4191
  752SOL    HW2 2256   1.734   1.873   0.801 -1.6786  1.2781 -0.6647
  753SOL     OW 2257   1.354   0.639   2.274  0.0598  0.1557 -0.4045
  753SOL    HW1 2258   1.389   0.664   2.368 -2.3025  0.0894  0.6802
  753SOL    HW2 2259   1.428   0.596   2.219 -1.7568 -1.2294  0.4952
  754SOL     OW 2260   0.251   2.885   0.848 -0.4658 -0.3283  0.3439
  754SOL    HW1 2261   0.236   2.984   0.859  3.8314 -2.8485 -0.6672
  754SOL    HW2 2262   0.195   2.831   0.915  2.0155  0.5366  2.4393
  755SOL     OW 2263   2.320   0.007   1.525 -0.0677  0.0659  0.1216
  755SOL    HW1 2264   2.307   3.013   1.490  1.6616  0.5541 -0.4578
  755SOL    HW2 2265   2.270   0.077   1.471 -2.5852  3.1089 -1.0820
  756SOL     OW 2266   1.701   0.789   2.457  0.0313  0.5901 -0.7469
  756SOL    HW1 2267   1.710   0.710   2.522 -1.5975 -0.7721 -0.6359
  756SOL    HW2 2268   1.616   0.851   2.476 -1.7251 -1.3220  2.0687
  757SOL     OW 2269   2.802   2.766   1.563 -0.4125  0.2172  0.4930
  757SOL    HW1 2270   2.830   2.858   1.606 -0.6059  2.6422  1.8729
  757SOL    HW2 2271   2.811   2.769   1.461 -0.3317 -1.8897 -4.3968
  758SOL     OW 2272   0.308   0.288   1.506  0.2275  0.1541 -0.2996
  758SOL    HW1 2273   0.243   0.340   1.568 -4.8942  3.3886 -1.1734
  758SOL    HW2 2274   0.335   0.197   1.547 -0.9320  0.1413  1.4665
  759SOL     OW 2275   2.276   1.293   0.660  0.0521  0.4978  0.0711
  759SOL    HW1 2276   2.342   1.272   0.735 -1.3343  0.9760  2.3909
  759SOL    HW2 2277   2.297   1.382   0.611  0.7630 -0.7708 -2.6557
  760SOL     OW 2278   1.938   0.236   1.696  0.1398  0.6450  0.4525
  760SOL    HW1 2279   1.851   0.276   1.664 -0.8045 -1.1071 -0.6456
  760SOL    HW2 2280   2.017   0.281   1.648  0.9096  3.6459 -0.2394
  761SOL     OW 2281   1.920   0.252   0.484  0.2452 -0.1396  0.1673
  761SOL    HW1 2282   2.011   0.266   0.445 -2.3385 -0.0171  1.0507
  761SOL    HW2 2283   1.845   0.282   0.422  0.4993 -1.4277  2.6734
  762SOL     OW 2284   2.221   2.596   3.078  0.5994 -0.1288  0.2342
  762SOL    HW1 2285   2.277   2.556   3.001 -0.8771 -1.8023  1.0525
  762SOL    HW2 2286   2.137   2.540   3.095 -0.7941 -1.7954  1.5786
  763SOL     OW 2287   0.967   0.840   1.066  0.2755 -0.1670  0.7882
  763SOL    HW1 2288   0.922   0.819   0.976 -1.8476 -0.6753 -1.1981
  763SOL    HW2 2289   1.056   0.881   1.049 -0.4691 -2.0966  1.8899
  764SOL     OW 2290   2.247   2.324   2.836  0.4075  0.2760  0.5648
  764SOL    HW1 2291   2.188   2.410   2.833  0.3386  0.7619 -2.2410
  764SOL    HW2 2292   2.263   2.296   2.744 -0.6506  4.0446  2.6186
  765SOL     OW 2293   0.340   0.825   2.144  0.0711 -0.5570  0.0845
  765SOL    HW1 2294   0.362   0.768   2.228  0.4996 -0.5771  0.6913
  765SOL    HW2 2295   0.350   0.776   2.055 -1.1255  1.2699  2.0678
  766SOL     OW 2296   2.869   1.472   2.558 -0.1722  0.0179  0.1751
  766SOL    HW1 2297   2.808   1.457   2.639 -0.5044  0.1415  3.1506
  766SOL    HW2 2298   2.818   1.464   2.465  0.3193 -0.7383 -2.0289
  767SOL     OW 2299   0.048   1.552   2.033 -0.1167 -0.5340 -0.4306
  767SOL    HW1 2300   0.116   1.476   2.053  3.0414 -2.3642  1.3848
  767SOL    HW2 2301   3.065   1.542   2.095  2.5373 -0.6151 -0.0406
  768SOL     OW 2302   0.976   0.911   3.072  0.0569 -0.3691 -0.2257
  768SOL    HW1 2303   0.999   0.821   0.017  3.3614  0.4497 -0.3589
  768SOL    HW2 2304   1.063   0.960   3.047  0.7736  2.5356 -0.0077
  769SOL     OW 2305   1.834   2.760   2.949 -0.1121  0.2794  0.5436
  769SOL    HW1 2306   1.821   2.848   2.902  1.4993 -2.4354  1.5095
  769SOL    HW2 2307   1.854   2.767   3.046  1.2677 -1.8586 -0.0827
  770SOL     OW 2308   0.379   0.123   2.259 -0.4632 -0.3808 -0.4806
  770SOL    HW1 2309   0.302   0.154   2.322  0.5774  1.5667  0.6710
  770SOL    HW2 2310   0.351   0.056   2.184 -1.6818 -1.4716 -0.3023
  771SOL     OW 2311   0.856   2.236   1.143  0.1153 -0.0856  0.1228
  771SOL    HW1 2312   0.953   2.260   1.160 -1.4872  0.1089 -0.7835
  771SOL    HW2 2313   0.824   2.261   1.050  2.1796 -1.2123 -0.0574
  772SOL     OW 2314   0.390   0.545   0.032  0.6835 -0.2168  0.3205
  772SOL    HW1 2315   0.352   0.531   3.035 -1.2503 -1.7279 -0.1984
  772SOL    HW2 2316   0.358   0.633   0.071 -0.5416  1.0251 -0.8624
  773SOL     OW 2317   2.169   0.885   1.881 -0.2263  0.4920  0.0654
  773SOL    HW1 2318   2.245   0.870   1.810  2.6856 -0.0918  0.7528
  773SOL    HW2 2319   2.080   0.850   1.844  0.2231  1.3735 -0.5686
  774SOL     OW 2320   1.093   1.006   0.435 -0.8011  0.2913 -0.1610
  774SOL    HW1 2321   1.060   0.942   0.507 -1.1186 -1.2229 -1.5812
  774SOL    HW2 2322   1.142   0.950   0.367 -1.0184  0.9607  0.7142
  775SOL     OW 2323   1.926   0.232   2.775 -0.0694  0.2865 -0.0796
  775SOL    HW1 2324   1.957   0.154   2.834 -1.6304 -2.0274  0.9169
  775SOL    HW2 2325   1.981   0.241   2.689 -1.3939 -2.0347  0.0406
  776SOL     OW 2326   2.454   0.061   2.659  0.2244 -0.0317 -0.2512
  776SOL    HW1 2327   2.519   3.090   2.701  1.5472  1.0409  2.6152
  776SOL    HW2 2328   2.356   0.029   2.663 -2.2700  0.9817 -0.6568
  777SOL     OW 2329   0.889   1.595   0.095 -0.2116 -0.1616 -0.0448
  777SOL    HW1 2330   0.832   1.523   0.047  0.7361  1.2254  0.9880
  777SOL    HW2 2331   0.839   1.681   0.102  0.5062  0.2004  0.5447
  778SOL     OW 2332   0.674   2.903   0.180 -0.5542 -0.4980  0.0681
  778SOL    HW1 2333   0.600   2.965   0.224 -0.0206  0.9088  1.3213
  778SOL    HW2 2334   0.741   2.869   0.251 -1.9855  0.2170 -0.9694
  779SOL     OW 2335   0.010   1.050   2.910 -0.0742  0.1324  0.2591
  779SOL    HW1 2336   0.048   1.078   3.001  4.4904 -1.7791 -1.6909
  779SOL    HW2 2337   0.019   0.947   2.895 -1.2926 -1.4589 -0.6669
  780SOL     OW 2338   2.285   0.516   2.533 -0.1009  0.0835  0.2766
  780SOL    HW1 2339   2.204   0.540   2.583  1.8534  0.9475 -0.6700
  780SOL    HW2 2340   2.339   0.442   2.583  0.7931  0.4845  1.2373
  781SOL     OW 2341   1.942   0.721   1.816 -0.0364  0.1081 -0.0777
  781SOL    HW1 2342   1.928   0.656   1.889  1.2279  1.2367 -1.0171
  781SOL    HW2 2343   1.938   0.669   1.726  1.5182  1.0573 -1.5698
  782SOL     OW 2344   1.682   1.722   2.337 -0.3616 -0.9619 -0.4793
  782SOL    HW1 2345   1.579   1.727   2.313 -0.9386 -2.7432 -0.2802
  782SOL    HW2 2346   1.743   1.740   2.255  0.4527 -0.8531  0.4380
  783SOL     OW 2347   1.233   2.972   1.106  0.1609  0.3796  0.5203
  783SOL    HW1 2348   1.228   2.896   1.174  1.9653 -0.4710 -0.1262
  783SOL    HW2 2349   1.164   2.961   1.033 -3.7673 -1.1801  2.0800
  784SOL     OW 2350   1.455   0.637   2.553  0.4627  0.4004 -0.7315
  784SOL    HW1 2351   1.490   0.537   2.557  2.8061 -5.2412  2.2846
  784SOL    HW2 2352   1.382   0.660   2.625 -3.6439 -0.6639  1.1169
  785SOL     OW 2353   2.058   0.585   2.659 -0.0332  0.5819  0.0631
  785SOL    HW1 2354   2.029   0.683   2.654 -1.1441 -2.3751 -1.3347
  785SOL    HW2 2355   1.972   0.528   2.648  0.1129 -2.1285 -1.8463
  786SOL     OW 2356   0.061   1.280   0.789  0.1867  0.1516  0.3090
  786SOL    HW1 2357   3.096   1.243   0.716 -3.4923 -1.9019 -2.1410
  786SOL    HW2 2358   0.148   1.307   0.745 -0.4135  2.6486 -1.1207
  787SOL     OW 2359   1.558   1.913   0.396 -0.4657  0.2185 -0.1554
  787SOL    HW1 2360   1.620   1.986   0.351  0.6950  0.6158  0.7430
  787SOL    HW2 2361   1.624   1.834   0.408  0.2513  1.5549  1.2600
  788SOL     OW 2362   2.080   1.711   1.529 -0.1344 -0.1867  0.1436
  788SOL    HW1 2363   2.016   1.685   1.450 -1.9202 -1.0706  0.0760
  788SOL    HW2 2364   2.140   1.786   1.498 -0.4412  1.2712  3.0247
  789SOL     OW 2365   0.090   1.185   2.482 -0.0812 -0.2012 -0.4275
  789SOL    HW1 2366   0.079   1.133   2.399 -2.4682 -0.1640  0.1634
  789SOL    HW2 2367   0.078   1.283   2.463  1.1775  0.5156  0.4916
  790SOL     OW 2368   0.734   3.018   2.969 -0.6789  0.3285 -0.1725
  790SOL    HW1 2369   0.636   3.024   2.986  0.5217  3.2556 -3.2477
  790SOL    HW2 2370   0.750   2.965   2.884 -1.3599  1.8890 -1.0194
  791SOL     OW 2371   0.677   0.027   2.139  0.2291  0.4734  0.2931
  791SOL    HW1 2372   0.652   0.046   2.240 -1.7366 -2.2593  2.1051
  791SOL    HW2 2373   0.759   3.062   2.141  1.7079 -0.2854 -0.1971
  792SOL     OW 2374   2.108   0.567   2.322  0.7595  0.3851 -0.6294
  792SOL    HW1 2375   2.041   0.643   2.327 -0.8403  0.5707 -1.2333
  792SOL    HW2 2376   2.156   0.548   2.411 -0.0186  1.0810  1.2438
  793SOL     OW 2377   2.565   0.604   1.426 -0.4224 -0.5591 -0.1910
  793SOL    HW1 2378   2.646   0.547   1.409 -4.3743  0.5581  1.5219
  793SOL    HW2 2379   2.514   0.550   1.500 -0.4173 -0.6226  2.1409
  794SOL     OW 2380   0.242   0.581   1.607  0.3748 -0.1753  0.1920
  794SOL    HW1 2381   0.199   0.672   1.625 -1.3319  1.3794  0.9719
  794SOL    HW2 2382   0.245   0.527   1.694  0.8480  0.8090  1.8281
  795SOL     OW 2383   3.010   1.442   0.472  0.3746  0.4068 -0.0064
  795SOL    HW1 2384   2.989   1.485   0.563 -0.1811 -0.2761  3.5036
  795SOL    HW2 2385   0.012   1.457   0.455  0.9451 -0.8970 -1.7989
  796SOL     OW 2386   0.335   2.671   0.108 -0.0164 -0.2151 -0.0307
  796SOL    HW1 2387   0.291   2.751   0.154  1.7182 -1.3179 -0.5870
  796SOL    HW2 2388   0.311   2.590   0.160  1.8666  1.6962 -4.1942
  797SOL     OW 2389   1.983   2.469   0.021 -0.1258  0.2836 -0.4841
  797SOL    HW1 2390   1.914   2.455   0.092 -2.5618 -0.1031 -0.2582
  797SOL    HW2 2391   1.932   2.474   3.031  1.4790  1.7591  1.0407
  798SOL     OW 2392   0.053   1.156   1.571 -0.4371  0.5456  0.0064
  798SOL    HW1 2393   0.151   1.138   1.565 -2.4694  2.4194 -0.7548
  798SOL    HW2 2394   0.024   1.193   1.481  0.3664  0.4080 -0.1862
  799SOL     OW 2395   3.014   0.777   2.809  0.1137 -0.0989  0.0834
  799SOL    HW1 2396   3.056   0.816   2.728  0.6413 -0.2361  2.5685
  799SOL    HW2 2397   3.029   0.675   2.813 -0.4096 -0.2851 -1.3177
  800SOL     OW 2398   2.850   1.999   0.848 -0.1000 -0.7483 -0.3358
  800SOL    HW1 2399   2.949   1.992   0.825  0.2997  0.6564 -0.7164
  800SOL    HW2 2400   2.835   2.056   0.934 -1.9944 -4.3429 -0.9994
  801SOL     OW 2401   1.610   1.077   1.068 -0.1795 -0.7149  0.8268
  801SOL    HW1 2402   1.627   1.175   1.032 -1.9236  0.3508 -1.1936
  801SOL    HW2 2403   1.631   1.075   1.164  1.2098 -2.1806  0.6357
  802SOL     OW 2404   1.239   1.994   1.502 -0.3028  0.5407 -0.3603
  802SOL    HW1 2405   1.320   1.978   1.447 -1.1681  1.8958  1.0946
  802SOL    HW2 2406   1.205   2.091   1.500 -1.8547 -0.6288  1.0490
  803SOL     OW 2407   0.214   1.937   0.396  0.4171  0.5565  0.0334
  803SOL    HW1 2408   0.271   1.997   0.455 -0.2379 -1.9223 -1.7579
  803SOL    HW2 2409   0.113   1.961   0.408  1.1199 -0.1008  1.9129
  804SOL     OW 2410   0.983   2.580   1.440  0.4241 -0.4935 -0.3878
  804SOL    HW1 2411   1.019   2.578   1.539  1.6644 -0.4269  1.2130
  804SOL    HW2 2412   0.895   2.523   1.427 -3.1846 -0.4538  1.6993
  805SOL     OW 2413   1.632   1.104   0.267 -0.4195 -0.2804 -0.4857
  805SOL    HW1 2414   1.542   1.073   0.232  1.7002  0.2682  3.9908
  805SOL    HW2 2415   1.700   1.115   0.190 -1.0080 -1.9342 -1.4839
  806SOL     OW 2416   1.461   0.023   0.929  0.2966 -0.2541  0.0726
  806SOL    HW1 2417   1.450   0.015   0.829 -0.0025 -2.3072 -0.7069
  806SOL    HW2 2418   1.382   3.077   0.971 -0.0015  0.1253 -2.3218
  807SOL     OW 2419   2.313   2.963   2.944  0.3815 -0.3630  0.3176
  807SOL    HW1 2420   2.354   3.055   2.964 -0.4473  0.7986  1.6605
  807SOL    HW2 2421   2.391   2.897   2.924  0.3004 -0.5485 -2.9672
  808SOL     OW 2422   0.038   1.042   0.159  0.2962 -0.1711  0.1268
  808SOL    HW1 2423   0.070   0.964   0.218 -0.5130  3.7693  0.1263
  808SOL    HW2 2424   0.103   1.121   0.163 -0.8859 -3.0388  2.3932
  809SOL     OW 2425   2.841   0.930   2.339 -0.0006 -0.1917 -0.1144
  809SOL    HW1 2426   2.787   0.858   2.389 -2.6683 -2.8788 -0.7417
  809SOL    HW2 2427   2.821   0.921   2.241 -0.3178  0.9375 -2.2679
  810SOL     OW 2428   2.046   2.912   2.013 -0.6641  0.7524 -0.5441
  810SOL    HW1 2429   2.049   2.845   1.939  2.5603 -2.2572  0.7989
  810SOL    HW2 2430   2.076   2.858   2.099  0.3251 -3.2938  3.5885
  811SOL     OW 2431   2.468   2.605   1.761 -0.4127 -0.4979 -0.4606
  811SOL    HW1 2432   2.451   2.708   1.768 -1.8585 -1.6711 -1.1962
  811SOL    HW2 2433   2.568   2.581   1.759  0.1939 -0.8810 -1.1070
  812SOL     OW 2434   1.668   0.255   2.834 -0.7442 -0.0988 -0.4261
  812SOL    HW1 2435   1.768   0.267   2.812 -0.2447  1.0170  2.3309
  812SOL    HW2 2436   1.624   0.176   2.786 -1.4183 -0.6069 -1.2890
  813SOL     OW 2437   1.989   0.041   2.144 -0.6633  0.0009  0.3554
  813SOL    HW1 2438   2.009   3.054   2.090  0.4031  0.6067 -0.2336
  813SOL    HW2 2439   1.970   0.122   2.081  0.2520  1.8579  2.2722
  814SOL     OW 2440   1.893   1.174   1.719  0.0019 -0.2479  0.4297
  814SOL    HW1 2441   1.942   1.156   1.805  2.6691 -0.4009  1.9131
  814SOL    HW2 2442   1.857   1.270   1.702 -1.3685  0.6299 -2.7747
  815SOL     OW 2443   0.519   0.747   0.509 -0.2648 -0.1357  0.4438
  815SOL    HW1 2444   0.539   0.704   0.417  2.6578 -2.5600  0.6528
  815SOL    HW2 2445   0.549   0.846   0.496 -1.6179  0.6325  1.4314
  816SOL     OW 2446   2.099   1.446   2.810 -0.3084  0.5496  0.7555
  816SOL    HW1 2447   2.053   1.439   2.721 -3.0952 -0.7690 -2.0619
  816SOL    HW2 2448   2.044   1.494   2.876  2.5520 -0.0259 -1.0764
  817SOL     OW 2449   0.022   2.959   0.610 -0.1508  0.0010 -0.0262
  817SOL    HW1 2450   0.111   2.920   0.573 -0.0714 -0.6370  0.6939
  817SOL    HW2 2451   3.035   2.913   0.570 -0.9636  0.7225  0.9053
  818SOL     OW 2452   2.079   0.231   2.534  0.1366  0.1112 -0.5580
  818SOL    HW1 2453   2.155   0.293   2.516  2.9472  2.4485  0.4093
  818SOL    HW2 2454   2.002   0.251   2.469  0.4140 -1.4859 -1.1126
  819SOL     OW 2455   1.246   0.838   0.296 -0.3908 -0.6475 -0.0368
  819SOL    HW1 2456   1.301   0.808   0.376  1.3072  2.1472  2.2257
  819SOL    HW2 2457   1.229   0.768   0.227  0.3959  0.7920 -0.8088
  820SOL     OW 2458   2.017   0.953   0.866  0.7234 -0.2521 -0.1270
  820SOL    HW1 2459   2.117   0.967   0.889  0.3310  0.6493 -1.1500
  820SOL    HW2 2460   1.982   1.046   0.855  0.4895 -1.6355  1.4537
  821SOL     OW 2461   2.345   0.042   0.571  0.1920  0.1787 -0.4201
  821SOL    HW1 2462   2.357   3.081   0.485 -1.1525 -0.5663 -0.4343
  821SOL    HW2 2463   2.252   0.029   0.615 -0.7578  0.4099  0.9985
  822SOL     OW 2464   0.493   2.689   2.609 -0.2964  0.2638 -0.6077
  822SOL    HW1 2465   0.575   2.657   2.667  1.4626 -2.2185 -0.8025
  822SOL    HW2 2466   0.415   2.619   2.617  2.1920 -2.1697 -0.9222
  823SOL     OW 2467   3.035   2.196   1.830  0.3294 -0.3378 -0.4057
  823SOL    HW1 2468   2.974   2.121   1.802  1.5557  2.1743  1.5582
  823SOL    HW2 2469   3.013   2.286   1.778  0.1858  1.4226 -2.4424
  824SOL     OW 2470   0.596   2.889   1.862  0.2307 -0.1017  0.1981
  824SOL    HW1 2471   0.697   2.895   1.861  1.7874  0.7804  0.0992
  824SOL    HW2 2472   0.564   2.841   1.779 -1.3403  3.5399 -1.1403
  825SOL     OW 2473   1.362   1.527   0.345 -0.9743 -0.2367 -0.0373
  825SOL    HW1 2474   1.287   1.481   0.288 -1.0730 -0.8181 -2.5310
  825SOL    HW2 2475   1.366   1.626   0.320 -0.6868 -0.2962 -1.5541
  826SOL     OW 2476   1.546   0.383   3.038  0.1821 -0.3258 -0.4924
  826SOL    HW1 2477   1.607   0.345   2.965 -1.6531  0.2671 -1.1604
  826SOL    HW2 2478   1.485   0.310   3.073 -0.6136 -2.3146 -0.6104
  827SOL     OW 2479   0.188   1.567   1.295 -0.2586 -0.2324  0.1216
  827SOL    HW1 2480   0.289   1.547   1.273 -0.4062 -0.1253  0.4618
  827SOL    HW2 2481   0.134   1.566   1.210  0.0277  0.7587  1.8670
  828SOL     OW 2482   2.284   1.080   1.591  0.4383  0.2906 -0.2538
  828SOL    HW1 2483   2.200   1.072   1.530 -2.1958 -1.0681 -0.7510
  828SOL    HW2 2484   2.306   0.979   1.616 -0.8020 -0.3065  1.2531
  829SOL     OW 2485   3.052   2.104   0.327 -0.1715 -0.1843 -0.5513
  829SOL    HW1 2486   3.006   2.012   0.319 -1.1569 -0.4885 -0.4873
  829SOL    HW2 2487   3.015   2.158   0.251 -0.7788  0.6749 -0.5197
  830SOL     OW 2488   1.070   0.827   0.647  0.3868  0.3469  0.1631
  830SOL    HW1 2489   1.168   0.824   0.681  2.2869 -0.9557  0.6758
  830SOL    HW2 2490   1.013   0.891   0.699  1.9617  0.2194 -0.7790
  831SOL     OW 2491   3.017   1.875   3.027 -0.2263  0.0453 -1.1250
  831SOL    HW1 2492   2.959   1.810   2.972 -2.9184  2.3464 -1.4687
  831SOL    HW2 2493   2.998   1.976   3.005  0.6892  0.4143  1.4961
  832SOL     OW 2494   1.107   2.740   0.183 -0.0477 -0.6391 -0.1439
  832SOL    HW1 2495   1.086   2.842   0.195  0.7339 -0.2295 -0.1613
  832SOL    HW2 2496   1.158   2.704   0.267  0.6924 -0.7355 -0.2097
  833SOL     OW 2497   0.996   0.373   2.128 -0.4794 -0.6228 -0.5161
  833SOL    HW1 2498   0.926   0.318   2.083  0.1476  1.9404 -0.7125
  833SOL    HW2 2499   1.014   0.460   2.077 -0.6502 -0.0222 -2.8129
  834SOL     OW 2500   0.160   0.883   0.900 -0.5494 -0.5647 -0.3293
  834SOL    HW1 2501   0.087   0.901   0.832 -0.2777 -0.5422  1.0304
  834SOL    HW2 2502   0.183   0.781   0.905  1.0638  1.0847  1.5941
  835SOL     OW 2503   2.454   0.244   1.945  0.5272  0.1485 -0.0654
  835SOL    HW1 2504   2.508   0.325   1.969  0.7121  1.8429  1.7828
  835SOL    HW2 2505   2.360   0.272   1.927  0.4548 -2.0902 -0.6711
  836SOL     OW 2506   0.523   2.289   0.540  0.5594 -0.0080  0.2201
  836SOL    HW1 2507   0.539   2.335   0.449 -0.7925  1.4054  0.3107
  836SOL    HW2 2508   0.608   2.255   0.585  0.4869 -4.7473  0.9785
  837SOL     OW 2509   2.071   1.680   2.239 -0.5790  0.1884  0.1188
  837SOL    HW1 2510   2.060   1.587   2.283 -1.2536  0.4567  0.1886
  837SOL    HW2 2511   2.153   1.730   2.273  0.5628 -2.7925 -0.5710
  838SOL     OW 2512   0.326   1.136   1.576  0.9339  0.1209  0.2384
  838SOL    HW1 2513   0.386   1.145   1.497 -1.2390 -0.8570  2.6505
  838SOL    HW2 2514   0.367   1.094   1.660  0.8208 -0.5007 -1.0972
  839SOL     OW 2515   0.270   0.315   0.841 -0.3427 -0.5877 -0.2572
  839SOL    HW1 2516   0.298   0.316   0.746  0.2990 -0.5727  3.6332
  839SOL    HW2 2517   0.351   0.315   0.904  1.2717 -1.8796 -0.8523
  840SOL     OW 2518   0.207   0.316   2.629  0.2122 -0.7453 -0.0635
  840SOL    HW1 2519   0.199   0.284   2.534  1.1885  1.6356 -0.9117
  840SOL    HW2 2520   0.169   0.414   2.628 -3.1497  1.5384 -2.7839
  841SOL     OW 2521   0.070   2.575   3.002 -0.2078  0.3551  0.2937
  841SOL    HW1 2522   0.129   2.649   2.967  0.3646 -1.9161 -2.1960
  841SOL    HW2 2523   0.117   2.504   3.061  0.6499 -2.6643  1.3594
  842SOL     OW 2524   0.674   3.033   0.993 -0.1121 -0.3240  0.1650
  842SOL    HW1 2525   0.728   0.003   0.936 -1.3548  1.1764 -1.5819
  842SOL    HW2 2526   0.643   3.076   1.081 -0.9537  0.7444  2.0723
  843SOL     OW 2527   0.139   1.558   2.729  0.3399  0.4794  0.4755
  843SOL    HW1 2528   0.221   1.546   2.788 -2.5936  1.0415 -1.5480
  843SOL    HW2 2529   0.053   1.544   2.778 -1.5118 -0.5679  0.9068
  844SOL     OW 2530   0.990   2.324   2.158  0.0180  0.2049  0.1711
  844SOL    HW1 2531   1.078   2.359   2.191 -0.2156 -0.8692  1.6848
  844SOL    HW2 2532   0.939   2.285   2.236 -1.9550  0.4461  0.8013
  845SOL     OW 2533   2.174   2.574   2.549 -0.5422  0.3135 -0.2043
  845SOL    HW1 2534   2.192   2.664   2.507  2.0051  1.3564  0.8865
  845SOL    HW2 2535   2.133   2.585   2.641  1.2238 -0.7392 -0.0968
  846SOL     OW 2536   1.799   1.269   2.636  0.2636 -0.3757  0.2043
  846SOL    HW1 2537   1.698   1.284   2.622  2.6337  0.9954  0.7781
  846SOL    HW2 2538   1.826   1.172   2.613 -1.3672  1.6448 -1.9500
  847SOL     OW 2539   2.840   0.253   2.968 -0.0317  0.1795 -0.2101
  847SOL    HW1 2540   2.810   0.322   2.902  0.6921 -0.7699  1.4915
  847SOL    HW2 2541   2.889   0.297   3.050  0.6384  0.9823 -1.4036
  848SOL     OW 2542   0.106   0.808   0.295  0.2649 -0.1068  0.1833
  848SOL    HW1 2543   0.028   0.746   0.305  1.0158  3.3234  1.8815
  848SOL    HW2 2544   0.135   0.839   0.389  1.7995 -0.8170 -0.4982
  849SOL     OW 2545   1.256   0.311   2.219  0.5037 -0.2850  0.7262
  849SOL    HW1 2546   1.157   0.327   2.189 -0.7721  0.9002  2.5909
  849SOL    HW2 2547   1.311   0.397   2.217  2.0245 -0.1599 -0.4137
  850SOL     OW 2548   0.464   1.040   0.196  0.2491  0.2321  0.0213
  850SOL    HW1 2549   0.531   1.109   0.170 -0.6735  0.6486  0.6706
  850SOL    HW2 2550   0.510   0.973   0.261  0.5560 -1.2490 -1.3513
  851SOL     OW 2551   0.646   1.263   0.231  0.1889  0.7610  0.2657
  851SOL    HW1 2552   0.610   1.303   0.317 -0.7907  0.8476  2.0833
  851SOL    HW2 2553   0.733   1.303   0.206 -0.9450 -1.8012 -1.6055
  852SOL     OW 2554   1.046   1.179   1.696  0.2212 -0.3679  0.0151
  852SOL    HW1 2555   1.012   1.184   1.596 -3.3565  0.5779 -3.2827
  852SOL    HW2 2556   1.032   1.265   1.747 -0.8267  1.0462  0.5355
  853SOL     OW 2557   2.682   1.380   0.650  0.2771  0.2260 -0.2995
  853SOL    HW1 2558   2.608   1.394   0.583  2.0086 -1.8331 -1.0748
  853SOL    HW2 2559   2.754   1.456   0.647 -0.2116  1.1279  1.1518
  854SOL     OW 2560   1.576   1.148   2.144 -0.1457 -0.1275  0.3946
  854SOL    HW1 2561   1.509   1.160   2.067  1.1964 -0.1248  0.6544
  854SOL    HW2 2562   1.648   1.222   2.141  3.0656 -0.8625  2.0230
  855SOL     OW 2563   0.247   2.554   2.679  0.5932 -0.5747  0.0592
  855SOL    HW1 2564   0.231   2.461   2.716  0.1216 -0.7744  3.1254
  855SOL    HW2 2565   0.192   2.617   2.736  1.5589 -1.4702 -0.5829
  856SOL     OW 2566   1.107   1.060   2.078  0.0870  0.1348 -0.3838
  856SOL    HW1 2567   1.055   1.008   2.005 -0.5068  3.2356  0.7234
  856SOL    HW2 2568   1.062   1.147   2.104 -0.1042  1.0504  1.2314
  857SOL     OW 2569   0.939   0.949   2.294  0.0725 -0.5030  0.3869
  857SOL    HW1 2570   0.996   0.954   2.208 -1.3748  0.4454 -0.8437
  857SOL    HW2 2571   0.849   0.985   2.272 -1.0446  2.3741 -0.7526
  858SOL     OW 2572   2.771   1.100   1.652 -0.8451 -0.0432 -0.5818
  858SOL    HW1 2573   2.847   1.156   1.684 -2.0009  0.8905 -0.1878
  858SOL    HW2 2574   2.776   1.095   1.550  1.4037 -1.2881 -0.0707
  859SOL     OW 2575   2.714   2.938   0.675 -0.2112  0.2168 -0.1578
  859SOL    HW1 2576   2.800   2.908   0.723 -1.2139  0.3876 -0.3402
  859SOL    HW2 2577   2.682   2.861   0.613 -0.7388 -0.3896 -3.2580
  860SOL     OW 2578   1.638   0.256   0.841  0.2168  0.3040 -0.0431
  860SOL    HW1 2579   1.575   0.184   0.807 -0.2781  1.2638 -1.5872
  860SOL    HW2 2580   1.704   0.218   0.913  1.2586 -1.9101  2.0077
  861SOL     OW 2581   1.515   0.635   1.152  0.2935  0.5780  0.3779
  861SOL    HW1 2582   1.415   0.647   1.164  0.7447  4.3778 -1.5574
  861SOL    HW2 2583   1.532   0.567   1.073 -0.6713 -3.8120 -1.5252
  862SOL     OW 2584   1.368   3.061   2.533  0.5684 -0.2214  0.2784
  862SOL    HW1 2585   1.339   3.000   2.455  0.5342  1.1875  1.3338
  862SOL    HW2 2586   1.381   0.064   2.511 -0.1593  1.4983 -1.0077
  863SOL     OW 2587   2.921   2.768   1.069  0.0953 -0.1585  0.9635
  863SOL    HW1 2588   2.932   2.870   1.083 -0.5094  1.0983 -0.5243
  863SOL    HW2 2589   2.884   2.752   0.973  1.6036  3.3984  2.7704
  864SOL     OW 2590   2.467   0.032   2.390 -0.3068 -0.0384  0.0141
  864SOL    HW1 2591   2.449   0.066   2.485  0.7897  2.7451 -2.5133
  864SOL    HW2 2592   2.386   0.041   2.322 -0.8789 -0.6352 -1.2007
  865SOL     OW 2593   1.096   1.376   2.489 -0.0150  0.3418 -0.3085
  865SOL    HW1 2594   1.011   1.372   2.437  1.6928 -2.1488  2.0101
  865SOL    HW2 2595   1.138   1.472   2.497  2.2073  2.2263 -2.3374
  866SOL     OW 2596   2.105   2.882   0.896 -0.2853  0.0160 -0.4367
  866SOL    HW1 2597   2.005   2.883   0.874  1.0841  0.3269 -3.0050
  866SOL    HW2 2598   2.151   2.792   0.895  2.2529  0.8786  2.4451
  867SOL     OW 2599   2.522   2.879   0.871  0.6084 -0.2354  0.1127
  867SOL    HW1 2600   2.589   2.921   0.806 -2.3101 -0.7060  4.4903
  867SOL    HW2 2601   2.481   2.790   0.850  1.6640  2.3696  0.6201
  868SOL     OW 2602   3.079   1.917   1.496  0.1225 -0.0326  0.0526
  868SOL    HW1 2603   3.071   1.817   1.509  1.0442  1.1657 -0.3994
  868SOL    HW2 2604   3.018   1.966   1.564 -1.4453  0.1171  0.8513
  869SOL     OW 2605   1.838   2.148   2.467 -0.3012  0.4924 -0.3258
  869SOL    HW1 2606   1.855   2.244   2.501 -0.5401  1.7384 -1.1162
  869SOL    HW2 2607   1.838   2.081   2.546 -0.7721 -3.5425  0.1074
  870SOL     OW 2608   1.193   1.181   0.833 -0.1210 -0.5994  0.1770
  870SOL    HW1 2609   1.266   1.113   0.850 -1.0029 -0.7679  0.1205
  870SOL    HW2 2610   1.229   1.272   0.802  0.4470  0.0728 -0.2250
  871SOL     OW 2611   2.764   1.729   2.120  0.0197  0.2955  0.2753
  871SOL    HW1 2612   2.806   1.803   2.177 -0.0940  0.8207 -0.0178
  871SOL    HW2 2613   2.809   1.641   2.131  0.6226  0.5306 -0.0738
  872SOL     OW 2614   1.099   1.532   2.825 -0.0593 -0.0101  0.2392
  872SOL    HW1 2615   1.116   1.522   2.927 -1.6837 -1.0426 -2.0376
  872SOL    HW2 2616   1.014   1.476   2.798 -1.2706 -2.4160 -1.2137
  873SOL     OW 2617   0.815   1.400   1.954 -0.4570  0.0010  0.3278
  873SOL    HW1 2618   0.767   1.360   1.875  0.9272  0.7535  2.0766
  873SOL    HW2 2619   0.898   1.443   1.915 -0.4783 -1.3413  2.0977
  874SOL     OW 2620   1.512   1.100   1.656 -0.0495 -0.1678  0.2916
  874SOL    HW1 2621   1.593   1.042   1.630 -0.2751  1.2472  2.2228
  874SOL    HW2 2622   1.551   1.195   1.667  0.7504  3.4601 -0.0403
  875SOL     OW 2623   2.928   0.391   0.071 -0.1255  0.3741  0.2725
  875SOL    HW1 2624   2.921   0.347   0.161  1.6980  1.1878 -3.1128
  875SOL    HW2 2625   2.909   0.493   0.078 -1.1898 -1.7862 -0.7253
  876SOL     OW 2626   0.931   1.244   0.142  0.5230 -0.4337 -0.2915
  876SOL    HW1 2627   0.985   1.252   0.236  3.2581 -3.1354  0.9510
  876SOL    HW2 2628   0.975   1.172   0.083  0.9944 -3.1358  0.0203
  877SOL     OW 2629   2.405   2.783   0.516 -0.7678 -0.3568  0.0119
  877SOL    HW1 2630   2.335   2.709   0.516 -2.3030  2.5583 -0.7101
  877SOL    HW2 2631   2.371   2.868   0.468  2.1523 -0.5981  0.6861
  878SOL     OW 2632   1.931   1.869   0.355  0.0980  0.5290  0.4162
  878SOL    HW1 2633   2.037   1.894   0.354  1.3197  0.2877  2.4162
  878SOL    HW2 2634   1.883   1.958   0.366 -1.4021  1.2382 -0.3468
  879SOL     OW 2635   0.118   1.821   1.962 -0.2639  0.5004  0.3460
  879SOL    HW1 2636   0.116   1.724   1.980 -0.4074  2.1209  1.7860
  879SOL    HW2 2637   0.026   1.858   1.942  0.7369 -1.1722  1.2000
  880SOL     OW 2638   0.310   2.079   0.864 -0.3584 -0.5186 -0.3381
  880SOL    HW1 2639   0.279   2.148   0.932 -0.7238 -0.4199 -2.8627
  880SOL    HW2 2640   0.295   1.983   0.892 -0.7627  2.4267  2.1403
  881SOL     OW 2641   1.334   0.298   1.891 -0.0683 -0.0163 -0.3329
  881SOL    HW1 2642   1.335   0.231   1.971 -0.1028 -1.8968  0.3445
  881SOL    HW2 2643   1.417   0.350   1.885 -3.2457  1.5992  1.7146
  882SOL     OW 2644   2.277   0.924   0.972 -0.2601  0.2654  0.2502
  882SOL    HW1 2645   2.288   0.824   0.982  1.2513 -0.3244  1.0466
  882SOL    HW2 2646   2.283   0.975   1.056  0.4190  1.9209 -3.5968
  883SOL     OW 2647   1.690   0.353   1.700  0.0160  0.1986  0.2936
  883SOL    HW1 2648   1.682   0.446   1.742 -0.0547  1.9141 -1.1782
  883SOL    HW2 2649   1.661   0.293   1.777  1.9574 -1.6564 -0.6205
  884SOL     OW 2650   2.792   3.048   1.963 -0.1132 -0.1799 -0.4232
  884SOL    HW1 2651   2.730   0.022   2.006 -2.5777 -0.6246 -0.9710
  884SOL    HW2 2652   2.887   3.070   1.989 -1.2004  0.4335 -1.9107
  885SOL     OW 2653   1.519   1.319   2.633 -0.6138 -0.0586 -0.2801
  885SOL    HW1 2654   1.556   1.410   2.600  3.1942 -2.0979 -1.3518
  885SOL    HW2 2655   1.415   1.327   2.648 -0.5272 -0.0452 -1.2065
  886SOL     OW 2656   2.157   0.547   2.902  0.3372  0.6256 -0.8876
  886SOL    HW1 2657   2.085   0.531   2.967 -2.3518 -1.4798 -3.8224
  886SOL    HW2 2658   2.133   0.527   2.806  2.3145 -2.9750  0.3918
  887SOL     OW 2659   1.062   2.858   1.654 -0.0639 -0.5044 -0.2154
  887SOL    HW1 2660   1.148   2.903   1.659 -2.8910 -0.6673  1.9654
  887SOL    HW2 2661   1.068   2.753   1.635  0.8430 -2.9046 -1.7248
  888SOL     OW 2662   1.827   1.800   2.126  0.7326  0.0578  0.4019
  888SOL    HW1 2663   1.808   1.763   2.032  2.0953  0.5953  1.0513
  888SOL    HW2 2664   1.921   1.773   2.160 -0.4541  1.6189  0.2000
  889SOL     OW 2665   1.860   2.460   1.270 -0.5225 -0.7486 -0.1138
  889SOL    HW1 2666   1.919   2.510   1.337 -1.6098 -0.7853  1.3196
  889SOL    HW2 2667   1.844   2.365   1.302 -1.0863  0.3105  3.5441
  890SOL     OW 2668   1.317   1.721   1.147 -0.0466 -0.0987  0.5147
  890SOL    HW1 2669   1.287   1.726   1.245 -1.3813 -1.2063 -1.4125
  890SOL    HW2 2670   1.237   1.743   1.093  5.7560  0.0114  1.7032
  891SOL     OW 2671   2.918   1.394   0.238 -0.2694  0.5864 -0.4542
  891SOL    HW1 2672   2.879   1.301   0.246  1.3687  1.1989  0.2158
  891SOL    HW2 2673   2.956   1.424   0.331  0.7670  1.3940 -0.0269
  892SOL     OW 2674   2.373   1.466   0.164  0.5356  0.2576 -0.2992
  892SOL    HW1 2675   2.415   1.428   0.080 -1.0981  1.1189 -0.0224
  892SOL    HW2 2676   2.424   1.550   0.181 -0.3500 -0.4548 -1.1237
  893SOL     OW 2677   1.980   2.542   1.530  0.2140 -0.1877  0.2498
  893SOL    HW1 2678   1.968   2.646   1.524  0.0164 -1.0526  1.4762
  893SOL    HW2 2679   2.046   2.510   1.602  0.7264 -1.9748  0.2311
  894SOL     OW 2680   2.664   2.733   0.453 -0.1551 -0.4747  0.1721
  894SOL    HW1 2681   2.680   2.693   0.361  1.5185 -1.7395  0.5389
  894SOL    HW2 2682   2.564   2.738   0.472  1.2905  0.6196 -0.2702
  895SOL     OW 2683   2.804   2.540   2.725  0.2244 -0.1949 -0.1090
  895SOL    HW1 2684   2.743   2.621   2.723  4.6810 -1.0569 -0.7011
  895SOL    HW2 2685   2.752   2.469   2.668 -1.0388 -1.7669 -0.2139
  896SOL     OW 2686   2.319   0.156   3.005 -0.0662  0.2683 -0.1778
  896SOL    HW1 2687   2.349   0.242   2.956  2.2742  1.7556 -2.1079
  896SOL    HW2 2688   2.264   0.178   3.088  1.9119  1.6280  1.9193
  897SOL     OW 2689   0.624   1.623   1.952 -0.0810 -0.0958 -0.2863
  897SOL    HW1 2690   0.716   1.621   1.995 -0.9260  0.9667  1.0155
  897SOL    HW2 2691   0.555   1.586   2.021 -1.0461 -0.1006  0.0202
  898SOL     OW 2692   2.650   1.785   1.708 -0.4540  0.6655 -0.1728
  898SOL    HW1 2693   2.633   1.812   1.808 -0.7013  1.5052 -1.3669
  898SOL    HW2 2694   2.559   1.776   1.665  0.9387  0.6570  0.6593
  899SOL     OW 2695   1.661   2.810   1.451  0.1851  0.0731  0.1379
  899SOL    HW1 2696   1.656   2.752   1.364 -2.7005 -1.1427 -0.7281
  899SOL    HW2 2697   1.754   2.812   1.486 -0.6757  0.2299 -1.4787
  900SOL     OW 2698   1.179   1.132   0.004  0.2401  0.5532 -0.5930
  900SOL    HW1 2699   1.199   1.131   3.003  2.8675  0.3483  1.7852
  900SOL    HW2 2700   1.253   1.090   0.064  0.2797 -0.8548  1.5514
  901SOL     OW 2701   1.108   1.074   2.473 -0.2602 -0.2149 -0.1590
  901SOL    HW1 2702   1.093   1.174   2.472 -1.5860 -0.0742 -1.3694
  901SOL    HW2 2703   1.054   1.033   2.397 -0.0725 -0.2875  2.3881
  902SOL     OW 2704   2.673   2.142   0.679  0.0999  0.4996 -0.1948
  902SOL    HW1 2705   2.581   2.157   0.727 -0.5538 -1.4439  1.5272
  902SOL    HW2 2706   2.743   2.108   0.745  1.6780 -1.1028 -1.6949
  903SOL     OW 2707   2.548   1.319   1.881 -0.2567  0.1665 -0.0500
  903SOL    HW1 2708   2.620   1.389   1.874 -0.7518 -0.9851 -1.5295
  903SOL    HW2 2709   2.585   1.230   1.847 -0.0244  2.1811  1.1675
  904SOL     OW 2710   2.224   1.060   0.494  0.5052  0.1274  0.5523
  904SOL    HW1 2711   2.186   1.078   0.402  2.1841 -3.5324  0.7572
  904SOL    HW2 2712   2.250   1.146   0.544 -0.6005 -1.3979 -2.5127
  905SOL     OW 2713   2.123   2.714   1.230  0.1383  0.0467  0.5764
  905SOL    HW1 2714   2.040   2.775   1.210 -1.4101 -1.4240  0.0777
  905SOL    HW2 2715   2.184   2.757   1.301  1.8216  0.9062 -2.1902
  906SOL     OW 2716   1.412   2.044   2.918  0.0069  0.0102  0.3096
  906SOL    HW1 2717   1.394   2.134   2.955  1.6452  0.0567 -0.1248
  906SOL    HW2 2718   1.484   2.051   2.845  0.3936 -0.4088 -0.0150
  907SOL     OW 2719   0.903   2.526   0.813  0.0503  0.2845  0.3941
  907SOL    HW1 2720   1.001   2.511   0.833  1.0356 -2.8319  1.1003
  907SOL    HW2 2721   0.886   2.538   0.712 -2.9046  1.5516  2.8022
  908SOL     OW 2722   0.902   2.934   2.139 -0.1777  0.5134 -0.3475
  908SOL    HW1 2723   0.908   2.836   2.112  0.8286  2.3247 -0.1847
  908SOL    HW2 2724   0.931   2.995   2.067 -3.0015  0.1918  1.2323
  909SOL     OW 2725   1.954   0.240   1.979 -0.6066 -0.0803 -0.0029
  909SOL    HW1 2726   1.919   0.230   1.879 -0.3670 -0.0480 -2.6108
  909SOL    HW2 2727   1.952   0.336   2.013 -0.4346  1.8828  0.5662
  910SOL     OW 2728   1.050   0.763   2.824 -0.3249 -0.0302 -0.3855
  910SOL    HW1 2729   1.003   0.807   2.741  0.9702  1.8602  0.1318
  910SOL    HW2 2730   0.983   0.739   2.898  0.7752 -0.6100  2.7218
  911SOL     OW 2731   0.047   0.558   0.004 -0.0704  0.0980 -0.1481
  911SOL    HW1 2732   0.029   0.656   0.009 -2.3363  0.3337 -0.7776
  911SOL    HW2 2733   0.035   0.520   0.099  1.0255 -0.7641 -0.0392
  912SOL     OW 2734   2.732   2.437   2.988 -0.6098  0.2273 -0.2202
  912SOL    HW1 2735   2.772   2.461   2.896  3.4661  0.0579 -1.5057
  912SOL    HW2 2736   2.794   2.464   3.065  0.0142  1.8299  0.5218
  913SOL     OW 2737   2.748   2.087   2.726 -0.2789  0.4122  0.0675
  913SOL    HW1 2738   2.659   2.132   2.704 -0.5497  2.8029 -1.7874
  913SOL    HW2 2739   2.813   2.105   2.649 -0.2018 -0.3455 -0.7954
  914SOL     OW 2740   1.797   1.721   1.613 -0.3282  0.2861 -0.3110
  914SOL    HW1 2741   1.777   1.818   1.589 -0.5284 -1.5893  0.5334
  914SOL    HW2 2742   1.885   1.688   1.572 -0.7854  0.7102 -0.7808
  915SOL     OW 2743   0.162   2.451   2.018  0.3486 -0.5376 -0.5172
  915SOL    HW1 2744   0.230   2.399   1.965 -1.5245  0.3926 -2.8303
  915SOL    HW2 2745   0.219   2.497   2.094 -0.2550 -0.1070 -0.6102
  916SOL     OW 2746   0.307   1.418   1.619 -0.1986 -0.0164 -0.0306
  916SOL    HW1 2747   0.265   1.505   1.579 -0.3791  0.5534  0.4640
  916SOL    HW2 2748   0.297   1.337   1.556 -3.7627 -0.7130  0.5123
  917SOL     OW 2749   2.618   0.164   0.020  0.0907 -0.1915 -0.2286
  917SOL    HW1 2750   2.524   0.185   3.075 -1.7383 -0.8982 -0.6611
  917SOL    HW2 2751   2.694   0.210   3.059  1.6124  1.8803 -1.3032
  918SOL     OW 2752   1.610   2.588   2.382  0.3757  0.2662  0.1854
  918SOL    HW1 2753   1.536   2.639   2.428  1.4731 -0.3601  0.0828
  918SOL    HW2 2754   1.660   2.648   2.315  1.8524  0.2275  0.3471
  919SOL     OW 2755   1.747   2.456   1.828  0.2702 -0.1940 -0.0620
  919SOL    HW1 2756   1.764   2.397   1.751 -1.5016  1.4381  1.6989
  919SOL    HW2 2757   1.794   2.418   1.906 -2.8204 -0.3237  0.2822
  920SOL     OW 2758   0.640   0.756   0.025 -0.1460 -0.0063  0.4584
  920SOL    HW1 2759   0.610   0.805   3.036 -0.6638  0.5795  0.7234
  920SOL    HW2 2760   0.655   0.826   0.098 -3.1618 -0.2835 -0.2955
  921SOL     OW 2761   0.036   0.967   2.319 -0.2588 -0.0192  0.0918
  921SOL    HW1 2762   3.035   0.974   2.354 -0.1377 -1.5657  0.9380
  921SOL    HW2 2763   0.038   0.916   2.229 -1.8088 -0.2683 -2.4080
  922SOL     OW 2764   0.302   1.999   0.133  0.1661  0.5635 -0.2296
  922SOL    HW1 2765   0.402   2.001   0.127 -2.7374 -2.4108 -0.7931
  922SOL    HW2 2766   0.270   1.958   0.223  0.5727 -2.5542  1.5211
  923SOL     OW 2767   0.483   1.036   1.772 -0.0528  0.2779  0.0040
  923SOL    HW1 2768   0.450   1.063   1.860  2.8616  0.4144  0.7958
  923SOL    HW2 2769   0.486   0.931   1.770 -0.1639 -0.7375  1.3170
  924SOL     OW 2770   1.211   2.811   2.812 -0.3795 -0.0181  0.1408
  924SOL    HW1 2771   1.250   2.883   2.747 -0.9558 -0.3201 -3.2194
  924SOL    HW2 2772   1.117   2.838   2.847 -1.5645 -2.1957  1.3156
  925SOL     OW 2773   2.354   1.268   1.384  0.4096 -0.5898 -0.0710
  925SOL    HW1 2774   2.315   1.303   1.297 -0.8425  1.4129 -0.9881
  925SOL    HW2 2775   2.295   1.265   1.466 -1.5631 -2.5461 -0.8474
  926SOL     OW 2776   2.231   0.365   2.171  0.2407 -0.4316  0.5084
  926SOL    HW1 2777   2.191   0.358   2.073 -2.1869 -0.5345 -1.5646
  926SOL    HW2 2778   2.193   0.449   2.213 -1.0211 -0.1885  1.7750
  927SOL     OW 2779   2.727   2.496   1.585  0.3370 -0.4140  0.4844
  927SOL    HW1 2780   2.764   2.590   1.581 -2.9773 -3.4288 -3.4403
  927SOL    HW2 2781   2.741   2.443   1.500  0.4071  1.5972 -1.5760
  928SOL     OW 2782   0.467   0.853   2.501 -0.4255 -1.1054 -0.6975
  928SOL    HW1 2783   0.390   0.895   2.556 -3.5016 -0.5414  1.5709
  928SOL    HW2 2784   0.540   0.917   2.457  1.8653  0.8004 -1.8435
  929SOL     OW 2785   2.579   0.094   0.676 -0.0340 -0.0958  0.1808
  929SOL    HW1 2786   2.636   0.014   0.674 -1.6229 -0.2155 -2.3637
  929SOL    HW2 2787   2.487   0.079   0.637 -0.0230 -0.0546  0.9222
  930SOL     OW 2788   2.641   0.219   1.615  0.3805  0.1544 -0.2253
  930SOL    HW1 2789   2.614   0.133   1.665 -0.5264  0.7438 -2.9796
  930SOL    HW2 2790   2.673   0.198   1.521 -2.1775  3.8610 -0.3529
  931SOL     OW 2791   2.387   1.191   0.242  0.5227 -0.2046 -0.2980
  931SOL    HW1 2792   2.381   1.286   0.212  0.5555 -0.0203 -0.4754
  931SOL    HW2 2793   2.481   1.163   0.261 -3.5636  3.8417  2.3759
  932SOL     OW 2794   2.290   1.546   1.661  0.4463  0.2992  0.1338
  932SOL    HW1 2795   2.328   1.461   1.704  2.0519 -2.8313  0.3230
  932SOL    HW2 2796   2.191   1.524   1.661 -0.1466 -1.2871  0.5106
  933SOL     OW 2797   3.060   2.316   1.112  0.2993 -0.0815  0.3110
  933SOL    HW1 2798   3.059   2.322   1.213  2.8704  1.0496 -0.7403
  933SOL    HW2 2799   0.049   2.264   1.092 -1.4333 -0.0515  1.1165
  934SOL     OW 2800   0.780   2.019   1.263 -0.0084  0.2391 -0.1620
  934SOL    HW1 2801   0.785   2.109   1.220  2.5251 -3.8844 -0.0064
  934SOL    HW2 2802   0.800   2.019   1.364 -1.3492  1.9002  1.5781
  935SOL     OW 2803   2.537   1.293   2.163 -0.1650 -0.1620  0.0688
  935SOL    HW1 2804   2.468   1.228   2.186  1.7597  1.1763 -0.2062
  935SOL    HW2 2805   2.567   1.277   2.066 -1.9449 -0.6738  1.3191
  936SOL     OW 2806   2.409   1.588   1.941  0.2524  0.0635 -0.2950
  936SOL    HW1 2807   2.479   1.658   1.946  0.0811  0.0158  2.3144
  936SOL    HW2 2808   2.457   1.500   1.949 -2.4705 -1.0254 -1.4516
  937SOL     OW 2809   2.001   1.104   1.957  0.2069  0.1466 -0.1722
  937SOL    HW1 2810   2.071   1.174   1.983  2.6983 -0.2912  0.2370
  937SOL    HW2 2811   2.044   1.020   1.922 -1.6756  2.0105  0.9914
  938SOL     OW 2812   0.920   2.300   2.722 -0.0742  0.7249 -0.0969
  938SOL    HW1 2813   0.878   2.232   2.787  0.7069 -1.3538  1.5508
  938SOL    HW2 2814   1.019   2.277   2.706  0.7378 -0.7819  0.5113
  939SOL     OW 2815   2.650   1.000   0.032 -0.1756  0.1759  0.4351
  939SOL    HW1 2816   2.691   0.997   3.032 -0.2629  1.1057 -2.3884
  939SOL    HW2 2817   2.646   0.903   0.067  0.9834 -0.4274 -1.8864
  940SOL     OW 2818   0.893   1.717   0.846 -0.2994 -0.8350 -0.1781
  940SOL    HW1 2819   0.895   1.662   0.760  1.5207 -0.6167 -1.7672
  940SOL    HW2 2820   0.825   1.687   0.919  0.8391 -2.6617  1.8496
  941SOL     OW 2821   0.798   2.517   2.086 -0.0894 -0.0612 -0.1108
  941SOL    HW1 2822   0.766   2.557   2.174 -0.5227 -3.4036 -0.7638
  941SOL    HW2 2823   0.859   2.433   2.098  2.7373  0.1783  0.8367
  942SOL     OW 2824   0.639   2.291   0.053 -0.4657  0.5557  0.1534
  942SOL    HW1 2825   0.600   2.379   0.025  1.3883 -0.8541 -0.1824
  942SOL    HW2 2826   0.735   2.306   0.088 -0.4170  3.2737  0.0522
  943SOL     OW 2827   1.810   2.749   1.825 -0.0288  0.5821 -0.8652
  943SOL    HW1 2828   1.753   2.669   1.793 -1.1015 -2.6981 -3.1869
  943SOL    HW2 2829   1.907   2.716   1.843  0.3538 -3.3207 -0.3433
  944SOL     OW 2830   1.128   1.513   0.009 -0.1568 -0.2404 -0.2929
  944SOL    HW1 2831   1.175   1.455   0.081 -2.4399 -0.4146  1.8799
  944SOL    HW2 2832   1.046   1.551   0.049  2.4762 -2.5276  1.9015
  945SOL     OW 2833   2.864   2.744   0.810 -0.0073  0.1700 -0.1542
  945SOL    HW1 2834   2.797   2.670   0.809  0.1826  3.3910 -3.3910
  945SOL    HW2 2835   2.935   2.730   0.734  0.1710  0.2773 -2.2047
  946SOL     OW 2836   1.197   1.636   2.557  0.3779  0.6811  0.1610
  946SOL    HW1 2837   1.286   1.685   2.548 -0.9734 -1.8481 -0.8538
  946SOL    HW2 2838   1.168   1.629   2.654 -1.0627 -1.3371 -0.4725
  947SOL     OW 2839   2.784   0.419   1.760  0.3251 -0.4689 -0.2942
  947SOL    HW1 2840   2.740   0.341   1.709  0.4903 -0.9964 -0.1165
  947SOL    HW2 2841   2.741   0.429   1.848 -3.6624  0.3876 -0.7701
  948SOL     OW 2842   0.184   1.852   0.959  0.9043  0.3934 -0.6446
  948SOL    HW1 2843   0.098   1.799   0.981  1.1379 -1.0607 -0.7232
  948SOL    HW2 2844   0.240   1.868   1.049  0.0337  0.0043 -1.1787
  949SOL     OW 2845   0.836   0.696   1.965 -0.2977  0.0870 -0.0693
  949SOL    HW1 2846   0.902   0.622   1.997 -0.1806 -2.9688  1.2346
  949SOL    HW2 2847   0.857   0.723   1.866  2.4921 -1.3834 -2.2715
  950SOL     OW 2848   0.138   0.950   1.327 -0.9797  0.7297  0.0769
  950SOL    HW1 2849   0.098   1.041   1.308 -1.3093 -0.9460  0.8981
  950SOL    HW2 2850   0.076   0.883   1.283  0.6094 -0.2414 -1.9844
  951SOL     OW 2851   0.739   1.574   2.276 -0.5210  0.3388 -0.4352
  951SOL    HW1 2852   0.701   1.625   2.355  1.1671  0.9411  0.6573
  951SOL    HW2 2853   0.816   1.625   2.231  0.2614  0.2583  0.0470
  952SOL     OW 2854   1.493   2.062   0.864  0.0473 -0.4556 -0.2489
  952SOL    HW1 2855   1.440   2.008   0.794  0.9392 -3.4391 -0.8644
  952SOL    HW2 2856   1.478   2.024   0.959  1.8881  0.5271  0.5087
  953SOL     OW 2857   1.095   0.684   0.092 -0.3405  0.2406  0.3403
  953SOL    HW1 2858   1.036   0.618   0.142 -0.0309  1.6620  0.2723
  953SOL    HW2 2859   1.133   0.633   0.013  1.6474 -0.9037  3.2293
  954SOL     OW 2860   1.953   0.914   1.167  0.8849  0.7885 -0.2010
  954SOL    HW1 2861   1.974   0.950   1.080 -0.4001 -1.6319  0.6778
  954SOL    HW2 2862   1.857   0.871   1.161  0.1437 -1.7041  3.9512
  955SOL     OW 2863   2.494   1.461   0.498 -0.8401  0.4340 -0.3728
  955SOL    HW1 2864   2.400   1.503   0.505  0.0412  4.5895 -0.5440
  955SOL    HW2 2865   2.493   1.405   0.415  3.4073 -0.0544 -1.8700
  956SOL     OW 2866   0.700   0.372   1.730 -0.3184  0.6957  0.3240
  956SOL    HW1 2867   0.691   0.314   1.815 -0.1414 -1.3832  0.2513
  956SOL    HW2 2868   0.791   0.360   1.687  0.7508 -1.5723  0.5236
  957SOL     OW 2869   1.896   0.313   1.244  0.3888 -0.3370 -0.0906
  957SOL    HW1 2870   1.822   0.371   1.288 -1.1529 -1.0889  1.0242
  957SOL    HW2 2871   1.895   0.222   1.292 -0.1808  0.6025 -1.5955
  958SOL     OW 2872   0.167   2.257   0.338  0.3657  0.3607  0.7296
  958SOL    HW1 2873   0.089   2.189   0.333 -0.4424  0.0057  2.4772
  958SOL    HW2 2874   0.213   2.230   0.424  2.0959 -1.5212 -0.0092
  959SOL     OW 2875   2.193   1.272   2.018 -0.2968  0.5200 -0.0460
  959SOL    HW1 2876   2.195   1.356   2.074 -0.7158  0.1518  2.9095
  959SOL    HW2 2877   2.233   1.282   1.922 -1.1171  1.4983  0.2657
  960SOL     OW 2878   0.131   1.843   2.862 -0.3614  0.4642 -0.0601
  960SOL    HW1 2879   0.211   1.798   2.908 -0.1033  2.5141  0.7545
  960SOL    HW2 2880   0.053   1.842   2.922 -0.2997 -0.7656 -2.7012
  961SOL     OW 2881   0.446   1.484   1.256  0.6927 -0.4566  0.4161
  961SOL    HW1 2882   0.520   1.431   1.211  0.2763 -1.3789  0.5880
  961SOL    HW2 2883   0.474   1.541   1.342  1.4974 -0.1957  0.8950
  962SOL     OW 2884   0.848   1.407   0.799 -0.6147  0.5128  0.1748
  962SOL    HW1 2885   0.896   1.366   0.880  0.9988  1.7746  0.0008
  962SOL    HW2 2886   0.905   1.430   0.722  0.2522 -1.3509 -0.4478
  963SOL     OW 2887   1.060   2.023   2.482  0.2538 -0.5585 -0.4783
  963SOL    HW1 2888   1.045   1.932   2.428  2.1558 -2.7569  1.0402
  963SOL    HW2 2889   1.115   1.999   2.562  2.6591 -0.0286 -1.3140
  964SOL     OW 2890   0.152   2.758   1.881  0.0087 -0.0373 -0.1340
  964SOL    HW1 2891   0.121   2.804   1.797 -0.3306 -1.0531 -0.2936
  964SOL    HW2 2892   0.071   2.725   1.925  2.0147 -0.5078  0.4626
  965SOL     OW 2893   0.494   2.328   2.855  0.1831 -0.2955  0.3594
  965SOL    HW1 2894   0.394   2.316   2.839 -1.4895  0.0195  1.4220
  965SOL    HW2 2895   0.517   2.419   2.896  0.4709  2.2632  0.8566
  966SOL     OW 2896   0.036   1.485   0.060  0.4493  0.0344 -0.2228
  966SOL    HW1 2897   3.066   1.438   0.125 -0.5328  0.6705 -0.7870
  966SOL    HW2 2898   3.089   1.474   3.064 -0.1894  0.7306 -3.5508
  967SOL     OW 2899   2.048   2.985   0.116 -0.2088  0.3288 -0.3477
  967SOL    HW1 2900   2.140   2.936   0.110  2.0521 -2.9328 -0.2492
  967SOL    HW2 2901   2.000   2.941   0.192 -3.8229  0.0606  1.8293
  968SOL     OW 2902   2.311   3.046   0.900 -0.4076 -0.0502  0.1381
  968SOL    HW1 2903   2.230   2.983   0.905  0.7609  0.9757 -3.5476
  968SOL    HW2 2904   2.393   2.986   0.876 -0.1625 -0.2691 -0.8877
  969SOL     OW 2905   0.417   1.075   2.028 -0.0122  0.0366 -0.5923
  969SOL    HW1 2906   0.355   1.151   2.046  1.6283  0.3920  0.5317
  969SOL    HW2 2907   0.392   0.994   2.090 -1.4512 -5.2525  1.5328
  970SOL     OW 2908   1.669   1.514   0.275 -0.1863 -0.1704 -0.1265
  970SOL    HW1 2909   1.681   1.592   0.345  0.7818  1.6456 -0.7947
  970SOL    HW2 2910   1.570   1.496   0.271  1.2320  0.8895 -0.4269
  971SOL     OW 2911   2.549   2.833   1.469 -0.4224 -0.2007 -0.2915
  971SOL    HW1 2912   2.616   2.761   1.499 -0.0087  0.6146 -1.3331
  971SOL    HW2 2913   2.575   2.925   1.502 -0.6096  1.2022  0.5484
  972SOL     OW 2914   2.708   0.175   1.370  0.2802  0.3970 -0.0696
  972SOL    HW1 2915   2.642   0.115   1.318  2.4683 -1.5585 -1.9243
  972SOL    HW2 2916   2.694   0.271   1.342 -0.2673  0.0805 -0.5361
  973SOL     OW 2917   0.371   0.485   2.853 -0.6742  0.5958 -0.1437
  973SOL    HW1 2918   0.413   0.571   2.811 -0.5498 -0.3175 -0.8279
  973SOL    HW2 2919   0.285   0.472   2.808  3.3306  2.2054  0.8842
  974SOL     OW 2920   2.589   1.066   1.833  0.0712 -0.1872  0.5373
  974SOL    HW1 2921   2.640   1.068   1.744 -1.3214  0.0104  0.0028
  974SOL    HW2 2922   2.575   0.970   1.859  1.2072  2.1449  1.3293
  975SOL     OW 2923   0.944   0.349   1.621  0.0451 -0.2922 -0.5835
  975SOL    HW1 2924   0.943   0.320   1.524  3.0113 -2.3124  0.4223
  975SOL    HW2 2925   0.992   0.286   1.684 -2.7506  1.7429 -0.8948
  976SOL     OW 2926   1.210   1.734   1.395  0.0628  0.5747  0.1258
  976SOL    HW1 2927   1.258   1.807   1.447 -0.7528  0.3042 -1.8810
  976SOL    HW2 2928   1.107   1.743   1.403 -0.9061 -0.0001  1.6504
  977SOL     OW 2929   1.012   2.993   0.230 -0.8498 -0.2395  0.9039
  977SOL    HW1 2930   0.944   2.926   0.269 -1.7060 -1.2851  3.4652
  977SOL    HW2 2931   0.971   3.066   0.166 -2.1400  0.6085 -0.2407
  978SOL     OW 2932   2.297   1.090   2.190 -0.1112  0.1192  0.0295
  978SOL    HW1 2933   2.253   0.999   2.196 -0.0304  2.4831 -0.8470
  978SOL    HW2 2934   2.255   1.155   2.124 -1.9506  2.4121 -1.7926
  979SOL     OW 2935   1.587   0.606   1.710  0.2279 -0.4398  0.3107
  979SOL    HW1 2936   1.574   0.705   1.739 -0.6832 -2.6840 -1.2709
  979SOL    HW2 2937   1.506   0.577   1.658  0.7793 -0.3653 -0.1257
  980SOL     OW 2938   1.652   1.528   2.088 -0.0039 -0.0799 -0.1337
  980SOL    HW1 2939   1.710   1.588   2.024 -1.5467 -0.6700 -1.4141
  980SOL    HW2 2940   1.588   1.589   2.140  2.0518 -0.9127 -1.7975
  981SOL     OW 2941   2.016   0.585   1.577  0.3854 -0.2653 -0.0977
  981SOL    HW1 2942   1.962   0.665   1.536  1.0156  1.2388  0.0560
  981SOL    HW2 2943   2.112   0.605   1.559 -1.7214  2.4736  1.8079
  982SOL     OW 2944   0.798   0.152   2.785  0.4141 -0.5680  0.5768
  982SOL    HW1 2945   0.706   0.162   2.744  2.8368 -1.1760  2.8147
  982SOL    HW2 2946   0.797   0.186   2.879 -2.2604  2.0132 -1.5407
  983SOL     OW 2947   2.293   0.769   3.001 -0.5872  0.4406 -0.1291
  983SOL    HW1 2948   2.263   0.698   2.930  1.2961  0.8439 -0.2603
  983SOL    HW2 2949   2.221   0.787   3.067  0.3915 -0.3079 -0.6996
  984SOL     OW 2950   0.706   0.234   1.976 -0.0420  0.1233  0.3660
  984SOL    HW1 2951   0.703   0.135   2.003 -1.8868 -0.4016  0.1366
  984SOL    HW2 2952   0.682   0.290   2.059 -0.6402 -0.1853  0.8325
  985SOL     OW 2953   1.693   2.033   2.054  0.0799  0.3090  0.1818
  985SOL    HW1 2954   1.741   2.037   1.963 -0.7947  0.7919  0.5129
  985SOL    HW2 2955   1.721   1.947   2.106 -2.2452 -1.8984  2.9946
  986SOL     OW 2956   2.437   2.857   1.831 -0.2116 -0.3055  0.7419
  986SOL    HW1 2957   2.473   2.823   1.914  0.2779  0.4119  1.1903
  986SOL    HW2 2958   2.456   2.963   1.831  1.3811  1.1009 -1.5885
  987SOL     OW 2959   2.021   1.358   1.332 -0.2204  0.4041  0.4594
  987SOL    HW1 2960   2.085   1.407   1.269 -1.7200 -0.7910 -3.3363
  987SOL    HW2 2961   1.925   1.361   1.293  1.0540  0.5332 -1.9646
  988SOL     OW 2962   2.583   1.839   1.975 -0.0551  0.1236  0.9245
  988SOL    HW1 2963   2.505   1.867   2.037 -0.5637  0.8215 -1.4286
  988SOL    HW2 2964   2.656   1.798   2.031  1.1530 -1.1140  0.3301
  989SOL     OW 2965   1.178   2.392   0.095  0.4647 -0.3759  0.4935
  989SOL    HW1 2966   1.191   2.479   0.143  2.3108 -0.6393 -0.5023
  989SOL    HW2 2967   1.090   2.347   0.125 -1.0612  0.6669  1.9089
  990SOL     OW 2968   2.007   0.962   2.954  0.2147 -0.6785  0.5829
  990SOL    HW1 2969   2.033   0.906   3.033 -0.3473  0.8787 -3.0897
  990SOL    HW2 2970   2.065   1.046   2.942  0.2146  0.4919  4.0679
  991SOL     OW 2971   1.064   0.558   0.707  0.0110  0.4030 -0.0367
  991SOL    HW1 2972   1.044   0.654   0.684  0.9142  1.2120  3.5873
  991SOL    HW2 2973   1.045   0.546   0.807 -1.8024  0.0035 -0.6829
  992SOL     OW 2974   2.223   1.042   1.195 -0.4431 -0.3636 -0.9780
  992SOL    HW1 2975   2.297   1.007   1.261  2.3837  0.2094 -0.8736
  992SOL    HW2 2976   2.149   1.055   1.259  1.4627  1.1516 -1.7146
  993SOL     OW 2977   2.241   0.646   1.965 -0.4030  0.0251 -0.1332
  993SOL    HW1 2978   2.198   0.736   1.936 -0.9979 -0.6551 -0.0118
  993SOL    HW2 2979   2.256   0.650   2.065 -0.3111 -0.7376  1.4462
  994SOL     OW 2980   0.636   1.736   2.474  0.1775 -0.0668 -0.6316
  994SOL    HW1 2981   0.665   1.831   2.486 -0.3127  1.3246 -0.6696
  994SOL    HW2 2982   0.540   1.739   2.438  1.0003  1.1478  1.6032
  995SOL     OW 2983   2.157   1.205   2.967 -0.3647 -0.3661  0.8210
  995SOL    HW1 2984   2.155   1.288   2.905 -1.4924  1.8488  0.3226
  995SOL    HW2 2985   2.255   1.167   2.978  1.9805 -0.9884 -0.3260
  996SOL     OW 2986   2.437   1.797   0.419  0.6628 -0.0682 -0.3726
  996SOL    HW1 2987   2.409   1.703   0.445 -1.1658 -0.5931  1.7080
  996SOL    HW2 2988   2.522   1.824   0.463  1.8259  0.2974  0.1727
  997SOL     OW 2989   2.393   0.618   2.191 -0.8302  0.0900  0.6145
  997SOL    HW1 2990   2.374   0.518   2.180 -0.6074 -2.7069 -1.5286
  997SOL    HW2 2991   2.491   0.626   2.209 -0.5939  1.8626 -0.0091
  998SOL     OW 2992   2.736   1.122   0.646 -0.0012 -0.0095  0.1027
  998SOL    HW1 2993   2.710   1.217   0.676 -0.2717 -4.2050  2.0583
  998SOL    HW2 2994   2.696   1.054   0.707 -0.4643  2.0451  1.7562
  999SOL     OW 2995   2.949   1.796   0.605 -0.2488 -0.4124  0.0607
  999SOL    HW1 2996   2.975   1.817   0.507 -0.0478 -2.7752 -0.5271
  999SOL    HW2 2997   3.005   1.860   0.662 -0.6408  0.8453 -0.1495
 1000SOL     OW 2998   0.801   0.608   2.306  0.0866 -0.4921 -0.0761
 1000SOL    HW1 2999   0.735   0.675   2.266  1.6838  0.1471 -3.5287
 1000SOL    HW2 3000   0.895   0.649   2.322  1.8796  1.4075 -0.6735
   3.09583   3.09583   3.09583
