1000 SPC/Fw water molecules t= 216.00000 step= 216000
 3000
    1SOL     OW    1   2.919   2.717   0.844 -0.4100  0.1657  0.1929
    1SOL    HW1    2   2.981   2.668   0.911  2.5451 -0.4578  2.5023
    1SOL    HW2    3   2.947   2.811   0.823 -2.0732 -2.0460  0.1202
    2SOL     OW    4   1.894   1.592   1.905 -0.1077 -0.1017 -0.0344
    2SOL    HW1    5   1.962   1.665   1.883 -0.6369 -3.7557 -1.6886
    2SOL    HW2    6   1.884   1.570   2.004 -2.5181  0.1991 -0.8886
    3SOL     OW    7   1.721   2.312   2.159 -0.3116  0.0990  0.0472
    3SOL    HW1    8   1.727   2.400   2.208  0.3047 -2.4218 -0.8834
    3SOL    HW2    9   1.736   2.231   2.225  1.1269  2.2016 -0.1396
    4SOL     OW   10   2.084   1.898   2.386  0.1655 -0.1197  0.0558
    4SOL    HW1   11   2.160   1.873   2.455 -2.6946  0.7821 -0.9273
    4SOL    HW2   12   1.987   1.872   2.417  1.5101  3.2820  0.5932
    5SOL     OW   13   1.311   0.701   1.658 -0.0726  0.5167 -0.4487
    5SOL    HW1   14   1.321   0.668   1.563 -2.6759  1.2737 -3.1336
    5SOL    HW2   15   1.234   0.646   1.698  0.3892  1.8149 -2.7403
    6SOL     OW   16   2.690   0.510   2.820  0.1229  0.0662 -0.0641
    6SOL    HW1   17   2.700   0.460   2.905  0.4836  0.9892 -2.0811
    6SOL    HW2   18   2.662   0.453   2.744  1.2910  0.5421  2.5824
    7SOL     OW   19   0.577   1.585   1.322 -0.1736 -0.0485 -0.5818
    7SOL    HW1   20   0.592   1.480   1.318  0.9666 -2.7284 -0.6910
    7SOL    HW2   21   0.630   1.629   1.249  2.8453  2.9353 -0.0665
    8SOL     OW   22   1.142   0.510   0.764 -0.0113 -0.2697 -0.1571
    8SOL    HW1   23   1.218   0.497   0.833  2.4527  0.0491  1.1738
    8SOL    HW2   24   1.074   0.583   0.786 -1.0980  0.5156 -1.8567
    9SOL     OW   25   1.132   0.637   2.641 -0.0143  0.4344  0.6720
    9SOL    HW1   26   1.050   0.690   2.630 -1.1494  1.2826  2.5378
    9SOL    HW2   27   1.156   0.582   2.559 -1.2024  1.6346  0.1693
   10SOL     OW   28   0.776   2.547   0.236  0.2019 -0.7117  0.3701
   10SOL    HW1   29   0.868   2.503   0.221  0.3677 -1.0381  1.4302
   10SOL    HW2   30   0.762   2.625   0.173  0.2665 -2.0024  0.3739
   11SOL     OW   31   0.659   1.282   3.029 -0.3624  0.0610  0.1730
   11SOL    HW1   32   0.602   1.202   3.051  0.1980  0.5408 -1.9841
   11SOL    HW2   33   0.728   1.307   0.008 -1.2680  0.5790 -0.7254
   12SOL     OW   34   0.245   0.336   1.600 -0.4439  0.1459 -0.2613
   12SOL    HW1   35   0.269   0.298   1.508  0.6189  0.5333 -0.4592
   12SOL    HW2   36   0.311   0.297   1.669  0.7268 -0.6197 -2.6489
   13SOL     OW   37   1.034   0.014   0.198  0.1415  0.1107  0.4371
   13SOL    HW1   38   1.077   0.101   0.155  3.3308  1.5816 -3.9064
   13SOL    HW2   39   1.073   0.002   0.288 -1.4935  0.9373 -1.6001
   14SOL     OW   40   1.256   2.273   1.413 -0.1606  0.1086 -0.7135
   14SOL    HW1   41   1.198   2.220   1.349  2.3223  2.7089  0.8140
   14SOL    HW2   42   1.353   2.248   1.403 -2.8550  2.2604 -1.2840
   15SOL     OW   43   2.646   1.228   1.795  0.1872  0.1511 -0.1879
   15SOL    HW1   44   2.615   1.185   1.710  0.8216  1.1488  1.6603
   15SOL    HW2   45   2.748   1.229   1.799 -0.1760 -1.0144 -0.6697
   16SOL     OW   46   1.607   0.034   2.952 -0.4828 -0.6910 -0.1819
   16SOL    HW1   47   1.576   0.061   3.042  2.4435 -1.2648 -1.4703
   16SOL    HW2   48   1.712   0.034   2.938 -0.3902 -0.5795 -0.8577
   17SOL     OW   49   0.801   0.279   1.490 -0.1588  0.1605 -0.2423
   17SOL    HW1   50   0.768   0.194   1.450  0.3632  3.3263  0.2548
   17SOL    HW2   51   0.740   0.355   1.474  0.6246 -0.7262  1.0363
   18SOL     OW   52   1.281   0.610   0.198 -0.6095  0.1612  0.4622
   18SOL    HW1   53   1.198   0.604   0.251 -1.4247  0.4502 -0.6293
   18SOL    HW2   54   1.322   0.702   0.192 -1.8595  0.8220 -0.4038
   19SOL     OW   55   2.184   1.759   2.760 -0.0253  0.5374 -0.1312
   19SOL    HW1   56   2.168   1.858   2.783  0.5148 -1.7933 -1.0510
   19SOL    HW2   57   2.137   1.702   2.828 -0.9412  3.2739  0.6279
   20SOL     OW   58   2.067   1.597   1.600  0.2514 -0.1472 -0.3537
   20SOL    HW1   59   2.058   1.699   1.579 -0.8172  2.8982  1.4130
   20SOL    HW2   60   1.987   1.546   1.569  2.3782  0.9320  1.9828
   21SOL     OW   61   0.927   1.093   2.936  0.1460 -0.0649 -0.0744
   21SOL    HW1   62   1.004   1.161   2.958 -0.3687 -0.9500  0.4273
   21SOL    HW2   63   0.844   1.146   2.911 -0.3824 -2.2968 -1.0205
   22SOL     OW   64   2.027   3.041   1.313 -0.4875  0.0419 -0.3768
   22SOL    HW1   65   1.938   3.063   1.365 -3.4040  0.4814 -2.8391
   22SOL    HW2   66   2.002   2.974   1.237 -1.7391  0.5444  1.1128
   23SOL     OW   67   2.874   0.720   1.702  0.0936  0.2897  0.1017
   23SOL    HW1   68   2.954   0.778   1.724 -0.9021  2.9136  0.2530
   23SOL    HW2   69   2.854   0.712   1.604 -0.3133 -1.0279 -0.2609
   24SOL     OW   70   2.437   2.480   1.162  0.0502  1.1084  0.0804
   24SOL    HW1   71   2.405   2.472   1.063 -0.4050 -3.7446 -1.7801
   24SOL    HW2   72   2.516   2.543   1.165 -0.6128  2.8347  0.9293
   25SOL     OW   73   1.802   2.808   2.530 -0.3204 -0.8042 -0.0127
   25SOL    HW1   74   1.818   2.719   2.571  1.0705 -1.1275 -1.2675
   25SOL    HW2   75   1.828   2.800   2.428  4.7814  3.1947 -0.7841
   26SOL     OW   76   1.456   2.777   0.397 -0.2498 -0.2381 -0.1674
   26SOL    HW1   77   1.541   2.721   0.393  1.6244 -0.2217 -0.3243
   26SOL    HW2   78   1.378   2.734   0.344 -3.4535  0.1220  0.2296
   27SOL     OW   79   0.441   1.771   2.658 -0.3943 -0.4872  0.2041
   27SOL    HW1   80   0.365   1.828   2.623 -2.2645  0.1759  0.4920
   27SOL    HW2   81   0.529   1.815   2.632  1.3903 -0.9710 -0.4546
   28SOL     OW   82   2.972   1.169   1.589  0.5455  0.0401 -0.0140
   28SOL    HW1   83   2.916   1.215   1.517  0.4540  0.7468 -1.0840
   28SOL    HW2   84   3.050   1.225   1.621  2.6066  1.0136  0.9815
   29SOL     OW   85   2.669   2.398   2.093  0.4215  0.7515  0.4783
   29SOL    HW1   86   2.712   2.370   2.183 -0.1893  0.9563 -0.4499
   29SOL    HW2   87   2.680   2.334   2.016  1.0103 -0.0936  0.9301
   30SOL     OW   88   1.482   0.080   0.177  0.1300 -0.8881  0.3313
   30SOL    HW1   89   1.417   0.123   0.113  2.1213 -1.1859 -1.3781
   30SOL    HW2   90   1.550   0.149   0.203  0.0927  3.6602 -3.0334
   31SOL     OW   91   2.895   2.543   2.057  0.2544  0.6081  0.2588
   31SOL    HW1   92   2.813   2.480   2.064 -1.0960  0.3683  0.4399
   31SOL    HW2   93   2.950   2.535   2.144  1.3232  2.3928  1.5278
   32SOL     OW   94   1.313   1.551   1.373 -0.5169 -0.4751 -0.5600
   32SOL    HW1   95   1.298   1.454   1.350 -1.3249  0.0753  0.9917
   32SOL    HW2   96   1.400   1.588   1.330  0.7722  1.2601 -0.0254
   33SOL     OW   97   0.065   2.513   2.798  0.5443  0.6171 -0.2035
   33SOL    HW1   98   0.132   2.527   2.719 -0.3302 -0.6122 -0.8026
   33SOL    HW2   99   3.063   2.538   2.762 -1.9657 -0.3978 -1.4185
   34SOL     OW  100   1.873   0.065   0.865  0.0312 -0.3648 -0.6027
   34SOL    HW1  101   1.973   0.056   0.856 -2.0512  2.1005 -1.5739
   34SOL    HW2  102   1.831   0.141   0.807 -0.9992  0.5252  0.4959
   35SOL     OW  103   2.185   0.019   0.960 -0.5017 -0.3975 -0.1887
   35SOL    HW1  104   2.175   3.047   0.887 -0.7071  2.2398  0.6049
   35SOL    HW2  105   2.232   3.063   1.034 -1.2507 -1.3542 -2.8093
   36SOL     OW  106   1.854   2.786   2.242 -0.3298 -0.3527  0.0279
   36SOL    HW1  107   1.932   2.728   2.275  2.3866  1.7191  2.8201
   36SOL    HW2  108   1.877   2.885   2.256 -0.6246 -1.7679 -0.4441
   37SOL     OW  109   1.012   2.621   2.358 -0.1860  0.4554 -0.5253
   37SOL    HW1  110   0.993   2.552   2.286 -1.1411  0.5319 -0.5259
   37SOL    HW2  111   1.033   2.574   2.449  0.5866 -1.0352  0.4181
   38SOL     OW  112   2.764   0.015   2.712 -0.5974 -0.2003 -0.5992
   38SOL    HW1  113   2.806   3.017   2.719 -2.7246  0.8404 -1.0489
   38SOL    HW2  114   2.669   0.007   2.678  0.3736 -0.9596  0.7573
   39SOL     OW  115   2.135   1.347   1.788 -0.1221  0.4974  0.1906
   39SOL    HW1  116   2.225   1.377   1.749  2.3568  0.0152 -0.5577
   39SOL    HW2  117   2.073   1.421   1.798  2.4234 -1.6676 -1.0754
   40SOL     OW  118   0.206   2.977   2.791  0.5756  0.2027 -0.4028
   40SOL    HW1  119   0.223   3.033   2.875  1.1022  0.5563  2.6425
   40SOL    HW2  120   0.178   2.882   2.815  0.2577 -1.1719  0.1383
   41SOL     OW  121   1.696   0.616   0.838 -0.1547  0.3235  0.1128
   41SOL    HW1  122   1.611   0.652   0.791 -2.0161  0.2120 -0.0072
   41SOL    HW2  123   1.779   0.637   0.784 -3.6474  2.2800  2.0528
   42SOL     OW  124   0.519   0.920   1.576  0.1723  0.1061 -0.8441
   42SOL    HW1  125   0.491   0.847   1.507 -1.3985 -0.8782  2.6757
   42SOL    HW2  126   0.578   0.882   1.648 -2.6256 -0.6070 -1.2899
   43SOL     OW  127   2.813   1.318   2.604  0.0566 -0.4845 -0.1420
   43SOL    HW1  128   2.794   1.224   2.640  1.0278 -0.1634 -0.8402
   43SOL    HW2  129   2.847   1.379   2.679 -1.6375 -1.1690  2.9390
   44SOL     OW  130   3.082   2.756   0.467  0.0857 -0.5595  0.1395
   44SOL    HW1  131   2.985   2.775   0.484 -2.6473  0.2821 -1.6643
   44SOL    HW2  132   0.050   2.844   0.478 -0.8849  1.3746  1.4516
   45SOL     OW  133   0.231   2.623   2.106 -0.4144  0.0811 -0.0017
   45SOL    HW1  134   0.149   2.655   2.050 -1.1773 -0.5615 -2.7685
   45SOL    HW2  135   0.309   2.676   2.070 -0.6089  0.0636 -1.5009
   46SOL     OW  136   2.249   2.541   2.198  0.2318 -0.3176 -0.0489
   46SOL    HW1  137   2.292   2.470   2.250 -1.0728  2.6586 -0.1920
   46SOL    HW2  138   2.318   2.577   2.131 -0.6345  2.5082  1.4797
   47SOL     OW  139   2.288   1.906   1.476 -0.1846  0.1845 -0.0575
   47SOL    HW1  140   2.328   1.990   1.521  0.1560  1.8609 -0.9623
   47SOL    HW2  141   2.197   1.876   1.511 -1.5484 -1.3915  1.6834
   48SOL     OW  142   0.687   1.645   0.287  0.0803  0.2370  0.2350
   48SOL    HW1  143   0.645   1.725   0.242  0.9435 -1.2928 -0.6670
   48SOL    HW2  144   0.772   1.671   0.338 -2.4813  0.7009  0.0127
   49SOL     OW  145   2.544   0.377   2.611  0.0223 -0.0539  0.1177
   49SOL    HW1  146   2.536   0.281   2.579 -0.7814 -0.5982 -0.0265
   49SOL    HW2  147   2.468   0.437   2.567 -0.8900  1.8460 -2.0144
   50SOL     OW  148   2.259   0.799   0.250 -0.3790 -0.2699 -0.8580
   50SOL    HW1  149   2.158   0.784   0.247 -3.8035 -1.2532  0.6264
   50SOL    HW2  150   2.294   0.734   0.325 -0.7814 -1.2301  2.6698
   51SOL     OW  151   1.918   0.609   1.062 -0.2836  0.0645  0.3297
   51SOL    HW1  152   1.828   0.570   1.086  1.7574  0.2292 -1.2352
   51SOL    HW2  153   1.955   0.562   0.976  2.5940  1.9755 -0.1403
   52SOL     OW  154   1.154   1.223   2.992 -0.0840  0.1889  0.3820
   52SOL    HW1  155   1.167   1.281   3.073 -2.1410  0.2862 -3.5031
   52SOL    HW2  156   1.247   1.183   2.974  0.0403  2.3219  1.2501
   53SOL     OW  157   1.055   1.552   1.994  0.2997  0.4515 -0.3285
   53SOL    HW1  158   0.983   1.539   2.060  3.3290  2.1051 -0.8172
   53SOL    HW2  159   1.028   1.538   1.898 -0.1711 -0.1413  0.2703
   54SOL     OW  160   1.726   0.204   1.097  0.0147  0.3165 -0.5143
   54SOL    HW1  161   1.635   0.203   1.049 -1.1939  1.6032  0.9549
   54SOL    HW2  162   1.795   0.165   1.035 -0.1252  0.5146  1.5881
   55SOL     OW  163   2.595   2.224   0.936  0.0097  0.1045  0.3418
   55SOL    HW1  164   2.538   2.304   0.917  1.6235 -0.8913  0.5721
   55SOL    HW2  165   2.545   2.143   0.970  1.5053 -2.2515 -1.8189
   56SOL     OW  166   0.894   2.796   1.528 -0.0717 -0.5665 -0.1378
   56SOL    HW1  167   0.921   2.755   1.439  3.1684  1.0079  0.7735
   56SOL    HW2  168   0.948   2.884   1.544 -0.7072  3.9922  1.7759
   57SOL     OW  169   1.579   1.334   0.393 -0.1342  0.5211 -1.0067
   57SOL    HW1  170   1.663   1.284   0.356 -2.5501  1.0976 -0.9975
   57SOL    HW2  171   1.613   1.414   0.443  1.5956  1.3426 -0.1045
   58SOL     OW  172   2.997   0.621   2.420 -0.3020  0.1844  0.2363
   58SOL    HW1  173   2.954   0.699   2.371 -1.7612  1.6133 -1.7503
   58SOL    HW2  174   2.931   0.574   2.484 -3.7929  1.6728  0.6629
   59SOL     OW  175   1.103   2.719   2.696 -0.1406 -0.2121 -0.3197
   59SOL    HW1  176   1.165   2.755   2.622  0.3302  1.6704 -0.5075
   59SOL    HW2  177   1.070   2.630   2.672  0.3499  1.9196  0.2016
   60SOL     OW  178   2.279   2.577   0.674 -0.7299 -0.2166 -0.2653
   60SOL    HW1  179   2.305   2.573   0.577  2.0420  1.0391  3.9382
   60SOL    HW2  180   2.269   2.674   0.710 -0.2200 -0.7832 -0.1181
   61SOL     OW  181   1.228   2.296   0.927 -0.2644  0.8145  0.3268
   61SOL    HW1  182   1.153   2.368   0.933  0.7578  1.2900 -3.0879
   61SOL    HW2  183   1.289   2.288   1.008 -1.7455 -2.1446  1.4882
   62SOL     OW  184   2.470   2.114   2.425 -0.1198  0.5267  0.3965
   62SOL    HW1  185   2.411   2.133   2.505  0.4618  1.3756 -0.4332
   62SOL    HW2  186   2.474   2.013   2.403 -1.2560 -0.6684  0.6664
   63SOL     OW  187   2.346   0.455   2.837 -0.7335  0.2531  0.2862
   63SOL    HW1  188   2.387   0.468   2.747  0.5699  1.0065  2.1959
   63SOL    HW2  189   2.362   0.359   2.871  1.9290 -2.4653 -0.6530
   64SOL     OW  190   1.253   0.795   2.835 -0.1324 -0.2235 -0.7029
   64SOL    HW1  191   1.186   0.827   2.905 -0.5786 -1.4075  1.4325
   64SOL    HW2  192   1.223   0.709   2.786 -0.9035  1.4429  2.1245
   65SOL     OW  193   1.274   2.068   0.345 -0.3938 -0.3136 -0.2177
   65SOL    HW1  194   1.199   2.091   0.404  3.6290  0.7520  0.1910
   65SOL    HW2  195   1.341   2.143   0.327 -0.6728  2.3561  0.2565
   66SOL     OW  196   0.320   1.177   1.786  0.0870  0.0876  0.3062
   66SOL    HW1  197   0.304   1.208   1.884 -0.3450 -0.3055 -0.1022
   66SOL    HW2  198   0.422   1.162   1.774 -0.1184 -1.1675 -1.9650
   67SOL     OW  199   2.325   0.055   2.418  0.7117  0.5816 -0.3902
   67SOL    HW1  200   2.383   0.131   2.379  0.1652  0.7914  2.1591
   67SOL    HW2  201   2.291   3.088   2.342 -2.8106  0.5165 -3.6452
   68SOL     OW  202   0.350   2.349   1.189 -0.3937 -0.5936  0.1204
   68SOL    HW1  203   0.385   2.422   1.247 -3.6654 -1.9156 -0.8032
   68SOL    HW2  204   0.289   2.283   1.236 -0.4989 -0.0030 -3.5587
   69SOL     OW  205   1.042   2.748   0.536 -0.1547  0.0410  0.3296
   69SOL    HW1  206   1.040   2.796   0.447 -0.1346  1.0378  2.3809
   69SOL    HW2  207   1.000   2.803   0.609 -0.9432 -0.3265 -1.1467
   70SOL     OW  208   2.958   1.091   2.863  0.3252  0.7632  0.3447
   70SOL    HW1  209   3.021   1.172   2.866 -1.5815 -0.5779  0.1953
   70SOL    HW2  210   2.960   1.039   2.774 -2.5249  0.3978 -0.1469
   71SOL     OW  211   0.097   1.479   2.624 -0.2897  0.3214  0.5833
   71SOL    HW1  212   0.196   1.460   2.618  0.9193  1.5453 -0.4468
   71SOL    HW2  213   0.052   1.485   2.533  2.8839  0.1461 -0.3806
   72SOL     OW  214   0.022   2.324   0.481  0.6085  0.0335  0.2899
   72SOL    HW1  215   0.048   2.234   0.524  2.0051  0.7151  0.7899
   72SOL    HW2  216   0.031   2.395   0.551 -2.5126  0.5310 -0.5053
   73SOL     OW  217   0.785   1.400   0.158 -0.4975  0.1745  0.2357
   73SOL    HW1  218   0.868   1.395   0.219  2.2073  1.0245 -0.8939
   73SOL    HW2  219   0.736   1.488   0.175  2.4827 -1.2905  2.2857
   74SOL     OW  220   3.013   0.334   0.089  0.1003 -0.9425  0.0389
   74SOL    HW1  221   3.057   0.269   0.148  1.8220  2.8280 -1.3154
   74SOL    HW2  222   3.080   0.409   0.077  1.7269  0.8134  0.3002
   75SOL     OW  223   2.200   1.474   2.127  0.0999 -0.2455  0.4233
   75SOL    HW1  224   2.274   1.458   2.057  3.3720  1.3878 -0.9487
   75SOL    HW2  225   2.197   1.575   2.146 -0.7941  2.1297  1.7304
   76SOL     OW  226   2.157   2.663   1.567  0.2401  0.0902  0.0049
   76SOL    HW1  227   2.209   2.597   1.506 -0.1506  0.6224  1.6336
   76SOL    HW2  228   2.086   2.614   1.625 -2.4967 -0.9915  5.2117
   77SOL     OW  229   2.559   0.386   1.315 -0.2025  0.2416 -0.0797
   77SOL    HW1  230   2.639   0.453   1.316  2.2035  0.6027  1.1348
   77SOL    HW2  231   2.517   0.369   1.222  1.0555 -0.3257  0.2844
   78SOL     OW  232   1.681   1.001   3.087  0.2654 -0.2946  0.0612
   78SOL    HW1  233   1.599   0.982   3.035  2.8212 -1.2610 -1.8233
   78SOL    HW2  234   1.763   1.023   3.031  0.1517  3.0090 -1.8117
   79SOL     OW  235   0.529   1.866   1.926  0.5151  0.5092  0.1513
   79SOL    HW1  236   0.592   1.901   1.857 -1.1793  1.7231 -0.4634
   79SOL    HW2  237   0.577   1.825   2.003  2.7210  0.8775  1.1837
   80SOL     OW  238   1.505   1.146   0.977 -0.1988  0.1148  0.0438
   80SOL    HW1  239   1.540   1.221   0.917 -0.0157  0.2842 -1.9982
   80SOL    HW2  240   1.568   1.066   0.985 -2.8197  2.1478 -0.9170
   81SOL     OW  241   0.269   0.433   1.127 -0.5738  0.1303  0.6700
   81SOL    HW1  242   0.194   0.381   1.079 -0.6213 -0.3087  0.1057
   81SOL    HW2  243   0.347   0.448   1.062  0.8694  0.6700  0.1122
   82SOL     OW  244   1.411   2.225   1.751 -0.2148  0.1843  0.5700
   82SOL    HW1  245   1.409   2.285   1.831 -0.6167  0.1408 -2.0786
   82SOL    HW2  246   1.486   2.156   1.760  1.2538  1.0853  1.8521
   83SOL     OW  247   0.601   2.868   1.427  0.0524 -0.1239  0.7586
   83SOL    HW1  248   0.510   2.895   1.390  0.9329 -3.3089 -2.4831
   83SOL    HW2  249   0.599   2.795   1.493  1.3355  0.4206 -0.2174
   84SOL     OW  250   0.308   0.857   2.945  0.4211 -0.7467  0.0945
   84SOL    HW1  251   0.224   0.826   2.994 -1.3197  0.0926  1.5605
   84SOL    HW2  252   0.339   0.791   2.871 -0.0959 -0.4657  1.3467
   85SOL     OW  253   2.851   2.519   1.645  0.0426 -0.2256 -0.1330
   85SOL    HW1  254   2.893   2.501   1.554  0.1730  1.0588  0.1619
   85SOL    HW2  255   2.782   2.449   1.678  1.8823 -1.1995  0.6927
   86SOL     OW  256   2.878   2.799   1.576 -0.6506 -0.0329  0.0372
   86SOL    HW1  257   2.889   2.714   1.632  0.4247  2.2668 -0.3724
   86SOL    HW2  258   2.960   2.816   1.515  2.4099 -0.7885  0.1367
   87SOL     OW  259   2.901   2.575   2.720 -0.1520  0.2828  0.0989
   87SOL    HW1  260   2.860   2.659   2.747 -1.4054 -1.8376 -0.8623
   87SOL    HW2  261   2.881   2.547   2.622 -0.6602 -1.1226 -0.0871
   88SOL     OW  262   0.353   1.933   1.336 -0.1141 -0.7066  0.8027
   88SOL    HW1  263   0.276   2.001   1.337 -1.5592 -0.2383 -0.1750
   88SOL    HW2  264   0.400   1.928   1.247  0.8433 -0.7975  0.4782
   89SOL     OW  265   1.009   0.274   1.900 -0.6194  0.1251 -0.3227
   89SOL    HW1  266   0.911   0.261   1.869 -1.2648 -0.0952 -2.1643
   89SOL    HW2  267   1.030   0.196   1.968  1.0317 -2.2433 -0.8085
   90SOL     OW  268   0.276   1.788   1.954 -0.1789  0.3802 -0.2862
   90SOL    HW1  269   0.229   1.797   1.867 -0.3954  1.5252 -1.0628
   90SOL    HW2  270   0.371   1.823   1.947  1.0822  0.8467 -0.3815
   91SOL     OW  271   1.170   1.822   0.509 -0.1492  0.1672  0.1668
   91SOL    HW1  272   1.167   1.806   0.612 -0.0538  0.2594  0.8089
   91SOL    HW2  273   1.208   1.740   0.459 -0.4565  2.9542  0.6393
   92SOL     OW  274   2.392   0.009   1.148  0.7353  0.1905  0.1804
   92SOL    HW1  275   2.450   0.081   1.120 -1.0793 -1.0380  3.0134
   92SOL    HW2  276   2.327   0.041   1.218 -0.2132  0.7736  0.9410
   93SOL     OW  277   2.645   1.573   2.892 -0.2995  0.1335  0.2589
   93SOL    HW1  278   2.613   1.519   2.811  1.8282  1.3546  2.7159
   93SOL    HW2  279   2.618   1.673   2.895 -1.0298  1.0066 -2.3635
   94SOL     OW  280   2.456   2.330   2.262 -0.4657 -0.2633 -0.2279
   94SOL    HW1  281   2.480   2.242   2.301  0.6324 -0.7533  1.3701
   94SOL    HW2  282   2.509   2.354   2.177 -2.1615  2.9790 -2.7828
   95SOL     OW  283   1.668   0.490   1.111 -0.2207  0.5068  0.0402
   95SOL    HW1  284   1.647   0.531   1.015 -1.5122  1.5337 -0.9370
   95SOL    HW2  285   1.691   0.393   1.095 -1.6398  2.0806 -0.4541
   96SOL     OW  286   2.774   2.990   1.769  0.1670  0.1657  0.4497
   96SOL    HW1  287   2.821   2.926   1.702 -0.1536  0.0971  1.6034
   96SOL    HW2  288   2.713   3.057   1.727  2.2297 -2.8001  0.8324
   97SOL     OW  289   2.240   0.155   1.321  0.2142  0.0869  0.7125
   97SOL    HW1  290   2.151   0.111   1.340 -1.5196  0.2526  1.1109
   97SOL    HW2  291   2.267   0.210   1.402 -0.5570 -2.6176 -2.6010
   98SOL     OW  292   1.535   2.151   1.419  0.4210 -0.4865 -0.0445
   98SOL    HW1  293   1.605   2.189   1.355  1.7761 -2.4311 -1.0278
   98SOL    HW2  294   1.562   2.156   1.521  1.4351  2.8878  0.9156
   99SOL     OW  295   2.899   3.063   2.009  0.4917  0.4420 -0.4710
   99SOL    HW1  296   2.876   3.047   1.907  2.1382 -0.5407 -1.7778
   99SOL    HW2  297   2.878   2.981   2.067  1.6383 -1.0747 -2.3215
  100SOL     OW  298   0.118   0.976   2.556  0.6971 -0.0184  0.2673
  100SOL    HW1  299   0.116   1.074   2.517 -0.6804 -0.9632  0.3702
  100SOL    HW2  300   0.212   0.947   2.576 -1.7515  1.8245  1.1893
  101SOL     OW  301   1.806   0.645   0.051  0.3085 -0.0967 -0.3811
  101SOL    HW1  302   1.842   0.548   0.072 -0.2858 -3.2595  3.7070
  101SOL    HW2  303   1.844   0.714   0.117  0.3664  1.9088  2.5063
  102SOL     OW  304   0.261   0.634   1.304 -0.4302  0.8479  0.8372
  102SOL    HW1  305   0.254   0.561   1.235  2.1525  0.4651  0.3059
  102SOL    HW2  306   0.359   0.651   1.323 -1.0746 -0.7050  0.6441
  103SOL     OW  307   2.654   0.850   1.896  0.3139  0.3600 -0.4137
  103SOL    HW1  308   2.717   0.771   1.914 -1.5369 -3.2241  0.3938
  103SOL    HW2  309   2.624   0.885   1.988 -0.1013 -1.2753 -0.8266
  104SOL     OW  310   0.187   0.345   2.712  0.3099  0.2451 -0.0882
  104SOL    HW1  311   0.206   0.285   2.628  0.6120 -2.5907 -2.4185
  104SOL    HW2  312   0.211   0.296   2.797 -0.2398  0.7821 -2.0788
  105SOL     OW  313   2.061   1.130   1.636 -0.0312 -0.5339 -0.4531
  105SOL    HW1  314   1.963   1.107   1.629  2.0340  3.1662 -1.2378
  105SOL    HW2  315   2.083   1.193   1.713  1.2609  0.2188 -0.1874
  106SOL     OW  316   1.121   3.050   0.463 -0.0004 -0.0752 -0.6581
  106SOL    HW1  317   1.217   3.042   0.441 -1.3364  0.2299 -1.2798
  106SOL    HW2  318   1.098   0.033   0.528  0.6313  0.1057  1.5931
  107SOL     OW  319   0.399   1.703   1.494  0.3960  0.6551 -0.3484
  107SOL    HW1  320   0.466   1.655   1.428  1.1746 -1.7938  0.2584
  107SOL    HW2  321   0.362   1.781   1.439 -0.3966  2.6092 -2.7623
  108SOL     OW  322   3.088   2.689   2.439  0.0121  0.1557 -0.3550
  108SOL    HW1  323   0.077   2.641   2.475  0.3215  0.9475 -2.0135
  108SOL    HW2  324   3.052   2.765   2.495  0.2762 -0.8953 -1.4357
  109SOL     OW  325   1.668   0.255   0.239  0.2997  0.1888  0.4748
  109SOL    HW1  326   1.608   0.337   0.223  0.2987 -2.6314  0.2077
  109SOL    HW2  327   1.738   0.252   0.164  0.6263  1.8501 -1.0024
  110SOL     OW  328   0.496   2.187   2.703  0.2929 -0.7481 -0.2342
  110SOL    HW1  329   0.455   2.280   2.687 -0.9790  1.5766  1.9893
  110SOL    HW2  330   0.582   2.183   2.759  0.2262 -1.0084  1.2231
  111SOL     OW  331   1.391   2.717   2.063  0.2981  0.3392  0.1387
  111SOL    HW1  332   1.455   2.796   2.075  1.1885 -0.5954 -0.6164
  111SOL    HW2  333   1.333   2.737   1.979 -0.4342 -0.7448 -0.1579
  112SOL     OW  334   1.801   2.544   2.569 -0.6624 -0.3748  0.3273
  112SOL    HW1  335   1.724   2.518   2.626  4.1543 -3.3008 -1.3573
  112SOL    HW2  336   1.889   2.527   2.622  2.2929  1.7430  2.3425
  113SOL     OW  337   1.936   2.736   1.911  0.6248 -0.0845 -0.6917
  113SOL    HW1  338   1.939   2.661   1.981  1.8869  0.7381 -1.7995
  113SOL    HW2  339   1.954   2.693   1.825 -1.9407  0.1566  2.4082
  114SOL     OW  340   2.926   0.823   0.403 -0.1477 -0.6053 -0.6033
  114SOL    HW1  341   2.889   0.836   0.497 -0.1983 -0.9800 -3.4114
  114SOL    HW2  342   2.932   0.911   0.352  1.3963 -1.5873  0.7543
  115SOL     OW  343   0.362   1.252   2.881  0.4927  0.8854  0.1097
  115SOL    HW1  344   0.370   1.317   2.804  0.1331 -2.7342  0.3045
  115SOL    HW2  345   0.428   1.178   2.886 -0.8299 -0.4979 -1.1229
  116SOL     OW  346   0.367   1.273   2.047 -0.0385  0.0289 -0.2193
  116SOL    HW1  347   0.412   1.337   1.983 -1.4414  1.6670  1.0726
  116SOL    HW2  348   0.293   1.318   2.097 -1.2273  1.6792  2.3245
  117SOL     OW  349   2.655   0.113   0.801 -0.3184  0.2888  0.8420
  117SOL    HW1  350   2.755   0.139   0.776  5.0912  2.1727 -0.6876
  117SOL    HW2  351   2.582   0.179   0.761 -1.1353  3.2905 -0.7860
  118SOL     OW  352   1.298   1.850   1.776 -0.2393 -0.2332  0.4532
  118SOL    HW1  353   1.316   1.757   1.743 -2.3146  1.9053 -0.8388
  118SOL    HW2  354   1.232   1.839   1.854 -0.5349 -1.0659 -0.2266
  119SOL     OW  355   1.232   2.436   0.322 -0.0214 -0.2156 -0.2342
  119SOL    HW1  356   1.197   2.430   0.419  0.0462  2.1594 -0.4457
  119SOL    HW2  357   1.324   2.399   0.307 -1.7777 -0.2897  1.3584
  120SOL     OW  358   0.367   0.893   2.620  0.0974  0.3828  0.3534
  120SOL    HW1  359   0.411   0.975   2.652 -0.2510  0.8565 -1.7898
  120SOL    HW2  360   0.399   0.813   2.675 -0.0203 -0.5669 -3.6774
  121SOL     OW  361   2.032   2.643   1.223 -0.2037 -0.0039 -0.1761
  121SOL    HW1  362   1.998   2.731   1.196  2.5679 -0.2029  0.9542
  121SOL    HW2  363   2.129   2.650   1.243  1.8118  0.2335  3.0571
  122SOL     OW  364   2.394   2.115   1.891  0.0823 -0.1258  0.8762
  122SOL    HW1  365   2.403   2.055   1.970 -1.1808 -0.9397 -0.8132
  122SOL    HW2  366   2.366   2.210   1.919  0.0165 -0.9322  1.8904
  123SOL     OW  367   0.057   3.032   0.546  0.6708  0.8739 -0.2165
  123SOL    HW1  368   0.142   3.084   0.552 -0.3057  0.5430 -2.5012
  123SOL    HW2  369   3.071   3.092   0.509 -0.1981 -0.1836 -0.7132
  124SOL     OW  370   1.838   0.651   2.406  0.8850  0.4535  0.2958
  124SOL    HW1  371   1.797   0.729   2.357  0.7330 -1.0184 -0.3979
  124SOL    HW2  372   1.919   0.613   2.358  0.3411 -1.4485 -0.2047
  125SOL     OW  373   0.420   1.503   0.726 -0.1520  0.0044 -0.2063
  125SOL    HW1  374   0.447   1.505   0.631 -0.3663  2.0365  0.3608
  125SOL    HW2  375   0.362   1.580   0.757  0.4507  0.5810  1.0866
  126SOL     OW  376   2.452   1.730   0.610 -0.4775 -0.0736 -0.0722
  126SOL    HW1  377   2.542   1.719   0.654 -0.0020  3.8073 -1.6940
  126SOL    HW2  378   2.381   1.772   0.667  2.7322 -1.9682 -2.7473
  127SOL     OW  379   0.042   2.219   1.711  0.2391 -0.4668  0.1027
  127SOL    HW1  380   3.089   2.195   1.624  0.4304  0.3343  1.0838
  127SOL    HW2  381   0.018   2.315   1.727 -2.4333 -0.3332  0.1638
  128SOL     OW  382   0.872   0.549   2.584 -0.2754 -0.0373 -0.2269
  128SOL    HW1  383   0.897   0.576   2.489  1.6379 -0.0844  3.0684
  128SOL    HW2  384   0.949   0.524   2.647  0.9069 -2.5754  3.1764
  129SOL     OW  385   2.452   1.088   0.922  0.4004  0.0679  0.6529
  129SOL    HW1  386   2.553   1.087   0.918  1.6649  0.7525  0.4571
  129SOL    HW2  387   2.422   1.092   0.822  2.0447 -1.5625  1.2403
  130SOL     OW  388   2.451   1.459   1.406 -0.1790 -0.2303  0.7873
  130SOL    HW1  389   2.474   1.365   1.374  1.5707 -1.8386  1.0897
  130SOL    HW2  390   2.395   1.465   1.492 -0.6724  1.1506  1.7696
  131SOL     OW  391   2.637   0.752   2.936 -0.1151 -0.7609 -0.1898
  131SOL    HW1  392   2.719   0.800   2.972  1.6754  2.8544 -1.9885
  131SOL    HW2  393   2.659   0.683   2.866 -0.1086  1.5991 -0.6521
  132SOL     OW  394   2.665   2.178   1.932 -0.1542 -0.8349  0.1492
  132SOL    HW1  395   2.582   2.119   1.926 -1.8462 -1.9197  2.7248
  132SOL    HW2  396   2.743   2.134   1.985  0.4884  0.6170 -0.7732
  133SOL     OW  397   0.312   1.065   0.966 -0.1773  0.4821  0.7702
  133SOL    HW1  398   0.337   1.080   0.869  1.1534  0.0419 -1.9433
  133SOL    HW2  399   0.370   1.116   1.037  3.8729 -0.6273  0.3483
  134SOL     OW  400   0.253   1.339   0.064 -0.2063 -0.2388 -0.2006
  134SOL    HW1  401   0.268   1.438   0.094  2.7639 -0.3622  2.2361
  134SOL    HW2  402   0.267   1.328   3.058 -1.8450 -2.7099  0.7874
  135SOL     OW  403   2.093   1.411   1.317 -0.0750 -0.2496 -0.9923
  135SOL    HW1  404   2.157   1.345   1.360 -0.0603  0.6960 -1.3869
  135SOL    HW2  405   2.020   1.439   1.383  1.2726 -0.3244 -1.0791
  136SOL     OW  406   2.634   0.943   0.688  0.4900  0.5131 -0.3311
  136SOL    HW1  407   2.623   0.975   0.590  0.1438  0.7092 -0.4974
  136SOL    HW2  408   2.571   0.865   0.702  1.9020  2.1278 -0.2296
  137SOL     OW  409   2.686   1.615   1.027  0.0494  0.0574 -0.3966
  137SOL    HW1  410   2.715   1.701   1.080  2.5767  0.6365 -0.0548
  137SOL    HW2  411   2.676   1.536   1.089  1.0871  2.4536  0.9265
  138SOL     OW  412   1.517   0.554   1.324  0.7985 -0.4305  0.7810
  138SOL    HW1  413   1.577   0.525   1.247 -3.7939  2.5637 -0.1852
  138SOL    HW2  414   1.527   0.498   1.407  1.2720  0.9085 -3.0180
  139SOL     OW  415   2.024   0.231   2.940 -0.1504 -0.1672  0.1938
  139SOL    HW1  416   2.041   0.334   2.934 -2.6283  1.7657 -0.9168
  139SOL    HW2  417   2.107   0.176   2.934 -0.1576 -1.3660  0.2999
  140SOL     OW  418   1.687   1.778   2.038  0.4189  0.0416 -0.0708
  140SOL    HW1  419   1.762   1.840   2.032 -1.3190 -0.6196 -1.7270
  140SOL    HW2  420   1.720   1.684   2.014 -0.8655  0.9726  2.1182
  141SOL     OW  421   1.941   1.911   0.893  0.5793  0.0709 -0.0369
  141SOL    HW1  422   2.038   1.932   0.915  0.8636 -1.6461 -3.1150
  141SOL    HW2  423   1.892   1.912   0.984  0.9960  1.1575  1.0411
  142SOL     OW  424   3.027   0.719   0.006 -0.2858 -0.0018  0.0846
  142SOL    HW1  425   0.010   0.682   3.040  0.4047 -0.2559  0.7568
  142SOL    HW2  426   3.063   0.733   0.101 -0.3626  1.3880  0.0337
  143SOL     OW  427   0.426   2.141   2.981 -0.1222 -1.0492  0.0198
  143SOL    HW1  428   0.389   2.071   3.036  1.3604  2.1530 -2.1841
  143SOL    HW2  429   0.425   2.114   2.881  0.9778  1.0207 -0.6447
  144SOL     OW  430   0.995   2.991   1.841 -0.9905 -0.7464 -0.0519
  144SOL    HW1  431   1.014   3.023   1.743  1.0945 -0.6029  0.3659
  144SOL    HW2  432   0.992   2.891   1.845  0.7191  0.6207 -0.0621
  145SOL     OW  433   2.181   1.469   0.304 -0.7476  0.3272  0.3070
  145SOL    HW1  434   2.100   1.523   0.268 -1.5173 -0.8062 -0.3551
  145SOL    HW2  435   2.254   1.465   0.229 -2.3780 -0.2052 -1.6043
  146SOL     OW  436   2.604   2.563   2.995  0.3033  0.3613 -0.0383
  146SOL    HW1  437   2.698   2.543   3.025 -1.1543 -0.1029 -0.3242
  146SOL    HW2  438   2.566   2.501   2.919 -2.5033 -3.9295 -0.1279
  147SOL     OW  439   2.720   2.912   1.108  0.2911  0.0045  0.5885
  147SOL    HW1  440   2.685   2.949   1.197  0.4142 -1.0936  0.3018
  147SOL    HW2  441   2.645   2.904   1.039 -0.7192 -1.0543 -2.7752
  148SOL     OW  442   1.582   2.970   2.467 -0.0396  0.3080  0.4512
  148SOL    HW1  443   1.640   2.893   2.499  2.5775 -0.0075  0.1288
  148SOL    HW2  444   1.542   3.017   2.546  0.1041 -0.2441 -2.6348
  149SOL     OW  445   1.192   0.489   2.447 -0.1259 -0.8162  0.2158
  149SOL    HW1  446   1.250   0.407   2.470  1.6251  0.9174 -4.0684
  149SOL    HW2  447   1.119   0.470   2.378 -0.2682  0.8015  1.1611
  150SOL     OW  448   0.907   2.846   0.746 -0.3170 -0.2702  0.3079
  150SOL    HW1  449   0.829   2.866   0.800 -2.2747  0.5982 -2.6978
  150SOL    HW2  450   0.990   2.902   0.776  5.1034 -0.1959  0.9017
  151SOL     OW  451   2.958   1.819   0.178  0.0898  0.0310  0.7480
  151SOL    HW1  452   2.869   1.854   0.141  1.0094 -2.2318  3.5244
  151SOL    HW2  453   3.009   1.775   0.099 -0.1930  0.1084  1.7153
  152SOL     OW  454   0.142   0.970   0.480  0.3021 -0.4196 -0.4167
  152SOL    HW1  455   0.221   1.029   0.461  0.1804  0.6255 -0.3237
  152SOL    HW2  456   0.178   0.883   0.512 -0.5378  0.1877 -0.6352
  153SOL     OW  457   2.164   3.085   0.475 -0.1560  0.1207  0.2334
  153SOL    HW1  458   2.214   0.081   0.488 -0.6116 -2.9056  1.0687
  153SOL    HW2  459   2.125   3.075   0.382 -0.4804 -1.3187  1.4482
  154SOL     OW  460   0.791   0.741   1.497 -0.5080  0.2279 -0.0734
  154SOL    HW1  461   0.767   0.810   1.424 -2.3744  1.2984 -1.1473
  154SOL    HW2  462   0.749   0.769   1.584  0.6729  0.9635 -0.0048
  155SOL     OW  463   3.046   1.812   1.002  0.3732  0.3346 -0.1246
  155SOL    HW1  464   3.003   1.725   0.972  1.3154  3.2635 -1.2852
  155SOL    HW2  465   3.037   1.888   0.936  3.2231 -1.3929  2.5197
  156SOL     OW  466   2.094   2.046   0.071 -0.2293  0.3289  0.1571
  156SOL    HW1  467   2.182   2.026   0.118 -0.4546  0.3582  0.9772
  156SOL    HW2  468   2.110   2.085   3.069 -0.1150  1.3990 -3.7082
  157SOL     OW  469   1.018   2.771   1.261  0.2429 -0.3637 -0.4989
  157SOL    HW1  470   0.939   2.749   1.207  0.7723  0.3907  2.1049
  157SOL    HW2  471   1.098   2.717   1.233 -1.5089 -0.8362 -0.3405
  158SOL     OW  472   2.373   0.571   2.574 -0.4849  0.0689  0.3882
  158SOL    HW1  473   2.292   0.636   2.564 -2.5586  0.9640  1.3146
  158SOL    HW2  474   2.454   0.603   2.515  1.2616 -3.2582  0.7630
  159SOL     OW  475   0.658   0.320   0.095  0.2153  0.6130 -0.0992
  159SOL    HW1  476   0.573   0.373   0.087 -2.2824 -0.5289  0.7739
  159SOL    HW2  477   0.703   0.296   0.007 -1.5207  0.4611  1.7941
  160SOL     OW  478   1.251   1.904   0.127 -0.4006 -0.1307 -0.5383
  160SOL    HW1  479   1.263   1.959   0.043  1.3726 -2.5692  1.7197
  160SOL    HW2  480   1.239   1.966   0.211 -3.1717  0.2255  1.9469
  161SOL     OW  481   2.918   1.875   2.706  0.1686 -0.0928 -0.1210
  161SOL    HW1  482   2.993   1.940   2.694 -1.1844 -0.8632  0.6177
  161SOL    HW2  483   2.867   1.887   2.799 -0.4081  0.4300  1.8874
  162SOL     OW  484   0.354   2.926   1.322  0.3805 -0.1045 -0.0749
  162SOL    HW1  485   0.309   2.838   1.346 -1.2638  2.1512  0.0409
  162SOL    HW2  486   0.304   2.979   1.253  2.0698  0.8039  0.5721
  163SOL     OW  487   2.103   0.505   2.946 -0.0352 -0.3970 -0.2474
  163SOL    HW1  488   2.200   0.515   2.921 -0.1030 -1.5174  1.2673
  163SOL    HW2  489   2.049   0.536   2.867  2.2459 -1.8975 -0.5028
  164SOL     OW  490   3.042   2.049   0.826  0.4295 -0.0335 -0.0448
  164SOL    HW1  491   3.077   2.048   0.731  1.7375 -1.1837  0.0985
  164SOL    HW2  492   2.965   2.118   0.830 -1.9743  0.2898 -0.7775
  165SOL     OW  493   2.612   0.095   1.666 -0.0373  0.6140  0.2515
  165SOL    HW1  494   2.692   0.152   1.649 -0.5262  0.1489 -0.4962
  165SOL    HW2  495   2.563   0.071   1.580 -0.5285  0.4571 -0.4604
  166SOL     OW  496   2.341   0.218   0.776 -0.2878 -0.4374  0.6014
  166SOL    HW1  497   2.319   0.315   0.766  0.0600  2.9758  2.1097
  166SOL    HW2  498   2.295   0.181   0.861 -0.5622  0.2119 -1.1838
  167SOL     OW  499   0.468   0.464   0.945 -0.3490 -0.5356  0.2484
  167SOL    HW1  500   0.526   0.502   1.016 -0.0333  0.9639 -0.5536
  167SOL    HW2  501   0.516   0.432   0.861  1.7645  1.3818 -0.4368
  168SOL     OW  502   1.800   2.980   1.907 -0.2844  0.6987 -0.1661
  168SOL    HW1  503   1.714   2.941   1.939 -0.6429 -1.2032 -3.0323
  168SOL    HW2  504   1.871   2.912   1.925  0.7494  0.6414  0.6426
  169SOL     OW  505   0.411   1.130   0.704  0.3583  0.0257 -0.3524
  169SOL    HW1  506   0.459   1.213   0.738 -1.3599 -0.9077 -0.4105
  169SOL    HW2  507   0.367   1.142   0.615 -0.4017  0.1113  0.7294
  170SOL     OW  508   2.508   0.984   1.194 -0.3920  0.5971  0.1792
  170SOL    HW1  509   2.484   0.998   1.096  1.4906 -0.9355  1.1556
  170SOL    HW2  510   2.433   0.936   1.245 -1.2108 -1.8206 -1.1320
  171SOL     OW  511   1.091   2.481   1.750  0.1281  0.3896 -0.1717
  171SOL    HW1  512   1.124   2.394   1.793  0.3541 -1.2799  0.4346
  171SOL    HW2  513   1.110   2.478   1.649 -0.2446  0.4430  0.7351
  172SOL     OW  514   0.199   2.725   1.384  0.1514 -0.3117  0.1318
  172SOL    HW1  515   0.188   2.657   1.454 -2.7318 -0.1575  0.1544
  172SOL    HW2  516   0.133   2.802   1.403 -1.3092  0.2744 -0.7039
  173SOL     OW  517   1.379   0.214   3.040  0.2154 -0.0953  0.0407
  173SOL    HW1  518   1.367   0.173   2.950  0.7241  1.6030  0.7049
  173SOL    HW2  519   1.408   0.311   3.027 -1.1095  1.5064 -0.1001
  174SOL     OW  520   1.483   0.023   2.715 -0.5176  0.0574  0.1710
  174SOL    HW1  521   1.381   0.008   2.728 -1.7202  1.3070  0.2865
  174SOL    HW2  522   1.534   0.018   2.807 -0.2820  0.7680  0.9272
  175SOL     OW  523   1.683   2.681   3.048 -0.3505 -0.0792 -0.3029
  175SOL    HW1  524   1.586   2.692   3.075 -0.8330  0.9649  2.1098
  175SOL    HW2  525   1.735   2.764   3.075  2.1330 -0.3233  1.4055
  176SOL     OW  526   1.700   0.230   2.717  0.6010  0.1227  0.0854
  176SOL    HW1  527   1.742   0.157   2.774  0.5687  1.2836  0.9022
  176SOL    HW2  528   1.623   0.201   2.667  3.8244  2.0434  3.1189
  177SOL     OW  529   0.888   1.463   0.591  0.2185 -0.2545  0.0662
  177SOL    HW1  530   0.797   1.513   0.573 -0.5496  1.1248 -1.6291
  177SOL    HW2  531   0.953   1.524   0.643  0.2720  1.6568  0.6510
  178SOL     OW  532   3.089   1.526   2.379  0.2036  0.6671 -0.2998
  178SOL    HW1  533   0.027   1.542   2.283 -1.7090  0.7565  1.1760
  178SOL    HW2  534   3.016   1.453   2.378 -1.0395 -0.0516 -1.1575
  179SOL     OW  535   0.721   2.501   2.776 -0.8774 -0.5455  0.2161
  179SOL    HW1  536   0.731   2.464   2.684 -2.6073 -0.2873 -0.7219
  179SOL    HW2  537   0.752   2.598   2.775  2.1468  0.5109  0.7134
  180SOL     OW  538   2.012   1.870   1.595  0.3651  0.2354 -0.6785
  180SOL    HW1  539   2.040   1.836   1.688  0.3467 -0.3081  0.2864
  180SOL    HW2  540   1.913   1.858   1.575  0.5469 -1.4430  0.4141
  181SOL     OW  541   1.201   0.982   2.286  0.1569 -0.1750 -0.4267
  181SOL    HW1  542   1.293   0.942   2.314  0.4462 -0.0656  2.6880
  181SOL    HW2  543   1.219   1.083   2.276  0.3978 -4.3401  2.2715
  182SOL     OW  544   2.949   0.192   2.664 -0.8557 -0.8966 -0.2141
  182SOL    HW1  545   2.873   0.130   2.675  3.1299  2.6083  0.3006
  182SOL    HW2  546   3.028   0.132   2.630 -0.8279 -1.9396  0.3965
  183SOL     OW  547   1.182   0.481   2.867  0.3361 -0.1428 -0.1714
  183SOL    HW1  548   1.181   0.546   2.787 -2.5441  1.8187  1.2028
  183SOL    HW2  549   1.280   0.477   2.902 -1.4209  1.8591 -0.7763
  184SOL     OW  550   0.984   1.343   1.425  0.1821 -0.0925  0.0666
  184SOL    HW1  551   0.977   1.238   1.431  0.1630 -1.7435  1.6340
  184SOL    HW2  552   0.976   1.375   1.328  0.5925 -0.6388 -2.7417
  185SOL     OW  553   2.718   1.325   1.195  0.2639  0.8143  0.3031
  185SOL    HW1  554   2.811   1.316   1.241  0.3079  1.3382  0.6147
  185SOL    HW2  555   2.648   1.271   1.246  0.1039  1.0897  0.9570
  186SOL     OW  556   0.795   1.534   2.554  0.0360  0.4563  0.1591
  186SOL    HW1  557   0.880   1.551   2.498  2.2606  1.3081  0.5259
  186SOL    HW2  558   0.718   1.503   2.495  1.8102 -0.6120  0.4070
  187SOL     OW  559   2.384   1.430   0.136 -0.3802  0.1979  0.5716
  187SOL    HW1  560   2.338   1.379   0.058 -0.3046  0.4178  1.0271
  187SOL    HW2  561   2.449   1.363   0.181  2.3165 -0.5845  1.3854
  188SOL     OW  562   0.008   2.057   0.563  0.5623 -0.8812 -0.0174
  188SOL    HW1  563   0.112   2.075   0.565  3.0831  2.5608  2.9399
  188SOL    HW2  564   3.074   2.034   0.464  1.9536  3.0108 -1.8984
  189SOL     OW  565   2.539   0.666   0.252  0.1343 -0.3542 -0.1566
  189SOL    HW1  566   2.625   0.634   0.210  0.8680  2.5909  0.8640
  189SOL    HW2  567   2.459   0.607   0.227 -1.4576 -3.6421 -0.1530
  190SOL     OW  568   1.173   1.250   2.254 -0.1883 -0.6407 -0.6558
  190SOL    HW1  569   1.250   1.319   2.244 -0.1037  3.4735  1.2076
  190SOL    HW2  570   1.085   1.286   2.298 -1.2736  0.4151  1.8050
  191SOL     OW  571   2.242   0.168   1.917 -0.0750  0.1759  0.6158
  191SOL    HW1  572   2.325   0.227   1.923 -0.4026  0.8993 -3.1766
  191SOL    HW2  573   2.250   0.102   1.844 -1.5241 -0.4830  1.9942
  192SOL     OW  574   1.753   0.583   1.549  0.6021 -0.1941 -0.4025
  192SOL    HW1  575   1.791   0.547   1.636 -0.5897  1.6114  1.3848
  192SOL    HW2  576   1.673   0.520   1.523 -0.1218 -1.3348 -1.5583
  193SOL     OW  577   0.692   0.722   0.572 -0.2360  0.7812 -1.0589
  193SOL    HW1  578   0.618   0.782   0.606 -0.5194  1.3905  0.5453
  193SOL    HW2  579   0.757   0.773   0.515  0.9348 -0.6749  1.2429
  194SOL     OW  580   1.366   2.914   1.048 -0.0734  0.0711 -0.3505
  194SOL    HW1  581   1.405   2.850   0.980  0.6998 -0.7283 -1.0397
  194SOL    HW2  582   1.412   2.907   1.141  1.0812  0.8203 -0.1124
  195SOL     OW  583   2.360   0.577   0.474 -0.2518  0.3412  0.1003
  195SOL    HW1  584   2.304   0.520   0.414  1.6238 -0.0645  1.1184
  195SOL    HW2  585   2.444   0.597   0.423  3.2511  0.8485 -1.1774
  196SOL     OW  586   1.142   1.748   1.439 -0.3160 -0.3485 -0.3540
  196SOL    HW1  587   1.183   1.658   1.424 -2.8885 -0.7220  0.6103
  196SOL    HW2  588   1.218   1.813   1.469 -0.9748  2.1590 -1.3323
  197SOL     OW  589   0.172   2.970   0.269  0.4293  0.4616  0.3781
  197SOL    HW1  590   0.235   2.960   0.351  3.3327 -1.0373 -0.7280
  197SOL    HW2  591   0.153   2.880   0.231  1.4353  0.1582 -2.0389
  198SOL     OW  592   0.887   1.218   0.691 -0.0144  0.8330 -0.5025
  198SOL    HW1  593   0.862   1.136   0.630 -2.6289 -2.5539 -2.5886
  198SOL    HW2  594   0.901   1.303   0.639  1.2711 -0.4300  3.0819
  199SOL     OW  595   2.985   0.373   1.874  0.1000 -0.1539  0.2852
  199SOL    HW1  596   2.900   0.427   1.867  2.0199 -1.9071 -0.2674
  199SOL    HW2  597   3.039   0.378   1.789 -0.9700  0.2730  1.5792
  200SOL     OW  598   2.265   2.135   2.605  0.2543  0.1061  0.4236
  200SOL    HW1  599   2.244   2.084   2.692 -0.4972  1.0243  0.8855
  200SOL    HW2  600   2.188   2.197   2.579 -1.2855  0.0127 -0.7662
  201SOL     OW  601   2.520   2.969   0.715  0.0080 -0.4016 -0.0849
  201SOL    HW1  602   2.552   3.061   0.747 -1.1176 -0.7343  0.3324
  201SOL    HW2  603   2.603   2.911   0.705  1.1195 -1.1978 -0.0597
  202SOL     OW  604   2.767   0.581   0.115  0.2593 -0.6447 -0.2798
  202SOL    HW1  605   2.849   0.626   0.073 -0.5220 -2.0664 -0.8083
  202SOL    HW2  606   2.755   0.490   0.072  0.2601  2.8724  1.8172
  203SOL     OW  607   1.408   1.462   2.256 -0.2523  0.2383  0.2226
  203SOL    HW1  608   1.471   1.441   2.177 -0.8305 -0.7380  0.0657
  203SOL    HW2  609   1.448   1.420   2.339  0.4012 -0.5245 -0.3000
  204SOL     OW  610   0.910   1.493   2.226  0.3322 -0.2778  0.1997
  204SOL    HW1  611   0.911   1.393   2.252  3.0174 -1.0671  1.0516
  204SOL    HW2  612   0.830   1.509   2.168  0.9997 -3.0219  0.9710
  205SOL     OW  613   1.310   1.975   1.505 -1.0989 -0.7488  0.4144
  205SOL    HW1  614   1.317   1.970   1.610  0.4487  1.7135  1.1995
  205SOL    HW2  615   1.391   2.021   1.460 -1.3220  0.9555 -3.1841
  206SOL     OW  616   0.095   0.577   2.779  0.1093  0.0093 -0.0402
  206SOL    HW1  617   0.116   0.485   2.737 -0.4226 -0.7264 -0.8124
  206SOL    HW2  618   0.095   0.645   2.704  0.1571 -3.4056 -0.4282
  207SOL     OW  619   1.631   2.884   2.082 -0.1589  0.0930  0.0158
  207SOL    HW1  620   1.581   2.937   2.154  0.5489 -0.2638 -1.6156
  207SOL    HW2  621   1.710   2.842   2.126 -0.8710  1.8215 -0.4268
  208SOL     OW  622   0.545   2.306   1.762 -0.0900  0.8536  0.2175
  208SOL    HW1  623   0.448   2.309   1.728  1.0479  1.6334  0.6660
  208SOL    HW2  624   0.601   2.383   1.732 -0.4811 -2.9160 -2.5227
  209SOL     OW  625   1.811   0.885   2.700  0.0825  0.2716 -0.1764
  209SOL    HW1  626   1.736   0.949   2.672 -1.0343  1.8980 -0.0787
  209SOL    HW2  627   1.768   0.816   2.762 -1.2481 -2.2171 -2.7236
  210SOL     OW  628   2.587   0.512   0.793  0.7529 -0.1488  0.0030
  210SOL    HW1  629   2.517   0.587   0.771  0.2266  1.5161 -0.4375
  210SOL    HW2  630   2.635   0.484   0.705  0.4239  1.1734 -1.9223
  211SOL     OW  631   0.710   0.821   0.929 -0.2713  0.2926  0.6249
  211SOL    HW1  632   0.793   0.847   0.976 -2.0822 -1.8830  0.7244
  211SOL    HW2  633   0.730   0.763   0.847  0.2400  1.2039 -0.0110
  212SOL     OW  634   1.241   1.576   0.435  0.4581  0.0730  0.5663
  212SOL    HW1  635   1.174   1.503   0.415  2.0693  0.0522 -1.3732
  212SOL    HW2  636   1.308   1.594   0.356  0.8010  0.4851  0.4236
  213SOL     OW  637   1.451   0.076   1.788  0.1188  0.3801 -0.1249
  213SOL    HW1  638   1.501   0.071   1.700  1.8346  1.6457  0.2332
  213SOL    HW2  639   1.356   0.115   1.764 -2.9852 -0.0335 -1.7870
  214SOL     OW  640   1.574   1.368   2.472  0.1575  0.8706  0.6586
  214SOL    HW1  641   1.541   1.435   2.542  1.1613 -0.5666  3.6829
  214SOL    HW2  642   1.644   1.412   2.410 -2.0342  0.4013 -1.4599
  215SOL     OW  643   0.474   1.849   1.089  0.0414 -0.4516 -0.1129
  215SOL    HW1  644   0.556   1.799   1.121  0.5226  0.1616  1.3500
  215SOL    HW2  645   0.467   1.853   0.984 -1.4590 -0.1977 -2.7604
  216SOL     OW  646   0.632   2.839   2.342 -0.1987 -0.1153 -0.2637
  216SOL    HW1  647   0.604   2.917   2.283 -0.7793  0.7352 -0.2494
  216SOL    HW2  648   0.693   2.860   2.421 -0.5518 -0.1097  0.6640
  217SOL     OW  649   2.436   0.588   3.055  0.4141  0.3440  0.0225
  217SOL    HW1  650   2.394   0.533   2.980  2.0034  2.2711  1.8166
  217SOL    HW2  651   2.499   0.660   3.018 -0.2207  2.6248  1.3857
  218SOL     OW  652   2.207   1.723   2.179 -0.0900  0.2160  0.0405
  218SOL    HW1  653   2.163   1.764   2.262 -1.7635  3.3850  0.5657
  218SOL    HW2  654   2.238   1.787   2.112 -1.6032 -2.6772  2.2553
  219SOL     OW  655   1.791   0.969   0.229  0.4234 -0.1080  0.4507
  219SOL    HW1  656   1.757   0.982   0.132 -2.9725 -1.6953  0.6916
  219SOL    HW2  657   1.795   1.056   0.282 -0.0425 -0.7349  1.3727
  220SOL     OW  658   1.584   1.838   1.001 -0.0375  0.0354 -0.3600
  220SOL    HW1  659   1.589   1.938   0.985  2.8058  1.2882 -1.3041
  220SOL    HW2  660   1.484   1.804   1.008  1.6980  0.0008  0.9571
  221SOL     OW  661   0.156   0.581   3.030 -0.4148  0.0548 -0.0191
  221SOL    HW1  662   0.199   0.492   3.057 -2.2700 -0.8688 -0.1583
  221SOL    HW2  663   0.140   0.579   2.929  3.3585 -3.0999  0.0834
  222SOL     OW  664   1.159   2.210   1.655 -0.2010  0.4600  0.4612
  222SOL    HW1  665   1.195   2.231   1.556  1.9442  0.7675 -3.2535
  222SOL    HW2  666   1.229   2.195   1.724 -1.5118  2.6839 -4.0454
  223SOL     OW  667   1.427   2.725   2.730  0.5402  0.8940  0.0931
  223SOL    HW1  668   1.499   2.653   2.747 -1.3145  1.2797 -0.1806
  223SOL    HW2  669   1.403   2.775   2.815 -0.7037  0.2638  1.6117
  224SOL     OW  670   2.521   1.356   1.013  0.1005  0.2586  0.1737
  224SOL    HW1  671   2.602   1.325   1.067 -0.0302 -0.2877  2.7829
  224SOL    HW2  672   2.457   1.281   0.991 -0.4783 -1.0799  0.0102
  225SOL     OW  673   1.233   1.288   1.341  0.0991 -0.3670  0.3386
  225SOL    HW1  674   1.140   1.309   1.374  0.4553 -0.0750 -1.1863
  225SOL    HW2  675   1.295   1.238   1.405 -0.4198 -0.6447 -0.3661
  226SOL     OW  676   1.633   2.543   2.820 -0.3511 -0.1726 -0.0745
  226SOL    HW1  677   1.653   2.632   2.873  1.4564 -2.6200 -1.4433
  226SOL    HW2  678   1.600   2.468   2.882 -1.8121  3.3373  0.5262
  227SOL     OW  679   0.814   2.169   0.939 -0.1084  0.2686  0.0100
  227SOL    HW1  680   0.721   2.190   0.976  1.4967 -0.0036 -1.5165
  227SOL    HW2  681   0.880   2.192   1.018 -1.9245  0.9288  0.3231
  228SOL     OW  682   0.185   2.153   1.282  0.6964 -0.5206  0.0159
  228SOL    HW1  683   0.100   2.158   1.342  0.9260 -0.7125 -1.0630
  228SOL    HW2  684   0.148   2.151   1.186 -2.4082 -2.2027 -1.3814
  229SOL     OW  685   2.089   0.867   3.054  0.1904  0.7220 -0.5399
  229SOL    HW1  686   2.150   0.938   0.005 -0.8824  1.2250 -2.2148
  229SOL    HW2  687   2.050   0.811   0.036  1.7556  2.7322  3.5969
  230SOL     OW  688   1.048   1.083   2.037  0.1711  0.0208 -0.5137
  230SOL    HW1  689   1.067   1.160   2.102  0.7772 -1.1229  1.6187
  230SOL    HW2  690   1.117   1.008   2.041 -0.3528 -1.3997  2.0416
  231SOL     OW  691   1.465   1.958   1.992  0.0776 -0.0390  0.3755
  231SOL    HW1  692   1.529   1.888   2.026 -2.1700  2.2337  0.6777
  231SOL    HW2  693   1.390   1.910   1.934 -1.2530 -1.0859 -2.0233
  232SOL     OW  694   2.148   2.213   1.325 -0.2032  0.2826  0.4767
  232SOL    HW1  695   2.126   2.191   1.421 -0.1690 -0.7601 -4.3639
  232SOL    HW2  696   2.079   2.277   1.280 -0.7573  1.0428  1.4899
  233SOL     OW  697   1.733   2.529   2.302 -0.0984 -0.4909  0.2422
  233SOL    HW1  698   1.761   2.546   2.398  2.5659  2.2351  0.8120
  233SOL    HW2  699   1.802   2.570   2.235  0.7351  3.0271 -1.4161
  234SOL     OW  700   1.038   3.090   2.745  0.3367  0.0347  0.6853
  234SOL    HW1  701   1.119   3.024   2.721 -0.5624 -2.7058 -1.0126
  234SOL    HW2  702   0.944   3.051   2.734 -3.2325 -0.2137  0.0690
  235SOL     OW  703   2.439   2.787   3.053  0.0366 -0.0524  0.0035
  235SOL    HW1  704   2.486   2.699   3.047 -1.7407  2.3252 -0.2938
  235SOL    HW2  705   2.456   2.825   0.049  1.4695 -2.3169 -0.9988
  236SOL     OW  706   2.062   2.670   2.368  0.0011  0.2547  0.0063
  236SOL    HW1  707   2.143   2.626   2.320  0.4749  2.2125 -1.5943
  236SOL    HW2  708   2.092   2.730   2.447 -1.1594 -0.1640  2.2705
  237SOL     OW  709   1.492   1.002   1.733  0.0154 -0.3435  0.2791
  237SOL    HW1  710   1.561   0.948   1.689  1.0619  3.6899  2.0982
  237SOL    HW2  711   1.429   1.045   1.668 -0.1435 -0.4642  1.8139
  238SOL     OW  712   2.173   3.079   2.124  0.0340  0.0064  0.1504
  238SOL    HW1  713   2.179   0.060   2.055 -1.1091 -0.6399 -0.7942
  238SOL    HW2  714   2.179   2.989   2.077 -3.3890  0.5299 -2.9303
  239SOL     OW  715   0.673   1.537   2.102 -0.2807  0.3691  0.1589
  239SOL    HW1  716   0.608   1.490   2.040  1.3353 -0.4877 -1.7479
  239SOL    HW2  717   0.653   1.632   2.125  0.0477 -0.6171 -0.2987
  240SOL     OW  718   0.040   2.549   0.648  0.1733 -0.0017 -0.6040
  240SOL    HW1  719   3.051   2.508   0.695  0.1736 -1.0749 -0.7524
  240SOL    HW2  720   0.017   2.632   0.589 -1.0958  5.2449 -0.9121
  241SOL     OW  721   1.740   2.060   0.751  0.3279 -0.3385  0.2928
  241SOL    HW1  722   1.806   2.000   0.796 -3.4837  0.6809 -1.8233
  241SOL    HW2  723   1.761   2.059   0.652 -1.2863  0.6809  0.7545
  242SOL     OW  724   1.217   1.747   2.941 -0.4522 -0.5742 -0.4026
  242SOL    HW1  725   1.307   1.706   2.961 -3.5166 -1.4932  1.9246
  242SOL    HW2  726   1.226   1.851   2.947  0.2635  3.3616 -1.2869
  243SOL     OW  727   0.878   2.790   2.230  0.5310  0.1311 -0.2057
  243SOL    HW1  728   0.781   2.791   2.253  3.0617 -0.8129 -4.4646
  243SOL    HW2  729   0.929   2.725   2.297 -0.5456 -0.4678  0.5757
  244SOL     OW  730   1.955   2.971   2.658 -0.7035  1.2374  0.2424
  244SOL    HW1  731   1.891   2.911   2.607  3.6665 -1.5443 -0.1842
  244SOL    HW2  732   1.994   3.037   2.586  0.7548  0.5530 -4.3460
  245SOL     OW  733   1.409   2.797   0.667  0.0734  0.8814 -0.4955
  245SOL    HW1  734   1.423   2.797   0.564  1.4099  1.4948 -2.5111
  245SOL    HW2  735   1.308   2.812   0.685 -1.5153  3.7337 -0.3072
  246SOL     OW  736   0.906   3.013   3.035  0.5903 -0.2353  0.1137
  246SOL    HW1  737   0.984   2.985   2.977  0.5654  2.5546  1.5740
  246SOL    HW2  738   0.940   3.064   0.021  0.2700 -2.5353  0.8555
  247SOL     OW  739   0.028   0.743   2.035  0.3674 -0.4153 -0.3057
  247SOL    HW1  740   3.023   0.709   2.045 -0.5007  1.4658  2.7667
  247SOL    HW2  741   0.087   0.666   2.027  2.1664  1.5899  0.4978
  248SOL     OW  742   0.690   1.079   2.028  0.1374  0.7482  0.5144
  248SOL    HW1  743   0.675   0.991   2.075  0.5513  0.2033 -1.4147
  248SOL    HW2  744   0.731   1.149   2.092  1.3083  1.6568  0.8567
  249SOL     OW  745   2.311   0.495   0.191  0.1890  0.3937  0.3745
  249SOL    HW1  746   2.268   0.405   0.165 -1.5076  0.1751 -1.5464
  249SOL    HW2  747   2.347   0.549   0.109 -1.5450  0.4637  0.6740
  250SOL     OW  748   0.577   0.074   0.402 -0.1712  0.0948 -0.2142
  250SOL    HW1  749   0.577   0.012   0.481  2.4846  2.5279  1.2943
  250SOL    HW2  750   0.669   0.099   0.376 -0.3091 -1.0268  1.3143
  251SOL     OW  751   1.256   0.160   2.801 -0.0868 -0.1949  0.0699
  251SOL    HW1  752   1.171   0.103   2.781 -2.9195 -1.2803 -1.8723
  251SOL    HW2  753   1.299   0.197   2.716  0.3246 -2.9656  2.1779
  252SOL     OW  754   1.752   1.528   2.366 -0.2560 -0.0697  0.7574
  252SOL    HW1  755   1.809   1.585   2.430 -2.9306 -2.9146 -0.4789
  252SOL    HW2  756   1.804   1.518   2.280 -1.1654  1.2061  1.0755
  253SOL     OW  757   2.344   2.377   1.946  0.2163 -0.0907  0.2508
  253SOL    HW1  758   2.403   2.463   1.951  2.9748  0.1458  1.9309
  253SOL    HW2  759   2.313   2.363   1.847 -0.8807 -1.7420 -2.6922
  254SOL     OW  760   0.917   2.070   1.627 -0.0194  0.5894 -0.2541
  254SOL    HW1  761   0.889   2.064   1.531 -2.0916 -0.8941 -1.2540
  254SOL    HW2  762   1.006   2.112   1.636  0.8042 -0.5143 -0.8424
  255SOL     OW  763   1.096   1.080   0.882 -0.4778 -0.0507  0.3815
  255SOL    HW1  764   1.134   1.161   0.934  0.3500  1.3149  0.1509
  255SOL    HW2  765   1.045   1.106   0.800  0.2599 -3.2919 -0.0689
  256SOL     OW  766   1.938   1.924   2.146 -0.1150 -0.4740 -0.1352
  256SOL    HW1  767   1.991   1.952   2.062  0.2701  0.6165  3.2250
  256SOL    HW2  768   2.001   1.914   2.227  0.9456  0.5923  2.3323
  257SOL     OW  769   0.686   2.327   2.983  0.1836 -0.1352  0.7777
  257SOL    HW1  770   0.715   2.406   2.923 -2.1050  1.3080  1.2831
  257SOL    HW2  771   0.589   2.346   3.016  0.3281  1.1312 -0.6788
  258SOL     OW  772   0.622   0.208   2.128  0.3754  0.3608 -0.3805
  258SOL    HW1  773   0.725   0.191   2.137  1.2787  1.6761 -1.7638
  258SOL    HW2  774   0.610   0.296   2.073  0.3267  1.8237 -0.1761
  259SOL     OW  775   0.896   0.179   2.188 -0.7028 -0.3305  0.2588
  259SOL    HW1  776   0.961   0.118   2.135  0.2794  1.9553  1.8094
  259SOL    HW2  777   0.942   0.264   2.226 -3.7052 -2.8968  0.1778
  260SOL     OW  778   1.397   0.894   0.986  0.4302 -0.3572  0.0201
  260SOL    HW1  779   1.394   0.992   1.007  1.0009 -0.5302  2.1010
  260SOL    HW2  780   1.323   0.872   0.917 -0.5430  0.6078 -0.1534
  261SOL     OW  781   0.556   3.036   2.686  0.4063  0.0132 -0.7263
  261SOL    HW1  782   0.600   3.049   2.780  2.6828 -0.0338  1.0985
  261SOL    HW2  783   0.501   0.027   2.656 -0.0637  3.3975 -1.2963
  262SOL     OW  784   2.382   2.854   2.260 -0.0484 -0.0590  0.2610
  262SOL    HW1  785   2.450   2.929   2.240 -0.0450 -1.0763 -2.2238
  262SOL    HW2  786   2.319   2.843   2.179 -1.4511  2.4131 -0.6706
  263SOL     OW  787   0.387   2.071   2.467 -0.3788 -0.0866  0.3964
  263SOL    HW1  788   0.452   2.104   2.538 -3.7853  0.1520 -0.4478
  263SOL    HW2  789   0.302   2.030   2.511 -0.4124 -2.9436  0.5882
  264SOL     OW  790   0.918   1.420   1.176  0.2118 -0.0207  0.2051
  264SOL    HW1  791   0.991   1.488   1.177 -1.0021 -0.6483  1.0255
  264SOL    HW2  792   0.883   1.397   1.083 -0.2180  0.0172 -0.1662
  265SOL     OW  793   0.351   1.901   3.074 -0.1495 -0.9619  0.2601
  265SOL    HW1  794   0.314   1.839   3.008  0.7252 -0.0102  0.2302
  265SOL    HW2  795   0.438   1.870   0.022  0.0883  1.1365 -1.5620
  266SOL     OW  796   1.155   1.180   0.432  0.0744  0.0705 -0.1267
  266SOL    HW1  797   1.225   1.210   0.497 -0.3268 -0.6530  0.8679
  266SOL    HW2  798   1.092   1.107   0.466 -0.3511  0.4293 -0.7173
  267SOL     OW  799   2.611   0.899   0.151 -0.3355  0.4804  0.2631
  267SOL    HW1  800   2.700   0.890   0.097  1.7204  1.5942 -0.2522
  267SOL    HW2  801   2.581   0.807   0.196  0.9330 -1.9196  1.0106
  268SOL     OW  802   2.469   0.014   2.648 -0.2773  0.0437 -0.0102
  268SOL    HW1  803   2.426   0.028   2.556  0.5501 -1.4042  0.1425
  268SOL    HW2  804   2.462   3.009   2.677  3.1545 -0.6750 -1.4167
  269SOL     OW  805   1.602   0.596   2.545  0.4231  0.5343 -0.1782
  269SOL    HW1  806   1.532   0.666   2.529 -1.2657 -0.4188  2.0869
  269SOL    HW2  807   1.685   0.612   2.495 -3.2301 -0.8073  1.4574
  270SOL     OW  808   0.961   1.128   2.647 -0.8168 -0.6978  0.2966
  270SOL    HW1  809   0.900   1.107   2.726  2.1334 -1.4213 -2.6112
  270SOL    HW2  810   1.030   1.197   2.675  1.5237  0.7808  0.0605
  271SOL     OW  811   2.620   1.197   0.147  0.1425  0.3210 -0.0656
  271SOL    HW1  812   2.588   1.099   0.122 -0.5980 -3.5525 -1.1164
  271SOL    HW2  813   2.675   1.200   0.234  0.9931 -0.1282  0.6278
  272SOL     OW  814   2.879   1.509   2.780  0.0252 -0.2061 -0.1592
  272SOL    HW1  815   2.795   1.543   2.826 -0.1912 -3.8403  0.4287
  272SOL    HW2  816   2.946   1.586   2.761  1.5030  0.9972  0.2693
  273SOL     OW  817   2.105   0.376   0.424 -0.2994 -0.2091 -0.0587
  273SOL    HW1  818   2.031   0.442   0.418  2.7672 -3.0003 -2.1343
  273SOL    HW2  819   2.120   0.348   0.328 -0.0846 -1.6601  2.0445
  274SOL     OW  820   0.243   2.591   1.119 -0.0548  0.1292  0.1865
  274SOL    HW1  821   0.252   2.485   1.124  2.0244 -1.4827  0.8227
  274SOL    HW2  822   0.292   2.627   1.202  1.9020  0.4373  3.0703
  275SOL     OW  823   2.308   1.501   0.566  0.0083 -0.0671  0.0279
  275SOL    HW1  824   2.261   1.508   0.479 -1.8123 -1.1790  1.7209
  275SOL    HW2  825   2.354   1.588   0.589  0.5552 -3.4164 -2.6224
  276SOL     OW  826   0.102   1.209   2.420  0.5236 -0.6032  0.1314
  276SOL    HW1  827   0.014   1.172   2.378  0.8461  1.1221 -0.0085
  276SOL    HW2  828   0.128   1.279   2.354 -0.2142 -3.3986 -0.1703
  277SOL     OW  829   1.844   2.628   1.447 -0.0556 -0.1019  0.0144
  277SOL    HW1  830   1.881   2.562   1.518 -0.9203 -2.7996  0.5285
  277SOL    HW2  831   1.911   2.654   1.379 -2.5821 -0.6929  1.0362
  278SOL     OW  832   1.107   0.051   2.025  0.0384 -0.3156  0.1854
  278SOL    HW1  833   1.074   3.085   1.948  1.4199  1.7737  0.6603
  278SOL    HW2  834   1.209   0.057   2.030 -0.3357 -0.4814 -1.7971
  279SOL     OW  835   1.643   1.573   0.502 -0.2619  0.1928  0.2370
  279SOL    HW1  836   1.558   1.612   0.547  1.5515 -0.0515  2.3005
  279SOL    HW2  837   1.711   1.648   0.496 -0.7426 -0.8062  0.1453
  280SOL     OW  838   0.649   1.818   0.722 -0.0974 -0.8829  0.0403
  280SOL    HW1  839   0.661   1.867   0.635  0.4849  1.3263 -1.0131
  280SOL    HW2  840   0.558   1.837   0.760 -0.5526 -0.1889 -1.8198
  281SOL     OW  841   2.862   0.443   2.555  0.2610 -0.1117  0.0866
  281SOL    HW1  842   2.770   0.412   2.521  0.1526 -0.8964 -0.6570
  281SOL    HW2  843   2.898   0.375   2.620 -0.1704  0.0724 -3.4493
  282SOL     OW  844   0.474   0.888   0.619  0.2394  0.2393  0.3894
  282SOL    HW1  845   0.383   0.842   0.622 -1.5245  1.3649 -0.0554
  282SOL    HW2  846   0.469   0.982   0.656 -1.7789  1.8533 -3.1922
  283SOL     OW  847   1.965   1.875   0.234 -0.1262  0.4405 -0.4050
  283SOL    HW1  848   1.996   1.939   0.160 -1.0261 -2.9981  1.0763
  283SOL    HW2  849   1.889   1.924   0.280  2.6099  0.5354 -0.5618
  284SOL     OW  850   1.295   1.137   0.188  0.7929 -0.6965  0.1088
  284SOL    HW1  851   1.252   1.164   0.276  0.6005 -1.8059 -0.0802
  284SOL    HW2  852   1.359   1.214   0.164  0.6917  0.5874  1.2597
  285SOL     OW  853   2.147   0.706   2.578 -0.0080 -0.3876  0.5162
  285SOL    HW1  854   2.142   0.748   2.672 -0.9464 -1.2171 -2.2359
  285SOL    HW2  855   2.086   0.627   2.583  0.1660 -0.4740 -0.9805
  286SOL     OW  856   1.559   2.560   1.384  0.0067  0.1651  0.4710
  286SOL    HW1  857   1.519   2.512   1.463 -0.1751 -0.7793  0.2230
  286SOL    HW2  858   1.665   2.566   1.390 -1.2983 -2.4348 -1.2684
  287SOL     OW  859   1.242   1.288   1.053  0.4019  0.0270  0.2819
  287SOL    HW1  860   1.335   1.250   1.039  1.5462 -0.5319  0.2569
  287SOL    HW2  861   1.227   1.316   1.150 -1.0403 -0.5461 -1.1432
  288SOL     OW  862   1.119   2.873   2.946  0.4610 -0.0409  0.0374
  288SOL    HW1  863   1.214   2.869   2.972 -0.0512  0.8611 -1.9202
  288SOL    HW2  864   1.101   2.838   2.848 -2.6790  1.5275  1.1272
  289SOL     OW  865   0.453   1.473   1.897 -0.1576 -0.2503 -0.0043
  289SOL    HW1  866   0.514   1.511   1.823  1.2733 -0.4531 -0.0210
  289SOL    HW2  867   0.365   1.516   1.898 -0.2678 -1.9543 -1.0807
  290SOL     OW  868   1.763   2.240   0.969 -0.4262 -0.6688 -0.2486
  290SOL    HW1  869   1.767   2.179   0.887  0.3998 -2.0496 -0.3258
  290SOL    HW2  870   1.860   2.269   0.983  1.9798 -1.0921 -0.3082
  291SOL     OW  871   2.007   2.491   2.743  0.1378  0.0665 -0.5864
  291SOL    HW1  872   1.990   2.544   2.829 -1.1087 -0.1363 -0.5098
  291SOL    HW2  873   2.101   2.507   2.713 -0.1008 -2.9282  1.1575
  292SOL     OW  874   0.859   0.991   1.824  0.0919 -0.6195 -0.5082
  292SOL    HW1  875   0.836   1.057   1.901  0.4052 -0.1758  0.6622
  292SOL    HW2  876   0.945   1.025   1.781 -1.9272 -0.9140  2.7008
  293SOL     OW  877   2.017   2.572   0.822 -0.6900  0.1276  0.4580
  293SOL    HW1  878   1.973   2.649   0.873  1.6740  1.2225  0.9906
  293SOL    HW2  879   2.112   2.598   0.792  5.1556 -1.3114  0.9568
  294SOL     OW  880   0.547   0.525   2.464 -0.2563 -0.3378 -0.0104
  294SOL    HW1  881   0.466   0.521   2.524  3.8644  0.7821 -0.2500
  294SOL    HW2  882   0.630   0.515   2.526  0.5862  1.5132  2.2225
  295SOL     OW  883   1.422   1.669   0.639  0.4080 -0.0031  0.0851
  295SOL    HW1  884   1.451   1.613   0.715  2.2517  3.5324 -2.9191
  295SOL    HW2  885   1.354   1.615   0.586  2.9027 -0.0900  0.3785
  296SOL     OW  886   2.312   1.991   0.229  0.2292 -0.3172 -0.0501
  296SOL    HW1  887   2.408   2.001   0.207 -0.7093 -2.5777  0.8367
  296SOL    HW2  888   2.301   1.901   0.275  0.0439 -1.0883  2.1740
  297SOL     OW  889   2.228   0.224   0.128  0.1113  0.5866  0.2976
  297SOL    HW1  890   2.292   0.207   0.051 -1.3717  1.7200  0.6671
  297SOL    HW2  891   2.164   0.144   0.145 -1.0350  0.8518 -2.6555
  298SOL     OW  892   1.401   2.325   2.353 -0.0950 -0.4562  0.1886
  298SOL    HW1  893   1.416   2.261   2.269  0.9263 -3.5036 -1.5938
  298SOL    HW2  894   1.414   2.427   2.335 -2.1979  2.7142  0.5594
  299SOL     OW  895   1.340   2.757   2.475  0.2743  1.2003  0.9522
  299SOL    HW1  896   1.385   2.750   2.564 -2.3097  1.4033  0.8291
  299SOL    HW2  897   1.387   2.697   2.404 -0.2688  1.2541 -1.5451
  300SOL     OW  898   2.077   0.086   2.520 -0.1920 -0.1188 -0.3506
  300SOL    HW1  899   2.056   0.174   2.562 -2.3112 -1.8533  1.7006
  300SOL    HW2  900   2.167   0.079   2.475  0.7834 -1.4532 -0.3807
  301SOL     OW  901   1.463   0.808   1.948 -0.2850 -0.3729 -0.0390
  301SOL    HW1  902   1.539   0.825   2.014 -1.0089 -1.5107  2.2686
  301SOL    HW2  903   1.478   0.854   1.858  1.1989  0.0163  0.4335
  302SOL     OW  904   2.640   2.336   0.141 -0.5782 -0.1113  0.0096
  302SOL    HW1  905   2.716   2.382   0.088  2.6582 -1.1554  1.0429
  302SOL    HW2  906   2.617   2.383   0.225 -0.4146 -0.3418 -1.5353
  303SOL     OW  907   2.775   2.336   2.326 -0.0719  0.2548 -0.0923
  303SOL    HW1  908   2.816   2.423   2.354 -0.1950  1.5624  0.1482
  303SOL    HW2  909   2.821   2.245   2.343  1.2895 -2.4833 -2.4992
  304SOL     OW  910   2.748   0.543   1.857  0.3278 -0.0702  0.4075
  304SOL    HW1  911   2.780   0.618   1.796  0.6018  1.7561 -0.8980
  304SOL    HW2  912   2.775   0.560   1.953 -0.2122 -5.7531 -0.5312
  305SOL     OW  913   0.664   2.051   1.728 -0.1970 -0.3405  0.2223
  305SOL    HW1  914   0.759   2.058   1.698  1.9280 -0.9567  0.2053
  305SOL    HW2  915   0.628   2.143   1.757  0.0731  1.8326  0.4250
  306SOL     OW  916   2.568   0.807   1.654  0.0322  0.2173 -0.0779
  306SOL    HW1  917   2.476   0.766   1.655  2.1799  0.7883 -0.5209
  306SOL    HW2  918   2.614   0.823   1.743  0.0201 -0.5354 -2.9839
  307SOL     OW  919   1.727   0.818   2.056  0.7784  0.0101 -0.0069
  307SOL    HW1  920   1.765   0.726   2.053  1.3841 -0.4537 -0.9297
  307SOL    HW2  921   1.772   0.879   1.989 -3.2618 -1.7462 -0.4057
  308SOL     OW  922   2.944   1.554   0.956  0.3554  0.5487 -1.2155
  308SOL    HW1  923   2.969   1.460   0.970 -0.5123  0.3374  1.2644
  308SOL    HW2  924   2.850   1.563   0.987  0.2027 -1.2485 -1.1570
  309SOL     OW  925   2.429   1.577   1.172  0.2302  0.4521 -0.5161
  309SOL    HW1  926   2.427   1.536   1.266  1.9608  0.6155  0.7587
  309SOL    HW2  927   2.456   1.509   1.102  0.1653 -1.7059  1.6632
  310SOL     OW  928   2.780   1.823   2.476  0.1337 -0.1544  0.5392
  310SOL    HW1  929   2.750   1.724   2.479  2.3450  1.2263 -0.4420
  310SOL    HW2  930   2.802   1.857   2.566 -0.1587  2.2721 -2.9542
  311SOL     OW  931   0.226   2.540   0.073  0.0250  0.1731  0.0113
  311SOL    HW1  932   0.174   2.629   0.087  0.2142 -1.7417  0.6090
  311SOL    HW2  933   0.207   2.470   0.147  0.1563 -0.5468 -0.7912
  312SOL     OW  934   2.151   1.486   0.768 -0.1112 -0.1627  0.2139
  312SOL    HW1  935   2.088   1.563   0.748  2.7474 -0.8815 -0.4973
  312SOL    HW2  936   2.221   1.476   0.693  0.0586  0.4505 -3.3451
  313SOL     OW  937   2.692   0.165   1.095 -0.0230  0.4353  0.0462
  313SOL    HW1  938   2.650   0.255   1.101  3.7206 -0.4529 -0.1982
  313SOL    HW2  939   2.675   0.130   1.003  1.3875 -1.1145  1.2334
  314SOL     OW  940   1.346   1.660   0.205  0.4510 -0.4346  0.4348
  314SOL    HW1  941   1.414   1.641   0.128  0.5965  0.1492 -0.9673
  314SOL    HW2  942   1.303   1.748   0.182  1.2496 -0.1308  0.6872
  315SOL     OW  943   1.088   2.259   2.053  0.3580  0.1353  0.1428
  315SOL    HW1  944   1.175   2.283   1.998  1.2411 -0.6204 -1.9138
  315SOL    HW2  945   1.039   2.176   2.016 -1.8276  2.4981  1.3258
  316SOL     OW  946   3.014   1.058   0.318  0.4225  0.3021  0.0528
  316SOL    HW1  947   3.062   1.141   0.277 -0.9776 -1.1580 -0.0705
  316SOL    HW2  948   3.081   1.013   0.378  3.6906  1.0103  0.3156
  317SOL     OW  949   0.607   2.947   0.580 -0.0004  0.9777  0.0301
  317SOL    HW1  950   0.648   2.866   0.531 -1.0917  1.7308  1.7818
  317SOL    HW2  951   0.640   2.952   0.676  1.3858 -1.0425  0.0463
  318SOL     OW  952   2.858   2.347   0.386 -0.2728 -0.0296  0.1127
  318SOL    HW1  953   2.799   2.264   0.369 -3.7657  0.2872 -1.4803
  318SOL    HW2  954   2.953   2.318   0.417  1.6368  0.1743 -1.2896
  319SOL     OW  955   0.740   1.283   2.787 -0.9989  0.0034  0.5058
  319SOL    HW1  956   0.764   1.374   2.750  0.5563 -2.8822  0.4730
  319SOL    HW2  957   0.692   1.286   2.876 -0.9633 -0.0229 -1.2701
  320SOL     OW  958   0.767   2.499   1.665  0.0600 -0.6578 -0.1903
  320SOL    HW1  959   0.855   2.491   1.709  1.4802 -2.0239 -0.0955
  320SOL    HW2  960   0.737   2.597   1.654  0.0827  1.4181 -1.9807
  321SOL     OW  961   1.545   2.143   2.968  0.1064  0.2677  0.1666
  321SOL    HW1  962   1.617   2.160   3.038 -0.2201  1.2583 -0.8153
  321SOL    HW2  963   1.583   2.137   2.873 -1.0864  0.0379  2.8021
  322SOL     OW  964   3.017   1.373   2.096 -0.0861 -0.3083 -0.5742
  322SOL    HW1  965   2.953   1.342   2.169 -1.4607  0.9676 -0.3438
  322SOL    HW2  966   2.981   1.343   2.007  1.3305  0.5512  1.9574
  323SOL     OW  967   2.314   1.048   0.373  0.0762  0.2582 -0.4002
  323SOL    HW1  968   2.414   1.052   0.394  2.0535  0.9817 -0.1812
  323SOL    HW2  969   2.299   0.963   0.321 -0.7930  2.8382  1.5418
  324SOL     OW  970   0.213   2.724   2.889 -0.2973  0.2705 -0.5257
  324SOL    HW1  971   0.266   2.711   2.973 -0.8109 -1.5289 -0.7879
  324SOL    HW2  972   0.152   2.644   2.873  0.4285  0.0807  0.6573
  325SOL     OW  973   1.565   0.303   2.435 -0.6277 -0.2221 -0.2312
  325SOL    HW1  974   1.598   0.402   2.431  1.0804 -3.0415  0.9504
  325SOL    HW2  975   1.593   0.245   2.360 -1.4821  0.8125 -1.2410
  326SOL     OW  976   2.322   2.482   1.442  0.4904 -0.5870  0.0897
  326SOL    HW1  977   2.391   2.510   1.512  0.6939 -0.1432  0.3010
  326SOL    HW2  978   2.359   2.487   1.345  1.5855 -1.8853 -1.5606
  327SOL     OW  979   1.856   0.267   0.059  0.2772  0.3957 -0.0879
  327SOL    HW1  980   1.920   0.326   0.110  0.6934 -0.2598  1.6529
  327SOL    HW2  981   1.891   0.237   3.060 -1.2775  1.6224 -0.7480
  328SOL     OW  982   2.834   0.792   2.316 -0.0986 -0.1738 -0.1540
  328SOL    HW1  983   2.851   0.871   2.255 -0.0517 -3.3103  1.6384
  328SOL    HW2  984   2.756   0.816   2.376  1.0922 -0.3169 -1.5431
  329SOL     OW  985   1.380   0.032   2.053  0.1356  0.4151  0.0748
  329SOL    HW1  986   1.415   3.052   2.115  0.6648  2.1704  0.8520
  329SOL    HW2  987   1.437   0.025   1.967  2.7830  0.8591  1.1145
  330SOL     OW  988   2.872   1.789   1.415  0.2248  0.0163  0.0399
  330SOL    HW1  989   2.970   1.779   1.412 -0.3448 -0.8981  1.2120
  330SOL    HW2  990   2.827   1.699   1.411  1.2249  0.4606 -0.7057
  331SOL     OW  991   0.629   1.389   2.357 -0.0755  0.1354 -0.1769
  331SOL    HW1  992   0.587   1.299   2.334  1.8393  1.6757 -0.5441
  331SOL    HW2  993   0.631   1.445   2.275 -1.8228 -2.5671 -1.5341
  332SOL     OW  994   0.264   2.985   1.769 -0.2691 -0.3799  0.1670
  332SOL    HW1  995   0.311   3.022   1.683  2.6933 -2.1119 -0.8867
  332SOL    HW2  996   0.216   3.054   1.824  2.2050 -1.4164 -0.3974
  333SOL     OW  997   2.500   2.558   1.644  0.1642 -0.1095 -0.4931
  333SOL    HW1  998   2.550   2.483   1.684  0.2179 -0.6133  0.4407
  333SOL    HW2  999   2.559   2.629   1.593  0.3037  0.1906  0.0765
  334SOL     OW 1000   1.043   2.125   0.775 -0.3387  0.4019  0.1835
  334SOL    HW1 1001   0.955   2.146   0.828 -2.3444  0.0301 -0.6487
  334SOL    HW2 1002   1.114   2.186   0.808  1.4224  1.7877 -0.0062
  335SOL     OW 1003   0.883   2.225   0.068 -0.5034  0.4843 -0.4953
  335SOL    HW1 1004   0.799   2.257   0.011 -1.7928  1.4065 -1.6487
  335SOL    HW2 1005   0.939   2.306   0.097  0.6832 -3.2766  1.3163
  336SOL     OW 1006   0.296   0.140   2.141  0.1419  0.3967  0.3145
  336SOL    HW1 1007   0.223   0.205   2.117  0.9843  1.6469  0.2692
  336SOL    HW2 1008   0.371   0.178   2.199  0.9781 -2.0420  2.5025
  337SOL     OW 1009   2.822   1.941   2.961 -0.2330 -0.1145 -0.2153
  337SOL    HW1 1010   2.793   1.896   3.047  0.6960  0.5957 -0.3490
  337SOL    HW2 1011   2.893   2.015   2.976  2.5740 -1.5798  0.0752
  338SOL     OW 1012   1.138   1.880   1.037  0.1035 -0.5620 -0.3316
  338SOL    HW1 1013   1.147   1.927   1.127  1.4986 -0.0571  0.1556
  338SOL    HW2 1014   1.042   1.889   0.996 -0.9267 -2.6937 -1.0127
  339SOL     OW 1015   0.032   0.276   2.078 -0.1778  0.1868  0.0411
  339SOL    HW1 1016   3.059   0.312   2.007  2.8576  2.0592  2.2800
  339SOL    HW2 1017   0.043   0.331   2.161 -0.5634 -0.6011 -0.2012
  340SOL     OW 1018   1.636   2.565   0.358  0.4165 -0.1265 -0.2945
  340SOL    HW1 1019   1.662   2.506   0.281  2.7551 -1.1261  0.1449
  340SOL    HW2 1020   1.653   2.507   0.441 -2.7861 -0.9573 -2.5878
  341SOL     OW 1021   1.953   1.581   1.026 -0.2752  0.1437  0.2115
  341SOL    HW1 1022   1.920   1.486   1.027  2.4615  0.7332  0.1525
  341SOL    HW2 1023   1.995   1.599   0.932  2.3970  0.0751 -0.8274
  342SOL     OW 1024   0.083   1.618   0.526  0.0209 -0.4246 -0.0132
  342SOL    HW1 1025   3.084   1.646   0.493  3.6717 -1.2670 -0.4316
  342SOL    HW2 1026   0.154   1.643   0.454  2.2939  2.1576 -0.9032
  343SOL     OW 1027   1.430   2.449   1.176 -0.5789 -0.0586 -0.1042
  343SOL    HW1 1028   1.489   2.482   1.252 -0.1407  1.6541  1.1830
  343SOL    HW2 1029   1.424   2.348   1.182 -1.0682  2.6918  0.7298
  344SOL     OW 1030   2.289   2.834   0.756  0.3131  0.2549 -0.1497
  344SOL    HW1 1031   2.207   2.894   0.735  1.0855 -0.1481 -4.3015
  344SOL    HW2 1032   2.371   2.886   0.723  0.9377  0.4568  2.1525
  345SOL     OW 1033   2.591   2.260   2.619  0.2399  0.3956 -0.2081
  345SOL    HW1 1034   2.586   2.197   2.540 -0.5573 -0.3062  1.1822
  345SOL    HW2 1035   2.686   2.268   2.654 -0.4075 -0.1862  1.4391
  346SOL     OW 1036   0.405   1.848   0.822  0.6684  0.5221 -0.2257
  346SOL    HW1 1037   0.330   1.780   0.808 -0.4462  1.2010  1.3326
  346SOL    HW2 1038   0.364   1.942   0.817 -1.1873  3.9883 -0.4594
  347SOL     OW 1039   1.963   2.381   1.195  0.3672  0.0831 -0.2059
  347SOL    HW1 1040   1.987   2.480   1.208  2.1811  0.2781  1.2523
  347SOL    HW2 1041   1.973   2.358   1.094  2.0175 -0.0225  2.3517
  348SOL     OW 1042   1.212   1.612   2.688 -0.1230  0.2619  0.2216
  348SOL    HW1 1043   1.214   1.669   2.770  0.5950  1.0475 -1.5977
  348SOL    HW2 1044   1.218   1.666   2.602 -0.1652 -2.0817 -0.5930
  349SOL     OW 1045   2.346   0.927   2.316  0.5583 -0.1162  0.4965
  349SOL    HW1 1046   2.326   0.996   2.388 -0.4529  1.8609 -0.4395
  349SOL    HW2 1047   2.256   0.894   2.271  0.3180 -0.9113 -0.8067
  350SOL     OW 1048   3.036   2.463   1.442  0.5858 -0.1733 -0.4179
  350SOL    HW1 1049   0.042   2.479   1.456 -0.3556 -1.3958 -2.2647
  350SOL    HW2 1050   3.007   2.497   1.348 -0.9096 -0.3778 -2.0917
  351SOL     OW 1051   0.495   0.349   2.844  0.4294 -0.0844  0.0437
  351SOL    HW1 1052   0.505   0.344   2.744 -0.0889  2.6765  0.6252
  351SOL    HW2 1053   0.578   0.312   2.890  1.3307  1.8202  0.4260
  352SOL     OW 1054   0.459   2.538   1.353 -0.0546 -0.3796  1.0677
  352SOL    HW1 1055   0.534   2.479   1.383 -0.7501 -2.6033 -1.0404
  352SOL    HW2 1056   0.449   2.606   1.428  2.2150 -1.8122 -2.1861
  353SOL     OW 1057   1.017   0.915   2.488 -0.7246 -0.4847  0.3163
  353SOL    HW1 1058   0.997   0.991   2.551 -0.8018 -2.9675 -2.1696
  353SOL    HW2 1059   1.095   0.934   2.429  0.3550 -0.0035  2.5722
  354SOL     OW 1060   1.629   0.857   0.426 -0.3527 -0.3715  0.1834
  354SOL    HW1 1061   1.530   0.871   0.448  1.2692  0.0941 -0.3424
  354SOL    HW2 1062   1.650   0.900   0.340  0.2306 -2.9684  0.5008
  355SOL     OW 1063   2.663   0.485   0.545  0.3417  0.3856  0.3434
  355SOL    HW1 1064   2.605   0.420   0.495  0.6766 -1.6848  1.3683
  355SOL    HW2 1065   2.730   0.526   0.480  1.4789  1.7627 -0.0074
  356SOL     OW 1066   2.696   0.944   2.522 -0.0983 -0.6299  0.0563
  356SOL    HW1 1067   2.792   0.921   2.533 -1.3308 -0.5364 -2.4368
  356SOL    HW2 1068   2.658   0.989   2.608  0.7073  0.7809  3.6682
  357SOL     OW 1069   0.680   2.753   1.675 -0.4536 -0.2922  0.4681
  357SOL    HW1 1070   0.752   2.792   1.608  0.3485  1.1367 -0.7741
  357SOL    HW2 1071   0.693   2.802   1.763 -0.2723 -1.4200 -0.0347
  358SOL     OW 1072   2.118   1.221   2.251 -0.3104 -0.4879 -0.0384
  358SOL    HW1 1073   2.152   1.316   2.222  1.6288  1.1715  0.7957
  358SOL    HW2 1074   2.093   1.228   2.346 -0.9417 -2.3551 -2.5548
  359SOL     OW 1075   2.463   2.423   2.808  0.3043  0.2120 -0.4923
  359SOL    HW1 1076   2.383   2.481   2.797  3.7994  1.0093  2.7271
  359SOL    HW2 1077   2.478   2.357   2.734 -1.2764 -0.4997  1.8295
  360SOL     OW 1078   2.257   0.468   0.713 -0.1914  0.1440 -1.1138
  360SOL    HW1 1079   2.280   0.526   0.790  0.3054 -4.0315 -2.9681
  360SOL    HW2 1080   2.287   0.499   0.623  0.6162 -0.6038  3.2343
  361SOL     OW 1081   1.911   2.876   1.133 -0.5925 -0.1226 -0.6067
  361SOL    HW1 1082   1.821   2.895   1.173 -1.1868 -1.0399 -0.4091
  361SOL    HW2 1083   1.904   2.877   1.033 -0.0926  1.5937  0.8426
  362SOL     OW 1084   1.371   1.232   0.579 -0.5635  0.4409 -0.1994
  362SOL    HW1 1085   1.452   1.279   0.539  1.0682 -0.7352 -0.4168
  362SOL    HW2 1086   1.388   1.225   0.677  0.6158  0.3373  0.0592
  363SOL     OW 1087   2.705   1.543   2.443  0.2798 -0.1249 -0.4326
  363SOL    HW1 1088   2.612   1.502   2.432 -0.8811 -2.0099  0.6956
  363SOL    HW2 1089   2.775   1.474   2.467  0.5918 -1.6036  0.4630
  364SOL     OW 1090   1.139   0.781   1.354  0.0683  0.1392 -0.0846
  364SOL    HW1 1091   1.089   0.715   1.413  0.4785 -1.0890  0.9397
  364SOL    HW2 1092   1.101   0.775   1.260  1.6481 -3.7859 -3.4018
  365SOL     OW 1093   0.064   3.027   0.993 -0.1260  0.6774  0.6315
  365SOL    HW1 1094   0.166   3.040   0.986  1.4078  2.3023 -2.4331
  365SOL    HW2 1095   0.028   2.977   0.913  0.0583  1.7430  1.1497
  366SOL     OW 1096   2.792   1.190   0.379  0.0624 -0.4512 -0.1582
  366SOL    HW1 1097   2.803   1.277   0.429 -0.8764  0.4420 -0.0799
  366SOL    HW2 1098   2.886   1.158   0.343 -0.3482 -1.3931  0.9623
  367SOL     OW 1099   3.087   2.103   2.991  0.5167  0.1925 -0.2654
  367SOL    HW1 1100   3.080   2.208   2.998  0.1661 -1.7135  1.1308
  367SOL    HW2 1101   0.041   2.063   3.074  1.2515 -0.5635  1.5548
  368SOL     OW 1102   0.113   2.400   0.885  0.4102  0.2799 -0.6085
  368SOL    HW1 1103   0.199   2.399   0.823 -2.0826  0.6858  0.3110
  368SOL    HW2 1104   0.080   2.496   0.904  0.8529 -1.0555 -0.4919
  369SOL     OW 1105   0.464   0.324   0.449  0.2487  0.0858  0.1210
  369SOL    HW1 1106   0.381   0.295   0.507  1.6987 -0.6137 -1.0180
  369SOL    HW2 1107   0.516   0.242   0.420 -1.6659 -0.9374 -1.7673
  370SOL     OW 1108   0.196   0.971   1.649 -0.0477  0.3577  0.1100
  370SOL    HW1 1109   0.245   1.046   1.693 -0.9238  0.0404 -2.3677
  370SOL    HW2 1110   0.213   0.970   1.548  0.2895  2.3512 -1.1309
  371SOL     OW 1111   2.235   2.174   0.874 -0.2488 -0.3325  1.1955
  371SOL    HW1 1112   2.229   2.119   0.959 -0.9129  0.9747 -0.9153
  371SOL    HW2 1113   2.296   2.134   0.807 -1.7245  3.7736  1.2684
  372SOL     OW 1114   2.951   0.921   2.643  0.3853  0.1401 -0.5269
  372SOL    HW1 1115   2.929   0.821   2.653 -0.5597  0.0501 -0.7938
  372SOL    HW2 1116   3.048   0.937   2.621 -2.5702 -0.4687 -0.8337
  373SOL     OW 1117   2.828   1.451   0.528 -0.1527 -0.2464 -0.6741
  373SOL    HW1 1118   2.853   1.542   0.492 -2.2635 -1.5506 -2.5774
  373SOL    HW2 1119   2.750   1.449   0.591  0.8497 -1.2417  0.6216
  374SOL     OW 1120   0.568   2.371   0.236 -0.0463 -0.0243  0.7170
  374SOL    HW1 1121   0.628   2.454   0.229 -3.4227  0.8134 -1.1140
  374SOL    HW2 1122   0.501   2.372   0.156 -0.0530 -1.4168 -3.5652
  375SOL     OW 1123   0.790   0.236   0.319  0.7466  0.7705  0.5560
  375SOL    HW1 1124   0.881   0.206   0.298 -0.9609  0.0751 -0.0410
  375SOL    HW2 1125   0.738   0.271   0.236 -1.2396  3.4154 -3.8476
  376SOL     OW 1126   0.265   2.970   2.207 -0.5168  0.5296 -1.1587
  376SOL    HW1 1127   0.264   3.066   2.182 -1.0724 -3.0670  3.5089
  376SOL    HW2 1128   0.182   2.926   2.172  0.7510  0.6653  1.7351
  377SOL     OW 1129   0.806   2.133   2.200 -0.5518  0.1046  0.0765
  377SOL    HW1 1130   0.755   2.217   2.167 -2.2791  1.6747  0.6566
  377SOL    HW2 1131   0.899   2.127   2.158  0.1243  0.2815 -0.3366
  378SOL     OW 1132   1.059   0.937   0.561  0.7820  0.6534  0.1207
  378SOL    HW1 1133   1.102   0.848   0.579  0.4987  2.9602  1.1154
  378SOL    HW2 1134   0.982   0.929   0.496 -3.0668 -0.1356  0.8375
  379SOL     OW 1135   1.050   1.535   2.989  0.2800  0.0237 -0.3128
  379SOL    HW1 1136   1.066   1.481   3.077  1.5012 -0.1035  1.1277
  379SOL    HW2 1137   1.129   1.602   2.976 -1.3265  1.0217 -0.4899
  380SOL     OW 1138   0.062   1.848   1.767  0.4014  0.7067 -0.4595
  380SOL    HW1 1139   3.081   1.830   1.833  0.3537  1.1822  0.8752
  380SOL    HW2 1140   0.069   1.948   1.748  2.6204 -1.2560 -1.2095
  381SOL     OW 1141   2.908   1.019   1.901 -0.1401 -0.5431  0.2128
  381SOL    HW1 1142   2.978   0.961   1.859 -1.8994  2.9370 -0.5401
  381SOL    HW2 1143   2.819   0.966   1.891 -0.5315 -0.6702  2.5804
  382SOL     OW 1144   2.424   2.309   3.063  0.0276 -0.3251  0.3915
  382SOL    HW1 1145   2.444   2.344   2.969 -0.3262 -0.7941 -3.5931
  382SOL    HW2 1146   2.497   2.337   0.037  2.7779 -1.4336  1.8538
  383SOL     OW 1147   2.409   1.980   2.131  0.0197 -0.1317  0.1152
  383SOL    HW1 1148   2.454   1.918   2.199  0.5498  2.2108 -0.3014
  383SOL    HW2 1149   2.355   2.054   2.178  0.3505  1.5055  0.6661
  384SOL     OW 1150   0.679   2.389   2.107  0.5195  0.3792  0.1682
  384SOL    HW1 1151   0.630   2.322   2.046  0.5245 -0.7539 -1.3000
  384SOL    HW2 1152   0.642   2.484   2.109  2.6738 -0.5500  0.1630
  385SOL     OW 1153   2.760   1.942   0.929  0.6269 -0.2691  0.3441
  385SOL    HW1 1154   2.832   2.016   0.931 -1.2634  3.3665  0.9080
  385SOL    HW2 1155   2.714   1.930   1.019 -1.9396 -0.7920  2.2488
  386SOL     OW 1156   1.740   0.700   2.885 -0.2705  0.2999 -0.5033
  386SOL    HW1 1157   1.707   0.611   2.848  0.6701 -0.8884  1.2883
  386SOL    HW2 1158   1.745   0.699   2.985 -1.0502  1.6081 -0.1685
  387SOL     OW 1159   0.214   0.533   1.914 -0.1484  0.2028 -0.3578
  387SOL    HW1 1160   0.244   0.597   1.843  1.2148 -1.4321  0.2832
  387SOL    HW2 1161   0.238   0.446   1.874 -0.1042  2.9965 -0.3504
  388SOL     OW 1162   2.685   1.077   1.571  0.1128  0.6388  0.0071
  388SOL    HW1 1163   2.628   0.999   1.611 -0.4542 -1.8465 -0.5192
  388SOL    HW2 1164   2.786   1.061   1.580 -0.5508 -0.0189  0.8634
  389SOL     OW 1165   1.683   0.866   2.318  0.0171 -0.5506 -0.0636
  389SOL    HW1 1166   1.677   0.972   2.323  0.6690  4.1092 -3.0909
  389SOL    HW2 1167   1.691   0.838   2.218  0.5738  0.5997  1.2956
  390SOL     OW 1168   2.019   2.244   0.460  0.0029  0.5576 -0.0742
  390SOL    HW1 1169   2.120   2.245   0.460  0.6065  0.0197 -1.7127
  390SOL    HW2 1170   1.981   2.339   0.491  1.3637 -1.8768  0.3642
  391SOL     OW 1171   1.871   2.802   0.863  0.3840  0.0200 -0.2263
  391SOL    HW1 1172   1.891   2.801   0.762  0.4139  2.7324  0.2625
  391SOL    HW2 1173   1.776   2.837   0.879 -1.5597  2.4095  0.5547
  392SOL     OW 1174   2.652   2.735   1.467 -0.4978 -0.4483 -0.4006
  392SOL    HW1 1175   2.631   2.829   1.430  0.7163 -1.1549  1.5762
  392SOL    HW2 1176   2.745   2.745   1.509 -0.8473  1.1473 -0.9667
  393SOL     OW 1177   1.856   1.715   2.796 -0.3431  0.2682  0.0208
  393SOL    HW1 1178   1.781   1.763   2.851 -2.5949  0.3537  0.3837
  393SOL    HW2 1179   1.931   1.683   2.857  2.2046 -0.0024 -1.3889
  394SOL     OW 1180   0.460   2.765   2.738  0.1327  0.3977 -0.2635
  394SOL    HW1 1181   0.475   2.862   2.703 -1.4846 -0.6671 -0.1986
  394SOL    HW2 1182   0.361   2.746   2.758 -2.3646  2.6141  1.4120
  395SOL     OW 1183   1.240   1.481   0.866 -0.0634 -0.0986  0.4133
  395SOL    HW1 1184   1.157   1.497   0.806 -0.4294 -2.7082  0.0145
  395SOL    HW2 1185   1.213   1.412   0.931  0.6621  1.4000 -2.7605
  396SOL     OW 1186   2.079   0.834   2.791  0.1492  0.1370  0.4869
  396SOL    HW1 1187   1.989   0.860   2.743 -1.8453  3.6583 -1.8218
  396SOL    HW2 1188   2.070   0.833   2.890 -0.7203  2.5888 -4.1494
  397SOL     OW 1189   0.100   0.707   2.558 -1.1678 -0.1092  0.1835
  397SOL    HW1 1190   0.029   0.654   2.499 -0.9437 -2.2007 -0.6596
  397SOL    HW2 1191   0.107   0.804   2.527 -2.4155 -1.7342 -0.0500
  398SOL     OW 1192   1.069   0.590   0.388 -0.2300 -0.8148 -0.1087
  398SOL    HW1 1193   1.099   0.494   0.397 -0.9128 -0.0890 -1.9195
  398SOL    HW2 1194   0.970   0.593   0.364  0.3726 -0.9895 -1.1256
  399SOL     OW 1195   1.905   0.032   1.689 -0.2763 -0.3688 -0.0412
  399SOL    HW1 1196   1.859   3.078   1.760  2.3929  2.5897 -2.6036
  399SOL    HW2 1197   1.842   0.041   1.610  1.5633  0.2151  2.7616
  400SOL     OW 1198   0.049   2.054   2.372  0.3997 -0.6918 -0.5673
  400SOL    HW1 1199   0.092   2.055   2.283  1.7984 -1.6223  5.2497
  400SOL    HW2 1200   0.060   1.963   2.416  1.2215  3.2615  1.2029
  401SOL     OW 1201   0.525   0.094   0.124 -0.7755 -0.2519  0.2425
  401SOL    HW1 1202   0.578   0.184   0.118  0.0302  0.9266  1.6001
  401SOL    HW2 1203   0.530   0.062   0.220 -0.5019 -0.3286 -1.4806
  402SOL     OW 1204   0.205   2.487   1.520  0.2431 -0.4794  0.5901
  402SOL    HW1 1205   0.280   2.504   1.454  2.2333 -0.6417 -0.2190
  402SOL    HW2 1206   0.232   2.409   1.582 -2.3160 -1.9449 -0.6315
  403SOL     OW 1207   0.267   1.386   1.163 -0.8201  0.1517  0.2453
  403SOL    HW1 1208   0.176   1.340   1.153  0.0618 -0.7855  0.5492
  403SOL    HW2 1209   0.261   1.482   1.198 -1.4267 -0.0809 -0.2252
  404SOL     OW 1210   0.022   2.714   1.972  0.1605  0.6481 -0.6115
  404SOL    HW1 1211   3.037   2.651   1.942  0.1621  0.2194  0.6352
  404SOL    HW2 1212   3.084   2.797   2.031 -1.7366  1.4144 -1.1826
  405SOL     OW 1213   2.827   0.387   2.250 -0.3271  0.0370  0.4281
  405SOL    HW1 1214   2.742   0.437   2.265  0.6459 -0.5529  0.5876
  405SOL    HW2 1215   2.841   0.318   2.324 -0.4060 -1.5388  3.0452
  406SOL     OW 1216   2.088   2.505   0.118  0.3871  0.0600  0.0701
  406SOL    HW1 1217   2.057   2.410   0.117  2.2976 -0.3612  1.9187
  406SOL    HW2 1218   2.075   2.546   0.210  1.5513  1.7035 -0.6270
  407SOL     OW 1219   1.968   1.684   0.760 -0.0215 -0.1492  0.0146
  407SOL    HW1 1220   1.935   1.766   0.813 -0.3459 -0.2362  2.6707
  407SOL    HW2 1221   1.919   1.690   0.670  0.5571 -0.6559  2.7020
  408SOL     OW 1222   0.472   0.317   2.314  0.5358 -0.5832  0.2896
  408SOL    HW1 1223   0.519   0.401   2.348  0.5640 -0.2243  2.7383
  408SOL    HW2 1224   0.528   0.262   2.249 -0.4147 -0.3827 -0.0085
  409SOL     OW 1225   2.685   1.735   0.783  0.1513 -0.8042 -0.0958
  409SOL    HW1 1226   2.665   1.664   0.854 -2.0650 -0.4827  2.1159
  409SOL    HW2 1227   2.698   1.823   0.830 -2.5100 -0.9496 -1.1830
  410SOL     OW 1228   2.174   1.348   1.059  0.4716 -0.7692  0.5138
  410SOL    HW1 1229   2.187   1.410   0.981  0.2387 -1.6907  0.4225
  410SOL    HW2 1230   2.146   1.395   1.144  0.3978  0.2447 -1.1386
  411SOL     OW 1231   0.061   0.745   0.264 -0.1680  0.5338 -0.1364
  411SOL    HW1 1232   0.125   0.685   0.317  2.7341 -1.8333  4.1634
  411SOL    HW2 1233   3.078   0.771   0.323  0.9296 -1.0211 -1.1951
  412SOL     OW 1234   1.468   0.437   0.318 -0.6447 -0.5229 -0.3069
  412SOL    HW1 1235   1.410   0.484   0.248  3.1270 -2.5996  0.0099
  412SOL    HW2 1236   1.517   0.499   0.384  1.0361  0.2145  0.4948
  413SOL     OW 1237   0.724   0.890   1.306 -0.2163 -0.7095  0.6811
  413SOL    HW1 1238   0.622   0.879   1.295  1.1174 -0.5751 -1.3078
  413SOL    HW2 1239   0.760   0.959   1.240  0.0478 -1.4354 -0.6146
  414SOL     OW 1240   0.076   1.273   2.830  0.0995 -0.0214  0.6366
  414SOL    HW1 1241   0.057   1.330   2.747  0.0806 -2.7850  0.9516
  414SOL    HW2 1242   0.171   1.285   2.862 -0.7516 -0.5168 -1.3249
  415SOL     OW 1243   0.288   1.690   2.887  0.0456 -0.2727 -0.6014
  415SOL    HW1 1244   0.353   1.713   2.815  0.5954  0.0146  2.5181
  415SOL    HW2 1245   0.194   1.663   2.849 -0.5961  0.9033  2.2245
  416SOL     OW 1246   1.403   0.854   0.222 -0.0117 -0.1588 -0.1527
  416SOL    HW1 1247   1.392   0.847   0.323  0.4402 -2.7801  0.4056
  416SOL    HW2 1248   1.399   0.955   0.203 -2.1103  1.8392 -2.1471
  417SOL     OW 1249   0.022   0.607   0.967  0.1300 -0.0589 -0.1347
  417SOL    HW1 1250   0.105   0.666   0.984  1.0795 -0.3167  2.0557
  417SOL    HW2 1251   3.083   0.607   0.873  1.2061 -0.5279 -1.5655
  418SOL     OW 1252   2.265   1.061   2.788  0.1140 -0.4838  0.0550
  418SOL    HW1 1253   2.201   0.984   2.784  0.4896 -0.5535  1.5930
  418SOL    HW2 1254   2.349   1.037   2.840  0.0539 -1.3992  2.0589
  419SOL     OW 1255   0.514   0.587   0.390 -0.0205 -0.5528  0.3514
  419SOL    HW1 1256   0.578   0.644   0.446 -2.5786  0.1073 -2.6965
  419SOL    HW2 1257   0.500   0.491   0.425 -1.2207  0.8809  1.9734
  420SOL     OW 1258   0.571   1.407   0.921 -0.0105  0.9681 -0.4021
  420SOL    HW1 1259   0.501   1.372   0.986 -0.5663 -2.7717  2.5309
  420SOL    HW2 1260   0.536   1.451   0.833  3.8221 -0.8501 -1.9641
  421SOL     OW 1261   0.205   2.026   0.182  0.0986  0.1701  0.4258
  421SOL    HW1 1262   0.256   1.971   0.110 -2.4109  1.9259 -0.4737
  421SOL    HW2 1263   0.265   2.016   0.261 -0.1584 -0.9148 -1.6276
  422SOL     OW 1264   2.381   0.327   1.507 -0.3621  0.2307  0.8744
  422SOL    HW1 1265   2.447   0.354   1.439 -1.1825 -1.0014 -1.8920
  422SOL    HW2 1266   2.416   0.346   1.600 -0.5477  0.1599 -3.8883
  423SOL     OW 1267   2.044   1.245   0.796 -0.0134  0.0076  0.2468
  423SOL    HW1 1268   2.088   1.335   0.766 -1.0061  1.3148  0.2961
  423SOL    HW2 1269   2.052   1.231   0.893 -0.6038 -2.1955 -2.3323
  424SOL     OW 1270   1.787   1.335   0.086  0.2734  0.3927  0.2728
  424SOL    HW1 1271   1.881   1.319   0.051  0.4170 -0.7844  0.9217
  424SOL    HW2 1272   1.713   1.292   0.024 -2.7666  0.5700  0.2607
  425SOL     OW 1273   0.009   2.886   2.208 -0.0348  0.0757  0.9583
  425SOL    HW1 1274   0.028   2.830   2.286  0.0830  3.6508 -2.1835
  425SOL    HW2 1275   3.074   2.983   2.238  0.2397  1.0517 -0.2805
  426SOL     OW 1276   2.604   2.791   2.701  0.0376 -0.6118 -0.3857
  426SOL    HW1 1277   2.519   2.824   2.743  2.0027 -0.6028 -1.1396
  426SOL    HW2 1278   2.580   2.769   2.603 -0.5258 -1.1353  0.4862
  427SOL     OW 1279   0.671   0.835   2.192 -0.8742  0.1538  0.2020
  427SOL    HW1 1280   0.574   0.801   2.198  1.2887 -1.1118 -1.4494
  427SOL    HW2 1281   0.692   0.854   2.290 -0.8161  0.2196 -1.2275
  428SOL     OW 1282   2.151   0.819   2.147 -0.6891 -0.0349 -0.5749
  428SOL    HW1 1283   2.204   0.840   2.064  1.3921 -0.5676 -0.0593
  428SOL    HW2 1284   2.067   0.871   2.149  0.4108  1.7740 -2.4112
  429SOL     OW 1285   2.415   0.149   0.527  0.2847 -0.4358  0.0869
  429SOL    HW1 1286   2.477   0.077   0.494 -1.0910  4.2698 -0.0008
  429SOL    HW2 1287   2.396   0.144   0.627  1.9056 -1.7460 -1.1215
  430SOL     OW 1288   1.772   1.215   2.119 -0.0844  0.2710  0.8343
  430SOL    HW1 1289   1.824   1.126   2.125 -0.9949 -1.1695 -0.2660
  430SOL    HW2 1290   1.721   1.218   2.031 -1.3204  2.2385 -1.9342
  431SOL     OW 1291   2.811   2.064   1.378  0.2712  0.5006  0.0098
  431SOL    HW1 1292   2.805   1.968   1.395  1.6331  3.6554 -1.0649
  431SOL    HW2 1293   2.823   2.099   1.282  0.6120  2.0872  0.2016
  432SOL     OW 1294   1.214   2.705   1.856 -0.0095 -0.2667  0.3805
  432SOL    HW1 1295   1.135   2.736   1.910  2.2888  0.5968  1.2695
  432SOL    HW2 1296   1.191   2.629   1.794 -0.8811  3.6996  0.3043
  433SOL     OW 1297   1.642   2.982   1.199 -0.0696  0.0639 -0.0277
  433SOL    HW1 1298   1.645   2.975   1.096  4.0380 -0.9007 -0.3337
  433SOL    HW2 1299   1.571   2.921   1.235  1.4132 -3.0673 -0.3424
  434SOL     OW 1300   0.199   2.354   2.114 -0.4279  0.0119 -0.6365
  434SOL    HW1 1301   0.207   2.456   2.091  0.9111  0.4372 -0.9549
  434SOL    HW2 1302   0.280   2.317   2.164 -0.5940  0.5520  0.9673
  435SOL     OW 1303   0.230   1.632   0.087 -0.2172  0.3114  0.0743
  435SOL    HW1 1304   0.135   1.649   0.051 -1.3115  0.1324 -0.7620
  435SOL    HW2 1305   0.305   1.663   0.024  1.7910 -2.6484  1.2330
  436SOL     OW 1306   0.612   1.191   1.798  0.6846  0.4248  0.3065
  436SOL    HW1 1307   0.650   1.284   1.799 -2.0263 -1.2288 -1.1114
  436SOL    HW2 1308   0.646   1.129   1.866 -1.5527  3.6154 -0.1970
  437SOL     OW 1309   1.087   0.629   3.065  0.0741 -0.0596  0.2453
  437SOL    HW1 1310   1.157   0.662   0.042  1.1370  1.7423 -0.3766
  437SOL    HW2 1311   1.128   0.562   3.003  0.5006  1.7382  2.8244
  438SOL     OW 1312   0.515   2.132   1.501 -0.2507 -0.3040 -0.1207
  438SOL    HW1 1313   0.513   2.067   1.423 -3.2071 -0.1447  0.5287
  438SOL    HW2 1314   0.561   2.080   1.570 -0.5838  0.1469 -0.5039
  439SOL     OW 1315   2.039   1.613   2.957 -0.8100  0.2663 -0.1610
  439SOL    HW1 1316   2.010   1.518   2.937 -0.7858  1.4799 -0.3386
  439SOL    HW2 1317   2.039   1.620   3.059  1.1569 -1.9012  1.7252
  440SOL     OW 1318   1.447   0.673   0.718 -0.2222  0.1840 -0.5552
  440SOL    HW1 1319   1.404   0.632   0.801 -0.6929  0.6766 -0.9287
  440SOL    HW2 1320   1.378   0.691   0.649 -2.5562 -2.1735  2.1632
  441SOL     OW 1321   0.433   2.666   1.594 -0.0961 -0.0573  0.1056
  441SOL    HW1 1322   0.518   2.676   1.648  0.0568 -0.4090  3.4492
  441SOL    HW2 1323   0.355   2.678   1.657  0.0416  2.5389  1.0912
  442SOL     OW 1324   2.397   2.405   0.848  0.5641  0.4042 -0.1829
  442SOL    HW1 1325   2.317   2.342   0.855  1.4129  0.0169 -0.1901
  442SOL    HW2 1326   2.376   2.492   0.806 -0.7944 -2.2921 -0.5810
  443SOL     OW 1327   2.516   1.310   2.415 -0.1596  0.2390 -0.0072
  443SOL    HW1 1328   2.443   1.246   2.449  1.3509  1.0636 -1.5710
  443SOL    HW2 1329   2.589   1.254   2.368 -0.5274 -1.7052 -1.6633
  444SOL     OW 1330   1.430   0.789   2.402  0.1105  0.7838  0.5785
  444SOL    HW1 1331   1.520   0.829   2.383 -0.4486  1.6194 -0.4082
  444SOL    HW2 1332   1.415   0.713   2.336  0.9472 -0.8461 -1.1382
  445SOL     OW 1333   2.657   2.352   1.719 -0.2132  0.3540  0.2846
  445SOL    HW1 1334   2.629   2.309   1.630 -2.1801  0.3567 -0.7521
  445SOL    HW2 1335   2.680   2.279   1.790 -1.2179 -1.9100 -0.9417
  446SOL     OW 1336   0.125   1.362   0.442  0.1934 -0.6315  0.3607
  446SOL    HW1 1337   0.128   1.460   0.465  0.7278  0.3477 -0.7077
  446SOL    HW2 1338   0.063   1.332   0.368  2.3156  0.0921 -0.3552
  447SOL     OW 1339   0.979   2.268   1.138 -0.0587  0.5732  0.3541
  447SOL    HW1 1340   0.962   2.314   1.224  2.4312 -0.4939 -2.9422
  447SOL    HW2 1341   1.021   2.339   1.086 -0.4919 -2.7930  1.5156
  448SOL     OW 1342   1.723   1.551   1.694  0.2661 -0.3735 -0.2778
  448SOL    HW1 1343   1.778   1.555   1.783  0.6306  1.6648  3.0087
  448SOL    HW2 1344   1.767   1.499   1.620 -0.7628  0.9026  1.6787
  449SOL     OW 1345   0.853   1.876   2.895  0.2078  0.1972  0.1373
  449SOL    HW1 1346   0.875   1.886   2.992  0.0388  0.1242 -1.6178
  449SOL    HW2 1347   0.858   1.774   2.871 -0.2435 -3.6097 -1.7774
  450SOL     OW 1348   0.013   1.788   2.437 -0.3262  0.1609  0.1162
  450SOL    HW1 1349   0.050   1.692   2.429  0.0614 -0.3905 -2.2015
  450SOL    HW2 1350   3.004   1.794   2.427  1.6539 -0.4049  2.2041
  451SOL     OW 1351   1.975   0.508   1.345  0.1484  0.2220 -0.4916
  451SOL    HW1 1352   1.948   0.408   1.331 -0.0044 -1.6893 -0.1505
  451SOL    HW2 1353   1.901   0.553   1.399 -1.3308 -0.1615 -0.7141
  452SOL     OW 1354   1.118   2.519   1.461 -0.5220  0.3735 -0.5868
  452SOL    HW1 1355   1.177   2.438   1.453 -2.8609  0.6012  0.6409
  452SOL    HW2 1356   1.028   2.497   1.416 -1.2461  1.8427 -2.8326
  453SOL     OW 1357   1.165   1.870   0.780 -0.0297 -0.1703 -0.5518
  453SOL    HW1 1358   1.174   1.857   0.884  1.6186 -0.3688  1.6509
  453SOL    HW2 1359   1.116   1.957   0.764  0.8512 -2.2605 -2.7397
  454SOL     OW 1360   3.034   1.051   0.689  0.9502 -0.0449  0.2471
  454SOL    HW1 1361   0.009   1.023   0.623 -0.1612 -0.5334  3.2450
  454SOL    HW2 1362   3.029   1.154   0.705 -0.6109 -1.1814 -2.5569
  455SOL     OW 1363   0.659   1.060   0.506  0.1170  0.0009  0.2934
  455SOL    HW1 1364   0.643   1.123   0.429 -1.4313  1.0750  1.1130
  455SOL    HW2 1365   0.575   1.011   0.532 -0.5370  1.4194 -0.4887
  456SOL     OW 1366   2.028   2.321   0.943  0.3009 -0.3161 -0.2218
  456SOL    HW1 1367   2.098   2.251   0.925 -1.7429  1.6315  2.6606
  456SOL    HW2 1368   2.048   2.407   0.895 -0.8055  1.6008  0.0579
  457SOL     OW 1369   1.421   2.685   0.024  0.1895 -0.6496 -0.0036
  457SOL    HW1 1370   1.362   2.723   0.097  1.2182 -0.7179 -1.0041
  457SOL    HW2 1371   1.402   2.586   0.001  1.4870 -4.0909 -0.3496
  458SOL     OW 1372   2.782   0.064   2.985 -0.1623 -0.3491 -0.2296
  458SOL    HW1 1373   2.766   0.050   2.886 -1.6511 -0.1313  2.8012
  458SOL    HW2 1374   2.882   0.071   3.006 -0.1056 -0.1062  1.9066
  459SOL     OW 1375   2.234   3.063   1.713  0.4662 -0.4202  0.0368
  459SOL    HW1 1376   2.258   3.000   1.639  1.0708  1.9904 -2.2578
  459SOL    HW2 1377   2.130   3.072   1.715 -1.5914 -0.5057  0.7594
  460SOL     OW 1378   2.783   0.342   3.057 -0.2832  0.3433 -0.2259
  460SOL    HW1 1379   2.879   0.345   0.003  3.2912  0.7239  2.7318
  460SOL    HW2 1380   2.772   0.251   3.013  1.5696 -1.4336  0.4837
  461SOL     OW 1381   0.071   2.176   1.049  0.1248  0.0453 -0.0188
  461SOL    HW1 1382   0.027   2.104   0.994  0.5710 -1.3679  2.1851
  461SOL    HW2 1383   0.073   2.261   0.988 -1.0620 -1.4744 -2.1424
  462SOL     OW 1384   2.998   2.955   0.759  0.3280  0.2998 -0.5914
  462SOL    HW1 1385   3.063   2.975   0.681  1.1562 -0.4275  1.8307
  462SOL    HW2 1386   2.955   3.032   0.801 -0.2549 -0.8933 -0.6039
  463SOL     OW 1387   2.312   1.285   3.032  0.4583  0.4250 -0.3683
  463SOL    HW1 1388   2.339   1.185   3.048  0.6022  1.3484  0.1439
  463SOL    HW2 1389   2.308   1.311   2.930 -1.8893  1.0049  0.5223
  464SOL     OW 1390   0.707   0.015   1.323  0.2211  0.2362 -0.0755
  464SOL    HW1 1391   0.684   3.016   1.366  0.6660 -1.1893  0.2055
  464SOL    HW2 1392   0.805   0.025   1.298  2.2471  2.6665  0.1022
  465SOL     OW 1393   0.947   0.726   1.142 -0.3675  0.4071 -0.1701
  465SOL    HW1 1394   0.892   0.735   1.226 -1.5625 -0.9124 -1.7606
  465SOL    HW2 1395   0.947   0.628   1.114  1.4186 -0.7622 -2.3703
  466SOL     OW 1396   1.326   2.399   1.946  0.8115 -0.3598  0.6711
  466SOL    HW1 1397   1.331   2.495   1.925  1.3826 -1.4846  1.3626
  466SOL    HW2 1398   1.386   2.380   2.029 -0.2732  3.0036 -0.9926
  467SOL     OW 1399   0.706   2.936   1.905 -0.4178  0.1659  0.0524
  467SOL    HW1 1400   0.677   2.960   2.002  1.0132  0.7924  0.0237
  467SOL    HW2 1401   0.805   2.957   1.894 -1.8460 -0.1705 -0.2454
  468SOL     OW 1402   0.179   1.387   2.207  0.1376 -0.5442 -0.3115
  468SOL    HW1 1403   0.094   1.384   2.146 -1.7188 -1.9005 -1.5195
  468SOL    HW2 1404   0.213   1.479   2.229  0.3191 -0.8282  0.2242
  469SOL     OW 1405   1.336   2.289   0.677 -0.0915 -0.0908 -0.6467
  469SOL    HW1 1406   1.307   2.366   0.612 -1.6276 -0.2149  1.8282
  469SOL    HW2 1407   1.311   2.320   0.774  4.0201  2.7797  2.6319
  470SOL     OW 1408   1.956   1.013   2.204  0.2622 -0.2762  0.4033
  470SOL    HW1 1409   1.999   1.103   2.233 -0.1192  1.2623  2.3988
  470SOL    HW2 1410   1.924   0.960   2.282 -0.2722  0.8002  0.4647
  471SOL     OW 1411   1.027   2.462   0.144  0.4190 -0.2028 -0.0464
  471SOL    HW1 1412   1.114   2.447   0.188 -1.4879 -0.6028 -0.4979
  471SOL    HW2 1413   1.040   2.545   0.091  1.1336 -1.1227  0.3945
  472SOL     OW 1414   0.003   2.457   2.250  0.2996 -0.3948 -0.5223
  472SOL    HW1 1415   0.075   2.399   2.205  1.4536  0.3957 -2.7807
  472SOL    HW2 1416   0.040   2.546   2.277  0.9431 -0.3240  1.9457
  473SOL     OW 1417   0.663   3.075   2.933  0.3074 -0.8059 -0.0952
  473SOL    HW1 1418   0.756   3.037   2.963 -0.5948  1.2434  1.3622
  473SOL    HW2 1419   0.607   0.013   3.014  3.0707  1.1313  0.2249
  474SOL     OW 1420   1.671   0.338   0.782  0.4285  0.6405  0.1266
  474SOL    HW1 1421   1.670   0.296   0.686 -1.7169  0.0264 -0.6222
  474SOL    HW2 1422   1.679   0.442   0.778  1.1852  2.8762  0.0893
  475SOL     OW 1423   1.393   0.233   1.339  0.5305  0.1557  0.2570
  475SOL    HW1 1424   1.329   0.312   1.338 -2.0894 -0.8774  2.6650
  475SOL    HW2 1425   1.365   0.165   1.268  1.4257  0.8259 -1.6669
  476SOL     OW 1426   0.082   0.985   1.076 -0.1335 -0.1908  0.1895
  476SOL    HW1 1427   0.118   0.936   1.156 -0.9503  2.4632 -2.6829
  476SOL    HW2 1428   0.163   1.024   1.026  0.2235 -0.8510  2.0272
  477SOL     OW 1429   1.072   2.074   0.530 -0.1684  0.5934  0.2667
  477SOL    HW1 1430   1.104   1.974   0.511 -0.2399 -1.4099  0.4967
  477SOL    HW2 1431   1.045   2.089   0.625  0.7438  0.5782 -4.1117
  478SOL     OW 1432   0.228   2.575   2.550  0.8570  0.7827  0.2568
  478SOL    HW1 1433   0.300   2.529   2.610  0.9080  1.1346  1.4659
  478SOL    HW2 1434   0.277   2.648   2.493  2.4243  1.9108  0.1921
  479SOL     OW 1435   2.967   0.390   1.385  0.4731  0.3599  0.1089
  479SOL    HW1 1436   2.898   0.467   1.358 -1.2675  2.3821 -0.7213
  479SOL    HW2 1437   3.008   0.407   1.477  5.3765 -2.9082 -0.7478
  480SOL     OW 1438   2.846   2.474   0.040  0.3055  0.0124  0.2992
  480SOL    HW1 1439   2.924   2.413   0.018 -0.8815  0.2407 -1.6343
  480SOL    HW2 1440   2.874   2.549   0.101  0.9553 -0.3462  0.5864
  481SOL     OW 1441   2.381   2.097   1.625  0.1756  0.3914 -0.1344
  481SOL    HW1 1442   2.466   2.128   1.578 -1.1350 -0.6746 -0.8293
  481SOL    HW2 1443   2.385   2.109   1.723  0.0637  2.1631 -5.2434
  482SOL     OW 1444   1.629   1.866   2.412 -0.1152 -0.0369 -0.4924
  482SOL    HW1 1445   1.595   1.806   2.339 -0.1198  1.8252 -0.0329
  482SOL    HW2 1446   1.553   1.878   2.482  1.5101  2.3176 -1.7236
  483SOL     OW 1447   1.072   1.675   1.713 -0.0880 -0.3401  0.4820
  483SOL    HW1 1448   1.108   1.733   1.639  0.7017 -0.4084 -1.0733
  483SOL    HW2 1449   1.084   1.578   1.686  0.0087  3.4089  1.0041
  484SOL     OW 1450   0.430   0.536   1.586  0.2121 -0.4864 -0.5169
  484SOL    HW1 1451   0.362   0.462   1.596  2.1374  0.0086  0.6317
  484SOL    HW2 1452   0.418   0.611   1.655  1.6047 -0.5221 -0.9052
  485SOL     OW 1453   2.312   1.012   0.045  0.1116  0.1903  0.3110
  485SOL    HW1 1454   2.391   1.016   3.076  1.6133  1.6807 -0.6490
  485SOL    HW2 1455   2.318   0.925   0.097 -0.9933  1.2821 -0.6152
  486SOL     OW 1456   1.225   0.187   1.722  0.3454 -0.3553  0.6299
  486SOL    HW1 1457   1.193   0.191   1.626  2.4758 -1.5002  0.6868
  486SOL    HW2 1458   1.168   0.238   1.791 -1.3043 -1.5686  1.9671
  487SOL     OW 1459   0.644   2.375   1.449 -0.8831  0.3552  0.1497
  487SOL    HW1 1460   0.689   2.424   1.525 -0.5722 -1.2763 -0.0886
  487SOL    HW2 1461   0.621   2.274   1.463  2.2330  0.2631  0.4209
  488SOL     OW 1462   2.603   1.998   2.791 -0.0646  0.6387 -0.5716
  488SOL    HW1 1463   2.563   2.081   2.754  0.2309 -2.0717  1.1467
  488SOL    HW2 1464   2.660   2.015   2.874 -1.0155  2.5637 -2.3774
  489SOL     OW 1465   2.082   3.022   0.716 -0.2411 -0.1954  0.2139
  489SOL    HW1 1466   1.986   2.986   0.708  0.1076  0.1881 -0.3712
  489SOL    HW2 1467   2.138   3.030   0.631  2.6433 -0.2734  2.8177
  490SOL     OW 1468   1.406   2.413   2.994 -0.9767  0.3280 -0.1024
  490SOL    HW1 1469   1.327   2.450   2.943 -0.0555 -0.3781 -0.7438
  490SOL    HW2 1470   1.405   2.311   2.998 -1.6267  2.0473 -0.6305
  491SOL     OW 1471   0.728   1.441   1.751  0.0081  0.2069  0.0103
  491SOL    HW1 1472   0.688   1.534   1.726 -0.1343  1.8403  1.6308
  491SOL    HW2 1473   0.830   1.450   1.751 -0.0230 -0.1193  0.0026
  492SOL     OW 1474   0.965   0.750   1.887  0.6755  0.3877 -0.2454
  492SOL    HW1 1475   0.905   0.831   1.850  0.5563  1.0225 -0.5587
  492SOL    HW2 1476   1.045   0.793   1.920 -0.8559  0.4493 -3.9105
  493SOL     OW 1477   2.232   1.805   0.794 -0.3028 -0.1639 -0.0698
  493SOL    HW1 1478   2.146   1.772   0.745  1.6262 -0.9475  0.7185
  493SOL    HW2 1479   2.238   1.768   0.888 -1.2685 -0.3290 -2.1188
  494SOL     OW 1480   0.771   1.595   0.837  0.3351  0.0862 -0.1891
  494SOL    HW1 1481   0.732   1.507   0.872  4.5066 -1.1256  1.0863
  494SOL    HW2 1482   0.699   1.656   0.799  1.5806 -0.8876 -0.8093
  495SOL     OW 1483   2.300   2.519   0.398  0.2827 -0.2970 -0.2519
  495SOL    HW1 1484   2.343   2.548   0.315  0.4651  1.7309  2.3095
  495SOL    HW2 1485   2.312   2.417   0.415  0.1236 -1.0108  0.5483
  496SOL     OW 1486   2.647   2.984   1.344 -0.0857  0.2391  0.1375
  496SOL    HW1 1487   2.690   3.084   1.350  1.7505  2.3192 -2.5778
  496SOL    HW2 1488   2.552   3.000   1.368  3.9385  0.3543 -0.6052
  497SOL     OW 1489   2.303   1.138   2.509 -0.1933 -0.4282  0.8243
  497SOL    HW1 1490   2.212   1.177   2.484  0.9077 -1.7711  1.3037
  497SOL    HW2 1491   2.306   1.091   2.597 -2.6241  1.1823  1.3646
  498SOL     OW 1492   3.048   2.187   1.431  0.3032 -0.1193 -0.0129
  498SOL    HW1 1493   2.958   2.138   1.413 -1.3285  0.3891 -2.0753
  498SOL    HW2 1494   3.034   2.286   1.439  0.0220 -1.2402  2.1812
  499SOL     OW 1495   0.933   2.471   2.157 -0.4387 -0.2788  0.1789
  499SOL    HW1 1496   0.832   2.453   2.152  3.2628  1.2810 -0.2714
  499SOL    HW2 1497   0.986   2.404   2.100  1.7245 -1.1130 -0.2503
  500SOL     OW 1498   0.747   2.180   0.311  0.5353 -0.1311 -0.2492
  500SOL    HW1 1499   0.817   2.175   0.239  1.9566  0.5663  1.3338
  500SOL    HW2 1500   0.666   2.230   0.285 -2.5079 -0.7122  0.1436
  501SOL     OW 1501   1.767   3.062   1.425  0.2509 -0.3741  0.3774
  501SOL    HW1 1502   1.721   3.040   1.331 -0.0000 -2.1743 -3.2329
  501SOL    HW2 1503   1.761   2.985   1.494 -0.0571  1.0352  1.4899
  502SOL     OW 1504   2.484   0.462   1.716 -0.1339  0.1574  0.5208
  502SOL    HW1 1505   2.436   0.551   1.700  0.0621  1.6426 -1.2250
  502SOL    HW2 1506   2.586   0.476   1.714  0.8689  2.6509 -0.7831
  503SOL     OW 1507   2.522   1.247   2.059 -0.6390 -0.4227  0.5671
  503SOL    HW1 1508   2.489   1.341   2.061  1.6900 -1.2723  0.3211
  503SOL    HW2 1509   2.545   1.215   1.963 -0.0236 -3.1251 -0.8967
  504SOL     OW 1510   1.657   0.846   1.565 -0.0808 -0.5551  0.3554
  504SOL    HW1 1511   1.677   0.754   1.594 -0.3540  0.7970  1.5372
  504SOL    HW2 1512   1.613   0.856   1.470  0.9776  0.9757 -1.5713
  505SOL     OW 1513   0.567   0.080   1.763  0.6289  0.5159 -0.1160
  505SOL    HW1 1514   0.588   3.086   1.815  1.0393 -1.9529  2.2238
  505SOL    HW2 1515   0.530   0.057   1.671  1.9085  1.5810 -1.7698
  506SOL     OW 1516   0.268   0.330   0.228  0.2107 -0.8615  0.0157
  506SOL    HW1 1517   0.334   0.380   0.176 -4.3915 -2.0698  2.0765
  506SOL    HW2 1518   0.305   0.296   0.315  0.3623  1.5200  1.9927
  507SOL     OW 1519   2.366   0.015   3.064  0.5609  0.4516  0.2824
  507SOL    HW1 1520   2.460   3.083   3.090 -1.7330  4.0350  0.6192
  507SOL    HW2 1521   2.295   3.041   0.008 -0.7688  1.8765  1.1292
  508SOL     OW 1522   1.193   0.413   2.065 -0.4162 -0.0395  0.3132
  508SOL    HW1 1523   1.157   0.348   1.994  0.7994  0.0864  0.5978
  508SOL    HW2 1524   1.259   0.482   2.026 -0.4403  1.2151 -1.5597
  509SOL     OW 1525   1.827   1.832   1.128  0.1938 -0.0923 -0.5273
  509SOL    HW1 1526   1.744   1.828   1.069 -0.5677 -1.3258  0.1883
  509SOL    HW2 1527   1.871   1.738   1.130 -0.0776 -1.0904  1.7205
  510SOL     OW 1528   2.523   1.193   1.371  0.6144  0.2629  0.8128
  510SOL    HW1 1529   2.587   1.165   1.446 -0.4676  2.9029  1.2450
  510SOL    HW2 1530   2.497   1.122   1.303 -2.5162 -2.1785  0.7551
  511SOL     OW 1531   1.642   1.879   1.322 -0.1188 -0.2171  0.1726
  511SOL    HW1 1532   1.724   1.881   1.262  1.7727  1.0023  0.1892
  511SOL    HW2 1533   1.606   1.977   1.334 -1.3742  2.8796 -0.7100
  512SOL     OW 1534   3.053   1.309   0.651 -0.1124  0.1223 -0.5256
  512SOL    HW1 1535   0.028   1.300   0.571  1.3335 -0.8961  0.3814
  512SOL    HW2 1536   2.969   1.360   0.622  0.5956 -1.6238  1.3275
  513SOL     OW 1537   3.087   1.669   3.053  0.0792  0.5562  0.7517
  513SOL    HW1 1538   0.005   1.687   2.953 -0.8925 -1.0190  0.4280
  513SOL    HW2 1539   3.021   1.588   3.066  1.3288 -2.0760  0.7041
  514SOL     OW 1540   2.874   2.068   2.336  0.4136 -0.1338 -0.3391
  514SOL    HW1 1541   2.975   2.083   2.349 -0.3170  0.5379  1.9652
  514SOL    HW2 1542   2.844   1.987   2.391 -0.9609 -0.7093  1.6082
  515SOL     OW 1543   2.141   0.823   0.730  0.2667  0.1952  0.3828
  515SOL    HW1 1544   2.176   0.861   0.824  0.7555  2.3255  0.5016
  515SOL    HW2 1545   2.127   0.899   0.660  1.3299 -0.0756 -0.9398
  516SOL     OW 1546   2.183   2.924   0.019  0.0778 -0.8203  0.1260
  516SOL    HW1 1547   2.244   2.851   0.046 -0.6090 -0.0995 -0.7908
  516SOL    HW2 1548   2.141   2.908   3.018 -1.7698 -2.5388  0.7335
  517SOL     OW 1549   1.073   1.990   2.515 -0.0000 -0.5649  0.7966
  517SOL    HW1 1550   1.101   2.055   2.440 -0.3753  1.3600 -0.4686
  517SOL    HW2 1551   1.132   1.909   2.504 -0.2093  2.0720  0.1432
  518SOL     OW 1552   0.234   0.224   2.452 -0.1753 -0.2031 -0.3385
  518SOL    HW1 1553   0.316   0.267   2.408  0.3282 -0.6447 -1.8021
  518SOL    HW2 1554   0.149   0.263   2.409 -0.2229  2.6225 -0.4688
  519SOL     OW 1555   0.645   1.589   3.029 -0.0540 -0.2651 -0.3892
  519SOL    HW1 1556   0.703   1.602   2.945  0.0710 -0.0356 -0.6643
  519SOL    HW2 1557   0.656   1.490   3.056  0.0897 -0.4004  2.3313
  520SOL     OW 1558   2.878   2.072   2.061 -0.0926  0.2111  0.1728
  520SOL    HW1 1559   2.856   2.069   2.160  0.8770 -1.6181  0.1177
  520SOL    HW2 1560   2.977   2.102   2.054  0.5511 -0.9017  2.2757
  521SOL     OW 1561   0.741   2.432   2.504  0.1963  0.4337  0.1723
  521SOL    HW1 1562   0.773   2.334   2.494  2.8210 -1.4769 -0.7916
  521SOL    HW2 1563   0.663   2.451   2.445  0.7820  1.7577  0.7150
  522SOL     OW 1564   1.583   2.622   1.889  0.3862  0.2067  0.7307
  522SOL    HW1 1565   1.545   2.616   1.979  0.9181  0.3927 -1.6340
  522SOL    HW2 1566   1.552   2.708   1.848 -1.9117 -2.0129  3.1529
  523SOL     OW 1567   2.060   1.815   1.841 -0.0888  0.1602  0.1329
  523SOL    HW1 1568   2.154   1.810   1.887  1.5684 -0.5525  2.5612
  523SOL    HW2 1569   2.018   1.910   1.854  0.5026  0.2976 -0.4652
  524SOL     OW 1570   0.658   2.684   0.441 -0.4925 -0.5474  0.6432
  524SOL    HW1 1571   0.623   2.750   0.372 -0.2457 -1.7200  1.1070
  524SOL    HW2 1572   0.724   2.621   0.403  0.6668 -1.0463  4.3704
  525SOL     OW 1573   0.239   0.567   0.377 -0.0510  0.4765  0.3328
  525SOL    HW1 1574   0.332   0.595   0.410 -1.0814  1.2475 -0.0600
  525SOL    HW2 1575   0.234   0.473   0.345 -2.4018 -0.8186 -3.2663
  526SOL     OW 1576   0.678   2.943   0.853 -0.1036 -0.1379 -0.2366
  526SOL    HW1 1577   0.654   2.901   0.940 -1.7449  0.0565  0.3517
  526SOL    HW2 1578   0.659   3.040   0.859 -0.8036 -0.0763  2.0683
  527SOL     OW 1579   2.228   1.705   1.053 -0.3571  0.0113  0.5277
  527SOL    HW1 1580   2.143   1.654   1.075  1.1888  0.5416  0.4263
  527SOL    HW2 1581   2.300   1.647   1.084 -0.7837 -1.9529  0.8116
  528SOL     OW 1582   2.823   2.585   2.451  0.0929  0.1114 -0.1218
  528SOL    HW1 1583   2.756   2.656   2.431 -0.9750 -1.6158 -3.0114
  528SOL    HW2 1584   2.918   2.609   2.434  1.4667 -1.2415  2.2324
  529SOL     OW 1585   1.455   1.733   2.248 -0.0801  0.5670  0.8585
  529SOL    HW1 1586   1.431   1.640   2.283 -0.0588 -0.5307 -1.5120
  529SOL    HW2 1587   1.494   1.720   2.157 -1.3986 -1.7114 -1.1714
  530SOL     OW 1588   1.557   1.389   2.984 -0.6934  0.5854 -0.1020
  530SOL    HW1 1589   1.627   1.411   2.910 -0.2985 -1.2886 -2.5920
  530SOL    HW2 1590   1.504   1.307   2.951 -0.1021 -2.1323  0.6055
  531SOL     OW 1591   0.546   1.033   2.938 -1.1578  0.0226  0.2923
  531SOL    HW1 1592   0.454   1.000   2.957  2.0311  2.5210 -1.8435
  531SOL    HW2 1593   0.607   0.969   2.990 -0.4700  0.9869 -1.1736
  532SOL     OW 1594   1.817   1.206   0.370  0.7266 -0.3813  0.8016
  532SOL    HW1 1595   1.824   1.226   0.466 -1.9771 -1.4550 -3.3525
  532SOL    HW2 1596   1.910   1.207   0.329 -2.4369 -1.7414  0.6294
  533SOL     OW 1597   0.524   0.235   2.587 -0.2344 -0.0555  0.2890
  533SOL    HW1 1598   0.512   0.251   2.488  1.2510 -0.3607 -0.0392
  533SOL    HW2 1599   0.620   0.244   2.611 -0.2322  0.9175  0.0152
  534SOL     OW 1600   0.967   2.687   3.062 -0.2473  0.8584 -0.2543
  534SOL    HW1 1601   0.870   2.717   3.081 -0.5819 -0.3260 -0.9020
  534SOL    HW2 1602   1.021   2.755   3.008  0.4534 -0.0150  0.3925
  535SOL     OW 1603   0.059   0.094   0.182 -0.0535 -0.3452  0.2525
  535SOL    HW1 1604   0.095   0.001   0.210  1.0376 -1.3656 -1.6436
  535SOL    HW2 1605   0.132   0.161   0.200  1.8608 -0.5090  2.0352
  536SOL     OW 1606   2.910   1.014   2.171  0.4861  0.0903 -0.3059
  536SOL    HW1 1607   2.905   1.028   2.065 -1.2144  2.0964 -4.0498
  536SOL    HW2 1608   3.005   0.990   2.200 -0.2847 -0.7959  1.7704
  537SOL     OW 1609   1.058   0.179   1.474  0.1237 -0.5889 -0.0121
  537SOL    HW1 1610   0.959   0.189   1.490  2.5948 -1.0223 -2.8777
  537SOL    HW2 1611   1.083   0.264   1.415  0.1589  1.8407 -3.1621
  538SOL     OW 1612   0.271   1.659   0.349 -0.3994 -0.2806  0.9021
  538SOL    HW1 1613   0.259   1.660   0.247 -0.1444  0.4803 -1.2910
  538SOL    HW2 1614   0.348   1.596   0.376 -2.9618 -1.7610 -2.0750
  539SOL     OW 1615   2.565   0.955   2.134 -0.0032  0.0539  0.5785
  539SOL    HW1 1616   2.502   0.914   2.205  0.5710 -1.1083  2.0761
  539SOL    HW2 1617   2.531   1.052   2.111 -2.2950  0.8557 -0.9184
  540SOL     OW 1618   1.930   1.461   2.165 -0.1957  0.0095  0.3490
  540SOL    HW1 1619   1.889   1.366   2.163 -1.1142  0.5308  2.0020
  540SOL    HW2 1620   2.032   1.465   2.150  1.6135  1.5826 -0.9722
  541SOL     OW 1621   1.015   1.400   1.703 -0.6480  0.1679  0.2447
  541SOL    HW1 1622   1.065   1.324   1.737 -1.4739  3.1274  0.2114
  541SOL    HW2 1623   0.984   1.380   1.608 -2.0536 -0.1959  0.4783
  542SOL     OW 1624   1.702   0.353   2.171 -0.2105 -0.1429  0.3848
  542SOL    HW1 1625   1.777   0.306   2.224  0.4738  3.2382 -0.9873
  542SOL    HW2 1626   1.666   0.293   2.098 -1.6523  0.3879  1.6109
  543SOL     OW 1627   0.832   0.313   0.587 -0.0281  0.1948 -0.3220
  543SOL    HW1 1628   0.928   0.282   0.608  0.5553 -2.0495 -1.0997
  543SOL    HW2 1629   0.809   0.309   0.487  1.3580 -0.5711 -0.8564
  544SOL     OW 1630   2.516   1.847   2.329 -0.1181 -0.0428  0.4569
  544SOL    HW1 1631   2.439   1.808   2.376  3.4234  3.7978 -1.3764
  544SOL    HW2 1632   2.599   1.825   2.382 -2.2886  1.3035  0.9725
  545SOL     OW 1633   1.980   2.066   1.900 -0.5328  0.0221  0.0923
  545SOL    HW1 1634   2.031   2.128   1.961 -0.4557 -2.7432 -1.7018
  545SOL    HW2 1635   1.919   2.114   1.834 -1.4710 -0.3453  1.4219
  546SOL     OW 1636   0.328   3.075   3.085 -0.5211 -0.2696  0.6136
  546SOL    HW1 1637   0.408   0.029   0.039  0.4412  0.0448 -0.2835
  546SOL    HW2 1638   0.300   2.994   0.050 -0.9101  0.1617 -0.3310
  547SOL     OW 1639   1.985   0.787   0.240  0.2960  0.1598  0.0860
  547SOL    HW1 1640   1.965   0.722   0.319 -3.3233 -2.2236  2.8787
  547SOL    HW2 1641   1.929   0.873   0.251  0.1583 -1.4279  0.9041
  548SOL     OW 1642   2.309   1.757   2.504 -0.0660  0.1259 -0.6661
  548SOL    HW1 1643   2.262   1.737   2.588  1.4843  1.5558 -3.4548
  548SOL    HW2 1644   2.325   1.674   2.451 -1.9218  0.8553  0.1448
  549SOL     OW 1645   2.041   0.446   0.879 -0.2658 -0.3941 -0.3632
  549SOL    HW1 1646   2.110   0.443   0.805 -0.5467  0.3403 -1.0485
  549SOL    HW2 1647   2.070   0.384   0.961 -0.4128 -1.6343  0.7973
  550SOL     OW 1648   2.474   2.201   0.638 -0.1648  0.4889 -0.8911
  550SOL    HW1 1649   2.490   2.121   0.703 -0.6329 -0.8294 -1.5563
  550SOL    HW2 1650   2.477   2.289   0.687  0.5932  0.0718  0.9796
  551SOL     OW 1651   1.051   3.022   1.546 -0.2670 -0.7523 -0.1315
  551SOL    HW1 1652   1.136   2.965   1.525  0.2534  0.0120  0.3114
  551SOL    HW2 1653   1.069   0.027   1.515 -0.9007 -1.9547 -0.1565
  552SOL     OW 1654   2.831   2.242   2.713 -0.2715 -0.6186 -0.2481
  552SOL    HW1 1655   2.886   2.289   2.784 -1.3563 -1.3546 -0.2563
  552SOL    HW2 1656   2.891   2.201   2.645  0.5584  0.6144  3.2374
  553SOL     OW 1657   0.326   2.888   0.463 -0.3331  0.3070  0.1548
  553SOL    HW1 1658   0.393   2.949   0.511  1.3115 -1.7700  0.9434
  553SOL    HW2 1659   0.306   2.810   0.529  0.9409 -1.2394  1.3569
  554SOL     OW 1660   2.216   2.356   1.673 -0.2049 -0.1112 -0.1283
  554SOL    HW1 1661   2.212   2.264   1.642 -0.3412  0.4649  0.7016
  554SOL    HW2 1662   2.254   2.419   1.597  1.2708  0.4848 -0.0735
  555SOL     OW 1663   0.976   2.017   1.966 -0.3560  0.2511  0.3888
  555SOL    HW1 1664   0.883   1.981   1.952 -3.3128 -0.2763  0.4265
  555SOL    HW2 1665   1.050   1.950   1.953  2.3939 -1.0280  1.4616
  556SOL     OW 1666   1.521   1.644   1.224  0.1937 -0.0670  0.0335
  556SOL    HW1 1667   1.460   1.655   1.148  3.3887 -1.9250  2.8613
  556SOL    HW2 1668   1.572   1.728   1.251  1.7771 -0.2434  0.6638
  557SOL     OW 1669   2.089   2.252   2.069  0.0903  0.2115 -0.6892
  557SOL    HW1 1670   2.173   2.296   2.029  3.3875 -0.2519 -0.8606
  557SOL    HW2 1671   2.101   2.226   2.170 -0.8534  1.0049 -0.6704
  558SOL     OW 1672   0.541   3.021   2.161  0.3446 -0.1712  0.1252
  558SOL    HW1 1673   0.440   3.007   2.179 -2.5771  1.4978  0.6002
  558SOL    HW2 1674   0.548   0.026   2.144  1.3041 -1.7886  2.1632
  559SOL     OW 1675   2.280   2.752   1.231  0.0043  1.0469 -0.0540
  559SOL    HW1 1676   2.277   2.819   1.301 -1.4187 -1.6164 -3.2312
  559SOL    HW2 1677   2.342   2.769   1.153 -0.3989  2.5961  0.3353
  560SOL     OW 1678   1.141   2.483   0.593  0.5579 -0.6284 -0.5764
  560SOL    HW1 1679   1.129   2.582   0.576 -2.1934  1.7904  0.3090
  560SOL    HW2 1680   1.054   2.434   0.576 -4.0793 -0.5558 -1.4632
  561SOL     OW 1681   0.945   0.392   0.120 -0.6967  0.0531  0.3071
  561SOL    HW1 1682   0.984   0.478   0.081 -1.4746  1.9843  0.2228
  561SOL    HW2 1683   0.844   0.394   0.115  3.0545  1.8346 -0.2301
  562SOL     OW 1684   0.749   0.273   2.930 -0.1919 -0.4560  0.3176
  562SOL    HW1 1685   0.755   0.173   2.914 -0.8685 -0.1294 -1.0657
  562SOL    HW2 1686   0.825   0.316   2.880 -3.3390 -1.8557 -1.6658
  563SOL     OW 1687   1.494   1.850   2.843 -0.1324  0.4495 -0.5592
  563SOL    HW1 1688   1.534   1.925   2.897 -1.9247  0.1906 -0.5072
  563SOL    HW2 1689   1.466   1.883   2.752  2.4473  1.5797 -0.1888
  564SOL     OW 1690   2.734   1.158   0.820 -0.4328  0.2847  0.9128
  564SOL    HW1 1691   2.712   1.072   0.772 -0.9936  0.4140 -0.4569
  564SOL    HW2 1692   2.680   1.237   0.782 -0.0069 -1.5461  1.6640
  565SOL     OW 1693   0.994   0.315   2.795  0.4244 -0.4535 -0.4561
  565SOL    HW1 1694   1.014   0.222   2.763  0.4333  0.7852  4.3264
  565SOL    HW2 1695   1.075   0.365   2.840  2.3491  1.8870 -0.2294
  566SOL     OW 1696   1.352   0.225   2.216  0.4356  0.0372  0.0544
  566SOL    HW1 1697   1.307   0.296   2.162  1.0310 -0.1219 -2.3702
  566SOL    HW2 1698   1.385   0.154   2.154 -0.5902 -1.0122  1.2439
  567SOL     OW 1699   2.331   1.137   0.668  0.9409 -0.3983 -0.7695
  567SOL    HW1 1700   2.314   1.087   0.585 -1.0385  0.4286 -0.9015
  567SOL    HW2 1701   2.268   1.217   0.687  0.2381  0.3431 -2.4052
  568SOL     OW 1702   1.856   1.773   0.537  0.0443 -0.2116 -0.4795
  568SOL    HW1 1703   1.942   1.752   0.488 -2.3244  0.6069  1.0792
  568SOL    HW2 1704   1.853   1.876   0.545  3.6202  1.4962 -1.0927
  569SOL     OW 1705   2.028   1.293   3.016 -0.2489  0.0743  0.3841
  569SOL    HW1 1706   1.990   1.204   2.982 -1.8205  0.7949 -0.8727
  569SOL    HW2 1707   2.129   1.289   3.034  1.1315 -0.9406 -2.1923
  570SOL     OW 1708   0.245   2.729   1.782  0.6425  0.2205  0.2557
  570SOL    HW1 1709   0.149   2.705   1.808  2.1303 -0.3295 -1.9902
  570SOL    HW2 1710   0.254   2.834   1.778  0.6082  2.4085 -0.8665
  571SOL     OW 1711   0.048   0.425   2.310  0.5636  0.1503 -0.1089
  571SOL    HW1 1712   0.127   0.488   2.293 -0.4767  1.0674 -1.0334
  571SOL    HW2 1713   3.052   0.473   2.341 -1.4402  1.7848 -0.4412
  572SOL     OW 1714   1.012   1.634   0.753 -0.0726 -0.7745 -0.1010
  572SOL    HW1 1715   0.924   1.608   0.799 -0.2038 -0.1012 -1.5786
  572SOL    HW2 1716   1.054   1.720   0.794  1.7448 -0.3381  2.6102
  573SOL     OW 1717   1.464   2.311   0.317  0.0501 -0.2019 -0.5009
  573SOL    HW1 1718   1.540   2.343   0.255 -1.2554 -0.0553  1.8880
  573SOL    HW2 1719   1.499   2.250   0.393 -1.2462 -3.0288 -1.7823
  574SOL     OW 1720   0.867   0.160   1.027  0.5375 -0.4001  0.2273
  574SOL    HW1 1721   0.877   0.088   1.096 -0.7310 -2.2301  0.0087
  574SOL    HW2 1722   0.789   0.147   0.967  0.1841  0.8259  2.2947
  575SOL     OW 1723   3.015   0.951   1.397 -0.1300  0.7829 -0.1943
  575SOL    HW1 1724   2.920   0.951   1.352  0.0337 -0.5940 -1.3587
  575SOL    HW2 1725   3.021   1.022   1.472  2.2146 -1.1014  0.5109
  576SOL     OW 1726   1.522   0.089   1.525  0.4283  0.2978 -0.1097
  576SOL    HW1 1727   1.478   0.146   1.454  0.7748  1.5299  1.2024
  576SOL    HW2 1728   1.613   0.047   1.507 -0.7364 -1.0246  0.9261
  577SOL     OW 1729   0.427   0.937   1.981  0.1888  0.0395  0.5914
  577SOL    HW1 1730   0.374   1.020   2.008 -0.2085 -2.5300  0.0676
  577SOL    HW2 1731   0.520   0.961   1.955  0.0048 -1.1575  0.6281
  578SOL     OW 1732   1.932   0.289   2.595  0.2798 -0.6187 -0.0379
  578SOL    HW1 1733   1.938   0.390   2.595 -0.7965 -2.2412  1.3702
  578SOL    HW2 1734   1.837   0.265   2.628 -0.4401 -0.2286 -2.9721
  579SOL     OW 1735   2.360   1.788   1.952 -0.1708 -0.3446 -0.1135
  579SOL    HW1 1736   2.404   1.794   1.860  0.9441 -1.8271  0.2675
  579SOL    HW2 1737   2.394   1.870   2.005  0.0146 -1.5339 -1.1602
  580SOL     OW 1738   1.826   1.195   2.704  1.1251 -0.1785  0.6804
  580SOL    HW1 1739   1.802   1.291   2.714  0.4755  0.1747  0.5906
  580SOL    HW2 1740   1.739   1.142   2.667 -2.4743 -3.1256 -2.7003
  581SOL     OW 1741   1.411   1.173   2.896  0.0591 -0.0301 -0.3339
  581SOL    HW1 1742   1.419   1.077   2.932 -0.4053  0.0679  1.2703
  581SOL    HW2 1743   1.385   1.167   2.800  0.9358  0.5599  0.5886
  582SOL     OW 1744   0.883   1.750   1.409  0.1498 -0.2397  0.4021
  582SOL    HW1 1745   0.819   1.685   1.458 -4.4576 -1.1458  0.7173
  582SOL    HW2 1746   0.982   1.748   1.441  0.2529  1.3956  2.7503
  583SOL     OW 1747   1.631   1.184   1.382 -0.7259 -0.1893  0.7702
  583SOL    HW1 1748   1.632   1.096   1.333  3.6077  0.1557 -0.9059
  583SOL    HW2 1749   1.636   1.264   1.316  0.0913 -0.8455 -0.3686
  584SOL     OW 1750   1.888   2.433   0.578 -0.2794 -0.4939 -0.1625
  584SOL    HW1 1751   1.784   2.428   0.584 -2.6068 -0.0535  1.2614
  584SOL    HW2 1752   1.929   2.463   0.668  0.6416 -0.1622 -0.2048
  585SOL     OW 1753   2.089   2.836   2.871  0.3187 -0.4167  0.1028
  585SOL    HW1 1754   2.046   2.849   2.777 -1.0228 -1.1231 -0.8234
  585SOL    HW2 1755   2.038   2.765   2.926 -1.4856 -2.7002  1.8131
  586SOL     OW 1756   2.843   2.217   0.843 -0.6348  0.1985 -0.2992
  586SOL    HW1 1757   2.869   2.303   0.805 -0.4943 -0.6349 -1.9792
  586SOL    HW2 1758   2.743   2.215   0.854 -2.0188 -0.3835 -0.1146
  587SOL     OW 1759   1.039   1.742   0.180 -0.0496  0.6262  0.0348
  587SOL    HW1 1760   1.128   1.792   0.164  0.4926  0.1677  1.6732
  587SOL    HW2 1761   1.033   1.660   0.120 -0.3011  1.0918  1.5205
  588SOL     OW 1762   0.495   0.103   1.143 -0.0198  0.5052 -0.3080
  588SOL    HW1 1763   0.568   0.090   1.214  0.0601 -0.2365 -0.9332
  588SOL    HW2 1764   0.423   0.157   1.184  1.6436 -0.9621 -1.7210
  589SOL     OW 1765   1.198   0.714   0.582 -0.1330 -0.1448  0.2734
  589SOL    HW1 1766   1.183   0.637   0.643 -0.6126  2.2733  0.4438
  589SOL    HW2 1767   1.174   0.690   0.486 -0.9540 -0.7034 -1.4279
  590SOL     OW 1768   1.969   2.617   2.987  0.0472 -0.4040  0.6315
  590SOL    HW1 1769   2.022   2.606   3.074 -1.3439  0.2560 -1.7625
  590SOL    HW2 1770   1.872   2.640   2.998 -1.7308 -1.9292  0.8307
  591SOL     OW 1771   0.445   2.455   2.653  0.5126  0.2740 -0.7472
  591SOL    HW1 1772   0.494   2.540   2.687  0.0178  3.2716  2.2536
  591SOL    HW2 1773   0.465   2.442   2.552 -0.4436  1.2823  0.3012
  592SOL     OW 1774   2.909   1.586   1.978  0.6023 -0.2326 -0.2442
  592SOL    HW1 1775   2.954   1.536   2.056  1.6351  1.8004  2.8034
  592SOL    HW2 1776   2.817   1.544   1.953  1.0848 -0.3265  1.7831
  593SOL     OW 1777   1.883   1.407   1.488 -0.2101 -0.5687 -0.3864
  593SOL    HW1 1778   1.889   1.310   1.522 -0.5138 -1.0956  1.1819
  593SOL    HW2 1779   1.812   1.415   1.418  0.7360  0.9850  0.4212
  594SOL     OW 1780   2.686   1.106   2.780  1.1641  0.8253  0.6110
  594SOL    HW1 1781   2.675   1.190   2.838 -1.5676 -2.2662 -0.9679
  594SOL    HW2 1782   2.763   1.047   2.808  0.1659  2.5716 -0.0164
  595SOL     OW 1783   0.852   0.898   0.410 -0.0998  0.6488 -0.0044
  595SOL    HW1 1784   0.788   0.966   0.442  2.2855 -2.5871 -4.1429
  595SOL    HW2 1785   0.844   0.887   0.310  0.9092  1.5442  2.6677
  596SOL     OW 1786   2.925   1.331   1.357  0.2438 -0.4561 -0.1864
  596SOL    HW1 1787   2.994   1.269   1.317 -1.0538  0.8339 -0.3287
  596SOL    HW2 1788   2.975   1.416   1.378  0.5575 -0.8883 -1.0330
  597SOL     OW 1789   0.874   2.004   1.376  0.2664  0.7637  0.0600
  597SOL    HW1 1790   0.789   2.020   1.324  1.9850  2.0206  1.7064
  597SOL    HW2 1791   0.878   1.905   1.397 -1.2431  1.6468  0.3372
  598SOL     OW 1792   2.607   2.823   1.913 -0.1119  0.5268 -0.6707
  598SOL    HW1 1793   2.685   2.870   1.870 -0.4211  0.5749  1.1695
  598SOL    HW2 1794   2.522   2.884   1.916 -0.4397  3.0124 -0.5068
  599SOL     OW 1795   0.372   1.474   2.681  0.2192 -0.3155 -0.9098
  599SOL    HW1 1796   0.416   1.567   2.674 -0.7717  1.7489  1.7050
  599SOL    HW2 1797   0.401   1.409   2.605  0.6269  1.8779 -0.1427
  600SOL     OW 1798   0.663   0.814   3.061 -0.9190 -0.5086  0.5444
  600SOL    HW1 1799   0.682   0.760   2.977 -0.6678 -1.9090 -0.6246
  600SOL    HW2 1800   0.572   0.796   0.010 -0.8216  1.3765 -0.8507
  601SOL     OW 1801   0.700   0.792   1.734 -0.1779  0.5469 -0.8275
  601SOL    HW1 1802   0.746   0.877   1.760 -1.1620 -2.5495 -1.1461
  601SOL    HW2 1803   0.744   0.715   1.785 -1.3032 -1.5002  0.5458
  602SOL     OW 1804   0.546   2.877   0.263 -0.3505 -0.7138  0.1434
  602SOL    HW1 1805   0.488   2.907   0.339  1.9885 -1.7485 -1.4030
  602SOL    HW2 1806   0.490   2.820   0.199  2.1138  0.0304 -0.9212
  603SOL     OW 1807   1.140   2.906   2.284  0.2286 -0.2620  0.3319
  603SOL    HW1 1808   1.146   2.830   2.350  0.3910  1.5581 -2.0160
  603SOL    HW2 1809   1.046   2.910   2.239 -1.0702 -0.7126 -1.3043
  604SOL     OW 1810   0.429   2.394   3.051  0.3592  0.4364 -0.5754
  604SOL    HW1 1811   0.432   2.303   3.010 -0.8058  1.6862 -0.5193
  604SOL    HW2 1812   0.341   2.433   3.074  2.0485 -0.1670  0.0957
  605SOL     OW 1813   2.100   0.893   1.487  0.6651  0.2064  0.3815
  605SOL    HW1 1814   2.035   0.888   1.410 -0.1218 -0.0458  0.9670
  605SOL    HW2 1815   2.083   0.981   1.542  0.8732  2.1660  2.8597
  606SOL     OW 1816   0.623   1.043   2.679 -0.3516 -0.0441  0.3525
  606SOL    HW1 1817   0.650   1.139   2.700 -1.0496  0.4725 -0.2704
  606SOL    HW2 1818   0.602   0.991   2.765  0.1037 -1.1341 -1.7992
  607SOL     OW 1819   0.667   0.512   1.143 -0.6340 -0.4086  0.1015
  607SOL    HW1 1820   0.665   0.514   1.245 -3.2470  2.5067  2.2161
  607SOL    HW2 1821   0.760   0.497   1.110 -2.4545  2.4682  0.9094
  608SOL     OW 1822   2.916   1.836   1.917  0.6412 -0.1611  0.3480
  608SOL    HW1 1823   2.917   1.741   1.952  0.4731 -1.1842 -0.6358
  608SOL    HW2 1824   2.865   1.901   1.978 -0.0100  2.2327 -1.3900
  609SOL     OW 1825   2.501   0.313   0.322  0.4930 -1.1557 -0.2666
  609SOL    HW1 1826   2.436   0.374   0.276  2.7248 -0.4007  0.0488
  609SOL    HW2 1827   2.459   0.256   0.396 -0.0200 -1.1083  0.2818
  610SOL     OW 1828   3.072   2.893   1.422 -0.5031 -0.2629 -0.1901
  610SOL    HW1 1829   3.054   2.964   1.492  0.9232 -0.9119 -1.2955
  610SOL    HW2 1830   3.033   2.920   1.329  0.0575  0.8688 -2.1719
  611SOL     OW 1831   1.720   2.147   0.111 -0.3045  0.5942  0.4903
  611SOL    HW1 1832   1.815   2.183   0.141  2.5358  1.1456  3.4737
  611SOL    HW2 1833   1.680   2.081   0.178  1.9732  1.6497 -1.2661
  612SOL     OW 1834   0.641   0.407   1.963 -0.4855 -0.4276 -0.4078
  612SOL    HW1 1835   0.703   0.361   1.894 -0.5528  0.5475  1.3567
  612SOL    HW2 1836   0.671   0.504   1.986  0.1246  0.7933 -2.1564
  613SOL     OW 1837   0.314   2.106   0.902 -0.0117 -0.2524 -0.3318
  613SOL    HW1 1838   0.219   2.123   0.936  0.3531 -2.4036  0.6705
  613SOL    HW2 1839   0.352   2.190   0.859  0.9717 -0.3847  3.0693
  614SOL     OW 1840   1.659   0.285   1.757  0.4392  0.6004  0.0456
  614SOL    HW1 1841   1.721   0.293   1.836  0.5683 -0.0367  1.1618
  614SOL    HW2 1842   1.577   0.240   1.791 -2.4400  2.7167 -0.4783
  615SOL     OW 1843   1.639   1.327   0.809  0.2061 -0.1709 -0.3371
  615SOL    HW1 1844   1.706   1.300   0.736  3.1089 -0.8308  0.4871
  615SOL    HW2 1845   1.627   1.428   0.818 -1.7713 -1.4451  1.5405
  616SOL     OW 1846   1.979   1.628   0.128  0.0568 -0.3390  0.1200
  616SOL    HW1 1847   1.910   1.584   0.190  0.8559  0.8655 -2.1438
  616SOL    HW2 1848   1.976   1.729   0.156  0.0935  1.5640 -1.4205
  617SOL     OW 1849   1.533   0.716   0.047  0.9275 -0.4793 -0.1791
  617SOL    HW1 1850   1.497   0.775   0.128 -0.1053  0.3692 -0.0735
  617SOL    HW2 1851   1.628   0.691   0.056 -1.3845  1.3803 -0.5870
  618SOL     OW 1852   0.458   0.696   2.289 -0.0139  0.1923 -0.0015
  618SOL    HW1 1853   0.499   0.636   2.359 -0.2885 -1.5008 -0.3946
  618SOL    HW2 1854   0.372   0.655   2.267 -0.6571  0.5886  2.1721
  619SOL     OW 1855   3.071   1.563   1.410  0.1859  0.0046  0.3914
  619SOL    HW1 1856   0.041   1.546   1.486 -1.0308 -0.5513 -1.6475
  619SOL    HW2 1857   0.008   1.635   1.340 -0.8365 -2.1809  1.4905
  620SOL     OW 1858   2.259   2.769   2.574 -0.6269  0.7829 -0.2468
  620SOL    HW1 1859   2.308   2.777   2.490 -0.0309 -1.2646 -1.4774
  620SOL    HW2 1860   2.305   2.804   2.658  4.3197 -1.3158 -1.3058
  621SOL     OW 1861   2.697   1.827   0.090 -0.1171  0.3637  0.5881
  621SOL    HW1 1862   2.619   1.762   0.071 -0.4924 -2.2994  1.5075
  621SOL    HW2 1863   2.659   1.913   0.131 -0.2790 -2.4651 -1.5757
  622SOL     OW 1864   1.309   0.266   2.541 -0.4180  0.2992 -0.0620
  622SOL    HW1 1865   1.273   0.201   2.475 -0.6483 -1.5125  1.6324
  622SOL    HW2 1866   1.404   0.290   2.516 -0.3485 -1.1278 -3.7829
  623SOL     OW 1867   0.653   2.038   1.214 -0.9990 -0.2413 -0.2923
  623SOL    HW1 1868   0.679   1.945   1.176  0.3659 -1.6750  1.0144
  623SOL    HW2 1869   0.606   2.094   1.143 -0.6942 -1.8769 -2.1985
  624SOL     OW 1870   2.960   2.918   3.055 -0.2959  0.1428  0.0001
  624SOL    HW1 1871   2.930   2.886   2.963 -1.0732 -0.1352  0.0412
  624SOL    HW2 1872   3.023   2.997   3.040 -0.6915 -1.4051  0.8269
  625SOL     OW 1873   0.933   2.301   0.497 -0.3381 -0.0599 -0.3349
  625SOL    HW1 1874   0.986   2.216   0.511 -0.5734 -1.3803  0.4972
  625SOL    HW2 1875   0.860   2.284   0.428 -0.9930 -1.0582 -0.8837
  626SOL     OW 1876   2.902   0.654   2.741 -0.0937  0.3875 -0.4085
  626SOL    HW1 1877   2.991   0.616   2.766  0.5102 -0.0358  1.5597
  626SOL    HW2 1878   2.829   0.590   2.765 -0.2936  3.4972  2.1463
  627SOL     OW 1879   1.286   2.020   2.981 -0.3282  0.0218  0.1140
  627SOL    HW1 1880   1.381   2.058   2.995  1.6153 -0.9064  0.0426
  627SOL    HW2 1881   1.245   2.058   2.898  1.5624  0.5480  1.4959
  628SOL     OW 1882   0.003   2.372   3.019  0.3957 -0.7302 -0.3259
  628SOL    HW1 1883   0.023   2.404   2.924 -0.9041 -0.4311  1.3043
  628SOL    HW2 1884   0.086   2.394   3.080  1.4483  2.4694  1.1085
  629SOL     OW 1885   0.867   2.825   2.769 -0.1369  0.4661  0.1591
  629SOL    HW1 1886   0.953   2.774   2.750 -0.1371  1.0000 -1.6145
  629SOL    HW2 1887   0.822   2.867   2.691 -0.6676  0.0726  2.8847
  630SOL     OW 1888   1.097   0.541   1.748 -0.1276  0.0757 -0.1167
  630SOL    HW1 1889   1.077   0.452   1.787 -0.4563  1.3761  0.1749
  630SOL    HW2 1890   1.065   0.610   1.816  1.9040 -2.9151  1.9090
  631SOL     OW 1891   2.041   0.983   0.534 -0.1083  0.5125 -0.6151
  631SOL    HW1 1892   2.058   1.061   0.466  0.5078  1.2906 -0.5724
  631SOL    HW2 1893   1.947   0.967   0.569 -1.2450  0.5989  1.4065
  632SOL     OW 1894   2.497   0.306   1.971  0.3076 -0.4793  0.2206
  632SOL    HW1 1895   2.515   0.339   1.875  1.8306  0.3727 -2.1909
  632SOL    HW2 1896   2.574   0.262   2.016 -4.3510 -0.2085  2.2892
  633SOL     OW 1897   0.997   1.399   0.349 -0.4371 -0.0792  0.2389
  633SOL    HW1 1898   0.952   1.430   0.437 -0.0063 -1.2752  2.1142
  633SOL    HW2 1899   1.057   1.319   0.375 -0.9114 -1.5946  0.8058
  634SOL     OW 1900   2.570   2.714   2.436  0.0833  0.0578 -0.2530
  634SOL    HW1 1901   2.543   2.624   2.474 -0.6011 -1.2644  0.8352
  634SOL    HW2 1902   2.494   2.739   2.369 -1.1286  1.6547 -0.3144
  635SOL     OW 1903   1.934   0.605   0.424 -0.1757  0.3037 -0.0369
  635SOL    HW1 1904   1.843   0.557   0.422 -1.8858 -2.8377  0.5036
  635SOL    HW2 1905   1.955   0.612   0.523 -2.9219 -0.1878  1.1043
  636SOL     OW 1906   0.808   1.278   0.932 -0.2003 -0.1604  0.5578
  636SOL    HW1 1907   0.711   1.303   0.942  1.2751  3.0263 -0.7040
  636SOL    HW2 1908   0.837   1.263   0.833 -1.7853 -0.2002 -0.8556
  637SOL     OW 1909   2.607   2.074   0.211 -0.6139  0.1702 -0.0749
  637SOL    HW1 1910   2.646   2.077   0.306  1.0739  0.5166  1.5436
  637SOL    HW2 1911   2.616   2.170   0.173 -1.5165  0.2314  0.7315
  638SOL     OW 1912   1.468   2.601   2.288  0.1431  0.0286 -0.2904
  638SOL    HW1 1913   1.451   2.648   2.195  1.5628 -0.1303 -2.3169
  638SOL    HW2 1914   1.563   2.566   2.304  0.2455 -0.1283 -2.9871
  639SOL     OW 1915   1.442   1.917   0.520  0.4409  0.0560  0.2744
  639SOL    HW1 1916   1.352   1.950   0.489  1.9968 -0.2868 -2.6129
  639SOL    HW2 1917   1.436   1.827   0.566 -3.8573  0.7412 -1.0247
  640SOL     OW 1918   1.968   0.190   0.582  0.2041  0.2666  0.4389
  640SOL    HW1 1919   2.026   0.113   0.621 -1.6912 -0.3935  0.6576
  640SOL    HW2 1920   2.026   0.258   0.538 -1.2537  0.7733 -1.0384
  641SOL     OW 1921   2.870   0.094   0.440 -0.3595  0.4063  0.5808
  641SOL    HW1 1922   2.895   0.157   0.514  0.5693 -0.0891 -3.1550
  641SOL    HW2 1923   2.832   0.146   0.360 -0.2656 -0.9829 -0.4199
  642SOL     OW 1924   0.453   0.841   1.288 -0.8091  0.4261  0.1949
  642SOL    HW1 1925   0.454   0.814   1.186  0.4537 -0.5999 -2.5707
  642SOL    HW2 1926   0.369   0.890   1.311  2.0685  2.2038  1.0723
  643SOL     OW 1927   0.888   1.249   2.339  0.5125  0.3112  0.0424
  643SOL    HW1 1928   0.915   1.158   2.379  0.3451  0.5985  1.1839
  643SOL    HW2 1929   0.810   1.286   2.391  2.6477 -2.4398 -1.8303
  644SOL     OW 1930   1.527   2.170   0.543 -0.2128 -0.0816  0.1131
  644SOL    HW1 1931   1.506   2.071   0.551 -0.5606  0.9164  2.6565
  644SOL    HW2 1932   1.456   2.220   0.603 -0.5856  1.8119 -1.0095
  645SOL     OW 1933   1.647   1.976   0.314  0.1663  0.2730  0.1589
  645SOL    HW1 1934   1.630   1.889   0.258 -0.0492  0.1880  3.1657
  645SOL    HW2 1935   1.575   1.987   0.387  2.7848 -0.6927 -0.7524
  646SOL     OW 1936   0.024   1.685   2.788 -0.1287  0.2040  0.0748
  646SOL    HW1 1937   3.071   1.764   2.741 -0.4379  1.4609 -2.0351
  646SOL    HW2 1938   0.053   1.616   2.716 -0.6799  1.5321 -2.5615
  647SOL     OW 1939   0.926   0.448   1.016 -0.8499  0.7010 -0.0000
  647SOL    HW1 1940   0.933   0.348   1.009  0.3689  1.2532 -0.6523
  647SOL    HW2 1941   0.901   0.489   0.924 -3.1396  0.5734 -0.7669
  648SOL     OW 1942   1.342   0.671   1.138  0.2511 -0.0038 -0.2592
  648SOL    HW1 1943   1.356   0.766   1.106  0.1355 -0.8358 -0.2397
  648SOL    HW2 1944   1.389   0.638   1.229 -1.7097 -1.5084  4.2769
  649SOL     OW 1945   0.916   1.748   0.417  0.1979 -0.0901 -0.5929
  649SOL    HW1 1946   0.953   1.741   0.323 -0.4998 -1.3271 -1.4281
  649SOL    HW2 1947   0.986   1.791   0.475 -0.0126  0.0394  0.8413
  650SOL     OW 1948   2.428   1.504   1.977  0.8683 -0.3010  0.4844
  650SOL    HW1 1949   2.387   1.599   1.977 -0.2497 -0.3400 -1.3546
  650SOL    HW2 1950   2.520   1.507   1.937 -1.5891  0.9776  0.1847
  651SOL     OW 1951   1.648   2.146   2.706 -0.0740  0.3524  0.1101
  651SOL    HW1 1952   1.727   2.201   2.676  0.0446  1.3941  1.1201
  651SOL    HW2 1953   1.569   2.175   2.650 -0.9372  1.4394  0.2818
  652SOL     OW 1954   2.471   1.686   0.056  0.3243 -0.5522 -0.0843
  652SOL    HW1 1955   2.443   1.716   3.051 -1.9643  0.6450 -1.3430
  652SOL    HW2 1956   2.443   1.588   0.073  1.4451  1.1627 -1.1611
  653SOL     OW 1957   0.178   0.118   0.790 -0.5261  0.1062  0.0625
  653SOL    HW1 1958   0.167   0.195   0.856 -1.3909  1.6767  1.1878
  653SOL    HW2 1959   0.225   0.041   0.834 -4.7318 -0.7267 -0.6244
  654SOL     OW 1960   2.517   3.053   2.145 -0.2028 -0.0623 -0.1217
  654SOL    HW1 1961   2.525   0.057   2.180  0.6600 -2.0414  0.2792
  654SOL    HW2 1962   2.536   3.042   2.045 -0.2199 -2.0201 -3.5760
  655SOL     OW 1963   0.606   2.825   1.121 -0.0093  0.0817 -0.1609
  655SOL    HW1 1964   0.521   2.807   1.064  1.3592 -0.6667 -0.8201
  655SOL    HW2 1965   0.590   2.867   1.213  1.0871  0.8664 -1.9968
  656SOL     OW 1966   2.950   2.903   2.538  0.2331 -0.1591 -0.2009
  656SOL    HW1 1967   2.864   2.923   2.485 -1.1032  0.7042  2.7852
  656SOL    HW2 1968   3.011   2.981   2.544 -3.1798  0.1553 -0.0231
  657SOL     OW 1969   2.841   0.896   3.042 -0.3853  0.2779 -0.7476
  657SOL    HW1 1970   2.879   0.969   2.985 -1.9128 -2.6255  0.3765
  657SOL    HW2 1971   2.914   0.825   3.067 -0.6846 -0.6182 -0.6037
  658SOL     OW 1972   2.502   2.037   1.095 -0.2539  0.1359 -0.1397
  658SOL    HW1 1973   2.464   2.114   1.153  0.4347  2.0085  1.5887
  658SOL    HW2 1974   2.535   1.956   1.148 -0.8512  0.9467  0.9253
  659SOL     OW 1975   1.840   2.748   0.355  0.0752 -0.2890 -0.9460
  659SOL    HW1 1976   1.918   2.683   0.345  0.3656  0.4452 -0.5616
  659SOL    HW2 1977   1.747   2.711   0.325 -2.5914 -1.6484  0.2095
  660SOL     OW 1978   1.616   1.051   2.602  0.2591  0.1699 -0.2716
  660SOL    HW1 1979   1.631   1.089   2.509 -0.4286  0.4471 -0.0078
  660SOL    HW2 1980   1.516   1.049   2.617  2.5076 -1.2885  0.3892
  661SOL     OW 1981   2.804   2.222   1.116  0.0553  0.1416  0.2015
  661SOL    HW1 1982   2.715   2.222   1.069 -2.3821 -1.9322 -0.4117
  661SOL    HW2 1983   2.879   2.202   1.050 -0.9564  0.2953 -0.3834
  662SOL     OW 1984   0.458   0.692   0.092 -0.2931 -0.0463  0.7590
  662SOL    HW1 1985   0.379   0.758   0.089 -2.0813 -2.0194  1.3832
  662SOL    HW2 1986   0.476   0.672   0.191  1.0840 -2.9433  1.3608
  663SOL     OW 1987   2.164   2.023   1.079 -0.3820  0.2056  0.2534
  663SOL    HW1 1988   2.155   2.091   1.158 -0.6107  2.6540 -0.9484
  663SOL    HW2 1989   2.210   1.937   1.113  0.8394 -1.7483 -1.0742
  664SOL     OW 1990   1.115   1.612   1.194  0.0415  0.0075  0.3609
  664SOL    HW1 1991   1.208   1.577   1.212 -1.3067 -1.1068  0.5707
  664SOL    HW2 1992   1.102   1.709   1.232  0.9185 -0.9494 -1.3790
  665SOL     OW 1993   1.786   2.416   1.888 -0.0025  0.2442  0.1551
  665SOL    HW1 1994   1.728   2.500   1.874 -0.5668  0.6986  1.0664
  665SOL    HW2 1995   1.770   2.379   1.979  0.0483  0.9158  0.5787
  666SOL     OW 1996   2.992   2.595   0.289  0.2143 -0.1137 -0.2457
  666SOL    HW1 1997   2.974   2.498   0.318  3.0481 -1.4884  0.5156
  666SOL    HW2 1998   3.017   2.658   0.367  0.3620 -1.9711  1.9135
  667SOL     OW 1999   2.664   1.493   1.823  0.2034 -0.0285 -0.2815
  667SOL    HW1 2000   2.687   1.546   1.740 -5.2271 -0.3037  1.0040
  667SOL    HW2 2001   2.630   1.401   1.804  1.9280  0.5230  0.5231
  668SOL     OW 2002   0.342   0.548   2.618  0.2525 -0.0289  0.3480
  668SOL    HW1 2003   0.305   0.474   2.677  2.0208  1.8803  0.5705
  668SOL    HW2 2004   0.276   0.618   2.591  0.6365 -0.5688 -0.2413
  669SOL     OW 2005   2.098   2.042   2.810 -0.2718  0.2060 -0.2230
  669SOL    HW1 2006   2.028   2.064   2.738 -0.8529 -2.4734  0.8417
  669SOL    HW2 2007   2.137   2.125   2.853 -0.8503  1.5164 -2.5158
  670SOL     OW 2008   2.324   1.496   2.407 -0.6570 -0.2878  1.0881
  670SOL    HW1 2009   2.410   1.441   2.425  2.5579  0.1177  0.2324
  670SOL    HW2 2010   2.293   1.478   2.314 -1.4117 -0.3948  1.7748
  671SOL     OW 2011   0.195   1.682   0.769  0.0757  0.5162  0.0996
  671SOL    HW1 2012   0.153   1.647   0.684 -0.1930 -0.9919  2.0466
  671SOL    HW2 2013   0.131   1.674   0.842  2.2140  2.5225 -1.6135
  672SOL     OW 2014   2.401   0.727   1.994  0.4770 -0.0018  0.0561
  672SOL    HW1 2015   2.324   0.780   1.939 -3.0779  0.2121 -3.7337
  672SOL    HW2 2016   2.497   0.762   1.974  2.9719  0.1108 -0.1918
  673SOL     OW 2017   2.498   2.597   1.998 -0.1428 -0.1161  0.1620
  673SOL    HW1 2018   2.579   2.555   2.042  0.2918  0.9707 -1.0982
  673SOL    HW2 2019   2.527   2.682   1.954 -0.3037 -2.2009 -1.9569
  674SOL     OW 2020   1.441   2.478   1.618 -0.1290  0.4581 -0.3755
  674SOL    HW1 2021   1.415   2.382   1.643 -1.2971 -2.4368  1.2685
  674SOL    HW2 2022   1.482   2.533   1.695  0.0088  1.9492  0.0351
  675SOL     OW 2023   0.433   0.829   1.010 -0.0834  0.0072  0.5421
  675SOL    HW1 2024   0.398   0.923   0.981 -3.6969  0.8065 -1.0140
  675SOL    HW2 2025   0.526   0.808   0.977 -1.5585  1.1930 -0.4209
  676SOL     OW 2026   1.821   1.190   0.648  0.1533 -0.2678 -0.6973
  676SOL    HW1 2027   1.804   1.089   0.653 -0.6556 -0.1275  0.5183
  676SOL    HW2 2028   1.896   1.221   0.707 -4.1274 -1.3748  0.5624
  677SOL     OW 2029   2.905   1.320   2.362  0.1473 -0.2234 -0.3589
  677SOL    HW1 2030   2.878   1.319   2.460 -2.7638  4.7694 -1.2030
  677SOL    HW2 2031   2.844   1.261   2.304  1.0479  0.1613 -1.8279
  678SOL     OW 2032   2.723   1.835   1.188  0.2750  0.0983  0.1133
  678SOL    HW1 2033   2.795   1.821   1.258 -0.1051 -2.8040  0.2392
  678SOL    HW2 2034   2.630   1.812   1.222 -0.1620  1.4570  0.0289
  679SOL     OW 2035   2.031   2.564   0.382 -0.0587 -0.1992 -0.4006
  679SOL    HW1 2036   2.132   2.549   0.403  1.5885  1.5196  1.8403
  679SOL    HW2 2037   1.972   2.523   0.454  1.5707 -0.2836  0.4041
  680SOL     OW 2038   0.030   2.195   2.003  0.8376 -0.6176 -0.8363
  680SOL    HW1 2039   0.014   2.216   1.908  0.3245 -2.1105 -2.3486
  680SOL    HW2 2040   0.095   2.266   2.044 -0.0654  0.5027 -0.0583
  681SOL     OW 2041   0.079   1.307   1.707 -0.3579  0.3869 -0.2235
  681SOL    HW1 2042   0.163   1.252   1.728  0.3872  2.3587 -0.3678
  681SOL    HW2 2043   0.097   1.402   1.678  0.1849 -3.2805  0.8243
  682SOL     OW 2044   1.054   2.495   1.018 -0.4937  0.0459  0.8530
  682SOL    HW1 2045   1.125   2.551   1.073  1.9048  2.3171 -3.4412
  682SOL    HW2 2046   1.014   2.548   0.943 -1.1062 -0.4058 -1.0461
  683SOL     OW 2047   2.200   1.087   1.174 -0.2727 -0.2684 -0.0979
  683SOL    HW1 2048   2.188   1.163   1.109  2.3735  0.9205  1.4642
  683SOL    HW2 2049   2.217   1.122   1.270  1.1708 -1.7669 -1.6732
  684SOL     OW 2050   0.668   1.905   2.639 -0.3411 -0.3090 -0.0883
  684SOL    HW1 2051   0.726   1.891   2.721 -0.4874 -0.4221 -2.3941
  684SOL    HW2 2052   0.659   2.008   2.623 -1.0739  1.7807 -0.5000
  685SOL     OW 2053   1.485   1.652   3.032 -0.4350  0.3083 -0.7288
  685SOL    HW1 2054   1.516   1.558   3.000  2.8000 -0.3270  0.7825
  685SOL    HW2 2055   1.513   1.727   2.965  3.4016  1.4330 -1.1923
  686SOL     OW 2056   2.774   0.551   1.290  0.9283 -0.5827 -0.2534
  686SOL    HW1 2057   2.739   0.623   1.355 -0.9596  0.6198 -0.0258
  686SOL    HW2 2058   2.801   0.592   1.198 -0.1351  2.2710 -0.8023
  687SOL     OW 2059   1.163   2.287   2.725  0.2521  0.2708 -0.1720
  687SOL    HW1 2060   1.175   2.353   2.799 -1.4488 -0.7044 -1.5471
  687SOL    HW2 2061   1.126   2.202   2.766  0.9805  1.6470  1.8415
  688SOL     OW 2062   0.190   2.016   2.140  0.3307  0.0970 -0.3354
  688SOL    HW1 2063   0.223   1.943   2.079 -1.0962 -0.1263 -0.6797
  688SOL    HW2 2064   0.140   2.091   2.092  0.5157  1.1736  0.2464
  689SOL     OW 2065   1.880   0.530   1.785 -0.1743 -0.1713 -0.2351
  689SOL    HW1 2066   1.842   0.553   1.878  1.6475  0.0436  1.4352
  689SOL    HW2 2067   1.937   0.443   1.791 -2.0181  0.8310  1.2291
  690SOL     OW 2068   2.288   0.622   0.945  0.3023  0.1978  0.2909
  690SOL    HW1 2069   2.264   0.595   1.038  3.2549  1.3552  2.3216
  690SOL    HW2 2070   2.289   0.724   0.947  2.0943 -2.1915  2.1753
  691SOL     OW 2071   0.835   1.809   1.768  0.0281 -0.3849  0.4432
  691SOL    HW1 2072   0.914   1.754   1.775 -2.2280  3.2908 -1.5858
  691SOL    HW2 2073   0.863   1.901   1.725 -2.8731 -0.0713  0.0815
  692SOL     OW 2074   1.914   0.230   1.298 -0.2676  0.2540  0.0924
  692SOL    HW1 2075   1.878   0.199   1.385 -0.2097  1.5344  2.1864
  692SOL    HW2 2076   1.842   0.225   1.223 -0.1774 -2.3600 -3.2616
  693SOL     OW 2077   0.362   0.939   2.345 -0.0033  0.0725  0.3762
  693SOL    HW1 2078   0.336   0.931   2.446  1.2832  1.7173 -0.4637
  693SOL    HW2 2079   0.416   0.854   2.322 -1.2919 -1.0662  1.8194
  694SOL     OW 2080   1.313   0.093   1.097 -0.2232  0.5942 -0.4424
  694SOL    HW1 2081   1.391   0.149   1.060  1.1039  0.8189  2.2283
  694SOL    HW2 2082   1.316   0.003   1.058  1.4388  3.3361  0.5628
  695SOL     OW 2083   1.149   1.195   1.811  0.7105 -0.1443  0.3169
  695SOL    HW1 2084   1.201   1.129   1.749  2.3602  0.1851 -1.0294
  695SOL    HW2 2085   1.117   1.151   1.898  0.9975  1.8066 -0.6428
  696SOL     OW 2086   1.383   3.042   0.408 -0.3429  0.1392  0.1205
  696SOL    HW1 2087   1.401   2.942   0.408 -1.2037 -0.5794  2.5747
  696SOL    HW2 2088   1.407   0.001   0.324  0.7826  1.9074 -2.0298
  697SOL     OW 2089   0.839   0.565   0.771 -0.3211  0.0311  0.3064
  697SOL    HW1 2090   0.770   0.610   0.714 -1.7445 -1.0402  1.7872
  697SOL    HW2 2091   0.882   0.493   0.714 -0.2898  1.9255 -2.0570
  698SOL     OW 2092   1.336   1.205   2.604 -0.0238 -0.8970  0.3093
  698SOL    HW1 2093   1.273   1.263   2.654  2.9913  0.5225 -3.8100
  698SOL    HW2 2094   1.294   1.115   2.584 -0.9835  1.7970 -1.5085
  699SOL     OW 2095   1.677   1.431   1.248 -0.2492  0.3298  0.6043
  699SOL    HW1 2096   1.622   1.518   1.233  1.7444  0.1976 -4.0733
  699SOL    HW2 2097   1.728   1.410   1.162  0.8391 -1.1868  1.2924
  700SOL     OW 2098   1.631   3.088   0.539 -0.1204  0.2490 -0.4874
  700SOL    HW1 2099   1.546   3.063   0.487 -3.2051  0.5401  1.1017
  700SOL    HW2 2100   1.653   0.097   0.528  1.4215  0.5507  0.8343
  701SOL     OW 2101   2.804   0.150   2.438  0.3036 -0.5806 -1.4194
  701SOL    HW1 2102   2.819   0.050   2.424 -1.5074  0.7276  0.1096
  701SOL    HW2 2103   2.872   0.180   2.506  0.9451  0.3898  0.1173
  702SOL     OW 2104   1.166   0.233   0.132 -0.5062 -0.0270 -0.0557
  702SOL    HW1 2105   1.085   0.292   0.124  2.9014 -2.0720 -1.0388
  702SOL    HW2 2106   1.227   0.229   0.050 -1.4251 -1.2752  0.4010
  703SOL     OW 2107   2.196   2.840   2.018 -0.2168  0.4613 -0.1524
  703SOL    HW1 2108   2.105   2.799   2.019 -1.1534 -0.2953 -1.4711
  703SOL    HW2 2109   2.243   2.811   1.931 -1.4929 -0.3498  1.1323
  704SOL     OW 2110   0.564   2.209   1.039 -0.0627  0.4660 -0.1631
  704SOL    HW1 2111   0.494   2.143   1.005 -0.2477 -5.7485 -1.2081
  704SOL    HW2 2112   0.503   2.284   1.074 -0.9465  2.8200  1.8374
  705SOL     OW 2113   2.743   0.185   2.079 -0.1771 -0.3790  0.4408
  705SOL    HW1 2114   2.786   0.257   2.138 -0.8072 -0.9162  2.6461
  705SOL    HW2 2115   2.803   0.113   2.042 -1.6616  1.0241  0.2772
  706SOL     OW 2116   1.713   0.258   0.519  0.1999  0.0776 -0.0850
  706SOL    HW1 2117   1.816   0.243   0.530  1.2379 -0.4264 -0.3546
  706SOL    HW2 2118   1.682   0.295   0.428  0.9293 -0.5050  0.7206
  707SOL     OW 2119   1.254   1.973   2.227  0.4930 -0.1027 -0.0654
  707SOL    HW1 2120   1.355   1.974   2.246  1.7803  0.8251  1.2013
  707SOL    HW2 2121   1.217   2.067   2.234  0.7211 -0.0821 -2.4818
  708SOL     OW 2122   3.091   2.473   1.757  0.3204  0.6362  0.1852
  708SOL    HW1 2123   0.073   2.522   1.705  1.2986  4.7887 -0.4257
  708SOL    HW2 2124   3.003   2.517   1.743  2.2875 -0.3117 -1.5366
  709SOL     OW 2125   1.699   0.137   2.008 -0.5213  0.1771  0.2377
  709SOL    HW1 2126   1.706   0.125   2.112 -0.9210 -0.5767 -0.8486
  709SOL    HW2 2127   1.736   0.058   1.955 -2.4103  0.3494 -0.8930
  710SOL     OW 2128   2.191   0.525   1.515  0.0232  0.2125 -0.5303
  710SOL    HW1 2129   2.103   0.511   1.469  0.9066  0.4574 -2.5914
  710SOL    HW2 2130   2.256   0.438   1.509  0.6340 -0.6689 -0.0876
  711SOL     OW 2131   0.396   1.932   0.352  0.1036  0.1473 -0.8948
  711SOL    HW1 2132   0.369   1.832   0.360  2.0672 -3.4978  2.8994
  711SOL    HW2 2133   0.488   1.935   0.395 -4.2406 -2.3990 -2.0038
  712SOL     OW 2134   0.603   2.650   2.133 -0.6611  0.3438  0.1531
  712SOL    HW1 2135   0.531   2.696   2.083  3.5490  1.5964  3.3859
  712SOL    HW2 2136   0.602   2.699   2.221 -1.1942 -3.2949  0.0695
  713SOL     OW 2137   1.914   1.065   2.941  0.5835 -0.5267 -0.3498
  713SOL    HW1 2138   1.881   1.093   2.846 -0.8954  2.6427 -2.3494
  713SOL    HW2 2139   1.953   0.976   2.937 -0.0827 -0.4682 -1.0034
  714SOL     OW 2140   0.851   1.909   0.914 -0.1340  0.1421 -0.0618
  714SOL    HW1 2141   0.797   1.874   0.835  0.1188 -1.7521 -0.9279
  714SOL    HW2 2142   0.821   2.007   0.938 -0.3325  0.5498  3.8587
  715SOL     OW 2143   1.848   0.025   2.866 -0.1072  0.9092  0.5642
  715SOL    HW1 2144   1.919   0.086   2.902  0.0214 -3.9013 -0.8516
  715SOL    HW2 2145   1.881   3.058   2.788  2.3032 -0.7542  0.5703
  716SOL     OW 2146   0.075   0.059   1.895  0.2748  0.6188 -0.1014
  716SOL    HW1 2147   0.081   0.141   1.950  1.6604  0.5819 -3.2461
  716SOL    HW2 2148   3.079   0.017   1.917 -0.5283  2.7712 -0.5873
  717SOL     OW 2149   0.376   1.141   0.201 -0.0971 -0.1314 -0.1533
  717SOL    HW1 2150   0.347   1.046   0.171 -0.7206 -0.8257 -0.3272
  717SOL    HW2 2151   0.317   1.211   0.160 -0.9695 -1.2609  2.7842
  718SOL     OW 2152   1.304   0.931   2.608 -0.1644 -0.6042 -0.3523
  718SOL    HW1 2153   1.248   0.890   2.679 -1.4879  0.8001 -1.6582
  718SOL    HW2 2154   1.337   0.869   2.530  1.0667 -3.2608 -5.2187
  719SOL     OW 2155   2.710   1.307   3.012 -0.2382 -0.2452 -0.0124
  719SOL    HW1 2156   2.663   1.270   3.091  1.0952  0.6432 -3.2746
  719SOL    HW2 2157   2.683   1.403   2.999  4.1388  0.9954  0.5705
  720SOL     OW 2158   1.099   0.817   0.886 -0.9033  0.4396  0.0643
  720SOL    HW1 2159   1.065   0.801   0.980 -0.4773  0.6320 -0.9935
  720SOL    HW2 2160   1.104   0.914   0.860  0.6434 -1.0703 -0.1215
  721SOL     OW 2161   2.591   1.016   0.423 -0.7282  0.2714 -0.2485
  721SOL    HW1 2162   2.596   0.964   0.331  0.3519  0.5216 -2.7954
  721SOL    HW2 2163   2.660   1.091   0.413  0.2057 -1.3170  0.7579
  722SOL     OW 2164   1.465   0.915   2.968  0.5138 -0.4380  0.2653
  722SOL    HW1 2165   1.504   0.835   3.018 -0.5938 -1.7493 -0.3517
  722SOL    HW2 2166   1.405   0.886   2.890  3.2658 -3.5068  1.3677
  723SOL     OW 2167   0.326   1.163   0.450 -0.9074  0.3600  0.1972
  723SOL    HW1 2168   0.273   1.248   0.455  2.6675 -3.3807  0.1622
  723SOL    HW2 2169   0.354   1.150   0.350  2.7167 -1.5057 -3.5347
  724SOL     OW 2170   0.622   1.782   2.180 -0.1540 -0.1257  0.5237
  724SOL    HW1 2171   0.535   1.787   2.233 -0.2378  0.6260 -1.4994
  724SOL    HW2 2172   0.693   1.831   2.237 -1.3515  1.4624  1.6978
  725SOL     OW 2173   2.303   0.802   1.328 -0.0855 -0.8725 -0.1025
  725SOL    HW1 2174   2.236   0.851   1.391 -0.3357  0.0946  4.3145
  725SOL    HW2 2175   2.360   0.741   1.385 -1.7625  0.2783 -2.1888
  726SOL     OW 2176   1.829   2.887   0.606 -0.0350 -0.1108  0.2765
  726SOL    HW1 2177   1.838   2.829   0.519 -0.7048  1.2876  0.1400
  726SOL    HW2 2178   1.744   2.941   0.609 -1.2324 -1.3747 -1.2075
  727SOL     OW 2179   1.197   0.852   2.015 -0.0404  0.2670 -0.1233
  727SOL    HW1 2180   1.196   0.802   2.104  2.4744 -0.0571  1.6951
  727SOL    HW2 2181   1.285   0.838   1.969 -1.3705  0.0225  1.5703
  728SOL     OW 2182   1.246   2.637   1.132  0.2229 -0.0382 -0.3476
  728SOL    HW1 2183   1.318   2.697   1.096  2.4008 -3.9806 -1.5259
  728SOL    HW2 2184   1.289   2.567   1.193  0.2014  2.8553  1.8010
  729SOL     OW 2185   1.904   0.840   0.924 -0.2813 -0.5256  0.4232
  729SOL    HW1 2186   1.985   0.889   0.897 -1.8714 -1.5865 -0.5142
  729SOL    HW2 2187   1.931   0.751   0.972  0.5693 -0.9284  1.1091
  730SOL     OW 2188   0.788   1.910   2.348 -0.1198  0.0589 -0.5033
  730SOL    HW1 2189   0.793   1.991   2.284 -0.7567  1.2804  0.0532
  730SOL    HW2 2190   0.735   1.927   2.435 -4.6586  0.1598  3.2245
  731SOL     OW 2191   0.556   0.348   0.715  0.3620  0.3599  0.1560
  731SOL    HW1 2192   0.483   0.373   0.645 -4.1428  1.7673 -2.4527
  731SOL    HW2 2193   0.649   0.370   0.682  1.5476  0.5997 -0.5961
  732SOL     OW 2194   0.864   0.844   0.137  0.0099  0.0347 -0.5664
  732SOL    HW1 2195   0.787   0.823   0.080  4.1389  2.5900 -0.6498
  732SOL    HW2 2196   0.945   0.883   0.085  3.4647 -0.6357  3.6614
  733SOL     OW 2197   0.782   2.379   0.711 -0.1025  0.3057  0.4875
  733SOL    HW1 2198   0.842   2.343   0.632  0.2756 -0.8451 -0.9149
  733SOL    HW2 2199   0.785   2.307   0.786  0.0623 -1.9341  1.0710
  734SOL     OW 2200   0.030   2.073   2.718 -0.3684 -0.1794 -0.3464
  734SOL    HW1 2201   0.028   2.159   2.663  0.5726 -0.6510 -1.4373
  734SOL    HW2 2202   0.042   2.097   2.817 -0.3680  1.7607  1.3315
  735SOL     OW 2203   0.970   3.083   1.216 -0.7917  0.3389  0.2044
  735SOL    HW1 2204   1.049   0.040   1.243 -1.9639 -0.2862 -0.5472
  735SOL    HW2 2205   0.987   2.979   1.220 -2.0856 -3.5377  1.4003
  736SOL     OW 2206   1.820   2.910   3.087  0.3677 -0.3963  0.5950
  736SOL    HW1 2207   1.803   2.950   0.089  2.0778 -1.5975  0.9440
  736SOL    HW2 2208   1.865   2.971   3.020 -0.4225  3.7797 -0.5771
  737SOL     OW 2209   3.062   0.402   0.535 -0.2607 -0.0200 -0.3173
  737SOL    HW1 2210   2.979   0.392   0.479 -0.0978  1.4775 -1.1396
  737SOL    HW2 2211   3.055   0.481   0.596 -0.5456 -3.5734  1.6238
  738SOL     OW 2212   2.437   2.878   1.013 -0.8492  0.1264  0.4155
  738SOL    HW1 2213   2.412   2.966   1.060 -0.3431  1.1358 -0.5284
  738SOL    HW2 2214   2.411   2.883   0.921 -0.0649  0.7115  2.2856
  739SOL     OW 2215   1.646   2.410   0.129  0.5627 -0.2116 -0.0793
  739SOL    HW1 2216   1.676   2.319   0.098  2.3759  0.0405  3.0804
  739SOL    HW2 2217   1.669   2.483   0.062 -0.6757 -2.1034 -2.2787
  740SOL     OW 2218   1.504   0.196   0.941 -0.4762  0.2699 -0.3085
  740SOL    HW1 2219   1.473   0.116   0.885  0.4878 -2.3103 -0.5215
  740SOL    HW2 2220   1.561   0.263   0.883  0.5997  0.9824  0.9025
  741SOL     OW 2221   2.404   0.759   0.673  0.4903 -0.5049  0.1798
  741SOL    HW1 2222   2.310   0.786   0.690 -0.4418 -0.6418 -0.4587
  741SOL    HW2 2223   2.409   0.703   0.590 -0.6525  0.5616  0.8575
  742SOL     OW 2224   1.133   2.218   2.345  0.1318  0.0420  0.6187
  742SOL    HW1 2225   1.223   2.255   2.367 -3.7253 -0.0825 -1.2434
  742SOL    HW2 2226   1.093   2.273   2.269 -0.8688 -2.0062  1.8185
  743SOL     OW 2227   2.011   0.279   1.787 -0.3089 -0.2043 -0.0439
  743SOL    HW1 2228   2.086   0.269   1.857 -0.3260  0.8133  0.6759
  743SOL    HW2 2229   1.983   0.188   1.740 -1.3059 -2.5242 -1.2047
  744SOL     OW 2230   2.123   0.261   1.045  0.0948 -0.3196 -0.0997
  744SOL    HW1 2231   2.105   0.173   0.999  0.0661  2.8261 -0.7154
  744SOL    HW2 2232   2.141   0.251   1.145  1.4097  0.5309  0.7536
  745SOL     OW 2233   1.803   1.089   1.570  0.2485  0.7252  0.5919
  745SOL    HW1 2234   1.766   0.996   1.554  1.9174  3.4974 -0.4689
  745SOL    HW2 2235   1.754   1.152   1.501  0.4214 -1.6800 -2.7746
  746SOL     OW 2236   1.834   1.326   1.001 -0.5264 -0.0346  0.1059
  746SOL    HW1 2237   1.752   1.306   0.941 -1.3112  1.5492 -1.0018
  746SOL    HW2 2238   1.884   1.243   1.020  0.0165  2.8211 -0.1593
  747SOL     OW 2239   1.945   1.094   1.058  0.5649  0.6652 -0.1495
  747SOL    HW1 2240   2.045   1.067   1.076 -1.1541  0.3447 -1.2755
  747SOL    HW2 2241   1.892   1.010   1.033  2.4746  0.9742  0.1165
  748SOL     OW 2242   0.371   2.332   0.749 -0.4949 -0.1719  0.0670
  748SOL    HW1 2243   0.453   2.383   0.717  1.1326  1.7859 -1.5756
  748SOL    HW2 2244   0.338   2.272   0.673 -0.4853 -1.9664  0.1085
  749SOL     OW 2245   2.735   2.957   2.363 -0.0168  0.3224  0.8323
  749SOL    HW1 2246   2.664   2.891   2.395  0.2272 -2.6236 -2.9167
  749SOL    HW2 2247   2.759   2.942   2.266  1.6359  2.4163 -0.5598
  750SOL     OW 2248   2.514   0.380   1.038 -0.8287 -0.2078 -0.3981
  750SOL    HW1 2249   2.549   0.416   0.946  3.2194  0.9898 -0.1510
  750SOL    HW2 2250   2.419   0.407   1.052  0.6914  0.6796 -1.2500
  751SOL     OW 2251   2.742   0.256   0.247 -0.1234 -0.2046 -0.0186
  751SOL    HW1 2252   2.750   0.261   0.146  0.4269  1.8408 -1.3936
  751SOL    HW2 2253   2.650   0.290   0.277 -2.0033  0.5812  4.4052
  752SOL     OW 2254   0.363   2.769   0.945 -0.0416  0.1658  0.0813
  752SOL    HW1 2255   0.309   2.693   0.987  2.3960  1.4361  0.8160
  752SOL    HW2 2256   0.384   2.743   0.849  2.4650 -2.1554 -1.1642
  753SOL     OW 2257   1.385   0.553   1.927 -0.2341 -0.1971 -0.0483
  753SOL    HW1 2258   1.425   0.648   1.938 -1.7815  0.2313 -0.8887
  753SOL    HW2 2259   1.368   0.532   1.830  0.4559 -1.2555  1.9332
  754SOL     OW 2260   1.817   2.183   1.718  0.0813 -0.3861 -0.3658
  754SOL    HW1 2261   1.801   2.278   1.748 -0.5460 -0.5514 -2.0416
  754SOL    HW2 2262   1.737   2.117   1.727  2.3392  0.2061 -0.4103
  755SOL     OW 2263   2.867   0.562   0.372 -0.1750  0.7841 -0.2946
  755SOL    HW1 2264   2.882   0.659   0.402  1.1723  0.3537 -0.9249
  755SOL    HW2 2265   2.840   0.558   0.275 -1.4095 -0.2607 -0.5013
  756SOL     OW 2266   1.495   1.591   2.677  0.2188  0.3409  0.3376
  756SOL    HW1 2267   1.394   1.580   2.667 -1.1984 -2.1989 -1.4352
  756SOL    HW2 2268   1.511   1.685   2.708 -0.2160 -0.6820  2.1625
  757SOL     OW 2269   1.443   3.088   0.793  0.0375  0.0000 -0.1903
  757SOL    HW1 2270   1.358   3.037   0.799 -0.1416  0.6534  1.2696
  757SOL    HW2 2271   1.482   3.084   0.701 -1.4636  1.3084 -3.0758
  758SOL     OW 2272   0.319   0.231   1.328 -0.0408 -0.7129  0.1579
  758SOL    HW1 2273   0.240   0.163   1.325 -1.7995  1.8824  2.5072
  758SOL    HW2 2274   0.305   0.310   1.262  1.1525  1.0346 -0.5553
  759SOL     OW 2275   0.166   0.888   1.326 -0.1364  0.2672  0.0165
  759SOL    HW1 2276   0.199   0.791   1.325  0.3296 -0.3682  2.6723
  759SOL    HW2 2277   0.070   0.902   1.353 -1.9289 -4.3015 -1.8728
  760SOL     OW 2278   2.233   0.902   0.966  0.8942 -0.2002 -0.5049
  760SOL    HW1 2279   2.298   0.971   0.932 -2.1778 -0.8835 -1.8000
  760SOL    HW2 2280   2.212   0.920   1.064  0.4340 -1.7986  1.1823
  761SOL     OW 2281   1.373   0.923   0.504 -0.4774 -0.5014  0.1418
  761SOL    HW1 2282   1.301   0.872   0.560 -3.0300  1.2339  2.3155
  761SOL    HW2 2283   1.364   1.025   0.517  1.1462 -1.2805 -1.0446
  762SOL     OW 2284   2.416   2.231   1.284  0.5290  0.2601  0.8666
  762SOL    HW1 2285   2.318   2.225   1.296  0.0928  0.0384 -1.5632
  762SOL    HW2 2286   2.438   2.320   1.239  0.5484  1.3670 -0.0877
  763SOL     OW 2287   1.562   1.383   1.998 -0.1196  0.2553  0.4284
  763SOL    HW1 2288   1.606   1.308   1.941 -0.5506 -1.6266 -4.7917
  763SOL    HW2 2289   1.469   1.399   1.968  3.1398 -0.5161  1.0677
  764SOL     OW 2290   0.199   1.914   2.575  0.7622  0.1566 -0.0007
  764SOL    HW1 2291   0.151   1.851   2.517  2.0163  0.2041  1.0922
  764SOL    HW2 2292   0.126   1.938   2.639 -1.4135  1.2955 -3.7828
  765SOL     OW 2293   0.891   2.465   1.320  0.1105  0.4789 -0.0736
  765SOL    HW1 2294   0.814   2.408   1.361  2.5088  0.3559 -0.4752
  765SOL    HW2 2295   0.860   2.536   1.255 -3.5888 -0.2959  3.2926
  766SOL     OW 2296   0.871   2.199   2.573  0.1236  0.0268  0.1669
  766SOL    HW1 2297   0.942   2.136   2.537  1.5290  0.6724  0.1861
  766SOL    HW2 2298   0.869   2.206   2.673 -0.9918  0.0803 -0.1113
  767SOL     OW 2299   1.925   0.264   2.310  0.0384 -0.2677 -0.4976
  767SOL    HW1 2300   2.014   0.280   2.264 -1.8851 -0.0598 -0.8330
  767SOL    HW2 2301   1.930   0.256   2.412  0.0973 -4.0352  1.9169
  768SOL     OW 2302   1.193   2.531   2.880 -0.5694 -0.1586  0.1044
  768SOL    HW1 2303   1.199   2.621   2.829  2.7580 -0.6225  0.2723
  768SOL    HW2 2304   1.121   2.526   2.947 -0.2642  0.5610 -0.1132
  769SOL     OW 2305   3.086   2.621   1.026  0.5275  0.2131  0.4682
  769SOL    HW1 2306   3.013   2.595   1.091  0.4673  1.0466 -2.9358
  769SOL    HW2 2307   0.082   2.630   1.081 -0.2189  1.4281  0.2712
  770SOL     OW 2308   0.635   2.787   2.925  0.0419 -0.0990 -0.1467
  770SOL    HW1 2309   0.562   2.752   2.864 -0.2771 -2.7051 -2.2475
  770SOL    HW2 2310   0.716   2.812   2.865  2.4597 -3.1631 -1.3700
  771SOL     OW 2311   1.012   2.459   2.601  0.7594 -0.5085 -0.1899
  771SOL    HW1 2312   1.065   2.382   2.642 -0.7840  4.1368 -1.2288
  771SOL    HW2 2313   0.939   2.414   2.544  0.2150  0.1156  0.7082
  772SOL     OW 2314   2.457   3.060   1.870 -0.1742 -0.6779  0.2696
  772SOL    HW1 2315   2.366   3.055   1.839  0.7253 -0.3965  0.3376
  772SOL    HW2 2316   2.516   0.038   1.819 -1.8548  1.5818  2.8607
  773SOL     OW 2317   0.935   2.729   1.949  0.0163 -0.4683 -0.4909
  773SOL    HW1 2318   0.925   2.632   1.928 -0.0830  3.0335  2.6931
  773SOL    HW2 2319   0.905   2.747   2.049 -4.2370  1.0317  2.8581
  774SOL     OW 2320   1.404   0.570   2.251 -0.5789 -0.9405 -0.5949
  774SOL    HW1 2321   1.353   0.507   2.312  0.8592  2.5321 -0.0460
  774SOL    HW2 2322   1.458   0.515   2.185  0.6637 -0.3977 -2.2093
  775SOL     OW 2323   2.081   0.011   0.206 -0.0051 -0.0291  0.1200
  775SOL    HW1 2324   2.121   3.045   0.135 -1.3541 -1.4402 -1.7766
  775SOL    HW2 2325   1.985   3.075   0.225  2.7862 -1.2798  1.4655
  776SOL     OW 2326   2.220   0.881   1.877  0.1527  0.1536 -0.3158
  776SOL    HW1 2327   2.143   0.851   1.813  0.1122 -3.8974  2.0032
  776SOL    HW2 2328   2.213   0.983   1.884 -0.7648 -0.2852  0.7202
  777SOL     OW 2329   2.694   1.193   2.248 -0.3185  0.2436  0.4438
  777SOL    HW1 2330   2.722   1.100   2.218  0.9087  0.8961  2.2832
  777SOL    HW2 2331   2.629   1.226   2.175  1.6677 -0.8800  1.2956
  778SOL     OW 2332   2.390   0.489   2.131 -0.1420 -0.1155 -0.1926
  778SOL    HW1 2333   2.397   0.583   2.089  0.3148  2.3623  0.6001
  778SOL    HW2 2334   2.426   0.416   2.070 -0.5095 -1.1342 -1.5660
  779SOL     OW 2335   0.005   0.046   3.015 -0.2311 -0.1068 -0.0168
  779SOL    HW1 2336   0.036   0.127   2.962  0.3073 -0.0904 -1.2118
  779SOL    HW2 2337   0.032   0.058   0.022 -0.8670  1.3127  1.5081
  780SOL     OW 2338   1.961   3.022   2.325 -0.4672 -0.3832  0.0458
  780SOL    HW1 2339   2.017   3.043   2.240 -1.6313  0.4082 -1.0746
  780SOL    HW2 2340   1.997   3.080   2.400  1.1443  0.1221  0.4840
  781SOL     OW 2341   3.091   0.862   1.795  0.3091 -0.4057 -0.0943
  781SOL    HW1 2342   0.072   0.904   1.737 -2.6002  0.0215  1.6306
  781SOL    HW2 2343   0.039   0.802   1.865  2.2463 -1.4809 -2.1960
  782SOL     OW 2344   1.950   2.234   0.182 -0.0575 -0.3195  0.4667
  782SOL    HW1 2345   2.018   2.171   0.146 -4.2865 -0.7336  1.6281
  782SOL    HW2 2346   1.966   2.238   0.281 -0.3121 -0.1817 -1.1912
  783SOL     OW 2347   0.739   1.759   1.166 -0.2010 -0.0810  0.1240
  783SOL    HW1 2348   0.786   1.752   1.077 -0.4843  1.6358 -1.8257
  783SOL    HW2 2349   0.802   1.740   1.246  0.9168  0.4640  1.7475
  784SOL     OW 2350   2.028   0.594   2.242 -0.4581 -0.2224  0.4364
  784SOL    HW1 2351   2.081   0.507   2.241  0.8009  1.0540  0.9238
  784SOL    HW2 2352   2.084   0.675   2.208 -1.2379 -1.6950 -0.5606
  785SOL     OW 2353   0.074   0.331   0.967 -0.6148  0.5459 -0.2719
  785SOL    HW1 2354   0.069   0.434   0.963  0.9205 -0.6055 -0.2527
  785SOL    HW2 2355   0.011   0.293   1.041 -0.4556 -1.1221  1.8494
  786SOL     OW 2356   1.832   3.014   0.254  0.2642 -0.0872  0.1145
  786SOL    HW1 2357   1.781   3.091   0.297 -0.2042 -1.8984 -1.9508
  786SOL    HW2 2358   1.829   2.933   0.313  0.0231 -0.1906 -1.4343
  787SOL     OW 2359   1.037   0.054   0.828  0.7215  0.4404 -0.6558
  787SOL    HW1 2360   1.059   0.136   0.775  0.1272 -3.1737 -3.5666
  787SOL    HW2 2361   0.983   0.084   0.912 -0.8867  0.1349  2.3096
  788SOL     OW 2362   0.076   1.757   1.242  0.0859  0.0824 -0.2847
  788SOL    HW1 2363   0.024   1.763   1.155  0.5103 -0.4645 -1.3441
  788SOL    HW2 2364   0.148   1.824   1.250  3.5930 -2.2185  1.0075
  789SOL     OW 2365   2.881   0.643   2.094 -0.0573 -0.3741 -0.0253
  789SOL    HW1 2366   2.878   0.545   2.125  1.2834 -0.8914  0.7538
  789SOL    HW2 2367   2.866   0.709   2.175  3.4532  2.2513  3.9998
  790SOL     OW 2368   0.740   0.705   2.784 -0.0600 -0.2485 -0.4079
  790SOL    HW1 2369   0.768   0.651   2.706 -2.6846  2.8392  1.3505
  790SOL    HW2 2370   0.812   0.775   2.813  0.9901 -0.7402 -0.0371
  791SOL     OW 2371   2.297   0.153   2.849  0.1125 -0.1247 -0.5145
  791SOL    HW1 2372   2.336   0.091   2.921 -1.1429  0.8646 -2.2927
  791SOL    HW2 2373   2.327   0.122   2.757  0.6540  0.1748 -2.3691
  792SOL     OW 2374   1.316   0.979   1.298  0.1306 -0.2807  0.4017
  792SOL    HW1 2375   1.271   1.065   1.280 -0.6452 -1.0716  0.0870
  792SOL    HW2 2376   1.249   0.902   1.318  0.6659  1.4441 -0.4925
  793SOL     OW 2377   2.847   0.229   1.589 -0.2311 -0.4067  0.8558
  793SOL    HW1 2378   2.879   0.320   1.614 -1.5414  2.8360 -1.9219
  793SOL    HW2 2379   2.876   0.209   1.488  0.9831 -0.6941  1.4201
  794SOL     OW 2380   3.027   0.061   2.237  0.2364  0.1861  0.2069
  794SOL    HW1 2381   3.061   0.146   2.194  1.5564 -0.6615  1.3714
  794SOL    HW2 2382   2.969   0.018   2.166  0.3476 -1.7484  1.8124
  795SOL     OW 2383   0.739   2.136   2.805 -0.0754  0.2657 -0.1853
  795SOL    HW1 2384   0.725   2.223   2.856 -2.0789  0.4139 -1.6312
  795SOL    HW2 2385   0.759   2.058   2.869  1.6930  0.7747  0.8176
  796SOL     OW 2386   1.909   0.544   2.649 -0.5686 -0.1335  0.0591
  796SOL    HW1 2387   1.881   0.573   2.559  2.0861  0.4562  1.6783
  796SOL    HW2 2388   1.843   0.572   2.720  1.5555 -1.0356  2.0562
  797SOL     OW 2389   2.170   2.275   2.963 -0.5640  0.2439  0.6244
  797SOL    HW1 2390   2.265   2.275   3.011  0.0356 -1.2551 -0.6285
  797SOL    HW2 2391   2.111   2.352   2.988  0.2414 -1.3462  0.8327
  798SOL     OW 2392   0.007   0.683   1.473  0.2113 -0.2145 -0.2340
  798SOL    HW1 2393   3.030   0.740   1.429 -2.5376  1.2574 -1.4834
  798SOL    HW2 2394   0.096   0.671   1.425  0.9591 -0.8953  1.0854
  799SOL     OW 2395   0.400   0.306   1.842 -0.5222 -0.2408  0.0840
  799SOL    HW1 2396   0.482   0.360   1.873  1.2734  1.3323  0.3690
  799SOL    HW2 2397   0.416   0.208   1.844 -2.4069  2.2308  1.0484
  800SOL     OW 2398   0.204   2.302   0.222  0.4335  0.8263  0.0892
  800SOL    HW1 2399   0.144   2.317   0.301 -0.0731  0.6942 -0.3798
  800SOL    HW2 2400   0.212   2.206   0.191  2.9064  0.3022  1.1238
  801SOL     OW 2401   1.613   1.596   0.823 -0.3745  0.3095 -0.3972
  801SOL    HW1 2402   1.595   1.634   0.915 -1.3582  0.9497 -2.4119
  801SOL    HW2 2403   1.663   1.671   0.771 -2.0079  0.2661  0.6775
  802SOL     OW 2404   0.815   0.598   0.274 -0.7220 -0.6880  0.3727
  802SOL    HW1 2405   0.717   0.573   0.260  3.1122 -2.9497 -0.9681
  802SOL    HW2 2406   0.851   0.674   0.214 -1.3118 -0.4490 -2.8204
  803SOL     OW 2407   1.286   1.410   1.936 -0.5804 -0.3561  0.4109
  803SOL    HW1 2408   1.212   1.445   1.988  0.1219 -1.6056 -0.0625
  803SOL    HW2 2409   1.257   1.327   1.891  2.6912  0.4373 -0.5081
  804SOL     OW 2410   1.725   2.199   1.247 -0.4945  0.0502 -0.1068
  804SOL    HW1 2411   1.814   2.245   1.242 -1.6786  1.0473 -2.3732
  804SOL    HW2 2412   1.690   2.208   1.157 -1.5874  1.6928  0.5888
  805SOL     OW 2413   3.070   2.265   2.518  0.1173  0.4198  0.7550
  805SOL    HW1 2414   0.021   2.193   2.452 -1.1419 -1.2383 -1.4178
  805SOL    HW2 2415   3.071   2.361   2.483  0.8812 -0.6430  2.1427
  806SOL     OW 2416   0.993   2.830   0.226  0.0840 -0.2093  0.3269
  806SOL    HW1 2417   0.922   2.799   0.158  0.7779 -0.8331  0.0025
  806SOL    HW2 2418   0.996   2.931   0.213  2.0432 -2.1956 -0.7266
  807SOL     OW 2419   2.496   1.011   2.939  0.1107  0.4100 -0.4448
  807SOL    HW1 2420   2.551   1.057   2.867  0.1138 -2.4081  1.7755
  807SOL    HW2 2421   2.548   0.927   2.968 -0.4962 -0.0588 -1.9667
  808SOL     OW 2422   1.480   2.084   0.902 -0.0424 -0.3145  0.5085
  808SOL    HW1 2423   1.556   2.117   0.845 -0.3533  1.1762 -0.4343
  808SOL    HW2 2424   1.393   2.080   0.852  2.6096  1.5684  0.0058
  809SOL     OW 2425   0.237   0.291   0.584  0.0688 -0.1602 -0.1900
  809SOL    HW1 2426   0.164   0.365   0.580 -0.0710  1.4021  0.7430
  809SOL    HW2 2427   0.214   0.216   0.650 -1.3099 -0.3908 -0.4770
  810SOL     OW 2428   1.430   1.351   0.149 -0.0262 -0.4024 -0.2977
  810SOL    HW1 2429   1.487   1.390   0.074 -0.7823 -1.3690 -0.2106
  810SOL    HW2 2430   1.487   1.325   0.232 -0.2377  0.1587  1.0233
  811SOL     OW 2431   1.484   2.800   1.296  0.2003 -0.1220 -0.4091
  811SOL    HW1 2432   1.528   2.710   1.299  0.4044  1.3310  1.4701
  811SOL    HW2 2433   1.411   2.806   1.368  0.9731  0.2690  0.2815
  812SOL     OW 2434   1.097   0.260   0.619 -0.7985 -0.0661  0.3345
  812SOL    HW1 2435   1.125   0.277   0.523  1.0192  0.0384  2.0588
  812SOL    HW2 2436   1.112   0.350   0.670 -0.6529  3.4694  0.1002
  813SOL     OW 2437   1.219   0.045   2.377 -0.2160  0.2613 -0.1005
  813SOL    HW1 2438   1.197   3.046   2.339 -1.7836  1.4753 -1.0692
  813SOL    HW2 2439   1.290   0.096   2.328 -2.0909 -0.6854  2.3684
  814SOL     OW 2440   1.245   2.815   1.449  0.4397 -0.3487 -0.3728
  814SOL    HW1 2441   1.240   2.719   1.485  1.1546 -1.1328  1.5845
  814SOL    HW2 2442   1.174   2.832   1.378  0.3357 -0.4056 -1.5723
  815SOL     OW 2443   0.057   2.754   0.135 -0.4924 -0.0127  0.9575
  815SOL    HW1 2444   0.014   2.836   0.093  1.0701 -1.2129 -0.5197
  815SOL    HW2 2445   3.081   2.696   0.183 -0.0184  1.8817  0.0998
  816SOL     OW 2446   2.252   1.339   2.774  0.1554  0.2116  0.7846
  816SOL    HW1 2447   2.167   1.384   2.736  2.3594  1.4422 -0.0480
  816SOL    HW2 2448   2.239   1.236   2.780  2.0973 -0.5973  3.3756
  817SOL     OW 2449   2.214   2.127   2.284  0.3891  0.1456 -0.3633
  817SOL    HW1 2450   2.176   2.059   2.350  2.5432 -0.9368 -1.0059
  817SOL    HW2 2451   2.287   2.176   2.336 -0.0132  2.8719  1.4989
  818SOL     OW 2452   1.142   0.965   0.022  0.2788 -0.0209 -0.1063
  818SOL    HW1 2453   1.205   1.017   0.082 -1.6534  1.1764  0.9576
  818SOL    HW2 2454   1.103   1.033   3.046 -1.8275  2.7936 -2.6982
  819SOL     OW 2455   1.793   1.525   0.267 -0.0313 -0.4770  0.3691
  819SOL    HW1 2456   1.800   1.449   0.199  1.6694  0.6289 -2.2851
  819SOL    HW2 2457   1.727   1.496   0.339 -1.2110 -2.3984 -2.7157
  820SOL     OW 2458   0.221   0.736   0.582  0.1635 -0.0133  0.3159
  820SOL    HW1 2459   0.229   0.694   0.673 -1.5158 -2.9068 -0.2095
  820SOL    HW2 2460   0.205   0.669   0.507 -0.5977  2.7639  0.6035
  821SOL     OW 2461   0.376   0.038   1.518 -0.1985  0.6308  0.0931
  821SOL    HW1 2462   0.366   0.128   1.474 -1.1160 -0.5945 -2.3426
  821SOL    HW2 2463   0.391   3.056   1.450 -0.3689  0.8891 -1.3359
  822SOL     OW 2464   2.017   2.243   2.624  0.2404 -0.1974 -0.6105
  822SOL    HW1 2465   2.029   2.327   2.683  0.6561 -1.4530 -0.4862
  822SOL    HW2 2466   1.932   2.263   2.566  0.1931 -1.1034  0.1475
  823SOL     OW 2467   0.765   0.648   2.024  0.3075  0.0064 -0.0235
  823SOL    HW1 2468   0.846   0.678   1.980 -2.7629 -3.0272  0.2873
  823SOL    HW2 2469   0.725   0.729   2.082  1.3950  2.8507 -0.2024
  824SOL     OW 2470   2.440   0.016   1.485 -0.1787 -0.0933 -0.9373
  824SOL    HW1 2471   2.412   0.106   1.441 -0.7272  0.0247  2.1297
  824SOL    HW2 2472   2.363   3.041   1.483 -3.6986 -0.1942 -2.0894
  825SOL     OW 2473   0.371   1.284   2.499 -0.3208 -0.2895 -0.7089
  825SOL    HW1 2474   0.422   1.266   2.412  1.0135 -3.0413  0.3617
  825SOL    HW2 2475   0.274   1.260   2.502  2.4534  0.0230  1.1079
  826SOL     OW 2476   1.652   0.480   2.796  0.2945  0.3572  0.3673
  826SOL    HW1 2477   1.623   0.526   2.708  3.6681 -1.4812 -1.3804
  826SOL    HW2 2478   1.671   0.382   2.769  1.0021  0.2722  1.4956
  827SOL     OW 2479   0.499   2.462   2.384  0.1585 -0.0423  0.1781
  827SOL    HW1 2480   0.481   2.393   2.312 -0.5655  1.8465  1.5871
  827SOL    HW2 2481   0.446   2.547   2.365 -2.7750 -0.1707 -0.5955
  828SOL     OW 2482   3.039   3.074   1.599 -0.0428 -0.0946 -0.1686
  828SOL    HW1 2483   0.024   0.032   1.638  3.3722  1.4313  0.8837
  828SOL    HW2 2484   2.954   0.035   1.608  1.1366  1.4037  0.3065
  829SOL     OW 2485   1.356   1.596   1.723 -0.3597  0.0076 -0.5244
  829SOL    HW1 2486   1.419   1.564   1.650 -0.1592 -1.7186 -1.7965
  829SOL    HW2 2487   1.344   1.528   1.798  1.9817 -0.3271 -3.4031
  830SOL     OW 2488   0.956   1.072   1.440  0.3178 -0.5778 -0.3937
  830SOL    HW1 2489   0.949   1.015   1.360 -3.2969 -0.9757  1.1761
  830SOL    HW2 2490   0.867   1.081   1.489  0.0776 -1.7363  0.2692
  831SOL     OW 2491   2.925   1.699   0.432  0.2619  0.4048 -0.3586
  831SOL    HW1 2492   2.927   1.731   0.339 -0.2320  1.9741  2.2043
  831SOL    HW2 2493   2.887   1.767   0.497  1.7102 -2.5106 -1.7883
  832SOL     OW 2494   1.251   2.702   0.231  0.2129  0.1801 -0.0197
  832SOL    HW1 2495   1.162   2.746   0.226  2.1822 -3.7341 -1.8917
  832SOL    HW2 2496   1.243   2.601   0.253  1.8888 -1.8346  1.2001
  833SOL     OW 2497   3.077   0.415   1.626 -0.0330 -0.0497  0.2172
  833SOL    HW1 2498   0.077   0.366   1.621  2.7775  1.5849 -0.7590
  833SOL    HW2 2499   3.086   0.514   1.612 -0.4058  0.4691 -0.0988
  834SOL     OW 2500   2.851   0.683   1.050  0.0453  0.0330 -0.4797
  834SOL    HW1 2501   2.949   0.662   1.013  0.9823 -1.1145  0.0363
  834SOL    HW2 2502   2.843   0.785   1.043  0.4119 -2.2725 -0.6909
  835SOL     OW 2503   2.590   3.052   0.365  0.3554 -0.1005  0.0260
  835SOL    HW1 2504   2.675   3.029   0.421 -0.3388 -0.0391  1.2415
  835SOL    HW2 2505   2.618   0.018   0.286  1.0861  3.1704 -0.2992
  836SOL     OW 2506   1.066   2.043   2.790 -0.1671  0.4967 -0.1173
  836SOL    HW1 2507   0.997   1.979   2.826  0.9627  2.5930 -0.8289
  836SOL    HW2 2508   1.063   2.037   2.688 -1.4860  2.1691 -0.1772
  837SOL     OW 2509   1.659   1.750   0.125 -0.1443 -0.6664 -0.3192
  837SOL    HW1 2510   1.714   1.670   0.167  0.4983  1.1699  2.9932
  837SOL    HW2 2511   1.586   1.722   0.060  0.8790 -1.3224 -0.3845
  838SOL     OW 2512   2.528   0.748   2.418  0.0864  0.1161 -0.2290
  838SOL    HW1 2513   2.564   0.807   2.494  0.0618  0.5828 -0.0058
  838SOL    HW2 2514   2.461   0.801   2.357 -3.6185  1.0796 -0.6487
  839SOL     OW 2515   0.747   0.880   2.460  0.0437 -0.0908 -0.0926
  839SOL    HW1 2516   0.851   0.884   2.463 -0.4156  1.0080 -0.1236
  839SOL    HW2 2517   0.708   0.938   2.537 -0.3723  0.1285  2.0777
  840SOL     OW 2518   0.960   0.823   2.903 -0.0036  0.1599  0.5770
  840SOL    HW1 2519   0.950   0.921   2.933 -0.3938 -1.8433  0.0689
  840SOL    HW2 2520   1.010   0.765   2.972  1.6723  0.1647 -1.1743
  841SOL     OW 2521   0.866   2.595   0.840  0.0611  0.2853 -0.2306
  841SOL    HW1 2522   0.868   2.683   0.785 -1.5353 -1.0324 -2.6936
  841SOL    HW2 2523   0.818   2.519   0.789  0.5792 -0.4243 -0.0170
  842SOL     OW 2524   0.306   0.670   0.839 -0.1470  0.4450  0.5374
  842SOL    HW1 2525   0.342   0.742   0.899 -1.6445 -1.9724 -3.1145
  842SOL    HW2 2526   0.344   0.577   0.864  1.9282 -2.1419  1.3109
  843SOL     OW 2527   0.688   1.127   1.523 -0.2319 -0.4905 -0.0508
  843SOL    HW1 2528   0.622   1.051   1.508 -0.3527  1.1856 -0.4650
  843SOL    HW2 2529   0.662   1.179   1.608  1.3607 -1.5932 -0.4896
  844SOL     OW 2530   2.257   2.526   2.653 -0.3310 -0.0080  0.2366
  844SOL    HW1 2531   2.259   2.625   2.626 -1.3002 -0.8565 -2.2031
  844SOL    HW2 2532   2.325   2.469   2.603  0.6605 -0.3654 -0.1968
  845SOL     OW 2533   2.227   2.929   1.474  0.0825 -0.0859  0.4519
  845SOL    HW1 2534   2.155   2.952   1.405  0.5651  1.5244  0.0869
  845SOL    HW2 2535   2.196   2.848   1.527  2.8074 -0.8642 -0.4372
  846SOL     OW 2536   1.993   0.936   2.477 -0.1383  0.6370  0.4419
  846SOL    HW1 2537   2.076   0.873   2.492  0.4363 -1.6462 -0.6814
  846SOL    HW2 2538   1.922   0.906   2.543  0.9627  1.5933  0.3968
  847SOL     OW 2539   2.284   2.694   1.806 -0.5642 -1.0863 -0.2387
  847SOL    HW1 2540   2.261   2.687   1.707  4.1804 -0.4128 -0.1646
  847SOL    HW2 2541   2.360   2.636   1.830 -1.3035  1.9729 -2.1069
  848SOL     OW 2542   2.776   2.820   0.146  0.3342 -0.1738 -0.2139
  848SOL    HW1 2543   2.815   2.819   0.243 -0.7734 -1.1027  1.6458
  848SOL    HW2 2544   2.836   2.869   0.082 -0.9786 -1.1505  3.9778
  849SOL     OW 2545   0.325   3.030   0.956 -0.7337 -0.2096 -0.3671
  849SOL    HW1 2546   0.347   2.932   0.953  1.1108  0.0917 -1.1853
  849SOL    HW2 2547   0.405   3.084   0.993  3.1127 -1.7975 -0.0715
  850SOL     OW 2548   0.285   2.110   0.547 -0.1469  0.0189  0.5955
  850SOL    HW1 2549   0.300   2.196   0.494 -2.5651 -0.8061 -0.2424
  850SOL    HW2 2550   0.344   2.040   0.503 -1.0702  0.2923 -1.2623
  851SOL     OW 2551   2.033   0.481   0.155 -0.3180  0.0502 -0.0737
  851SOL    HW1 2552   2.075   0.482   0.060 -1.2088  0.9352  1.9051
  851SOL    HW2 2553   2.098   0.540   0.212  0.5001  2.3268  0.5742
  852SOL     OW 2554   1.790   2.275   2.506 -0.0343 -0.2209 -0.3214
  852SOL    HW1 2555   1.758   2.207   2.436  0.7824  0.0419  1.3481
  852SOL    HW2 2556   1.815   2.366   2.464 -2.9311  1.6448 -2.6748
  853SOL     OW 2557   3.061   2.004   0.308 -0.7685  0.0184 -0.3895
  853SOL    HW1 2558   3.021   1.920   0.260 -1.8749  2.5221 -1.4130
  853SOL    HW2 2559   0.053   2.028   0.252 -0.4450 -0.5200 -1.9944
  854SOL     OW 2560   1.823   0.560   2.058 -0.1365 -0.1859 -0.0644
  854SOL    HW1 2561   1.762   0.488   2.095  0.8917  2.2357 -0.9889
  854SOL    HW2 2562   1.903   0.569   2.120 -2.1451 -1.7706 -0.3295
  855SOL     OW 2563   0.419   2.753   0.054  0.4070  0.3942  0.0956
  855SOL    HW1 2564   0.505   2.734   3.092  1.2095  0.5275 -0.5385
  855SOL    HW2 2565   0.372   2.665   0.075  2.0907 -1.0393 -1.1598
  856SOL     OW 2566   0.359   2.755   2.400  0.1585  0.0274 -0.7291
  856SOL    HW1 2567   0.306   2.823   2.348 -1.3022  1.7248  0.2738
  856SOL    HW2 2568   0.451   2.791   2.408 -0.4484 -2.8641 -2.1409
  857SOL     OW 2569   0.748   0.288   1.770 -0.2404  0.0973  0.3024
  857SOL    HW1 2570   0.773   0.309   1.670  0.6478  0.5632 -3.3534
  857SOL    HW2 2571   0.683   0.211   1.773  0.2369  3.8721  1.6004
  858SOL     OW 2572   0.472   2.137   1.991  0.0291 -0.6447  0.7957
  858SOL    HW1 2573   0.469   2.039   1.965 -2.3009 -0.9105 -2.2841
  858SOL    HW2 2574   0.478   2.200   1.908  2.9166  2.7344 -0.6562
  859SOL     OW 2575   1.961   2.532   1.700  0.7161 -0.2847 -0.3347
  859SOL    HW1 2576   1.887   2.510   1.766 -0.2631 -1.7533  0.0141
  859SOL    HW2 2577   2.043   2.472   1.708 -0.3855  1.0050  0.4828
  860SOL     OW 2578   1.610   0.585   0.503 -0.2142  0.1534 -0.5960
  860SOL    HW1 2579   1.555   0.618   0.578  1.4210 -1.3166  1.0958
  860SOL    HW2 2580   1.648   0.667   0.456 -2.5516  0.5443  0.1138
  861SOL     OW 2581   3.016   0.608   0.681  0.0178 -0.0624  0.0971
  861SOL    HW1 2582   2.992   0.703   0.652  0.3505  2.1259  0.4747
  861SOL    HW2 2583   2.938   0.558   0.727 -0.9267  1.0957 -0.2884
  862SOL     OW 2584   1.889   0.778   1.294 -0.4336 -0.0875  0.8581
  862SOL    HW1 2585   1.851   0.743   1.378  1.1801  1.9638 -2.0906
  862SOL    HW2 2586   1.918   0.699   1.241 -2.4905 -1.0356  2.7454
  863SOL     OW 2587   0.698   1.322   1.306 -0.2177 -0.3299 -0.3127
  863SOL    HW1 2588   0.696   1.250   1.383 -0.7621 -0.6519  1.2660
  863SOL    HW2 2589   0.792   1.355   1.267 -0.7263 -2.0478 -2.1794
  864SOL     OW 2590   2.772   2.815   2.115  0.0864  0.3030 -0.0594
  864SOL    HW1 2591   2.815   2.724   2.117 -1.2163 -0.8253  0.7828
  864SOL    HW2 2592   2.706   2.824   2.039  2.3089  0.5670 -1.7069
  865SOL     OW 2593   1.007   0.407   2.260  0.2399  0.1790 -0.5511
  865SOL    HW1 2594   0.959   0.494   2.269 -0.6501 -0.0865  0.5058
  865SOL    HW2 2595   1.065   0.409   2.179 -0.9732  2.0113 -0.0875
  866SOL     OW 2596   2.412   2.864   0.247 -0.4187 -0.2064 -0.0666
  866SOL    HW1 2597   2.314   2.888   0.276 -1.7887 -0.5815 -0.3146
  866SOL    HW2 2598   2.482   2.922   0.296  1.3521 -0.4343 -0.6884
  867SOL     OW 2599   2.684   2.766   0.683 -0.3701 -0.0914  0.0483
  867SOL    HW1 2600   2.672   2.687   0.616 -1.9033 -1.0012 -0.5312
  867SOL    HW2 2601   2.751   2.748   0.757 -1.4831 -0.2259 -2.9759
  868SOL     OW 2602   1.711   1.468   2.757  0.2700 -0.5876  0.1377
  868SOL    HW1 2603   1.777   1.547   2.747  1.4378 -1.1755 -0.4035
  868SOL    HW2 2604   1.617   1.494   2.725  0.3743 -1.3813  0.1005
  869SOL     OW 2605   2.685   2.537   0.512  0.6402  0.3744  0.1586
  869SOL    HW1 2606   2.743   2.470   0.466  1.7329 -1.6033 -1.3362
  869SOL    HW2 2607   2.628   2.589   0.444  1.4297 -0.9712  0.1688
  870SOL     OW 2608   2.673   2.105   0.476  0.4402 -0.2599  0.4264
  870SOL    HW1 2609   2.612   2.154   0.543  0.1571 -0.5739  1.5578
  870SOL    HW2 2610   2.725   2.035   0.523  0.3180  3.0580 -1.0327
  871SOL     OW 2611   0.474   1.235   1.133  0.6163 -0.3420  0.6117
  871SOL    HW1 2612   0.559   1.251   1.181 -0.6410 -0.4487 -1.8423
  871SOL    HW2 2613   0.396   1.297   1.158 -1.5498 -1.9783 -0.4409
  872SOL     OW 2614   1.227   1.763   2.454  0.1610  0.2865  0.1120
  872SOL    HW1 2615   1.131   1.732   2.451  3.6266  3.0830  0.7530
  872SOL    HW2 2616   1.267   1.770   2.356 -1.5320  0.6940 -1.3877
  873SOL     OW 2617   0.433   2.765   1.978 -0.5313  0.2905  0.1603
  873SOL    HW1 2618   0.446   2.864   1.991  2.7645 -2.3176 -1.6735
  873SOL    HW2 2619   0.378   2.743   1.893 -1.1453  0.2822 -1.7154
  874SOL     OW 2620   0.650   0.510   1.420 -0.0980 -0.0917 -1.0795
  874SOL    HW1 2621   0.565   0.498   1.479 -1.3728 -0.5677  1.4172
  874SOL    HW2 2622   0.697   0.596   1.447  0.0586  0.1486 -0.0523
  875SOL     OW 2623   2.979   0.224   1.160 -0.0561 -0.1837  0.1027
  875SOL    HW1 2624   2.987   0.271   1.252 -0.8083 -0.2347  3.6029
  875SOL    HW2 2625   2.892   0.167   1.151 -1.2711  0.2550 -1.4635
  876SOL     OW 2626   0.599   1.276   0.305 -0.1632 -0.2758 -0.5587
  876SOL    HW1 2627   0.518   1.240   0.253 -1.2797  0.4705 -0.1696
  876SOL    HW2 2628   0.657   1.343   0.259 -2.9561  2.1171  0.8132
  877SOL     OW 2629   1.145   0.970   1.646 -0.1784 -0.1207  0.9102
  877SOL    HW1 2630   1.192   0.882   1.638  0.8205 -0.9221  0.2840
  877SOL    HW2 2631   1.097   1.001   1.561  0.8190 -0.1046 -1.0196
  878SOL     OW 2632   2.301   2.229   0.405  0.4444  0.1491 -0.4649
  878SOL    HW1 2633   2.311   2.164   0.328  2.7571  0.2137 -0.1647
  878SOL    HW2 2634   2.344   2.191   0.490 -0.7278  1.6381 -2.1497
  879SOL     OW 2635   2.739   1.771   1.707  0.1459 -0.3175  0.2879
  879SOL    HW1 2636   2.755   1.779   1.806  0.8270 -3.2262 -2.6957
  879SOL    HW2 2637   2.822   1.763   1.652 -1.5709  0.3075 -3.0897
  880SOL     OW 2638   1.640   2.429   0.629  0.7067 -0.2290  0.1972
  880SOL    HW1 2639   1.633   2.449   0.728  0.5166  0.7278  1.6595
  880SOL    HW2 2640   1.581   2.349   0.606  2.2234 -0.5543  0.0977
  881SOL     OW 2641   0.391   2.334   0.460 -0.1128  0.1256 -0.0726
  881SOL    HW1 2642   0.422   2.346   0.364  0.5055  0.6406 -0.0300
  881SOL    HW2 2643   0.456   2.387   0.517 -0.6135  0.1675 -0.1748
  882SOL     OW 2644   1.953   0.626   0.703  0.6848  0.3433 -0.2539
  882SOL    HW1 2645   1.972   0.554   0.777 -3.2543 -0.3980  3.2037
  882SOL    HW2 2646   2.036   0.679   0.676 -0.0020 -0.4959 -0.8778
  883SOL     OW 2647   1.583   0.940   1.312 -0.3577  0.7334 -0.8149
  883SOL    HW1 2648   1.485   0.951   1.298 -0.2559 -0.9917  0.3764
  883SOL    HW2 2649   1.630   0.917   1.223  1.9683 -0.9930 -2.7379
  884SOL     OW 2650   2.634   3.068   0.096 -0.1414 -0.1813  0.0611
  884SOL    HW1 2651   2.676   2.977   0.115  2.0747 -1.6608 -0.3733
  884SOL    HW2 2652   2.678   0.024   0.020  1.1455 -0.3181  0.7993
  885SOL     OW 2653   1.161   1.361   2.735  0.3457 -0.4425 -0.1458
  885SOL    HW1 2654   1.133   1.346   2.833 -1.4826 -2.9290  1.1575
  885SOL    HW2 2655   1.158   1.458   2.703  1.3333  1.4322 -0.3806
  886SOL     OW 2656   1.420   1.919   2.574  0.3828 -0.4601  0.8309
  886SOL    HW1 2657   1.333   1.883   2.531  0.3888 -0.0993  2.2319
  886SOL    HW2 2658   1.422   2.022   2.565 -2.8460  0.7909 -0.4735
  887SOL     OW 2659   1.116   0.416   1.324 -0.0195  0.0002 -0.2872
  887SOL    HW1 2660   1.129   0.465   1.233  0.2377 -1.0566 -0.2915
  887SOL    HW2 2661   1.087   0.487   1.397 -0.8090  2.6712 -0.4000
  888SOL     OW 2662   2.329   0.688   1.668 -0.6972 -0.6385  0.3360
  888SOL    HW1 2663   2.284   0.743   1.740  0.7272 -0.1069 -0.2453
  888SOL    HW2 2664   2.264   0.635   1.609  1.1295 -0.7090 -3.8877
  889SOL     OW 2665   0.345   2.665   0.669 -0.0463  0.2085  0.0252
  889SOL    HW1 2666   0.432   2.616   0.671  1.0082  3.1714  1.0509
  889SOL    HW2 2667   0.269   2.599   0.645  0.8577  0.3437 -0.6888
  890SOL     OW 2668   1.853   2.034   0.490  0.3673 -0.2530  0.4618
  890SOL    HW1 2669   1.902   2.122   0.504  1.5486  1.9517  2.0084
  890SOL    HW2 2670   1.779   2.042   0.421 -0.1153 -0.8078 -0.4690
  891SOL     OW 2671   0.086   1.093   3.070 -0.4162 -0.3802 -0.4628
  891SOL    HW1 2672   3.084   1.129   3.049 -1.7486  2.3379  1.7140
  891SOL    HW2 2673   0.154   1.120   2.998  2.2376  2.7983  2.5315
  892SOL     OW 2674   2.893   2.528   1.189 -0.3529 -0.7997  0.3335
  892SOL    HW1 2675   2.856   2.432   1.184  3.1328  0.5628  1.4849
  892SOL    HW2 2676   2.821   2.601   1.170  0.9767  2.1956  2.1167
  893SOL     OW 2677   1.338   0.490   0.950 -0.3602  0.0912 -0.1132
  893SOL    HW1 2678   1.397   0.412   0.986  0.0647  0.1998 -0.1692
  893SOL    HW2 2679   1.311   0.557   1.027  1.2295  2.5613  1.3983
  894SOL     OW 2680   2.854   0.475   0.853  0.3243 -0.2527 -0.3521
  894SOL    HW1 2681   2.766   0.525   0.857 -1.1410 -1.8885 -2.5043
  894SOL    HW2 2682   2.900   0.476   0.945  0.3666  1.4158  0.3248
  895SOL     OW 2683   1.639   1.139   2.336 -0.1220  0.0563 -0.6415
  895SOL    HW1 2684   1.591   1.221   2.375  1.6570 -0.9763 -0.6744
  895SOL    HW2 2685   1.694   1.166   2.255 -0.5528 -3.1403  0.6440
  896SOL     OW 2686   1.558   0.387   1.539  0.2972 -0.4577 -0.9163
  896SOL    HW1 2687   1.604   0.351   1.624  0.5716  0.2478 -1.8951
  896SOL    HW2 2688   1.536   0.309   1.476  0.6298  1.0318 -0.4134
  897SOL     OW 2689   0.587   1.644   1.698 -0.1906 -0.7425  0.4087
  897SOL    HW1 2690   0.505   1.656   1.642  2.3291  0.9222  0.8725
  897SOL    HW2 2691   0.651   1.723   1.696 -0.5146 -0.6706  2.9282
  898SOL     OW 2692   1.990   2.536   2.096  0.1533 -0.9419  0.4374
  898SOL    HW1 2693   1.991   2.439   2.069  1.1481  1.4099 -0.4585
  898SOL    HW2 2694   2.079   2.551   2.145 -1.9187  0.1231 -0.3494
  899SOL     OW 2695   1.341   1.708   1.034 -0.6637 -0.1452 -0.3838
  899SOL    HW1 2696   1.317   1.641   0.964  1.9294  0.9497  3.4869
  899SOL    HW2 2697   1.265   1.776   1.044 -2.7815  0.1651 -1.5767
  900SOL     OW 2698   1.398   2.207   2.598 -0.1963 -0.1359 -0.2734
  900SOL    HW1 2699   1.311   2.233   2.638  2.0879  0.9451  1.8416
  900SOL    HW2 2700   1.412   2.260   2.508  0.3037 -1.1880 -0.9435
  901SOL     OW 2701   0.973   1.723   2.380  0.4511 -0.0712 -0.6367
  901SOL    HW1 2702   0.939   1.657   2.304  0.8981  0.5894  0.4892
  901SOL    HW2 2703   0.913   1.808   2.374 -4.2427  0.8623  1.5392
  902SOL     OW 2704   2.359   1.733   0.327  0.5755 -0.3147  0.1964
  902SOL    HW1 2705   2.411   1.721   0.236 -0.5536 -2.5981 -1.7784
  902SOL    HW2 2706   2.412   1.720   0.409  0.8841  1.3166 -1.3598
  903SOL     OW 2707   2.097   1.721   0.423  0.8036  0.5401 -0.2812
  903SOL    HW1 2708   2.195   1.715   0.418 -1.3856 -0.2748 -2.7907
  903SOL    HW2 2709   2.067   1.770   0.341 -2.8485  3.0403 -1.9288
  904SOL     OW 2710   0.925   0.667   2.325  0.3244  0.5666  0.4678
  904SOL    HW1 2711   0.967   0.748   2.370 -0.3961  1.4655 -0.0354
  904SOL    HW2 2712   0.858   0.691   2.252 -2.7118 -1.3219  1.6947
  905SOL     OW 2713   2.929   0.194   0.763 -0.4475 -0.1459  0.4808
  905SOL    HW1 2714   3.024   0.179   0.789 -2.1273  0.8080 -2.2534
  905SOL    HW2 2715   2.914   0.295   0.757 -2.9634  1.0769 -0.6323
  906SOL     OW 2716   2.840   1.913   0.595  0.2215 -0.7388 -0.3800
  906SOL    HW1 2717   2.930   1.952   0.609  1.3801 -1.7688 -1.1373
  906SOL    HW2 2718   2.809   1.851   0.668  1.5299  0.1608 -3.8453
  907SOL     OW 2719   1.198   0.334   0.379  0.1489 -0.7308 -0.3677
  907SOL    HW1 2720   1.292   0.373   0.366 -4.2066  0.3138  2.0079
  907SOL    HW2 2721   1.173   0.278   0.301 -1.9029 -1.5348  0.0378
  908SOL     OW 2722   1.749   2.856   1.593 -0.7161 -0.2447  0.7552
  908SOL    HW1 2723   1.784   2.776   1.542 -0.3049  1.6725  0.2603
  908SOL    HW2 2724   1.683   2.831   1.661  1.7682  0.1984 -2.0319
  909SOL     OW 2725   2.745   0.750   1.471  0.5092  0.2429  0.1948
  909SOL    HW1 2726   2.674   0.767   1.546  2.5806 -1.4119  0.4414
  909SOL    HW2 2727   2.738   0.809   1.390 -1.0936 -0.8498  1.1214
  910SOL     OW 2728   1.252   2.989   2.593  0.1204 -0.3499 -0.3320
  910SOL    HW1 2729   1.307   2.910   2.565 -0.3014  2.6475  2.3007
  910SOL    HW2 2730   1.244   3.056   2.515 -0.0604  3.2740 -3.2573
  911SOL     OW 2731   2.117   1.132   1.960  0.1022 -0.2533 -0.3848
  911SOL    HW1 2732   2.100   1.153   2.058 -2.2285  1.1306  0.0861
  911SOL    HW2 2733   2.161   1.213   1.914  2.5699 -0.4334  1.7899
  912SOL     OW 2734   2.623   2.238   1.468 -0.5908  0.3878  0.0231
  912SOL    HW1 2735   2.708   2.191   1.429  1.6739 -0.0402 -1.5497
  912SOL    HW2 2736   2.547   2.242   1.398  0.4737 -0.2759 -2.1151
  913SOL     OW 2737   2.638   2.653   1.169 -0.5029 -0.0405  0.5188
  913SOL    HW1 2738   2.639   2.672   1.271  2.5249  1.4956  2.0134
  913SOL    HW2 2739   2.659   2.735   1.111 -0.6003 -3.9017 -2.8101
  914SOL     OW 2740   2.482   1.811   1.281 -0.1523 -0.5481 -0.5465
  914SOL    HW1 2741   2.449   1.735   1.229  0.1309  0.7171 -2.1128
  914SOL    HW2 2742   2.417   1.844   1.352  0.9962 -0.6043 -1.3666
  915SOL     OW 2743   1.157   2.031   1.267 -0.5532 -0.3730 -0.3909
  915SOL    HW1 2744   1.057   2.047   1.271  2.0298  1.8965 -0.8673
  915SOL    HW2 2745   1.191   2.020   1.362 -0.8870  2.0538  1.6396
  916SOL     OW 2746   2.980   2.972   1.190  0.7853  0.0636 -0.0129
  916SOL    HW1 2747   3.048   2.989   1.115  1.2407 -1.1537  2.4707
  916SOL    HW2 2748   2.886   2.949   1.155 -2.1141  1.1620 -0.3317
  917SOL     OW 2749   2.546   1.400   2.712 -0.3530  0.7288  0.4346
  917SOL    HW1 2750   2.587   1.328   2.650  0.6609 -0.6151 -0.8362
  917SOL    HW2 2751   2.451   1.374   2.740 -0.1242 -2.8546 -1.8094
  918SOL     OW 2752   1.748   2.077   2.277  0.2353  0.3336  0.1510
  918SOL    HW1 2753   1.811   2.027   2.214  0.1729  1.2943  2.1739
  918SOL    HW2 2754   1.689   2.009   2.328 -2.1618  0.3907 -0.5704
  919SOL     OW 2755   1.624   1.991   1.746 -0.7150  0.5451 -0.3127
  919SOL    HW1 2756   1.596   1.956   1.837  1.9203 -2.2341  2.1680
  919SOL    HW2 2757   1.659   1.915   1.688 -0.3289  0.6650 -1.4105
  920SOL     OW 2758   0.269   0.220   2.930  0.8092  0.2385 -0.2310
  920SOL    HW1 2759   0.358   0.269   2.917 -0.3703  0.1819  0.3800
  920SOL    HW2 2760   0.275   0.148   3.006 -1.6642 -1.3353 -0.6049
  921SOL     OW 2761   2.540   0.211   2.363 -0.3852 -0.0527  0.3162
  921SOL    HW1 2762   2.629   0.163   2.355  0.4978 -0.4393 -0.8334
  921SOL    HW2 2763   2.559   0.308   2.336  3.8363 -0.3915 -4.0190
  922SOL     OW 2764   2.332   1.519   1.643  0.0653  0.8801  0.3574
  922SOL    HW1 2765   2.373   1.607   1.659  0.5957 -2.1779  1.8008
  922SOL    HW2 2766   2.232   1.538   1.624 -1.1499  1.4455 -0.9424
  923SOL     OW 2767   0.687   1.940   0.462 -0.4532 -0.3771 -0.7749
  923SOL    HW1 2768   0.716   2.030   0.426 -1.1680 -2.0489 -1.1243
  923SOL    HW2 2769   0.758   1.872   0.445 -2.3172  1.5891  0.0766
  924SOL     OW 2770   1.452   0.484   2.989 -0.2663 -1.3970 -0.2525
  924SOL    HW1 2771   1.471   0.565   3.051  1.9466  1.3165  0.2289
  924SOL    HW2 2772   1.531   0.467   2.922  0.9013 -0.4427 -1.3014
  925SOL     OW 2773   2.597   1.396   0.733 -0.2159 -0.7553 -0.0706
  925SOL    HW1 2774   2.507   1.430   0.704 -1.5586  0.6172  3.8779
  925SOL    HW2 2775   2.622   1.447   0.819 -1.4734  2.3880 -2.3769
  926SOL     OW 2776   2.880   0.843   0.669  1.0145  0.3739 -0.2096
  926SOL    HW1 2777   2.945   0.915   0.694  1.2995 -1.1424 -0.6239
  926SOL    HW2 2778   2.790   0.878   0.698  0.6469 -2.3367  0.0707
  927SOL     OW 2779   0.486   1.503   0.460 -0.1125  0.7866 -0.2810
  927SOL    HW1 2780   0.503   1.406   0.435  0.3264 -1.3883 -2.7633
  927SOL    HW2 2781   0.561   1.559   0.419 -1.9253  0.2118 -0.3458
  928SOL     OW 2782   0.053   3.081   2.598 -0.1134 -0.2700 -0.6823
  928SOL    HW1 2783   0.113   3.042   2.669  0.9981  1.3844 -0.1361
  928SOL    HW2 2784   0.106   0.048   2.532 -0.3007  0.9976 -0.3180
  929SOL     OW 2785   2.745   0.148   1.354 -0.1976 -0.3838  0.1239
  929SOL    HW1 2786   2.711   0.235   1.402 -1.1095 -1.2318 -1.8108
  929SOL    HW2 2787   2.729   0.133   1.253  0.9353 -1.5774  0.9923
  930SOL     OW 2788   2.033   2.137   1.548  0.6332  0.3509 -0.0320
  930SOL    HW1 2789   1.949   2.182   1.580 -0.8546  0.8674 -2.4057
  930SOL    HW2 2790   2.050   2.052   1.605 -1.7369 -2.2819  1.6714
  931SOL     OW 2791   1.673   0.923   1.030  0.1324  0.0283  0.0024
  931SOL    HW1 2792   1.586   0.893   0.986  0.5185  0.2134 -2.0113
  931SOL    HW2 2793   1.756   0.885   0.985 -0.9836  0.1678 -1.2850
  932SOL     OW 2794   2.776   0.990   1.264 -0.9059  0.0948 -0.5837
  932SOL    HW1 2795   2.679   0.982   1.258  0.5496 -0.7280  1.8099
  932SOL    HW2 2796   2.819   0.989   1.173 -1.1328 -0.8911  1.3328
  933SOL     OW 2797   2.455   1.765   1.674 -0.1183 -0.2733  0.5042
  933SOL    HW1 2798   2.419   1.826   1.607 -0.9454 -0.6644  1.4111
  933SOL    HW2 2799   2.552   1.757   1.666 -2.6590 -1.9466 -1.0675
  934SOL     OW 2800   1.667   2.975   0.931  0.3826  0.0603  0.2069
  934SOL    HW1 2801   1.573   2.979   0.889  0.6202 -2.5817 -3.2677
  934SOL    HW2 2802   1.729   3.053   0.909 -0.8106  2.3904  0.0944
  935SOL     OW 2803   0.040   1.248   1.144  0.0713  0.3257  0.0540
  935SOL    HW1 2804   3.080   1.264   1.057  0.7913 -0.3753 -1.8903
  935SOL    HW2 2805   0.067   1.149   1.147  1.2093  0.3737  0.0003
  936SOL     OW 2806   2.887   0.965   0.987 -0.4348  0.5600  0.3772
  936SOL    HW1 2807   2.835   1.023   0.921  0.9765  1.4270  1.6823
  936SOL    HW2 2808   2.985   0.977   0.987  0.1850  0.6937 -0.5994
  937SOL     OW 2809   1.481   2.719   0.908  0.1649 -0.3816 -0.0733
  937SOL    HW1 2810   1.457   2.740   0.809  1.6147  0.3555  1.0467
  937SOL    HW2 2811   1.543   2.635   0.910 -1.1117  1.7052 -0.5532
  938SOL     OW 2812   2.882   2.464   0.712  0.3966  0.2598 -0.0881
  938SOL    HW1 2813   2.822   2.444   0.631 -0.8163 -0.9634 -2.6540
  938SOL    HW2 2814   2.863   2.558   0.758 -1.5302  0.8674 -0.0193
  939SOL     OW 2815   0.820   1.953   0.068 -0.5817 -0.1504 -0.6536
  939SOL    HW1 2816   0.900   1.899   0.101 -1.3878 -2.1113  0.8191
  939SOL    HW2 2817   0.846   2.051   0.052 -2.4724 -0.2643 -1.1380
  940SOL     OW 2818   2.884   2.855   2.796 -0.2324  0.1276  0.1291
  940SOL    HW1 2819   2.927   2.876   2.708 -2.0334 -0.9567 -0.7208
  940SOL    HW2 2820   2.783   2.833   2.783 -1.8434 -0.7758 -3.0370
  941SOL     OW 2821   1.411   2.894   2.941  0.3511 -0.3633 -0.5058
  941SOL    HW1 2822   1.477   2.973   2.939  0.2697  1.6179 -1.1006
  941SOL    HW2 2823   1.430   2.833   3.025  2.5593 -1.5191  1.8946
  942SOL     OW 2824   1.744   1.796   1.577  0.4687 -0.0054  0.7104
  942SOL    HW1 2825   1.720   1.702   1.606  0.3752  2.2668  0.9910
  942SOL    HW2 2826   1.706   1.817   1.482 -0.0180 -2.2770  2.1485
  943SOL     OW 2827   2.222   1.200   1.420  0.1105 -0.0837  0.1892
  943SOL    HW1 2828   2.322   1.202   1.449  1.8339  1.4870  2.8876
  943SOL    HW2 2829   2.163   1.185   1.503  0.4394  0.5716  0.4009
  944SOL     OW 2830   2.030   0.782   1.731 -0.3967 -0.6523 -0.0906
  944SOL    HW1 2831   2.046   0.790   1.629 -0.8727 -1.6780  2.5790
  944SOL    HW2 2832   1.976   0.702   1.760 -0.6039  0.3022 -1.3054
  945SOL     OW 2833   0.109   0.059   1.318 -0.0274 -0.0388  0.4330
  945SOL    HW1 2834   0.095   3.077   1.383 -2.0066 -0.9425 -0.9579
  945SOL    HW2 2835   0.028   0.087   1.260 -2.1409  1.1657 -1.9013
  946SOL     OW 2836   0.318   0.749   1.784 -0.6196 -0.2456  0.0593
  946SOL    HW1 2837   0.278   0.808   1.715 -0.1159 -0.8793  1.8689
  946SOL    HW2 2838   0.371   0.800   1.853 -0.1040 -2.0611 -0.5364
  947SOL     OW 2839   0.559   2.496   0.602  0.1043 -0.5461 -0.0680
  947SOL    HW1 2840   0.597   2.577   0.552  2.4337 -0.7114 -0.9833
  947SOL    HW2 2841   0.638   2.440   0.633  1.0056  0.5274 -0.0738
  948SOL     OW 2842   2.919   1.293   1.855 -0.0180 -0.0572  0.3017
  948SOL    HW1 2843   2.985   1.321   1.781  0.0961 -0.8681  0.3093
  948SOL    HW2 2844   2.938   1.195   1.864 -2.6537  1.3349  1.7198
  949SOL     OW 2845   0.076   0.985   2.192 -0.0870  0.4038 -0.2472
  949SOL    HW1 2846   0.159   0.986   2.253 -0.2246  1.2452  2.6324
  949SOL    HW2 2847   0.076   0.908   2.128  0.1121  3.2654  1.4618
  950SOL     OW 2848   0.884   1.063   1.109  0.1622  0.3496  0.3713
  950SOL    HW1 2849   0.986   1.059   1.099 -1.1647  0.4284  2.0466
  950SOL    HW2 2850   0.856   1.145   1.061  1.9255  0.6099 -1.0259
  951SOL     OW 2851   1.151   1.839   2.011  0.5811 -0.3346 -0.0451
  951SOL    HW1 2852   1.180   1.879   2.103 -0.8005 -0.3859  1.1401
  951SOL    HW2 2853   1.113   1.742   2.020 -3.0786 -0.0638  0.3188
  952SOL     OW 2854   0.811   1.586   2.820  0.6877  0.3826  0.2739
  952SOL    HW1 2855   0.887   1.538   2.868  0.6976  0.2985 -1.5907
  952SOL    HW2 2856   0.806   1.558   2.723  0.7635  3.5721 -2.0312
  953SOL     OW 2857   1.421   2.939   2.245 -0.6331 -0.0162 -0.2887
  953SOL    HW1 2858   1.321   2.908   2.237 -3.9621  1.5191  0.5298
  953SOL    HW2 2859   1.462   2.928   2.341  0.8529 -1.7752  3.4681
  954SOL     OW 2860   2.086   1.227   0.348  0.9704 -0.2623  0.8584
  954SOL    HW1 2861   2.134   1.316   0.342 -0.3247 -1.0689  0.7554
  954SOL    HW2 2862   2.158   1.157   0.358  1.2136  4.4363  0.5818
  955SOL     OW 2863   0.392   2.236   2.235  0.0577 -0.0288 -0.0658
  955SOL    HW1 2864   0.366   2.173   2.310 -1.6001  2.4383  1.4135
  955SOL    HW2 2865   0.426   2.186   2.153 -0.2712 -1.5365 -1.3151
  956SOL     OW 2866   1.382   1.142   1.495  0.1140  0.1211 -0.0617
  956SOL    HW1 2867   1.366   1.054   1.447  0.9378  0.8161  3.1820
  956SOL    HW2 2868   1.479   1.169   1.470 -3.5237  1.2936  0.8706
  957SOL     OW 2869   2.041   1.255   2.500  0.1120 -0.1030  0.2284
  957SOL    HW1 2870   2.046   1.343   2.557  0.8394 -0.6918 -1.4119
  957SOL    HW2 2871   1.982   1.192   2.552  0.5453  2.2801 -0.2503
  958SOL     OW 2872   1.612   2.464   0.948 -0.6123  0.5288 -0.4307
  958SOL    HW1 2873   1.542   2.466   1.027 -2.1554 -1.7853 -1.0147
  958SOL    HW2 2874   1.678   2.384   0.954  0.3355 -0.1985  0.0530
  959SOL     OW 2875   1.863   1.746   2.517 -0.3504 -0.0316  0.2394
  959SOL    HW1 2876   1.774   1.776   2.486  0.7914  1.2689  1.3905
  959SOL    HW2 2877   1.873   1.743   2.617 -2.7433  2.1075 -2.5383
  960SOL     OW 2878   0.402   0.450   3.083 -0.1466 -0.2910 -0.3642
  960SOL    HW1 2879   0.394   0.545   0.028 -2.3180 -2.8880  1.2228
  960SOL    HW2 2880   0.446   0.449   2.989  1.4913 -1.4851 -0.8809
  961SOL     OW 2881   0.271   0.513   2.192 -0.3107  0.0797 -0.4436
  961SOL    HW1 2882   0.258   0.529   2.093 -1.9770  0.1456  1.2326
  961SOL    HW2 2883   0.355   0.455   2.201 -0.3190 -2.3381 -0.8654
  962SOL     OW 2884   1.145   1.432   0.122 -0.2087  0.0315 -1.0230
  962SOL    HW1 2885   1.244   1.407   0.131 -0.6385  0.5069  0.2444
  962SOL    HW2 2886   1.101   1.406   0.212  2.2764 -2.9360 -2.1644
  963SOL     OW 2887   1.799   1.863   3.016 -0.0690 -0.0312 -0.1953
  963SOL    HW1 2888   1.871   1.938   3.035  3.7554  0.6459 -2.2747
  963SOL    HW2 2889   1.759   1.825   0.009 -2.0619  0.3285  2.5512
  964SOL     OW 2890   1.181   2.905   0.821 -0.0981 -0.0641 -0.5714
  964SOL    HW1 2891   1.133   2.995   0.829  2.2028  0.9794  0.7044
  964SOL    HW2 2892   1.264   2.897   0.882  2.8000 -0.5562  0.8006
  965SOL     OW 2893   0.802   2.638   1.102 -0.2556  0.3359 -0.9350
  965SOL    HW1 2894   0.821   2.616   1.002 -1.8923 -2.6448  1.0146
  965SOL    HW2 2895   0.712   2.678   1.107  2.7787 -1.7945 -0.4067
  966SOL     OW 2896   2.980   1.422   3.066 -0.5690  0.0087  0.0189
  966SOL    HW1 2897   3.020   1.406   2.971  1.6302 -0.7637  0.5391
  966SOL    HW2 2898   2.886   1.396   3.058  3.1481 -1.6445 -0.7126
  967SOL     OW 2899   1.508   2.821   1.736  0.5494 -0.1128  0.1454
  967SOL    HW1 2900   1.432   2.805   1.672  0.9397 -2.0259 -0.7707
  967SOL    HW2 2901   1.512   2.922   1.760 -1.0686  2.0605 -1.3670
  968SOL     OW 2902   1.787   0.930   0.654 -0.9462  0.7846 -0.6619
  968SOL    HW1 2903   1.744   0.875   0.583 -0.0471 -0.8524 -0.0872
  968SOL    HW2 2904   1.798   0.880   0.740 -1.8280  1.2046 -2.4408
  969SOL     OW 2905   0.388   1.864   2.285 -0.0962 -0.1367  0.3665
  969SOL    HW1 2906   0.329   1.931   2.235  2.0109 -1.0430 -3.1889
  969SOL    HW2 2907   0.405   1.893   2.383  0.3244  0.6239  0.6975
  970SOL     OW 2908   2.738   1.545   1.391 -0.3095  0.5438 -0.5330
  970SOL    HW1 2909   2.795   1.468   1.357  3.4223 -0.7289 -1.7125
  970SOL    HW2 2910   2.641   1.520   1.400  2.0552 -0.7280 -2.4512
  971SOL     OW 2911   1.018   0.602   1.497  0.9868 -0.1270 -0.0529
  971SOL    HW1 2912   0.930   0.659   1.506 -5.6753  0.5236 -0.1148
  971SOL    HW2 2913   1.045   0.568   1.593 -2.4398 -2.4121  3.2941
  972SOL     OW 2914   0.783   0.259   2.609  0.3352 -0.5690 -0.3665
  972SOL    HW1 2915   0.861   0.292   2.666 -1.1338  0.0412  1.5509
  972SOL    HW2 2916   0.818   0.188   2.547 -0.2201  2.8513  1.5550
  973SOL     OW 2917   2.985   1.292   0.920 -0.1452  0.4800 -0.4702
  973SOL    HW1 2918   2.893   1.265   0.884  1.3301 -1.6619  1.1351
  973SOL    HW2 2919   3.048   1.305   0.842  2.2448  2.6579  0.4498
  974SOL     OW 2920   1.874   0.968   1.898  0.8079 -0.7804 -0.3365
  974SOL    HW1 2921   1.955   1.008   1.946  2.0290 -0.3029  2.2384
  974SOL    HW2 2922   1.900   0.911   1.821 -1.7448 -0.3606  4.6213
  975SOL     OW 2923   2.818   2.882   0.473  0.3806 -0.5668  0.7044
  975SOL    HW1 2924   2.745   2.864   0.543 -0.5150 -2.6665 -0.8006
  975SOL    HW2 2925   2.849   2.978   0.463 -1.7707 -0.3928 -1.0242
  976SOL     OW 2926   0.156   1.600   1.605  0.2351  0.1716 -0.0085
  976SOL    HW1 2927   0.239   1.647   1.569  1.4173 -0.2846  0.0687
  976SOL    HW2 2928   0.105   1.664   1.664  0.5851 -0.3887  0.5050
  977SOL     OW 2929   0.723   2.751   0.080  0.2301 -0.6615  0.4003
  977SOL    HW1 2930   0.688   2.820   0.145  2.1381  0.7324  0.1603
  977SOL    HW2 2931   0.690   2.767   3.078  0.9693  0.9700  3.1858
  978SOL     OW 2932   0.594   1.811   0.069 -0.3947 -0.2954 -0.0155
  978SOL    HW1 2933   0.601   1.732   0.006 -0.9191  2.2539 -0.5653
  978SOL    HW2 2934   0.663   1.885   0.055 -1.0632  0.6253  0.6368
  979SOL     OW 2935   1.376   2.174   1.121  0.0451  0.4156 -0.2636
  979SOL    HW1 2936   1.436   2.135   1.051 -0.8830  3.8932 -1.2449
  979SOL    HW2 2937   1.299   2.115   1.156  0.3023  1.5052  1.0763
  980SOL     OW 2938   0.511   1.167   2.265 -0.2349  0.2801  0.3876
  980SOL    HW1 2939   0.457   1.092   2.309 -0.2861 -3.1214  2.9070
  980SOL    HW2 2940   0.470   1.200   2.176 -1.4833  2.1043  0.7677
  981SOL     OW 2941   3.076   1.300   0.210  0.4419 -0.6979  0.0694
  981SOL    HW1 2942   0.073   1.284   0.164 -2.5334 -0.3960  1.1121
  981SOL    HW2 2943   3.014   1.368   0.160  0.3154 -1.0000 -1.1611
  982SOL     OW 2944   2.375   2.888   2.820  0.3578  0.0838 -0.7480
  982SOL    HW1 2945   2.406   2.848   2.908  1.3931 -1.2597  1.0423
  982SOL    HW2 2946   2.277   2.920   2.822 -1.1387 -1.7886 -3.2643
  983SOL     OW 2947   2.213   0.569   1.210  0.2900  0.5917  0.2611
  983SOL    HW1 2948   2.246   0.655   1.249  1.5708  0.3191  1.2614
  983SOL    HW2 2949   2.127   0.538   1.250 -1.7061  2.1491 -1.3535
  984SOL     OW 2950   0.905   0.066   2.441  0.3885 -0.7196 -0.5394
  984SOL    HW1 2951   0.888   0.111   2.346 -2.7700 -0.0044 -1.3437
  984SOL    HW2 2952   1.003   0.045   2.461  1.7775  0.5683  1.1049
  985SOL     OW 2953   1.454   2.191   2.136  0.2939  0.1656 -0.2401
  985SOL    HW1 2954   1.454   2.110   2.078  0.8693  4.7939  0.8067
  985SOL    HW2 2955   1.548   2.232   2.133 -0.4066  1.2954 -1.2641
  986SOL     OW 2956   1.713   0.073   2.300 -0.4310 -0.1207 -0.2722
  986SOL    HW1 2957   1.677   0.009   2.365  0.4206  2.6086 -1.4843
  986SOL    HW2 2958   1.806   0.105   2.320 -1.0562 -1.6294  1.2396
  987SOL     OW 2959   2.148   0.360   2.171  0.3328  0.3354 -0.1521
  987SOL    HW1 2960   2.147   0.280   2.109  0.2869  0.6574 -0.8636
  987SOL    HW2 2961   2.237   0.414   2.168  1.6116  2.5727 -0.5193
  988SOL     OW 2962   2.584   0.492   2.315  0.4235 -0.6249  0.5003
  988SOL    HW1 2963   2.587   0.595   2.341  1.0923  1.8704  1.7189
  988SOL    HW2 2964   2.502   0.484   2.251  0.7127  1.9922  1.0798
  989SOL     OW 2965   2.473   2.476   2.491  0.3942 -0.3555 -0.3532
  989SOL    HW1 2966   2.532   2.420   2.548 -2.7813  1.5552  1.6986
  989SOL    HW2 2967   2.478   2.436   2.397 -2.3199 -0.2403  2.1549
  990SOL     OW 2968   0.252   0.918   0.129  0.3344 -0.3888  0.4599
  990SOL    HW1 2969   0.184   0.869   0.190 -1.9060  2.8227 -1.4434
  990SOL    HW2 2970   0.199   0.964   0.053 -0.0552  1.7515  0.5617
  991SOL     OW 2971   0.462   0.704   2.790 -0.1146  0.3562 -0.4110
  991SOL    HW1 2972   0.413   0.637   2.730 -2.0770  1.0478  0.1416
  991SOL    HW2 2973   0.566   0.692   2.789  2.0241 -0.4174 -2.1564
  992SOL     OW 2974   0.230   1.648   2.182  0.3023 -0.1148  0.2546
  992SOL    HW1 2975   0.268   1.726   2.237 -0.3304  3.8005 -0.4924
  992SOL    HW2 2976   0.223   1.674   2.082 -0.5671  1.1491  1.5512
  993SOL     OW 2977   0.615   0.124   0.902  0.2248 -0.1475 -0.3241
  993SOL    HW1 2978   0.610   0.211   0.850  0.5437  0.4549 -0.3577
  993SOL    HW2 2979   0.545   0.129   0.976  3.1469  1.3010 -0.5312
  994SOL     OW 2980   0.311   2.269   1.627 -0.2643  0.3001  0.1006
  994SOL    HW1 2981   0.242   2.211   1.672  1.4004  1.1669 -1.3556
  994SOL    HW2 2982   0.367   2.221   1.552  0.8915 -0.5883 -0.2123
  995SOL     OW 2983   2.433   1.800   2.907 -0.6165 -0.1739 -0.0862
  995SOL    HW1 2984   2.492   1.864   2.854 -1.0383 -1.4860  1.0616
  995SOL    HW2 2985   2.356   1.770   2.848 -0.0630  1.7197 -0.1061
  996SOL     OW 2986   2.087   1.489   2.615 -0.4069  0.3542  0.3061
  996SOL    HW1 2987   2.182   1.475   2.581  0.8220  1.2462  0.4808
  996SOL    HW2 2988   2.065   1.589   2.615 -2.0347 -2.6376 -3.0099
  997SOL     OW 2989   1.665   1.168   1.851 -0.2829  0.4969  0.6329
  997SOL    HW1 2990   1.733   1.141   1.780  1.7085  0.8358 -1.4881
  997SOL    HW2 2991   1.579   1.122   1.821  0.2733 -0.9327  0.4090
  998SOL     OW 2992   2.438   2.002   0.819  0.6885 -0.2680  0.0767
  998SOL    HW1 2993   2.471   1.992   0.912  0.4057 -1.3493 -2.1097
  998SOL    HW2 2994   2.361   1.941   0.791  4.3516  1.5040  0.5145
  999SOL     OW 2995   2.576   2.648   0.277 -0.2925  0.2609 -0.4173
  999SOL    HW1 2996   2.521   2.737   0.263 -0.1331  2.6297  1.3710
  999SOL    HW2 2997   2.659   2.653   0.215  0.4835 -1.2705 -2.1883
 1000SOL     OW 2998   0.767   2.944   2.558 -0.0825  0.1511 -0.0450
 1000SOL    HW1 2999   0.689   2.973   2.615  2.9843 -0.4151 -1.2776
 1000SOL    HW2 3000   0.805   3.024   2.515 -1.6234 -2.5827  2.4298
   3.09220   3.09220   3.09220
